A-SYNC WITH LIG-47 in water
35301
  121NASP     N    1   1.180   0.714   1.658  0.1258  0.5326 -0.1026
  121NASP    H1    2   1.211   0.669   1.573 -1.9319 -1.9704  0.3731
  121NASP    H2    3   1.250   0.785   1.678 -0.5080  1.3538 -0.7316
  121NASP    H3    4   1.089   0.756   1.648 -0.2393 -0.5054 -1.3381
  121NASP    CA    5   1.183   0.610   1.764 -0.1585  0.3314 -0.2058
  121NASP    HA    6   1.185   0.656   1.863  1.8495 -0.2255  0.0493
  121NASP    CB    7   1.060   0.518   1.767 -0.6499  0.0127 -0.2462
  121NASP   HB1    8   0.973   0.576   1.798 -0.4334 -0.1404  0.6615
  121NASP   HB2    9   1.079   0.435   1.835  1.9980  1.0151  0.3792
  121NASP    CG   10   1.007   0.454   1.641  0.1863 -0.4132 -0.4294
  121NASP   OD1   11   0.900   0.389   1.662 -0.0656 -0.5336 -0.3193
  121NASP   OD2   12   1.070   0.463   1.536 -0.4636 -0.1744  0.3433
  121NASP     C   13   1.318   0.537   1.760 -0.6458 -0.8691 -0.1758
  121NASP     O   14   1.378   0.511   1.657  0.4128 -0.3257 -0.2653
  122ASN      N   15   1.349   0.488   1.880  0.1558 -0.0639 -0.1452
  122ASN      H   16   1.279   0.501   1.952  0.9276  0.2934  0.5478
  122ASN     CA   17   1.461   0.400   1.909 -0.9613  0.2961 -0.1373
  122ASN     HA   18   1.450   0.373   2.014 -1.0520  0.0980 -0.1954
  122ASN     CB   19   1.442   0.265   1.837 -0.0071 -0.0442  0.2174
  122ASN    HB1   20   1.510   0.187   1.872  2.4086  1.3268 -1.1460
  122ASN    HB2   21   1.463   0.279   1.731 -1.4003 -0.6461 -0.1600
  122ASN     CG   22   1.303   0.208   1.841  0.2328 -0.0120 -0.8054
  122ASN    OD1   23   1.241   0.203   1.949  0.7340  0.1939 -0.0221
  122ASN    ND2   24   1.239   0.171   1.734 -0.3372  0.1000  0.0500
  122ASN   HD21   25   1.139   0.164   1.747 -0.5007  1.4558 -0.3478
  122ASN   HD22   26   1.279   0.170   1.641 -0.1449 -0.8871  0.1255
  122ASN      C   27   1.610   0.457   1.898  0.2335  0.2025 -0.7202
  122ASN      O   28   1.696   0.388   1.950 -0.8731  0.4339 -0.2635
  123GLU      N   29   1.637   0.579   1.858  0.2490 -0.0732 -0.2153
  123GLU      H   30   1.557   0.641   1.858 -0.5485 -1.0234  1.9185
  123GLU     CA   31   1.776   0.630   1.837 -0.2286 -0.7518  0.0588
  123GLU     HA   32   1.828   0.554   1.779  0.1631 -2.0095  1.9495
  123GLU     CB   33   1.766   0.759   1.749 -0.0775  0.5125  0.1104
  123GLU    HB1   34   1.863   0.803   1.725 -1.3471  3.2168 -0.4623
  123GLU    HB2   35   1.706   0.838   1.793  0.6982 -0.1893  2.5539
  123GLU     CG   36   1.713   0.734   1.609  0.0830  0.2523 -0.3324
  123GLU    HG1   37   1.606   0.713   1.616 -0.0366  1.1876  1.1114
  123GLU    HG2   38   1.760   0.647   1.564  1.2168 -0.1051  1.4520
  123GLU     CD   39   1.735   0.854   1.516  0.3970  0.1593  0.4778
  123GLU    OE1   40   1.645   0.899   1.446  0.0750 -0.1361 -0.4662
  123GLU    OE2   41   1.845   0.908   1.495 -0.1808  0.1243  0.5505
  123GLU      C   42   1.856   0.639   1.962 -0.3918 -0.6942  0.3370
  123GLU      O   43   1.798   0.633   2.069 -0.5136  0.2150  0.1431
  124ALA      N   44   1.987   0.671   1.960  0.5416  0.5545 -0.0792
  124ALA      H   45   2.033   0.684   1.871  2.1094  0.7469  0.7246
  124ALA     CA   46   2.055   0.688   2.095 -0.1203  0.1270  0.1118
  124ALA     HA   47   2.044   0.588   2.137  2.8986 -0.9503 -1.3894
  124ALA     CB   48   2.207   0.706   2.074 -1.0857 -0.3887  0.5342
  124ALA    HB1   49   2.214   0.806   2.030  1.4023 -0.5367  0.4791
  124ALA    HB2   50   2.248   0.634   2.004 -0.7720 -0.6150  0.9473
  124ALA    HB3   51   2.259   0.703   2.169  0.1254  0.3594 -0.0787
  124ALA      C   52   1.998   0.797   2.189  0.1632 -0.2341  0.3594
  124ALA      O   53   2.014   0.780   2.310  0.7955  0.1817  0.8230
  125TYR      N   54   1.940   0.904   2.132  0.5618 -0.7742 -0.0005
  125TYR      H   55   1.937   0.908   2.031 -1.4707  0.0408  0.0419
  125TYR     CA   56   1.870   0.999   2.214 -0.7057 -0.2686  0.3922
  125TYR     HA   57   1.926   1.017   2.306 -3.1740  0.7108  1.8338
  125TYR     CB   58   1.869   1.131   2.135  0.5176 -0.6185  0.1360
  125TYR    HB1   59   1.965   1.161   2.094 -0.8376  2.4252 -1.1822
  125TYR    HB2   60   1.839   1.218   2.194  1.6746  0.7137 -1.1741
  125TYR     CG   61   1.788   1.139   2.007 -0.6396 -0.2217 -0.7508
  125TYR    CD1   62   1.857   1.109   1.887  0.1650 -0.2153  0.2657
  125TYR    HD1   63   1.957   1.069   1.894  1.2445  1.7824 -2.2107
  125TYR    CE1   64   1.788   1.113   1.768 -0.1360  0.4897 -0.3821
  125TYR    HE1   65   1.849   1.097   1.681  1.3106  0.4010  0.6246
  125TYR     CZ   66   1.658   1.156   1.758  0.8671 -0.3264  0.3474
  125TYR     OH   67   1.603   1.174   1.637  0.5603 -0.1855  1.1431
  125TYR     HH   68   1.662   1.179   1.561 -2.4877  1.9943 -1.3052
  125TYR    CE2   69   1.591   1.197   1.877 -0.2803  0.1746 -0.5713
  125TYR    HE2   70   1.493   1.239   1.888  0.7953  2.7690 -0.0920
  125TYR    CD2   71   1.659   1.192   2.002  0.1384  0.2689  0.5927
  125TYR    HD2   72   1.602   1.204   2.094  0.6562  2.6301  0.6513
  125TYR      C   73   1.729   0.962   2.255  0.1565 -0.0600 -0.0262
  125TYR      O   74   1.659   1.041   2.321 -0.9187  0.0426 -0.5571
  126GLU      N   75   1.680   0.845   2.214  0.2657  0.2458  0.0631
  126GLU      H   76   1.745   0.791   2.160 -0.2585 -2.3751  1.8741
  126GLU     CA   77   1.546   0.789   2.247 -0.4525 -0.2059  0.3352
  126GLU     HA   78   1.496   0.857   2.315 -0.5654 -0.0229  0.0673
  126GLU     CB   79   1.452   0.789   2.129 -0.3971  0.2117  0.0260
  126GLU    HB1   80   1.352   0.763   2.163 -0.1106 -1.3442 -0.2380
  126GLU    HB2   81   1.487   0.709   2.064  0.4053  1.7584 -1.5109
  126GLU     CG   82   1.453   0.915   2.047  0.2383 -0.7690 -0.7638
  126GLU    HG1   83   1.549   0.942   2.002  0.3424 -1.4794 -0.9741
  126GLU    HG2   84   1.423   0.993   2.117  1.3097 -1.7983  0.8987
  126GLU     CD   85   1.366   0.905   1.932  0.1551 -0.7174  0.5511
  126GLU    OE1   86   1.259   0.975   1.928  0.0842 -0.0171  0.3510
  126GLU    OE2   87   1.391   0.815   1.844  0.3751 -0.3396  0.4680
  126GLU      C   88   1.543   0.654   2.312 -0.1122  0.0346  0.5071
  126GLU      O   89   1.466   0.641   2.409  0.4209 -0.1863  0.1409
  127MET      N   90   1.614   0.547   2.274  0.0550  0.5106  0.0701
  127MET      H   91   1.684   0.557   2.202 -0.6844  0.6732 -0.6415
  127MET     CA   92   1.611   0.425   2.357 -0.3212  0.4469  0.2193
  127MET     HA   93   1.510   0.385   2.341  0.2055 -0.6027 -0.5833
  127MET     CB   94   1.713   0.322   2.294 -0.0978  0.5017  0.0943
  127MET    HB1   95   1.693   0.299   2.189  0.5270 -0.2825  0.1356
  127MET    HB2   96   1.674   0.236   2.349 -0.8813  2.1311  2.2240
  127MET     CG   97   1.861   0.359   2.319 -0.1354  0.1994 -0.5078
  127MET    HG1   98   1.879   0.371   2.426  0.8662 -1.0246 -0.5143
  127MET    HG2   99   1.885   0.452   2.267 -0.6547 -0.0551 -1.2059
  127MET     SD  100   1.987   0.236   2.254  0.5348 -0.4255 -0.0832
  127MET     CE  101   2.137   0.331   2.243 -0.1044 -0.2298 -0.2869
  127MET    HE1  102   2.140   0.404   2.162  0.4449  0.3774  0.2732
  127MET    HE2  103   2.222   0.262   2.240  1.7609  1.8174  1.7025
  127MET    HE3  104   2.146   0.390   2.334  0.4698 -0.3860 -0.2387
  127MET      C  105   1.647   0.447   2.505  0.4092  0.9576 -0.2955
  127MET      O  106   1.725   0.536   2.537  0.2791 -0.2886  0.1305
  128PRO      N  107   1.593   0.365   2.599  0.3323  0.0864  0.0697
  128PRO     CD  108   1.480   0.279   2.585 -0.3233  0.5471  0.5398
  128PRO    HD1  109   1.511   0.179   2.553  0.9946  0.9965  0.3200
  128PRO    HD2  110   1.410   0.319   2.512  2.5837  2.2738 -1.5649
  128PRO     CG  111   1.426   0.270   2.727 -0.2251  0.3384  0.7527
  128PRO    HG1  112   1.379   0.174   2.752  1.1695 -0.1877  1.4744
  128PRO    HG2  113   1.351   0.346   2.750  0.1298  1.6592 -2.1021
  128PRO     CB  114   1.548   0.281   2.818 -0.2627  0.3749 -0.5113
  128PRO    HB1  115   1.534   0.312   2.921  2.1347 -0.5465  0.1450
  128PRO    HB2  116   1.595   0.183   2.823  0.4355  0.6120 -1.8148
  128PRO     CA  117   1.631   0.382   2.740 -0.4327 -0.3996 -0.0661
  128PRO     HA  118   1.609   0.484   2.772 -1.1466 -0.6687  0.3335
  128PRO      C  119   1.778   0.348   2.767  0.2560  0.1146 -0.1815
  128PRO      O  120   1.836   0.275   2.687  0.0354  0.4162 -0.2669
  129SER      N  121   1.833   0.390   2.879 -0.7902  0.2960  0.3268
  129SER      H  122   1.793   0.464   2.936 -0.4662  1.4550 -0.9184
  129SER     CA  123   1.982   0.375   2.905  0.6681 -0.4315  0.8656
  129SER     HA  124   2.047   0.401   2.822  1.3279 -2.4986  0.6859
  129SER     CB  125   2.019   0.485   3.003 -0.1362  0.3449 -0.0458
  129SER    HB1  126   2.041   0.584   2.963  0.6924  0.9048  1.6798
  129SER    HB2  127   2.106   0.452   3.059  1.5179  1.4487 -1.8465
  129SER     OG  128   1.909   0.501   3.101  0.0311 -0.1366 -0.1995
  129SER    HG1  129   1.957   0.534   3.177  2.2508  0.6710 -1.8586
  129SER      C  130   2.022   0.237   2.957  0.1035  0.3080 -0.7465
  129SER      O  131   2.133   0.217   3.010 -0.5322  0.5813 -0.1132
  130GLU      N  132   1.921   0.145   2.953 -0.0233 -0.0618 -0.4739
  130GLU      H  133   1.831   0.178   2.922  0.4882  1.3224 -0.5703
  130GLU     CA  134   1.932   0.008   3.009  0.2282 -0.2785  0.3986
  130GLU     HA  135   2.032  -0.036   3.001 -0.2448 -1.0995 -1.6997
  130GLU     CB  136   1.889   0.008   3.157  0.3660 -0.8993  0.5939
  130GLU    HB1  137   1.948   0.074   3.221  0.9498  0.6135 -1.3784
  130GLU    HB2  138   1.897  -0.093   3.195  1.4329 -1.0868 -0.0912
  130GLU     CG  139   1.747   0.052   3.178 -0.0327 -0.6752 -0.0893
  130GLU    HG1  140   1.680  -0.020   3.131 -1.1947  0.3897 -0.1420
  130GLU    HG2  141   1.732   0.154   3.143 -0.8263 -0.7087  0.1370
  130GLU     CD  142   1.697   0.046   3.318  0.5967  0.0433  0.0941
  130GLU    OE1  143   1.765   0.022   3.426  0.4718 -0.2490 -0.0565
  130GLU    OE2  144   1.573   0.054   3.319 -0.4209  0.4616 -0.3151
  130GLU      C  145   1.842  -0.089   2.938  0.5498  0.1805 -0.2536
  130GLU      O  146   1.759  -0.056   2.851  0.2430 -0.5492 -0.5424
  131GLU      N  147   1.852  -0.217   2.969 -0.0078 -0.2138 -0.2689
  131GLU      H  148   1.921  -0.231   3.042  0.4174 -1.4590 -0.8808
  131GLU     CA  149   1.779  -0.328   2.916  0.4758 -0.9838  0.3216
  131GLU     HA  150   1.678  -0.291   2.897  0.8334 -0.3246 -0.3600
  131GLU     CB  151   1.832  -0.376   2.778 -0.2713  0.0121 -0.1344
  131GLU    HB1  152   1.918  -0.436   2.805 -0.7713 -0.7974 -0.2963
  131GLU    HB2  153   1.858  -0.291   2.715  2.9146 -1.7888 -1.4242
  131GLU     CG  154   1.737  -0.473   2.708  0.5804  0.5879  0.1492
  131GLU    HG1  155   1.654  -0.436   2.649  0.5977 -0.4761 -0.5803
  131GLU    HG2  156   1.693  -0.539   2.783  1.5354  0.1239  0.3198
  131GLU     CD  157   1.815  -0.574   2.624 -1.1123 -0.5730 -0.7416
  131GLU    OE1  158   1.935  -0.565   2.599  0.1448  0.3559 -0.0624
  131GLU    OE2  159   1.747  -0.672   2.587  0.0575 -0.2565 -0.1475
  131GLU      C  160   1.778  -0.432   3.025  0.5249  0.9035  0.1973
  131GLU      O  161   1.868  -0.429   3.112 -0.3013 -0.3583  0.3084
  132GLY      N  162   1.671  -0.511   3.027  0.1229 -0.0691  0.1079
  132GLY      H  163   1.598  -0.505   2.958  0.5451 -1.8558 -0.5704
  132GLY     CA  164   1.629  -0.564   3.155 -0.0429  0.4362  0.1863
  132GLY    HA1  165   1.527  -0.604   3.150 -0.3575  0.9834  1.7553
  132GLY    HA2  166   1.632  -0.486   3.231  3.6628  1.2831 -0.6332
  132GLY      C  167   1.713  -0.689   3.198  0.1512 -0.4881 -0.5432
  132GLY      O  168   1.675  -0.745   3.294 -0.5890  0.3347  0.2397
  133TYR      N  169   1.818  -0.726   3.130 -0.2191 -0.0681  0.2581
  133TYR      H  170   1.838  -0.687   3.039 -0.4145 -0.3631  0.0865
  133TYR     CA  171   1.909  -0.836   3.178  0.4748  0.3404 -0.6871
  133TYR     HA  172   1.846  -0.912   3.223  1.7558  0.0369  0.6463
  133TYR     CB  173   1.980  -0.893   3.051  0.1318 -0.1036  0.0602
  133TYR    HB1  174   1.901  -0.914   2.979  0.2132 -2.8307  0.6465
  133TYR    HB2  175   2.016  -0.994   3.068 -0.9245 -0.7879 -1.5085
  133TYR     CG  176   2.085  -0.798   2.995 -0.2384 -0.2677  0.5349
  133TYR    CD1  177   2.213  -0.804   3.051  0.5183  0.0278  0.1175
  133TYR    HD1  178   2.242  -0.878   3.124  3.1651  0.0653 -0.7918
  133TYR    CE1  179   2.314  -0.713   3.010  0.4116 -0.4774 -0.4226
  133TYR    HE1  180   2.418  -0.716   3.040  0.6812 -1.3089 -1.3610
  133TYR     CZ  181   2.292  -0.616   2.906 -0.8511  0.7957 -0.3135
  133TYR     OH  182   2.390  -0.533   2.852 -0.2014 -0.0845 -0.1900
  133TYR     HH  183   2.466  -0.541   2.909 -0.1430  0.5920 -0.1609
  133TYR    CE2  184   2.171  -0.616   2.845  0.0973  0.2765 -0.6669
  133TYR    HE2  185   2.146  -0.541   2.771  2.8068  1.5654 -0.3794
  133TYR    CD2  186   2.067  -0.704   2.893  0.5137  0.1221 -0.3317
  133TYR    HD2  187   1.974  -0.701   2.838 -0.3830 -0.2307  1.1107
  133TYR      C  188   2.003  -0.788   3.288 -0.5772  0.6092  0.6119
  133TYR      O  189   2.044  -0.873   3.366 -0.0726  0.2053 -0.6122
  134GLN      N  190   2.038  -0.662   3.299 -0.1576 -0.3844  0.4598
  134GLN      H  191   1.992  -0.605   3.229 -0.7921 -0.8692  0.4760
  134GLN     CA  192   2.142  -0.607   3.380  0.6338 -0.4427 -0.1328
  134GLN     HA  193   2.240  -0.650   3.358  0.9983  0.7748 -1.0376
  134GLN     CB  194   2.165  -0.461   3.350  0.1033  0.0303  0.6430
  134GLN    HB1  195   2.243  -0.421   3.416  0.0596  2.5865 -0.7135
  134GLN    HB2  196   2.071  -0.409   3.367 -0.1830 -0.0215 -0.6690
  134GLN     CG  197   2.210  -0.444   3.198 -0.0019  0.1862 -0.5599
  134GLN    HG1  198   2.147  -0.488   3.121 -1.2063 -0.2174  0.6077
  134GLN    HG2  199   2.310  -0.481   3.178  1.1064  3.2569 -1.2394
  134GLN     CD  200   2.215  -0.300   3.167 -0.7901 -0.2489  0.3498
  134GLN    OE1  201   2.139  -0.252   3.081  0.1022  0.6542 -0.0581
  134GLN    NE2  202   2.302  -0.225   3.228 -0.5032 -0.3871  0.3222
  134GLN   HE21  203   2.327  -0.142   3.177  0.1353 -1.1070 -0.5823
  134GLN   HE22  204   2.350  -0.259   3.311 -3.3062 -4.0318  0.7085
  134GLN      C  205   2.099  -0.625   3.531  0.7391 -0.5938 -0.2777
  134GLN      O  206   1.981  -0.637   3.564  0.5904 -0.5565 -0.2971
  135ASP      N  207   2.199  -0.626   3.616  0.0255  0.0013 -0.2703
  135ASP      H  208   2.290  -0.606   3.577  0.0607  1.0907  0.3201
  135ASP     CA  209   2.188  -0.652   3.762  0.1217 -0.2010 -0.7434
  135ASP     HA  210   2.111  -0.586   3.801 -0.0976 -1.0014  0.2097
  135ASP     CB  211   2.134  -0.798   3.790 -0.5622 -0.7491 -0.1406
  135ASP    HB1  212   2.030  -0.809   3.759 -0.6058  0.2063 -0.3667
  135ASP    HB2  213   2.131  -0.817   3.897  0.3823 -0.9195 -0.1310
  135ASP     CG  214   2.217  -0.913   3.722 -0.0930  0.0082  0.5131
  135ASP    OD1  215   2.174  -1.031   3.725  0.0495 -0.0474  0.1741
  135ASP    OD2  216   2.328  -0.889   3.662  0.0892  0.0414  0.0248
  135ASP      C  217   2.314  -0.615   3.844 -0.3865 -0.2453 -0.1285
  135ASP      O  218   2.428  -0.626   3.791 -0.0949  0.3212 -0.3727
  136TYR      N  219   2.295  -0.569   3.972  0.3157 -0.1578 -0.3775
  136TYR      H  220   2.199  -0.571   4.005  0.1030  0.4906 -0.9504
  136TYR     CA  221   2.404  -0.513   4.048  0.0865  0.3083  0.5739
  136TYR     HA  222   2.496  -0.524   3.991 -1.2068  0.3540 -1.6081
  136TYR     CB  223   2.387  -0.358   4.060 -0.5163 -0.2754  0.2494
  136TYR    HB1  224   2.463  -0.315   4.125 -0.2009  0.0788 -0.3460
  136TYR    HB2  225   2.290  -0.337   4.106  0.1554 -0.7112  1.9396
  136TYR     CG  226   2.396  -0.292   3.916  0.1851  0.2729 -0.2351
  136TYR    CD1  227   2.519  -0.259   3.852 -0.1581 -0.1571 -0.1592
  136TYR    HD1  228   2.609  -0.276   3.910 -1.1586 -1.7248  1.0239
  136TYR    CE1  229   2.518  -0.211   3.724 -0.1919 -0.0602 -0.0436
  136TYR    HE1  230   2.614  -0.185   3.681  0.6751  1.0894  2.3950
  136TYR     CZ  231   2.396  -0.205   3.653 -0.4868  0.1777  0.2417
  136TYR     OH  232   2.396  -0.171   3.523 -0.2915 -0.1377 -0.3546
  136TYR     HH  233   2.486  -0.145   3.501 -0.4896 -0.7208 -2.0196
  136TYR    CE2  234   2.270  -0.223   3.720 -0.4363 -0.6942  0.3212
  136TYR    HE2  235   2.180  -0.212   3.661 -1.5142 -2.5061  1.5388
  136TYR    CD2  236   2.270  -0.279   3.852 -0.0522  0.4179 -0.1418
  136TYR    HD2  237   2.177  -0.301   3.902 -0.9573  2.6688 -0.6789
  136TYR      C  238   2.424  -0.587   4.187  0.9016 -0.0324  0.5716
  136TYR      O  239   2.327  -0.621   4.251  0.1450  0.6701 -0.0139
  137GLU      N  240   2.549  -0.602   4.234 -0.6837 -0.4633 -0.5490
  137GLU      H  241   2.621  -0.572   4.169  2.2225 -2.8261  1.3442
  137GLU     CA  242   2.581  -0.618   4.372 -0.1891  0.4067 -0.3949
  137GLU     HA  243   2.523  -0.705   4.404 -2.3088  0.9687 -2.4007
  137GLU     CB  244   2.732  -0.645   4.380 -0.0250  0.6328 -0.9663
  137GLU    HB1  245   2.761  -0.635   4.484 -1.4911 -1.8074 -0.2462
  137GLU    HB2  246   2.780  -0.569   4.318  0.7419  1.7378  0.8936
  137GLU     CG  247   2.761  -0.789   4.333 -0.4350  0.4334  0.4750
  137GLU    HG1  248   2.725  -0.811   4.233  1.0161 -1.6867  0.3497
  137GLU    HG2  249   2.710  -0.859   4.399  0.9777 -0.0775  1.0786
  137GLU     CD  250   2.910  -0.818   4.332  0.2107  0.4301  0.7839
  137GLU    OE1  251   2.978  -0.790   4.435  0.2179 -0.2981  0.1184
  137GLU    OE2  252   2.967  -0.873   4.229 -0.2122 -0.1148 -0.5647
  137GLU      C  253   2.547  -0.489   4.447 -0.0839 -0.3318 -0.7117
  137GLU      O  254   2.535  -0.384   4.388  0.0705  0.0958 -0.1125
  138PRO      N  255   2.531  -0.499   4.583  0.5579  0.3487  0.1020
  138PRO     CD  256   2.532  -0.625   4.657 -0.4937  0.0173 -0.5258
  138PRO    HD1  257   2.637  -0.653   4.669  0.3404  2.8098 -0.6725
  138PRO    HD2  258   2.472  -0.701   4.607 -1.8062  0.5462  0.2113
  138PRO     CG  259   2.468  -0.595   4.794 -0.2482  0.4488  0.8241
  138PRO    HG1  260   2.537  -0.634   4.869  1.8787  0.2040 -1.1422
  138PRO    HG2  261   2.369  -0.640   4.794  0.0044 -0.1532 -0.3444
  138PRO     CB  262   2.451  -0.444   4.811  0.4976 -0.1795 -0.6275
  138PRO    HB1  263   2.348  -0.413   4.829  0.5632 -0.1154 -0.3547
  138PRO    HB2  264   2.527  -0.423   4.886 -0.3133  0.6384 -0.0110
  138PRO     CA  265   2.488  -0.388   4.670 -1.0963  0.2353 -0.6115
  138PRO     HA  266   2.406  -0.328   4.630  0.4669  2.4822 -0.6094
  138PRO      C  267   2.605  -0.289   4.679  0.3733 -0.0020  0.5119
  138PRO      O  268   2.721  -0.319   4.679  0.0754  0.3440  0.4125
  139GLU      N  269   2.575  -0.162   4.698  0.2365  0.0612 -0.7142
  139GLU      H  270   2.481  -0.149   4.731  0.7769  3.8816 -0.2067
  139GLU     CA  271   2.662  -0.053   4.736 -0.7974 -0.7873  0.3416
  139GLU     HA  272   2.742  -0.052   4.662  0.0271 -0.1847  1.2110
  139GLU     CB  273   2.587   0.086   4.741 -0.2235 -0.2292  0.8182
  139GLU    HB1  274   2.664   0.155   4.777  0.2962  0.7170 -1.8093
  139GLU    HB2  275   2.519   0.082   4.825 -2.2858 -0.4570 -0.7888
  139GLU     CG  276   2.520   0.127   4.613  0.1593 -0.2038 -0.1837
  139GLU    HG1  277   2.463   0.040   4.581  1.6434 -1.0015 -0.7839
  139GLU    HG2  278   2.597   0.131   4.535 -1.4434 -0.0781 -1.8134
  139GLU     CD  279   2.432   0.247   4.633  0.0903  0.1694 -0.4380
  139GLU    OE1  280   2.335   0.260   4.560 -0.6145  0.0326  0.5248
  139GLU    OE2  281   2.455   0.329   4.723  0.2682 -0.0157 -0.3532
  139GLU      C  282   2.742  -0.086   4.866  0.0365 -0.6436 -0.2565
  139GLU      O  283   2.689  -0.156   4.954  0.1806  0.0468 -0.4111
  140CALA     N  284   2.864  -0.031   4.883  0.8876 -0.4214 -0.0466
  140CALA     H  285   2.893   0.050   4.829  1.6744  0.8174  2.1233
  140CALA    CA  286   2.960  -0.066   4.985 -0.5732 -0.4860  0.0382
  140CALA    HA  287   2.991  -0.170   4.988 -0.0623 -0.3283  0.4329
  140CALA    CB  288   3.093   0.002   4.932  0.4316  0.1074 -0.0987
  140CALA   HB1  289   3.073   0.107   4.909  2.2138  0.4085 -0.4645
  140CALA   HB2  290   3.130  -0.050   4.844 -1.4081  0.1951 -0.9536
  140CALA   HB3  291   3.166  -0.002   5.013  0.8292  0.5902 -0.4287
  140CALA     C  292   2.927  -0.029   5.126 -0.0621 -0.9428 -1.2372
  140CALA   OC1  293   2.961  -0.114   5.212 -0.0798 -0.6247 -1.1385
  140CALA   OC2  294   2.882   0.084   5.153 -0.2137  0.1148 -0.8524
  141L47      C  295   5.781   5.694   3.310 -0.1232  0.1945  0.2928
  141L47      H  296   5.714   5.614   3.276  1.7848 -2.6344  2.7389
  141L47     H1  297   5.879   5.682   3.262 -1.7537 -2.0953 -2.8029
  141L47     H2  298   5.730   5.788   3.287  0.5368  0.5677  0.3061
  141L47     C1  299   5.804   5.693   3.459 -0.3743 -0.7031 -0.1651
  141L47      O  300   5.917   5.710   3.503 -0.7402 -0.6436 -0.0322
  141L47      N  301   5.699   5.656   3.546  0.1821 -0.7273  0.0930
  141L47     C2  302   5.567   5.602   3.495 -0.5150 -0.1680  0.2267
  141L47     H3  303   5.579   5.529   3.414 -0.8770  1.2417 -1.1504
  141L47     H4  304   5.503   5.683   3.457  0.6526  0.9251  0.4885
  141L47     C3  305   5.508   5.534   3.614  0.7924 -0.2002 -0.2678
  141L47     H5  306   5.520   5.425   3.616 -3.6029 -0.8279  0.7863
  141L47     H6  307   5.399   5.538   3.621  0.6198 -2.8384 -0.3860
  141L47     C4  308   5.579   5.593   3.728  0.2985 -0.4824  0.1871
  141L47     C5  309   5.697   5.655   3.692 -0.1148  0.2466  0.7123
  141L47     C6  310   5.787   5.706   3.784 -0.4050 -0.2163 -0.0076
  141L47     H7  311   5.884   5.752   3.767  0.5128 -1.0751  2.4258
  141L47     C7  312   5.753   5.700   3.921 -0.0915 -0.8254  0.7745
  141L47     H8  313   5.823   5.744   3.992  2.1495  0.2965 -1.9125
  141L47     C8  314   5.640   5.626   3.965 -0.2841  0.2559 -0.0591
  141L47     C9  315   5.558   5.565   3.865 -0.4964  0.0193 -0.0110
  141L47     H9  316   5.492   5.484   3.895  0.1206  0.1222  1.7820
  141L47      S  317   5.624   5.563   4.130  0.0920  0.3335 -0.2575
  141L47     O1  318   5.486   5.513   4.153  0.4624  0.2079  0.6967
  141L47     O2  319   5.704   5.642   4.225  0.2035  0.3111 -0.4964
  141L47     N1  320   5.719   5.423   4.128  0.9296  0.5741  0.1102
  141L47    C10  321   5.717   5.340   4.250  0.2562  0.4786  0.5290
  141L47    H10  322   5.640   5.376   4.319  0.8819  2.0307  0.4645
  141L47    H11  323   5.816   5.338   4.297  0.0855  0.7044  0.8990
  141L47    C11  324   5.668   5.202   4.203 -0.8493  0.0217  0.4921
  141L47    H12  325   5.584   5.217   4.133 -0.6994  0.1389  0.3362
  141L47    H13  326   5.631   5.147   4.290 -2.8333  1.7992  0.8440
  141L47    C12  327   5.768   5.104   4.141 -0.5202 -0.3078 -0.1877
  141L47    H14  328   5.705   5.025   4.099 -1.0003  0.5250 -1.0590
  141L47    H15  329   5.833   5.062   4.219 -0.8153  0.6470  0.5834
  141L47     N2  330   5.857   5.154   4.033  0.4725 -0.6966 -0.2329
  141L47    H16  331   5.915   5.071   4.013 -1.6046 -2.0671 -0.8207
  141L47    H17  332   5.806   5.181   3.948  0.1908  0.5280  0.2989
  141L47    C13  333   5.933   5.281   4.075 -0.2916 -0.8732 -0.2734
  141L47    H18  334   6.029   5.283   4.024  0.5859  1.9940  1.2706
  141L47    H19  335   5.958   5.272   4.181 -1.5494  1.0581  0.2475
  141L47    C14  336   5.850   5.412   4.060  0.5110  0.1236 -0.3770
  141L47    H20  337   5.911   5.500   4.083  1.9906 -0.3997 -2.0586
  141L47    H21  338   5.824   5.428   3.954 -2.8610 -0.9566  0.1742
  142SOL     OW  339   0.617   6.154   3.681 -0.1805  0.5980  0.0717
  142SOL    HW2  340   0.674   6.231   3.679 -0.5344  0.9114  1.0950
  142SOL    HW3  341   0.640   6.110   3.763 -2.6395  1.7235  1.4681
  142SOL    MW4  342   0.628   6.158   3.692 -0.5517  0.7878  0.3910
  143SOL     OW  343   2.046   0.804   1.011  0.1266  0.2108 -0.6179
  143SOL    HW2  344   2.041   0.728   0.954 -0.1234 -0.2844  0.0437
  143SOL    HW3  345   1.987   0.783   1.084  0.1762  0.9689 -0.3496
  143SOL    MW4  346   2.038   0.792   1.013  0.1001  0.2455 -0.4952
  144SOL     OW  347   6.365   2.102   4.472 -0.3161 -0.0912 -0.4548
  144SOL    HW2  348   6.308   2.069   4.542 -0.5409  1.8794  0.3286
  144SOL    HW3  349   6.420   2.027   4.450 -1.3064 -1.2241  0.7172
  144SOL    MW4  350   6.364   2.087   4.479 -0.4764  0.0193 -0.1968
  145SOL     OW  351   6.154   2.511   3.777 -0.1402  0.0042 -0.8528
  145SOL    HW2  352   6.063   2.514   3.748 -0.2663  0.4344 -0.4116
  145SOL    HW3  353   6.170   2.419   3.798 -0.9431  0.1732  0.5813
  145SOL    MW4  354   6.144   2.499   3.776 -0.2628  0.0833 -0.6054
  146SOL     OW  355   0.008   2.048   2.943  0.0989 -0.0898  0.3435
  146SOL    HW2  356   0.030   1.984   2.876 -2.6884 -0.9549  0.1232
  146SOL    HW3  357   0.083   2.048   3.003  1.1254 -1.8796 -0.8690
  146SOL    MW4  358   0.021   2.039   2.942 -0.1334 -0.4401  0.1544
  147SOL     OW  359   3.102   4.515   0.251  1.2134  0.3179  0.3248
  147SOL    HW2  360   3.178   4.490   0.305  1.2796  0.6249  0.3780
  147SOL    HW3  361   3.137   4.580   0.190  1.0930  0.1206  0.0453
  147SOL    MW4  362   3.117   4.520   0.250  1.2062  0.3324  0.2949
  148SOL     OW  363   5.117   5.337   1.727  0.3934  0.0974 -0.1191
  148SOL    HW2  364   5.193   5.347   1.670 -0.0591  2.3503 -0.4264
  148SOL    HW3  365   5.154   5.318   1.813  1.2237 -0.3053 -0.5501
  148SOL    MW4  366   5.132   5.336   1.731  0.4432  0.3415 -0.2165
  149SOL     OW  367   0.588   3.890   0.152 -0.9577  0.1859 -0.3151
  149SOL    HW2  368   0.582   3.943   0.072 -1.3589  2.6530  1.2336
  149SOL    HW3  369   0.681   3.889   0.173 -0.7714 -0.9977 -1.0903
  149SOL    MW4  370   0.599   3.897   0.144 -0.9861  0.3553 -0.2131
  150SOL     OW  371   1.469   3.971   6.387 -0.0190  0.1273 -0.0118
  150SOL    HW2  372   1.477   3.982   6.292 -0.7229  0.6721 -0.0126
  150SOL    HW3  373   1.535   3.905   6.409 -0.1985 -0.3804 -0.9488
  150SOL    MW4  374   1.479   3.963   6.378 -0.1355  0.1322 -0.1356
  151SOL     OW  375   6.386   0.601   0.692 -0.3677 -0.0728  0.3466
  151SOL    HW2  376   6.320   0.532   0.691  0.1656 -0.6917 -2.9269
  151SOL    HW3  377   6.441   0.580   0.768 -0.5608 -2.9398 -0.1999
  151SOL    MW4  378   6.385   0.589   0.702 -0.3228 -0.5327 -0.1574
  152SOL     OW  379   4.173   2.813   0.471  0.6426 -0.0829 -0.2236
  152SOL    HW2  380   4.141   2.900   0.495  0.4865 -0.5687  1.5256
  152SOL    HW3  381   4.234   2.790   0.541 -0.7619 -2.1242  0.4326
  152SOL    MW4  382   4.177   2.821   0.484  0.4367 -0.4163  0.0937
  153SOL     OW  383   2.171   3.025   0.635  0.0800 -0.3443 -0.7231
  153SOL    HW2  384   2.097   3.027   0.574  2.1261  0.1065 -3.3946
  153SOL    HW3  385   2.201   3.116   0.640  0.6453 -0.5636  0.0521
  153SOL    MW4  386   2.165   3.037   0.627  0.4245 -0.3138 -0.9733
  154SOL     OW  387   2.804   1.851   3.520  0.3038 -0.0763  0.8417
  154SOL    HW2  388   2.795   1.833   3.614  0.6007 -0.8270  0.7316
  154SOL    HW3  389   2.899   1.855   3.506  0.2956 -1.1180  0.3723
  154SOL    MW4  390   2.816   1.849   3.531  0.3419 -0.3128  0.7653
  155SOL     OW  391   2.410   4.029   5.183  0.0524  0.2512  0.2309
  155SOL    HW2  392   2.341   4.009   5.120  0.5562 -1.3198  0.1280
  155SOL    HW3  393   2.364   4.055   5.263 -0.5950  1.9762 -0.6586
  155SOL    MW4  394   2.395   4.029   5.186  0.0334  0.2715  0.1000
  156SOL     OW  395   1.506   0.889   3.476 -0.4357  0.4360  0.2016
  156SOL    HW2  396   1.430   0.844   3.438 -0.9761  0.7692  0.8753
  156SOL    HW3  397   1.580   0.833   3.454 -0.8539  0.1553 -0.5540
  156SOL    MW4  398   1.506   0.876   3.468 -0.5622  0.4429  0.1908
  157SOL     OW  399   1.231   2.516   5.651 -0.2273  0.0528  0.3460
  157SOL    HW2  400   1.240   2.446   5.586 -0.9622  0.7749 -0.5485
  157SOL    HW3  401   1.279   2.590   5.613  1.9932 -0.4047  2.0260
  157SOL    MW4  402   1.239   2.516   5.638 -0.0313  0.0877  0.4496
  158SOL     OW  403   3.760   4.792   4.687 -0.0514  0.5849  0.4787
  158SOL    HW2  404   3.843   4.746   4.680 -0.2935 -0.2121  2.2243
  158SOL    HW3  405   3.782   4.884   4.674  0.9728  0.3033  0.1577
  158SOL    MW4  406   3.774   4.798   4.685  0.0518  0.4426  0.6666
  159SOL     OW  407   3.075   1.609   2.340  0.0870 -0.3733  0.0571
  159SOL    HW2  408   3.055   1.700   2.318 -0.7709 -0.6083 -0.1577
  159SOL    HW3  409   3.126   1.577   2.265  2.2778  0.5397  1.0838
  159SOL    MW4  410   3.079   1.617   2.327  0.2628 -0.2839  0.1642
  160SOL     OW  411   2.041   4.679   0.026  0.3036  0.2559  0.7932
  160SOL    HW2  412   2.054   4.752  -0.035  2.7504 -0.1342  0.7740
  160SOL    HW3  413   1.975   4.624  -0.017  1.0045  0.6711 -0.8776
  160SOL    MW4  414   2.034   4.681   0.012  0.7189  0.2592  0.5702
  161SOL     OW  415   0.231   2.022   3.135  0.1855 -0.1167  0.1366
  161SOL    HW2  416   0.283   2.062   3.065  0.2706 -0.1985  0.1522
  161SOL    HW3  417   0.207   2.095   3.192 -0.1335 -0.0053 -0.1359
  161SOL    MW4  418   0.235   2.037   3.133  0.1546 -0.1128  0.1027
  162SOL     OW  419   4.350   1.096   1.611  0.0439 -0.0484  0.1028
  162SOL    HW2  420   4.356   1.115   1.517  0.4589  0.4386  0.2210
  162SOL    HW3  421   4.256   1.098   1.630 -0.0396 -0.0911 -0.2911
  162SOL    MW4  422   4.339   1.099   1.601  0.0876  0.0102  0.0664
  163SOL     OW  423   2.626   0.845   4.611 -0.2525 -0.5956 -0.4073
  163SOL    HW2  424   2.543   0.797   4.616  0.4810 -1.7776  1.1742
  163SOL    HW3  425   2.634   0.887   4.697  2.1134 -2.8768  0.6182
  163SOL    MW4  426   2.616   0.844   4.623  0.1564 -1.0525 -0.0634
  164SOL     OW  427   4.820   3.369   2.956 -0.1434 -0.2019 -0.2297
  164SOL    HW2  428   4.775   3.299   3.004 -3.7428  1.3432 -0.9532
  164SOL    HW3  429   4.852   3.326   2.876  2.5327 -1.9828  1.6392
  164SOL    MW4  430   4.818   3.354   2.951 -0.2652 -0.2330 -0.0786
  165SOL     OW  431   3.024   4.545   0.987  1.2423 -0.2732  0.4898
  165SOL    HW2  432   2.959   4.484   0.952 -0.0564 -0.2249  2.6393
  165SOL    HW3  433   3.014   4.624   0.934 -1.6451  0.2947  1.6787
  165SOL    MW4  434   3.014   4.547   0.976  0.6900 -0.1919  0.9303
  166SOL     OW  435   1.773   2.210   0.852  0.0948  0.4843  0.1486
  166SOL    HW2  436   1.683   2.182   0.869 -1.0757  1.9279 -2.9458
  166SOL    HW3  437   1.825   2.165   0.918 -2.6067 -2.2246  0.6443
  166SOL    MW4  438   1.768   2.200   0.863 -0.4161  0.3174 -0.1943
  167SOL     OW  439   0.447   3.179   5.213  0.1388  0.2076  0.0556
  167SOL    HW2  440   0.438   3.246   5.146 -0.1583  1.3013  1.1558
  167SOL    HW3  441   0.453   3.227   5.295  1.3624 -1.0664  0.7516
  167SOL    MW4  442   0.446   3.194   5.215  0.2611  0.1838  0.2926
  168SOL     OW  443   4.322   6.326   0.839  0.7653  0.1847 -0.1116
  168SOL    HW2  444   4.360   6.325   0.751  2.7410  0.1874  0.6896
  168SOL    HW3  445   4.375   6.391   0.886 -0.9996  1.0220  0.7837
  168SOL    MW4  446   4.334   6.335   0.834  0.7931  0.2955  0.1122
  169SOL     OW  447   4.403   6.132   5.600 -0.0557  0.0083  0.1067
  169SOL    HW2  448   4.384   6.205   5.659  0.0373  0.1348 -0.0217
  169SOL    HW3  449   4.498   6.135   5.588  0.2392 -1.3312  1.6864
  169SOL    MW4  450   4.413   6.142   5.606 -0.0045 -0.1518  0.2982
  170SOL     OW  451   4.709   2.214   4.276 -0.6408  0.5687  0.0262
  170SOL    HW2  452   4.685   2.302   4.305  1.0381  1.6079 -1.4505
  170SOL    HW3  453   4.795   2.199   4.316 -1.1417 -0.6484  0.6860
  170SOL    MW4  454   4.717   2.224   4.285 -0.4854  0.5452 -0.0816
  171SOL     OW  455   1.756   2.825   5.388 -0.4170  0.3836  0.0644
  171SOL    HW2  456   1.811   2.805   5.464 -1.7097 -0.3501  0.8305
  171SOL    HW3  457   1.674   2.779   5.405 -1.5947  2.1288 -0.6428
  171SOL    MW4  458   1.753   2.816   5.400 -0.7430  0.5171  0.0721
  172SOL     OW  459   2.138   6.129   2.608  0.3331 -0.0936  0.1641
  172SOL    HW2  460   2.223   6.084   2.607 -0.6769 -2.1566  1.1411
  172SOL    HW3  461   2.074   6.058   2.615 -1.4157  1.4757  0.6277
  172SOL    MW4  462   2.141   6.114   2.609 -0.0309 -0.1587  0.3542
  173SOL     OW  463   3.375   1.149   1.503  0.5632  0.1893 -0.2736
  173SOL    HW2  464   3.463   1.125   1.474 -0.6806 -1.9544 -2.5848
  173SOL    HW3  465   3.336   1.195   1.429 -0.2571  1.2633  0.7770
  173SOL    MW4  466   3.381   1.152   1.490  0.2909  0.0482 -0.4399
  174SOL     OW  467   0.149   2.026   4.725 -0.3647 -0.3045 -0.9764
  174SOL    HW2  468   0.074   2.082   4.744  0.9813  0.8179  1.4807
  174SOL    HW3  469   0.123   1.939   4.756  0.1846  0.6207  2.5011
  174SOL    MW4  470   0.136   2.022   4.731 -0.1146 -0.0343 -0.1934
  175SOL     OW  471   5.314   3.419   2.042  0.1254  0.6702 -0.0231
  175SOL    HW2  472   5.302   3.507   2.079 -0.4055  0.8572 -0.6199
  175SOL    HW3  473   5.360   3.371   2.110 -3.0316  0.2329  2.0082
  175SOL    MW4  474   5.319   3.425   2.056 -0.3612  0.6372  0.1662
  176SOL     OW  475   5.013   4.712   4.055 -0.3775 -0.0846  0.0875
  176SOL    HW2  476   4.959   4.685   3.980  0.1080  0.0199 -0.3085
  176SOL    HW3  477   4.952   4.757   4.114 -0.9442 -0.9524  0.1771
  176SOL    MW4  478   4.998   4.715   4.053 -0.3882 -0.1853  0.0471
  177SOL     OW  479   3.801   6.278   3.843 -0.3763  0.0604 -0.1098
  177SOL    HW2  480   3.817   6.300   3.934 -3.3413  0.2114  0.4709
  177SOL    HW3  481   3.877   6.314   3.796  1.5964 -0.6556  2.2871
  177SOL    MW4  482   3.813   6.285   3.849 -0.5073 -0.0141  0.2830
  178SOL     OW  483   0.723   3.710   5.127  0.7642  0.1229 -0.3149
  178SOL    HW2  484   0.795   3.724   5.066  0.4749 -0.3651 -0.7793
  178SOL    HW3  485   0.644   3.727   5.076  0.4732 -1.3576 -0.4035
  178SOL    MW4  486   0.722   3.714   5.112  0.6877 -0.1368 -0.3878
  179SOL     OW  487   3.669   2.132   2.600 -0.6882 -0.0043 -0.4537
  179SOL    HW2  488   3.632   2.197   2.540 -1.3525 -0.7531 -0.8735
  179SOL    HW3  489   3.593   2.090   2.640 -0.2569  0.2492  0.6842
  179SOL    MW4  490   3.654   2.135   2.597 -0.7189 -0.0697 -0.3590
  180SOL     OW  491   4.773   3.561   0.291  0.5218 -0.0055  0.2868
  180SOL    HW2  492   4.746   3.524   0.375  0.3925 -1.4532 -0.3730
  180SOL    HW3  493   4.867   3.544   0.286  0.3805 -0.6443 -0.2175
  180SOL    MW4  494   4.782   3.554   0.302  0.4861 -0.2808  0.1332
  181SOL     OW  495   2.256   5.160   0.276 -0.3418 -0.6019  0.3447
  181SOL    HW2  496   2.239   5.253   0.289 -1.1336 -0.7166  0.1480
  181SOL    HW3  497   2.338   5.157   0.226  0.3400 -0.0491  1.3848
  181SOL    MW4  498   2.265   5.171   0.271 -0.3563 -0.5441  0.4560
  182SOL     OW  499   0.106   3.598   3.011  0.4146  0.8422 -0.3217
  182SOL    HW2  500   0.107   3.628   3.102 -2.4152  1.7281 -0.4804
  182SOL    HW3  501   0.197   3.577   2.992  1.1485  0.9096  2.6039
  182SOL    MW4  502   0.118   3.599   3.020  0.1381  0.9680  0.0434
  183SOL     OW  503   5.489   3.849   3.785  0.0989  0.5954 -0.2498
  183SOL    HW2  504   5.504   3.855   3.879  0.2808 -0.5244 -0.1933
  183SOL    HW3  505   5.400   3.816   3.777 -0.1148  1.2198 -0.4856
  183SOL    MW4  506   5.479   3.845   3.796  0.0947  0.5300 -0.2734
  184SOL     OW  507   4.417   4.344   2.545  0.1023 -0.8667 -0.2458
  184SOL    HW2  508   4.492   4.367   2.491 -0.9766  0.7175 -1.1781
  184SOL    HW3  509   4.370   4.278   2.495  1.0009 -2.0753  0.4742
  184SOL    MW4  510   4.420   4.339   2.531  0.0785 -0.8172 -0.2738
  185SOL     OW  511   2.190   4.237   6.004 -0.1243 -0.2225  0.0423
  185SOL    HW2  512   2.201   4.332   6.002  0.4103 -0.2847 -0.1404
  185SOL    HW3  513   2.279   4.203   6.013 -0.4483 -0.6444  2.5091
  185SOL    MW4  514   2.203   4.245   6.005 -0.0965 -0.2864  0.3437
  186SOL     OW  515   2.545   2.262   2.522  0.4331  0.5696 -0.3602
  186SOL    HW2  516   2.618   2.296   2.470  0.4473  1.0145 -0.0532
  186SOL    HW3  517   2.548   2.312   2.603 -0.0492  0.4000 -0.2360
  186SOL    MW4  518   2.555   2.273   2.526  0.3714  0.6059 -0.3033
  187SOL     OW  519   3.637   3.204   2.360  0.0076  0.4449  0.4467
  187SOL    HW2  520   3.574   3.138   2.388  0.9732 -0.3545  0.7665
  187SOL    HW3  521   3.721   3.172   2.390  1.0922 -0.2163 -2.8823
  187SOL    MW4  522   3.640   3.191   2.368  0.2781  0.2522  0.0497
  188SOL     OW  523   2.800   4.503   5.901 -0.7078  0.2100 -0.0733
  188SOL    HW2  524   2.737   4.531   5.967 -1.3179 -0.2211 -0.4671
  188SOL    HW3  525   2.757   4.521   5.817 -0.9809 -1.5445 -0.3464
  188SOL    MW4  526   2.786   4.509   5.898 -0.8244 -0.0784 -0.1613
  189SOL     OW  527   0.523   3.213   0.019  0.0358 -0.1960 -0.3822
  189SOL    HW2  528   0.459   3.186   0.085  2.1153 -1.3723  1.2518
  189SOL    HW3  529   0.549   3.132  -0.024  1.8378 -0.0359  0.3334
  189SOL    MW4  530   0.518   3.199   0.022  0.5479 -0.3301 -0.0722
  190SOL     OW  531   4.278   3.060   2.156 -0.9403  0.2510  0.0375
  190SOL    HW2  532   4.287   3.112   2.076  0.0322  1.1338  0.7069
  190SOL    HW3  533   4.311   2.974   2.132  0.4911  0.8474 -0.1955
  190SOL    MW4  534   4.283   3.055   2.142 -0.6232  0.4462  0.0951
  191SOL     OW  535   1.490   2.197   0.224  0.4574  0.1618  0.6271
  191SOL    HW2  536   1.554   2.262   0.195 -0.4876  0.6829 -0.3366
  191SOL    HW3  537   1.467   2.150   0.145  0.0877 -0.4270  1.0817
  191SOL    MW4  538   1.496   2.200   0.210  0.2839  0.1529  0.5599
  192SOL     OW  539   1.327   6.356   2.624  0.0829 -0.5838 -0.2507
  192SOL    HW2  540   1.324   6.370   2.718 -1.4067 -0.4317 -0.3003
  192SOL    HW3  541   1.271   6.280   2.609 -1.9272  0.9992 -1.2655
  192SOL    MW4  542   1.319   6.348   2.634 -0.3789 -0.3549 -0.3911
  193SOL     OW  543   1.084   3.166   1.389  0.3826  0.0449  0.2372
  193SOL    HW2  544   1.146   3.227   1.429 -0.9725  0.8103  1.2543
  193SOL    HW3  545   1.055   3.209   1.309 -0.4468  0.6960  0.8695
  193SOL    MW4  546   1.088   3.180   1.384  0.0944  0.2318  0.4548
  194SOL     OW  547   0.871   5.793   0.763  0.0664 -0.0066  0.6122
  194SOL    HW2  548   0.871   5.875   0.713  1.3813  0.4676  1.3342
  194SOL    HW3  549   0.949   5.747   0.732 -0.8258 -1.1504 -0.0044
  194SOL    MW4  550   0.881   5.798   0.752  0.1222 -0.0950  0.6261
  195SOL     OW  551   3.616   3.874   1.187 -0.1304  0.4602 -0.1304
  195SOL    HW2  552   3.540   3.815   1.186 -1.9661  2.6798 -0.8690
  195SOL    HW3  553   3.690   3.819   1.162 -1.2195 -2.0809  1.7627
  195SOL    MW4  554   3.615   3.859   1.184 -0.5163  0.4178  0.0219
  196SOL     OW  555   3.881   4.354   3.691  0.0060  0.1214  0.0905
  196SOL    HW2  556   3.894   4.278   3.634 -2.1052  0.2963 -0.7285
  196SOL    HW3  557   3.932   4.334   3.770 -2.1693 -3.2647  0.8619
  196SOL    MW4  558   3.889   4.341   3.694 -0.5596 -0.3023  0.0842
  197SOL     OW  559   4.991   5.953   1.340 -0.1743  0.0709  0.0186
  197SOL    HW2  560   4.951   5.936   1.255  1.2604 -0.8585 -0.4977
  197SOL    HW3  561   4.961   6.041   1.363 -0.0763  0.6133 -1.7542
  197SOL    MW4  562   4.982   5.962   1.332  0.0280  0.0198 -0.2834
  198SOL     OW  563   5.961   6.048   0.369 -0.3174  0.1006 -0.1118
  198SOL    HW2  564   6.016   6.033   0.292 -1.1579  0.7103 -0.8459
  198SOL    HW3  565   5.910   6.126   0.348 -1.5382 -0.4933  0.4868
  198SOL    MW4  566   5.961   6.056   0.356 -0.5893  0.1027 -0.1297
  199SOL     OW  567   5.096   1.879   4.205 -0.3920 -0.4309 -0.3792
  199SOL    HW2  568   5.044   1.893   4.126 -1.4293 -2.0622 -0.0228
  199SOL    HW3  569   5.154   1.956   4.209 -1.0140  0.1837 -2.1503
  199SOL    MW4  570   5.097   1.891   4.195 -0.6110 -0.5650 -0.5658
  200SOL     OW  571   4.749   1.523   3.622 -0.2427 -0.0989 -0.4418
  200SOL    HW2  572   4.733   1.434   3.652  0.5353 -0.2209 -0.3567
  200SOL    HW3  573   4.663   1.557   3.598 -0.3991 -1.2585 -1.5771
  200SOL    MW4  574   4.735   1.516   3.623 -0.1607 -0.2680 -0.5804
  201SOL     OW  575   0.756   3.796   3.383 -0.1191  0.2692 -0.2107
  201SOL    HW2  576   0.778   3.714   3.337 -0.7796  0.9216 -1.7430
  201SOL    HW3  577   0.779   3.778   3.474  2.2865 -0.7183 -0.9251
  201SOL    MW4  578   0.762   3.783   3.389  0.1111  0.2250 -0.5071
  202SOL     OW  579   0.969   2.844   3.195  0.4860  0.1978 -0.1434
  202SOL    HW2  580   0.937   2.925   3.156  1.7254  0.0636 -1.5236
  202SOL    HW3  581   1.042   2.817   3.139  1.1378 -1.0235  1.2133
  202SOL    MW4  582   0.974   2.851   3.183  0.7355  0.0190 -0.1465
  203SOL     OW  583   2.299   6.157   5.428  0.4078 -0.2785  0.2486
  203SOL    HW2  584   2.351   6.237   5.422  1.8407 -1.1919  0.1658
  203SOL    HW3  585   2.310   6.115   5.343 -0.9949 -0.1976  0.0037
  203SOL    MW4  586   2.307   6.162   5.416  0.4118 -0.3883  0.2054
  204SOL     OW  587   1.949   4.616   4.785  0.2409  0.1976  0.5148
  204SOL    HW2  588   1.917   4.587   4.870  1.2104 -0.7017  0.5932
  204SOL    HW3  589   1.996   4.540   4.750  1.1760  1.0486 -0.1381
  204SOL    MW4  590   1.951   4.602   4.792  0.4922  0.1912  0.4390
  205SOL     OW  591   5.905   4.304   0.628  0.4435 -0.1152  0.4434
  205SOL    HW2  592   5.845   4.241   0.586 -0.3002 -0.5877  2.1414
  205SOL    HW3  593   5.900   4.283   0.721  3.0705  0.0212  0.6847
  205SOL    MW4  594   5.896   4.293   0.635  0.6920 -0.1596  0.6992
  206SOL     OW  595   1.424   3.462   6.362 -0.3301  0.3901 -0.1381
  206SOL    HW2  596   1.331   3.444   6.351 -0.2241 -1.0620  1.0279
  206SOL    HW3  597   1.448   3.418   6.444  1.3008  1.0634 -0.2026
  206SOL    MW4  598   1.415   3.454   6.372 -0.1009  0.2874  0.0073
  207SOL     OW  599   5.993   4.551   0.625  0.3087 -0.2363  0.0880
  207SOL    HW2  600   5.947   4.468   0.610 -0.6013  0.4645 -1.2497
  207SOL    HW3  601   5.983   4.567   0.719 -0.3642 -1.1619  0.1909
  207SOL    MW4  602   5.985   4.542   0.635  0.0999 -0.2659 -0.0749
  208SOL     OW  603   1.848   1.649   0.981 -0.0476  0.8563  0.1695
  208SOL    HW2  604   1.927   1.700   0.962  0.0468  0.2979 -1.0910
  208SOL    HW3  605   1.859   1.619   1.071  1.3094  0.5837 -0.0664
  208SOL    MW4  606   1.860   1.652   0.990  0.1439  0.7467 -0.0279
  209SOL     OW  607   0.571   1.251   5.501  0.1560  0.1353 -0.3669
  209SOL    HW2  608   0.570   1.261   5.406  0.3908  1.4868 -0.2491
  209SOL    HW3  609   0.643   1.307   5.530 -0.6895  0.7245  0.6892
  209SOL    MW4  610   0.580   1.260   5.493  0.0754  0.3913 -0.2120
  210SOL     OW  611   5.759   0.532   6.402 -0.0310 -0.2098  0.2693
  210SOL    HW2  612   5.753   0.568   6.314 -1.0538 -0.8731  0.0525
  210SOL    HW3  613   5.802   0.447   6.390 -1.8686 -1.1606  0.1258
  210SOL    MW4  614   5.764   0.526   6.389 -0.4084 -0.4228  0.2218
  211SOL     OW  615   0.703   2.893   0.736 -0.0419 -0.3183  0.3686
  211SOL    HW2  616   0.624   2.944   0.720 -0.3099 -0.6666  0.5606
  211SOL    HW3  617   0.767   2.927   0.673 -0.1647  0.3604  0.6056
  211SOL    MW4  618   0.701   2.904   0.725 -0.0935 -0.2747  0.4252
  212SOL     OW  619   0.526   5.703   4.462  0.1748 -0.3322 -0.1269
  212SOL    HW2  620   0.516   5.618   4.418 -0.0833  0.2069 -1.1528
  212SOL    HW3  621   0.498   5.767   4.396 -1.3294  0.4604  1.2357
  212SOL    MW4  622   0.521   5.700   4.447 -0.0577 -0.1565 -0.0825
  213SOL     OW  623   2.558   4.889   4.420 -0.3131 -0.3236  0.1476
  213SOL    HW2  624   2.621   4.961   4.426 -0.3754 -0.3373  1.0584
  213SOL    HW3  625   2.486   4.924   4.369  1.0711 -0.7758 -2.2799
  213SOL    MW4  626   2.557   4.903   4.414 -0.1387 -0.3850 -0.0525
  214SOL     OW  627   3.144   6.341   1.413  0.0477  1.0112  0.0602
  214SOL    HW2  628   3.053   6.320   1.390  0.4316 -0.5617 -0.1224
  214SOL    HW3  629   3.192   6.260   1.399  1.1974  1.3397  1.7683
  214SOL    MW4  630   3.138   6.328   1.408  0.2500  0.8470  0.2615
  215SOL     OW  631   0.343   5.799   5.274  0.3390 -0.1491  0.5198
  215SOL    HW2  632   0.278   5.851   5.322 -0.9184 -2.1092  1.0663
  215SOL    HW3  633   0.375   5.736   5.339 -0.3363 -1.9338 -0.7911
  215SOL    MW4  634   0.339   5.797   5.289  0.0840 -0.6432  0.4189
  216SOL     OW  635   3.800   4.564   2.396 -0.2661  0.4179  0.1187
  216SOL    HW2  636   3.797   4.502   2.323  0.8148 -0.2692  0.6369
  216SOL    HW3  637   3.796   4.650   2.355 -0.6353  0.0271 -0.6826
  216SOL    MW4  638   3.799   4.567   2.381 -0.1722  0.2757  0.0813
  217SOL     OW  639   0.518   4.727   1.633 -0.7037  0.3429 -0.3302
  217SOL    HW2  640   0.543   4.657   1.692 -0.5903  0.5239 -0.1616
  217SOL    HW3  641   0.422   4.731   1.639 -0.7484 -0.1125 -0.7039
  217SOL    MW4  642   0.509   4.718   1.641 -0.6946  0.3067 -0.3572
  218SOL     OW  643   0.380   3.313   3.336 -0.5287  0.0523  0.0307
  218SOL    HW2  644   0.356   3.323   3.428 -0.6283 -0.6856  0.0835
  218SOL    HW3  645   0.299   3.284   3.293 -0.5508  0.6381 -0.3376
  218SOL    MW4  646   0.366   3.311   3.342 -0.5448  0.0322 -0.0109
  219SOL     OW  647   5.741   4.855   2.238  0.1723 -0.0689  0.2758
  219SOL    HW2  648   5.755   4.761   2.251 -0.1375 -0.3224 -1.0912
  219SOL    HW3  649   5.732   4.890   2.327  3.8879 -0.7144  1.1000
  219SOL    MW4  650   5.742   4.847   2.252  0.6216 -0.1875  0.2042
  220SOL     OW  651   4.513   2.265   3.102  0.1796  0.0127 -0.3090
  220SOL    HW2  652   4.560   2.187   3.130  1.4328  0.7526 -0.3087
  220SOL    HW3  653   4.568   2.304   3.034 -0.3910  0.9275 -0.2667
  220SOL    MW4  654   4.526   2.260   3.097  0.2697  0.2310 -0.3034
  221SOL     OW  655   5.663   2.257   6.208  0.0044 -0.1844 -0.3639
  221SOL    HW2  656   5.602   2.196   6.167 -0.8898  0.0322  0.5987
  221SOL    HW3  657   5.621   2.343   6.200  0.7197  0.1419 -0.6944
  221SOL    MW4  658   5.649   2.260   6.202 -0.0192 -0.1128 -0.2805
  222SOL     OW  659   6.319   0.763   3.660  0.7450 -0.6673 -0.1378
  222SOL    HW2  660   6.229   0.731   3.655  1.2718 -2.4229  0.7034
  222SOL    HW3  661   6.333   0.779   3.753  1.1085  0.2515 -0.3399
  222SOL    MW4  662   6.309   0.761   3.672  0.8624 -0.7777 -0.0535
  223SOL     OW  663   2.217   2.630   3.737  0.2884  0.6274  0.2568
  223SOL    HW2  664   2.130   2.667   3.753  0.6658  0.9001  1.8273
  223SOL    HW3  665   2.209   2.538   3.764  0.8765  1.0379  1.9317
  223SOL    MW4  666   2.204   2.622   3.742  0.4158  0.7175  0.6850
  224SOL     OW  667   2.443   4.196   6.294  0.4799 -0.5861  0.1745
  224SOL    HW2  668   2.455   4.153   6.209  0.8809 -0.5909  0.2314
  224SOL    HW3  669   2.423   4.287   6.272  1.1081 -0.4647  0.0782
  224SOL    MW4  670   2.442   4.202   6.280  0.6157 -0.5707  0.1693
  225SOL     OW  671   5.484   5.199   0.322 -0.2547  0.6183  0.4862
  225SOL    HW2  672   5.522   5.234   0.241  0.0390  1.6827  1.0756
  225SOL    HW3  673   5.419   5.135   0.291 -0.0732  0.9263 -0.5862
  225SOL    MW4  674   5.480   5.195   0.307 -0.1920  0.7994  0.4225
  226SOL     OW  675   6.126   1.325   2.049  0.3014  0.4430  0.7436
  226SOL    HW2  676   6.076   1.276   2.114  1.6047 -1.3615  0.4608
  226SOL    HW3  677   6.144   1.409   2.091 -0.8778  0.2028  1.7799
  226SOL    MW4  678   6.122   1.329   2.063  0.3178  0.1732  0.8430
  227SOL     OW  679   4.464   6.440   3.095  0.3333  0.2670  0.8809
  227SOL    HW2  680   4.550   6.401   3.112  0.3168 -1.3751 -2.0250
  227SOL    HW3  681   4.401   6.375   3.124  0.2619 -0.9111 -1.6321
  227SOL    MW4  682   4.467   6.427   3.101  0.3217 -0.1051  0.1659
  228SOL     OW  683   2.621   4.337   4.382  0.1304  0.2938  0.5119
  228SOL    HW2  684   2.597   4.430   4.377 -3.2249 -0.4750 -0.0025
  228SOL    HW3  685   2.654   4.317   4.295  1.7099  1.1462  0.8770
  228SOL    MW4  686   2.622   4.347   4.370 -0.1039  0.3049  0.4922
  229SOL     OW  687   5.092   3.179   3.169 -0.2905 -0.2790 -0.2874
  229SOL    HW2  688   5.163   3.129   3.211 -0.4312 -0.2719 -0.0359
  229SOL    HW3  689   5.029   3.193   3.240 -2.0476 -3.0000 -1.1815
  229SOL    MW4  690   5.093   3.174   3.184 -0.5409 -0.6371 -0.3721
  230SOL     OW  691   6.067   5.409   0.289  0.1360  0.0790 -0.0439
  230SOL    HW2  692   6.001   5.343   0.269  1.1883 -0.6426 -1.2976
  230SOL    HW3  693   6.127   5.365   0.350 -0.0461  0.4387  0.4034
  230SOL    MW4  694   6.066   5.394   0.295  0.2508  0.0313 -0.1503
  231SOL     OW  695   3.160   3.237   0.666 -0.1566 -0.1500  0.1045
  231SOL    HW2  696   3.197   3.237   0.755 -0.8192  0.3548  0.3877
  231SOL    HW3  697   3.129   3.147   0.653  2.0081 -0.8838 -0.5199
  231SOL    MW4  698   3.161   3.225   0.676  0.0416 -0.1802  0.0595
  232SOL     OW  699   6.162   1.790   6.368 -0.6679 -0.0549  0.0470
  232SOL    HW2  700   6.130   1.871   6.408  1.3535  1.2714 -0.8753
  232SOL    HW3  701   6.152   1.805   6.274 -0.3592 -0.9075 -0.1247
  232SOL    MW4  702   6.156   1.803   6.361 -0.3605  0.0076 -0.0973
  233SOL     OW  703   1.797   5.826   5.339 -0.2315 -0.1670  0.3430
  233SOL    HW2  704   1.784   5.771   5.417  2.0659  1.4304  1.9744
  233SOL    HW3  705   1.818   5.913   5.374  0.8401  0.6305 -2.0818
  233SOL    MW4  706   1.798   5.830   5.354  0.2130  0.1490  0.2383
  234SOL     OW  707   0.274   1.950   1.666  0.3865 -0.0614 -0.3277
  234SOL    HW2  708   0.262   1.960   1.572  0.2673  0.3072 -0.2739
  234SOL    HW3  709   0.366   1.927   1.676  0.8955  1.8331 -0.3975
  234SOL    MW4  710   0.284   1.948   1.655  0.4379  0.2372 -0.3298
  235SOL     OW  711   1.959   3.911   0.568  0.5285  0.5236 -0.2079
  235SOL    HW2  712   1.995   3.954   0.491 -0.2225 -0.1574 -0.9588
  235SOL    HW3  713   1.877   3.958   0.586 -0.1399 -0.3526 -0.8477
  235SOL    MW4  714   1.953   3.923   0.560  0.3412  0.3181 -0.3914
  236SOL     OW  715   6.206   1.981   2.078  0.3765 -0.4861 -0.6636
  236SOL    HW2  716   6.223   2.038   2.002  2.9807  0.4117  0.4787
  236SOL    HW3  717   6.259   1.903   2.061 -0.1057 -0.8739 -0.3949
  236SOL    MW4  718   6.215   1.978   2.065  0.6565 -0.4188 -0.4775
  237SOL     OW  719   5.004   1.435   0.552 -0.4467 -0.2146 -0.1305
  237SOL    HW2  720   4.929   1.447   0.610  0.8175 -0.7100  1.6753
  237SOL    HW3  721   5.035   1.524   0.535 -1.4177 -0.0027 -0.9116
  237SOL    MW4  722   4.998   1.449   0.557 -0.4080 -0.2520  0.0047
  238SOL     OW  723   5.249   3.097   1.754  0.3369  0.1027  0.1183
  238SOL    HW2  724   5.199   3.161   1.804 -0.8870 -0.9848  0.3655
  238SOL    HW3  725   5.186   3.062   1.691  1.1183 -0.4824 -0.3562
  238SOL    MW4  726   5.234   3.101   1.753  0.2785 -0.1180  0.0883
  239SOL     OW  727   5.468   3.065   1.977  0.2316  0.3691  0.3732
  239SOL    HW2  728   5.525   2.989   1.969  0.7241  0.7889 -0.2088
  239SOL    HW3  729   5.415   3.048   2.055  1.1666 -0.0190  0.9412
  239SOL    MW4  730   5.468   3.053   1.986  0.4200  0.3733  0.3713
  240SOL     OW  731   5.573   6.328   6.334  0.0236  0.6193  0.7099
  240SOL    HW2  732   5.661   6.290   6.338 -0.2029 -0.1754 -1.0954
  240SOL    HW3  733   5.582   6.403   6.275 -0.3927  0.8993  0.9985
  240SOL    MW4  734   5.586   6.333   6.327 -0.0612  0.5514  0.5098
  241SOL     OW  735   1.781   2.473   1.263 -0.4802 -0.5459 -0.3479
  241SOL    HW2  736   1.742   2.549   1.219 -1.5616 -1.3124 -0.7452
  241SOL    HW3  737   1.707   2.426   1.301  0.1286 -1.6238 -0.4382
  241SOL    MW4  738   1.766   2.477   1.262 -0.5426 -0.7893 -0.4123
  242SOL     OW  739   3.482   6.246   0.285 -0.1653  0.4341 -0.3493
  242SOL    HW2  740   3.568   6.211   0.261  0.5745  2.2814 -0.5442
  242SOL    HW3  741   3.422   6.207   0.221  0.6985  0.0007 -0.9217
  242SOL    MW4  742   3.485   6.236   0.274  0.0462  0.6206 -0.4505
  243SOL     OW  743   5.048   3.481   5.742 -0.4073 -0.2236  0.6441
  243SOL    HW2  744   4.971   3.440   5.704  0.1622 -0.2862 -0.4848
  243SOL    HW3  745   5.030   3.484   5.836 -0.6336 -2.7329  0.7595
  243SOL    MW4  746   5.036   3.476   5.749 -0.3620 -0.5629  0.5104
  244SOL     OW  747   1.822   4.564   5.049 -0.1909  0.9389 -0.5066
  244SOL    HW2  748   1.733   4.529   5.045 -0.6807  1.6324  2.1330
  244SOL    HW3  749   1.877   4.487   5.060 -0.5634  0.5864 -1.0404
  244SOL    MW4  750   1.818   4.549   5.050 -0.3047  0.9839 -0.2288
  245SOL     OW  751   4.825   3.172   1.412  0.0446 -0.3997  0.5578
  245SOL    HW2  752   4.864   3.149   1.329 -1.8017  1.2889 -0.8845
  245SOL    HW3  753   4.763   3.101   1.431 -0.1902 -0.3462  0.0026
  245SOL    MW4  754   4.822   3.160   1.404 -0.2300 -0.1699  0.2943
  246SOL     OW  755   1.939   5.260   2.067 -0.1056  0.2076  0.2174
  246SOL    HW2  756   1.922   5.288   2.157 -0.2682 -1.6356  0.7928
  246SOL    HW3  757   1.904   5.331   2.014 -0.3417  1.1723  1.5924
  246SOL    MW4  758   1.932   5.273   2.072 -0.1582  0.0917  0.4747
  247SOL     OW  759   1.451   5.024   1.258  0.2334 -0.4268 -0.1754
  247SOL    HW2  760   1.385   5.034   1.327 -0.1181 -0.9866 -0.4273
  247SOL    HW3  761   1.460   5.112   1.221  1.4253  0.1957  1.4717
  247SOL    MW4  762   1.444   5.037   1.262  0.3443 -0.4185  0.0087
  248SOL     OW  763   3.868   2.477   0.510  0.2413 -0.2639  0.0520
  248SOL    HW2  764   3.815   2.399   0.526  0.5193 -1.0168 -2.2454
  248SOL    HW3  765   3.805   2.548   0.504 -0.4419 -0.9465 -1.4077
  248SOL    MW4  766   3.853   2.476   0.511  0.1879 -0.4533 -0.4437
  249SOL     OW  767   4.989   4.043   2.464 -0.0393 -0.1624 -0.0079
  249SOL    HW2  768   4.967   4.110   2.529  0.4703 -0.6972  0.7245
  249SOL    HW3  769   4.952   3.962   2.499  2.0690 -0.8720  0.7225
  249SOL    MW4  770   4.981   4.041   2.477  0.3061 -0.3266  0.1851
  250SOL     OW  771   4.429   1.563   0.977 -0.1049  0.7043  0.0211
  250SOL    HW2  772   4.447   1.540   0.885  1.6048  2.2151 -0.0773
  250SOL    HW3  773   4.337   1.589   0.977  0.1242  1.6371 -1.4946
  250SOL    MW4  774   4.419   1.563   0.965  0.1509  1.0267 -0.1918
  251SOL     OW  775   4.691   2.319   0.442 -0.4704  0.3300 -0.1452
  251SOL    HW2  776   4.662   2.297   0.531 -1.1989 -1.2287 -0.7338
  251SOL    HW3  777   4.610   2.329   0.392 -0.0567 -0.0357 -0.9127
  251SOL    MW4  778   4.676   2.318   0.447 -0.5119  0.0761 -0.3241
  252SOL     OW  779   4.580   5.439   2.598  0.0992 -0.3337  0.6182
  252SOL    HW2  780   4.655   5.413   2.546  0.2545  0.8745  0.2240
  252SOL    HW3  781   4.611   5.511   2.652 -0.4956 -0.5168  1.2222
  252SOL    MW4  782   4.594   5.445   2.598  0.0412 -0.1985  0.6459
  253SOL     OW  783   2.212   2.664   3.182 -0.2357  0.2140  0.0458
  253SOL    HW2  784   2.164   2.747   3.186  0.8734  1.0322 -1.8998
  253SOL    HW3  785   2.226   2.640   3.273  2.4056  4.0261  0.8997
  253SOL    MW4  786   2.207   2.672   3.195  0.2591  0.8249 -0.0982
  254SOL     OW  787   3.610   2.453   1.986  0.4453 -0.3313  0.3105
  254SOL    HW2  788   3.655   2.444   1.902  0.0847 -0.7854  0.1663
  254SOL    HW3  789   3.558   2.533   1.976  2.0056  0.8162  0.8505
  254SOL    MW4  790   3.609   2.463   1.974  0.6036 -0.2399  0.3628
  255SOL     OW  791   1.516   6.256   0.373  0.0391 -0.3295  0.0556
  255SOL    HW2  792   1.600   6.299   0.390  0.0029 -0.3174  0.1994
  255SOL    HW3  793   1.523   6.171   0.416 -0.1427 -0.2033  0.3389
  255SOL    MW4  794   1.528   6.251   0.381  0.0104 -0.3113  0.1120
  256SOL     OW  795   4.260   6.337   4.308  0.1305  0.1465 -0.7820
  256SOL    HW2  796   4.219   6.255   4.281  0.8226 -0.3692 -0.2912
  256SOL    HW3  797   4.190   6.388   4.347 -0.8789  0.8283 -3.2983
  256SOL    MW4  798   4.246   6.333   4.309  0.0886  0.1684 -1.0492
  257SOL     OW  799   6.092   2.949   2.632 -0.1525 -0.1666 -0.3563
  257SOL    HW2  800   6.188   2.942   2.635 -0.0284  1.3828  0.5054
  257SOL    HW3  801   6.065   2.883   2.568  1.4338 -1.0531 -0.1682
  257SOL    MW4  802   6.101   2.939   2.624  0.0732 -0.0792 -0.2178
  258SOL     OW  803   1.284   2.658   1.156 -0.1942 -0.0055 -0.0793
  258SOL    HW2  804   1.366   2.704   1.138  0.0515 -1.0893 -2.0183
  258SOL    HW3  805   1.224   2.726   1.188 -0.0617  1.9046 -3.4378
  258SOL    MW4  806   1.287   2.673   1.158 -0.1443  0.1035 -0.7783
  259SOL     OW  807   0.056   2.054   0.413 -0.0420  0.5158  0.4058
  259SOL    HW2  808  -0.025   2.014   0.444 -0.0877 -0.0505 -0.4178
  259SOL    HW3  809   0.114   2.051   0.489  0.4320 -2.4370  0.0591
  259SOL    MW4  810   0.053   2.048   0.427  0.0145  0.0515  0.2514
  260SOL     OW  811   4.460   2.159   1.988 -0.4782  0.2515 -0.5650
  260SOL    HW2  812   4.542   2.154   1.938  0.4806  0.5520  0.9189
  260SOL    HW3  813   4.423   2.071   1.981  1.5389 -0.8436  1.2303
  260SOL    MW4  814   4.466   2.147   1.980 -0.0856  0.1466 -0.1324
  261SOL     OW  815   2.048   2.499   4.219  0.1864 -0.2008 -0.2782
  261SOL    HW2  816   2.040   2.581   4.268  0.3197 -0.9311  1.0160
  261SOL    HW3  817   2.116   2.517   4.154  1.9811  0.0315  1.5370
  261SOL    MW4  818   2.056   2.512   4.217  0.4408 -0.2665  0.1321
  262SOL     OW  819   3.049   6.447   4.092 -0.5330  0.1143  0.1816
  262SOL    HW2  820   3.097   6.451   4.174  3.3618 -1.4764 -1.7912
  262SOL    HW3  821   3.109   6.480   4.026 -2.3410 -1.4302 -2.4676
  262SOL    MW4  822   3.063   6.452   4.094 -0.2577 -0.2994 -0.4282
  263SOL     OW  823   3.976   4.339   6.092 -0.3411 -0.2384  0.1445
  263SOL    HW2  824   3.992   4.344   6.187  1.6559 -0.8471 -0.1149
  263SOL    HW3  825   3.982   4.246   6.071  2.0708  0.0952 -0.9604
  263SOL    MW4  826   3.979   4.327   6.102  0.2406 -0.2747 -0.0355
  264SOL     OW  827   6.128   1.032   4.911  0.0385  0.4049 -0.0699
  264SOL    HW2  828   6.097   0.969   4.976  0.3800  0.0104 -0.2853
  264SOL    HW3  829   6.163   1.105   4.964  2.7015 -1.0202  0.3071
  264SOL    MW4  830   6.129   1.034   4.927  0.4349  0.1648 -0.0486
  265SOL     OW  831   5.638   1.702   5.366  0.5352  0.4858  0.2578
  265SOL    HW2  832   5.599   1.623   5.403 -0.9318  0.5784 -0.9802
  265SOL    HW3  833   5.626   1.693   5.271  1.3383  1.6935  0.0027
  265SOL    MW4  834   5.632   1.691   5.358  0.4476  0.6574  0.0608
  266SOL     OW  835   4.001   6.153   1.459  0.5639 -0.1057 -0.2728
  266SOL    HW2  836   3.953   6.232   1.434 -0.8072 -0.5686  0.7241
  266SOL    HW3  837   4.055   6.133   1.384 -2.4961 -0.8013 -2.4933
  266SOL    MW4  838   4.002   6.161   1.446 -0.0208 -0.2585 -0.4343
  267SOL     OW  839   0.909   3.110   4.230  0.1408  0.4588 -1.1512
  267SOL    HW2  840   0.835   3.072   4.182 -0.1883 -2.3731  1.2650
  267SOL    HW3  841   0.879   3.197   4.256 -1.6137  0.0938 -1.8121
  267SOL    MW4  842   0.895   3.116   4.227 -0.1341  0.0370 -0.9196
  268SOL     OW  843   2.393   2.023   4.246  0.4372  0.1933 -0.4942
  268SOL    HW2  844   2.350   1.939   4.230  1.2686  0.0538 -2.2482
  268SOL    HW3  845   2.321   2.087   4.250 -0.3112 -0.6838  2.0615
  268SOL    MW4  846   2.378   2.020   4.245  0.4482  0.0592 -0.3884
  269SOL     OW  847   5.476   5.136   3.112 -0.1038 -0.0060  0.6824
  269SOL    HW2  848   5.462   5.048   3.077  0.4831  0.1424  0.0389
  269SOL    HW3  849   5.491   5.191   3.034 -0.1925  0.6103  1.0899
  269SOL    MW4  850   5.476   5.132   3.097 -0.0380  0.0949  0.6513
  270SOL     OW  851   6.155   3.011   3.753 -0.3194 -0.0076  0.2884
  270SOL    HW2  852   6.128   3.102   3.764 -0.5651 -0.0523  0.0801
  270SOL    HW3  853   6.240   3.016   3.710  0.0874  0.1399  1.0974
  270SOL    MW4  854   6.163   3.024   3.748 -0.2981  0.0059  0.3677
  271SOL     OW  855   2.661   4.239   5.397 -0.0387 -0.3110 -0.3491
  271SOL    HW2  856   2.675   4.170   5.461  2.5549  1.9416  1.7792
  271SOL    HW3  857   2.727   4.222   5.329  0.8721  0.2200  0.3764
  271SOL    MW4  858   2.672   4.228   5.396  0.4236  0.0563  0.0275
  272SOL     OW  859   4.465   0.627   6.127 -0.2922 -0.5762 -0.0957
  272SOL    HW2  860   4.462   0.632   6.032  1.2466 -1.9533 -0.2601
  272SOL    HW3  861   4.487   0.536   6.146 -1.9854 -0.7067  1.6544
  272SOL    MW4  862   4.467   0.616   6.117 -0.3125 -0.7751  0.1136
  273SOL     OW  863   3.776   6.193   5.663 -0.2668  0.0374  0.0620
  273SOL    HW2  864   3.724   6.142   5.725  0.8017 -1.1496  0.0259
  273SOL    HW3  865   3.727   6.188   5.581 -1.5689  1.4235  0.7011
  273SOL    MW4  866   3.762   6.185   5.661 -0.2977  0.0637  0.1415
  274SOL     OW  867   1.442   2.122   4.751 -0.0020  0.4250  0.1236
  274SOL    HW2  868   1.461   2.071   4.829 -1.9553 -1.1851 -0.3827
  274SOL    HW3  869   1.419   2.209   4.784  1.6823  0.5454  1.1086
  274SOL    MW4  870   1.441   2.127   4.765 -0.0375  0.2285  0.1868
  275SOL     OW  871   4.654   2.575   2.383 -0.1061 -0.0180 -0.1643
  275SOL    HW2  872   4.595   2.630   2.331  0.4191 -1.5008 -2.4724
  275SOL    HW3  873   4.625   2.485   2.366  1.4358 -0.6578  0.4227
  275SOL    MW4  874   4.642   2.571   2.374  0.1666 -0.2981 -0.3914
  276SOL     OW  875   1.781   3.608   4.857  0.1322 -0.1269 -0.2984
  276SOL    HW2  876   1.858   3.555   4.878 -0.9117 -0.7127  2.2892
  276SOL    HW3  877   1.789   3.685   4.913  0.0837  1.0681 -1.8597
  276SOL    MW4  878   1.792   3.611   4.867 -0.0119 -0.0465 -0.1630
  277SOL     OW  879   1.809   2.660   4.502 -0.7418  0.3683  0.3495
  277SOL    HW2  880   1.828   2.581   4.552 -0.8013 -0.0652 -0.2919
  277SOL    HW3  881   1.802   2.730   4.567  0.4129  0.0534  0.8313
  277SOL    MW4  882   1.811   2.659   4.517 -0.5973  0.2695  0.3285
  278SOL     OW  883   5.684   4.969   2.486 -0.2817 -0.3889 -0.2975
  278SOL    HW2  884   5.701   4.954   2.579 -0.0682  0.0501 -0.2597
  278SOL    HW3  885   5.662   5.062   2.481 -0.9625 -0.5619 -0.5962
  278SOL    MW4  886   5.683   4.980   2.498 -0.3434 -0.3538 -0.3319
  279SOL     OW  887   1.433   6.361   1.685 -0.3695  0.5074  0.5826
  279SOL    HW2  888   1.491   6.284   1.687 -2.2282 -0.9468  1.0635
  279SOL    HW3  889   1.428   6.390   1.776  0.0313  0.9889  0.4561
  279SOL    MW4  890   1.440   6.354   1.697 -0.5618  0.3790  0.6294
  280SOL     OW  891   2.704   5.368   4.064  0.0945 -0.0867 -0.4073
  280SOL    HW2  892   2.712   5.456   4.028 -0.6776  0.1065 -0.1401
  280SOL    HW3  893   2.618   5.368   4.107  0.4073 -0.7311  0.2440
  280SOL    MW4  894   2.694   5.380   4.065  0.0339 -0.1462 -0.2861
  281SOL     OW  895   4.294   0.649   6.341 -0.4841 -0.0082  0.3799
  281SOL    HW2  896   4.356   0.622   6.273  0.7257  0.0221  1.4267
  281SOL    HW3  897   4.210   0.657   6.296  0.3467  0.3332 -1.1643
  281SOL    MW4  898   4.291   0.646   6.326 -0.2149  0.0408  0.3143
  282SOL     OW  899   2.491   1.387   3.762 -0.3101 -0.7187 -0.3998
  282SOL    HW2  900   2.570   1.347   3.726 -0.0019 -0.8209  0.3747
  282SOL    HW3  901   2.482   1.350   3.849 -0.5378  0.1921 -0.0182
  282SOL    MW4  902   2.500   1.377   3.768 -0.2994 -0.6120 -0.2473
  283SOL     OW  903   5.918   6.193   1.162  0.0312 -0.5645  0.1448
  283SOL    HW2  904   5.853   6.228   1.101 -1.3870 -2.0211  0.7384
  283SOL    HW3  905   5.871   6.186   1.245  1.9603  1.5707  1.5494
  283SOL    MW4  906   5.903   6.197   1.165  0.0986 -0.4750  0.4084
  284SOL     OW  907   1.322   3.489   4.360 -0.0615 -0.2857 -0.0427
  284SOL    HW2  908   1.382   3.426   4.401  1.1745  1.5086  1.0340
  284SOL    HW3  909   1.270   3.436   4.299  1.3502 -2.2201  0.3361
  284SOL    MW4  910   1.323   3.474   4.358  0.2878 -0.3042  0.1494
  285SOL     OW  911   0.536   2.133   4.509 -0.1413  0.5410  0.2826
  285SOL    HW2  912   0.478   2.210   4.505 -0.6410  0.1292 -0.7578
  285SOL    HW3  913   0.564   2.120   4.419  1.5916  0.7124  0.7666
  285SOL    MW4  914   0.532   2.142   4.497  0.0214  0.5093  0.2092
  286SOL     OW  915   5.088   0.082   4.070  0.1139 -0.0050  0.6811
  286SOL    HW2  916   5.162   0.030   4.101 -1.0212 -1.5027  0.9676
  286SOL    HW3  917   5.082   0.062   3.976  0.3834  0.5219  0.5477
  286SOL    MW4  918   5.097   0.073   4.062 -0.0003 -0.1331  0.7013
  287SOL     OW  919   6.126   5.350   0.600 -0.4231 -0.3807 -0.0961
  287SOL    HW2  920   6.201   5.303   0.562 -0.6664 -1.0403  0.2185
  287SOL    HW3  921   6.155   5.441   0.606  0.3801 -0.6384  0.0756
  287SOL    MW4  922   6.140   5.356   0.596 -0.3492 -0.5017 -0.0319
  288SOL     OW  923   2.323   4.280   2.214 -0.6243 -0.2138  0.1082
  288SOL    HW2  924   2.369   4.309   2.293  1.4298 -1.7579 -0.4427
  288SOL    HW3  925   2.287   4.195   2.238 -0.3943 -0.4791 -0.4753
  288SOL    MW4  926   2.324   4.273   2.228 -0.3230 -0.4525 -0.0415
  289SOL     OW  927   4.194   5.816   3.179 -0.3749  0.0854 -0.0845
  289SOL    HW2  928   4.286   5.827   3.154 -0.1334  0.0565  0.7548
  289SOL    HW3  929   4.188   5.724   3.205 -0.9297 -0.2269 -1.2329
  289SOL    MW4  930   4.205   5.805   3.179 -0.4162  0.0404 -0.1253
  290SOL     OW  931   1.207   4.039   0.828 -0.0115 -0.0568  0.3628
  290SOL    HW2  932   1.118   4.027   0.861 -0.0398 -0.8261  0.0123
  290SOL    HW3  933   1.263   4.028   0.905 -0.1395 -0.8513  0.3467
  290SOL    MW4  934   1.203   4.036   0.842 -0.0321 -0.2631  0.3144
  291SOL     OW  935   5.392   2.486   4.748  0.0749 -0.4348  0.0259
  291SOL    HW2  936   5.399   2.576   4.780 -0.2041 -0.0214 -1.0388
  291SOL    HW3  937   5.482   2.457   4.738  0.1658 -0.2209  0.2046
  291SOL    MW4  938   5.405   2.494   4.751  0.0501 -0.3520 -0.0910
  292SOL     OW  939   5.461   1.285   5.296 -0.3096 -0.3260 -0.2615
  292SOL    HW2  940   5.493   1.343   5.365  1.1751 -1.5563  0.1387
  292SOL    HW3  941   5.375   1.321   5.272 -0.0358  1.2062  0.9126
  292SOL    MW4  942   5.454   1.298   5.302 -0.0776 -0.2862 -0.0538
  293SOL     OW  943   5.108   3.043   6.317  0.2238  0.8435  0.0740
  293SOL    HW2  944   5.106   3.078   6.406 -1.6109  1.5161 -0.1913
  293SOL    HW3  945   5.130   2.950   6.329  1.8496  1.2901  1.0399
  293SOL    MW4  946   5.111   3.035   6.331  0.1962  0.9911  0.1664
  294SOL     OW  947   4.648   1.846   5.469  0.2360 -0.9215 -0.1952
  294SOL    HW2  948   4.656   1.755   5.496  1.2048 -0.6666  0.4517
  294SOL    HW3  949   4.574   1.848   5.409 -0.9272 -1.8249  1.1672
  294SOL    MW4  950   4.639   1.835   5.465  0.2104 -1.0071  0.0699
  295SOL     OW  951   4.132   3.107   3.558 -0.5623  0.0855  0.0060
  295SOL    HW2  952   4.068   3.039   3.580 -0.5417 -0.3847 -1.3007
  295SOL    HW3  953   4.206   3.059   3.521 -1.2987  0.8604 -2.7409
  295SOL    MW4  954   4.133   3.092   3.556 -0.6568  0.1257 -0.5288
  296SOL     OW  955   4.155   5.367   4.630 -0.4716 -0.4457 -0.1427
  296SOL    HW2  956   4.208   5.415   4.566 -1.1891 -0.3537 -0.6851
  296SOL    HW3  957   4.157   5.276   4.600 -2.5897 -0.0930 -1.6246
  296SOL    MW4  958   4.162   5.361   4.617 -0.8457 -0.3871 -0.4098
  297SOL     OW  959   3.723   4.536   2.080  0.1771 -0.2696 -0.3193
  297SOL    HW2  960   3.805   4.532   2.030  1.0728 -1.2497  1.1227
  297SOL    HW3  961   3.654   4.522   2.015  1.2224 -0.4853 -1.4220
  297SOL    MW4  962   3.725   4.533   2.065  0.4332 -0.4273 -0.2746
  298SOL     OW  963   4.437   1.341   4.362 -0.1939  0.1888 -0.5994
  298SOL    HW2  964   4.515   1.349   4.307 -1.9823  1.2565 -3.1638
  298SOL    HW3  965   4.369   1.386   4.314 -2.3507 -0.3332  1.7456
  298SOL    MW4  966   4.439   1.348   4.349 -0.7144  0.2608 -0.6283
  299SOL     OW  967   4.913   0.660   5.791  0.2808 -0.6120  0.4473
  299SOL    HW2  968   4.960   0.618   5.718 -0.4355  0.1773 -0.4957
  299SOL    HW3  969   4.982   0.702   5.842  0.6250  0.8381 -1.1110
  299SOL    MW4  970   4.928   0.660   5.788  0.2317 -0.3166  0.1173
  300SOL     OW  971   6.334   3.485   3.403 -0.0481  0.6354 -0.3874
  300SOL    HW2  972   6.374   3.400   3.417 -0.3162  0.5354 -0.2107
  300SOL    HW3  973   6.280   3.499   3.481 -1.7263 -0.0123 -1.3640
  300SOL    MW4  974   6.332   3.476   3.415 -0.3049  0.5367 -0.4929
  301SOL     OW  975   3.416   0.506   0.212 -0.7632 -0.6436 -0.4619
  301SOL    HW2  976   3.447   0.560   0.285  0.4940 -1.2145 -0.5477
  301SOL    HW3  977   3.398   0.568   0.142  0.3962 -0.2859 -0.4660
  301SOL    MW4  978   3.418   0.521   0.213 -0.4444 -0.6717 -0.4737
  302SOL     OW  979   3.550   6.125   6.301  0.1703 -0.0003 -0.6719
  302SOL    HW2  980   3.480   6.064   6.324  0.3199  0.1626  0.2727
  302SOL    HW3  981   3.535   6.146   6.209 -0.4513 -0.7102 -0.7400
  302SOL    MW4  982   3.539   6.119   6.292  0.1080 -0.0724 -0.5563
  303SOL     OW  983   0.837   1.704   5.662  0.4454  0.2220 -0.1537
  303SOL    HW2  984   0.910   1.716   5.723 -0.6035  0.7152  1.0464
  303SOL    HW3  985   0.780   1.779   5.678  0.6131  0.9328 -2.4924
  303SOL    MW4  986   0.839   1.715   5.672  0.3292  0.3808 -0.3039
  304SOL     OW  987   2.886   3.129   3.904  0.8306 -0.0677 -0.1374
  304SOL    HW2  988   2.933   3.185   3.842 -1.1298  2.1456  0.2493
  304SOL    HW3  989   2.793   3.144   3.885  0.1715 -0.3138  2.4554
  304SOL    MW4  990   2.880   3.138   3.893  0.4850  0.1918  0.2557
  305SOL     OW  991   3.789   0.754   5.588  0.4018  0.2116  0.1403
  305SOL    HW2  992   3.709   0.711   5.556  0.7893 -0.7201  0.3793
  305SOL    HW3  993   3.842   0.682   5.623  0.5541  1.0415  1.6801
  305SOL    MW4  994   3.785   0.739   5.588  0.4730  0.1981  0.3750
  306SOL     OW  995   1.143   6.116   0.791  0.8145 -0.5375 -0.0163
  306SOL    HW2  996   1.096   6.100   0.709 -0.3285 -0.1689  0.5461
  306SOL    HW3  997   1.172   6.207   0.785  2.1330 -0.9808 -0.6779
  306SOL    MW4  998   1.141   6.126   0.779  0.8377 -0.5473 -0.0294
  307SOL     OW  999   2.513   1.463   5.464 -0.3047 -0.7052  0.0349
  307SOL    HW2 1000   2.472   1.377   5.471  0.5212 -1.0610  0.6804
  307SOL    HW3 1001   2.492   1.492   5.375 -0.8355 -1.4389 -0.0949
  307SOL    MW4 1002   2.505   1.455   5.453 -0.2657 -0.8490  0.1029
  308SOL     OW 1003   0.653   2.829   2.186  0.4800  0.1418 -0.3873
  308SOL    HW2 1004   0.722   2.895   2.201  0.0898  0.4920 -0.1057
  308SOL    HW3 1005   0.575   2.881   2.164 -0.0420 -0.1762  0.6406
  308SOL    MW4 1006   0.652   2.845   2.185  0.3597  0.1460 -0.2145
  309SOL     OW 1007   1.666   5.381   1.777  0.3813  0.3320  0.3588
  309SOL    HW2 1008   1.634   5.294   1.801  0.5829  0.3636  0.7573
  309SOL    HW3 1009   1.601   5.415   1.715 -0.0591  0.1729  0.7288
  309SOL    MW4 1010   1.654   5.374   1.772  0.3498  0.3152  0.4602
  310SOL     OW 1011   4.228   1.446   5.173 -0.0539  0.1745  0.0323
  310SOL    HW2 1012   4.233   1.364   5.124  0.7516  0.0957  0.2237
  310SOL    HW3 1013   4.153   1.436   5.230  0.2171 -0.5562  0.2644
  310SOL    MW4 1014   4.219   1.434   5.174  0.0881  0.0677  0.0882
  311SOL     OW 1015   2.647   4.692   3.717 -0.1049 -0.1493 -0.0086
  311SOL    HW2 1016   2.567   4.744   3.716  0.2839  0.4560 -1.5870
  311SOL    HW3 1017   2.627   4.615   3.664  0.6407  0.5135 -1.3221
  311SOL    MW4 1018   2.634   4.688   3.710  0.0448  0.0180 -0.3902
  312SOL     OW 1019   1.125   6.265   6.085  0.0247 -1.1606  0.2507
  312SOL    HW2 1020   1.182   6.220   6.023 -0.1149 -1.3860  0.2823
  312SOL    HW3 1021   1.098   6.345   6.040  2.0901  0.0541  1.0643
  312SOL    MW4 1022   1.129   6.270   6.071  0.2788 -1.0301  0.3622
  313SOL     OW 1023   2.864   5.004   6.254  0.3724 -0.5053 -0.8357
  313SOL    HW2 1024   2.931   5.032   6.316 -0.1494 -1.1001  0.0259
  313SOL    HW3 1025   2.903   4.931   6.207  0.8628  0.1102 -1.4021
  313SOL    MW4 1026   2.878   4.998   6.256  0.3683 -0.5026 -0.7968
  314SOL     OW 1027   3.243   2.782   6.367  0.2531 -0.5568  0.3435
  314SOL    HW2 1028   3.207   2.771   6.455 -1.2515 -3.4599 -0.4927
  314SOL    HW3 1029   3.198   2.858   6.332  0.1520  0.0534  1.7238
  314SOL    MW4 1030   3.232   2.790   6.374  0.0413 -0.8593  0.4153
  315SOL     OW 1031   5.303   4.262   0.816 -0.4643  0.4996  0.2234
  315SOL    HW2 1032   5.213   4.256   0.848 -1.0290  2.4569 -0.8115
  315SOL    HW3 1033   5.294   4.269   0.721  1.0291 -2.6420 -0.2686
  315SOL    MW4 1034   5.290   4.262   0.807 -0.3417  0.3434  0.0220
  316SOL     OW 1035   5.695   2.278   3.683 -0.1510  0.2786 -0.5481
  316SOL    HW2 1036   5.744   2.284   3.601 -0.7809 -1.9106 -1.1397
  316SOL    HW3 1037   5.742   2.213   3.735 -1.7997 -1.1702 -0.7514
  316SOL    MW4 1038   5.708   2.270   3.679 -0.4516 -0.2014 -0.6530
  317SOL     OW 1039   2.377   6.196   5.998 -0.1783  0.0538  0.0570
  317SOL    HW2 1040   2.448   6.210   6.060 -0.1311 -0.1801  0.0588
  317SOL    HW3 1041   2.354   6.103   6.009 -0.4740  0.1229  0.0485
  317SOL    MW4 1042   2.383   6.185   6.008 -0.2111  0.0320  0.0561
  318SOL     OW 1043   5.268   4.283   0.528 -0.2522 -0.1265 -0.3096
  318SOL    HW2 1044   5.252   4.377   0.514 -2.0011  0.0427  2.2362
  318SOL    HW3 1045   5.201   4.239   0.475  0.3550  0.0153 -1.2351
  318SOL    MW4 1046   5.257   4.290   0.519 -0.4028 -0.0855 -0.0958
  319SOL     OW 1047   3.610   3.407   4.878  0.1728  0.7466  0.7748
  319SOL    HW2 1048   3.633   3.337   4.817  0.4710 -0.0128  1.7361
  319SOL    HW3 1049   3.583   3.480   4.822 -1.9743 -0.7257 -0.2159
  319SOL    MW4 1050   3.610   3.407   4.863 -0.0712  0.4522  0.7709
  320SOL     OW 1051   5.929   2.350   2.567  0.3108 -0.7303  0.0532
  320SOL    HW2 1052   5.965   2.374   2.481  1.0214  1.1990  0.8456
  320SOL    HW3 1053   6.006   2.329   2.620  0.3217  2.2053  1.3961
  320SOL    MW4 1054   5.944   2.350   2.562  0.4060 -0.0884  0.3349
  321SOL     OW 1055   5.137   5.040   4.241 -0.2146 -0.0296  0.7053
  321SOL    HW2 1056   5.095   4.955   4.253  1.2324 -1.0858 -1.0928
  321SOL    HW3 1057   5.073   5.093   4.193  0.0605 -1.2939 -1.1742
  321SOL    MW4 1058   5.123   5.036   4.236  0.0126 -0.3357  0.2201
  322SOL     OW 1059   2.180   1.127   1.187  0.3179  0.0790  0.7206
  322SOL    HW2 1060   2.181   1.057   1.253  0.1742  0.8277  1.5390
  322SOL    HW3 1061   2.105   1.182   1.212  1.1539  1.1942  0.8152
  322SOL    MW4 1062   2.170   1.125   1.199  0.4092  0.3249  0.8410
  323SOL     OW 1063   0.737   2.007   3.588  0.2689 -0.1922  0.3168
  323SOL    HW2 1064   0.809   2.069   3.579  0.4294 -0.2589  1.1195
  323SOL    HW3 1065   0.699   2.026   3.673  0.3795 -1.2598  0.6166
  323SOL    MW4 1066   0.742   2.018   3.598  0.3047 -0.3419  0.4623
  324SOL     OW 1067   1.154   1.432   6.082  0.5012 -0.5798  0.0147
  324SOL    HW2 1068   1.194   1.480   6.154  1.2722  0.4721 -1.0738
  324SOL    HW3 1069   1.215   1.442   6.009 -2.0579  1.8646 -2.0003
  324SOL    MW4 1070   1.167   1.440   6.082  0.2653 -0.1185 -0.3947
  325SOL     OW 1071   3.067   0.455   4.981 -0.1946  0.2656 -0.2847
  325SOL    HW2 1072   3.074   0.469   4.886 -1.1915  0.9801 -0.2736
  325SOL    HW3 1073   3.083   0.542   5.019 -0.3653  0.1013  0.1646
  325SOL    MW4 1074   3.070   0.469   4.973 -0.3486  0.3382 -0.2240
  326SOL     OW 1075   6.238   4.178   1.656  0.5892  0.3739 -0.1697
  326SOL    HW2 1076   6.292   4.121   1.712 -0.1715  0.0204  0.2134
  326SOL    HW3 1077   6.243   4.138   1.569 -0.3604 -0.5952  0.1998
  326SOL    MW4 1078   6.246   4.165   1.652  0.3636  0.1994 -0.0704
  327SOL     OW 1079   5.546   6.123   2.373 -0.2885  0.3376  0.3107
  327SOL    HW2 1080   5.507   6.057   2.429  1.0341 -1.8075 -1.1377
  327SOL    HW3 1081   5.471   6.170   2.335 -1.4027 -1.6988 -0.1526
  327SOL    MW4 1082   5.531   6.121   2.375 -0.2610 -0.2141  0.0585
  328SOL     OW 1083   6.401   1.001   3.114  0.5426 -0.7397 -0.6050
  328SOL    HW2 1084   6.352   1.001   3.032  2.0866 -0.4958 -1.5676
  328SOL    HW3 1085   6.401   0.910   3.143  1.0755 -1.0547 -1.5669
  328SOL    MW4 1086   6.395   0.989   3.107  0.8167 -0.7491 -0.8589
  329SOL     OW 1087   2.383   2.412   2.827 -0.4652  0.4038  1.1188
  329SOL    HW2 1088   2.337   2.449   2.752  1.2190  0.8288  0.2403
  329SOL    HW3 1089   2.473   2.398   2.796 -0.2281 -1.3898  2.4219
  329SOL    MW4 1090   2.389   2.415   2.813 -0.2117  0.2232  1.1748
  330SOL     OW 1091   5.767   6.132   0.655  0.5025  0.3897  0.2316
  330SOL    HW2 1092   5.832   6.191   0.617 -0.5054  0.1919 -1.8969
  330SOL    HW3 1093   5.692   6.188   0.673  0.5579  0.2596  0.8986
  330SOL    MW4 1094   5.766   6.148   0.653  0.3768  0.3464  0.0388
  331SOL     OW 1095   6.148   3.222   0.727 -0.6328 -0.2842 -0.5454
  331SOL    HW2 1096   6.123   3.260   0.642 -1.8151 -1.4534 -0.7647
  331SOL    HW3 1097   6.079   3.252   0.787  0.0059  0.2457 -0.0649
  331SOL    MW4 1098   6.135   3.231   0.723 -0.7046 -0.3686 -0.5109
  332SOL     OW 1099   1.818   1.839   4.294  0.2526  0.2686  0.3067
  332SOL    HW2 1100   1.766   1.781   4.239 -1.1466  0.8735  0.9337
  332SOL    HW3 1101   1.825   1.793   4.378  3.6609 -1.3417 -0.7162
  332SOL    MW4 1102   1.812   1.825   4.298  0.5177  0.1359  0.2545
  333SOL     OW 1103   3.284   1.754   2.517 -0.2516  0.1206 -0.1009
  333SOL    HW2 1104   3.197   1.778   2.549 -1.1726 -0.5174 -1.9657
  333SOL    HW3 1105   3.322   1.703   2.588 -1.3379  0.5406  0.8205
  333SOL    MW4 1106   3.277   1.751   2.531 -0.5164  0.0919 -0.2254
  334SOL     OW 1107   3.471   5.129   4.778 -0.1499  0.1424  1.1194
  334SOL    HW2 1108   3.411   5.089   4.842 -0.2732 -0.5455  0.5850
  334SOL    HW3 1109   3.462   5.075   4.700 -0.1100  1.0687  0.4610
  334SOL    MW4 1110   3.462   5.117   4.776 -0.1609  0.1738  0.9621
  335SOL     OW 1111   5.975   4.653   0.883 -0.2244  0.4141  0.4957
  335SOL    HW2 1112   5.936   4.737   0.909 -0.8217 -0.3316  2.1588
  335SOL    HW3 1113   6.036   4.632   0.953 -0.1928 -0.6170  0.1772
  335SOL    MW4 1114   5.978   4.662   0.896 -0.2990  0.1797  0.6731
  336SOL     OW 1115   4.273   4.331   1.653  0.3525  0.5765 -0.0812
  336SOL    HW2 1116   4.275   4.278   1.573  1.4503  0.8505 -0.2439
  336SOL    HW3 1117   4.202   4.293   1.705 -1.5830  1.4579 -1.9016
  336SOL    MW4 1118   4.264   4.319   1.649  0.2420  0.7290 -0.3429
  337SOL     OW 1119   0.933   1.388   0.479 -0.0144 -0.0619  0.1256
  337SOL    HW2 1120   0.879   1.399   0.401  0.7197  1.8265 -0.1448
  337SOL    HW3 1121   0.924   1.295   0.501 -0.8500 -0.4607 -1.7388
  337SOL    MW4 1122   0.925   1.377   0.472 -0.0278  0.1347 -0.1561
  338SOL     OW 1123   4.153   5.215   2.759  0.3728 -0.0286  0.0232
  338SOL    HW2 1124   4.185   5.295   2.801 -0.5171 -0.2879  1.2510
  338SOL    HW3 1125   4.226   5.154   2.768  0.9173  0.5106 -0.5879
  338SOL    MW4 1126   4.167   5.218   2.766  0.3272  0.0083  0.1046
  339SOL     OW 1127   3.582   4.541   4.250  0.2348  0.0860  0.3702
  339SOL    HW2 1128   3.555   4.521   4.160  1.0738 -2.0981  0.5418
  339SOL    HW3 1129   3.673   4.571   4.240 -0.7158  3.2401  0.2170
  339SOL    MW4 1130   3.591   4.542   4.237  0.2201  0.2140  0.3726
  340SOL     OW 1131   3.824   3.033   2.676  0.4970  0.4663 -0.3067
  340SOL    HW2 1132   3.827   3.041   2.581  2.9014 -0.2639 -0.3861
  340SOL    HW3 1133   3.900   2.977   2.697 -0.4112 -0.0225  1.9758
  340SOL    MW4 1134   3.835   3.026   2.666  0.6944  0.3054 -0.0160
  341SOL     OW 1135   1.322   4.023   5.950 -0.4877 -0.2924  0.0341
  341SOL    HW2 1136   1.377   3.977   6.012  0.5675  0.8474 -0.0279
  341SOL    HW3 1137   1.381   4.080   5.902 -1.6141  0.4506 -0.5282
  341SOL    MW4 1138   1.337   4.024   5.952 -0.4971 -0.0440 -0.0483
  342SOL     OW 1139   3.379   3.421   1.197 -0.3940  0.4864 -0.0314
  342SOL    HW2 1140   3.309   3.356   1.186 -0.5635  0.6181  0.2643
  342SOL    HW3 1141   3.445   3.378   1.250 -0.1104  0.2594 -0.5559
  342SOL    MW4 1142   3.378   3.407   1.202 -0.3790  0.4738 -0.0616
  343SOL     OW 1143   1.798   1.446   4.519  0.0382 -0.2727  0.4397
  343SOL    HW2 1144   1.758   1.372   4.474  0.4415 -0.3598  0.2140
  343SOL    HW3 1145   1.867   1.408   4.574 -0.8122 -0.2230  1.5756
  343SOL    MW4 1146   1.802   1.431   4.520 -0.0208 -0.2776  0.5598
  344SOL     OW 1147   2.351   3.910   0.778 -0.3431 -0.3171 -0.0546
  344SOL    HW2 1148   2.262   3.917   0.814 -0.5577  0.0060 -0.6292
  344SOL    HW3 1149   2.345   3.951   0.692  0.6679  0.9618  0.4369
  344SOL    MW4 1150   2.338   3.917   0.772 -0.2380 -0.1057 -0.0656
  345SOL     OW 1151   2.495   1.075   3.789 -0.0812  0.8228  0.3530
  345SOL    HW2 1152   2.541   0.991   3.785 -1.0417  0.1201  2.6846
  345SOL    HW3 1153   2.541   1.124   3.856  0.5253  2.2650 -1.0482
  345SOL    MW4 1154   2.507   1.070   3.797 -0.1279  0.9204  0.4758
  346SOL     OW 1155   5.322   6.240   4.614  0.0638 -0.3037 -0.0584
  346SOL    HW2 1156   5.332   6.331   4.642 -1.4013  0.2543 -1.2333
  346SOL    HW3 1157   5.333   6.189   4.695 -0.6368  1.0129  0.9037
  346SOL    MW4 1158   5.325   6.245   4.629 -0.2220 -0.0564 -0.0865
  347SOL     OW 1159   5.427   5.399   0.780  0.2078  0.2117  0.5325
  347SOL    HW2 1160   5.422   5.407   0.685 -2.5159  1.5181  0.6977
  347SOL    HW3 1161   5.509   5.443   0.803 -0.1534  1.8505 -1.0623
  347SOL    MW4 1162   5.437   5.406   0.771 -0.1992  0.6002  0.3438
  348SOL     OW 1163   6.354   2.155   6.018 -0.3949 -0.3400  0.2394
  348SOL    HW2 1164   6.376   2.141   6.110  0.5569 -0.1157  0.0648
  348SOL    HW3 1165   6.409   2.092   5.971  0.1340  0.4693 -0.2473
  348SOL    MW4 1166   6.364   2.145   6.024 -0.1995 -0.2036  0.1522
  349SOL     OW 1167   5.428   0.591   6.359 -0.7159 -0.0218  0.5000
  349SOL    HW2 1168   5.464   0.503   6.368 -0.5712  0.0220  0.3609
  349SOL    HW3 1169   5.339   0.585   6.394 -1.3641 -0.6703 -1.1547
  349SOL    MW4 1170   5.421   0.579   6.365 -0.7823 -0.1016  0.2633
  350SOL     OW 1171   5.955   0.234   3.394 -0.1551 -0.3736 -0.1165
  350SOL    HW2 1172   5.879   0.289   3.379 -0.0743  0.0096  0.7736
  350SOL    HW3 1173   5.922   0.159   3.444 -0.2679 -1.1582 -1.3370
  350SOL    MW4 1174   5.941   0.231   3.399 -0.1594 -0.4265 -0.1601
  351SOL     OW 1175   0.079   6.357   0.183  0.4289  0.5339 -0.6843
  351SOL    HW2 1176   0.050   6.269   0.208  0.3498  0.3943 -1.2423
  351SOL    HW3 1177   0.106   6.347   0.091  1.5274  0.8309 -0.4080
  351SOL    MW4 1178   0.079   6.344   0.174  0.5634  0.5547 -0.7215
  352SOL     OW 1179   2.367   4.281   0.310 -0.2535  0.0351 -0.7724
  352SOL    HW2 1180   2.380   4.367   0.270 -0.0620  1.0075  1.2442
  352SOL    HW3 1181   2.380   4.218   0.239 -1.0100  1.6800 -2.4315
  352SOL    MW4 1182   2.370   4.284   0.296 -0.3281  0.3804 -0.7252
  353SOL     OW 1183   3.058   0.791   4.763  0.2993 -0.6309  0.5142
  353SOL    HW2 1184   3.072   0.774   4.670  0.6050 -0.4350  0.5212
  353SOL    HW3 1185   3.058   0.705   4.803  2.6772 -0.6337  0.6674
  353SOL    MW4 1186   3.060   0.778   4.756  0.6534 -0.6054  0.5353
  354SOL     OW 1187   4.431   4.901   5.614 -0.5579 -0.3733 -0.1672
  354SOL    HW2 1188   4.455   4.857   5.695  0.4457 -0.2999 -0.4162
  354SOL    HW3 1189   4.471   4.848   5.545 -0.3568  0.2522 -0.5361
  354SOL    MW4 1190   4.439   4.888   5.615 -0.3990 -0.2811 -0.2487
  355SOL     OW 1191   6.117   0.559   5.009 -0.1038  0.0619  0.4282
  355SOL    HW2 1192   6.110   0.604   4.925 -3.8098 -1.4306 -0.2558
  355SOL    HW3 1193   6.074   0.617   5.071  1.1074  0.3889  0.9915
  355SOL    MW4 1194   6.110   0.573   5.006 -0.4330 -0.0918  0.4123
  356SOL     OW 1195   5.587   1.040   2.206  0.4083 -0.5456  0.2707
  356SOL    HW2 1196   5.499   1.057   2.174  0.8438 -0.8593 -1.1863
  356SOL    HW3 1197   5.582   0.954   2.247  0.2066 -0.9411 -0.5665
  356SOL    MW4 1198   5.575   1.031   2.207  0.4391 -0.6392 -0.0320
  357SOL     OW 1199   4.373   2.566   5.543  0.1679 -0.7086 -0.3038
  357SOL    HW2 1200   4.314   2.531   5.610 -0.1614 -2.5840 -1.4833
  357SOL    HW3 1201   4.354   2.659   5.540 -1.0367 -0.8811  0.9980
  357SOL    MW4 1202   4.363   2.573   5.551 -0.0345 -0.9788 -0.2877
  358SOL     OW 1203   3.181   3.206   1.189  0.2104 -0.4226 -0.3182
  358SOL    HW2 1204   3.096   3.196   1.233  0.5048 -1.2389  0.0780
  358SOL    HW3 1205   3.228   3.126   1.209  0.8188 -0.2765 -1.1207
  358SOL    MW4 1206   3.176   3.195   1.198  0.3295 -0.5111 -0.3718
  359SOL     OW 1207   2.500   1.180   2.374 -0.4802  0.5185 -0.5475
  359SOL    HW2 1208   2.565   1.117   2.344 -0.2970  0.4904 -0.0925
  359SOL    HW3 1209   2.488   1.239   2.299 -0.6052 -0.0141 -0.9531
  359SOL    MW4 1210   2.507   1.179   2.360 -0.4725  0.4445 -0.5410
  360SOL     OW 1211   4.850   3.511   3.924 -0.5310 -0.5855 -0.2757
  360SOL    HW2 1212   4.803   3.574   3.870  0.1744 -0.2850 -0.5578
  360SOL    HW3 1213   4.904   3.461   3.863 -0.7720 -1.1933 -0.0058
  360SOL    MW4 1214   4.851   3.513   3.909 -0.4697 -0.6260 -0.2773
  361SOL     OW 1215   6.187   0.109   0.950 -0.1407  0.2198 -0.0002
  361SOL    HW2 1216   6.154   0.197   0.933 -1.4090  0.1149  1.6466
  361SOL    HW3 1217   6.153   0.087   1.037  2.1282 -0.9731  0.6745
  361SOL    MW4 1218   6.178   0.118   0.959 -0.0087  0.0486  0.3061
  362SOL     OW 1219   2.977   5.839   6.216  0.9332 -0.5823 -0.0793
  362SOL    HW2 1220   2.935   5.754   6.224 -0.4076 -0.0773 -1.2396
  362SOL    HW3 1221   2.962   5.882   6.300 -0.5221 -0.5907 -0.3135
  362SOL    MW4 1222   2.969   5.834   6.228  0.5643 -0.5168 -0.2633
  363SOL     OW 1223   4.516   6.049   0.396 -0.2410 -0.2533  0.4335
  363SOL    HW2 1224   4.495   6.001   0.316 -1.5702 -0.0708  0.6472
  363SOL    HW3 1225   4.452   6.018   0.460 -0.3673  0.9321  0.9080
  363SOL    MW4 1226   4.505   6.038   0.394 -0.4330 -0.0728  0.5243
  364SOL     OW 1227   4.482   0.088   4.307  0.5451  0.5377 -0.4548
  364SOL    HW2 1228   4.423   0.020   4.340  1.4436  0.1960  0.5105
  364SOL    HW3 1229   4.424   0.156   4.274 -0.3786 -0.4789 -0.9787
  364SOL    MW4 1230   4.466   0.088   4.307  0.5418  0.3585 -0.3966
  365SOL     OW 1231   1.679   3.465   3.499  0.1974  0.2367  0.0400
  365SOL    HW2 1232   1.742   3.417   3.445  0.3885  1.8850 -1.3033
  365SOL    HW3 1233   1.717   3.465   3.587  1.2826 -0.1356 -0.4154
  365SOL    MW4 1234   1.692   3.459   3.504  0.3658  0.4050 -0.1973
  366SOL     OW 1235   6.039   2.067   2.308  0.4011 -0.0517 -0.3820
  366SOL    HW2 1236   5.995   2.146   2.278  2.1855  1.0417 -0.2572
  366SOL    HW3 1237   6.085   2.034   2.231 -1.5191 -1.8750 -0.8289
  366SOL    MW4 1238   6.039   2.073   2.294  0.3832 -0.1480 -0.4245
  367SOL     OW 1239   4.895   3.666   1.904  0.4536 -0.1800 -0.5402
  367SOL    HW2 1240   4.974   3.642   1.855 -0.3589  2.7992 -3.7519
  367SOL    HW3 1241   4.913   3.754   1.937 -0.0830 -1.0770  2.4148
  367SOL    MW4 1242   4.908   3.674   1.902  0.2756  0.0947 -0.5740
  368SOL     OW 1243   4.142   4.659   3.133 -0.2787  0.0068 -0.1306
  368SOL    HW2 1244   4.218   4.620   3.089 -0.6881 -0.5897 -0.3135
  368SOL    HW3 1245   4.168   4.750   3.148 -0.2699  0.3559 -1.9808
  368SOL    MW4 1246   4.156   4.666   3.129 -0.3315 -0.0258 -0.3988
  369SOL     OW 1247   1.717   2.687   1.126 -0.0202 -0.0330  0.0661
  369SOL    HW2 1248   1.773   2.762   1.149  0.3811 -0.2365 -0.2393
  369SOL    HW3 1249   1.634   2.727   1.101 -0.1294  0.2560  0.8370
  369SOL    MW4 1250   1.714   2.702   1.126  0.0184 -0.0217  0.1275
  370SOL     OW 1251   1.241   0.430   1.339 -0.1096  0.0975  0.2515
  370SOL    HW2 1252   1.176   0.433   1.409  0.8821 -1.0855  1.2845
  370SOL    HW3 1253   1.316   0.384   1.378  1.0123  0.6459 -1.1581
  370SOL    MW4 1254   1.242   0.424   1.354  0.1693  0.0138  0.2018
  371SOL     OW 1255   4.989   0.340   3.123  0.1580 -0.6890 -0.2157
  371SOL    HW2 1256   4.983   0.350   3.218  0.5736 -0.0819 -0.2436
  371SOL    HW3 1257   4.917   0.281   3.100 -0.4676 -0.1755  0.3802
  371SOL    MW4 1258   4.979   0.334   3.132  0.1303 -0.5411 -0.1407
  372SOL     OW 1259   3.815   5.070   4.673 -0.1271  0.2309  1.1244
  372SOL    HW2 1260   3.829   5.069   4.767  1.0335 -1.0102  0.9649
  372SOL    HW3 1261   3.757   5.145   4.658 -0.2634  0.4906  2.8002
  372SOL    MW4 1262   3.809   5.080   4.683  0.0081  0.1014  1.3244
  373SOL     OW 1263   4.531   3.711   2.115 -0.2950  0.3714 -0.4412
  373SOL    HW2 1264   4.529   3.788   2.172  1.0796  1.1862 -1.4465
  373SOL    HW3 1265   4.535   3.637   2.175 -0.3524  1.1415  0.5330
  373SOL    MW4 1266   4.531   3.711   2.130 -0.1212  0.5805 -0.4453
  374SOL     OW 1267   3.453   5.921   4.086 -0.0433  0.2177  0.2129
  374SOL    HW2 1268   3.359   5.935   4.077  0.1746  1.3939 -0.4857
  374SOL    HW3 1269   3.488   6.006   4.112  0.9171  0.0188 -0.3586
  374SOL    MW4 1270   3.445   5.934   4.088  0.1122  0.3466  0.0453
  375SOL     OW 1271   3.111   4.755   1.485 -0.1130 -0.2069  0.4704
  375SOL    HW2 1272   3.088   4.681   1.429  0.3207 -1.3004  1.6833
  375SOL    HW3 1273   3.041   4.757   1.551 -0.3608  0.7530  0.1909
  375SOL    MW4 1274   3.098   4.746   1.487 -0.0885 -0.2245  0.5936
  376SOL     OW 1275   2.077   1.190   0.937 -0.4135  0.6261  0.3740
  376SOL    HW2 1276   1.982   1.192   0.953 -0.5151  0.6379 -0.2313
  376SOL    HW3 1277   2.114   1.168   1.022 -1.1043 -1.7608  0.1269
  376SOL    MW4 1278   2.069   1.187   0.951 -0.5180  0.3127  0.2615
  377SOL     OW 1279   2.002   3.598   1.458 -0.5502  0.1177  0.5834
  377SOL    HW2 1280   2.040   3.575   1.374 -0.5602  2.2174 -0.0532
  377SOL    HW3 1281   2.014   3.520   1.512  0.2641 -0.9592 -1.0696
  377SOL    MW4 1282   2.008   3.585   1.454 -0.4441  0.2527  0.2813
  378SOL     OW 1283   3.115   1.112   3.358 -0.4443 -0.1392 -0.1757
  378SOL    HW2 1284   3.073   1.032   3.390  0.2202 -0.6919 -0.6573
  378SOL    HW3 1285   3.167   1.083   3.283  1.2832  0.4028  0.7694
  378SOL    MW4 1286   3.116   1.098   3.352 -0.1287 -0.1406 -0.1146
  379SOL     OW 1287   0.082   1.555   4.336 -0.2304  0.0286  0.6159
  379SOL    HW2 1288   0.008   1.502   4.368 -0.0076 -0.5219  0.2248
  379SOL    HW3 1289   0.040   1.630   4.294 -0.5416  0.8151  2.2114
  379SOL    MW4 1290   0.066   1.558   4.335 -0.2421  0.0597  0.7748
  380SOL     OW 1291   2.291   2.567   4.027  0.0622  0.0444 -0.5438
  380SOL    HW2 1292   2.368   2.545   3.975 -0.6557 -2.1238 -0.7630
  380SOL    HW3 1293   2.320   2.554   4.118  0.8535  2.3612 -0.3873
  380SOL    MW4 1294   2.305   2.562   4.032  0.0719  0.0640 -0.5521
  381SOL     OW 1295   0.630   4.284   1.469 -0.2065  0.2216 -0.1216
  381SOL    HW2 1296   0.684   4.318   1.540 -1.3835  1.9877 -0.0175
  381SOL    HW3 1297   0.574   4.357   1.444 -3.0677 -1.6828  0.2474
  381SOL    MW4 1298   0.630   4.298   1.475 -0.7393  0.2033 -0.0592
  382SOL     OW 1299   5.268   1.040   5.131  0.0578 -0.2010  0.2328
  382SOL    HW2 1300   5.219   0.962   5.106 -2.8194  1.6208 -0.2095
  382SOL    HW3 1301   5.273   1.092   5.051  1.6390  0.2858  0.6015
  382SOL    MW4 1302   5.262   1.037   5.118 -0.1132  0.1036  0.2231
  383SOL     OW 1303   3.199   3.504   5.646  0.0720 -0.0857 -0.0845
  383SOL    HW2 1304   3.148   3.525   5.567  0.9495  0.1762 -0.5995
  383SOL    HW3 1305   3.275   3.562   5.641 -0.3607  0.6792  1.5007
  383SOL    MW4 1306   3.202   3.514   5.635  0.1307  0.0498  0.0567
  384SOL     OW 1307   2.616   2.131   0.199 -0.4844 -0.0124  0.8759
  384SOL    HW2 1308   2.585   2.204   0.146 -1.0687 -0.3930  0.6809
  384SOL    HW3 1309   2.572   2.141   0.283  2.0228  1.7910  2.1054
  384SOL    MW4 1310   2.606   2.142   0.203 -0.2307  0.1753  1.0124
  385SOL     OW 1311   6.260   4.178   0.924  0.6312  0.5224  0.1015
  385SOL    HW2 1312   6.174   4.218   0.911  0.3769 -0.3074 -0.9033
  385SOL    HW3 1313   6.320   4.232   0.871  0.5901  0.6219  0.1569
  385SOL    MW4 1314   6.257   4.191   0.915  0.5922  0.4261 -0.0238
  386SOL     OW 1315   1.297   6.004   1.181  0.8069 -0.1978 -0.2996
  386SOL    HW2 1316   1.221   5.971   1.230  0.0553  0.8439 -0.7268
  386SOL    HW3 1317   1.284   6.098   1.179  1.8895 -0.0544 -0.7828
  386SOL    MW4 1318   1.285   6.012   1.187  0.8506 -0.0415 -0.4197
  387SOL     OW 1319   4.606   5.563   2.285 -0.0217 -0.8372 -0.1096
  387SOL    HW2 1320   4.566   5.482   2.252 -0.3802 -0.5104 -0.4991
  387SOL    HW3 1321   4.639   5.606   2.206  0.2180 -0.6358  0.1042
  387SOL    MW4 1322   4.605   5.558   2.270 -0.0374 -0.7675 -0.1328
  388SOL     OW 1323   5.181   5.741   3.069 -0.1583 -0.8031 -0.2864
  388SOL    HW2 1324   5.198   5.735   3.163 -0.0521 -1.2206 -0.3299
  388SOL    HW3 1325   5.264   5.717   3.028  0.1211  0.4155 -0.4900
  388SOL    MW4 1326   5.194   5.737   3.076 -0.1074 -0.6974 -0.3190
  389SOL     OW 1327   3.457   5.125   4.271 -0.2696 -0.1661  0.0180
  389SOL    HW2 1328   3.463   5.210   4.314 -2.0508 -0.3291  0.6866
  389SOL    HW3 1329   3.495   5.139   4.184  1.6818  0.6580  0.9541
  389SOL    MW4 1330   3.463   5.138   4.265 -0.2471 -0.0789  0.2297
  390SOL     OW 1331   1.304   3.737   5.327 -0.2679  0.3428  0.3001
  390SOL    HW2 1332   1.280   3.698   5.412 -0.2765 -1.5869 -0.5289
  390SOL    HW3 1333   1.248   3.692   5.264  1.2861  0.1251 -0.9891
  390SOL    MW4 1334   1.293   3.726   5.330 -0.0640  0.0595  0.0206
  391SOL     OW 1335   3.482   1.580   1.639  0.4601 -0.6667 -0.1114
  391SOL    HW2 1336   3.548   1.648   1.653  1.3760 -0.8567 -2.7993
  391SOL    HW3 1337   3.408   1.626   1.600  0.2150 -0.8983  0.0778
  391SOL    MW4 1338   3.481   1.595   1.636  0.5486 -0.7223 -0.4410
  392SOL     OW 1339   6.198   2.054   5.673  0.0259  0.0102  0.2455
  392SOL    HW2 1340   6.175   2.147   5.666  0.5165  0.1534  0.4949
  392SOL    HW3 1341   6.263   2.040   5.603  1.2362  0.2707  1.2848
  392SOL    MW4 1342   6.204   2.065   5.662  0.2503  0.0635  0.4156
  393SOL     OW 1343   1.925   1.487   5.861  0.4163  0.5720  0.1340
  393SOL    HW2 1344   1.996   1.461   5.919  0.6715  1.2142  0.1219
  393SOL    HW3 1345   1.891   1.405   5.825  1.1205  0.2627  0.1723
  393SOL    MW4 1346   1.930   1.473   5.864  0.5429  0.6159  0.1375
  394SOL     OW 1347   6.195   0.282   5.019 -0.1469 -0.5023 -0.0109
  394SOL    HW2 1348   6.288   0.286   4.997 -0.6891  1.5459 -2.3398
  394SOL    HW3 1349   6.166   0.373   5.020 -1.9651 -1.0304  1.6469
  394SOL    MW4 1350   6.203   0.294   5.016 -0.4583 -0.3017 -0.0995
  395SOL     OW 1351   5.772   0.089   1.159  0.0884  0.2059  0.1889
  395SOL    HW2 1352   5.817   0.169   1.187 -1.0459  0.6206  0.9287
  395SOL    HW3 1353   5.723   0.061   1.237 -0.5871 -0.4486 -0.4530
  395SOL    MW4 1354   5.771   0.096   1.173 -0.1504  0.1743  0.2018
  396SOL     OW 1355   5.715   0.873   5.207 -0.0258  0.1218 -0.1698
  396SOL    HW2 1356   5.778   0.944   5.211  0.0629  0.2242 -2.3804
  396SOL    HW3 1357   5.672   0.883   5.122 -1.0075 -1.6373  0.0616
  396SOL    MW4 1358   5.717   0.883   5.196 -0.1436 -0.0968 -0.4310
  397SOL     OW 1359   1.571   3.709   1.172 -0.5969 -0.1748  0.0736
  397SOL    HW2 1360   1.642   3.679   1.228  1.4005  1.9468 -1.1469
  397SOL    HW3 1361   1.552   3.634   1.116  0.5235 -0.8687  0.5933
  397SOL    MW4 1362   1.578   3.695   1.172 -0.1856  0.0135 -0.0189
  398SOL     OW 1363   4.344   0.820   1.473  0.4818  0.4299  0.1791
  398SOL    HW2 1364   4.389   0.879   1.533 -1.3262  1.1981  0.8748
  398SOL    HW3 1365   4.403   0.746   1.463  3.3090  2.7031 -1.5136
  398SOL    MW4 1366   4.357   0.818   1.479  0.6163  0.8311  0.0475
  399SOL     OW 1367   5.804   1.395   6.103  0.4883  0.4247 -0.6413
  399SOL    HW2 1368   5.854   1.389   6.022  0.0792 -0.8693 -0.8269
  399SOL    HW3 1369   5.716   1.365   6.079  0.5050 -0.5460  0.3788
  399SOL    MW4 1370   5.799   1.390   6.089  0.4365  0.1259 -0.5312
  400SOL     OW 1371   0.489   3.136   3.731  0.4204 -0.0693  0.0731
  400SOL    HW2 1372   0.543   3.067   3.694  0.6350 -0.2833  0.7823
  400SOL    HW3 1373   0.402   3.123   3.691  0.6109 -0.3782 -0.2412
  400SOL    MW4 1374   0.484   3.126   3.721  0.4738 -0.1383  0.1252
  401SOL     OW 1375   3.424   2.564   3.075  0.0421 -0.0929  0.1928
  401SOL    HW2 1376   3.496   2.504   3.091  1.7341  1.5401 -0.8735
  401SOL    HW3 1377   3.459   2.650   3.097 -1.3107  0.8414 -1.0899
  401SOL    MW4 1378   3.438   2.568   3.080  0.0869  0.2458 -0.1172
  402SOL     OW 1379   2.416   2.219   0.871  0.2049 -0.2099 -0.0486
  402SOL    HW2 1380   2.463   2.193   0.791 -2.0130  0.5525 -1.7081
  402SOL    HW3 1381   2.374   2.138   0.900 -1.6536  0.1067 -1.6375
  402SOL    MW4 1382   2.416   2.205   0.864 -0.3329 -0.0675 -0.4772
  403SOL     OW 1383   3.871   5.939   3.356 -0.3893 -0.0679  0.0392
  403SOL    HW2 1384   3.784   5.980   3.356 -0.0732  0.6265  0.2005
  403SOL    HW3 1385   3.899   5.943   3.447 -0.6492 -1.3186  0.1849
  403SOL    MW4 1386   3.863   5.945   3.368 -0.3819 -0.1413  0.0797
  404SOL     OW 1387   1.552   1.043   5.853  0.0352 -0.4322  0.0636
  404SOL    HW2 1388   1.569   1.053   5.947 -1.6008  0.6364  0.2932
  404SOL    HW3 1389   1.604   0.967   5.827  2.0093  0.4017  1.4072
  404SOL    MW4 1390   1.561   1.034   5.862  0.0798 -0.1812  0.2712
  405SOL     OW 1391   0.742   5.670   0.034  0.1748 -0.3078 -0.4534
  405SOL    HW2 1392   0.780   5.671   0.121  1.4108 -0.2176 -0.9821
  405SOL    HW3 1393   0.813   5.696  -0.025 -0.4859 -0.8851 -1.5505
  405SOL    MW4 1394   0.756   5.674   0.038  0.2507 -0.3720 -0.6679
  406SOL     OW 1395   4.063   4.284   3.034  0.2424 -0.4811 -0.3186
  406SOL    HW2 1396   4.027   4.272   2.946 -0.4144 -0.2522 -0.0852
  406SOL    HW3 1397   4.010   4.354   3.072  0.5343 -0.5680  0.2524
  406SOL    MW4 1398   4.051   4.291   3.027  0.1943 -0.4624 -0.2125
  407SOL     OW 1399   0.887   0.848   3.378  0.0286  0.0014 -0.0179
  407SOL    HW2 1400   0.870   0.777   3.441 -2.5454  1.0380  0.5843
  407SOL    HW3 1401   0.905   0.925   3.432 -2.6482  1.0074 -0.4252
  407SOL    MW4 1402   0.887   0.848   3.393 -0.6641  0.2709  0.0078
  408SOL     OW 1403   2.670   5.229   6.322 -0.1269 -0.3126 -0.3872
  408SOL    HW2 1404   2.723   5.151   6.305  2.3210  1.1700 -0.0215
  408SOL    HW3 1405   2.648   5.262   6.235 -2.0663 -1.9019 -0.5593
  408SOL    MW4 1406   2.674   5.223   6.308 -0.0598 -0.3267 -0.3617
  409SOL     OW 1407   5.338   3.882   3.222 -0.1362 -0.0600 -0.7627
  409SOL    HW2 1408   5.395   3.853   3.294  0.1612  0.5714 -0.7331
  409SOL    HW3 1409   5.250   3.876   3.257  0.0773  1.4664  0.1233
  409SOL    MW4 1410   5.334   3.877   3.236 -0.0688  0.2247 -0.6419
  410SOL     OW 1411   3.690   3.945   4.674 -0.7307  0.0741 -0.4946
  410SOL    HW2 1412   3.714   3.854   4.687 -0.9265  0.2284  1.1727
  410SOL    HW3 1413   3.618   3.942   4.612  1.2910 -0.6330 -2.9572
  410SOL    MW4 1414   3.683   3.933   4.668 -0.4898  0.0012 -0.5995
  411SOL     OW 1415   0.092   2.535   0.231 -0.4064 -0.2182 -0.1573
  411SOL    HW2 1416   0.101   2.559   0.139  0.7541  1.1188  0.2777
  411SOL    HW3 1417   0.042   2.453   0.230 -0.9480  0.1065 -1.9289
  411SOL    MW4 1418   0.086   2.527   0.219 -0.3248  0.0011 -0.3337
  412SOL     OW 1419   0.788   2.680   4.766 -0.1938 -0.5035 -0.0370
  412SOL    HW2 1420   0.865   2.737   4.758 -0.4171 -0.0119  1.1623
  412SOL    HW3 1421   0.715   2.734   4.736 -0.1935 -0.7063 -0.4147
  412SOL    MW4 1422   0.789   2.694   4.761 -0.2232 -0.4654  0.0714
  413SOL     OW 1423   3.690   6.114   2.472 -0.1415  0.3359  0.0378
  413SOL    HW2 1424   3.680   6.036   2.527 -0.1316 -1.4854 -2.3462
  413SOL    HW3 1425   3.607   6.160   2.479 -0.8360 -0.8961  0.1350
  413SOL    MW4 1426   3.678   6.109   2.480 -0.2318 -0.0669 -0.2639
  414SOL     OW 1427   0.611   4.790   5.699 -0.1976  0.0708  0.3210
  414SOL    HW2 1428   0.534   4.817   5.750 -0.1002 -0.9384  1.0309
  414SOL    HW3 1429   0.645   4.872   5.663 -0.8393  0.6962  1.0847
  414SOL    MW4 1430   0.605   4.805   5.701 -0.2694  0.0202  0.5154
  415SOL     OW 1431   1.062   1.699   0.299 -0.3242  0.4868  0.3261
  415SOL    HW2 1432   1.056   1.791   0.273  2.6446  0.9620  0.8786
  415SOL    HW3 1433   1.156   1.678   0.291 -1.0000 -2.7963 -0.6898
  415SOL    MW4 1434   1.074   1.708   0.294 -0.0216  0.1163  0.2650
  416SOL     OW 1435   1.139   3.099   2.601  0.1913 -0.0867 -0.4414
  416SOL    HW2 1436   1.079   3.169   2.624 -0.0466  1.6552 -5.2465
  416SOL    HW3 1437   1.222   3.124   2.641 -0.4762  1.6326 -0.0478
  416SOL    MW4 1438   1.142   3.111   2.610  0.0719  0.3700 -1.0235
  417SOL     OW 1439   4.405   6.000   2.350 -0.2037  0.3410 -0.0873
  417SOL    HW2 1440   4.427   5.985   2.259 -0.0341 -0.4871  0.0835
  417SOL    HW3 1441   4.312   6.023   2.349 -0.1554  0.5152 -0.4812
  417SOL    MW4 1442   4.395   6.001   2.338 -0.1749  0.2547 -0.1167
  418SOL     OW 1443   4.656   2.148   3.409  0.0414 -0.4200 -0.2544
  418SOL    HW2 1444   4.678   2.229   3.454 -0.2708  0.2291 -1.2484
  418SOL    HW3 1445   4.572   2.122   3.447  1.5880 -2.0759  2.4233
  418SOL    MW4 1446   4.648   2.155   3.420  0.2043 -0.5528 -0.0323
  419SOL     OW 1447   5.915   0.774   1.070  0.3334 -0.0178  0.5623
  419SOL    HW2 1448   5.974   0.709   1.031  1.0314  0.7575  0.3070
  419SOL    HW3 1449   5.866   0.809   0.996  0.3291  0.1159  0.6280
  419SOL    MW4 1450   5.916   0.770   1.055  0.4249  0.1021  0.5373
  420SOL     OW 1451   0.669   3.125   4.628 -0.2339  0.2057  0.4471
  420SOL    HW2 1452   0.724   3.099   4.701  1.7162  0.2577 -0.9391
  420SOL    HW3 1453   0.704   3.078   4.553 -1.2781  1.2255 -0.7343
  420SOL    MW4 1454   0.681   3.115   4.627 -0.1143  0.3471  0.1083
  421SOL     OW 1455   0.415   1.120   3.476 -0.8914  0.1726 -0.0022
  421SOL    HW2 1456   0.356   1.139   3.548 -2.4379  0.5290 -1.3144
  421SOL    HW3 1457   0.387   1.178   3.405  0.3496 -0.4071 -1.0131
  421SOL    MW4 1458   0.404   1.130   3.476 -0.9317  0.1431 -0.3087
  422SOL     OW 1459   4.389   1.356   6.156  0.2203 -0.3499  0.1719
  422SOL    HW2 1460   4.460   1.307   6.196  1.3841  0.9198 -0.2413
  422SOL    HW3 1461   4.310   1.307   6.177  0.9792 -0.7056  2.4332
  422SOL    MW4 1462   4.388   1.343   6.164  0.4740 -0.2293  0.4157
  423SOL     OW 1463   2.970   3.600   2.484 -0.0667  0.2673  0.4136
  423SOL    HW2 1464   2.906   3.537   2.451 -1.1411  0.8115  1.3807
  423SOL    HW3 1465   3.039   3.602   2.417 -1.2023 -0.1082 -0.8137
  423SOL    MW4 1466   2.971   3.592   2.471 -0.3583  0.2896  0.3793
  424SOL     OW 1467   2.533   1.395   2.540  0.0886 -0.4516  0.3941
  424SOL    HW2 1468   2.620   1.398   2.579 -0.5499 -2.2816  2.1532
  424SOL    HW3 1469   2.525   1.305   2.507 -0.8702 -0.0984 -0.3659
  424SOL    MW4 1470   2.543   1.383   2.541 -0.1221 -0.6464  0.5259
  425SOL     OW 1471   5.362   3.911   5.631  0.0557 -0.7351 -0.0772
  425SOL    HW2 1472   5.322   3.991   5.665 -1.8956 -1.8732  0.5336
  425SOL    HW3 1473   5.324   3.900   5.544  1.4728 -0.2420 -0.7755
  425SOL    MW4 1474   5.351   3.920   5.624 -0.0148 -0.8202 -0.0888
  426SOL     OW 1475   0.165   3.900   0.534 -0.3033 -0.6517 -0.0305
  426SOL    HW2 1476   0.080   3.926   0.499 -0.6749 -0.8906  0.6740
  426SOL    HW3 1477   0.229   3.941   0.475 -0.8314  2.2262  1.2449
  426SOL    MW4 1478   0.162   3.909   0.521 -0.4220 -0.3035  0.2307
  427SOL     OW 1479   0.288   2.770   3.861 -0.5363  0.0955  0.4141
  427SOL    HW2 1480   0.294   2.857   3.900 -1.5149 -0.3170  1.5623
  427SOL    HW3 1481   0.355   2.769   3.792  0.1506  1.4016  1.0343
  427SOL    MW4 1482   0.297   2.781   3.857 -0.5748  0.2134  0.6474
  428SOL     OW 1483   3.777   3.152   2.921 -0.2487  0.2261 -0.4404
  428SOL    HW2 1484   3.830   3.097   2.979  0.6422  0.4968 -0.9762
  428SOL    HW3 1485   3.792   3.116   2.834  0.1356  1.1449 -0.7640
  428SOL    MW4 1486   3.786   3.140   2.917 -0.0805  0.3830 -0.5538
  429SOL     OW 1487   1.210   1.417   2.317  0.1502 -0.2988  0.0379
  429SOL    HW2 1488   1.222   1.427   2.222  0.1207 -0.4817  0.0144
  429SOL    HW3 1489   1.124   1.455   2.335 -0.8808 -2.3069 -0.3640
  429SOL    MW4 1490   1.200   1.423   2.307  0.0103 -0.5879 -0.0182
  430SOL     OW 1491   6.023   1.759   2.016 -0.5212 -0.6670  0.0228
  430SOL    HW2 1492   6.055   1.846   2.040 -0.6878 -0.9731  1.4824
  430SOL    HW3 1493   5.942   1.775   1.968  0.6821  0.0382 -1.8632
  430SOL    MW4 1494   6.016   1.773   2.013 -0.3844 -0.6143 -0.0334
  431SOL     OW 1495   1.852   6.341   4.100  0.1091 -0.5108  0.1919
  431SOL    HW2 1496   1.901   6.259   4.103 -0.4516 -0.8800 -0.3947
  431SOL    HW3 1497   1.832   6.360   4.192 -0.4695 -1.4872  0.2925
  431SOL    MW4 1498   1.856   6.333   4.112 -0.0412 -0.6884  0.1278
  432SOL     OW 1499   2.017   2.601   6.113  0.1293  0.1009 -0.0920
  432SOL    HW2 1500   2.053   2.650   6.040  0.2146  0.1857  0.0058
  432SOL    HW3 1501   1.923   2.616   6.108  0.1461  0.1987 -0.1174
  432SOL    MW4 1502   2.009   2.609   6.103  0.1428  0.1250 -0.0824
  433SOL     OW 1503   0.025   5.165   3.897 -0.0452 -0.0682  0.2583
  433SOL    HW2 1504  -0.011   5.215   3.824 -0.3668 -1.4387 -0.5707
  433SOL    HW3 1505   0.114   5.197   3.906 -0.4247  1.0584  0.1550
  433SOL    MW4 1506   0.032   5.175   3.888 -0.1377 -0.1004  0.1353
  434SOL     OW 1507   5.409   3.317   1.079  0.0185 -0.1945 -0.7003
  434SOL    HW2 1508   5.483   3.362   1.118  0.5768 -1.2878 -0.4484
  434SOL    HW3 1509   5.378   3.376   1.010 -0.3267  1.2995  0.6659
  434SOL    MW4 1510   5.414   3.331   1.075  0.0466 -0.1416 -0.4868
  435SOL     OW 1511   0.969   1.759   3.977  0.1227 -0.1328  0.0082
  435SOL    HW2 1512   0.926   1.843   3.961 -1.3551 -0.7092  0.8043
  435SOL    HW3 1513   0.985   1.724   3.889 -0.0194  0.5851 -0.3149
  435SOL    MW4 1514   0.966   1.765   3.963 -0.0910 -0.1141  0.0706
  436SOL     OW 1515   1.243   4.504   2.981  0.5767 -0.2358 -0.1599
  436SOL    HW2 1516   1.317   4.544   2.935  0.3608 -0.8043 -1.0177
  436SOL    HW3 1517   1.267   4.412   2.989  0.3506 -0.2526  0.3618
  436SOL    MW4 1518   1.256   4.497   2.976  0.5183 -0.3130 -0.2042
  437SOL     OW 1519   1.375   3.068   0.195 -0.3110 -0.6295 -0.2304
  437SOL    HW2 1520   1.464   3.034   0.182 -0.1999 -0.1765 -0.6621
  437SOL    HW3 1521   1.321   3.018   0.134 -0.3980 -1.0867  0.2174
  437SOL    MW4 1522   1.380   3.057   0.185 -0.3078 -0.6300 -0.2282
  438SOL     OW 1523   5.056   4.724   1.038 -0.2885 -0.0693  0.3225
  438SOL    HW2 1524   5.019   4.809   1.014 -1.4939 -0.3369  1.1269
  438SOL    HW3 1525   5.060   4.675   0.956 -0.5222  0.4218  0.0155
  438SOL    MW4 1526   5.051   4.729   1.024 -0.4783 -0.0398  0.3881
  439SOL     OW 1527   0.474   3.727   3.434  0.2119  0.0836 -0.2138
  439SOL    HW2 1528   0.451   3.656   3.374  0.4325  0.7900 -1.1636
  439SOL    HW3 1529   0.556   3.762   3.399 -0.8314  2.0230 -0.9061
  439SOL    MW4 1530   0.482   3.723   3.421  0.1034  0.4327 -0.4304
  440SOL     OW 1531   5.240   2.558   3.248 -0.4287  0.0815 -0.2424
  440SOL    HW2 1532   5.305   2.605   3.196 -0.0357 -1.2044 -0.9484
  440SOL    HW3 1533   5.159   2.566   3.198 -0.6052  0.8299  0.1408
  440SOL    MW4 1534   5.238   2.565   3.235 -0.4001  0.0106 -0.2850
  441SOL     OW 1535   1.402   1.693   4.777 -0.2062  0.3398  0.0538
  441SOL    HW2 1536   1.474   1.634   4.799  0.1161  0.4100 -0.8036
  441SOL    HW3 1537   1.400   1.756   4.849 -0.0213 -0.2155  0.5540
  441SOL    MW4 1538   1.411   1.693   4.790 -0.1393  0.2758  0.0067
  442SOL     OW 1539   1.186   1.609   1.824 -0.1669  0.3417 -0.2991
  442SOL    HW2 1540   1.280   1.610   1.805  0.3571  1.0803  2.0619
  442SOL    HW3 1541   1.155   1.530   1.781  1.2937  0.6666 -2.0925
  442SOL    MW4 1542   1.195   1.599   1.816  0.0950  0.4820 -0.2242
  443SOL     OW 1543   5.828   1.898   3.309  0.1903  0.7305 -0.3784
  443SOL    HW2 1544   5.815   1.943   3.226 -0.4829  1.5688  0.1729
  443SOL    HW3 1545   5.745   1.907   3.355  0.1041 -0.8809 -0.1523
  443SOL    MW4 1546   5.816   1.905   3.304  0.0901  0.6285 -0.2759
  444SOL     OW 1547   0.538   1.176   4.951 -0.1036  0.0906 -0.0129
  444SOL    HW2 1548   0.524   1.170   5.046  1.2905  0.1913  0.2196
  444SOL    HW3 1549   0.620   1.226   4.942 -0.7067  0.8885 -1.3022
  444SOL    MW4 1550   0.547   1.182   4.963  0.0008  0.2092 -0.1523
  445SOL     OW 1551   3.671   1.616   6.273  0.1413  0.0107  0.3678
  445SOL    HW2 1552   3.678   1.530   6.232 -0.0621  0.9220 -1.6609
  445SOL    HW3 1553   3.581   1.644   6.257 -0.2405  0.0252  2.2878
  445SOL    MW4 1554   3.660   1.609   6.266  0.0641  0.1328  0.3534
  446SOL     OW 1555   3.859   3.351   1.229 -0.3146 -0.1564  0.0634
  446SOL    HW2 1556   3.872   3.292   1.304  0.0528 -0.7367 -0.4408
  446SOL    HW3 1557   3.835   3.435   1.268  0.5870 -0.2501  0.8652
  446SOL    MW4 1558   3.857   3.354   1.244 -0.1471 -0.2453  0.1026
  447SOL     OW 1559   2.770   3.395   2.507 -0.3884 -0.4814 -0.4035
  447SOL    HW2 1560   2.708   3.347   2.452 -2.4908 -0.9716  2.2269
  447SOL    HW3 1561   2.826   3.327   2.545  0.6360 -0.1974 -1.3238
  447SOL    MW4 1562   2.769   3.380   2.505 -0.5306 -0.5086 -0.1779
  448SOL     OW 1563   3.622   2.212   0.788 -0.1279  0.1613  0.3664
  448SOL    HW2 1564   3.715   2.226   0.805 -0.0041 -1.2283  0.9690
  448SOL    HW3 1565   3.591   2.163   0.864 -1.0862 -0.3821 -0.3508
  448SOL    MW4 1566   3.630   2.207   0.800 -0.2380 -0.0937  0.3513
  449SOL     OW 1567   3.424   4.882   1.211  0.2204 -0.5417  0.6020
  449SOL    HW2 1568   3.483   4.857   1.139  0.8419  2.4415 -0.0405
  449SOL    HW3 1569   3.336   4.871   1.175  0.4922 -0.4433 -0.1023
  449SOL    MW4 1570   3.420   4.877   1.197  0.3383 -0.1351  0.4243
  450SOL     OW 1571   4.791   4.202   3.380  0.7456 -0.0879  0.3711
  450SOL    HW2 1572   4.843   4.210   3.300  2.2439 -1.8510  1.0947
  450SOL    HW3 1573   4.711   4.252   3.363  1.1144 -0.2661 -2.1394
  450SOL    MW4 1574   4.787   4.210   3.368  0.9919 -0.3440  0.1353
  451SOL     OW 1575   3.171   5.566   5.891  0.1977  0.5492 -0.4383
  451SOL    HW2 1576   3.185   5.485   5.841 -0.9048 -0.4160  0.7640
  451SOL    HW3 1577   3.128   5.625   5.829  2.1460  0.7400 -1.7230
  451SOL    MW4 1578   3.168   5.563   5.876  0.3093  0.4470 -0.4492
  452SOL     OW 1579   0.531   1.283   6.239 -0.2720  0.5210 -0.0026
  452SOL    HW2 1580   0.487   1.198   6.229 -1.7892  1.2993 -0.3224
  452SOL    HW3 1581   0.461   1.347   6.226  0.8540  1.8270  0.1880
  452SOL    MW4 1582   0.516   1.280   6.236 -0.3236  0.7960 -0.0197
  453SOL     OW 1583   3.349   5.193   1.233  0.8519  0.5891  0.4074
  453SOL    HW2 1584   3.404   5.147   1.170  2.4712  0.8743  1.5465
  453SOL    HW3 1585   3.278   5.132   1.252  0.4654  0.4015 -1.4585
  453SOL    MW4 1586   3.347   5.179   1.227  1.0145  0.6020  0.3115
  454SOL     OW 1587   1.599   0.567   1.219  0.4026  0.6228 -0.2095
  454SOL    HW2 1588   1.538   0.635   1.249 -0.5226  0.4875 -1.6733
  454SOL    HW3 1589   1.598   0.502   1.289 -0.2072  1.1978  0.3320
  454SOL    MW4 1590   1.591   0.568   1.233  0.2000  0.6808 -0.3311
  455SOL     OW 1591   1.812   3.278   5.373 -0.2353 -0.1714  0.4437
  455SOL    HW2 1592   1.856   3.362   5.360  0.9864 -1.0099 -1.3011
  455SOL    HW3 1593   1.872   3.227   5.427  0.5613 -0.9904 -1.1533
  455SOL    MW4 1594   1.825   3.283   5.378  0.0310 -0.3901  0.0028
  456SOL     OW 1595   2.706   3.465   5.122  0.2889  0.3924  0.2274
  456SOL    HW2 1596   2.664   3.470   5.208 -1.2624  2.0862 -0.5517
  456SOL    HW3 1597   2.647   3.412   5.069  0.3961  0.7168 -0.2236
  456SOL    MW4 1598   2.693   3.459   5.126  0.0984  0.6587  0.0651
  457SOL     OW 1599   5.555   0.720   2.586  0.1947 -0.4285 -0.3773
  457SOL    HW2 1600   5.591   0.632   2.577  1.3040  0.0707 -0.9449
  457SOL    HW3 1601   5.559   0.757   2.498 -2.4101 -0.5836 -0.6592
  457SOL    MW4 1602   5.560   0.713   2.574 -0.0026 -0.3831 -0.4894
  458SOL     OW 1603   1.873   1.507   3.053  0.0189  0.1358 -0.7696
  458SOL    HW2 1604   1.912   1.571   2.994  1.8513  1.5887  1.8081
  458SOL    HW3 1605   1.804   1.555   3.099  1.1043  0.2393  0.8651
  458SOL    MW4 1606   1.869   1.522   3.052  0.4039  0.3412 -0.2139
  459SOL     OW 1607   3.501   0.881   6.393 -0.2703 -0.4316  0.2788
  459SOL    HW2 1608   3.433   0.828   6.435 -0.2876  0.7178  1.8131
  459SOL    HW3 1609   3.487   0.869   6.299 -0.8383 -2.3851  0.5682
  459SOL    MW4 1610   3.490   0.872   6.386 -0.3475 -0.5377  0.5194
  460SOL     OW 1611   0.172   4.855   2.322  0.1990  0.1859 -0.5157
  460SOL    HW2 1612   0.078   4.854   2.340  0.3940 -0.9873  0.6227
  460SOL    HW3 1613   0.189   4.774   2.274  0.4039  1.1793 -2.1896
  460SOL    MW4 1614   0.162   4.844   2.318  0.2518  0.1621 -0.5864
  461SOL     OW 1615   0.970   2.606   5.356 -0.0936  0.2019 -0.2085
  461SOL    HW2 1616   0.881   2.575   5.340 -0.5081 -0.7287  3.0093
  461SOL    HW3 1617   0.988   2.669   5.286 -2.4256 -1.1729 -2.1830
  461SOL    MW4 1618   0.961   2.610   5.345 -0.4560 -0.1022 -0.0445
  462SOL     OW 1619   4.584   4.613   4.022 -0.3179  0.3020 -0.6279
  462SOL    HW2 1620   4.491   4.618   4.000 -0.4793  1.4846  0.2273
  462SOL    HW3 1621   4.618   4.543   3.966 -1.1903  1.5550 -2.8629
  462SOL    MW4 1622   4.576   4.604   4.012 -0.4543  0.6234 -0.8100
  463SOL     OW 1623   0.353   0.144   0.666  0.9333 -0.3782  0.1743
  463SOL    HW2 1624   0.415   0.148   0.739  1.4351 -2.0493 -0.1124
  463SOL    HW3 1625   0.402   0.103   0.595 -0.3289 -1.2079 -0.2542
  463SOL    MW4 1626   0.368   0.139   0.666  0.8330 -0.7081  0.0799
  464SOL     OW 1627   6.155   0.673   4.018  0.0664 -0.6314  0.1472
  464SOL    HW2 1628   6.145   0.709   4.106 -1.2374 -1.3701  0.3302
  464SOL    HW3 1629   6.077   0.701   3.971 -0.0808 -1.6439 -0.2520
  464SOL    MW4 1630   6.143   0.681   4.023 -0.1250 -0.8625  0.1187
  465SOL     OW 1631   3.633   3.972   6.266 -0.4316 -0.3656 -0.0933
  465SOL    HW2 1632   3.597   3.982   6.354 -1.4169 -0.6484 -0.4503
  465SOL    HW3 1633   3.559   3.942   6.213  0.6188 -2.2396 -0.6059
  465SOL    MW4 1634   3.618   3.969   6.271 -0.4230 -0.6501 -0.2080
  466SOL     OW 1635   0.638   5.919   6.408 -0.3665  0.1898 -0.2094
  466SOL    HW2 1636   0.683   5.835   6.415  1.7594  1.2228 -0.5922
  466SOL    HW3 1637   0.645   5.942   6.316 -0.9345  0.8063 -0.1074
  466SOL    MW4 1638   0.645   5.911   6.397 -0.1610  0.4074 -0.2464
  467SOL     OW 1639   2.383   1.444   1.150  0.1839 -0.1297 -0.1229
  467SOL    HW2 1640   2.300   1.450   1.196  0.7005  2.3380  0.6180
  467SOL    HW3 1641   2.426   1.366   1.187 -0.8246 -0.1281  1.0991
  467SOL    MW4 1642   2.378   1.434   1.161  0.1190  0.1961  0.1361
  468SOL     OW 1643   0.687   6.320   4.974  0.5559 -0.2613  0.2518
  468SOL    HW2 1644   0.664   6.411   4.993  1.6413  0.7374 -2.5936
  468SOL    HW3 1645   0.750   6.296   5.042  1.5171  1.7225  0.1254
  468SOL    MW4 1646   0.693   6.329   4.985  0.8259  0.1322 -0.1403
  469SOL     OW 1647   4.523   3.116   2.403  0.1155  0.4005 -0.3487
  469SOL    HW2 1648   4.570   3.043   2.362 -0.1439  0.6176 -1.0528
  469SOL    HW3 1649   4.452   3.074   2.453  0.8580  0.0894  0.4784
  469SOL    MW4 1650   4.520   3.100   2.404  0.1792  0.3881 -0.3325
  470SOL     OW 1651   2.650   4.057   5.611 -0.0968  0.2909 -0.6038
  470SOL    HW2 1652   2.716   4.116   5.647 -0.0789 -0.8750  1.4480
  470SOL    HW3 1653   2.697   4.007   5.544  0.4349  1.1157 -0.8646
  470SOL    MW4 1654   2.665   4.058   5.607 -0.0243  0.2459 -0.3675
  471SOL     OW 1655   0.149   0.682   1.642  0.4595  0.2420  0.8462
  471SOL    HW2 1656   0.113   0.698   1.555  0.5714 -0.6818  0.6177
  471SOL    HW3 1657   0.140   0.765   1.687  1.7774  1.1967 -0.5387
  471SOL    MW4 1658   0.143   0.695   1.636  0.6482  0.2460  0.6333
  472SOL     OW 1659   2.446   4.866   2.574  0.1293 -0.2318  0.0896
  472SOL    HW2 1660   2.416   4.882   2.664 -0.1647  2.6188 -0.4194
  472SOL    HW3 1661   2.514   4.799   2.584 -2.3729 -2.7448  1.9243
  472SOL    MW4 1662   2.451   4.859   2.587 -0.2396 -0.1872  0.2645
  473SOL     OW 1663   4.508   5.914   6.280 -0.0579 -0.0928 -0.7465
  473SOL    HW2 1664   4.475   5.892   6.367 -2.8379  2.4526 -1.0127
  473SOL    HW3 1665   4.596   5.949   6.296  0.2044 -1.3312  0.7576
  473SOL    MW4 1666   4.515   5.916   6.293 -0.3901  0.0796 -0.5831
  474SOL     OW 1667   4.817   4.388   5.494 -0.1158 -0.2027  0.5532
  474SOL    HW2 1668   4.899   4.356   5.456 -0.0842 -1.0297  1.2868
  474SOL    HW3 1669   4.781   4.446   5.427  0.4660 -0.7925 -0.2977
  474SOL    MW4 1670   4.823   4.391   5.480 -0.0349 -0.3896  0.5377
  475SOL     OW 1671   6.150   6.095   5.540  0.4890 -0.6821  0.0968
  475SOL    HW2 1672   6.185   6.182   5.561 -2.1423  0.5777 -0.3769
  475SOL    HW3 1673   6.157   6.047   5.622 -0.2770  0.8160  1.0896
  475SOL    MW4 1674   6.156   6.100   5.554  0.0407 -0.3183  0.1653
  476SOL     OW 1675   4.015   2.607   5.555  0.1358 -0.0543 -0.5319
  476SOL    HW2 1676   4.040   2.603   5.463  1.9993  0.6122 -0.0955
  476SOL    HW3 1677   4.093   2.578   5.602  0.2829  2.5100  0.9451
  476SOL    MW4 1678   4.028   2.602   5.549  0.4011  0.3719 -0.2795
  477SOL     OW 1679   2.762   2.737   5.951  0.1948 -0.0154  0.0112
  477SOL    HW2 1680   2.721   2.725   6.036 -0.2284 -0.9402 -0.3132
  477SOL    HW3 1681   2.854   2.717   5.965  0.0449 -0.6171  0.1535
  477SOL    MW4 1682   2.769   2.733   5.964  0.1192 -0.2168 -0.0128
  478SOL     OW 1683   1.317   4.096   2.250  0.5009  0.2999 -0.3617
  478SOL    HW2 1684   1.312   4.192   2.252 -0.0325  0.2717  2.3030
  478SOL    HW3 1685   1.353   4.072   2.335 -2.7993 -1.9814  0.6005
  478SOL    MW4 1686   1.321   4.106   2.261 -0.0049 -0.0048  0.1168
  479SOL     OW 1687   4.427   3.011   6.255  0.1493 -0.3706 -0.0688
  479SOL    HW2 1688   4.373   2.943   6.296 -0.5572  0.6713  0.7971
  479SOL    HW3 1689   4.403   3.009   6.163 -1.7536  0.3597  0.3618
  479SOL    MW4 1690   4.417   3.002   6.249 -0.1950 -0.1368  0.1022
  480SOL     OW 1691   3.188   1.956   4.806  0.2867 -0.0566 -0.4118
  480SOL    HW2 1692   3.114   1.895   4.804  0.0449  0.0202  2.3290
  480SOL    HW3 1693   3.150   2.042   4.787  0.1638 -0.3402 -1.5466
  480SOL    MW4 1694   3.173   1.959   4.803  0.2386 -0.0839 -0.1999
  481SOL     OW 1695   1.822   0.795   5.411 -0.3630 -0.1022  0.0620
  481SOL    HW2 1696   1.915   0.813   5.396 -0.4551  0.9886  0.6272
  481SOL    HW3 1697   1.821   0.715   5.464  0.2650 -0.0637  0.1386
  481SOL    MW4 1698   1.834   0.787   5.416 -0.2923  0.0468  0.1467
  482SOL     OW 1699   6.140   2.917   5.405 -0.4151  0.2783 -0.1404
  482SOL    HW2 1700   6.111   2.935   5.494 -0.0826 -0.0299  0.0316
  482SOL    HW3 1701   6.120   2.825   5.391  2.1324 -0.4704  0.6436
  482SOL    MW4 1702   6.133   2.908   5.415 -0.0351  0.1388 -0.0143
  483SOL     OW 1703   1.374   2.249   2.027 -0.1938 -0.7205  0.0874
  483SOL    HW2 1704   1.315   2.200   2.085  0.3028 -0.5321  0.7622
  483SOL    HW3 1705   1.460   2.211   2.044  0.2023  0.3976  0.6401
  483SOL    MW4 1706   1.377   2.237   2.037 -0.0760 -0.5481  0.2493
  484SOL     OW 1707   3.173   3.316   6.355 -0.2348  0.3005  0.0402
  484SOL    HW2 1708   3.234   3.245   6.332  0.5923  1.3414 -1.1052
  484SOL    HW3 1709   3.165   3.368   6.275 -1.2961  1.1684  0.6848
  484SOL    MW4 1710   3.180   3.314   6.341 -0.2657  0.5524 -0.0259
  485SOL     OW 1711   4.362   4.786   3.784  0.4866  0.3584 -0.3702
  485SOL    HW2 1712   4.321   4.871   3.769  2.5613  1.3365 -0.8760
  485SOL    HW3 1713   4.376   4.751   3.696  1.6596  0.5424 -0.2701
  485SOL    MW4 1714   4.359   4.793   3.771  0.9151  0.5117 -0.4238
  486SOL     OW 1715   4.865   2.456   1.368 -0.8975  0.6193 -0.1161
  486SOL    HW2 1716   4.939   2.473   1.427 -0.7347  0.3959 -0.2552
  486SOL    HW3 1717   4.847   2.363   1.379 -2.6166  1.0810  1.6143
  486SOL    MW4 1718   4.873   2.446   1.377 -1.1028  0.6507  0.0939
  487SOL     OW 1719   2.351   3.753   4.384 -0.0147 -0.2749 -0.7774
  487SOL    HW2 1720   2.257   3.769   4.371 -0.0236 -0.7738 -1.3643
  487SOL    HW3 1721   2.358   3.658   4.396  0.2647 -0.0903  0.6276
  487SOL    MW4 1722   2.339   3.742   4.384  0.0210 -0.3164 -0.6694
  488SOL     OW 1723   5.486   1.888   0.114  0.2035  0.2796  0.3453
  488SOL    HW2 1724   5.562   1.946   0.112  0.2834  0.1720  0.1704
  488SOL    HW3 1725   5.420   1.932   0.061  0.9952 -0.7667 -1.6428
  488SOL    MW4 1726   5.487   1.901   0.107  0.3185  0.1274  0.0599
  489SOL     OW 1727   0.529   1.839   1.741  0.1124  0.1049 -0.0926
  489SOL    HW2 1728   0.624   1.828   1.730 -0.0638 -0.9156 -0.7382
  489SOL    HW3 1729   0.502   1.763   1.792 -0.6166 -0.6043 -1.4814
  489SOL    MW4 1730   0.538   1.828   1.746 -0.0070 -0.1233 -0.3610
  490SOL     OW 1731   5.763   6.206   5.145  0.9713  0.5875  0.3084
  490SOL    HW2 1732   5.853   6.227   5.122  0.5523  0.1100 -1.9619
  490SOL    HW3 1733   5.762   6.110   5.150  0.9048  0.6397  1.9267
  490SOL    MW4 1734   5.775   6.196   5.143  0.9073  0.5314  0.2224
  491SOL     OW 1735   2.542   1.966   1.117 -0.0791  0.1850 -0.0059
  491SOL    HW2 1736   2.599   1.990   1.045 -1.5645  0.8710 -0.9835
  491SOL    HW3 1737   2.550   1.870   1.123 -0.8133 -0.0115 -1.8332
  491SOL    MW4 1738   2.551   1.956   1.109 -0.3720  0.2496 -0.3760
  492SOL     OW 1739   1.081   1.581   1.038 -0.0872  0.0204 -0.8091
  492SOL    HW2 1740   1.100   1.513   0.973  1.8069 -0.3590  0.0804
  492SOL    HW3 1741   1.161   1.589   1.089 -1.3124  0.7282  1.1223
  492SOL    MW4 1742   1.094   1.573   1.037  0.0011  0.0637 -0.4369
  493SOL     OW 1743   4.457   4.890   6.172 -0.2026 -0.8426  0.8639
  493SOL    HW2 1744   4.456   4.946   6.249 -0.1302 -0.4471  0.5808
  493SOL    HW3 1745   4.405   4.813   6.198 -0.2039 -0.7009  1.2925
  493SOL    MW4 1746   4.450   4.887   6.186 -0.1932 -0.7718  0.8831
  494SOL     OW 1747   3.284   0.528   3.243  0.0013  0.2563  0.3824
  494SOL    HW2 1748   3.352   0.565   3.300 -0.6376 -0.3123  1.5515
  494SOL    HW3 1749   3.240   0.604   3.205 -0.5371  0.7075  1.8345
  494SOL    MW4 1750   3.287   0.543   3.246 -0.1540  0.2408  0.7283
  495SOL     OW 1751   0.724   0.975   0.743 -0.3079  0.1726  0.6102
  495SOL    HW2 1752   0.682   1.048   0.697 -2.1940 -0.6571  0.9133
  495SOL    HW3 1753   0.721   1.000   0.835 -1.8384 -0.6321  0.8222
  495SOL    MW4 1754   0.718   0.988   0.749 -0.7587 -0.0430  0.6782
  496SOL     OW 1755   3.346   2.927   0.765 -0.4980  0.2220 -0.5172
  496SOL    HW2 1756   3.350   2.923   0.670 -0.9235 -0.3941 -0.5132
  496SOL    HW3 1757   3.261   2.890   0.788 -0.6324  0.8676  0.0792
  496SOL    MW4 1758   3.335   2.922   0.756 -0.5719  0.2259 -0.4380
  497SOL     OW 1759   6.278   0.624   0.202 -0.5190  0.5935 -0.3635
  497SOL    HW2 1760   6.242   0.641   0.289  1.3700 -1.5856  0.9680
  497SOL    HW3 1761   6.371   0.643   0.211 -0.3748  0.8500 -2.0940
  497SOL    MW4 1762   6.285   0.629   0.215 -0.2507  0.3398 -0.4162
  498SOL     OW 1763   4.007   2.991   0.134 -0.3570 -0.8254  0.0707
  498SOL    HW2 1764   3.976   3.077   0.164 -0.9512 -0.9245 -0.2532
  498SOL    HW3 1765   4.102   2.994   0.147 -0.0971  0.6125 -1.7462
  498SOL    MW4 1766   4.015   3.003   0.140 -0.4011 -0.6488 -0.2117
  499SOL     OW 1767   1.483   1.890   1.803 -0.3214 -0.2827  0.3403
  499SOL    HW2 1768   1.468   1.920   1.713  0.2157  0.2523  0.4209
  499SOL    HW3 1769   1.399   1.900   1.847 -0.3286  0.4256  0.1714
  499SOL    MW4 1770   1.470   1.895   1.797 -0.2515 -0.1187  0.3286
  500SOL     OW 1771   5.155   4.707   4.734 -0.5374 -0.6586  0.1442
  500SOL    HW2 1772   5.116   4.758   4.663  0.8753 -0.3453 -0.4385
  500SOL    HW3 1773   5.238   4.752   4.753  0.8297 -2.7976 -0.4712
  500SOL    MW4 1774   5.161   4.720   4.727 -0.1706 -0.8995 -0.0139
  501SOL     OW 1775   0.496   4.590   2.949 -0.1588 -0.3770 -0.0180
  501SOL    HW2 1776   0.462   4.511   2.991 -0.6269 -0.1835 -0.0270
  501SOL    HW3 1777   0.507   4.564   2.857 -0.3251 -0.4312 -0.0242
  501SOL    MW4 1778   0.493   4.576   2.942 -0.2425 -0.3586 -0.0200
  502SOL     OW 1779   1.116   3.529   3.676  0.3408  0.6064  0.3803
  502SOL    HW2 1780   1.210   3.530   3.694  0.2611 -0.1146  0.9045
  502SOL    HW3 1781   1.077   3.492   3.755 -0.3837  0.8593  0.1508
  502SOL    MW4 1782   1.124   3.524   3.689  0.2347  0.5447  0.4192
  503SOL     OW 1783   4.356   1.935   4.389  0.0958 -0.2251 -0.1317
  503SOL    HW2 1784   4.407   1.854   4.388 -0.8152 -0.8238  0.7148
  503SOL    HW3 1785   4.411   1.998   4.435 -0.3455 -1.1757  1.7837
  503SOL    MW4 1786   4.370   1.932   4.395 -0.0826 -0.4295  0.2327
  504SOL     OW 1787   0.706   4.425   6.201 -0.0242  0.7269 -0.0113
  504SOL    HW2 1788   0.638   4.401   6.264 -0.7431  1.0447 -0.6677
  504SOL    HW3 1789   0.788   4.396   6.243 -0.6847 -1.3144 -0.0070
  504SOL    MW4 1790   0.708   4.418   6.215 -0.2062  0.4995 -0.0973
  505SOL     OW 1791   3.235   0.095   4.630  0.2200 -0.3280  0.3145
  505SOL    HW2 1792   3.223   0.006   4.663  2.1223 -0.6661  0.2085
  505SOL    HW3 1793   3.326   0.098   4.601  0.1970  1.6527  0.2862
  505SOL    MW4 1794   3.245   0.084   4.631  0.4680 -0.1112  0.2968
  506SOL     OW 1795   1.074   1.828   0.927 -0.2940  0.5292  0.0972
  506SOL    HW2 1796   1.093   1.735   0.922 -0.7811  0.4658 -0.8312
  506SOL    HW3 1797   0.995   1.839   0.874 -0.5622  1.3844  0.6474
  506SOL    MW4 1798   1.066   1.817   0.920 -0.3937  0.6337  0.0473
  507SOL     OW 1799   5.542   0.845   3.031 -0.2413 -0.0109 -0.6606
  507SOL    HW2 1800   5.480   0.794   2.978 -0.2404 -0.7056 -0.0059
  507SOL    HW3 1801   5.488   0.882   3.101 -0.2352  0.8809 -1.1048
  507SOL    MW4 1802   5.526   0.843   3.033 -0.2403  0.0151 -0.6328
  508SOL     OW 1803   1.642   1.002   2.847  0.0637 -0.0739  0.3493
  508SOL    HW2 1804   1.622   0.997   2.753 -2.6411 -1.7296  0.9033
  508SOL    HW3 1805   1.691   0.922   2.866  1.6860  0.8399  0.1944
  508SOL    MW4 1806   1.646   0.991   2.837 -0.0791 -0.1718  0.4020
  509SOL     OW 1807   0.267   6.031   3.503  0.2991  0.3719  0.0936
  509SOL    HW2 1808   0.202   6.100   3.488 -0.1243 -0.3674 -1.7118
  509SOL    HW3 1809   0.350   6.070   3.473  0.0833  0.1375 -0.8072
  509SOL    MW4 1810   0.270   6.045   3.497  0.2147  0.2435 -0.2635
  510SOL     OW 1811   2.839   3.925   3.953  0.0268  0.5668  0.1900
  510SOL    HW2 1812   2.851   3.936   3.859 -2.7845 -3.6829 -1.0004
  510SOL    HW3 1813   2.925   3.898   3.985  1.1915  2.7148 -0.9276
  510SOL    MW4 1814   2.852   3.923   3.945 -0.1904  0.2895 -0.1145
  511SOL     OW 1815   3.136   5.457   3.161 -0.4099 -0.2054  0.3107
  511SOL    HW2 1816   3.131   5.364   3.142 -2.7140 -0.4593  1.7658
  511SOL    HW3 1817   3.202   5.465   3.229  0.6663 -0.5633 -0.6541
  511SOL    MW4 1818   3.144   5.446   3.167 -0.5719 -0.2861  0.3754
  512SOL     OW 1819   4.487   4.866   4.257  0.1935 -0.0698 -0.9499
  512SOL    HW2 1820   4.531   4.790   4.296  1.6183  0.7551 -0.8575
  512SOL    HW3 1821   4.534   4.881   4.174  0.5710  1.2499 -0.5279
  512SOL    MW4 1822   4.499   4.858   4.251  0.4313  0.2131 -0.8821
  513SOL     OW 1823   1.520   2.097   0.936  0.6534 -0.6019 -0.6015
  513SOL    HW2 1824   1.552   2.012   0.968 -1.3607 -0.8572  0.8775
  513SOL    HW3 1825   1.486   2.078   0.849  2.5810 -0.7303 -1.3740
  513SOL    MW4 1826   1.520   2.083   0.929  0.6420 -0.6526 -0.5083
  514SOL     OW 1827   0.352   0.650   3.861  0.1457 -0.4774  0.0133
  514SOL    HW2 1828   0.347   0.660   3.956  2.2464  0.4562  0.0796
  514SOL    HW3 1829   0.353   0.740   3.827  1.3256 -0.7305 -0.7136
  514SOL    MW4 1830   0.352   0.663   3.869  0.5785 -0.3876 -0.0738
  515SOL     OW 1831   4.393   3.887   4.630 -0.2509 -0.0453 -0.6682
  515SOL    HW2 1832   4.390   3.877   4.535  0.5252 -1.3173 -0.5798
  515SOL    HW3 1833   4.415   3.979   4.643 -0.1901  0.1057 -1.7207
  515SOL    MW4 1834   4.396   3.898   4.619 -0.1405 -0.1932 -0.7954
  516SOL     OW 1835   1.040   4.543   2.604 -0.3064 -0.4430 -0.7516
  516SOL    HW2 1836   1.012   4.594   2.680  0.2047  0.3565 -1.0910
  516SOL    HW3 1837   1.026   4.452   2.630  0.7505 -0.2347  0.6855
  516SOL    MW4 1838   1.034   4.538   2.618 -0.0996 -0.3101 -0.6068
  517SOL     OW 1839   4.458   0.723   3.081 -0.0444  0.0873 -0.0094
  517SOL    HW2 1840   4.412   0.749   3.161 -1.7688  3.9309 -1.9580
  517SOL    HW3 1841   4.536   0.778   3.079 -1.0152  1.4965 -1.7680
  517SOL    MW4 1842   4.462   0.734   3.091 -0.4000  0.7804 -0.4985
  518SOL     OW 1843   1.586   4.470   2.271 -0.0465 -0.0864  0.3464
  518SOL    HW2 1844   1.649   4.506   2.209 -0.7128 -1.3826 -1.1603
  518SOL    HW3 1845   1.619   4.383   2.291 -0.3058 -0.0096  1.1536
  518SOL    MW4 1846   1.599   4.463   2.266 -0.1686 -0.2473  0.2541
  519SOL     OW 1847   4.884   5.747   0.135 -0.3590  0.3272  0.8783
  519SOL    HW2 1848   4.882   5.843   0.137 -0.9085  0.3361  0.3221
  519SOL    HW3 1849   4.792   5.722   0.128 -0.0769 -0.1256 -2.9624
  519SOL    MW4 1850   4.872   5.756   0.134 -0.3943  0.2686  0.2982
  520SOL     OW 1851   3.175   2.491   2.010 -0.3806 -0.5565  0.2084
  520SOL    HW2 1852   3.218   2.450   1.935 -1.3416 -0.8689 -0.1865
  520SOL    HW3 1853   3.245   2.537   2.056  0.2949 -0.7127 -0.6455
  520SOL    MW4 1854   3.190   2.492   2.006 -0.4183 -0.6183  0.0436
  521SOL     OW 1855   0.366   0.036   5.367  0.0207 -0.3200  0.5259
  521SOL    HW2 1856   0.459   0.016   5.374  0.0168 -0.3410  0.5190
  521SOL    HW3 1857   0.359   0.092   5.290 -0.1283 -1.3366 -0.2333
  521SOL    MW4 1858   0.377   0.041   5.358  0.0005 -0.4569  0.4248
  522SOL     OW 1859   2.731   0.440   1.476  0.3487 -0.4053 -0.3527
  522SOL    HW2 1860   2.695   0.485   1.552  1.8727 -0.2243  0.3058
  522SOL    HW3 1861   2.816   0.482   1.461  0.1903 -0.6003 -2.0168
  522SOL    MW4 1862   2.738   0.452   1.484  0.5289 -0.4071 -0.4854
  523SOL     OW 1863   1.748   6.109   1.973 -0.7582  0.4339 -0.1363
  523SOL    HW2 1864   1.765   6.015   1.960  1.2195  0.5370  1.3311
  523SOL    HW3 1865   1.662   6.112   2.015 -0.2387 -0.8448  1.0949
  523SOL    MW4 1866   1.739   6.097   1.976 -0.4287  0.2788  0.2198
  524SOL     OW 1867   5.743   4.838   6.350  0.3154 -0.4573 -0.2165
  524SOL    HW2 1868   5.835   4.845   6.325  1.5406 -4.1046  2.3398
  524SOL    HW3 1869   5.729   4.911   6.410  2.4230 -1.2213  1.3527
  524SOL    MW4 1870   5.754   4.848   6.355  0.7552 -1.0393  0.3278
  525SOL     OW 1871   0.939   2.340   0.490 -0.0852 -0.4949 -0.0320
  525SOL    HW2 1872   0.897   2.284   0.556  1.6634 -1.3939  0.3708
  525SOL    HW3 1873   0.970   2.279   0.423 -0.9484  0.3222 -1.2041
  525SOL    MW4 1874   0.938   2.324   0.490  0.0316 -0.5057 -0.1335
  526SOL     OW 1875   5.364   2.940   2.212 -0.3020  0.0806 -0.0716
  526SOL    HW2 1876   5.420   2.948   2.289 -0.8539 -0.6381  0.4219
  526SOL    HW3 1877   5.296   2.877   2.238  0.2295 -1.1867 -1.5562
  526SOL    MW4 1878   5.362   2.933   2.225 -0.3047 -0.1814 -0.2023
  527SOL     OW 1879   2.568   1.230   1.501  0.5659 -0.2119 -0.1109
  527SOL    HW2 1880   2.528   1.313   1.527 -0.6075 -0.7738 -0.0535
  527SOL    HW3 1881   2.537   1.216   1.411 -0.6931 -1.4230  0.4772
  527SOL    MW4 1882   2.558   1.239   1.492  0.2449 -0.4459 -0.0257
  528SOL     OW 1883   0.323   3.947   3.371  0.3252  0.1246 -0.0376
  528SOL    HW2 1884   0.373   3.875   3.410  1.7858  1.4713  0.6466
  528SOL    HW3 1885   0.289   3.996   3.446  0.2352  0.7675 -0.4936
  528SOL    MW4 1886   0.325   3.944   3.386  0.5061  0.3871 -0.0075
  529SOL     OW 1887   3.363   3.933   3.874  0.0812  0.4412  0.5355
  529SOL    HW2 1888   3.451   3.948   3.839 -0.3599  3.0476  0.3121
  529SOL    HW3 1889   3.369   3.960   3.966 -0.5173  0.9304  0.4433
  529SOL    MW4 1890   3.375   3.939   3.882 -0.0559  0.8496  0.4939
  530SOL     OW 1891   4.966   1.890   4.529 -0.2499  0.5338 -0.1436
  530SOL    HW2 1892   5.038   1.949   4.553  0.5228  0.2560 -1.6745
  530SOL    HW3 1893   4.978   1.873   4.436 -1.1649 -1.0878 -0.0138
  530SOL    MW4 1894   4.977   1.895   4.520 -0.2687  0.2832 -0.3284
  531SOL     OW 1895   4.356   1.387   1.671  0.0569 -0.4341 -0.1879
  531SOL    HW2 1896   4.340   1.442   1.595 -0.6159  0.6525  0.6985
  531SOL    HW3 1897   4.377   1.301   1.635 -0.5465 -0.0233 -1.5833
  531SOL    MW4 1898   4.356   1.383   1.656 -0.1115 -0.2366 -0.2550
  532SOL     OW 1899   0.931   4.324   0.299  0.2379 -0.3522  0.0319
  532SOL    HW2 1900   0.849   4.273   0.295 -0.8111  1.2310  0.4536
  532SOL    HW3 1901   0.941   4.344   0.392  0.7385  0.0624 -0.1094
  532SOL    MW4 1902   0.921   4.320   0.311  0.1656 -0.0886  0.0689
  533SOL     OW 1903   1.215   5.342   2.531  0.0323  0.1281 -0.2279
  533SOL    HW2 1904   1.179   5.372   2.615  0.3972  1.5630 -0.5623
  533SOL    HW3 1905   1.221   5.247   2.541 -0.2605  0.2306  1.2487
  533SOL    MW4 1906   1.211   5.333   2.544  0.0418  0.3310 -0.0772
  534SOL     OW 1907   5.767   3.292   0.668 -0.1199  0.2181  0.3319
  534SOL    HW2 1908   5.810   3.301   0.753  0.8611 -0.0250 -0.1297
  534SOL    HW3 1909   5.793   3.371   0.620  1.8518 -1.0606 -0.8200
  534SOL    MW4 1910   5.776   3.304   0.673  0.2697  0.0173  0.1190
  535SOL     OW 1911   3.229   1.425   0.835 -0.2421  0.0723  0.0874
  535SOL    HW2 1912   3.188   1.390   0.915 -0.2020 -2.2124 -0.8097
  535SOL    HW3 1913   3.171   1.396   0.764  0.0961  1.4585 -0.7842
  535SOL    MW4 1914   3.216   1.416   0.836 -0.1921 -0.0463 -0.1459
  536SOL     OW 1915   4.381   0.960   4.318 -0.1100  0.2600 -0.1040
  536SOL    HW2 1916   4.453   0.906   4.353  0.6871  1.0159 -0.5463
  536SOL    HW3 1917   4.304   0.928   4.364  0.9324  1.4656  2.7399
  536SOL    MW4 1918   4.381   0.948   4.329  0.1327  0.5188  0.2129
  537SOL     OW 1919   5.883   1.021   0.353 -0.3464 -0.2748 -0.2294
  537SOL    HW2 1920   5.971   0.982   0.354 -0.7651 -1.2516 -0.3177
  537SOL    HW3 1921   5.857   1.017   0.261 -0.8893 -0.9439 -0.0527
  537SOL    MW4 1922   5.891   1.015   0.341 -0.4733 -0.4919 -0.2177
  538SOL     OW 1923   1.716   0.812   5.773  0.3896 -0.2016  0.1758
  538SOL    HW2 1924   1.713   0.869   5.696 -0.2968  0.7361  0.8756
  538SOL    HW3 1925   1.809   0.791   5.784  0.3870 -1.4644 -1.6837
  538SOL    MW4 1926   1.728   0.817   5.764  0.2987 -0.2445  0.0228
  539SOL     OW 1927   4.696   5.344   5.219 -0.1619  0.0843 -0.0333
  539SOL    HW2 1928   4.647   5.349   5.137 -1.7470 -1.4212  0.7759
  539SOL    HW3 1929   4.640   5.387   5.284 -0.8905 -2.3969  1.0814
  539SOL    MW4 1930   4.682   5.351   5.217 -0.4671 -0.4417  0.2206
  540SOL     OW 1931   3.000   0.511   1.010 -0.3024 -0.2658  0.2268
  540SOL    HW2 1932   2.985   0.451   0.937 -2.1233  0.2567  0.1403
  540SOL    HW3 1933   2.967   0.465   1.087 -0.4834  0.1032  0.3711
  540SOL    MW4 1934   2.994   0.497   1.010 -0.5665 -0.1482  0.2345
  541SOL     OW 1935   2.142   6.355   2.259  0.4636  0.3398  0.5621
  541SOL    HW2 1936   2.123   6.377   2.351  0.2907  0.8308  0.4133
  541SOL    HW3 1937   2.220   6.300   2.264 -0.8250 -1.5363  1.1663
  541SOL    MW4 1938   2.150   6.351   2.272  0.2707  0.1570  0.6222
  542SOL     OW 1939   2.299   4.900   2.787  0.2939  0.1154 -0.7964
  542SOL    HW2 1940   2.272   4.991   2.799  0.7559  0.2825 -0.9813
  542SOL    HW3 1941   2.336   4.875   2.871  1.6291  0.6184 -1.2122
  542SOL    MW4 1942   2.300   4.909   2.800  0.5310  0.2038 -0.8757
  543SOL     OW 1943   2.335   0.813   2.712  0.2534 -0.3209  0.0336
  543SOL    HW2 1944   2.269   0.859   2.764  0.3285 -1.5794  1.2989
  543SOL    HW3 1945   2.315   0.836   2.621  0.0910  1.9061  0.5713
  543SOL    MW4 1946   2.324   0.822   2.707  0.2419 -0.1932  0.2715
  544SOL     OW 1947   6.232   0.913   1.099  0.2004 -0.2084  0.1380
  544SOL    HW2 1948   6.326   0.896   1.100  0.0319 -1.2452 -0.5258
  544SOL    HW3 1949   6.198   0.856   1.030 -1.0479 -0.4999  0.9768
  544SOL    MW4 1950   6.240   0.903   1.090  0.0135 -0.3836  0.1611
  545SOL     OW 1951   2.236   4.609   0.533  0.0759  0.0739  0.0991
  545SOL    HW2 1952   2.185   4.677   0.491 -0.7146 -0.8846 -0.5415
  545SOL    HW3 1953   2.296   4.656   0.591 -1.8368  1.2300  1.2328
  545SOL    MW4 1954   2.238   4.624   0.535 -0.2808  0.1000  0.1642
  546SOL     OW 1955   6.053   2.345   0.466 -0.4163  0.4925 -0.1549
  546SOL    HW2 1956   6.083   2.329   0.376  1.4889  0.7805  0.3764
  546SOL    HW3 1957   6.130   2.325   0.520 -1.7887 -0.5659  1.5011
  546SOL    MW4 1958   6.067   2.340   0.461 -0.3460  0.3909  0.1337
  547SOL     OW 1959   5.649   5.302   1.716  0.0161 -0.4371 -0.0211
  547SOL    HW2 1960   5.673   5.391   1.744 -0.6811  0.1811 -1.3015
  547SOL    HW3 1961   5.689   5.293   1.630 -0.2348 -1.2373 -0.0566
  547SOL    MW4 1962   5.657   5.313   1.709 -0.1090 -0.4611 -0.1947
  548SOL     OW 1963   2.001   1.606   0.331 -0.0119  0.6052  0.6196
  548SOL    HW2 1964   1.994   1.650   0.416  3.0456 -0.7183  1.7154
  548SOL    HW3 1965   2.034   1.674   0.272 -1.0657  1.2459  0.7445
  548SOL    MW4 1966   2.005   1.621   0.334  0.2525  0.5151  0.7806
  549SOL     OW 1967   2.746   2.075   2.762 -0.4861  0.5040 -0.3182
  549SOL    HW2 1968   2.664   2.027   2.761  0.1218 -0.5665 -1.5888
  549SOL    HW3 1969   2.804   2.024   2.819 -0.0674  0.1127 -1.0829
  549SOL    MW4 1970   2.743   2.062   2.769 -0.3506  0.3111 -0.5867
  550SOL     OW 1971   5.257   5.640   1.353  0.1093  0.0224 -0.2578
  550SOL    HW2 1972   5.249   5.733   1.374 -0.7599  0.0511 -0.6967
  550SOL    HW3 1973   5.175   5.618   1.308  0.9023 -0.6190 -1.4302
  550SOL    MW4 1974   5.245   5.650   1.350  0.0992 -0.0584 -0.4704
  551SOL     OW 1975   1.785   3.961   5.992  0.2567 -0.2417 -0.5280
  551SOL    HW2 1976   1.828   4.046   5.987  0.1662  0.0816  2.3173
  551SOL    HW3 1977   1.759   3.941   5.902  3.0171  1.2510 -1.7799
  551SOL    MW4 1978   1.787   3.969   5.979  0.6090 -0.0021 -0.3178
  552SOL     OW 1979   2.968   5.468   3.954  0.3404  0.3894 -0.9179
  552SOL    HW2 1980   2.963   5.484   4.048  0.2995  0.9839 -1.0182
  552SOL    HW3 1981   2.919   5.386   3.941  1.2300 -0.2606 -0.2916
  552SOL    MW4 1982   2.961   5.459   3.965  0.4524  0.3821 -0.8485
  553SOL     OW 1983   1.846   1.771   2.385 -0.0917  0.0149 -0.0411
  553SOL    HW2 1984   1.896   1.849   2.363 -0.1422  0.2590  0.6792
  553SOL    HW3 1985   1.905   1.719   2.440  0.3291 -0.9707 -1.3730
  553SOL    MW4 1986   1.860   1.774   2.389 -0.0428 -0.0829 -0.1218
  554SOL     OW 1987   4.247   1.306   1.933 -0.0896 -0.3233  0.7332
  554SOL    HW2 1988   4.229   1.397   1.959  1.5085 -0.3765  2.2302
  554SOL    HW3 1989   4.279   1.313   1.843 -1.4929  0.4030  0.2639
  554SOL    MW4 1990   4.249   1.319   1.924 -0.0639 -0.2345  0.8688
  555SOL     OW 1991   3.962   5.199   2.992 -0.8753 -0.2034 -0.6766
  555SOL    HW2 1992   3.980   5.106   3.010  0.2723  0.1161 -0.0803
  555SOL    HW3 1993   4.027   5.223   2.926  0.7245  0.8597  1.1764
  555SOL    MW4 1994   3.973   5.190   2.986 -0.5128 -0.0210 -0.3534
  556SOL     OW 1995   5.791   1.354   3.267 -0.5829 -0.9149  0.0526
  556SOL    HW2 1996   5.804   1.327   3.176  0.7846  1.2915 -0.4845
  556SOL    HW3 1997   5.710   1.406   3.265 -0.2583 -0.4081 -0.0252
  556SOL    MW4 1998   5.782   1.358   3.255 -0.3597 -0.5569 -0.0285
  557SOL     OW 1999   0.040   5.440   6.082 -0.4874 -0.0205  0.0609
  557SOL    HW2 2000   0.012   5.387   6.007  1.1234  0.3716 -0.8500
  557SOL    HW3 2001   0.013   5.389   6.159 -1.9931 -0.5215 -0.7657
  557SOL    MW4 2002   0.033   5.426   6.083 -0.4735 -0.0349 -0.1684
  558SOL     OW 2003   4.744   4.539   4.802 -0.2149  0.2045  0.2042
  558SOL    HW2 2004   4.691   4.469   4.763 -0.3637 -0.3232  1.3104
  558SOL    HW3 2005   4.681   4.609   4.821  0.2897  1.7547 -3.1980
  558SOL    MW4 2006   4.729   4.539   4.800 -0.1680  0.3394 -0.0987
  559SOL     OW 2007   4.451   4.000   0.390  0.4642 -0.3601  0.1040
  559SOL    HW2 2008   4.404   4.061   0.448  0.3608 -0.0353 -0.3202
  559SOL    HW3 2009   4.396   3.922   0.388 -0.4894  0.3008 -1.0218
  559SOL    MW4 2010   4.438   3.998   0.398  0.3248 -0.2300 -0.1005
  560SOL     OW 2011   1.837   5.008   1.983  0.4235 -0.1809 -0.0551
  560SOL    HW2 2012   1.816   5.031   1.893  0.6516  1.8248  0.3486
  560SOL    HW3 2013   1.877   5.087   2.019 -0.8652 -0.4483  2.1778
  560SOL    MW4 2014   1.839   5.021   1.976  0.2836  0.0484  0.2928
  561SOL     OW 2015   2.269   1.623   5.925  0.4753  0.0261  0.0215
  561SOL    HW2 2016   2.342   1.573   5.961  0.6588  0.0088 -0.3669
  561SOL    HW3 2017   2.306   1.669   5.849  0.0656 -0.0561 -0.2362
  561SOL    MW4 2018   2.283   1.623   5.919  0.4455  0.0130 -0.0637
  562SOL     OW 2019   6.134   1.120   1.466  0.3012  0.0244 -0.1805
  562SOL    HW2 2020   6.082   1.184   1.417 -0.1907  0.9185  1.4570
  562SOL    HW3 2021   6.130   1.041   1.412 -1.5798  0.4855 -0.8038
  562SOL    MW4 2022   6.127   1.118   1.452 -0.0118  0.2032 -0.0467
  563SOL     OW 2023   3.612   0.513   4.260  0.0883  0.0522  0.2717
  563SOL    HW2 2024   3.672   0.458   4.210 -0.5360  0.6745 -1.2022
  563SOL    HW3 2025   3.577   0.575   4.197 -0.8491  0.7758  1.4525
  563SOL    MW4 2026   3.615   0.514   4.245 -0.1178  0.2298  0.2330
  564SOL     OW 2027   3.007   1.999   4.390  0.1150  0.3665 -0.6941
  564SOL    HW2 2028   3.009   2.083   4.345  2.0516  0.1324 -1.1471
  564SOL    HW3 2029   2.950   1.944   4.336  1.3363  0.4909 -2.2128
  564SOL    MW4 2030   3.000   2.002   4.377  0.5316  0.3520 -0.9543
  565SOL     OW 2031   0.016   1.892   3.309 -0.0306  0.5319  0.2463
  565SOL    HW2 2032   0.108   1.905   3.285 -0.2213  0.3421 -0.6271
  565SOL    HW3 2033   0.016   1.817   3.368  0.3704  0.4794  0.1776
  565SOL    MW4 2034   0.028   1.884   3.313 -0.0028  0.4999  0.1220
  566SOL     OW 2035   4.864   5.089   4.107  0.3575 -0.4695  0.1160
  566SOL    HW2 2036   4.841   5.175   4.142  1.4337 -0.0783 -0.0843
  566SOL    HW3 2037   4.932   5.107   4.042  1.0813 -1.5199  0.5416
  566SOL    MW4 2038   4.870   5.103   4.103  0.5950 -0.5565  0.1457
  567SOL     OW 2039   4.583   2.184   3.768 -0.0466  0.6655  0.0711
  567SOL    HW2 2040   4.523   2.186   3.693  1.5666  0.8976 -1.2610
  567SOL    HW3 2041   4.535   2.228   3.838 -1.9264 -0.2689 -0.5367
  567SOL    MW4 2042   4.569   2.190   3.767 -0.0818  0.5728 -0.1848
  568SOL     OW 2043   2.336   0.369   4.080  0.4813 -0.2074 -0.2900
  568SOL    HW2 2044   2.372   0.315   4.150  0.2404 -0.2586 -0.2026
  568SOL    HW3 2045   2.385   0.344   4.002  1.1041  0.2138 -0.0422
  568SOL    MW4 2046   2.347   0.359   4.079  0.5317 -0.1586 -0.2458
  569SOL     OW 2047   6.290   3.648   2.915 -0.4067 -0.2112 -0.1759
  569SOL    HW2 2048   6.374   3.618   2.950  1.0434  1.2206 -2.1970
  569SOL    HW3 2049   6.237   3.568   2.909  1.3988 -1.4642 -0.3814
  569SOL    MW4 2050   6.295   3.633   2.919  0.0228 -0.1876 -0.4697
  570SOL     OW 2051   1.657   0.385   0.132  0.6870 -0.8696  0.1110
  570SOL    HW2 2052   1.627   0.370   0.221  0.3445  1.8126  0.5243
  570SOL    HW3 2053   1.747   0.418   0.142 -0.0000  1.2615 -0.3435
  570SOL    MW4 2054   1.665   0.387   0.145  0.5511 -0.2345  0.1056
  571SOL     OW 2055   1.535   3.848   5.212 -0.0637  0.2529  0.2698
  571SOL    HW2 2056   1.464   3.796   5.250 -0.1179  0.8903  1.0556
  571SOL    HW3 2057   1.499   3.937   5.206 -1.3324 -0.2838 -4.3999
  571SOL    MW4 2058   1.521   3.853   5.216 -0.2383  0.2662 -0.2426
  572SOL     OW 2059   0.483   5.117   6.179 -0.2399  0.1990  0.3365
  572SOL    HW2 2060   0.541   5.192   6.169  1.1914 -1.0430 -1.1901
  572SOL    HW3 2061   0.538   5.041   6.161 -2.4934 -0.9999 -2.1202
  572SOL    MW4 2062   0.498   5.117   6.176 -0.3484 -0.1231 -0.1890
  573SOL     OW 2063   3.872   0.323   1.856 -0.6549  0.2329 -0.4199
  573SOL    HW2 2064   3.908   0.412   1.849 -1.4567  0.5813 -0.2553
  573SOL    HW3 2065   3.949   0.266   1.858 -0.1331  0.9087 -0.7154
  573SOL    MW4 2066   3.887   0.327   1.855 -0.6919  0.3680 -0.4372
  574SOL     OW 2067   1.774   5.007   0.568  0.2612 -0.0547  0.2902
  574SOL    HW2 2068   1.832   5.078   0.594  2.6054 -2.0183  0.8095
  574SOL    HW3 2069   1.760   5.022   0.474 -2.4566  3.0939  1.0001
  574SOL    MW4 2070   1.780   5.018   0.559  0.2119  0.1016  0.4524
  575SOL     OW 2071   1.054   4.133   3.326 -0.2610  0.6657  0.0236
  575SOL    HW2 2072   1.088   4.196   3.389 -2.0019  0.9274  0.7586
  575SOL    HW3 2073   1.112   4.057   3.334 -0.0500  0.9534  1.4674
  575SOL    MW4 2074   1.066   4.131   3.335 -0.4628  0.7382  0.3110
  576SOL     OW 2075   4.499   5.241   2.819  0.5603 -0.8710 -0.2000
  576SOL    HW2 2076   4.460   5.156   2.798  0.4252 -0.8765  0.0774
  576SOL    HW3 2077   4.506   5.285   2.734 -0.6852 -0.6077 -0.1934
  576SOL    MW4 2078   4.495   5.236   2.805  0.3782 -0.8370 -0.1625
  577SOL     OW 2079   5.508   3.446   4.903 -0.1764 -0.0181  0.4258
  577SOL    HW2 2080   5.550   3.418   4.821  0.9501  2.8983 -0.1197
  577SOL    HW3 2081   5.530   3.376   4.966  0.8745 -1.2184 -1.1890
  577SOL    MW4 2082   5.517   3.433   4.901  0.1109  0.2083  0.1408
  578SOL     OW 2083   2.357   2.438   0.233 -0.0487 -0.0479 -0.4106
  578SOL    HW2 2084   2.295   2.368   0.252 -0.2178 -0.0251 -0.8692
  578SOL    HW3 2085   2.306   2.503   0.185 -0.2764  1.0935  1.3155
  578SOL    MW4 2086   2.342   2.437   0.229 -0.1011  0.1057 -0.2433
  579SOL     OW 2087   4.891   1.375   5.052  0.3921  0.2173  0.2562
  579SOL    HW2 2088   4.876   1.286   5.022 -0.4481  0.3027  0.3939
  579SOL    HW3 2089   4.803   1.409   5.070  0.5699  1.5685 -1.2187
  579SOL    MW4 2090   4.878   1.368   5.051  0.3047  0.4068  0.0797
  580SOL     OW 2091   5.510   0.624   5.072 -0.3919 -0.3760  0.2770
  580SOL    HW2 2092   5.497   0.643   5.164 -1.2272 -0.6251  0.2218
  580SOL    HW3 2093   5.538   0.707   5.033  0.7659 -0.4717  0.8939
  580SOL    MW4 2094   5.512   0.637   5.079 -0.3493 -0.4215  0.3511
  581SOL     OW 2095   5.074   5.621   4.517  1.0052 -0.3156 -0.4207
  581SOL    HW2 2096   5.041   5.646   4.431  1.8311  0.3221 -0.5692
  581SOL    HW3 2097   5.107   5.703   4.554  0.7410 -0.6016  0.4712
  581SOL    MW4 2098   5.074   5.635   4.511  1.0793 -0.2692 -0.3226
  582SOL     OW 2099   4.970   3.656   0.565 -0.3930 -0.4974 -1.5718
  582SOL    HW2 2100   5.057   3.615   0.563 -0.0223 -0.0088  1.1943
  582SOL    HW3 2101   4.982   3.737   0.515  1.6327  0.9712  1.0122
  582SOL    MW4 2102   4.983   3.661   0.558 -0.0768 -0.2392 -0.8659
  583SOL     OW 2103   0.345   1.251   0.215  0.5133  0.0015 -0.5654
  583SOL    HW2 2104   0.272   1.292   0.261  0.9023  0.1117 -0.0309
  583SOL    HW3 2105   0.304   1.197   0.147 -0.0574  0.1461 -0.3403
  583SOL    MW4 2106   0.330   1.249   0.212  0.4893  0.0351 -0.4652
  584SOL     OW 2107   6.059   2.015   0.078  0.6671 -0.1522  0.3675
  584SOL    HW2 2108   6.086   2.106   0.095 -1.4462  1.0552 -1.9905
  584SOL    HW3 2109   5.964   2.017   0.089  0.5512 -2.0267 -0.0658
  584SOL    MW4 2110   6.050   2.028   0.082  0.3729 -0.2402 -0.0008
  585SOL     OW 2111   4.003   2.271   2.358  0.1279 -0.0634 -0.1652
  585SOL    HW2 2112   3.971   2.181   2.352  1.0354 -0.3369 -1.1914
  585SOL    HW3 2113   3.967   2.314   2.281 -0.6269  0.5716  0.5300
  585SOL    MW4 2114   3.994   2.265   2.347  0.1480 -0.0157 -0.2088
  586SOL     OW 2115   1.367   0.957   2.973 -0.6135 -0.4465  0.3925
  586SOL    HW2 2116   1.332   0.868   2.962  1.1933 -1.2078  0.4032
  586SOL    HW3 2117   1.447   0.957   2.921 -0.1724  0.9399  1.0406
  586SOL    MW4 2118   1.373   0.945   2.964 -0.3169 -0.3640  0.4794
  587SOL     OW 2119   1.703   5.310   1.262 -0.2178 -0.4918  0.4998
  587SOL    HW2 2120   1.705   5.271   1.175 -1.2222 -1.2597  0.7950
  587SOL    HW3 2121   1.611   5.302   1.289  0.1527 -0.5784  1.7715
  587SOL    MW4 2122   1.691   5.304   1.254 -0.3015 -0.6045  0.7065
  588SOL     OW 2123   1.835   4.779   3.812 -0.7457 -0.1237  0.7010
  588SOL    HW2 2124   1.805   4.714   3.875 -0.5412 -1.7300 -0.7797
  588SOL    HW3 2125   1.929   4.789   3.831 -0.4934 -1.2661  0.1113
  588SOL    MW4 2126   1.844   4.772   3.823 -0.6855 -0.4864  0.4278
  589SOL     OW 2127   4.870   3.949   3.873 -0.4784 -0.1822 -0.6684
  589SOL    HW2 2128   4.878   3.962   3.968 -1.9973 -0.1737 -0.5142
  589SOL    HW3 2129   4.956   3.918   3.846  0.0834  0.1240  0.6610
  589SOL    MW4 2130   4.883   3.947   3.882 -0.6047 -0.1407 -0.4727
  590SOL     OW 2131   6.301   2.878   4.030  0.6338  0.0124 -0.1630
  590SOL    HW2 2132   6.250   2.943   4.079  0.0885  0.0509 -0.7792
  590SOL    HW3 2133   6.360   2.840   4.096  1.5189  1.6676  0.0708
  590SOL    MW4 2134   6.302   2.882   4.045  0.6786  0.2359 -0.2135
  591SOL     OW 2135   1.235   0.548   3.432 -0.2523  0.1112 -0.2768
  591SOL    HW2 2136   1.263   0.631   3.394 -0.6779  0.3316 -0.1139
  591SOL    HW3 2137   1.240   0.486   3.359  1.8953 -0.1641  0.0424
  591SOL    MW4 2138   1.239   0.551   3.417 -0.0251  0.1039 -0.2132
  592SOL     OW 2139   0.213   0.147   5.097  0.1989  0.5711  0.3290
  592SOL    HW2 2140   0.202   0.057   5.066  0.4033  0.8613 -0.6525
  592SOL    HW3 2141   0.162   0.152   5.177 -0.3029 -0.2558  0.0718
  592SOL    MW4 2142   0.205   0.136   5.103  0.1596  0.5003  0.1655
  593SOL     OW 2143   5.064   0.023   3.807 -0.3325 -0.0564 -0.1733
  593SOL    HW2 2144   5.076  -0.040   3.736 -0.6890 -0.0014 -0.2869
  593SOL    HW3 2145   5.104   0.103   3.775  2.3554 -0.8460  0.9420
  593SOL    MW4 2146   5.071   0.025   3.794 -0.0249 -0.1533 -0.0412
  594SOL     OW 2147   3.170   5.731   2.469  0.1622  0.6075 -0.7050
  594SOL    HW2 2148   3.258   5.697   2.453 -0.5865 -2.0269  0.2032
  594SOL    HW3 2149   3.156   5.718   2.563 -1.2528  0.7632 -0.8676
  594SOL    MW4 2150   3.180   5.725   2.479 -0.1232  0.2805 -0.6066
  595SOL     OW 2151   4.465   4.884   3.357  0.1710 -0.2625 -0.2263
  595SOL    HW2 2152   4.397   4.869   3.423  0.7683  1.9840  1.0156
  595SOL    HW3 2153   4.508   4.800   3.347 -1.9016 -1.4063 -0.0262
  595SOL    MW4 2154   4.462   4.871   3.365 -0.0237 -0.1170 -0.0360
  596SOL     OW 2155   6.135   4.317   0.145  0.3954 -0.6471 -0.5828
  596SOL    HW2 2156   6.146   4.254   0.216  2.3261 -0.5850 -0.7618
  596SOL    HW3 2157   6.180   4.396   0.175 -3.0397  1.1979  0.1694
  596SOL    MW4 2158   6.142   4.319   0.158  0.1969 -0.3955 -0.5071
  597SOL     OW 2159   1.141   3.617   5.132 -0.7304  0.1124 -0.4846
  597SOL    HW2 2160   1.089   3.664   5.068 -1.0667 -0.1668 -0.4189
  597SOL    HW3 2161   1.149   3.528   5.097  0.0617  0.2563 -0.7012
  597SOL    MW4 2162   1.135   3.612   5.119 -0.6703  0.0946 -0.5045
  598SOL     OW 2163   2.670   0.032   1.117 -0.1920  0.2822 -0.2276
  598SOL    HW2 2164   2.661   0.109   1.173 -0.9406 -0.1044  0.1922
  598SOL    HW3 2165   2.626   0.055   1.036 -2.2987 -0.4309  0.6487
  598SOL    MW4 2166   2.663   0.045   1.114 -0.5687  0.1371 -0.0566
  599SOL     OW 2167   4.623   4.066   3.759  0.0535 -0.0487 -0.3902
  599SOL    HW2 2168   4.699   4.034   3.808 -0.2527  0.7005  0.6105
  599SOL    HW3 2169   4.635   4.031   3.671 -0.5206 -3.3869  0.7022
  599SOL    MW4 2170   4.634   4.057   3.754 -0.0626 -0.3903 -0.1140
  600SOL     OW 2171   0.058   5.692   3.683 -0.5332  0.1105 -0.0654
  600SOL    HW2 2172  -0.036   5.698   3.665 -0.3712 -0.0795 -1.0414
  600SOL    HW3 2173   0.082   5.780   3.712 -1.5549 -0.5608  3.1775
  600SOL    MW4 2174   0.048   5.705   3.684 -0.6467 -0.0032  0.2337
  601SOL     OW 2175   0.362   3.415   6.222 -0.3659 -0.1664  0.3276
  601SOL    HW2 2176   0.411   3.365   6.156  1.4335  1.7984  0.0455
  601SOL    HW3 2177   0.414   3.406   6.302 -0.1802  0.9593  0.3460
  601SOL    MW4 2178   0.376   3.407   6.224 -0.1040  0.2413  0.2928
  602SOL     OW 2179   1.747   2.427   4.182  0.5305 -0.2730 -0.1805
  602SOL    HW2 2180   1.833   2.467   4.191  0.7290 -0.6584 -0.3368
  602SOL    HW3 2181   1.691   2.497   4.148  0.9435 -0.2149 -0.7477
  602SOL    MW4 2182   1.751   2.442   4.179  0.6112 -0.3162 -0.2760
  603SOL     OW 2183   5.426   1.972   0.418  0.1994  0.3184 -0.3727
  603SOL    HW2 2184   5.485   2.048   0.414 -0.7931  1.1772  0.6862
  603SOL    HW3 2185   5.379   1.974   0.335  0.4513  0.6291 -0.5115
  603SOL    MW4 2186   5.428   1.983   0.406  0.1017  0.4727 -0.2513
  604SOL     OW 2187   5.008   4.261   3.563  0.2884  0.3578 -0.3273
  604SOL    HW2 2188   4.972   4.237   3.648  0.1926 -3.6689 -1.3263
  604SOL    HW3 2189   4.932   4.265   3.504  0.6546 -0.3149 -0.8665
  604SOL    MW4 2190   4.993   4.258   3.566  0.3241 -0.2622 -0.5302
  605SOL     OW 2191   2.420   2.641   4.930 -0.6747 -0.8376  0.3671
  605SOL    HW2 2192   2.462   2.556   4.941 -0.2560 -0.6419  0.2931
  605SOL    HW3 2193   2.435   2.663   4.838 -0.0615 -0.3049  0.5894
  605SOL    MW4 2194   2.427   2.632   4.919 -0.5386 -0.7415  0.3867
  606SOL     OW 2195   5.677   1.716   5.097  0.2229 -0.0078  0.4290
  606SOL    HW2 2196   5.688   1.700   5.003  0.6464 -1.0045  0.6384
  606SOL    HW3 2197   5.722   1.799   5.113 -2.4218  1.7858 -0.7800
  606SOL    MW4 2198   5.684   1.725   5.087 -0.0702  0.0974  0.2971
  607SOL     OW 2199   0.096   2.956   5.876  0.7282  0.3612 -1.0962
  607SOL    HW2 2200   0.166   2.908   5.833  0.8408  0.6616 -1.2494
  607SOL    HW3 2201   0.134   2.986   5.959 -0.4071 -3.0050  0.8788
  607SOL    MW4 2202   0.110   2.953   5.882  0.5933 -0.0433 -0.8559
  608SOL     OW 2203   3.893   2.172   1.806  0.0798 -0.0975  0.1251
  608SOL    HW2 2204   3.846   2.134   1.881  0.5039  1.0175  0.9764
  608SOL    HW3 2205   3.956   2.233   1.845  0.9666 -0.1970 -1.0994
  608SOL    MW4 2206   3.895   2.175   1.821  0.2528  0.0365  0.0758
  609SOL     OW 2207   0.105   1.958   1.930  0.0707  0.4455 -0.0011
  609SOL    HW2 2208   0.158   1.960   1.851  0.3702  0.6678  0.2033
  609SOL    HW3 2209   0.028   2.011   1.909 -1.1180 -1.5739 -1.0168
  609SOL    MW4 2210   0.102   1.965   1.917 -0.0466  0.2084 -0.1081
  610SOL     OW 2211   0.883   2.224   4.500  0.0101 -0.0917  0.0384
  610SOL    HW2 2212   0.891   2.311   4.539  2.1996 -0.2269  0.0317
  610SOL    HW3 2213   0.852   2.241   4.411  0.8473  0.7554 -0.1160
  610SOL    MW4 2214   0.880   2.238   4.494  0.4094  0.0022  0.0171
  611SOL     OW 2215   0.229   5.759   4.083  0.0203  0.1959 -0.1276
  611SOL    HW2 2216   0.300   5.768   4.019  0.7762  1.4213  0.8496
  611SOL    HW3 2217   0.270   5.775   4.167 -0.9646 -1.4100  0.7046
  611SOL    MW4 2218   0.244   5.762   4.085 -0.0099  0.1457  0.1112
  612SOL     OW 2219   2.192   4.603   3.609 -0.0564  0.2580 -0.0337
  612SOL    HW2 2220   2.259   4.559   3.557 -1.0036 -1.8429  0.4010
  612SOL    HW3 2221   2.190   4.554   3.691 -2.6322 -0.3195 -0.3358
  612SOL    MW4 2222   2.200   4.591   3.613 -0.5212 -0.0954 -0.0162
  613SOL     OW 2223   1.186   4.345   1.924  0.0570 -0.6268  0.3220
  613SOL    HW2 2224   1.195   4.252   1.946  0.0358 -1.0037 -1.1697
  613SOL    HW3 2225   1.254   4.361   1.859 -0.0596  0.3598  0.4309
  613SOL    MW4 2226   1.196   4.335   1.918  0.0388 -0.5464  0.1396
  614SOL     OW 2227   2.098   3.633   4.122 -0.1134  0.0960 -0.2224
  614SOL    HW2 2228   2.129   3.657   4.035  0.1099 -0.6570 -0.3618
  614SOL    HW3 2229   2.017   3.585   4.106  1.3489 -2.5660 -0.2754
  614SOL    MW4 2230   2.091   3.630   4.109  0.1090 -0.3545 -0.2478
  615SOL     OW 2231   4.214   5.826   5.104  0.6747  0.5223  0.1726
  615SOL    HW2 2232   4.162   5.795   5.030 -0.0149 -0.8958  1.2088
  615SOL    HW3 2233   4.254   5.907   5.072 -1.5517  1.2909 -0.9488
  615SOL    MW4 2234   4.212   5.833   5.090  0.2900  0.4366  0.1614
  616SOL     OW 2235   5.650   4.742   0.275  0.2627 -0.0808 -0.0485
  616SOL    HW2 2236   5.563   4.716   0.306 -0.3717  1.4542 -0.4612
  616SOL    HW3 2237   5.669   4.682   0.203 -0.8055  0.0680 -0.4673
  616SOL    MW4 2238   5.641   4.731   0.270  0.0381  0.1413 -0.1582
  617SOL     OW 2239   0.595   0.792   2.976 -0.1978 -0.4328  0.2726
  617SOL    HW2 2240   0.672   0.777   3.031 -0.0976 -1.5546 -0.1358
  617SOL    HW3 2241   0.521   0.764   3.030 -0.2137 -0.3585  0.2886
  617SOL    MW4 2242   0.595   0.786   2.990 -0.1867 -0.5710  0.2208
  618SOL     OW 2243   4.172   4.789   4.208  0.2322  0.2568 -0.1743
  618SOL    HW2 2244   4.258   4.819   4.235 -0.2927 -0.7636  2.9778
  618SOL    HW3 2245   4.124   4.869   4.188  1.0505  1.0289  0.8789
  618SOL    MW4 2246   4.177   4.803   4.209  0.2709  0.2240  0.3805
  619SOL     OW 2247   4.197   4.848   0.710  0.0530 -0.0779  0.2104
  619SOL    HW2 2248   4.235   4.786   0.648  1.2202  1.7407 -0.9901
  619SOL    HW3 2249   4.239   4.827   0.793  0.9624 -0.4674 -0.3223
  619SOL    MW4 2250   4.208   4.837   0.712  0.3270  0.1106 -0.0183
  620SOL     OW 2251   1.416   3.619   3.677 -0.1055  0.1396  0.0436
  620SOL    HW2 2252   1.468   3.699   3.689 -0.8970  0.7091 -0.1998
  620SOL    HW3 2253   1.481   3.550   3.664  0.6267  0.5706  1.2044
  620SOL    MW4 2254   1.432   3.621   3.677 -0.1133  0.2716  0.1646
  621SOL     OW 2255   4.614   1.410   5.177  0.2385  0.1793  0.0580
  621SOL    HW2 2256   4.668   1.364   5.241  2.0674  0.0207 -1.5218
  621SOL    HW3 2257   4.572   1.341   5.126  0.0098  0.3024  0.0762
  621SOL    MW4 2258   4.615   1.395   5.179  0.4496  0.1747 -0.1480
  622SOL     OW 2259   2.876   1.801   3.812 -0.5598  0.8568  0.3406
  622SOL    HW2 2260   2.966   1.797   3.845 -1.3260  1.9844  2.7694
  622SOL    HW3 2261   2.848   1.891   3.828 -2.0703  0.5816 -0.5789
  622SOL    MW4 2262   2.884   1.812   3.819 -0.8602  0.9692  0.5397
  623SOL     OW 2263   0.099   0.169   5.338 -0.0068 -0.2865  0.2298
  623SOL    HW2 2264   0.030   0.234   5.350 -0.6584 -1.1344  1.3431
  623SOL    HW3 2265   0.167   0.195   5.400 -0.1620 -0.5093  0.4989
  623SOL    MW4 2266   0.099   0.181   5.348 -0.1133 -0.4278  0.4122
  624SOL     OW 2267   4.981   3.474   6.016 -0.6764 -0.0451 -0.4708
  624SOL    HW2 2268   5.007   3.405   6.077 -0.2405 -0.1438 -0.7606
  624SOL    HW3 2269   5.007   3.555   6.058  3.8201 -0.2039 -2.3224
  624SOL    MW4 2270   4.988   3.475   6.030 -0.0256 -0.0791 -0.7533
  625SOL     OW 2271   1.571   4.569   2.642  0.7029 -0.3031 -0.3338
  625SOL    HW2 2272   1.505   4.549   2.575  0.5375  1.0120 -0.6043
  625SOL    HW3 2273   1.649   4.594   2.593  0.3859  1.2860 -0.0745
  625SOL    MW4 2274   1.572   4.570   2.627  0.6392  0.0801 -0.3353
  626SOL     OW 2275   5.520   1.192   3.575  0.4695  0.1420  0.6569
  626SOL    HW2 2276   5.579   1.123   3.543 -0.7782 -0.6053 -0.1240
  626SOL    HW3 2277   5.449   1.194   3.511 -1.1742 -0.0934  2.4153
  626SOL    MW4 2278   5.518   1.183   3.562  0.0880  0.0124  0.7859
  627SOL     OW 2279   5.491   4.688   4.773 -0.1613  0.0589  0.0644
  627SOL    HW2 2280   5.462   4.695   4.682 -2.2968 -1.4795  0.5615
  627SOL    HW3 2281   5.506   4.595   4.787  1.6412  0.4297  0.9027
  627SOL    MW4 2282   5.489   4.677   4.763 -0.2052 -0.0951  0.2406
  628SOL     OW 2283   4.591   0.706   1.783  0.3034 -0.1232 -0.1230
  628SOL    HW2 2284   4.505   0.664   1.780 -0.2459  0.9868 -2.2707
  628SOL    HW3 2285   4.572   0.800   1.784  1.5117  0.2178  3.2851
  628SOL    MW4 2286   4.577   0.713   1.783  0.3903  0.0683  0.0433
  629SOL     OW 2287   4.321   1.283   5.494  0.1067 -0.2253 -0.3149
  629SOL    HW2 2288   4.279   1.287   5.580  1.7852  1.4618  0.4957
  629SOL    HW3 2289   4.327   1.374   5.466  2.8233 -0.3798 -0.5167
  629SOL    MW4 2290   4.317   1.296   5.502  0.6866 -0.0231 -0.2346
  630SOL     OW 2291   1.202   3.886   2.686  0.1203  0.5448  0.3833
  630SOL    HW2 2292   1.148   3.957   2.720 -1.8271  0.2077 -1.7438
  630SOL    HW3 2293   1.284   3.892   2.735 -1.6885  1.2880  3.5629
  630SOL    MW4 2294   1.206   3.896   2.697 -0.3753  0.5984  0.5221
  631SOL     OW 2295   4.258   5.575   5.978 -0.2496 -0.1410  0.0361
  631SOL    HW2 2296   4.311   5.652   6.000  0.1003 -0.6840  1.1796
  631SOL    HW3 2297   4.322   5.510   5.950 -0.4441 -0.3852  0.1618
  631SOL    MW4 2298   4.274   5.577   5.977 -0.2291 -0.2448  0.2035
  632SOL     OW 2299   3.065   3.934   5.221  0.0526  0.3434 -0.2882
  632SOL    HW2 2300   3.148   3.950   5.267  0.7706 -1.5740 -0.8128
  632SOL    HW3 2301   3.086   3.951   5.129  0.1196 -0.9534 -0.5242
  632SOL    MW4 2302   3.079   3.938   5.215  0.1562 -0.0807 -0.3886
  633SOL     OW 2303   2.356   5.238   1.661 -0.3257 -0.3569 -0.1614
  633SOL    HW2 2304   2.426   5.209   1.719 -0.5033  0.1693  0.3316
  633SOL    HW3 2305   2.322   5.317   1.703 -0.2862  0.1837 -1.1270
  633SOL    MW4 2306   2.361   5.245   1.674 -0.3439 -0.2161 -0.2237
  634SOL     OW 2307   3.056   4.809   5.026  0.0694  0.3516 -0.1968
  634SOL    HW2 2308   3.076   4.718   5.005  0.8872  0.6829 -0.9079
  634SOL    HW3 2309   2.981   4.831   4.971  1.3663  0.8087 -1.8699
  634SOL    MW4 2310   3.048   4.800   5.016  0.3484  0.4556 -0.5114
  635SOL     OW 2311   2.466   2.945   1.199  0.1219 -0.1397 -0.1438
  635SOL    HW2 2312   2.399   2.944   1.131 -1.1468 -1.8326  1.0420
  635SOL    HW3 2313   2.537   2.891   1.164 -0.1451 -0.2752 -0.4799
  635SOL    MW4 2314   2.466   2.938   1.186 -0.0807 -0.3809 -0.0317
  636SOL     OW 2315   4.546   6.030   4.835  0.2065  0.7616  0.5548
  636SOL    HW2 2316   4.575   6.108   4.787 -0.7642 -0.0495 -1.4700
  636SOL    HW3 2317   4.515   5.970   4.767 -1.5243 -0.3699  2.2362
  636SOL    MW4 2318   4.546   6.032   4.820 -0.1499  0.5053  0.5095
  637SOL     OW 2319   3.899   1.675   5.564 -0.0297 -0.2727  0.4000
  637SOL    HW2 2320   3.882   1.630   5.482 -1.0050  1.6063 -0.5051
  637SOL    HW3 2321   3.817   1.719   5.586  0.8995  1.2796  1.0312
  637SOL    MW4 2322   3.886   1.675   5.556 -0.0358  0.1800  0.3639
  638SOL     OW 2323   0.153   4.459   0.096  0.4135 -0.0166  0.2382
  638SOL    HW2 2324   0.150   4.365   0.115  0.5271  0.0769  0.7384
  638SOL    HW3 2325   0.189   4.498   0.176 -0.9289  0.5928  0.5688
  638SOL    MW4 2326   0.157   4.452   0.109  0.2514  0.0762  0.3478
  639SOL     OW 2327   5.692   4.195   5.836 -0.0312  0.0104 -0.2385
  639SOL    HW2 2328   5.740   4.117   5.865  0.1332  0.0121 -0.5024
  639SOL    HW3 2329   5.730   4.216   5.751  1.4722  1.7214  0.8062
  639SOL    MW4 2330   5.703   4.187   5.828  0.1889  0.2364 -0.1355
  640SOL     OW 2331   6.366   3.004   3.526 -0.3224  0.2547 -0.1511
  640SOL    HW2 2332   6.414   3.086   3.516  0.4950 -0.2914 -0.8299
  640SOL    HW3 2333   6.352   2.974   3.437 -1.6462  0.2236  0.0470
  640SOL    MW4 2334   6.370   3.011   3.513 -0.3892  0.1785 -0.2145
  641SOL     OW 2335   5.965   1.674   1.629  0.8468  0.2044 -0.4671
  641SOL    HW2 2336   6.003   1.644   1.547  0.7039  0.4457 -0.6235
  641SOL    HW3 2337   5.957   1.595   1.683 -0.7090 -0.2862 -1.3320
  641SOL    MW4 2338   5.969   1.660   1.625  0.6226  0.1715 -0.6018
  642SOL     OW 2339   5.381   0.131   3.974 -0.3255 -0.2908 -0.8082
  642SOL    HW2 2340   5.327   0.162   4.047 -0.3007  0.8411 -1.2553
  642SOL    HW3 2341   5.382   0.204   3.912  0.7796 -0.7272 -1.3293
  642SOL    MW4 2342   5.374   0.145   3.975 -0.1764 -0.1990 -0.9360
  643SOL     OW 2343   2.832   2.097   5.060  0.2752 -0.0830 -0.2176
  643SOL    HW2 2344   2.927   2.100   5.052  0.1542 -0.9806 -3.4275
  643SOL    HW3 2345   2.800   2.126   4.974 -2.2771 -1.4053  0.1980
  643SOL    MW4 2346   2.840   2.101   5.047 -0.0775 -0.3759 -0.5863
  644SOL     OW 2347   4.695   3.010   2.821  0.3474  0.1862  0.5441
  644SOL    HW2 2348   4.746   3.065   2.761 -0.8053  0.8564  0.1542
  644SOL    HW3 2349   4.703   3.054   2.906 -0.0553  0.6142  0.3638
  644SOL    MW4 2350   4.703   3.023   2.824  0.1422  0.3311  0.4689
  645SOL     OW 2351   3.672   1.477   3.292  0.0228 -0.1774 -0.1744
  645SOL    HW2 2352   3.617   1.522   3.356  1.5986 -0.5904  1.5489
  645SOL    HW3 2353   3.627   1.394   3.276 -0.4284 -0.0322  0.3142
  645SOL    MW4 2354   3.659   1.472   3.298  0.1712 -0.2127  0.1174
  646SOL     OW 2355   2.938   1.223   6.435 -0.6485  0.0720  0.2169
  646SOL    HW2 2356   2.989   1.261   6.506  0.3181  1.6458 -1.2310
  646SOL    HW3 2357   3.003   1.208   6.366 -1.7755 -0.1052 -0.8303
  646SOL    MW4 2358   2.954   1.226   6.435 -0.6697  0.2563 -0.1123
  647SOL     OW 2359   6.302   5.352   3.320 -0.0489 -0.0389 -0.6727
  647SOL    HW2 2360   6.312   5.259   3.341  1.5893  0.3623  0.5712
  647SOL    HW3 2361   6.375   5.370   3.260  1.2740  0.9538  1.1278
  647SOL    MW4 2362   6.313   5.342   3.314  0.3418  0.1450 -0.2710
  648SOL     OW 2363   2.112   5.516   4.152  0.3182  0.5718 -0.4157
  648SOL    HW2 2364   2.022   5.541   4.130 -0.1374  0.0277  0.7498
  648SOL    HW3 2365   2.133   5.569   4.228  0.0603 -1.0953  0.8639
  648SOL    MW4 2366   2.103   5.526   4.159  0.2241  0.2801 -0.0931
  649SOL     OW 2367   3.217   3.633   4.754  0.6220  0.4123  0.3385
  649SOL    HW2 2368   3.130   3.663   4.729  1.4722  0.9536 -2.3041
  649SOL    HW3 2369   3.269   3.713   4.762  1.6422  0.0348 -1.6172
  649SOL    MW4 2370   3.212   3.647   4.751  0.8688  0.4339 -0.2682
  650SOL     OW 2371   1.692   2.652   3.744 -0.8103 -0.6052 -1.0622
  650SOL    HW2 2372   1.613   2.653   3.690 -1.2367 -0.4939 -0.4378
  650SOL    HW3 2373   1.707   2.559   3.762 -1.9082 -0.5224  0.4204
  650SOL    MW4 2374   1.683   2.640   3.739 -1.0114 -0.5796 -0.7842
  651SOL     OW 2375   3.400   0.094   1.727 -0.2572  0.0394  0.4743
  651SOL    HW2 2376   3.312   0.056   1.719 -0.7288  1.1052  0.4981
  651SOL    HW3 2377   3.406   0.157   1.656  0.9305 -0.8174 -0.2325
  651SOL    MW4 2378   3.389   0.097   1.717 -0.1627  0.0670  0.3842
  652SOL     OW 2379   2.802   6.254   0.857  0.3800  0.0874 -0.3392
  652SOL    HW2 2380   2.833   6.197   0.786  0.0351 -0.2046 -0.2592
  652SOL    HW3 2381   2.725   6.209   0.892  0.9733 -0.1573  0.7099
  652SOL    MW4 2382   2.796   6.240   0.852  0.4128  0.0166 -0.1903
  653SOL     OW 2383   6.128   2.160   4.330  0.2920 -0.1719  0.5484
  653SOL    HW2 2384   6.137   2.202   4.245 -0.5178 -1.4436 -0.1782
  653SOL    HW3 2385   6.218   2.157   4.365  0.4379  1.6578  0.4096
  653SOL    MW4 2386   6.141   2.165   4.324  0.2044 -0.0983  0.4343
  654SOL     OW 2387   2.776   4.121   0.188 -0.0266  0.2199 -0.2440
  654SOL    HW2 2388   2.785   4.210   0.223 -1.2073  0.6046 -0.8506
  654SOL    HW3 2389   2.685   4.116   0.159  0.7416 -0.2003 -2.8529
  654SOL    MW4 2390   2.765   4.132   0.189 -0.0811  0.2152 -0.6682
  655SOL     OW 2391   6.253   4.628   5.048  0.5281  0.0387  0.3956
  655SOL    HW2 2392   6.191   4.662   5.113  1.1480 -1.2566  1.7229
  655SOL    HW3 2393   6.211   4.550   5.013  1.0653 -0.4184  0.7487
  655SOL    MW4 2394   6.239   4.622   5.052  0.6808 -0.1925  0.6173
  656SOL     OW 2395   2.079   4.563   1.264 -0.2902 -1.0869 -0.2709
  656SOL    HW2 2396   2.156   4.595   1.312  0.8842 -1.2102 -1.9710
  656SOL    HW3 2397   2.029   4.514   1.329 -0.1201  0.8954  1.4425
  656SOL    MW4 2398   2.083   4.561   1.279 -0.1128 -0.8416 -0.2691
  657SOL     OW 2399   4.390   1.186   3.372 -0.2769 -0.3388  0.2257
  657SOL    HW2 2400   4.363   1.212   3.284 -0.7539 -1.2756  0.0758
  657SOL    HW3 2401   4.322   1.124   3.400  0.9215 -1.6010  0.4425
  657SOL    MW4 2402   4.377   1.181   3.364 -0.1817 -0.6289  0.2345
  658SOL     OW 2403   0.104   0.784   0.526 -0.4611 -0.0863  1.0951
  658SOL    HW2 2404   0.060   0.712   0.572 -0.1145 -0.9828  0.0753
  658SOL    HW3 2405   0.069   0.863   0.566 -1.1461 -0.8132  1.9884
  658SOL    MW4 2406   0.094   0.785   0.538 -0.5058 -0.3005  1.0784
  659SOL     OW 2407   3.187   3.290   3.301  0.2471  0.4085  0.4636
  659SOL    HW2 2408   3.176   3.384   3.317  1.2214  0.6204 -0.0123
  659SOL    HW3 2409   3.281   3.279   3.287 -0.1464 -0.2319 -2.0613
  659SOL    MW4 2410   3.198   3.301   3.301  0.3237  0.3520  0.0677
  660SOL     OW 2411   0.496   1.371   3.783 -0.0131 -0.2134  0.6910
  660SOL    HW2 2412   0.526   1.460   3.761 -1.1646  0.2326  0.8751
  660SOL    HW3 2413   0.474   1.376   3.876 -1.9530 -0.1435  0.2572
  660SOL    MW4 2414   0.497   1.384   3.793 -0.4210 -0.1453  0.6581
  661SOL     OW 2415   1.554   3.099   3.680 -0.5283 -0.7533  0.5438
  661SOL    HW2 2416   1.487   3.168   3.679 -0.4082 -0.6373 -0.2176
  661SOL    HW3 2417   1.545   3.056   3.595  1.6172  0.5058 -0.3979
  661SOL    MW4 2418   1.544   3.103   3.669 -0.2294 -0.5719  0.3191
  662SOL     OW 2419   0.721   3.707   1.234 -0.4568  0.3044  0.3374
  662SOL    HW2 2420   0.636   3.738   1.201 -0.8129 -0.1137  0.8275
  662SOL    HW3 2421   0.737   3.760   1.312 -0.4572  0.1255  0.4608
  662SOL    MW4 2422   0.712   3.718   1.240 -0.5038  0.2256  0.4184
  663SOL     OW 2423   0.629   2.135   5.235  0.2093 -0.6414  0.0951
  663SOL    HW2 2424   0.649   2.076   5.163  0.2557 -0.0345 -0.3928
  663SOL    HW3 2425   0.602   2.077   5.306  2.3285 -1.4231  0.3469
  663SOL    MW4 2426   0.628   2.119   5.235  0.4951 -0.6645  0.0639
  664SOL     OW 2427   1.566   2.750   0.457 -0.4713  0.6869 -0.0416
  664SOL    HW2 2428   1.521   2.712   0.533  1.2251 -0.8571  0.2588
  664SOL    HW3 2429   1.630   2.810   0.496 -0.1085  0.4556 -0.2787
  664SOL    MW4 2430   1.569   2.753   0.472 -0.1996  0.4527 -0.0333
  665SOL     OW 2431   5.107   5.703   5.739  0.2702  0.4637  0.1708
  665SOL    HW2 2432   5.102   5.713   5.644  1.6136 -1.3214 -0.1515
  665SOL    HW3 2433   5.195   5.667   5.754 -0.3643 -0.4499  1.9631
  665SOL    MW4 2434   5.118   5.699   5.729  0.3637  0.1076  0.3648
  666SOL     OW 2435   4.677   2.675   1.154 -0.0520 -0.0924  0.2778
  666SOL    HW2 2436   4.663   2.622   1.075  0.0549 -1.1353  0.9362
  666SOL    HW3 2437   4.609   2.646   1.214 -0.0592  0.6135  0.6181
  666SOL    MW4 2438   4.666   2.664   1.151 -0.0389 -0.1369  0.4096
  667SOL     OW 2439   5.777   6.239   0.203 -0.1720 -0.1224 -0.3865
  667SOL    HW2 2440   5.828   6.318   0.219 -0.4226 -0.2647  1.3264
  667SOL    HW3 2441   5.812   6.204   0.121  2.1769  0.0267  0.4673
  667SOL    MW4 2442   5.788   6.245   0.194  0.1049 -0.1215 -0.0479
  668SOL     OW 2443   3.506   0.075   3.647  0.2124  0.4208 -0.0283
  668SOL    HW2 2444   3.535   0.107   3.732 -0.0239 -0.4536  0.3954
  668SOL    HW3 2445   3.471  -0.013   3.665  1.0370 -0.1656 -1.1717
  668SOL    MW4 2446   3.505   0.068   3.660  0.2900  0.2280 -0.1233
  669SOL     OW 2447   6.183   0.406   2.975 -0.1355 -0.3812  0.0796
  669SOL    HW2 2448   6.265   0.442   2.943 -0.0942  0.2703  0.8819
  669SOL    HW3 2449   6.204   0.315   2.997  0.7544  0.1290  1.5413
  669SOL    MW4 2450   6.197   0.399   2.974 -0.0126 -0.2279  0.3783
  670SOL     OW 2451   6.360   3.333   5.991  0.0013  0.1873  0.0278
  670SOL    HW2 2452   6.418   3.407   6.009  0.2708  0.5577 -2.0800
  670SOL    HW3 2453   6.361   3.281   6.072  4.2354 -0.4997 -0.2413
  670SOL    MW4 2454   6.368   3.336   6.004  0.5955  0.1455 -0.2858
  671SOL     OW 2455   2.353   3.919   0.109  0.1150  0.4108  0.0947
  671SOL    HW2 2456   2.387   3.869   0.183 -0.4159  1.1265  0.8395
  671SOL    HW3 2457   2.259   3.902   0.111  0.0497  0.7460 -0.1753
  671SOL    MW4 2458   2.345   3.910   0.119  0.0363  0.5495  0.1574
  672SOL     OW 2459   2.172   2.288   1.037 -0.2863  0.0732 -0.4087
  672SOL    HW2 2460   2.254   2.261   1.077 -0.8403 -0.3038  0.5132
  672SOL    HW3 2461   2.197   2.328   0.954  0.8006 -0.3002 -0.2728
  672SOL    MW4 2462   2.186   2.289   1.031 -0.2160 -0.0258 -0.2691
  673SOL     OW 2463   2.305   3.739   4.854 -0.5203  0.1343 -0.0373
  673SOL    HW2 2464   2.387   3.788   4.846 -1.0885  1.1704  0.3075
  673SOL    HW3 2465   2.287   3.708   4.766 -0.5618  1.2448 -0.4301
  673SOL    MW4 2466   2.314   3.742   4.842 -0.6007  0.4175 -0.0436
  674SOL     OW 2467   3.957   6.223   2.937 -0.2058  0.2812  0.4245
  674SOL    HW2 2468   4.015   6.148   2.921  1.0018  0.9954  1.2647
  674SOL    HW3 2469   3.943   6.222   3.032 -0.8602  0.6415  0.3349
  674SOL    MW4 2470   3.963   6.213   2.947 -0.1328  0.4230  0.5235
  675SOL     OW 2471   3.746   5.208   1.061 -0.1615 -0.3498 -0.3357
  675SOL    HW2 2472   3.815   5.269   1.036  0.3386 -1.1872 -1.0508
  675SOL    HW3 2473   3.746   5.209   1.156 -0.4904  1.1142 -0.3185
  675SOL    MW4 2474   3.755   5.216   1.070 -0.1389 -0.2671 -0.4278
  676SOL     OW 2475   3.147   3.580   2.277  0.1569 -0.2209 -0.1175
  676SOL    HW2 2476   3.231   3.593   2.320  0.7299  0.8533 -1.4596
  676SOL    HW3 2477   3.145   3.488   2.253  1.4209 -0.0534 -0.9523
  676SOL    MW4 2478   3.157   3.570   2.279  0.3993 -0.0571 -0.4047
  677SOL     OW 2479   5.307   3.413   2.822 -0.3874 -0.3970 -0.2606
  677SOL    HW2 2480   5.379   3.472   2.797 -0.3611 -0.2382  0.1904
  677SOL    HW3 2481   5.237   3.472   2.849 -0.7665 -0.5467 -0.9023
  677SOL    MW4 2482   5.308   3.429   2.822 -0.4340 -0.3958 -0.2858
  678SOL     OW 2483   3.544   2.328   2.443 -0.2069 -0.0672  0.2667
  678SOL    HW2 2484   3.581   2.416   2.434  4.4928 -1.4567  2.3306
  678SOL    HW3 2485   3.537   2.295   2.354  2.5370  0.9366 -0.4303
  678SOL    MW4 2486   3.548   2.335   2.430  0.7752 -0.1181  0.4470
  679SOL     OW 2487   3.817   0.337   3.811  0.0836  0.1121  0.4667
  679SOL    HW2 2488   3.780   0.372   3.730  0.6337 -0.8264 -0.2128
  679SOL    HW3 2489   3.751   0.274   3.842 -0.5578  1.1473  1.2791
  679SOL    MW4 2490   3.803   0.333   3.805  0.0715  0.1249  0.4842
  680SOL     OW 2491   2.625   6.187   2.710 -0.3365 -0.2095 -0.7488
  680SOL    HW2 2492   2.647   6.265   2.660 -1.0045 -0.0848 -0.8525
  680SOL    HW3 2493   2.556   6.144   2.660 -2.3136  0.8479  0.9072
  680SOL    MW4 2494   2.619   6.191   2.697 -0.6855 -0.0535 -0.5440
  681SOL     OW 2495   2.197   3.983   5.854  0.3222  0.1255  0.1472
  681SOL    HW2 2496   2.218   4.076   5.841  2.4796 -0.4190 -0.7034
  681SOL    HW3 2497   2.130   3.964   5.789  0.7712  0.8227 -0.5367
  681SOL    MW4 2498   2.191   3.993   5.843  0.6661  0.1456 -0.0553
  682SOL     OW 2499   3.386   0.352   4.311 -0.2602 -0.1044 -0.4202
  682SOL    HW2 2500   3.474   0.390   4.304  0.0175 -0.9785 -2.0906
  682SOL    HW3 2501   3.397   0.276   4.367 -0.2826  0.6508  0.6482
  682SOL    MW4 2502   3.399   0.347   4.317 -0.2265 -0.1201 -0.4996
  683SOL     OW 2503   2.144   0.721   1.664  0.2983 -0.2549  0.5799
  683SOL    HW2 2504   2.109   0.708   1.576  0.6285  0.1451  0.3870
  683SOL    HW3 2505   2.155   0.632   1.699 -0.4606 -0.3936  0.4725
  683SOL    MW4 2506   2.141   0.707   1.657  0.2417 -0.2204  0.5403
  684SOL     OW 2507   1.037   2.928   5.693  0.1039 -0.6881 -0.5105
  684SOL    HW2 2508   1.021   2.962   5.606 -0.9268 -0.3283 -0.1908
  684SOL    HW3 2509   1.022   2.833   5.685 -2.9457 -0.3473 -0.1310
  684SOL    MW4 2510   1.033   2.920   5.681 -0.4345 -0.5957 -0.4183
  685SOL     OW 2511   3.199   1.644   6.234  0.2019 -0.1641 -0.5500
  685SOL    HW2 2512   3.121   1.591   6.248  1.1721 -1.5114  0.0186
  685SOL    HW3 2513   3.166   1.732   6.216 -1.4312 -0.7232 -0.4204
  685SOL    MW4 2514   3.185   1.648   6.234  0.1145 -0.4157 -0.4579
  686SOL     OW 2515   3.881   1.526   1.877 -0.0700  0.2207  0.4272
  686SOL    HW2 2516   3.946   1.507   1.944 -0.1613  2.4329  1.2306
  686SOL    HW3 2517   3.797   1.521   1.923 -0.2476  0.2245  0.1038
  686SOL    MW4 2518   3.879   1.523   1.892 -0.1055  0.5131  0.4906
  687SOL     OW 2519   3.717   4.237   6.390 -0.1884 -0.0289 -0.0184
  687SOL    HW2 2520   3.749   4.158   6.433  1.9008  0.5051 -0.4466
  687SOL    HW3 2521   3.668   4.283   6.458 -0.7215 -1.2759  0.4702
  687SOL    MW4 2522   3.715   4.233   6.405  0.0169 -0.1230 -0.0104
  688SOL     OW 2523   6.176   5.395   3.843  0.1362 -0.2778 -0.1202
  688SOL    HW2 2524   6.180   5.319   3.785 -0.4782 -0.4119  0.0045
  688SOL    HW3 2525   6.132   5.462   3.791  1.3472  0.2522 -0.4999
  688SOL    MW4 2526   6.171   5.394   3.828  0.2149 -0.2256 -0.1538
  689SOL     OW 2527   0.679   2.330   0.228 -0.2210  0.1996  0.1612
  689SOL    HW2 2528   0.615   2.260   0.216 -0.9641  1.0423 -1.1309
  689SOL    HW3 2529   0.763   2.290   0.205 -0.8214  0.0640 -2.0759
  689SOL    MW4 2530   0.681   2.316   0.223 -0.3983  0.2929 -0.3044
  690SOL     OW 2531   1.713   0.019   1.986 -0.3247  0.5220 -0.1466
  690SOL    HW2 2532   1.645   0.000   2.050 -1.5251  2.7948 -0.6426
  690SOL    HW3 2533   1.795   0.011   2.035 -0.9705 -1.0652  0.7712
  690SOL    MW4 2534   1.715   0.015   2.001 -0.5683  0.6125 -0.0909
  691SOL     OW 2535   1.465   5.262   1.076  0.4768  0.2732  0.1459
  691SOL    HW2 2536   1.403   5.216   1.019  3.3217 -1.1424 -2.0547
  691SOL    HW3 2537   1.486   5.342   1.028  2.3319 -0.5661 -0.5189
  691SOL    MW4 2538   1.459   5.266   1.062  1.0969 -0.0243 -0.2322
  692SOL     OW 2539   1.114   1.709   6.274  0.0721 -0.0707 -0.3747
  692SOL    HW2 2540   1.049   1.673   6.334  0.1856 -0.7243 -0.6355
  692SOL    HW3 2541   1.073   1.704   6.188  0.9638 -1.7843 -0.7389
  692SOL    MW4 2542   1.100   1.704   6.270  0.2047 -0.3830 -0.4572
  693SOL     OW 2543   3.142   1.427   2.540  0.3601 -0.4955 -0.2538
  693SOL    HW2 2544   3.091   1.368   2.484  0.2570 -0.3523 -0.3104
  693SOL    HW3 2545   3.127   1.514   2.503 -1.7809 -0.0310  1.4746
  693SOL    MW4 2546   3.133   1.431   2.528  0.0640 -0.4153 -0.0332
  694SOL     OW 2547   2.561   2.071   4.468  0.0940 -0.6356 -0.2123
  694SOL    HW2 2548   2.505   2.081   4.545 -0.9129  0.1308 -1.0076
  694SOL    HW3 2549   2.504   2.033   4.401  0.0187  1.5698 -1.5251
  694SOL    MW4 2550   2.546   2.067   4.469 -0.0488 -0.2435 -0.4905
  695SOL     OW 2551   1.991   4.603   4.236  0.0065 -0.1405 -0.1632
  695SOL    HW2 2552   1.959   4.576   4.322  0.1199 -0.4725 -0.2242
  695SOL    HW3 2553   1.947   4.686   4.219 -0.1916 -0.1883  0.1146
  695SOL    MW4 2554   1.981   4.610   4.245 -0.0047 -0.1906 -0.1346
  696SOL     OW 2555   4.331   0.510   5.068  0.1326 -0.3459 -0.0483
  696SOL    HW2 2556   4.242   0.547   5.064 -0.3122 -1.4958 -1.3822
  696SOL    HW3 2557   4.317   0.418   5.088  0.9641 -0.7691 -1.3744
  696SOL    MW4 2558   4.317   0.503   5.070  0.1836 -0.5534 -0.3992
  697SOL     OW 2559   5.172   5.270   1.229 -0.1445 -0.0493  0.3687
  697SOL    HW2 2560   5.108   5.330   1.268 -0.8062 -0.5685  0.1007
  697SOL    HW3 2561   5.246   5.326   1.206 -0.8106  0.6925 -0.0277
  697SOL    MW4 2562   5.173   5.285   1.231 -0.3197 -0.0199  0.2811
  698SOL     OW 2563   1.296   2.756   5.438 -0.4413  0.5640 -0.4921
  698SOL    HW2 2564   1.318   2.848   5.448  2.0173  0.0802 -0.8041
  698SOL    HW3 2565   1.228   2.755   5.370 -0.1923  2.1061 -0.8048
  698SOL    MW4 2566   1.290   2.768   5.430 -0.0840  0.7036 -0.5745
  699SOL     OW 2567   5.579   4.621   4.286 -0.1782 -0.1872 -0.0284
  699SOL    HW2 2568   5.564   4.546   4.229 -0.8743 -1.2742  1.5147
  699SOL    HW3 2569   5.616   4.583   4.366 -1.0736  1.0365  1.0015
  699SOL    MW4 2570   5.582   4.606   4.289 -0.3882 -0.1692  0.3110
  700SOL     OW 2571   2.375   2.524   2.548  0.1974 -0.2364  0.0948
  700SOL    HW2 2572   2.308   2.496   2.485  0.7836  1.6210 -1.4564
  700SOL    HW3 2573   2.437   2.576   2.496  1.7923 -0.2614  1.8539
  700SOL    MW4 2574   2.375   2.527   2.533  0.4852  0.0054  0.1222
  701SOL     OW 2575   1.525   3.869   3.129 -0.3570  0.0154  0.3680
  701SOL    HW2 2576   1.522   3.806   3.201  1.5243 -0.4584  0.0954
  701SOL    HW3 2577   1.556   3.950   3.170 -0.9886  0.2438  0.3951
  701SOL    MW4 2578   1.529   3.871   3.144 -0.1921 -0.0169  0.3356
  702SOL     OW 2579   1.256   1.565   3.453  0.2346 -0.2131 -0.1124
  702SOL    HW2 2580   1.265   1.580   3.547  0.4557 -0.4722 -0.0918
  702SOL    HW3 2581   1.336   1.519   3.428  0.1967 -0.1074 -0.4362
  702SOL    MW4 2582   1.268   1.561   3.462  0.2588 -0.2334 -0.1524
  703SOL     OW 2583   3.619   0.301   5.963  0.5839  0.0383  1.1577
  703SOL    HW2 2584   3.593   0.216   5.925  0.4065 -0.1110  1.6005
  703SOL    HW3 2585   3.539   0.334   6.003  0.5639  0.5920  0.6773
  703SOL    MW4 2586   3.605   0.294   5.963  0.5579  0.0917  1.1527
  704SOL     OW 2587   1.597   5.221   4.667 -0.0494 -0.0729  0.8194
  704SOL    HW2 2588   1.620   5.242   4.757 -1.3877 -0.4380  1.2746
  704SOL    HW3 2589   1.660   5.269   4.614  2.0287 -1.3835  1.9458
  704SOL    MW4 2590   1.608   5.230   4.672  0.0482 -0.2940  1.0281
  705SOL     OW 2591   5.213   4.459   4.607 -0.7065 -0.0004 -0.0848
  705SOL    HW2 2592   5.244   4.487   4.521 -1.1722 -0.6607 -0.4757
  705SOL    HW3 2593   5.194   4.541   4.653  2.0061  0.4656  0.3623
  705SOL    MW4 2594   5.214   4.474   4.602 -0.4101 -0.0260 -0.0774
  706SOL     OW 2595   3.495   5.748   3.347  0.4955  0.0772 -0.1855
  706SOL    HW2 2596   3.453   5.780   3.267  1.5282  1.9886 -0.0435
  706SOL    HW3 2597   3.466   5.809   3.415  0.7040 -0.7011  0.6156
  706SOL    MW4 2598   3.486   5.761   3.345  0.6593  0.2267 -0.0610
  707SOL     OW 2599   1.586   4.668   1.812 -0.1515  0.6779  0.0394
  707SOL    HW2 2600   1.656   4.702   1.757 -0.4057  1.1346 -0.0067
  707SOL    HW3 2601   1.628   4.604   1.868  0.3341  1.0753  0.1294
  707SOL    MW4 2602   1.600   4.664   1.812 -0.1210  0.7906  0.0452
  708SOL     OW 2603   6.088   5.225   3.446 -0.2957 -0.6439  0.2818
  708SOL    HW2 2604   6.061   5.189   3.361  0.3800 -0.6918  0.0797
  708SOL    HW3 2605   6.155   5.290   3.423 -1.0593  0.3166  0.6799
  708SOL    MW4 2606   6.093   5.229   3.432 -0.3073 -0.5235  0.3077
  709SOL     OW 2607   5.899   1.739   2.733  0.6685  0.7949  0.0738
  709SOL    HW2 2608   5.975   1.682   2.744 -0.5475 -1.0715 -0.6551
  709SOL    HW3 2609   5.913   1.782   2.649  0.2058 -0.8184 -0.8814
  709SOL    MW4 2610   5.911   1.737   2.724  0.4470  0.3358 -0.1484
  710SOL     OW 2611   2.973   5.098   0.933 -0.3796 -0.0310 -0.0191
  710SOL    HW2 2612   2.945   5.187   0.913 -0.1203 -0.2420 -1.4158
  710SOL    HW3 2613   3.016   5.105   1.018 -1.0662  1.0194  0.2650
  710SOL    MW4 2614   2.975   5.111   0.942 -0.4360  0.0797 -0.1659
  711SOL     OW 2615   5.752   1.329   4.585 -0.4267  0.3313 -0.0572
  711SOL    HW2 2616   5.752   1.247   4.535  0.8433  0.1157  0.2615
  711SOL    HW3 2617   5.679   1.319   4.646  0.1170 -0.8865  0.4453
  711SOL    MW4 2618   5.742   1.317   4.587 -0.1874  0.1422  0.0511
  712SOL     OW 2619   4.250   1.335   0.037 -0.0264  0.2247  0.2399
  712SOL    HW2 2620   4.320   1.400   0.028 -1.4751  1.7288 -0.8454
  712SOL    HW3 2621   4.285   1.256  -0.003  0.8914  1.0941 -0.7251
  712SOL    MW4 2622   4.264   1.333   0.030 -0.0964  0.5378 -0.0306
  713SOL     OW 2623   1.006   0.125   6.249 -0.3925  0.1468 -0.1459
  713SOL    HW2 2624   1.074   0.192   6.239  0.8665 -0.4161  3.2840
  713SOL    HW3 2625   0.932   0.172   6.288 -0.2166 -0.0665  0.4607
  713SOL    MW4 2626   1.005   0.140   6.253 -0.2032  0.0444  0.3867
  714SOL     OW 2627   1.411   3.662   0.678 -0.2377  0.1888  0.3179
  714SOL    HW2 2628   1.420   3.600   0.751  0.3084  0.2366  0.2894
  714SOL    HW3 2629   1.491   3.652   0.627 -0.6446  0.0962 -0.3284
  714SOL    MW4 2630   1.423   3.652   0.681 -0.2194  0.1829  0.2288
  715SOL     OW 2631   3.869   2.625   4.291  0.1059 -0.3264  0.7250
  715SOL    HW2 2632   3.877   2.681   4.368  2.0033  2.0520 -1.0200
  715SOL    HW3 2633   3.775   2.620   4.274 -0.2855 -0.0836  2.5749
  715SOL    MW4 2634   3.858   2.632   4.299  0.3046  0.0195  0.7388
  716SOL     OW 2635   3.974   4.657   1.056  0.3128 -0.2503 -0.2142
  716SOL    HW2 2636   3.958   4.577   1.005  0.1400 -0.6047  0.3931
  716SOL    HW3 2637   3.901   4.714   1.033 -0.3559 -0.8229  0.4505
  716SOL    MW4 2638   3.962   4.654   1.046  0.2018 -0.3726 -0.0464
  717SOL     OW 2639   0.592   1.156   5.869  0.0375  0.3628 -0.2627
  717SOL    HW2 2640   0.632   1.088   5.816  1.9496  1.0037  0.2625
  717SOL    HW3 2641   0.519   1.188   5.817  2.8860  2.2627 -3.5010
  717SOL    MW4 2642   0.588   1.151   5.855  0.6656  0.6980 -0.6207
  718SOL     OW 2643   2.149   0.738   0.516  0.0238  0.2064  0.0243
  718SOL    HW2 2644   2.155   0.831   0.535 -0.0397  0.4256 -0.9862
  718SOL    HW3 2645   2.114   0.734   0.427 -1.4161 -0.8005  0.5986
  718SOL    MW4 2646   2.145   0.750   0.507 -0.1746  0.1024 -0.0332
  719SOL     OW 2647   5.824   1.259   0.474 -0.1304  0.0236  0.1398
  719SOL    HW2 2648   5.850   1.171   0.448 -0.4595  0.0338 -0.2316
  719SOL    HW3 2649   5.877   1.317   0.418  0.5495  0.0809  0.8176
  719SOL    MW4 2650   5.835   1.255   0.463 -0.0841  0.0325  0.1802
  720SOL     OW 2651   6.372   3.864   3.645 -0.2941 -1.3754 -0.4805
  720SOL    HW2 2652   6.429   3.804   3.598 -1.3932 -1.4907 -1.7329
  720SOL    HW3 2653   6.416   3.949   3.638  0.1779 -1.6276 -0.6090
  720SOL    MW4 2654   6.385   3.868   3.638 -0.3769 -1.4239 -0.6627
  721SOL     OW 2655   2.327   6.123   0.349 -0.3411  0.2902 -0.2574
  721SOL    HW2 2656   2.351   6.093   0.262 -0.6766 -2.6831  0.5833
  721SOL    HW3 2657   2.409   6.123   0.399 -0.5383 -0.4915  0.0780
  721SOL    MW4 2658   2.341   6.119   0.344 -0.4114 -0.2052 -0.1022
  722SOL     OW 2659   0.910   0.603   3.550 -0.6055 -0.2100  0.1073
  722SOL    HW2 2660   0.975   0.587   3.618 -0.1817  2.2273  0.3376
  722SOL    HW3 2661   0.826   0.602   3.595 -0.3042  1.7108  0.7824
  722SOL    MW4 2662   0.908   0.601   3.565 -0.5099  0.3650  0.2268
  723SOL     OW 2663   1.465   1.217   1.097  0.1207  0.2890 -0.7784
  723SOL    HW2 2664   1.496   1.269   1.023 -1.8653  2.1774 -0.3921
  723SOL    HW3 2665   1.387   1.172   1.064  0.5416 -0.7100 -0.4561
  723SOL    MW4 2666   1.458   1.218   1.083 -0.0858  0.4063 -0.6849
  724SOL     OW 2667   4.589   5.741   1.626 -0.7509  0.1687 -0.0699
  724SOL    HW2 2668   4.599   5.721   1.533 -0.6673 -0.9396  0.1609
  724SOL    HW3 2669   4.663   5.798   1.647 -0.4366 -0.0548 -0.5572
  724SOL    MW4 2670   4.600   5.746   1.617 -0.6984 -0.0070 -0.1037
  725SOL     OW 2671   4.574   3.597   3.165  0.1898  0.8332 -0.2051
  725SOL    HW2 2672   4.607   3.682   3.138  2.4528  0.4749  1.2053
  725SOL    HW3 2673   4.650   3.551   3.201 -0.8314 -1.9751 -1.3054
  725SOL    MW4 2674   4.589   3.602   3.166  0.3537  0.4154 -0.1642
  726SOL     OW 2675   5.491   6.352   2.884  0.2395  0.3985  0.2829
  726SOL    HW2 2676   5.572   6.318   2.847  1.7826  2.2567  1.7262
  726SOL    HW3 2677   5.517   6.390   2.968 -2.8608 -2.9118  3.1409
  726SOL    MW4 2678   5.505   6.352   2.890  0.0341  0.2069  0.8504
  727SOL     OW 2679   5.789   3.799   2.862  0.0775  0.5426 -0.3097
  727SOL    HW2 2680   5.871   3.820   2.907 -0.7112  0.5062  1.2111
  727SOL    HW3 2681   5.733   3.876   2.877 -1.0739 -0.4859  0.9984
  727SOL    MW4 2682   5.792   3.812   2.870 -0.1784  0.4021  0.0635
  728SOL     OW 2683   0.246   0.415   0.636  0.0875  0.6548 -0.0655
  728SOL    HW2 2684   0.295   0.334   0.653 -2.0756 -0.3490  2.0841
  728SOL    HW3 2685   0.235   0.455   0.723 -2.1299  1.2266 -0.5386
  728SOL    MW4 2686   0.251   0.409   0.650 -0.4904  0.5978  0.1557
  729SOL     OW 2687   0.081   3.609   4.343  0.4317  0.3512  0.6525
  729SOL    HW2 2688   0.050   3.629   4.255  0.9350 -1.2405  0.0815
  729SOL    HW3 2689   0.170   3.575   4.330  0.8463  0.9140  1.8646
  729SOL    MW4 2690   0.089   3.607   4.330  0.5528  0.2155  0.7371
  730SOL     OW 2691   4.166   0.833   5.399 -0.2312  0.4561  0.9114
  730SOL    HW2 2692   4.156   0.786   5.482 -2.0041  0.2782  0.6484
  730SOL    HW3 2693   4.260   0.838   5.385  0.0556 -2.7598  1.1102
  730SOL    MW4 2694   4.177   0.828   5.408 -0.4272  0.0084  0.9029
  731SOL     OW 2695   2.118   2.121   3.152  0.7151  0.6923 -0.1532
  731SOL    HW2 2696   2.167   2.142   3.072  1.2608  1.0688  0.2780
  731SOL    HW3 2697   2.117   2.203   3.202 -1.6568  1.1609 -0.8086
  731SOL    MW4 2698   2.124   2.135   3.148  0.4741  0.8038 -0.1828
  732SOL     OW 2699   3.593   1.014   0.724 -0.2529  0.0032  0.1390
  732SOL    HW2 2700   3.554   0.988   0.641 -1.8694  0.5442  0.6967
  732SOL    HW3 2701   3.540   1.088   0.754  1.4981  1.0734  0.7255
  732SOL    MW4 2702   3.581   1.020   0.717 -0.2352  0.2158  0.2900
  733SOL     OW 2703   1.231   6.278   4.830 -0.2930  0.1867 -0.3703
  733SOL    HW2 2704   1.139   6.268   4.854  0.2205 -0.8156  1.3232
  733SOL    HW3 2705   1.265   6.343   4.890  0.4144 -0.4339 -0.0799
  733SOL    MW4 2706   1.223   6.285   4.841 -0.1319 -0.0274 -0.1085
  734SOL     OW 2707   1.279   5.500   2.112 -0.5433 -0.1962  0.4154
  734SOL    HW2 2708   1.356   5.554   2.133  0.4846 -1.2480 -0.5061
  734SOL    HW3 2709   1.312   5.434   2.051 -1.5807 -2.2747  1.9615
  734SOL    MW4 2710   1.294   5.498   2.107 -0.5445 -0.6092  0.4978
  735SOL     OW 2711   1.840   0.509   5.849  0.3313  0.3914 -0.0684
  735SOL    HW2 2712   1.764   0.487   5.904  0.9642 -1.3757  0.1634
  735SOL    HW3 2713   1.909   0.531   5.912  0.3648  0.7872 -0.2419
  735SOL    MW4 2714   1.839   0.509   5.865  0.4192  0.2104 -0.0607
  736SOL     OW 2715   4.233   5.333   1.656  0.0792  0.1900  0.3146
  736SOL    HW2 2716   4.285   5.414   1.661 -0.2925  0.4485 -0.0172
  736SOL    HW3 2717   4.296   5.263   1.675  0.6980  0.4465 -0.7270
  736SOL    MW4 2718   4.248   5.334   1.659  0.1118  0.2580  0.1334
  737SOL     OW 2719   2.008   1.124   0.426  0.0070  0.2097 -0.4564
  737SOL    HW2 2720   2.065   1.200   0.439  1.4572 -0.9199 -0.0920
  737SOL    HW3 2721   2.008   1.079   0.510 -0.7112 -0.3000 -0.7218
  737SOL    MW4 2722   2.015   1.128   0.439  0.1036 -0.0066 -0.4434
  738SOL     OW 2723   0.013   3.206   2.779  0.0708 -0.0189 -0.7780
  738SOL    HW2 2724  -0.022   3.136   2.834  2.3278 -0.4923  0.1583
  738SOL    HW3 2725   0.094   3.171   2.743  0.6545  1.6974 -1.2338
  738SOL    MW4 2726   0.019   3.192   2.782  0.4456  0.1451 -0.7146
  739SOL     OW 2727   3.921   0.834   5.142  0.5547 -0.4841 -0.1235
  739SOL    HW2 2728   3.868   0.761   5.174 -2.3581  1.3650 -0.3751
  739SOL    HW3 2729   3.887   0.853   5.055 -0.3903  2.4953  0.7573
  739SOL    MW4 2730   3.909   0.827   5.135  0.0457  0.1530 -0.0405
  740SOL     OW 2731   4.106   5.235   1.954 -0.4678 -0.0344 -0.1182
  740SOL    HW2 2732   4.021   5.270   1.981 -0.2413 -0.0368  0.6194
  740SOL    HW3 2733   4.165   5.310   1.957  0.0914 -0.4977  1.7839
  740SOL    MW4 2734   4.103   5.249   1.958 -0.3641 -0.0959  0.2301
  741SOL     OW 2735   4.531   4.818   5.877 -0.2568  0.0315 -0.1065
  741SOL    HW2 2736   4.517   4.724   5.876  2.6031 -0.5056 -0.7334
  741SOL    HW3 2737   4.598   4.832   5.944  0.4359  1.3866 -1.0272
  741SOL    MW4 2738   4.538   4.808   5.886  0.2119  0.1394 -0.3107
  742SOL     OW 2739   5.706   2.060   2.695 -0.6972  0.2094 -0.3273
  742SOL    HW2 2740   5.640   1.992   2.685 -0.8498  0.0661  1.4653
  742SOL    HW3 2741   5.783   2.026   2.649 -1.0332 -0.8040 -0.1521
  742SOL    MW4 2742   5.708   2.047   2.687 -0.7617  0.0568 -0.0677
  743SOL     OW 2743   3.569   5.995   1.892  0.1160  0.2998  0.1449
  743SOL    HW2 2744   3.483   6.025   1.920  0.1612 -0.9239  1.7226
  743SOL    HW3 2745   3.629   6.029   1.958  0.3599 -1.8042  1.0703
  743SOL    MW4 2746   3.566   6.003   1.904  0.1541 -0.1393  0.4751
  744SOL     OW 2747   4.354   4.194   3.681 -0.0194 -0.3385  0.2987
  744SOL    HW2 2748   4.293   4.229   3.746  0.1468 -1.0288  0.8417
  744SOL    HW3 2749   4.431   4.169   3.732  0.2099 -0.6622 -0.2034
  744SOL    MW4 2750   4.356   4.195   3.697  0.0328 -0.4723  0.3041
  745SOL     OW 2751   3.293   2.717   5.992  0.4478  0.6493  0.0422
  745SOL    HW2 2752   3.236   2.738   5.919  1.2359 -0.9150 -1.0595
  745SOL    HW3 2753   3.357   2.789   5.994  1.1203  0.1369 -1.5725
  745SOL    MW4 2754   3.294   2.730   5.983  0.6405  0.3753 -0.3162
  746SOL     OW 2755   1.255   2.815   2.513 -0.0748 -0.1000  0.1982
  746SOL    HW2 2756   1.169   2.804   2.473 -0.4453 -0.0614  0.9745
  746SOL    HW3 2757   1.288   2.726   2.524 -0.9023 -0.2458  1.7839
  746SOL    MW4 2758   1.248   2.802   2.509 -0.2329 -0.1142  0.5098
  747SOL     OW 2759   1.674   0.991   6.140 -0.0982  0.0998  0.2180
  747SOL    HW2 2760   1.673   0.897   6.119 -2.6521  0.3030 -0.8908
  747SOL    HW3 2761   1.631   0.996   6.225  1.7925  0.1534  1.2255
  747SOL    MW4 2762   1.669   0.979   6.148 -0.1857  0.1337  0.2046
  748SOL     OW 2763   5.803   0.638   5.045  0.1513  0.2001 -0.2610
  748SOL    HW2 2764   5.769   0.710   5.099  0.3244  1.2948 -1.5593
  748SOL    HW3 2765   5.725   0.598   5.007  0.1695  1.7503 -2.0388
  748SOL    MW4 2766   5.788   0.642   5.048  0.1765  0.5491 -0.6668
  749SOL     OW 2767   3.045   2.220   1.333  0.6705  0.0972 -0.4879
  749SOL    HW2 2768   3.066   2.310   1.357 -1.1670  0.6561 -0.8613
  749SOL    HW3 2769   2.952   2.221   1.312  0.5087 -1.9702 -0.1333
  749SOL    MW4 2770   3.035   2.232   1.334  0.4067 -0.1019 -0.4904
  750SOL     OW 2771   0.230   5.315   0.456  0.1411  0.7479  0.0137
  750SOL    HW2 2772   0.227   5.220   0.448  0.5871  0.6738  0.6490
  750SOL    HW3 2773   0.194   5.347   0.373  0.4774  0.0343 -0.4204
  750SOL    MW4 2774   0.225   5.307   0.444  0.2443  0.6439  0.0403
  751SOL     OW 2775   0.465   0.409   2.158  0.1753 -0.2473 -0.2770
  751SOL    HW2 2776   0.558   0.431   2.151 -0.0910  1.2763  0.5816
  751SOL    HW3 2777   0.432   0.422   2.069  0.4595  0.8737 -0.2335
  751SOL    MW4 2778   0.473   0.413   2.145  0.1777  0.1016 -0.1579
  752SOL     OW 2779   4.696   4.522   5.269  0.1093  0.3747 -0.0946
  752SOL    HW2 2780   4.706   4.532   5.174 -0.8508 -2.8413 -0.6316
  752SOL    HW3 2781   4.637   4.447   5.280  1.2457 -0.2064  3.0614
  752SOL    MW4 2782   4.689   4.514   5.258  0.1326 -0.1263  0.2510
  753SOL     OW 2783   5.190   3.303   5.480 -0.1370  0.4822  0.2451
  753SOL    HW2 2784   5.184   3.383   5.428 -0.5528 -0.0114 -0.4761
  753SOL    HW3 2785   5.184   3.232   5.416 -2.8544 -0.1965  1.1295
  753SOL    MW4 2786   5.189   3.304   5.465 -0.5504  0.3275  0.2667
  754SOL     OW 2787   3.384   1.199   4.743 -0.6193  0.5644  0.4030
  754SOL    HW2 2788   3.355   1.167   4.829  0.8002 -0.6770  0.4698
  754SOL    HW3 2789   3.387   1.120   4.689 -0.3496  1.1448 -0.4408
  754SOL    MW4 2790   3.381   1.184   4.747 -0.3964  0.4772  0.3005
  755SOL     OW 2791   0.779   5.321   2.627  0.0572  0.4106 -0.4705
  755SOL    HW2 2792   0.828   5.368   2.694 -0.2099 -0.0148  0.0305
  755SOL    HW3 2793   0.703   5.285   2.673  0.2882 -0.5585 -0.8200
  755SOL    MW4 2794   0.776   5.323   2.642  0.0524  0.2267 -0.4505
  756SOL     OW 2795   0.133   3.190   5.575 -0.4092  0.6954  0.6629
  756SOL    HW2 2796   0.095   3.234   5.499  0.4241  1.3719  0.6219
  756SOL    HW3 2797   0.059   3.175   5.633 -1.3388 -1.2074 -0.9002
  756SOL    MW4 2798   0.119   3.194   5.572 -0.4219  0.5336  0.4513
  757SOL     OW 2799   2.395   3.137   4.510 -0.6627 -0.0661  0.9524
  757SOL    HW2 2800   2.403   3.149   4.415  2.3490 -2.4143  0.7610
  757SOL    HW3 2801   2.425   3.220   4.547 -0.4303  0.3597 -0.1644
  757SOL    MW4 2802   2.400   3.150   4.502 -0.2347 -0.3197  0.7798
  758SOL     OW 2803   0.141   2.952   4.858 -0.6545 -0.2728  0.2717
  758SOL    HW2 2804   0.054   2.966   4.821 -0.5872 -1.3018 -0.3051
  758SOL    HW3 2805   0.124   2.910   4.942 -0.7425  0.5985  0.7070
  758SOL    MW4 2806   0.127   2.949   4.864 -0.6572 -0.2936  0.2530
  759SOL     OW 2807   4.496   1.142   4.144 -0.2617  0.0822 -1.0385
  759SOL    HW2 2808   4.421   1.192   4.112 -2.5450 -3.1324 -1.2330
  759SOL    HW3 2809   4.462   1.094   4.220  0.9878 -2.8387 -2.1890
  759SOL    MW4 2810   4.482   1.142   4.150 -0.3981 -0.7273 -1.2160
  760SOL     OW 2811   1.899   2.430   0.742 -0.0830  0.3956  0.4316
  760SOL    HW2 2812   1.859   2.360   0.794  2.6934 -2.0570 -0.4729
  760SOL    HW3 2813   1.826   2.469   0.695 -2.0523 -0.3472  2.6922
  760SOL    MW4 2814   1.884   2.426   0.743  0.0235 -0.0260  0.6105
  761SOL     OW 2815   3.044   5.912   5.154 -0.0883  0.2013 -0.0410
  761SOL    HW2 2816   3.075   5.844   5.094 -3.3681  0.3543 -2.1848
  761SOL    HW3 2817   2.987   5.967   5.100 -0.8854  2.1498  2.5833
  761SOL    MW4 2818   3.040   5.910   5.139 -0.6262  0.4786  0.0224
  762SOL     OW 2819   0.329   6.251   2.202 -0.2364 -0.8070  0.0553
  762SOL    HW2 2820   0.258   6.293   2.252  0.1389 -0.3765  0.2307
  762SOL    HW3 2821   0.387   6.216   2.269 -0.8134 -2.0813 -0.0869
  762SOL    MW4 2822   0.327   6.252   2.217 -0.2630 -0.9184  0.0597
  763SOL     OW 2823   2.990   3.459   2.865  0.7792 -0.6544  0.0091
  763SOL    HW2 2824   3.078   3.497   2.862  0.5915 -0.2531 -0.9207
  763SOL    HW3 2825   2.974   3.441   2.958  1.5386 -0.0256  0.2692
  763SOL    MW4 2826   2.999   3.461   2.877  0.8546 -0.5185 -0.0793
  764SOL     OW 2827   0.701   4.173   0.364  0.0808 -0.0501  0.6610
  764SOL    HW2 2828   0.673   4.106   0.301 -0.1109  1.0964 -0.5286
  764SOL    HW3 2829   0.738   4.124   0.437  2.4700 -1.4576 -1.3349
  764SOL    MW4 2830   0.702   4.158   0.365  0.3708 -0.0845  0.2407
  765SOL     OW 2831   5.012   1.667   2.717 -0.0729 -0.2803  0.5298
  765SOL    HW2 2832   5.027   1.579   2.683  3.4600  1.1304 -2.1397
  765SOL    HW3 2833   5.040   1.663   2.808  1.2333 -1.6350  0.0941
  765SOL    MW4 2834   5.017   1.655   2.724  0.5656 -0.2729  0.1201
  766SOL     OW 2835   6.004   0.271   5.903 -0.0953 -0.1060  0.3501
  766SOL    HW2 2836   5.923   0.226   5.926 -0.0934 -0.0050  0.5576
  766SOL    HW3 2837   5.978   0.338   5.840 -0.1730 -0.0810  0.4088
  766SOL    MW4 2838   5.990   0.274   5.898 -0.1053 -0.0894  0.3852
  767SOL     OW 2839   1.428   6.307   3.482  1.0429 -0.6439 -0.1084
  767SOL    HW2 2840   1.500   6.366   3.458  0.5861  0.5375  1.3006
  767SOL    HW3 2841   1.359   6.364   3.515  0.9716 -2.0105  2.3348
  767SOL    MW4 2842   1.428   6.322   3.483  0.9732 -0.6684  0.3999
  768SOL     OW 2843   0.910   2.083   0.661 -0.7519  0.4362 -0.0798
  768SOL    HW2 2844   0.920   2.107   0.753 -1.3634  1.1038 -0.1771
  768SOL    HW3 2845   0.989   2.033   0.640 -1.0550 -0.5607  1.0646
  768SOL    MW4 2846   0.922   2.080   0.670 -0.8726  0.3928  0.0583
  769SOL     OW 2847   2.316   3.800   2.927 -0.5031 -0.0344 -0.6018
  769SOL    HW2 2848   2.233   3.760   2.901 -0.8399 -0.0881  0.5336
  769SOL    HW3 2849   2.383   3.746   2.884 -1.0449  0.4378 -2.1175
  769SOL    MW4 2850   2.314   3.787   2.918 -0.6190  0.0208 -0.6519
  770SOL     OW 2851   4.858   4.747   5.625  0.0028 -0.1526 -0.0299
  770SOL    HW2 2852   4.918   4.776   5.693 -0.5046  1.5881 -0.2855
  770SOL    HW3 2853   4.837   4.657   5.648  1.3510 -0.2217  1.0183
  770SOL    MW4 2854   4.863   4.739   5.637  0.1137  0.0680  0.0747
  771SOL     OW 2855   3.150   1.760   3.852 -0.1264 -0.1718 -0.4168
  771SOL    HW2 2856   3.211   1.833   3.842 -1.0891  0.9122  1.1748
  771SOL    HW3 2857   3.184   1.709   3.925  0.8547 -1.6973 -1.8822
  771SOL    MW4 2858   3.162   1.763   3.860 -0.1239 -0.2300 -0.4002
  772SOL     OW 2859   5.307   5.298   6.138  0.6498  0.5740 -0.3530
  772SOL    HW2 2860   5.309   5.324   6.230  0.2879  0.3237 -0.2687
  772SOL    HW3 2861   5.362   5.220   6.134  0.8817  0.7419 -0.3985
  772SOL    MW4 2862   5.314   5.291   6.150  0.6327  0.5631 -0.3478
  773SOL     OW 2863   6.311   3.873   1.954  0.2613 -0.5072 -0.1879
  773SOL    HW2 2864   6.350   3.864   2.040  0.4675  1.9736  0.0513
  773SOL    HW3 2865   6.362   3.941   1.911 -2.3647  1.3365 -0.6571
  773SOL    MW4 2866   6.323   3.881   1.959 -0.0579  0.0634 -0.2182
  774SOL     OW 2867   5.694   3.128   4.931  0.2450 -0.2519  0.1623
  774SOL    HW2 2868   5.640   3.153   5.006  0.6839  0.6672  0.1783
  774SOL    HW3 2869   5.740   3.208   4.907  0.7818 -0.7640 -0.5332
  774SOL    MW4 2870   5.693   3.142   4.938  0.3737 -0.1982  0.0727
  775SOL     OW 2871   0.254   1.965   3.470 -0.1324  0.5801 -0.0734
  775SOL    HW2 2872   0.250   2.051   3.429 -0.8862 -0.0289 -1.3235
  775SOL    HW3 2873   0.340   1.931   3.445  0.8651  1.5784  1.7724
  775SOL    MW4 2874   0.265   1.972   3.461 -0.1003  0.6314  0.0052
  776SOL     OW 2875   4.121   0.109   1.840 -0.1170 -0.3133 -0.3804
  776SOL    HW2 2876   4.182   0.183   1.847 -0.2367 -0.3484  2.0878
  776SOL    HW3 2877   4.171   0.041   1.795  1.7408 -0.3406  1.5353
  776SOL    MW4 2878   4.136   0.110   1.835  0.1123 -0.3215  0.1980
  777SOL     OW 2879   1.443   5.169   3.678 -0.2846 -0.3959 -0.2667
  777SOL    HW2 2880   1.486   5.234   3.623  0.4269  0.5912  1.3893
  777SOL    HW3 2881   1.480   5.085   3.650  0.5957  0.1634 -0.8009
  777SOL    MW4 2882   1.453   5.167   3.667 -0.0746 -0.1919 -0.1187
  778SOL     OW 2883   2.823   4.488   2.666  0.3193  0.3382  0.1699
  778SOL    HW2 2884   2.842   4.451   2.752 -0.7538 -2.0213 -0.5366
  778SOL    HW3 2885   2.906   4.525   2.637  1.1706 -0.5316  1.4094
  778SOL    MW4 2886   2.836   4.488   2.674  0.2900 -0.0879  0.2402
  779SOL     OW 2887   5.282   4.114   2.336 -0.4036  0.2673  0.1860
  779SOL    HW2 2888   5.266   4.207   2.320 -1.8336 -0.0412 -0.2457
  779SOL    HW3 2889   5.261   4.101   2.429 -0.4838  0.3144  0.1741
  779SOL    MW4 2890   5.277   4.124   2.346 -0.6029  0.2328  0.1275
  780SOL     OW 2891  -0.001   6.009   2.263 -0.1069 -0.1734 -0.0662
  780SOL    HW2 2892   0.073   6.040   2.317 -1.4912  0.6883  1.4418
  780SOL    HW3 2893  -0.068   6.076   2.275 -1.6581 -1.6409 -0.2237
  780SOL    MW4 2894   0.000   6.022   2.272 -0.4942 -0.2534  0.1120
  781SOL     OW 2895   5.479   3.002   1.657 -0.1911  0.7204  0.4512
  781SOL    HW2 2896   5.405   3.044   1.700 -1.9788 -1.6789 -0.0928
  781SOL    HW3 2897   5.466   3.019   1.564  0.2317  0.6740  0.3797
  781SOL    MW4 2898   5.468   3.010   1.651 -0.3712  0.3977  0.3700
  782SOL     OW 2899   2.861   3.632   4.961  0.1951 -0.2824  0.1047
  782SOL    HW2 2900   2.802   3.565   4.995  0.4523 -1.3555 -1.4568
  782SOL    HW3 2901   2.933   3.583   4.922  0.6800  0.9285 -0.5868
  782SOL    MW4 2902   2.863   3.617   4.961  0.2930 -0.2642 -0.1925
  783SOL     OW 2903   0.487   4.718   0.448  0.0746 -0.3709  0.3077
  783SOL    HW2 2904   0.578   4.695   0.467  0.1293  0.1828  0.7108
  783SOL    HW3 2905   0.441   4.703   0.530 -0.5532 -2.3572 -0.3322
  783SOL    MW4 2906   0.493   4.713   0.461 -0.0010 -0.5599  0.2764
  784SOL     OW 2907   5.998   1.967   2.865 -0.2724 -0.1434 -0.0584
  784SOL    HW2 2908   6.086   1.949   2.833  0.1566 -1.0744  1.5472
  784SOL    HW3 2909   5.944   1.901   2.822  0.2877 -1.3325  0.9912
  784SOL    MW4 2910   6.002   1.956   2.855 -0.1419 -0.4232  0.2919
  785SOL     OW 2911   2.089   3.590   1.938 -0.6819 -0.1530  0.0598
  785SOL    HW2 2912   2.176   3.570   1.905 -0.7669 -1.8709  0.7400
  785SOL    HW3 2913   2.097   3.677   1.977  0.2670  0.4504 -1.3944
  785SOL    MW4 2914   2.101   3.598   1.939 -0.5679 -0.3001 -0.0423
  786SOL     OW 2915   2.794   2.348   0.534  0.1909 -0.1053  0.2519
  786SOL    HW2 2916   2.828   2.271   0.578  0.1054 -0.3478 -0.1047
  786SOL    HW3 2917   2.704   2.357   0.568 -0.5000 -1.3103 -1.1444
  786SOL    MW4 2918   2.786   2.339   0.544  0.0885 -0.2963  0.0206
  787SOL     OW 2919   0.664   5.406   1.472 -0.1803  0.6749  0.1323
  787SOL    HW2 2920   0.575   5.439   1.458 -0.1734  0.7549  0.2741
  787SOL    HW3 2921   0.652   5.315   1.500 -0.3523  1.3529  2.5241
  787SOL    MW4 2922   0.650   5.398   1.474 -0.2021  0.7749  0.4666
  788SOL     OW 2923   2.350   0.584   1.292  0.2417 -0.5128  0.2867
  788SOL    HW2 2924   2.266   0.538   1.300  0.1058 -0.0548  1.7662
  788SOL    HW3 2925   2.340   0.661   1.348  0.7982  0.8483 -1.4134
  788SOL    MW4 2926   2.338   0.588   1.300  0.2972 -0.2728  0.2576
  789SOL     OW 2927   3.883   1.822   6.177 -0.1413  0.2026 -0.2558
  789SOL    HW2 2928   3.802   1.772   6.172 -0.4578  0.7996 -1.5896
  789SOL    HW3 2929   3.953   1.758   6.161 -0.5484  0.1665 -2.0818
  789SOL    MW4 2930   3.882   1.807   6.174 -0.2368  0.2766 -0.6727
  790SOL     OW 2931   6.118   0.104   3.041  0.3106  0.6194  0.2746
  790SOL    HW2 2932   6.199   0.054   3.036 -0.3217 -0.5670  1.2014
  790SOL    HW3 2933   6.049   0.038   3.049 -1.0688  1.4584 -3.0052
  790SOL    MW4 2934   6.119   0.089   3.042  0.0452  0.5736 -0.0359
  791SOL     OW 2935   3.765   1.436   3.758  0.2308  0.2228  0.1058
  791SOL    HW2 2936   3.677   1.471   3.774  0.7285  2.7865 -2.1528
  791SOL    HW3 2937   3.770   1.424   3.663  2.5851  0.9893  0.0606
  791SOL    MW4 2938   3.754   1.439   3.748  0.6071  0.6622 -0.1981
  792SOL     OW 2939   2.134   2.740   1.753  0.1343  0.7386  0.6995
  792SOL    HW2 2940   2.089   2.657   1.771 -0.2857  0.2109 -2.3617
  792SOL    HW3 2941   2.063   2.803   1.739  0.4361  1.1228  0.8779
  792SOL    MW4 2942   2.119   2.737   1.754  0.1187  0.7197  0.3191
  793SOL     OW 2943   3.854   0.899   5.901 -0.3617 -0.5297  0.0892
  793SOL    HW2 2944   3.930   0.853   5.936 -0.8203  0.5222  2.7234
  793SOL    HW3 2945   3.885   0.937   5.819  1.0519 -2.4899 -0.3602
  793SOL    MW4 2946   3.868   0.898   5.895 -0.2357 -0.6496  0.3775
  794SOL     OW 2947   0.437   5.894   4.246  0.3283  0.5230 -0.0812
  794SOL    HW2 2948   0.464   5.970   4.298  1.7021  0.6379 -0.9249
  794SOL    HW3 2949   0.442   5.924   4.156 -0.9641 -0.0137 -0.3544
  794SOL    MW4 2950   0.441   5.908   4.241  0.3391  0.4673 -0.2286
  795SOL     OW 2951   4.361   3.702   0.153 -0.0736 -0.1663 -0.8754
  795SOL    HW2 2952   4.419   3.627   0.136 -0.8239 -0.8654 -0.4041
  795SOL    HW3 2953   4.419   3.778   0.150  1.0362 -0.9182  0.4782
  795SOL    MW4 2954   4.376   3.702   0.150 -0.0262 -0.3577 -0.6346
  796SOL     OW 2955   1.386   1.624   0.641  0.0369 -0.7998  0.2277
  796SOL    HW2 2956   1.312   1.668   0.601  0.7283 -1.6411 -2.1779
  796SOL    HW3 2957   1.356   1.534   0.654 -0.0593 -0.6216  1.3639
  796SOL    MW4 2958   1.373   1.618   0.637  0.1154 -0.8873  0.0602
  797SOL     OW 2959   2.828   0.928   0.910  0.1125  0.0911 -0.2480
  797SOL    HW2 2960   2.781   0.897   0.833  0.1896  1.1503 -0.7374
  797SOL    HW3 2961   2.772   0.902   0.984 -0.0318 -0.7933 -0.6549
  797SOL    MW4 2962   2.814   0.921   0.910  0.1036  0.1141 -0.3663
  798SOL     OW 2963   4.704   5.063   1.726 -0.5075 -0.1918 -0.1622
  798SOL    HW2 2964   4.617   5.103   1.727  0.0403  1.0662  1.3012
  798SOL    HW3 2965   4.732   5.062   1.818  0.6041 -1.5410 -0.4737
  798SOL    MW4 2966   4.697   5.068   1.738 -0.2886 -0.2038 -0.0102
  799SOL     OW 2967   5.041   4.934   6.065 -0.0346  0.4185 -0.2366
  799SOL    HW2 2968   4.951   4.928   6.033 -0.5476 -0.3019  1.2248
  799SOL    HW3 2969   5.032   4.964   6.156  1.1348 -0.3481  0.1604
  799SOL    MW4 2970   5.028   4.937   6.073  0.0520  0.2223  0.0086
  800SOL     OW 2971   2.411   4.336   5.220 -0.2479  0.0016 -0.2235
  800SOL    HW2 2972   2.478   4.296   5.277  1.6813  0.0340 -2.3073
  800SOL    HW3 2973   2.461   4.377   5.150 -2.4765  0.6248 -1.5496
  800SOL    MW4 2974   2.427   4.336   5.218 -0.2874  0.0881 -0.6734
  801SOL     OW 2975   3.059   3.872   4.093  0.0479  0.1925  0.2963
  801SOL    HW2 2976   3.008   3.894   4.172  0.0236 -0.4581  0.4682
  801SOL    HW3 2977   3.147   3.855   4.126  0.3321  1.0827  0.0288
  801SOL    MW4 2978   3.064   3.873   4.108  0.0822  0.2241  0.2837
  802SOL     OW 2979   3.210   1.731   1.934  0.0048 -0.3380  0.1044
  802SOL    HW2 2980   3.149   1.792   1.977  0.8071 -0.8852  2.1593
  802SOL    HW3 2981   3.295   1.752   1.972  0.8939 -0.4673 -1.7368
  802SOL    MW4 2982   3.213   1.742   1.945  0.2280 -0.4272  0.1326
  803SOL     OW 2983   1.724   5.836   1.961 -0.0150  0.1372 -0.0176
  803SOL    HW2 2984   1.656   5.782   1.921 -0.1712  0.0559  0.3567
  803SOL    HW3 2985   1.717   5.818   2.055  0.9052 -0.3268 -0.0247
  803SOL    MW4 2986   1.714   5.826   1.968  0.0858  0.0653  0.0309
  804SOL     OW 2987   3.211   1.821   5.164  0.3459 -0.2878  0.4988
  804SOL    HW2 2988   3.242   1.759   5.099 -0.4375  0.5041 -0.6627
  804SOL    HW3 2989   3.161   1.768   5.226  1.6448 -1.1454  0.8548
  804SOL    MW4 2990   3.208   1.806   5.164  0.4139 -0.2965  0.3925
  805SOL     OW 2991   5.245   4.145   2.677  0.0313 -0.0796  0.0672
  805SOL    HW2 2992   5.188   4.074   2.647 -1.1584  0.7728  0.2626
  805SOL    HW3 2993   5.332   4.120   2.646 -0.8886  0.0376 -2.8283
  805SOL    MW4 2994   5.249   4.132   2.669 -0.2470  0.0483 -0.2890
  806SOL     OW 2995   2.497   1.572   5.208  0.2737  1.1106 -0.1397
  806SOL    HW2 2996   2.436   1.646   5.212 -0.1555  0.7391  0.3034
  806SOL    HW3 2997   2.534   1.576   5.120 -1.1728  0.7177 -0.7935
  806SOL    MW4 2998   2.494   1.582   5.197  0.0262  1.0097 -0.1675
  807SOL     OW 2999   0.600   0.287   5.561  0.0846 -0.2443  0.5395
  807SOL    HW2 3000   0.651   0.359   5.599 -0.0332  0.1248  0.0265
  807SOL    HW3 3001   0.544   0.330   5.496 -0.5593 -0.7023  0.7821
  807SOL    MW4 3002   0.600   0.302   5.557 -0.0159 -0.2560  0.5038
  808SOL     OW 3003   5.286   3.800   4.789  0.4333 -0.0835  0.1441
  808SOL    HW2 3004   5.199   3.837   4.776  0.4902  0.0937  0.2564
  808SOL    HW3 3005   5.306   3.817   4.881  0.4427 -0.4352  0.2072
  808SOL    MW4 3006   5.277   3.807   4.800  0.4420 -0.1065  0.1673
  809SOL     OW 3007   0.863   6.329   0.692 -0.3786 -0.4400 -0.6584
  809SOL    HW2 3008   0.782   6.291   0.725 -1.2717  1.3268 -0.6719
  809SOL    HW3 3009   0.839   6.372   0.610  0.6477 -0.2002 -0.8591
  809SOL    MW4 3010   0.849   6.330   0.686 -0.3610 -0.1752 -0.6866
  810SOL     OW 3011   1.389   1.546   5.409 -0.2810 -0.0644  0.1029
  810SOL    HW2 3012   1.440   1.505   5.479 -0.8917 -1.1735 -0.0829
  810SOL    HW3 3013   1.405   1.640   5.420 -0.2821 -0.2234  1.6624
  810SOL    MW4 3014   1.398   1.553   5.420 -0.3617 -0.2317  0.2841
  811SOL     OW 3015   1.489   4.227   6.063 -0.1583  0.0184  0.5987
  811SOL    HW2 3016   1.556   4.171   6.103  0.3877 -0.1493 -0.5312
  811SOL    HW3 3017   1.438   4.260   6.138  0.1496 -1.1571  1.3559
  811SOL    MW4 3018   1.491   4.224   6.078 -0.0456 -0.1588  0.5495
  812SOL     OW 3019   1.462   3.520   0.968  0.0630  0.2507  0.2538
  812SOL    HW2 3020   1.400   3.447   0.973  0.8482 -0.4306  0.2840
  812SOL    HW3 3021   1.548   3.478   0.964  0.6364  1.1866  1.8819
  812SOL    MW4 3022   1.466   3.505   0.968  0.2422  0.2843  0.4726
  813SOL     OW 3023   0.249   4.276   6.278 -0.6042  0.5726 -0.6662
  813SOL    HW2 3024   0.254   4.346   6.213  1.3508  0.7773 -0.3508
  813SOL    HW3 3025   0.193   4.311   6.347  1.1304  2.2655 -0.0448
  813SOL    MW4 3026   0.242   4.290   6.278 -0.1174  0.8230 -0.5426
  814SOL     OW 3027   5.661   4.964   3.466  0.5364  0.3006  0.3906
  814SOL    HW2 3028   5.680   5.027   3.397 -0.3999  1.3670  1.0720
  814SOL    HW3 3029   5.681   4.879   3.427 -0.4449  0.8276 -1.3825
  814SOL    MW4 3030   5.666   4.961   3.452  0.2834  0.5109  0.2466
  815SOL     OW 3031   2.942   5.774   4.037  0.1457 -0.0061  0.4569
  815SOL    HW2 3032   2.943   5.700   4.097 -1.5638 -0.4321  0.0107
  815SOL    HW3 3033   3.025   5.768   3.990 -0.5780 -2.6159 -0.6879
  815SOL    MW4 3034   2.953   5.764   4.039 -0.1753 -0.4066  0.2469
  816SOL     OW 3035   0.209   2.621   1.747 -0.1104 -0.0678 -0.6571
  816SOL    HW2 3036   0.188   2.662   1.830  0.2611 -2.4436  0.6987
  816SOL    HW3 3037   0.301   2.644   1.731 -0.6409  1.7586 -1.3183
  816SOL    MW4 3038   0.218   2.630   1.756 -0.1314 -0.1403 -0.5655
  817SOL     OW 3039   0.397   3.747   3.964  0.2476  0.2252  0.2558
  817SOL    HW2 3040   0.341   3.746   3.886 -0.2488  1.2399  0.5775
  817SOL    HW3 3041   0.466   3.811   3.944  1.0548 -0.7067  0.0280
  817SOL    MW4 3042   0.399   3.756   3.951  0.2886  0.2361  0.2682
  818SOL     OW 3043   2.626   5.321   6.060 -0.1887 -0.2566 -0.1441
  818SOL    HW2 3044   2.612   5.318   5.966 -2.3329 -0.3887  0.1260
  818SOL    HW3 3045   2.558   5.380   6.093 -1.6094 -2.6672  1.6097
  818SOL    MW4 3046   2.615   5.328   6.052 -0.6590 -0.5921  0.1229
  819SOL     OW 3047   0.963   1.323   4.648  0.3147  0.1326  0.1998
  819SOL    HW2 3048   1.058   1.332   4.661  0.3847  1.0602 -0.8189
  819SOL    HW3 3049   0.938   1.402   4.600 -0.9176 -0.2895  0.1233
  819SOL    MW4 3050   0.972   1.335   4.643  0.1613  0.1993  0.0553
  820SOL     OW 3051   1.983   5.543   0.897  0.4885 -0.5512  0.6517
  820SOL    HW2 3052   1.932   5.533   0.977 -1.4490  0.9639 -0.3034
  820SOL    HW3 3053   2.057   5.597   0.923 -0.8066  1.0336  1.2203
  820SOL    MW4 3054   1.986   5.549   0.911  0.0620 -0.1422  0.6007
  821SOL     OW 3055   4.411   1.571   4.611 -0.2278 -0.5151 -0.9421
  821SOL    HW2 3056   4.425   1.657   4.651  0.0988 -1.6901  1.6666
  821SOL    HW3 3057   4.492   1.523   4.627 -1.5486 -2.3667  0.6397
  821SOL    MW4 3058   4.424   1.576   4.618 -0.3589 -0.9144 -0.3892
  822SOL     OW 3059   2.720   3.727   5.339  0.2912  0.2241  0.0275
  822SOL    HW2 3060   2.675   3.644   5.356  0.1306  0.6770  2.0949
  822SOL    HW3 3061   2.804   3.702   5.300  0.1191 -0.8962  0.3515
  822SOL    MW4 3062   2.725   3.713   5.336  0.2473  0.1360  0.3430
  823SOL     OW 3063   5.892   1.288   0.852  0.1476  0.2121  0.2161
  823SOL    HW2 3064   5.804   1.250   0.848  0.3312 -0.1453 -1.0887
  823SOL    HW3 3065   5.929   1.270   0.765  1.6453  0.0334  0.8719
  823SOL    MW4 3066   5.885   1.281   0.840  0.3694  0.1414  0.1305
  824SOL     OW 3067   6.367   6.289   3.777  0.8077 -0.4491 -0.6560
  824SOL    HW2 3068   6.403   6.311   3.863 -0.7972  1.2676 -0.3512
  824SOL    HW3 3069   6.354   6.194   3.780  0.1339 -0.3468  1.2875
  824SOL    MW4 3070   6.370   6.279   3.789  0.5071 -0.2091 -0.3594
  825SOL     OW 3071   1.466   5.673   4.002  0.1392 -0.3228 -0.0598
  825SOL    HW2 3072   1.543   5.726   3.985 -1.1264  1.8073  0.4315
  825SOL    HW3 3073   1.462   5.612   3.928  1.0142  1.0796 -1.3362
  825SOL    MW4 3074   1.475   5.672   3.990  0.0877  0.1433 -0.1634
  826SOL     OW 3075   6.029   6.009   4.725  0.0150  0.3311  0.5627
  826SOL    HW2 3076   6.124   6.001   4.716  0.0618  0.8514  0.5813
  826SOL    HW3 3077   6.017   6.091   4.773 -0.4477  0.2943  0.5079
  826SOL    MW4 3078   6.040   6.019   4.730 -0.0399  0.3949  0.5579
  827SOL     OW 3079   0.657   1.914   5.655  0.4485  0.2588  0.5132
  827SOL    HW2 3080   0.695   1.994   5.692  2.3361 -0.1864 -0.3316
  827SOL    HW3 3081   0.578   1.899   5.706  0.5395  2.1562  1.2987
  827SOL    MW4 3082   0.652   1.923   5.667  0.7096  0.4504  0.5054
  828SOL     OW 3083   4.145   4.683   1.995  0.4001  0.4102  0.2016
  828SOL    HW2 3084   4.117   4.774   2.005  1.4144  0.6192  1.5300
  828SOL    HW3 3085   4.165   4.674   1.902 -3.9829  0.1833 -0.9113
  828SOL    MW4 3086   4.144   4.694   1.984 -0.0444  0.4078  0.2300
  829SOL     OW 3087   4.817   1.089   1.826 -0.1098  0.6261  0.2814
  829SOL    HW2 3088   4.785   1.171   1.865 -0.3658  0.1181  1.1536
  829SOL    HW3 3089   4.807   1.024   1.895  2.6439  0.3798  0.5926
  829SOL    MW4 3090   4.812   1.092   1.840  0.2197  0.5266  0.4375
  830SOL     OW 3091   5.936   2.093   1.914 -0.6047  0.1283  0.1883
  830SOL    HW2 3092   5.888   2.147   1.851 -2.0033 -1.6811 -0.3960
  830SOL    HW3 3093   5.869   2.064   1.976  0.4942  0.6896  1.6825
  830SOL    MW4 3094   5.921   2.096   1.914 -0.6442 -0.0364  0.3084
  831SOL     OW 3095   1.097   1.738   5.820 -0.1963  0.0100 -0.7765
  831SOL    HW2 3096   1.180   1.769   5.856 -0.0014 -0.5885 -0.7033
  831SOL    HW3 3097   1.121   1.668   5.760 -0.6791 -0.5746 -0.3112
  831SOL    MW4 3098   1.111   1.733   5.817 -0.2343 -0.1461 -0.7055
  832SOL     OW 3099   6.338   4.573   6.298  0.0481  0.6439  0.4022
  832SOL    HW2 3100   6.411   4.574   6.359  1.8802  2.6296 -1.6535
  832SOL    HW3 3101   6.265   4.610   6.347  0.6699 -0.3209  2.1488
  832SOL    MW4 3102   6.338   4.578   6.312  0.3718  0.7786  0.3614
  833SOL     OW 3103   5.361   1.721   0.788 -0.3753  0.3881 -0.1797
  833SOL    HW2 3104   5.309   1.781   0.734 -1.1863 -0.4430 -0.3638
  833SOL    HW3 3105   5.329   1.735   0.877 -0.6378  0.1678 -0.2368
  833SOL    MW4 3106   5.350   1.731   0.793 -0.5169  0.2494 -0.2115
  834SOL     OW 3107   2.868   4.652   4.183  0.2609  0.4397 -0.9875
  834SOL    HW2 3108   2.901   4.619   4.100  0.5361  1.2889 -1.2241
  834SOL    HW3 3109   2.896   4.744   4.186 -0.3172  0.6067 -0.2634
  834SOL    MW4 3110   2.876   4.660   4.172  0.2210  0.5738 -0.9232
  835SOL     OW 3111   4.072   0.935   2.838 -0.1066  0.5087 -0.4449
  835SOL    HW2 3112   4.033   0.847   2.838  0.0071  0.4556  0.0978
  835SOL    HW3 3113   4.167   0.919   2.841 -0.0730  0.6469 -0.7430
  835SOL    MW4 3114   4.080   0.921   2.838 -0.0871  0.5200 -0.4126
  836SOL     OW 3115   5.603   2.058   3.443 -0.0475 -0.4531  0.2687
  836SOL    HW2 3116   5.570   2.063   3.533 -0.0847  0.0439  0.2294
  836SOL    HW3 3117   5.530   2.022   3.393 -0.6570  0.9213  0.1314
  836SOL    MW4 3118   5.589   2.054   3.448 -0.1328 -0.2062  0.2454
  837SOL     OW 3119   0.400   0.092   1.078 -0.4659  0.6528 -0.3557
  837SOL    HW2 3120   0.375   0.038   1.003 -1.1086 -0.1249  0.3931
  837SOL    HW3 3121   0.496   0.083   1.082 -0.5321 -0.2194 -0.4238
  837SOL    MW4 3122   0.410   0.083   1.068 -0.5594  0.4351 -0.2659
  838SOL     OW 3123   0.809   4.185   2.814 -0.3945 -0.3572 -0.3493
  838SOL    HW2 3124   0.724   4.214   2.782 -0.8259 -0.9359  0.2541
  838SOL    HW3 3125   0.830   4.247   2.885 -0.6470 -0.6382 -0.0250
  838SOL    MW4 3126   0.801   4.197   2.819 -0.4848 -0.4706 -0.2269
  839SOL     OW 3127   4.208   2.762   1.982 -0.4736 -0.1310 -0.1811
  839SOL    HW2 3128   4.275   2.784   2.046 -0.6804  0.8937 -0.3036
  839SOL    HW3 3129   4.134   2.731   2.034 -0.4240  0.1146  0.0346
  839SOL    MW4 3130   4.207   2.760   1.997 -0.4943  0.0366 -0.1688
  840SOL     OW 3131   2.302   4.622   2.448 -0.1109  0.7273 -0.1071
  840SOL    HW2 3132   2.364   4.683   2.488  0.2696  0.7447 -0.7114
  840SOL    HW3 3133   2.219   4.641   2.491 -0.1221  2.0787 -0.6949
  840SOL    MW4 3134   2.299   4.633   2.459 -0.0622  0.9079 -0.2644
  841SOL     OW 3135   4.620   0.214   2.677  0.1186 -0.5704  0.5456
  841SOL    HW2 3136   4.594   0.124   2.694  2.0885 -1.2919  0.0599
  841SOL    HW3 3137   4.702   0.225   2.726  0.7560  0.4196 -0.6735
  841SOL    MW4 3138   4.628   0.204   2.685  0.4626 -0.5350  0.3206
  842SOL     OW 3139   5.881   1.735   5.842 -0.5624 -0.1684 -0.4517
  842SOL    HW2 3140   5.932   1.685   5.906 -3.4956 -0.7271  1.6532
  842SOL    HW3 3141   5.909   1.826   5.856  1.4182 -0.6435 -0.9946
  842SOL    MW4 3142   5.892   1.741   5.852 -0.6881 -0.3048 -0.2456
  843SOL     OW 3143   2.829   0.798   6.240  0.6127 -0.6865 -0.3306
  843SOL    HW2 3144   2.819   0.822   6.332 -1.0739 -1.8881 -0.1436
  843SOL    HW3 3145   2.795   0.873   6.191  0.3893 -0.5287  0.0635
  843SOL    MW4 3146   2.823   0.811   6.245  0.3607 -0.8242 -0.2540
  844SOL     OW 3147   0.751   3.769   0.862 -0.3105  0.0061 -0.1534
  844SOL    HW2 3148   0.682   3.832   0.841 -0.0552  0.3073 -0.0933
  844SOL    HW3 3149   0.705   3.685   0.873 -0.9845  0.6265  2.2318
  844SOL    MW4 3150   0.736   3.766   0.860 -0.3657  0.1277  0.1692
  845SOL     OW 3151   3.618   1.173   6.209 -0.2516 -0.1271 -0.2547
  845SOL    HW2 3152   3.665   1.192   6.290 -1.7689 -1.0398  0.8966
  845SOL    HW3 3153   3.648   1.086   6.184  0.3884  0.2477 -0.8279
  845SOL    MW4 3154   3.628   1.164   6.216 -0.3674 -0.1980 -0.1784
  846SOL     OW 3155   3.350   2.622   3.453  0.1029 -0.4853 -0.4492
  846SOL    HW2 3156   3.308   2.684   3.392  0.6855 -0.0991 -0.4667
  846SOL    HW3 3157   3.439   2.656   3.463  0.8014 -1.9729 -1.3584
  846SOL    MW4 3158   3.356   2.635   3.446  0.2719 -0.6306 -0.5715
  847SOL     OW 3159   4.846   1.994   5.104  0.3261  0.9327  0.3195
  847SOL    HW2 3160   4.924   1.999   5.050  0.0354  0.9355 -0.1034
  847SOL    HW3 3161   4.879   1.988   5.194  0.8352 -0.4753  0.0562
  847SOL    MW4 3162   4.861   1.994   5.109  0.3549  0.7473  0.2290
  848SOL     OW 3163   2.492   1.725   2.287  0.4110  0.3931 -0.4079
  848SOL    HW2 3164   2.557   1.679   2.341  0.5196  0.5645 -0.3925
  848SOL    HW3 3165   2.540   1.799   2.250  0.2031  0.5614 -0.3385
  848SOL    MW4 3166   2.507   1.728   2.289  0.3979  0.4379 -0.3967
  849SOL     OW 3167   2.566   3.758   2.568 -0.8191 -0.0840 -0.6997
  849SOL    HW2 3168   2.648   3.807   2.576 -1.1130  0.3267 -0.0083
  849SOL    HW3 3169   2.549   3.728   2.657 -1.1129 -0.6758 -0.9565
  849SOL    MW4 3170   2.575   3.761   2.581 -0.8966 -0.1079 -0.6423
  850SOL     OW 3171   5.974   1.072   5.316 -0.7361  0.1979  0.1430
  850SOL    HW2 3172   5.912   1.136   5.352 -0.5728  0.6918 -0.4433
  850SOL    HW3 3173   6.035   1.124   5.264 -0.4530 -0.4087 -0.1414
  850SOL    MW4 3174   5.974   1.088   5.314 -0.6772  0.1830  0.0282
  851SOL     OW 3175   2.666   5.361   4.579 -0.1852 -0.0793 -0.4328
  851SOL    HW2 3176   2.615   5.372   4.659  0.1844  0.4027 -0.2570
  851SOL    HW3 3177   2.753   5.394   4.601  0.4995 -1.7845 -0.4334
  851SOL    MW4 3178   2.671   5.367   4.593 -0.0461 -0.2407 -0.4097
  852SOL     OW 3179   0.367   3.236   5.701 -0.4187  0.3113  0.3137
  852SOL    HW2 3180   0.275   3.224   5.679 -0.6019 -0.3319  1.4327
  852SOL    HW3 3181   0.385   3.175   5.772  1.2384 -0.5965 -0.8001
  852SOL    MW4 3182   0.358   3.227   5.707 -0.2242  0.1067  0.3144
  853SOL     OW 3183   4.411   6.318   4.049 -0.3061  0.2206  0.0184
  853SOL    HW2 3184   4.397   6.394   3.992  0.8715  0.3785 -0.0921
  853SOL    HW3 3185   4.373   6.345   4.133 -1.2131  0.3506 -0.4231
  853SOL    MW4 3186   4.404   6.332   4.053 -0.2704  0.2586 -0.0544
  854SOL     OW 3187   0.862   4.572   2.389  0.1134 -0.1561 -0.1385
  854SOL    HW2 3188   0.906   4.651   2.357  0.6817  0.4086  1.9136
  854SOL    HW3 3189   0.915   4.543   2.462  0.5068 -3.1044 -1.4727
  854SOL    MW4 3190   0.875   4.579   2.394  0.2403 -0.4706 -0.0438
  855SOL     OW 3191   3.792   0.848   4.883  0.8663 -0.7610 -0.3815
  855SOL    HW2 3192   3.746   0.791   4.821 -0.0473 -2.9304  2.1306
  855SOL    HW3 3193   3.744   0.930   4.879 -1.7648 -2.1572  0.3319
  855SOL    MW4 3194   3.780   0.851   4.874  0.3986 -1.2315  0.0440
  856SOL     OW 3195   3.671   1.296   0.536  0.2105  0.4897  0.1249
  856SOL    HW2 3196   3.610   1.262   0.470  1.5333  1.0106 -1.4346
  856SOL    HW3 3197   3.616   1.348   0.594 -0.5888  3.0903 -2.6810
  856SOL    MW4 3198   3.656   1.298   0.535  0.2796  0.9015 -0.4510
  857SOL     OW 3199   4.841   4.608   1.287 -0.5274  0.1618 -0.0106
  857SOL    HW2 3200   4.760   4.634   1.243 -0.3915  0.1108 -0.2897
  857SOL    HW3 3201   4.891   4.562   1.220 -0.3015  0.1225  0.1853
  857SOL    MW4 3202   4.837   4.605   1.273 -0.4797  0.1499 -0.0216
  858SOL     OW 3203   1.406   4.013   2.499 -0.2480  0.0856 -0.3932
  858SOL    HW2 3204   1.334   3.998   2.561 -1.7817  1.0707 -1.8459
  858SOL    HW3 3205   1.428   3.925   2.467  0.8492 -0.4888  1.7532
  858SOL    MW4 3206   1.399   3.999   2.503 -0.3056  0.1398 -0.3017
  859SOL     OW 3207   4.666   1.271   3.716 -0.1522 -0.2764  0.1129
  859SOL    HW2 3208   4.582   1.251   3.756 -0.5165  1.7063  0.4426
  859SOL    HW3 3209   4.730   1.258   3.786 -0.6103  1.6304  0.9383
  859SOL    MW4 3210   4.664   1.267   3.730 -0.2607  0.2368  0.2653
  860SOL     OW 3211   1.772   6.334   6.203 -0.0772 -0.2232 -0.3260
  860SOL    HW2 3212   1.817   6.256   6.172 -0.4244  0.0755 -1.6428
  860SOL    HW3 3213   1.686   6.303   6.233  0.8357 -0.7590  1.9836
  860SOL    MW4 3214   1.767   6.320   6.203 -0.0026 -0.2545 -0.1950
  861SOL     OW 3215   5.039   5.767   1.693  0.2708  0.0269  0.1509
  861SOL    HW2 3216   5.131   5.751   1.674 -0.1450 -0.3487 -1.8233
  861SOL    HW3 3217   5.012   5.694   1.748  0.8727 -0.5198 -0.2639
  861SOL    MW4 3218   5.047   5.755   1.698  0.2954 -0.0947 -0.1643
  862SOL     OW 3219   2.131   3.388   4.260 -0.1378  0.1647  0.3506
  862SOL    HW2 3220   2.115   3.329   4.187 -0.4875 -0.1106  0.6461
  862SOL    HW3 3221   2.140   3.475   4.220 -0.0939 -0.0173 -0.0363
  862SOL    MW4 3222   2.130   3.392   4.245 -0.1782  0.1044  0.3386
  863SOL     OW 3223   1.520   5.911   4.704  0.0382  0.3620  0.0255
  863SOL    HW2 3224   1.488   5.826   4.733 -0.0585  1.1685  2.4413
  863SOL    HW3 3225   1.609   5.894   4.674 -0.1917 -0.6666 -0.1134
  863SOL    MW4 3226   1.527   5.898   4.704 -0.0049  0.3327  0.3259
  864SOL     OW 3227   5.349   4.628   2.626  0.0547 -0.2350 -0.5172
  864SOL    HW2 3228   5.396   4.603   2.706 -1.8631  2.1601  1.5221
  864SOL    HW3 3229   5.388   4.711   2.600  0.5229 -0.8946 -2.0434
  864SOL    MW4 3230   5.360   4.636   2.633 -0.1365 -0.0060 -0.4495
  865SOL     OW 3231   2.651   1.695   0.005  0.2273  0.0771  0.0772
  865SOL    HW2 3232   2.682   1.717   0.093 -1.8952 -0.1407  0.9514
  865SOL    HW3 3233   2.630   1.602   0.010 -3.4574  0.7598  0.6402
  865SOL    MW4 3234   2.652   1.686   0.018 -0.5389  0.1385  0.2668
  866SOL     OW 3235   1.007   2.459   3.580  0.0705  0.5964 -0.9063
  866SOL    HW2 3236   0.984   2.366   3.578  2.2231  0.0078 -1.0024
  866SOL    HW3 3237   1.043   2.476   3.493  0.7256  1.2041 -0.5268
  866SOL    MW4 3238   1.009   2.449   3.568  0.4409  0.5989 -0.8689
  867SOL     OW 3239   3.681   2.524   5.387  0.2981 -0.2399 -0.7405
  867SOL    HW2 3240   3.615   2.475   5.338 -1.4747  0.8386  0.4483
  867SOL    HW3 3241   3.746   2.459   5.413 -0.5831 -1.4522 -1.4712
  867SOL    MW4 3242   3.681   2.509   5.384 -0.0521 -0.2576 -0.6800
  868SOL     OW 3243   5.206   2.746   5.542 -0.2699  0.0338  0.5473
  868SOL    HW2 3244   5.112   2.762   5.531 -0.0639  1.2170  0.3520
  868SOL    HW3 3245   5.236   2.721   5.454 -0.5044 -0.9977  0.7475
  868SOL    MW4 3246   5.197   2.745   5.529 -0.2737  0.0538  0.5480
  869SOL     OW 3247   4.680   1.313   5.628 -0.8643  0.5569 -0.9174
  869SOL    HW2 3248   4.619   1.311   5.701 -1.2522 -0.1402 -1.2550
  869SOL    HW3 3249   4.666   1.399   5.587  1.7359  2.4892  1.7959
  869SOL    MW4 3250   4.670   1.324   5.632 -0.5724  0.7198 -0.6039
  870SOL     OW 3251   6.332   3.075   0.168  0.2470 -0.2586 -0.1628
  870SOL    HW2 3252   6.408   3.020   0.188  0.5387  0.6809  1.5181
  870SOL    HW3 3253   6.259   3.033   0.213 -0.2071 -1.0304 -1.5841
  870SOL    MW4 3254   6.332   3.062   0.177  0.2255 -0.2364 -0.1285
  871SOL     OW 3255   5.739   4.111   4.789 -0.4410  0.1109 -0.2450
  871SOL    HW2 3256   5.791   4.132   4.867  1.8574  0.9266 -1.8716
  871SOL    HW3 3257   5.649   4.132   4.813  0.2143  0.5350  2.0986
  871SOL    MW4 3258   5.734   4.116   4.803 -0.0513  0.2745 -0.1504
  872SOL     OW 3259   5.861   2.758   5.817 -0.0715  0.5465 -0.4112
  872SOL    HW2 3260   5.936   2.756   5.757 -0.5262 -2.4574 -1.0286
  872SOL    HW3 3261   5.800   2.819   5.777  0.7330  0.5976 -1.6173
  872SOL    MW4 3262   5.863   2.766   5.804 -0.0253  0.1569 -0.6518
  873SOL     OW 3263   0.788   1.671   1.336 -0.7205 -0.3041 -0.0885
  873SOL    HW2 3264   0.807   1.764   1.332 -2.8418  0.1459 -0.4856
  873SOL    HW3 3265   0.840   1.639   1.410 -0.8641  1.4150  0.7894
  873SOL    MW4 3266   0.798   1.679   1.346 -1.0193 -0.0179 -0.0251
  874SOL     OW 3267   0.523   2.649   4.897  0.2621  0.2882  0.1454
  874SOL    HW2 3268   0.471   2.569   4.897  0.0989  0.3736  1.6363
  874SOL    HW3 3269   0.613   2.620   4.883  0.1693 -0.1332  0.4245
  874SOL    MW4 3270   0.528   2.635   4.895  0.2284  0.2438  0.3789
  875SOL     OW 3271   3.062   2.448   5.069 -0.0610 -0.5632 -0.0140
  875SOL    HW2 3272   3.130   2.515   5.067 -0.1618 -0.4214  0.7922
  875SOL    HW3 3273   3.068   2.404   4.984  2.4975 -2.0054  0.8205
  875SOL    MW4 3274   3.072   2.451   5.058  0.2633 -0.7348  0.2024
  876SOL     OW 3275   0.129   6.391   2.337 -0.1765 -0.4121  0.1224
  876SOL    HW2 3276   0.174   6.475   2.323  1.0463 -1.1859 -0.8206
  876SOL    HW3 3277   0.070   6.383   2.262  0.5880 -0.9199 -0.4453
  876SOL    MW4 3278   0.127   6.401   2.325  0.0857 -0.5812 -0.0769
  877SOL     OW 3279   2.699   6.206   5.646 -0.0725  0.5003 -0.0803
  877SOL    HW2 3280   2.736   6.234   5.562 -0.4895  1.3386  0.0024
  877SOL    HW3 3281   2.619   6.257   5.655 -0.2108  0.1642  0.6698
  877SOL    MW4 3282   2.694   6.216   5.636 -0.1458  0.5666  0.0296
  878SOL     OW 3283   1.772   1.074   0.156  0.5310  0.5835 -0.4469
  878SOL    HW2 3284   1.811   1.038   0.076  0.1844 -1.4643  0.2308
  878SOL    HW3 3285   1.787   1.006   0.222  0.0456  1.8445  1.0205
  878SOL    MW4 3286   1.779   1.060   0.154  0.4212  0.4797 -0.1639
  879SOL     OW 3287   5.799   3.140   3.684 -0.8389 -0.2643 -0.3071
  879SOL    HW2 3288   5.842   3.177   3.607 -1.9804  2.6566  0.3658
  879SOL    HW3 3289   5.735   3.078   3.649 -2.0524  1.7524 -1.8674
  879SOL    MW4 3290   5.796   3.136   3.670 -1.1496  0.3872 -0.4242
  880SOL     OW 3291   2.262   1.730   1.249  0.3448  0.3143 -0.1963
  880SOL    HW2 3292   2.251   1.642   1.283  1.4652 -0.3523 -1.4995
  880SOL    HW3 3293   2.356   1.740   1.235  0.0190  0.8411 -2.2762
  880SOL    MW4 3294   2.273   1.720   1.252  0.4497  0.2958 -0.6427
  881SOL     OW 3295   6.135   1.530   2.731  0.1673 -0.3143  0.5402
  881SOL    HW2 3296   6.129   1.513   2.825 -0.0826  0.7156  0.7251
  881SOL    HW3 3297   6.061   1.483   2.694 -1.1952  1.2336  1.1754
  881SOL    MW4 3298   6.125   1.522   2.739 -0.0454  0.0258  0.6484
  882SOL     OW 3299   2.370   0.916   0.783 -0.1940 -0.8831 -0.2494
  882SOL    HW2 3300   2.345   0.844   0.841  1.2735 -0.4422  0.9944
  882SOL    HW3 3301   2.461   0.900   0.762  0.8633  1.6440  1.8196
  882SOL    MW4 3302   2.379   0.905   0.788  0.1391 -0.4915  0.1877
  883SOL     OW 3303   4.451   2.033   6.167 -0.3522 -0.1368 -0.1981
  883SOL    HW2 3304   4.477   1.944   6.192 -0.5654  0.3806  2.1399
  883SOL    HW3 3305   4.533   2.078   6.150 -0.2111 -0.5850 -0.7600
  883SOL    MW4 3306   4.465   2.027   6.168 -0.3617 -0.1277  0.0362
  884SOL     OW 3307   5.193   0.222   4.866 -0.2793 -0.7683 -0.0040
  884SOL    HW2 3308   5.267   0.283   4.872  0.9746 -1.7945 -3.0423
  884SOL    HW3 3309   5.119   0.277   4.842  0.0665 -0.0348  0.5628
  884SOL    MW4 3310   5.193   0.237   4.863 -0.0683 -0.8069 -0.3301
  885SOL     OW 3311   1.802   4.256   4.655  0.0588  0.8595 -0.3124
  885SOL    HW2 3312   1.879   4.312   4.666  0.2422  0.4045  0.8754
  885SOL    HW3 3313   1.798   4.205   4.736 -1.0886  0.3725 -0.6600
  885SOL    MW4 3314   1.812   4.256   4.667 -0.0684  0.7352 -0.2015
  886SOL     OW 3315   1.080   1.029   1.735  0.3398 -0.3054  0.1881
  886SOL    HW2 3316   1.140   0.996   1.802 -0.1206 -0.7648  0.3854
  886SOL    HW3 3317   1.134   1.085   1.679  1.4840 -2.3472 -0.8935
  886SOL    MW4 3318   1.095   1.032   1.736  0.4300 -0.6354  0.0714
  887SOL     OW 3319   2.911   3.158   2.510 -0.5268  0.0960  0.5415
  887SOL    HW2 3320   2.928   3.115   2.594 -1.0769  0.5266  0.8818
  887SOL    HW3 3321   2.993   3.148   2.461 -0.5636 -1.1222  0.6977
  887SOL    MW4 3322   2.924   3.151   2.515 -0.6042 -0.0079  0.6070
  888SOL     OW 3323   4.530   1.129   2.590  0.0348  0.0882 -0.0008
  888SOL    HW2 3324   4.606   1.181   2.561  0.2359 -1.2807 -2.1041
  888SOL    HW3 3325   4.459   1.158   2.533 -0.1838 -0.9819 -0.2764
  888SOL    MW4 3326   4.531   1.140   2.579  0.0325 -0.2336 -0.3147
  889SOL     OW 3327   3.860   5.705   4.030 -0.0111 -0.2242 -0.7284
  889SOL    HW2 3328   3.794   5.770   4.006  0.0699 -0.0857 -0.5864
  889SOL    HW3 3329   3.928   5.715   3.963 -0.1644 -0.4126 -0.9123
  889SOL    MW4 3330   3.860   5.715   4.018 -0.0207 -0.2308 -0.7339
  890SOL     OW 3331   2.846   1.027   1.860  0.3401 -0.3282  0.2241
  890SOL    HW2 3332   2.899   0.955   1.827 -0.3259 -0.3141 -0.9290
  890SOL    HW3 3333   2.884   1.105   1.820 -0.3771 -0.2952 -0.4240
  890SOL    MW4 3334   2.858   1.028   1.850  0.1576 -0.3220 -0.0136
  891SOL     OW 3335   5.052   5.143   0.518  0.2309  0.4558  0.5418
  891SOL    HW2 3336   5.013   5.165   0.603  0.7698 -1.8845  1.4658
  891SOL    HW3 3337   5.088   5.055   0.530 -1.0124 -0.6221 -2.5718
  891SOL    MW4 3338   5.052   5.135   0.531  0.1380  0.0048  0.2529
  892SOL     OW 3339   0.402   5.092   3.426 -0.5959  0.0235 -0.1485
  892SOL    HW2 3340   0.464   5.158   3.458 -0.4247 -0.0100 -0.4118
  892SOL    HW3 3341   0.335   5.142   3.381 -0.1351 -0.0227 -0.8999
  892SOL    MW4 3342   0.402   5.107   3.424 -0.5125  0.0130 -0.2824
  893SOL     OW 3343   5.469   3.192   3.900  0.1964  0.0977  0.0247
  893SOL    HW2 3344   5.533   3.240   3.848  0.5613  0.2740  0.6360
  893SOL    HW3 3345   5.493   3.100   3.890 -0.6585 -0.0150 -1.3615
  893SOL    MW4 3346   5.480   3.186   3.892  0.1317  0.1061 -0.0775
  894SOL     OW 3347   0.403   3.986   5.251  0.0569  0.0253 -0.4092
  894SOL    HW2 3348   0.498   3.978   5.246  0.2144  1.1202  0.3403
  894SOL    HW3 3349   0.388   4.062   5.308 -1.2584  0.1526 -0.8720
  894SOL    MW4 3350   0.413   3.995   5.258 -0.0958  0.1866 -0.3714
  895SOL     OW 3351   0.783   1.411   1.830 -0.1081 -0.0047 -0.3255
  895SOL    HW2 3352   0.782   1.316   1.816 -0.9412  0.0488 -0.6895
  895SOL    HW3 3353   0.870   1.438   1.800 -0.5934 -0.3827 -2.2025
  895SOL    MW4 3354   0.795   1.402   1.824 -0.2820 -0.0475 -0.6211
  896SOL     OW 3355   3.395   5.588   6.262 -0.1110 -0.5817  0.4125
  896SOL    HW2 3356   3.348   5.569   6.344 -1.4177 -3.8304 -0.9389
  896SOL    HW3 3357   3.355   5.668   6.230 -2.9677 -1.7858  0.6736
  896SOL    MW4 3358   3.384   5.596   6.269 -0.6603 -1.1692  0.2687
  897SOL     OW 3359   0.088   4.832   5.271 -0.1846  0.1568  0.4164
  897SOL    HW2 3360   0.084   4.895   5.199  0.4735 -0.1957  0.0630
  897SOL    HW3 3361   0.073   4.885   5.350  1.5181  0.9877  0.2453
  897SOL    MW4 3362   0.086   4.848   5.272  0.1269  0.2199  0.3472
  898SOL     OW 3363   1.837   5.671   6.277  0.2180  0.2697 -0.2506
  898SOL    HW2 3364   1.772   5.699   6.342  0.0546 -1.9490  0.6036
  898SOL    HW3 3365   1.801   5.700   6.193 -2.8927 -2.4207 -0.0345
  898SOL    MW4 3366   1.824   5.679   6.275 -0.2140 -0.3780 -0.1094
  899SOL     OW 3367   4.786   5.984   0.553  0.0146  0.2335  0.8684
  899SOL    HW2 3368   4.848   5.955   0.487 -0.8721 -0.9448  0.5152
  899SOL    HW3 3369   4.701   5.984   0.508 -0.2141  2.2054  1.2154
  899SOL    MW4 3370   4.783   5.980   0.538 -0.1326  0.3382  0.8676
  900SOL     OW 3371   0.830   0.828   6.134  0.4327  0.1479  0.1991
  900SOL    HW2 3372   0.771   0.841   6.208  0.6125  1.3462  0.1376
  900SOL    HW3 3373   0.820   0.735   6.112  0.7835 -0.3798  2.0696
  900SOL    MW4 3374   0.821   0.817   6.141  0.5028  0.2364  0.4378
  901SOL     OW 3375   0.179   0.149   4.379  0.5132 -0.5359 -0.3501
  901SOL    HW2 3376   0.114   0.166   4.311 -1.0373 -1.1795  0.9139
  901SOL    HW3 3377   0.256   0.198   4.350 -0.7913  1.0099 -1.4561
  901SOL    MW4 3378   0.180   0.158   4.366  0.1365 -0.4168 -0.3293
  902SOL     OW 3379   0.125   2.442   3.968 -0.2121  0.1194 -0.2161
  902SOL    HW2 3380   0.127   2.492   3.886  1.1853  1.6330  0.6770
  902SOL    HW3 3381   0.206   2.465   4.012 -1.2346 -0.1052  1.9219
  902SOL    MW4 3382   0.136   2.452   3.963 -0.1626  0.2895  0.1838
  903SOL     OW 3383   4.519   4.257   4.907  0.1427 -0.0831  0.1327
  903SOL    HW2 3384   4.592   4.285   4.961  1.2789 -2.8666  0.1755
  903SOL    HW3 3385   4.559   4.213   4.832 -1.4252 -2.3633  0.5352
  903SOL    MW4 3386   4.534   4.255   4.904  0.0858 -0.7512  0.1914
  904SOL     OW 3387   0.856   1.096   5.565  0.2072  0.1645  0.1134
  904SOL    HW2 3388   0.831   1.096   5.473  2.5583 -0.6818 -0.5776
  904SOL    HW3 3389   0.784   1.051   5.609 -0.5177 -0.2484 -1.4302
  904SOL    MW4 3390   0.843   1.090   5.559  0.4218 -0.0016 -0.1814
  905SOL     OW 3391   5.396   4.286   3.412  0.1057  0.1345  0.0614
  905SOL    HW2 3392   5.325   4.222   3.406  0.1891 -0.0328  0.7876
  905SOL    HW3 3393   5.369   4.357   3.354 -0.1075 -0.4434 -0.5536
  905SOL    MW4 3394   5.383   4.287   3.404  0.0885  0.0362  0.0761
  906SOL     OW 3395   0.501   4.565   5.084 -0.2121  0.1741 -0.2884
  906SOL    HW2 3396   0.413   4.589   5.057 -0.3395  1.7788  1.4153
  906SOL    HW3 3397   0.558   4.616   5.026 -0.3714 -0.3501 -0.9309
  906SOL    MW4 3398   0.497   4.575   5.073 -0.2499  0.3166 -0.1484
  907SOL     OW 3399   1.422   1.322   2.774  0.4400  0.4863  0.3659
  907SOL    HW2 3400   1.394   1.409   2.801 -0.5759 -0.3511  2.1856
  907SOL    HW3 3401   1.516   1.319   2.794  0.4930  1.1608  0.2348
  907SOL    MW4 3402   1.431   1.333   2.780  0.3129  0.4648  0.5887
  908SOL     OW 3403   5.902   2.709   5.007  0.0748 -0.5841 -0.7165
  908SOL    HW2 3404   5.908   2.805   5.001 -0.4097 -0.4762  0.3537
  908SOL    HW3 3405   5.968   2.678   4.945  1.1128  0.4545 -0.1753
  908SOL    MW4 3406   5.912   2.718   4.998  0.1478 -0.4328 -0.5039
  909SOL     OW 3407   1.424   3.758   4.417  0.3621  0.2505 -0.0672
  909SOL    HW2 3408   1.381   3.677   4.390  1.1076 -0.8311  1.7995
  909SOL    HW3 3409   1.507   3.759   4.368  0.7306 -0.5716  0.5206
  909SOL    MW4 3410   1.429   3.748   4.407  0.5090 -0.0007  0.2567
  910SOL     OW 3411   4.245   1.670   3.828 -0.0625 -0.3987  0.2388
  910SOL    HW2 3412   4.325   1.619   3.837 -0.3712 -0.9077  0.1456
  910SOL    HW3 3413   4.219   1.691   3.917  0.0344 -0.4568  0.2804
  910SOL    MW4 3414   4.252   1.666   3.841 -0.0904 -0.4735  0.2320
  911SOL     OW 3415   0.094   0.594   2.030 -0.1104 -0.8148 -0.0763
  911SOL    HW2 3416   0.096   0.556   2.117 -2.2641  0.3098  0.5290
  911SOL    HW3 3417   0.021   0.550   1.986 -0.9032  0.6282 -0.2830
  911SOL    MW4 3418   0.084   0.583   2.035 -0.4992 -0.4760 -0.0237
  912SOL     OW 3419   5.956   5.422   2.213 -0.5583  0.4103 -0.3380
  912SOL    HW2 3420   5.913   5.380   2.138 -2.4428 -2.0607  1.9100
  912SOL    HW3 3421   5.889   5.479   2.251 -1.0925 -1.3805  1.6263
  912SOL    MW4 3422   5.941   5.424   2.208 -0.8774 -0.1520  0.2178
  913SOL     OW 3423   3.700   3.981   1.443  0.6346 -0.1226  0.0084
  913SOL    HW2 3424   3.628   4.024   1.488  1.5577  2.8691 -1.1129
  913SOL    HW3 3425   3.662   3.949   1.361 -0.1142 -1.7980  0.9557
  913SOL    MW4 3426   3.686   3.983   1.438  0.6576  0.0511 -0.0146
  914SOL     OW 3427   4.304   3.202   0.401  0.5779  0.7734 -0.0615
  914SOL    HW2 3428   4.378   3.249   0.440  1.7395  0.1439 -1.4096
  914SOL    HW3 3429   4.268   3.264   0.337 -0.2066  1.1572  0.7433
  914SOL    MW4 3430   4.309   3.216   0.397  0.6276  0.7410 -0.1332
  915SOL     OW 3431   0.362   0.607   0.225 -0.0984  0.1599 -0.7057
  915SOL    HW2 3432   0.353   0.653   0.309 -2.6260  1.4164 -1.5595
  915SOL    HW3 3433   0.314   0.525   0.238  0.3714 -0.1074 -0.6347
  915SOL    MW4 3434   0.354   0.602   0.238 -0.3699  0.2904 -0.8090
  916SOL     OW 3435   2.372   3.998   3.530 -0.0234 -0.3723 -0.6852
  916SOL    HW2 3436   2.293   4.044   3.501 -0.2228  0.2899  0.8100
  916SOL    HW3 3437   2.379   3.923   3.471 -1.9202 -0.5919 -0.7093
  916SOL    MW4 3438   2.363   3.994   3.518 -0.2999 -0.3139 -0.4911
  917SOL     OW 3439   1.354   2.027   2.936  0.5132 -0.1334  0.4898
  917SOL    HW2 3440   1.397   2.012   3.020 -0.3761 -0.4448  0.9035
  917SOL    HW3 3441   1.420   2.004   2.871  0.8558 -0.9390  1.1092
  917SOL    MW4 3442   1.368   2.022   2.939  0.4411 -0.2808  0.6261
  918SOL     OW 3443   1.506   4.706   3.847  0.6338 -0.2583  0.0964
  918SOL    HW2 3444   1.542   4.693   3.759  1.1243 -0.4541  0.3201
  918SOL    HW3 3445   1.427   4.652   3.849 -0.2500  0.9369 -0.7309
  918SOL    MW4 3446   1.500   4.698   3.835  0.5819 -0.1264  0.0168
  919SOL     OW 3447   2.334   4.581   1.365 -0.0061 -0.0616 -0.5152
  919SOL    HW2 3448   2.397   4.615   1.301 -0.3129 -0.4666 -1.0441
  919SOL    HW3 3449   2.321   4.490   1.339 -0.8121  0.0234 -0.4208
  919SOL    MW4 3450   2.341   4.573   1.353 -0.1529 -0.1038 -0.5725
  920SOL     OW 3451   6.182   5.590   0.125 -0.2609 -0.0027 -0.2096
  920SOL    HW2 3452   6.151   5.508   0.164 -0.6366  0.5515  0.6831
  920SOL    HW3 3453   6.250   5.620   0.186  1.2494 -0.6076 -1.5291
  920SOL    MW4 3454   6.187   5.583   0.138 -0.1112 -0.0094 -0.2659
  921SOL     OW 3455   0.070   4.291   0.833 -0.1262 -0.0446 -0.0469
  921SOL    HW2 3456   0.093   4.379   0.801 -0.7096 -1.0414 -3.6608
  921SOL    HW3 3457   0.095   4.232   0.762  1.2095 -3.0462  2.6338
  921SOL    MW4 3458   0.076   4.295   0.820 -0.0269 -0.5721 -0.1700
  922SOL     OW 3459   5.985   1.677   5.599 -0.3066 -0.0075 -0.3483
  922SOL    HW2 3460   5.921   1.740   5.565 -1.1044 -0.2854  0.5817
  922SOL    HW3 3461   5.972   1.679   5.694  0.1921 -1.0197 -0.2449
  922SOL    MW4 3462   5.975   1.686   5.607 -0.3461 -0.1777 -0.2120
  923SOL     OW 3463   2.781   0.600   4.830 -0.0845  0.1728  0.5440
  923SOL    HW2 3464   2.837   0.643   4.765 -1.7602  2.7420  0.6661
  923SOL    HW3 3465   2.703   0.574   4.780  0.4287 -1.8472  0.7129
  923SOL    MW4 3466   2.778   0.602   4.815 -0.2379  0.2452  0.5824
  924SOL     OW 3467   1.509   1.167   5.597 -0.5016  0.5637  0.4711
  924SOL    HW2 3468   1.524   1.151   5.691 -1.7962  1.8854  0.9291
  924SOL    HW3 3469   1.515   1.262   5.587  0.8077  0.3589 -1.0316
  924SOL    MW4 3470   1.512   1.177   5.608 -0.4997  0.7110  0.3333
  925SOL     OW 3471   6.233   2.330   2.458  0.3128  0.5553 -0.3624
  925SOL    HW2 3472   6.271   2.327   2.370  1.3651 -0.3684  0.1132
  925SOL    HW3 3473   6.214   2.423   2.472 -1.0289  0.5774 -2.0348
  925SOL    MW4 3474   6.236   2.342   2.448  0.2746  0.4363 -0.5203
  926SOL     OW 3475   0.056   1.699   4.618  0.3780 -0.1549  0.2803
  926SOL    HW2 3476   0.068   1.626   4.679 -2.9403  0.3318  1.7360
  926SOL    HW3 3477   0.038   1.657   4.533  2.0346 -0.8895  0.2554
  926SOL    MW4 3478   0.055   1.684   4.615  0.1588 -0.1876  0.4691
  927SOL     OW 3479   3.679   3.502   5.998  0.4134  0.2384 -0.0640
  927SOL    HW2 3480   3.707   3.411   6.005 -0.9093 -0.1813  0.1156
  927SOL    HW3 3481   3.600   3.506   6.052  0.7560  1.6244  0.3570
  927SOL    MW4 3482   3.672   3.490   6.006  0.2841  0.3659  0.0153
  928SOL     OW 3483   5.308   3.608   3.772  0.0312 -0.3640 -0.2247
  928SOL    HW2 3484   5.314   3.539   3.837 -0.3936 -0.0876  0.1166
  928SOL    HW3 3485   5.218   3.602   3.738  0.0211 -0.0509 -0.2614
  928SOL    MW4 3486   5.297   3.598   3.776 -0.0262 -0.2862 -0.1845
  929SOL     OW 3487   1.253   2.059   2.207 -0.0542 -0.0030 -0.5332
  929SOL    HW2 3488   1.165   2.023   2.203 -0.8809  1.4324  2.2600
  929SOL    HW3 3489   1.303   1.996   2.259 -0.6957  1.2864  1.7442
  929SOL    MW4 3490   1.248   2.046   2.213 -0.2479  0.3565  0.1358
  930SOL     OW 3491   4.531   1.931   5.719 -0.0636 -0.1213 -0.4455
  930SOL    HW2 3492   4.535   1.937   5.623  3.3583  3.6003 -0.3315
  930SOL    HW3 3493   4.619   1.905   5.745 -0.5918  0.1035  1.7468
  930SOL    MW4 3494   4.543   1.929   5.710  0.3182  0.3994 -0.1412
  931SOL     OW 3495   5.663   0.416   4.433  0.5194 -0.4304 -0.1789
  931SOL    HW2 3496   5.758   0.415   4.443  0.4522  0.0253  0.5854
  931SOL    HW3 3497   5.639   0.508   4.438 -0.0618 -0.6188  0.7282
  931SOL    MW4 3498   5.673   0.428   4.435  0.4338 -0.3951  0.0416
  932SOL     OW 3499   4.875   4.524   6.424 -0.1620 -0.0405 -0.0810
  932SOL    HW2 3500   4.933   4.569   6.485  0.1746  0.9216 -1.0715
  932SOL    HW3 3501   4.797   4.579   6.419 -0.7193 -0.7583  0.4039
  932SOL    MW4 3502   4.872   4.537   6.431 -0.1911 -0.0083 -0.1477
  933SOL     OW 3503   4.457   5.890   3.070 -0.3695  0.8882 -0.2287
  933SOL    HW2 3504   4.516   5.815   3.081 -1.8278 -0.2119  0.3162
  933SOL    HW3 3505   4.484   5.952   3.138  1.2307  1.1656 -1.0552
  933SOL    MW4 3506   4.469   5.888   3.081 -0.3508  0.7797 -0.2659
  934SOL     OW 3507   2.048   3.340   1.564  0.2094 -0.0439 -0.5222
  934SOL    HW2 3508   1.973   3.298   1.606 -0.5615  0.7728 -1.0642
  934SOL    HW3 3509   2.086   3.271   1.509 -0.8115 -0.1548 -1.1105
  934SOL    MW4 3510   2.043   3.325   1.562 -0.0270  0.0492 -0.6713
  935SOL     OW 3511   2.951   1.396   2.024  0.2635  0.1445  0.2424
  935SOL    HW2 3512   2.956   1.320   1.966 -0.7873 -0.1332  0.4835
  935SOL    HW3 3513   2.904   1.364   2.101 -1.1023  1.2718 -0.0723
  935SOL    MW4 3514   2.946   1.382   2.027 -0.0554  0.2566  0.2327
  936SOL     OW 3515   3.818   5.358   2.566 -0.4595  0.0972 -0.7630
  936SOL    HW2 3516   3.782   5.322   2.647  0.9546 -0.2535 -0.2624
  936SOL    HW3 3517   3.887   5.297   2.541  0.9325  1.5979 -0.7558
  936SOL    MW4 3518   3.822   5.346   2.574 -0.0893  0.2489 -0.6960
  937SOL     OW 3519   5.031   4.220   5.383  0.6015  0.1010 -0.4092
  937SOL    HW2 3520   5.103   4.280   5.399  1.6803 -1.2752  0.1244
  937SOL    HW3 3521   5.061   4.164   5.311  0.5146 -1.1426  0.4848
  937SOL    MW4 3522   5.044   4.220   5.375  0.7323 -0.2447 -0.2209
  938SOL     OW 3523   0.592   4.540   1.806 -0.2155 -1.1936 -0.0092
  938SOL    HW2 3524   0.649   4.474   1.767 -0.4849 -2.4170  1.5795
  938SOL    HW3 3525   0.640   4.571   1.883 -1.0327 -1.1222  0.4800
  938SOL    MW4 3526   0.606   4.535   1.811 -0.3589 -1.3456  0.2649
  939SOL     OW 3527   0.325   3.363   0.819 -0.1719  0.2527 -0.2082
  939SOL    HW2 3528   0.245   3.331   0.861  0.1974 -0.1750  0.1810
  939SOL    HW3 3529   0.387   3.290   0.827  0.6314  1.0038  0.5525
  939SOL    MW4 3530   0.323   3.349   0.825 -0.0172  0.2954 -0.0565
  940SOL     OW 3531   4.673   3.664   5.245 -0.2271  0.4364 -0.4441
  940SOL    HW2 3532   4.690   3.592   5.306 -0.5439 -0.4802 -1.4010
  940SOL    HW3 3533   4.607   3.629   5.185  1.7003  0.4645 -2.7181
  940SOL    MW4 3534   4.667   3.650   5.245 -0.0146  0.3192 -0.8704
  941SOL     OW 3535   4.035   5.691   4.884 -0.8384  0.0925 -0.2299
  941SOL    HW2 3536   4.081   5.709   4.802  0.2135 -0.4043  0.2271
  941SOL    HW3 3537   3.952   5.737   4.876 -0.7562  0.0415 -1.5798
  941SOL    MW4 3538   4.030   5.699   4.872 -0.6888  0.0202 -0.3477
  942SOL     OW 3539   0.626   0.560   2.451  0.0643 -0.0198  0.1160
  942SOL    HW2 3540   0.664   0.500   2.387  0.0825 -0.8027  0.8372
  942SOL    HW3 3541   0.533   0.539   2.452 -0.1303  0.7831 -0.4772
  942SOL    MW4 3542   0.619   0.550   2.443  0.0410 -0.0172  0.1329
  943SOL     OW 3543   4.321   2.204   5.221  0.8513 -0.2524 -0.0856
  943SOL    HW2 3544   4.388   2.269   5.243  0.9574  0.4151 -2.1242
  943SOL    HW3 3545   4.316   2.147   5.297 -0.7825  3.3448  2.8141
  943SOL    MW4 3546   4.329   2.205   5.234  0.6497  0.3103  0.0280
  944SOL     OW 3547   4.672   1.604   2.507  0.9203  0.1100 -0.1313
  944SOL    HW2 3548   4.584   1.639   2.521 -0.0066 -1.9616 -0.3330
  944SOL    HW3 3549   4.731   1.677   2.526 -0.7510  1.0101  1.9117
  944SOL    MW4 3550   4.668   1.618   2.511  0.5775 -0.0446  0.1116
  945SOL     OW 3551   6.037   1.140   2.574 -0.2133  0.1188 -0.5921
  945SOL    HW2 3552   6.052   1.098   2.658 -0.4571 -0.0389 -0.6255
  945SOL    HW3 3553   6.094   1.217   2.575  2.2195 -1.5305 -1.5410
  945SOL    MW4 3554   6.046   1.145   2.585  0.0755 -0.1196 -0.7217
  946SOL     OW 3555   5.240   3.832   5.380  0.2807  0.7000 -0.1544
  946SOL    HW2 3556   5.195   3.750   5.399  0.3946  0.3634 -1.2461
  946SOL    HW3 3557   5.323   3.805   5.340  1.6376  1.2899  2.0908
  946SOL    MW4 3558   5.245   3.817   5.377  0.4747  0.7334 -0.0022
  947SOL     OW 3559   4.391   2.110   1.031  0.0178  0.3927  0.4474
  947SOL    HW2 3560   4.486   2.118   1.041  0.3343 -0.4288 -1.4522
  947SOL    HW3 3561   4.355   2.166   1.099  1.8450 -0.3736  2.1422
  947SOL    MW4 3562   4.399   2.119   1.041  0.3006  0.1832  0.4203
  948SOL     OW 3563   3.976   2.640   3.358  0.2819 -0.1814  0.0629
  948SOL    HW2 3564   3.982   2.637   3.453 -0.0477 -1.3017  0.0589
  948SOL    HW3 3565   3.888   2.674   3.341  0.3881  0.1440  0.1514
  948SOL    MW4 3566   3.965   2.644   3.368  0.2524 -0.2863  0.0741
  949SOL     OW 3567   2.878   0.556   2.304 -0.1077 -0.2085 -0.6558
  949SOL    HW2 3568   2.805   0.607   2.269  1.7510  1.2088 -2.7779
  949SOL    HW3 3569   2.902   0.602   2.384 -1.0432 -0.2405 -0.3413
  949SOL    MW4 3570   2.871   0.569   2.310  0.0141 -0.0257 -0.8943
  950SOL     OW 3571   2.722   2.302   6.014  0.0321 -0.0070 -0.0066
  950SOL    HW2 3572   2.742   2.218   5.971  0.5369 -0.1948  0.5828
  950SOL    HW3 3573   2.805   2.348   6.017 -0.3548  0.7491 -0.8110
  950SOL    MW4 3574   2.735   2.297   6.009  0.0476  0.0680 -0.0350
  951SOL     OW 3575   0.086   2.860   0.444  0.0182 -0.3290  0.1833
  951SOL    HW2 3576   0.011   2.904   0.484  0.3801  0.5936 -0.1450
  951SOL    HW3 3577   0.162   2.898   0.487  0.3341 -0.6717 -0.0675
  951SOL    MW4 3578   0.086   2.871   0.455  0.1076 -0.2525  0.1069
  952SOL     OW 3579   5.220   3.118   5.281 -0.1955  0.5276 -0.3549
  952SOL    HW2 3580   5.286   3.081   5.340 -0.5307  0.8690  0.2374
  952SOL    HW3 3581   5.141   3.067   5.299 -0.4318  0.9687 -0.1471
  952SOL    MW4 3582   5.218   3.106   5.291 -0.2709  0.6309 -0.2493
  953SOL     OW 3583   5.335   3.586   2.480  0.0854 -0.0029 -0.1416
  953SOL    HW2 3584   5.417   3.623   2.513  0.1322 -2.5223  3.0311
  953SOL    HW3 3585   5.266   3.634   2.526 -0.3417  1.6132 -2.2666
  953SOL    MW4 3586   5.336   3.597   2.490  0.0352 -0.1220 -0.0034
  954SOL     OW 3587   1.203   4.611   3.241 -0.8393  0.2443  0.0917
  954SOL    HW2 3588   1.220   4.580   3.152 -0.3920 -0.0318  0.2734
  954SOL    HW3 3589   1.114   4.581   3.260 -1.0487  0.5659 -0.3748
  954SOL    MW4 3590   1.193   4.603   3.232 -0.8079  0.2503  0.0541
  955SOL     OW 3591   2.687   4.851   0.656 -0.2018  0.4744  0.3267
  955SOL    HW2 3592   2.706   4.814   0.569  0.8053 -2.0208  1.5104
  955SOL    HW3 3593   2.753   4.919   0.668  1.0277 -0.6035 -0.0656
  955SOL    MW4 3594   2.698   4.855   0.646  0.0933  0.0030  0.4311
  956SOL     OW 3595   2.734   4.238   4.147  0.3529 -0.0788  0.3391
  956SOL    HW2 3596   2.726   4.159   4.201 -1.2079  1.8111  3.0937
  956SOL    HW3 3597   2.819   4.275   4.172 -0.2478  0.6523  1.3435
  956SOL    MW4 3598   2.744   4.232   4.157  0.0677  0.2670  0.8351
  957SOL     OW 3599   3.628   1.151   1.876 -0.4302 -0.0495  0.0978
  957SOL    HW2 3600   3.572   1.227   1.859  0.9263  0.3749 -3.2025
  957SOL    HW3 3601   3.661   1.165   1.965 -2.6811  1.5085  0.7873
  957SOL    MW4 3602   3.625   1.163   1.886 -0.5482  0.2121 -0.2467
  958SOL     OW 3603   0.290   1.217   3.694  0.3656  0.5810 -0.8350
  958SOL    HW2 3604   0.227   1.275   3.652  1.1564  2.2343  0.1807
  958SOL    HW3 3605   0.364   1.273   3.718  0.2846 -0.3714  2.0971
  958SOL    MW4 3606   0.292   1.232   3.691  0.4592  0.6735 -0.3141
  959SOL     OW 3607   5.619   0.070   6.100  0.3961 -0.0919 -0.0560
  959SOL    HW2 3608   5.544   0.067   6.041  0.0518 -0.0800  0.3835
  959SOL    HW3 3609   5.626   0.163   6.125  0.2662 -0.1707  0.2766
  959SOL    MW4 3610   5.610   0.082   6.096  0.3335 -0.1007  0.0459
  960SOL     OW 3611   5.754   4.930   1.466  0.1689 -0.0686 -0.4097
  960SOL    HW2 3612   5.781   4.974   1.385 -0.6916  1.0089 -0.1335
  960SOL    HW3 3613   5.680   4.876   1.441  0.7136 -0.7501 -0.5847
  960SOL    MW4 3614   5.748   4.929   1.452  0.1272 -0.0164 -0.3964
  961SOL     OW 3615   4.974   2.216   0.196  0.2854 -0.0159  0.1446
  961SOL    HW2 3616   4.948   2.308   0.192 -2.3311 -0.7055 -0.8291
  961SOL    HW3 3617   4.893   2.167   0.180  1.7804 -2.4903 -0.4540
  961SOL    MW4 3618   4.960   2.222   0.193  0.1374 -0.4334 -0.0629
  962SOL     OW 3619   0.679   3.178   3.450 -0.0843  0.5285  0.1699
  962SOL    HW2 3620   0.628   3.103   3.481 -0.1758  1.2824  1.9434
  962SOL    HW3 3621   0.762   3.139   3.421 -0.3478 -0.3263  0.5242
  962SOL    MW4 3622   0.684   3.163   3.450 -0.1311  0.5152  0.4506
  963SOL     OW 3623   5.050   1.147   4.676  0.2588  0.1333  0.1028
  963SOL    HW2 3624   5.129   1.142   4.730  0.5644 -0.4469 -0.3960
  963SOL    HW3 3625   5.049   1.237   4.643  0.6568  0.1691  0.1894
  963SOL    MW4 3626   5.060   1.158   4.679  0.3516  0.0615  0.0484
  964SOL     OW 3627   2.603   0.045   5.125  0.2932 -0.1611 -0.1436
  964SOL    HW2 3628   2.693   0.065   5.149  0.3396 -0.4629 -0.0659
  964SOL    HW3 3629   2.608  -0.040   5.081  0.1969  0.3018 -1.0891
  964SOL    MW4 3630   2.615   0.036   5.122  0.2866 -0.1399 -0.2581
  965SOL     OW 3631   4.466   5.607   3.415 -0.1716  0.2904 -0.5163
  965SOL    HW2 3632   4.380   5.597   3.375 -0.1801  0.2989 -0.5003
  965SOL    HW3 3633   4.525   5.628   3.342 -0.3225  1.0581 -0.4278
  965SOL    MW4 3634   4.463   5.608   3.400 -0.1926  0.3928 -0.5025
  966SOL     OW 3635   6.114   4.267   1.359  0.4393 -1.0005  0.1242
  966SOL    HW2 3636   6.026   4.254   1.322  0.2351 -1.0396  0.6225
  966SOL    HW3 3637   6.163   4.310   1.288  0.2228 -1.6034 -0.4052
  966SOL    MW4 3638   6.109   4.271   1.344  0.3838 -1.0852  0.1201
  967SOL     OW 3639   3.340   5.786   4.634  0.0738  0.6805 -0.0618
  967SOL    HW2 3640   3.420   5.826   4.601 -1.4281  1.7770 -2.7448
  967SOL    HW3 3641   3.304   5.739   4.559 -2.8079  1.9595  0.3682
  967SOL    MW4 3642   3.346   5.785   4.620 -0.5046  0.9939 -0.3591
  968SOL     OW 3643   3.510   4.405   1.928  0.0944  0.0170 -0.3712
  968SOL    HW2 3644   3.471   4.399   1.840  0.1347  1.5521 -0.5171
  968SOL    HW3 3645   3.435   4.412   1.987  0.0834  2.5228 -0.6139
  968SOL    MW4 3646   3.495   4.405   1.924  0.0983  0.5501 -0.4225
  969SOL     OW 3647   0.372   4.117   3.807 -0.6250  0.2033 -0.6460
  969SOL    HW2 3648   0.408   4.206   3.806 -0.9040  0.3363  0.2698
  969SOL    HW3 3649   0.295   4.124   3.864  0.5125 -1.0487  1.1616
  969SOL    MW4 3650   0.366   4.130   3.815 -0.5118  0.0556 -0.2867
  970SOL     OW 3651   2.956   1.848   2.006 -0.4714  0.0993  0.3122
  970SOL    HW2 3652   2.896   1.819   2.074 -0.3460 -0.5889  0.1378
  970SOL    HW3 3653   2.918   1.929   1.973 -1.9895 -0.9575 -0.6526
  970SOL    MW4 3654   2.943   1.855   2.011 -0.6551 -0.1309  0.1619
  971SOL     OW 3655   2.129   2.676   4.971 -0.2113  0.1406 -0.3510
  971SOL    HW2 3656   2.222   2.669   4.993 -0.6340 -0.2751  1.4432
  971SOL    HW3 3657   2.104   2.588   4.945 -0.2698  0.1031 -0.1641
  971SOL    MW4 3658   2.138   2.664   4.970 -0.2748  0.0808 -0.0896
  972SOL     OW 3659   0.164   3.033   6.128 -0.2611 -0.4717 -0.5080
  972SOL    HW2 3660   0.096   3.090   6.162 -0.8544 -1.0586 -0.6890
  972SOL    HW3 3661   0.218   3.012   6.205 -0.7380 -0.6219 -0.2110
  972SOL    MW4 3662   0.162   3.037   6.143 -0.4023 -0.5689 -0.4927
  973SOL     OW 3663   0.925   1.583   0.772 -0.1441 -0.3626  0.2969
  973SOL    HW2 3664   1.000   1.609   0.719 -0.8517 -0.0271 -0.5700
  973SOL    HW3 3665   0.873   1.663   0.780 -1.4335 -1.0364 -0.8652
  973SOL    MW4 3666   0.928   1.597   0.766 -0.4076 -0.4072  0.0292
  974SOL     OW 3667   2.940   0.961   2.168  0.2053 -0.0918 -0.5063
  974SOL    HW2 3668   2.974   0.872   2.153 -1.9542 -1.0587  0.0200
  974SOL    HW3 3669   2.919   0.993   2.080  3.3988  1.0204 -0.9990
  974SOL    MW4 3670   2.942   0.954   2.154  0.3417 -0.0726 -0.5019
  975SOL     OW 3671   2.445   3.700   1.962  0.4469 -0.4046  0.2705
  975SOL    HW2 3672   2.507   3.706   1.890  1.1292  0.8010  0.9297
  975SOL    HW3 3673   2.475   3.625   2.014  2.2357  0.9453  1.3296
  975SOL    MW4 3674   2.457   3.691   1.959  0.7729 -0.0675  0.4972
  976SOL     OW 3675   0.761   1.964   2.071 -0.3170  0.1565 -0.6426
  976SOL    HW2 3676   0.751   1.973   2.166 -0.7350  1.3157 -0.7743
  976SOL    HW3 3677   0.681   2.002   2.035  0.8250  1.8950 -1.5078
  976SOL    MW4 3678   0.749   1.970   2.079 -0.2215  0.5388 -0.7741
  977SOL     OW 3679   1.022   0.321   4.389 -0.6134 -0.4938 -0.2709
  977SOL    HW2 3680   1.036   0.401   4.439 -2.1797 -2.1090  3.0301
  977SOL    HW3 3681   1.081   0.257   4.428  0.6905 -1.0609 -2.9134
  977SOL    MW4 3682   1.032   0.323   4.400 -0.6480 -0.7817 -0.1841
  978SOL     OW 3683   3.581   3.376   2.114 -0.1159 -0.8890  0.1842
  978SOL    HW2 3684   3.621   3.363   2.200  1.8787 -1.0249 -0.7083
  978SOL    HW3 3685   3.556   3.468   2.114 -0.9148 -1.0845  1.1978
  978SOL    MW4 3686   3.583   3.387   2.126  0.0419 -0.9327  0.2002
  979SOL     OW 3687   0.179   3.710   3.257  0.6733 -0.6632 -0.2364
  979SOL    HW2 3688   0.233   3.785   3.281 -0.3051  0.3203 -1.0298
  979SOL    HW3 3689   0.089   3.739   3.269  0.2412 -1.3122 -1.6335
  979SOL    MW4 3690   0.174   3.723   3.262  0.4872 -0.6190 -0.5254
  980SOL     OW 3691   0.816   4.432   3.933 -0.4920  1.0817  1.0797
  980SOL    HW2 3692   0.846   4.368   3.868 -0.3574 -0.1039  2.2576
  980SOL    HW3 3693   0.774   4.501   3.882  1.1383  1.0629 -0.3808
  980SOL    MW4 3694   0.815   4.432   3.918 -0.2591  0.9228  1.0424
  981SOL     OW 3695   1.183   2.671   1.529 -0.2920  0.0007  0.5801
  981SOL    HW2 3696   1.108   2.663   1.470  0.6592 -1.5172 -0.4858
  981SOL    HW3 3697   1.225   2.585   1.527  1.0513  0.5872  1.7458
  981SOL    MW4 3698   1.179   2.659   1.521  0.0108 -0.1222  0.5933
  982SOL     OW 3699   3.790   5.129   5.171 -0.0356  0.3376  0.4754
  982SOL    HW2 3700   3.769   5.211   5.127 -0.1204 -0.7895 -1.7192
  982SOL    HW3 3701   3.874   5.147   5.215  0.0107  1.5512 -0.0576
  982SOL    MW4 3702   3.798   5.142   5.171 -0.0407  0.3490  0.1155
  983SOL     OW 3703   5.691   3.641   3.490 -0.6200 -0.3078 -0.2833
  983SOL    HW2 3704   5.701   3.598   3.405  0.6242  0.6339 -0.6473
  983SOL    HW3 3705   5.649   3.725   3.470 -2.1105 -0.8800  0.2946
  983SOL    MW4 3706   5.687   3.647   3.476 -0.6525 -0.2590 -0.2551
  984SOL     OW 3707   4.295   2.978   2.563 -0.3074 -0.7446  0.4600
  984SOL    HW2 3708   4.239   2.977   2.641 -1.5553 -1.1408 -0.4135
  984SOL    HW3 3709   4.234   2.974   2.490  0.8894 -1.8544 -0.5230
  984SOL    MW4 3710   4.280   2.977   2.564 -0.3142 -0.9433  0.2150
  985SOL     OW 3711   3.531   0.436   3.653 -0.3928  0.0945  0.0079
  985SOL    HW2 3712   3.560   0.394   3.572  0.5329  2.0228 -0.7112
  985SOL    HW3 3713   3.476   0.509   3.624 -0.0981  0.7727  1.1210
  985SOL    MW4 3714   3.527   0.440   3.638 -0.2318  0.4384  0.0599
  986SOL     OW 3715   4.206   2.584   1.100  0.1864 -0.1323  0.0630
  986SOL    HW2 3716   4.132   2.560   1.156  1.1803 -1.2054  0.9530
  986SOL    HW3 3717   4.219   2.508   1.043  0.3012  0.2605 -0.4480
  986SOL    MW4 3718   4.198   2.571   1.100  0.3327 -0.2220  0.1130
  987SOL     OW 3719   3.184   3.891   5.586 -0.5919 -0.6299 -0.1959
  987SOL    HW2 3720   3.175   3.904   5.681 -1.1498 -0.8426 -0.2162
  987SOL    HW3 3721   3.191   3.980   5.551 -0.0701 -0.5608  0.0712
  987SOL    MW4 3722   3.184   3.905   5.594 -0.5967 -0.6489 -0.1633
  988SOL     OW 3723   5.199   1.384   5.929 -0.5281 -0.3771 -0.2084
  988SOL    HW2 3724   5.152   1.365   6.010 -1.3102 -1.0863 -0.8083
  988SOL    HW3 3725   5.275   1.436   5.957 -0.1175 -1.6217  1.1176
  988SOL    MW4 3726   5.203   1.388   5.944 -0.5771 -0.6348 -0.1126
  989SOL     OW 3727   5.667   6.392   5.338  0.1294  0.2368  0.3384
  989SOL    HW2 3728   5.700   6.340   5.265  0.3801 -0.9747  1.2957
  989SOL    HW3 3729   5.607   6.455   5.297  2.4047  1.5183 -1.2554
  989SOL    MW4 3730   5.663   6.394   5.323  0.4627  0.2461  0.2544
  990SOL     OW 3731   4.654   0.700   5.691 -0.4608  0.2334 -0.0207
  990SOL    HW2 3732   4.655   0.767   5.622  0.1865 -0.6022 -0.8611
  990SOL    HW3 3733   4.747   0.688   5.714 -0.5109 -0.7550 -0.2861
  990SOL    MW4 3734   4.667   0.708   5.685 -0.3820 -0.0073 -0.1666
  991SOL     OW 3735   0.938   3.719   4.952 -0.2615 -0.1506  0.3108
  991SOL    HW2 3736   0.947   3.638   4.901  1.3666 -1.3084  2.3111
  991SOL    HW3 3737   0.910   3.784   4.887  0.3589 -1.8317 -1.7770
  991SOL    MW4 3738   0.935   3.717   4.937  0.0352 -0.5252  0.2992
  992SOL     OW 3739   1.038   5.998   1.688 -0.0799 -0.5079 -0.2539
  992SOL    HW2 3740   1.038   6.090   1.714 -0.1388 -0.7439  0.6019
  992SOL    HW3 3741   1.027   5.950   1.770  1.9530 -1.3595 -0.4396
  992SOL    MW4 3742   1.036   6.004   1.702  0.1806 -0.6514 -0.1655
  993SOL     OW 3743   5.606   3.312   2.707 -0.0350 -0.1984 -0.0546
  993SOL    HW2 3744   5.555   3.246   2.755 -0.0053 -1.1281 -1.2457
  993SOL    HW3 3745   5.582   3.395   2.746 -1.8109 -0.7027 -0.0226
  993SOL    MW4 3746   5.596   3.314   2.719 -0.2654 -0.3876 -0.2075
  994SOL     OW 3747   6.410   2.199   4.856 -0.5071 -0.0798 -0.0178
  994SOL    HW2 3748   6.315   2.205   4.863 -0.5344 -0.6662  0.1660
  994SOL    HW3 3749   6.443   2.243   4.935 -0.6691 -1.1830  0.6877
  994SOL    MW4 3750   6.402   2.205   4.867 -0.5321 -0.3027  0.0995
  995SOL     OW 3751   1.091   3.618   3.406  0.0853  0.3641 -0.3157
  995SOL    HW2 3752   1.099   3.575   3.491 -1.4164  1.3619  0.3800
  995SOL    HW3 3753   1.147   3.567   3.347 -0.7422 -1.8307  0.6927
  995SOL    MW4 3754   1.099   3.606   3.409 -0.2220  0.2061 -0.0908
  996SOL     OW 3755   1.604   1.506   4.709 -0.0037  0.1513 -0.6516
  996SOL    HW2 3756   1.675   1.489   4.647  1.0147 -0.5443  0.6419
  996SOL    HW3 3757   1.580   1.420   4.743  0.5708  0.6281  1.0658
  996SOL    MW4 3758   1.610   1.492   4.705  0.2064  0.1225 -0.2544
  997SOL     OW 3759   5.829   1.315   2.363  0.1165 -0.2110 -0.2894
  997SOL    HW2 3760   5.736   1.305   2.384  0.1066  1.1471  0.4982
  997SOL    HW3 3761   5.831   1.380   2.293  0.5539  3.2584  2.6243
  997SOL    MW4 3762   5.817   1.322   2.357  0.1729  0.4260  0.1989
  998SOL     OW 3763   3.799   2.508   1.017  0.1253  0.1149 -0.1238
  998SOL    HW2 3764   3.853   2.537   0.944 -1.1410  0.9878 -0.7594
  998SOL    HW3 3765   3.823   2.416   1.029  0.1374 -0.1567 -1.8711
  998SOL    MW4 3766   3.809   2.500   1.009 -0.0402  0.1942 -0.4382
  999SOL     OW 3767   0.041   0.094   1.733  0.2317 -0.3346  0.3787
  999SOL    HW2 3768  -0.017   0.113   1.806 -1.8019 -2.5387 -0.5087
  999SOL    HW3 3769   0.044  -0.002   1.729  0.2277 -0.3168 -2.4031
  999SOL    MW4 3770   0.034   0.083   1.742 -0.0371 -0.6231 -0.1054
 1000SOL     OW 3771   5.792   6.334   3.271  0.2087  0.3133  0.1686
 1000SOL    HW2 3772   5.820   6.254   3.315  0.8290  1.1429  1.3344
 1000SOL    HW3 3773   5.858   6.349   3.204  2.5497  2.0299  2.6233
 1000SOL    MW4 3774   5.804   6.326   3.268  0.5994  0.6492  0.6463
 1001SOL     OW 3775   0.255   3.480   5.750 -0.3210  0.4290  0.0425
 1001SOL    HW2 3776   0.296   3.394   5.739 -2.6249 -0.9952  1.5264
 1001SOL    HW3 3777   0.319   3.531   5.799  1.3766 -0.1630 -1.4479
 1001SOL    MW4 3778   0.269   3.475   5.755 -0.4010  0.1630  0.0416
 1002SOL     OW 3779   1.558   3.033   0.807  0.2786 -0.0833 -0.4713
 1002SOL    HW2 3780   1.623   2.964   0.822 -1.0074 -1.0416  0.9926
 1002SOL    HW3 3781   1.584   3.103   0.868 -0.1930 -0.5700  0.2988
 1002SOL    MW4 3782   1.570   3.033   0.817  0.0467 -0.2739 -0.1765
 1003SOL     OW 3783   4.843   4.562   4.464  0.1336  0.1297 -0.1271
 1003SOL    HW2 3784   4.861   4.539   4.555 -3.2802  0.3789  0.7638
 1003SOL    HW3 3785   4.913   4.520   4.414  2.8566  1.0219  2.6354
 1003SOL    MW4 3786   4.855   4.553   4.469  0.0424  0.2803  0.3549
 1004SOL     OW 3787   2.596   1.108   1.942  0.1236  0.0808 -0.2216
 1004SOL    HW2 3788   2.690   1.095   1.935  0.1525 -0.0214  0.3777
 1004SOL    HW3 3789   2.560   1.022   1.962  0.0055  0.3078  0.5676
 1004SOL    MW4 3790   2.604   1.095   1.944  0.1118  0.0972 -0.0384
 1005SOL     OW 3791   6.295   1.856   0.940  0.4345 -0.1647  0.1067
 1005SOL    HW2 3792   6.282   1.779   0.885  0.6568 -1.3791  1.6974
 1005SOL    HW3 3793   6.223   1.853   1.003 -0.0037  1.3860 -0.2727
 1005SOL    MW4 3794   6.284   1.846   0.941  0.4060 -0.1204  0.2665
 1006SOL     OW 3795   5.731   1.136   2.603  0.3861 -0.2973  0.3299
 1006SOL    HW2 3796   5.725   1.102   2.692  1.5253 -0.1544  0.4672
 1006SOL    HW3 3797   5.824   1.145   2.586  0.1624  0.5929 -0.5358
 1006SOL    MW4 3798   5.742   1.133   2.613  0.5069 -0.1610  0.2338
 1007SOL     OW 3799   0.033   6.215   1.883 -0.0414 -0.4217 -0.8125
 1007SOL    HW2 3800   0.037   6.250   1.972 -0.0681 -1.6102 -0.3318
 1007SOL    HW3 3801   0.108   6.254   1.839 -1.0539  1.6224 -0.8248
 1007SOL    MW4 3802   0.044   6.225   1.889 -0.1785 -0.3088 -0.7507
 1008SOL     OW 3803   0.298   1.197   4.494  0.1968  0.2012  0.1381
 1008SOL    HW2 3804   0.296   1.293   4.489 -1.4333  0.1797 -0.1143
 1008SOL    HW3 3805   0.260   1.168   4.410 -0.2400 -0.6374  0.6098
 1008SOL    MW4 3806   0.293   1.206   4.482 -0.0759  0.0877  0.1671
 1009SOL     OW 3807   3.599   3.999   0.521  0.1389 -0.1111 -0.2168
 1009SOL    HW2 3808   3.580   4.077   0.573  1.8603 -0.1141  0.4909
 1009SOL    HW3 3809   3.662   4.030   0.455  1.5382 -1.0366  0.6263
 1009SOL    MW4 3810   3.605   4.013   0.519  0.5506 -0.2336 -0.0122
 1010SOL     OW 3811   6.198   4.777   2.660  0.1225 -0.0354  0.2804
 1010SOL    HW2 3812   6.292   4.757   2.656 -0.0295 -0.5711 -1.1411
 1010SOL    HW3 3813   6.188   4.826   2.742  1.7443  0.5843  0.1517
 1010SOL    MW4 3814   6.209   4.781   2.670  0.3164 -0.0243  0.0759
 1011SOL     OW 3815   0.806   6.435   2.692 -0.1771 -0.5034 -0.0624
 1011SOL    HW2 3816   0.713   6.417   2.707 -0.4773  1.3557  0.5383
 1011SOL    HW3 3817   0.806   6.503   2.624  0.6762  0.3149  0.7340
 1011SOL    MW4 3818   0.793   6.441   2.685 -0.1041 -0.1501  0.1219
 1012SOL     OW 3819   6.025   2.434   1.192  0.3260  0.0230  0.0111
 1012SOL    HW2 3820   6.074   2.362   1.230  1.4538  0.7132 -0.1055
 1012SOL    HW3 3821   6.087   2.479   1.136 -0.2156  1.3773  0.4548
 1012SOL    MW4 3822   6.039   2.431   1.190  0.4034  0.2928  0.0542
 1013SOL     OW 3823   3.249   0.055   2.743  0.0330 -0.1100 -0.3866
 1013SOL    HW2 3824   3.205   0.114   2.804 -0.3234 -1.0225  0.2635
 1013SOL    HW3 3825   3.178   0.016   2.692  0.2542 -0.1152 -0.6929
 1013SOL    MW4 3826   3.234   0.058   2.744  0.0152 -0.2311 -0.3413
 1014SOL     OW 3827   5.410   1.658   4.560  0.7586 -0.3637  0.5485
 1014SOL    HW2 3828   5.319   1.678   4.540  0.1182 -0.6471  2.8282
 1014SOL    HW3 3829   5.417   1.563   4.547  0.8767 -0.2560 -0.1615
 1014SOL    MW4 3830   5.399   1.648   4.556  0.6897 -0.3869  0.7556
 1015SOL     OW 3831   2.889   2.570   1.535  0.1706  0.1812  0.2087
 1015SOL    HW2 3832   2.828   2.506   1.499  1.1845 -0.3403 -0.6348
 1015SOL    HW3 3833   2.952   2.517   1.584  0.4253  0.6311  0.3751
 1015SOL    MW4 3834   2.889   2.554   1.537  0.3380  0.1717  0.1194
 1016SOL     OW 3835   6.281   0.663   2.152 -0.5034 -0.1109 -0.3552
 1016SOL    HW2 3836   6.298   0.737   2.210 -0.2800 -0.3122 -0.1552
 1016SOL    HW3 3837   6.369   0.633   2.127 -0.6034  0.3519 -1.2913
 1016SOL    MW4 3838   6.295   0.668   2.156 -0.4871 -0.0764 -0.4524
 1017SOL     OW 3839   5.328   1.614   1.896  0.3400  0.2830  0.0013
 1017SOL    HW2 3840   5.411   1.567   1.884  0.4942  0.2846  0.9640
 1017SOL    HW3 3841   5.279   1.597   1.816  0.9394 -0.4030 -0.2320
 1017SOL    MW4 3842   5.333   1.606   1.884  0.4394  0.1927  0.0975
 1018SOL     OW 3843   0.184   6.290   4.452 -0.1871  0.0329  0.3243
 1018SOL    HW2 3844   0.090   6.289   4.472 -0.1754 -0.4919  0.3664
 1018SOL    HW3 3845   0.200   6.378   4.419 -0.9923 -0.2999 -1.0789
 1018SOL    MW4 3846   0.174   6.301   4.450 -0.2918 -0.0803  0.1447
 1019SOL     OW 3847   4.370   0.275   2.783  0.2269  0.1072 -0.2958
 1019SOL    HW2 3848   4.347   0.368   2.785  0.4016  0.2608 -2.5816
 1019SOL    HW3 3849   4.457   0.273   2.745  0.1818 -1.0113 -0.3635
 1019SOL    MW4 3850   4.378   0.287   2.778  0.2440 -0.0201 -0.6063
 1020SOL     OW 3851   3.417   6.444   0.968  0.2592 -0.0177 -0.0839
 1020SOL    HW2 3852   3.346   6.507   0.984 -0.6153 -1.2627  1.0977
 1020SOL    HW3 3853   3.480   6.461   1.038  0.8025  0.5692 -0.6897
 1020SOL    MW4 3854   3.416   6.455   0.979  0.2155 -0.1045 -0.0079
 1021SOL     OW 3855   1.829   1.964   2.944 -0.0228  0.3846 -0.2199
 1021SOL    HW2 3856   1.820   1.990   3.036 -0.9738 -0.9424  0.0914
 1021SOL    HW3 3857   1.743   1.981   2.906 -0.5868 -1.8931 -0.0766
 1021SOL    MW4 3858   1.817   1.970   2.951 -0.2227 -0.0910 -0.1599
 1022SOL     OW 3859   3.941   4.114   0.643 -0.7810  0.5965 -0.0559
 1022SOL    HW2 3860   3.942   4.031   0.691  0.7066  0.3884 -0.3822
 1022SOL    HW3 3861   3.876   4.168   0.688  0.5257  0.3981  2.1871
 1022SOL    MW4 3862   3.933   4.110   0.655 -0.4123  0.5429  0.1970
 1023SOL     OW 3863   5.053   5.104   4.916 -0.1605 -0.1532 -0.0501
 1023SOL    HW2 3864   4.987   5.142   4.858 -0.7916 -0.9981  0.1009
 1023SOL    HW3 3865   5.003   5.052   4.978  0.4140  1.4871  1.8814
 1023SOL    MW4 3866   5.038   5.102   4.916 -0.1680 -0.0483  0.2246
 1024SOL     OW 3867   2.755   5.808   1.519  0.1282 -0.1343  0.0709
 1024SOL    HW2 3868   2.807   5.889   1.519 -1.3813  0.8832  0.1152
 1024SOL    HW3 3869   2.785   5.762   1.597  1.5280  0.0116 -0.3436
 1024SOL    MW4 3870   2.766   5.813   1.530  0.1137  0.0192  0.0221
 1025SOL     OW 3871   1.702   6.346   3.651 -0.1396 -0.2653 -0.3425
 1025SOL    HW2 3872   1.620   6.308   3.619 -1.3612  1.8107  0.1320
 1025SOL    HW3 3873   1.722   6.415   3.588  1.4392 -0.9491 -0.6163
 1025SOL    MW4 3874   1.694   6.350   3.638 -0.0925 -0.0816 -0.3160
 1026SOL     OW 3875   3.326   2.793   1.936  0.5530 -0.6373 -0.0312
 1026SOL    HW2 3876   3.239   2.829   1.923  0.2579 -1.2584  0.1778
 1026SOL    HW3 3877   3.383   2.869   1.943 -0.0594 -0.2080  0.4095
 1026SOL    MW4 3878   3.322   2.808   1.935  0.4333 -0.6626  0.0545
 1027SOL     OW 3879   3.715   1.385   2.280  0.1456  0.2037 -0.8217
 1027SOL    HW2 3880   3.741   1.300   2.245  2.1942 -0.1923  1.4226
 1027SOL    HW3 3881   3.683   1.365   2.368 -0.2744  1.6730 -0.6244
 1027SOL    MW4 3882   3.714   1.371   2.287  0.3605  0.3453 -0.4996
 1028SOL     OW 3883   1.865   5.344   0.367  0.3030  0.1367  0.4140
 1028SOL    HW2 3884   1.789   5.357   0.424  1.2281  0.7042  1.5743
 1028SOL    HW3 3885   1.940   5.342   0.427  1.1405 -1.2368 -0.6202
 1028SOL    MW4 3886   1.865   5.346   0.383  0.5356  0.0303  0.4306
 1029SOL     OW 3887   1.679   1.857   1.259 -0.1110 -0.3965  0.2457
 1029SOL    HW2 3888   1.703   1.950   1.260 -0.4330 -0.3099  0.7931
 1029SOL    HW3 3889   1.751   1.814   1.306 -0.6838 -0.2222  1.3104
 1029SOL    MW4 3890   1.692   1.864   1.266 -0.2291 -0.3621  0.4584
 1030SOL     OW 3891   6.109   5.230   1.591  0.2439  0.1396 -0.3141
 1030SOL    HW2 3892   6.110   5.150   1.642  1.5286 -0.5783 -1.3808
 1030SOL    HW3 3893   6.113   5.201   1.500  0.0376  1.4030 -0.7519
 1030SOL    MW4 3894   6.110   5.216   1.585  0.3862  0.2116 -0.5126
 1031SOL     OW 3895   2.159   0.457   4.513  0.1903  0.4631  0.2060
 1031SOL    HW2 3896   2.103   0.421   4.444  1.2197  0.1148 -0.4667
 1031SOL    HW3 3897   2.214   0.384   4.540  0.3481  0.8094  0.8404
 1031SOL    MW4 3898   2.159   0.443   4.507  0.3470  0.4628  0.2009
 1032SOL     OW 3899   3.781   0.613   5.271 -0.3750 -0.5583 -0.4313
 1032SOL    HW2 3900   3.747   0.543   5.215 -0.7772 -2.3153  1.8385
 1032SOL    HW3 3901   3.705   0.645   5.320 -0.0679  1.0344 -0.9451
 1032SOL    MW4 3902   3.767   0.608   5.270 -0.3876 -0.5800 -0.1996
 1033SOL     OW 3903   1.448   3.785   4.949  0.6635  0.8431 -0.2152
 1033SOL    HW2 3904   1.473   3.799   5.040 -0.7548  1.7697  0.0658
 1033SOL    HW3 3905   1.470   3.693   4.931  1.8528  0.9163  0.7351
 1033SOL    MW4 3906   1.454   3.775   4.958  0.6333  0.9750 -0.0527
 1034SOL     OW 3907   0.253   4.907   3.968 -0.2982  0.8673  0.1414
 1034SOL    HW2 3908   0.241   4.813   3.981 -2.0905  0.8543 -1.3265
 1034SOL    HW3 3909   0.198   4.948   4.035 -0.3892  0.8620  0.0701
 1034SOL    MW4 3910   0.244   4.900   3.979 -0.5467  0.8649 -0.0617
 1035SOL     OW 3911   2.298   4.247   4.058  0.1787  0.0959 -0.1300
 1035SOL    HW2 3912   2.337   4.215   3.977 -0.2558  0.4588 -0.4884
 1035SOL    HW3 3913   2.235   4.314   4.030 -0.1634  0.0413  0.4858
 1035SOL    MW4 3914   2.295   4.252   4.044  0.0762  0.1366 -0.0960
 1036SOL     OW 3915   4.758   5.292   5.925 -0.1979  0.0324 -0.3787
 1036SOL    HW2 3916   4.707   5.278   6.005  0.3670 -0.6553 -0.1272
 1036SOL    HW3 3917   4.846   5.314   5.956 -0.3171  1.1702 -0.8083
 1036SOL    MW4 3918   4.763   5.293   5.940 -0.1391  0.0918 -0.4022
 1037SOL     OW 3919   3.678   1.798   5.671 -0.5440 -0.8099 -0.0280
 1037SOL    HW2 3920   3.674   1.894   5.669 -0.7378 -0.8278 -2.3369
 1037SOL    HW3 3921   3.676   1.777   5.765  0.7273  1.4635  0.5920
 1037SOL    MW4 3922   3.677   1.808   5.683 -0.4019 -0.5123 -0.2508
 1038SOL     OW 3923   4.383   5.503   5.597 -0.0372 -0.5432 -0.1380
 1038SOL    HW2 3924   4.317   5.434   5.601  0.8057 -1.3890 -0.3956
 1038SOL    HW3 3925   4.334   5.580   5.570 -0.9089 -1.1706 -0.4251
 1038SOL    MW4 3926   4.368   5.504   5.594 -0.0410 -0.7375 -0.2098
 1039SOL     OW 3927   4.073   0.079   5.088 -0.1033  0.0178 -0.3712
 1039SOL    HW2 3928   4.162   0.096   5.119 -0.0354 -0.2403 -0.4158
 1039SOL    HW3 3929   4.047  -0.001   5.134 -0.8381  0.8543  0.6940
 1039SOL    MW4 3930   4.082   0.070   5.098 -0.1913  0.0941 -0.2365
 1040SOL     OW 3931   1.927   0.962   6.374 -0.2882  0.1253  0.1980
 1040SOL    HW2 3932   1.905   0.880   6.418  1.2220 -0.5947 -0.3446
 1040SOL    HW3 3933   1.917   0.943   6.280 -2.9688  1.4927  0.1000
 1040SOL    MW4 3934   1.923   0.949   6.367 -0.4426  0.2108  0.1135
 1041SOL     OW 3935   3.420   2.049   3.812  0.1137 -0.1804  0.1509
 1041SOL    HW2 3936   3.436   2.053   3.718  2.0576 -2.0584  0.3292
 1041SOL    HW3 3937   3.484   1.987   3.845  0.1963  1.1977  2.9091
 1041SOL    MW4 3938   3.430   2.042   3.804  0.3810 -0.2464  0.5384
 1042SOL     OW 3939   2.104   1.647   1.578 -0.1804 -0.2009 -0.5929
 1042SOL    HW2 3940   2.041   1.713   1.549 -0.2584  0.1557  0.3733
 1042SOL    HW3 3941   2.120   1.594   1.499 -2.1432 -0.6716 -0.7397
 1042SOL    MW4 3942   2.098   1.648   1.563 -0.4497 -0.2159 -0.4848
 1043SOL     OW 3943   2.313   1.396   5.028  0.7154  0.0802 -0.2061
 1043SOL    HW2 3944   2.233   1.390   5.081  0.9220 -0.8301  0.0368
 1043SOL    HW3 3945   2.380   1.421   5.091  0.4276  2.0330 -0.6347
 1043SOL    MW4 3946   2.311   1.398   5.044  0.7047  0.2178 -0.2306
 1044SOL     OW 3947   6.025   4.212   5.837 -0.3650  0.1531  0.1068
 1044SOL    HW2 3948   5.959   4.220   5.769 -1.3842 -0.6635  0.9647
 1044SOL    HW3 3949   6.074   4.133   5.815 -0.2261  0.2827 -0.0564
 1044SOL    MW4 3950   6.023   4.203   5.825 -0.4811  0.0625  0.1985
 1045SOL     OW 3951   0.313   5.254   1.352 -0.0585 -0.2802  0.1336
 1045SOL    HW2 3952   0.365   5.334   1.357 -0.7136  0.1774 -0.2802
 1045SOL    HW3 3953   0.274   5.255   1.265 -2.2938  0.3773  1.0485
 1045SOL    MW4 3954   0.315   5.264   1.341 -0.4398 -0.1331  0.1997
 1046SOL     OW 3955   3.703   1.064   4.509  0.1148  0.1236 -0.0231
 1046SOL    HW2 3956   3.711   1.051   4.415 -0.6808 -2.0109  0.1426
 1046SOL    HW3 3957   3.792   1.058   4.542  0.3845  0.7735 -0.6118
 1046SOL    MW4 3958   3.716   1.061   4.501  0.0455 -0.0723 -0.0789
 1047SOL     OW 3959   5.617   4.272   5.078 -0.3795  0.1686 -0.6123
 1047SOL    HW2 3960   5.705   4.233   5.072 -0.8792 -0.8529 -1.9058
 1047SOL    HW3 3961   5.628   4.348   5.134  1.6124  0.7824 -1.7420
 1047SOL    MW4 3962   5.630   4.277   5.084 -0.1826  0.1148 -0.9320
 1048SOL     OW 3963   4.400   5.083   4.423  0.3370 -0.6086  0.3341
 1048SOL    HW2 3964   4.423   4.997   4.386 -1.0504 -1.1503  0.6874
 1048SOL    HW3 3965   4.369   5.134   4.348  0.8323 -0.5178  0.1835
 1048SOL    MW4 3966   4.399   5.078   4.408  0.2193 -0.6681  0.3609
 1049SOL     OW 3967   2.638   0.601   1.264 -0.0631  0.4500 -0.0313
 1049SOL    HW2 3968   2.544   0.616   1.273  0.0751  1.7358 -0.4994
 1049SOL    HW3 3969   2.660   0.543   1.336 -1.2739 -0.1318 -0.1119
 1049SOL    MW4 3970   2.628   0.596   1.275 -0.2046  0.5429 -0.1037
 1050SOL     OW 3971   1.993   0.589   2.492 -0.4791 -0.0316  0.0912
 1050SOL    HW2 3972   1.899   0.577   2.505 -0.3243 -0.0682  1.2277
 1050SOL    HW3 3973   1.999   0.657   2.425 -1.3163 -1.0526 -1.0747
 1050SOL    MW4 3974   1.981   0.596   2.485 -0.5691 -0.1711  0.0873
 1051SOL     OW 3975   4.979   2.257   0.464  0.6407  0.2420  0.2876
 1051SOL    HW2 3976   5.026   2.243   0.382  0.6386 -1.8425  0.5704
 1051SOL    HW3 3977   4.891   2.286   0.437  1.1194  1.1328 -0.3618
 1051SOL    MW4 3978   4.973   2.259   0.450  0.7036  0.0845  0.2392
 1052SOL     OW 3979   4.920   0.046   0.809  0.1596 -0.0578  0.0095
 1052SOL    HW2 3980   4.901  -0.046   0.789  1.0604 -0.1929 -0.2884
 1052SOL    HW3 3981   4.878   0.095   0.738  0.4185 -0.3077 -0.3240
 1052SOL    MW4 3982   4.912   0.040   0.797  0.3126 -0.1086 -0.0738
 1053SOL     OW 3983   4.475   3.058   3.615  0.1360  0.1196 -0.6844
 1053SOL    HW2 3984   4.506   3.140   3.576  0.8162  0.2819  0.1592
 1053SOL    HW3 3985   4.505   3.062   3.705 -0.8474 -0.5421 -0.3143
 1053SOL    MW4 3986   4.483   3.070   3.621  0.0960  0.0537 -0.5243
 1054SOL     OW 3987   6.037   2.603   4.092 -0.0858  0.6221 -0.6797
 1054SOL    HW2 3988   6.090   2.663   4.038 -1.6330  1.0045 -1.8492
 1054SOL    HW3 3989   5.962   2.656   4.120 -1.5074 -0.7139 -1.7602
 1054SOL    MW4 3990   6.034   2.618   4.089 -0.4775  0.4963 -0.9766
 1055SOL     OW 3991   5.390   5.904   5.759 -0.2197  0.1229  0.0620
 1055SOL    HW2 3992   5.411   5.975   5.820  1.1967  1.3539 -1.7498
 1055SOL    HW3 3993   5.321   5.941   5.703  1.1398  0.4976 -1.4586
 1055SOL    MW4 3994   5.383   5.919   5.759  0.1466  0.3347 -0.3776
 1056SOL     OW 3995   2.270   0.181   2.542  0.2268  0.6633  0.0277
 1056SOL    HW2 3996   2.314   0.146   2.619  1.3544  0.1687 -0.8065
 1056SOL    HW3 3997   2.199   0.120   2.525  0.9130 -0.0988 -0.2013
 1056SOL    MW4 3998   2.267   0.169   2.550  0.4661  0.4975 -0.1126
 1057SOL     OW 3999   3.726   2.209   4.644 -0.0243  0.1236 -0.1168
 1057SOL    HW2 4000   3.802   2.252   4.684 -0.9787  1.5882  0.1745
 1057SOL    HW3 4001   3.713   2.130   4.696  1.9212 -0.7274 -0.8133
 1057SOL    MW4 4002   3.735   2.205   4.656  0.1064  0.2046 -0.1702
 1058SOL     OW 4003   1.684   2.286   6.211  0.3586  0.3578  0.3910
 1058SOL    HW2 4004   1.778   2.266   6.209  0.0703 -1.4597  1.8894
 1058SOL    HW3 4005   1.667   2.328   6.127  2.1419 -1.0514 -0.7613
 1058SOL    MW4 4006   1.694   2.289   6.200  0.5558 -0.0679  0.4367
 1059SOL     OW 4007   4.335   5.463   4.462 -0.3248 -0.2252  0.1088
 1059SOL    HW2 4008   4.393   5.487   4.534 -0.2001 -0.3962  0.0677
 1059SOL    HW3 4009   4.392   5.416   4.401 -0.5369 -0.5290  0.1417
 1059SOL    MW4 4010   4.350   5.460   4.464 -0.3363 -0.2878  0.1077
 1060SOL     OW 4011   0.948   1.623   4.619  0.1480 -0.4252  0.2466
 1060SOL    HW2 4012   0.997   1.670   4.552  0.1353  3.0033  2.3914
 1060SOL    HW3 4013   1.015   1.595   4.682 -0.2540  2.1972  1.9887
 1060SOL    MW4 4014   0.963   1.625   4.619  0.0933  0.3732  0.7594
 1061SOL     OW 4015   1.716   3.610   3.117 -0.2732  0.0873  0.4515
 1061SOL    HW2 4016   1.732   3.515   3.114 -0.7856  0.0308 -0.5571
 1061SOL    HW3 4017   1.636   3.619   3.168 -0.6893 -0.0867 -0.1624
 1061SOL    MW4 4018   1.708   3.598   3.124 -0.3957  0.0569  0.2374
 1062SOL     OW 4019   2.071   2.419   3.090  0.5731  0.1404 -0.2534
 1062SOL    HW2 4020   2.083   2.446   2.999 -0.7162  1.1033 -0.1649
 1062SOL    HW3 4021   2.129   2.477   3.139  1.7891 -0.8346 -0.4906
 1062SOL    MW4 4022   2.080   2.431   3.084  0.5634  0.1388 -0.2730
 1063SOL     OW 4023   3.615   3.666   0.043  0.0492  0.2537 -0.1156
 1063SOL    HW2 4024   3.604   3.576   0.073  0.1238  0.3062  0.0714
 1063SOL    HW3 4025   3.628   3.717   0.123  0.9950  0.2846 -0.2791
 1063SOL    MW4 4026   3.615   3.661   0.057  0.1839  0.2647 -0.1125
 1064SOL     OW 4027   3.869   3.032   3.348  0.5948 -0.1386 -0.5300
 1064SOL    HW2 4028   3.894   2.965   3.411  2.2051 -0.6660 -1.6679
 1064SOL    HW3 4029   3.792   2.996   3.303  1.3720 -1.1961 -1.0412
 1064SOL    MW4 4030   3.862   3.019   3.350  0.9098 -0.3477 -0.7476
 1065SOL     OW 4031   5.999   3.003   1.981  0.5297  0.1936 -0.0077
 1065SOL    HW2 4032   5.956   3.048   1.908  0.3315  2.3696  1.3790
 1065SOL    HW3 4033   6.006   2.912   1.951 -4.8344 -0.3797 -0.4837
 1065SOL    MW4 4034   5.994   2.997   1.967 -0.2042  0.4050  0.1124
 1066SOL     OW 4035   5.171   0.744   1.073 -0.3585 -0.1323  0.2061
 1066SOL    HW2 4036   5.108   0.683   1.110  1.1253  0.2067  3.6487
 1066SOL    HW3 4037   5.256   0.706   1.092  0.5705  1.8937  0.4016
 1066SOL    MW4 4038   5.174   0.731   1.080 -0.0401  0.1797  0.6861
 1067SOL     OW 4039   3.721   3.354   1.644  0.3081  0.7108  0.7681
 1067SOL    HW2 4040   3.657   3.288   1.673  0.5678  0.1107  0.0115
 1067SOL    HW3 4041   3.712   3.425   1.707 -1.1495  0.6687  0.6492
 1067SOL    MW4 4042   3.711   3.354   1.656  0.1500  0.6261  0.6526
 1068SOL     OW 4043   0.483   2.671   1.732 -0.2473 -0.0618 -0.2135
 1068SOL    HW2 4044   0.517   2.625   1.655  3.2986 -1.0826  1.7408
 1068SOL    HW3 4045   0.505   2.614   1.805 -1.4729  1.8902  1.7938
 1068SOL    MW4 4046   0.491   2.658   1.731  0.0588  0.0610  0.3092
 1069SOL     OW 4047   4.729   0.949   3.771 -0.0826 -0.2372 -0.1477
 1069SOL    HW2 4048   4.763   0.952   3.861 -0.0199  1.3794 -0.1921
 1069SOL    HW3 4049   4.638   0.979   3.780  0.0563  0.3613 -0.6670
 1069SOL    MW4 4050   4.721   0.954   3.784 -0.0560  0.0551 -0.2221
 1070SOL     OW 4051   5.905   4.419   0.008 -0.5004  0.7010  0.0765
 1070SOL    HW2 4052   5.927   4.423  -0.086  0.7498  0.1887  0.3278
 1070SOL    HW3 4053   5.990   4.411   0.052 -1.1148  0.3383  1.2254
 1070SOL    MW4 4054   5.919   4.419   0.001 -0.4165  0.5856  0.2612
 1071SOL     OW 4055   0.166   3.875   5.077 -0.0432 -0.4041 -0.1940
 1071SOL    HW2 4056   0.244   3.903   5.124 -0.4189 -1.1643  0.9064
 1071SOL    HW3 4057   0.110   3.952   5.076  1.7348  1.0614 -3.3726
 1071SOL    MW4 4058   0.169   3.889   5.083  0.1418 -0.3110 -0.4682
 1072SOL     OW 4059   2.947   2.578   6.306  0.5629  0.0032 -0.4996
 1072SOL    HW2 4060   2.923   2.500   6.357 -0.8175  1.1041  0.6315
 1072SOL    HW3 4061   3.014   2.621   6.359  0.8356 -0.0701 -0.7870
 1072SOL    MW4 4062   2.952   2.573   6.320  0.4168  0.1388 -0.3883
 1073SOL     OW 4063   2.435   0.760   1.702  0.2743  0.0006 -0.6639
 1073SOL    HW2 4064   2.482   0.807   1.634  1.1393 -0.9677 -0.7488
 1073SOL    HW3 4065   2.344   0.759   1.671  0.6419 -0.3758 -1.7770
 1073SOL    MW4 4066   2.429   0.766   1.689  0.4369 -0.1768 -0.8219
 1074SOL     OW 4067   6.175   2.416   5.520 -0.3733 -0.4069 -0.1923
 1074SOL    HW2 4068   6.230   2.377   5.453  1.9148  1.1834  0.6365
 1074SOL    HW3 4069   6.228   2.414   5.600 -2.6545 -1.4126  1.4148
 1074SOL    MW4 4070   6.189   2.411   5.522 -0.3724 -0.3298  0.1291
 1075SOL     OW 4071   1.153   6.352   0.295  0.0508  0.2302  0.1497
 1075SOL    HW2 4072   1.202   6.303   0.229  1.5758 -1.2967  2.2692
 1075SOL    HW3 4073   1.207   6.429   0.314 -0.1900  0.4631 -0.1102
 1075SOL    MW4 4074   1.166   6.356   0.289  0.2202  0.0595  0.3950
 1076SOL     OW 4075   1.576   1.035   0.712 -0.3985 -0.0979  0.3166
 1076SOL    HW2 4076   1.628   1.112   0.733 -1.0729  1.2625 -2.4922
 1076SOL    HW3 4077   1.641   0.968   0.690  0.2694  1.0248 -1.3573
 1076SOL    MW4 4078   1.592   1.036   0.712 -0.3993  0.2297 -0.2749
 1077SOL     OW 4079   0.274   2.359   5.781 -0.4427 -0.0334 -0.0462
 1077SOL    HW2 4080   0.281   2.263   5.781 -0.6426 -0.0881 -1.9645
 1077SOL    HW3 4081   0.186   2.377   5.748 -1.0084  0.8287  1.8279
 1077SOL    MW4 4082   0.263   2.349   5.777 -0.5437  0.0732 -0.0520
 1078SOL     OW 4083   4.602   2.543   3.517 -0.3917 -0.1356 -0.1052
 1078SOL    HW2 4084   4.689   2.582   3.503 -1.1426  1.3299 -0.8464
 1078SOL    HW3 4085   4.581   2.502   3.433  0.0781 -1.6167  0.4499
 1078SOL    MW4 4086   4.611   2.543   3.504 -0.4288 -0.1377 -0.1297
 1079SOL     OW 4087   3.586   5.958   4.570  0.4408 -0.0818 -0.2217
 1079SOL    HW2 4088   3.524   6.005   4.514  1.1904 -1.5131 -2.4056
 1079SOL    HW3 4089   3.631   6.027   4.619 -1.8499  1.0723  0.3973
 1079SOL    MW4 4090   3.584   5.974   4.569  0.2375 -0.1184 -0.4281
 1080SOL     OW 4091   6.177   2.859   1.341 -0.3567 -0.3209 -0.1766
 1080SOL    HW2 4092   6.217   2.902   1.265  0.6490  1.3634  1.2481
 1080SOL    HW3 4093   6.220   2.774   1.345  0.5746  0.1045 -0.7090
 1080SOL    MW4 4094   6.188   2.853   1.331 -0.1012 -0.0425 -0.0589
 1081SOL     OW 4095   2.888   5.765   2.585 -0.2798 -0.0305  0.5247
 1081SOL    HW2 4096   2.965   5.785   2.637  0.7111 -0.1909 -0.8237
 1081SOL    HW3 4097   2.876   5.670   2.596  1.4990 -0.5828 -1.4754
 1081SOL    MW4 4098   2.896   5.755   2.593  0.0856 -0.1246  0.0829
 1082SOL     OW 4099   2.422   6.012   0.663  0.3090  0.0448 -0.0148
 1082SOL    HW2 4100   2.348   6.017   0.724  0.5285 -0.9229  0.3550
 1082SOL    HW3 4101   2.485   5.954   0.706  0.9789  0.2842 -0.6457
 1082SOL    MW4 4102   2.421   6.005   0.676  0.4263 -0.0513 -0.0493
 1083SOL     OW 4103   0.240   1.663   3.333  0.4454  0.1349  0.3414
 1083SOL    HW2 4104   0.243   1.619   3.249 -0.1380 -0.7431  0.7661
 1083SOL    HW3 4105   0.331   1.668   3.361  0.7192  1.0574 -0.6361
 1083SOL    MW4 4106   0.252   1.658   3.326  0.4046  0.1408  0.2684
 1084SOL     OW 4107   5.848   5.229   5.865  0.2743  0.5075 -0.5435
 1084SOL    HW2 4108   5.859   5.279   5.784  1.2951 -0.0042 -0.7333
 1084SOL    HW3 4109   5.916   5.263   5.923 -0.8600  1.3285  0.3519
 1084SOL    MW4 4110   5.859   5.240   5.862  0.2593  0.5483 -0.4504
 1085SOL     OW 4111   2.308   5.511   4.638  0.0002  0.1347 -0.5248
 1085SOL    HW2 4112   2.245   5.536   4.570  0.3089  0.5484 -0.6608
 1085SOL    HW3 4113   2.272   5.548   4.719 -0.7337 -0.9604 -0.3347
 1085SOL    MW4 4114   2.295   5.519   4.640 -0.0559  0.0448 -0.5177
 1086SOL     OW 4115   6.091   0.038   2.017  0.4651  0.2734 -0.3404
 1086SOL    HW2 4116   6.045   0.027   2.101  0.5623 -1.3400 -0.4614
 1086SOL    HW3 4117   6.042  -0.018   1.956  0.3400  1.4938 -1.4086
 1086SOL    MW4 4118   6.078   0.029   2.020  0.4614  0.2216 -0.4973
 1087SOL     OW 4119   0.126   4.694   5.853  0.1748 -0.0286 -0.5841
 1087SOL    HW2 4120   0.105   4.620   5.795 -2.7241  0.0840  0.1666
 1087SOL    HW3 4121   0.113   4.660   5.941 -0.5580  1.1807 -0.2009
 1087SOL    MW4 4122   0.121   4.680   5.857 -0.3044  0.1458 -0.4345
 1088SOL     OW 4123   1.378   5.466   4.171  0.3475 -0.1039  0.1642
 1088SOL    HW2 4124   1.410   5.386   4.130  0.5080  0.4007 -0.7244
 1088SOL    HW3 4125   1.419   5.537   4.121  1.1620  0.5544  1.6548
 1088SOL    MW4 4126   1.388   5.465   4.159  0.4761  0.0495  0.2436
 1089SOL     OW 4127   3.321   3.038   2.998  0.0326 -0.0483 -0.1404
 1089SOL    HW2 4128   3.229   3.021   3.018 -0.0161 -0.1862 -0.4738
 1089SOL    HW3 4129   3.344   3.114   3.052 -0.1766 -0.2321  0.2129
 1089SOL    MW4 4130   3.312   3.046   3.008 -0.0015 -0.0907 -0.1378
 1090SOL     OW 4131   5.998   6.366   5.364 -0.6739  0.4230  0.3042
 1090SOL    HW2 4132   5.922   6.379   5.422  0.6584  1.1603  1.9805
 1090SOL    HW3 4133   6.025   6.455   5.340  0.5051  0.2598  0.9305
 1090SOL    MW4 4134   5.991   6.380   5.369 -0.3426  0.4987  0.6080
 1091SOL     OW 4135   4.390   4.291   0.809 -0.3370 -0.1344  0.5787
 1091SOL    HW2 4136   4.344   4.277   0.892 -0.6366  1.3149  0.6791
 1091SOL    HW3 4137   4.482   4.273   0.828 -0.3645  0.4670  1.3026
 1091SOL    MW4 4138   4.396   4.287   0.822 -0.3802  0.1361  0.6875
 1092SOL     OW 4139   6.032   2.930   3.491  0.2102 -0.2770  0.3141
 1092SOL    HW2 4140   6.083   2.955   3.568  1.9003 -0.0512 -0.8147
 1092SOL    HW3 4141   6.055   2.838   3.477 -1.8886 -1.0278  1.3709
 1092SOL    MW4 4142   6.042   2.921   3.499  0.1563 -0.3463  0.3046
 1093SOL     OW 4143   5.671   2.364   2.400 -1.0732 -0.2150 -0.5981
 1093SOL    HW2 4144   5.749   2.320   2.434 -0.9648 -0.0916 -0.6858
 1093SOL    HW3 4145   5.599   2.328   2.451 -0.7170  1.4081  1.1782
 1093SOL    MW4 4146   5.672   2.354   2.411 -1.0119  0.0154 -0.3753
 1094SOL     OW 4147   2.875   3.021   2.179  0.0692  0.1601  0.4470
 1094SOL    HW2 4148   2.832   3.107   2.175  1.4356  0.8876  0.8523
 1094SOL    HW3 4149   2.817   2.968   2.234 -0.0323  1.2848  1.4664
 1094SOL    MW4 4150   2.861   3.025   2.186  0.2361  0.4045  0.6350
 1095SOL     OW 4151   4.826   5.302   2.799 -0.0820 -0.2583 -0.5860
 1095SOL    HW2 4152   4.826   5.314   2.704 -1.0637 -0.6484 -0.6483
 1095SOL    HW3 4153   4.755   5.240   2.815  0.4811 -0.6881  0.3484
 1095SOL    MW4 4154   4.817   5.295   2.788 -0.1373 -0.3665 -0.4709
 1096SOL     OW 4155   5.155   1.398   5.562 -0.3543 -0.3445 -0.2149
 1096SOL    HW2 4156   5.096   1.373   5.633 -0.0871 -0.0702  0.1087
 1096SOL    HW3 4157   5.229   1.337   5.569 -1.1015 -1.4391 -1.3280
 1096SOL    MW4 4158   5.157   1.387   5.572 -0.4176 -0.4528 -0.3191
 1097SOL     OW 4159   3.392   1.674   1.345 -0.6969 -0.5470  0.0301
 1097SOL    HW2 4160   3.483   1.681   1.314 -0.6259  0.8702  0.5078
 1097SOL    HW3 4161   3.359   1.763   1.344 -1.3694 -0.7247  1.9802
 1097SOL    MW4 4162   3.400   1.687   1.341 -0.7763 -0.3835  0.3504
 1098SOL     OW 4163   1.192   5.315   1.609  0.4330 -0.1661  0.1798
 1098SOL    HW2 4164   1.248   5.258   1.557 -0.7403 -0.4359 -0.8644
 1098SOL    HW3 4165   1.131   5.353   1.544  0.3284  1.2176  1.0437
 1098SOL    MW4 4166   1.191   5.313   1.593  0.2644 -0.0192  0.1560
 1099SOL     OW 4167   2.559   0.336   4.987 -0.0003  0.5132 -0.1850
 1099SOL    HW2 4168   2.547   0.349   4.893 -0.0528  1.1186 -0.0944
 1099SOL    HW3 4169   2.649   0.304   4.995 -0.3926 -0.7564 -0.5468
 1099SOL    MW4 4170   2.569   0.333   4.975 -0.0589  0.4256 -0.2207
 1100SOL     OW 4171   2.667   3.747   1.784  0.4569 -0.1381  0.0396
 1100SOL    HW2 4172   2.678   3.772   1.692 -0.2141  0.2550  0.0609
 1100SOL    HW3 4173   2.692   3.825   1.834  1.2975 -0.5082  0.2190
 1100SOL    MW4 4174   2.672   3.761   1.778  0.4793 -0.1350  0.0661
 1101SOL     OW 4175   2.380   3.814   5.624  0.5772 -0.1447  0.1017
 1101SOL    HW2 4176   2.414   3.823   5.713  0.3612 -3.1239  0.5775
 1101SOL    HW3 4177   2.434   3.745   5.585  0.4066  0.8305 -1.9828
 1101SOL    MW4 4178   2.392   3.806   5.631  0.5262 -0.4091 -0.1105
 1102SOL     OW 4179   0.084   6.219   3.416  0.2573  0.5206  0.0988
 1102SOL    HW2 4180   0.074   6.291   3.478  0.4242  1.1105 -0.5392
 1102SOL    HW3 4181   0.151   6.250   3.355 -0.4602  0.2933 -0.8272
 1102SOL    MW4 4182   0.091   6.233   3.416  0.1846  0.5685 -0.1076
 1103SOL     OW 4183   4.163   3.936   3.939  0.0700 -0.4677 -0.3213
 1103SOL    HW2 4184   4.097   3.969   4.000  0.6174 -1.2114  0.7214
 1103SOL    HW3 4185   4.234   4.000   3.944 -0.5466  0.3395 -1.4533
 1103SOL    MW4 4186   4.164   3.949   3.948  0.0609 -0.4594 -0.3331
 1104SOL     OW 4187   2.818   5.403   2.282 -0.1190  0.0263  0.3473
 1104SOL    HW2 4188   2.863   5.333   2.330  0.0638 -0.3771 -0.3996
 1104SOL    HW3 4189   2.864   5.483   2.308  0.1890 -0.2268  0.5929
 1104SOL    MW4 4190   2.830   5.404   2.292 -0.0543 -0.0603  0.2811
 1105SOL     OW 4191   2.066   4.382   4.684  0.0093 -0.0395  0.1966
 1105SOL    HW2 4192   2.066   4.409   4.592 -1.0465  0.1045  0.2296
 1105SOL    HW3 4193   2.157   4.355   4.701  1.1595  3.3525  0.1343
 1105SOL    MW4 4194   2.078   4.382   4.674  0.0217  0.4270  0.1927
 1106SOL     OW 4195   0.533   0.740   3.617  0.1347  0.0099  0.4303
 1106SOL    HW2 4196   0.574   0.787   3.689  0.1246 -1.6678  1.5798
 1106SOL    HW3 4197   0.451   0.788   3.601 -0.1886  0.0369  1.9949
 1106SOL    MW4 4198   0.527   0.752   3.624  0.0907 -0.2079  0.7884
 1107SOL     OW 4199   4.521   1.181   4.590 -0.4100 -0.0893 -1.0843
 1107SOL    HW2 4200   4.557   1.243   4.654  1.4785 -2.2496  0.1221
 1107SOL    HW3 4201   4.487   1.236   4.520  0.0766  2.3202  0.4280
 1107SOL    MW4 4202   4.521   1.196   4.589 -0.0967 -0.0564 -0.7256
 1108SOL     OW 4203   1.792   1.205   5.015  0.3416 -0.0973  0.4552
 1108SOL    HW2 4204   1.738   1.177   5.089  0.9921 -1.2199  0.5352
 1108SOL    HW3 4205   1.833   1.124   4.985 -0.0289  0.3044 -1.2352
 1108SOL    MW4 4206   1.790   1.191   5.021  0.3785 -0.1924  0.2427
 1109SOL     OW 4207   4.925   1.596   3.845  0.6864 -0.2892 -0.5079
 1109SOL    HW2 4208   4.866   1.585   3.771  1.1193  0.1482 -0.9215
 1109SOL    HW3 4209   4.962   1.683   3.834 -1.8323  1.3223  2.0881
 1109SOL    MW4 4210   4.922   1.606   3.834  0.4112 -0.0188 -0.2200
 1110SOL     OW 4211   4.850   2.410   3.212 -0.0746  0.1500  0.4505
 1110SOL    HW2 4212   4.890   2.439   3.130  0.4694 -0.1239  0.6182
 1110SOL    HW3 4213   4.762   2.448   3.210 -0.4817 -0.8214 -0.7993
 1110SOL    MW4 4214   4.844   2.419   3.201 -0.0566 -0.0143  0.3077
 1111SOL     OW 4215   4.954   2.838   1.620  0.5048 -0.2656  0.0669
 1111SOL    HW2 4216   4.873   2.787   1.614  0.0155  0.4535  0.4133
 1111SOL    HW3 4217   4.944   2.890   1.700  0.5547  1.0746 -0.7582
 1111SOL    MW4 4218   4.942   2.838   1.629  0.4468  0.0061  0.0037
 1112SOL     OW 4219   4.799   1.873   5.777  0.8134 -0.0635 -0.1476
 1112SOL    HW2 4220   4.823   1.784   5.750  0.1795 -0.4802  0.6069
 1112SOL    HW3 4221   4.791   1.867   5.873  1.3776  0.9616 -0.0265
 1112SOL    MW4 4222   4.801   1.860   5.786  0.8042  0.0168 -0.0321
 1113SOL     OW 4223   0.810   6.419   1.467 -0.3475  0.3539  0.3634
 1113SOL    HW2 4224   0.767   6.447   1.387 -0.4704  1.3958  0.7849
 1113SOL    HW3 4225   0.846   6.332   1.446 -0.8449  0.3822 -0.6345
 1113SOL    MW4 4226   0.809   6.411   1.454 -0.4293  0.4951  0.2874
 1114SOL     OW 4227   1.681   2.397   0.152  0.6290 -0.2036  0.1202
 1114SOL    HW2 4228   1.771   2.420   0.126  0.5685 -0.0133  0.0713
 1114SOL    HW3 4229   1.637   2.482   0.162  0.5078 -0.2918  0.3351
 1114SOL    MW4 4230   1.687   2.412   0.150  0.6050 -0.1902  0.1421
 1115SOL     OW 4231   2.462   3.304   0.084  0.9483 -0.5668  0.1024
 1115SOL    HW2 4232   2.425   3.386   0.053 -1.4857 -1.2245  1.0249
 1115SOL    HW3 4233   2.446   3.242   0.013 -1.4732 -1.2591  1.1571
 1115SOL    MW4 4234   2.455   3.307   0.070  0.3077 -0.7449  0.3633
 1116SOL     OW 4235   2.343   4.269   2.679 -0.1113  0.1341 -0.5288
 1116SOL    HW2 4236   2.369   4.231   2.762 -1.7620  1.1437  0.5038
 1116SOL    HW3 4237   2.329   4.362   2.698 -2.0081  0.1001 -1.5576
 1116SOL    MW4 4238   2.345   4.276   2.692 -0.5793  0.2628 -0.5283
 1117SOL     OW 4239   2.462   5.207   5.013  0.2752  0.0376 -0.0562
 1117SOL    HW2 4240   2.368   5.216   5.000  0.4223  1.5072 -0.2594
 1117SOL    HW3 4241   2.484   5.271   5.081  1.2219  0.2128 -0.5049
 1117SOL    MW4 4242   2.453   5.216   5.020  0.4195  0.2546 -0.1422
 1118SOL     OW 4243   1.954   3.511   1.172 -0.6017 -0.7007  0.2022
 1118SOL    HW2 4244   1.965   3.596   1.130 -1.1415 -0.5127  0.4308
 1118SOL    HW3 4245   1.879   3.472   1.127  0.4672 -1.6472 -0.8373
 1118SOL    MW4 4246   1.945   3.517   1.160 -0.5319 -0.8008  0.0952
 1119SOL     OW 4247   0.204   1.206   0.637  0.5533 -0.5130 -0.1208
 1119SOL    HW2 4248   0.248   1.173   0.559 -0.1762 -0.9552 -0.3501
 1119SOL    HW3 4249   0.160   1.286   0.607  2.2247  0.6486  0.4067
 1119SOL    MW4 4250   0.204   1.213   0.623  0.6776 -0.4181 -0.0815
 1120SOL     OW 4251   5.030   3.861   1.159  0.2965  0.4900  0.1958
 1120SOL    HW2 4252   5.066   3.944   1.190 -1.9935  1.0654  1.5247
 1120SOL    HW3 4253   4.966   3.837   1.225 -1.5233 -0.5990 -1.8533
 1120SOL    MW4 4254   5.026   3.869   1.172 -0.2457  0.4222  0.1008
 1121SOL     OW 4255   4.029   2.399   3.264 -0.2052  0.0731 -0.4636
 1121SOL    HW2 4256   4.083   2.398   3.185  0.1847 -0.7100 -0.2054
 1121SOL    HW3 4257   4.029   2.490   3.292 -0.3718  0.3614 -1.3771
 1121SOL    MW4 4258   4.036   2.411   3.257 -0.1757  0.0078 -0.5501
 1122SOL     OW 4259   3.609   3.307   4.439 -0.6027 -0.4893 -0.3603
 1122SOL    HW2 4260   3.523   3.343   4.417  0.0072  0.7084 -0.8771
 1122SOL    HW3 4261   3.592   3.247   4.512 -1.7276  0.5261  0.2482
 1122SOL    MW4 4262   3.595   3.303   4.445 -0.6706 -0.1973 -0.3482
 1123SOL     OW 4263   1.642   2.047   4.141  0.0259 -0.3836  0.1136
 1123SOL    HW2 4264   1.581   2.071   4.210 -0.2171 -1.9823  0.5079
 1123SOL    HW3 4265   1.697   1.979   4.180  1.9508  0.8610 -0.3011
 1123SOL    MW4 4266   1.641   2.041   4.155  0.2478 -0.4303  0.1109
 1124SOL     OW 4267   0.351   6.349   1.907 -0.1706 -0.3293 -0.0010
 1124SOL    HW2 4268   0.322   6.302   1.985  0.1773  0.4280  0.5990
 1124SOL    HW3 4269   0.350   6.441   1.932  0.6305 -0.1230 -0.6649
 1124SOL    MW4 4270   0.347   6.355   1.920 -0.0190 -0.2021 -0.0094
 1125SOL     OW 4271   6.007   2.769   2.301 -0.1703 -0.2706 -0.1874
 1125SOL    HW2 4272   6.017   2.699   2.236 -0.2206 -0.1764 -0.2979
 1125SOL    HW3 4273   5.912   2.781   2.309 -0.1538  0.2620 -0.6915
 1125SOL    MW4 4274   5.996   2.761   2.293 -0.1748 -0.1879 -0.2685
 1126SOL     OW 4275   1.726   0.725   3.417  0.1871 -0.4706  0.6217
 1126SOL    HW2 4276   1.741   0.630   3.419  0.0463 -0.5176 -0.2307
 1126SOL    HW3 4277   1.722   0.747   3.324 -0.6642  0.2427  0.8145
 1126SOL    MW4 4278   1.728   0.715   3.405  0.0562 -0.3827  0.5347
 1127SOL     OW 4279   3.932   1.009   4.130  0.2379  0.0069  0.4512
 1127SOL    HW2 4280   3.962   1.095   4.160  0.3598  0.6128 -1.2976
 1127SOL    HW3 4281   3.919   1.019   4.036  1.4981 -2.2452 -0.0493
 1127SOL    MW4 4282   3.935   1.022   4.122  0.4203 -0.2103  0.1544
 1128SOL     OW 4283   3.994   4.738   2.752 -0.0016  0.4080 -0.3453
 1128SOL    HW2 4284   3.994   4.796   2.676  0.1196 -0.1172 -0.7566
 1128SOL    HW3 4285   4.078   4.753   2.795  0.2608  0.1451 -0.7589
 1128SOL    MW4 4286   4.005   4.747   2.748  0.0490  0.3041 -0.4541
 1129SOL     OW 4287   2.123   3.147   4.460  0.2118 -0.1236  0.3967
 1129SOL    HW2 4288   2.073   3.103   4.529  1.1811  0.8407  1.7936
 1129SOL    HW3 4289   2.214   3.134   4.485  0.6056 -0.1533 -0.9955
 1129SOL    MW4 4290   2.128   3.140   4.472  0.3916 -0.0003  0.3973
 1130SOL     OW 4291   5.838   3.711   0.404 -0.3702  0.3367 -0.3852
 1130SOL    HW2 4292   5.890   3.778   0.447 -0.8479  1.1016 -0.9717
 1130SOL    HW3 4293   5.766   3.759   0.363 -1.8836 -0.7515  0.8808
 1130SOL    MW4 4294   5.835   3.726   0.404 -0.6329  0.2941 -0.2956
 1131SOL     OW 4295   0.122   5.703   2.416  0.7743  0.1092 -0.0423
 1131SOL    HW2 4296   0.117   5.614   2.450  0.8813  0.0866 -0.0859
 1131SOL    HW3 4297   0.058   5.752   2.467  1.1574  0.1489  0.4044
 1131SOL    MW4 4298   0.113   5.698   2.427  0.8389  0.1115  0.0109
 1132SOL     OW 4299   2.284   1.862   1.619 -0.2647  0.2266  0.4429
 1132SOL    HW2 4300   2.355   1.851   1.555 -0.4562  0.1886  0.2325
 1132SOL    HW3 4301   2.237   1.779   1.616 -0.9684  0.6289 -0.2271
 1132SOL    MW4 4302   2.287   1.850   1.610 -0.3828  0.2747  0.3268
 1133SOL     OW 4303   1.103   0.540   4.522  0.2632  0.1726  0.9137
 1133SOL    HW2 4304   1.030   0.598   4.501  1.8503  1.5823 -1.1411
 1133SOL    HW3 4305   1.154   0.588   4.588 -0.3175 -0.5523  1.9159
 1133SOL    MW4 4306   1.100   0.554   4.528  0.3960  0.2629  0.7748
 1134SOL     OW 4307   0.184   0.657   1.266  0.5394 -0.2316  0.7377
 1134SOL    HW2 4308   0.100   0.679   1.306 -0.0249 -1.1888  0.1015
 1134SOL    HW3 4309   0.202   0.568   1.295  0.9588 -0.3118  0.2372
 1134SOL    MW4 4310   0.176   0.648   1.275  0.5202 -0.3685  0.5877
 1135SOL     OW 4311   4.812   0.934   0.975 -0.3810  0.0427  0.4942
 1135SOL    HW2 4312   4.770   0.849   0.962 -0.9011  0.4254 -0.4034
 1135SOL    HW3 4313   4.853   0.927   1.061 -0.3596 -1.1404  0.4136
 1135SOL    MW4 4314   4.812   0.921   0.985 -0.4468 -0.0629  0.3652
 1136SOL     OW 4315   0.665   5.030   3.710 -0.0877  0.3690  0.0157
 1136SOL    HW2 4316   0.743   5.015   3.656 -0.5774  0.3437 -0.7032
 1136SOL    HW3 4317   0.599   4.971   3.673 -0.6637  0.9150  0.1528
 1136SOL    MW4 4318   0.667   5.020   3.698 -0.2283  0.4377 -0.0610
 1137SOL     OW 4319   3.795   0.258   4.425 -0.5437 -0.4061  0.2518
 1137SOL    HW2 4320   3.878   0.297   4.452 -1.4264  0.6769  1.5132
 1137SOL    HW3 4321   3.795   0.268   4.329  0.0043  1.2220  0.3837
 1137SOL    MW4 4322   3.806   0.265   4.416 -0.5878 -0.0484  0.4357
 1138SOL     OW 4323   6.082   4.509   5.403 -0.1448  0.0815 -0.3344
 1138SOL    HW2 4324   6.001   4.516   5.453 -0.0425  2.3583 -0.3892
 1138SOL    HW3 4325   6.058   4.530   5.313  0.4630  0.5399 -0.3947
 1138SOL    MW4 4326   6.069   4.513   5.398 -0.0511  0.4423 -0.3496
 1139SOL     OW 4327   0.964   3.103   3.464  0.2096 -0.0138 -0.1791
 1139SOL    HW2 4328   0.965   3.011   3.491 -1.2784 -0.2078 -0.6844
 1139SOL    HW3 4329   1.037   3.111   3.403 -0.5940 -1.3065 -1.3923
 1139SOL    MW4 4330   0.973   3.092   3.459 -0.0928 -0.2099 -0.4058
 1140SOL     OW 4331   6.168   3.339   5.634 -0.1999 -0.0453 -0.5288
 1140SOL    HW2 4332   6.245   3.395   5.631 -0.7503  0.7214 -0.6245
 1140SOL    HW3 4333   6.201   3.251   5.614  0.4395  0.4897 -1.9134
 1140SOL    MW4 4334   6.182   3.334   5.631 -0.1882  0.1265 -0.7241
 1141SOL     OW 4335   3.940   5.103   6.034  0.3679 -0.3491 -0.3932
 1141SOL    HW2 4336   3.850   5.082   6.059  0.2012 -0.2776 -0.9155
 1141SOL    HW3 4337   3.935   5.193   6.001  0.8775  0.1402  0.8132
 1141SOL    MW4 4338   3.928   5.112   6.033  0.4131 -0.2751 -0.3029
 1142SOL     OW 4339   4.623   2.167   1.179 -0.7125  0.7735 -0.1804
 1142SOL    HW2 4340   4.646   2.258   1.160 -1.3670  0.9923  0.0441
 1142SOL    HW3 4341   4.659   2.151   1.267  1.4620  0.0630 -1.1252
 1142SOL    MW4 4342   4.631   2.176   1.188 -0.5120  0.7086 -0.2755
 1143SOL     OW 4343   4.641   4.308   4.608 -0.1700  0.3307  0.5218
 1143SOL    HW2 4344   4.577   4.347   4.548  0.4082 -0.3773 -0.5829
 1143SOL    HW3 4345   4.716   4.287   4.552  0.3647 -0.3880  1.4917
 1143SOL    MW4 4346   4.642   4.311   4.592 -0.0232  0.1425  0.5040
 1144SOL     OW 4347   6.226   5.753   2.314 -0.3685  0.3897  0.1240
 1144SOL    HW2 4348   6.268   5.800   2.242  2.0044  0.0696  1.1983
 1144SOL    HW3 4349   6.251   5.802   2.392 -1.3459 -0.3057  0.8916
 1144SOL    MW4 4350   6.235   5.766   2.314 -0.1844  0.2557  0.3670
 1145SOL     OW 4351   3.453   3.659   0.836 -0.1533 -0.1004  0.0828
 1145SOL    HW2 4352   3.457   3.697   0.924 -0.4799  0.7722 -0.2595
 1145SOL    HW3 4353   3.538   3.679   0.797  0.7545 -2.2282  0.8561
 1145SOL    MW4 4354   3.464   3.667   0.842 -0.0766 -0.2660  0.1397
 1146SOL     OW 4355   2.242   5.419   0.361 -0.5355  0.5800  0.1852
 1146SOL    HW2 4356   2.213   5.474   0.287 -2.6676 -1.9314 -1.0279
 1146SOL    HW3 4357   2.337   5.431   0.363 -0.7972  3.7846 -0.3380
 1146SOL    MW4 4358   2.251   5.428   0.351 -0.8513  0.6715 -0.0439
 1147SOL     OW 4359   1.475   2.903   5.118 -0.2390 -0.6190  0.3102
 1147SOL    HW2 4360   1.501   2.811   5.129  2.9504  0.1373  0.0834
 1147SOL    HW3 4361   1.521   2.949   5.189 -0.7138  0.9654 -0.3714
 1147SOL    MW4 4362   1.484   2.897   5.129  0.1191 -0.3101  0.1903
 1148SOL     OW 4363   2.389   2.693   0.590 -0.1559 -0.1772 -0.3863
 1148SOL    HW2 4364   2.457   2.703   0.656 -0.5840 -1.3730  0.2529
 1148SOL    HW3 4365   2.403   2.767   0.531  2.9635 -1.4117 -1.4401
 1148SOL    MW4 4366   2.400   2.704   0.591  0.1992 -0.4979 -0.4410
 1149SOL     OW 4367   4.005   4.928   3.354 -0.1248 -0.2335  0.3544
 1149SOL    HW2 4368   4.002   5.018   3.384  1.7782 -0.3321  0.9821
 1149SOL    HW3 4369   4.032   4.878   3.431  1.0233 -1.0121 -0.5174
 1149SOL    MW4 4370   4.008   4.933   3.368  0.2777 -0.3492  0.3222
 1150SOL     OW 4371   2.414   1.557   4.404  0.0904 -0.0362  0.4317
 1150SOL    HW2 4372   2.373   1.620   4.345  2.3398 -0.0235 -1.2136
 1150SOL    HW3 4373   2.474   1.507   4.349  1.2183 -1.0257  2.4328
 1150SOL    MW4 4374   2.416   1.558   4.389  0.5360 -0.1651  0.4786
 1151SOL     OW 4375   1.466   4.108   1.791  0.5524 -0.1507  0.3636
 1151SOL    HW2 4376   1.487   4.189   1.838  1.4461  0.7771 -1.5366
 1151SOL    HW3 4377   1.545   4.055   1.799  1.0090  0.3363 -0.6859
 1151SOL    MW4 4378   1.480   4.112   1.799  0.7306  0.0360 -0.0256
 1152SOL     OW 4379   3.672   3.766   0.691  0.0617 -0.2382  0.1087
 1152SOL    HW2 4380   3.692   3.707   0.618 -1.0266 -0.3716 -0.1029
 1152SOL    HW3 4381   3.648   3.849   0.649 -0.6984 -0.3558  0.2941
 1152SOL    MW4 4382   3.671   3.769   0.676 -0.1822 -0.2713  0.1052
 1153SOL     OW 4383   3.887   6.248   2.658  0.1859 -0.7435  0.3397
 1153SOL    HW2 4384   3.802   6.275   2.622  0.2669 -1.4618 -0.4262
 1153SOL    HW3 4385   3.870   6.233   2.751 -0.5336 -0.9196  0.1853
 1153SOL    MW4 4386   3.873   6.250   2.666  0.1017 -0.8615  0.2183
 1154SOL     OW 4387   1.924   2.880   4.030  0.5729  0.0236  0.2392
 1154SOL    HW2 4388   1.978   2.811   4.069  0.3085 -0.0682  0.4420
 1154SOL    HW3 4389   1.891   2.930   4.104  1.3373  0.8119  0.0697
 1154SOL    MW4 4390   1.927   2.877   4.045  0.6388  0.1155  0.2436
 1155SOL     OW 4391   2.819   3.998   4.920 -0.5950 -0.0378  0.2274
 1155SOL    HW2 4392   2.738   4.030   4.960 -0.9224  0.9927 -1.1716
 1155SOL    HW3 4393   2.799   3.908   4.894 -1.0179 -0.0651  0.6324
 1155SOL    MW4 4394   2.806   3.991   4.922 -0.6940  0.0945  0.0962
 1156SOL     OW 4395   5.757   3.693   6.173  0.4006 -0.2210  0.0139
 1156SOL    HW2 4396   5.798   3.775   6.144  0.8931 -0.2970  0.4996
 1156SOL    HW3 4397   5.828   3.629   6.174  0.5322 -0.0858  1.9626
 1156SOL    MW4 4398   5.772   3.696   6.169  0.4829 -0.2132  0.3351
 1157SOL     OW 4399   5.503   5.836   0.228  0.2151 -0.0949 -0.6220
 1157SOL    HW2 4400   5.583   5.818   0.278 -0.2712 -1.9682 -0.4488
 1157SOL    HW3 4401   5.502   5.769   0.160 -1.2420 -0.1433 -0.5731
 1157SOL    MW4 4402   5.514   5.824   0.226 -0.0413 -0.3484 -0.5927
 1158SOL     OW 4403   3.985   0.953   1.363 -0.3803  0.7504  0.1265
 1158SOL    HW2 4404   4.069   0.962   1.319 -0.5386 -0.3653 -0.4514
 1158SOL    HW3 4405   3.961   0.861   1.350 -1.5666  0.9884  0.4925
 1158SOL    MW4 4406   3.993   0.942   1.355 -0.5577  0.6346  0.0985
 1159SOL     OW 4407   0.227   3.855   2.887 -0.6128  0.1398  0.1287
 1159SOL    HW2 4408   0.177   3.785   2.929  1.2710 -0.3759  1.6885
 1159SOL    HW3 4409   0.223   3.835   2.794 -4.0504  0.6998  0.0392
 1159SOL    MW4 4410   0.220   3.843   2.880 -0.8178  0.1456  0.3227
 1160SOL     OW 4411   0.701   1.692   5.993  0.6142 -0.0467 -0.1984
 1160SOL    HW2 4412   0.743   1.772   5.960 -0.1401  0.6906  0.5799
 1160SOL    HW3 4413   0.773   1.631   6.008  1.2061  0.5149 -0.7179
 1160SOL    MW4 4414   0.716   1.694   5.991  0.5928  0.1247 -0.1643
 1161SOL     OW 4415   2.472   4.512   1.625 -0.1713 -0.3505 -0.1373
 1161SOL    HW2 4416   2.512   4.497   1.539 -2.9958 -2.5986 -1.1969
 1161SOL    HW3 4417   2.482   4.606   1.639  0.9095 -0.0052 -2.6463
 1161SOL    MW4 4418   2.479   4.522   1.616 -0.4013 -0.6016 -0.6082
 1162SOL     OW 4419   5.945   3.618   0.960 -0.5960  0.6131 -0.4796
 1162SOL    HW2 4420   5.947   3.622   1.055  1.0979 -1.3674 -0.3539
 1162SOL    HW3 4421   5.988   3.699   0.932  0.0281  0.6319  0.4850
 1162SOL    MW4 4422   5.951   3.629   0.969 -0.2901  0.3543 -0.3357
 1163SOL     OW 4423   0.956   4.275   1.385  0.0435  0.0964  0.1962
 1163SOL    HW2 4424   0.860   4.270   1.390 -0.1237  2.0988 -0.1563
 1163SOL    HW3 4425   0.986   4.242   1.469 -0.8378 -2.0446 -0.2522
 1163SOL    MW4 4426   0.947   4.270   1.397 -0.0948  0.0782  0.0906
 1164SOL     OW 4427   3.885   1.325   1.449 -0.7931 -0.2097  0.0988
 1164SOL    HW2 4428   3.875   1.328   1.544 -2.1905 -1.1819  0.0177
 1164SOL    HW3 4429   3.817   1.384   1.416 -1.3034 -1.0191 -0.3214
 1164SOL    MW4 4430   3.875   1.333   1.457 -1.0448 -0.4447  0.0327
 1165SOL     OW 4431   2.566   4.081   1.785  0.0540  0.1732 -0.3577
 1165SOL    HW2 4432   2.578   4.058   1.878  0.0557  0.2063 -0.3499
 1165SOL    HW3 4433   2.654   4.078   1.748 -0.0899 -1.1027 -0.6481
 1165SOL    MW4 4434   2.579   4.077   1.793  0.0352  0.0092 -0.3950
 1166SOL     OW 4435   4.205   5.939   3.449  0.2250 -0.0103 -0.2859
 1166SOL    HW2 4436   4.204   5.885   3.370 -1.1006  0.5462 -0.6797
 1166SOL    HW3 4437   4.159   5.887   3.515  1.4343 -0.5247  0.1792
 1166SOL    MW4 4438   4.199   5.925   3.447  0.2097 -0.0048 -0.2765
 1167SOL     OW 4439   0.515   5.152   5.665  0.0152  0.2778  0.0220
 1167SOL    HW2 4440   0.424   5.150   5.636 -0.6506 -0.3389  1.9542
 1167SOL    HW3 4441   0.566   5.153   5.585 -1.6632 -1.4924 -1.1707
 1167SOL    MW4 4442   0.510   5.152   5.651 -0.2941 -0.0371  0.1196
 1168SOL     OW 4443   2.444   0.707   0.459  0.1408  0.0369 -0.3219
 1168SOL    HW2 4444   2.348   0.708   0.463 -0.0183 -0.9425 -2.3993
 1168SOL    HW3 4445   2.469   0.799   0.452 -0.4934  0.4303  1.7632
 1168SOL    MW4 4446   2.434   0.719   0.459  0.0361 -0.0404 -0.3208
 1169SOL     OW 4447   0.594   3.241   4.343 -0.2257  0.3600 -0.5129
 1169SOL    HW2 4448   0.512   3.253   4.295  0.5241  0.6757 -1.7822
 1169SOL    HW3 4449   0.599   3.146   4.357 -0.6004  0.2897 -0.8237
 1169SOL    MW4 4450   0.584   3.230   4.338 -0.1762  0.3923 -0.7214
 1170SOL     OW 4451   5.066   1.053   2.910  0.1411 -0.5186  0.2231
 1170SOL    HW2 4452   5.073   1.001   2.990 -0.1349 -3.6369 -1.6378
 1170SOL    HW3 4453   5.131   1.016   2.850 -0.8035  0.5598 -1.5747
 1170SOL    MW4 4454   5.075   1.041   2.913 -0.0200 -0.7877 -0.2596
 1171SOL     OW 4455   4.898   0.038   5.349  0.0676 -0.1223  0.5893
 1171SOL    HW2 4456   4.950  -0.036   5.380  0.6063  0.1205  0.2857
 1171SOL    HW3 4457   4.871   0.013   5.261  0.0111 -0.0771  0.5939
 1171SOL    MW4 4458   4.901   0.025   5.342  0.1313 -0.0843  0.5499
 1172SOL     OW 4459   0.326   4.900   5.768 -0.1820  1.3484  0.3068
 1172SOL    HW2 4460   0.318   4.901   5.673 -1.5738  1.5322  0.4014
 1172SOL    HW3 4461   0.267   4.829   5.796  1.7943 -0.1594  0.9331
 1172SOL    MW4 4462   0.317   4.891   5.759 -0.1049  1.1737  0.4019
 1173SOL     OW 4463   5.739   0.595   1.256  0.5586 -0.3908 -0.2350
 1173SOL    HW2 4464   5.752   0.606   1.350  0.2917 -1.3995 -0.0752
 1173SOL    HW3 4465   5.811   0.645   1.216 -0.4439  1.7331  0.4271
 1173SOL    MW4 4466   5.750   0.603   1.263  0.3911 -0.2436 -0.1265
 1174SOL     OW 4467   0.087   2.971   0.829  0.3884 -0.3504  0.8684
 1174SOL    HW2 4468   0.158   3.009   0.776  2.6567 -0.3590  3.6689
 1174SOL    HW3 4469   0.063   3.041   0.890 -2.4983 -0.1704 -0.3364
 1174SOL    MW4 4470   0.093   2.985   0.830  0.3068 -0.3278  1.0789
 1175SOL     OW 4471   1.800   4.520   2.869  0.0650  0.6396 -0.2197
 1175SOL    HW2 4472   1.890   4.553   2.862  1.2298 -1.5277  2.4555
 1175SOL    HW3 4473   1.757   4.581   2.929  1.0502 -0.4794  1.7018
 1175SOL    MW4 4474   1.807   4.533   2.876  0.3486  0.2060  0.3867
 1176SOL     OW 4475   5.571   6.021   3.916 -0.1055  0.1551  0.2979
 1176SOL    HW2 4476   5.535   6.106   3.944  0.2312 -0.0480  1.3937
 1176SOL    HW3 4477   5.572   5.968   3.996  2.1367 -0.0231  0.2053
 1176SOL    MW4 4478   5.566   6.025   3.930  0.2347  0.1048  0.4302
 1177SOL     OW 4479   4.781   2.418   2.683  0.0593  0.4156 -0.0260
 1177SOL    HW2 4480   4.706   2.460   2.724 -0.1860 -0.1526  0.1206
 1177SOL    HW3 4481   4.748   2.384   2.600  0.8216  2.5573 -1.2917
 1177SOL    MW4 4482   4.767   2.419   2.677  0.1275  0.6232 -0.1737
 1178SOL     OW 4483   0.131   0.549   5.830  0.1373 -0.1292 -0.4652
 1178SOL    HW2 4484   0.112   0.628   5.880 -1.1027 -0.7600  0.1030
 1178SOL    HW3 4485   0.181   0.494   5.891  0.3526 -0.1002 -0.6117
 1178SOL    MW4 4486   0.135   0.552   5.844  0.0021 -0.2086 -0.4096
 1179SOL     OW 4487   1.453   1.758   4.347 -0.1152 -0.4714 -0.3889
 1179SOL    HW2 4488   1.384   1.799   4.295  1.1123 -0.0157 -1.7247
 1179SOL    HW3 4489   1.471   1.821   4.417 -0.8545 -0.4777 -0.1858
 1179SOL    MW4 4490   1.447   1.772   4.349 -0.0508 -0.4121 -0.5383
 1180SOL     OW 4491   4.324   6.097   5.008 -0.1265 -0.1152  0.1543
 1180SOL    HW2 4492   4.400   6.087   4.950  0.4764 -0.0601  0.9269
 1180SOL    HW3 4493   4.341   6.179   5.055 -0.5949 -0.1837  0.4458
 1180SOL    MW4 4494   4.336   6.107   5.006 -0.1087 -0.1170  0.2947
 1181SOL     OW 4495   4.039   1.285   6.163  0.1892  0.6264 -0.7888
 1181SOL    HW2 4496   4.029   1.196   6.196  2.2327  1.0404  1.1013
 1181SOL    HW3 4497   4.064   1.273   6.071  1.6668 -0.8165 -0.2487
 1181SOL    MW4 4498   4.041   1.272   6.155  0.6538  0.4906 -0.4682
 1182SOL     OW 4499   4.790   5.564   4.596 -0.0779 -0.1384  0.0391
 1182SOL    HW2 4500   4.881   5.592   4.608 -0.2555 -0.3227  2.4558
 1182SOL    HW3 4501   4.757   5.618   4.525  1.9324 -0.1438 -0.9769
 1182SOL    MW4 4502   4.798   5.575   4.588  0.1639 -0.1634  0.2239
 1183SOL     OW 4503   3.453   1.352   5.934 -0.4680 -0.4953 -0.3705
 1183SOL    HW2 4504   3.417   1.435   5.965 -1.2718 -1.0429  0.2170
 1183SOL    HW3 4505   3.465   1.299   6.013  0.4052 -0.8019 -0.6971
 1183SOL    MW4 4506   3.450   1.356   5.948 -0.4588 -0.6080 -0.3361
 1184SOL     OW 4507   3.211   4.640   5.304  0.1895  0.4663 -0.0434
 1184SOL    HW2 4508   3.264   4.701   5.253 -0.7052  0.8174 -0.5677
 1184SOL    HW3 4509   3.121   4.656   5.276 -0.0687 -1.0959 -0.1972
 1184SOL    MW4 4510   3.206   4.650   5.294  0.0374  0.3065 -0.1329
 1185SOL     OW 4511   0.844   4.677   4.161 -0.2873  0.0358 -0.1646
 1185SOL    HW2 4512   0.758   4.703   4.128 -0.3236  0.3396  0.1689
 1185SOL    HW3 4513   0.849   4.713   4.249  0.5455  0.8110 -0.5068
 1185SOL    MW4 4514   0.834   4.685   4.168 -0.1822  0.1782 -0.1657
 1186SOL     OW 4515   2.855   2.599   0.187 -0.3212 -0.4669 -0.3066
 1186SOL    HW2 4516   2.812   2.640   0.262  0.3724  0.3926 -0.3587
 1186SOL    HW3 4517   2.787   2.547   0.145 -1.3490  0.9440 -0.4645
 1186SOL    MW4 4518   2.841   2.598   0.192 -0.3653 -0.1673 -0.3343
 1187SOL     OW 4519   1.118   1.575   5.061 -0.1523 -0.0730  0.2688
 1187SOL    HW2 4520   1.213   1.585   5.067 -0.0164 -1.1881  0.1726
 1187SOL    HW3 4521   1.084   1.664   5.059  0.7571  0.3451  2.2548
 1187SOL    MW4 4522   1.126   1.588   5.061 -0.0144 -0.1650  0.5181
 1188SOL     OW 4523   2.248   4.578   5.706 -0.5156 -0.1213  0.0259
 1188SOL    HW2 4524   2.323   4.584   5.765 -1.5167 -0.6944  1.4126
 1188SOL    HW3 4525   2.173   4.602   5.761 -1.5869 -1.5286 -0.7830
 1188SOL    MW4 4526   2.248   4.582   5.721 -0.7890 -0.3826  0.1021
 1189SOL     OW 4527   0.229   0.945   2.878 -0.4844 -0.0190 -0.4661
 1189SOL    HW2 4528   0.262   0.950   2.968  2.0303  0.9964 -1.3779
 1189SOL    HW3 4529   0.268   0.866   2.842 -0.3784  0.2943 -1.0579
 1189SOL    MW4 4530   0.238   0.935   2.885 -0.1386  0.1563 -0.6645
 1190SOL     OW 4531   2.827   3.687   3.306 -0.3613 -0.2743  0.1699
 1190SOL    HW2 4532   2.816   3.772   3.263  0.2347 -0.4688 -0.3712
 1190SOL    HW3 4533   2.833   3.709   3.399 -1.0531  0.1981  0.1179
 1190SOL    MW4 4534   2.826   3.701   3.313 -0.3739 -0.2376  0.0917
 1191SOL     OW 4535   2.010   1.035   0.706  0.7965 -0.5737 -0.2440
 1191SOL    HW2 4536   2.037   1.088   0.781  1.1206 -1.1378  0.0451
 1191SOL    HW3 4537   1.924   1.069   0.682  0.2964 -0.9481  0.9314
 1191SOL    MW4 4538   2.002   1.046   0.713  0.7733 -0.6975 -0.0508
 1192SOL     OW 4539   2.573   1.806   0.502 -0.3351 -0.1112 -0.4576
 1192SOL    HW2 4540   2.603   1.719   0.527 -2.1190 -0.8772 -0.7827
 1192SOL    HW3 4541   2.502   1.789   0.439 -0.0063  1.6106 -1.3540
 1192SOL    MW4 4542   2.567   1.792   0.497 -0.5271  0.0149 -0.6188
 1193SOL     OW 4543   4.735   5.848   4.554 -0.3414 -0.2564  0.4644
 1193SOL    HW2 4544   4.781   5.875   4.474 -1.3768 -0.5046 -0.2402
 1193SOL    HW3 4545   4.794   5.872   4.625  0.8897 -0.6011 -0.4090
 1193SOL    MW4 4546   4.749   5.855   4.553 -0.3156 -0.3346  0.2562
 1194SOL     OW 4547   1.551   2.812   1.922 -0.1949 -0.2909 -0.4812
 1194SOL    HW2 4548   1.584   2.738   1.871 -0.1825 -1.2571  0.8735
 1194SOL    HW3 4549   1.628   2.866   1.940 -0.3739  0.7321 -2.4500
 1194SOL    MW4 4550   1.565   2.810   1.918 -0.2169 -0.2834 -0.5623
 1195SOL     OW 4551   4.790   5.331   0.507  0.3164 -0.7220  0.0836
 1195SOL    HW2 4552   4.846   5.286   0.570  1.7869 -1.7662 -1.8654
 1195SOL    HW3 4553   4.713   5.275   0.499 -0.3965 -0.0400  1.6678
 1195SOL    MW4 4554   4.787   5.318   0.514  0.4163 -0.7698  0.0355
 1196SOL     OW 4555   3.038   6.379   0.022 -0.2052  0.1547 -0.4939
 1196SOL    HW2 4556   3.111   6.330   0.059 -1.1465 -1.3237 -0.5198
 1196SOL    HW3 4557   3.067   6.470   0.023  1.5171 -0.3662 -0.2478
 1196SOL    MW4 4558   3.051   6.384   0.027 -0.1021 -0.1091 -0.4649
 1197SOL     OW 4559   5.252   3.087   2.533 -0.0169 -0.0010 -0.0047
 1197SOL    HW2 4560   5.209   3.092   2.618 -0.5389  0.2771 -0.2787
 1197SOL    HW3 4561   5.285   3.175   2.517 -0.7210  0.1804 -0.4944
 1197SOL    MW4 4562   5.250   3.099   2.542 -0.1787  0.0597 -0.1054
 1198SOL     OW 4563   5.264   5.025   1.115 -0.2588 -0.1306  0.2844
 1198SOL    HW2 4564   5.192   4.976   1.076 -1.3398  1.7940 -0.2848
 1198SOL    HW3 4565   5.222   5.084   1.177  0.8865  0.6544  0.3536
 1198SOL    MW4 4566   5.249   5.026   1.118 -0.2503  0.2269  0.2185
 1199SOL     OW 4567   1.944   3.722   0.352  0.0973 -0.3822 -0.0498
 1199SOL    HW2 4568   1.922   3.787   0.419 -0.3271 -1.6276  1.0547
 1199SOL    HW3 4569   1.860   3.682   0.328 -0.0124  1.1737 -2.5952
 1199SOL    MW4 4570   1.930   3.725   0.358  0.0268 -0.3412 -0.2399
 1200SOL     OW 4571   4.371   5.027   2.722 -0.0400  0.3773  0.0134
 1200SOL    HW2 4572   4.373   5.093   2.652 -0.1185  0.6998  0.3119
 1200SOL    HW3 4573   4.365   4.944   2.676 -2.1051  0.6677 -0.3575
 1200SOL    MW4 4574   4.370   5.025   2.707 -0.3228  0.4582  0.0038
 1201SOL     OW 4575   4.172   2.219   5.856 -0.7971 -0.0211 -0.4401
 1201SOL    HW2 4576   4.241   2.169   5.900  0.5182  2.0460 -0.0100
 1201SOL    HW3 4577   4.101   2.223   5.921 -0.8810 -1.1701 -0.4350
 1201SOL    MW4 4578   4.171   2.213   5.871 -0.6346  0.1000 -0.3827
 1202SOL     OW 4579   2.816   1.996   4.596  0.0920 -0.2816 -0.2614
 1202SOL    HW2 4580   2.885   1.998   4.530  0.7515  1.1781  0.4290
 1202SOL    HW3 4581   2.735   1.995   4.545  0.5737 -1.5731 -1.0778
 1202SOL    MW4 4582   2.814   1.996   4.580  0.2426 -0.2594 -0.2780
 1203SOL     OW 4583   6.424   0.673   2.892 -0.0985  0.0094  0.2434
 1203SOL    HW2 4584   6.440   0.699   2.983  0.1749  0.0123  0.1952
 1203SOL    HW3 4585   6.340   0.713   2.870 -1.1690 -1.6151  1.1325
 1203SOL    MW4 4586   6.415   0.681   2.901 -0.2037 -0.2045  0.3543
 1204SOL     OW 4587   1.570   6.081   3.568  0.1897  0.4779  0.0687
 1204SOL    HW2 4588   1.646   6.081   3.511 -0.3759  0.4663 -0.7005
 1204SOL    HW3 4589   1.502   6.126   3.518 -0.7781 -0.8860  0.1056
 1204SOL    MW4 4590   1.571   6.087   3.554 -0.0126  0.2964 -0.0279
 1205SOL     OW 4591   4.205   4.568   5.763 -0.2796  0.5085 -0.0896
 1205SOL    HW2 4592   4.298   4.589   5.759  0.1242 -0.9068  0.9411
 1205SOL    HW3 4593   4.160   4.651   5.745  1.1616  1.1376 -0.9262
 1205SOL    MW4 4594   4.211   4.582   5.760 -0.0362  0.4048 -0.0640
 1206SOL     OW 4595   0.434   1.347   0.938 -0.1924  0.2222  0.1049
 1206SOL    HW2 4596   0.420   1.360   1.032  0.4961 -0.2209  0.2790
 1206SOL    HW3 4597   0.516   1.392   0.919 -0.8226  1.1353 -0.4934
 1206SOL    MW4 4598   0.443   1.354   0.948 -0.1847  0.2842  0.0489
 1207SOL     OW 4599   0.421   1.734   2.539 -0.3509 -0.0529 -0.5138
 1207SOL    HW2 4600   0.379   1.681   2.607  2.6948  0.4989  2.0684
 1207SOL    HW3 4601   0.453   1.670   2.475 -1.0814 -0.8437 -0.0976
 1207SOL    MW4 4602   0.420   1.718   2.539 -0.0454 -0.0844 -0.1182
 1208SOL     OW 4603   4.154   5.868   4.693 -0.0714 -0.4328 -0.6126
 1208SOL    HW2 4604   4.136   5.950   4.738  0.1775 -0.3724 -0.6234
 1208SOL    HW3 4605   4.249   5.863   4.688  0.0853 -2.1547  2.0188
 1208SOL    MW4 4606   4.164   5.878   4.698 -0.0179 -0.6520 -0.2668
 1209SOL     OW 4607   1.647   1.252   5.285 -0.0916 -0.4889  0.3616
 1209SOL    HW2 4608   1.638   1.178   5.344 -0.1436 -1.1777 -0.4873
 1209SOL    HW3 4609   1.557   1.280   5.267 -0.0548  0.1791  1.1517
 1209SOL    MW4 4610   1.634   1.246   5.290 -0.0936 -0.4916  0.3538
 1210SOL     OW 4611   5.434   3.674   1.835 -0.6790 -0.1776  0.2262
 1210SOL    HW2 4612   5.406   3.762   1.861 -1.4184 -0.7713  1.5416
 1210SOL    HW3 4613   5.525   3.668   1.866  0.4903  1.1423 -2.5466
 1210SOL    MW4 4614   5.443   3.685   1.843 -0.6223 -0.0818  0.0339
 1211SOL     OW 4615   2.668   5.291   5.627  0.4651 -0.0081 -0.0259
 1211SOL    HW2 4616   2.681   5.209   5.579 -0.2441 -0.9530  1.3414
 1211SOL    HW3 4617   2.675   5.359   5.560  0.6950 -1.1983 -1.2555
 1211SOL    MW4 4618   2.670   5.290   5.612  0.4019 -0.2898 -0.0077
 1212SOL     OW 4619   4.143   4.936   5.943 -0.1678  0.2379  0.0706
 1212SOL    HW2 4620   4.078   5.000   5.972  0.7121  0.6797  1.1609
 1212SOL    HW3 4621   4.216   4.988   5.911  0.1481 -0.2232  0.0272
 1212SOL    MW4 4622   4.144   4.951   5.943 -0.0100  0.2354  0.2087
 1213SOL     OW 4623   2.999   1.376   3.327  0.2947 -0.5838 -0.4607
 1213SOL    HW2 4624   2.990   1.283   3.348 -0.3039 -0.4322 -0.0177
 1213SOL    HW3 4625   2.910   1.407   3.313  0.5559 -0.2777 -1.5618
 1213SOL    MW4 4626   2.986   1.368   3.328  0.2502 -0.5234 -0.5475
 1214SOL     OW 4627   5.901   5.906   4.502 -0.0804 -0.2959  0.2165
 1214SOL    HW2 4628   5.908   5.970   4.431 -0.5825 -1.0428 -0.5171
 1214SOL    HW3 4629   5.923   5.956   4.581  1.5346  0.2975 -0.5647
 1214SOL    MW4 4630   5.905   5.921   4.503  0.0664 -0.3161  0.0167
 1215SOL     OW 4631   5.371   5.164   4.455 -0.5726 -0.4526 -0.7034
 1215SOL    HW2 4632   5.283   5.138   4.430 -0.4592  0.1661 -1.8035
 1215SOL    HW3 4633   5.385   5.247   4.410 -0.3825  0.8116  1.5117
 1215SOL    MW4 4634   5.361   5.172   4.446 -0.5326 -0.2042 -0.5563
 1216SOL     OW 4635   4.986   3.978   5.554 -0.1599  0.0898 -0.0616
 1216SOL    HW2 4636   4.997   4.056   5.499 -0.4319  0.6805  0.6988
 1216SOL    HW3 4637   4.952   4.012   5.636 -1.0537 -0.9283  0.0049
 1216SOL    MW4 4638   4.983   3.993   5.557 -0.3137  0.0334  0.0475
 1217SOL     OW 4639   5.831   2.116   4.349 -0.1955 -0.2213 -0.5154
 1217SOL    HW2 4640   5.925   2.125   4.358  0.1932 -1.8254 -2.1897
 1217SOL    HW3 4641   5.797   2.205   4.348  1.3465  0.3841 -0.2520
 1217SOL    MW4 4642   5.839   2.129   4.350  0.0593 -0.3531 -0.7015
 1218SOL     OW 4643   3.721   0.634   2.999 -0.2600  0.2811  0.6014
 1218SOL    HW2 4644   3.793   0.672   2.949  0.9537 -0.8629  1.4007
 1218SOL    HW3 4645   3.727   0.540   2.982 -0.7720  0.0351  1.6842
 1218SOL    MW4 4646   3.731   0.626   2.990 -0.1674  0.0977  0.8497
 1219SOL     OW 4647   2.865   5.917   3.032 -0.3506  0.1905  0.2042
 1219SOL    HW2 4648   2.865   5.953   2.943 -0.3483 -0.2862  0.0071
 1219SOL    HW3 4649   2.910   5.833   3.023  1.0609  0.8493  0.9500
 1219SOL    MW4 4650   2.871   5.911   3.019 -0.1640  0.2145  0.2766
 1220SOL     OW 4651   2.085   0.967   1.426  0.4780  0.1259  0.1623
 1220SOL    HW2 4652   1.995   0.939   1.444  0.5920 -0.3152  0.0656
 1220SOL    HW3 4653   2.118   1.000   1.509  0.5567 -0.6383  0.4375
 1220SOL    MW4 4654   2.077   0.968   1.439  0.5034 -0.0331  0.1858
 1221SOL     OW 4655   0.637   4.587   5.491  0.4178  0.3452  0.1624
 1221SOL    HW2 4656   0.602   4.627   5.570  1.5956 -0.8208  1.3160
 1221SOL    HW3 4657   0.702   4.524   5.522  0.9566 -0.1093 -1.7345
 1221SOL    MW4 4658   0.641   4.584   5.505  0.6443  0.1314  0.0644
 1222SOL     OW 4659   6.417   2.775   5.325 -0.9036 -0.4610  0.0478
 1222SOL    HW2 4660   6.333   2.801   5.364 -0.9019 -0.5502  0.1096
 1222SOL    HW3 4661   6.482   2.825   5.373 -0.7670 -1.6351  1.1409
 1222SOL    MW4 4662   6.414   2.785   5.336 -0.8854 -0.6277  0.2002
 1223SOL     OW 4663   0.702   3.988   5.220  0.0459  0.4824  0.1347
 1223SOL    HW2 4664   0.700   3.893   5.204  1.2311  0.4299  0.2229
 1223SOL    HW3 4665   0.741   3.997   5.307 -1.3021  1.0069  0.7049
 1223SOL    MW4 4666   0.707   3.976   5.230  0.0244  0.5447  0.2216
 1224SOL     OW 4667   2.436   5.104   4.133  0.2608  0.1069  0.1007
 1224SOL    HW2 4668   2.391   5.100   4.049  0.6172  0.9456 -0.1489
 1224SOL    HW3 4669   2.446   5.198   4.150  1.8458 -0.0398  0.1627
 1224SOL    MW4 4670   2.432   5.116   4.124  0.5169  0.1982  0.0760
 1225SOL     OW 4671   1.268   3.377   4.084  0.1573 -0.5677 -0.2587
 1225SOL    HW2 4672   1.348   3.394   4.035  1.9346 -1.5817  2.0410
 1225SOL    HW3 4673   1.202   3.357   4.018  2.0193 -0.4992 -2.2347
 1225SOL    MW4 4674   1.270   3.377   4.069  0.6375 -0.6924 -0.2160
 1226SOL     OW 4675   4.509   5.202   4.032  0.3736  0.2259 -0.4784
 1226SOL    HW2 4676   4.558   5.240   3.958 -0.3199  0.0815 -1.0192
 1226SOL    HW3 4677   4.541   5.112   4.038  0.9446  0.4425 -0.1403
 1226SOL    MW4 4678   4.520   5.195   4.023  0.3575  0.2354 -0.5051
 1227SOL     OW 4679   1.201   5.775   6.160  0.2494 -0.1228  0.0652
 1227SOL    HW2 4680   1.113   5.797   6.190 -0.3548 -0.1100 -1.6198
 1227SOL    HW3 4681   1.224   5.695   6.208 -2.0946 -2.1037 -1.8576
 1227SOL    MW4 4682   1.193   5.767   6.170 -0.1395 -0.3825 -0.4108
 1228SOL     OW 4683   0.373   5.639   0.174 -0.1780 -0.0052 -0.0190
 1228SOL    HW2 4684   0.423   5.721   0.177  0.5136 -0.4161  0.0281
 1228SOL    HW3 4685   0.432   5.575   0.213 -0.0507 -0.8725 -1.5733
 1228SOL    MW4 4686   0.388   5.642   0.180 -0.0699 -0.1739 -0.2178
 1229SOL     OW 4687   1.041   4.000   2.291 -0.6026  0.9133  0.8481
 1229SOL    HW2 4688   1.136   3.998   2.299 -0.6493  0.1454  1.3344
 1229SOL    HW3 4689   1.019   3.915   2.253 -0.8225  2.4591 -2.9482
 1229SOL    MW4 4690   1.051   3.989   2.287 -0.6378  1.0160  0.4114
 1230SOL     OW 4691   3.245   0.650   0.853 -0.3167  0.5753 -0.3196
 1230SOL    HW2 4692   3.332   0.691   0.850 -0.0162 -0.1029 -3.0117
 1230SOL    HW3 4693   3.253   0.583   0.921  0.2475  2.5365  1.6654
 1230SOL    MW4 4694   3.258   0.647   0.862 -0.2026  0.7446 -0.4129
 1231SOL     OW 4695   1.473   3.975   2.049  0.6374  0.3204 -0.5063
 1231SOL    HW2 4696   1.455   4.016   1.964 -2.1544 -1.1890 -0.7564
 1231SOL    HW3 4697   1.412   4.017   2.109  0.4167 -0.7705  0.0471
 1231SOL    MW4 4698   1.463   3.986   2.045  0.2399 -0.0227 -0.4663
 1232SOL     OW 4699   2.804   0.654   4.547  0.2114  0.5198  0.2942
 1232SOL    HW2 4700   2.762   0.568   4.552  0.5238  0.3875  0.7038
 1232SOL    HW3 4701   2.732   0.716   4.540 -0.0084  0.2024 -0.3814
 1232SOL    MW4 4702   2.789   0.651   4.547  0.2236  0.4605  0.2591
 1233SOL     OW 4703   0.545   2.082   0.504 -0.4846  0.0245 -0.4948
 1233SOL    HW2 4704   0.624   2.029   0.500 -0.4082  0.1659 -0.8438
 1233SOL    HW3 4705   0.520   2.095   0.413 -0.4156  0.7261 -0.4180
 1233SOL    MW4 4706   0.552   2.077   0.492 -0.4654  0.1358 -0.5307
 1234SOL     OW 4707   5.137   6.130   0.660 -0.6810 -0.1697  0.1073
 1234SOL    HW2 4708   5.104   6.079   0.586 -0.6583  1.8220 -1.3494
 1234SOL    HW3 4709   5.228   6.149   0.638 -0.5597  0.1465  0.8477
 1234SOL    MW4 4710   5.145   6.126   0.647 -0.6620  0.1348  0.0128
 1235SOL     OW 4711   6.314   5.131   6.169  0.4950 -0.2640 -0.2612
 1235SOL    HW2 4712   6.336   5.039   6.157  1.4591  0.0730 -1.2715
 1235SOL    HW3 4713   6.390   5.169   6.212  1.0519  0.4704 -1.7971
 1235SOL    MW4 4714   6.327   5.124   6.173  0.6957 -0.1226 -0.5971
 1236SOL     OW 4715   2.864   6.110   4.436  0.5994 -0.0721  0.4315
 1236SOL    HW2 4716   2.813   6.103   4.517 -0.8188 -2.4254 -0.5454
 1236SOL    HW3 4717   2.924   6.036   4.439  0.0458 -0.6146 -0.9430
 1236SOL    MW4 4718   2.865   6.099   4.447  0.3392 -0.4541  0.1212
 1237SOL     OW 4719   5.786   3.010   0.639  0.0453  0.5634 -0.2535
 1237SOL    HW2 4720   5.872   2.984   0.607 -0.2284 -0.5367 -0.1316
 1237SOL    HW3 4721   5.787   3.106   0.638  1.8047  0.6056  1.1685
 1237SOL    MW4 4722   5.797   3.020   0.635  0.2413  0.4238 -0.0498
 1238SOL     OW 4723   4.053   6.372   3.721  0.0945  0.0211  0.5927
 1238SOL    HW2 4724   4.090   6.355   3.634 -1.0400  0.1785  0.0622
 1238SOL    HW3 4725   4.123   6.417   3.768  1.2375 -1.3425  0.2514
 1238SOL    MW4 4726   4.067   6.376   3.715  0.0957 -0.1381  0.4777
 1239SOL     OW 4727   1.757   0.631   0.520  0.4744 -0.4398 -0.0067
 1239SOL    HW2 4728   1.718   0.570   0.582 -0.1550 -1.4061 -1.2868
 1239SOL    HW3 4729   1.683   0.665   0.470  0.7683  1.7088  0.9076
 1239SOL    MW4 4730   1.742   0.628   0.521  0.4302 -0.2838 -0.0550
 1240SOL     OW 4731   4.103   1.230   3.864  0.2484 -0.7031 -0.1898
 1240SOL    HW2 4732   4.121   1.146   3.822 -0.3937 -0.0202 -1.9324
 1240SOL    HW3 4733   4.088   1.290   3.791  1.0572  1.0189  0.9971
 1240SOL    MW4 4734   4.104   1.227   3.849  0.2704 -0.3858 -0.2631
 1241SOL     OW 4735   2.512   5.656   1.832  0.1745  0.0993 -0.9640
 1241SOL    HW2 4736   2.434   5.709   1.843  0.6599  0.7423 -0.5578
 1241SOL    HW3 4737   2.496   5.606   1.752 -0.6252  0.2615 -0.9114
 1241SOL    MW4 4738   2.500   5.656   1.823  0.1330  0.2055 -0.9035
 1242SOL     OW 4739   2.384   3.974   1.230  0.1045  0.3818  0.1369
 1242SOL    HW2 4740   2.387   3.881   1.207  0.6406  0.4217  0.0209
 1242SOL    HW3 4741   2.431   3.979   1.314 -0.1309  0.5162  0.2616
 1242SOL    MW4 4742   2.391   3.962   1.238  0.1442  0.4048  0.1380
 1243SOL     OW 4743   1.345   6.157   5.111 -0.5366 -0.0766 -0.2866
 1243SOL    HW2 4744   1.353   6.120   5.023  0.8421  1.1277 -0.6989
 1243SOL    HW3 4745   1.434   6.159   5.145 -0.7809  1.3528  0.3448
 1243SOL    MW4 4746   1.357   6.152   5.104 -0.3869  0.2709 -0.2577
 1244SOL     OW 4747   3.043   6.247   1.023  0.0165  0.4603 -0.1973
 1244SOL    HW2 4748   2.960   6.216   0.988  0.1577 -0.4970  0.2842
 1244SOL    HW3 4749   3.065   6.184   1.092  1.8924 -0.2283 -1.3310
 1244SOL    MW4 4750   3.035   6.235   1.028  0.2826  0.2431 -0.2833
 1245SOL     OW 4751   1.166   6.157   6.331  0.5531  0.4743  0.2867
 1245SOL    HW2 4752   1.146   6.213   6.256 -0.2813 -0.5730 -0.3072
 1245SOL    HW3 4753   1.171   6.217   6.405  2.0281  1.6293 -0.6780
 1245SOL    MW4 4754   1.164   6.172   6.331  0.6376  0.4885  0.0811
 1246SOL     OW 4755   0.036   3.238   3.462 -0.4488 -0.4931  0.1133
 1246SOL    HW2 4756   0.067   3.208   3.376  1.2620 -0.1312  0.5738
 1246SOL    HW3 4757   0.115   3.244   3.515 -1.3514  0.3423  1.4097
 1246SOL    MW4 4758   0.050   3.235   3.458 -0.3422 -0.3351  0.3451
 1247SOL     OW 4759   0.739   0.185   1.019  0.5062  0.6007 -0.0559
 1247SOL    HW2 4760   0.700   0.159   0.935 -1.1817  0.7016  0.6615
 1247SOL    HW3 4761   0.833   0.189   1.001  0.1553  1.0245 -2.0490
 1247SOL    MW4 4762   0.746   0.182   1.005  0.2372  0.6699 -0.2242
 1248SOL     OW 4763   3.418   0.772   3.367 -0.2202  0.1256 -0.0280
 1248SOL    HW2 4764   3.489   0.776   3.431 -0.6049  0.7224  0.3716
 1248SOL    HW3 4765   3.338   0.769   3.420 -0.4899 -1.0651 -0.4639
 1248SOL    MW4 4766   3.417   0.772   3.382 -0.3066  0.0472 -0.0328
 1249SOL     OW 4767   5.386   5.690   1.108 -0.5834  0.1385  0.4244
 1249SOL    HW2 4768   5.322   5.697   1.179  0.6384 -0.3985  1.6134
 1249SOL    HW3 4769   5.402   5.596   1.100  1.4323  0.3572  1.4267
 1249SOL    MW4 4770   5.379   5.678   1.116 -0.1563  0.0965  0.7135
 1250SOL     OW 4771   3.858   3.005   1.827  0.1931  0.1046 -0.2877
 1250SOL    HW2 4772   3.952   2.996   1.811  0.4133 -0.6775  1.2745
 1250SOL    HW3 4773   3.848   3.092   1.863  0.2647  0.3121 -0.7607
 1250SOL    MW4 4774   3.869   3.015   1.829  0.2316  0.0288 -0.1440
 1251SOL     OW 4775   2.370   1.008   5.769  0.5807  0.0679  0.5056
 1251SOL    HW2 4776   2.326   1.081   5.724 -0.7576 -0.4232  0.9790
 1251SOL    HW3 4777   2.444   1.049   5.813 -0.6428  1.3212  1.4859
 1251SOL    MW4 4778   2.374   1.023   5.769  0.2427  0.1685  0.6974
 1252SOL     OW 4779   2.759   0.223   5.351 -0.0075  0.2781 -0.0069
 1252SOL    HW2 4780   2.827   0.233   5.418 -0.0987  1.1444 -0.0358
 1252SOL    HW3 4781   2.808   0.205   5.271  0.3175  2.4519 -0.3520
 1252SOL    MW4 4782   2.775   0.222   5.350  0.0234  0.6792 -0.0563
 1253SOL     OW 4783   4.264   6.450   2.348  0.8317  0.3318 -0.0849
 1253SOL    HW2 4784   4.231   6.487   2.267  0.3835  1.8695  0.7630
 1253SOL    HW3 4785   4.190   6.400   2.384  1.0988 -0.5338 -0.6939
 1253SOL    MW4 4786   4.250   6.448   2.342  0.8078  0.4205 -0.0534
 1254SOL     OW 4787   5.927   3.872   2.189  0.3335 -0.0659 -0.0847
 1254SOL    HW2 4788   5.976   3.789   2.199 -0.1172 -0.5931 -1.8877
 1254SOL    HW3 4789   5.946   3.899   2.099 -0.4758  1.1904  0.1159
 1254SOL    MW4 4790   5.936   3.864   2.179  0.1673  0.0303 -0.2961
 1255SOL     OW 4791   1.415   4.179   5.725 -0.0587 -0.2383 -0.3485
 1255SOL    HW2 4792   1.465   4.260   5.734  0.3921 -0.5497 -0.0509
 1255SOL    HW3 4793   1.336   4.205   5.678  0.6093  0.1586 -1.2605
 1255SOL    MW4 4794   1.411   4.193   5.720  0.0889 -0.2270 -0.4296
 1256SOL     OW 4795   0.224   4.011   5.826  0.0269  0.0389 -0.6693
 1256SOL    HW2 4796   0.140   4.021   5.871  0.7233 -0.3721  0.7619
 1256SOL    HW3 4797   0.200   3.975   5.740 -1.2733  0.1758 -0.3893
 1256SOL    MW4 4798   0.210   4.007   5.821 -0.0527  0.0027 -0.4435
 1257SOL     OW 4799   4.634   2.837   6.335  0.1145  0.4199  0.2553
 1257SOL    HW2 4800   4.640   2.832   6.239  0.0611  0.4565  0.2499
 1257SOL    HW3 4801   4.577   2.913   6.351 -0.8623 -0.2997  0.2919
 1257SOL    MW4 4802   4.627   2.846   6.324 -0.0214  0.3298  0.2594
 1258SOL     OW 4803   4.066   0.611   5.014  0.7259  0.1327  0.6971
 1258SOL    HW2 4804   4.030   0.594   5.101  0.9393  1.3735  1.0463
 1258SOL    HW3 4805   4.077   0.706   5.011 -0.7461  0.3068 -1.2664
 1258SOL    MW4 4806   4.062   0.622   5.025  0.5598  0.3194  0.4841
 1259SOL     OW 4807   0.248   5.530   1.141  0.2458 -0.0705  0.1518
 1259SOL    HW2 4808   0.247   5.435   1.127 -1.0582 -0.0018 -0.3786
 1259SOL    HW3 4809   0.337   5.556   1.120  1.0051 -1.3354  1.5490
 1259SOL    MW4 4810   0.259   5.521   1.137  0.1739 -0.2283  0.2661
 1260SOL     OW 4811   5.550   2.592   0.225 -0.3568  0.2038 -0.0193
 1260SOL    HW2 4812   5.584   2.504   0.212  1.0019  0.6445  0.4302
 1260SOL    HW3 4813   5.541   2.601   0.320 -0.9174  0.4059 -0.0837
 1260SOL    MW4 4814   5.553   2.582   0.236 -0.2515  0.2886  0.0315
 1261SOL     OW 4815   3.954   5.918   3.636  0.3703 -0.1342 -0.6976
 1261SOL    HW2 4816   4.001   5.971   3.700  2.6240 -0.4123 -2.0001
 1261SOL    HW3 4817   3.949   5.831   3.676 -0.1673  0.2024 -0.0212
 1261SOL    MW4 4818   3.960   5.913   3.649  0.5967 -0.1264 -0.7802
 1262SOL     OW 4819   6.235   5.731   3.590  0.1907 -0.0746  0.2554
 1262SOL    HW2 4820   6.215   5.777   3.671 -2.7229  0.2384 -0.5120
 1262SOL    HW3 4821   6.181   5.652   3.594 -0.5648  0.2822 -1.6155
 1262SOL    MW4 4822   6.225   5.726   3.601 -0.2934  0.0138 -0.0927
 1263SOL     OW 4823   6.058   3.744   5.626  0.2218 -0.2408 -0.0701
 1263SOL    HW2 4824   5.968   3.773   5.615 -0.0005 -1.2384 -1.1099
 1263SOL    HW3 4825   6.053   3.669   5.685  0.4170 -0.0452  0.1960
 1263SOL    MW4 4826   6.046   3.738   5.632  0.2182 -0.3466 -0.1722
 1264SOL     OW 4827   3.419   1.659   2.289 -0.2056 -0.1053 -0.0089
 1264SOL    HW2 4828   3.351   1.713   2.330  1.3860  1.9674  0.0730
 1264SOL    HW3 4829   3.372   1.582   2.258 -2.3166  0.5193  1.3768
 1264SOL    MW4 4830   3.404   1.656   2.290 -0.2742  0.2505  0.1847
 1265SOL     OW 4831   4.534   4.827   2.974 -0.4840  0.2955  1.1718
 1265SOL    HW2 4832   4.555   4.920   2.980  0.5893  0.5422 -3.2749
 1265SOL    HW3 4833   4.609   4.787   2.932 -2.8284 -1.6193 -1.6003
 1265SOL    MW4 4834   4.546   4.834   2.970 -0.6517  0.0754  0.2194
 1266SOL     OW 4835   5.611   0.463   5.433 -0.4939  0.1031  0.0611
 1266SOL    HW2 4836   5.575   0.549   5.411 -0.5674  0.3924  1.2730
 1266SOL    HW3 4837   5.695   0.461   5.387 -0.2099  1.0808  0.4971
 1266SOL    MW4 4838   5.618   0.474   5.424 -0.4661  0.2703  0.2785
 1267SOL     OW 4839   3.727   5.006   3.578  0.4655  0.2351  0.4830
 1267SOL    HW2 4840   3.810   4.964   3.556  0.0820 -0.1109 -0.3595
 1267SOL    HW3 4841   3.671   4.934   3.608  0.7879  0.6153  2.0888
 1267SOL    MW4 4842   3.731   4.991   3.579  0.4574  0.2396  0.5837
 1268SOL     OW 4843   5.722   2.640   2.429 -0.2061  0.2221  0.4694
 1268SOL    HW2 4844   5.735   2.669   2.519  0.1712 -0.3720  0.6108
 1268SOL    HW3 4845   5.692   2.549   2.437  0.8006 -0.1712 -0.0284
 1268SOL    MW4 4846   5.719   2.632   2.442 -0.0235  0.0918  0.4224
 1269SOL     OW 4847   6.237   2.474   0.775 -0.3994 -0.0298 -0.1907
 1269SOL    HW2 4848   6.236   2.502   0.867  2.0099 -2.1497  0.6015
 1269SOL    HW3 4849   6.329   2.481   0.749 -1.3122  3.1384 -3.4553
 1269SOL    MW4 4850   6.249   2.479   0.784 -0.2020  0.1085 -0.5169
 1270SOL     OW 4851   0.843   2.010   2.746  0.0399 -0.3866 -0.4160
 1270SOL    HW2 4852   0.761   2.021   2.699 -0.6377 -1.0233  0.5659
 1270SOL    HW3 4853   0.894   1.951   2.692 -0.5878 -0.8448 -0.5202
 1270SOL    MW4 4854   0.839   2.004   2.733 -0.1323 -0.5311 -0.3002
 1271SOL     OW 4855   5.741   0.409   3.374 -0.1219 -0.5843 -0.2752
 1271SOL    HW2 4856   5.745   0.482   3.312 -0.1161  0.1385  0.5669
 1271SOL    HW3 4857   5.673   0.351   3.339  0.2386 -0.4556 -1.2301
 1271SOL    MW4 4858   5.733   0.411   3.361 -0.0736 -0.4719 -0.2901
 1272SOL     OW 4859   0.615   0.102   0.786  0.4771 -0.0290  0.2123
 1272SOL    HW2 4860   0.631   0.010   0.803 -2.0409 -0.7995 -1.0306
 1272SOL    HW3 4861   0.671   0.123   0.711 -0.9042 -1.3652 -1.2638
 1272SOL    MW4 4862   0.624   0.093   0.778 -0.0374 -0.3070 -0.1465
 1273SOL     OW 4863   5.713   6.236   2.759  0.1275  0.5438 -0.4253
 1273SOL    HW2 4864   5.709   6.141   2.745 -1.9300  0.4779  0.2634
 1273SOL    HW3 4865   5.724   6.273   2.671 -1.7233 -0.2659 -1.0432
 1273SOL    MW4 4866   5.714   6.228   2.746 -0.3881  0.4283 -0.4160
 1274SOL     OW 4867   5.257   2.640   5.278 -0.0929 -0.5755  0.9073
 1274SOL    HW2 4868   5.163   2.650   5.289 -0.2710 -1.4046  0.1654
 1274SOL    HW3 4869   5.269   2.556   5.235  0.7870  0.7262 -1.6401
 1274SOL    MW4 4870   5.246   2.630   5.274 -0.0003 -0.5131  0.4733
 1275SOL     OW 4871   0.780   2.397   2.110  0.1056  0.0641 -0.0360
 1275SOL    HW2 4872   0.792   2.341   2.186  0.7388  1.5839  1.0339
 1275SOL    HW3 4873   0.816   2.482   2.136 -0.9618  1.0368 -1.5207
 1275SOL    MW4 4874   0.786   2.401   2.123  0.0483  0.3930 -0.0907
 1276SOL     OW 4875   5.657   6.136   4.293  0.0010 -0.2202  0.1992
 1276SOL    HW2 4876   5.613   6.166   4.373  0.7914 -0.1489  0.6224
 1276SOL    HW3 4877   5.612   6.055   4.269 -1.0645  0.4179 -0.0034
 1276SOL    MW4 4878   5.645   6.129   4.300 -0.0353 -0.1266  0.2283
 1277SOL     OW 4879   4.084   0.590   5.294  0.1847 -0.4646  0.3366
 1277SOL    HW2 4880   4.089   0.685   5.293 -0.6252 -0.3442 -2.7096
 1277SOL    HW3 4881   3.997   0.570   5.326 -0.3353 -0.0591 -0.7779
 1277SOL    MW4 4882   4.073   0.600   5.298  0.0092 -0.3952 -0.2124
 1278SOL     OW 4883   1.960   4.835   5.336 -0.1691 -0.1552  0.1393
 1278SOL    HW2 4884   1.951   4.739   5.332 -0.7998 -0.1393  0.9314
 1278SOL    HW3 4885   2.032   4.854   5.276 -0.5649 -1.0449 -0.6590
 1278SOL    MW4 4886   1.968   4.825   5.328 -0.3045 -0.2705  0.1385
 1279SOL     OW 4887   1.264   3.742   3.101  0.3617  0.3370 -0.6402
 1279SOL    HW2 4888   1.354   3.769   3.082 -0.1446  1.3668 -1.7571
 1279SOL    HW3 4889   1.229   3.810   3.158  0.1376  0.1994 -0.6081
 1279SOL    MW4 4890   1.271   3.754   3.106  0.2654  0.4547 -0.7833
 1280SOL     OW 4891   2.511   3.937   4.824 -1.0717 -0.2263  0.4241
 1280SOL    HW2 4892   2.518   3.963   4.732  0.5429  0.5130  0.7236
 1280SOL    HW3 4893   2.495   4.019   4.871 -0.7134 -0.4262  0.9030
 1280SOL    MW4 4894   2.510   3.951   4.818 -0.8114 -0.1552  0.5268
 1281SOL     OW 4895   1.466   1.914   4.963  0.2777  0.3131  0.2381
 1281SOL    HW2 4896   1.560   1.925   4.973  0.1488  2.1542 -0.3460
 1281SOL    HW3 4897   1.429   1.939   5.048  0.2092  1.4366 -0.1060
 1281SOL    MW4 4898   1.473   1.918   4.976  0.2517  0.7043  0.1156
 1282SOL     OW 4899   2.136   4.164   3.471 -0.2025 -0.4130 -0.5957
 1282SOL    HW2 4900   2.109   4.249   3.435 -0.8572  0.6167  2.0865
 1282SOL    HW3 4901   2.054   4.125   3.501  0.5230  0.1310  2.3559
 1282SOL    MW4 4902   2.122   4.170   3.470 -0.1932 -0.2054  0.1476
 1283SOL     OW 4903   5.165   2.619   2.792 -0.2325 -0.1066 -0.3858
 1283SOL    HW2 4904   5.251   2.611   2.752 -0.4694 -4.9285 -0.5750
 1283SOL    HW3 4905   5.104   2.619   2.718 -0.4269 -0.9279 -0.2469
 1283SOL    MW4 4906   5.168   2.618   2.777 -0.2894 -0.8511 -0.3925
 1284SOL     OW 4907   5.343   6.234   0.495  0.1346 -0.3624  1.2113
 1284SOL    HW2 4908   5.269   6.263   0.442  2.2747  1.9424 -0.7092
 1284SOL    HW3 4909   5.413   6.218   0.432  1.8211 -0.7747  3.0908
 1284SOL    MW4 4910   5.342   6.235   0.479  0.6395 -0.1127  1.2059
 1285SOL     OW 4911   0.167   5.732   0.354 -0.0253 -0.0371 -0.0154
 1285SOL    HW2 4912   0.081   5.746   0.315 -0.5464 -0.3555  0.9748
 1285SOL    HW3 4913   0.220   5.695   0.283 -1.1184 -1.1734 -0.2783
 1285SOL    MW4 4914   0.163   5.729   0.340 -0.2383 -0.2291  0.0805
 1286SOL     OW 4915   0.398   5.992   6.149 -1.3406  0.3561  0.1931
 1286SOL    HW2 4916   0.372   5.928   6.215 -0.4602  0.0934  0.3002
 1286SOL    HW3 4917   0.411   6.073   6.199 -1.6167  0.4004  0.1925
 1286SOL    MW4 4918   0.397   5.995   6.164 -1.2609  0.3273  0.2072
 1287SOL     OW 4919   5.753   3.737   5.606  0.2915  0.4522  0.3520
 1287SOL    HW2 4920   5.698   3.771   5.535  1.9738  0.7146 -0.8950
 1287SOL    HW3 4921   5.724   3.783   5.684  0.6134  2.7306 -0.7882
 1287SOL    MW4 4922   5.742   3.748   5.607  0.5559  0.7875  0.0370
 1288SOL     OW 4923   0.352   1.546   0.077 -0.3061  0.1920  0.1187
 1288SOL    HW2 4924   0.304   1.628   0.085  0.9412  0.8611  1.1359
 1288SOL    HW3 4925   0.435   1.570   0.036 -1.4197 -1.2188 -3.3667
 1288SOL    MW4 4926   0.356   1.560   0.073 -0.2884  0.0942 -0.2069
 1289SOL     OW 4927   0.439   3.208   2.881 -0.2431 -0.0385 -0.4537
 1289SOL    HW2 4928   0.384   3.178   2.809 -1.1124 -0.8146  0.4846
 1289SOL    HW3 4929   0.527   3.215   2.844 -0.8405  0.5050 -1.8054
 1289SOL    MW4 4930   0.444   3.205   2.867 -0.4366 -0.0692 -0.5082
 1290SOL     OW 4931   1.133   5.067   3.765  0.0678  0.0481  0.5017
 1290SOL    HW2 4932   1.212   5.048   3.816  1.4063  0.3926 -1.3587
 1290SOL    HW3 4933   1.156   5.142   3.711 -1.6106  0.2821  0.0401
 1290SOL    MW4 4934   1.146   5.074   3.765  0.0229  0.1244  0.1953
 1291SOL     OW 4935   1.713   1.016   1.190  0.0203 -0.1680 -0.2179
 1291SOL    HW2 4936   1.646   1.083   1.180  0.6865  0.3503 -1.4664
 1291SOL    HW3 4937   1.717   1.000   1.284  0.1817  1.9141  0.1814
 1291SOL    MW4 4938   1.705   1.023   1.201  0.1295  0.1751 -0.3299
 1292SOL     OW 4939   4.559   2.375   3.978 -0.1602  0.0043 -0.1017
 1292SOL    HW2 4940   4.492   2.399   4.042 -2.0905 -0.6136 -1.7676
 1292SOL    HW3 4941   4.556   2.444   3.912  2.0271  0.8027  0.5363
 1292SOL    MW4 4942   4.550   2.387   3.978 -0.1263  0.0281 -0.2373
 1293SOL     OW 4943   5.986   4.250   0.896  0.8317  0.1928  0.2414
 1293SOL    HW2 4944   5.928   4.314   0.938  0.3663  0.5282 -0.8680
 1293SOL    HW3 4945   5.985   4.174   0.954 -0.5276  0.2893  0.3804
 1293SOL    MW4 4946   5.978   4.249   0.909  0.5910  0.2498  0.1134
 1294SOL     OW 4947   6.249   2.946   0.782  0.2840 -0.0882 -0.3826
 1294SOL    HW2 4948   6.343   2.961   0.784  0.0213  1.8393 -0.3830
 1294SOL    HW3 4949   6.211   3.032   0.764 -1.6049 -0.3023  2.0047
 1294SOL    MW4 4950   6.256   2.959   0.780  0.0001  0.1378 -0.0677
 1295SOL     OW 4951   1.890   2.042   0.057  0.3829 -0.3420 -0.8542
 1295SOL    HW2 4952   1.860   2.081   0.139  0.7206  0.2611 -1.0097
 1295SOL    HW3 4953   1.905   2.117  -0.001  1.2686 -0.6895 -1.0844
 1295SOL    MW4 4954   1.888   2.057   0.060  0.5443 -0.3083 -0.9051
 1296SOL     OW 4955   6.314   0.883   2.314 -0.2812  0.1559 -0.1545
 1296SOL    HW2 4956   6.226   0.901   2.347 -1.0194 -1.2222 -1.2364
 1296SOL    HW3 4957   6.320   0.935   2.233 -0.2679 -0.0761 -0.3028
 1296SOL    MW4 4958   6.303   0.892   2.308 -0.3768 -0.0565 -0.3168
 1297SOL     OW 4959   3.701   2.532   4.698 -0.1026 -0.1061  0.2615
 1297SOL    HW2 4960   3.735   2.459   4.750 -1.2639 -0.4231  0.6008
 1297SOL    HW3 4961   3.611   2.506   4.676  0.3992 -0.1154 -2.1179
 1297SOL    MW4 4962   3.693   2.519   4.702 -0.1896 -0.1491 -0.0077
 1298SOL     OW 4963   6.318   3.657   1.767  0.4357 -0.0510  0.7202
 1298SOL    HW2 4964   6.260   3.695   1.701 -0.0672 -1.3210  0.4105
 1298SOL    HW3 4965   6.330   3.727   1.831 -1.0142  0.4246  0.5115
 1298SOL    MW4 4966   6.312   3.671   1.767  0.1781 -0.1558  0.6518
 1299SOL     OW 4967   4.652   1.319   3.282 -0.5437 -0.2101  0.5963
 1299SOL    HW2 4968   4.746   1.326   3.267 -0.3845  0.6615  1.9022
 1299SOL    HW3 4969   4.642   1.250   3.347 -0.8751 -0.7957 -0.0625
 1299SOL    MW4 4970   4.663   1.311   3.288 -0.5664 -0.1724  0.6816
 1300SOL     OW 4971   1.256   3.694   6.083 -0.0757  0.0775  0.2277
 1300SOL    HW2 4972   1.274   3.716   6.174 -2.8254 -1.2365  1.2157
 1300SOL    HW3 4973   1.173   3.737   6.063  0.3842  0.1975 -1.6123
 1300SOL    MW4 4974   1.247   3.702   6.092 -0.3778 -0.0800  0.1153
 1301SOL     OW 4975   4.249   2.976   0.253  0.7038 -0.5849  0.3433
 1301SOL    HW2 4976   4.227   2.918   0.326  1.0325  0.1075  1.0051
 1301SOL    HW3 4977   4.261   3.062   0.293  0.3426 -0.0751 -0.6084
 1301SOL    MW4 4978   4.248   2.979   0.268  0.6995 -0.4262  0.3050
 1302SOL     OW 4979   5.253   2.102   5.037  0.0583 -0.1915  0.4817
 1302SOL    HW2 4980   5.248   2.190   5.073  2.3296 -0.4429  1.6456
 1302SOL    HW3 4981   5.254   2.045   5.114 -0.9738 -1.2219 -0.2375
 1302SOL    MW4 4982   5.253   2.106   5.052  0.2218 -0.3606  0.5403
 1303SOL     OW 4983   5.220   4.198   4.949 -0.6668 -0.0282  0.2106
 1303SOL    HW2 4984   5.247   4.262   5.014  0.2619 -0.8282  0.6421
 1303SOL    HW3 4985   5.176   4.129   4.999 -0.4510 -0.3781 -0.0750
 1303SOL    MW4 4986   5.218   4.197   4.964 -0.5158 -0.1799  0.2298
 1304SOL     OW 4987   4.654   0.994   0.464  0.0875  0.2038  0.0862
 1304SOL    HW2 4988   4.589   0.925   0.456  0.8257 -0.6449  1.0709
 1304SOL    HW3 4989   4.694   0.999   0.377 -1.1317  0.6060 -0.4739
 1304SOL    MW4 4990   4.651   0.985   0.451  0.0240  0.1449  0.1422
 1305SOL     OW 4991   4.726   0.269   2.177  0.1102 -0.6569 -0.2097
 1305SOL    HW2 4992   4.765   0.188   2.210 -1.0677 -0.7910  0.9475
 1305SOL    HW3 4993   4.778   0.292   2.100  1.7794 -1.3747  0.6710
 1305SOL    MW4 4994   4.738   0.261   2.171  0.1750 -0.7693  0.0592
 1306SOL     OW 4995   0.821   5.915   4.213 -0.2231 -0.6957 -0.5181
 1306SOL    HW2 4996   0.806   5.917   4.307 -0.7746  0.8124 -0.6074
 1306SOL    HW3 4997   0.842   6.005   4.189  1.2667 -1.2894 -1.6535
 1306SOL    MW4 4998   0.822   5.927   4.222 -0.0993 -0.5751 -0.6796
 1307SOL     OW 4999   3.191   4.318   1.528  0.4023 -0.1086 -0.0539
 1307SOL    HW2 5000   3.282   4.331   1.557  0.9887  0.0757 -1.8738
 1307SOL    HW3 5001   3.191   4.232   1.487 -0.9618 -1.3935  2.4077
 1307SOL    MW4 5002   3.203   4.308   1.526  0.2997 -0.2538  0.0307
 1308SOL     OW 5003   3.189   5.029   4.136  0.2008  0.4036  0.1202
 1308SOL    HW2 5004   3.194   5.112   4.183  0.2038  0.8331 -0.6223
 1308SOL    HW3 5005   3.096   5.011   4.128  0.1178  1.4167 -1.5513
 1308SOL    MW4 5006   3.178   5.037   4.141  0.1902  0.5939 -0.1983
 1309SOL     OW 5007   0.383   1.195   5.695  0.0486 -0.1151  0.3625
 1309SOL    HW2 5008   0.330   1.117   5.677 -0.6013  0.6575 -1.2500
 1309SOL    HW3 5009   0.447   1.197   5.624 -0.2252  1.0533  0.1311
 1309SOL    MW4 5010   0.384   1.185   5.683 -0.0733  0.1410  0.1192
 1310SOL     OW 5011   0.540   5.349   2.339 -0.1682 -0.0760  0.4919
 1310SOL    HW2 5012   0.497   5.264   2.332  1.3204 -1.1887  3.3520
 1310SOL    HW3 5013   0.633   5.328   2.344  0.2909  1.8072  0.4126
 1310SOL    MW4 5014   0.546   5.335   2.339  0.0887  0.0256  0.8588
 1311SOL     OW 5015   4.835   1.244   6.096 -0.1676 -0.2514 -0.3043
 1311SOL    HW2 5016   4.761   1.231   6.155 -1.1982  0.4738 -1.3932
 1311SOL    HW3 5017   4.835   1.338   6.077  1.6976 -0.0406  0.4801
 1311SOL    MW4 5018   4.825   1.255   6.101 -0.0575 -0.1279 -0.3445
 1312SOL     OW 5019   3.741   5.197   2.818  0.3650 -0.0920 -0.0414
 1312SOL    HW2 5020   3.663   5.239   2.855  0.0356 -0.8004  0.0790
 1312SOL    HW3 5021   3.810   5.214   2.882  0.0362 -0.4411  0.4120
 1312SOL    MW4 5022   3.740   5.205   2.831  0.2782 -0.2316  0.0343
 1313SOL     OW 5023   0.918   0.679   2.259  0.0045 -0.0201  0.1375
 1313SOL    HW2 5024   0.964   0.759   2.283 -0.6644  1.7666 -3.7604
 1313SOL    HW3 5025   0.982   0.628   2.209 -0.4891 -0.4090 -0.1108
 1313SOL    MW4 5026   0.932   0.682   2.256 -0.1489  0.1644 -0.4095
 1314SOL     OW 5027   3.798   3.269   1.958 -0.2942 -0.3137  0.6585
 1314SOL    HW2 5028   3.867   3.336   1.957 -1.0322  0.5561  2.7463
 1314SOL    HW3 5029   3.728   3.307   2.011 -0.8253 -2.6549  1.7805
 1314SOL    MW4 5030   3.798   3.283   1.965 -0.4617 -0.5078  1.0820
 1315SOL     OW 5031   2.447   4.810   1.643 -0.1997  0.2878  0.0065
 1315SOL    HW2 5032   2.445   4.800   1.739  0.2909  1.4673  0.1603
 1315SOL    HW3 5033   2.383   4.880   1.626  0.0237  0.3722 -0.4820
 1315SOL    MW4 5034   2.438   4.818   1.654 -0.1055  0.4546 -0.0377
 1316SOL     OW 5035   0.314   0.689   2.764  0.3255  0.1689 -0.1229
 1316SOL    HW2 5036   0.283   0.691   2.674  0.0965 -1.3123 -0.0946
 1316SOL    HW3 5037   0.405   0.662   2.758 -0.3888 -2.6357  0.1875
 1316SOL    MW4 5038   0.322   0.686   2.751  0.2010 -0.3965 -0.0782
 1317SOL     OW 5039   2.741   4.909   5.628  0.3369  0.2701 -0.9358
 1317SOL    HW2 5040   2.835   4.900   5.611  0.3735 -0.3841 -0.4243
 1317SOL    HW3 5041   2.708   4.819   5.628 -0.3937  0.5233 -1.6485
 1317SOL    MW4 5042   2.749   4.896   5.625  0.2453  0.2172 -0.9623
 1318SOL     OW 5043   0.762   3.175   5.791  0.8754 -0.4912  0.5066
 1318SOL    HW2 5044   0.766   3.264   5.827  0.5297 -0.5656  0.7255
 1318SOL    HW3 5045   0.739   3.188   5.699  1.1932 -0.3343  0.4463
 1318SOL    MW4 5046   0.760   3.188   5.784  0.8717 -0.4803  0.5275
 1319SOL     OW 5047   6.397   1.766   3.064  0.4357 -0.7272 -0.1493
 1319SOL    HW2 5048   6.426   1.810   3.144 -1.2698 -2.3414  1.4758
 1319SOL    HW3 5049   6.312   1.805   3.044  0.5482 -0.7977 -0.7949
 1319SOL    MW4 5050   6.390   1.777   3.072  0.2255 -0.9495 -0.0201
 1320SOL     OW 5051   1.556   6.001   6.038 -0.6415 -0.3085  0.1487
 1320SOL    HW2 5052   1.516   6.010   6.125 -1.0976 -1.8883  0.1430
 1320SOL    HW3 5053   1.630   5.942   6.051  0.0268  0.4034 -0.3405
 1320SOL    MW4 5054   1.560   5.995   6.051 -0.6135 -0.4230  0.0834
 1321SOL     OW 5055   0.614   6.438   6.084 -0.3790 -0.7045  0.2003
 1321SOL    HW2 5056   0.576   6.410   6.000  2.3924 -0.5065 -1.2377
 1321SOL    HW3 5057   0.708   6.440   6.068  0.0915  2.3758  2.3929
 1321SOL    MW4 5058   0.621   6.435   6.071  0.0487 -0.2720  0.2999
 1322SOL     OW 5059   2.782   4.146   4.686 -0.0430 -0.3421  0.1081
 1322SOL    HW2 5060   2.778   4.095   4.767 -1.1625  0.4381  0.5797
 1322SOL    HW3 5061   2.690   4.170   4.669  0.3511  0.7830 -0.5558
 1322SOL    MW4 5062   2.769   4.143   4.694 -0.1387 -0.0908  0.0827
 1323SOL     OW 5063   3.086   0.585   0.055 -0.4421  0.0303 -0.5439
 1323SOL    HW2 5064   3.167   0.628   0.082  0.1956 -1.6835  0.4505
 1323SOL    HW3 5065   3.021   0.616   0.118  0.3939 -1.6687  1.2796
 1323SOL    MW4 5066   3.088   0.594   0.067 -0.2477 -0.4200 -0.1721
 1324SOL     OW 5067   1.213   3.890   3.331 -0.3028  0.1984  0.0486
 1324SOL    HW2 5068   1.154   3.815   3.335 -0.3385  0.2383  0.3054
 1324SOL    HW3 5069   1.263   3.886   3.412  0.2633 -0.0040 -0.3031
 1324SOL    MW4 5070   1.211   3.880   3.342 -0.2328  0.1769  0.0361
 1325SOL     OW 5071   6.237   3.277   4.403  0.3119  0.5658  0.3123
 1325SOL    HW2 5072   6.331   3.287   4.386  0.5538  0.0559  1.2355
 1325SOL    HW3 5073   6.228   3.295   4.497 -0.4519  0.2392  0.3081
 1325SOL    MW4 5074   6.248   3.280   4.414  0.2430  0.4554  0.4336
 1326SOL     OW 5075   0.270   2.075   0.606 -0.5560  0.1368 -0.3228
 1326SOL    HW2 5076   0.355   2.063   0.565  0.1459  1.5571  0.6475
 1326SOL    HW3 5077   0.283   2.048   0.697 -1.1259  0.4210 -0.1514
 1326SOL    MW4 5078   0.283   2.070   0.613 -0.5386  0.3617 -0.1722
 1327SOL     OW 5079   0.356   4.513   0.304 -0.4755 -0.3708  0.6703
 1327SOL    HW2 5080   0.356   4.456   0.380 -1.6947 -0.5652  0.5321
 1327SOL    HW3 5081   0.391   4.597   0.337 -2.7482  0.1561  1.9237
 1327SOL    MW4 5082   0.361   4.517   0.318 -0.9362 -0.3269  0.8174
 1328SOL     OW 5083   4.978   3.056   1.156  0.8509 -0.0384  0.0408
 1328SOL    HW2 5084   4.945   3.091   1.073  0.4413 -0.9583 -0.1916
 1328SOL    HW3 5085   4.907   3.000   1.188  1.4340 -0.5333  0.4850
 1328SOL    MW4 5086   4.964   3.054   1.150  0.8738 -0.2250  0.0687
 1329SOL     OW 5087   0.974   5.257   4.688 -0.1748  0.0690 -0.6026
 1329SOL    HW2 5088   0.939   5.327   4.743 -0.6884  0.4665 -1.4087
 1329SOL    HW3 5089   0.904   5.238   4.626  0.1247 -0.8671 -0.6681
 1329SOL    MW4 5090   0.960   5.264   4.687 -0.2031 -0.0020 -0.7176
 1330SOL     OW 5091   0.553   4.803   4.431  0.4043  0.1813  0.7978
 1330SOL    HW2 5092   0.461   4.805   4.459 -1.2316 -1.8626 -3.5790
 1330SOL    HW3 5093   0.553   4.845   4.346  3.2157 -1.3219 -0.0666
 1330SOL    MW4 5094   0.541   4.809   4.424  0.5594 -0.2867  0.1063
 1331SOL     OW 5095   1.975   2.277   1.263 -0.6683 -0.3741 -0.0671
 1331SOL    HW2 5096   2.038   2.268   1.191 -1.1599 -1.3826 -0.3930
 1331SOL    HW3 5097   1.911   2.341   1.231 -0.7294 -0.6065 -0.4116
 1331SOL    MW4 5098   1.975   2.284   1.249 -0.7412 -0.5379 -0.1555
 1332SOL     OW 5099   2.589   2.347   4.441 -0.2742 -0.1194  0.0779
 1332SOL    HW2 5100   2.572   2.253   4.434  0.7099 -0.3574  0.7925
 1332SOL    HW3 5101   2.683   2.356   4.429 -0.4110  0.8373 -0.4337
 1332SOL    MW4 5102   2.599   2.336   4.438 -0.1624 -0.0246  0.1047
 1333SOL     OW 5103   5.670   4.496   5.247 -1.0416 -0.1907  0.5016
 1333SOL    HW2 5104   5.595   4.553   5.234 -2.3193 -1.8651  0.1983
 1333SOL    HW3 5105   5.655   4.454   5.332  0.6739  1.0225  1.4730
 1333SOL    MW4 5106   5.658   4.498   5.257 -0.9838 -0.2515  0.5897
 1334SOL     OW 5107   1.101   4.945   1.909 -0.7933  0.0427 -0.4982
 1334SOL    HW2 5108   1.071   5.019   1.856 -1.4355 -2.2039 -3.4913
 1334SOL    HW3 5109   1.193   4.933   1.885 -0.9515 -0.6923 -0.7681
 1334SOL    MW4 5110   1.109   4.953   1.899 -0.8989 -0.3507 -0.9287
 1335SOL     OW 5111   5.941   0.020   0.273  0.0067  0.1689 -0.4232
 1335SOL    HW2 5112   5.956  -0.015   0.361 -0.7512  0.1171 -0.3124
 1335SOL    HW3 5113   6.019  -0.008   0.223  0.7595  0.7701  0.3898
 1335SOL    MW4 5114   5.954   0.011   0.278  0.0060  0.2414 -0.3013
 1336SOL     OW 5115   3.483   0.920   0.492 -0.7217 -0.1535 -0.3499
 1336SOL    HW2 5116   3.474   0.993   0.431 -1.3669  0.1040  0.0424
 1336SOL    HW3 5117   3.395   0.907   0.526 -0.2975 -0.0149  0.8390
 1336SOL    MW4 5118   3.470   0.928   0.488 -0.7509 -0.1013 -0.1413
 1337SOL     OW 5119   5.588   1.531   2.022  0.2023  0.1850 -0.2597
 1337SOL    HW2 5120   5.565   1.581   2.101 -0.7770 -1.8030  0.7925
 1337SOL    HW3 5121   5.661   1.475   2.050 -0.7147 -1.1561 -0.4929
 1337SOL    MW4 5122   5.595   1.530   2.036 -0.0479 -0.2542 -0.1517
 1338SOL     OW 5123   6.260   6.263   0.422 -0.2695  0.2040 -0.1883
 1338SOL    HW2 5124   6.262   6.356   0.444  2.4578  0.3226 -0.5042
 1338SOL    HW3 5125   6.200   6.224   0.485  0.7220  1.8022  1.8608
 1338SOL    MW4 5126   6.252   6.270   0.433  0.2211  0.4305  0.0404
 1339SOL     OW 5127   3.078   2.441   3.294  0.4832 -0.5381  0.2106
 1339SOL    HW2 5128   3.013   2.370   3.290  0.6026 -0.6965  1.0081
 1339SOL    HW3 5129   3.142   2.419   3.226 -1.0461  0.3870 -1.6135
 1339SOL    MW4 5130   3.078   2.428   3.284  0.2972 -0.4369  0.0752
 1340SOL     OW 5131   2.916   1.026   4.864  0.5506  0.1925  0.8823
 1340SOL    HW2 5132   2.968   0.963   4.814 -0.1413  0.3365 -0.0513
 1340SOL    HW3 5133   2.933   1.110   4.822 -1.7669 -0.0011 -0.6289
 1340SOL    MW4 5134   2.925   1.029   4.852  0.1536  0.1860  0.5597
 1341SOL     OW 5135   1.398   4.818   5.632  0.3378 -0.7724  0.8424
 1341SOL    HW2 5136   1.492   4.809   5.619  0.4894 -2.7576  2.7880
 1341SOL    HW3 5137   1.387   4.899   5.682  0.7602  0.5660 -1.1294
 1341SOL    MW4 5138   1.409   4.827   5.637  0.4135 -0.8578  0.8390
 1342SOL     OW 5139   3.878   1.528   4.225 -0.1751  0.3332  0.1575
 1342SOL    HW2 5140   3.895   1.516   4.131 -3.8251  0.1841 -0.6237
 1342SOL    HW3 5141   3.786   1.505   4.236  0.5872 -1.6557  4.2246
 1342SOL    MW4 5142   3.868   1.524   4.214 -0.5561  0.0511  0.5910
 1343SOL     OW 5143   5.011   5.043   5.558 -0.1372 -0.0134  0.4731
 1343SOL    HW2 5144   5.071   5.023   5.631 -0.0891  0.5937  0.6062
 1343SOL    HW3 5145   5.009   4.963   5.507  2.1116  0.4436 -0.4582
 1343SOL    MW4 5146   5.019   5.030   5.561  0.1659  0.1270  0.3678
 1344SOL     OW 5147   4.035   6.374   4.730  0.3617 -0.2033  0.0221
 1344SOL    HW2 5148   4.096   6.436   4.769  1.5865 -1.0660 -0.4450
 1344SOL    HW3 5149   4.077   6.289   4.740  0.6202 -0.5287 -2.8304
 1344SOL    MW4 5150   4.048   6.371   4.736  0.5574 -0.3601 -0.4158
 1345SOL     OW 5151   0.896   0.689   4.458  0.3155 -0.4936 -0.3030
 1345SOL    HW2 5152   0.875   0.737   4.538  2.2259 -1.0772  0.6048
 1345SOL    HW3 5153   0.907   0.757   4.392 -1.2568  0.0011 -0.0970
 1345SOL    MW4 5154   0.895   0.704   4.460  0.3601 -0.5053 -0.1560
 1346SOL     OW 5155   2.221   6.407   0.640  0.2360  0.4879  0.7168
 1346SOL    HW2 5156   2.314   6.388   0.654 -0.0027 -1.8398 -0.3687
 1346SOL    HW3 5157   2.203   6.375   0.551 -1.8363 -0.1181  1.3010
 1346SOL    MW4 5158   2.231   6.400   0.630 -0.0689  0.1008  0.6507
 1347SOL     OW 5159   5.819   4.023   3.839  0.3052  0.3994  0.5975
 1347SOL    HW2 5160   5.746   4.084   3.841  1.3625  1.6776  2.4422
 1347SOL    HW3 5161   5.891   4.072   3.799  0.4498 -0.5261 -0.3224
 1347SOL    MW4 5162   5.819   4.037   3.834  0.4638  0.4459  0.7195
 1348SOL     OW 5163   2.830   3.947   5.446  0.5796  0.3063 -0.0091
 1348SOL    HW2 5164   2.906   3.953   5.388  1.3200 -1.6971  0.6632
 1348SOL    HW3 5165   2.775   3.878   5.407  0.1263  0.2992  0.6197
 1348SOL    MW4 5166   2.833   3.938   5.433  0.6175  0.0410  0.1626
 1349SOL     OW 5167   3.332   4.296   3.981 -0.7634 -0.1109  0.7209
 1349SOL    HW2 5168   3.374   4.316   3.898 -0.3100 -1.4018  0.6116
 1349SOL    HW3 5169   3.248   4.258   3.957 -1.2898  0.9062  0.9026
 1349SOL    MW4 5170   3.327   4.294   3.967 -0.7730 -0.1470  0.7304
 1350SOL     OW 5171   4.998   0.300   2.528 -0.2633  0.0260  0.0052
 1350SOL    HW2 5172   4.932   0.349   2.478  0.9839 -0.1664 -1.9806
 1350SOL    HW3 5173   4.956   0.280   2.611 -3.3915 -1.5883 -1.7688
 1350SOL    MW4 5174   4.984   0.304   2.532 -0.5115 -0.2123 -0.4909
 1351SOL     OW 5175   2.763   0.367   3.810  0.3260  0.0130  1.0557
 1351SOL    HW2 5176   2.790   0.354   3.901 -1.7485 -1.9890  1.4917
 1351SOL    HW3 5177   2.690   0.428   3.814 -1.0950 -1.5855  1.0747
 1351SOL    MW4 5178   2.757   0.373   3.822 -0.1352 -0.4621  1.1157
 1352SOL     OW 5179   4.036   2.601   3.906  0.9769  0.5071 -0.3825
 1352SOL    HW2 5180   4.057   2.508   3.901  1.4492  0.4438  1.7480
 1352SOL    HW3 5181   3.941   2.605   3.906  0.9329  0.1740 -1.9319
 1352SOL    MW4 5182   4.026   2.589   3.905  1.0334  0.4548 -0.3058
 1353SOL     OW 5183   4.660   5.621   3.957 -0.6275  0.2127  0.2549
 1353SOL    HW2 5184   4.589   5.592   3.900 -0.4096 -1.5031  0.7729
 1353SOL    HW3 5185   4.617   5.658   4.033 -0.9950 -0.8407  0.5770
 1353SOL    MW4 5186   4.645   5.622   3.959 -0.6472 -0.1526  0.3657
 1354SOL     OW 5187   2.384   3.626   1.460  0.1052  0.2804 -0.4364
 1354SOL    HW2 5188   2.322   3.616   1.532  0.9250 -0.1469  0.2238
 1354SOL    HW3 5189   2.465   3.655   1.502  1.0414 -1.4096 -0.9900
 1354SOL    MW4 5190   2.386   3.629   1.475  0.3369  0.0011 -0.4223
 1355SOL     OW 5191   2.941   3.727   5.642 -0.1690  0.3777 -0.9702
 1355SOL    HW2 5192   2.896   3.777   5.574  0.6321  2.3989 -0.1167
 1355SOL    HW3 5193   3.034   3.734   5.619  0.0536  0.4581 -0.0894
 1355SOL    MW4 5194   2.947   3.735   5.630 -0.0340  0.6550 -0.7414
 1356SOL     OW 5195   0.739   3.715   1.791  0.1858 -0.1437 -0.5788
 1356SOL    HW2 5196   0.690   3.643   1.830  0.5802  0.5075  1.1938
 1356SOL    HW3 5197   0.824   3.714   1.835  0.9394  0.1952 -1.9501
 1356SOL    MW4 5198   0.744   3.705   1.802  0.3372 -0.0131 -0.5258
 1357SOL     OW 5199   5.560   1.268   6.033 -0.4267 -0.2147  0.2519
 1357SOL    HW2 5200   5.594   1.190   5.989  3.8497  0.4209  1.9802
 1357SOL    HW3 5201   5.523   1.235   6.115  0.0232 -0.5463  0.3207
 1357SOL    MW4 5202   5.560   1.253   6.038  0.1969 -0.1746  0.4890
 1358SOL     OW 5203   4.581   0.931   6.316  0.3372 -0.0977 -0.6069
 1358SOL    HW2 5204   4.597   0.894   6.403  0.5687  0.0074 -0.6040
 1358SOL    HW3 5205   4.574   0.855   6.258 -0.1509 -0.1822 -0.4425
 1358SOL    MW4 5206   4.582   0.916   6.320  0.3034 -0.0950 -0.5848
 1359SOL     OW 5207   3.042   5.599   1.423  0.1112  0.0558 -0.0792
 1359SOL    HW2 5208   2.956   5.592   1.466 -0.9336  1.3796 -1.7969
 1359SOL    HW3 5209   3.031   5.551   1.341  1.7604 -1.6139  0.6095
 1359SOL    MW4 5210   3.029   5.592   1.418  0.1909  0.0102 -0.2149
 1360SOL     OW 5211   2.726   2.659   4.851  0.0778  0.1046 -0.5274
 1360SOL    HW2 5212   2.707   2.668   4.945 -2.4407 -0.9367 -0.8498
 1360SOL    HW3 5213   2.774   2.739   4.828  1.7503 -0.1093  1.8194
 1360SOL    MW4 5214   2.730   2.670   4.861 -0.0338 -0.0610 -0.2603
 1361SOL     OW 5215   5.043   2.033   5.690 -0.2302 -0.1034  0.2823
 1361SOL    HW2 5216   4.993   2.077   5.621 -0.1070 -2.1295 -1.1926
 1361SOL    HW3 5217   4.982   1.968   5.726  1.0498 -2.3071 -1.2371
 1361SOL    MW4 5218   5.028   2.030   5.685 -0.0451 -0.6615 -0.1128
 1362SOL     OW 5219   2.263   4.912   5.194 -0.2112 -0.4934  0.3602
 1362SOL    HW2 5220   2.304   4.979   5.249 -0.9954  0.6249 -0.3733
 1362SOL    HW3 5221   2.272   4.945   5.105 -2.2793 -0.4033  0.1345
 1362SOL    MW4 5222   2.270   4.925   5.190 -0.5875 -0.3339  0.2337
 1363SOL     OW 5223   0.166   4.423   3.543 -0.1010  0.2459  0.3569
 1363SOL    HW2 5224   0.225   4.487   3.584  0.9046 -0.4837  0.0975
 1363SOL    HW3 5225   0.172   4.442   3.450 -0.8535  0.6349  0.3844
 1363SOL    MW4 5226   0.175   4.434   3.536 -0.0676  0.2010  0.3263
 1364SOL     OW 5227   0.266   3.137   1.648  0.1929 -0.1734 -0.2576
 1364SOL    HW2 5228   0.316   3.091   1.580 -0.0060 -1.0986  0.2100
 1364SOL    HW3 5229   0.247   3.222   1.609  1.5361 -0.0496 -0.7097
 1364SOL    MW4 5230   0.270   3.142   1.634  0.3439 -0.2791 -0.2556
 1365SOL     OW 5231   0.912   3.726   5.614  0.6288 -0.1077  0.0163
 1365SOL    HW2 5232   0.945   3.727   5.704 -0.8727 -0.4520  0.6146
 1365SOL    HW3 5233   0.824   3.689   5.622 -0.2120  1.4425 -1.3348
 1365SOL    MW4 5234   0.905   3.721   5.627  0.3198  0.0514 -0.0831
 1366SOL     OW 5235   1.194   3.478   3.190 -0.5233  0.4005  0.1004
 1366SOL    HW2 5236   1.265   3.450   3.248 -0.2670 -0.1274 -0.4642
 1366SOL    HW3 5237   1.223   3.562   3.154 -0.4088  0.4262  0.2535
 1366SOL    MW4 5238   1.207   3.486   3.193 -0.4744  0.3342  0.0461
 1367SOL     OW 5239   5.950   6.275   1.869 -0.2056 -0.0427  0.5593
 1367SOL    HW2 5240   5.892   6.270   1.944 -0.2678 -1.9999  0.4304
 1367SOL    HW3 5241   6.031   6.233   1.898  0.4318  0.8238  0.0912
 1367SOL    MW4 5242   5.953   6.269   1.882 -0.1297 -0.1866  0.4805
 1368SOL     OW 5243   5.457   1.036   3.820  0.7938  0.0003 -0.3434
 1368SOL    HW2 5244   5.453   0.944   3.796  2.9370  0.1167 -1.3379
 1368SOL    HW3 5245   5.486   1.081   3.741  0.4370  1.4590  0.3119
 1368SOL    MW4 5246   5.460   1.030   3.807  1.0295  0.2081 -0.3882
 1369SOL     OW 5247   3.532   6.206   1.220  0.5240 -0.3511 -0.0556
 1369SOL    HW2 5248   3.522   6.196   1.126  1.1238 -2.2014  0.0415
 1369SOL    HW3 5249   3.560   6.297   1.232 -1.0481  0.3769 -1.4957
 1369SOL    MW4 5250   3.534   6.217   1.209  0.3957 -0.4992 -0.2328
 1370SOL     OW 5251   6.098   5.119   4.808  0.0872 -0.3012  0.1659
 1370SOL    HW2 5252   6.071   5.207   4.836 -1.5501 -0.2912 -1.2810
 1370SOL    HW3 5253   6.129   5.131   4.718 -0.5771 -1.2661 -0.1999
 1370SOL    MW4 5254   6.098   5.132   4.800 -0.2165 -0.4272 -0.0733
 1371SOL     OW 5255   2.844   1.319   2.976  0.3292 -0.1406 -0.0370
 1371SOL    HW2 5256   2.872   1.383   2.911  1.2724 -1.3748 -0.8807
 1371SOL    HW3 5257   2.770   1.361   3.020  1.1052  1.6532 -0.3345
 1371SOL    MW4 5258   2.838   1.333   2.973  0.5560 -0.0668 -0.1876
 1372SOL     OW 5259   4.467   5.031   1.014  0.4551  0.0753 -0.0395
 1372SOL    HW2 5260   4.461   5.124   1.037  0.4851  0.3619 -1.1614
 1372SOL    HW3 5261   4.540   5.026   0.953 -0.0512 -0.5510 -0.6138
 1372SOL    MW4 5262   4.476   5.042   1.009  0.3922  0.0305 -0.2633
 1373SOL     OW 5263   5.530   2.914   0.720  0.6247 -0.4533 -0.4198
 1373SOL    HW2 5264   5.610   2.963   0.702  0.2383  1.4375  2.3556
 1373SOL    HW3 5265   5.492   2.957   0.797 -2.7390 -1.6825 -1.2160
 1373SOL    MW4 5266   5.535   2.926   0.728  0.1299 -0.3660 -0.1586
 1374SOL     OW 5267   5.907   0.661   0.358  0.2731 -0.2985 -0.5722
 1374SOL    HW2 5268   5.924   0.703   0.274  0.4046 -1.3547 -1.0970
 1374SOL    HW3 5269   5.813   0.640   0.355  0.6743 -2.1543 -1.3473
 1374SOL    MW4 5270   5.897   0.664   0.346  0.3434 -0.6827 -0.7437
 1375SOL     OW 5271   5.361   5.254   4.743 -0.0553 -0.0280 -0.3265
 1375SOL    HW2 5272   5.418   5.229   4.670  1.4052  3.1973 -0.4742
 1375SOL    HW3 5273   5.284   5.291   4.701  0.9337  2.1497 -0.3756
 1375SOL    MW4 5274   5.359   5.256   4.727  0.2679  0.6849 -0.3524
 1376SOL     OW 5275   4.527   5.025   3.659  0.4667 -0.2419 -0.0396
 1376SOL    HW2 5276   4.565   5.098   3.707 -0.4903  0.0886  0.2451
 1376SOL    HW3 5277   4.461   5.066   3.603  0.0450 -0.8639 -0.0017
 1376SOL    MW4 5278   4.523   5.040   3.658  0.2848 -0.2804  0.0030
 1377SOL     OW 5279   4.817   5.592   4.934  0.4040 -0.4736  0.5450
 1377SOL    HW2 5280   4.762   5.664   4.902  1.5832  0.5758  0.7672
 1377SOL    HW3 5281   4.767   5.513   4.914 -0.6800  0.3656 -0.2412
 1377SOL    MW4 5282   4.803   5.591   4.927  0.4165 -0.2244  0.4706
 1378SOL     OW 5283   3.486   2.634   1.778  0.1084  0.7483  0.4231
 1378SOL    HW2 5284   3.440   2.697   1.833 -0.4385 -0.4196  1.3471
 1378SOL    HW3 5285   3.507   2.682   1.698  1.1107  2.5690  1.7085
 1378SOL    MW4 5286   3.483   2.648   1.774  0.1685  0.8344  0.7146
 1379SOL     OW 5287   4.712   3.990   4.556 -0.4036  0.2168 -0.1734
 1379SOL    HW2 5288   4.690   3.898   4.568 -2.1644  0.4163 -1.5081
 1379SOL    HW3 5289   4.697   4.029   4.643  1.9020 -0.9599  0.8457
 1379SOL    MW4 5290   4.707   3.983   4.569 -0.3317  0.0879 -0.2151
 1380SOL     OW 5291   0.698   4.871   4.663 -0.2992  0.0919  0.4612
 1380SOL    HW2 5292   0.701   4.963   4.687  2.1461  0.7511 -1.9342
 1380SOL    HW3 5293   0.633   4.866   4.593 -0.4114 -0.0036  0.5714
 1380SOL    MW4 5294   0.690   4.882   4.657  0.0086  0.1663  0.1597
 1381SOL     OW 5295   6.253   1.801   5.776  0.0948 -0.0741  0.1649
 1381SOL    HW2 5296   6.308   1.782   5.700 -0.6485 -0.0944 -0.3883
 1381SOL    HW3 5297   6.220   1.890   5.759  0.2743  0.0944  0.6873
 1381SOL    MW4 5298   6.256   1.810   5.764  0.0204 -0.0546  0.1608
 1382SOL     OW 5299   5.344   1.888   3.513 -0.2763  0.4374  0.4275
 1382SOL    HW2 5300   5.287   1.945   3.564 -0.5783 -0.9701  1.7518
 1382SOL    HW3 5301   5.368   1.818   3.574  0.8899 -0.3052 -0.8323
 1382SOL    MW4 5302   5.339   1.886   3.528 -0.1623  0.1537  0.4360
 1383SOL     OW 5303   0.053   3.199   2.373 -0.0041 -0.1236  0.4222
 1383SOL    HW2 5304   0.078   3.107   2.383  1.4130  0.4170  2.6154
 1383SOL    HW3 5305   0.050   3.232   2.463  1.7272  2.4914 -0.3658
 1383SOL    MW4 5306   0.056   3.191   2.387  0.4113  0.2927  0.6076
 1384SOL     OW 5307   0.259   0.326   3.453 -0.1493  0.7689  0.9802
 1384SOL    HW2 5308   0.256   0.261   3.382 -1.0429  0.5844  1.1813
 1384SOL    HW3 5309   0.193   0.391   3.428  1.8526  2.5160 -0.0654
 1384SOL    MW4 5310   0.250   0.326   3.440 -0.0030  0.9751  0.8688
 1385SOL     OW 5311   3.554   0.469   3.932  0.3108  0.1565  0.0538
 1385SOL    HW2 5312   3.556   0.462   3.836  0.6493  2.1506 -0.1259
 1385SOL    HW3 5313   3.467   0.437   3.956  0.7525 -1.8140 -0.7351
 1385SOL    MW4 5314   3.543   0.464   3.923  0.4137  0.1596 -0.0740
 1386SOL     OW 5315   3.272   0.771   2.879  0.5681 -0.0308 -0.1799
 1386SOL    HW2 5316   3.361   0.780   2.913  0.8972  0.4994 -1.1588
 1386SOL    HW3 5317   3.257   0.850   2.828 -1.9118  1.8766  3.1052
 1386SOL    MW4 5318   3.282   0.782   2.877  0.2843  0.2908  0.1244
 1387SOL     OW 5319   0.969   0.743   1.057  0.3598  0.1918 -0.2236
 1387SOL    HW2 5320   0.973   0.826   1.008 -0.9063  0.3178 -0.1525
 1387SOL    HW3 5321   0.930   0.681   0.995 -0.9809  0.2799  0.4935
 1387SOL    MW4 5322   0.965   0.746   1.042  0.0159  0.2201 -0.1196
 1388SOL     OW 5323   5.437   2.321   2.819  0.8655  0.1334  0.4743
 1388SOL    HW2 5324   5.481   2.305   2.735  0.2417  0.0448  0.1594
 1388SOL    HW3 5325   5.486   2.267   2.882  0.0448 -1.5111 -0.2162
 1388SOL    MW4 5326   5.449   2.311   2.816  0.6749 -0.0953  0.3416
 1389SOL     OW 5327   3.947   4.519   1.918  0.2727 -0.2885 -0.1012
 1389SOL    HW2 5328   4.012   4.587   1.934 -0.3687  0.1253  0.7928
 1389SOL    HW3 5329   3.999   4.441   1.897  1.0166  0.3876 -0.8071
 1389SOL    MW4 5330   3.962   4.517   1.917  0.2863 -0.1447 -0.0764
 1390SOL     OW 5331   1.855   2.116   4.959  0.7383 -0.1953 -0.2166
 1390SOL    HW2 5332   1.816   2.061   4.891  0.7138  1.6852 -1.8137
 1390SOL    HW3 5333   1.781   2.142   5.014  0.1636  0.9877 -1.4998
 1390SOL    MW4 5334   1.840   2.112   4.957  0.6592  0.2089 -0.5967
 1391SOL     OW 5335   3.391   6.071   4.424  0.0415  0.3068 -0.0694
 1391SOL    HW2 5336   3.329   6.125   4.473 -0.4048 -1.3019  1.2533
 1391SOL    HW3 5337   3.336   6.014   4.371  0.3107 -1.1677  1.1525
 1391SOL    MW4 5338   3.376   6.071   4.424  0.0181 -0.1000  0.2663
 1392SOL     OW 5339   3.305   0.992   3.668  0.4084 -0.2562  0.1992
 1392SOL    HW2 5340   3.331   0.905   3.635 -0.3640 -0.3117 -0.2782
 1392SOL    HW3 5341   3.323   1.051   3.596 -1.1174 -0.3503 -0.2943
 1392SOL    MW4 5342   3.311   0.988   3.654  0.1052 -0.2759  0.0711
 1393SOL     OW 5343   5.687   0.113   1.978  0.3422  0.1041 -0.2545
 1393SOL    HW2 5344   5.634   0.090   1.902  0.8474 -0.2941 -0.4868
 1393SOL    HW3 5345   5.674   0.040   2.039 -2.2630  1.6405  1.2376
 1393SOL    MW4 5346   5.678   0.100   1.976  0.0651  0.2542 -0.0883
 1394SOL     OW 5347   0.741   4.892   2.197 -0.1089  0.0752 -0.6672
 1394SOL    HW2 5348   0.719   4.888   2.291 -0.8799 -2.5939 -0.8735
 1394SOL    HW3 5349   0.657   4.910   2.154 -0.1314 -0.6394 -0.9351
 1394SOL    MW4 5350   0.727   4.894   2.204 -0.2136 -0.3712 -0.7298
 1395SOL     OW 5351   4.117   3.001   1.735  0.1063 -0.5391 -0.0693
 1395SOL    HW2 5352   4.123   3.044   1.650 -3.1382 -0.5009 -0.4302
 1395SOL    HW3 5353   4.196   2.947   1.741  0.3002 -0.7975 -3.2515
 1395SOL    MW4 5354   4.128   3.000   1.725 -0.2962 -0.5681 -0.5368
 1396SOL     OW 5355   0.343   4.387   1.692  0.3399  0.5988  0.4935
 1396SOL    HW2 5356   0.301   4.374   1.777  0.2053  0.7072  0.4426
 1396SOL    HW3 5357   0.399   4.310   1.681 -0.4319  0.0720  0.2134
 1396SOL    MW4 5358   0.345   4.375   1.702  0.2203  0.5436  0.4499
 1397SOL     OW 5359   3.992   3.315   3.212 -0.0970 -0.0953  0.1443
 1397SOL    HW2 5360   3.975   3.296   3.304  0.1692 -0.6710  0.0768
 1397SOL    HW3 5361   4.011   3.230   3.173 -0.0394  0.1671 -0.4073
 1397SOL    MW4 5362   3.992   3.301   3.219 -0.0543 -0.1367  0.0626
 1398SOL     OW 5363   3.514   1.164   0.365 -0.0947  0.2117  0.6510
 1398SOL    HW2 5364   3.526   1.135   0.274  3.5896 -0.3379  1.1897
 1398SOL    HW3 5365   3.423   1.194   0.368 -0.9183 -1.4508 -2.7115
 1398SOL    MW4 5366   3.503   1.164   0.353  0.2827 -0.0802  0.2784
 1399SOL     OW 5367   5.699   0.971   3.534  0.0907 -0.0742  0.0855
 1399SOL    HW2 5368   5.763   0.985   3.465  0.5816 -0.8403  0.3728
 1399SOL    HW3 5369   5.742   1.001   3.614 -0.1746  0.0594  0.1807
 1399SOL    MW4 5370   5.713   0.977   3.535  0.1204 -0.1576  0.1359
 1400SOL     OW 5371   4.525   4.651   5.472 -0.1912  0.2092  0.3201
 1400SOL    HW2 5372   4.585   4.621   5.404 -0.5231  0.8125 -0.2539
 1400SOL    HW3 5373   4.438   4.645   5.432 -0.4008  0.4547  0.7323
 1400SOL    MW4 5374   4.521   4.646   5.458 -0.2626  0.3212  0.2987
 1401SOL     OW 5375   0.374   0.358   0.955 -0.8648 -0.3703 -0.1772
 1401SOL    HW2 5376   0.360   0.294   1.025 -3.1897  0.1590 -0.0780
 1401SOL    HW3 5377   0.288   0.398   0.942 -0.0936  0.7709 -2.1581
 1401SOL    MW4 5378   0.361   0.355   0.962 -1.0698 -0.1499 -0.4255
 1402SOL     OW 5379   6.396   2.027   0.718 -0.1501 -0.5624 -0.2275
 1402SOL    HW2 5380   6.393   2.017   0.813  1.4306 -1.2238 -0.2319
 1402SOL    HW3 5381   6.321   2.083   0.699 -0.1108  0.1456  1.4768
 1402SOL    MW4 5382   6.385   2.033   0.728  0.0636 -0.5562 -0.0032
 1403SOL     OW 5383   5.412   2.070   5.656  0.8851  0.0430  0.3638
 1403SOL    HW2 5384   5.445   1.983   5.634  1.2963  0.1802  0.4226
 1403SOL    HW3 5385   5.486   2.113   5.699  0.0493 -0.3278  2.2997
 1403SOL    MW4 5386   5.426   2.064   5.659  0.8291  0.0122  0.6270
 1404SOL     OW 5387   0.155   4.198   2.177 -0.8213  0.6891 -0.0233
 1404SOL    HW2 5388   0.235   4.193   2.228 -0.1450 -0.2579 -1.1222
 1404SOL    HW3 5389   0.181   4.239   2.094 -1.3752  0.0543 -0.5253
 1404SOL    MW4 5390   0.169   4.203   2.172 -0.8052  0.4804 -0.2345
 1405SOL     OW 5391   6.185   3.793   1.572 -0.2098  1.1421 -0.1976
 1405SOL    HW2 5392   6.089   3.802   1.565 -0.1657  1.1094 -0.9564
 1405SOL    HW3 5393   6.218   3.882   1.563 -0.2048  1.2771  0.9967
 1405SOL    MW4 5394   6.176   3.806   1.570 -0.2033  1.1556 -0.1401
 1406SOL     OW 5395   2.739   5.124   2.811  0.2498 -0.6528  0.2357
 1406SOL    HW2 5396   2.675   5.116   2.740 -0.5841  2.1422  0.5727
 1406SOL    HW3 5397   2.814   5.169   2.772  0.0660  0.2897  0.9246
 1406SOL    MW4 5398   2.741   5.129   2.797  0.1156 -0.1597  0.3711
 1407SOL     OW 5399   4.670   2.243   2.507  0.1601  0.6213  0.2770
 1407SOL    HW2 5400   4.593   2.267   2.456 -0.4962  1.2041  1.5008
 1407SOL    HW3 5401   4.663   2.148   2.516 -0.7182  0.7207  0.8080
 1407SOL    MW4 5402   4.659   2.233   2.501 -0.0424  0.7113  0.5085
 1408SOL     OW 5403   0.501   5.620   5.431  0.2221  0.0205  0.1713
 1408SOL    HW2 5404   0.453   5.554   5.482  0.4889 -0.1886  0.1553
 1408SOL    HW3 5405   0.541   5.570   5.360 -1.2831  0.5041 -1.0687
 1408SOL    MW4 5406   0.500   5.605   5.429  0.0587  0.0567  0.0056
 1409SOL     OW 5407   0.039   1.709   5.256  0.0887 -0.1362  0.3810
 1409SOL    HW2 5408   0.107   1.666   5.308 -0.4430  0.7818  1.8766
 1409SOL    HW3 5409  -0.016   1.753   5.320  0.1400  2.1199 -1.0441
 1409SOL    MW4 5410   0.041   1.709   5.271  0.0253  0.2826  0.3903
 1410SOL     OW 5411   4.803   5.912   1.721  0.3833 -0.2509  0.6773
 1410SOL    HW2 5412   4.880   5.866   1.687 -0.5547 -2.1058  0.9454
 1410SOL    HW3 5413   4.820   5.923   1.814  1.3412  1.5357  0.3379
 1410SOL    MW4 5414   4.815   5.908   1.729  0.3859 -0.2599  0.6679
 1411SOL     OW 5415   4.077   1.282   5.896  0.3578  0.4097 -0.7099
 1411SOL    HW2 5416   4.125   1.206   5.863 -0.9408  0.0208 -1.7556
 1411SOL    HW3 5417   4.093   1.351   5.832 -1.0173  0.0724 -1.4441
 1411SOL    MW4 5418   4.086   1.281   5.883  0.0050  0.3139 -0.9447
 1412SOL     OW 5419   0.289   2.270   2.755  0.3188  0.0550 -0.5647
 1412SOL    HW2 5420   0.208   2.271   2.704 -0.3403  1.2331  0.4581
 1412SOL    HW3 5421   0.308   2.363   2.771 -0.5052 -0.2538  2.8725
 1412SOL    MW4 5422   0.281   2.282   2.750  0.1232  0.1697  0.0237
 1413SOL     OW 5423   1.303   0.156   1.027 -0.2470  0.7412 -0.3455
 1413SOL    HW2 5424   1.343   0.114   1.103 -0.5417  1.1446  0.0399
 1413SOL    HW3 5425   1.355   0.236   1.015 -1.3122  1.6145  0.5698
 1413SOL    MW4 5426   1.315   0.161   1.036 -0.4264  0.9097 -0.1739
 1414SOL     OW 5427   5.640   5.919   4.744 -0.5745 -0.3716 -0.2985
 1414SOL    HW2 5428   5.575   5.872   4.692 -1.6854 -1.1518  1.6964
 1414SOL    HW3 5429   5.706   5.853   4.765  0.0592  0.0300 -0.9733
 1414SOL    MW4 5430   5.640   5.904   4.740 -0.6375 -0.4216 -0.1244
 1415SOL     OW 5431   4.242   4.708   0.963 -0.4663  0.5990  0.0352
 1415SOL    HW2 5432   4.317   4.652   0.982 -0.7714  0.2516  0.2091
 1415SOL    HW3 5433   4.166   4.661   0.997 -0.5468  1.9118  1.8423
 1415SOL    MW4 5434   4.242   4.695   0.970 -0.5172  0.7263  0.2966
 1416SOL     OW 5435   1.211   1.227   1.940  0.2693 -0.1080  0.0435
 1416SOL    HW2 5436   1.240   1.136   1.930 -1.2863 -0.7337  0.8201
 1416SOL    HW3 5437   1.150   1.224   2.014  0.4645  1.6492  0.3077
 1416SOL    MW4 5438   1.207   1.214   1.949  0.0898  0.0413  0.1808
 1417SOL     OW 5439   5.614   6.410   1.691  0.1817 -0.4917  0.6298
 1417SOL    HW2 5440   5.672   6.334   1.696  3.6654  1.9766  2.0223
 1417SOL    HW3 5441   5.613   6.433   1.598  1.4488 -0.6666  0.5532
 1417SOL    MW4 5442   5.621   6.403   1.679  0.8085 -0.1891  0.8034
 1418SOL     OW 5443   6.274   4.036   1.420  0.2346 -0.5574  0.1598
 1418SOL    HW2 5444   6.365   4.034   1.390  0.7807  2.6874  1.2157
 1418SOL    HW3 5445   6.233   4.107   1.371 -0.6863  0.4050  2.1946
 1418SOL    MW4 5446   6.281   4.045   1.410  0.1852 -0.0023  0.5676
 1419SOL     OW 5447   1.010   6.111   3.539  0.0990 -0.0112  0.6142
 1419SOL    HW2 5448   0.938   6.090   3.597  0.1031 -1.3428  0.1590
 1419SOL    HW3 5449   1.060   6.178   3.586 -0.4110 -0.3989  1.7259
 1419SOL    MW4 5450   1.007   6.117   3.553  0.0323 -0.2380  0.7008
 1420SOL     OW 5451   2.110   0.705   4.942  0.3346  0.5382  0.0326
 1420SOL    HW2 5452   2.182   0.731   4.999  0.1098 -0.4843  0.8104
 1420SOL    HW3 5453   2.072   0.628   4.984 -0.3781  0.2629 -1.0597
 1420SOL    MW4 5454   2.114   0.698   4.955  0.2109  0.3670 -0.0089
 1421SOL     OW 5455   3.377   3.270   5.867 -0.0329  0.3811  0.2855
 1421SOL    HW2 5456   3.299   3.249   5.816 -0.4621  1.5037  0.4386
 1421SOL    HW3 5457   3.408   3.352   5.830  2.0674 -0.8613 -0.8689
 1421SOL    MW4 5458   3.371   3.278   5.856  0.1876  0.3653  0.1534
 1422SOL     OW 5459   1.294   4.705   2.453 -0.0596 -0.1463 -0.2551
 1422SOL    HW2 5460   1.275   4.616   2.481 -1.2994  0.3395  0.5088
 1422SOL    HW3 5461   1.388   4.704   2.434  0.0246 -1.5055  0.0977
 1422SOL    MW4 5462   1.304   4.693   2.454 -0.2120 -0.2615 -0.1077
 1423SOL     OW 5463   4.196   4.945   0.360 -0.3975  0.0905  0.1053
 1423SOL    HW2 5464   4.126   4.893   0.321 -0.9446  1.3074 -0.5764
 1423SOL    HW3 5465   4.181   5.034   0.328  2.4161  0.1367 -1.4702
 1423SOL    MW4 5466   4.185   4.950   0.351 -0.0984  0.2571 -0.1925
 1424SOL     OW 5467   2.191   3.667   0.575  0.0043 -0.0366  0.3754
 1424SOL    HW2 5468   2.169   3.757   0.599  0.1216 -0.1610  0.9640
 1424SOL    HW3 5469   2.204   3.623   0.658 -2.5121 -1.2433  0.2061
 1424SOL    MW4 5470   2.190   3.673   0.589 -0.3122 -0.2122  0.4307
 1425SOL     OW 5471   6.163   1.286   3.259  0.8357  0.3500 -0.6601
 1425SOL    HW2 5472   6.256   1.280   3.237  0.9620 -0.8054  0.0907
 1425SOL    HW3 5473   6.134   1.195   3.264 -0.5907  0.7092 -1.8583
 1425SOL    MW4 5474   6.171   1.273   3.257  0.6642  0.2449 -0.7191
 1426SOL     OW 5475   4.818   2.232   2.159 -0.2689 -0.1741 -0.4218
 1426SOL    HW2 5476   4.800   2.144   2.128 -1.0731 -0.1363 -0.0844
 1426SOL    HW3 5477   4.855   2.221   2.247 -1.3343 -0.1516  0.0481
 1426SOL    MW4 5478   4.821   2.219   2.167 -0.5156 -0.1662 -0.3153
 1427SOL     OW 5479   4.007   4.172   4.720 -0.6724  0.2056  0.3404
 1427SOL    HW2 5480   3.979   4.142   4.634 -0.3590  0.2974  0.2055
 1427SOL    HW3 5481   4.058   4.099   4.756  0.5586  0.7659 -0.2150
 1427SOL    MW4 5482   4.010   4.159   4.713 -0.4686  0.2916  0.2494
 1428SOL     OW 5483   5.830   0.230   1.460  0.1498  0.4346 -0.3771
 1428SOL    HW2 5484   5.875   0.254   1.541  0.2164  0.7515 -0.5027
 1428SOL    HW3 5485   5.737   0.226   1.483  0.2530 -0.3522 -0.0862
 1428SOL    MW4 5486   5.824   0.233   1.474  0.1722  0.3726 -0.3553
 1429SOL     OW 5487   1.493   2.683   3.531  0.0293  0.2151  0.9377
 1429SOL    HW2 5488   1.490   2.770   3.492  1.9231  0.2948  0.8809
 1429SOL    HW3 5489   1.440   2.690   3.610  0.4841  1.5526  1.1533
 1429SOL    MW4 5490   1.486   2.695   3.536  0.3392  0.4021  0.9586
 1430SOL     OW 5491   3.572   5.245   6.077 -0.4645  0.0813  0.0616
 1430SOL    HW2 5492   3.607   5.257   6.166 -0.3757  0.0072  0.0367
 1430SOL    HW3 5493   3.518   5.323   6.062 -0.4684  0.1010  0.1758
 1430SOL    MW4 5494   3.569   5.257   6.087 -0.4533  0.0741  0.0734
 1431SOL     OW 5495   0.425   4.984   0.777  0.1211  0.9319 -0.2517
 1431SOL    HW2 5496   0.414   5.029   0.861  0.4539 -1.8484  1.3899
 1431SOL    HW3 5497   0.336   4.968   0.747 -0.0254  0.5722  0.3615
 1431SOL    MW4 5498   0.412   4.988   0.784  0.1457  0.5177  0.0458
 1432SOL     OW 5499   1.538   4.297   2.007  0.4566 -0.2206 -0.5481
 1432SOL    HW2 5500   1.499   4.352   2.075 -1.7918 -2.6854  0.3249
 1432SOL    HW3 5501   1.623   4.338   1.989  0.6925  1.1752  2.9454
 1432SOL    MW4 5502   1.544   4.310   2.013  0.1911 -0.3616  0.0280
 1433SOL     OW 5503   1.357   0.875   3.717 -0.1223  0.1997 -0.5068
 1433SOL    HW2 5504   1.308   0.958   3.711 -1.6670 -0.6465 -0.1373
 1433SOL    HW3 5505   1.403   0.869   3.633 -1.2675  0.6827 -1.2096
 1433SOL    MW4 5506   1.356   0.885   3.705 -0.4772  0.1518 -0.5508
 1434SOL     OW 5507   4.027   3.449   1.963  0.0506 -0.4520 -0.5978
 1434SOL    HW2 5508   4.118   3.425   1.980  0.0494  0.2152  0.4771
 1434SOL    HW3 5509   4.027   3.545   1.967 -0.6703 -0.4433 -0.7368
 1434SOL    MW4 5510   4.039   3.459   1.966 -0.0447 -0.3628 -0.4743
 1435SOL     OW 5511   4.247   5.313   6.414 -0.4354 -0.2071 -0.4942
 1435SOL    HW2 5512   4.331   5.356   6.433  1.2454 -3.4191  0.0060
 1435SOL    HW3 5513   4.264   5.260   6.336 -1.4837 -2.1051  0.5055
 1435SOL    MW4 5514   4.261   5.312   6.406 -0.3519 -0.8813 -0.2963
 1436SOL     OW 5515   0.962   2.513   2.858 -0.2545  0.5848  0.4918
 1436SOL    HW2 5516   0.930   2.570   2.788  0.8338  2.2258  1.2601
 1436SOL    HW3 5517   0.926   2.426   2.837  0.6604  0.8197 -2.5254
 1436SOL    MW4 5518   0.953   2.509   2.846  0.0098  0.8323  0.1951
 1437SOL     OW 5519   6.021   5.009   2.607  0.1507 -0.2187  0.3595
 1437SOL    HW2 5520   6.085   4.939   2.593  1.0545  0.4456  0.9691
 1437SOL    HW3 5521   6.073   5.090   2.601 -0.5108  0.3109  1.4612
 1437SOL    MW4 5522   6.036   5.010   2.605  0.1827 -0.0611  0.5853
 1438SOL     OW 5523   5.536   1.766   6.281 -0.0843 -0.6847 -0.5002
 1438SOL    HW2 5524   5.446   1.757   6.249  0.4305  0.9521 -2.7324
 1438SOL    HW3 5525   5.528   1.821   6.359 -0.9579  0.5888 -1.4360
 1438SOL    MW4 5526   5.523   1.772   6.287 -0.1316 -0.3007 -0.9182
 1439SOL     OW 5527   0.367   4.661   6.230 -0.2835  0.0255 -0.1561
 1439SOL    HW2 5528   0.380   4.736   6.288 -1.1218 -0.6305  0.9133
 1439SOL    HW3 5529   0.424   4.678   6.155 -1.6194  2.5013 -0.7016
 1439SOL    MW4 5530   0.376   4.673   6.228 -0.5703  0.2656 -0.0870
 1440SOL     OW 5531   3.493   5.224   3.231  0.6447 -0.7389 -0.7315
 1440SOL    HW2 5532   3.550   5.147   3.234 -0.1564 -1.3525 -0.9972
 1440SOL    HW3 5533   3.483   5.250   3.322  0.5105 -1.2661 -0.5905
 1440SOL    MW4 5534   3.499   5.217   3.243  0.5213 -0.8894 -0.7479
 1441SOL     OW 5535   4.918   1.530   2.353  1.1596  0.4182  0.5004
 1441SOL    HW2 5536   5.012   1.512   2.362  2.3267  3.1202 -3.2400
 1441SOL    HW3 5537   4.905   1.613   2.398 -0.0383 -0.9142  2.7624
 1441SOL    MW4 5538   4.929   1.538   2.360  1.1555  0.5989  0.3054
 1442SOL     OW 5539   3.597   3.536   3.048  0.2824  0.0659 -0.4822
 1442SOL    HW2 5540   3.575   3.445   3.029  0.9238 -0.7075  2.0806
 1442SOL    HW3 5541   3.693   3.539   3.041  0.1922  0.8761 -1.6882
 1442SOL    MW4 5542   3.607   3.524   3.044  0.3552  0.0707 -0.3032
 1443SOL     OW 5543   5.943   3.632   2.468 -0.2800  0.4479  0.1768
 1443SOL    HW2 5544   5.949   3.704   2.531 -0.2032 -0.7245  1.5652
 1443SOL    HW3 5545   6.011   3.570   2.494 -0.8934 -0.5336 -0.4505
 1443SOL    MW4 5546   5.953   3.633   2.480 -0.3508  0.1637  0.2772
 1444SOL     OW 5547   3.293   2.806   5.545  0.1964 -0.3184  0.0173
 1444SOL    HW2 5548   3.383   2.774   5.550  0.1053 -0.5898 -0.0740
 1444SOL    HW3 5549   3.278   2.821   5.451  0.3665  0.3611  0.0920
 1444SOL    MW4 5550   3.303   2.804   5.533  0.2068 -0.2645  0.0151
 1445SOL     OW 5551   4.612   1.213   6.269  0.5504  0.4314 -0.4009
 1445SOL    HW2 5552   4.599   1.133   6.319 -0.4267 -0.5358 -2.0969
 1445SOL    HW3 5553   4.638   1.278   6.334 -4.3117  0.2901  2.1396
 1445SOL    MW4 5554   4.614   1.211   6.284 -0.2200  0.2851 -0.2894
 1446SOL     OW 5555   1.186   5.028   6.003  0.4395  0.8027 -0.3388
 1446SOL    HW2 5556   1.238   5.000   5.927  0.1834  0.2290 -0.3083
 1446SOL    HW3 5557   1.246   5.019   6.077  0.1725 -0.2815 -0.2430
 1446SOL    MW4 5558   1.201   5.023   6.003  0.3705  0.5840 -0.3221
 1447SOL     OW 5559   3.476   5.620   2.731 -0.1051 -0.7180 -0.0766
 1447SOL    HW2 5560   3.433   5.672   2.799  0.6505 -0.9732  0.6124
 1447SOL    HW3 5561   3.437   5.533   2.739 -0.8935 -0.4468 -0.7932
 1447SOL    MW4 5562   3.465   5.616   2.741 -0.1095 -0.7159 -0.0802
 1448SOL     OW 5563   0.009   5.225   1.325 -0.1036 -0.1497  0.1752
 1448SOL    HW2 5564   0.059   5.151   1.291 -0.0345 -0.3941  0.8032
 1448SOL    HW3 5565   0.032   5.229   1.418 -0.8996  0.0127  0.3751
 1448SOL    MW4 5566   0.019   5.216   1.333 -0.1995 -0.1605  0.2844
 1449SOL     OW 5567   2.423   5.450   5.429  0.0999  0.3760 -0.1614
 1449SOL    HW2 5568   2.363   5.403   5.487 -0.3052 -0.5014 -1.2351
 1449SOL    HW3 5569   2.415   5.541   5.455 -1.2216  0.1986  0.1621
 1449SOL    MW4 5570   2.414   5.456   5.440 -0.1279  0.2368 -0.2604
 1450SOL     OW 5571   3.155   4.748   2.285 -0.2547 -0.2956  0.1211
 1450SOL    HW2 5572   3.215   4.755   2.210  0.7856 -0.1617  0.9510
 1450SOL    HW3 5573   3.187   4.672   2.334 -0.2469  0.2942  1.0393
 1450SOL    MW4 5574   3.167   4.739   2.281 -0.1164 -0.2001  0.3517
 1451SOL     OW 5575   2.739   3.377   0.135  0.0070  0.9415  0.3435
 1451SOL    HW2 5576   2.795   3.361   0.060 -0.5963 -0.0181  0.0759
 1451SOL    HW3 5577   2.657   3.331   0.114 -0.0178  0.2810  1.7662
 1451SOL    MW4 5578   2.735   3.369   0.123 -0.0759  0.7278  0.4959
 1452SOL     OW 5579   1.647   6.156   1.735  0.4498 -0.8444 -0.3018
 1452SOL    HW2 5580   1.722   6.142   1.677  0.9552 -2.5054  0.6977
 1452SOL    HW3 5581   1.681   6.138   1.823 -0.6045  0.4517  0.4136
 1452SOL    MW4 5582   1.661   6.152   1.739  0.3774 -0.8925 -0.0755
 1453SOL     OW 5583   4.548   2.788   1.865 -0.3214  0.3517  0.3132
 1453SOL    HW2 5584   4.496   2.723   1.913  0.5302 -0.0731  0.6757
 1453SOL    HW3 5585   4.622   2.808   1.923  1.4533 -1.1501 -1.2930
 1453SOL    MW4 5586   4.551   2.782   1.879  0.0251  0.0975  0.1491
 1454SOL     OW 5587   3.505   3.309   5.318  0.0943 -0.2565 -0.6224
 1454SOL    HW2 5588   3.486   3.228   5.366  0.4120  0.0768  0.0941
 1454SOL    HW3 5589   3.581   3.288   5.264  0.1776 -0.4472 -0.4344
 1454SOL    MW4 5590   3.513   3.296   5.317  0.1472 -0.2377 -0.5031
 1455SOL     OW 5591   3.085   3.490   5.392  0.1094  0.0136 -0.5565
 1455SOL    HW2 5592   3.152   3.479   5.325  0.9897  1.0998  0.1110
 1455SOL    HW3 5593   3.025   3.555   5.355  1.3040  1.6058  0.1742
 1455SOL    MW4 5594   3.086   3.497   5.379  0.3832  0.3670 -0.3721
 1456SOL     OW 5595   1.032   4.789   2.347  0.6614 -0.3285  0.0294
 1456SOL    HW2 5596   1.032   4.858   2.281  2.0495  1.8030  2.0973
 1456SOL    HW3 5597   1.125   4.766   2.358  0.2477 -2.6119 -0.5970
 1456SOL    MW4 5598   1.044   4.795   2.340  0.7900 -0.3486  0.2196
 1457SOL     OW 5599   5.506   5.157   1.374 -0.0545 -0.2031  0.4154
 1457SOL    HW2 5600   5.442   5.133   1.441 -1.1522 -0.6904 -0.7699
 1457SOL    HW3 5601   5.511   5.080   1.317  0.2436  0.4952 -0.5200
 1457SOL    MW4 5602   5.498   5.144   1.375 -0.1600 -0.1752  0.1356
 1458SOL     OW 5603   2.806   2.086   5.865 -0.0089  0.1619  0.4200
 1458SOL    HW2 5604   2.848   2.054   5.785 -0.4166  0.9355 -0.1183
 1458SOL    HW3 5605   2.874   2.082   5.931  0.3504 -0.4433  0.0272
 1458SOL    MW4 5606   2.820   2.081   5.863 -0.0153  0.1841  0.2971
 1459SOL     OW 5607   4.198   2.315   4.355  0.0812  0.1227 -0.3750
 1459SOL    HW2 5608   4.116   2.358   4.329 -0.2354 -0.9645 -1.2482
 1459SOL    HW3 5609   4.172   2.247   4.416  0.3950  0.1346 -0.2268
 1459SOL    MW4 5610   4.184   2.312   4.359  0.0808 -0.0192 -0.4706
 1460SOL     OW 5611   2.532   1.680   1.149  0.1497  0.1858 -0.3008
 1460SOL    HW2 5612   2.493   1.593   1.135 -1.0068  0.7870 -0.9526
 1460SOL    HW3 5613   2.625   1.662   1.160  0.0855 -1.0596 -1.4334
 1460SOL    MW4 5614   2.539   1.666   1.148 -0.0113  0.1009 -0.5362
 1461SOL     OW 5615   5.425   2.698   3.100  0.9391 -0.2328 -0.2496
 1461SOL    HW2 5616   5.501   2.749   3.129  0.4579  1.5891 -1.9547
 1461SOL    HW3 5617   5.459   2.643   3.030  1.0033 -0.5373  0.0236
 1461SOL    MW4 5618   5.440   2.698   3.095  0.8841 -0.0326 -0.4386
 1462SOL     OW 5619   2.874   5.126   5.983 -0.4454  0.7413 -0.2677
 1462SOL    HW2 5620   2.931   5.128   6.059  1.2478  3.0699 -1.4860
 1462SOL    HW3 5621   2.823   5.207   5.988 -1.1228  0.3863 -1.0368
 1462SOL    MW4 5622   2.874   5.137   5.994 -0.3114  1.0017 -0.5299
 1463SOL     OW 5623   0.242   0.992   3.175  0.0098  0.4050  0.8121
 1463SOL    HW2 5624   0.253   0.898   3.165  1.8668  0.5415  1.2829
 1463SOL    HW3 5625   0.153   1.009   3.142  0.1873 -1.2769 -0.6891
 1463SOL    MW4 5626   0.231   0.982   3.169  0.2782  0.2011  0.6761
 1464SOL     OW 5627   4.312   4.887   1.653 -0.3125  0.2086 -0.0009
 1464SOL    HW2 5628   4.367   4.854   1.724 -0.6872 -0.1962  0.1056
 1464SOL    HW3 5629   4.243   4.937   1.697  0.5501  1.6436 -0.1803
 1464SOL    MW4 5630   4.311   4.889   1.668 -0.2481  0.3446 -0.0105
 1465SOL     OW 5631   2.819   2.602   5.452  0.1359  0.0925  0.4437
 1465SOL    HW2 5632   2.877   2.658   5.400 -1.9694  0.9129 -1.1446
 1465SOL    HW3 5633   2.809   2.523   5.399 -3.0539  1.4434 -1.2540
 1465SOL    MW4 5634   2.825   2.599   5.438 -0.5628  0.3789  0.0102
 1466SOL     OW 5635   1.385   0.449   4.011  0.3200  0.1366  0.3507
 1466SOL    HW2 5636   1.298   0.426   3.979  0.4740 -0.5635  0.4108
 1466SOL    HW3 5637   1.378   0.540   4.040 -0.8945 -0.4819  2.1419
 1466SOL    MW4 5638   1.373   0.458   4.010  0.1800 -0.0374  0.5950
 1467SOL     OW 5639   4.052   0.748   4.226 -0.3613 -0.0026  0.5418
 1467SOL    HW2 5640   4.057   0.776   4.317 -0.5382  1.6823  0.0552
 1467SOL    HW3 5641   4.005   0.818   4.181 -0.2469 -0.7841 -0.8714
 1467SOL    MW4 5642   4.046   0.761   4.232 -0.3695  0.1166  0.2911
 1468SOL     OW 5643   0.593   4.121   3.159  0.5491  0.1665 -0.1864
 1468SOL    HW2 5644   0.535   4.055   3.122 -1.1702  0.9914  0.8923
 1468SOL    HW3 5645   0.675   4.075   3.175  0.4523 -0.8846 -2.3450
 1468SOL    MW4 5646   0.596   4.107   3.156  0.3094  0.1367 -0.3288
 1469SOL     OW 5647   3.789   0.524   0.138 -0.4308  0.4020  0.1300
 1469SOL    HW2 5648   3.713   0.490   0.092  0.2314  0.5809 -1.1364
 1469SOL    HW3 5649   3.793   0.616   0.113 -0.4977  0.7104  1.1782
 1469SOL    MW4 5650   3.780   0.532   0.129 -0.3523  0.4663  0.1012
 1470SOL     OW 5651   1.832   0.361   1.496 -0.3489 -0.0976 -0.3372
 1470SOL    HW2 5652   1.741   0.388   1.488 -0.0912  1.3680  1.2828
 1470SOL    HW3 5653   1.849   0.311   1.416 -1.7444  1.9905 -2.0407
 1470SOL    MW4 5654   1.822   0.358   1.484 -0.4990  0.3713 -0.3482
 1471SOL     OW 5655   0.507   2.683   5.461 -0.2555  0.0331  0.6327
 1471SOL    HW2 5656   0.560   2.720   5.531  0.8228 -0.8759  0.3245
 1471SOL    HW3 5657   0.458   2.612   5.503  0.3738 -0.4973  0.4743
 1471SOL    MW4 5658   0.507   2.678   5.476 -0.0302 -0.1568  0.5711
 1472SOL     OW 5659   3.645   6.414   2.644 -0.6495 -0.0309 -0.6231
 1472SOL    HW2 5660   3.699   6.438   2.719  0.0435 -0.0895 -1.0896
 1472SOL    HW3 5661   3.659   6.485   2.581 -0.3611 -0.5258 -1.1223
 1472SOL    MW4 5662   3.654   6.427   2.645 -0.5200 -0.1039 -0.7505
 1473SOL     OW 5663   5.084   4.640   6.047  0.2504  0.2229  0.2862
 1473SOL    HW2 5664   5.103   4.605   5.960 -0.0434 -0.6840  0.5834
 1473SOL    HW3 5665   5.073   4.734   6.032  0.3360  0.0999 -0.6338
 1473SOL    MW4 5666   5.085   4.648   6.033  0.2229  0.0870  0.2040
 1474SOL     OW 5667   4.188   5.492   4.162 -0.2009  0.0949  0.3022
 1474SOL    HW2 5668   4.216   5.581   4.183 -0.5444  0.2712  0.0174
 1474SOL    HW3 5669   4.093   5.493   4.169 -0.2614 -0.0683 -0.3779
 1474SOL    MW4 5670   4.179   5.504   4.165 -0.2542  0.0966  0.1749
 1475SOL     OW 5671   1.619   4.456   5.978 -0.3877  0.6698  0.1843
 1475SOL    HW2 5672   1.620   4.451   5.882  2.7394 -1.2542  0.1790
 1475SOL    HW3 5673   1.568   4.380   6.005  0.2231  0.1839  0.0068
 1475SOL    MW4 5674   1.612   4.445   5.969  0.1055  0.3519  0.1602
 1476SOL     OW 5675   0.823   0.867   4.237 -0.0079 -0.3187  0.1101
 1476SOL    HW2 5676   0.802   0.959   4.221 -0.8649 -0.4538  0.4094
 1476SOL    HW3 5677   0.755   0.818   4.190 -0.1625 -0.7753  0.7955
 1476SOL    MW4 5678   0.811   0.873   4.229 -0.1414 -0.3967  0.2400
 1477SOL     OW 5679   0.636   5.046   1.230 -0.4740 -0.3331 -0.2774
 1477SOL    HW2 5680   0.670   5.124   1.185  0.4036 -1.5340 -1.7867
 1477SOL    HW3 5681   0.687   5.042   1.312 -3.3237  2.8914  1.9503
 1477SOL    MW4 5682   0.647   5.056   1.235 -0.7342 -0.0661 -0.1826
 1478SOL     OW 5683   5.292   0.289   6.210  0.4703  0.2377 -0.6258
 1478SOL    HW2 5684   5.198   0.277   6.195  0.2526  0.9433  0.1397
 1478SOL    HW3 5685   5.306   0.258   6.299  0.7817  1.0448 -0.3845
 1478SOL    MW4 5686   5.281   0.283   6.219  0.4826  0.4373 -0.4930
 1479SOL     OW 5687   0.475   3.936   2.991 -0.2396  0.0029  0.7209
 1479SOL    HW2 5688   0.393   3.896   2.963  0.2046  0.0991 -0.8159
 1479SOL    HW3 5689   0.521   3.956   2.909  0.6033  1.4405  1.5011
 1479SOL    MW4 5690   0.470   3.934   2.976 -0.0698  0.2053  0.6211
 1480SOL     OW 5691   0.916   1.623   1.578 -0.2623 -0.8528  0.4727
 1480SOL    HW2 5692   0.920   1.527   1.572  1.6114 -0.8031  0.4456
 1480SOL    HW3 5693   1.006   1.651   1.566 -0.5719  0.8641  1.9124
 1480SOL    MW4 5694   0.928   1.614   1.575 -0.0559 -0.6197  0.6591
 1481SOL     OW 5695   6.427   6.335   5.368  0.1784  0.5616 -0.3935
 1481SOL    HW2 5696   6.352   6.320   5.425  0.8287 -0.2211  0.2846
 1481SOL    HW3 5697   6.434   6.430   5.360 -0.3260  0.6586  0.2834
 1481SOL    MW4 5698   6.418   6.345   5.374  0.1977  0.4712 -0.2147
 1482SOL     OW 5699   5.247   2.804   1.937 -1.1242 -0.3193 -0.4693
 1482SOL    HW2 5700   5.332   2.841   1.961 -0.0647 -2.3019 -0.8888
 1482SOL    HW3 5701   5.255   2.787   1.843 -2.1780 -0.0819 -0.6087
 1482SOL    MW4 5702   5.259   2.806   1.928 -1.1235 -0.5496 -0.5430
 1483SOL     OW 5703   6.097   6.343   4.350  0.1206 -0.0192  0.1490
 1483SOL    HW2 5704   6.128   6.372   4.265  1.2233 -1.9922 -0.1810
 1483SOL    HW3 5705   6.042   6.267   4.332 -0.4282  0.1204  1.1340
 1483SOL    MW4 5706   6.094   6.337   4.337  0.1937 -0.2611  0.2354
 1484SOL     OW 5707   1.902   0.266   3.492  0.3094 -0.2732  0.4177
 1484SOL    HW2 5708   1.860   0.281   3.577  0.9714  1.2945  0.4935
 1484SOL    HW3 5709   1.887   0.173   3.474  1.3539 -0.9933  2.9072
 1484SOL    MW4 5710   1.894   0.256   3.501  0.5346 -0.1614  0.7561
 1485SOL     OW 5711   3.362   6.058   0.985 -0.2977 -0.2119  0.2462
 1485SOL    HW2 5712   3.301   6.115   0.938  0.8404  0.6027 -0.3031
 1485SOL    HW3 5713   3.449   6.092   0.961  0.3867 -1.6921  0.5553
 1485SOL    MW4 5714   3.366   6.070   0.976 -0.0572 -0.2997  0.2145
 1486SOL     OW 5715   6.192   5.472   2.346 -0.0533  0.2631  0.0635
 1486SOL    HW2 5716   6.120   5.467   2.283  0.0769 -2.0943  0.0103
 1486SOL    HW3 5717   6.225   5.561   2.337 -2.0102  0.9435 -0.9742
 1486SOL    MW4 5718   6.187   5.483   2.336 -0.2943  0.0419 -0.0804
 1487SOL     OW 5719   1.056   4.906   2.589 -0.0534  0.0815  0.4169
 1487SOL    HW2 5720   1.033   4.866   2.505  0.6656 -0.5818  0.5152
 1487SOL    HW3 5721   0.976   4.948   2.619 -0.1946  0.7393 -0.8238
 1487SOL    MW4 5722   1.042   4.906   2.582  0.0228  0.0808  0.2661
 1488SOL     OW 5723   2.889   6.437   3.246 -0.1209 -0.2540  0.4346
 1488SOL    HW2 5724   2.803   6.404   3.270 -0.5440  0.3624 -0.1691
 1488SOL    HW3 5725   2.910   6.502   3.313 -1.9579  2.5626 -1.4759
 1488SOL    MW4 5726   2.881   6.441   3.258 -0.4191  0.1989  0.1029
 1489SOL     OW 5727   1.686   1.879   0.700  0.6702  0.0520 -0.4350
 1489SOL    HW2 5728   1.691   1.795   0.653  1.1653 -0.5086  0.5921
 1489SOL    HW3 5729   1.776   1.899   0.722  0.3416 -0.4707  1.5869
 1489SOL    MW4 5730   1.698   1.870   0.697  0.6922 -0.0910 -0.0327
 1490SOL     OW 5731   5.053   4.614   0.584 -0.0095  0.1175 -0.1212
 1490SOL    HW2 5732   5.102   4.613   0.667 -0.3501  0.5697  0.0860
 1490SOL    HW3 5733   4.999   4.536   0.587  2.0080 -1.4095 -1.1487
 1490SOL    MW4 5734   5.053   4.604   0.596  0.2117 -0.0243 -0.2294
 1491SOL     OW 5735   5.659   2.363   4.674 -0.3436 -0.4524  0.4073
 1491SOL    HW2 5736   5.629   2.278   4.706  0.7838 -1.3024 -0.6910
 1491SOL    HW3 5737   5.745   2.375   4.715  0.3026 -0.7044 -0.8232
 1491SOL    MW4 5738   5.666   2.354   4.684 -0.1096 -0.5978  0.1001
 1492SOL     OW 5739   3.383   5.017   2.676 -0.6077 -0.4669  0.1694
 1492SOL    HW2 5740   3.339   5.035   2.759 -0.9815 -0.9542  0.0801
 1492SOL    HW3 5741   3.357   4.928   2.654  0.4402 -0.7715  0.1251
 1492SOL    MW4 5742   3.374   5.008   2.684 -0.5187 -0.5714  0.1518
 1493SOL     OW 5743   5.926   3.074   5.328  0.4028 -0.0223  0.7685
 1493SOL    HW2 5744   6.006   3.034   5.365  0.2630  0.0006  1.0997
 1493SOL    HW3 5745   5.857   3.012   5.351  0.2632  0.1595  0.8316
 1493SOL    MW4 5746   5.928   3.060   5.336  0.3659  0.0047  0.8205
 1494SOL     OW 5747   5.509   1.299   5.757 -0.6311  0.1784 -0.5244
 1494SOL    HW2 5748   5.497   1.288   5.851 -0.0630 -0.5998 -0.5317
 1494SOL    HW3 5749   5.426   1.271   5.718  0.1055 -2.3263 -0.4135
 1494SOL    MW4 5750   5.496   1.294   5.764 -0.4590 -0.2547 -0.5107
 1495SOL     OW 5751   5.535   3.084   3.542  0.1714  0.0408  0.3035
 1495SOL    HW2 5752   5.570   3.018   3.481 -1.4362 -0.5211 -0.0446
 1495SOL    HW3 5753   5.491   3.147   3.485  0.3208  0.5609  0.7612
 1495SOL    MW4 5754   5.534   3.083   3.526 -0.0210  0.0353  0.3180
 1496SOL     OW 5755   3.511   4.769   3.893 -0.1781 -0.0049 -0.2151
 1496SOL    HW2 5756   3.563   4.785   3.972  0.7988 -1.2419 -0.5808
 1496SOL    HW3 5757   3.421   4.786   3.921  0.2296  0.4932  0.9028
 1496SOL    MW4 5758   3.506   4.774   3.907  0.0045 -0.1024 -0.1159
 1497SOL     OW 5759   3.096   3.199   4.554 -0.3009 -0.8212  0.0248
 1497SOL    HW2 5760   3.021   3.257   4.566  0.5613  0.3120  0.1770
 1497SOL    HW3 5761   3.120   3.210   4.462 -0.2819 -1.1308 -0.0077
 1497SOL    MW4 5762   3.090   3.208   4.544 -0.1846 -0.7126  0.0406
 1498SOL     OW 5763   4.256   2.218   2.487 -0.3992  0.0488 -0.2511
 1498SOL    HW2 5764   4.165   2.228   2.456 -0.7825 -1.5414  0.2514
 1498SOL    HW3 5765   4.260   2.272   2.565 -1.3320 -0.8481  0.4548
 1498SOL    MW4 5766   4.244   2.227   2.493 -0.5729 -0.2793 -0.0917
 1499SOL     OW 5767   2.269   1.676   2.599  1.1980 -0.2563 -0.4707
 1499SOL    HW2 5768   2.176   1.701   2.596  1.8619  2.7033  0.3986
 1499SOL    HW3 5769   2.278   1.607   2.533 -1.6406 -0.8233 -0.3884
 1499SOL    MW4 5770   2.258   1.670   2.590  0.9111  0.0594 -0.3451
 1500SOL     OW 5771   2.838   3.021   6.246 -0.2206 -0.4025  0.0363
 1500SOL    HW2 5772   2.830   2.962   6.321 -0.6448 -1.5027 -0.8474
 1500SOL    HW3 5773   2.764   2.999   6.190 -0.2023  0.7628 -0.4878
 1500SOL    MW4 5774   2.827   3.011   6.249 -0.2741 -0.3939 -0.1495
 1501SOL     OW 5775   3.414   1.032   3.914  0.4406 -0.3158 -0.2952
 1501SOL    HW2 5776   3.376   1.031   3.826 -1.9206  2.7898  0.5045
 1501SOL    HW3 5777   3.495   1.083   3.904  0.5176 -0.5255 -0.7719
 1501SOL    MW4 5778   3.420   1.039   3.901  0.1392  0.0663 -0.2526
 1502SOL     OW 5779   0.190   2.201   5.354 -0.0677  0.3796  0.0733
 1502SOL    HW2 5780   0.248   2.252   5.410  1.5352 -0.9733 -0.2567
 1502SOL    HW3 5781   0.249   2.152   5.296 -1.5264 -1.1200 -0.2442
 1502SOL    MW4 5782   0.205   2.201   5.353 -0.0487  0.0033 -0.0122
 1503SOL     OW 5783   1.912   5.333   1.526  0.5017 -0.3151 -0.1849
 1503SOL    HW2 5784   1.961   5.413   1.509 -1.5151  0.8163 -0.9574
 1503SOL    HW3 5785   1.845   5.359   1.589  0.8686 -1.8455  0.9093
 1503SOL    MW4 5786   1.910   5.347   1.532  0.2840 -0.3678 -0.1425
 1504SOL     OW 5787   5.625   3.918   2.433 -0.0615 -0.4562 -0.6413
 1504SOL    HW2 5788   5.711   3.959   2.450  0.7710 -2.1155 -0.6683
 1504SOL    HW3 5789   5.611   3.932   2.339  0.2286 -0.2668 -0.6613
 1504SOL    MW4 5790   5.635   3.926   2.423  0.0866 -0.6501 -0.6475
 1505SOL     OW 5791   5.271   0.862   5.751 -0.1915 -0.2214 -0.5852
 1505SOL    HW2 5792   5.284   0.940   5.805 -1.1201  0.0003 -0.6639
 1505SOL    HW3 5793   5.218   0.804   5.805 -0.5528 -0.2794 -0.9971
 1505SOL    MW4 5794   5.266   0.865   5.765 -0.3617 -0.1998 -0.6500
 1506SOL     OW 5795   2.458   1.934   0.085 -0.0742  0.5870 -0.0422
 1506SOL    HW2 5796   2.535   1.990   0.098  2.8618 -2.4588 -2.2596
 1506SOL    HW3 5797   2.463   1.870   0.156 -0.2035  0.0680 -0.4921
 1506SOL    MW4 5798   2.469   1.933   0.096  0.2961  0.1166 -0.3941
 1507SOL     OW 5799   2.831   4.362   0.274  0.3241  0.3530  0.0731
 1507SOL    HW2 5800   2.917   4.404   0.283  0.9264 -0.5751 -1.2311
 1507SOL    HW3 5801   2.796   4.361   0.364  1.8837  0.2715  0.7087
 1507SOL    MW4 5802   2.837   4.368   0.287  0.6094  0.2198 -0.0151
 1508SOL     OW 5803   6.180   1.019   4.474 -0.0704 -0.2321  0.2209
 1508SOL    HW2 5804   6.257   0.999   4.420 -1.5958  2.6875 -3.5277
 1508SOL    HW3 5805   6.209   1.090   4.531  0.6240 -0.8562  0.6635
 1508SOL    MW4 5806   6.194   1.026   4.474 -0.1800  0.0708 -0.2153
 1509SOL     OW 5807   0.496   0.882   4.895  0.2145 -0.1136 -0.1716
 1509SOL    HW2 5808   0.545   0.883   4.977  1.2294 -3.2404 -0.6066
 1509SOL    HW3 5809   0.492   0.974   4.868  3.4326  0.5916  1.2974
 1509SOL    MW4 5810   0.502   0.895   4.902  0.7730 -0.4331 -0.0352
 1510SOL     OW 5811   2.975   1.177   5.279 -0.5552 -0.1203 -0.0829
 1510SOL    HW2 5812   2.885   1.193   5.305 -0.4554 -1.8652  1.5209
 1510SOL    HW3 5813   3.023   1.255   5.307 -1.3640  0.3284  0.0617
 1510SOL    MW4 5814   2.970   1.189   5.286 -0.6488 -0.2914  0.1478
 1511SOL     OW 5815   1.270   5.730   1.308  0.1192 -0.0765 -0.3443
 1511SOL    HW2 5816   1.192   5.678   1.295  0.6931 -0.5639 -2.1054
 1511SOL    HW3 5817   1.342   5.676   1.275  1.0614  0.8143  0.1487
 1511SOL    MW4 5818   1.269   5.716   1.302  0.3192 -0.0232 -0.5116
 1512SOL     OW 5819   6.323   0.182   1.953  0.6016  0.1257 -0.1634
 1512SOL    HW2 5820   6.235   0.145   1.959  0.8452 -0.2476  1.8923
 1512SOL    HW3 5821   6.309   0.274   1.934 -0.2564  0.1042  0.3139
 1512SOL    MW4 5822   6.310   0.189   1.952  0.5205  0.0736  0.1708
 1513SOL     OW 5823   0.393   4.256   0.487 -0.3676  0.0431 -0.2683
 1513SOL    HW2 5824   0.303   4.239   0.518  0.6064 -1.7107  1.8989
 1513SOL    HW3 5825   0.445   4.260   0.567  1.5102  1.1585 -1.4739
 1513SOL    MW4 5826   0.388   4.254   0.502  0.0086 -0.0411 -0.1414
 1514SOL     OW 5827   5.413   4.783   5.970 -0.1546  0.6294 -0.1566
 1514SOL    HW2 5828   5.442   4.694   5.989 -1.1761  0.0599 -1.1409
 1514SOL    HW3 5829   5.493   4.832   5.953  0.3133 -0.8108 -2.5320
 1514SOL    MW4 5830   5.427   4.778   5.970 -0.2276  0.3642 -0.5999
 1515SOL     OW 5831   1.364   1.238   4.504 -0.4137  0.0690 -0.7362
 1515SOL    HW2 5832   1.317   1.214   4.424  0.5097  0.2715 -1.3611
 1515SOL    HW3 5833   1.418   1.313   4.478 -0.3709  0.3637  0.1748
 1515SOL    MW4 5834   1.365   1.244   4.490 -0.2862  0.1346 -0.6985
 1516SOL     OW 5835   4.032   1.488   2.134  0.4525  0.2821  0.6253
 1516SOL    HW2 5836   3.984   1.544   2.194 -0.9357  0.5038 -0.6243
 1516SOL    HW3 5837   4.087   1.548   2.084  2.3792 -0.0057  2.2800
 1516SOL    MW4 5838   4.033   1.503   2.135  0.5236  0.2734  0.6788
 1517SOL     OW 5839   5.848   5.458   5.689 -0.4031  0.1524  0.2900
 1517SOL    HW2 5840   5.841   5.535   5.633  0.2485 -0.3491 -0.5061
 1517SOL    HW3 5841   5.913   5.402   5.646 -0.2571 -0.4795  1.2791
 1517SOL    MW4 5842   5.856   5.461   5.676 -0.2979  0.0028  0.3155
 1518SOL     OW 5843   0.089   6.160   0.513  1.0622  0.2332 -0.5068
 1518SOL    HW2 5844   0.153   6.138   0.445  0.1326 -1.1537 -0.9678
 1518SOL    HW3 5845   0.007   6.173   0.465  0.7350  0.8653  0.1976
 1518SOL    MW4 5846   0.086   6.159   0.498  0.8964  0.1336 -0.4747
 1519SOL     OW 5847   4.955   4.703   2.035 -0.2553  0.5457 -0.0798
 1519SOL    HW2 5848   4.904   4.635   2.078  1.4175 -0.2575  0.6951
 1519SOL    HW3 5849   4.939   4.689   1.942  0.2114 -1.0404  0.0540
 1519SOL    MW4 5850   4.946   4.693   2.028  0.0269  0.2305  0.0401
 1520SOL     OW 5851   4.451   3.766   1.344  0.4133 -0.4153  0.0681
 1520SOL    HW2 5852   4.403   3.842   1.312  1.4203 -0.4863 -1.7914
 1520SOL    HW3 5853   4.385   3.711   1.386 -0.8448  0.1739 -1.0686
 1520SOL    MW4 5854   4.436   3.769   1.345  0.3802 -0.3469 -0.3272
 1521SOL     OW 5855   4.305   0.247   5.144  0.3529  0.0917 -0.1949
 1521SOL    HW2 5856   4.261   0.226   5.227 -2.0975  0.9327 -1.1889
 1521SOL    HW3 5857   4.392   0.208   5.152 -0.0316 -0.3824  2.5100
 1521SOL    MW4 5858   4.310   0.239   5.156 -0.0212  0.1401  0.0308
 1522SOL     OW 5859   0.441   1.709   0.520 -0.2023 -1.2138 -0.3620
 1522SOL    HW2 5860   0.505   1.646   0.553 -0.2799 -1.3376 -0.4489
 1522SOL    HW3 5861   0.495   1.779   0.482 -0.1065 -1.7536 -1.2697
 1522SOL    MW4 5862   0.457   1.710   0.519 -0.1999 -1.3014 -0.4932
 1523SOL     OW 5863   2.860   0.223   4.059 -0.4607  0.0700  0.0194
 1523SOL    HW2 5864   2.781   0.170   4.062  0.0267 -0.6278  1.1175
 1523SOL    HW3 5865   2.931   0.161   4.044  0.1221  0.3857  1.3133
 1523SOL    MW4 5866   2.859   0.208   4.057 -0.3195  0.0196  0.3350
 1524SOL     OW 5867   4.890   2.332   1.111 -0.4990  0.7103 -0.0788
 1524SOL    HW2 5868   4.873   2.391   1.184  1.2972 -0.4504  1.3758
 1524SOL    HW3 5869   4.974   2.360   1.076 -0.7086  0.4131 -0.8492
 1524SOL    MW4 5870   4.899   2.344   1.116 -0.2897  0.5179  0.0115
 1525SOL     OW 5871   2.419   4.615   4.693 -0.5535 -0.0945 -0.4123
 1525SOL    HW2 5872   2.350   4.645   4.752  0.0538 -0.7422  0.6829
 1525SOL    HW3 5873   2.409   4.520   4.692  1.3282 -0.3896  1.1719
 1525SOL    MW4 5874   2.409   4.606   4.701 -0.2251 -0.2189 -0.0588
 1526SOL     OW 5875   4.040   4.319   4.372  0.3000  0.6782  0.2695
 1526SOL    HW2 5876   3.948   4.296   4.360  0.2344 -0.3577  2.4021
 1526SOL    HW3 5877   4.055   4.390   4.309 -1.8634  0.6722 -0.3288
 1526SOL    MW4 5878   4.030   4.326   4.362  0.0059  0.5408  0.4719
 1527SOL     OW 5879   1.849   2.912   5.102  0.2899  0.6770 -0.0202
 1527SOL    HW2 5880   1.864   3.003   5.076 -0.6352  1.1017  0.8630
 1527SOL    HW3 5881   1.816   2.918   5.192 -1.6052 -0.3930 -0.6029
 1527SOL    MW4 5882   1.847   2.925   5.110 -0.0822  0.5919  0.0194
 1528SOL     OW 5883   5.641   1.601   1.201 -0.0042  0.3189  0.1117
 1528SOL    HW2 5884   5.735   1.611   1.215  0.3188 -0.4885 -1.2464
 1528SOL    HW3 5885   5.614   1.534   1.263 -0.2105  2.2329  2.2198
 1528SOL    MW4 5886   5.650   1.594   1.211  0.0112  0.4649  0.2106
 1529SOL     OW 5887   4.143   0.446   3.981  0.0742  0.4395 -0.3939
 1529SOL    HW2 5888   4.114   0.381   3.917  1.4809 -0.2683 -0.3495
 1529SOL    HW3 5889   4.213   0.402   4.030 -0.7331  1.0695  1.4175
 1529SOL    MW4 5890   4.148   0.432   3.979  0.1533  0.4292 -0.1490
 1530SOL     OW 5891   4.527   3.234   5.398  0.4420 -0.0892 -0.2023
 1530SOL    HW2 5892   4.504   3.211   5.307 -0.0829  0.3487 -0.1857
 1530SOL    HW3 5893   4.443   3.237   5.443  0.4615  1.9267 -0.2221
 1530SOL    MW4 5894   4.513   3.231   5.392  0.3753  0.2346 -0.2027
 1531SOL     OW 5895   1.022   4.626   6.206 -0.5591 -0.0319  0.0245
 1531SOL    HW2 5896   1.084   4.655   6.273 -0.5510 -0.5872  0.2540
 1531SOL    HW3 5897   1.008   4.534   6.224  0.3201 -0.4834 -1.4028
 1531SOL    MW4 5898   1.029   4.618   6.217 -0.4420 -0.1647 -0.1335
 1532SOL     OW 5899   5.978   3.990   1.053 -0.2683 -0.1412  0.4450
 1532SOL    HW2 5900   5.967   4.053   1.124 -0.4995 -0.7433  0.9458
 1532SOL    HW3 5901   6.056   3.939   1.078 -1.4695 -1.6490  1.2686
 1532SOL    MW4 5902   5.987   3.992   1.066 -0.4573 -0.4196  0.6197
 1533SOL     OW 5903   0.544   5.324   3.496  0.1436  0.0373 -0.5295
 1533SOL    HW2 5904   0.631   5.359   3.481 -0.4313  2.1603  0.7006
 1533SOL    HW3 5905   0.485   5.386   3.453 -0.8944  0.1430  0.9743
 1533SOL    MW4 5906   0.548   5.337   3.488 -0.0692  0.3314 -0.1688
 1534SOL     OW 5907   4.535   2.448   1.022  0.3538  0.3225 -1.0743
 1534SOL    HW2 5908   4.490   2.511   0.965 -1.2589 -0.3998 -0.6507
 1534SOL    HW3 5909   4.529   2.365   0.975 -0.5604 -0.1787 -0.0973
 1534SOL    MW4 5910   4.529   2.446   1.008  0.0204  0.1611 -0.8895
 1535SOL     OW 5911   4.452   0.278   3.670  0.5909 -0.0942  0.0467
 1535SOL    HW2 5912   4.507   0.340   3.718  1.9242 -2.4818  1.7826
 1535SOL    HW3 5913   4.506   0.249   3.597 -0.0995  0.8153 -0.8706
 1535SOL    MW4 5914   4.466   0.283   3.666  0.6757 -0.2892  0.1547
 1536SOL     OW 5915   2.072   5.823   1.225 -1.2628  0.0212 -0.0599
 1536SOL    HW2 5916   2.100   5.787   1.310 -0.1357  0.0141 -0.4175
 1536SOL    HW3 5917   2.084   5.917   1.235 -3.4659  0.2928  0.6039
 1536SOL    MW4 5918   2.077   5.831   1.238 -1.4047  0.0561 -0.0195
 1537SOL     OW 5919   1.980   4.518   5.307  0.2460  0.0741  0.0534
 1537SOL    HW2 5920   1.903   4.511   5.363 -1.1182  1.2115 -1.5589
 1537SOL    HW3 5921   2.050   4.476   5.356 -1.5700 -1.6923  1.2869
 1537SOL    MW4 5922   1.979   4.511   5.321 -0.1736 -0.0089  0.0034
 1538SOL     OW 5923   4.873   1.277   1.129 -0.1657  0.2451  0.4678
 1538SOL    HW2 5924   4.912   1.194   1.157  1.2596  1.2610  1.6981
 1538SOL    HW3 5925   4.943   1.322   1.082 -1.1112  0.5180 -0.7131
 1538SOL    MW4 5926   4.888   1.272   1.127 -0.1024  0.4151  0.4744
 1539SOL     OW 5927   0.277   3.009   1.905 -0.4871 -0.4377 -0.8300
 1539SOL    HW2 5928   0.238   3.067   1.840 -3.0683  1.1282  1.9067
 1539SOL    HW3 5929   0.208   2.946   1.926  0.6137 -1.5016 -0.2491
 1539SOL    MW4 5930   0.263   3.008   1.899 -0.6824 -0.3715 -0.3923
 1540SOL     OW 5931   3.209   0.727   2.302 -0.7700 -0.4457  0.0557
 1540SOL    HW2 5932   3.162   0.644   2.292 -3.5405  1.2510 -2.5671
 1540SOL    HW3 5933   3.286   0.718   2.246 -1.5488 -0.9572 -0.9622
 1540SOL    MW4 5934   3.213   0.715   2.294 -1.2383 -0.2893 -0.4247
 1541SOL     OW 5935   3.168   0.669   0.382 -0.1456  0.0145 -0.6487
 1541SOL    HW2 5936   3.189   0.578   0.401  1.1738  0.1744 -1.2496
 1541SOL    HW3 5937   3.190   0.716   0.462  0.8428  0.0328 -0.9186
 1541SOL    MW4 5938   3.174   0.663   0.395  0.1589  0.0380 -0.7636
 1542SOL     OW 5939   4.760   4.958   2.598  0.1143  0.0192  0.8199
 1542SOL    HW2 5940   4.736   4.866   2.605  4.2833 -1.3411  0.0679
 1542SOL    HW3 5941   4.805   4.978   2.680 -0.8306  1.4925  1.0212
 1542SOL    MW4 5942   4.763   4.949   2.610  0.5396  0.0341  0.7473
 1543SOL     OW 5943   3.532   4.288   4.750  0.0488 -0.3062  0.4635
 1543SOL    HW2 5944   3.607   4.312   4.695  0.6716 -1.0581  0.9672
 1543SOL    HW3 5945   3.570   4.267   4.835 -0.2679 -4.0281 -0.1465
 1543SOL    MW4 5946   3.547   4.288   4.754  0.0892 -0.8965  0.4494
 1544SOL     OW 5947   0.379   2.832   2.408 -0.3846 -0.4985  0.1576
 1544SOL    HW2 5948   0.403   2.876   2.325  1.0028  1.2038  1.3757
 1544SOL    HW3 5949   0.370   2.740   2.384  0.6824 -0.1742 -1.7747
 1544SOL    MW4 5950   0.381   2.826   2.394 -0.0608 -0.2311  0.0634
 1545SOL     OW 5951   0.643   2.157   5.800 -0.2583 -0.1212  0.0529
 1545SOL    HW2 5952   0.702   2.227   5.829 -1.3437  0.6235  0.5209
 1545SOL    HW3 5953   0.576   2.152   5.868 -1.9125  0.5003 -1.4714
 1545SOL    MW4 5954   0.642   2.165   5.813 -0.6197  0.0590 -0.0865
 1546SOL     OW 5955   4.658   0.854   5.943  0.0353 -0.2149 -0.3616
 1546SOL    HW2 5956   4.747   0.888   5.935 -0.4225  0.7863 -1.5853
 1546SOL    HW3 5957   4.647   0.800   5.865 -0.4410 -0.3112 -0.2263
 1546SOL    MW4 5958   4.669   0.851   5.931 -0.0880 -0.0955 -0.5052
 1547SOL     OW 5959   3.868   6.400   1.356 -0.2767 -0.7812 -0.5043
 1547SOL    HW2 5960   3.933   6.454   1.311 -0.5334 -1.1020 -1.2679
 1547SOL    HW3 5961   3.838   6.455   1.428  0.9847 -0.7017 -0.0119
 1547SOL    MW4 5962   3.873   6.414   1.360 -0.1442 -0.8131 -0.5401
 1548SOL     OW 5963   0.823   3.914   4.793  0.2969  0.1803  0.3183
 1548SOL    HW2 5964   0.779   3.975   4.852 -0.1103 -0.4034  0.6380
 1548SOL    HW3 5965   0.877   3.969   4.737  1.8338  0.6567  2.1533
 1548SOL    MW4 5966   0.824   3.929   4.793  0.4460  0.1662  0.6026
 1549SOL     OW 5967   5.050   2.188   5.920 -0.0833  0.4628  0.1528
 1549SOL    HW2 5968   5.030   2.152   5.834 -0.3044  0.4643  0.2008
 1549SOL    HW3 5969   4.970   2.235   5.945 -0.3891 -0.3511  0.7732
 1549SOL    MW4 5970   5.037   2.190   5.912 -0.1528  0.3556  0.2410
 1550SOL     OW 5971   2.026   6.152   5.258  0.1254  0.1228  0.1526
 1550SOL    HW2 5972   2.097   6.216   5.265 -0.6202  1.2345 -1.8211
 1550SOL    HW3 5973   1.953   6.193   5.305  0.1062 -0.0052  0.2360
 1550SOL    MW4 5974   2.026   6.166   5.265  0.0245  0.2526 -0.0968
 1551SOL     OW 5975   2.326   2.055   2.114  0.3646 -0.1630  0.2927
 1551SOL    HW2 5976   2.300   1.988   2.050 -0.4851  0.6699 -0.2509
 1551SOL    HW3 5977   2.283   2.135   2.085 -0.7806  0.0622  2.3963
 1551SOL    MW4 5978   2.317   2.056   2.102  0.1014 -0.0234  0.4985
 1552SOL     OW 5979   1.726   3.815   0.962  0.0533 -0.1883  0.2007
 1552SOL    HW2 5980   1.819   3.818   0.984  0.0398 -0.0982  0.2448
 1552SOL    HW3 5981   1.682   3.788   1.043  0.0515 -0.3345  0.1511
 1552SOL    MW4 5982   1.732   3.812   0.976  0.0513 -0.1957  0.2000
 1553SOL     OW 5983   2.204   0.292   4.898 -0.3073 -0.1093  0.4450
 1553SOL    HW2 5984   2.261   0.321   4.827 -1.0772  0.4953  0.0480
 1553SOL    HW3 5985   2.125   0.260   4.853 -1.2386  1.2571  1.0267
 1553SOL    MW4 5986   2.201   0.292   4.882 -0.5317  0.1507  0.4694
 1554SOL     OW 5987   2.713   1.207   2.735 -0.1919  0.1340  0.2000
 1554SOL    HW2 5988   2.663   1.126   2.748  0.8158 -0.2992  1.6734
 1554SOL    HW3 5989   2.746   1.228   2.822  0.5133  1.5141 -0.3813
 1554SOL    MW4 5990   2.710   1.199   2.748  0.0341  0.2590  0.3177
 1555SOL     OW 5991   0.879   0.141   3.262 -0.1715  0.5818  0.0515
 1555SOL    HW2 5992   0.888   0.051   3.293 -0.1141  0.5833  0.0379
 1555SOL    HW3 5993   0.922   0.194   3.329 -1.9082  0.7659  1.0859
 1555SOL    MW4 5994   0.886   0.136   3.275 -0.3931  0.6063  0.1862
 1556SOL     OW 5995   4.626   3.753   1.833 -0.0320  0.1320  0.6194
 1556SOL    HW2 5996   4.715   3.716   1.833  0.7053  1.7826  0.0697
 1556SOL    HW3 5997   4.596   3.743   1.923  1.4241  1.1041  1.2597
 1556SOL    MW4 5998   4.634   3.746   1.845  0.2574  0.4780  0.6313
 1557SOL     OW 5999   4.110   4.312   0.534 -0.2657  0.0299  0.4758
 1557SOL    HW2 6000   4.067   4.244   0.585  2.3568 -1.3413  1.0189
 1557SOL    HW3 6001   4.132   4.380   0.598 -0.7030  0.2850  0.3646
 1557SOL    MW4 6002   4.107   4.312   0.549  0.0226 -0.1174  0.5327
 1558SOL     OW 6003   4.702   2.476   2.045  0.2540  0.1735 -0.1333
 1558SOL    HW2 6004   4.698   2.442   1.955 -1.9326 -1.3276  0.4553
 1558SOL    HW3 6005   4.735   2.403   2.097  2.5122  1.3479  0.2409
 1558SOL    MW4 6006   4.706   2.462   2.040  0.2635  0.1304 -0.0063
 1559SOL     OW 6007   2.151   2.349   6.096  0.3938 -0.3985 -1.0637
 1559SOL    HW2 6008   2.112   2.432   6.066  2.4026  1.2469  0.5750
 1559SOL    HW3 6009   2.197   2.315   6.019  2.0967  1.6447 -1.0420
 1559SOL    MW4 6010   2.152   2.356   6.082  0.8835  0.0881 -0.8447
 1560SOL     OW 6011   4.031   1.596   0.277  0.0453 -0.3369  0.3019
 1560SOL    HW2 6012   4.011   1.562   0.190 -0.6639  0.3271  0.1903
 1560SOL    HW3 6013   3.988   1.535   0.337  0.1470 -0.5399  0.1696
 1560SOL    MW4 6014   4.023   1.584   0.274 -0.0348 -0.2761  0.2697
 1561SOL     OW 6015   1.931   4.202   5.882 -0.1693 -0.1192 -0.3739
 1561SOL    HW2 6016   2.022   4.188   5.907 -0.6893 -1.5359  0.8647
 1561SOL    HW3 6017   1.899   4.269   5.943  0.3254  1.3175 -1.6068
 1561SOL    MW4 6018   1.939   4.209   5.893 -0.1727 -0.1166 -0.3731
 1562SOL     OW 6019   2.972   3.672   5.240 -0.4014 -0.3089 -0.2111
 1562SOL    HW2 6020   3.032   3.747   5.234  0.1367 -0.7887 -0.8954
 1562SOL    HW3 6021   2.950   3.652   5.149 -1.7450 -0.0329  0.0363
 1562SOL    MW4 6022   2.977   3.680   5.227 -0.5077 -0.3358 -0.2687
 1563SOL     OW 6023   3.776   6.340   1.748 -0.1463 -0.1119  0.5150
 1563SOL    HW2 6024   3.711   6.287   1.702  0.0303  1.5072 -1.7493
 1563SOL    HW3 6025   3.728   6.379   1.821 -1.6819  0.8207 -0.9347
 1563SOL    MW4 6026   3.761   6.338   1.752 -0.3256  0.2247  0.0250
 1564SOL     OW 6027   2.414   5.304   4.478 -0.4726  0.3096 -0.1915
 1564SOL    HW2 6028   2.506   5.327   4.490 -0.4455  1.8700 -2.6631
 1564SOL    HW3 6029   2.366   5.365   4.534 -0.0714  0.9848 -0.5729
 1564SOL    MW4 6030   2.420   5.315   4.487 -0.4161  0.6046 -0.5679
 1565SOL     OW 6031   1.382   3.315   3.398  0.4239  0.1146 -0.2812
 1565SOL    HW2 6032   1.473   3.327   3.371 -0.0342  1.1644 -1.5014
 1565SOL    HW3 6033   1.343   3.262   3.329 -0.1732  0.7328 -0.4375
 1565SOL    MW4 6034   1.389   3.310   3.385  0.2847  0.3347 -0.4628
 1566SOL     OW 6035   4.685   3.900   4.191 -0.3004 -0.5304  0.0159
 1566SOL    HW2 6036   4.761   3.846   4.213 -0.2742  0.2575  2.0148
 1566SOL    HW3 6037   4.722   3.982   4.160 -0.2767  0.1836  1.8275
 1566SOL    MW4 6038   4.700   3.904   4.190 -0.2938 -0.3322  0.5187
 1567SOL     OW 6039   0.430   1.959   2.232  0.3684 -1.0087  0.4846
 1567SOL    HW2 6040   0.350   1.971   2.282 -0.4418 -0.0180 -0.9869
 1567SOL    HW3 6041   0.417   1.877   2.184  0.2161 -0.8501  0.2491
 1567SOL    MW4 6042   0.418   1.950   2.232  0.2414 -0.8571  0.2593
 1568SOL     OW 6043   6.264   3.876   3.041  0.4217 -0.4331  0.6772
 1568SOL    HW2 6044   6.297   3.800   2.993 -0.6398  1.2929 -3.1788
 1568SOL    HW3 6045   6.173   3.886   3.012  0.2222  1.7511  1.8140
 1568SOL    MW4 6046   6.256   3.867   3.031  0.2553  0.0828  0.3184
 1569SOL     OW 6047   1.210   1.111   3.747  0.3048 -0.0987  0.0204
 1569SOL    HW2 6048   1.187   1.109   3.840 -1.8608 -0.5193 -0.4858
 1569SOL    HW3 6049   1.246   1.198   3.734  0.9046 -0.1226  1.2967
 1569SOL    MW4 6050   1.212   1.122   3.758  0.0982 -0.1573  0.1220
 1570SOL     OW 6051   1.321   3.373   5.988 -0.3931  0.0408 -0.0266
 1570SOL    HW2 6052   1.260   3.369   6.061  1.7214 -0.9636  1.8278
 1570SOL    HW3 6053   1.394   3.427   6.020  1.5021 -2.0361 -0.5554
 1570SOL    MW4 6054   1.323   3.379   6.002  0.1359 -0.3657  0.1483
 1571SOL     OW 6055   0.704   5.051   1.512  0.6776 -0.0553 -0.2227
 1571SOL    HW2 6056   0.636   5.087   1.569 -1.2235 -2.2426 -0.9595
 1571SOL    HW3 6057   0.769   5.015   1.572  0.9780  1.5772  0.4919
 1571SOL    MW4 6058   0.703   5.051   1.527  0.4664 -0.1285 -0.2256
 1572SOL     OW 6059   0.491   5.196   1.700  0.5126 -0.5595  0.3934
 1572SOL    HW2 6060   0.430   5.257   1.740  0.3934  0.1072 -0.7721
 1572SOL    HW3 6061   0.530   5.149   1.774 -1.4184 -1.0521  1.1749
 1572SOL    MW4 6062   0.488   5.198   1.715  0.2421 -0.5366  0.3428
 1573SOL     OW 6063   2.596   3.970   0.915 -0.3585 -0.1264  0.1457
 1573SOL    HW2 6064   2.646   4.030   0.859  0.7966 -1.1333  0.0680
 1573SOL    HW3 6065   2.520   3.946   0.863  0.5886 -0.8840 -0.9486
 1573SOL    MW4 6066   2.593   3.975   0.901 -0.0811 -0.3592 -0.0089
 1574SOL     OW 6067   5.619   1.436   3.873  0.5163  0.0188 -0.7124
 1574SOL    HW2 6068   5.526   1.419   3.861  0.4513 -1.1218  1.0811
 1574SOL    HW3 6069   5.661   1.396   3.797 -0.4056  0.2401 -1.3507
 1574SOL    MW4 6070   5.613   1.429   3.861  0.3861 -0.1025 -0.5600
 1575SOL     OW 6071   2.773   5.082   4.748 -0.6527 -0.0028  0.2074
 1575SOL    HW2 6072   2.787   5.087   4.843  0.0712  0.8575  0.0619
 1575SOL    HW3 6073   2.808   4.997   4.723 -0.5392 -0.0937  0.6660
 1575SOL    MW4 6074   2.779   5.072   4.758 -0.5422  0.0987  0.2487
 1576SOL     OW 6075   2.788   1.371   2.273 -0.4352 -0.2064  0.2071
 1576SOL    HW2 6076   2.805   1.367   2.367  0.1166 -0.5958  0.0960
 1576SOL    HW3 6077   2.692   1.375   2.266 -0.4589  0.5115  0.8004
 1576SOL    MW4 6078   2.777   1.371   2.284 -0.3656 -0.1631  0.2707
 1577SOL     OW 6079   5.753   3.562   3.224  1.1870 -0.3176  0.2306
 1577SOL    HW2 6080   5.836   3.606   3.207  0.6687  0.2500 -0.9476
 1577SOL    HW3 6081   5.738   3.509   3.146 -1.3276  2.4319 -1.3784
 1577SOL    MW4 6082   5.762   3.561   3.212  0.7869  0.1201 -0.1371
 1578SOL     OW 6083   2.185   4.326   0.504 -0.3271  0.0412  0.4054
 1578SOL    HW2 6084   2.190   4.415   0.537 -0.0387  0.5301 -0.8882
 1578SOL    HW3 6085   2.248   4.324   0.431 -0.3583 -1.2023  0.3934
 1578SOL    MW4 6086   2.194   4.337   0.498 -0.2932 -0.0584  0.2331
 1579SOL     OW 6087   6.096   3.204   1.355 -0.3112 -0.3861 -0.1186
 1579SOL    HW2 6088   6.035   3.274   1.378 -0.2667  0.1357 -1.4840
 1579SOL    HW3 6089   6.060   3.165   1.275  1.0852 -0.0883 -0.9350
 1579SOL    MW4 6090   6.083   3.208   1.348 -0.1211 -0.2779 -0.4065
 1580SOL     OW 6091   3.345   5.700   1.181  0.4949  0.3301  0.2501
 1580SOL    HW2 6092   3.364   5.714   1.088  1.1436  1.4751  0.5283
 1580SOL    HW3 6093   3.313   5.610   1.186  1.1348  0.0088 -0.9859
 1580SOL    MW4 6094   3.344   5.690   1.169  0.6649  0.4388  0.1237
 1581SOL     OW 6095   4.520   4.990   4.784 -0.3410  0.1401 -0.5044
 1581SOL    HW2 6096   4.554   5.027   4.703 -1.8275  1.7910 -0.4411
 1581SOL    HW3 6097   4.428   5.013   4.784 -1.2767 -3.0763 -0.0773
 1581SOL    MW4 6098   4.513   4.998   4.774 -0.6606 -0.0664 -0.4397
 1582SOL     OW 6099   5.509   0.258   0.533  0.0919 -0.1154 -0.8610
 1582SOL    HW2 6100   5.489   0.228   0.621 -1.1114  0.8299 -0.7970
 1582SOL    HW3 6101   5.554   0.341   0.545 -0.4873  0.2434 -1.1479
 1582SOL    MW4 6102   5.513   0.265   0.546 -0.1432  0.0567 -0.8904
 1583SOL     OW 6103   3.716   6.006   1.479  0.1796 -0.1146  0.1330
 1583SOL    HW2 6104   3.667   6.076   1.523  1.0497  0.2176  0.6075
 1583SOL    HW3 6105   3.796   5.997   1.531  1.7737  1.0244 -1.9527
 1583SOL    MW4 6106   3.720   6.014   1.492  0.5047  0.0795 -0.0796
 1584SOL     OW 6107   3.767   5.283   3.546 -0.0143 -0.0555  0.0505
 1584SOL    HW2 6108   3.727   5.196   3.544  1.9752 -1.0551  1.2962
 1584SOL    HW3 6109   3.733   5.327   3.468 -1.1895 -1.8782 -0.5079
 1584SOL    MW4 6110   3.757   5.278   3.535  0.0932 -0.4279  0.1412
 1585SOL     OW 6111   1.782   2.684   4.964 -0.1244  0.5364  0.1672
 1585SOL    HW2 6112   1.826   2.603   4.990 -0.5179  0.1402 -0.3875
 1585SOL    HW3 6113   1.829   2.753   5.011  0.8976  0.0991 -0.1818
 1585SOL    MW4 6114   1.794   2.682   4.974 -0.0415  0.4264  0.0480
 1586SOL     OW 6115   6.294   6.305   4.926 -0.4235  0.1806 -0.5880
 1586SOL    HW2 6116   6.276   6.275   5.015  0.3091 -0.6631 -0.7077
 1586SOL    HW3 6117   6.312   6.225   4.877 -3.4585  0.3566 -2.1723
 1586SOL    MW4 6118   6.294   6.291   4.931 -0.7273  0.0925 -0.8128
 1587SOL     OW 6119   5.899   3.354   4.919 -0.0638 -0.5796 -0.1491
 1587SOL    HW2 6120   5.849   3.402   4.985  0.1619  0.4430 -0.7042
 1587SOL    HW3 6121   5.964   3.417   4.888  0.1706 -1.2153 -0.9709
 1587SOL    MW4 6122   5.901   3.369   4.923 -0.0031 -0.5286 -0.3307
 1588SOL     OW 6123   1.213   0.390   4.844  0.2307  0.3741  0.3249
 1588SOL    HW2 6124   1.206   0.472   4.796 -0.0372  0.1180 -0.0777
 1588SOL    HW3 6125   1.298   0.354   4.817 -1.4387 -1.6323 -3.0020
 1588SOL    MW4 6126   1.223   0.396   4.834 -0.0249  0.0756 -0.1672
 1589SOL     OW 6127   4.184   3.425   1.275  0.1505 -0.7088 -0.0094
 1589SOL    HW2 6128   4.131   3.365   1.223  0.2600 -1.1200  0.3479
 1589SOL    HW3 6129   4.123   3.460   1.341  0.0202 -0.2155 -0.3874
 1589SOL    MW4 6130   4.169   3.422   1.277  0.1478 -0.6980 -0.0121
 1590SOL     OW 6131   2.182   0.368   1.098  0.0233 -0.2170 -0.1534
 1590SOL    HW2 6132   2.144   0.426   1.033  0.0968  0.4971  0.4236
 1590SOL    HW3 6133   2.120   0.368   1.171  1.2952  1.3897  1.0263
 1590SOL    MW4 6134   2.169   0.375   1.099  0.2008  0.0892  0.0784
 1591SOL     OW 6135   0.225   1.046   4.734 -0.6587  0.1090 -0.0260
 1591SOL    HW2 6136   0.177   1.105   4.793 -1.2796 -2.5458  2.3490
 1591SOL    HW3 6137   0.249   1.101   4.659 -1.9567  3.0936  1.5788
 1591SOL    MW4 6138   0.222   1.061   4.732 -0.9119  0.1525  0.4991
 1592SOL     OW 6139   4.140   2.302   6.386  0.3700 -0.3095 -0.0780
 1592SOL    HW2 6140   4.167   2.335   6.301  2.4680 -1.0472  0.2305
 1592SOL    HW3 6141   4.086   2.225   6.366  0.1678  0.0000 -0.7446
 1592SOL    MW4 6142   4.137   2.296   6.372  0.6201 -0.3660 -0.1252
 1593SOL     OW 6143   2.645   4.408   1.416  0.2139  0.3262 -0.6944
 1593SOL    HW2 6144   2.727   4.367   1.443 -0.9643 -0.3916  2.1861
 1593SOL    HW3 6145   2.653   4.418   1.321  3.0731 -0.8837 -0.6754
 1593SOL    MW4 6146   2.657   4.404   1.407  0.4357  0.0718 -0.3118
 1594SOL     OW 6147   1.902   2.764   0.270  0.1659  0.0831  0.1460
 1594SOL    HW2 6148   1.932   2.682   0.308 -1.0917  0.0440  1.1052
 1594SOL    HW3 6149   1.976   2.824   0.280  0.0843 -0.0960  2.1774
 1594SOL    MW4 6150   1.916   2.761   0.277 -0.0108  0.0543  0.5406
 1595SOL     OW 6151   2.227   3.923   3.231  0.4445  0.0290 -0.5792
 1595SOL    HW2 6152   2.193   3.999   3.183  0.1273 -0.2011 -0.7214
 1595SOL    HW3 6153   2.238   3.856   3.164  0.1932 -0.2305 -0.3633
 1595SOL    MW4 6154   2.224   3.924   3.216  0.3695 -0.0356 -0.5695
 1596SOL     OW 6155   2.217   3.659   3.842  0.3316  0.1673 -0.9436
 1596SOL    HW2 6156   2.248   3.750   3.839  0.1847  0.4195  2.1473
 1596SOL    HW3 6157   2.146   3.656   3.778 -1.4192  3.0184  0.6274
 1596SOL    MW4 6158   2.212   3.671   3.833  0.0812  0.5768 -0.3285
 1597SOL     OW 6159   2.392   5.721   5.453  0.3700  0.0831  0.5268
 1597SOL    HW2 6160   2.436   5.725   5.368  0.5547 -1.5800  0.5125
 1597SOL    HW3 6161   2.425   5.797   5.501 -1.6136  2.5126 -1.7011
 1597SOL    MW4 6162   2.403   5.731   5.448  0.1327  0.1842  0.2310
 1598SOL     OW 6163   4.553   3.481   5.636 -0.0844  0.0866 -0.2096
 1598SOL    HW2 6164   4.617   3.442   5.577 -0.6903  0.1207 -0.9042
 1598SOL    HW3 6165   4.548   3.420   5.710 -0.4300 -0.7574 -0.9113
 1598SOL    MW4 6166   4.560   3.468   5.638 -0.2100 -0.0203 -0.3938
 1599SOL     OW 6167   5.849   6.388   5.599 -0.4594  0.5736  0.1505
 1599SOL    HW2 6168   5.754   6.378   5.600 -0.6005  0.5062 -3.4999
 1599SOL    HW3 6169   5.882   6.304   5.632 -1.6467  0.0386  0.0279
 1599SOL    MW4 6170   5.841   6.375   5.604 -0.6346  0.4941 -0.3473
 1600SOL     OW 6171   0.671   0.182   4.568  0.0590  0.4482  0.0921
 1600SOL    HW2 6172   0.590   0.185   4.618 -0.0670 -1.3278  0.0611
 1600SOL    HW3 6173   0.716   0.104   4.600  1.1430  0.6667 -0.8254
 1600SOL    MW4 6174   0.667   0.172   4.579  0.1854  0.2427 -0.0331
 1601SOL     OW 6175   1.835   3.219   4.071  0.4585 -0.1117 -0.1383
 1601SOL    HW2 6176   1.824   3.314   4.082  1.2511  0.0890 -0.9171
 1601SOL    HW3 6177   1.828   3.205   3.977  2.5523 -0.4877 -0.3004
 1601SOL    MW4 6178   1.833   3.230   4.060  0.8393 -0.1348 -0.2624
 1602SOL     OW 6179   0.162   1.209   2.801  0.2401 -0.5825  0.2495
 1602SOL    HW2 6180   0.183   1.119   2.826  0.0691 -0.2180  1.7853
 1602SOL    HW3 6181   0.077   1.227   2.842 -0.5941 -0.2789 -1.5028
 1602SOL    MW4 6182   0.153   1.200   2.810  0.1075 -0.4944  0.2210
 1603SOL     OW 6183   2.905   2.902   4.245  0.2959 -0.5334  0.0030
 1603SOL    HW2 6184   2.903   2.889   4.150  3.7615  2.7317 -0.7364
 1603SOL    HW3 6185   2.830   2.958   4.263 -0.1788 -0.8833 -0.8306
 1603SOL    MW4 6186   2.895   2.908   4.235  0.6905 -0.1488 -0.2045
 1604SOL     OW 6187   4.694   0.431   5.608  0.0900  0.8130  0.4862
 1604SOL    HW2 6188   4.772   0.403   5.658  1.3386  0.9106 -1.3066
 1604SOL    HW3 6189   4.690   0.526   5.620 -1.2771  0.5482  2.6052
 1604SOL    MW4 6190   4.704   0.440   5.616  0.0744  0.7910  0.5292
 1605SOL     OW 6191   0.782   4.200   0.760  1.1662  0.2848 -0.2476
 1605SOL    HW2 6192   0.689   4.225   0.758  1.6245  2.1142 -0.8740
 1605SOL    HW3 6193   0.807   4.208   0.852  0.6905 -0.3860 -0.0453
 1605SOL    MW4 6194   0.773   4.204   0.772  1.1639  0.4377 -0.3036
 1606SOL     OW 6195   2.220   1.611   5.431  0.2558  0.0367 -0.1023
 1606SOL    HW2 6196   2.197   1.646   5.345 -1.2044  0.0999  0.2886
 1606SOL    HW3 6197   2.198   1.518   5.426  0.2505  0.0214  0.1833
 1606SOL    MW4 6198   2.214   1.603   5.419  0.0625  0.0430 -0.0130
 1607SOL     OW 6199   1.592   0.297   0.386 -0.9272  0.5837 -0.5882
 1607SOL    HW2 6200   1.539   0.377   0.386 -2.3544 -0.2539 -2.7665
 1607SOL    HW3 6201   1.528   0.226   0.398  0.3923 -0.2687  2.0952
 1607SOL    MW4 6202   1.576   0.298   0.387 -0.9414  0.3607 -0.5216
 1608SOL     OW 6203   2.285   1.764   4.235 -0.1266 -0.4872  0.2114
 1608SOL    HW2 6204   2.232   1.735   4.161 -0.3663  1.8783 -0.6429
 1608SOL    HW3 6205   2.222   1.785   4.303 -0.1677  0.3264 -0.0625
 1608SOL    MW4 6206   2.270   1.763   4.234 -0.1636 -0.0677  0.0626
 1609SOL     OW 6207   5.772   2.747   1.529  0.8451 -0.3344  0.7131
 1609SOL    HW2 6208   5.817   2.790   1.456 -0.5622 -0.1632 -0.1058
 1609SOL    HW3 6209   5.701   2.698   1.487  0.9614 -1.5164  1.8483
 1609SOL    MW4 6210   5.768   2.746   1.514  0.6747 -0.4677  0.7548
 1610SOL     OW 6211   0.208   0.320   5.579  0.1253 -0.0485 -0.1478
 1610SOL    HW2 6212   0.291   0.346   5.539  1.2092  0.4896  2.2706
 1610SOL    HW3 6213   0.154   0.399   5.574  0.8615  0.5425  0.8842
 1610SOL    MW4 6214   0.212   0.334   5.573  0.3655  0.1005  0.3074
 1611SOL     OW 6215   5.660   5.991   6.138 -0.1752 -0.4008 -0.3522
 1611SOL    HW2 6216   5.700   5.959   6.219 -0.7123  1.1566  0.5769
 1611SOL    HW3 6217   5.574   6.024   6.166  0.1289  1.3084 -1.3130
 1611SOL    MW4 6218   5.654   5.991   6.153 -0.2059  0.0302 -0.3564
 1612SOL     OW 6219   4.764   4.329   1.711 -0.1090  0.8133  0.3335
 1612SOL    HW2 6220   4.697   4.278   1.666  1.2646  0.3869 -1.3580
 1612SOL    HW3 6221   4.780   4.404   1.654  0.9876  0.7809  0.5673
 1612SOL    MW4 6222   4.757   4.332   1.698  0.2169  0.7528  0.1412
 1613SOL     OW 6223   4.227   4.594   4.424  0.0164  0.1070 -0.3024
 1613SOL    HW2 6224   4.165   4.582   4.496 -0.4684  0.8277 -0.5850
 1613SOL    HW3 6225   4.188   4.663   4.370  0.0424 -0.8445 -1.6092
 1613SOL    MW4 6226   4.214   4.601   4.426 -0.0441  0.0766 -0.5121
 1614SOL     OW 6227   3.749   2.823   4.854 -0.6220  0.1925  0.3711
 1614SOL    HW2 6228   3.777   2.804   4.764 -0.1124 -1.0409  0.7703
 1614SOL    HW3 6229   3.749   2.918   4.859  0.4689  0.2669 -0.5985
 1614SOL    MW4 6230   3.753   2.833   4.842 -0.4108  0.0396  0.2958
 1615SOL     OW 6231   4.653   5.645   0.830 -0.4495  0.3469  0.0595
 1615SOL    HW2 6232   4.745   5.640   0.803 -0.2627  0.1432  0.6934
 1615SOL    HW3 6233   4.656   5.695   0.912 -0.3961 -2.9770  2.2584
 1615SOL    MW4 6234   4.666   5.651   0.838 -0.4178 -0.1185  0.4333
 1616SOL     OW 6235   5.444   0.041   3.500  0.0100 -0.6301  0.1878
 1616SOL    HW2 6236   5.528   0.052   3.545 -1.1436  1.7140  2.0129
 1616SOL    HW3 6237   5.389  -0.006   3.563  0.0411 -2.7294 -1.2396
 1616SOL    MW4 6238   5.448   0.036   3.514 -0.1381 -0.5978  0.2403
 1617SOL     OW 6239   6.110   5.931   0.170  0.0451 -0.1332 -0.3083
 1617SOL    HW2 6240   6.053   5.859   0.143  1.1669 -0.4660 -1.9291
 1617SOL    HW3 6241   6.146   5.965   0.088  2.6736 -0.3534  0.6765
 1617SOL    MW4 6242   6.107   5.926   0.155  0.5399 -0.2062 -0.3922
 1618SOL     OW 6243   3.443   2.245   0.365 -0.0885  0.5184 -0.3413
 1618SOL    HW2 6244   3.423   2.209   0.452  1.5113  1.4724  0.4531
 1618SOL    HW3 6245   3.506   2.183   0.328 -1.8477 -0.7028 -1.5066
 1618SOL    MW4 6246   3.448   2.232   0.372 -0.1095  0.4832 -0.3902
 1619SOL     OW 6247   1.439   0.857   5.586 -0.3415 -0.2846 -0.0755
 1619SOL    HW2 6248   1.488   0.774   5.582  0.1144 -0.0254  0.0436
 1619SOL    HW3 6249   1.476   0.910   5.516 -0.8877 -0.3115 -0.3873
 1619SOL    MW4 6250   1.450   0.853   5.577 -0.3534 -0.2539 -0.1010
 1620SOL     OW 6251   5.263   5.264   6.412 -0.3724  0.8834 -0.2350
 1620SOL    HW2 6252   5.282   5.354   6.438  1.4640  0.5506 -0.2523
 1620SOL    HW3 6253   5.340   5.214   6.441 -1.0797 -0.5785 -0.7550
 1620SOL    MW4 6254   5.276   5.269   6.419 -0.2235  0.6466 -0.3059
 1621SOL     OW 6255   1.558   5.638   5.892  0.6406 -0.1615  0.3482
 1621SOL    HW2 6256   1.488   5.704   5.889  0.5395 -0.2917 -0.4577
 1621SOL    HW3 6257   1.517   5.562   5.933  0.6787  0.1881  1.0365
 1621SOL    MW4 6258   1.543   5.637   5.897  0.6323 -0.1325  0.3327
 1622SOL     OW 6259   0.231   3.071   0.624  1.0513 -0.6719  0.0277
 1622SOL    HW2 6260   0.195   3.126   0.555 -0.5436 -0.4598  0.9810
 1622SOL    HW3 6261   0.325   3.065   0.603  0.6019 -0.7938 -2.2489
 1622SOL    MW4 6262   0.239   3.077   0.612  0.7816 -0.6600 -0.1469
 1623SOL     OW 6263   0.304   4.921   5.488  0.1258  0.0143 -0.2430
 1623SOL    HW2 6264   0.293   4.829   5.464  0.7112 -0.7880  2.2535
 1623SOL    HW3 6265   0.217   4.959   5.476  0.4790 -0.0185 -4.1032
 1623SOL    MW4 6266   0.291   4.914   5.483  0.2496 -0.0959 -0.4229
 1624SOL     OW 6267   2.372   3.444   2.457  0.1596 -0.3963  0.5341
 1624SOL    HW2 6268   2.339   3.448   2.547 -1.5668 -0.0851 -0.0599
 1624SOL    HW3 6269   2.329   3.518   2.413  0.3214 -1.0332 -0.7383
 1624SOL    MW4 6270   2.362   3.455   2.463 -0.0468 -0.4393  0.2878
 1625SOL     OW 6271   5.052   2.454   3.006  0.4896 -0.1242 -0.4185
 1625SOL    HW2 6272   5.092   2.524   2.954  1.7169  0.3494  1.0563
 1625SOL    HW3 6273   5.082   2.373   2.965  1.1725  0.2297 -0.6404
 1625SOL    MW4 6274   5.062   2.453   2.994  0.7416 -0.0150 -0.2532
 1626SOL     OW 6275   0.098   4.691   5.024 -0.9169  0.0733  0.1266
 1626SOL    HW2 6276   0.083   4.737   5.107 -1.2991  1.2059 -0.5461
 1626SOL    HW3 6277   0.014   4.650   5.003 -2.4420  3.8081 -2.0633
 1626SOL    MW4 6278   0.085   4.692   5.032 -1.1685  0.7155 -0.2511
 1627SOL     OW 6279   5.643   5.752   1.135 -0.0738  0.0761 -0.3204
 1627SOL    HW2 6280   5.549   5.734   1.137 -0.0646  0.0523  0.9138
 1627SOL    HW3 6281   5.660   5.796   1.219  1.3590 -1.7578  0.4144
 1627SOL    MW4 6282   5.633   5.755   1.146  0.1165 -0.1690 -0.0606
 1628SOL     OW 6283   0.857   3.100   3.853  0.2217  0.2471  0.3685
 1628SOL    HW2 6284   0.874   3.151   3.932 -0.6114  1.2749 -0.0836
 1628SOL    HW3 6285   0.923   3.130   3.790 -0.7961  1.4522 -0.1737
 1628SOL    MW4 6286   0.868   3.111   3.855 -0.0225  0.5417  0.2373
 1629SOL     OW 6287   2.660   6.152   5.273  0.0502 -0.0797 -0.2448
 1629SOL    HW2 6288   2.726   6.204   5.319 -0.0207 -0.4138  0.2376
 1629SOL    HW3 6289   2.704   6.125   5.192 -0.2269  1.5330 -0.9963
 1629SOL    MW4 6290   2.675   6.156   5.268  0.0043  0.0890 -0.2803
 1630SOL     OW 6291   1.078   1.370   1.727  0.0824 -0.4389 -0.7339
 1630SOL    HW2 6292   1.036   1.323   1.655  0.7708  0.4797 -1.7851
 1630SOL    HW3 6293   1.118   1.302   1.781 -0.2924 -1.1462 -1.3265
 1630SOL    MW4 6294   1.078   1.355   1.724  0.1238 -0.4110 -0.9508
 1631SOL     OW 6295   3.539   3.274   1.385 -0.3440 -0.3188  0.6237
 1631SOL    HW2 6296   3.624   3.311   1.410  0.3061 -0.5679 -1.0979
 1631SOL    HW3 6297   3.557   3.180   1.375 -0.8334 -0.3761  0.2922
 1631SOL    MW4 6298   3.553   3.266   1.387 -0.3228 -0.3592  0.3528
 1632SOL     OW 6299   0.652   1.154   3.812  0.0073 -0.0130 -0.6638
 1632SOL    HW2 6300   0.741   1.187   3.817 -0.1246  0.3756 -0.8646
 1632SOL    HW3 6301   0.597   1.231   3.820 -0.3335 -0.3299  0.2713
 1632SOL    MW4 6302   0.656   1.168   3.814 -0.0551 -0.0035 -0.5669
 1633SOL     OW 6303   0.077   5.169   0.153 -0.2208 -0.8610 -0.7743
 1633SOL    HW2 6304   0.155   5.116   0.134  0.2997 -0.3178 -0.2083
 1633SOL    HW3 6305   0.013   5.106   0.185  1.7321 -0.8144  4.0596
 1633SOL    MW4 6306   0.079   5.154   0.154  0.1055 -0.7831 -0.0618
 1634SOL     OW 6307   4.560   3.224   0.043 -0.1044 -0.0122 -0.1036
 1634SOL    HW2 6308   4.546   3.129   0.046  1.9275 -0.4520 -1.8534
 1634SOL    HW3 6309   4.509   3.254  -0.033  2.1745 -0.4319 -1.9397
 1634SOL    MW4 6310   4.551   3.215   0.033  0.4643 -0.1256 -0.5767
 1635SOL     OW 6311   0.864   5.149   0.692  0.3005  0.5363 -0.1917
 1635SOL    HW2 6312   0.953   5.156   0.658 -0.1508 -0.3044 -1.6043
 1635SOL    HW3 6313   0.820   5.090   0.632 -1.4222  1.5020  0.0748
 1635SOL    MW4 6314   0.870   5.142   0.680  0.0137  0.5528 -0.3429
 1636SOL     OW 6315   2.668   0.961   4.169 -0.2872 -0.2092  0.0718
 1636SOL    HW2 6316   2.719   0.893   4.125  1.2873  0.3119  1.0212
 1636SOL    HW3 6317   2.625   1.009   4.098 -1.2752 -2.0125 -0.6357
 1636SOL    MW4 6318   2.669   0.958   4.154 -0.2098 -0.3784  0.1037
 1637SOL     OW 6319   3.409   3.394   2.460 -0.1130 -0.7691  0.4167
 1637SOL    HW2 6320   3.387   3.365   2.549  0.3530  1.0636  1.1699
 1637SOL    HW3 6321   3.497   3.361   2.445  0.1985 -0.2364  1.0398
 1637SOL    MW4 6322   3.418   3.386   2.470 -0.0104 -0.4570  0.5983
 1638SOL     OW 6323   5.724   4.628   3.861  0.5301 -0.3155 -0.8613
 1638SOL    HW2 6324   5.701   4.706   3.811 -1.7256 -0.9005 -0.8603
 1638SOL    HW3 6325   5.796   4.588   3.813  1.3364  1.4435 -1.1676
 1638SOL    MW4 6326   5.731   4.633   3.848  0.3389 -0.1606 -0.9016
 1639SOL     OW 6327   0.271   2.634   4.308  0.2608 -0.1128 -0.5459
 1639SOL    HW2 6328   0.315   2.690   4.372 -0.0926 -0.7827  0.2905
 1639SOL    HW3 6329   0.294   2.545   4.334 -2.3432 -0.5611  0.5436
 1639SOL    MW4 6330   0.280   2.630   4.320 -0.1294 -0.2603 -0.2918
 1640SOL     OW 6331   2.653   0.922   1.343  0.0826 -0.3536  0.0956
 1640SOL    HW2 6332   2.708   0.994   1.312  0.1524 -0.2734  0.4022
 1640SOL    HW3 6333   2.697   0.891   1.422 -0.9933  0.5529  1.0977
 1640SOL    MW4 6334   2.666   0.928   1.349 -0.0501 -0.2234  0.2683
 1641SOL     OW 6335   2.267   1.895   3.254  0.1881 -0.3115  0.1730
 1641SOL    HW2 6336   2.224   1.980   3.248 -0.9148 -0.8396  0.2337
 1641SOL    HW3 6337   2.262   1.872   3.347 -1.2741 -1.2793 -0.1045
 1641SOL    MW4 6338   2.260   1.903   3.265 -0.1503 -0.5089  0.1444
 1642SOL     OW 6339   6.254   4.546   0.564  0.1134 -0.1263 -0.5561
 1642SOL    HW2 6340   6.251   4.451   0.552 -0.4442 -0.1311 -0.4110
 1642SOL    HW3 6341   6.167   4.569   0.597  0.7735  0.2048  1.0413
 1642SOL    MW4 6342   6.242   4.536   0.567  0.1269 -0.0832 -0.3262
 1643SOL     OW 6343   2.821   0.833   3.969  0.1436 -0.5552 -0.6679
 1643SOL    HW2 6344   2.830   0.770   3.898  1.4316 -0.5498 -0.5422
 1643SOL    HW3 6345   2.872   0.796   4.041 -0.3375 -0.0967 -0.0848
 1643SOL    MW4 6346   2.829   0.820   3.969  0.2501 -0.4940 -0.5744
 1644SOL     OW 6347   1.337   4.034   1.063 -0.0004 -0.5172 -0.0381
 1644SOL    HW2 6348   1.284   4.112   1.076 -0.6372 -0.7610 -1.0257
 1644SOL    HW3 6349   1.297   3.967   1.119 -1.4168 -0.9849 -1.5258
 1644SOL    MW4 6350   1.325   4.035   1.072 -0.2713 -0.6111 -0.3647
 1645SOL     OW 6351   0.660   4.916   6.137 -0.1493 -0.5942 -0.2692
 1645SOL    HW2 6352   0.725   4.912   6.207  2.4869  1.8046 -2.3458
 1645SOL    HW3 6353   0.671   4.835   6.088  0.4560 -0.7106  0.0517
 1645SOL    MW4 6354   0.670   4.905   6.140  0.2784 -0.2931 -0.5008
 1646SOL     OW 6355   1.681   4.925   0.983  0.0107 -0.5729 -0.6798
 1646SOL    HW2 6356   1.589   4.940   1.004  0.5250  2.0345  0.0248
 1646SOL    HW3 6357   1.720   4.894   1.065  0.2934  1.1607 -0.1244
 1646SOL    MW4 6358   1.674   4.923   0.996  0.1158 -0.0001 -0.5136
 1647SOL     OW 6359   4.996   6.409   4.519 -0.1541  0.2568 -0.1730
 1647SOL    HW2 6360   5.022   6.318   4.502 -0.1497  0.3392 -0.6040
 1647SOL    HW3 6361   4.953   6.437   4.439 -0.0152  0.6899 -0.0968
 1647SOL    MW4 6362   4.994   6.401   4.506 -0.1352  0.3248 -0.2198
 1648SOL     OW 6363   3.701   4.423   6.112  0.2756  0.1561 -0.3627
 1648SOL    HW2 6364   3.790   4.418   6.077  0.1937 -1.0586 -0.4407
 1648SOL    HW3 6365   3.708   4.484   6.186  1.2516 -0.2012 -0.1413
 1648SOL    MW4 6366   3.714   4.431   6.117  0.3936 -0.0513 -0.3438
 1649SOL     OW 6367   3.445   0.569   5.063  0.7137 -0.6472 -0.5350
 1649SOL    HW2 6368   3.531   0.527   5.057  0.4672 -1.3496  0.4449
 1649SOL    HW3 6369   3.385   0.497   5.086  0.6547  0.4766  3.7727
 1649SOL    MW4 6370   3.448   0.554   5.065  0.6734 -0.5916  0.1626
 1650SOL     OW 6371   6.365   1.391   1.431  0.6201  0.0448 -0.6205
 1650SOL    HW2 6372   6.373   1.347   1.516 -0.0254  2.1738  0.6250
 1650SOL    HW3 6373   6.435   1.354   1.378  1.6194 -0.7119  1.1437
 1650SOL    MW4 6374   6.375   1.381   1.436  0.6667  0.2259 -0.2234
 1651SOL     OW 6375   2.925   5.684   2.314 -0.7297 -0.2367  0.3834
 1651SOL    HW2 6376   2.995   5.715   2.370 -0.6808  2.6110 -1.0973
 1651SOL    HW3 6377   2.847   5.731   2.345 -1.5009 -1.4670  0.3976
 1651SOL    MW4 6378   2.924   5.694   2.326 -0.8250 -0.0233  0.1899
 1652SOL     OW 6379   3.201   3.524   6.162  0.1271  0.0188  0.3684
 1652SOL    HW2 6380   3.180   3.558   6.074 -1.0722  0.0720  0.6679
 1652SOL    HW3 6381   3.158   3.585   6.222 -0.2563 -0.8286  0.9637
 1652SOL    MW4 6382   3.193   3.537   6.158 -0.0817 -0.0860  0.4865
 1653SOL     OW 6383   6.289   5.867   0.533 -0.2328 -0.1060 -0.0236
 1653SOL    HW2 6384   6.246   5.794   0.579  1.2839 -1.4020 -0.5745
 1653SOL    HW3 6385   6.364   5.888   0.588  0.9254 -0.8742 -1.2616
 1653SOL    MW4 6386   6.293   5.860   0.547  0.1201 -0.3784 -0.2596
 1654SOL     OW 6387   3.937   1.845   2.917  0.1875 -0.2151 -0.2679
 1654SOL    HW2 6388   3.941   1.909   2.988  4.5206  0.9893 -1.2964
 1654SOL    HW3 6389   4.001   1.778   2.941 -0.8569 -1.7035 -1.4389
 1654SOL    MW4 6390   3.946   1.845   2.930  0.6214 -0.2526 -0.5581
 1655SOL     OW 6391   2.671   1.469   5.688 -0.3683  0.0593 -0.3585
 1655SOL    HW2 6392   2.616   1.474   5.610 -0.1101 -1.2485 -0.6434
 1655SOL    HW3 6393   2.744   1.412   5.664 -0.3585 -0.4946  0.8690
 1655SOL    MW4 6394   2.673   1.462   5.675 -0.3329 -0.1864 -0.2342
 1656SOL     OW 6395   5.169   1.403   1.316 -0.2419 -0.1973 -0.0042
 1656SOL    HW2 6396   5.189   1.351   1.238 -1.5908  0.7791 -1.0413
 1656SOL    HW3 6397   5.175   1.494   1.287  0.8498  0.2482  1.4727
 1656SOL    MW4 6398   5.172   1.408   1.302 -0.2758 -0.0097  0.0538
 1657SOL     OW 6399   2.532   4.546   0.523 -0.3179  0.0166 -0.1317
 1657SOL    HW2 6400   2.475   4.575   0.595 -0.9773 -0.0489 -0.6137
 1657SOL    HW3 6401   2.479   4.558   0.445  1.3620  2.7861 -0.9624
 1657SOL    MW4 6402   2.517   4.551   0.522 -0.1833  0.3734 -0.3049
 1658SOL     OW 6403   6.253   2.702   0.615  0.6430 -0.3092 -0.7883
 1658SOL    HW2 6404   6.230   2.627   0.670  4.2084 -0.5857  0.5629
 1658SOL    HW3 6405   6.260   2.775   0.677  0.2220  0.4738 -1.6380
 1658SOL    MW4 6406   6.251   2.702   0.630  1.0579 -0.2424 -0.7221
 1659SOL     OW 6407   3.582   5.541   3.993  0.4370  0.3167  0.1348
 1659SOL    HW2 6408   3.530   5.482   4.048 -1.2237  2.1048  0.5867
 1659SOL    HW3 6409   3.598   5.617   4.049  1.3333  0.8973 -0.8846
 1659SOL    MW4 6410   3.577   5.543   4.008  0.3361  0.6293  0.0599
 1660SOL     OW 6411   4.946   3.311   3.408 -0.0191  0.7249 -0.4622
 1660SOL    HW2 6412   5.025   3.275   3.448 -0.0516 -0.0300 -1.0563
 1660SOL    HW3 6413   4.889   3.332   3.482  0.9648  1.8394 -0.0008
 1660SOL    MW4 6414   4.949   3.309   3.423  0.1064  0.7724 -0.4797
 1661SOL     OW 6415   2.596   0.938   0.159 -0.1328 -0.3972 -0.7101
 1661SOL    HW2 6416   2.680   0.973   0.130 -0.6846  0.7218 -1.0140
 1661SOL    HW3 6417   2.593   0.849   0.123  0.0046  0.2974 -2.5550
 1661SOL    MW4 6418   2.606   0.931   0.151 -0.1875 -0.1579 -0.9936
 1662SOL     OW 6419   5.762   1.113   2.002 -0.4235  0.0417 -0.4157
 1662SOL    HW2 6420   5.842   1.089   2.050 -0.8178 -1.0284 -0.2773
 1662SOL    HW3 6421   5.692   1.104   2.067 -0.4757  3.0529  0.1123
 1662SOL    MW4 6422   5.764   1.109   2.017 -0.4824  0.2978 -0.3278
 1663SOL     OW 6423   2.828   2.416   4.751 -0.1233 -0.3724  0.4901
 1663SOL    HW2 6424   2.791   2.497   4.787 -2.1827 -0.3860 -1.4019
 1663SOL    HW3 6425   2.865   2.442   4.667 -0.1835 -1.2753  0.1755
 1663SOL    MW4 6426   2.828   2.430   4.745 -0.4029 -0.4933  0.1990
 1664SOL     OW 6427   5.859   6.241   6.343  0.4183  0.3450 -0.1070
 1664SOL    HW2 6428   5.870   6.218   6.251  0.7706 -0.9699  0.2535
 1664SOL    HW3 6429   5.909   6.323   6.353 -0.4139  1.0271 -1.2813
 1664SOL    MW4 6430   5.867   6.249   6.332  0.3550  0.2615 -0.2143
 1665SOL     OW 6431   0.661   2.228   6.147  0.2755  0.1701  0.5561
 1665SOL    HW2 6432   0.651   2.295   6.215  0.0018 -0.5499  1.2311
 1665SOL    HW3 6433   0.709   2.158   6.189 -1.1279 -0.8991  0.4546
 1665SOL    MW4 6434   0.666   2.228   6.161  0.0542 -0.0660  0.6317
 1666SOL     OW 6435   1.508   4.760   0.645  0.4527 -0.3385 -0.1141
 1666SOL    HW2 6436   1.477   4.849   0.632  2.1347  0.2391 -0.4273
 1666SOL    HW3 6437   1.467   4.732   0.728  0.5562  1.0154  0.4218
 1666SOL    MW4 6438   1.498   4.768   0.654  0.6883 -0.0837 -0.0847
 1667SOL     OW 6439   0.490   4.507   2.683  0.1363  0.2441 -0.4449
 1667SOL    HW2 6440   0.522   4.550   2.604 -1.3894  0.7878 -0.8221
 1667SOL    HW3 6441   0.529   4.420   2.682  0.5386  0.4298 -1.5325
 1667SOL    MW4 6442   0.499   4.501   2.673 -0.0119  0.3403 -0.6381
 1668SOL     OW 6443   2.384   5.488   0.748 -0.5125  0.4192  0.0886
 1668SOL    HW2 6444   2.304   5.435   0.755 -0.7442  0.9546  2.0528
 1668SOL    HW3 6445   2.455   5.424   0.752 -0.7667 -0.1741 -2.7438
 1668SOL    MW4 6446   2.382   5.472   0.750 -0.5766  0.4115 -0.0259
 1669SOL     OW 6447   4.287   2.693   1.473 -0.2212  0.2172 -0.4605
 1669SOL    HW2 6448   4.231   2.752   1.422 -1.0692  0.0049  0.2084
 1669SOL    HW3 6449   4.249   2.692   1.560 -0.0299 -1.0628 -0.3705
 1669SOL    MW4 6450   4.275   2.700   1.478 -0.3078  0.0203 -0.3604
 1670SOL     OW 6451   6.012   4.756   1.704  0.7983 -0.0314  0.4137
 1670SOL    HW2 6452   6.034   4.850   1.706 -0.8498  0.3721  0.8868
 1670SOL    HW3 6453   6.040   4.727   1.617  1.8837  0.7437  0.4812
 1670SOL    MW4 6454   6.019   4.765   1.693  0.7241  0.1241  0.4850
 1671SOL     OW 6455   3.275   3.675   0.432  0.1297  0.6320  0.2471
 1671SOL    HW2 6456   3.248   3.634   0.514 -0.1428  0.7618  0.2230
 1671SOL    HW3 6457   3.195   3.681   0.381  0.6331 -1.3994 -0.8964
 1671SOL    MW4 6458   3.261   3.670   0.436  0.1601  0.3811  0.0930
 1672SOL     OW 6459   2.941   5.997   3.559  0.4886 -0.2311  0.3868
 1672SOL    HW2 6460   2.879   6.061   3.523 -1.3406 -1.4367  1.2254
 1672SOL    HW3 6461   2.885   5.928   3.594  2.3401 -1.1572  1.6368
 1672SOL    MW4 6462   2.925   5.996   3.559  0.4916 -0.5124  0.6623
 1673SOL     OW 6463   6.108   1.611   5.952  0.3217 -0.6846 -0.1435
 1673SOL    HW2 6464   6.154   1.652   5.879  0.0119 -0.1771 -0.0607
 1673SOL    HW3 6465   6.177   1.577   6.008  0.7530  2.0772  1.1724
 1673SOL    MW4 6466   6.123   1.612   5.949  0.3378 -0.2533  0.0411
 1674SOL     OW 6467   4.674   5.657   2.004 -0.3671  0.2877 -0.6295
 1674SOL    HW2 6468   4.752   5.701   1.971 -0.8174  0.4281 -1.5390
 1674SOL    HW3 6469   4.601   5.712   1.976 -0.9562 -1.0636 -1.8774
 1674SOL    MW4 6470   4.674   5.670   1.996 -0.5042  0.1280 -0.9141
 1675SOL     OW 6471   5.486   5.816   3.133  0.6620  0.4962  0.4623
 1675SOL    HW2 6472   5.523   5.898   3.167  1.2743  0.4544 -0.0909
 1675SOL    HW3 6473   5.453   5.838   3.046 -0.2822  0.4367  0.7954
 1675SOL    MW4 6474   5.487   5.830   3.126  0.6182  0.4828  0.4333
 1676SOL     OW 6475   4.480   1.489   3.844  0.4957  0.4121 -0.0794
 1676SOL    HW2 6476   4.406   1.435   3.873  1.1039  0.4028  1.5644
 1676SOL    HW3 6477   4.501   1.456   3.757 -2.1462  1.1882 -1.0864
 1676SOL    MW4 6478   4.473   1.478   3.837  0.2274  0.5133  0.0046
 1677SOL     OW 6479   6.380   4.181   4.806  0.2097  0.0311 -0.0899
 1677SOL    HW2 6480   6.366   4.141   4.892 -0.2984  1.6667  0.6403
 1677SOL    HW3 6481   6.417   4.267   4.826  2.5263 -0.5192 -1.6419
 1677SOL    MW4 6482   6.383   4.187   4.820  0.4483  0.1743 -0.1983
 1678SOL     OW 6483   6.273   0.419   4.059 -0.1557  0.0439  0.0692
 1678SOL    HW2 6484   6.253   0.368   3.981  0.5386 -0.2211  0.0536
 1678SOL    HW3 6485   6.236   0.505   4.042 -0.2502 -0.0945 -0.4331
 1678SOL    MW4 6486   6.265   0.423   4.047 -0.0766 -0.0094  0.0008
 1679SOL     OW 6487   3.326   0.835   4.810 -0.1803  0.6013  0.3235
 1679SOL    HW2 6488   3.346   0.780   4.886 -0.6154  0.1806  0.1379
 1679SOL    HW3 6489   3.231   0.826   4.798  0.1901 -1.5472 -1.9365
 1679SOL    MW4 6490   3.316   0.826   4.818 -0.1889  0.2623  0.0008
 1680SOL     OW 6491   4.889   3.731   5.477 -0.4136  0.2433 -0.2593
 1680SOL    HW2 6492   4.922   3.820   5.491 -0.6257  0.2372  0.3005
 1680SOL    HW3 6493   4.850   3.707   5.561 -0.7512 -0.2109 -0.5458
 1680SOL    MW4 6494   4.888   3.740   5.490 -0.4861  0.1825 -0.2232
 1681SOL     OW 6495   6.252   1.594   0.806  0.3967 -0.5251 -0.3291
 1681SOL    HW2 6496   6.167   1.567   0.841  0.2153  1.3330  0.8326
 1681SOL    HW3 6497   6.316   1.557   0.866  0.2669 -0.1332  0.0595
 1681SOL    MW4 6498   6.249   1.586   0.818  0.3556 -0.2283 -0.1246
 1682SOL     OW 6499   2.467   5.797   6.411  0.7144 -0.1615 -0.2878
 1682SOL    HW2 6500   2.374   5.772   6.402  0.6280  0.5209 -1.5144
 1682SOL    HW3 6501   2.512   5.714   6.426  0.0028 -0.6286 -0.6405
 1682SOL    MW4 6502   2.460   5.782   6.411  0.6092 -0.1331 -0.4961
 1683SOL     OW 6503   2.265   0.391   3.497 -0.0113 -1.0411 -0.2846
 1683SOL    HW2 6504   2.181   0.414   3.457 -0.4335  1.2125  1.6711
 1683SOL    HW3 6505   2.247   0.313   3.549 -0.7755 -0.8352 -0.2347
 1683SOL    MW4 6506   2.252   0.384   3.499 -0.1678 -0.7166 -0.0200
 1684SOL     OW 6507   2.937   0.718   5.242 -0.0200  0.0274  0.1760
 1684SOL    HW2 6508   2.959   0.787   5.305 -0.3714  0.8889 -0.6365
 1684SOL    HW3 6509   2.877   0.760   5.180  0.4746 -0.7591 -0.8514
 1684SOL    MW4 6510   2.932   0.733   5.242 -0.0011  0.0373 -0.0667
 1685SOL     OW 6511   3.992   3.356   5.819 -0.9884  0.2808 -0.0560
 1685SOL    HW2 6512   4.083   3.329   5.828 -1.4222 -1.0904  0.5026
 1685SOL    HW3 6513   3.994   3.451   5.826  0.2588  0.1877  1.3028
 1685SOL    MW4 6514   4.004   3.365   5.821 -0.8811  0.0876  0.1969
 1686SOL     OW 6515   3.295   0.300   5.079  0.0010 -0.4440 -0.2257
 1686SOL    HW2 6516   3.209   0.339   5.067 -0.2992 -1.4647 -1.7726
 1686SOL    HW3 6517   3.331   0.295   4.991  0.7996 -1.8393  0.1461
 1686SOL    MW4 6518   3.288   0.304   5.066  0.0667 -0.7628 -0.3807
 1687SOL     OW 6519   2.585   5.112   2.586  0.2170 -0.6213  0.7354
 1687SOL    HW2 6520   2.547   5.024   2.588 -1.1448 -0.0877  3.7590
 1687SOL    HW3 6521   2.518   5.168   2.627  1.4598  1.6663 -0.1571
 1687SOL    MW4 6522   2.571   5.108   2.591  0.2013 -0.2491  1.0165
 1688SOL     OW 6523   5.212   0.661   2.490  0.1578  0.3198  0.7858
 1688SOL    HW2 6524   5.290   0.706   2.458  0.8628 -1.0353  0.5557
 1688SOL    HW3 6525   5.160   0.645   2.412  0.3460 -0.0869  0.7425
 1688SOL    MW4 6526   5.215   0.665   2.476  0.2757  0.0873  0.7497
 1689SOL     OW 6527   5.059   0.790   2.745 -0.0477 -0.2514  0.0412
 1689SOL    HW2 6528   5.006   0.855   2.698  0.9289  1.7423  1.5096
 1689SOL    HW3 6529   5.139   0.782   2.692  0.2830  0.6119  0.3827
 1689SOL    MW4 6530   5.063   0.798   2.732  0.1248  0.1256  0.2800
 1690SOL     OW 6531   0.244   5.418   2.892 -0.3384 -0.2497 -0.0405
 1690SOL    HW2 6532   0.315   5.428   2.956 -0.5305  0.3734  0.0733
 1690SOL    HW3 6533   0.230   5.505   2.856 -0.1010 -0.6309 -1.0906
 1690SOL    MW4 6534   0.251   5.431   2.896 -0.3324 -0.2178 -0.1640
 1691SOL     OW 6535   4.371   0.299   4.128  0.1904 -0.5181  0.1450
 1691SOL    HW2 6536   4.442   0.274   4.069 -0.3487  0.8027 -1.1199
 1691SOL    HW3 6537   4.401   0.380   4.169 -1.1483  0.9057 -1.5549
 1691SOL    MW4 6538   4.384   0.306   4.125 -0.0574 -0.1560 -0.2461
 1692SOL     OW 6539   5.676   3.386   0.373  0.3134  0.1477  0.2055
 1692SOL    HW2 6540   5.665   3.295   0.345 -0.7249 -0.5608  2.6999
 1692SOL    HW3 6541   5.770   3.400   0.373  0.7075 -1.8897  2.4297
 1692SOL    MW4 6542   5.687   3.376   0.369  0.2284 -0.2146  0.8280
 1693SOL     OW 6543   4.047   4.733   0.212  0.6406 -0.1723  0.0266
 1693SOL    HW2 6544   4.086   4.701   0.131 -0.6490 -2.2058  0.1438
 1693SOL    HW3 6545   4.071   4.667   0.277 -1.3631 -0.4879  0.4913
 1693SOL    MW4 6546   4.055   4.720   0.210  0.2061 -0.4822  0.1034
 1694SOL     OW 6547   2.584   0.890   5.225 -0.5512 -0.4342 -0.0238
 1694SOL    HW2 6548   2.640   0.850   5.159  0.3490  0.3981  0.2045
 1694SOL    HW3 6549   2.510   0.830   5.234  0.5423 -1.8379  0.0379
 1694SOL    MW4 6550   2.582   0.877   5.218 -0.2881 -0.5096  0.0145
 1695SOL     OW 6551   3.829   1.545   5.900 -0.1509  0.4763  0.3155
 1695SOL    HW2 6552   3.813   1.466   5.952 -0.2199  0.1242 -0.2384
 1695SOL    HW3 6553   3.880   1.515   5.825  0.2445  1.0412  0.3500
 1695SOL    MW4 6554   3.834   1.531   5.897 -0.1078  0.5044  0.2469
 1696SOL     OW 6555   1.610   3.454   5.968 -0.1349  0.2224 -0.4421
 1696SOL    HW2 6556   1.589   3.520   6.035 -0.8759  0.5746 -1.0099
 1696SOL    HW3 6557   1.654   3.384   6.017 -1.8876 -0.1654  0.6899
 1696SOL    MW4 6558   1.613   3.454   5.984 -0.4639  0.2177 -0.3677
 1697SOL     OW 6559   6.111   4.444   4.909  0.0562 -0.2957  0.1935
 1697SOL    HW2 6560   6.126   4.390   4.832 -2.3720 -1.0189  0.1587
 1697SOL    HW3 6561   6.024   4.480   4.897  0.6452  1.6962  1.3966
 1697SOL    MW4 6562   6.102   4.442   4.898 -0.1864 -0.1283  0.3476
 1698SOL     OW 6563   3.048   5.881   4.503  0.0709 -0.0051 -0.4328
 1698SOL    HW2 6564   3.003   5.797   4.491 -0.6165  0.4036 -0.8637
 1698SOL    HW3 6565   3.061   5.889   4.597  1.7123 -1.3740 -0.5125
 1698SOL    MW4 6566   3.044   5.871   4.514  0.1968 -0.1318 -0.5002
 1699SOL     OW 6567   1.664   3.910   3.470 -1.0202 -0.2644 -0.0282
 1699SOL    HW2 6568   1.743   3.962   3.486 -0.3366 -0.3601 -2.6324
 1699SOL    HW3 6569   1.594   3.960   3.511  0.1815  0.5309  1.1652
 1699SOL    MW4 6570   1.665   3.923   3.477 -0.7714 -0.1721 -0.2144
 1700SOL     OW 6571   1.859   5.865   0.631 -0.8949 -0.4045  0.2068
 1700SOL    HW2 6572   1.945   5.833   0.657 -0.0115  1.4888 -0.2372
 1700SOL    HW3 6573   1.823   5.905   0.711 -0.9690 -0.3936  0.1683
 1700SOL    MW4 6574   1.866   5.866   0.645 -0.7881 -0.1533  0.1431
 1701SOL     OW 6575   4.230   1.844   1.507 -0.1649 -0.1856  0.2659
 1701SOL    HW2 6576   4.260   1.753   1.506  0.5227  0.0210  0.7988
 1701SOL    HW3 6577   4.240   1.874   1.417  2.0529  0.1037  0.5432
 1701SOL    MW4 6578   4.235   1.836   1.495  0.2184 -0.1202  0.3728
 1702SOL     OW 6579   6.046   4.672   4.361 -0.3581 -0.3683 -0.1880
 1702SOL    HW2 6580   6.064   4.585   4.326  0.2419  0.0097 -0.8268
 1702SOL    HW3 6581   6.023   4.724   4.285  0.3592  0.3133  0.0564
 1702SOL    MW4 6582   6.045   4.667   4.347 -0.1843 -0.2285 -0.2400
 1703SOL     OW 6583   5.072   5.278   0.970  0.8666 -0.1178 -0.3080
 1703SOL    HW2 6584   5.127   5.352   0.943  3.4037 -2.0151 -0.6595
 1703SOL    HW3 6585   5.092   5.267   1.063 -0.2796  0.1981  0.0013
 1703SOL    MW4 6586   5.082   5.287   0.979  1.0501 -0.3264 -0.3136
 1704SOL     OW 6587   2.558   4.854   5.009  0.3783  0.1266  0.2500
 1704SOL    HW2 6588   2.551   4.871   4.915  0.7382 -1.1679 -0.0258
 1704SOL    HW3 6589   2.497   4.783   5.026  0.5827  0.1010  0.9308
 1704SOL    MW4 6590   2.549   4.847   4.999  0.4527 -0.0476  0.3034
 1705SOL     OW 6591   5.041   3.012   2.959  0.0843  0.0984 -0.7277
 1705SOL    HW2 6592   5.114   2.951   2.957  0.9688  1.0648 -3.4037
 1705SOL    HW3 6593   5.053   3.063   3.039  0.3125 -1.9667  0.6379
 1705SOL    MW4 6594   5.052   3.011   2.969  0.2311 -0.0466 -0.9006
 1706SOL     OW 6595   1.867   0.263   0.474 -0.4049  0.2764 -0.1795
 1706SOL    HW2 6596   1.788   0.309   0.446  0.9312  2.7938 -0.0625
 1706SOL    HW3 6597   1.884   0.297   0.562 -0.0909 -1.5407  0.5119
 1706SOL    MW4 6598   1.859   0.273   0.482 -0.1872  0.3688 -0.0728
 1707SOL     OW 6599   2.586   3.874   4.528  0.1737 -0.0831 -0.0465
 1707SOL    HW2 6600   2.524   3.822   4.477 -0.5616  0.2214  0.5211
 1707SOL    HW3 6601   2.624   3.813   4.590 -1.0573  0.1386  0.9572
 1707SOL    MW4 6602   2.583   3.859   4.529 -0.0858 -0.0136  0.1608
 1708SOL     OW 6603   1.595   0.124   3.824  0.0781 -0.9736  0.4654
 1708SOL    HW2 6604   1.639   0.070   3.758 -1.7816 -0.2057 -1.5273
 1708SOL    HW3 6605   1.598   0.212   3.788 -2.1218 -0.7427  0.7591
 1708SOL    MW4 6606   1.601   0.128   3.810 -0.4575 -0.8418  0.2412
 1709SOL     OW 6607   2.372   3.592   3.344 -0.2553  0.1165 -0.3316
 1709SOL    HW2 6608   2.322   3.577   3.264  1.1983 -0.0066 -1.2596
 1709SOL    HW3 6609   2.361   3.512   3.396 -0.8989  0.0503 -0.5645
 1709SOL    MW4 6610   2.364   3.579   3.341 -0.1484  0.0915 -0.4848
 1710SOL     OW 6611   5.936   2.673   0.841  0.2349  0.2793 -0.8885
 1710SOL    HW2 6612   5.922   2.732   0.766 -0.2268  0.0679 -0.9721
 1710SOL    HW3 6613   5.942   2.586   0.802  0.3984  0.2122 -0.7140
 1710SOL    MW4 6614   5.935   2.669   0.826  0.1956  0.2426 -0.8765
 1711SOL     OW 6615   6.080   3.400   2.536  0.1297  0.6592 -0.0733
 1711SOL    HW2 6616   6.035   3.319   2.561  0.2013  1.4169  2.8483
 1711SOL    HW3 6617   6.172   3.384   2.556  0.0855  1.5463  0.9738
 1711SOL    MW4 6618   6.086   3.388   2.542  0.1333  0.8762  0.4503
 1712SOL     OW 6619   6.342   5.808   0.260 -0.5248 -0.5779 -0.3215
 1712SOL    HW2 6620   6.320   5.811   0.353 -2.6141 -2.2244 -0.6785
 1712SOL    HW3 6621   6.260   5.830   0.216  0.4310  0.1643 -1.7917
 1712SOL    MW4 6622   6.329   5.811   0.267 -0.6744 -0.6972 -0.5626
 1713SOL     OW 6623   5.132   5.040   5.260  0.4264 -0.2412  0.2537
 1713SOL    HW2 6624   5.197   5.086   5.207  2.0021 -1.7934  0.7544
 1713SOL    HW3 6625   5.076   4.997   5.196 -0.7425  1.8298 -0.2078
 1713SOL    MW4 6626   5.133   5.040   5.244  0.4800 -0.1727  0.2589
 1714SOL     OW 6627   2.674   2.387   6.280 -0.3281  0.2151  0.9179
 1714SOL    HW2 6628   2.685   2.333   6.202  0.9270  0.3928  0.9445
 1714SOL    HW3 6629   2.690   2.477   6.250 -0.6373  0.3774  1.2280
 1714SOL    MW4 6630   2.678   2.392   6.266 -0.2033  0.2600  0.9624
 1715SOL     OW 6631   4.007   0.553   3.239 -0.4404 -0.0425  0.0374
 1715SOL    HW2 6632   4.012   0.553   3.143 -1.2267  1.2269 -0.0346
 1715SOL    HW3 6633   4.036   0.466   3.265  0.5492 -0.1442 -1.3069
 1715SOL    MW4 6634   4.011   0.542   3.230 -0.4136  0.1116 -0.1494
 1716SOL     OW 6635   2.794   4.359   3.872 -0.2406 -0.1990  0.4242
 1716SOL    HW2 6636   2.791   4.280   3.925 -0.4307 -0.2353  0.3600
 1716SOL    HW3 6637   2.711   4.403   3.890  0.5749  0.8878  1.8535
 1716SOL    MW4 6638   2.783   4.355   3.882 -0.1581 -0.0604  0.6043
 1717SOL     OW 6639   4.706   0.863   3.097  0.6861  0.0910 -0.1450
 1717SOL    HW2 6640   4.787   0.819   3.072 -0.1086 -1.2293 -0.4481
 1717SOL    HW3 6641   4.685   0.918   3.021  0.9447 -0.0704 -0.3369
 1717SOL    MW4 6642   4.714   0.865   3.083  0.6153 -0.1045 -0.2103
 1718SOL     OW 6643   2.822   5.610   6.215 -0.1961 -0.4097 -0.2358
 1718SOL    HW2 6644   2.769   5.673   6.168 -1.6173 -0.9221  0.6094
 1718SOL    HW3 6645   2.831   5.536   6.155  0.3364  0.0345 -0.7160
 1718SOL    MW4 6646   2.816   5.608   6.201 -0.3133 -0.4187 -0.1876
 1719SOL     OW 6647   2.039   6.142   4.182  0.3514 -0.3368 -0.2032
 1719SOL    HW2 6648   2.031   6.062   4.131 -1.6546 -1.5241  1.7782
 1719SOL    HW3 6649   2.106   6.123   4.248 -0.7221 -0.7556  0.8016
 1719SOL    MW4 6650   2.047   6.129   4.184 -0.0549 -0.5487  0.1908
 1720SOL     OW 6651   3.371   4.016   2.693  0.3253 -0.9014 -0.2420
 1720SOL    HW2 6652   3.461   3.992   2.671  1.2142 -0.1984  2.2948
 1720SOL    HW3 6653   3.324   3.932   2.697  0.7418 -1.2557 -1.8255
 1720SOL    MW4 6654   3.377   4.002   2.690  0.4975 -0.8554 -0.1162
 1721SOL     OW 6655   5.764   0.975   4.793 -0.6129  0.2986 -0.6203
 1721SOL    HW2 6656   5.756   1.006   4.702  1.8307 -1.6815 -1.6200
 1721SOL    HW3 6657   5.797   1.051   4.841  0.0328  0.8307 -1.8405
 1721SOL    MW4 6658   5.767   0.989   4.787 -0.2053  0.1075 -0.9132
 1722SOL     OW 6659   5.647   2.038   1.107 -0.5440  0.4048  0.3534
 1722SOL    HW2 6660   5.694   2.120   1.122 -0.5724  0.5022 -0.0521
 1722SOL    HW3 6661   5.686   2.003   1.027 -0.0719 -0.3198  0.8877
 1722SOL    MW4 6662   5.659   2.044   1.098 -0.4855  0.3221  0.3704
 1723SOL     OW 6663   4.190   3.293   4.869  0.4665  0.5186 -0.2235
 1723SOL    HW2 6664   4.275   3.303   4.828  0.3677 -1.7989 -1.1929
 1723SOL    HW3 6665   4.135   3.359   4.827  1.4113  1.0298 -0.6904
 1723SOL    MW4 6666   4.194   3.303   4.858  0.5781  0.2803 -0.4130
 1724SOL     OW 6667   1.178   2.460   0.161 -0.4255  0.0831 -0.3259
 1724SOL    HW2 6668   1.213   2.410   0.235 -1.2519 -0.0805 -0.0452
 1724SOL    HW3 6669   1.207   2.411   0.084  1.4237  0.8591 -0.1976
 1724SOL    MW4 6670   1.187   2.447   0.161 -0.2906  0.1639 -0.2719
 1725SOL     OW 6671   3.980   2.517   6.031 -0.0417 -0.2300 -0.0846
 1725SOL    HW2 6672   3.927   2.512   5.952  0.4213  0.5571 -0.4609
 1725SOL    HW3 6673   3.933   2.465   6.095 -0.8779 -0.1525 -0.6238
 1725SOL    MW4 6674   3.967   2.509   6.029 -0.0909 -0.1159 -0.2054
 1726SOL     OW 6675   1.555   2.824   5.615  0.3276  0.8748 -0.2436
 1726SOL    HW2 6676   1.587   2.762   5.680 -0.4166 -0.3356 -0.9910
 1726SOL    HW3 6677   1.467   2.847   5.646  0.2208  0.7920 -0.4851
 1726SOL    MW4 6678   1.548   2.819   5.628  0.2153  0.7042 -0.3741
 1727SOL     OW 6679   1.897   3.833   4.992 -0.1875  0.1585 -0.3309
 1727SOL    HW2 6680   1.974   3.799   5.037 -1.0885 -0.4288  0.8267
 1727SOL    HW3 6681   1.872   3.911   5.042 -1.6656 -0.9453  0.7515
 1727SOL    MW4 6682   1.904   3.839   5.004 -0.5014 -0.0647 -0.0353
 1728SOL     OW 6683   1.952   4.297   5.094  0.0094 -0.3173 -0.1732
 1728SOL    HW2 6684   2.039   4.290   5.054 -0.4732 -0.4445 -1.2324
 1728SOL    HW3 6685   1.967   4.346   5.174  0.9766  0.1549 -0.6254
 1728SOL    MW4 6686   1.965   4.302   5.099  0.0733 -0.2718 -0.3726
 1729SOL     OW 6687   1.860   0.352   3.755 -0.3949 -0.5828 -0.6113
 1729SOL    HW2 6688   1.902   0.303   3.826 -1.5957 -0.4638  0.2120
 1729SOL    HW3 6689   1.773   0.372   3.788 -0.3862  0.9894 -1.4467
 1729SOL    MW4 6690   1.854   0.348   3.769 -0.5522 -0.3597 -0.6129
 1730SOL     OW 6691   5.362   2.986   4.968  0.3381 -0.1367 -0.0942
 1730SOL    HW2 6692   5.321   3.015   5.049 -0.0635 -1.3219  0.1350
 1730SOL    HW3 6693   5.372   3.067   4.916 -1.2597  0.3365  0.2897
 1730SOL    MW4 6694   5.358   3.001   4.971  0.0743 -0.2306 -0.0133
 1731SOL     OW 6695   3.162   3.605   0.697 -0.5405 -0.3976 -0.6946
 1731SOL    HW2 6696   3.138   3.526   0.745 -1.0186 -0.3085 -0.7793
 1731SOL    HW3 6697   3.233   3.643   0.748 -0.7303 -0.5522 -0.3089
 1731SOL    MW4 6698   3.168   3.600   0.710 -0.6287 -0.4062 -0.6549
 1732SOL     OW 6699   4.132   5.033   4.565  0.1316  0.4209 -0.1362
 1732SOL    HW2 6700   4.073   5.021   4.490 -0.0815 -2.0629  0.3258
 1732SOL    HW3 6701   4.220   5.031   4.527  0.0025  2.9659 -0.6940
 1732SOL    MW4 6702   4.136   5.031   4.550  0.0864  0.4290 -0.1488
 1733SOL     OW 6703   3.596   0.743   4.094  0.2625  0.2271  0.6967
 1733SOL    HW2 6704   3.659   0.720   4.025  0.0765 -1.6799  1.1127
 1733SOL    HW3 6705   3.625   0.829   4.125 -0.2131  1.6427 -2.3901
 1733SOL    MW4 6706   3.608   0.752   4.089  0.1752  0.1623  0.3443
 1734SOL     OW 6707   1.774   2.971   1.213 -0.1554  0.4206  0.3247
 1734SOL    HW2 6708   1.702   3.016   1.258  0.6462  0.6909  1.3609
 1734SOL    HW3 6709   1.839   2.954   1.281  0.5785 -0.2265 -0.5078
 1734SOL    MW4 6710   1.773   2.975   1.228  0.0472  0.3709  0.3516
 1735SOL     OW 6711   3.913   3.324   3.482 -0.0175 -0.1732 -0.0875
 1735SOL    HW2 6712   3.963   3.247   3.509 -1.1252 -0.9696 -0.2034
 1735SOL    HW3 6713   3.943   3.394   3.540  1.2116 -0.6157 -0.1738
 1735SOL    MW4 6714   3.923   3.323   3.494 -0.0015 -0.3367 -0.1142
 1736SOL     OW 6715   0.329   1.546   6.009 -0.6159  0.1046  0.4291
 1736SOL    HW2 6716   0.305   1.499   6.089 -0.4829  0.3383  0.6072
 1736SOL    HW3 6717   0.398   1.493   5.970 -1.8343 -0.9125 -0.4189
 1736SOL    MW4 6718   0.335   1.533   6.014 -0.7591  0.0012  0.3407
 1737SOL     OW 6719   5.317   1.606   5.658 -0.3703  0.3812 -0.0471
 1737SOL    HW2 6720   5.251   1.546   5.624 -0.3552  0.2116  0.2225
 1737SOL    HW3 6721   5.318   1.679   5.596  0.7722 -0.6571 -1.3345
 1737SOL    MW4 6722   5.309   1.608   5.645 -0.2175  0.2219 -0.1814
 1738SOL     OW 6723   1.449   5.168   6.405  0.6621  0.3094  0.1847
 1738SOL    HW2 6724   1.453   5.224   6.483  1.3972  0.6890 -0.1181
 1738SOL    HW3 6725   1.416   5.226   6.336  0.4651  0.0984  0.1014
 1738SOL    MW4 6726   1.445   5.183   6.406  0.7331  0.3316  0.1338
 1739SOL     OW 6727   5.402   5.025   6.140  0.0763  0.6081 -0.6480
 1739SOL    HW2 6728   5.481   4.986   6.104  0.5756  0.4420  0.5758
 1739SOL    HW3 6729   5.341   4.952   6.150 -0.0342  0.6417 -1.0584
 1739SOL    MW4 6730   5.404   5.010   6.137  0.1276  0.5907 -0.5407
 1740SOL     OW 6731   2.947   1.585   1.802 -0.5460  0.0185  0.1541
 1740SOL    HW2 6732   2.974   1.516   1.863 -1.4693 -0.2280  0.2956
 1740SOL    HW3 6733   2.943   1.664   1.855 -0.0093  0.0859  0.1053
 1740SOL    MW4 6734   2.950   1.587   1.817 -0.5970 -0.0051  0.1664
 1741SOL     OW 6735   5.074   5.116   0.101 -0.0713  0.3581 -0.3158
 1741SOL    HW2 6736   5.138   5.180   0.069  0.6568 -0.2319 -0.0561
 1741SOL    HW3 6737   5.012   5.168   0.152 -0.5050  1.1174 -1.5582
 1741SOL    MW4 6738   5.074   5.131   0.103 -0.0324  0.3805 -0.4455
 1742SOL     OW 6739   5.183   0.123   0.474 -0.1485  0.5843  0.5610
 1742SOL    HW2 6740   5.245   0.189   0.443  0.3881 -0.2709 -0.2393
 1742SOL    HW3 6741   5.099   0.168   0.475  0.2161  1.2993  0.0799
 1742SOL    MW4 6742   5.180   0.138   0.470 -0.0296  0.5658  0.3920
 1743SOL     OW 6743   4.962   3.879   0.393  0.1976  0.0252 -0.9676
 1743SOL    HW2 6744   4.866   3.889   0.392  0.2161  1.0233  1.2153
 1743SOL    HW3 6745   4.985   3.867   0.301 -2.0460 -0.5087 -1.5398
 1743SOL    MW4 6746   4.952   3.879   0.381 -0.0960  0.0864 -0.7551
 1744SOL     OW 6747   4.157   0.858   4.465  0.3607  0.2575  0.0549
 1744SOL    HW2 6748   4.190   0.829   4.550 -0.7859 -1.0568  0.0993
 1744SOL    HW3 6749   4.082   0.914   4.486  0.0860 -0.0554 -0.0617
 1744SOL    MW4 6750   4.151   0.861   4.479  0.1732  0.0428  0.0454
 1745SOL     OW 6751   2.294   0.896   6.004  0.1122  0.5105  0.2412
 1745SOL    HW2 6752   2.281   0.943   5.922  0.0236 -2.2660 -1.4967
 1745SOL    HW3 6753   2.205   0.876   6.034  0.1383 -0.0951 -0.0569
 1745SOL    MW4 6754   2.280   0.899   5.997  0.1039  0.0643 -0.0274
 1746SOL     OW 6755   4.044   3.282   2.870  0.2952  0.4772  0.4190
 1746SOL    HW2 6756   4.073   3.339   2.941 -1.6044  1.5193  0.4267
 1746SOL    HW3 6757   3.962   3.244   2.901  0.4110 -0.5626 -0.4754
 1746SOL    MW4 6758   4.037   3.285   2.883  0.0599  0.4775  0.3020
 1747SOL     OW 6759   4.592   0.539   4.902 -0.5226  0.0381  0.1702
 1747SOL    HW2 6760   4.639   0.610   4.947  0.7916 -1.1988  0.8514
 1747SOL    HW3 6761   4.505   0.538   4.941 -0.5005  1.1625  0.2626
 1747SOL    MW4 6762   4.587   0.548   4.913 -0.3463  0.0233  0.2723
 1748SOL     OW 6763   0.128   4.614   2.518  0.7313 -0.5970 -0.2306
 1748SOL    HW2 6764   0.123   4.672   2.594 -0.8377 -1.1417  0.1299
 1748SOL    HW3 6765   0.125   4.673   2.443 -2.2292 -0.1763  0.1109
 1748SOL    MW4 6766   0.127   4.629   2.518  0.1337 -0.6134 -0.1380
 1749SOL     OW 6767   2.439   0.574   3.123  0.5592  0.0994 -0.1182
 1749SOL    HW2 6768   2.432   0.488   3.165 -0.5731  0.4209  0.3968
 1749SOL    HW3 6769   2.402   0.561   3.036  1.6913 -0.2557 -0.5610
 1749SOL    MW4 6770   2.433   0.561   3.117  0.5592  0.0949 -0.1086
 1750SOL     OW 6771   0.801   4.841   3.143 -0.6201 -0.4654 -0.2992
 1750SOL    HW2 6772   0.766   4.846   3.054 -0.9139 -1.0938 -0.2256
 1750SOL    HW3 6773   0.896   4.840   3.131 -0.5581  1.9246 -0.4664
 1750SOL    MW4 6774   0.809   4.841   3.130 -0.6507 -0.2330 -0.3115
 1751SOL     OW 6775   4.919   3.324   1.631 -0.1180 -0.6345 -0.2425
 1751SOL    HW2 6776   5.010   3.349   1.614 -0.6523  0.7079 -1.3375
 1751SOL    HW3 6777   4.888   3.292   1.547 -0.4877 -1.7197  0.2916
 1751SOL    MW4 6778   4.927   3.323   1.618 -0.2373 -0.6006 -0.3165
 1752SOL     OW 6779   3.269   4.052   1.940  0.1153  0.2798 -0.1989
 1752SOL    HW2 6780   3.237   4.134   1.979 -0.0804  1.0672 -1.8980
 1752SOL    HW3 6781   3.284   3.994   2.015 -1.6407  1.1810  0.9386
 1752SOL    MW4 6782   3.267   4.055   1.955 -0.1422  0.5026 -0.2730
 1753SOL     OW 6783   2.821   3.010   5.877 -0.7279  0.0790  0.5631
 1753SOL    HW2 6784   2.809   2.930   5.928  1.8788 -1.6926 -1.3721
 1753SOL    HW3 6785   2.883   3.062   5.929  0.8229 -1.1023  0.0005
 1753SOL    MW4 6786   2.828   3.006   5.891 -0.1793 -0.3106  0.2336
 1754SOL     OW 6787   2.556   0.950   0.440 -0.3432  0.0069 -0.2797
 1754SOL    HW2 6788   2.562   1.042   0.468  0.8168  0.0849 -0.6998
 1754SOL    HW3 6789   2.604   0.948   0.357 -0.1955 -1.0114 -0.1764
 1754SOL    MW4 6790   2.563   0.962   0.433 -0.1707 -0.1172 -0.3215
 1755SOL     OW 6791   3.637   5.699   3.679  0.2160 -0.2454 -0.1229
 1755SOL    HW2 6792   3.563   5.639   3.681  1.3594 -1.6919  1.2802
 1755SOL    HW3 6793   3.636   5.741   3.766 -0.0967  1.2172 -0.8023
 1755SOL    MW4 6794   3.627   5.697   3.691  0.3256 -0.2433 -0.0274
 1756SOL     OW 6795   3.518   0.825   2.984  0.2075 -0.6088  1.0189
 1756SOL    HW2 6796   3.554   0.891   3.043  0.3747  0.5839 -0.3755
 1756SOL    HW3 6797   3.592   0.766   2.967 -0.0362 -1.4022  2.5408
 1756SOL    MW4 6798   3.533   0.826   2.989  0.1974 -0.5561  1.0358
 1757SOL     OW 6799   1.382   5.548   3.025 -0.5288  0.4062 -0.1508
 1757SOL    HW2 6800   1.465   5.500   3.023 -0.5835  0.2439  0.7211
 1757SOL    HW3 6801   1.393   5.619   2.962  1.3273  2.0629  1.8712
 1757SOL    MW4 6802   1.394   5.551   3.017 -0.2911  0.6033  0.2310
 1758SOL     OW 6803   1.791   5.070   2.355  0.0337 -0.0001  0.2476
 1758SOL    HW2 6804   1.871   5.021   2.335  1.0792  1.3822  0.8938
 1758SOL    HW3 6805   1.749   5.020   2.426  0.2947 -0.7582 -0.1265
 1758SOL    MW4 6806   1.796   5.057   2.362  0.2061  0.0823  0.2835
 1759SOL     OW 6807   5.543   4.246   4.496  0.0607  0.5566  0.6443
 1759SOL    HW2 6808   5.551   4.341   4.500 -0.6480  0.6520  0.0817
 1759SOL    HW3 6809   5.451   4.231   4.474  0.4352 -0.2265 -0.4749
 1759SOL    MW4 6810   5.532   4.257   4.494  0.0166  0.4659  0.4224
 1760SOL     OW 6811   5.237   5.194   2.214 -0.0757 -0.1020  0.1801
 1760SOL    HW2 6812   5.293   5.128   2.253 -0.6580  0.0023  1.2181
 1760SOL    HW3 6813   5.247   5.181   2.119  1.3582 -0.3453  0.3477
 1760SOL    MW4 6814   5.246   5.183   2.206  0.0367 -0.1204  0.3391
 1761SOL     OW 6815   3.301   3.728   0.082  0.3720 -0.4824  0.1392
 1761SOL    HW2 6816   3.356   3.804   0.062  0.9998 -0.2762  2.3797
 1761SOL    HW3 6817   3.224   3.766   0.124 -0.0584 -1.0094 -0.1578
 1761SOL    MW4 6818   3.298   3.743   0.085  0.3981 -0.5247  0.3956
 1762SOL     OW 6819   6.305   0.286   2.208 -0.1606 -0.0992 -0.4953
 1762SOL    HW2 6820   6.326   0.256   2.119  0.0517 -2.6054  0.3169
 1762SOL    HW3 6821   6.211   0.300   2.206 -0.7860 -3.4609 -0.3485
 1762SOL    MW4 6822   6.296   0.284   2.196 -0.2151 -0.8734 -0.3688
 1763SOL     OW 6823   0.132   1.318   1.254 -0.4242 -0.0734  0.1019
 1763SOL    HW2 6824   0.188   1.277   1.319  0.5496  1.2269  0.1141
 1763SOL    HW3 6825   0.134   1.258   1.179  0.9130 -0.0949  0.1411
 1763SOL    MW4 6826   0.139   1.304   1.252 -0.1193  0.0953  0.1087
 1764SOL     OW 6827   0.931   4.272   3.732 -0.0673  0.3012 -0.0278
 1764SOL    HW2 6828   0.863   4.211   3.705 -0.9964 -0.2846  3.2198
 1764SOL    HW3 6829   0.976   4.228   3.804  2.2351  1.6605 -0.5095
 1764SOL    MW4 6830   0.928   4.258   3.738  0.1139  0.4033  0.3371
 1765SOL     OW 6831   3.746   0.334   2.912  0.5485  0.3746 -0.1858
 1765SOL    HW2 6832   3.840   0.336   2.894  0.8862 -2.8418  0.5864
 1765SOL    HW3 6833   3.706   0.367   2.832  2.2945 -0.6956 -1.5801
 1765SOL    MW4 6834   3.753   0.339   2.899  0.8234 -0.1909 -0.2679
 1766SOL     OW 6835   3.705   5.704   1.581  0.8871  0.8373 -0.0624
 1766SOL    HW2 6836   3.658   5.762   1.521  0.2755 -0.6147 -1.0354
 1766SOL    HW3 6837   3.797   5.713   1.556  0.8373  1.5926 -0.0033
 1766SOL    MW4 6838   3.711   5.713   1.570  0.7998  0.7453 -0.1830
 1767SOL     OW 6839   4.889   3.272   5.641  0.6799  0.6184 -0.0375
 1767SOL    HW2 6840   4.842   3.223   5.708  1.2931  1.0041  0.7014
 1767SOL    HW3 6841   4.977   3.234   5.641  1.1961  1.7334  0.6177
 1767SOL    MW4 6842   4.895   3.261   5.650  0.8289  0.8164  0.1464
 1768SOL     OW 6843   3.526   1.482   0.757  0.1438 -0.0116  0.2660
 1768SOL    HW2 6844   3.524   1.546   0.686 -0.0206 -0.8562 -0.5132
 1768SOL    HW3 6845   3.449   1.502   0.810  0.4808  0.8702  0.4384
 1768SOL    MW4 6846   3.516   1.493   0.755  0.1666 -0.0067  0.1859
 1769SOL     OW 6847   5.548   0.216   5.270  0.2851  0.0596 -0.1384
 1769SOL    HW2 6848   5.545   0.286   5.335  0.7510 -0.2295  0.2033
 1769SOL    HW3 6849   5.617   0.243   5.210  0.4676 -0.1043 -0.0042
 1769SOL    MW4 6850   5.557   0.229   5.271  0.3706 -0.0002 -0.0756
 1770SOL     OW 6851   5.681   5.438   4.790 -0.2416 -0.1515  0.3373
 1770SOL    HW2 6852   5.729   5.359   4.765  0.9026  0.8532 -0.7703
 1770SOL    HW3 6853   5.611   5.407   4.847  0.0258 -1.9888 -0.2895
 1770SOL    MW4 6854   5.678   5.424   4.795 -0.0554 -0.2614  0.1085
 1771SOL     OW 6855   0.939   4.836   5.907  0.5222  0.6377  0.3465
 1771SOL    HW2 6856   0.997   4.905   5.941  0.0009  0.3415  1.9098
 1771SOL    HW3 6857   0.917   4.865   5.818  1.3156  1.8461  0.5163
 1771SOL    MW4 6858   0.944   4.849   5.899  0.5581  0.7581  0.5752
 1772SOL     OW 6859   0.355   6.337   3.664 -0.0118  0.3275  0.5772
 1772SOL    HW2 6860   0.367   6.272   3.595  1.6485 -0.1479  1.2723
 1772SOL    HW3 6861   0.272   6.379   3.643  0.2110 -0.1390 -1.4257
 1772SOL    MW4 6862   0.346   6.334   3.652  0.2366  0.2032  0.4047
 1773SOL     OW 6863   2.668   1.550   1.987 -0.4255 -0.7625  0.0004
 1773SOL    HW2 6864   2.746   1.512   1.947 -0.3191 -0.7312  0.1808
 1773SOL    HW3 6865   2.655   1.633   1.941 -0.1437 -0.5964  0.2211
 1773SOL    MW4 6866   2.676   1.556   1.975 -0.3743 -0.7365  0.0533
 1774SOL     OW 6867   4.924   1.000   5.579 -0.4167  0.4297 -0.0313
 1774SOL    HW2 6868   4.927   1.010   5.674 -1.9809  1.7845 -0.0673
 1774SOL    HW3 6869   5.013   1.019   5.549  0.7981 -2.5488  1.2914
 1774SOL    MW4 6870   4.936   1.004   5.587 -0.4628  0.2155  0.1385
 1775SOL     OW 6871   3.119   5.548   3.557  0.0761  0.3428  0.3689
 1775SOL    HW2 6872   3.181   5.523   3.489 -1.5112  1.3625 -1.5386
 1775SOL    HW3 6873   3.143   5.639   3.579  0.6997 -0.0394  1.3679
 1775SOL    MW4 6874   3.130   5.557   3.551 -0.0510  0.4269  0.2490
 1776SOL     OW 6875   4.882   1.128   2.380  0.0565 -0.1299  0.0432
 1776SOL    HW2 6876   4.893   1.040   2.345  1.5393  0.5751 -1.4207
 1776SOL    HW3 6877   4.869   1.183   2.302 -1.4758  0.9003  0.9527
 1776SOL    MW4 6878   4.881   1.124   2.365  0.0500  0.0990 -0.0299
 1777SOL     OW 6879   3.011   5.110   5.742 -0.5098  0.0038 -0.1927
 1777SOL    HW2 6880   3.090   5.155   5.772  0.1198 -0.7158 -0.7435
 1777SOL    HW3 6881   2.956   5.105   5.820 -0.0247  0.5296  0.1967
 1777SOL    MW4 6882   3.014   5.115   5.756 -0.3627 -0.0218 -0.2140
 1778SOL     OW 6883   5.721   6.389   4.700 -0.0352  0.3268  0.0738
 1778SOL    HW2 6884   5.728   6.446   4.624 -0.6504 -0.6135 -0.7122
 1778SOL    HW3 6885   5.668   6.315   4.670 -0.0562 -0.1979  1.3363
 1778SOL    MW4 6886   5.715   6.386   4.686 -0.1191  0.1335  0.1367
 1779SOL     OW 6887   4.535   0.748   4.018  0.0128  0.0459 -1.0303
 1779SOL    HW2 6888   4.516   0.654   4.016  0.2124 -0.0243 -0.1457
 1779SOL    HW3 6889   4.456   0.788   4.055  0.3942  0.0834 -0.2370
 1779SOL    MW4 6890   4.522   0.740   4.023  0.0895  0.0416 -0.8089
 1780SOL     OW 6891   6.303   5.639   1.130 -0.8780 -0.0853 -0.3328
 1780SOL    HW2 6892   6.379   5.693   1.152 -1.1029  0.3618 -0.6247
 1780SOL    HW3 6893   6.254   5.634   1.212  0.3205 -1.8340  0.3321
 1780SOL    MW4 6894   6.307   5.645   1.144 -0.7496 -0.2570 -0.2836
 1781SOL     OW 6895   5.065   4.537   3.492  0.1418  0.9646  0.3349
 1781SOL    HW2 6896   4.979   4.580   3.491  0.0341  0.7655 -0.8147
 1781SOL    HW3 6897   5.047   4.448   3.522 -0.3612  0.3902 -1.5259
 1781SOL    MW4 6898   5.051   4.531   3.496  0.0612  0.8625 -0.0623
 1782SOL     OW 6899   3.132   0.156   1.311 -0.5929  0.0448  0.1902
 1782SOL    HW2 6900   3.150   0.074   1.357  0.0820  0.2361  0.2680
 1782SOL    HW3 6901   3.039   0.151   1.290 -1.1581  0.3365  2.3528
 1782SOL    MW4 6902   3.122   0.145   1.315 -0.5784  0.1085  0.4858
 1783SOL     OW 6903   2.334   4.336   4.748  0.0173  0.1578 -0.4225
 1783SOL    HW2 6904   2.387   4.263   4.715  1.4688  0.2360  1.5477
 1783SOL    HW3 6905   2.327   4.320   4.842 -1.2802  1.5708 -0.2370
 1783SOL    MW4 6906   2.340   4.325   4.756  0.0376  0.3545 -0.1381
 1784SOL     OW 6907   0.791   1.374   6.171  0.1598  0.4297 -0.5628
 1784SOL    HW2 6908   0.701   1.343   6.178  0.7660 -1.4918 -0.6442
 1784SOL    HW3 6909   0.802   1.433   6.246  0.1806 -3.0540  2.4593
 1784SOL    MW4 6910   0.781   1.378   6.182  0.2425 -0.2834 -0.1748
 1785SOL     OW 6911   1.079   4.755   0.826 -0.1231  0.1102 -0.0031
 1785SOL    HW2 6912   1.085   4.674   0.774  0.2303 -1.1511  1.8860
 1785SOL    HW3 6913   1.136   4.817   0.780 -0.5518 -0.6386 -1.6080
 1785SOL    MW4 6914   1.087   4.752   0.813 -0.1330 -0.1550  0.0344
 1786SOL     OW 6915   0.316   5.446   3.339 -0.3630  0.2105  0.0022
 1786SOL    HW2 6916   0.248   5.505   3.307  0.7239  1.6839  0.2667
 1786SOL    HW3 6917   0.278   5.403   3.415 -1.5068 -0.1338 -0.7492
 1786SOL    MW4 6918   0.302   5.448   3.345 -0.3705  0.3594 -0.0621
 1787SOL     OW 6919   4.304   2.861   5.539  0.9903  0.8396 -0.0672
 1787SOL    HW2 6920   4.227   2.912   5.564 -0.0995 -1.3882  1.4422
 1787SOL    HW3 6921   4.286   2.834   5.449 -0.1188  0.2149  0.3142
 1787SOL    MW4 6922   4.291   2.864   5.531  0.7002  0.4632  0.1823
 1788SOL     OW 6923   3.607   0.168   4.962 -0.0993  0.4990  0.0724
 1788SOL    HW2 6924   3.561   0.126   4.890  1.1883  0.3924 -0.7142
 1788SOL    HW3 6925   3.538   0.191   5.024 -0.9731 -1.6349 -0.0319
 1788SOL    MW4 6926   3.592   0.166   4.961 -0.0447  0.2034 -0.0452
 1789SOL     OW 6927   3.907   5.578   1.892  0.0437  0.3744  0.3921
 1789SOL    HW2 6928   3.833   5.638   1.891 -0.4824 -0.2729 -0.8303
 1789SOL    HW3 6929   3.983   5.632   1.870 -0.3131  0.7271  0.0251
 1789SOL    MW4 6930   3.907   5.593   1.889 -0.0728  0.3355  0.1824
 1790SOL     OW 6931   2.209   0.693   5.550 -0.1475  1.3116  0.1609
 1790SOL    HW2 6932   2.300   0.709   5.574 -0.0608  1.0486  0.0175
 1790SOL    HW3 6933   2.213   0.620   5.487 -0.5172  0.7815  0.7324
 1790SOL    MW4 6934   2.221   0.685   5.545 -0.1848  1.2070  0.2174
 1791SOL     OW 6935   3.189   3.214   0.296  0.5141  0.4236  0.1284
 1791SOL    HW2 6936   3.096   3.226   0.316  0.5141  0.6625 -0.0136
 1791SOL    HW3 6937   3.212   3.288   0.239  0.9144  0.6553  0.5774
 1791SOL    MW4 6938   3.180   3.226   0.291  0.5669  0.4857  0.1689
 1792SOL     OW 6939   4.983   3.013   2.431 -0.1878  0.5594 -0.0859
 1792SOL    HW2 6940   5.067   3.056   2.443 -0.5448  1.8357 -1.7700
 1792SOL    HW3 6941   4.940   3.062   2.361 -1.8478 -0.7838 -0.0951
 1792SOL    MW4 6942   4.988   3.025   2.424 -0.4539  0.5506 -0.3093
 1793SOL     OW 6943   5.619   6.175   5.520 -0.7883  0.4864 -0.2358
 1793SOL    HW2 6944   5.703   6.150   5.559 -1.3885 -0.7089  0.3681
 1793SOL    HW3 6945   5.638   6.252   5.467  0.4531  0.9387  0.8349
 1793SOL    MW4 6946   5.632   6.182   5.518 -0.7037  0.3884 -0.0149
 1794SOL     OW 6947   6.186   5.153   6.418  0.6275 -0.1817  0.3630
 1794SOL    HW2 6948   6.122   5.224   6.413  3.3304  2.4512  0.2418
 1794SOL    HW3 6949   6.237   5.162   6.337  1.9347 -1.3188  1.0228
 1794SOL    MW4 6950   6.185   5.164   6.406  1.1566  0.0156  0.4340
 1795SOL     OW 6951   0.202   0.730   6.358 -0.3882 -0.0757 -0.8905
 1795SOL    HW2 6952   0.176   0.736   6.450 -0.7119  2.3165 -1.0870
 1795SOL    HW3 6953   0.293   0.699   6.361 -0.0470  0.9749  0.3003
 1795SOL    MW4 6954   0.211   0.727   6.370 -0.3858  0.3785 -0.7593
 1796SOL     OW 6955   4.173   1.752   5.916 -0.2834  0.5804  0.3238
 1796SOL    HW2 6956   4.196   1.837   5.952 -0.2360  0.3390  0.8882
 1796SOL    HW3 6957   4.121   1.710   5.985 -0.4327  0.2128 -0.0060
 1796SOL    MW4 6958   4.169   1.757   5.930 -0.2969  0.5000  0.3548
 1797SOL     OW 6959   5.322   3.897   6.117  0.1174 -0.6876 -0.2744
 1797SOL    HW2 6960   5.381   3.824   6.137  0.2715 -0.1724  1.2910
 1797SOL    HW3 6961   5.270   3.866   6.043  2.1934 -1.2252 -1.5730
 1797SOL    MW4 6962   5.323   3.883   6.110  0.4116 -0.6905 -0.2392
 1798SOL     OW 6963   0.600   6.181   1.259  0.5692 -0.1886 -0.1588
 1798SOL    HW2 6964   0.641   6.267   1.253 -0.5811  0.4547  0.8198
 1798SOL    HW3 6965   0.593   6.164   1.353  0.9223 -1.4349 -0.3373
 1798SOL    MW4 6966   0.605   6.190   1.271  0.4640 -0.2681 -0.0532
 1799SOL     OW 6967   5.152   2.742   4.655 -0.0537 -0.0781 -0.4246
 1799SOL    HW2 6968   5.124   2.824   4.614 -0.1770  0.7496  1.2545
 1799SOL    HW3 6969   5.242   2.759   4.684  0.1390 -0.7529 -0.6108
 1799SOL    MW4 6970   5.160   2.755   4.653 -0.0446 -0.0579 -0.2276
 1800SOL     OW 6971   5.842   2.917   4.349 -0.0615 -0.1849  1.2594
 1800SOL    HW2 6972   5.810   2.996   4.304 -1.1596 -0.2641  1.8638
 1800SOL    HW3 6973   5.817   2.845   4.291  1.6575 -0.0807  0.3049
 1800SOL    MW4 6974   5.835   2.918   4.335  0.0204 -0.1816  1.2132
 1801SOL     OW 6975   2.794   5.453   0.019  1.0493  0.1855  0.0162
 1801SOL    HW2 6976   2.833   5.505  -0.052  2.2031 -0.7304 -0.0505
 1801SOL    HW3 6977   2.772   5.370  -0.023 -0.4576  0.4685  0.2065
 1801SOL    MW4 6978   2.796   5.449   0.004  1.0027  0.1020  0.0325
 1802SOL     OW 6979   0.826   5.642   4.239  0.6552 -0.4571  0.2410
 1802SOL    HW2 6980   0.819   5.734   4.213  0.3696 -0.8824 -1.2985
 1802SOL    HW3 6981   0.918   5.621   4.226  0.2895 -1.0139 -1.8141
 1802SOL    MW4 6982   0.837   5.652   4.234  0.5693 -0.5867 -0.2332
 1803SOL     OW 6983   2.933   2.915   1.103  0.0262 -0.0149  0.2063
 1803SOL    HW2 6984   2.932   2.820   1.120  2.3804  0.1052  1.2668
 1803SOL    HW3 6985   2.899   2.954   1.184  0.1973  0.1001  0.2220
 1803SOL    MW4 6986   2.928   2.907   1.116  0.3594  0.0161  0.3483
 1804SOL     OW 6987   5.688   1.566   4.405  0.0050 -0.3503 -0.0386
 1804SOL    HW2 6988   5.702   1.509   4.481  0.3021 -1.4768 -0.9120
 1804SOL    HW3 6989   5.707   1.510   4.329 -0.0407  0.8199 -0.9382
 1804SOL    MW4 6990   5.693   1.551   4.405  0.0381 -0.3445 -0.2725
 1805SOL     OW 6991   3.367   3.241   2.031 -0.3902  0.1477 -0.0719
 1805SOL    HW2 6992   3.441   3.294   2.062  0.2922 -1.2764  0.8575
 1805SOL    HW3 6993   3.405   3.155   2.013 -2.0417 -1.0806  1.8651
 1805SOL    MW4 6994   3.382   3.237   2.033 -0.5181 -0.2022  0.3063
 1806SOL     OW 6995   2.080   0.448   4.122 -0.4757  0.2283  0.0678
 1806SOL    HW2 6996   2.028   0.379   4.164 -0.3655 -1.6458 -2.5956
 1806SOL    HW3 6997   2.164   0.407   4.104 -0.4693  0.9397 -1.7414
 1806SOL    MW4 6998   2.084   0.434   4.125 -0.4603  0.0749 -0.5223
 1807SOL     OW 6999   0.909   4.204   1.906  0.1313  0.2262 -0.4602
 1807SOL    HW2 7000   0.971   4.134   1.925 -0.3982  0.0287  0.5693
 1807SOL    HW3 7001   0.823   4.163   1.913 -0.3438  1.4707  2.6647
 1807SOL    MW4 7002   0.906   4.190   1.909 -0.0012  0.3644  0.0879
 1808SOL     OW 7003   0.581   3.609   2.193  0.1482 -0.4412  0.6311
 1808SOL    HW2 7004   0.531   3.533   2.223 -0.1351 -1.2842 -1.7166
 1808SOL    HW3 7005   0.672   3.590   2.218  0.0028 -1.3160  0.5207
 1808SOL    MW4 7006   0.587   3.596   2.200  0.0916 -0.6678  0.3068
 1809SOL     OW 7007   5.213   5.326   0.344  0.1472 -0.0962 -0.4447
 1809SOL    HW2 7008   5.281   5.259   0.354  0.8910  0.7369  0.3266
 1809SOL    HW3 7009   5.132   5.281   0.366  0.5682 -0.8821 -0.4455
 1809SOL    MW4 7010   5.211   5.311   0.348  0.3009 -0.0900 -0.3431
 1810SOL     OW 7011   0.573   3.969   3.904  0.0858 -0.2970 -0.0858
 1810SOL    HW2 7012   0.637   4.014   3.959  1.1657 -3.4985  1.5410
 1810SOL    HW3 7013   0.502   4.033   3.893  1.0403  1.4781  2.8080
 1810SOL    MW4 7014   0.572   3.984   3.910  0.3542 -0.4852  0.5106
 1811SOL     OW 7015   2.096   5.877   4.549 -0.2746  0.2811  0.6274
 1811SOL    HW2 7016   2.008   5.892   4.513 -0.6563  0.9485  1.7947
 1811SOL    HW3 7017   2.154   5.929   4.494 -0.3996 -1.2249 -1.0148
 1811SOL    MW4 7018   2.092   5.886   4.537 -0.3415  0.1705  0.5647
 1812SOL     OW 7019   5.434   6.203   3.367 -0.2535 -0.1772  0.3261
 1812SOL    HW2 7020   5.436   6.295   3.394 -1.5764 -0.0668  0.1310
 1812SOL    HW3 7021   5.417   6.155   3.448 -2.1881 -0.0098  0.0669
 1812SOL    MW4 7022   5.432   6.209   3.382 -0.6833 -0.1406  0.2662
 1813SOL     OW 7023   4.556   2.963   5.431 -0.6773  0.1075 -0.7473
 1813SOL    HW2 7024   4.562   3.059   5.436  0.6912 -0.0044  0.0952
 1813SOL    HW3 7025   4.473   2.943   5.474 -1.2547  0.9383 -1.4248
 1813SOL    MW4 7026   4.546   2.973   5.437 -0.5730  0.2023 -0.7255
 1814SOL     OW 7027   0.466   2.882   5.043  0.2529 -0.1869 -0.4555
 1814SOL    HW2 7028   0.437   2.944   4.976 -0.8859  0.1341  0.3161
 1814SOL    HW3 7029   0.476   2.799   4.995  0.7393  0.3252 -1.2738
 1814SOL    MW4 7030   0.464   2.879   5.028  0.1668 -0.0770 -0.4617
 1815SOL     OW 7031   3.093   2.856   0.339  0.2560  0.3279  0.4139
 1815SOL    HW2 7032   3.052   2.894   0.262 -1.2992 -1.7495  0.1372
 1815SOL    HW3 7033   3.073   2.917   0.410 -1.1001  0.6528 -0.2330
 1815SOL    MW4 7034   3.085   2.869   0.338 -0.1281  0.0967  0.2920
 1816SOL     OW 7035   0.418   4.737   1.079  0.1748 -0.5104 -0.6169
 1816SOL    HW2 7036   0.345   4.676   1.064 -1.3229  0.7998  0.9695
 1816SOL    HW3 7037   0.454   4.711   1.164  1.1776 -0.7440 -1.0983
 1816SOL    MW4 7038   0.413   4.725   1.088  0.1095 -0.3684 -0.4711
 1817SOL     OW 7039   0.636   0.453   1.047  0.3320  0.3198 -0.3425
 1817SOL    HW2 7040   0.545   0.431   1.027 -0.1559  1.3392  0.6027
 1817SOL    HW3 7041   0.682   0.370   1.046 -0.6904 -0.2647 -0.4746
 1817SOL    MW4 7042   0.630   0.439   1.045  0.1327  0.3772 -0.2352
 1818SOL     OW 7043   5.650   5.685   0.750 -0.0944 -0.5133 -0.2706
 1818SOL    HW2 7044   5.659   5.594   0.779  0.8777 -0.5178 -0.5368
 1818SOL    HW3 7045   5.561   5.690   0.714  0.3608 -1.8101 -1.7101
 1818SOL    MW4 7046   5.640   5.673   0.749  0.0939 -0.6850 -0.4957
 1819SOL     OW 7047   2.575   3.152   0.642 -0.0359 -0.3198 -0.3046
 1819SOL    HW2 7048   2.577   3.244   0.617 -1.1699  0.5426  2.3973
 1819SOL    HW3 7049   2.597   3.152   0.736  1.4906 -2.9749 -0.5615
 1819SOL    MW4 7050   2.578   3.164   0.651  0.0159 -0.5563  0.0180
 1820SOL     OW 7051   1.218   3.884   4.845  0.8884  0.1031  0.1212
 1820SOL    HW2 7052   1.237   3.968   4.803  1.8874 -0.6072 -0.8958
 1820SOL    HW3 7053   1.301   3.856   4.883  0.0441  0.6615  2.5568
 1820SOL    MW4 7054   1.231   3.891   4.844  0.9088  0.0831  0.3084
 1821SOL     OW 7055   5.766   6.235   2.097  0.7496  0.4404 -0.5764
 1821SOL    HW2 7056   5.697   6.203   2.040 -0.4928  0.2477  0.9598
 1821SOL    HW3 7057   5.720   6.283   2.166  1.9088 -1.3820  1.6339
 1821SOL    MW4 7058   5.751   6.237   2.099  0.7387  0.1746 -0.0821
 1822SOL     OW 7059   4.919   4.866   3.457  0.2794 -0.4803 -0.4636
 1822SOL    HW2 7060   4.925   4.961   3.466  1.0785 -0.5397 -0.3205
 1822SOL    HW3 7061   4.847   4.841   3.515  0.3675 -0.0203 -0.1500
 1822SOL    MW4 7062   4.910   4.875   3.466  0.3964 -0.4275 -0.4033
 1823SOL     OW 7063   1.732   4.387   1.672  0.0776  0.2408  0.2947
 1823SOL    HW2 7064   1.637   4.378   1.669 -0.0550  1.4320  0.5851
 1823SOL    HW3 7065   1.755   4.427   1.588  0.1641  1.2186  0.7713
 1823SOL    MW4 7066   1.723   4.391   1.660  0.0715  0.5270  0.3959
 1824SOL     OW 7067   4.343   3.837   3.139 -0.3052  0.0543 -0.2868
 1824SOL    HW2 7068   4.375   3.793   3.060 -0.5598  1.0815 -0.9762
 1824SOL    HW3 7069   4.273   3.893   3.108 -0.4467  0.4290  0.6901
 1824SOL    MW4 7070   4.338   3.838   3.125 -0.3575  0.2393 -0.2489
 1825SOL     OW 7071   1.330   2.840   2.106  0.1347  0.1038  0.0180
 1825SOL    HW2 7072   1.381   2.806   2.032 -0.2961 -2.7440  0.9145
 1825SOL    HW3 7073   1.395   2.855   2.175  0.0973 -1.0925  0.3325
 1825SOL    MW4 7074   1.345   2.838   2.105  0.0729 -0.4298  0.1778
 1826SOL     OW 7075   5.510   3.369   0.642  0.1190  0.3388  0.8175
 1826SOL    HW2 7076   5.590   3.320   0.662  0.5627  1.0763  0.8995
 1826SOL    HW3 7077   5.541   3.448   0.597 -0.7022 -0.1719 -0.7088
 1826SOL    MW4 7078   5.525   3.373   0.639  0.0692  0.3687  0.6269
 1827SOL     OW 7079   3.112   0.901   0.968 -0.4235  0.1546  0.0800
 1827SOL    HW2 7080   3.019   0.895   0.990 -0.9618 -1.2138 -2.2513
 1827SOL    HW3 7081   3.140   0.810   0.961  0.9395  0.5589  0.0531
 1827SOL    MW4 7082   3.103   0.888   0.970 -0.3147  0.0274 -0.2311
 1828SOL     OW 7083   2.025   0.768   5.783 -0.1663 -0.3433 -0.4121
 1828SOL    HW2 7084   2.072   0.713   5.721  2.5449  0.3673  0.8713
 1828SOL    HW3 7085   2.010   0.712   5.859 -0.8178 -0.3680 -0.5520
 1828SOL    MW4 7086   2.029   0.753   5.785  0.1055 -0.2528 -0.2613
 1829SOL     OW 7087   2.126   4.054   2.243  0.5509  1.1684 -0.5089
 1829SOL    HW2 7088   2.184   4.001   2.189 -1.0964 -0.0970 -1.1353
 1829SOL    HW3 7089   2.147   4.027   2.333  0.8515  0.6354 -0.7323
 1829SOL    MW4 7090   2.136   4.043   2.248  0.3732  0.9311 -0.6210
 1830SOL     OW 7091   3.447   5.306   3.497  0.0495 -0.6878 -0.0023
 1830SOL    HW2 7092   3.464   5.348   3.581  1.3474  2.4031 -1.6157
 1830SOL    HW3 7093   3.361   5.265   3.507  0.3616 -0.7992  2.9051
 1830SOL    MW4 7094   3.438   5.306   3.509  0.2619 -0.2947  0.1684
 1831SOL     OW 7095   1.656   3.266   0.946  0.3704  0.2080  0.8208
 1831SOL    HW2 7096   1.686   3.292   1.034  0.8612  0.0082  0.7200
 1831SOL    HW3 7097   1.729   3.289   0.889 -0.2738  1.0984  0.3310
 1831SOL    MW4 7098   1.670   3.272   0.950  0.3501  0.2991  0.7429
 1832SOL     OW 7099   1.826   5.581   4.774 -0.0412 -0.6439  0.3126
 1832SOL    HW2 7100   1.819   5.530   4.856 -1.5535 -0.6653  0.2065
 1832SOL    HW3 7101   1.878   5.657   4.798  0.8684 -1.4162  0.8956
 1832SOL    MW4 7102   1.832   5.584   4.788 -0.1207 -0.7486  0.3755
 1833SOL     OW 7103   5.188   6.052   2.695 -0.1710  0.2131  0.6439
 1833SOL    HW2 7104   5.183   6.136   2.741 -0.0640  0.4609  0.2085
 1833SOL    HW3 7105   5.102   6.012   2.709 -0.1047  0.2425  1.1422
 1833SOL    MW4 7106   5.176   6.058   2.703 -0.1481  0.2497  0.6522
 1834SOL     OW 7107   1.544   0.550   5.562  0.0210  0.0240  0.0664
 1834SOL    HW2 7108   1.634   0.524   5.543  0.5799  1.6150  0.3389
 1834SOL    HW3 7109   1.513   0.485   5.624  0.4929 -1.3336 -1.0472
 1834SOL    MW4 7110   1.552   0.538   5.567  0.1570  0.0548 -0.0446
 1835SOL     OW 7111   0.779   0.719   1.915  0.2055 -0.1979 -0.2480
 1835SOL    HW2 7112   0.840   0.731   1.988  0.2681 -1.1389 -0.1390
 1835SOL    HW3 7113   0.833   0.731   1.837 -0.1467  2.3292 -0.1952
 1835SOL    MW4 7114   0.794   0.722   1.915  0.1673  0.0113 -0.2266
 1836SOL     OW 7115   4.286   3.250   6.340  0.3742 -0.2633  0.0982
 1836SOL    HW2 7116   4.223   3.277   6.272  0.9384  0.9402  0.0117
 1836SOL    HW3 7117   4.311   3.161   6.316 -0.9537 -0.5967 -0.1167
 1836SOL    MW4 7118   4.281   3.242   6.328  0.2734 -0.1485  0.0584
 1837SOL     OW 7119   4.661   1.265   1.961  0.3525  0.2293 -0.2012
 1837SOL    HW2 7120   4.615   1.346   1.941  0.2020  0.2626  0.2587
 1837SOL    HW3 7121   4.594   1.206   1.996  0.2555 -0.4720 -1.5247
 1837SOL    MW4 7122   4.646   1.268   1.963  0.3199  0.1411 -0.3152
 1838SOL     OW 7123   5.859   5.282   2.625  0.6535 -0.4533 -0.1061
 1838SOL    HW2 7124   5.890   5.241   2.706 -1.3865  2.0487  2.1144
 1838SOL    HW3 7125   5.772   5.244   2.611 -0.0822  0.9686  0.4104
 1838SOL    MW4 7126   5.852   5.271   2.634  0.2873  0.0644  0.2550
 1839SOL     OW 7127   4.414   3.515   1.785 -0.2975 -0.6327  0.1965
 1839SOL    HW2 7128   4.455   3.432   1.760  0.7306  0.7830 -3.3227
 1839SOL    HW3 7129   4.486   3.570   1.814 -0.7026 -0.2492  0.4959
 1839SOL    MW4 7130   4.429   3.511   1.786 -0.2153 -0.3953 -0.2283
 1840SOL     OW 7131   2.087   1.325   5.191  0.0971 -0.5658  1.2277
 1840SOL    HW2 7132   2.034   1.251   5.162 -0.5594 -0.1402  1.3295
 1840SOL    HW3 7133   2.060   1.341   5.281 -0.0594  0.0567  1.0748
 1840SOL    MW4 7134   2.077   1.318   5.199 -0.0102 -0.4275  1.2210
 1841SOL     OW 7135   6.023   0.287   2.162  0.0881 -0.2069  0.3188
 1841SOL    HW2 7136   5.961   0.216   2.179  0.1222 -0.4105 -0.3741
 1841SOL    HW3 7137   5.972   0.367   2.175  0.2141 -0.3296  1.7391
 1841SOL    MW4 7138   6.008   0.288   2.166  0.1092 -0.2500  0.4148
 1842SOL     OW 7139   5.305   4.030   0.999  0.5554 -0.1268  0.5639
 1842SOL    HW2 7140   5.381   4.084   1.023  0.9297  0.4425 -1.6643
 1842SOL    HW3 7141   5.291   4.049   0.907  1.3352 -4.5392 -0.7148
 1842SOL    MW4 7142   5.313   4.039   0.990  0.7077 -0.6339  0.1012
 1843SOL     OW 7143   4.437   1.084   0.271 -0.3235 -0.2488 -0.2119
 1843SOL    HW2 7144   4.349   1.074   0.237  0.0191 -1.8105 -0.6836
 1843SOL    HW3 7145   4.433   1.048   0.360  0.3322 -2.4274 -1.0257
 1843SOL    MW4 7146   4.425   1.078   0.278 -0.1918 -0.7423 -0.3815
 1844SOL     OW 7147   3.208   4.027   4.361  0.4157 -0.1902  0.5794
 1844SOL    HW2 7148   3.122   4.048   4.397  0.5342 -0.9372  1.3165
 1844SOL    HW3 7149   3.211   4.073   4.276 -1.3629 -1.5209 -0.2591
 1844SOL    MW4 7150   3.197   4.036   4.354  0.1966 -0.4643  0.5660
 1845SOL     OW 7151   1.897   6.323   2.157  0.5863 -0.1138 -0.4108
 1845SOL    HW2 7152   1.985   6.335   2.192  1.8329  2.2803 -3.7447
 1845SOL    HW3 7153   1.904   6.245   2.102  0.6637  0.1142 -0.7273
 1845SOL    MW4 7154   1.909   6.314   2.154  0.7610  0.2322 -0.8924
 1846SOL     OW 7155   1.450   5.097   1.618  0.5520 -0.2113  0.2680
 1846SOL    HW2 7156   1.398   5.017   1.625 -0.1574  0.1178 -1.0180
 1846SOL    HW3 7157   1.516   5.089   1.688 -0.6273 -1.0601  1.3253
 1846SOL    MW4 7158   1.452   5.086   1.628  0.3028 -0.2799  0.2379
 1847SOL     OW 7159   2.769   1.729   5.754 -0.4666  0.4621 -0.0568
 1847SOL    HW2 7160   2.860   1.724   5.783 -0.2935  0.8266 -0.5282
 1847SOL    HW3 7161   2.749   1.640   5.724 -0.0537  0.5311 -0.5569
 1847SOL    MW4 7162   2.778   1.716   5.754 -0.3893  0.5193 -0.1850
 1848SOL     OW 7163   0.961   5.475   2.761  0.1184 -0.2573  0.2351
 1848SOL    HW2 7164   0.953   5.565   2.727  0.3178  0.5361  2.1547
 1848SOL    HW3 7165   0.898   5.472   2.833  2.3409 -0.5715  2.2850
 1848SOL    MW4 7166   0.951   5.487   2.766  0.4379 -0.1941  0.7588
 1849SOL     OW 7167   1.784   5.260   0.013  0.4390 -0.0778 -0.2126
 1849SOL    HW2 7168   1.774   5.177  -0.033  1.7073 -1.6080  2.0829
 1849SOL    HW3 7169   1.878   5.269   0.028  0.2966  1.5821 -0.0376
 1849SOL    MW4 7170   1.795   5.251   0.009  0.5875 -0.0607  0.1134
 1850SOL     OW 7171   5.702   4.713   5.425  0.4588  0.0496 -0.1490
 1850SOL    HW2 7172   5.689   4.747   5.514  0.8397  0.1518 -0.1321
 1850SOL    HW3 7173   5.635   4.758   5.373 -0.8675 -1.2263  0.3798
 1850SOL    MW4 7174   5.691   4.724   5.430  0.3341 -0.1052 -0.0770
 1851SOL     OW 7175   1.687   3.397   1.240 -0.5241  0.1891 -0.0814
 1851SOL    HW2 7176   1.603   3.364   1.273  0.0032 -0.3636  0.7114
 1851SOL    HW3 7177   1.726   3.442   1.314 -1.1943  2.6343 -1.1015
 1851SOL    MW4 7178   1.681   3.399   1.254 -0.5430  0.4388 -0.1114
 1852SOL     OW 7179   0.244   4.659   1.673  0.2741  0.5528 -0.2044
 1852SOL    HW2 7180   0.151   4.641   1.680  0.2450  1.2487  2.0950
 1852SOL    HW3 7181   0.285   4.572   1.669 -0.4326  0.2321 -0.6204
 1852SOL    MW4 7182   0.237   4.645   1.673  0.1771  0.6023  0.0441
 1853SOL     OW 7183   0.494   1.911   3.273 -0.2586  0.4662  0.1260
 1853SOL    HW2 7184   0.423   1.923   3.209 -0.2024  0.9209  0.1484
 1853SOL    HW3 7185   0.524   1.821   3.258 -0.0363  0.6684 -0.7025
 1853SOL    MW4 7186   0.488   1.901   3.262 -0.2219  0.5528  0.0196
 1854SOL     OW 7187   1.697   5.990   5.015  0.4354  0.3277  0.5432
 1854SOL    HW2 7188   1.790   5.971   5.029  0.6216  0.5720 -0.2860
 1854SOL    HW3 7189   1.670   6.038   5.094  0.0578 -2.8172  2.4845
 1854SOL    MW4 7190   1.706   5.994   5.027  0.4102 -0.0550  0.6899
 1855SOL     OW 7191   5.254   2.598   2.351 -1.0069  0.1559  0.5424
 1855SOL    HW2 7192   5.195   2.670   2.329 -2.1344 -0.3502  1.7514
 1855SOL    HW3 7193   5.316   2.636   2.413  1.3300  1.2267 -2.2019
 1855SOL    MW4 7194   5.254   2.613   2.356 -0.8473  0.2304  0.3398
 1856SOL     OW 7195   3.673   3.372   2.612 -0.1577 -0.2317  0.0850
 1856SOL    HW2 7196   3.751   3.365   2.667  0.5211 -0.7908 -0.9184
 1856SOL    HW3 7197   3.705   3.406   2.529 -0.2537 -3.8269 -1.6375
 1856SOL    MW4 7198   3.687   3.375   2.608 -0.0808 -0.7798 -0.2747
 1857SOL     OW 7199   0.967   2.659   5.637  0.3485  0.0528 -0.1711
 1857SOL    HW2 7200   0.955   2.664   5.542  1.1115  0.9734 -0.2339
 1857SOL    HW3 7201   1.043   2.602   5.649  0.4288  0.1687 -0.1266
 1857SOL    MW4 7202   0.975   2.652   5.626  0.4598  0.1896 -0.1735
 1858SOL     OW 7203   6.010   3.552   4.287  0.7441 -0.7389 -0.2750
 1858SOL    HW2 7204   6.082   3.515   4.236  0.0591 -0.5967 -1.3843
 1858SOL    HW3 7205   6.052   3.585   4.367  2.1304  0.5156 -1.4503
 1858SOL    MW4 7206   6.025   3.551   4.291  0.8367 -0.5546 -0.5764
 1859SOL     OW 7207   6.295   5.967   3.133  0.4262 -0.3256 -0.2746
 1859SOL    HW2 7208   6.383   5.981   3.096  0.1759 -1.1813 -1.2127
 1859SOL    HW3 7209   6.236   5.988   3.061 -0.1029 -1.0932 -0.0624
 1859SOL    MW4 7210   6.299   5.972   3.119  0.3233 -0.5398 -0.3703
 1860SOL     OW 7211   0.773   4.979   5.013  0.0727 -0.6118  0.1486
 1860SOL    HW2 7212   0.770   5.072   5.036 -1.1803  0.1726 -2.6989
 1860SOL    HW3 7213   0.846   4.972   4.952 -1.2625 -0.9362 -1.4861
 1860SOL    MW4 7214   0.782   4.990   5.008 -0.2688 -0.5511 -0.4428
 1861SOL     OW 7215   4.700   4.420   3.839 -0.0394 -0.2512 -0.0295
 1861SOL    HW2 7216   4.763   4.490   3.825 -2.0316  1.6101 -0.2170
 1861SOL    HW3 7217   4.628   4.439   3.778 -1.8799 -0.8520  1.8382
 1861SOL    MW4 7218   4.699   4.431   3.829 -0.5451 -0.0849  0.1922
 1862SOL     OW 7219   2.540   4.915   4.719  0.0687  0.1540 -0.1867
 1862SOL    HW2 7220   2.600   4.989   4.730 -2.3484  2.5025 -1.6641
 1862SOL    HW3 7221   2.539   4.899   4.625  0.1680 -1.4948  0.0717
 1862SOL    MW4 7222   2.548   4.923   4.708 -0.2371  0.2463 -0.3475
 1863SOL     OW 7223   3.742   6.303   6.424  0.2652  0.2474  0.1246
 1863SOL    HW2 7224   3.693   6.244   6.367  0.8830 -1.0703  0.8901
 1863SOL    HW3 7225   3.732   6.264   6.512 -1.2106  2.5633  1.0660
 1863SOL    MW4 7226   3.734   6.290   6.428  0.1520  0.3791  0.3498
 1864SOL     OW 7227   1.525   5.909   5.563  0.1814 -0.0389  0.3725
 1864SOL    HW2 7228   1.603   5.886   5.614  0.1095  0.5274  0.7487
 1864SOL    HW3 7229   1.538   5.866   5.478  0.0637 -1.4051  1.0333
 1864SOL    MW4 7230   1.537   5.901   5.558  0.1563 -0.1444  0.5093
 1865SOL     OW 7231   5.726   3.173   0.177 -0.1600  0.0890 -0.6060
 1865SOL    HW2 7232   5.720   3.109   0.248  2.2648  0.2119 -0.2244
 1865SOL    HW3 7233   5.685   3.131   0.102  0.1704 -1.3577  0.0029
 1865SOL    MW4 7234   5.720   3.159   0.177  0.2035 -0.0857 -0.4753
 1866SOL     OW 7235   0.824   5.251   5.046 -0.8123  0.1566 -0.2678
 1866SOL    HW2 7236   0.877   5.271   5.124 -2.3855 -0.5062  1.0434
 1866SOL    HW3 7237   0.823   5.333   4.996  1.9541  0.0078 -0.7198
 1866SOL    MW4 7238   0.831   5.265   5.050 -0.6549  0.0496 -0.1545
 1867SOL     OW 7239   0.199   3.732   1.828 -0.2959  0.1458 -0.1171
 1867SOL    HW2 7240   0.247   3.765   1.904  0.6364  0.7147 -0.9273
 1867SOL    HW3 7241   0.257   3.667   1.789 -1.3627 -1.1733  0.4330
 1867SOL    MW4 7242   0.213   3.728   1.833 -0.3136  0.0468 -0.1514
 1868SOL     OW 7243   3.048   4.837   5.660 -0.1732 -0.1763  0.2615
 1868SOL    HW2 7244   3.037   4.775   5.732 -0.9991  0.4185  0.6644
 1868SOL    HW3 7245   3.039   4.923   5.700 -1.7178  0.1499 -0.6749
 1868SOL    MW4 7246   3.045   4.840   5.674 -0.4859 -0.0548  0.1912
 1869SOL     OW 7247   1.364   3.302   0.699  0.3414 -0.2706 -0.0519
 1869SOL    HW2 7248   1.430   3.235   0.720 -0.8315 -1.2471  0.6841
 1869SOL    HW3 7249   1.339   3.284   0.609 -0.1551 -1.0304  0.2217
 1869SOL    MW4 7250   1.370   3.290   0.690  0.1211 -0.4997  0.0813
 1870SOL     OW 7251   4.590   5.306   6.144  0.3712 -0.0432 -0.7768
 1870SOL    HW2 7252   4.534   5.379   6.171 -1.0110 -0.5109 -2.2288
 1870SOL    HW3 7253   4.584   5.244   6.217 -1.0792 -0.0948 -0.8981
 1870SOL    MW4 7254   4.582   5.307   6.157 -0.0025 -0.1117 -0.9844
 1871SOL     OW 7255   4.386   2.799   2.195  0.1216 -0.0665  0.2029
 1871SOL    HW2 7256   4.362   2.760   2.279  0.9968  1.0719  0.9987
 1871SOL    HW3 7257   4.476   2.830   2.206  0.1245  0.4493 -1.0261
 1871SOL    MW4 7258   4.394   2.798   2.207  0.2375  0.1517  0.1457
 1872SOL     OW 7259   4.716   0.577   4.256 -0.0225 -0.2422  0.0183
 1872SOL    HW2 7260   4.690   0.569   4.164 -1.3884  1.3439  0.2245
 1872SOL    HW3 7261   4.737   0.487   4.282 -0.4321 -0.8478 -1.6048
 1872SOL    MW4 7262   4.715   0.564   4.247 -0.2567 -0.1128 -0.1687
 1873SOL     OW 7263   6.118   4.114   5.343  0.0504 -0.4288  0.2943
 1873SOL    HW2 7264   6.120   4.163   5.260 -0.2907  0.7395  0.9504
 1873SOL    HW3 7265   6.026   4.090   5.354 -0.0074 -0.0543  0.6308
 1873SOL    MW4 7266   6.106   4.117   5.333 -0.0022 -0.2253  0.4252
 1874SOL     OW 7267   4.835   6.373   2.584 -0.0129 -0.4161  0.1325
 1874SOL    HW2 7268   4.929   6.393   2.577  0.0748 -0.3394  1.2653
 1874SOL    HW3 7269   4.795   6.421   2.512  1.0979 -2.6747 -2.1525
 1874SOL    MW4 7270   4.842   6.382   2.574  0.1452 -0.7040 -0.0195
 1875SOL     OW 7271   2.624   1.445   4.978 -0.3839  0.1952 -0.5219
 1875SOL    HW2 7272   2.551   1.444   4.917 -0.9627  0.2906  0.1517
 1875SOL    HW3 7273   2.619   1.361   5.023 -0.6526  0.5822  0.1854
 1875SOL    MW4 7274   2.614   1.434   4.976 -0.4957  0.2588 -0.3397
 1876SOL     OW 7275   1.496   5.162   4.192 -0.1395  0.0978 -0.6718
 1876SOL    HW2 7276   1.580   5.195   4.223 -0.6020  0.8311 -0.1711
 1876SOL    HW3 7277   1.502   5.067   4.203 -0.2444  0.3084  1.6507
 1876SOL    MW4 7278   1.508   5.154   4.198 -0.2144  0.2223 -0.2993
 1877SOL     OW 7279   5.663   5.223   3.304  0.4192 -0.2245 -0.0389
 1877SOL    HW2 7280   5.597   5.190   3.243  0.8002  1.2205 -1.2932
 1877SOL    HW3 7281   5.741   5.238   3.250  1.4411 -0.8351  1.1982
 1877SOL    MW4 7282   5.665   5.221   3.289  0.6043 -0.1144 -0.0412
 1878SOL     OW 7283   2.103   1.693   3.663 -0.0228  0.2446  0.0916
 1878SOL    HW2 7284   2.095   1.647   3.747  2.0524 -0.7672 -0.1871
 1878SOL    HW3 7285   2.153   1.772   3.684 -0.2574  0.4275 -0.0441
 1878SOL    MW4 7286   2.109   1.697   3.677  0.2201  0.1353  0.0369
 1879SOL     OW 7287   3.493   0.440   0.661  0.6191  0.0549  0.0850
 1879SOL    HW2 7288   3.488   0.412   0.753 -1.1960 -0.3577 -0.1022
 1879SOL    HW3 7289   3.555   0.512   0.661  0.6550  0.0513  1.6450
 1879SOL    MW4 7290   3.500   0.446   0.673  0.3843 -0.0000  0.2661
 1880SOL     OW 7291   1.677   0.259   5.336 -0.1605  0.4677  0.0083
 1880SOL    HW2 7292   1.614   0.237   5.405  1.4141 -1.1595  1.0516
 1880SOL    HW3 7293   1.758   0.277   5.384  1.3778 -2.1391 -1.3824
 1880SOL    MW4 7294   1.680   0.258   5.352  0.2502 -0.0909 -0.0375
 1881SOL     OW 7295   1.632   5.042   5.405  0.5036  0.5726 -0.1659
 1881SOL    HW2 7296   1.593   5.097   5.337 -0.2805  1.1090  0.6925
 1881SOL    HW3 7297   1.641   5.100   5.480  0.6190 -0.2211  0.4427
 1881SOL    MW4 7298   1.628   5.057   5.406  0.4154  0.5387  0.0277
 1882SOL     OW 7299   6.074   1.238   0.089  0.1710 -0.0758 -0.2944
 1882SOL    HW2 7300   6.061   1.318   0.038 -1.3274 -0.2790 -0.3029
 1882SOL    HW3 7301   6.011   1.176   0.052  2.2579 -1.7660 -1.2289
 1882SOL    MW4 7302   6.064   1.240   0.077  0.2486 -0.3256 -0.4188
 1883SOL     OW 7303   2.996   1.031   4.484 -0.0457 -0.5442 -0.0780
 1883SOL    HW2 7304   3.002   0.937   4.503  3.0552 -0.2008  1.3401
 1883SOL    HW3 7305   2.904   1.046   4.461 -0.2939 -4.2292 -2.3110
 1883SOL    MW4 7306   2.985   1.021   4.483  0.3307 -0.9851 -0.1855
 1884SOL     OW 7307   3.596   5.167   5.678  0.4122 -0.3164  0.4036
 1884SOL    HW2 7308   3.528   5.158   5.745  0.1121  1.1244  0.3183
 1884SOL    HW3 7309   3.556   5.131   5.598  0.0418 -0.1934  0.5326
 1884SOL    MW4 7310   3.582   5.161   5.676  0.3237 -0.1101  0.4093
 1885SOL     OW 7311   6.151   0.787   4.271  0.2868  0.5075 -0.0496
 1885SOL    HW2 7312   6.068   0.807   4.315 -0.4848 -0.3177 -1.0662
 1885SOL    HW3 7313   6.199   0.733   4.334 -0.3597  0.2140  0.2023
 1885SOL    MW4 7314   6.146   0.782   4.285  0.0997  0.3599 -0.1505
 1886SOL     OW 7315   5.245   1.329   0.603 -0.0052 -0.1936 -0.4935
 1886SOL    HW2 7316   5.292   1.388   0.662  0.2389 -0.3807 -0.4994
 1886SOL    HW3 7317   5.158   1.369   0.592 -0.5845 -0.9130  1.1693
 1886SOL    MW4 7318   5.239   1.342   0.609 -0.0494 -0.3132 -0.2749
 1887SOL     OW 7319   4.567   5.329   3.464  0.0232  0.4796  0.0329
 1887SOL    HW2 7320   4.532   5.417   3.455 -1.0570 -0.1321 -3.4669
 1887SOL    HW3 7321   4.490   5.273   3.470  0.6753 -0.3016  1.4562
 1887SOL    MW4 7322   4.552   5.333   3.463 -0.0333  0.2958 -0.2411
 1888SOL     OW 7323   1.593   2.029   2.787 -0.1888 -0.1415 -0.1358
 1888SOL    HW2 7324   1.565   2.114   2.823  3.5732  2.4563 -2.6440
 1888SOL    HW3 7325   1.550   2.023   2.702 -1.1197 -1.2843  0.3830
 1888SOL    MW4 7326   1.584   2.040   2.781  0.1847  0.0505 -0.3983
 1889SOL     OW 7327   5.721   0.351   5.938 -0.6938  0.0757  0.5681
 1889SOL    HW2 7328   5.683   0.338   5.851 -1.5373  1.8747  0.6193
 1889SOL    HW3 7329   5.780   0.426   5.928 -1.1536  0.6062  1.6262
 1889SOL    MW4 7330   5.724   0.359   5.925 -0.8658  0.3830  0.7144
 1890SOL     OW 7331   1.616   5.275   3.255  0.0671 -0.3960 -0.2604
 1890SOL    HW2 7332   1.596   5.338   3.185 -0.8556  0.4434  0.7132
 1890SOL    HW3 7333   1.624   5.329   3.334  1.4800 -1.2817  0.2330
 1890SOL    MW4 7334   1.614   5.291   3.256  0.1318 -0.4021 -0.0668
 1891SOL     OW 7335   1.240   4.657   0.428 -0.0873 -0.4482 -0.2508
 1891SOL    HW2 7336   1.162   4.685   0.380 -0.5624  0.5617  1.0711
 1891SOL    HW3 7337   1.208   4.590   0.489  0.2212 -0.5936 -0.2486
 1891SOL    MW4 7338   1.225   4.652   0.430 -0.1093 -0.3341 -0.0761
 1892SOL     OW 7339   0.399   4.329   3.089  0.1187  0.2840 -0.5253
 1892SOL    HW2 7340   0.367   4.313   3.000  0.3437  1.2169 -0.7888
 1892SOL    HW3 7341   0.474   4.271   3.099 -0.7504 -0.8524 -0.4260
 1892SOL    MW4 7342   0.405   4.320   3.079  0.0337  0.2572 -0.5469
 1893SOL     OW 7343   4.784   0.134   0.575  0.8289  0.1183 -0.5484
 1893SOL    HW2 7344   4.723   0.208   0.572  0.8937  0.1466 -1.4885
 1893SOL    HW3 7345   4.728   0.057   0.583  0.6594  0.1420 -1.4219
 1893SOL    MW4 7346   4.769   0.134   0.576  0.8151  0.1251 -0.7877
 1894SOL     OW 7347   0.284   6.279   4.742  0.5287 -0.7147 -0.3762
 1894SOL    HW2 7348   0.253   6.316   4.659 -0.3156 -0.6511 -0.0445
 1894SOL    HW3 7349   0.377   6.262   4.728  0.4865 -0.3003 -1.1913
 1894SOL    MW4 7350   0.292   6.281   4.729  0.4117 -0.6516 -0.4400
 1895SOL     OW 7351   2.952   4.755   5.278  0.0691  0.0493  0.1885
 1895SOL    HW2 7352   2.858   4.735   5.274 -0.2321  0.9674  1.6949
 1895SOL    HW3 7353   2.973   4.790   5.191 -0.8757 -0.5773 -0.3123
 1895SOL    MW4 7354   2.942   4.757   5.266 -0.0953  0.0878  0.3212
 1896SOL     OW 7355   0.688   4.461   3.371  0.5200  0.4453  0.1792
 1896SOL    HW2 7356   0.779   4.463   3.341 -0.2889  1.5909 -2.4789
 1896SOL    HW3 7357   0.664   4.368   3.368  1.1549  0.2991 -0.6029
 1896SOL    MW4 7358   0.697   4.449   3.367  0.4971  0.5772 -0.2747
 1897SOL     OW 7359   1.605   0.464   4.316  0.6122  0.2525  0.0026
 1897SOL    HW2 7360   1.645   0.521   4.382 -0.2579  1.0524 -0.1368
 1897SOL    HW3 7361   1.513   0.459   4.341  0.2120  0.7699 -1.2629
 1897SOL    MW4 7362   1.599   0.471   4.328  0.4446  0.4263 -0.1828
 1898SOL     OW 7363   4.300   1.415   0.535  0.6134 -0.4192 -0.0221
 1898SOL    HW2 7364   4.249   1.336   0.552  0.8849 -0.9330 -1.4601
 1898SOL    HW3 7365   4.356   1.392   0.461 -0.2497  1.5227 -1.3692
 1898SOL    MW4 7366   4.301   1.402   0.527  0.5353 -0.2308 -0.3895
 1899SOL     OW 7367   5.384   2.415   6.436 -0.2284  0.4065 -0.8295
 1899SOL    HW2 7368   5.470   2.386   6.466 -0.8702  0.4508  1.2063
 1899SOL    HW3 7369   5.376   2.505   6.468 -1.8601 -0.3139  0.9913
 1899SOL    MW4 7370   5.394   2.423   6.444 -0.5283  0.3173 -0.3207
 1900SOL     OW 7371   5.836   1.864   5.458 -0.2744  0.0322 -0.7400
 1900SOL    HW2 7372   5.762   1.817   5.420 -0.1259 -1.3441  0.5844
 1900SOL    HW3 7373   5.797   1.936   5.507 -0.7549 -0.6368 -0.1206
 1900SOL    MW4 7374   5.821   1.868   5.460 -0.3182 -0.2377 -0.4835
 1901SOL     OW 7375   3.727   3.740   1.584  0.2831 -0.1622 -0.1476
 1901SOL    HW2 7376   3.741   3.823   1.539  2.1901 -0.1226  0.4498
 1901SOL    HW3 7377   3.666   3.761   1.655 -0.4873  0.3665 -0.9371
 1901SOL    MW4 7378   3.721   3.754   1.587  0.4330 -0.0873 -0.1729
 1902SOL     OW 7379   3.646   0.671   4.733 -0.2414  0.0762 -0.1249
 1902SOL    HW2 7380   3.669   0.668   4.640 -0.8316  0.6127 -0.2913
 1902SOL    HW3 7381   3.661   0.582   4.765 -2.2009 -0.7016 -1.2524
 1902SOL    MW4 7382   3.651   0.659   4.725 -0.5778  0.0443 -0.2956
 1903SOL     OW 7383   1.866   1.888   3.937  0.1175  0.4655 -0.1526
 1903SOL    HW2 7384   1.854   1.900   3.842  0.1415  0.3031 -0.1762
 1903SOL    HW3 7385   1.797   1.827   3.962  0.8884 -0.4872 -0.2909
 1903SOL    MW4 7386   1.856   1.881   3.928  0.2224  0.3184 -0.1739
 1904SOL     OW 7387   5.100   2.154   4.675  0.1069  0.7570 -0.1066
 1904SOL    HW2 7388   5.092   2.243   4.711  0.7844  1.3471 -1.3549
 1904SOL    HW3 7389   5.190   2.149   4.644 -0.2241 -0.0073 -0.9816
 1904SOL    MW4 7390   5.110   2.165   4.676  0.1526  0.7340 -0.3867
 1905SOL     OW 7391   0.772   0.207   2.998 -0.2561  0.4238 -0.1324
 1905SOL    HW2 7392   0.826   0.194   3.076 -1.4388  0.1338  0.6512
 1905SOL    HW3 7393   0.712   0.133   2.998 -1.2714  1.2299 -0.4839
 1905SOL    MW4 7394   0.771   0.195   3.008 -0.5461  0.4919 -0.0754
 1906SOL     OW 7395   0.489   2.115   0.245  0.0884 -0.0429  0.3229
 1906SOL    HW2 7396   0.536   2.049   0.194  1.6369  1.1619  0.1109
 1906SOL    HW3 7397   0.396   2.095   0.230  0.4981 -0.7509 -1.5911
 1906SOL    MW4 7398   0.483   2.103   0.237  0.3468  0.0226  0.0424
 1907SOL     OW 7399   3.303   4.278   5.851 -0.1176  0.2584 -0.3485
 1907SOL    HW2 7400   3.245   4.276   5.775  1.5293 -0.6013 -1.6642
 1907SOL    HW3 7401   3.255   4.229   5.918 -1.4946  0.7888 -0.9033
 1907SOL    MW4 7402   3.289   4.271   5.850 -0.0820  0.2150 -0.5953
 1908SOL     OW 7403   6.003   6.330   0.807 -0.1756 -0.1112  0.0108
 1908SOL    HW2 7404   6.090   6.292   0.796  0.1633  0.7818 -0.4307
 1908SOL    HW3 7405   6.018   6.422   0.828 -0.9940 -0.1919  1.0259
 1908SOL    MW4 7406   6.016   6.337   0.808 -0.2389 -0.0041  0.0865
 1909SOL     OW 7407   1.066   0.763   0.712 -0.1172  0.0085 -0.5784
 1909SOL    HW2 7408   1.130   0.834   0.719 -1.4254  1.2173 -0.4939
 1909SOL    HW3 7409   1.032   0.752   0.800  0.1436 -0.8363 -0.5640
 1909SOL    MW4 7410   1.070   0.771   0.724 -0.2554  0.0566 -0.5653
 1910SOL     OW 7411   0.255   1.685   3.830  0.3914 -0.0918 -0.5288
 1910SOL    HW2 7412   0.335   1.667   3.781 -0.3821 -2.5884 -1.0070
 1910SOL    HW3 7413   0.198   1.731   3.767  0.7904  0.1030 -0.7483
 1910SOL    MW4 7414   0.258   1.689   3.815  0.3420 -0.3955 -0.6208
 1911SOL     OW 7415   2.955   3.658   1.772 -0.3085  0.1426 -0.4918
 1911SOL    HW2 7416   2.882   3.715   1.798 -0.6393 -0.5714  0.2229
 1911SOL    HW3 7417   2.913   3.588   1.721 -0.0503  0.0012 -0.5097
 1911SOL    MW4 7418   2.940   3.656   1.769 -0.3181  0.0297 -0.3999
 1912SOL     OW 7419   2.946   2.437   3.794 -0.1926 -0.1455  0.5117
 1912SOL    HW2 7420   3.029   2.420   3.748 -0.2639 -1.8777  0.9450
 1912SOL    HW3 7421   2.884   2.459   3.725  0.0823 -1.1636 -0.0892
 1912SOL    MW4 7422   2.949   2.437   3.779 -0.1658 -0.5083  0.4896
 1913SOL     OW 7423   3.180   2.361   3.685 -0.5498 -0.4327 -0.1622
 1913SOL    HW2 7424   3.197   2.273   3.721  4.0783  1.3814  3.0447
 1913SOL    HW3 7425   3.219   2.360   3.598 -1.3770 -1.6890 -0.5556
 1913SOL    MW4 7426   3.187   2.349   3.678 -0.0483 -0.3591  0.2090
 1914SOL     OW 7427   5.831   1.093   3.320  0.4568  0.0731 -0.0789
 1914SOL    HW2 7428   5.925   1.088   3.306  0.6073  0.3150  0.7907
 1914SOL    HW3 7429   5.812   1.186   3.323  0.6049  0.0882  2.2288
 1914SOL    MW4 7430   5.841   1.104   3.318  0.4962  0.1070  0.3403
 1915SOL     OW 7431   5.637   6.012   0.899  0.0694 -0.6936 -0.2326
 1915SOL    HW2 7432   5.617   6.001   0.806 -2.9711  2.2662 -0.1310
 1915SOL    HW3 7433   5.682   6.095   0.905  1.6591 -1.5759  0.8805
 1915SOL    MW4 7434   5.640   6.021   0.887 -0.1220 -0.4195 -0.0723
 1916SOL     OW 7435   5.085   4.142   0.114  0.0463 -0.2582  0.0614
 1916SOL    HW2 7436   5.135   4.224   0.114  1.0184 -0.7848 -1.9697
 1916SOL    HW3 7437   5.147   4.077   0.081 -1.2040 -1.4807  0.0618
 1916SOL    MW4 7438   5.100   4.144   0.109  0.0096 -0.4890 -0.2065
 1917SOL     OW 7439   5.118   0.329   1.049  0.1756 -0.3182  0.4199
 1917SOL    HW2 7440   5.066   0.367   0.977  0.2718  1.0615  1.0496
 1917SOL    HW3 7441   5.092   0.379   1.126  0.4037 -1.4867  1.2854
 1917SOL    MW4 7442   5.107   0.341   1.049  0.2184 -0.2903  0.6172
 1918SOL     OW 7443   0.812   4.752   3.794  0.6199  0.0939 -0.3354
 1918SOL    HW2 7444   0.833   4.685   3.729 -1.8924  0.2080 -1.3957
 1918SOL    HW3 7445   0.801   4.833   3.743 -0.5947  0.3624  0.3103
 1918SOL    MW4 7446   0.813   4.754   3.778  0.1282  0.1444 -0.3901
 1919SOL     OW 7447   0.683   1.636   3.950  0.3554 -0.2352  0.3727
 1919SOL    HW2 7448   0.755   1.697   3.961  0.4339 -0.4186  0.8844
 1919SOL    HW3 7449   0.699   1.567   4.014 -1.2866  0.6788  1.8879
 1919SOL    MW4 7450   0.694   1.635   3.960  0.1491 -0.1388  0.6401
 1920SOL     OW 7451   4.128   1.172   1.014 -0.0705  0.0821 -0.1698
 1920SOL    HW2 7452   4.214   1.211   1.033  0.1315  0.5491 -1.8975
 1920SOL    HW3 7453   4.081   1.240   0.965 -0.4867 -1.0618 -1.4177
 1920SOL    MW4 7454   4.134   1.186   1.010 -0.0988 -0.0072 -0.5624
 1921SOL     OW 7455   1.969   5.717   0.345 -0.1227 -0.0923  0.1791
 1921SOL    HW2 7456   2.018   5.789   0.386 -0.2983  0.3138 -0.3098
 1921SOL    HW3 7457   1.884   5.718   0.389 -0.2158  0.1686 -0.0018
 1921SOL    MW4 7458   1.964   5.727   0.357 -0.1581 -0.0043  0.0907
 1922SOL     OW 7459   4.447   5.553   6.232 -0.2888  0.4154  0.7180
 1922SOL    HW2 7460   4.364   5.588   6.200 -0.4336 -0.5895 -0.0559
 1922SOL    HW3 7461   4.514   5.603   6.185 -0.4664  0.7281  0.7992
 1922SOL    MW4 7462   4.445   5.564   6.222 -0.3313  0.3241  0.6266
 1923SOL     OW 7463   5.904   3.227   1.840 -0.1838 -0.5394 -0.1444
 1923SOL    HW2 7464   5.980   3.271   1.801  0.4805 -0.4702  1.1598
 1923SOL    HW3 7465   5.833   3.240   1.777  0.4416  0.9088 -0.5887
 1923SOL    MW4 7466   5.905   3.234   1.827 -0.0136 -0.3392 -0.0309
 1924SOL     OW 7467   1.848   5.434   5.868  0.1245  0.4217 -0.5792
 1924SOL    HW2 7468   1.845   5.368   5.938 -2.0920 -0.8365 -1.7546
 1924SOL    HW3 7469   1.782   5.498   5.894 -0.0530  0.4307 -1.0528
 1924SOL    MW4 7470   1.839   5.434   5.881 -0.1914  0.2569 -0.7968
 1925SOL     OW 7471   2.786   6.264   6.387 -0.1245  0.2490 -0.2281
 1925SOL    HW2 7472   2.868   6.296   6.422 -0.1585 -0.4218  0.4898
 1925SOL    HW3 7473   2.727   6.261   6.463 -0.1187 -1.4767 -0.2388
 1925SOL    MW4 7474   2.789   6.268   6.402 -0.1282 -0.0672 -0.1348
 1926SOL     OW 7475   5.171   0.455   5.847 -0.0929  0.4703  0.0193
 1926SOL    HW2 7476   5.202   0.366   5.830 -0.1894  0.9332 -3.0432
 1926SOL    HW3 7477   5.239   0.494   5.901 -0.4564 -1.6498  2.2048
 1926SOL    MW4 7478   5.184   0.448   5.852 -0.1536  0.2516 -0.0964
 1927SOL     OW 7479   0.001   2.825   5.045 -0.4750 -0.3008  0.1948
 1927SOL    HW2 7480   0.035   2.808   5.133 -0.0169  0.2196  0.1277
 1927SOL    HW3 7481   0.015   2.744   4.998  0.9078 -0.0361  0.1059
 1927SOL    MW4 7482   0.007   2.812   5.051 -0.2321 -0.1972  0.1742
 1928SOL     OW 7483   3.326   0.936   5.881 -0.3979  0.0374  0.3748
 1928SOL    HW2 7484   3.419   0.917   5.869 -0.3925 -0.8618  1.6582
 1928SOL    HW3 7485   3.312   1.020   5.836  1.0481  0.2220  0.2409
 1928SOL    MW4 7486   3.336   0.945   5.874 -0.2064 -0.0569  0.5265
 1929SOL     OW 7487   3.014   0.146   6.165 -0.2608 -1.0944 -0.1852
 1929SOL    HW2 7488   3.057   0.224   6.201 -1.5447 -0.2829 -0.3423
 1929SOL    HW3 7489   3.075   0.115   6.098  0.4272 -0.4278  0.1064
 1929SOL    MW4 7490   3.028   0.152   6.161 -0.3394 -0.8994 -0.1675
 1930SOL     OW 7491   0.174   5.203   4.461 -0.2712  0.2868 -0.2097
 1930SOL    HW2 7492   0.263   5.207   4.497  0.0550 -0.0351 -0.9628
 1930SOL    HW3 7493   0.156   5.291   4.429 -0.2674  0.3806  0.0470
 1930SOL    MW4 7494   0.183   5.215   4.462 -0.2276  0.2567 -0.2752
 1931SOL     OW 7495   5.793   5.081   1.208  0.5080  0.8197 -0.6757
 1931SOL    HW2 7496   5.741   5.093   1.128 -0.4372 -0.0087 -0.2180
 1931SOL    HW3 7497   5.851   5.156   1.211  1.0653  0.5065 -2.5154
 1931SOL    MW4 7498   5.794   5.092   1.198  0.4568  0.6691 -0.8581
 1932SOL     OW 7499   5.184   6.336   1.784 -0.0217 -0.3520 -0.1962
 1932SOL    HW2 7500   5.258   6.337   1.845  0.4180 -1.5203 -0.6754
 1932SOL    HW3 7501   5.112   6.376   1.833  0.0680 -2.0670  1.4432
 1932SOL    MW4 7502   5.184   6.342   1.799  0.0481 -0.7324 -0.0431
 1933SOL     OW 7503   3.510   0.437   1.357 -0.0406  0.1667  0.1060
 1933SOL    HW2 7504   3.487   0.415   1.448  2.1840 -1.0639  0.4428
 1933SOL    HW3 7505   3.451   0.509   1.334  0.6439  1.9265  3.2398
 1933SOL    MW4 7506   3.499   0.444   1.366  0.3432  0.2365  0.5639
 1934SOL     OW 7507   0.480   1.235   1.227  0.5261  0.0860 -0.2839
 1934SOL    HW2 7508   0.443   1.323   1.223  0.4898  0.0372 -1.4879
 1934SOL    HW3 7509   0.412   1.181   1.267  0.0033  0.3459 -0.8190
 1934SOL    MW4 7510   0.466   1.239   1.232  0.4523  0.1139 -0.5134
 1935SOL     OW 7511   4.591   3.521   6.300 -0.4517  0.4803  0.0416
 1935SOL    HW2 7512   4.643   3.442   6.289 -0.6341  0.2582  0.7161
 1935SOL    HW3 7513   4.653   3.593   6.285 -0.3054  0.2102 -0.6391
 1935SOL    MW4 7514   4.606   3.520   6.297 -0.4564  0.4154  0.0408
 1936SOL     OW 7515   3.102   5.643   0.868  0.0491 -0.2256  0.1522
 1936SOL    HW2 7516   3.047   5.721   0.871 -0.2388 -0.3752 -0.8670
 1936SOL    HW3 7517   3.188   5.673   0.896 -0.0312  0.4891 -0.3319
 1936SOL    MW4 7518   3.106   5.657   0.872  0.0005 -0.1510 -0.0461
 1937SOL     OW 7519   6.292   6.221   2.825 -0.2329 -0.2660 -0.5624
 1937SOL    HW2 7520   6.322   6.290   2.885 -0.7587  0.1737 -0.8014
 1937SOL    HW3 7521   6.358   6.152   2.834  1.7581  1.2899 -2.2161
 1937SOL    MW4 7522   6.305   6.221   2.834 -0.0396 -0.0027 -0.8121
 1938SOL     OW 7523   3.802   2.974   5.803 -0.6733  0.2664  0.3117
 1938SOL    HW2 7524   3.813   2.924   5.722  1.4406  1.9271 -0.5191
 1938SOL    HW3 7525   3.740   3.043   5.781  0.4304  1.1404 -0.1555
 1938SOL    MW4 7526   3.796   2.976   5.790 -0.2488  0.6008  0.1405
 1939SOL     OW 7527   5.353   5.991   6.402 -0.1744 -0.2631  0.8184
 1939SOL    HW2 7528   5.388   5.938   6.474  0.5142 -0.9130  0.0291
 1939SOL    HW3 7529   5.310   5.927   6.345  0.1935  0.1023  0.1253
 1939SOL    MW4 7530   5.352   5.975   6.404 -0.0350 -0.3007  0.6228
 1940SOL     OW 7531   3.659   3.716   4.245 -0.3539 -0.1208 -0.7297
 1940SOL    HW2 7532   3.695   3.663   4.316 -0.4726 -2.4091 -2.2688
 1940SOL    HW3 7533   3.602   3.780   4.288 -0.5042 -1.5025  1.2117
 1940SOL    MW4 7534   3.656   3.718   4.260 -0.3894 -0.6050 -0.6766
 1941SOL     OW 7535   4.469   5.689   2.852 -0.3228 -0.0132 -0.2692
 1941SOL    HW2 7536   4.420   5.763   2.887 -0.0126 -0.4698  1.1795
 1941SOL    HW3 7537   4.410   5.649   2.788 -1.3656  0.1738  0.5534
 1941SOL    MW4 7538   4.454   5.694   2.848 -0.4194 -0.0487  0.0305
 1942SOL     OW 7539   5.042   3.421   0.937 -0.4625 -0.0313  0.1100
 1942SOL    HW2 7540   5.136   3.412   0.920 -0.4943 -0.6474  0.2245
 1942SOL    HW3 7541   5.019   3.506   0.901  0.4256  0.7557  1.3314
 1942SOL    MW4 7542   5.052   3.431   0.930 -0.3495 -0.0087  0.2863
 1943SOL     OW 7543   0.997   2.207   3.896  0.3575 -0.7344  0.1477
 1943SOL    HW2 7544   0.933   2.256   3.845  1.6463  1.9455  0.9177
 1943SOL    HW3 7545   1.050   2.161   3.830  0.9260  1.2940 -0.8966
 1943SOL    MW4 7546   0.996   2.207   3.881  0.6025 -0.1132  0.1115
 1944SOL     OW 7547   4.734   1.192   4.267 -0.4463  0.3375 -0.5187
 1944SOL    HW2 7548   4.662   1.185   4.205 -0.6438  0.9983 -0.3638
 1944SOL    HW3 7549   4.708   1.136   4.341  0.2081 -1.2053 -1.4132
 1944SOL    MW4 7550   4.721   1.184   4.269 -0.3860  0.2211 -0.6163
 1945SOL     OW 7551   1.341   2.648   3.762  0.6228  0.0627  0.5980
 1945SOL    HW2 7552   1.303   2.561   3.760  0.3053  0.1941 -1.6582
 1945SOL    HW3 7553   1.363   2.663   3.855 -2.7664 -0.8878  1.6798
 1945SOL    MW4 7554   1.339   2.639   3.774  0.1338 -0.0454  0.4431
 1946SOL     OW 7555   1.708   3.883   0.138 -0.1935  0.0266  0.1598
 1946SOL    HW2 7556   1.775   3.902   0.071  0.9277 -1.8873  0.6696
 1946SOL    HW3 7557   1.716   3.955   0.201  0.9469  0.1745 -0.1344
 1946SOL    MW4 7558   1.718   3.895   0.137  0.1049 -0.2064  0.1883
 1947SOL     OW 7559   4.491   2.103   4.942  0.6385  0.0383  0.0356
 1947SOL    HW2 7560   4.474   2.011   4.958  1.4810  0.1076  1.4636
 1947SOL    HW3 7561   4.404   2.141   4.923 -0.4034 -0.2917  3.4960
 1947SOL    MW4 7562   4.477   2.096   4.942  0.6122  0.0039  0.6806
 1948SOL     OW 7563   3.070   1.949   3.559 -0.3874  0.0845  0.3998
 1948SOL    HW2 7564   3.073   1.853   3.556 -0.7467  0.0979 -0.6392
 1948SOL    HW3 7565   3.114   1.977   3.479  0.8015  0.8261  1.2791
 1948SOL    MW4 7566   3.076   1.940   3.548 -0.2779  0.1841  0.3788
 1949SOL     OW 7567   2.637   3.670   2.296 -0.2756  0.2605 -0.0056
 1949SOL    HW2 7568   2.604   3.671   2.386 -2.5344 -0.9895 -0.7152
 1949SOL    HW3 7569   2.662   3.760   2.277 -1.4690  0.8963  1.3180
 1949SOL    MW4 7570   2.636   3.682   2.305 -0.7311  0.1795  0.0754
 1950SOL     OW 7571   3.381   3.116   5.109  0.2540 -0.3872  0.5912
 1950SOL    HW2 7572   3.377   3.163   5.193  0.5617  1.8548 -0.5707
 1950SOL    HW3 7573   3.473   3.088   5.102  0.2782 -0.3897  0.8967
 1950SOL    MW4 7574   3.393   3.118   5.119  0.2978 -0.0917  0.4782
 1951SOL     OW 7575   2.631   3.902   3.190 -0.2313 -0.0292  0.5482
 1951SOL    HW2 7576   2.565   3.969   3.178  0.3963  0.4887 -0.1568
 1951SOL    HW3 7577   2.625   3.848   3.111 -0.0643 -0.2037  0.6529
 1951SOL    MW4 7578   2.622   3.904   3.178 -0.1265  0.0161  0.4690
 1952SOL     OW 7579   5.951   0.800   1.555 -0.2304 -0.2629 -0.6126
 1952SOL    HW2 7580   5.921   0.709   1.556 -0.1368 -0.2885 -0.1647
 1952SOL    HW3 7581   5.922   0.837   1.638  0.4896 -0.1345 -0.4100
 1952SOL    MW4 7582   5.943   0.793   1.566 -0.1230 -0.2493 -0.5268
 1953SOL     OW 7583   2.018   4.063   3.820  0.6153  0.0343  0.8665
 1953SOL    HW2 7584   2.085   4.004   3.786 -0.0778  0.0629 -0.6242
 1953SOL    HW3 7585   1.991   4.023   3.903  0.8661 -1.2025  0.3759
 1953SOL    MW4 7586   2.023   4.050   3.826  0.5569 -0.1251  0.6051
 1954SOL     OW 7587   1.888   3.215   3.769 -0.2112  0.9594  0.1194
 1954SOL    HW2 7588   1.971   3.241   3.728  0.2403 -1.0918 -0.3917
 1954SOL    HW3 7589   1.853   3.147   3.712 -0.2308 -1.0639  2.3528
 1954SOL    MW4 7590   1.894   3.210   3.756 -0.1542  0.4218  0.3466
 1955SOL     OW 7591   5.593   6.185   4.563  0.3738 -0.1168 -0.4875
 1955SOL    HW2 7592   5.499   6.188   4.581  0.6672  0.4350  1.1621
 1955SOL    HW3 7593   5.624   6.109   4.612  1.1396  1.1369  1.0662
 1955SOL    MW4 7594   5.585   6.175   4.572  0.5136  0.1214 -0.0649
 1956SOL     OW 7595   5.998   1.991   5.907  0.5326  0.8731 -0.1733
 1956SOL    HW2 7596   6.025   2.019   5.820  2.5559 -0.2667  0.0353
 1956SOL    HW3 7597   5.969   2.072   5.950 -0.9618  1.3902 -2.0001
 1956SOL    MW4 7598   5.998   2.006   5.901  0.6024  0.7910 -0.3868
 1957SOL     OW 7599   2.872   2.415   4.477  0.0389 -0.2198  0.0011
 1957SOL    HW2 7600   2.856   2.500   4.437 -0.5636 -0.3535 -0.0468
 1957SOL    HW3 7601   2.909   2.362   4.406 -2.1530 -0.8295 -0.7605
 1957SOL    MW4 7602   2.875   2.419   4.462 -0.3298 -0.3179 -0.1057
 1958SOL     OW 7603   2.172   3.252   3.207  0.1608  0.6169 -0.3198
 1958SOL    HW2 7604   2.256   3.207   3.205  0.3973  1.0865 -1.2082
 1958SOL    HW3 7605   2.117   3.197   3.263  1.0818  0.3681  0.3742
 1958SOL    MW4 7606   2.176   3.239   3.214  0.3135  0.6460 -0.3454
 1959SOL     OW 7607   5.478   4.913   1.248  0.3390 -0.4384 -0.1947
 1959SOL    HW2 7608   5.398   4.923   1.196  0.8155 -0.4127 -0.9455
 1959SOL    HW3 7609   5.495   4.819   1.248  0.0850 -0.4862  0.3164
 1959SOL    MW4 7610   5.469   4.902   1.241  0.3684 -0.4413 -0.2263
 1960SOL     OW 7611   4.187   5.849   0.390 -0.1219 -0.3190  0.6381
 1960SOL    HW2 7612   4.192   5.873   0.298  0.7080 -0.4706  0.6407
 1960SOL    HW3 7613   4.254   5.782   0.402  1.1094  1.0372  1.7621
 1960SOL    MW4 7614   4.196   5.843   0.379  0.1501 -0.1601  0.7867
 1961SOL     OW 7615   1.866   1.906   3.649  0.4115 -0.6784 -0.3575
 1961SOL    HW2 7616   1.836   1.816   3.641 -2.2813  0.0132  0.7864
 1961SOL    HW3 7617   1.789   1.959   3.627  1.7760  1.3496 -0.5156
 1961SOL    MW4 7618   1.852   1.901   3.645  0.2363 -0.3196 -0.2275
 1962SOL     OW 7619   4.204   1.018   5.736  0.3163  0.7687  0.1758
 1962SOL    HW2 7620   4.114   0.994   5.711 -0.2372  1.0611  1.7673
 1962SOL    HW3 7621   4.256   1.002   5.657 -1.2113  1.0261 -0.9299
 1962SOL    MW4 7622   4.199   1.013   5.722  0.0417  0.8413  0.2399
 1963SOL     OW 7623   6.040   0.323   4.210 -0.2258  0.3339  0.4174
 1963SOL    HW2 7624   6.030   0.384   4.283 -1.3534  0.9150 -0.1930
 1963SOL    HW3 7625   6.123   0.348   4.169 -0.0843  0.6571  0.8940
 1963SOL    MW4 7626   6.050   0.334   4.214 -0.3559  0.4532  0.3997
 1964SOL     OW 7627   2.593   3.557   3.190  0.5689 -0.7473 -0.2641
 1964SOL    HW2 7628   2.655   3.611   3.240  0.6087 -1.5682  0.6114
 1964SOL    HW3 7629   2.507   3.593   3.213  0.6561 -0.2282 -0.7192
 1964SOL    MW4 7630   2.590   3.569   3.200  0.5856 -0.7871 -0.2086
 1965SOL     OW 7631   0.532   1.638   3.722  0.0577  0.0401  0.2187
 1965SOL    HW2 7632   0.574   1.658   3.806 -0.4200  0.9433  0.2631
 1965SOL    HW3 7633   0.603   1.646   3.658  0.2335  0.2613  0.4350
 1965SOL    MW4 7634   0.547   1.642   3.725  0.0179  0.1885  0.2531
 1966SOL     OW 7635   3.378   0.526   4.656 -0.1022  0.0708  0.0249
 1966SOL    HW2 7636   3.341   0.555   4.572 -0.1446  0.2545  0.1066
 1966SOL    HW3 7637   3.404   0.607   4.699 -0.1321 -0.0204  0.2138
 1966SOL    MW4 7638   3.376   0.541   4.651 -0.1118  0.0830  0.0606
 1967SOL     OW 7639   3.587   2.288   3.623 -0.0186  0.1079 -0.1223
 1967SOL    HW2 7640   3.566   2.285   3.716  0.8218  0.6609  0.0871
 1967SOL    HW3 7641   3.530   2.221   3.584  0.2074 -0.6905  0.8929
 1967SOL    MW4 7642   3.576   2.279   3.630  0.1221  0.0755  0.0393
 1968SOL     OW 7643   0.486   0.638   6.405 -0.0981  0.1223 -0.1015
 1968SOL    HW2 7644   0.576   0.617   6.430 -0.5662 -1.5943  0.2958
 1968SOL    HW3 7645   0.438   0.641   6.488 -0.6328 -0.1976 -0.3915
 1968SOL    MW4 7646   0.491   0.636   6.419 -0.2304 -0.1464 -0.0873
 1969SOL     OW 7647   3.379   0.795   6.146 -0.0917  0.0190 -0.1193
 1969SOL    HW2 7648   3.358   0.836   6.062 -1.1748  0.3086  0.2800
 1969SOL    HW3 7649   3.295   0.784   6.190 -0.0047 -3.3713 -0.4933
 1969SOL    MW4 7650   3.365   0.799   6.140 -0.2232 -0.3901 -0.1160
 1970SOL     OW 7651   2.290   4.829   0.914 -0.4144 -0.7447  0.1602
 1970SOL    HW2 7652   2.204   4.864   0.890  0.8285  1.1869 -1.8289
 1970SOL    HW3 7653   2.306   4.759   0.850 -0.0736 -0.4079 -0.1236
 1970SOL    MW4 7654   2.281   4.824   0.902 -0.2054 -0.4454 -0.1397
 1971SOL     OW 7655   4.234   0.950   1.229  0.4195  0.3062 -0.0167
 1971SOL    HW2 7656   4.268   0.897   1.301 -1.4659 -1.0238 -0.0156
 1971SOL    HW3 7657   4.287   0.924   1.153  0.7983 -0.1247  0.3884
 1971SOL    MW4 7658   4.245   0.940   1.228  0.2207  0.0739  0.0369
 1972SOL     OW 7659   1.224   1.850   3.734  0.1030 -0.4129  0.1948
 1972SOL    HW2 7660   1.249   1.837   3.826 -1.5676 -1.3662  0.5600
 1972SOL    HW3 7661   1.145   1.796   3.723 -0.1405  0.2503 -1.6149
 1972SOL    MW4 7662   1.217   1.841   3.745 -0.1495 -0.4512  0.0042
 1973SOL     OW 7663   5.931   5.969   1.985  0.0033 -0.0472 -0.1609
 1973SOL    HW2 7664   5.967   5.944   1.900  0.1223 -0.0144 -0.1191
 1973SOL    HW3 7665   5.851   5.916   1.993 -1.0595  1.3139 -1.1373
 1973SOL    MW4 7666   5.925   5.959   1.975 -0.1212  0.1367 -0.2842
 1974SOL     OW 7667   0.369   2.370   0.583  0.3017  0.1348  0.8804
 1974SOL    HW2 7668   0.462   2.350   0.584  0.3792 -0.2130 -2.5139
 1974SOL    HW3 7669   0.327   2.291   0.619  1.1906 -1.0937 -0.6695
 1974SOL    MW4 7670   0.376   2.357   0.588  0.4292 -0.0732  0.2281
 1975SOL     OW 7671   0.567   0.078   1.708 -1.0870  0.1170 -0.2409
 1975SOL    HW2 7672   0.594   0.153   1.655  1.2912 -0.8368 -0.5198
 1975SOL    HW3 7673   0.577   0.106   1.798 -1.3705  0.5043 -0.3292
 1975SOL    MW4 7674   0.572   0.091   1.713 -0.8106  0.0423 -0.2893
 1976SOL     OW 7675   0.457   4.395   5.832 -0.5152 -0.7768  0.6343
 1976SOL    HW2 7676   0.471   4.358   5.919 -1.1836 -0.7817  0.7467
 1976SOL    HW3 7677   0.534   4.448   5.816 -0.1376 -1.2046  1.0056
 1976SOL    MW4 7678   0.469   4.397   5.841 -0.5536 -0.8339  0.6981
 1977SOL     OW 7679   1.596   6.202   0.973 -0.3174  0.0692 -0.2858
 1977SOL    HW2 7680   1.606   6.213   0.878 -1.2896 -1.6822 -0.6317
 1977SOL    HW3 7681   1.508   6.164   0.983  0.4446 -1.4056  1.1653
 1977SOL    MW4 7682   1.585   6.198   0.962 -0.3451 -0.3565 -0.1400
 1978SOL     OW 7683   5.531   6.096   1.976  0.0636  0.0528  0.4580
 1978SOL    HW2 7684   5.474   6.026   2.010 -1.7652  0.1428 -2.1700
 1978SOL    HW3 7685   5.513   6.098   1.882  2.7024  1.7409 -0.1026
 1978SOL    MW4 7686   5.521   6.087   1.968  0.1704  0.2874  0.0373
 1979SOL     OW 7687   4.895   1.302   3.923 -0.2165 -0.7248  0.1727
 1979SOL    HW2 7688   4.927   1.226   3.970 -0.8719 -1.1406 -0.0363
 1979SOL    HW3 7689   4.890   1.371   3.989  0.5790 -0.7959  0.3185
 1979SOL    MW4 7690   4.899   1.301   3.938 -0.1980 -0.7890  0.1643
 1980SOL     OW 7691   5.474   3.523   5.273  0.0797  0.0425 -0.4758
 1980SOL    HW2 7692   5.390   3.523   5.227 -0.1238  1.2014 -0.1577
 1980SOL    HW3 7693   5.539   3.503   5.206 -0.2123  1.7551 -1.3381
 1980SOL    MW4 7694   5.472   3.521   5.258  0.0143  0.4213 -0.5476
 1981SOL     OW 7695   4.563   4.289   6.089 -0.5060 -0.0028 -0.4800
 1981SOL    HW2 7696   4.473   4.257   6.080 -0.5844 -0.0917  0.5764
 1981SOL    HW3 7697   4.592   4.258   6.175  0.7033 -0.3769 -0.9950
 1981SOL    MW4 7698   4.555   4.281   6.099 -0.3568 -0.0639 -0.4086
 1982SOL     OW 7699   6.378   3.598   5.082 -0.1466 -0.3028  0.1125
 1982SOL    HW2 7700   6.312   3.535   5.109 -0.6752  0.5427  0.8408
 1982SOL    HW3 7701   6.461   3.557   5.105 -0.4081 -1.2966 -0.6464
 1982SOL    MW4 7702   6.380   3.584   5.089 -0.2508 -0.3224  0.1085
 1983SOL     OW 7703   6.115   3.649   4.517  0.0202 -0.0324 -0.1673
 1983SOL    HW2 7704   6.208   3.627   4.513  0.0581  0.1815 -0.4995
 1983SOL    HW3 7705   6.114   3.744   4.531 -0.1290  0.6302 -3.7801
 1983SOL    MW4 7706   6.127   3.659   4.518  0.0055  0.0832 -0.6878
 1984SOL     OW 7707   6.054   1.595   3.962  0.0663  0.7018 -0.0615
 1984SOL    HW2 7708   5.989   1.628   4.024 -2.0311  0.2491 -1.8769
 1984SOL    HW3 7709   6.095   1.674   3.926 -0.4035  1.0681  0.1941
 1984SOL    MW4 7710   6.051   1.610   3.965 -0.2724  0.6904 -0.2673
 1985SOL     OW 7711   1.921   3.091   6.314  0.5314 -0.3216  0.2215
 1985SOL    HW2 7712   1.876   3.010   6.335  0.8708 -0.6733 -0.3617
 1985SOL    HW3 7713   1.960   3.075   6.228  1.7033 -0.0052  0.6751
 1985SOL    MW4 7714   1.920   3.079   6.305  0.7308 -0.3263  0.2044
 1986SOL     OW 7715   0.296   6.007   4.634  0.1859  0.6177  0.0842
 1986SOL    HW2 7716   0.334   5.955   4.704  1.5944  1.8000  0.2635
 1986SOL    HW3 7717   0.269   6.088   4.677 -0.1422  0.8291 -0.5167
 1986SOL    MW4 7718   0.298   6.011   4.649  0.3285  0.8015  0.0285
 1987SOL     OW 7719   1.189   3.297   0.045 -0.0759 -0.6444  0.6136
 1987SOL    HW2 7720   1.250   3.234   0.083  1.4763  0.1123 -0.5009
 1987SOL    HW3 7721   1.149   3.249  -0.028 -1.4544 -1.3966  1.8174
 1987SOL    MW4 7722   1.192   3.282   0.040 -0.0530 -0.6438  0.6254
 1988SOL     OW 7723   1.042   4.026   2.866  0.8177 -0.0069  0.6212
 1988SOL    HW2 7724   1.072   4.082   2.938  2.0670  0.9368 -0.5713
 1988SOL    HW3 7725   0.954   4.058   2.846  1.6239  1.8046 -0.2494
 1988SOL    MW4 7726   1.035   4.037   2.873  1.0889  0.3566  0.3490
 1989SOL     OW 7727   2.581   0.199   6.261 -0.0819 -0.1437  0.0155
 1989SOL    HW2 7728   2.634   0.123   6.236  0.1332 -0.2536  0.7728
 1989SOL    HW3 7729   2.645   0.269   6.272 -0.3689  0.4028 -1.5563
 1989SOL    MW4 7730   2.597   0.198   6.259 -0.0914 -0.0861 -0.0920
 1990SOL     OW 7731   2.022   1.735   3.417  0.0681 -0.0522 -0.1950
 1990SOL    HW2 7732   2.057   1.733   3.506  0.7826  0.3370 -0.4636
 1990SOL    HW3 7733   1.995   1.645   3.400 -0.6212 -0.0144  0.6259
 1990SOL    MW4 7734   2.023   1.723   3.427  0.0714  0.0041 -0.1221
 1991SOL     OW 7735   4.564   1.638   5.804  0.1977 -0.4934  0.2113
 1991SOL    HW2 7736   4.533   1.726   5.783 -0.4868 -1.2111 -2.1163
 1991SOL    HW3 7737   4.492   1.597   5.851  0.2572 -0.0349  0.7085
 1991SOL    MW4 7738   4.551   1.645   5.807  0.1153 -0.5276 -0.0302
 1992SOL     OW 7739   0.642   1.279   3.269 -0.0539  0.3398  0.9401
 1992SOL    HW2 7740   0.616   1.202   3.218 -3.0607  1.9233 -0.2414
 1992SOL    HW3 7741   0.646   1.249   3.359  0.7606 -1.5597  0.3188
 1992SOL    MW4 7742   0.639   1.265   3.274 -0.3432  0.2981  0.7022
 1993SOL     OW 7743   2.519   4.977   2.135  0.7147 -0.5933  0.1927
 1993SOL    HW2 7744   2.550   5.039   2.202  2.7547 -1.6254  0.2789
 1993SOL    HW3 7745   2.498   4.897   2.184  2.6909 -1.5177 -0.3949
 1993SOL    MW4 7746   2.520   4.975   2.150  1.2446 -0.8514  0.1265
 1994SOL     OW 7747   6.017   6.112   2.222  0.1818  0.0259  0.1438
 1994SOL    HW2 7748   6.030   6.051   2.149  1.8743  0.0928  0.3502
 1994SOL    HW3 7749   5.944   6.168   2.194 -2.8478 -3.2117  0.7209
 1994SOL    MW4 7750   6.009   6.111   2.209  0.0054 -0.3924  0.2472
 1995SOL     OW 7751   1.629   3.749   0.502  0.3959 -0.5694  0.2585
 1995SOL    HW2 7752   1.621   3.843   0.520  2.7881  0.0712 -1.3974
 1995SOL    HW3 7753   1.567   3.733   0.431 -0.4519 -0.3954  0.9461
 1995SOL    MW4 7754   1.620   3.759   0.495  0.5997 -0.4619  0.1307
 1996SOL     OW 7755   6.210   6.098   3.567  0.1296  0.6124  0.4281
 1996SOL    HW2 7756   6.299   6.083   3.599  0.1114 -1.8395 -0.4541
 1996SOL    HW3 7757   6.208   6.192   3.547  2.1627  0.9467  1.4531
 1996SOL    MW4 7758   6.222   6.108   3.569  0.3955  0.3330  0.4470
 1997SOL     OW 7759   4.956   2.199   2.659 -0.2562  0.3683 -0.1626
 1997SOL    HW2 7760   4.922   2.284   2.688  0.2164  0.2844  0.6660
 1997SOL    HW3 7761   4.948   2.202   2.564 -1.7480  0.7019 -0.0615
 1997SOL    MW4 7762   4.950   2.211   2.650 -0.3906  0.4012 -0.0399
 1998SOL     OW 7763   3.554   4.584   1.279 -0.3575  0.0633 -0.1894
 1998SOL    HW2 7764   3.476   4.620   1.237 -2.2584 -2.4581  0.8974
 1998SOL    HW3 7765   3.622   4.650   1.265 -2.4582  2.0296 -1.8597
 1998SOL    MW4 7766   3.552   4.597   1.272 -0.8855 -0.0100 -0.2664
 1999SOL     OW 7767   3.527   3.268   2.998 -0.3803  0.0549  0.3635
 1999SOL    HW2 7768   3.483   3.275   2.913  0.1039 -2.3227 -0.1576
 1999SOL    HW3 7769   3.611   3.228   2.978  0.3340  0.7616  1.8340
 1999SOL    MW4 7770   3.532   3.264   2.984 -0.2221 -0.1656  0.4888
 2000SOL     OW 7771   5.806   0.708   2.115  0.2040  0.0908  0.1877
 2000SOL    HW2 7772   5.741   0.741   2.054  0.4773  0.7752  0.2620
 2000SOL    HW3 7773   5.884   0.761   2.099  0.5527 -0.3078  0.5274
 2000SOL    MW4 7774   5.808   0.719   2.105  0.2860  0.1285  0.2423
 2001SOL     OW 7775   1.709   3.890   2.701 -0.0826 -0.9849 -0.3595
 2001SOL    HW2 7776   1.697   3.985   2.698 -0.0185 -0.9520  0.2648
 2001SOL    HW3 7777   1.777   3.877   2.767  0.9280 -1.3787 -1.4328
 2001SOL    MW4 7778   1.717   3.901   2.709  0.0592 -1.0325 -0.4187
 2002SOL     OW 7779   1.669   3.120   4.454 -0.4347  0.0794 -0.1918
 2002SOL    HW2 7780   1.757   3.092   4.428  0.0898  0.3910  1.1677
 2002SOL    HW3 7781   1.670   3.215   4.442 -1.1847 -0.0802 -1.8162
 2002SOL    MW4 7782   1.681   3.129   4.449 -0.4645  0.0995 -0.2268
 2003SOL     OW 7783   2.053   0.580   0.867 -0.5025  0.1008  1.0014
 2003SOL    HW2 7784   2.003   0.642   0.814  0.9729  1.4609  1.1601
 2003SOL    HW3 7785   2.134   0.566   0.819 -0.5315 -1.2466  1.2863
 2003SOL    MW4 7786   2.057   0.586   0.854 -0.3117  0.1025  1.0599
 2004SOL     OW 7787   3.444   3.591   4.106 -0.0431 -0.3567 -0.1849
 2004SOL    HW2 7788   3.458   3.623   4.017  3.4456 -3.6674 -1.0427
 2004SOL    HW3 7789   3.522   3.619   4.154 -1.0343 -0.1985  1.4056
 2004SOL    MW4 7790   3.456   3.599   4.101  0.2864 -0.7726 -0.0882
 2005SOL     OW 7791   5.824   1.842   4.427  0.0469  0.3836  0.0811
 2005SOL    HW2 7792   5.831   1.937   4.424 -2.3265  0.7233  1.9981
 2005SOL    HW3 7793   5.731   1.824   4.410  0.6183 -1.6960 -1.2826
 2005SOL    MW4 7794   5.813   1.852   4.424 -0.1909  0.1540  0.1541
 2006SOL     OW 7795   1.790   6.364   0.075 -0.1562 -0.2276  0.3673
 2006SOL    HW2 7796   1.832   6.391  -0.007 -0.1790 -0.1598  0.3775
 2006SOL    HW3 7797   1.805   6.438   0.134 -0.0762 -0.3078  0.4464
 2006SOL    MW4 7798   1.798   6.377   0.072 -0.1486 -0.2292  0.3791
 2007SOL     OW 7799   5.383   6.361   1.967  0.3257 -0.6352  0.0749
 2007SOL    HW2 7800   5.339   6.395   2.045  0.0529 -0.5206 -0.1284
 2007SOL    HW3 7801   5.393   6.267   1.985  2.0665 -0.3063  1.1172
 2007SOL    MW4 7802   5.379   6.353   1.980  0.5194 -0.5767  0.1856
 2008SOL     OW 7803   4.549   2.112   4.485 -0.4195 -0.1192  0.1275
 2008SOL    HW2 7804   4.549   2.175   4.556  0.3018  0.5713 -0.4690
 2008SOL    HW3 7805   4.599   2.154   4.415 -0.8190 -0.9182 -0.6664
 2008SOL    MW4 7806   4.555   2.126   4.485 -0.3770 -0.1335 -0.0560
 2009SOL     OW 7807   3.698   3.000   0.356  0.2710 -0.5074 -0.0774
 2009SOL    HW2 7808   3.725   2.913   0.328 -0.8722 -0.7644 -0.4408
 2009SOL    HW3 7809   3.638   2.985   0.429 -0.8106 -0.1124 -0.8477
 2009SOL    MW4 7810   3.693   2.986   0.362 -0.0226 -0.4892 -0.2270
 2010SOL     OW 7811   3.516   2.378   1.564 -0.2367 -0.0566  0.0694
 2010SOL    HW2 7812   3.450   2.310   1.558  0.8669 -1.4577  2.4104
 2010SOL    HW3 7813   3.528   2.409   1.474 -1.8618 -1.8663 -0.8188
 2010SOL    MW4 7814   3.509   2.373   1.552 -0.3055 -0.4802  0.2610
 2011SOL     OW 7815   3.083   2.622   0.498  0.2974  0.1475 -0.2418
 2011SOL    HW2 7816   3.064   2.546   0.442  0.9976  0.2733 -0.6735
 2011SOL    HW3 7817   3.103   2.692   0.436  1.4718  0.1888  0.1545
 2011SOL    MW4 7818   3.083   2.621   0.482  0.5447  0.1695 -0.2465
 2012SOL     OW 7819   6.220   2.544   0.075 -0.5528  0.3821 -0.2595
 2012SOL    HW2 7820   6.255   2.618   0.125 -0.1080 -0.5094  0.7800
 2012SOL    HW3 7821   6.151   2.582   0.021  0.8578  1.8980 -1.0925
 2012SOL    MW4 7822   6.216   2.559   0.074 -0.3080  0.4645 -0.2323
 2013SOL     OW 7823   2.307   5.255   6.153 -0.2583 -0.3117 -0.3419
 2013SOL    HW2 7824   2.350   5.170   6.145  1.6495  0.5376  0.1249
 2013SOL    HW3 7825   2.251   5.261   6.076  0.7215 -1.3875 -1.1760
 2013SOL    MW4 7826   2.306   5.245   6.142  0.1226 -0.3416 -0.3904
 2014SOL     OW 7827   2.179   0.946   3.171 -0.3474  0.1184  0.5128
 2014SOL    HW2 7828   2.095   0.964   3.213 -0.9631 -1.8483  0.2336
 2014SOL    HW3 7829   2.205   0.861   3.207  0.4385 -0.3308 -1.0504
 2014SOL    MW4 7830   2.171   0.937   3.181 -0.3250 -0.2004  0.2697
 2015SOL     OW 7831   5.180   1.484   0.091  0.4544  0.4320 -0.1032
 2015SOL    HW2 7832   5.232   1.553   0.131  1.7736 -0.1288 -0.7919
 2015SOL    HW3 7833   5.217   1.473   0.003  0.7519 -1.5979  0.2255
 2015SOL    MW4 7834   5.192   1.491   0.085  0.6677  0.0902 -0.1507
 2016SOL     OW 7835   5.406   2.404   0.512  0.4245  0.4936 -0.1398
 2016SOL    HW2 7836   5.351   2.449   0.448  0.6980 -0.3195 -0.9772
 2016SOL    HW3 7837   5.481   2.463   0.525  1.4836 -0.2570 -2.2908
 2016SOL    MW4 7838   5.409   2.418   0.505  0.6003  0.2873 -0.5341
 2017SOL     OW 7839   5.780   6.256   2.429 -0.0247  0.9117  0.9927
 2017SOL    HW2 7840   5.826   6.173   2.440  1.1227  1.1567 -1.3504
 2017SOL    HW3 7841   5.693   6.232   2.399  0.8048  0.4817 -1.3055
 2017SOL    MW4 7842   5.775   6.242   2.427  0.2362  0.8873  0.3803
 2018SOL     OW 7843   3.382   5.570   4.919 -0.5083  0.2806  0.7569
 2018SOL    HW2 7844   3.380   5.510   4.993  0.5050 -1.4885 -0.5834
 2018SOL    HW3 7845   3.474   5.577   4.896 -0.8950 -0.0530 -0.9926
 2018SOL    MW4 7846   3.394   5.563   4.926 -0.4256  0.0032  0.3493
 2019SOL     OW 7847   1.137   2.913   3.764 -0.4173  0.0012 -0.2692
 2019SOL    HW2 7848   1.073   2.863   3.816 -0.7745  1.2571  0.5279
 2019SOL    HW3 7849   1.220   2.897   3.807 -0.2026 -1.4280 -1.1541
 2019SOL    MW4 7850   1.139   2.904   3.776 -0.4361 -0.0217 -0.2808
 2020SOL     OW 7851   3.795   0.647   3.933 -0.5869  0.1216  0.0569
 2020SOL    HW2 7852   3.723   0.587   3.916 -1.2802  0.6017  1.2503
 2020SOL    HW3 7853   3.840   0.611   4.008  1.5245 -1.1249 -1.6840
 2020SOL    MW4 7854   3.792   0.634   3.940 -0.3998  0.0205 -0.0153
 2021SOL     OW 7855   4.157   1.079   3.466  0.2776 -0.6003 -0.0577
 2021SOL    HW2 7856   4.124   1.161   3.501  1.3519 -0.2143  0.0922
 2021SOL    HW3 7857   4.122   1.012   3.525  0.2556 -0.1560  0.4401
 2021SOL    MW4 7858   4.148   1.081   3.479  0.4164 -0.4907  0.0277
 2022SOL     OW 7859   0.680   3.239   4.047  0.5003 -0.4065  0.0415
 2022SOL    HW2 7860   0.668   3.260   4.140  0.0909  0.0264 -0.1047
 2022SOL    HW3 7861   0.607   3.283   4.003  0.9568 -0.2200 -0.5375
 2022SOL    MW4 7862   0.668   3.248   4.054  0.5065 -0.3248 -0.0542
 2023SOL     OW 7863   6.188   2.132   1.560 -0.3459 -0.1760 -0.2662
 2023SOL    HW2 7864   6.157   2.049   1.598  0.0074 -0.4599 -0.5849
 2023SOL    HW3 7865   6.181   2.119   1.465  3.7784 -1.5479 -0.6077
 2023SOL    MW4 7866   6.183   2.119   1.552  0.2449 -0.3945 -0.3533
 2024SOL     OW 7867   1.319   4.867   1.631  0.7514 -0.0624  0.2478
 2024SOL    HW2 7868   1.364   4.836   1.709  0.0545 -0.4545  0.5044
 2024SOL    HW3 7869   1.341   4.804   1.563  2.4592  1.0092 -0.2544
 2024SOL    MW4 7870   1.328   4.855   1.632  0.8848  0.0273  0.2154
 2025SOL     OW 7871   3.182   6.084   1.232  0.2710 -0.8243 -0.2954
 2025SOL    HW2 7872   3.226   6.069   1.149  0.7364 -0.8120 -0.0543
 2025SOL    HW3 7873   3.158   5.997   1.264  0.1491 -0.8324 -0.4075
 2025SOL    MW4 7874   3.184   6.071   1.225  0.3163 -0.8238 -0.2784
 2026SOL     OW 7875   6.101   1.878   0.675  0.1706  0.0489 -0.1947
 2026SOL    HW2 7876   6.174   1.920   0.721  0.1585  1.2435 -1.1994
 2026SOL    HW3 7877   6.047   1.951   0.645 -0.1760 -0.7100 -1.4814
 2026SOL    MW4 7878   6.104   1.893   0.677  0.1233  0.1064 -0.4970
 2027SOL     OW 7879   4.064   2.616   5.236 -0.3405  0.5537 -0.2270
 2027SOL    HW2 7880   4.025   2.651   5.156 -0.4656  2.0291  0.4375
 2027SOL    HW3 7881   4.092   2.528   5.213 -2.4224  0.0974 -1.2403
 2027SOL    MW4 7882   4.063   2.609   5.223 -0.6317  0.6882 -0.2730
 2028SOL     OW 7883   5.912   2.413   0.724  0.1805 -0.7790 -0.8210
 2028SOL    HW2 7884   5.956   2.342   0.678 -0.7059 -1.0965 -1.1889
 2028SOL    HW3 7885   5.897   2.378   0.812 -1.4565 -1.5785 -1.3813
 2028SOL    MW4 7886   5.916   2.399   0.730 -0.1524 -0.9264 -0.9435
 2029SOL     OW 7887   5.092   1.416   4.298  0.0727 -0.0015  0.0347
 2029SOL    HW2 7888   5.135   1.500   4.310 -0.0737  0.2226 -0.9112
 2029SOL    HW3 7889   5.005   1.438   4.264  0.0629 -0.5323 -0.3009
 2029SOL    MW4 7890   5.086   1.430   4.295  0.0521 -0.0420 -0.1344
 2030SOL     OW 7891   5.579   0.750   5.907 -0.3932  0.0126 -0.3125
 2030SOL    HW2 7892   5.649   0.747   5.842 -1.0305  1.4644 -1.1467
 2030SOL    HW3 7893   5.516   0.684   5.878 -0.9121  0.9946 -1.5219
 2030SOL    MW4 7894   5.580   0.741   5.895 -0.5458  0.3337 -0.5822
 2031SOL     OW 7895   5.415   3.901   5.028  0.2856 -0.4257  0.4215
 2031SOL    HW2 7896   5.354   3.855   5.086  1.1276 -0.0290  1.6797
 2031SOL    HW3 7897   5.474   3.832   4.997 -1.6909 -1.1212 -2.1274
 2031SOL    MW4 7898   5.415   3.885   5.032  0.1359 -0.4651  0.2512
 2032SOL     OW 7899   5.099   5.959   0.435  0.0761  0.0620 -0.1254
 2032SOL    HW2 7900   5.109   5.988   0.344 -0.3778  1.0308  0.1173
 2032SOL    HW3 7901   5.067   5.869   0.428 -1.1915  0.5460 -0.9506
 2032SOL    MW4 7902   5.096   5.951   0.422 -0.1510  0.2537 -0.2023
 2033SOL     OW 7903   1.158   2.102   2.537  0.4880  0.4126 -0.0333
 2033SOL    HW2 7904   1.250   2.089   2.514  0.3771  0.8971 -0.8115
 2033SOL    HW3 7905   1.126   2.166   2.473 -0.1555  0.9493  0.7955
 2033SOL    MW4 7906   1.166   2.109   2.525  0.3885  0.5473 -0.0266
 2034SOL     OW 7907   3.543   2.566   1.344  0.3528  0.1745  0.2631
 2034SOL    HW2 7908   3.485   2.619   1.399 -0.7630  0.6527 -1.3064
 2034SOL    HW3 7909   3.483   2.516   1.288  1.4391 -0.9304  0.0592
 2034SOL    MW4 7910   3.527   2.566   1.344  0.3489  0.0918  0.0291
 2035SOL     OW 7911   6.364   1.969   5.438 -0.0528 -0.2777  0.2287
 2035SOL    HW2 7912   6.277   1.928   5.431 -1.1888  2.1734 -1.9921
 2035SOL    HW3 7913   6.352   2.055   5.398  3.8913 -0.5455 -1.9832
 2035SOL    MW4 7914   6.351   1.975   5.431  0.3177  0.0104 -0.3562
 2036SOL     OW 7915   1.563   1.433   5.585 -0.0999  0.0988 -0.3226
 2036SOL    HW2 7916   1.600   1.470   5.665 -1.4211  0.5147  0.1324
 2036SOL    HW3 7917   1.638   1.419   5.528  0.5582  2.8321 -0.2635
 2036SOL    MW4 7918   1.578   1.436   5.588 -0.1874  0.5143 -0.2548
 2037SOL     OW 7919   1.875   5.970   3.751  0.0290 -0.3900  0.5246
 2037SOL    HW2 7920   1.791   5.928   3.771 -0.5602  0.1948 -0.6432
 2037SOL    HW3 7921   1.919   5.909   3.691 -1.1622  0.9053 -1.8092
 2037SOL    MW4 7922   1.870   5.956   3.746 -0.2059 -0.1419  0.0626
 2038SOL     OW 7923   4.886   2.084   3.003  0.0564 -0.4269 -0.1896
 2038SOL    HW2 7924   4.907   2.029   2.928 -1.1485 -2.0591  0.6171
 2038SOL    HW3 7925   4.810   2.136   2.974  0.2884 -0.2356 -0.4595
 2038SOL    MW4 7926   4.878   2.084   2.989 -0.0720 -0.6170 -0.1188
 2039SOL     OW 7927   3.326   0.195   3.479  0.1369  0.2444  0.4708
 2039SOL    HW2 7928   3.330   0.291   3.477 -0.2441  0.2788  1.1022
 2039SOL    HW3 7929   3.400   0.170   3.535  0.2100  0.1704  0.3408
 2039SOL    MW4 7930   3.336   0.205   3.486  0.0963  0.2392  0.5369
 2040SOL     OW 7931   3.744   0.854   2.260  0.3741 -0.0844  0.5360
 2040SOL    HW2 7932   3.705   0.863   2.347 -0.2686 -0.2478  0.2656
 2040SOL    HW3 7933   3.833   0.889   2.270 -0.7198  2.9680  0.4950
 2040SOL    MW4 7934   3.751   0.860   2.273  0.1450  0.2968  0.4949
 2041SOL     OW 7935   1.306   6.280   4.143  0.1351  0.2493  0.5999
 2041SOL    HW2 7936   1.382   6.288   4.086 -0.8396 -4.0616 -1.7487
 2041SOL    HW3 7937   1.341   6.247   4.226  0.9444 -0.7312 -0.1134
 2041SOL    MW4 7938   1.320   6.277   4.147  0.1133 -0.4488  0.1959
 2042SOL     OW 7939   3.526   4.946   0.731 -0.0317  0.0730 -0.0405
 2042SOL    HW2 7940   3.598   4.891   0.701 -0.0158 -0.4904  0.9989
 2042SOL    HW3 7941   3.558   5.036   0.718  0.1825 -0.1498 -1.1640
 2042SOL    MW4 7942   3.540   4.951   0.725 -0.0014 -0.0307 -0.0516
 2043SOL     OW 7943   4.045   2.715   2.342  0.5213  0.0142 -0.8973
 2043SOL    HW2 7944   3.994   2.731   2.263 -0.7764  0.7181  0.0441
 2043SOL    HW3 7945   4.099   2.639   2.320 -0.0777 -0.0322 -2.3313
 2043SOL    MW4 7946   4.045   2.707   2.329  0.2710  0.1009 -0.9623
 2044SOL     OW 7947   5.720   0.197   0.163  0.3150  0.3936 -0.4543
 2044SOL    HW2 7948   5.742   0.109   0.192 -3.8934 -0.7696 -0.2329
 2044SOL    HW3 7949   5.779   0.254   0.213  0.8721 -2.0931  1.9462
 2044SOL    MW4 7950   5.731   0.193   0.173 -0.1668 -0.0880 -0.1084
 2045SOL     OW 7951   2.997   0.209   3.684  0.5845 -0.4133 -0.2665
 2045SOL    HW2 7952   2.993   0.236   3.593  2.0725  1.1051  0.0547
 2045SOL    HW3 7953   2.908   0.184   3.706 -0.2427  1.2205 -1.5661
 2045SOL    MW4 7954   2.985   0.209   3.675  0.6716  0.0026 -0.3956
 2046SOL     OW 7955   4.162   4.021   3.042 -0.2881  0.4153 -0.0264
 2046SOL    HW2 7956   4.206   4.064   2.969  3.1269 -1.6175  0.6335
 2046SOL    HW3 7957   4.112   4.091   3.084  2.2432  2.9718 -0.9633
 2046SOL    MW4 7958   4.161   4.036   3.038  0.4964  0.4844 -0.0629
 2047SOL     OW 7959   1.899   2.254   5.630  0.1250 -0.5411 -0.1376
 2047SOL    HW2 7960   1.850   2.302   5.564  0.2530  0.1226  0.2356
 2047SOL    HW3 7961   1.989   2.253   5.597  0.0908 -0.6723 -0.2266
 2047SOL    MW4 7962   1.904   2.260   5.617  0.1374 -0.4709 -0.1001
 2048SOL     OW 7963   3.506   4.089   0.253  0.8255 -0.9075 -0.5067
 2048SOL    HW2 7964   3.585   4.036   0.258  0.1553 -2.0082 -1.2063
 2048SOL    HW3 7965   3.454   4.062   0.329  0.7335 -0.8469 -0.5467
 2048SOL    MW4 7966   3.509   4.079   0.264  0.7249 -1.0447 -0.6043
 2049SOL     OW 7967   5.901   1.426   2.613 -0.1553  0.2788 -0.2448
 2049SOL    HW2 7968   5.879   1.394   2.525 -1.5906  0.0898  0.1587
 2049SOL    HW3 7969   5.842   1.378   2.671  1.4625 -0.3407  0.9512
 2049SOL    MW4 7970   5.890   1.415   2.609 -0.1313  0.1721 -0.0338
 2050SOL     OW 7971   6.262   1.960   2.699 -0.0362  1.0184 -0.0998
 2050SOL    HW2 7972   6.293   1.874   2.671 -0.3106  0.8746  0.0241
 2050SOL    HW3 7973   6.340   2.015   2.702  0.2035  0.6652  0.2071
 2050SOL    MW4 7974   6.276   1.956   2.696 -0.0408  0.9528 -0.0430
 2051SOL     OW 7975   5.490   4.726   3.271  0.7184 -0.4263 -0.0263
 2051SOL    HW2 7976   5.553   4.694   3.335  0.1642 -0.5500  0.4642
 2051SOL    HW3 7977   5.421   4.660   3.270 -0.1612  0.4605  0.5852
 2051SOL    MW4 7978   5.489   4.713   3.279  0.5292 -0.3256  0.1191
 2052SOL     OW 7979   0.984   1.153   4.345 -0.1425 -0.1697 -0.0555
 2052SOL    HW2 7980   1.034   1.076   4.317  1.9677  0.2913  2.1282
 2052SOL    HW3 7981   0.918   1.118   4.405  0.9866 -0.3365  1.1483
 2052SOL    MW4 7982   0.982   1.138   4.349  0.2849 -0.1309  0.3915
 2053SOL     OW 7983   0.915   5.024   4.456  0.2950  0.0549  0.1368
 2053SOL    HW2 7984   0.875   4.938   4.459 -1.8112  0.9961  1.6614
 2053SOL    HW3 7985   1.001   5.013   4.496 -0.3583 -1.1482  1.2481
 2053SOL    MW4 7986   0.921   5.011   4.462 -0.0691  0.0204  0.4846
 2054SOL     OW 7987   3.859   3.501   3.019  0.1040 -0.6144  0.1194
 2054SOL    HW2 7988   3.938   3.548   2.995 -0.9532  2.0317  1.4807
 2054SOL    HW3 7989   3.889   3.432   3.078  1.4232  0.2859  0.5365
 2054SOL    MW4 7990   3.873   3.498   3.024  0.1386 -0.1465  0.3540
 2055SOL     OW 7991   3.706   0.414   1.098 -0.0007  0.1672  0.2094
 2055SOL    HW2 7992   3.673   0.426   1.187 -0.5189  0.7454 -0.0542
 2055SOL    HW3 7993   3.800   0.399   1.110 -0.5062 -2.9925  1.0713
 2055SOL    MW4 7994   3.714   0.414   1.112 -0.1358 -0.1734  0.2883
 2056SOL     OW 7995   3.358   2.611   4.419 -0.3187 -1.0626  0.0927
 2056SOL    HW2 7996   3.340   2.696   4.379 -0.8509 -0.0589  2.3301
 2056SOL    HW3 7997   3.297   2.551   4.375  0.8687 -0.6080 -2.3559
 2056SOL    MW4 7998   3.347   2.614   4.408 -0.2323 -0.8702  0.0649
 2057SOL     OW 7999   1.018   3.919   6.416 -0.3930  0.1607 -0.1543
 2057SOL    HW2 8000   1.071   3.840   6.410 -0.9929 -0.2422 -0.2389
 2057SOL    HW3 8001   1.081   3.990   6.426  0.2353 -0.1542 -1.6435
 2057SOL    MW4 8002   1.033   3.918   6.416 -0.3893  0.0660 -0.3619
 2058SOL     OW 8003   6.374   1.858   1.432 -0.5911  0.3789 -0.3183
 2058SOL    HW2 8004   6.348   1.791   1.494 -1.2950  0.8157 -0.1321
 2058SOL    HW3 8005   6.292   1.889   1.394 -0.5233  2.5704  1.1184
 2058SOL    MW4 8006   6.360   1.854   1.435 -0.6750  0.7257 -0.1042
 2059SOL     OW 8007   6.162   3.232   2.039  0.3364 -0.0098  0.2031
 2059SOL    HW2 8008   6.087   3.173   2.038 -0.4822  0.9629  1.1185
 2059SOL    HW3 8009   6.172   3.255   2.132 -0.2237  2.3086 -0.2459
 2059SOL    MW4 8010   6.153   3.227   2.051  0.1545  0.4244  0.2646
 2060SOL     OW 8011   1.685   2.191   5.799  0.0120 -0.4469 -0.2519
 2060SOL    HW2 8012   1.756   2.205   5.737  0.7741 -1.6025  0.3246
 2060SOL    HW3 8013   1.723   2.134   5.866 -0.8206  0.6372  1.2139
 2060SOL    MW4 8014   1.699   2.185   5.800  0.0027 -0.4563  0.0176
 2061SOL     OW 8015   3.308   6.014   6.327 -0.1883  0.0008 -0.2372
 2061SOL    HW2 8016   3.240   6.075   6.297 -0.4801  0.3700  1.1193
 2061SOL    HW3 8017   3.294   5.935   6.274 -0.0179  0.9626 -1.7890
 2061SOL    MW4 8018   3.297   6.011   6.316 -0.2043  0.1764 -0.2630
 2062SOL     OW 8019   1.325   5.855   3.833  0.2726 -0.1513 -1.0366
 2062SOL    HW2 8020   1.374   5.931   3.864 -0.5898  0.1264 -0.3210
 2062SOL    HW3 8021   1.362   5.781   3.883  0.3434 -0.0313 -0.9112
 2062SOL    MW4 8022   1.337   5.855   3.844  0.1681 -0.0988 -0.9256
 2063SOL     OW 8023   3.654   5.036   3.064  0.1119 -0.5075 -0.5750
 2063SOL    HW2 8024   3.713   5.037   2.989  1.2795 -0.1632  0.3313
 2063SOL    HW3 8025   3.683   4.963   3.118 -0.1366 -0.1957 -0.0038
 2063SOL    MW4 8026   3.665   5.026   3.061  0.2332 -0.4209 -0.3801
 2064SOL     OW 8027   4.925   5.250   0.742 -0.0629  0.1213 -0.3825
 2064SOL    HW2 8028   4.844   5.221   0.784 -0.9573  2.9271  0.0295
 2064SOL    HW3 8029   4.980   5.279   0.814 -0.2546  1.7915 -0.8751
 2064SOL    MW4 8030   4.921   5.250   0.757 -0.2062  0.7119 -0.3931
 2065SOL     OW 8031   4.940   5.654   0.739 -0.2259  0.3507 -0.0976
 2065SOL    HW2 8032   4.963   5.659   0.646  2.3767 -0.2399  0.4402
 2065SOL    HW3 8033   4.921   5.745   0.763  0.3561  0.7096 -0.9246
 2065SOL    MW4 8034   4.941   5.667   0.730  0.1942  0.3202 -0.1358
 2066SOL     OW 8035   1.766   6.255   2.385 -0.0025  0.1366 -0.4307
 2066SOL    HW2 8036   1.813   6.283   2.306 -0.0332  1.7341  0.0822
 2066SOL    HW3 8037   1.779   6.326   2.448  0.9300 -1.5500  1.4170
 2066SOL    MW4 8038   1.774   6.268   2.383  0.1164  0.1249 -0.1192
 2067SOL     OW 8039   2.533   0.841   1.976  0.1995 -0.1671  0.3417
 2067SOL    HW2 8040   2.476   0.826   1.901  0.1858 -2.4083  0.7240
 2067SOL    HW3 8041   2.609   0.785   1.960  0.7999  0.3169  1.3771
 2067SOL    MW4 8042   2.536   0.831   1.964  0.2769 -0.3989  0.5288
 2068SOL     OW 8043   3.927   0.118   3.525  0.4860 -0.5348 -0.1718
 2068SOL    HW2 8044   3.987   0.093   3.596  0.7218 -1.1508 -0.5787
 2068SOL    HW3 8045   3.854   0.056   3.532  0.6165 -0.7430 -0.5972
 2068SOL    MW4 8046   3.925   0.106   3.535  0.5343 -0.6435 -0.2816
 2069SOL     OW 8047   2.595   1.181   5.076 -0.0449  0.3036 -0.5437
 2069SOL    HW2 8048   2.502   1.178   5.096  0.0738  1.7154  0.3167
 2069SOL    HW3 8049   2.603   1.134   4.992 -1.0273 -2.7480  0.9071
 2069SOL    MW4 8050   2.584   1.174   5.067 -0.1589  0.0872 -0.2388
 2070SOL     OW 8051   6.158   2.603   2.489 -0.3999  0.2251 -0.0100
 2070SOL    HW2 8052   6.122   2.599   2.578 -0.2978  0.3628  0.0383
 2070SOL    HW3 8053   6.082   2.618   2.433 -0.6520 -1.1987 -0.0871
 2070SOL    MW4 8054   6.144   2.605   2.494 -0.4197  0.0554 -0.0138
 2071SOL     OW 8055   1.459   0.267   4.743 -0.0571 -0.2752 -0.2963
 2071SOL    HW2 8056   1.472   0.184   4.789 -3.8900 -1.3678 -0.8385
 2071SOL    HW3 8057   1.398   0.246   4.672 -0.8302  2.9281 -0.7358
 2071SOL    MW4 8058   1.453   0.253   4.740 -0.6648  0.0033 -0.4258
 2072SOL     OW 8059   3.512   4.810   5.840  0.2724  0.5237 -0.1482
 2072SOL    HW2 8060   3.484   4.762   5.762 -1.0986 -0.6645  1.0176
 2072SOL    HW3 8061   3.606   4.825   5.827  0.2282 -0.2956 -1.6698
 2072SOL    MW4 8062   3.521   4.806   5.828  0.0857  0.2588 -0.1952
 2073SOL     OW 8063   2.187   5.535   2.674 -0.0711 -0.0497  0.4351
 2073SOL    HW2 8064   2.189   5.584   2.756  0.7217 -0.5611  0.7333
 2073SOL    HW3 8065   2.175   5.601   2.606  0.8919  0.5526  0.8399
 2073SOL    MW4 8066   2.186   5.550   2.676  0.1606 -0.0377  0.5278
 2074SOL     OW 8067   5.701   5.442   0.882  0.2634  0.3695  0.3248
 2074SOL    HW2 8068   5.692   5.358   0.927  0.6292 -0.6525 -1.4135
 2074SOL    HW3 8069   5.777   5.483   0.923  1.4197 -1.1357 -0.1952
 2074SOL    MW4 8070   5.710   5.436   0.893  0.4642  0.0361  0.0268
 2075SOL     OW 8071   2.337   1.901   0.653 -0.9009  0.3134 -0.0907
 2075SOL    HW2 8072   2.433   1.897   0.657 -0.9548 -0.3259  0.8793
 2075SOL    HW3 8073   2.310   1.809   0.645 -1.3674  0.6149 -3.1288
 2075SOL    MW4 8074   2.346   1.888   0.653 -0.9695  0.2689 -0.3635
 2076SOL     OW 8075   1.152   0.290   3.869 -0.8999  0.2794  0.2550
 2076SOL    HW2 8076   1.146   0.360   3.805  0.9501  1.0304  0.8222
 2076SOL    HW3 8077   1.097   0.320   3.942 -1.6518  0.2226 -0.2842
 2076SOL    MW4 8078   1.144   0.303   3.870 -0.7550  0.3710  0.2587
 2077SOL     OW 8079   1.026   5.979   5.062  0.0806 -0.6977 -0.1009
 2077SOL    HW2 8080   0.994   5.908   5.117  0.3117 -0.0685  0.8810
 2077SOL    HW3 8081   0.964   6.050   5.076 -0.5884 -0.9270 -1.6690
 2077SOL    MW4 8082   1.014   5.979   5.071  0.0229 -0.6449 -0.1783
 2078SOL     OW 8083   0.872   6.159   3.098  0.5868  0.1807 -0.1347
 2078SOL    HW2 8084   0.911   6.072   3.102  0.2200 -0.0634 -1.5486
 2078SOL    HW3 8085   0.922   6.205   3.030  0.4944  0.9357  0.2960
 2078SOL    MW4 8086   0.884   6.153   3.090  0.5262  0.2481 -0.2644
 2079SOL     OW 8087   1.264   0.691   2.926  0.0459  0.1843  0.1172
 2079SOL    HW2 8088   1.267   0.675   2.832 -1.0367 -0.3248  0.1585
 2079SOL    HW3 8089   1.231   0.610   2.964  0.7801  0.2646  0.9823
 2079SOL    MW4 8090   1.260   0.678   2.919 -0.0000  0.1278  0.2368
 2080SOL     OW 8091   5.369   0.453   0.933  0.6113 -0.0908  0.2060
 2080SOL    HW2 8092   5.446   0.445   0.989  0.9563  0.3844 -0.1904
 2080SOL    HW3 8093   5.296   0.427   0.989  0.7800  1.6174  1.2814
 2080SOL    MW4 8094   5.370   0.449   0.948  0.6791  0.1973  0.2956
 2081SOL     OW 8095   3.485   3.256   3.273 -0.1331  0.2768 -0.0388
 2081SOL    HW2 8096   3.541   3.318   3.320  0.4090 -0.1162 -0.1517
 2081SOL    HW3 8097   3.518   3.257   3.183 -1.3369  1.2227 -0.4996
 2081SOL    MW4 8098   3.497   3.264   3.267 -0.2204  0.3497 -0.1145
 2082SOL     OW 8099   2.434   0.358   1.919  0.1443  0.4393  0.2276
 2082SOL    HW2 8100   2.401   0.275   1.884  0.8360  0.0717  0.4284
 2082SOL    HW3 8101   2.462   0.408   1.842  1.4210 -0.2599  0.2192
 2082SOL    MW4 8102   2.433   0.354   1.904  0.4040  0.2985  0.2530
 2083SOL     OW 8103   1.437   2.470   4.206  0.6584 -0.4025  0.0652
 2083SOL    HW2 8104   1.399   2.545   4.161  0.9324 -0.2376  0.1056
 2083SOL    HW3 8105   1.389   2.466   4.289 -0.7689 -1.5205 -0.7877
 2083SOL    MW4 8106   1.426   2.480   4.211  0.5063 -0.5282 -0.0420
 2084SOL     OW 8107   0.896   2.655   2.613 -0.5887  0.2314 -0.4202
 2084SOL    HW2 8108   0.930   2.744   2.622 -0.2627 -0.0452  1.7683
 2084SOL    HW3 8109   0.956   2.612   2.552 -0.6374  1.4268 -1.3480
 2084SOL    MW4 8110   0.909   2.661   2.606 -0.5521  0.3526 -0.2539
 2085SOL     OW 8111   5.660   4.905   3.747  0.1712  0.5106 -0.0473
 2085SOL    HW2 8112   5.613   4.979   3.786 -0.2128 -0.3808  1.2412
 2085SOL    HW3 8113   5.662   4.925   3.653 -3.0848  0.4447 -0.2247
 2085SOL    MW4 8114   5.654   4.917   3.739 -0.3090  0.3843  0.0993
 2086SOL     OW 8115   3.996   5.992   4.328  0.0772 -0.4761 -0.0278
 2086SOL    HW2 8116   3.991   6.072   4.380  0.2975 -0.9291  0.7032
 2086SOL    HW3 8117   3.917   5.994   4.273 -0.1558  0.0115  0.3191
 2086SOL    MW4 8118   3.985   6.002   4.327  0.0755 -0.4715  0.1144
 2087SOL     OW 8119   2.652   4.950   4.041 -0.6484  0.9762 -0.0548
 2087SOL    HW2 8120   2.575   4.995   4.076 -0.4512  0.7551  0.6822
 2087SOL    HW3 8121   2.623   4.860   4.029 -1.2235  1.3772 -2.0959
 2087SOL    MW4 8122   2.638   4.944   4.044 -0.6982  0.9999 -0.2269
 2088SOL     OW 8123   1.978   6.281   3.492  0.0777 -0.1413 -0.0729
 2088SOL    HW2 8124   1.901   6.335   3.472 -0.3505 -0.3001  1.0561
 2088SOL    HW3 8125   1.970   6.263   3.586  1.7910  0.2931  0.1772
 2088SOL    MW4 8126   1.967   6.286   3.502  0.2472 -0.1050  0.1090
 2089SOL     OW 8127   5.919   3.728   5.895  0.2815 -0.2752  0.2199
 2089SOL    HW2 8128   5.965   3.735   5.979  1.4115 -1.5314 -0.2528
 2089SOL    HW3 8129   5.867   3.648   5.904  0.7545 -0.6653 -0.4147
 2089SOL    MW4 8130   5.918   3.718   5.908  0.4930 -0.4924  0.0738
 2090SOL     OW 8131   3.276   5.217   0.784  0.7449 -0.7036  0.1333
 2090SOL    HW2 8132   3.213   5.263   0.840 -1.4425 -1.9445 -1.1508
 2090SOL    HW3 8133   3.309   5.146   0.839  0.5147 -0.4428  0.6170
 2090SOL    MW4 8134   3.272   5.214   0.799  0.4259 -0.8329  0.0277
 2091SOL     OW 8135   3.697   5.488   1.390  0.1130 -0.1612  0.0587
 2091SOL    HW2 8136   3.718   5.535   1.310 -0.9247  1.1711  0.5375
 2091SOL    HW3 8137   3.708   5.553   1.460  1.3608 -1.3903  1.0585
 2091SOL    MW4 8138   3.701   5.503   1.389  0.1407 -0.1475  0.2538
 2092SOL     OW 8139   1.655   4.889   2.973 -0.2064 -0.6947 -0.2346
 2092SOL    HW2 8140   1.649   4.799   3.004 -3.2376 -0.3722  0.4175
 2092SOL    HW3 8141   1.683   4.939   3.051  1.5107 -1.0224 -0.6070
 2092SOL    MW4 8142   1.658   4.884   2.988 -0.3798 -0.6954 -0.1977
 2093SOL     OW 8143   2.128   6.427   0.913 -0.5644 -0.8176  0.3225
 2093SOL    HW2 8144   2.154   6.438   0.822 -0.8378 -2.2300  0.0431
 2093SOL    HW3 8145   2.069   6.351   0.912 -1.1806 -0.3854  1.5644
 2093SOL    MW4 8146   2.124   6.418   0.901 -0.6818 -0.9469  0.4495
 2094SOL     OW 8147   4.182   2.378   2.997  0.1037 -0.6283 -0.1822
 2094SOL    HW2 8148   4.216   2.291   3.017 -1.1094 -1.4934 -1.6677
 2094SOL    HW3 8149   4.092   2.362   2.970 -0.9427  1.3717  1.7829
 2094SOL    MW4 8150   4.174   2.364   2.996 -0.1944 -0.4786 -0.1189
 2095SOL     OW 8151   3.610   0.817   1.415 -0.1882 -0.1323  0.1653
 2095SOL    HW2 8152   3.587   0.810   1.507  2.0723  0.6257  0.8567
 2095SOL    HW3 8153   3.612   0.912   1.398  2.9261 -0.0527  0.4133
 2095SOL    MW4 8154   3.607   0.829   1.425  0.5210 -0.0218  0.2893
 2096SOL     OW 8155   4.326   1.885   5.041  0.2338  0.0774 -0.1689
 2096SOL    HW2 8156   4.279   1.961   5.007  1.7873  0.8632 -0.6145
 2096SOL    HW3 8157   4.271   1.810   5.016 -2.2630  1.0957  1.8278
 2096SOL    MW4 8158   4.313   1.885   5.033  0.1094  0.3154  0.0358
 2097SOL     OW 8159   2.694   4.766   0.142  0.0196  0.2817  0.5512
 2097SOL    HW2 8160   2.643   4.837   0.103  0.7533  2.2465  2.8703
 2097SOL    HW3 8161   2.646   4.744   0.222  0.6614 -0.7369  0.6766
 2097SOL    MW4 8162   2.681   4.773   0.148  0.2011  0.4066  0.8737
 2098SOL     OW 8163   3.817   2.095   0.111  0.1430 -0.2546  0.3265
 2098SOL    HW2 8164   3.870   2.127   0.184 -0.8996  1.9679  0.2132
 2098SOL    HW3 8165   3.788   2.175   0.066  0.0119 -1.5171 -2.0000
 2098SOL    MW4 8166   3.820   2.110   0.115 -0.0118 -0.1279  0.0046
 2099SOL     OW 8167   4.456   0.318   1.606  0.1529 -0.0365 -0.0134
 2099SOL    HW2 8168   4.398   0.313   1.682 -0.2812  2.4737 -0.1045
 2099SOL    HW3 8169   4.404   0.285   1.533 -1.5783  2.8233 -0.2426
 2099SOL    MW4 8170   4.442   0.313   1.606 -0.1328  0.6720 -0.0556
 2100SOL     OW 8171   5.232   2.059   2.149 -0.5063 -0.0717  0.5906
 2100SOL    HW2 8172   5.189   2.036   2.067  0.5752 -1.7184  0.4444
 2100SOL    HW3 8173   5.233   2.155   2.149 -0.3074 -0.0161 -1.4582
 2100SOL    MW4 8174   5.227   2.069   2.138 -0.3374 -0.2816  0.3010
 2101SOL     OW 8175   6.294   6.012   5.813 -0.0160  0.9430  0.4106
 2101SOL    HW2 8176   6.368   5.952   5.820 -0.2449  0.6588  0.4018
 2101SOL    HW3 8177   6.238   5.990   5.887 -1.0417 -0.1488 -0.6505
 2101SOL    MW4 8178   6.297   6.001   5.824 -0.1815  0.7614  0.2694
 2102SOL     OW 8179   1.767   1.296   0.369  0.5953 -0.0971 -0.2726
 2102SOL    HW2 8180   1.824   1.247   0.309 -0.0515 -0.6450 -0.4474
 2102SOL    HW3 8181   1.739   1.373   0.317  1.4833  0.3911 -0.0495
 2102SOL    MW4 8182   1.771   1.300   0.354  0.6271 -0.1049 -0.2662
 2103SOL     OW 8183   0.107   6.133   2.501  0.1031 -0.1458  0.2397
 2103SOL    HW2 8184   0.160   6.101   2.575 -1.1138  0.9288  1.6390
 2103SOL    HW3 8185   0.129   6.226   2.494  0.1554 -0.2220 -0.7375
 2103SOL    MW4 8186   0.117   6.141   2.510 -0.0506 -0.0140  0.2954
 2104SOL     OW 8187   1.969   5.367   2.641  0.1625 -0.0432 -0.1922
 2104SOL    HW2 8188   1.903   5.417   2.593 -0.3732  0.1894  0.7538
 2104SOL    HW3 8189   2.032   5.433   2.670 -1.2311  0.3804  2.1943
 2104SOL    MW4 8190   1.969   5.382   2.638 -0.0920  0.0434  0.2475
 2105SOL     OW 8191   4.112   3.425   5.576 -0.2626  0.1132  0.3115
 2105SOL    HW2 8192   4.061   3.387   5.647 -2.5811 -1.5787 -2.1030
 2105SOL    HW3 8193   4.161   3.352   5.539  2.2805  1.2873  1.1150
 2105SOL    MW4 8194   4.112   3.410   5.581 -0.2330  0.0449  0.0990
 2106SOL     OW 8195   5.781   5.874   6.378  0.0799  0.0545  0.1854
 2106SOL    HW2 8196   5.867   5.851   6.342 -1.3796 -2.0760 -2.3299
 2106SOL    HW3 8197   5.760   5.801   6.437 -1.0460 -0.8888 -1.3019
 2106SOL    MW4 8198   5.790   5.861   6.381 -0.2613 -0.3510 -0.3427
 2107SOL     OW 8199   1.887   3.331   3.388 -0.4606 -0.2995 -0.4774
 2107SOL    HW2 8200   1.898   3.271   3.314 -0.0196  2.2347 -2.6183
 2107SOL    HW3 8201   1.924   3.414   3.357 -0.4312  0.9437  2.5687
 2107SOL    MW4 8202   1.893   3.334   3.374 -0.3985  0.1989 -0.3580
 2108SOL     OW 8203   2.247   1.598   4.841  0.4423  0.2145  0.2233
 2108SOL    HW2 8204   2.260   1.529   4.905  0.8079  1.2381  1.3035
 2108SOL    HW3 8205   2.294   1.673   4.877 -1.5983  1.6375  0.1364
 2108SOL    MW4 8206   2.255   1.599   4.854  0.2213  0.5373  0.3544
 2109SOL     OW 8207   4.573   1.967   0.566  0.5702 -0.1894 -0.1656
 2109SOL    HW2 8208   4.504   1.958   0.500  0.5100 -0.2097 -0.0995
 2109SOL    HW3 8209   4.650   1.995   0.516  1.0963 -2.2300 -0.5589
 2109SOL    MW4 8210   4.574   1.970   0.551  0.6317 -0.4613 -0.2087
 2110SOL     OW 8211   1.385   5.203   2.869  0.0384  0.3178  0.4532
 2110SOL    HW2 8212   1.473   5.229   2.842  0.0697  1.1712  1.3649
 2110SOL    HW3 8213   1.330   5.278   2.847 -0.5267 -0.2949 -0.3231
 2110SOL    MW4 8214   1.390   5.216   2.862 -0.0320  0.3496  0.4711
 2111SOL     OW 8215   0.805   4.990   2.706  0.4880  0.3043 -0.4679
 2111SOL    HW2 8216   0.785   4.921   2.770  3.0020 -0.6494 -0.5879
 2111SOL    HW3 8217   0.769   5.069   2.744  0.5775 -0.5054  1.4306
 2111SOL    MW4 8218   0.798   4.991   2.720  0.8315  0.0716 -0.2332
 2112SOL     OW 8219   3.456   4.695   5.612 -0.5111 -0.5211  0.2257
 2112SOL    HW2 8220   3.388   4.744   5.565 -0.6111  0.7033  1.5897
 2112SOL    HW3 8221   3.538   4.735   5.584 -0.5048 -0.4358  0.3678
 2112SOL    MW4 8222   3.458   4.707   5.602 -0.5235 -0.3483  0.4244
 2113SOL     OW 8223   4.820   4.031   5.118  0.2181  0.1005  0.5080
 2113SOL    HW2 8224   4.882   3.958   5.119 -1.2858 -1.3242 -0.9353
 2113SOL    HW3 8225   4.734   3.988   5.106 -0.6301  2.1139 -1.3447
 2113SOL    MW4 8226   4.817   4.015   5.116 -0.0923  0.1782  0.0732
 2114SOL     OW 8227   2.691   2.879   0.928  0.1502  0.5546 -0.4564
 2114SOL    HW2 8228   2.662   2.829   1.005  1.0227 -0.0908 -0.5332
 2114SOL    HW3 8229   2.765   2.931   0.960  0.2020  0.6580 -0.7408
 2114SOL    MW4 8230   2.697   2.880   0.943  0.2721  0.4831 -0.5040
 2115SOL     OW 8231   6.213   4.609   2.196  0.0907 -0.2310 -0.4167
 2115SOL    HW2 8232   6.131   4.560   2.199  0.4399 -0.8144 -0.1622
 2115SOL    HW3 8233   6.231   4.622   2.103 -0.7893  0.7796 -0.4762
 2115SOL    MW4 8234   6.205   4.605   2.184  0.0207 -0.1746 -0.3910
 2116SOL     OW 8235   0.248   0.510   2.956  0.0123 -0.0674 -0.1124
 2116SOL    HW2 8236   0.294   0.428   2.937 -0.3276 -0.0572 -1.0432
 2116SOL    HW3 8237   0.254   0.560   2.875 -0.9995  0.2330 -0.0139
 2116SOL    MW4 8238   0.255   0.506   2.942 -0.1660 -0.0264 -0.2222
 2117SOL     OW 8239   4.670   0.564   4.650 -0.7343  0.5929 -0.3981
 2117SOL    HW2 8240   4.649   0.568   4.743  0.3720 -2.2233  0.0647
 2117SOL    HW3 8241   4.765   0.573   4.646 -0.7083  0.0821 -1.1837
 2117SOL    MW4 8242   4.680   0.565   4.662 -0.5849  0.1539 -0.4407
 2118SOL     OW 8243   2.728   6.445   1.505  0.2647  0.5204  0.4913
 2118SOL    HW2 8244   2.787   6.460   1.579 -0.0554 -0.1551  0.8885
 2118SOL    HW3 8245   2.772   6.380   1.451 -0.2052 -0.1728  0.9159
 2118SOL    MW4 8246   2.741   6.438   1.507  0.1605  0.3398  0.5997
 2119SOL     OW 8247   3.781   1.770   2.104  0.0224 -0.3875 -0.0964
 2119SOL    HW2 8248   3.700   1.793   2.147 -0.7090 -0.5122 -1.3589
 2119SOL    HW3 8249   3.848   1.775   2.173 -0.8843  0.6607  0.7358
 2119SOL    MW4 8250   3.779   1.774   2.119 -0.1937 -0.2656 -0.1532
 2120SOL     OW 8251   1.723   4.022   1.533 -0.2093 -0.3972  0.4982
 2120SOL    HW2 8252   1.692   4.060   1.451 -1.7728 -2.3106  0.1305
 2120SOL    HW3 8253   1.797   3.967   1.507  0.4177  0.3554  0.6556
 2120SOL    MW4 8254   1.729   4.020   1.519 -0.3328 -0.5503  0.4704
 2121SOL     OW 8255   2.954   4.103   4.449  0.0848 -0.0904  0.6587
 2121SOL    HW2 8256   2.906   4.121   4.530 -0.3493 -0.2546  0.4405
 2121SOL    HW3 8257   2.917   4.021   4.416 -0.8098  0.7456 -0.5060
 2121SOL    MW4 8258   2.943   4.095   4.455 -0.0905 -0.0018  0.4762
 2122SOL     OW 8259   3.425   4.196   6.243  0.2067  0.7445 -0.7769
 2122SOL    HW2 8260   3.345   4.174   6.194  0.2636  0.1442 -0.6092
 2122SOL    HW3 8261   3.396   4.261   6.307 -0.5204 -0.6463  0.3669
 2122SOL    MW4 8262   3.410   4.201   6.245  0.1182  0.4818 -0.6039
 2123SOL     OW 8263   4.521   3.290   1.658 -0.0272 -0.2073  0.0788
 2123SOL    HW2 8264   4.470   3.273   1.579  1.3040 -0.0572 -0.8532
 2123SOL    HW3 8265   4.579   3.363   1.634  1.2047 -0.9157  0.8109
 2123SOL    MW4 8266   4.522   3.298   1.644  0.3109 -0.2810  0.0524
 2124SOL     OW 8267   0.946   1.292   2.889  0.4735 -0.2076 -0.3201
 2124SOL    HW2 8268   0.869   1.332   2.849  1.1939  1.4933 -0.0882
 2124SOL    HW3 8269   1.015   1.302   2.823  0.7155 -0.8962 -0.1732
 2124SOL    MW4 8270   0.945   1.299   2.875  0.6005 -0.0740 -0.2701
 2125SOL     OW 8271   2.208   0.478   2.638 -0.0818  0.5415 -0.3144
 2125SOL    HW2 8272   2.132   0.514   2.592 -1.5514  0.1185  1.6385
 2125SOL    HW3 8273   2.221   0.391   2.600 -1.4487  0.0784  0.2212
 2125SOL    MW4 8274   2.200   0.472   2.627 -0.4560  0.4246  0.0139
 2126SOL     OW 8275   4.296   3.643   4.784 -0.1323  0.5858 -0.5914
 2126SOL    HW2 8276   4.302   3.671   4.876  0.4548 -1.4856  0.0690
 2126SOL    HW3 8277   4.313   3.722   4.733  1.3686  1.4383  1.1139
 2126SOL    MW4 8278   4.299   3.657   4.790  0.1432  0.4250 -0.2793
 2127SOL     OW 8279   6.032   3.790   6.154 -0.6353 -0.2141 -0.2543
 2127SOL    HW2 8280   6.035   3.711   6.208 -1.3254 -0.3297 -0.3721
 2127SOL    HW3 8281   6.052   3.862   6.215 -1.4360 -0.3405  0.1751
 2127SOL    MW4 8282   6.035   3.789   6.169 -0.8320 -0.2460 -0.2132
 2128SOL     OW 8283   2.679   4.346   2.322 -0.7247  0.0294 -0.3556
 2128SOL    HW2 8284   2.602   4.370   2.374 -1.3337 -0.2158 -1.1329
 2128SOL    HW3 8285   2.734   4.297   2.383 -1.9731 -1.3062 -0.2348
 2128SOL    MW4 8286   2.676   4.343   2.337 -0.9697 -0.1792 -0.4422
 2129SOL     OW 8287   5.641   0.099   0.908 -1.1059  0.5502 -0.0382
 2129SOL    HW2 8288   5.576   0.164   0.882 -0.9287  0.7774  0.0902
 2129SOL    HW3 8289   5.678   0.132   0.990 -2.0803 -0.4448  0.8474
 2129SOL    MW4 8290   5.637   0.112   0.916 -1.2110  0.4489  0.0956
 2130SOL     OW 8291   1.813   4.107   2.984 -0.7782 -0.2679  0.2431
 2130SOL    HW2 8292   1.843   4.143   2.900 -1.6608  0.4357  0.2168
 2130SOL    HW3 8293   1.831   4.013   2.976 -0.8773 -0.2200 -0.7500
 2130SOL    MW4 8294   1.820   4.099   2.972 -0.9078 -0.1687  0.1086
 2131SOL     OW 8295   4.672   1.652   0.554 -0.4581  0.3682  0.0719
 2131SOL    HW2 8296   4.741   1.712   0.579 -1.3100  1.3010  0.2416
 2131SOL    HW3 8297   4.710   1.599   0.484 -0.3835  2.6488 -1.7364
 2131SOL    MW4 8298   4.686   1.653   0.548 -0.5607  0.7921 -0.1443
 2132SOL     OW 8299   4.991   5.808   2.763 -0.9393 -0.3891 -0.2069
 2132SOL    HW2 8300   4.925   5.811   2.694 -1.2273  0.3141  0.0858
 2132SOL    HW3 8301   4.961   5.739   2.822 -0.4835 -1.2593 -0.9782
 2132SOL    MW4 8302   4.978   5.800   2.762 -0.9172 -0.4112 -0.2701
 2133SOL     OW 8303   3.964   1.497   3.969  0.2654  0.8010  0.5267
 2133SOL    HW2 8304   3.893   1.472   3.910 -0.5600  0.2298  1.7121
 2133SOL    HW3 8305   4.021   1.420   3.973  0.4189  0.9043  0.3369
 2133SOL    MW4 8306   3.962   1.483   3.962  0.1767  0.7393  0.6580
 2134SOL     OW 8307   0.342   5.865   2.353 -0.6591 -0.2064  0.0131
 2134SOL    HW2 8308   0.429   5.826   2.351  0.6172  2.3924 -1.5757
 2134SOL    HW3 8309   0.282   5.791   2.364  1.5762 -2.4035 -1.5173
 2134SOL    MW4 8310   0.345   5.850   2.354 -0.1958 -0.1534 -0.3985
 2135SOL     OW 8311   2.992   2.926   4.505 -0.2083  0.1831  0.1516
 2135SOL    HW2 8312   2.946   2.913   4.422  1.8634 -0.1561 -0.9927
 2135SOL    HW3 8313   3.007   3.021   4.509  1.4817 -0.0109 -0.9038
 2135SOL    MW4 8314   2.988   2.937   4.495  0.2880  0.1128 -0.1386
 2136SOL     OW 8315   3.482   2.812   1.538 -0.8166  0.5819  0.2449
 2136SOL    HW2 8316   3.551   2.879   1.539 -2.2203  2.1894 -1.9346
 2136SOL    HW3 8317   3.404   2.859   1.568 -1.1174 -1.1552  2.4548
 2136SOL    MW4 8318   3.481   2.827   1.542 -1.0415  0.5648  0.2489
 2137SOL     OW 8319   1.359   1.264   2.489 -0.0663  0.1592 -0.4142
 2137SOL    HW2 8320   1.284   1.306   2.448 -1.1355  0.1212  1.3911
 2137SOL    HW3 8321   1.359   1.298   2.579  2.7482  1.0195 -0.6437
 2137SOL    MW4 8322   1.349   1.274   2.495  0.1640  0.2677 -0.2063
 2138SOL     OW 8323   0.395   0.724   5.475  0.3675 -0.2792  0.0115
 2138SOL    HW2 8324   0.482   0.704   5.510 -0.2349 -0.0825  1.7585
 2138SOL    HW3 8325   0.338   0.657   5.512 -0.7379  1.4001  1.5503
 2138SOL    MW4 8326   0.399   0.713   5.485  0.1422 -0.0317  0.4450
 2139SOL     OW 8327   0.833   5.658   4.679 -0.4582  0.4535  0.1548
 2139SOL    HW2 8328   0.817   5.606   4.601 -0.4247 -0.5151  0.7763
 2139SOL    HW3 8329   0.928   5.668   4.682 -0.4223  0.0820  0.3229
 2139SOL    MW4 8330   0.843   5.652   4.669 -0.4491  0.2767  0.2590
 2140SOL     OW 8331   6.295   2.972   1.699  0.3563 -0.0513 -0.3329
 2140SOL    HW2 8332   6.211   2.954   1.658  0.3272 -0.4985 -0.0907
 2140SOL    HW3 8333   6.336   2.886   1.708  0.4182  0.0474  0.4368
 2140SOL    MW4 8334   6.290   2.958   1.695  0.3606 -0.0973 -0.1994
 2141SOL     OW 8335   0.376   1.390   2.828  0.4228  0.1968  0.4446
 2141SOL    HW2 8336   0.300   1.343   2.793  1.7293 -1.0397 -0.9231
 2141SOL    HW3 8337   0.451   1.342   2.793  1.8474  1.9745  0.9106
 2141SOL    MW4 8338   0.376   1.377   2.819  0.7831  0.2682  0.3256
 2142SOL     OW 8339   0.771   5.559   1.189  0.0354  0.2574  0.0392
 2142SOL    HW2 8340   0.754   5.467   1.168 -0.4599  0.5261 -0.7720
 2142SOL    HW3 8341   0.793   5.558   1.282 -0.8433 -0.5779  0.2581
 2142SOL    MW4 8342   0.771   5.547   1.199 -0.1459  0.1826 -0.0389
 2143SOL     OW 8343   1.280   5.884   5.195 -0.0995 -0.1351  0.2931
 2143SOL    HW2 8344   1.280   5.979   5.182 -1.4059 -0.3034 -1.3399
 2143SOL    HW3 8345   1.187   5.860   5.193  0.2567 -1.6390 -1.2712
 2143SOL    MW4 8346   1.268   5.893   5.193 -0.2249 -0.3557 -0.1287
 2144SOL     OW 8347   0.712   4.665   2.038  0.0818  0.0904  0.0506
 2144SOL    HW2 8348   0.726   4.743   2.091  1.0594  0.8863 -1.3053
 2144SOL    HW3 8349   0.774   4.600   2.073  0.2822  0.3987  0.2701
 2144SOL    MW4 8350   0.722   4.667   2.050  0.2372  0.2361 -0.0993
 2145SOL     OW 8351   5.822   5.434   5.099 -0.6245  0.1509 -0.1956
 2145SOL    HW2 8352   5.885   5.488   5.147 -0.3793 -0.3562  0.0613
 2145SOL    HW3 8353   5.779   5.495   5.039  0.4588  0.4148 -0.7302
 2145SOL    MW4 8354   5.825   5.449   5.097 -0.4492  0.1188 -0.2322
 2146SOL     OW 8355   3.752   0.981   5.306  0.4911  0.2610 -0.0091
 2146SOL    HW2 8356   3.796   1.065   5.302  0.4309  0.2752 -0.4388
 2146SOL    HW3 8357   3.805   0.923   5.252  0.9835 -0.1903  0.9492
 2146SOL    MW4 8358   3.765   0.984   5.298  0.5481  0.2034  0.0606
 2147SOL     OW 8359   0.863   4.449   5.600 -0.3595 -0.1410  0.4100
 2147SOL    HW2 8360   0.872   4.544   5.591  1.5564 -0.1912  1.2065
 2147SOL    HW3 8361   0.859   4.434   5.695  0.3244 -0.9026  0.3300
 2147SOL    MW4 8362   0.864   4.460   5.612 -0.0165 -0.2481  0.5046
 2148SOL     OW 8363   4.565   5.413   1.464 -0.4895  0.3474  0.0148
 2148SOL    HW2 8364   4.576   5.318   1.468  0.3972  0.3897 -1.0859
 2148SOL    HW3 8365   4.486   5.425   1.412 -0.2149  0.2256 -0.4318
 2148SOL    MW4 8366   4.556   5.402   1.458 -0.3363  0.3369 -0.1894
 2149SOL     OW 8367   4.993   3.891   4.703 -0.0323  0.2331 -0.2150
 2149SOL    HW2 8368   4.904   3.915   4.730  0.0842  0.5578 -0.1136
 2149SOL    HW3 8369   4.995   3.795   4.709  0.5252  0.3621  2.6432
 2149SOL    MW4 8370   4.982   3.881   4.707  0.0566  0.2930  0.1755
 2150SOL     OW 8371   5.668   5.238   5.481 -0.0445 -0.0132  0.1975
 2150SOL    HW2 8372   5.763   5.238   5.469 -0.0698  0.7099 -0.0856
 2150SOL    HW3 8373   5.639   5.320   5.440 -0.6394  0.3960  1.4025
 2150SOL    MW4 8374   5.677   5.249   5.474 -0.1263  0.1362  0.3191
 2151SOL     OW 8375   1.284   2.953   4.110 -0.3896 -0.7244 -0.1188
 2151SOL    HW2 8376   1.356   2.992   4.060  0.0300 -0.4396  0.6941
 2151SOL    HW3 8377   1.252   3.024   4.165 -1.8790 -0.6039 -1.0760
 2151SOL    MW4 8378   1.289   2.968   4.110 -0.5308 -0.6709 -0.1379
 2152SOL     OW 8379   4.156   1.977   2.220  0.4785 -0.2062  0.1145
 2152SOL    HW2 8380   4.100   1.978   2.298 -1.3534 -1.1013 -1.1203
 2152SOL    HW3 8381   4.220   1.908   2.238  1.6693  1.2432  1.8089
 2152SOL    MW4 8382   4.157   1.968   2.233  0.3939 -0.1331  0.1752
 2153SOL     OW 8383   0.815   3.384   3.759 -0.2657 -0.2376  0.3099
 2153SOL    HW2 8384   0.811   3.422   3.672  0.6626  0.7532  0.6688
 2153SOL    HW3 8385   0.799   3.290   3.746 -0.2988 -0.0744 -0.8977
 2153SOL    MW4 8386   0.813   3.376   3.746 -0.1476 -0.0854  0.1979
 2154SOL     OW 8387   3.375   6.017   5.302 -0.0413 -0.3592 -0.5415
 2154SOL    HW2 8388   3.372   6.050   5.392  1.4499  0.9109 -0.9275
 2154SOL    HW3 8389   3.322   6.078   5.252 -1.4372 -1.4504 -0.4517
 2154SOL    MW4 8390   3.368   6.029   5.308 -0.0287 -0.3356 -0.5806
 2155SOL     OW 8391   2.132   4.751   2.644  0.0115  0.3511 -0.1801
 2155SOL    HW2 8392   2.196   4.820   2.658 -0.0306  0.7347 -1.7002
 2155SOL    HW3 8393   2.157   4.681   2.705 -0.5840  2.0782  2.1824
 2155SOL    MW4 8394   2.144   4.751   2.654 -0.0726  0.6296 -0.0689
 2156SOL     OW 8395   4.005   2.490   1.297  0.0585  0.0129 -0.3981
 2156SOL    HW2 8396   4.019   2.420   1.360  0.5097 -0.1041 -0.6260
 2156SOL    HW3 8397   3.938   2.546   1.338  0.8505  0.3196  0.5043
 2156SOL    MW4 8398   3.998   2.488   1.311  0.2226  0.0379 -0.3091
 2157SOL     OW 8399   2.234   5.010   2.449 -0.0363  0.3265 -0.3243
 2157SOL    HW2 8400   2.170   4.939   2.439 -0.0389  0.3172 -0.2427
 2157SOL    HW3 8401   2.311   4.967   2.486 -0.5438  0.6160  1.1500
 2157SOL    MW4 8402   2.236   4.995   2.452 -0.1036  0.3635 -0.1190
 2158SOL     OW 8403   6.413   5.093   3.443  0.7127 -0.3321 -0.5136
 2158SOL    HW2 8404   6.429   5.160   3.510  0.1009  0.1456 -0.8347
 2158SOL    HW3 8405   6.385   5.016   3.492 -0.3494  0.2015 -0.2448
 2158SOL    MW4 8406   6.412   5.092   3.458  0.4919 -0.1987 -0.5205
 2159SOL     OW 8407   5.035   0.814   1.538  0.3958  0.1213 -0.0938
 2159SOL    HW2 8408   5.075   0.763   1.609  0.4586  0.6726  0.2694
 2159SOL    HW3 8409   4.949   0.773   1.527  0.4426 -0.0665  0.2031
 2159SOL    MW4 8410   5.029   0.802   1.546  0.4103  0.1693 -0.0067
 2160SOL     OW 8411   2.646   3.540   0.934  0.9846 -0.2377 -0.3310
 2160SOL    HW2 8412   2.641   3.599   1.009  2.3469 -0.7173  0.1759
 2160SOL    HW3 8413   2.587   3.578   0.869 -1.9508 -0.9384  1.7041
 2160SOL    MW4 8414   2.638   3.553   0.936  0.7770 -0.3934  0.0044
 2161SOL     OW 8415   0.582   1.943   2.598 -0.0587  0.1507  0.7090
 2161SOL    HW2 8416   0.645   1.948   2.527  1.1555 -0.0099  1.7436
 2161SOL    HW3 8417   0.521   1.873   2.571 -0.2837  0.8419 -0.6526
 2161SOL    MW4 8418   0.582   1.934   2.585  0.0718  0.2207  0.6659
 2162SOL     OW 8419   6.086   4.401   1.891  0.0778  0.3485 -0.1493
 2162SOL    HW2 8420   6.114   4.360   1.973  1.4475 -0.1245 -0.8170
 2162SOL    HW3 8421   6.132   4.485   1.890 -0.6928  0.7796  0.0051
 2162SOL    MW4 8422   6.096   4.407   1.902  0.1568  0.3430 -0.2170
 2163SOL     OW 8423   3.717   4.751   0.690  0.2181 -0.4314 -0.3828
 2163SOL    HW2 8424   3.692   4.664   0.722 -1.6376 -0.1661 -0.9544
 2163SOL    HW3 8425   3.763   4.792   0.764 -2.3898 -0.4744  1.4047
 2163SOL    MW4 8426   3.719   4.745   0.704 -0.3708 -0.4020 -0.2223
 2164SOL     OW 8427   5.814   5.702   4.782  0.0160 -0.4478  0.6391
 2164SOL    HW2 8428   5.890   5.692   4.839  0.4351 -1.9432 -0.1214
 2164SOL    HW3 8429   5.771   5.617   4.784 -0.7796 -0.0846 -0.1340
 2164SOL    MW4 8430   5.819   5.690   4.790 -0.0337 -0.5972  0.4368
 2165SOL     OW 8431   1.681   5.420   6.247 -0.1783 -0.5992  0.3955
 2165SOL    HW2 8432   1.722   5.505   6.266 -0.4424  0.2538 -2.4330
 2165SOL    HW3 8433   1.713   5.362   6.316  2.5105  1.0334  0.6544
 2165SOL    MW4 8434   1.690   5.424   6.259  0.1416 -0.2713  0.0565
 2166SOL     OW 8435   3.595   6.017   5.813 -0.2423 -0.5819 -0.3964
 2166SOL    HW2 8436   3.576   6.095   5.866  0.7111  0.9430 -2.1525
 2166SOL    HW3 8437   3.633   5.954   5.874  0.3199  0.8983  0.8389
 2166SOL    MW4 8438   3.598   6.019   5.828 -0.0423 -0.1854 -0.4651
 2167SOL     OW 8439   5.434   4.755   3.662 -0.3742 -0.3757 -0.2217
 2167SOL    HW2 8440   5.415   4.803   3.581 -0.3632 -0.8616 -0.5140
 2167SOL    HW3 8441   5.507   4.803   3.702 -1.6612  1.0532  0.5225
 2167SOL    MW4 8442   5.441   4.768   3.657 -0.5426 -0.2513 -0.1621
 2168SOL     OW 8443   1.342   3.743   1.973 -0.0196  0.2623  0.0514
 2168SOL    HW2 8444   1.374   3.711   1.889  0.6975 -1.9920  1.1171
 2168SOL    HW3 8445   1.404   3.811   1.999  1.6772 -1.2819  0.2217
 2168SOL    MW4 8446   1.354   3.748   1.966  0.2989 -0.2389  0.2144
 2169SOL     OW 8447   4.219   2.106   4.862  0.0087 -0.3241  0.3206
 2169SOL    HW2 8448   4.218   2.032   4.801 -0.0315 -1.1497  1.2871
 2169SOL    HW3 8449   4.150   2.085   4.926 -0.7324  1.0685  0.0370
 2169SOL    MW4 8450   4.210   2.093   4.862 -0.0943 -0.2493  0.4107
 2170SOL     OW 8451   0.755   5.801   2.069  0.1652 -0.4017  0.2590
 2170SOL    HW2 8452   0.765   5.722   2.121 -0.2306 -1.5777 -1.3535
 2170SOL    HW3 8453   0.673   5.788   2.021  0.5525  0.5621 -0.7211
 2170SOL    MW4 8454   0.746   5.789   2.069  0.1641 -0.4297 -0.0831
 2171SOL     OW 8455   6.361   3.551   4.564  0.0430  0.8314  0.3063
 2171SOL    HW2 8456   6.426   3.571   4.496 -1.0723  0.7067 -0.8360
 2171SOL    HW3 8457   6.405   3.489   4.621  0.4140 -0.5483 -1.3847
 2171SOL    MW4 8458   6.375   3.546   4.562 -0.0552  0.6329 -0.0675
 2172SOL     OW 8459   5.542   3.570   2.813 -0.2771 -0.1903 -0.1690
 2172SOL    HW2 8460   5.565   3.628   2.741 -1.8502 -1.0428 -1.4275
 2172SOL    HW3 8461   5.537   3.628   2.889 -2.2781  1.4969 -1.4552
 2172SOL    MW4 8462   5.544   3.585   2.814 -0.7487 -0.0801 -0.5047
 2173SOL     OW 8463   4.758   0.347   0.806 -0.3081 -0.0253  0.7046
 2173SOL    HW2 8464   4.846   0.384   0.800 -0.7006  0.7939 -0.2745
 2173SOL    HW3 8465   4.725   0.348   0.716 -1.7843  0.8519  1.2218
 2173SOL    MW4 8466   4.765   0.352   0.793 -0.5547  0.1985  0.6436
 2174SOL     OW 8467   3.077   0.092   4.399 -0.1606  0.3965  0.8666
 2174SOL    HW2 8468   3.153   0.073   4.454  0.1723 -0.1193  0.2549
 2174SOL    HW3 8469   3.074   0.187   4.394  1.2829  0.4413 -0.1797
 2174SOL    MW4 8470   3.087   0.102   4.405  0.0738  0.3343  0.6479
 2175SOL     OW 8471   6.291   3.753   2.405  0.3232 -0.2028 -0.7622
 2175SOL    HW2 8472   6.352   3.822   2.377 -1.1377  1.3567 -0.3010
 2175SOL    HW3 8473   6.255   3.786   2.488 -0.2592 -1.6465 -0.4123
 2175SOL    MW4 8474   6.295   3.767   2.412  0.0536 -0.1876 -0.6552
 2176SOL     OW 8475   5.782   4.053   3.467 -0.4521  0.1286 -0.0800
 2176SOL    HW2 8476   5.796   4.147   3.475 -1.3055  0.4523 -1.9011
 2176SOL    HW3 8477   5.841   4.014   3.532  1.3930  1.8205 -0.6496
 2176SOL    MW4 8478   5.792   4.060   3.477 -0.3212  0.3945 -0.3954
 2177SOL     OW 8479   2.755   0.349   3.416 -0.4826 -0.3940  0.1902
 2177SOL    HW2 8480   2.715   0.361   3.330  1.3245 -1.2041 -0.8448
 2177SOL    HW3 8481   2.685   0.314   3.470 -1.9045  0.9649 -0.6811
 2177SOL    MW4 8482   2.741   0.346   3.411 -0.4318 -0.3216 -0.0613
 2178SOL     OW 8483   1.536   0.090   0.741 -0.3288 -0.4992  0.9332
 2178SOL    HW2 8484   1.615   0.096   0.793 -0.4607  1.0279  1.0113
 2178SOL    HW3 8485   1.548   0.013   0.686  0.3129 -1.4568  2.3757
 2178SOL    MW4 8486   1.548   0.081   0.741 -0.2616 -0.4240  1.1338
 2179SOL     OW 8487   6.210   2.969   2.267  0.1645 -0.2387 -0.3587
 2179SOL    HW2 8488   6.126   2.926   2.282 -0.1589 -0.0972 -1.6019
 2179SOL    HW3 8489   6.192   3.062   2.282  0.8394 -0.4592  2.2300
 2179SOL    MW4 8490   6.196   2.976   2.271  0.2109 -0.2491 -0.1812
 2180SOL     OW 8491   2.984   6.071   3.239  0.0978 -0.1969 -0.0295
 2180SOL    HW2 8492   3.033   6.138   3.191  2.4426 -1.2351  0.7773
 2180SOL    HW3 8493   2.946   6.016   3.171  0.0605  0.6000 -0.6793
 2180SOL    MW4 8494   2.985   6.073   3.224  0.4022 -0.2287 -0.0088
 2181SOL     OW 8495   0.038   2.520   1.277  0.1976 -0.2805 -0.1684
 2181SOL    HW2 8496   0.096   2.533   1.202  2.1205  1.0380  1.4546
 2181SOL    HW3 8497   0.091   2.470   1.339 -1.1984 -0.9197  0.5517
 2181SOL    MW4 8498   0.053   2.515   1.275  0.2671 -0.1909  0.1408
 2182SOL     OW 8499   2.883   1.052   3.076 -1.0197 -0.1388  0.0932
 2182SOL    HW2 8500   2.869   1.146   3.084 -2.1095 -0.3950  1.5412
 2182SOL    HW3 8501   2.809   1.021   3.023 -1.2100 -0.3227  0.4682
 2182SOL    MW4 8502   2.871   1.060   3.070 -1.1886 -0.1969  0.3337
 2183SOL     OW 8503   5.198   1.793   1.007  0.2260 -0.1497  0.0040
 2183SOL    HW2 8504   5.249   1.866   1.042 -1.0320 -0.5650  3.0560
 2183SOL    HW3 8505   5.116   1.833   0.977  1.2398  0.1829 -2.5612
 2183SOL    MW4 8506   5.194   1.808   1.008  0.1938 -0.1606  0.0683
 2184SOL     OW 8507   4.221   5.701   1.337 -0.2227 -0.7002  0.5044
 2184SOL    HW2 8508   4.248   5.788   1.306  1.1294 -0.7587  1.4225
 2184SOL    HW3 8509   4.145   5.717   1.392  0.9560  0.1365  1.9566
 2184SOL    MW4 8510   4.215   5.715   1.340  0.1112 -0.5975  0.8171
 2185SOL     OW 8511   4.025   6.239   4.460  0.2750  0.2827 -0.0159
 2185SOL    HW2 8512   4.011   6.321   4.411  1.8262  1.3160  1.1876
 2185SOL    HW3 8513   4.036   6.267   4.551  1.7097 -1.1696  0.2918
 2185SOL    MW4 8514   4.024   6.254   4.465  0.6690  0.2274  0.1835
 2186SOL     OW 8515   5.506   1.031   1.253 -0.6352 -0.5574 -0.0335
 2186SOL    HW2 8516   5.525   0.980   1.174  1.4901  0.1945 -0.0755
 2186SOL    HW3 8517   5.464   0.969   1.312  0.1219 -1.8409 -0.7982
 2186SOL    MW4 8518   5.503   1.016   1.250 -0.2549 -0.6276 -0.1399
 2187SOL     OW 8519   1.318   0.581   6.050 -0.1158 -0.2411 -0.0750
 2187SOL    HW2 8520   1.299   0.674   6.066  1.9650  0.2157 -0.0385
 2187SOL    HW3 8521   1.380   0.581   5.977 -0.4742 -1.6533 -0.4038
 2187SOL    MW4 8522   1.324   0.593   6.043  0.1114 -0.3672 -0.1135
 2188SOL     OW 8523   4.567   0.123   5.204  0.3679  0.0170  0.2960
 2188SOL    HW2 8524   4.641   0.090   5.153 -0.8853 -3.0810  0.3223
 2188SOL    HW3 8525   4.593   0.111   5.295  0.7908  1.3564  0.3849
 2188SOL    MW4 8526   4.580   0.117   5.209  0.2583 -0.2150  0.3112
 2189SOL     OW 8527   0.773   2.013   6.270 -0.4084  0.2336  0.4188
 2189SOL    HW2 8528   0.837   1.989   6.203  1.1376 -0.6113  2.1286
 2189SOL    HW3 8529   0.693   1.967   6.244  0.5292 -1.1541 -0.1392
 2189SOL    MW4 8530   0.771   2.004   6.258 -0.0807 -0.0610  0.5708
 2190SOL     OW 8531   5.422   4.958   1.911 -0.0297  0.1142  0.3706
 2190SOL    HW2 8532   5.360   4.890   1.884  0.3141 -0.0774  0.0469
 2190SOL    HW3 8533   5.431   4.947   2.006 -0.6785  0.3048  0.4537
 2190SOL    MW4 8534   5.415   4.948   1.920 -0.0699  0.1141  0.3388
 2191SOL     OW 8535   1.840   1.223   5.796 -0.1276  0.5793 -0.8904
 2191SOL    HW2 8536   1.904   1.168   5.842 -2.1768 -1.3790 -0.1933
 2191SOL    HW3 8537   1.774   1.242   5.862 -0.5508  2.1125 -1.7261
 2191SOL    MW4 8538   1.840   1.218   5.811 -0.4538  0.5232 -0.9087
 2192SOL     OW 8539   5.114   4.492   2.567  0.2598 -0.9063  0.1856
 2192SOL    HW2 8540   5.103   4.430   2.639 -1.1804  2.9919  3.8143
 2192SOL    HW3 8541   5.198   4.534   2.584  0.3034 -0.5147 -0.9233
 2192SOL    MW4 8542   5.123   4.490   2.579  0.0756 -0.3403  0.5181
 2193SOL     OW 8543   3.581   2.439   5.087  0.3110  0.0195  0.2991
 2193SOL    HW2 8544   3.673   2.413   5.084  0.7119  1.3747  0.1256
 2193SOL    HW3 8545   3.580   2.526   5.047 -0.8077  0.6495  1.6308
 2193SOL    MW4 8546   3.593   2.447   5.082  0.2163  0.2814  0.4519
 2194SOL     OW 8547   1.882   4.095   4.454  0.0452 -0.2126 -0.2216
 2194SOL    HW2 8548   1.821   4.023   4.469  1.0719 -0.7522  1.6562
 2194SOL    HW3 8549   1.872   4.152   4.531  0.4388  0.7772 -0.8775
 2194SOL    MW4 8550   1.873   4.093   4.466  0.2326 -0.1532 -0.0604
 2195SOL     OW 8551   5.189   1.667   4.376  0.4608 -0.8496 -0.2284
 2195SOL    HW2 8552   5.275   1.671   4.334  0.8608 -0.7251  0.5815
 2195SOL    HW3 8553   5.137   1.732   4.328  1.0060 -0.4633 -0.3148
 2195SOL    MW4 8554   5.194   1.676   4.364  0.5855 -0.7822 -0.1330
 2196SOL     OW 8555   5.216   4.384   0.135 -0.9650  0.1123 -0.0814
 2196SOL    HW2 8556   5.157   4.451   0.169  0.0708  1.2350 -0.4427
 2196SOL    HW3 8557   5.209   4.392   0.040  0.3649  0.8093 -0.1354
 2196SOL    MW4 8558   5.207   4.394   0.127 -0.6529  0.3524 -0.1362
 2197SOL     OW 8559   5.865   5.225   0.568 -0.3555  0.0380 -0.2445
 2197SOL    HW2 8560   5.949   5.265   0.589  0.1884  0.0980 -2.3606
 2197SOL    HW3 8561   5.838   5.183   0.650  2.1546 -0.7439  0.2743
 2197SOL    MW4 8562   5.872   5.224   0.582  0.0474 -0.0572 -0.4552
 2198SOL     OW 8563   3.741   4.839   4.048 -0.1895  0.1165  0.0462
 2198SOL    HW2 8564   3.668   4.855   4.108 -0.2647  2.5259 -0.5982
 2198SOL    HW3 8565   3.767   4.926   4.018  2.2370 -0.7599 -0.6179
 2198SOL    MW4 8566   3.735   4.853   4.052  0.1207  0.3187 -0.1264
 2199SOL     OW 8567   0.541   2.918   6.107  0.1104  0.4827 -0.0051
 2199SOL    HW2 8568   0.604   2.968   6.159  0.0383  0.5472  0.0205
 2199SOL    HW3 8569   0.466   2.908   6.165 -0.6371  1.9854 -0.6709
 2199SOL    MW4 8570   0.540   2.923   6.122  0.0022  0.6895 -0.0896
 2200SOL     OW 8571   4.203   4.464   2.150 -0.5149 -0.0854 -0.3238
 2200SOL    HW2 8572   4.162   4.491   2.232  1.5967  0.5476  0.5959
 2200SOL    HW3 8573   4.178   4.532   2.088  0.3950  1.1837  0.6370
 2200SOL    MW4 8574   4.194   4.477   2.153 -0.1162  0.1655 -0.0757
 2201SOL     OW 8575   6.055   0.865   5.123 -0.9938 -0.5700  0.1714
 2201SOL    HW2 8576   6.127   0.826   5.173 -1.6070  0.0047  1.5649
 2201SOL    HW3 8577   5.995   0.898   5.190 -1.6410  0.6298 -0.9617
 2201SOL    MW4 8578   6.057   0.864   5.139 -1.1601 -0.3359  0.2058
 2202SOL     OW 8579   1.122   2.318   3.076  0.1409  0.0671  0.4414
 2202SOL    HW2 8580   1.216   2.335   3.079 -0.1066  1.5864  0.6547
 2202SOL    HW3 8581   1.106   2.285   2.988  1.2391 -2.9405  1.2460
 2202SOL    MW4 8582   1.132   2.316   3.065  0.2531 -0.1292  0.5757
 2203SOL     OW 8583   0.986   5.329   4.048 -0.2123  0.2857  0.1990
 2203SOL    HW2 8584   0.937   5.306   3.969  0.9813 -0.3629 -0.3737
 2203SOL    HW3 8585   1.040   5.404   4.022 -1.3313  1.4297  1.0101
 2203SOL    MW4 8586   0.987   5.336   4.034 -0.2025  0.3510  0.2305
 2204SOL     OW 8587   2.152   1.428   3.097 -0.0363 -0.3539 -0.3633
 2204SOL    HW2 8588   2.057   1.428   3.106 -0.1513 -3.0557 -0.7634
 2204SOL    HW3 8589   2.169   1.462   3.009 -0.7942 -1.6925 -1.0548
 2204SOL    MW4 8590   2.142   1.433   3.087 -0.1514 -0.8869 -0.5073
 2205SOL     OW 8591   0.169   5.481   4.096  0.1007 -0.0806 -0.0836
 2205SOL    HW2 8592   0.198   5.572   4.104  2.1959 -0.6907 -0.0930
 2205SOL    HW3 8593   0.100   5.484   4.029  0.0503  1.5051 -0.0017
 2205SOL    MW4 8594   0.164   5.493   4.088  0.3705  0.0481 -0.0741
 2206SOL     OW 8595   2.597   6.273   0.162  0.1750  0.1309 -0.0026
 2206SOL    HW2 8596   2.548   6.201   0.122 -0.3723  0.8988 -0.7447
 2206SOL    HW3 8597   2.531   6.338   0.186  0.7247  0.7016  0.0171
 2206SOL    MW4 8598   2.582   6.272   0.160  0.1753  0.3075 -0.0979
 2207SOL     OW 8599   1.810   1.432   5.433 -0.2089 -0.1374 -0.3996
 2207SOL    HW2 8600   1.784   1.379   5.358  3.4525 -1.2523 -1.1119
 2207SOL    HW3 8601   1.825   1.520   5.397 -0.8579 -0.0336 -0.4217
 2207SOL    MW4 8602   1.809   1.437   5.418  0.1886 -0.2708 -0.4965
 2208SOL     OW 8603   4.356   2.646   0.207 -0.6366  0.1296  0.1323
 2208SOL    HW2 8604   4.448   2.660   0.182 -0.5106 -0.8515  0.0118
 2208SOL    HW3 8605   4.312   2.622   0.126 -0.5685 -1.3959  0.5066
 2208SOL    MW4 8606   4.363   2.645   0.193 -0.6110 -0.2011  0.1658
 2209SOL     OW 8607   0.957   2.188   3.537  0.2008 -0.4279  0.4153
 2209SOL    HW2 8608   1.033   2.163   3.589 -0.3938 -1.3922  0.8589
 2209SOL    HW3 8609   0.988   2.187   3.447  0.7715 -0.5958  0.6101
 2209SOL    MW4 8610   0.971   2.185   3.532  0.1976 -0.5773  0.4995
 2210SOL     OW 8611   0.065   1.323   0.307  0.0617  0.1869 -0.4197
 2210SOL    HW2 8612   0.052   1.386   0.236 -1.5716 -1.3589 -1.5855
 2210SOL    HW3 8613  -0.016   1.272   0.309  1.1171 -1.5605  0.7797
 2210SOL    MW4 8614   0.052   1.325   0.297 -0.0146 -0.2476 -0.4153
 2211SOL     OW 8615   5.849   6.045   3.036  0.8418 -0.1435  0.7225
 2211SOL    HW2 8616   5.765   6.061   3.078  0.7840 -0.3120  0.6698
 2211SOL    HW3 8617   5.827   5.996   2.957  0.9841 -0.1347  0.6770
 2211SOL    MW4 8618   5.835   6.041   3.031  0.8530 -0.1646  0.7095
 2212SOL     OW 8619   5.003   1.364   2.658  0.3652  1.1289 -0.0919
 2212SOL    HW2 8620   4.988   1.327   2.745  1.8500 -0.7360 -0.5675
 2212SOL    HW3 8621   4.919   1.355   2.613  0.1972 -0.0264  0.4216
 2212SOL    MW4 8622   4.990   1.358   2.664  0.5389  0.7304 -0.0869
 2213SOL     OW 8623   1.915   1.135   2.543 -0.3908  0.3086 -0.7885
 2213SOL    HW2 8624   1.933   1.198   2.473  0.6230  0.8223 -0.0929
 2213SOL    HW3 8625   1.995   1.082   2.549 -0.7756 -0.2545 -0.5599
 2213SOL    MW4 8626   1.928   1.137   2.535 -0.3078  0.3021 -0.6666
 2214SOL     OW 8627   5.068   3.537   2.908 -0.1448 -0.4517  0.5274
 2214SOL    HW2 8628   5.102   3.503   2.990  2.0331 -0.0776 -0.1442
 2214SOL    HW3 8629   4.988   3.487   2.892  1.6889 -3.7334  0.6953
 2214SOL    MW4 8630   5.062   3.526   2.916  0.3845 -0.8353  0.4609
 2215SOL     OW 8631   4.014   1.246   0.176 -0.1688 -0.1901  0.2584
 2215SOL    HW2 8632   4.077   1.300   0.129  0.1454 -1.3639 -0.6937
 2215SOL    HW3 8633   3.983   1.303   0.247  0.1133  1.2523 -0.7302
 2215SOL    MW4 8634   4.018   1.261   0.179 -0.0901 -0.1546  0.0024
 2216SOL     OW 8635   4.204   3.029   2.859 -0.5013 -0.2066  0.0773
 2216SOL    HW2 8636   4.141   3.102   2.856 -1.0730 -0.7373 -1.9914
 2216SOL    HW3 8637   4.289   3.072   2.868 -0.6105  0.9289 -3.2143
 2216SOL    MW4 8638   4.207   3.044   2.860 -0.5911 -0.1268 -0.6299
 2217SOL     OW 8639   5.370   0.511   1.908  0.2059 -0.2330 -0.1507
 2217SOL    HW2 8640   5.338   0.438   1.855 -0.9974 -0.3170  0.6695
 2217SOL    HW3 8641   5.441   0.548   1.856 -0.1643 -1.0403 -1.2733
 2217SOL    MW4 8642   5.375   0.506   1.894 -0.0017 -0.3506 -0.1906
 2218SOL     OW 8643   2.874   4.799   4.770  0.5486  0.3459 -0.4909
 2218SOL    HW2 8644   2.954   4.811   4.718  0.6677 -2.1483 -1.0084
 2218SOL    HW3 8645   2.813   4.756   4.710 -0.3880  0.1604  0.5711
 2218SOL    MW4 8646   2.877   4.795   4.755  0.4407 -0.0076 -0.4190
 2219SOL     OW 8647   6.181   5.221   2.499  0.2731  0.0963 -0.8998
 2219SOL    HW2 8648   6.192   5.308   2.460  1.9929  0.5013  0.3891
 2219SOL    HW3 8649   6.269   5.184   2.500 -0.3374 -1.4241 -0.8452
 2219SOL    MW4 8650   6.194   5.228   2.494  0.4195 -0.0509 -0.7225
 2220SOL     OW 8651   2.860   5.881   0.466  0.3634  0.1575  0.1684
 2220SOL    HW2 8652   2.880   5.959   0.517  0.4178 -0.1891  0.6914
 2220SOL    HW3 8653   2.868   5.809   0.529 -1.1577 -0.1291  0.0906
 2220SOL    MW4 8654   2.863   5.882   0.481  0.1699  0.0740  0.2272
 2221SOL     OW 8655   3.127   4.577   2.958 -0.4519 -0.1215 -0.1062
 2221SOL    HW2 8656   3.036   4.547   2.953 -0.3145 -0.3441 -1.8588
 2221SOL    HW3 8657   3.122   4.662   3.002 -1.7774  0.7951 -1.9072
 2221SOL    MW4 8658   3.114   4.584   2.963 -0.6086 -0.0300 -0.5750
 2222SOL     OW 8659   1.788   5.251   4.351 -0.3914 -0.6565  0.1460
 2222SOL    HW2 8660   1.869   5.244   4.300 -0.5308  2.5165 -0.7166
 2222SOL    HW3 8661   1.807   5.317   4.417 -2.2304  0.1057 -0.0291
 2222SOL    MW4 8662   1.801   5.259   4.353 -0.6524 -0.1373  0.0091
 2223SOL     OW 8663   6.156   5.140   2.241 -0.0530  0.5661 -0.1857
 2223SOL    HW2 8664   6.077   5.102   2.280  0.1200 -0.5134 -0.8629
 2223SOL    HW3 8665   6.189   5.199   2.309 -0.6970  0.0172  0.6376
 2223SOL    MW4 8666   6.150   5.143   2.255 -0.1151  0.3513 -0.1664
 2224SOL     OW 8667   3.952   0.534   6.082  0.6138  0.0379  0.1802
 2224SOL    HW2 8668   3.946   0.483   6.001  0.8452 -0.7614  0.6463
 2224SOL    HW3 8669   3.993   0.474   6.145 -1.0886  0.0366  1.3686
 2224SOL    MW4 8670   3.956   0.519   6.080  0.4197 -0.0677  0.3985
 2225SOL     OW 8671   2.517   6.348   2.456 -0.4912  0.0305 -0.2106
 2225SOL    HW2 8672   2.492   6.425   2.405 -2.2114  0.5033  1.2328
 2225SOL    HW3 8673   2.440   6.291   2.453 -0.0213 -0.6670  0.4788
 2225SOL    MW4 8674   2.504   6.351   2.449 -0.6562  0.0009  0.0708
 2226SOL     OW 8675   5.910   3.293   3.467  0.0993  0.5758 -0.4071
 2226SOL    HW2 8676   5.864   3.253   3.393 -1.1620  0.3545  0.4650
 2226SOL    HW3 8677   5.892   3.386   3.459 -0.2244  0.5258 -0.2459
 2226SOL    MW4 8678   5.902   3.300   3.456 -0.1098  0.5400 -0.2708
 2227SOL     OW 8679   4.225   4.797   3.508  0.3586 -0.0801 -0.2313
 2227SOL    HW2 8680   4.235   4.707   3.536 -1.6211 -0.0570  0.6726
 2227SOL    HW3 8681   4.225   4.848   3.589  3.2993  1.0173 -0.7891
 2227SOL    MW4 8682   4.227   4.792   3.522  0.4854  0.0677 -0.1856
 2228SOL     OW 8683   3.176   4.243   3.538 -0.6700 -0.3126 -0.0615
 2228SOL    HW2 8684   3.205   4.228   3.448  0.3228  0.0999  0.1673
 2228SOL    HW3 8685   3.178   4.157   3.579  1.6735 -0.1427  0.3219
 2228SOL    MW4 8686   3.180   4.230   3.532 -0.2298 -0.2357  0.0193
 2229SOL     OW 8687   3.738   4.379   1.348 -0.1230  0.1638 -0.3558
 2229SOL    HW2 8688   3.732   4.328   1.268  0.9718  1.0515 -1.0380
 2229SOL    HW3 8689   3.664   4.439   1.343 -0.0398  0.2401 -0.7349
 2229SOL    MW4 8690   3.727   4.380   1.337  0.0324  0.2910 -0.4958
 2230SOL     OW 8691   5.707   0.074   3.497 -0.3785 -0.0799 -0.4196
 2230SOL    HW2 8692   5.719   0.021   3.419  0.0302 -1.3364  0.4577
 2230SOL    HW3 8693   5.760   0.030   3.564  0.1244  1.5418  0.3069
 2230SOL    MW4 8694   5.716   0.062   3.496 -0.2582 -0.0317 -0.2080
 2231SOL     OW 8695   5.567   6.308   4.985 -0.0919 -0.5666  0.4848
 2231SOL    HW2 8696   5.641   6.288   5.042  0.0395 -0.4609  0.3513
 2231SOL    HW3 8697   5.569   6.403   4.975  0.7748 -0.6974 -0.8848
 2231SOL    MW4 8698   5.577   6.318   4.991  0.0398 -0.5699  0.2865
 2232SOL     OW 8699   0.537   5.864   0.673 -0.0964 -0.2287 -0.5962
 2232SOL    HW2 8700   0.557   5.857   0.766  0.2448  0.3220 -0.6236
 2232SOL    HW3 8701   0.500   5.952   0.662  1.0459  0.2072 -1.1743
 2232SOL    MW4 8702   0.535   5.875   0.684  0.0993 -0.0985 -0.6761
 2233SOL     OW 8703   2.249   0.825   3.966 -0.0038  0.1300  0.0119
 2233SOL    HW2 8704   2.338   0.793   3.982  0.2751  1.4494  1.3050
 2233SOL    HW3 8705   2.200   0.747   3.939  1.3994 -0.7301 -0.1621
 2233SOL    MW4 8706   2.254   0.810   3.964  0.2181  0.1906  0.1596
 2234SOL     OW 8707   1.566   5.212   2.176  0.0487 -0.2104  0.0753
 2234SOL    HW2 8708   1.629   5.160   2.227  0.8212  1.3310  0.7329
 2234SOL    HW3 8709   1.480   5.182   2.206  0.4688  0.8392  2.5304
 2234SOL    MW4 8710   1.563   5.201   2.187  0.2061  0.1314  0.4860
 2235SOL     OW 8711   1.763   1.996   5.995 -0.1029 -0.1013 -0.3103
 2235SOL    HW2 8712   1.759   1.910   5.954 -1.2994 -0.8496  1.2597
 2235SOL    HW3 8713   1.857   2.018   5.996  0.2199 -1.3823 -0.7135
 2235SOL    MW4 8714   1.775   1.987   5.990 -0.2182 -0.3691 -0.1564
 2236SOL     OW 8715   2.687   4.635   4.616  0.2517 -1.0308  0.9172
 2236SOL    HW2 8716   2.672   4.621   4.523  0.0912 -1.2069  0.9684
 2236SOL    HW3 8717   2.599   4.640   4.654  0.2959  0.4120  0.8623
 2236SOL    MW4 8718   2.673   4.634   4.609  0.2364 -0.8637  0.9167
 2237SOL     OW 8719   6.386   2.710   1.669 -0.0254  0.4099  1.0095
 2237SOL    HW2 8720   6.479   2.695   1.656 -0.1446  0.5733 -0.1344
 2237SOL    HW3 8721   6.360   2.643   1.733  0.6105 -0.4999  0.3388
 2237SOL    MW4 8722   6.395   2.699   1.676  0.0428  0.3115  0.7701
 2238SOL     OW 8723   0.246   3.706   0.733 -0.6996  0.1454 -0.2659
 2238SOL    HW2 8724   0.289   3.632   0.692 -2.7103 -2.0673  1.3528
 2238SOL    HW3 8725   0.218   3.761   0.660  0.5506 -0.8437 -1.5351
 2238SOL    MW4 8726   0.248   3.704   0.718 -0.8000 -0.2770 -0.2198
 2239SOL     OW 8727   4.522   3.786   2.555 -0.2360 -0.1786  0.9061
 2239SOL    HW2 8728   4.478   3.764   2.474  1.9295 -1.7855  0.0519
 2239SOL    HW3 8729   4.533   3.703   2.600  1.2997  0.2301  1.3588
 2239SOL    MW4 8730   4.518   3.772   2.551  0.2523 -0.3367  0.8531
 2240SOL     OW 8731   5.193   3.608   3.386 -0.2677 -0.6471 -0.0067
 2240SOL    HW2 8732   5.139   3.561   3.322 -0.1346 -1.8899  0.7548
 2240SOL    HW3 8733   5.283   3.588   3.361 -0.2145 -1.2834  0.6352
 2240SOL    MW4 8734   5.197   3.599   3.375 -0.2432 -0.8950  0.1784
 2241SOL     OW 8735   4.096   6.434   2.095 -0.2821  0.0647 -0.2597
 2241SOL    HW2 8736   4.108   6.478   2.010 -1.2706  0.5637 -0.1576
 2241SOL    HW3 8737   4.038   6.361   2.075 -2.8277  1.7650  0.3959
 2241SOL    MW4 8738   4.090   6.430   2.081 -0.7484  0.3549 -0.1597
 2242SOL     OW 8739   3.715   6.424   2.261  0.0294 -0.0577 -0.4887
 2242SOL    HW2 8740   3.767   6.345   2.272 -1.3741 -0.7843  1.4775
 2242SOL    HW3 8741   3.732   6.452   2.171  1.9022 -1.5840 -0.6589
 2242SOL    MW4 8742   3.724   6.418   2.250  0.0913 -0.3550 -0.2517
 2243SOL     OW 8743   4.133   3.199   1.521 -0.1019  0.5895 -0.4990
 2243SOL    HW2 8744   4.216   3.237   1.493  0.5310  0.5454  1.1749
 2243SOL    HW3 8745   4.105   3.254   1.594 -0.1941 -0.8929  0.6509
 2243SOL    MW4 8746   4.140   3.211   1.527 -0.0306  0.3881 -0.1264
 2244SOL     OW 8747   3.547   4.676   4.496  0.1305 -0.0819  0.0811
 2244SOL    HW2 8748   3.560   4.672   4.402  0.2911 -1.3053  0.1448
 2244SOL    HW3 8749   3.626   4.719   4.529 -0.4117  1.3654 -0.4186
 2244SOL    MW4 8750   3.559   4.681   4.488  0.0802 -0.0524  0.0236
 2245SOL     OW 8751   1.356   4.428   2.525 -0.0820 -0.2821  0.9046
 2245SOL    HW2 8752   1.329   4.404   2.436 -1.8225  2.8514  0.4483
 2245SOL    HW3 8753   1.311   4.364   2.581  0.4114 -1.8158 -0.3743
 2245SOL    MW4 8754   1.346   4.416   2.521 -0.2465 -0.0710  0.6756
 2246SOL     OW 8755   2.951   2.136   0.651 -0.0043  0.1886  0.0218
 2246SOL    HW2 8756   2.966   2.118   0.559 -0.4725  1.1955 -0.2691
 2246SOL    HW3 8757   3.035   2.172   0.682 -0.3495  1.4525 -0.4491
 2246SOL    MW4 8758   2.964   2.138   0.643 -0.1116  0.4882 -0.0787
 2247SOL     OW 8759   6.150   5.636   0.622  0.4246 -0.5869  0.2367
 2247SOL    HW2 8760   6.160   5.620   0.716 -0.6323 -1.2439  0.2431
 2247SOL    HW3 8761   6.060   5.665   0.612  0.7831  0.3157 -0.4765
 2247SOL    MW4 8762   6.140   5.638   0.633  0.3325 -0.5545  0.1434
 2248SOL     OW 8763   2.107   5.995   2.178 -0.0052 -0.3563  0.0014
 2248SOL    HW2 8764   2.140   5.910   2.150 -2.0703 -0.6512 -1.8023
 2248SOL    HW3 8765   2.054   5.976   2.255  2.0471 -0.1875  1.5342
 2248SOL    MW4 8766   2.105   5.982   2.184 -0.0069 -0.3729 -0.0344
 2249SOL     OW 8767   3.814   2.631   1.419 -0.2567  0.8205 -0.2375
 2249SOL    HW2 8768   3.836   2.646   1.511  0.9292  1.3376 -0.5797
 2249SOL    HW3 8769   3.725   2.596   1.420 -0.6939  1.9035  1.0307
 2249SOL    MW4 8770   3.805   2.629   1.431 -0.1579  1.0317 -0.1153
 2250SOL     OW 8771   3.614   3.715   5.073  0.0314  0.2359  0.2579
 2250SOL    HW2 8772   3.612   3.793   5.018 -0.2119 -0.2422 -0.4266
 2250SOL    HW3 8773   3.683   3.661   5.036 -2.7562 -1.9378 -2.2254
 2250SOL    MW4 8774   3.622   3.718   5.061 -0.3685 -0.1140 -0.1600
 2251SOL     OW 8775   1.412   2.197   6.248 -0.3761  0.4050  0.3359
 2251SOL    HW2 8776   1.400   2.142   6.325 -1.5765  0.1766  0.0179
 2251SOL    HW3 8777   1.498   2.237   6.260  0.1174 -0.8102  1.0237
 2251SOL    MW4 8778   1.421   2.195   6.260 -0.4694  0.2145  0.3847
 2252SOL     OW 8779   1.457   1.611   1.800 -0.3897 -0.1801  0.1869
 2252SOL    HW2 8780   1.508   1.578   1.727  1.1030 -1.0468  1.5637
 2252SOL    HW3 8781   1.467   1.706   1.795 -0.8175 -0.1781 -1.0489
 2252SOL    MW4 8782   1.465   1.620   1.790 -0.2492 -0.2942  0.2055
 2253SOL     OW 8783   6.247   1.223   4.671  0.0219  0.4141  0.1856
 2253SOL    HW2 8784   6.170   1.268   4.704  0.2914 -0.0593  1.5012
 2253SOL    HW3 8785   6.294   1.194   4.749  1.4028  0.4657 -0.5960
 2253SOL    MW4 8786   6.243   1.225   4.686  0.2396  0.3585  0.2560
 2254SOL     OW 8787   3.836   1.589   4.503 -0.3263 -0.1385  0.1376
 2254SOL    HW2 8788   3.862   1.587   4.411 -0.3171 -0.8194  0.1468
 2254SOL    HW3 8789   3.781   1.512   4.514  0.8564 -0.9036  1.0323
 2254SOL    MW4 8790   3.832   1.579   4.493 -0.1690 -0.3293  0.2568
 2255SOL     OW 8791   4.543   4.328   2.860  0.1247 -0.1148  0.7270
 2255SOL    HW2 8792   4.538   4.260   2.927 -1.3070 -0.9688 -0.1681
 2255SOL    HW3 8793   4.475   4.303   2.797  0.8590  1.1119 -0.6041
 2255SOL    MW4 8794   4.533   4.315   2.861  0.0327 -0.0656  0.4333
 2256SOL     OW 8795   5.740   2.047   4.781  0.1411 -0.5419 -0.1935
 2256SOL    HW2 8796   5.815   2.106   4.770  0.9385 -1.4554  0.0812
 2256SOL    HW3 8797   5.692   2.053   4.699  0.7503 -0.2221 -0.5377
 2256SOL    MW4 8798   5.744   2.055   4.769  0.3266 -0.6202 -0.2027
 2257SOL     OW 8799   3.742   5.831   1.204 -0.0345  0.2033  0.2051
 2257SOL    HW2 8800   3.802   5.904   1.186  0.0239  0.0070 -0.4132
 2257SOL    HW3 8801   3.682   5.865   1.270  0.6024  0.4870  0.6568
 2257SOL    MW4 8802   3.742   5.845   1.211  0.0573  0.2148  0.1831
 2258SOL     OW 8803   5.661   4.150   1.427  0.1972 -0.2146  0.3767
 2258SOL    HW2 8804   5.689   4.062   1.453  2.7864  0.3760 -0.0943
 2258SOL    HW3 8805   5.708   4.208   1.486 -1.4190  0.8991  0.6246
 2258SOL    MW4 8806   5.671   4.146   1.438  0.3256  0.0102  0.3473
 2259SOL     OW 8807   1.132   1.347   6.385 -0.0034  0.4444 -0.2523
 2259SOL    HW2 8808   1.179   1.338   6.468  1.6025  1.4359 -1.0054
 2259SOL    HW3 8809   1.156   1.268   6.336  0.6723  0.8118 -0.5250
 2259SOL    MW4 8810   1.141   1.335   6.389  0.2976  0.6237 -0.3877
 2260SOL     OW 8811   3.926   4.486   2.631  0.1664  0.2075  0.1376
 2260SOL    HW2 8812   3.874   4.525   2.561 -1.1920 -0.2851  0.8381
 2260SOL    HW3 8813   3.968   4.561   2.674 -2.4148  1.0170  1.4829
 2260SOL    MW4 8814   3.924   4.501   2.628 -0.3534  0.2493  0.4075
 2261SOL     OW 8815   4.606   5.658   3.175 -0.1094 -0.4324  0.6322
 2261SOL    HW2 8816   4.630   5.577   3.131  0.0166 -0.2871  0.4379
 2261SOL    HW3 8817   4.688   5.706   3.186 -0.0977 -0.5796  1.2505
 2261SOL    MW4 8818   4.620   5.654   3.171 -0.0913 -0.4326  0.6882
 2262SOL     OW 8819   6.124   4.946   0.874 -0.2690 -0.8447  0.0932
 2262SOL    HW2 8820   6.103   4.923   0.784 -0.1943  0.2581 -0.2192
 2262SOL    HW3 8821   6.218   4.964   0.873 -0.8120  2.9158 -0.5328
 2262SOL    MW4 8822   6.134   4.946   0.862 -0.3308 -0.2031 -0.0306
 2263SOL     OW 8823   4.533   3.002   3.888  0.1198  0.1396 -0.0707
 2263SOL    HW2 8824   4.591   3.039   3.955 -0.4349 -0.4366  0.7403
 2263SOL    HW3 8825   4.511   2.915   3.921  0.6514 -0.5681 -1.4979
 2263SOL    MW4 8826   4.538   2.996   3.901  0.1168 -0.0298 -0.1520
 2264SOL     OW 8827   1.080   5.070   4.158 -0.2499  0.3483  0.2071
 2264SOL    HW2 8828   1.088   5.153   4.110  0.7424 -0.7340 -1.6412
 2264SOL    HW3 8829   1.005   5.027   4.117  0.2065 -0.3139  0.0475
 2264SOL    MW4 8830   1.071   5.076   4.146 -0.0587  0.1181 -0.0578
 2265SOL     OW 8831   2.889   0.623   3.483  0.0113 -0.8174  0.4167
 2265SOL    HW2 8832   2.881   0.528   3.477  2.5831 -1.0519 -0.1993
 2265SOL    HW3 8833   2.900   0.640   3.577  0.3129 -1.1918  0.4479
 2265SOL    MW4 8834   2.889   0.613   3.495  0.3904 -0.8977  0.3396
 2266SOL     OW 8835   4.488   4.752   5.161  0.0737  0.0020  0.1076
 2266SOL    HW2 8836   4.418   4.694   5.190  0.8088 -1.6985 -1.3425
 2266SOL    HW3 8837   4.492   4.739   5.066 -0.6657  3.5176 -0.5511
 2266SOL    MW4 8838   4.479   4.743   5.152  0.0732  0.2415 -0.1706
 2267SOL     OW 8839   4.749   3.711   0.965  0.0857  0.3045  0.6442
 2267SOL    HW2 8840   4.741   3.768   1.041 -1.8070  1.5559 -0.4029
 2267SOL    HW3 8841   4.677   3.649   0.973 -0.1617  0.4722 -0.1280
 2267SOL    MW4 8842   4.738   3.711   0.976 -0.1966  0.4917  0.4041
 2268SOL     OW 8843   5.851   5.677   0.569  0.1847  0.5053 -0.5936
 2268SOL    HW2 8844   5.803   5.716   0.496 -0.0804  0.4593 -0.4452
 2268SOL    HW3 8845   5.786   5.670   0.639  0.0814 -0.7460 -0.8042
 2268SOL    MW4 8846   5.836   5.681   0.569  0.1361  0.3341 -0.6018
 2269SOL     OW 8847   4.356   1.566   5.392  0.4393  0.3841  0.3810
 2269SOL    HW2 8848   4.294   1.632   5.424  3.4861  3.3014  0.8744
 2269SOL    HW3 8849   4.320   1.537   5.309  0.2768  5.1412 -1.5284
 2269SOL    MW4 8850   4.343   1.571   5.385  0.8198  1.3966  0.1942
 2270SOL     OW 8851   3.976   2.616   2.041 -0.1138 -0.0727  0.4363
 2270SOL    HW2 8852   4.000   2.549   1.977 -1.8399  0.6238 -1.0269
 2270SOL    HW3 8853   3.917   2.674   1.994 -0.8817  0.8983  2.4740
 2270SOL    MW4 8854   3.972   2.614   2.027 -0.4429  0.1473  0.5121
 2271SOL     OW 8855   4.075   2.293   1.458  0.4200 -0.2209 -0.4710
 2271SOL    HW2 8856   4.126   2.314   1.536  0.0138 -1.6122  0.2080
 2271SOL    HW3 8857   4.029   2.212   1.481  0.2421 -0.6224 -2.1346
 2271SOL    MW4 8858   4.075   2.285   1.471  0.3429 -0.4574 -0.6009
 2272SOL     OW 8859   2.424   0.330   3.261  0.3765 -0.2798  0.2568
 2272SOL    HW2 8860   2.389   0.245   3.236  0.5068 -0.1470 -0.3967
 2272SOL    HW3 8861   2.400   0.340   3.353 -1.1215 -0.2818 -0.1104
 2272SOL    MW4 8862   2.416   0.320   3.270  0.1961 -0.2626  0.1221
 2273SOL     OW 8863   3.720   5.757   0.469 -0.5164 -0.2632  0.7909
 2273SOL    HW2 8864   3.760   5.674   0.493 -1.9094 -1.1336  0.2654
 2273SOL    HW3 8865   3.787   5.823   0.485  0.8824 -1.5791  0.4997
 2273SOL    MW4 8866   3.734   5.755   0.474 -0.5156 -0.5516  0.6832
 2274SOL     OW 8867   0.986   5.152   1.740 -0.3417  0.2234 -0.6184
 2274SOL    HW2 8868   0.929   5.225   1.766 -0.0679  0.5612 -0.9501
 2274SOL    HW3 8869   1.061   5.194   1.698  0.9104 -0.1113  1.1612
 2274SOL    MW4 8870   0.989   5.167   1.738 -0.1404  0.2238 -0.4273
 2275SOL     OW 8871   5.817   4.941   5.142 -0.1654  0.0499 -0.6073
 2275SOL    HW2 8872   5.870   4.891   5.204  0.0832  1.9109  0.7541
 2275SOL    HW3 8873   5.728   4.936   5.177  0.0939  1.7430  0.4213
 2275SOL    MW4 8874   5.812   4.934   5.155 -0.0984  0.5188 -0.2920
 2276SOL     OW 8875   0.887   1.923   1.328  0.1326  0.0692 -0.2164
 2276SOL    HW2 8876   0.820   1.962   1.271  0.3827 -0.0749 -0.6094
 2276SOL    HW3 8877   0.970   1.946   1.286  0.4707  2.1748  1.4359
 2276SOL    MW4 8878   0.889   1.931   1.315  0.2102  0.3280 -0.0503
 2277SOL     OW 8879   5.728   5.588   2.348  0.1405 -0.2615  0.3476
 2277SOL    HW2 8880   5.781   5.663   2.321 -0.6831 -0.1664 -1.0676
 2277SOL    HW3 8881   5.657   5.626   2.400  0.8180 -0.2809  1.3156
 2277SOL    MW4 8882   5.726   5.603   2.352  0.1212 -0.2515  0.2886
 2278SOL     OW 8883   3.937   3.818   6.233 -0.0742 -1.1118  0.1909
 2278SOL    HW2 8884   3.859   3.822   6.287  0.0729 -1.2351  0.4141
 2278SOL    HW3 8885   3.918   3.750   6.168 -1.6483  1.3566 -2.1446
 2278SOL    MW4 8886   3.924   3.809   6.231 -0.2625 -0.8024 -0.0878
 2279SOL     OW 8887   4.654   3.021   0.412 -0.0824  0.2782  0.1338
 2279SOL    HW2 8888   4.749   3.029   0.401 -0.0621  0.4356  0.4159
 2279SOL    HW3 8889   4.643   2.947   0.472 -0.1234  0.4311  0.3184
 2279SOL    MW4 8890   4.665   3.013   0.419 -0.0851  0.3191  0.1954
 2280SOL     OW 8891   0.571   4.601   4.772 -0.0545 -0.8248  0.2435
 2280SOL    HW2 8892   0.575   4.695   4.788  1.6087 -0.8936  0.4011
 2280SOL    HW3 8893   0.599   4.591   4.681  1.0510 -1.2519  0.6196
 2280SOL    MW4 8894   0.575   4.612   4.762  0.3108 -0.8902  0.3140
 2281SOL     OW 8895   3.824   2.044   4.309 -0.1635  0.0939  0.1941
 2281SOL    HW2 8896   3.801   1.969   4.363 -0.1425 -0.2372 -0.2530
 2281SOL    HW3 8897   3.873   2.102   4.368 -1.2812  0.3658  0.8893
 2281SOL    MW4 8898   3.827   2.042   4.324 -0.3082  0.0861  0.2268
 2282SOL     OW 8899   5.456   2.282   4.419  0.1235  0.0248  0.8900
 2282SOL    HW2 8900   5.474   2.218   4.488 -0.5695 -1.7226 -0.4770
 2282SOL    HW3 8901   5.399   2.346   4.460 -1.1262 -1.5293  1.6998
 2282SOL    MW4 8902   5.451   2.282   4.433 -0.1328 -0.4108  0.8165
 2283SOL     OW 8903   1.871   3.881   2.467  0.6714  0.2030 -0.7630
 2283SOL    HW2 8904   1.832   3.922   2.389 -1.1961 -1.6889 -0.9205
 2283SOL    HW3 8905   1.798   3.874   2.529  2.3754  2.9142  1.8533
 2283SOL    MW4 8906   1.856   3.886   2.465  0.6498  0.3111 -0.4386
 2284SOL     OW 8907   4.179   2.056   1.712 -0.3288  0.5560 -0.0025
 2284SOL    HW2 8908   4.093   2.031   1.743 -0.1345  0.9175  0.8408
 2284SOL    HW3 8909   4.188   2.011   1.628 -0.9715 -0.1885  0.3224
 2284SOL    MW4 8910   4.169   2.047   1.705 -0.3880  0.5055  0.1517
 2285SOL     OW 8911   0.043   5.049   2.833 -0.2058 -0.3668 -0.3996
 2285SOL    HW2 8912   0.123   5.064   2.885 -1.0807  1.5109  0.5159
 2285SOL    HW3 8913   0.022   5.135   2.797 -1.2211 -1.0637 -1.5423
 2285SOL    MW4 8914   0.051   5.063   2.835 -0.4552 -0.2110 -0.4296
 2286SOL     OW 8915   1.909   4.728   2.011  0.2258  0.3551  0.0562
 2286SOL    HW2 8916   1.872   4.808   1.975  0.9033  0.8446  0.4079
 2286SOL    HW3 8917   1.982   4.706   1.952  0.0223 -0.0255 -0.0588
 2286SOL    MW4 8918   1.914   4.735   1.999  0.2884  0.3695  0.0875
 2287SOL     OW 8919   4.529   3.548   1.006 -0.2177  0.1003 -0.0528
 2287SOL    HW2 8920   4.534   3.469   1.059  1.1235  1.6576  2.3319
 2287SOL    HW3 8921   4.447   3.590   1.033  1.0344  1.4929  1.8546
 2287SOL    MW4 8922   4.519   3.543   1.016  0.1245  0.4895  0.5135
 2288SOL     OW 8923   2.161   5.328   0.763  0.2745 -0.2216  0.4961
 2288SOL    HW2 8924   2.194   5.265   0.827 -2.5212 -0.0912  2.2507
 2288SOL    HW3 8925   2.101   5.384   0.813 -2.3676 -0.3270 -2.2362
 2288SOL    MW4 8926   2.158   5.327   0.778 -0.4430 -0.2183  0.3671
 2289SOL     OW 8927   3.747   0.651   6.234  0.3003  0.3520 -0.0514
 2289SOL    HW2 8928   3.798   0.630   6.157 -1.7398 -0.7418 -1.1893
 2289SOL    HW3 8929   3.700   0.571   6.255  0.0032  0.9351  1.7103
 2289SOL    MW4 8930   3.747   0.638   6.227 -0.0081  0.2846  0.0309
 2290SOL     OW 8931   1.173   1.392   5.383 -0.4078 -0.3665  0.2508
 2290SOL    HW2 8932   1.245   1.455   5.383 -0.8500  0.1537  0.6110
 2290SOL    HW3 8933   1.204   1.318   5.435  0.3436 -0.7241 -0.6690
 2290SOL    MW4 8934   1.187   1.391   5.390 -0.3670 -0.3451  0.1770
 2291SOL     OW 8935   4.329   1.206   3.102 -0.3370  0.2647 -0.2033
 2291SOL    HW2 8936   4.369   1.237   3.021  0.1624 -1.6939 -0.7602
 2291SOL    HW3 8937   4.274   1.133   3.075 -3.5834  2.1513  0.6697
 2291SOL    MW4 8938   4.327   1.201   3.088 -0.6994  0.2552 -0.1616
 2292SOL     OW 8939   2.952   6.019   1.560 -1.0065  0.2570  0.0008
 2292SOL    HW2 8940   2.919   6.053   1.643  1.6307  0.6313  1.0213
 2292SOL    HW3 8941   3.045   6.003   1.577 -0.8918 -2.0007 -2.1832
 2292SOL    MW4 8942   2.960   6.021   1.573 -0.6434  0.0085 -0.1527
 2293SOL     OW 8943   3.181   0.423   1.418  0.8730  0.3659 -0.1096
 2293SOL    HW2 8944   3.153   0.343   1.374 -1.5070  0.3267  1.2781
 2293SOL    HW3 8945   3.242   0.394   1.486 -0.6953 -0.4931  1.0186
 2293SOL    MW4 8946   3.185   0.409   1.421  0.3521  0.2474  0.2224
 2294SOL     OW 8947   4.128   0.178   4.839  0.2147 -0.0980  0.6833
 2294SOL    HW2 8948   4.219   0.203   4.856 -0.1948  1.4392  0.7280
 2294SOL    HW3 8949   4.098   0.139   4.922  0.6494 -0.0808  0.8531
 2294SOL    MW4 8950   4.136   0.176   4.853  0.2180  0.1071  0.7116
 2295SOL     OW 8951   3.421   0.045   2.253  0.5203 -0.4452 -0.2841
 2295SOL    HW2 8952   3.515   0.035   2.238  0.5097 -0.2890 -0.4549
 2295SOL    HW3 8953   3.403   0.136   2.231  0.5819 -0.0656  1.1353
 2295SOL    MW4 8954   3.431   0.055   2.248  0.5271 -0.3745 -0.1194
 2296SOL     OW 8955   4.887   1.932   2.751 -0.3306 -0.2236  0.2429
 2296SOL    HW2 8956   4.936   1.852   2.731 -0.8609 -0.2584 -0.9903
 2296SOL    HW3 8957   4.945   2.002   2.721 -0.6120 -0.2280 -0.3285
 2296SOL    MW4 8958   4.901   1.930   2.744 -0.4377 -0.2288  0.0048
 2297SOL     OW 8959   1.504   2.440   1.360  0.6636  0.2011  0.1401
 2297SOL    HW2 8960   1.412   2.412   1.364  0.5454  0.5782  0.1031
 2297SOL    HW3 8961   1.504   2.527   1.398  1.7171 -1.3740  4.2578
 2297SOL    MW4 8962   1.492   2.447   1.365  0.7870  0.0430  0.6785
 2298SOL     OW 8963   3.420   2.188   2.901 -0.1289  0.5073 -0.3213
 2298SOL    HW2 8964   3.461   2.262   2.946  0.5722  0.3035 -0.6041
 2298SOL    HW3 8965   3.403   2.220   2.813 -1.7622  0.9993  0.1368
 2298SOL    MW4 8966   3.423   2.202   2.895 -0.2519  0.5453 -0.2982
 2299SOL     OW 8967   0.503   2.061   1.961 -0.6148 -0.0367  0.1215
 2299SOL    HW2 8968   0.466   2.021   2.039  2.3858  0.0271  1.7183
 2299SOL    HW3 8969   0.498   1.992   1.894  0.0417 -1.4272  1.4386
 2299SOL    MW4 8970   0.498   2.046   1.962 -0.1323 -0.2117  0.5060
 2300SOL     OW 8971   6.256   3.231   1.778 -0.0903 -0.4998 -0.3291
 2300SOL    HW2 8972   6.237   3.219   1.871  2.9301  0.6857  0.5522
 2300SOL    HW3 8973   6.285   3.145   1.748  1.2869 -0.3800  0.5344
 2300SOL    MW4 8974   6.257   3.218   1.786  0.4899 -0.3276 -0.0989
 2301SOL     OW 8975   4.847   3.638   2.186  0.4797  0.1787 -0.2915
 2301SOL    HW2 8976   4.755   3.610   2.191  0.7945 -0.9004 -0.1591
 2301SOL    HW3 8977   4.868   3.633   2.092 -0.0078  1.9050 -0.5268
 2301SOL    MW4 8978   4.838   3.633   2.174  0.4569  0.2641 -0.3050
 2302SOL     OW 8979   1.008   3.295   5.678 -0.1719  0.4385 -0.5822
 2302SOL    HW2 8980   0.965   3.345   5.608 -1.7887  0.2066  0.2169
 2302SOL    HW3 8981   0.947   3.224   5.698  2.1817 -2.1573 -1.9129
 2302SOL    MW4 8982   0.994   3.292   5.671 -0.0747  0.0655 -0.6523
 2303SOL     OW 8983   0.739   3.322   1.740  0.1260  0.6355 -0.5699
 2303SOL    HW2 8984   0.807   3.262   1.710  0.4361  1.2351 -1.0774
 2303SOL    HW3 8985   0.720   3.377   1.664 -2.3648 -0.7965 -1.1119
 2303SOL    MW4 8986   0.746   3.321   1.726 -0.1617  0.5257 -0.7084
 2304SOL     OW 8987   3.093   5.740   0.211 -0.4485 -0.0614  0.2013
 2304SOL    HW2 8988   3.001   5.752   0.186 -0.3256  0.9479  0.1690
 2304SOL    HW3 8989   3.091   5.675   0.280 -1.0795 -0.8313 -0.5235
 2304SOL    MW4 8990   3.080   5.733   0.217 -0.5156 -0.0298  0.1014
 2305SOL     OW 8991   4.979   0.383   4.827 -0.1011  0.2114  0.2658
 2305SOL    HW2 8992   4.936   0.319   4.770 -0.7780  1.2919 -0.4686
 2305SOL    HW3 8993   4.917   0.398   4.898 -0.3171  0.6611 -0.0094
 2305SOL    MW4 8994   4.965   0.377   4.829 -0.2189  0.4133  0.1326
 2306SOL     OW 8995   5.595   4.402   0.531  0.0376  0.2646  0.2141
 2306SOL    HW2 8996   5.611   4.336   0.599 -1.4603  1.3065  1.6511
 2306SOL    HW3 8997   5.671   4.395   0.473  0.6543 -1.6724  1.1608
 2306SOL    MW4 8998   5.607   4.392   0.532 -0.0786  0.1465  0.5286
 2307SOL     OW 8999   5.283   0.159   5.449  0.5564 -0.2222 -0.1261
 2307SOL    HW2 9000   5.319   0.228   5.393  1.4682 -0.5042  0.1020
 2307SOL    HW3 9001   5.192   0.186   5.464  0.9288  1.0054  0.0778
 2307SOL    MW4 9002   5.276   0.172   5.444  0.7258 -0.0975 -0.0691
 2308SOL     OW 9003   2.083   6.132   4.727  0.2007  0.0856  0.6301
 2308SOL    HW2 9004   2.070   6.039   4.705  1.9050 -0.3444  1.3104
 2308SOL    HW3 9005   2.006   6.176   4.689  0.3116 -1.3312 -1.4339
 2308SOL    MW4 9006   2.071   6.125   4.719  0.4402 -0.1580  0.4476
 2309SOL     OW 9007   1.018   5.905   0.301  0.4304  0.1447 -0.2246
 2309SOL    HW2 9008   0.982   5.968   0.239  0.5682  1.1945  0.7266
 2309SOL    HW3 9009   0.960   5.829   0.296 -0.1777  0.6410 -0.8487
 2309SOL    MW4 9010   1.006   5.903   0.292  0.3684  0.3487 -0.1815
 2310SOL     OW 9011   3.961   2.683   4.979  0.0097 -0.3505 -0.3692
 2310SOL    HW2 9012   3.902   2.750   4.945  0.8712  0.0633 -1.0572
 2310SOL    HW3 9013   4.025   2.668   4.909  0.5700 -0.9869  0.2605
 2310SOL    MW4 9014   3.962   2.690   4.965  0.1973 -0.3799 -0.3769
 2311SOL     OW 9015   3.430   1.551   4.463 -0.2532 -0.0563 -0.3940
 2311SOL    HW2 9016   3.342   1.588   4.468  0.7758  2.3168  2.9523
 2311SOL    HW3 9017   3.448   1.519   4.551  2.4710  0.0987 -0.8184
 2311SOL    MW4 9018   3.421   1.551   4.475  0.2420  0.2772 -0.0085
 2312SOL     OW 9019   0.488   3.718   1.498  0.4462 -0.5018 -0.2193
 2312SOL    HW2 9020   0.440   3.701   1.417  1.6235 -0.0425 -1.0387
 2312SOL    HW3 9021   0.441   3.669   1.565 -0.0086 -1.6481 -1.3527
 2312SOL    MW4 9022   0.476   3.709   1.497  0.5416 -0.5925 -0.4769
 2313SOL     OW 9023   6.119   6.089   0.593 -0.0306  0.5118 -0.4700
 2313SOL    HW2 9024   6.173   6.011   0.579 -1.1469 -1.0483  2.9373
 2313SOL    HW3 9025   6.040   6.074   0.541 -2.0810 -2.8821  3.0541
 2313SOL    MW4 9026   6.116   6.077   0.584 -0.4484 -0.1418  0.4445
 2314SOL     OW 9027   3.778   3.831   4.022  0.2916  0.1574 -0.4436
 2314SOL    HW2 9028   3.813   3.746   3.996  1.4172  0.3554  0.3402
 2314SOL    HW3 9029   3.746   3.819   4.111  0.9055  0.6583 -0.1438
 2314SOL    MW4 9030   3.779   3.818   4.030  0.5211  0.2496 -0.3006
 2315SOL     OW 9031   1.625   1.272   2.460  0.5777  0.4970 -0.1403
 2315SOL    HW2 9032   1.531   1.259   2.471  0.8786 -0.8180  1.1764
 2315SOL    HW3 9033   1.652   1.201   2.401  0.7124  1.0244 -0.7194
 2315SOL    MW4 9034   1.616   1.261   2.454  0.6352  0.3931 -0.0430
 2316SOL     OW 9035   1.167   0.892   4.929  0.6359 -0.2235  0.3854
 2316SOL    HW2 9036   1.220   0.970   4.912 -0.2997  0.3565  0.0855
 2316SOL    HW3 9037   1.211   0.850   5.003  0.4044  1.3033  1.4301
 2316SOL    MW4 9038   1.180   0.897   4.936  0.4819  0.0545  0.4837
 2317SOL     OW 9039   5.130   6.082   0.148  0.3072  0.6745  0.1549
 2317SOL    HW2 9040   5.155   6.172   0.172 -3.2433  1.7250  0.5796
 2317SOL    HW3 9041   5.177   6.065   0.067  2.7800  2.0143  1.2024
 2317SOL    MW4 9042   5.139   6.092   0.141  0.1650  0.9899  0.3491
 2318SOL     OW 9043   4.200   0.899   2.306  0.3313  0.3310  0.5484
 2318SOL    HW2 9044   4.111   0.933   2.297 -0.3016 -1.4701 -0.6099
 2318SOL    HW3 9045   4.227   0.881   2.216  2.6240  2.5411  0.6839
 2318SOL    MW4 9046   4.192   0.901   2.293  0.5503  0.3850  0.4135
 2319SOL     OW 9047   5.803   3.593   0.651  0.5772  0.1597 -0.5450
 2319SOL    HW2 9048   5.889   3.608   0.691  0.9526 -0.6754 -1.0016
 2319SOL    HW3 9049   5.810   3.630   0.563  0.4665  0.1160 -0.5723
 2319SOL    MW4 9050   5.816   3.600   0.645  0.6122  0.0438 -0.6089
 2320SOL     OW 9051   3.309   5.835   3.149  0.4356  0.0721 -0.1201
 2320SOL    HW2 9052   3.352   5.903   3.097 -1.6078  0.2946 -1.6164
 2320SOL    HW3 9053   3.273   5.882   3.225 -0.0288  0.4788 -0.5867
 2320SOL    MW4 9054   3.310   5.851   3.152  0.1047  0.1552 -0.3791
 2321SOL     OW 9055   1.842   2.676   3.189  0.1846 -0.6254  0.4098
 2321SOL    HW2 9056   1.835   2.684   3.093 -2.5429  1.4291  0.6644
 2321SOL    HW3 9057   1.816   2.585   3.206  0.3004 -0.9086 -0.7750
 2321SOL    MW4 9058   1.837   2.665   3.178 -0.1600 -0.3917  0.2871
 2322SOL     OW 9059   3.001   4.136   6.426  0.5258  0.3073 -0.0075
 2322SOL    HW2 9060   2.984   4.091   6.343 -0.0933 -0.6308  0.6141
 2322SOL    HW3 9061   2.920   4.125   6.476  1.8066 -1.5321  1.8128
 2322SOL    MW4 9062   2.988   4.129   6.422  0.6131 -0.0592  0.3146
 2323SOL     OW 9063   0.876   4.335   3.053  0.4874  0.2113 -0.1933
 2323SOL    HW2 9064   0.968   4.312   3.055  0.3382 -0.4031 -0.2808
 2323SOL    HW3 9065   0.866   4.403   3.121  1.3252  1.5380 -1.3592
 2323SOL    MW4 9066   0.887   4.341   3.063  0.5782  0.3053 -0.3587
 2324SOL     OW 9067   0.310   5.997   5.068 -0.0663  0.3283 -0.2102
 2324SOL    HW2 9068   0.355   6.077   5.096 -0.8017  0.8235 -0.4428
 2324SOL    HW3 9069   0.323   5.936   5.141  2.6046 -0.2105 -1.0187
 2324SOL    MW4 9070   0.318   5.999   5.081  0.1891  0.3225 -0.3475
 2325SOL     OW 9071   0.079   5.321   0.835  0.2607 -0.4320  0.3370
 2325SOL    HW2 9072   0.031   5.367   0.904  0.7485  1.0403 -0.2708
 2325SOL    HW3 9073   0.107   5.390   0.775  0.4036 -1.6150 -1.0052
 2325SOL    MW4 9074   0.076   5.336   0.836  0.3439 -0.3939  0.0797
 2326SOL     OW 9075   3.997   3.774   0.313  0.0893  0.1756  0.0307
 2326SOL    HW2 9076   4.045   3.809   0.238  1.5929 -0.4905  0.6437
 2326SOL    HW3 9077   4.054   3.793   0.388 -0.3606 -1.0875  0.7176
 2326SOL    MW4 9078   4.011   3.781   0.313  0.2283 -0.0789  0.2022
 2327SOL     OW 9079   0.405   1.241   1.929 -0.4169  0.6094 -0.1155
 2327SOL    HW2 9080   0.490   1.281   1.944  0.2333  0.0408 -2.0251
 2327SOL    HW3 9081   0.405   1.217   1.836 -2.1483 -0.5869  0.1327
 2327SOL    MW4 9082   0.416   1.243   1.918 -0.5595  0.3766 -0.3347
 2328SOL     OW 9083   0.832   2.729   1.696  0.3600 -0.2711  0.0417
 2328SOL    HW2 9084   0.926   2.735   1.713  0.2500  0.1935  0.4817
 2328SOL    HW3 9085   0.791   2.747   1.780 -0.1771  1.6049 -0.5769
 2328SOL    MW4 9086   0.839   2.732   1.709  0.2746  0.0377  0.0182
 2329SOL     OW 9087   2.549   5.421   0.356  0.1164  0.3354 -0.3611
 2329SOL    HW2 9088   2.578   5.504   0.318  1.7062 -0.2850 -0.5795
 2329SOL    HW3 9089   2.527   5.366   0.281  1.1416 -0.1545 -0.3095
 2329SOL    MW4 9090   2.550   5.425   0.341  0.4615  0.1889 -0.3831
 2330SOL     OW 9091   3.141   2.078   3.824  0.2635 -0.4922  0.3066
 2330SOL    HW2 9092   3.234   2.058   3.812  0.2151 -0.6574  0.2073
 2330SOL    HW3 9093   3.097   2.034   3.751  0.2335  0.5900 -0.3517
 2330SOL    MW4 9094   3.148   2.069   3.812  0.2531 -0.3712  0.2066
 2331SOL     OW 9095   4.098   2.995   5.646  0.5451  0.0437 -0.0061
 2331SOL    HW2 9096   4.079   2.988   5.739  0.3023  0.3268 -0.0355
 2331SOL    HW3 9097   4.013   3.006   5.603  0.6964  0.5079 -0.2043
 2331SOL    MW4 9098   4.085   2.996   5.652  0.5330  0.1423 -0.0361
 2332SOL     OW 9099   3.190   3.244   5.554 -0.7968 -0.1260 -0.1758
 2332SOL    HW2 9100   3.225   3.187   5.622  0.0498 -0.1650 -0.6266
 2332SOL    HW3 9101   3.193   3.332   5.593  3.8863  0.6117 -1.5266
 2332SOL    MW4 9102   3.195   3.248   5.568 -0.0672 -0.0338 -0.4135
 2333SOL     OW 9103   2.548   2.885   4.426  0.2232  0.4401 -0.7865
 2333SOL    HW2 9104   2.595   2.832   4.490 -0.3560  0.1522 -0.5981
 2333SOL    HW3 9105   2.588   2.972   4.433 -0.3437  0.6241  0.5139
 2333SOL    MW4 9106   2.560   2.890   4.435  0.0720  0.4264 -0.5901
 2334SOL     OW 9107   3.539   5.156   4.015  0.3068 -0.7043  0.9448
 2334SOL    HW2 9108   3.597   5.134   3.942  1.6570 -0.3882  1.8832
 2334SOL    HW3 9109   3.455   5.177   3.973  1.3013  0.3998 -0.5984
 2334SOL    MW4 9110   3.535   5.156   3.999  0.6161 -0.5169  0.8650
 2335SOL     OW 9111   5.457   1.246   0.447 -0.0534 -0.0597 -0.0440
 2335SOL    HW2 9112   5.380   1.286   0.487  0.1261 -0.1270  0.3744
 2335SOL    HW3 9113   5.499   1.317   0.399 -1.3241 -0.4042 -1.7555
 2335SOL    MW4 9114   5.452   1.260   0.446 -0.1974 -0.1140 -0.2146
 2336SOL     OW 9115   5.078   5.149   2.628  0.5156  0.0198 -0.3914
 2336SOL    HW2 9116   5.050   5.095   2.554 -1.0189  1.0493 -0.6130
 2336SOL    HW3 9117   5.174   5.142   2.628  0.5690  0.0206 -2.5246
 2336SOL    MW4 9118   5.087   5.141   2.618  0.3202  0.1558 -0.7021
 2337SOL     OW 9119   4.891   0.258   1.927  0.6302 -0.3075  0.5523
 2337SOL    HW2 9120   4.924   0.245   1.838  0.0523  0.9527  0.1210
 2337SOL    HW3 9121   4.956   0.314   1.969  0.4840 -0.1999  0.6362
 2337SOL    MW4 9122   4.904   0.264   1.921  0.5346 -0.1270  0.5064
 2338SOL     OW 9123   4.506   1.652   1.343 -0.1610 -0.0440 -0.3391
 2338SOL    HW2 9124   4.563   1.584   1.307  1.6635  0.9605  0.5135
 2338SOL    HW3 9125   4.483   1.706   1.268  0.5647 -0.0930 -0.6079
 2338SOL    MW4 9126   4.511   1.650   1.328  0.1755  0.0821 -0.2621
 2339SOL     OW 9127   5.554   5.496   4.507 -0.3077  0.2050  0.3691
 2339SOL    HW2 9128   5.635   5.547   4.500 -0.1221 -0.1162  0.1549
 2339SOL    HW3 9129   5.576   5.426   4.568  0.8198 -2.1963 -2.5465
 2339SOL    MW4 9130   5.568   5.494   4.514 -0.1344 -0.1542 -0.0438
 2340SOL     OW 9131   5.518   2.164   0.822  0.0152 -0.0054 -0.0880
 2340SOL    HW2 9132   5.531   2.257   0.838  0.5360 -0.2201  0.7966
 2340SOL    HW3 9133   5.605   2.132   0.796 -0.2773 -0.1525 -0.9365
 2340SOL    MW4 9134   5.531   2.172   0.820  0.0453 -0.0532 -0.0833
 2341SOL     OW 9135   2.844   1.012   3.630  0.0868 -0.1153  0.3291
 2341SOL    HW2 9136   2.784   1.055   3.569  0.6895 -0.7327 -0.7177
 2341SOL    HW3 9137   2.804   0.926   3.646 -1.0946  0.7219  2.3843
 2341SOL    MW4 9138   2.831   1.006   3.624  0.0104 -0.0863  0.4621
 2342SOL     OW 9139   3.281   4.383   0.664  0.0895  0.1751  0.7726
 2342SOL    HW2 9140   3.204   4.330   0.683  1.6090 -3.0676 -1.4110
 2342SOL    HW3 9141   3.350   4.346   0.720  0.6100  1.7316  1.2300
 2342SOL    MW4 9142   3.280   4.371   0.674  0.3587 -0.0474  0.5449
 2343SOL     OW 9143   3.825   6.046   6.107 -0.2130 -0.1712 -0.5872
 2343SOL    HW2 9144   3.820   6.024   6.200  0.2181 -1.0677 -0.7587
 2343SOL    HW3 9145   3.781   5.974   6.062  1.2660 -0.7535 -1.1783
 2343SOL    MW4 9146   3.819   6.034   6.113  0.0390 -0.3663 -0.6878
 2344SOL     OW 9147   2.950   6.007   0.012  1.0168 -0.2586 -1.1535
 2344SOL    HW2 9148   2.924   6.095  -0.017 -0.2130 -0.1536  0.1787
 2344SOL    HW3 9149   3.017   6.022   0.078 -0.2063 -0.2334  0.1117
 2344SOL    MW4 9150   2.955   6.020   0.017  0.6932 -0.2414 -0.8108
 2345SOL     OW 9151   5.703   2.871   4.780 -0.3306  0.0516  0.4243
 2345SOL    HW2 9152   5.707   2.959   4.817  0.0275 -0.2095  1.0265
 2345SOL    HW3 9153   5.610   2.849   4.779 -0.4111  0.3887  0.3830
 2345SOL    MW4 9154   5.692   2.880   4.784 -0.2939  0.0617  0.4983
 2346SOL     OW 9155   2.880   0.649   0.242 -0.2521 -0.1880 -0.1864
 2346SOL    HW2 9156   2.802   0.645   0.298 -0.5884 -1.5620 -0.7307
 2346SOL    HW3 9157   2.951   0.670   0.303 -0.7366 -0.8713  0.6346
 2346SOL    MW4 9158   2.879   0.651   0.258 -0.3604 -0.4594 -0.1499
 2347SOL     OW 9159   2.471   5.999   5.706 -0.1013  0.0892 -0.0872
 2347SOL    HW2 9160   2.506   6.087   5.717 -0.6527  0.5577 -1.7593
 2347SOL    HW3 9161   2.376   6.012   5.700 -0.4379 -0.9113  2.0768
 2347SOL    MW4 9162   2.463   6.012   5.707 -0.2184  0.0190 -0.0223
 2348SOL     OW 9163   2.569   0.563   3.861 -0.6907 -0.5256 -0.1128
 2348SOL    HW2 9164   2.561   0.571   3.956 -2.2763  1.3015 -0.3577
 2348SOL    HW3 9165   2.479   0.562   3.829 -0.2653  2.8735 -1.8338
 2348SOL    MW4 9166   2.556   0.564   3.869 -0.8438  0.1639 -0.3722
 2349SOL     OW 9167   6.257   1.129   5.863  0.2287 -0.1523  0.1284
 2349SOL    HW2 9168   6.338   1.160   5.904  0.6388  1.0716 -1.5118
 2349SOL    HW3 9169   6.253   1.175   5.780 -0.0221 -3.2760 -1.7570
 2349SOL    MW4 9170   6.267   1.139   5.857  0.2497 -0.4029 -0.3368
 2350SOL     OW 9171   1.891   3.052   4.294 -0.2764 -0.2445  0.3931
 2350SOL    HW2 9172   1.878   3.123   4.231 -0.8008 -0.1207  0.6321
 2350SOL    HW3 9173   1.971   3.076   4.340  1.1970 -1.3052 -1.4974
 2350SOL    MW4 9174   1.900   3.065   4.292 -0.1512 -0.3681  0.1752
 2351SOL     OW 9175   6.254   0.513   5.598  0.2058  0.1097  0.4849
 2351SOL    HW2 9176   6.268   0.466   5.680  3.1414  0.2093  0.1682
 2351SOL    HW3 9177   6.271   0.605   5.620  0.0540  0.2630 -0.0227
 2351SOL    MW4 9178   6.258   0.519   5.612  0.5731  0.1430  0.3762
 2352SOL     OW 9179   4.059   4.232   2.730 -0.0999 -0.2646 -0.3419
 2352SOL    HW2 9180   4.017   4.307   2.688 -0.0796 -0.2625 -0.3583
 2352SOL    HW3 9181   4.010   4.156   2.697 -0.7254 -0.1955  0.4080
 2352SOL    MW4 9182   4.047   4.232   2.720 -0.1797 -0.2552 -0.2451
 2353SOL     OW 9183   3.475   0.085   4.092  0.3812 -0.4056 -0.2225
 2353SOL    HW2 9184   3.403   0.022   4.100 -2.0294  2.0372 -1.0942
 2353SOL    HW3 9185   3.484   0.121   4.180  0.9152 -1.0575 -0.0013
 2353SOL    MW4 9186   3.467   0.081   4.105  0.1336 -0.1693 -0.3083
 2354SOL     OW 9187   0.682   1.427   0.894 -0.5410 -0.9854  0.4242
 2354SOL    HW2 9188   0.755   1.372   0.864 -0.9305 -0.2153 -2.2149
 2354SOL    HW3 9189   0.722   1.488   0.956  0.8062 -1.4247  0.0324
 2354SOL    MW4 9190   0.697   1.428   0.898 -0.4146 -0.9417  0.0243
 2355SOL     OW 9191   0.128   1.192   4.257 -0.4156 -0.3560 -0.7177
 2355SOL    HW2 9192   0.085   1.108   4.266 -0.9522  0.0028  0.1692
 2355SOL    HW3 9193   0.057   1.257   4.263 -0.0978  0.1468 -2.0166
 2355SOL    MW4 9194   0.113   1.190   4.259 -0.4445 -0.2423 -0.7721
 2356SOL     OW 9195   3.889   4.924   2.925  0.1409 -0.0219 -0.0390
 2356SOL    HW2 9196   3.851   4.879   3.001 -2.4279  0.5352 -0.8972
 2356SOL    HW3 9197   3.925   4.854   2.871  0.6549 -0.5573  0.9629
 2356SOL    MW4 9198   3.889   4.909   2.928 -0.1302 -0.0190 -0.0200
 2357SOL     OW 9199   6.177   2.687   3.241 -0.0253 -0.0189  0.1085
 2357SOL    HW2 9200   6.095   2.676   3.290  1.1891 -2.2642  1.8705
 2357SOL    HW3 9201   6.211   2.598   3.232  2.8933  0.9145  0.7211
 2357SOL    MW4 9202   6.171   2.674   3.246  0.5200 -0.1920  0.4218
 2358SOL     OW 9203   3.063   0.983   2.859 -0.0362 -0.5005 -0.1010
 2358SOL    HW2 9204   3.010   1.013   2.933  1.6726 -0.6387  1.2473
 2358SOL    HW3 9205   3.026   0.898   2.835  0.2198 -1.0917  1.5165
 2358SOL    MW4 9206   3.051   0.976   2.865  0.2231 -0.5968  0.2903
 2359SOL     OW 9207   0.469   0.444   4.944 -0.1890  0.3471  0.9039
 2359SOL    HW2 9208   0.559   0.476   4.954 -0.6296  1.1472  2.7693
 2359SOL    HW3 9209   0.458   0.383   5.016 -1.5057  1.1898  1.4560
 2359SOL    MW4 9210   0.480   0.440   4.955 -0.4209  0.5638  1.2228
 2360SOL     OW 9211   3.558   2.807   3.465 -0.0531 -0.5596  0.1186
 2360SOL    HW2 9212   3.504   2.886   3.456 -0.2535 -0.8167 -1.2002
 2360SOL    HW3 9213   3.616   2.809   3.389  0.4130 -1.3261  0.4473
 2360SOL    MW4 9214   3.558   2.818   3.453 -0.0180 -0.6947 -0.0120
 2361SOL     OW 9215   2.798   5.045   1.917  0.1941  0.1317 -0.3390
 2361SOL    HW2 9216   2.840   4.991   1.850  0.7147  0.4157 -0.2501
 2361SOL    HW3 9217   2.871   5.078   1.969  0.2482  3.5471 -2.3106
 2361SOL    MW4 9218   2.813   5.042   1.915  0.2699  0.6198 -0.5874
 2362SOL     OW 9219   2.428   0.625   4.687 -0.6257 -0.3582 -0.4418
 2362SOL    HW2 9220   2.360   0.684   4.654 -1.3974 -1.1517 -0.3057
 2362SOL    HW3 9221   2.397   0.537   4.666 -0.4493 -0.8228  1.0846
 2362SOL    MW4 9222   2.415   0.621   4.680 -0.7042 -0.5242 -0.2224
 2363SOL     OW 9223   3.280   5.310   5.543  0.3378 -0.4392 -0.2902
 2363SOL    HW2 9224   3.271   5.405   5.547 -0.1176 -0.5073  0.7341
 2363SOL    HW3 9225   3.195   5.279   5.512  0.2976 -0.5426 -0.0799
 2363SOL    MW4 9226   3.267   5.318   5.540  0.2724 -0.4618 -0.1273
 2364SOL     OW 9227   1.922   2.881   1.463  0.0116  0.4507  0.4117
 2364SOL    HW2 9228   1.936   2.791   1.492  1.1067  0.9379  1.4825
 2364SOL    HW3 9229   1.956   2.935   1.534  0.0164  1.7200 -0.5160
 2364SOL    MW4 9230   1.928   2.876   1.476  0.1567  0.6825  0.4306
 2365SOL     OW 9231   4.291   5.459   0.655 -0.1332 -0.1050 -0.5145
 2365SOL    HW2 9232   4.294   5.396   0.727  0.9753  0.8436  0.2983
 2365SOL    HW3 9233   4.200   5.457   0.625 -0.4301 -1.0633  0.4085
 2365SOL    MW4 9234   4.279   5.450   0.660 -0.0261 -0.1063 -0.2855
 2366SOL     OW 9235   1.431   3.671   4.091 -0.2056  0.3204 -0.6299
 2366SOL    HW2 9236   1.425   3.617   4.012  0.7877  1.2534 -1.3843
 2366SOL    HW3 9237   1.340   3.683   4.119 -0.4467 -2.1172 -0.1265
 2366SOL    MW4 9238   1.418   3.666   4.084 -0.1063  0.1219 -0.6630
 2367SOL     OW 9239   0.510   1.249   5.220 -0.1742 -0.0662 -0.1485
 2367SOL    HW2 9240   0.520   1.334   5.177  1.1470 -1.7104 -3.4817
 2367SOL    HW3 9241   0.415   1.233   5.221 -0.3406  0.8345 -0.7587
 2367SOL    MW4 9242   0.498   1.258   5.214 -0.0218 -0.1643 -0.6688
 2368SOL     OW 9243   4.216   2.397   6.146  0.0769 -0.2110 -0.0685
 2368SOL    HW2 9244   4.296   2.390   6.095 -0.3363 -1.8870 -0.5499
 2368SOL    HW3 9245   4.151   2.433   6.085 -0.0115 -0.6715 -0.2470
 2368SOL    MW4 9246   4.218   2.401   6.131  0.0107 -0.4929 -0.1556
 2369SOL     OW 9247   2.030   3.690   3.632  0.4404 -0.0951  0.0564
 2369SOL    HW2 9248   2.026   3.743   3.552  0.3138  0.2926  0.3151
 2369SOL    HW3 9249   2.037   3.600   3.601  0.5211  0.0614 -0.3920
 2369SOL    MW4 9250   2.031   3.685   3.618  0.4343 -0.0233  0.0314
 2370SOL     OW 9251   2.863   0.595   3.081  0.4396 -0.4964 -0.0336
 2370SOL    HW2 9252   2.824   0.519   3.123 -0.7801 -0.2040 -0.6054
 2370SOL    HW3 9253   2.887   0.565   2.993 -0.9967  0.0255 -0.6291
 2370SOL    MW4 9254   2.861   0.581   3.075  0.0892 -0.3890 -0.1876
 2371SOL     OW 9255   0.223   1.732   4.957 -0.9765  0.0116  0.5536
 2371SOL    HW2 9256   0.312   1.766   4.949 -1.0850  0.5424  1.4147
 2371SOL    HW3 9257   0.174   1.802   5.001 -1.9076 -0.1330 -0.2114
 2371SOL    MW4 9258   0.228   1.746   4.962 -1.1137  0.0626  0.5663
 2372SOL     OW 9259   6.154   2.626   5.349  0.5291 -0.4246 -0.0263
 2372SOL    HW2 9260   6.069   2.596   5.316 -0.3051  2.3119 -0.6647
 2372SOL    HW3 9261   6.168   2.577   5.430 -1.2164 -1.5943 -0.3853
 2372SOL    MW4 9262   6.145   2.616   5.355  0.1888 -0.2179 -0.1579
 2373SOL     OW 9263   5.759   5.268   1.468  0.4719 -0.2018  0.1329
 2373SOL    HW2 9264   5.746   5.328   1.394 -0.4205  1.1532  1.3372
 2373SOL    HW3 9265   5.722   5.185   1.438  1.4655 -0.1127 -1.4670
 2373SOL    MW4 9266   5.753   5.265   1.454  0.4853 -0.0113  0.0807
 2374SOL     OW 9267   4.368   3.157   4.428 -0.0670 -0.1349 -0.1965
 2374SOL    HW2 9268   4.282   3.196   4.418  0.2278  0.1408 -1.8806
 2374SOL    HW3 9269   4.403   3.151   4.339  1.6104 -0.3311  0.4315
 2374SOL    MW4 9270   4.361   3.161   4.415  0.1932 -0.1245 -0.3358
 2375SOL     OW 9271   5.034   3.554   3.657 -0.3108 -0.4151  0.0064
 2375SOL    HW2 9272   4.952   3.600   3.676  0.4197  1.1395 -0.4774
 2375SOL    HW3 9273   5.050   3.570   3.564  1.8819  1.6344  0.6358
 2375SOL    MW4 9274   5.025   3.562   3.647  0.0749  0.0604  0.0256
 2376SOL     OW 9275   3.996   1.468   5.342 -0.3272 -0.2348 -0.2851
 2376SOL    HW2 9276   3.936   1.398   5.316  0.1502 -0.7188 -0.1128
 2376SOL    HW3 9277   4.024   1.443   5.430  1.3160 -0.8566 -0.9375
 2376SOL    MW4 9278   3.992   1.455   5.350 -0.0474 -0.3807 -0.3485
 2377SOL     OW 9279   3.843   4.730   4.942 -0.4220 -0.2017  0.1392
 2377SOL    HW2 9280   3.759   4.689   4.965 -0.2851 -1.1061 -0.8511
 2377SOL    HW3 9281   3.828   4.767   4.855 -0.1133  0.6091  0.4284
 2377SOL    MW4 9282   3.830   4.729   4.934 -0.3632 -0.2141  0.0467
 2378SOL     OW 9283   2.564   1.112   1.035 -0.3104  0.1315 -0.2586
 2378SOL    HW2 9284   2.568   1.017   1.049 -1.9686 -0.0240 -0.5780
 2378SOL    HW3 9285   2.505   1.122   0.960 -3.4830  1.5114  2.1846
 2378SOL    MW4 9286   2.556   1.101   1.027 -0.9478  0.2930  0.0216
 2379SOL     OW 9287   6.260   1.758   2.333 -0.3842 -0.2470  0.1214
 2379SOL    HW2 9288   6.333   1.716   2.287 -1.0000 -2.3441  0.9148
 2379SOL    HW3 9289   6.276   1.852   2.323  1.2783 -0.6368 -1.4869
 2379SOL    MW4 9290   6.272   1.765   2.326 -0.2461 -0.5751  0.0139
 2380SOL     OW 9291   2.985   2.521   2.395  0.5611  0.3063  0.0829
 2380SOL    HW2 9292   3.034   2.541   2.475  0.2596  2.1927 -0.1600
 2380SOL    HW3 9293   3.002   2.595   2.337 -1.1496  0.1562 -0.6721
 2380SOL    MW4 9294   2.994   2.533   2.398  0.2956  0.5354 -0.0488
 2381SOL     OW 9295   4.920   5.279   0.267 -0.5432  0.1080  0.3253
 2381SOL    HW2 9296   4.855   5.321   0.210 -0.1452  2.7495  1.6349
 2381SOL    HW3 9297   4.874   5.266   0.350  0.0652  0.3604  0.7116
 2381SOL    MW4 9298   4.905   5.283   0.271 -0.4104  0.4898  0.5490
 2382SOL     OW 9299   2.332   0.163   1.336  0.1378  0.0234 -0.2798
 2382SOL    HW2 9300   2.407   0.191   1.283  1.2487 -1.6632  0.3203
 2382SOL    HW3 9301   2.261   0.151   1.272  1.0626 -0.6339 -1.2248
 2382SOL    MW4 9302   2.333   0.165   1.320  0.4064 -0.2858 -0.3253
 2383SOL     OW 9303   0.384   1.605   1.845 -0.3729  0.2819 -0.0267
 2383SOL    HW2 9304   0.370   1.640   1.933  0.7463  0.7287 -0.0070
 2383SOL    HW3 9305   0.296   1.601   1.807 -0.9017 -0.1667  1.1918
 2383SOL    MW4 9306   0.370   1.609   1.852 -0.2950  0.2817  0.1367
 2384SOL     OW 9307   4.347   0.221   6.230 -0.2459  0.0355 -0.7928
 2384SOL    HW2 9308   4.419   0.251   6.173 -1.5643  2.5246 -1.2553
 2384SOL    HW3 9309   4.299   0.158   6.176  0.6766 -0.5065 -1.0163
 2384SOL    MW4 9310   4.350   0.216   6.215 -0.2981  0.2924 -0.8833
 2385SOL     OW 9311   3.908   6.337   5.856 -0.6326  0.0357  0.6791
 2385SOL    HW2 9312   3.857   6.305   5.781 -1.0782  0.6441  0.7147
 2385SOL    HW3 9313   3.961   6.408   5.820 -0.1153 -0.3215  0.7327
 2385SOL    MW4 9314   3.908   6.342   5.841 -0.6232  0.0688  0.6909
 2386SOL     OW 9315   4.113   4.454   3.337 -0.4462  0.0165 -0.3915
 2386SOL    HW2 9316   4.108   4.521   3.269  0.6669 -0.8449 -1.3611
 2386SOL    HW3 9317   4.180   4.393   3.306 -0.0909 -0.5460  1.3628
 2386SOL    MW4 9318   4.121   4.455   3.324 -0.2525 -0.1714 -0.2879
 2387SOL     OW 9319   0.330   2.528   3.127 -0.3288 -0.4912 -0.3834
 2387SOL    HW2 9320   0.417   2.497   3.150 -0.3350 -0.7757 -0.7334
 2387SOL    HW3 9321   0.280   2.448   3.107 -1.2840 -0.5237  1.7970
 2387SOL    MW4 9322   0.335   2.513   3.127 -0.4556 -0.5330 -0.1419
 2388SOL     OW 9323   5.038   1.954   1.942  0.3817 -0.1365  0.5204
 2388SOL    HW2 9324   4.956   1.969   1.988 -0.4636  0.5536 -1.1033
 2388SOL    HW3 9325   5.071   1.871   1.977 -1.4328 -0.8557  0.6393
 2388SOL    MW4 9326   5.031   1.945   1.952  0.0308 -0.1404  0.3218
 2389SOL     OW 9327   6.385   4.089   5.070 -0.0484  0.0227 -0.4021
 2389SOL    HW2 9328   6.340   4.030   5.131 -1.4713  0.9885 -0.4752
 2389SOL    HW3 9329   6.426   4.155   5.127 -0.7134  0.4781 -0.4494
 2389SOL    MW4 9330   6.385   4.090   5.086 -0.3239  0.2102 -0.4180
 2390SOL     OW 9331   0.721   2.675   3.887  0.2399 -0.0177  0.0233
 2390SOL    HW2 9332   0.712   2.757   3.934 -0.5700 -0.8565  1.3933
 2390SOL    HW3 9333   0.640   2.668   3.836 -0.4703 -0.7391  1.2124
 2390SOL    MW4 9334   0.709   2.685   3.886  0.0393 -0.2235  0.3610
 2391SOL     OW 9335   5.571   5.430   5.733  0.9854  0.0444 -0.2696
 2391SOL    HW2 9336   5.568   5.338   5.706  1.3700 -0.0884  0.1215
 2391SOL    HW3 9337   5.664   5.453   5.730  0.7618  0.8581 -1.7812
 2391SOL    MW4 9338   5.583   5.421   5.729  1.0066  0.1342 -0.4174
 2392SOL     OW 9339   6.075   3.121   3.288 -0.3312  0.0280 -0.5086
 2392SOL    HW2 9340   6.064   3.082   3.374 -1.6917  1.1919 -0.1308
 2392SOL    HW3 9341   6.082   3.215   3.304  3.1015  0.0709 -1.3707
 2392SOL    MW4 9342   6.075   3.128   3.301 -0.0578  0.1872 -0.5725
 2393SOL     OW 9343   4.456   0.875   1.018  0.0095  0.5250  0.5666
 2393SOL    HW2 9344   4.515   0.875   1.093  1.8156 -0.1418 -0.7933
 2393SOL    HW3 9345   4.453   0.784   0.989  0.7066  1.0050 -1.1594
 2393SOL    MW4 9346   4.463   0.863   1.024  0.3398  0.5003  0.1594
 2394SOL     OW 9347   6.342   5.563   5.761  0.1096  0.2693 -0.1768
 2394SOL    HW2 9348   6.267   5.563   5.821 -0.4081 -0.4457 -0.8133
 2394SOL    HW3 9349   6.303   5.570   5.674  0.7945  0.0929 -0.5057
 2394SOL    MW4 9350   6.327   5.564   5.757  0.1316  0.1517 -0.3042
 2395SOL     OW 9351   3.016   0.939   5.411 -0.2094  0.2228  0.0692
 2395SOL    HW2 9352   3.099   0.944   5.458  0.4449 -1.5748 -0.7787
 2395SOL    HW3 9353   2.998   1.029   5.384  0.5867  0.9089  1.7022
 2395SOL    MW4 9354   3.025   0.952   5.414 -0.0181  0.0761  0.1728
 2396SOL     OW 9355   1.209   3.149   3.239  0.0893 -0.0758 -0.2757
 2396SOL    HW2 9356   1.208   3.054   3.228  1.3988  0.0631 -2.0069
 2396SOL    HW3 9357   1.191   3.183   3.151 -2.6639  1.3293  0.7222
 2396SOL    MW4 9358   1.206   3.141   3.226 -0.1012  0.1279 -0.3724
 2397SOL     OW 9359   6.225   1.068   3.998 -0.1618 -0.0849  0.4585
 2397SOL    HW2 9360   6.166   1.043   4.070 -1.2332 -2.9596 -1.2385
 2397SOL    HW3 9361   6.167   1.108   3.933  0.0041 -1.1897 -0.4163
 2397SOL    MW4 9362   6.209   1.070   3.999 -0.2812 -0.6099  0.1192
 2398SOL     OW 9363   0.249   0.938   3.780 -0.2352  0.0538  0.5080
 2398SOL    HW2 9364   0.160   0.938   3.814  0.7848  0.0372  3.4331
 2398SOL    HW3 9365   0.280   1.028   3.792  0.6212 -0.2890  0.9985
 2398SOL    MW4 9366   0.241   0.950   3.786  0.0124  0.0064  0.9586
 2399SOL     OW 9367   5.029   0.422   4.371  0.2132  0.8027 -0.1117
 2399SOL    HW2 9368   4.939   0.402   4.397  0.6972 -0.4500  0.6899
 2399SOL    HW3 9369   5.062   0.479   4.440  0.4769  0.0960  0.3545
 2399SOL    MW4 9370   5.022   0.427   4.383  0.3118  0.5442  0.0556
 2400SOL     OW 9371   0.095   2.606   5.948 -0.0803 -0.6063 -0.2526
 2400SOL    HW2 9372   0.025   2.664   5.977  0.8023 -0.5166  1.9451
 2400SOL    HW3 9373   0.152   2.661   5.894 -0.8866 -0.2762 -0.7699
 2400SOL    MW4 9374   0.094   2.621   5.945 -0.0702 -0.5509 -0.0309
 2401SOL     OW 9375   0.089   5.971   1.019 -0.1069  0.1824  0.0596
 2401SOL    HW2 9376  -0.005   5.979   1.006 -0.4524 -1.5741  1.1830
 2401SOL    HW3 9377   0.109   5.880   0.999  1.3545  0.5148 -0.1180
 2401SOL    MW4 9378   0.079   5.960   1.015  0.0403 -0.0055  0.1844
 2402SOL     OW 9379   1.015   2.110   3.264  0.0938  0.3524 -0.6794
 2402SOL    HW2 9380   0.920   2.103   3.248  0.0510 -0.0733 -0.2507
 2402SOL    HW3 9381   1.046   2.169   3.195 -0.6973  1.5976 -0.0165
 2402SOL    MW4 9382   1.006   2.117   3.253 -0.0162  0.4605 -0.5354
 2403SOL     OW 9383   5.360   3.253   3.412  0.0695  0.0454 -0.1680
 2403SOL    HW2 9384   5.381   3.338   3.449 -0.6461  0.6812 -1.1609
 2403SOL    HW3 9385   5.276   3.230   3.451 -0.2695  0.3207 -0.7141
 2403SOL    MW4 9386   5.352   3.261   3.422 -0.0697  0.1656 -0.3710
 2404SOL     OW 9387   2.212   4.732   5.486 -0.1563 -0.2521  0.0526
 2404SOL    HW2 9388   2.126   4.715   5.448 -0.3541 -0.4431  0.5770
 2404SOL    HW3 9389   2.222   4.665   5.554 -0.0116  0.3642  0.6530
 2404SOL    MW4 9390   2.202   4.721   5.490 -0.1633 -0.1960  0.2010
 2405SOL     OW 9391   5.759   6.088   3.671 -0.2482  0.1648  0.3588
 2405SOL    HW2 9392   5.774   6.182   3.684 -1.1479  0.4285 -0.3402
 2405SOL    HW3 9393   5.694   6.065   3.738 -1.6904  0.5623 -0.8568
 2405SOL    MW4 9394   5.752   6.097   3.682 -0.5572  0.2521  0.1062
 2406SOL     OW 9395   2.311   2.976   2.942 -0.3780  0.2957 -0.0851
 2406SOL    HW2 9396   2.279   2.904   2.888  0.3097  1.1474 -1.7165
 2406SOL    HW3 9397   2.320   3.049   2.881 -2.3716  2.2104  1.7457
 2406SOL    MW4 9398   2.308   2.976   2.927 -0.5503  0.6607 -0.0588
 2407SOL     OW 9399   0.722   3.409   0.083 -0.0626  0.1629 -0.3141
 2407SOL    HW2 9400   0.661   3.477   0.111  0.4777  1.0029 -1.1340
 2407SOL    HW3 9401   0.667   3.332   0.067 -0.8992  0.8708 -0.9225
 2407SOL    MW4 9402   0.707   3.408   0.085 -0.1017  0.3671 -0.5025
 2408SOL     OW 9403   6.362   5.755   3.313 -0.1353  0.5576  0.0193
 2408SOL    HW2 9404   6.342   5.844   3.284  0.2480  1.3719  2.0865
 2408SOL    HW3 9405   6.326   5.749   3.401 -0.2326 -1.3861 -0.1094
 2408SOL    MW4 9406   6.355   5.766   3.321 -0.0976  0.4086  0.2751
 2409SOL     OW 9407   4.528   4.012   1.816  0.2377  0.2762 -0.2181
 2409SOL    HW2 9408   4.543   3.917   1.816  1.2834  0.4166  0.3824
 2409SOL    HW3 9409   4.433   4.022   1.813  0.0264 -0.8301  1.3760
 2409SOL    MW4 9410   4.518   4.001   1.816  0.3478  0.1488  0.0715
 2410SOL     OW 9411   6.297   4.765   3.771  0.5119  0.2567 -0.7496
 2410SOL    HW2 9412   6.317   4.838   3.830  0.1660  0.1215 -0.4582
 2410SOL    HW3 9413   6.330   4.793   3.686  0.0842  0.9013 -0.7130
 2410SOL    MW4 9414   6.304   4.779   3.767  0.4098  0.3239 -0.7063
 2411SOL     OW 9415   5.859   3.085   3.974 -0.2090  0.3233  0.2726
 2411SOL    HW2 9416   5.918   3.161   3.972  2.1234 -1.3959  0.1988
 2411SOL    HW3 9417   5.830   3.076   3.883  0.7756  0.2385 -0.0526
 2411SOL    MW4 9418   5.863   3.094   3.961  0.2287  0.0853  0.2200
 2412SOL     OW 9419   1.133   6.055   2.875  0.0465 -0.6003 -0.3569
 2412SOL    HW2 9420   1.228   6.055   2.869  0.1907 -1.0814  1.4073
 2412SOL    HW3 9421   1.107   6.142   2.844  1.3256  0.7258  1.9858
 2412SOL    MW4 9422   1.142   6.067   2.870  0.2343 -0.4889  0.1849
 2413SOL     OW 9423   0.108   1.707   1.239 -0.1961  0.3929 -0.1100
 2413SOL    HW2 9424   0.038   1.754   1.283 -0.2138  0.3655 -0.1089
 2413SOL    HW3 9425   0.154   1.659   1.309 -1.5439 -1.3798 -0.3744
 2413SOL    MW4 9426   0.105   1.707   1.254 -0.3763  0.1554 -0.1447
 2414SOL     OW 9427   1.843   5.538   1.141  0.2128 -0.5511 -0.7053
 2414SOL    HW2 9428   1.780   5.480   1.185  1.0655 -0.9815 -0.0343
 2414SOL    HW3 9429   1.812   5.626   1.161 -0.8096 -0.7481 -1.3154
 2414SOL    MW4 9430   1.830   5.542   1.149  0.1904 -0.6339 -0.6972
 2415SOL     OW 9431   5.566   0.138   4.851  0.4718  0.5813 -0.7533
 2415SOL    HW2 9432   5.589   0.218   4.805 -1.4256  1.0495 -0.9862
 2415SOL    HW3 9433   5.599   0.068   4.795  0.8280  1.1777 -1.3034
 2415SOL    MW4 9434   5.573   0.139   4.837  0.2684  0.7217 -0.8566
 2416SOL     OW 9435   3.604   0.770   3.583 -0.4457  0.1730  0.2094
 2416SOL    HW2 9436   3.697   0.748   3.593 -0.8000 -0.6509  2.0640
 2416SOL    HW3 9437   3.567   0.757   3.670 -2.2123  1.0114 -0.3741
 2416SOL    MW4 9438   3.611   0.765   3.596 -0.7256  0.1749  0.3771
 2417SOL     OW 9439   1.226   1.926   1.896 -0.2494  0.4745  0.6279
 2417SOL    HW2 9440   1.142   1.966   1.872 -0.9722 -1.0072  0.5707
 2417SOL    HW3 9441   1.213   1.895   1.985 -0.0226 -0.4435  0.3482
 2417SOL    MW4 9442   1.213   1.927   1.905 -0.3148  0.1579  0.5835
 2418SOL     OW 9443   3.538   3.317   4.043 -0.3088 -0.3558 -0.1830
 2418SOL    HW2 9444   3.471   3.276   3.989  1.2611 -0.4687 -2.1746
 2418SOL    HW3 9445   3.508   3.407   4.054  0.3019  0.3400 -3.2180
 2418SOL    MW4 9446   3.525   3.323   4.038 -0.0211 -0.2789 -0.8462
 2419SOL     OW 9447   3.391   1.363   0.063 -0.0265 -0.6510 -0.1758
 2419SOL    HW2 9448   3.416   1.274   0.087 -0.9590 -0.6110  1.0368
 2419SOL    HW3 9449   3.465   1.417   0.090  0.0047 -0.9136  0.2747
 2419SOL    MW4 9450   3.404   1.359   0.070 -0.1454 -0.6804  0.0436
 2420SOL     OW 9451   1.786   5.996   1.148 -0.2266  0.4678 -0.7528
 2420SOL    HW2 9452   1.730   6.061   1.189  0.5608  1.0385 -0.5679
 2420SOL    HW3 9453   1.872   6.010   1.187  0.1976  0.0335 -1.5058
 2420SOL    MW4 9454   1.790   6.006   1.159 -0.0668  0.4858 -0.8277
 2421SOL     OW 9455   2.627   1.044   5.910 -0.7608  0.0367  0.0445
 2421SOL    HW2 9456   2.661   0.967   5.865 -2.5640 -0.7015 -0.1505
 2421SOL    HW3 9457   2.647   1.030   6.002  0.8703  0.4271 -0.2217
 2421SOL    MW4 9458   2.634   1.032   5.916 -0.7835 -0.0092 -0.0163
 2422SOL     OW 9459   4.939   5.523   1.826 -0.2293 -0.2297  0.2960
 2422SOL    HW2 9460   4.972   5.530   1.916  0.6987 -0.1163 -0.0366
 2422SOL    HW3 9461   5.004   5.468   1.781  0.0929  0.8621 -0.6489
 2422SOL    MW4 9462   4.952   5.517   1.832 -0.0644 -0.0707  0.1275
 2423SOL     OW 9463   2.800   1.218   0.939 -0.0496 -0.6209  0.2081
 2423SOL    HW2 9464   2.716   1.209   0.985  0.7628 -2.1371  1.4917
 2423SOL    HW3 9465   2.822   1.129   0.912  0.4498 -0.0196 -1.4656
 2423SOL    MW4 9466   2.792   1.205   0.942  0.1234 -0.7416  0.1566
 2424SOL     OW 9467   4.303   0.253   1.386  0.3185 -0.3639  0.2617
 2424SOL    HW2 9468   4.217   0.249   1.429  0.2712 -1.4547  0.0989
 2424SOL    HW3 9469   4.292   0.320   1.318 -0.7351 -1.1677 -0.4120
 2424SOL    MW4 9470   4.290   0.262   1.382  0.1733 -0.6138  0.1513
 2425SOL     OW 9471   4.723   2.823   5.254 -0.4875 -0.0461 -0.2317
 2425SOL    HW2 9472   4.691   2.841   5.166  2.1722  0.8100 -1.1284
 2425SOL    HW3 9473   4.663   2.870   5.312 -1.8308  0.0137 -1.6221
 2425SOL    MW4 9474   4.711   2.832   5.250 -0.3138  0.0748 -0.5335
 2426SOL     OW 9475   3.409   5.929   4.878 -0.5575 -0.0059 -0.4823
 2426SOL    HW2 9476   3.408   5.871   4.954 -0.2518 -1.9862 -1.9172
 2426SOL    HW3 9477   3.402   5.870   4.803 -0.8886  1.8827 -2.0061
 2426SOL    MW4 9478   3.408   5.913   4.878 -0.5608 -0.0180 -0.8727
 2427SOL     OW 9479   3.099   4.499   4.944 -0.1079  0.5863 -0.4180
 2427SOL    HW2 9480   3.056   4.492   4.859  0.6133 -3.4269 -0.6651
 2427SOL    HW3 9481   3.193   4.504   4.922  0.0239  0.6070  0.1406
 2427SOL    MW4 9482   3.106   4.498   4.930  0.0047  0.0595 -0.3769
 2428SOL     OW 9483   2.792   1.668   2.226  0.1492  0.0824 -0.7190
 2428SOL    HW2 9484   2.751   1.636   2.146 -0.2951  0.4099 -0.6282
 2428SOL    HW3 9485   2.822   1.589   2.272  0.2423 -0.1161 -1.1165
 2428SOL    MW4 9486   2.791   1.654   2.222  0.1029  0.0994 -0.7595
 2429SOL     OW 9487   1.824   0.719   0.031  0.2056  0.0351  0.3836
 2429SOL    HW2 9488   1.872   0.666   0.094  2.3054  0.1859 -1.0156
 2429SOL    HW3 9489   1.830   0.672  -0.052 -2.3468 -0.0664  0.1643
 2429SOL    MW4 9490   1.831   0.706   0.028  0.1459  0.0416  0.1700
 2430SOL     OW 9491   4.785   5.408   4.043  0.1531  0.8119 -0.2550
 2430SOL    HW2 9492   4.752   5.495   4.021 -0.3167  0.1360 -2.4417
 2430SOL    HW3 9493   4.765   5.355   3.966  0.5805 -1.2012  0.9649
 2430SOL    MW4 9494   4.778   5.413   4.030  0.1475  0.4572 -0.3826
 2431SOL     OW 9495   2.180   6.090   6.302 -0.4582  0.4085  0.0202
 2431SOL    HW2 9496   2.094   6.107   6.262 -1.2813 -1.4732  0.8848
 2431SOL    HW3 9497   2.167   6.012   6.356  2.0179 -0.4572 -0.4970
 2431SOL    MW4 9498   2.167   6.082   6.304 -0.2401  0.0460  0.0660
 2432SOL     OW 9499   3.774   5.394   5.058 -0.3985  0.0988 -0.2279
 2432SOL    HW2 9500   3.689   5.404   5.103 -0.8297  1.8498 -1.3383
 2432SOL    HW3 9501   3.828   5.464   5.094 -0.2755  0.6010 -1.3613
 2432SOL    MW4 9502   3.770   5.405   5.069 -0.4392  0.3961 -0.5239
 2433SOL     OW 9503   6.363   1.310   2.907  0.1718 -0.3605  0.3597
 2433SOL    HW2 9504   6.385   1.403   2.896 -0.9555 -0.2464 -1.2683
 2433SOL    HW3 9505   6.385   1.291   2.999 -0.2413  1.6912  0.9390
 2433SOL    MW4 9506   6.369   1.320   2.918 -0.0315 -0.0748  0.2213
 2434SOL     OW 9507   3.359   2.845   0.256  0.1404 -0.4746  0.0401
 2434SOL    HW2 9508   3.383   2.754   0.242  0.4681 -0.3186 -0.4292
 2434SOL    HW3 9509   3.265   2.843   0.275  0.3542 -1.0093  1.0870
 2434SOL    MW4 9510   3.349   2.833   0.257  0.2119 -0.5245  0.1163
 2435SOL     OW 9511   3.954   3.804   2.270  0.4546  0.0199 -0.6413
 2435SOL    HW2 9512   3.992   3.761   2.346 -0.5402  0.4095  0.1083
 2435SOL    HW3 9513   3.964   3.897   2.288  0.3496  0.1126 -1.0597
 2435SOL    MW4 9514   3.960   3.811   2.283  0.3095  0.0835 -0.5976
 2436SOL     OW 9515   1.548   5.517   0.987  0.5851  0.0402  0.3748
 2436SOL    HW2 9516   1.638   5.522   0.953  0.6736 -1.1614  0.3630
 2436SOL    HW3 9517   1.501   5.587   0.942  1.6074  0.9692  0.7009
 2436SOL    MW4 9518   1.554   5.527   0.977  0.7317  0.0042  0.4162
 2437SOL     OW 9519   0.532   6.072   4.479  0.1138 -0.1495  0.1733
 2437SOL    HW2 9520   0.459   6.043   4.534 -0.2075 -1.7097 -1.0060
 2437SOL    HW3 9521   0.605   6.016   4.506  0.0460 -0.6813 -0.7265
 2437SOL    MW4 9522   0.532   6.060   4.490  0.0625 -0.4255 -0.1010
 2438SOL     OW 9523   3.477   2.158   1.779  0.0679 -0.1680 -0.7489
 2438SOL    HW2 9524   3.512   2.137   1.692 -2.2877 -0.6393 -1.6637
 2438SOL    HW3 9525   3.504   2.084   1.834 -1.4513 -1.7897 -2.0319
 2438SOL    MW4 9526   3.485   2.145   1.775 -0.4433 -0.4442 -1.0388
 2439SOL     OW 9527   4.577   2.288   0.075  0.4135 -0.3159  0.4570
 2439SOL    HW2 9528   4.504   2.238   0.038 -0.1040 -0.4087  1.5629
 2439SOL    HW3 9529   4.543   2.323   0.157  0.2206  3.1745 -0.9344
 2439SOL    MW4 9530   4.563   2.286   0.081  0.3198  0.1323  0.4193
 2440SOL     OW 9531   0.148   1.963   2.404  0.2760 -0.9433 -0.1853
 2440SOL    HW2 9532   0.204   2.006   2.469 -0.7948  1.1742 -0.5793
 2440SOL    HW3 9533   0.061   1.998   2.420 -0.2454 -1.3007 -2.0036
 2440SOL    MW4 9534   0.144   1.973   2.415  0.0659 -0.7111 -0.4772
 2441SOL     OW 9535   4.236   6.164   2.879 -0.4429  0.1455 -0.2204
 2441SOL    HW2 9536   4.267   6.194   2.794  2.1544  0.1568  0.6262
 2441SOL    HW3 9537   4.247   6.069   2.876 -0.8222  0.0958 -0.0651
 2441SOL    MW4 9538   4.242   6.155   2.867 -0.1503  0.1404 -0.0882
 2442SOL     OW 9539   5.033   4.153   6.187  0.1194  0.2898 -0.2531
 2442SOL    HW2 9540   4.967   4.187   6.128 -0.3948 -0.8960 -0.3800
 2442SOL    HW3 9541   5.067   4.230   6.232 -1.4942  0.8976 -0.0338
 2442SOL    MW4 9542   5.029   4.167   6.185 -0.1614  0.2136 -0.2409
 2443SOL     OW 9543   4.700   3.451   5.936  0.1940 -0.2030  0.4065
 2443SOL    HW2 9544   4.791   3.458   5.963 -0.0033 -1.0098  1.3341
 2443SOL    HW3 9545   4.651   3.499   6.003  0.0763  2.4891 -1.4133
 2443SOL    MW4 9546   4.705   3.459   5.948  0.1524  0.0458  0.2888
 2444SOL     OW 9547   3.661   0.121   3.898  0.1820  0.0497 -0.6020
 2444SOL    HW2 9548   3.694   0.033   3.876  1.8381  1.0092 -2.2994
 2444SOL    HW3 9549   3.592   0.106   3.962  1.3319 -2.4064  0.1719
 2444SOL    MW4 9550   3.657   0.107   3.903  0.5522 -0.1478 -0.7239
 2445SOL     OW 9551   3.178   0.578   3.809  0.5968 -0.4783  0.1610
 2445SOL    HW2 9552   3.234   0.644   3.766 -0.3835  0.2628 -0.0027
 2445SOL    HW3 9553   3.230   0.548   3.884  0.6080  1.3430  0.9331
 2445SOL    MW4 9554   3.192   0.583   3.813  0.4690 -0.1402  0.2413
 2446SOL     OW 9555   1.088   1.858   5.381 -0.3650  0.0951 -0.1746
 2446SOL    HW2 9556   1.053   1.896   5.462 -1.7483 -0.1995 -0.6268
 2446SOL    HW3 9557   1.036   1.780   5.366  0.0195  0.0289 -1.2526
 2446SOL    MW4 9558   1.077   1.853   5.390 -0.4968  0.0475 -0.3765
 2447SOL     OW 9559   6.248   2.549   1.854  0.1084 -0.0215 -0.3917
 2447SOL    HW2 9560   6.219   2.489   1.784  2.2083  0.2354 -1.5771
 2447SOL    HW3 9561   6.197   2.629   1.839 -0.1506 -0.2950 -1.0317
 2447SOL    MW4 9562   6.237   2.551   1.843  0.3513 -0.0237 -0.6325
 2448SOL     OW 9563   3.572   6.167   1.645  0.1879 -0.2221 -0.3836
 2448SOL    HW2 9564   3.486   6.153   1.605 -0.6807  0.2235  1.2489
 2448SOL    HW3 9565   3.571   6.114   1.724  0.1042  2.2850  1.4218
 2448SOL    MW4 9566   3.561   6.158   1.650  0.0622  0.1675  0.0700
 2449SOL     OW 9567   4.943   4.091   5.802  0.3190 -0.2330  0.5803
 2449SOL    HW2 9568   4.906   4.154   5.865  0.5049  2.0011 -1.3901
 2449SOL    HW3 9569   5.037   4.097   5.815  0.2791 -2.4096  2.3883
 2449SOL    MW4 9570   4.950   4.100   5.812  0.3383 -0.2254  0.5589
 2450SOL     OW 9571   3.186   4.216   4.854 -0.4928 -0.2709  0.1221
 2450SOL    HW2 9572   3.130   4.291   4.873  0.6152  0.2296  1.6119
 2450SOL    HW3 9573   3.216   4.230   4.764  0.6441  1.7542  0.7593
 2450SOL    MW4 9574   3.182   4.228   4.845 -0.1966  0.0623  0.4027
 2451SOL     OW 9575   3.225   3.463   0.147 -0.6996  0.5570 -0.3731
 2451SOL    HW2 9576   3.197   3.417   0.068  1.5261 -0.9749 -0.3557
 2451SOL    HW3 9577   3.266   3.543   0.115 -3.2192  1.9356 -0.4747
 2451SOL    MW4 9578   3.226   3.468   0.133 -0.7384  0.5368 -0.3842
 2452SOL     OW 9579   5.628   2.320   0.165  0.3050 -0.2376 -0.5072
 2452SOL    HW2 9580   5.618   2.277   0.250 -1.5551  0.0299 -0.5432
 2452SOL    HW3 9581   5.709   2.284   0.129 -0.6620 -3.0491 -0.1438
 2452SOL    MW4 9582   5.637   2.310   0.171 -0.0680 -0.5732 -0.4640
 2453SOL     OW 9583   3.632   6.162   0.902  0.0254 -0.4550 -0.5874
 2453SOL    HW2 9584   3.721   6.177   0.870 -0.3307 -0.3069 -1.5176
 2453SOL    HW3 9585   3.594   6.100   0.841 -1.4921  1.6910 -1.9692
 2453SOL    MW4 9586   3.639   6.156   0.890 -0.2218 -0.1523 -0.8925
 2454SOL     OW 9587   3.023   2.574   4.011  0.4263 -0.3686 -0.3601
 2454SOL    HW2 9588   2.959   2.646   4.010 -1.5312 -2.0191 -0.0051
 2454SOL    HW3 9589   3.001   2.522   3.934  1.2274 -1.0918 -0.1087
 2454SOL    MW4 9590   3.012   2.577   4.000  0.2737 -0.6818 -0.2801
 2455SOL     OW 9591   4.779   2.847   0.792  0.1411 -0.0990 -0.5857
 2455SOL    HW2 9592   4.759   2.929   0.836 -0.3526 -0.1317 -0.7499
 2455SOL    HW3 9593   4.708   2.834   0.729 -0.5183 -1.3095  0.3523
 2455SOL    MW4 9594   4.767   2.856   0.789 -0.0110 -0.2630 -0.4836
 2456SOL     OW 9595   4.806   0.738   5.306  0.7024 -0.5566  0.1458
 2456SOL    HW2 9596   4.782   0.758   5.215  1.7407 -1.5437 -0.3731
 2456SOL    HW3 9597   4.792   0.644   5.314  1.3508 -0.6070  0.7739
 2456SOL    MW4 9598   4.801   0.729   5.295  0.9249 -0.6935  0.1602
 2457SOL     OW 9599   6.223   0.663   5.284 -0.1898  0.0249 -0.1767
 2457SOL    HW2 9600   6.274   0.716   5.344  0.4552 -0.8732  0.0901
 2457SOL    HW3 9601   6.139   0.651   5.328 -1.1846  2.6226 -1.2010
 2457SOL    MW4 9602   6.218   0.668   5.298 -0.2360  0.2491 -0.2766
 2458SOL     OW 9603   4.767   3.813   2.846  0.4911  0.8054  0.1890
 2458SOL    HW2 9604   4.724   3.841   2.766 -1.6289  0.3317  1.0786
 2458SOL    HW3 9605   4.834   3.751   2.817  1.2297  2.2565 -1.3270
 2458SOL    MW4 9606   4.770   3.808   2.832  0.3088  0.9344  0.1064
 2459SOL     OW 9607   0.121   4.781   6.405 -0.3798 -0.5598 -0.1787
 2459SOL    HW2 9608   0.125   4.873   6.381 -0.4724 -0.4912  0.0653
 2459SOL    HW3 9609   0.191   4.740   6.354 -2.1323 -0.8652 -2.4627
 2459SOL    MW4 9610   0.131   4.788   6.395 -0.6232 -0.5911 -0.4478
 2460SOL     OW 9611   3.274   4.764   4.207  0.4013 -0.2800 -0.1237
 2460SOL    HW2 9612   3.271   4.696   4.141  0.6144 -0.4926  0.0838
 2460SOL    HW3 9613   3.247   4.844   4.161 -1.8010 -0.8553  0.1035
 2460SOL    MW4 9614   3.270   4.766   4.192  0.1388 -0.3839 -0.0663
 2461SOL     OW 9615   6.374   5.960   1.520 -0.0754  0.5678 -0.0326
 2461SOL    HW2 9616   6.465   5.955   1.549  0.2107  0.6557 -0.8826
 2461SOL    HW3 9617   6.373   5.917   1.434 -1.0598 -0.4297  0.4473
 2461SOL    MW4 9618   6.386   5.954   1.512 -0.1675  0.4478 -0.0814
 2462SOL     OW 9619   4.030   4.969   6.410  0.3655  0.2208  0.5229
 2462SOL    HW2 9620   4.058   5.038   6.350 -2.8494  0.3462 -1.0226
 2462SOL    HW3 9621   4.008   4.895   6.353  1.2113 -1.1917  1.9488
 2462SOL    MW4 9622   4.031   4.968   6.395  0.0529  0.0510  0.5071
 2463SOL     OW 9623   6.352   3.251   1.279 -0.6045  0.8331  0.3516
 2463SOL    HW2 9624   6.423   3.211   1.330 -0.5935 -2.9316 -2.1917
 2463SOL    HW3 9625   6.273   3.223   1.324 -0.5566  1.1361  0.6300
 2463SOL    MW4 9626   6.351   3.242   1.292 -0.5968  0.3764  0.0527
 2464SOL     OW 9627   2.976   2.106   6.103  0.6540  0.1020  0.2069
 2464SOL    HW2 9628   2.918   2.091   6.177 -1.5716  0.2770 -1.3984
 2464SOL    HW3 9629   2.990   2.200   6.102  0.5838  0.1139  0.3446
 2464SOL    MW4 9630   2.970   2.116   6.113  0.3511  0.1266  0.0133
 2465SOL     OW 9631   4.938   2.771   5.703 -0.6124 -0.2846 -0.1851
 2465SOL    HW2 9632   4.956   2.729   5.787 -1.2071 -3.7613 -1.6331
 2465SOL    HW3 9633   4.843   2.786   5.703 -0.6614 -0.6024 -0.3869
 2465SOL    MW4 9634   4.928   2.768   5.714 -0.6973 -0.7852 -0.4028
 2466SOL     OW 9635   6.423   4.727   0.210  0.0680 -0.3746 -0.4439
 2466SOL    HW2 9636   6.475   4.737   0.130  2.3232  2.0999  1.1406
 2466SOL    HW3 9637   6.368   4.806   0.212  1.0681  0.3330  1.0427
 2466SOL    MW4 9638   6.422   4.739   0.200  0.4975  0.0452 -0.0387
 2467SOL     OW 9639   6.124   2.573   2.782 -0.0915  0.1013 -0.5883
 2467SOL    HW2 9640   6.066   2.620   2.841  1.8256  1.1691  0.5131
 2467SOL    HW3 9641   6.145   2.492   2.828 -2.7920 -1.7048 -2.1714
 2467SOL    MW4 9642   6.119   2.569   2.796 -0.1949  0.0039 -0.6519
 2468SOL     OW 9643   0.605   2.336   5.594  0.5653 -0.0532 -0.0517
 2468SOL    HW2 9644   0.616   2.278   5.669  1.3132  0.0264 -0.0910
 2468SOL    HW3 9645   0.580   2.420   5.633  1.1906  0.0517  0.1283
 2468SOL    MW4 9646   0.603   2.340   5.609  0.7465 -0.0289 -0.0331
 2469SOL     OW 9647   4.712   5.256   0.921 -0.0011 -0.0578 -0.2196
 2469SOL    HW2 9648   4.758   5.234   1.003  0.0515 -1.6912 -0.6512
 2469SOL    HW3 9649   4.690   5.348   0.930  0.2034 -0.1461  1.5483
 2469SOL    MW4 9650   4.715   5.265   0.933  0.0328 -0.2850 -0.0433
 2470SOL     OW 9651   6.325   4.736   5.513 -0.6616  0.5585  0.6904
 2470SOL    HW2 9652   6.278   4.786   5.446  1.4281  4.3673  1.7308
 2470SOL    HW3 9653   6.403   4.703   5.468 -1.9555 -1.8183  0.0464
 2470SOL    MW4 9654   6.329   4.738   5.498 -0.5566  0.7474  0.7427
 2471SOL     OW 9655   0.005   6.072   0.208 -0.0513 -0.0141 -0.6298
 2471SOL    HW2 9656   0.074   6.055   0.144 -0.6641  0.7663 -1.5138
 2471SOL    HW3 9657  -0.029   5.985   0.230  1.5103 -0.4640  0.1950
 2471SOL    MW4 9658   0.009   6.058   0.203  0.0739  0.0295 -0.6376
 2472SOL     OW 9659   3.243   5.485   1.597  0.1107  0.3716 -0.1123
 2472SOL    HW2 9660   3.163   5.515   1.553  0.1393 -0.1961 -0.5621
 2472SOL    HW3 9661   3.295   5.445   1.528  0.6929  0.5341  0.2208
 2472SOL    MW4 9662   3.239   5.484   1.582  0.1913  0.3182 -0.1277
 2473SOL     OW 9663   5.424   4.829   4.990  0.4144  0.2034  0.0910
 2473SOL    HW2 9664   5.467   4.778   4.920  0.6569 -1.4112  1.3464
 2473SOL    HW3 9665   5.366   4.889   4.943  0.2927 -1.0717 -1.5003
 2473SOL    MW4 9666   5.422   4.830   4.974  0.4303 -0.1779  0.0467
 2474SOL     OW 9667   4.237   0.552   4.443  0.0934 -0.2287  0.0153
 2474SOL    HW2 9668   4.206   0.587   4.526 -0.8704  0.3418 -0.5657
 2474SOL    HW3 9669   4.180   0.477   4.424 -0.8584  0.7052 -0.9614
 2474SOL    MW4 9670   4.225   0.547   4.451 -0.1594 -0.0302 -0.1903
 2475SOL     OW 9671   2.704   5.086   5.438 -0.5847 -0.3911  0.1987
 2475SOL    HW2 9672   2.632   5.070   5.377  1.0154 -1.2253 -1.5773
 2475SOL    HW3 9673   2.712   5.004   5.487 -1.2634 -0.0502  0.9020
 2475SOL    MW4 9674   2.696   5.073   5.436 -0.4632 -0.4562  0.0572
 2476SOL     OW 9675   4.216   4.913   3.170  0.1155 -0.7464  0.4364
 2476SOL    HW2 9676   4.145   4.940   3.228  1.5297  2.8322  0.7306
 2476SOL    HW3 9677   4.287   4.888   3.229  1.5146  2.7877  0.4908
 2476SOL    MW4 9678   4.216   4.913   3.185  0.4867  0.1920  0.4824
 2477SOL     OW 9679   4.748   2.080   0.138 -0.8001 -0.0227  0.1800
 2477SOL    HW2 9680   4.712   1.997   0.108 -2.4115  0.1266  1.5425
 2477SOL    HW3 9681   4.675   2.142   0.131 -0.2038  0.8067  1.0212
 2477SOL    MW4 9682   4.734   2.077   0.133 -0.9341  0.1064  0.4707
 2478SOL     OW 9683   0.683   4.369   4.987  0.5947  0.5511  0.1086
 2478SOL    HW2 9684   0.637   4.391   4.906 -1.0399 -0.1240  0.8239
 2478SOL    HW3 9685   0.629   4.407   5.056  2.4077  1.8745  0.8943
 2478SOL    MW4 9686   0.670   4.377   4.985  0.6183  0.6367  0.3067
 2479SOL     OW 9687   0.926   1.578   2.616 -0.9213 -1.0244 -0.3350
 2479SOL    HW2 9688   0.946   1.669   2.596  1.8990 -1.7767 -1.3307
 2479SOL    HW3 9689   0.850   1.583   2.675 -0.1142  2.0106  0.6239
 2479SOL    MW4 9690   0.919   1.591   2.621 -0.4427 -0.7233 -0.3399
 2480SOL     OW 9691   6.175   0.517   2.379 -0.0829 -0.0866  0.6868
 2480SOL    HW2 9692   6.083   0.538   2.397  0.0054 -0.7970  2.1755
 2480SOL    HW3 9693   6.197   0.568   2.302 -1.5906  0.4835  0.5979
 2480SOL    MW4 9694   6.166   0.526   2.371 -0.2702 -0.1051  0.8715
 2481SOL     OW 9695   2.423   6.312   5.754  0.0777  0.1464 -0.4051
 2481SOL    HW2 9696   2.363   6.387   5.756  2.5153  2.1902 -0.0016
 2481SOL    HW3 9697   2.411   6.269   5.839 -0.6607  0.6294 -0.2593
 2481SOL    MW4 9698   2.413   6.316   5.766  0.3019  0.4798 -0.3327
 2482SOL     OW 9699   3.164   5.433   5.188 -0.3694  0.1521  0.1894
 2482SOL    HW2 9700   3.218   5.364   5.228 -1.1285 -0.8617 -0.4753
 2482SOL    HW3 9701   3.113   5.469   5.260  1.7708  1.7459  1.0053
 2482SOL    MW4 9702   3.164   5.429   5.203 -0.1872  0.2286  0.2093
 2483SOL     OW 9703   1.693   5.627   2.833  0.0779 -0.0503  0.2702
 2483SOL    HW2 9704   1.719   5.649   2.744 -1.0553 -0.2705 -0.1260
 2483SOL    HW3 9705   1.618   5.684   2.851 -0.4156 -0.8125  0.6614
 2483SOL    MW4 9706   1.687   5.638   2.824 -0.1368 -0.1799  0.2696
 2484SOL     OW 9707   0.481   1.810   4.895 -0.1531  0.3003  0.6494
 2484SOL    HW2 9708   0.535   1.737   4.864 -1.2246  0.2187 -1.1824
 2484SOL    HW3 9709   0.451   1.852   4.815 -0.8469  1.8098  1.6682
 2484SOL    MW4 9710   0.485   1.806   4.880 -0.3860  0.4887  0.5421
 2485SOL     OW 9711   2.507   6.225   2.945  0.0745 -0.2198 -0.2369
 2485SOL    HW2 9712   2.418   6.213   2.912  0.0138 -1.6325  0.3705
 2485SOL    HW3 9713   2.561   6.227   2.866 -0.5290  1.1554 -0.6336
 2485SOL    MW4 9714   2.502   6.224   2.930 -0.0131 -0.2247 -0.2091
 2486SOL     OW 9715   2.756   5.471   0.812 -0.5369  0.2012  0.1774
 2486SOL    HW2 9716   2.734   5.467   0.905  0.2200 -0.2075  0.3494
 2486SOL    HW3 9717   2.704   5.401   0.773  0.6178 -0.9570  0.6273
 2486SOL    MW4 9718   2.746   5.461   0.819 -0.2847 -0.0055  0.2594
 2487SOL     OW 9719   1.010   1.139   0.570  0.2031 -0.5951  0.6078
 2487SOL    HW2 9720   1.091   1.131   0.520  0.6272 -0.2781  1.2208
 2487SOL    HW3 9721   0.967   1.054   0.561  1.2299 -1.2181  1.3132
 2487SOL    MW4 9722   1.015   1.126   0.562  0.3945 -0.6355  0.7817
 2488SOL     OW 9723   1.227   5.357   0.782  0.5290 -0.5141  0.0723
 2488SOL    HW2 9724   1.321   5.360   0.797  0.3420  1.1467  1.1438
 2488SOL    HW3 9725   1.191   5.425   0.839 -1.1172  0.3334 -1.8502
 2488SOL    MW4 9726   1.234   5.366   0.792  0.2872 -0.1831 -0.0400
 2489SOL     OW 9727   2.362   1.482   0.289 -0.3243 -0.0557 -0.1188
 2489SOL    HW2 9728   2.388   1.420   0.221 -0.6113  0.1258 -0.3922
 2489SOL    HW3 9729   2.309   1.430   0.349 -0.4887 -0.0985 -0.3000
 2489SOL    MW4 9730   2.359   1.467   0.288 -0.3839 -0.0374 -0.1788
 2490SOL     OW 9731   4.946   2.285   3.821  0.4165 -0.0556  0.1894
 2490SOL    HW2 9732   4.933   2.352   3.754  0.6982  0.3496  0.5340
 2490SOL    HW3 9733   5.039   2.262   3.814  0.1221 -1.0627 -0.5278
 2490SOL    MW4 9734   4.957   2.291   3.811  0.4148 -0.1350  0.1402
 2491SOL     OW 9735   4.359   3.060   1.212 -0.0494 -0.4038 -0.3424
 2491SOL    HW2 9736   4.281   3.096   1.171 -0.2254 -0.0428  0.2923
 2491SOL    HW3 9737   4.369   2.973   1.174 -1.3496 -0.8621  0.3143
 2491SOL    MW4 9738   4.350   3.053   1.202 -0.2442 -0.4166 -0.1720
 2492SOL     OW 9739   2.384   3.071   6.369  0.0908  0.3549 -0.2187
 2492SOL    HW2 9740   2.297   3.058   6.407 -0.5298  1.0284 -1.3689
 2492SOL    HW3 9741   2.368   3.086   6.276  1.0723  4.1840  0.0616
 2492SOL    MW4 9742   2.371   3.071   6.362  0.1384  0.9489 -0.3335
 2493SOL     OW 9743   2.857   5.064   3.452  0.0608  0.0133  0.3492
 2493SOL    HW2 9744   2.824   5.004   3.518  0.6212 -0.7993 -0.0994
 2493SOL    HW3 9745   2.811   5.039   3.371  1.0181 -0.4744 -0.0560
 2493SOL    MW4 9746   2.846   5.053   3.450  0.2610 -0.1583  0.2365
 2494SOL     OW 9747   1.602   6.170   4.105  0.0158  0.0389  0.1038
 2494SOL    HW2 9748   1.674   6.234   4.109  1.1563 -1.2238  0.8267
 2494SOL    HW3 9749   1.559   6.177   4.190 -0.3299  0.3430 -0.0918
 2494SOL    MW4 9750   1.606   6.180   4.116  0.1207 -0.0876  0.1734
 2495SOL     OW 9751   3.950   6.229   1.938 -0.0436  0.0712 -0.8168
 2495SOL    HW2 9752   3.895   6.290   1.889  0.5609  1.6644  0.4080
 2495SOL    HW3 9753   3.888   6.168   1.978 -0.8416  1.0455 -0.5239
 2495SOL    MW4 9754   3.934   6.229   1.937 -0.0692  0.4100 -0.6166
 2496SOL     OW 9755   2.878   0.876   0.066 -0.3661  0.0084  0.5298
 2496SOL    HW2 9756   2.970   0.887   0.043 -0.4443  4.4282  1.3692
 2496SOL    HW3 9757   2.878   0.806   0.132  2.1441 -1.0343 -0.4557
 2496SOL    MW4 9758   2.890   0.868   0.072 -0.0452  0.4540  0.5105
 2497SOL     OW 9759   0.161   1.680   1.723  0.2488 -0.0971 -0.3029
 2497SOL    HW2 9760   0.080   1.665   1.674  1.8618 -1.1253 -2.8363
 2497SOL    HW3 9761   0.179   1.773   1.712 -0.6783  0.1907  0.4832
 2497SOL    MW4 9762   0.153   1.690   1.715  0.3393 -0.1948 -0.5334
 2498SOL     OW 9763   4.161   1.653   0.983  0.2329  0.6369 -0.4171
 2498SOL    HW2 9764   4.161   1.670   0.889  0.3961 -0.4954 -0.6422
 2498SOL    HW3 9765   4.100   1.716   1.020  0.7713  1.6237 -1.1801
 2498SOL    MW4 9766   4.153   1.663   0.975  0.3255  0.6177 -0.5475
 2499SOL     OW 9767   1.596   1.816   0.944  0.5305  0.4280  0.2365
 2499SOL    HW2 9768   1.665   1.763   0.983  1.5818  1.9830  0.5689
 2499SOL    HW3 9769   1.619   1.822   0.851 -0.5815 -1.1514 -0.1792
 2499SOL    MW4 9770   1.608   1.810   0.937  0.5225  0.4248  0.2255
 2500SOL     OW 9771   5.312   1.686   0.233  0.2123 -0.0612 -0.2928
 2500SOL    HW2 9772   5.366   1.629   0.288 -0.5977  0.0052  0.6081
 2500SOL    HW3 9773   5.374   1.749   0.197  0.5898  1.0156  1.9984
 2500SOL    MW4 9774   5.328   1.687   0.236  0.1552  0.0896  0.1283
 2501SOL     OW 9775   1.344   2.987   6.308 -0.3982 -0.6671 -0.3005
 2501SOL    HW2 9776   1.261   3.034   6.307 -0.8252 -1.4020  0.0728
 2501SOL    HW3 9777   1.397   3.030   6.240 -1.8838 -1.6349 -2.1878
 2501SOL    MW4 9778   1.340   2.999   6.299 -0.6505 -0.8917 -0.5003
 2502SOL     OW 9779   3.289   0.961   3.188  0.3405  0.2895 -0.3324
 2502SOL    HW2 9780   3.207   0.914   3.170  0.0740 -0.5333  2.5110
 2502SOL    HW3 9781   3.336   0.904   3.249  1.2313  2.5152  1.1803
 2502SOL    MW4 9782   3.284   0.947   3.194  0.4229  0.4746  0.2423
 2503SOL     OW 9783   0.941   5.899   3.028 -0.1175  0.2129 -0.6170
 2503SOL    HW2 9784   1.012   5.929   2.971  0.0512 -0.2706 -0.6671
 2503SOL    HW3 9785   0.985   5.847   3.095 -0.3809  0.2673 -0.4037
 2503SOL    MW4 9786   0.957   5.896   3.029 -0.1300  0.1563 -0.5955
 2504SOL     OW 9787   5.460   4.854   3.039 -0.3399  0.3645  0.1208
 2504SOL    HW2 9788   5.446   4.789   2.970 -1.7344  1.3784 -0.6010
 2504SOL    HW3 9789   5.465   4.803   3.120 -0.6612 -0.6884 -0.5086
 2504SOL    MW4 9790   5.459   4.839   3.041 -0.5663  0.3594 -0.0575
 2505SOL     OW 9791   5.625   5.178   2.274 -0.5976 -0.1221  0.1345
 2505SOL    HW2 9792   5.624   5.123   2.195  0.5555 -0.5949  0.4219
 2505SOL    HW3 9793   5.715   5.170   2.307 -0.9883  0.2802  1.3457
 2505SOL    MW4 9794   5.637   5.170   2.268 -0.4970 -0.1314  0.3323
 2506SOL     OW 9795   3.542   0.512   5.751  1.0655 -0.3135 -0.5653
 2506SOL    HW2 9796   3.556   0.451   5.823  0.3618  0.6462  0.4313
 2506SOL    HW3 9797   3.464   0.479   5.706 -0.3020  0.6777  0.9559
 2506SOL    MW4 9798   3.534   0.500   5.755  0.7922 -0.0561 -0.2331
 2507SOL     OW 9799   2.644   3.218   2.763  0.1374  0.1274  0.2654
 2507SOL    HW2 9800   2.675   3.294   2.714  1.3733  0.0598  0.8913
 2507SOL    HW3 9801   2.635   3.249   2.853  0.6768 -0.4516  0.5313
 2507SOL    MW4 9802   2.647   3.232   2.768  0.3716  0.0421  0.3831
 2508SOL     OW 9803   0.577   2.838   4.723 -0.6136 -0.2703 -0.7723
 2508SOL    HW2 9804   0.597   2.912   4.782  2.1845 -1.6096  0.1366
 2508SOL    HW3 9805   0.546   2.769   4.781 -0.0479 -0.8583 -1.1562
 2508SOL    MW4 9806   0.576   2.839   4.739 -0.1698 -0.5245 -0.7030
 2509SOL     OW 9807   0.404   4.263   2.323  0.4860 -0.7007  0.1640
 2509SOL    HW2 9808   0.448   4.340   2.287  0.2467 -0.1061  1.1142
 2509SOL    HW3 9809   0.471   4.221   2.377  0.9097 -1.7091 -1.0896
 2509SOL    MW4 9810   0.419   4.268   2.325  0.5103 -0.7553  0.1239
 2510SOL     OW 9811   3.328   5.353   4.690  0.3422  0.3189  0.1633
 2510SOL    HW2 9812   3.348   5.264   4.721 -0.7652 -0.1610 -0.4273
 2510SOL    HW3 9813   3.350   5.410   4.763  1.3945 -0.4049  0.4370
 2510SOL    MW4 9814   3.334   5.348   4.703  0.3349  0.1601  0.1215
 2511SOL     OW 9815   0.332   5.411   6.235  0.0646  0.0128  0.0854
 2511SOL    HW2 9816   0.327   5.425   6.140 -2.1462  2.1849  0.4232
 2511SOL    HW3 9817   0.241   5.395   6.261  0.8006 -1.8605  1.7329
 2511SOL    MW4 9818   0.319   5.411   6.226 -0.1300  0.0522  0.3474
 2512SOL     OW 9819   5.929   4.369   2.324  0.3790  0.4641  0.1359
 2512SOL    HW2 9820   5.862   4.322   2.274  1.5382 -0.6090 -0.4421
 2512SOL    HW3 9821   6.004   4.374   2.265  0.7967  1.7613  0.7325
 2512SOL    MW4 9822   5.930   4.364   2.309  0.5870  0.4937  0.1383
 2513SOL     OW 9823   0.455   4.936   2.072  0.0362 -0.0858 -0.3939
 2513SOL    HW2 9824   0.440   4.849   2.034  0.4962 -0.0742 -0.6096
 2513SOL    HW3 9825   0.513   4.979   2.010  1.3866 -0.3213  0.6667
 2513SOL    MW4 9826   0.461   4.930   2.059  0.2751 -0.1154 -0.2824
 2514SOL     OW 9827   0.763   1.330   4.910 -0.4382 -0.3142  0.0640
 2514SOL    HW2 9828   0.822   1.319   4.836 -0.5729  1.8336 -0.4259
 2514SOL    HW3 9829   0.817   1.367   4.979 -0.6143 -1.0344  0.6008
 2514SOL    MW4 9830   0.778   1.333   4.909 -0.4792 -0.1259  0.0702
 2515SOL     OW 9831   6.214   5.313   2.904  0.2825 -0.8482  0.1581
 2515SOL    HW2 9832   6.294   5.334   2.856  0.2038  0.8399  0.6939
 2515SOL    HW3 9833   6.239   5.244   2.964  1.7856  0.6965  1.4212
 2515SOL    MW4 9834   6.228   5.307   2.905  0.4705 -0.4217  0.3955
 2516SOL     OW 9835   4.564   1.947   2.281 -0.1877  0.1041  0.0124
 2516SOL    HW2 9836   4.541   2.039   2.271 -2.8628 -0.4111  0.7691
 2516SOL    HW3 9837   4.611   1.944   2.365  0.2285  0.8103 -0.1851
 2516SOL    MW4 9838   4.567   1.959   2.291 -0.4857  0.1293  0.0862
 2517SOL     OW 9839   3.725   4.065   2.351 -0.6473 -0.5101  0.5662
 2517SOL    HW2 9840   3.658   4.119   2.394 -1.0147  1.6304 -2.3386
 2517SOL    HW3 9841   3.729   4.099   2.262  0.4580 -4.2161 -0.9952
 2517SOL    MW4 9842   3.716   4.077   2.345 -0.5499 -0.7166 -0.0230
 2518SOL     OW 9843   6.317   2.041   2.387  0.7533  0.5413 -0.5902
 2518SOL    HW2 9844   6.294   2.038   2.480  1.8568 -0.9671 -0.3326
 2518SOL    HW3 9845   6.244   2.087   2.346  0.0115  0.7959  0.9511
 2518SOL    MW4 9846   6.304   2.047   2.394  0.8010  0.3759 -0.3529
 2519SOL     OW 9847   3.533   5.485   0.716  0.7281  0.5921 -0.3217
 2519SOL    HW2 9848   3.535   5.574   0.680  0.9664  0.7166 -0.0071
 2519SOL    HW3 9849   3.540   5.497   0.810  0.9416  0.2313 -0.2893
 2519SOL    MW4 9850   3.534   5.499   0.723  0.7877  0.5609 -0.2760
 2520SOL     OW 9851   4.260   4.923   2.324  0.4118  0.5189  0.0316
 2520SOL    HW2 9852   4.196   4.852   2.325 -0.8204  1.5836  1.3162
 2520SOL    HW3 9853   4.322   4.900   2.393  1.3410 -0.4065 -1.0723
 2520SOL    MW4 9854   4.260   4.911   2.333  0.3718  0.5373  0.0554
 2521SOL     OW 9855   0.147   5.160   1.885  0.5166 -0.0996 -0.4050
 2521SOL    HW2 9856   0.204   5.236   1.888  1.8019 -1.0330 -0.1882
 2521SOL    HW3 9857   0.105   5.158   1.971  0.9827 -0.0089 -0.1743
 2521SOL    MW4 9858   0.149   5.170   1.897  0.7476 -0.2108 -0.3460
 2522SOL     OW 9859   1.572   1.530   2.045 -0.3233  0.2495 -0.7494
 2522SOL    HW2 9860   1.488   1.487   2.057 -0.5216  0.8023 -0.1101
 2522SOL    HW3 9861   1.562   1.580   1.964 -1.3466  1.9715  0.3733
 2522SOL    MW4 9862   1.560   1.531   2.036 -0.4845  0.5496 -0.5169
 2523SOL     OW 9863   2.759   0.666   1.963 -0.3084  0.1773  0.1475
 2523SOL    HW2 9864   2.854   0.675   1.954 -0.5295  1.6694 -1.0932
 2523SOL    HW3 9865   2.744   0.571   1.967  1.0267 -0.2290 -2.4935
 2523SOL    MW4 9866   2.770   0.654   1.962 -0.1614  0.3206 -0.3646
 2524SOL     OW 9867   5.458   4.348   5.870  0.1174 -0.3973  0.0641
 2524SOL    HW2 9868   5.528   4.284   5.858  0.5937 -0.0273  0.7987
 2524SOL    HW3 9869   5.411   4.318   5.948  0.2498  0.0537  0.3230
 2524SOL    MW4 9870   5.461   4.335   5.879  0.1977 -0.2890  0.1952
 2525SOL     OW 9871   5.112   5.461   3.621 -0.6965 -0.0977 -0.0021
 2525SOL    HW2 9872   5.084   5.552   3.619 -1.0074 -0.1689  0.7991
 2525SOL    HW3 9873   5.032   5.410   3.611 -0.4967 -0.2887 -0.6926
 2525SOL    MW4 9874   5.098   5.466   3.620 -0.7111 -0.1323  0.0125
 2526SOL     OW 9875   2.844   4.188   5.160 -0.0419  0.0704 -0.0186
 2526SOL    HW2 9876   2.764   4.195   5.108  0.8929 -0.6759 -1.6428
 2526SOL    HW3 9877   2.896   4.120   5.116  0.5355 -1.1014  2.2855
 2526SOL    MW4 9878   2.841   4.180   5.148  0.1576 -0.1827  0.0711
 2527SOL     OW 9879   1.411   5.017   4.988  0.1860 -0.0363 -0.8475
 2527SOL    HW2 9880   1.398   5.004   4.894  1.3779 -1.1170 -0.8906
 2527SOL    HW3 9881   1.326   5.049   5.020 -0.5337 -0.6009 -2.1195
 2527SOL    MW4 9882   1.398   5.020   4.980  0.2483 -0.2534 -1.0210
 2528SOL     OW 9883   3.616   2.029   1.542  0.3355  0.0244 -0.2080
 2528SOL    HW2 9884   3.577   2.069   1.464  0.0686  1.1432  0.4811
 2528SOL    HW3 9885   3.701   2.072   1.552 -1.2512  2.9790  2.3872
 2528SOL    MW4 9886   3.622   2.040   1.533  0.0909  0.5618  0.2253
 2529SOL     OW 9887   2.290   5.210   1.019  0.4108 -0.1300 -0.3232
 2529SOL    HW2 9888   2.206   5.242   1.049  0.8201  0.5263  0.1422
 2529SOL    HW3 9889   2.302   5.127   1.065  0.1165 -0.1241 -0.2347
 2529SOL    MW4 9890   2.281   5.203   1.029  0.4260 -0.0426 -0.2501
 2530SOL     OW 9891   5.828   6.445   5.944 -0.4737  0.5152  0.6235
 2530SOL    HW2 9892   5.753   6.458   6.003 -0.5272  1.0982  0.4317
 2530SOL    HW3 9893   5.796   6.383   5.879 -1.4197  2.1083 -0.5172
 2530SOL    MW4 9894   5.814   6.439   5.943 -0.6055  0.8023  0.4477
 2531SOL     OW 9895   1.181   1.692   1.572  0.7982 -0.3196  0.1138
 2531SOL    HW2 9896   1.190   1.690   1.667  1.0151 -1.4620  0.0825
 2531SOL    HW3 9897   1.163   1.784   1.552  2.1169  0.1889  1.1240
 2531SOL    MW4 9898   1.180   1.704   1.582  1.0008 -0.4032  0.2429
 2532SOL     OW 9899   3.601   3.189   0.664 -0.2516 -0.2600 -0.0748
 2532SOL    HW2 9900   3.566   3.246   0.732  0.5190  0.8783 -0.6086
 2532SOL    HW3 9901   3.540   3.197   0.591 -0.1160 -0.0688 -0.1685
 2532SOL    MW4 9902   3.588   3.197   0.664 -0.1320 -0.0846 -0.1576
 2533SOL     OW 9903   3.890   3.154   2.432  0.0904  0.6282 -0.3579
 2533SOL    HW2 9904   3.959   3.102   2.393  0.3980  0.8410 -0.1057
 2533SOL    HW3 9905   3.934   3.207   2.499 -0.6760 -0.9920  1.5250
 2533SOL    MW4 9906   3.905   3.154   2.436  0.0299  0.4425 -0.0762
 2534SOL     OW 9907   5.149   0.756   5.977  0.1521 -1.0987 -0.4030
 2534SOL    HW2 9908   5.214   0.689   6.002  0.4909 -0.3235  0.8908
 2534SOL    HW3 9909   5.087   0.757   6.050 -0.1996 -0.4312 -0.7085
 2534SOL    MW4 9910   5.150   0.747   5.990  0.1504 -0.9083 -0.2726
 2535SOL     OW 9911   0.873   4.415   0.571  0.2741 -0.2526  0.5368
 2535SOL    HW2 9912   0.814   4.374   0.634 -2.2207  0.0878 -1.4216
 2535SOL    HW3 9913   0.829   4.496   0.546  0.3902 -1.0431 -2.6647
 2535SOL    MW4 9914   0.860   4.421   0.576 -0.0397 -0.3120 -0.1440
 2536SOL     OW 9915   2.134   3.138   2.180  0.7179 -0.3409 -0.1027
 2536SOL    HW2 9916   2.087   3.078   2.122 -1.4572 -0.3870  1.5913
 2536SOL    HW3 9917   2.105   3.225   2.154 -0.1806 -0.3555  0.7918
 2536SOL    MW4 9918   2.124   3.142   2.169  0.3123 -0.3489  0.2388
 2537SOL     OW 9919   3.507   4.114   1.080 -0.1087 -0.7409 -0.5213
 2537SOL    HW2 9920   3.463   4.154   1.155  1.7266  0.2109  0.1079
 2537SOL    HW3 9921   3.544   4.033   1.114 -0.6335 -1.1208 -0.8348
 2537SOL    MW4 9922   3.506   4.109   1.094  0.0642 -0.6654 -0.4796
 2538SOL     OW 9923   5.011   2.961   5.415 -0.8324  0.4265 -0.2727
 2538SOL    HW2 9924   4.942   3.019   5.383  0.7818  2.1093 -0.8523
 2538SOL    HW3 9925   5.032   2.995   5.502  0.4751  1.0965 -0.8197
 2538SOL    MW4 9926   5.005   2.973   5.423 -0.4469  0.7369 -0.4214
 2539SOL     OW 9927   0.302   5.797   6.327  0.9815 -0.5113 -0.1086
 2539SOL    HW2 9928   0.378   5.745   6.302  1.2445 -0.8720  1.3501
 2539SOL    HW3 9929   0.249   5.738   6.381  0.8779  0.4516  0.8787
 2539SOL    MW4 9930   0.305   5.782   6.331  1.0025 -0.4318  0.2141
 2540SOL     OW 9931   5.234   4.747   0.259  0.5398  0.5570  0.0298
 2540SOL    HW2 9932   5.231   4.675   0.322 -1.5966 -0.5377 -1.1814
 2540SOL    HW3 9933   5.283   4.712   0.185  2.6110  1.6621  0.8201
 2540SOL    MW4 9934   5.240   4.733   0.257  0.5312  0.5583 -0.0257
 2541SOL     OW 9935   1.414   3.299   1.244  0.1219  0.0476 -0.1852
 2541SOL    HW2 9936   1.364   3.311   1.164  0.0378 -0.4473 -0.2087
 2541SOL    HW3 9937   1.350   3.313   1.315 -0.3460 -1.6767 -0.2108
 2541SOL    MW4 9938   1.399   3.302   1.243  0.0490 -0.2452 -0.1917
 2542SOL     OW 9939   5.028   0.853   0.078 -0.0744 -0.0900 -0.0544
 2542SOL    HW2 9940   5.104   0.832   0.132 -1.0529  1.7940  2.2256
 2542SOL    HW3 9941   5.027   0.949   0.074 -1.5185 -0.1149 -1.2697
 2542SOL    MW4 9942   5.038   0.863   0.084 -0.3940  0.1553  0.0861
 2543SOL     OW 9943   1.273   0.958   2.512 -0.5791 -0.0608  0.1578
 2543SOL    HW2 9944   1.299   1.050   2.515  0.4212 -0.3440  0.7761
 2543SOL    HW3 9945   1.232   0.941   2.597  0.1226 -0.4134  0.4408
 2543SOL    MW4 9946   1.271   0.968   2.524 -0.3545 -0.1447  0.2767
 2544SOL     OW 9947   1.957   0.929   6.074  0.7711  0.2309  0.0087
 2544SOL    HW2 9948   1.999   0.971   5.999 -0.1350  0.2225 -0.5186
 2544SOL    HW3 9949   1.864   0.937   6.057  0.5548 -1.4597  0.1797
 2544SOL    MW4 9950   1.951   0.935   6.062  0.6230  0.0068 -0.0383
 2545SOL     OW 9951   5.109   5.173   3.148  0.4425  0.2278 -0.3460
 2545SOL    HW2 9952   5.106   5.222   3.066 -1.5502  0.6353 -0.0807
 2545SOL    HW3 9953   5.086   5.083   3.124  0.7497  0.1442 -0.3411
 2545SOL    MW4 9954   5.106   5.168   3.134  0.2201  0.2706 -0.3104
 2546SOL     OW 9955   3.818   0.941   3.855  0.2387  0.0227 -0.1429
 2546SOL    HW2 9956   3.889   0.926   3.792 -0.0930 -0.1807 -0.4791
 2546SOL    HW3 9957   3.785   0.853   3.874  0.8241  0.0149  0.9036
 2546SOL    MW4 9958   3.823   0.927   3.849  0.2722 -0.0052 -0.0492
 2547SOL     OW 9959   0.974   3.770   3.999  0.0463  0.1012  0.4537
 2547SOL    HW2 9960   0.921   3.692   4.011 -0.3022  0.1323 -0.7358
 2547SOL    HW3 9961   0.947   3.829   4.069 -1.0669 -0.1161  0.2270
 2547SOL    MW4 9962   0.963   3.768   4.010 -0.1465  0.0766  0.2668
 2548SOL     OW 9963   0.690   2.623   0.125 -0.2307  0.9109 -0.3532
 2548SOL    HW2 9964   0.614   2.575   0.095 -0.6434  1.1247  0.3386
 2548SOL    HW3 9965   0.765   2.567   0.102 -0.5603  0.8295 -1.2860
 2548SOL    MW4 9966   0.690   2.609   0.118 -0.3286  0.9284 -0.3850
 2549SOL     OW 9967   3.218   4.177   5.502  0.0724  0.0138  0.1506
 2549SOL    HW2 9968   3.304   4.149   5.532  0.2051  1.1610  0.8920
 2549SOL    HW3 9969   3.228   4.192   5.408  0.2639 -1.3546 -0.0561
 2549SOL    MW4 9970   3.230   4.175   5.493  0.1152 -0.0154  0.2211
 2550SOL     OW 9971   6.381   6.406   3.024 -0.5759 -0.1626 -0.3773
 2550SOL    HW2 9972   6.419   6.471   3.083  0.7896 -1.2814  0.0215
 2550SOL    HW3 9973   6.356   6.333   3.081  0.1018 -0.9602 -1.0709
 2550SOL    MW4 9974   6.383   6.405   3.039 -0.3063 -0.4154 -0.4162
 2551SOL     OW 9975   5.930   5.671   1.465 -0.1680  0.4574 -0.1091
 2551SOL    HW2 9976   5.920   5.620   1.384 -0.3932  1.8042 -0.9598
 2551SOL    HW3 9977   5.939   5.605   1.534 -0.5488 -0.7262 -1.1554
 2551SOL    MW4 9978   5.930   5.655   1.463 -0.2479  0.4789 -0.3594
 2552SOL     OW 9979   3.359   2.414   1.153  0.1052 -0.4121  0.5746
 2552SOL    HW2 9980   3.427   2.433   1.088 -1.6950  1.3734 -0.9173
 2552SOL    HW3 9981   3.317   2.334   1.121 -0.5071  0.2321 -0.2752
 2552SOL    MW4 9982   3.362   2.406   1.140 -0.2131 -0.0915  0.2656
 2553SOL     OW 9983   0.059   1.358   5.079  0.3971 -0.1528  0.7155
 2553SOL    HW2 9984   0.111   1.296   5.130  1.3741 -1.7528 -2.0286
 2553SOL    HW3 9985   0.122   1.404   5.024 -0.6012  1.5806  0.9151
 2553SOL    MW4 9986   0.074   1.356   5.078  0.3943 -0.1352  0.3798
 2554SOL     OW 9987   0.920   5.719   2.644  1.0288 -0.0550  0.2161
 2554SOL    HW2 9988   0.965   5.702   2.561  0.4949  1.0902 -0.3329
 2554SOL    HW3 9989   0.828   5.699   2.625  0.8382  0.6364  0.3910
 2554SOL    MW4 9990   0.914   5.714   2.630  0.9332  0.1873  0.1668
 2555SOL     OW 9991   3.391   5.112   1.626 -0.6790  0.3633 -0.2359
 2555SOL    HW2 9992   3.448   5.038   1.605 -2.4607 -0.5997 -2.0667
 2555SOL    HW3 9993   3.423   5.183   1.570 -1.4208 -0.2814 -1.5349
 2555SOL    MW4 9994   3.403   5.111   1.616 -1.0120  0.1512 -0.6489
 2556SOL     OW 9995   4.720   6.336   3.167  1.0519  0.1782  0.1002
 2556SOL    HW2 9996   4.798   6.291   3.134  2.0047  1.5348  0.4095
 2556SOL    HW3 9997   4.733   6.342   3.261  0.6067  0.4764  0.1466
 2556SOL    MW4 9998   4.732   6.331   3.175  1.1188  0.3965  0.1472
 2557SOL     OW 9999   1.173   2.281   0.957 -0.2026  0.2334 -0.3980
 2557SOL    HW210000   1.088   2.250   0.926 -0.1459  1.9874 -2.5192
 2557SOL    HW310001   1.159   2.375   0.974  1.1223  0.3860 -0.0272
 2557SOL    MW410002   1.160   2.289   0.955 -0.0203  0.4849 -0.6289
 2558SOL     OW10003   2.138   0.766   0.231 -0.1085  0.2663 -0.3003
 2558SOL    HW210004   2.192   0.705   0.182  0.7617 -0.5304  1.5418
 2558SOL    HW310005   2.180   0.851   0.219  0.6969 -0.0946 -0.1263
 2558SOL    MW410006   2.151   0.769   0.223  0.1126  0.1135 -0.0343
 2559SOL     OW10007   6.092   1.012   3.307 -0.0032 -0.1920 -0.0126
 2559SOL    HW210008   6.117   0.953   3.236 -1.9663 -1.4472  0.2418
 2559SOL    HW310009   6.152   0.991   3.378  1.1439  0.1628 -0.8455
 2559SOL    MW410010   6.103   1.002   3.307 -0.1109 -0.3108 -0.0889
 2560SOL     OW10011   5.218   2.526   0.353 -0.0115 -0.5176 -0.5805
 2560SOL    HW210012   5.127   2.505   0.330 -0.5038 -0.3163  0.9927
 2560SOL    HW310013   5.234   2.610   0.311 -0.0476 -1.2191 -2.0532
 2560SOL    MW410014   5.208   2.534   0.345 -0.0812 -0.5836 -0.5673
 2561SOL     OW10015   1.094   5.556   5.041 -0.2604 -0.0998 -0.4631
 2561SOL    HW210016   1.182   5.577   5.009  0.0454 -0.2962  0.2278
 2561SOL    HW310017   1.065   5.637   5.084  0.3163 -0.5749  0.8820
 2561SOL    MW410018   1.102   5.570   5.043 -0.1439 -0.1884 -0.1945
 2562SOL     OW10019   4.056   0.095   1.212  0.2013 -0.1197  0.0026
 2562SOL    HW210020   4.052   0.086   1.117  1.6079  1.1502 -0.2007
 2562SOL    HW310021   4.136   0.049   1.237  0.2639  0.2426  0.4760
 2562SOL    MW410022   4.066   0.087   1.203  0.3951  0.0956  0.0382
 2563SOL     OW10023   4.665   2.023   3.164  0.0174  0.0065  0.1081
 2563SOL    HW210024   4.671   2.039   3.258 -1.0315  0.5995  0.0989
 2563SOL    HW310025   4.751   2.048   3.129  0.2838  0.1604  0.8622
 2563SOL    MW410026   4.677   2.029   3.172 -0.0858  0.1051  0.2064
 2564SOL     OW10027   0.297   4.142   1.230  0.0090  0.1205 -0.1100
 2564SOL    HW210028   0.379   4.119   1.272 -0.3880 -0.0577  0.5796
 2564SOL    HW310029   0.235   4.074   1.257 -0.8975  1.3677  1.0956
 2564SOL    MW410030   0.300   4.130   1.239 -0.1630  0.2616  0.1400
 2565SOL     OW10031   0.624   5.461   5.251 -0.3299 -0.0012  0.0427
 2565SOL    HW210032   0.612   5.474   5.157  0.2125 -2.7036 -0.4934
 2565SOL    HW310033   0.579   5.378   5.270 -0.8920  0.7422  2.2995
 2565SOL    MW410034   0.617   5.452   5.241 -0.3325 -0.2597  0.2697
 2566SOL     OW10035   0.993   5.068   6.219 -0.6963  0.2888  0.5543
 2566SOL    HW210036   0.958   4.983   6.247 -1.3173 -0.3436 -1.8795
 2566SOL    HW310037   1.059   5.047   6.154 -2.2776  1.6119 -1.6518
 2566SOL    MW410038   0.997   5.054   6.214 -0.9869  0.3799 -0.0578
 2567SOL     OW10039   5.676   4.471   1.362 -0.1196 -0.1842 -0.3870
 2567SOL    HW210040   5.758   4.510   1.331  0.7153 -0.2692  1.5765
 2567SOL    HW310041   5.689   4.457   1.455 -2.3373 -0.3411 -0.0295
 2567SOL    MW410042   5.688   4.474   1.370 -0.3021 -0.2161 -0.0808
 2568SOL     OW10043   2.811   2.807   3.546 -0.1613  0.4767 -0.4550
 2568SOL    HW210044   2.862   2.861   3.605 -1.7589  0.4849  1.0000
 2568SOL    HW310045   2.853   2.721   3.549 -0.3736  0.4063  0.9303
 2568SOL    MW410046   2.823   2.803   3.554 -0.4001  0.4685 -0.0802
 2569SOL     OW10047   4.885   0.074   4.286 -0.3531 -0.3556 -0.3725
 2569SOL    HW210048   4.817   0.018   4.247 -1.8210  0.8028  0.4277
 2569SOL    HW310049   4.950   0.085   4.216 -0.5224 -2.2033 -0.8779
 2569SOL    MW410050   4.884   0.068   4.271 -0.5691 -0.4465 -0.3336
 2570SOL     OW10051   4.212   3.539   0.351  0.4009  0.3582  0.9976
 2570SOL    HW210052   4.119   3.559   0.361 -0.3666 -2.3596 -0.0414
 2570SOL    HW310053   4.241   3.595   0.279 -1.3385 -1.1371 -0.9829
 2570SOL    MW410054   4.204   3.549   0.343  0.0701 -0.1977  0.5993
 2571SOL     OW10055   3.706   4.294   1.068  0.3688  0.1884 -0.5221
 2571SOL    HW210056   3.624   4.246   1.074  0.1335  0.5480 -0.8579
 2571SOL    HW310057   3.773   4.226   1.053  0.3415 -0.2685  1.1741
 2571SOL    MW410058   3.704   4.279   1.067  0.3342  0.1756 -0.3426
 2572SOL     OW10059   1.110   3.233   3.008 -0.3213 -0.0344  0.8913
 2572SOL    HW210060   1.062   3.315   3.013 -1.6594 -0.6556 -0.7358
 2572SOL    HW310061   1.043   3.165   3.015  0.1322 -0.9283 -1.9691
 2572SOL    MW410062   1.095   3.235   3.010 -0.4380 -0.2343  0.2993
 2573SOL     OW10063   4.286   5.898   0.884 -0.2566  0.3291 -0.4520
 2573SOL    HW210064   4.198   5.910   0.849 -0.5701  0.3471  0.3063
 2573SOL    HW310065   4.278   5.823   0.943  0.6465 -0.7987 -1.7191
 2573SOL    MW410066   4.273   5.890   0.887 -0.1788  0.1827 -0.5191
 2574SOL     OW10067   1.116   6.340   5.476 -0.2462 -0.5386 -0.1528
 2574SOL    HW210068   1.082   6.390   5.549 -0.5761  0.5119 -0.9955
 2574SOL    HW310069   1.081   6.251   5.488 -0.5450 -0.3004  0.7752
 2574SOL    MW410070   1.107   6.335   5.487 -0.3291 -0.3686 -0.1415
 2575SOL     OW10071   6.252   3.020   5.085  0.0536  0.2730 -0.0344
 2575SOL    HW210072   6.333   2.969   5.075 -0.6006 -0.5874 -1.1277
 2575SOL    HW310073   6.210   2.983   5.162 -0.5778 -1.1278 -1.0076
 2575SOL    MW410074   6.258   3.008   5.094 -0.1160 -0.0254 -0.3071
 2576SOL     OW10075   3.081   4.559   2.661  0.2772 -0.2781  0.0834
 2576SOL    HW210076   3.123   4.553   2.747  1.1449  0.5749 -0.2688
 2576SOL    HW310077   3.111   4.481   2.614  1.0136  0.0207  0.0425
 2576SOL    MW410078   3.090   4.548   2.666  0.4888 -0.1261  0.0315
 2577SOL     OW10079   1.023   5.589   2.029  0.0153  0.3323  0.3609
 2577SOL    HW210080   0.976   5.580   2.112  1.1733 -0.3559  0.9678
 2577SOL    HW310081   1.101   5.536   2.040 -0.2205 -0.4828 -1.5077
 2577SOL    MW410082   1.027   5.581   2.042  0.1370  0.1340  0.1945
 2578SOL     OW10083   3.349   6.323   4.237 -0.2766 -0.0796  0.3967
 2578SOL    HW210084   3.404   6.263   4.185 -1.0149  0.5810 -1.2358
 2578SOL    HW310085   3.265   6.278   4.243 -0.2219 -0.1091  0.9698
 2578SOL    MW410086   3.345   6.309   4.231 -0.3668  0.0037  0.2569
 2579SOL     OW10087   2.405   2.756   1.716 -0.4216  0.3914 -0.3926
 2579SOL    HW210088   2.312   2.749   1.738  0.1967 -0.3819  2.4124
 2579SOL    HW310089   2.434   2.836   1.762  0.4976  0.0277 -0.3129
 2579SOL    MW410090   2.397   2.766   1.725 -0.2187  0.2414 -0.0120
 2580SOL     OW10091   6.170   0.785   0.832  0.0196  0.0761  0.1802
 2580SOL    HW210092   6.135   0.709   0.878 -2.8077  1.8770  1.2599
 2580SOL    HW310093   6.233   0.749   0.769 -1.0779 -3.0944  0.7564
 2580SOL    MW410094   6.174   0.770   0.830 -0.4982 -0.1046  0.3987
 2581SOL     OW10095   1.950   2.241   6.265 -0.0590 -0.5482  0.1624
 2581SOL    HW210096   2.015   2.281   6.208 -0.6782  1.1631  0.5858
 2581SOL    HW310097   1.950   2.296   6.344 -0.8231 -1.5089  0.8618
 2581SOL    MW410098   1.959   2.254   6.268 -0.2415 -0.4492  0.3106
 2582SOL     OW10099   5.884   5.184   2.364 -0.4097  0.2788 -0.7698
 2582SOL    HW210100   5.930   5.263   2.338 -0.4927  1.0362  1.2307
 2582SOL    HW310101   5.887   5.184   2.459 -2.9540 -0.6046 -0.6111
 2582SOL    MW410102   5.891   5.194   2.373 -0.7564  0.2622 -0.4850
 2583SOL     OW10103   1.907   0.822   4.448 -0.0517  0.0518  0.7992
 2583SOL    HW210104   1.932   0.767   4.522 -0.7808 -1.1464  0.1757
 2583SOL    HW310105   1.971   0.800   4.380 -0.8203 -0.6441  0.2807
 2583SOL    MW410106   1.919   0.812   4.449 -0.2493 -0.1981  0.6486
 2584SOL     OW10107   1.737   4.320   3.143  0.8998  0.3893 -0.1439
 2584SOL    HW210108   1.726   4.386   3.075  1.6441  0.4449 -0.2265
 2584SOL    HW310109   1.787   4.250   3.101 -1.2330 -0.9800 -0.5189
 2584SOL    MW410110   1.742   4.319   3.129  0.7166  0.2160 -0.2043
 2585SOL     OW10111   2.014   1.942   2.041  0.0526 -0.0671  0.2169
 2585SOL    HW210112   2.009   1.848   2.023  0.0819 -0.0274  0.0067
 2585SOL    HW310113   2.027   1.983   1.956  2.0216 -0.0222  0.4869
 2585SOL    MW410114   2.015   1.935   2.027  0.3162 -0.0559  0.2248
 2586SOL     OW10115   5.605   4.018   2.878  0.5816 -0.2217 -0.3827
 2586SOL    HW210116   5.595   4.031   2.784  1.1405 -0.4945 -0.4837
 2586SOL    HW310117   5.659   4.091   2.907 -0.0965  0.1975 -0.1668
 2586SOL    MW410118   5.611   4.029   2.869  0.5659 -0.2024 -0.3676
 2587SOL     OW10119   0.209   2.358   1.708  0.2732 -0.3038 -0.0049
 2587SOL    HW210120   0.191   2.452   1.708  2.2691  0.1138  0.1131
 2587SOL    HW310121   0.125   2.317   1.686 -0.4588  1.5317 -0.7646
 2587SOL    MW410122   0.195   2.365   1.705  0.4400 -0.0065 -0.0895
 2588SOL     OW10123   5.240   4.386   5.454 -0.3823  0.2766 -0.3424
 2588SOL    HW210124   5.214   4.472   5.487  0.5826  0.2100  0.6505
 2588SOL    HW310125   5.262   4.401   5.362 -0.2011  1.0868 -0.1716
 2588SOL    MW410126   5.239   4.399   5.446 -0.2311  0.3747 -0.1889
 2589SOL     OW10127   3.241   3.795   2.646 -0.4704 -0.2215  0.7846
 2589SOL    HW210128   3.154   3.804   2.608 -0.1859  0.9847  0.3730
 2589SOL    HW310129   3.296   3.765   2.574 -0.2665  0.4237  0.6664
 2589SOL    MW410130   3.237   3.793   2.632 -0.4060  0.0228  0.7147
 2590SOL     OW10131   2.816   2.182   2.229 -0.1782  0.2525 -0.2508
 2590SOL    HW210132   2.851   2.162   2.142  0.0702  1.1766 -0.3791
 2590SOL    HW310133   2.861   2.121   2.288  0.7040  0.5527 -0.5900
 2590SOL    MW410134   2.827   2.171   2.226 -0.0290  0.4140 -0.3124
 2591SOL     OW10135   6.238   5.584   6.265 -0.4396  0.1190 -0.3803
 2591SOL    HW210136   6.308   5.647   6.251  0.2661 -0.4970  0.2544
 2591SOL    HW310137   6.204   5.605   6.352  0.5963 -1.0825  0.3584
 2591SOL    MW410138   6.243   5.595   6.275 -0.2098 -0.1208 -0.1991
 2592SOL     OW10139   1.837   2.566   5.344 -0.3280  0.1457 -0.0642
 2592SOL    HW210140   1.802   2.655   5.348 -0.9030 -0.0523 -0.6811
 2592SOL    HW310141   1.851   2.549   5.251 -2.3137 -1.2001 -0.1907
 2592SOL    MW410142   1.834   2.575   5.332 -0.6658 -0.0580 -0.1623
 2593SOL     OW10143   0.628   5.055   1.911 -0.0805  0.1969  0.7230
 2593SOL    HW210144   0.681   5.121   1.956 -0.2812  1.6550 -1.0616
 2593SOL    HW310145   0.692   5.002   1.863  0.0028 -0.2344  1.3060
 2593SOL    MW410146   0.644   5.057   1.911 -0.0960  0.3324  0.5645
 2594SOL     OW10147   4.435   1.428   3.575 -0.5308  0.1104  0.2836
 2594SOL    HW210148   4.357   1.472   3.543 -0.4932  0.2633  0.3997
 2594SOL    HW310149   4.448   1.355   3.515 -0.7783  0.0685  0.2796
 2594SOL    MW410150   4.427   1.424   3.563 -0.5585  0.1250  0.2984
 2595SOL     OW10151   4.555   3.590   4.374  0.4181  0.1546  0.0148
 2595SOL    HW210152   4.599   3.569   4.292 -0.6371 -2.1487 -0.0265
 2595SOL    HW310153   4.535   3.505   4.414 -0.1102  1.1897  2.1119
 2595SOL    MW410154   4.558   3.576   4.369  0.2092 -0.0127  0.2860
 2596SOL     OW10155   3.717   0.133   0.105  0.1634 -0.3200 -0.5330
 2596SOL    HW210156   3.707   0.086   0.023 -1.2043  4.0694 -3.2077
 2596SOL    HW310157   3.627   0.149   0.134  0.5369  1.0402 -0.0546
 2596SOL    MW410158   3.704   0.129   0.098  0.0322  0.4386 -0.8228
 2597SOL     OW10159   5.364   0.965   4.658 -0.9754 -0.1581 -0.3295
 2597SOL    HW210160   5.380   0.996   4.748 -1.9946 -0.0190 -0.1805
 2597SOL    HW310161   5.350   0.871   4.668 -0.8095 -0.1882 -0.3811
 2597SOL    MW410162   5.364   0.957   4.671 -1.0880 -0.1437 -0.3166
 2598SOL     OW10163   3.301   1.303   3.103 -0.0715  0.0288 -0.3905
 2598SOL    HW210164   3.367   1.274   3.166  1.3501  1.0938 -1.3391
 2598SOL    HW310165   3.289   1.227   3.045  0.0965 -0.2612 -0.0522
 2598SOL    MW410166   3.308   1.289   3.103  0.1382  0.1311 -0.4710
 2599SOL     OW10167   4.262   4.231   5.643  0.1399 -0.1608 -0.0533
 2599SOL    HW210168   4.345   4.265   5.677  0.2012  2.1747 -2.1680
 2599SOL    HW310169   4.288   4.165   5.579  0.2827 -0.5440  0.3967
 2599SOL    MW410170   4.277   4.227   5.639  0.1669  0.0968 -0.2729
 2600SOL     OW10171   5.326   1.409   6.289 -0.2207 -0.1739  0.0351
 2600SOL    HW210172   5.244   1.373   6.253  0.6506 -0.2320 -2.0543
 2600SOL    HW310173   5.358   1.467   6.221  0.4908  1.4381  1.6782
 2600SOL    MW410174   5.319   1.412   6.275 -0.0119  0.0311 -0.0238
 2601SOL     OW10175   6.036   6.243   4.056 -0.1663 -0.3101  0.1865
 2601SOL    HW210176   6.016   6.201   3.973 -1.0090 -0.2216  0.3298
 2601SOL    HW310177   5.958   6.296   4.075  0.1680 -0.0413  0.8484
 2601SOL    MW410178   6.023   6.244   4.048 -0.2334 -0.2630  0.2927
 2602SOL     OW10179   5.592   0.815   1.948  0.1111  0.1202  0.1491
 2602SOL    HW210180   5.498   0.813   1.966  0.0815 -1.8114  0.0665
 2602SOL    HW310181   5.608   0.902   1.912 -1.7465  0.3106 -0.3402
 2602SOL    MW410182   5.582   0.826   1.946 -0.1379 -0.1096  0.0736
 2603SOL     OW10183   3.087   1.912   2.287  0.2641  0.4371 -0.3247
 2603SOL    HW210184   3.173   1.944   2.313  0.4615  1.3643 -1.9539
 2603SOL    HW310185   3.090   1.914   2.191 -0.2805 -2.9988 -0.5303
 2603SOL    MW410186   3.099   1.916   2.278  0.2183  0.1061 -0.5668
 2604SOL     OW10187   0.106   3.643   3.552  0.0183  0.5141 -0.4999
 2604SOL    HW210188   0.085   3.642   3.458 -1.7493  0.9796 -0.1388
 2604SOL    HW310189   0.038   3.589   3.593 -0.4954  2.0380  0.7373
 2604SOL    MW410190   0.094   3.636   3.545 -0.2827  0.7766 -0.2891
 2605SOL     OW10191   5.243   6.125   3.155 -0.0323 -0.0703  0.0712
 2605SOL    HW210192   5.220   6.195   3.094  1.1820  0.1106 -0.2037
 2605SOL    HW310193   5.294   6.168   3.223  0.0057 -0.5497  0.3542
 2605SOL    MW410194   5.247   6.140   3.156  0.1329 -0.1097  0.0723
 2606SOL     OW10195   4.573   3.142   5.136 -0.2905 -0.1855  0.0679
 2606SOL    HW210196   4.587   3.062   5.086 -0.7386 -1.0367  1.2513
 2606SOL    HW310197   4.607   3.212   5.080 -2.0859 -0.9061 -2.0539
 2606SOL    MW410198   4.579   3.141   5.122 -0.5865 -0.3929 -0.0559
 2607SOL     OW10199   0.175   2.910   5.493  0.0953  0.0782 -0.2223
 2607SOL    HW210200   0.228   2.879   5.420  0.3692 -0.3381  0.1504
 2607SOL    HW310201   0.174   3.005   5.484  0.8520  0.0830 -0.2682
 2607SOL    MW410202   0.182   2.918   5.482  0.2313  0.0239 -0.1791
 2608SOL     OW10203   1.338   4.442   4.511  0.2527  0.0367 -0.3328
 2608SOL    HW210204   1.410   4.408   4.563 -0.9812 -0.6698  1.0061
 2608SOL    HW310205   1.348   4.538   4.517  1.3382 -0.0518 -0.5815
 2608SOL    MW410206   1.348   4.450   4.519  0.2331 -0.0682 -0.1890
 2609SOL     OW10207   4.667   3.077   0.910 -0.1010 -0.1574 -0.8614
 2609SOL    HW210208   4.666   3.037   0.997 -0.7090 -1.2249 -1.3367
 2609SOL    HW310209   4.753   3.118   0.904  0.2229 -0.6713 -0.0152
 2609SOL    MW410210   4.679   3.077   0.921 -0.1385 -0.3660 -0.8125
 2610SOL     OW10211   1.439   3.116   6.071  0.1577 -0.0002  0.3402
 2610SOL    HW210212   1.533   3.107   6.086  0.1044 -0.1529  0.5828
 2610SOL    HW310213   1.424   3.211   6.068  0.2469  0.0275  0.7516
 2610SOL    MW410214   1.449   3.128   6.072  0.1625 -0.0167  0.4265
 2611SOL     OW10215   3.109   2.006   4.101 -1.4511  0.7002  0.4071
 2611SOL    HW210216   3.017   1.986   4.120 -1.9215  1.6074 -0.7251
 2611SOL    HW310217   3.109   2.026   4.007  0.0141  0.1757  0.2874
 2611SOL    MW410218   3.097   2.006   4.091 -1.3198  0.7507  0.2419
 2612SOL     OW10219   5.410   6.380   0.128 -0.5700  0.7646  0.3467
 2612SOL    HW210220   5.466   6.350   0.056 -1.0694  1.5670 -0.4041
 2612SOL    HW310221   5.421   6.314   0.196 -0.7565 -0.5034 -0.7988
 2612SOL    MW410222   5.419   6.367   0.127 -0.6605  0.7032  0.0965
 2613SOL     OW10223   4.822   0.496   2.421  0.5811 -0.2276 -0.1111
 2613SOL    HW210224   4.735   0.458   2.429 -0.6331  1.6812 -2.5836
 2613SOL    HW310225   4.831   0.553   2.497 -0.4206 -0.3140  0.0842
 2613SOL    MW410226   4.812   0.499   2.432  0.2887  0.0128 -0.4115
 2614SOL     OW10227   2.641   3.808   2.908 -0.9207 -1.0337 -0.1015
 2614SOL    HW210228   2.609   3.721   2.884 -3.0337 -0.1644 -0.7022
 2614SOL    HW310229   2.732   3.794   2.933 -0.3675 -2.9858 -2.7445
 2614SOL    MW410230   2.649   3.794   2.908 -1.1265 -1.1766 -0.5294
 2615SOL     OW10231   3.347   4.757   2.088 -0.1892 -0.0072  0.3088
 2615SOL    HW210232   3.408   4.806   2.143  0.7419  0.8326 -1.3896
 2615SOL    HW310233   3.396   4.739   2.008 -0.3002 -4.1542  0.9281
 2615SOL    MW410234   3.361   4.761   2.085 -0.0810 -0.4435  0.1664
 2616SOL     OW10235   0.857   3.104   3.106 -0.1235  0.1629  0.3923
 2616SOL    HW210236   0.788   3.047   3.073 -0.6006 -0.0334  1.6753
 2616SOL    HW310237   0.812   3.186   3.129 -0.2509 -0.4568  2.5981
 2616SOL    MW410238   0.842   3.107   3.105 -0.2033  0.0552  0.8526
 2617SOL     OW10239   3.194   6.175   5.128  0.3666  0.1301  0.0524
 2617SOL    HW210240   3.185   6.136   5.040 -1.3197  1.1343 -0.2666
 2617SOL    HW310241   3.110   6.218   5.144  0.4067 -0.5235  2.4293
 2617SOL    MW410242   3.182   6.175   5.118  0.1494  0.1763  0.3239
 2618SOL     OW10243   1.817   2.371   3.281 -0.2328  0.8743 -0.3832
 2618SOL    HW210244   1.896   2.355   3.229  1.7802 -1.4082  3.0331
 2618SOL    HW310245   1.758   2.299   3.258  0.9640 -0.5817  0.8918
 2618SOL    MW410246   1.819   2.360   3.271  0.1907  0.3811  0.2358
 2619SOL     OW10247   3.223   1.907   4.532 -0.1532  0.2404  0.2205
 2619SOL    HW210248   3.152   1.949   4.484 -0.9648 -0.9851  0.3143
 2619SOL    HW310249   3.220   1.945   4.620 -1.1950 -0.3399  0.4490
 2619SOL    MW410250   3.213   1.917   4.537 -0.3977  0.0022  0.2630
 2620SOL     OW10251   0.637   4.050   4.570 -0.3071  0.3067  0.3393
 2620SOL    HW210252   0.719   4.029   4.613  0.4050  1.9682 -0.1292
 2620SOL    HW310253   0.610   4.134   4.607 -2.1698 -0.5070  0.9731
 2620SOL    MW410254   0.644   4.058   4.580 -0.4589  0.4186  0.3611
 2621SOL     OW10255   4.776   3.719   4.862  0.0055 -0.0642 -0.4067
 2621SOL    HW210256   4.824   3.640   4.890  0.0653 -0.1985 -0.8734
 2621SOL    HW310257   4.766   3.708   4.768 -0.0542  0.4556 -0.4622
 2621SOL    MW410258   4.781   3.707   4.853  0.0055 -0.0133 -0.4756
 2622SOL     OW10259   3.321   0.283   4.812 -0.3091  0.1295 -0.3187
 2622SOL    HW210260   3.357   0.339   4.744 -1.1063  0.3502 -0.5728
 2622SOL    HW310261   3.280   0.210   4.764  0.1825 -0.3497 -0.0198
 2622SOL    MW410262   3.320   0.281   4.797 -0.3495  0.0954 -0.3128
 2623SOL     OW10263   4.881   4.380   0.547  0.4045 -0.8240 -0.3724
 2623SOL    HW210264   4.857   4.313   0.484 -0.4699 -1.1539  0.2921
 2623SOL    HW310265   4.895   4.332   0.629 -1.8698 -0.0701  0.5399
 2623SOL    MW410266   4.880   4.365   0.550 -0.0109 -0.7680 -0.1644
 2624SOL     OW10267   1.140   0.549   3.699  0.4764 -0.2998  0.4307
 2624SOL    HW210268   1.160   0.635   3.735 -0.4217  0.3883 -0.6323
 2624SOL    HW310269   1.178   0.550   3.611 -0.7998 -0.4038 -0.1492
 2624SOL    MW410270   1.147   0.561   3.692  0.1896 -0.2227  0.2139
 2625SOL     OW10271   1.120   0.111   2.416 -0.3371  1.3007 -0.4843
 2625SOL    HW210272   1.139   0.138   2.326 -0.4444  2.3229 -0.2166
 2625SOL    HW310273   1.198   0.065   2.444  0.2455  2.1439 -0.6699
 2625SOL    MW410274   1.133   0.109   2.408 -0.2744  1.5468 -0.4734
 2626SOL     OW10275   0.097   1.984   5.885  0.0632 -0.2230 -0.2619
 2626SOL    HW210276   0.082   1.917   5.818 -1.1710 -0.8123  0.5541
 2626SOL    HW310277   0.176   2.030   5.857 -0.4632 -0.4007 -2.1484
 2626SOL    MW410278   0.105   1.981   5.873 -0.1691 -0.3242 -0.4031
 2627SOL     OW10279   2.473   1.267   4.010  0.0363 -0.4541  0.1232
 2627SOL    HW210280   2.390   1.286   4.052  0.1615  1.6682 -0.4887
 2627SOL    HW310281   2.537   1.320   4.058  0.7938 -0.8727 -0.3931
 2627SOL    MW410282   2.471   1.276   4.022  0.1527 -0.2293 -0.0257
 2628SOL     OW10283   0.749   3.022   1.854 -0.4232 -0.1099 -0.4372
 2628SOL    HW210284   0.802   3.039   1.776 -0.7001 -0.0145 -0.6065
 2628SOL    HW310285   0.664   2.995   1.820  0.1772 -2.4851 -0.1885
 2628SOL    MW410286   0.744   3.021   1.839 -0.3805 -0.4107 -0.4268
 2629SOL     OW10287   2.821   6.200   0.354 -0.1196  0.6143  0.2866
 2629SOL    HW210288   2.751   6.152   0.397 -0.1071 -1.9823 -2.2787
 2629SOL    HW310289   2.778   6.245   0.281  0.5921  0.4161 -0.2711
 2629SOL    MW410290   2.806   6.200   0.350 -0.0241  0.2456 -0.1254
 2630SOL     OW10291   5.688   3.441   1.665 -0.0077  0.0990  0.4780
 2630SOL    HW210292   5.615   3.415   1.720 -2.0085  2.7946 -0.7065
 2630SOL    HW310293   5.747   3.488   1.724 -0.5946  0.2757  0.9291
 2630SOL    MW410294   5.686   3.444   1.680 -0.3491  0.4780  0.3813
 2631SOL     OW10295   2.515   5.383   3.757 -0.2337  0.0515 -0.0715
 2631SOL    HW210296   2.567   5.458   3.786 -0.2103 -0.6903  1.9738
 2631SOL    HW310297   2.451   5.420   3.695 -0.1457  1.7380  0.7880
 2631SOL    MW410298   2.513   5.398   3.752 -0.2190  0.1761  0.3118
 2632SOL     OW10299   6.301   3.035   0.488  0.4549 -0.0032  0.7850
 2632SOL    HW210300   6.213   3.028   0.453  1.2061  0.1856 -1.2938
 2632SOL    HW310301   6.290   3.072   0.576 -1.4537  1.0538  0.1439
 2632SOL    MW410302   6.288   3.039   0.495  0.3022  0.1612  0.4261
 2633SOL     OW10303   0.555   2.340   3.627  0.9431  0.2755 -0.4478
 2633SOL    HW210304   0.504   2.275   3.676  1.6033 -0.8794 -1.2365
 2633SOL    HW310305   0.570   2.299   3.542  2.8199  0.7451 -0.3797
 2633SOL    MW410306   0.550   2.326   3.622  1.2778  0.1851 -0.5429
 2634SOL     OW10307   2.964   1.197   2.633  0.3845 -0.1990 -0.0920
 2634SOL    HW210308   2.868   1.201   2.641  0.4947  1.3675  0.9447
 2634SOL    HW310309   2.992   1.147   2.709  0.4456  0.2912  0.2112
 2634SOL    MW410310   2.955   1.191   2.644  0.4071  0.0724  0.0848
 2635SOL     OW10311   6.264   1.338   4.056  0.1899  0.4681 -0.3376
 2635SOL    HW210312   6.348   1.361   4.018  1.4370 -0.0288  1.9258
 2635SOL    HW310313   6.261   1.242   4.053 -0.0376  0.4579  0.1101
 2635SOL    MW410314   6.275   1.328   4.051  0.3244  0.4012  0.0201
 2636SOL     OW10315   4.748   1.489   6.012 -0.4896 -0.3954 -0.2970
 2636SOL    HW210316   4.696   1.420   5.972  0.6546 -0.7191 -1.2742
 2636SOL    HW310317   4.762   1.553   5.943  0.1088 -0.1470  0.0387
 2636SOL    MW410318   4.743   1.488   5.998 -0.2597 -0.4053 -0.3816
 2637SOL     OW10319   5.696   0.457   0.578  0.2331 -0.1908  0.3876
 2637SOL    HW210320   5.782   0.458   0.537  0.3113  0.9897  0.5399
 2637SOL    HW310321   5.713   0.468   0.671 -0.0775 -0.0397  0.4281
 2637SOL    MW410322   5.709   0.458   0.585  0.2024 -0.0151  0.4130
 2638SOL     OW10323   0.996   0.579   5.616 -0.4260 -0.4952  0.2077
 2638SOL    HW210324   0.998   0.529   5.535  1.0312 -2.1788  1.2132
 2638SOL    HW310325   1.035   0.663   5.594  5.1019 -2.6732  0.1220
 2638SOL    MW410326   1.001   0.583   5.603  0.4956 -1.0047  0.3290
 2639SOL     OW10327   5.417   2.418   1.243  0.2687 -0.2339  0.6236
 2639SOL    HW210328   5.362   2.360   1.189  2.6713  0.4459 -2.9169
 2639SOL    HW310329   5.463   2.358   1.302 -0.3246 -1.4205 -0.0699
 2639SOL    MW410330   5.416   2.402   1.243  0.5074 -0.3007  0.0649
 2640SOL     OW10331   4.865   2.592   3.436  0.1533 -0.2777  0.3712
 2640SOL    HW210332   4.855   2.514   3.381 -0.5894 -0.8191  1.2552
 2640SOL    HW310333   4.910   2.560   3.515 -0.7112  0.0501  1.0099
 2640SOL    MW410334   4.870   2.578   3.439 -0.0587 -0.3059  0.5721
 2641SOL     OW10335   2.641   4.643   6.076 -0.3036 -0.1716  0.1889
 2641SOL    HW210336   2.668   4.641   6.168  2.4762 -0.8199 -0.5551
 2641SOL    HW310337   2.662   4.731   6.046  0.3505 -0.4688 -0.2362
 2641SOL    MW410338   2.647   4.654   6.085  0.1495 -0.2963  0.0346
 2642SOL     OW10339   3.534   1.211   4.213 -0.0639 -0.2534 -0.5892
 2642SOL    HW210340   3.487   1.266   4.150 -0.7121  0.3838  0.4294
 2642SOL    HW310341   3.466   1.156   4.252 -0.5792  2.4623  2.7968
 2642SOL    MW410342   3.519   1.211   4.210 -0.2174  0.1890 -0.0081
 2643SOL     OW10343   2.910   2.633   1.169  0.2144 -0.2990  0.2746
 2643SOL    HW210344   2.981   2.624   1.232 -0.1051 -1.6027  0.4818
 2643SOL    HW310345   2.924   2.562   1.107  0.0549  0.4741 -0.6623
 2643SOL    MW410346   2.921   2.622   1.169  0.1512 -0.3690  0.1783
 2644SOL     OW10347   3.588   3.397   0.131 -0.3638 -0.2642  0.0295
 2644SOL    HW210348   3.539   3.402   0.213 -0.2692  0.5583  0.0436
 2644SOL    HW310349   3.672   3.358   0.156 -0.3351 -0.0211  0.3263
 2644SOL    MW410350   3.593   3.393   0.145 -0.3475 -0.1236  0.0705
 2645SOL     OW10351   5.443   3.070   5.453 -0.5495  0.5260 -0.2249
 2645SOL    HW210352   5.531   3.045   5.424 -1.2537  0.7062 -2.7207
 2645SOL    HW310353   5.452   3.162   5.479  0.2370  0.1912  0.7414
 2645SOL    MW410354   5.456   3.079   5.453 -0.5387  0.5056 -0.4267
 2646SOL     OW10355   0.461   0.982   4.049 -0.3292 -0.6623  0.1110
 2646SOL    HW210356   0.497   0.940   3.971 -1.1758 -0.6608 -0.2910
 2646SOL    HW310357   0.398   1.047   4.015 -0.3978 -0.3679  0.7783
 2646SOL    MW410358   0.457   0.985   4.034 -0.4499 -0.6233  0.1460
 2647SOL     OW10359   4.165   2.906   1.346  0.3810  0.0411 -0.0699
 2647SOL    HW210360   4.218   2.980   1.318  0.0857  0.5741  0.7079
 2647SOL    HW310361   4.101   2.894   1.276  0.1004  0.8797  0.0247
 2647SOL    MW410362   4.163   2.914   1.333  0.3050  0.2221  0.0452
 2648SOL     OW10363   2.557   1.031   5.471  0.2556 -0.4421  0.2398
 2648SOL    HW210364   2.629   0.993   5.522  1.3290 -0.5597 -1.2757
 2648SOL    HW310365   2.568   0.993   5.384  0.0750  1.7114 -0.7763
 2648SOL    MW410366   2.568   1.021   5.466  0.3734 -0.1735 -0.0942
 2649SOL     OW10367   5.302   4.777   1.505 -0.6780 -0.0525  0.0110
 2649SOL    HW210368   5.354   4.712   1.460 -0.5013  1.1587 -1.6194
 2649SOL    HW310369   5.232   4.799   1.444 -0.1199  2.0243  0.0397
 2649SOL    MW410370   5.299   4.772   1.491 -0.5810  0.3813 -0.2003
 2650SOL     OW10371   0.251   2.022   0.204  0.0875  0.2817 -0.3169
 2650SOL    HW210372   0.196   2.009   0.281  0.3439 -0.2004 -0.2065
 2650SOL    HW310373   0.234   1.945   0.149 -0.7583  1.0502 -1.1635
 2650SOL    MW410374   0.242   2.010   0.207  0.0098  0.3195 -0.4141
 2651SOL     OW10375   5.841   3.942   0.062  0.1421  0.3603  0.5818
 2651SOL    HW210376   5.810   4.003   0.129 -1.0285  0.1845  0.2368
 2651SOL    HW310377   5.765   3.886   0.044  1.0238 -0.8574  0.5105
 2651SOL    MW410378   5.827   3.943   0.068  0.1040  0.1764  0.5269
 2652SOL     OW10379   2.210   5.111   4.490  0.1522  0.0711 -0.3597
 2652SOL    HW210380   2.278   5.178   4.482  0.8385 -0.6199 -0.3389
 2652SOL    HW310381   2.234   5.044   4.426 -0.5991 -0.1098 -0.4664
 2652SOL    MW410382   2.222   5.111   4.480  0.1436 -0.0439 -0.3711
 2653SOL     OW10383   0.929   4.716   5.522 -0.0759 -0.2345 -0.4645
 2653SOL    HW210384   0.898   4.783   5.584 -0.4991 -1.7535  1.0370
 2653SOL    HW310385   0.890   4.741   5.438 -0.2014  1.4033  0.0324
 2653SOL    MW410386   0.920   4.728   5.519 -0.1483 -0.2188 -0.2008
 2654SOL     OW10387   2.386   4.443   3.477 -0.2651 -0.3466  0.1006
 2654SOL    HW210388   2.396   4.348   3.468 -1.0148 -0.2156 -4.1106
 2654SOL    HW310389   2.476   4.477   3.476 -0.0309 -0.9392  0.4014
 2654SOL    MW410390   2.399   4.435   3.475 -0.3331 -0.4075 -0.4153
 2655SOL     OW10391   4.019   3.631   5.977  0.6445 -0.5663 -0.7329
 2655SOL    HW210392   3.944   3.677   5.942 -0.1793 -2.3607 -1.4234
 2655SOL    HW310393   4.094   3.687   5.956 -0.3799  0.8292 -0.7795
 2655SOL    MW410394   4.019   3.645   5.970  0.4007 -0.6189 -0.8302
 2656SOL     OW10395   4.246   6.275   3.160  0.2454 -0.0609  0.1153
 2656SOL    HW210396   4.187   6.349   3.174  0.1076 -0.0861 -0.3310
 2656SOL    HW310397   4.236   6.253   3.068  0.9608 -0.0590  0.0283
 2656SOL    MW410398   4.237   6.282   3.150  0.3216 -0.0640  0.0450
 2657SOL     OW10399   0.884   1.006   5.906 -0.4208 -0.4284 -0.5684
 2657SOL    HW210400   0.944   1.075   5.934 -1.1230 -0.4775  1.2003
 2657SOL    HW310401   0.847   0.971   5.988 -2.7277 -0.5058 -1.5540
 2657SOL    MW410402   0.887   1.010   5.921 -0.8178 -0.4451 -0.4650
 2658SOL     OW10403   3.077   4.253   0.780 -0.2689  0.1705 -0.5509
 2658SOL    HW210404   3.073   4.175   0.726 -3.5854 -0.8089  0.8323
 2658SOL    HW310405   3.052   4.223   0.867  0.1607  2.4903  0.4521
 2658SOL    MW410406   3.073   4.239   0.784 -0.6498  0.3474 -0.2360
 2659SOL     OW10407   2.681   3.096   4.785 -0.5793  0.2821 -0.5654
 2659SOL    HW210408   2.729   3.014   4.786 -1.0524 -0.0474  2.1231
 2659SOL    HW310409   2.592   3.072   4.812 -0.7199  1.6717  0.2868
 2659SOL    MW410410   2.675   3.082   4.788 -0.6602  0.4219 -0.0982
 2660SOL     OW10411   2.385   0.927   3.451  0.4011  0.5141  0.0096
 2660SOL    HW210412   2.458   0.875   3.419 -1.0227 -1.1136 -0.7788
 2660SOL    HW310413   2.380   1.002   3.391 -0.7617 -1.2581 -2.2574
 2660SOL    MW410414   2.394   0.930   3.439  0.0598  0.0655 -0.3935
 2661SOL     OW10415   2.529   2.049   5.171 -0.2194 -0.5512  0.1072
 2661SOL    HW210416   2.578   2.063   5.090 -1.6396  0.9714 -0.5471
 2661SOL    HW310417   2.453   2.107   5.164  0.2505  0.5869  3.0906
 2661SOL    MW410418   2.525   2.058   5.159 -0.3448 -0.2001  0.4145
 2662SOL     OW10419   0.323   2.713   1.379  0.0319  0.1246 -0.2870
 2662SOL    HW210420   0.351   2.697   1.289  0.4072  0.8759 -0.3069
 2662SOL    HW310421   0.285   2.629   1.407 -0.5625  0.0316 -1.3119
 2662SOL    MW410422   0.321   2.700   1.371  0.0030  0.2114 -0.4249
 2663SOL     OW10423   5.771   0.901   0.863 -0.1756  0.1325 -0.4808
 2663SOL    HW210424   5.706   0.844   0.822 -0.8917  1.7183 -1.6782
 2663SOL    HW310425   5.721   0.979   0.888  1.2372  1.4705 -1.5867
 2663SOL    MW410426   5.756   0.904   0.861 -0.0837  0.5183 -0.7847
 2664SOL     OW10427   1.607   0.755   4.891  0.1175  0.7284 -0.3193
 2664SOL    HW210428   1.626   0.662   4.903 -1.2514  0.4033 -0.4728
 2664SOL    HW310429   1.691   0.799   4.904  1.2230 -0.6816 -2.2920
 2664SOL    MW410430   1.621   0.748   4.895  0.0827  0.4994 -0.5998
 2665SOL     OW10431   1.373   3.717   5.834 -0.0862  0.5804  0.6037
 2665SOL    HW210432   1.297   3.757   5.791  0.0690 -1.3266 -1.5988
 2665SOL    HW310433   1.343   3.702   5.924 -1.9398  0.8324  0.0760
 2665SOL    MW410434   1.359   3.721   5.840 -0.3103  0.3621  0.2435
 2666SOL     OW10435   1.292   1.335   0.167 -0.5555  0.7269  0.5761
 2666SOL    HW210436   1.311   1.246   0.196 -2.6476  0.3314  0.8668
 2666SOL    HW310437   1.377   1.380   0.170  0.2812 -0.8496  1.7876
 2666SOL    MW410438   1.306   1.329   0.171 -0.7211  0.4667  0.7743
 2667SOL     OW10439   1.951   1.948   0.703 -0.2411  0.2491  0.3196
 2667SOL    HW210440   1.930   2.029   0.656 -0.7949  0.0498  0.2208
 2667SOL    HW310441   1.965   1.976   0.793 -0.7592  0.4115  0.3513
 2667SOL    MW410442   1.950   1.962   0.708 -0.3825  0.2442  0.3108
 2668SOL     OW10443   1.909   2.646   2.079  0.4615 -0.0150 -0.4331
 2668SOL    HW210444   1.824   2.607   2.058  1.0152 -1.0461 -0.8406
 2668SOL    HW310445   1.934   2.607   2.163  0.6530  0.0809 -0.4438
 2668SOL    MW410446   1.901   2.636   2.087  0.5598 -0.1384 -0.4883
 2669SOL     OW10447   1.676   5.400   3.997 -0.0568  0.3300 -0.2199
 2669SOL    HW210448   1.600   5.342   3.989 -0.6173  1.0173 -0.0138
 2669SOL    HW310449   1.682   5.444   3.912  0.5433 -0.2369 -0.4754
 2669SOL    MW410450   1.667   5.398   3.985 -0.0516  0.3459 -0.2264
 2670SOL     OW10451   0.967   6.202   1.402 -0.6237  0.3264  0.5940
 2670SOL    HW210452   0.978   6.120   1.353  0.4753  2.9325 -4.1266
 2670SOL    HW310453   1.053   6.218   1.440  0.1259  0.6691 -1.1260
 2670SOL    MW410454   0.980   6.193   1.400 -0.3798  0.7154 -0.2558
 2671SOL     OW10455   6.406   2.261   0.219 -0.3288  0.0685 -0.2330
 2671SOL    HW210456   6.460   2.246   0.141 -0.5582 -1.6108 -0.1153
 2671SOL    HW310457   6.427   2.188   0.277 -0.4284  1.0931  1.1528
 2671SOL    MW410458   6.416   2.249   0.216 -0.3722 -0.0179 -0.0346
 2672SOL     OW10459   3.263   1.751   1.653 -0.1617 -0.6340  0.3207
 2672SOL    HW210460   3.224   1.667   1.630  0.8919 -1.2000  0.5458
 2672SOL    HW310461   3.263   1.753   1.748  1.2146 -1.0848  0.3561
 2672SOL    MW410462   3.258   1.740   1.662  0.1589 -0.7682  0.3551
 2673SOL     OW10463   1.467   1.265   6.245 -0.0685  0.2731  0.2688
 2673SOL    HW210464   1.440   1.177   6.218  0.0015  0.3832 -0.1665
 2673SOL    HW310465   1.538   1.250   6.308  1.6597  0.0261 -1.6175
 2673SOL    MW410466   1.473   1.251   6.250  0.1688  0.2550 -0.0375
 2674SOL     OW10467   5.529   3.047   6.423  0.7217  1.0846  0.2194
 2674SOL    HW210468   5.494   2.979   6.481  0.8104  0.3718 -0.5389
 2674SOL    HW310469   5.601   3.004   6.378  0.6890  1.6441 -0.3755
 2674SOL    MW410470   5.534   3.032   6.425  0.7291  1.0643  0.0408
 2675SOL     OW10471   2.693   2.130   3.544 -0.1532  0.7480 -0.6536
 2675SOL    HW210472   2.610   2.146   3.590  0.0188  0.0736 -0.0937
 2675SOL    HW310473   2.678   2.049   3.495  0.6067 -0.1682  0.5647
 2675SOL    MW410474   2.680   2.121   3.543 -0.0302  0.5382 -0.4190
 2676SOL     OW10475   3.744   0.645   3.272  0.6189  0.3161 -0.3501
 2676SOL    HW210476   3.829   0.603   3.259 -1.0003 -3.1388 -1.0194
 2676SOL    HW310477   3.707   0.651   3.183 -0.9745 -1.1026  0.1559
 2676SOL    MW410478   3.750   0.640   3.258  0.1951 -0.3269 -0.3716
 2677SOL     OW10479   4.453   5.869   5.512 -0.6972  0.0716 -0.2959
 2677SOL    HW210480   4.432   5.963   5.516 -0.8362  0.0946 -1.3449
 2677SOL    HW310481   4.535   5.865   5.463 -1.1089 -0.4029 -0.9685
 2677SOL    MW410482   4.461   5.881   5.506 -0.7698  0.0120 -0.5230
 2678SOL     OW10483   4.899   3.076   1.761 -0.4673 -0.0445 -0.1915
 2678SOL    HW210484   4.818   3.089   1.810 -0.6806 -1.1652 -0.2358
 2678SOL    HW310485   4.917   3.161   1.721 -0.7875  0.6402  1.0663
 2678SOL    MW410486   4.891   3.089   1.762 -0.5377 -0.1020 -0.0314
 2679SOL     OW10487   3.618   1.485   4.264  0.3789  0.3199  0.0184
 2679SOL    HW210488   3.609   1.391   4.246  1.1084 -0.0830  1.6091
 2679SOL    HW310489   3.556   1.502   4.335 -0.5755  1.3152 -1.0056
 2679SOL    MW410490   3.609   1.474   4.271  0.3492  0.3981  0.0932
 2680SOL     OW10491   5.043   3.527   0.270  0.1002  0.1809 -0.4184
 2680SOL    HW210492   5.057   3.433   0.262  2.9390  0.4756  0.1410
 2680SOL    HW310493   5.078   3.564   0.189 -0.3256  0.8431 -0.3141
 2680SOL    MW410494   5.049   3.519   0.258  0.4186  0.3071 -0.3308
 2681SOL     OW10495   1.698   2.418   5.531 -0.3950 -0.0478 -0.0411
 2681SOL    HW210496   1.742   2.464   5.459 -0.4772 -0.0121 -0.0689
 2681SOL    HW310497   1.621   2.379   5.491 -0.0408 -0.6588 -0.1252
 2681SOL    MW410498   1.694   2.419   5.516 -0.3592 -0.1237 -0.0559
 2682SOL     OW10499   2.425   4.480   2.054 -0.0930  0.4907 -0.4504
 2682SOL    HW210500   2.371   4.421   2.108  0.8148 -0.9847 -1.1018
 2682SOL    HW310501   2.505   4.431   2.038  1.0546  2.2516 -0.3519
 2682SOL    MW410502   2.428   4.465   2.059  0.1782  0.5284 -0.5234
 2683SOL     OW10503   0.614   5.310   4.009 -0.2059 -0.1914 -0.3522
 2683SOL    HW210504   0.568   5.286   3.929  2.1249 -0.7790 -1.6072
 2683SOL    HW310505   0.610   5.405   4.012 -2.6351 -0.2544  0.3569
 2683SOL    MW410506   0.608   5.319   3.999 -0.2189 -0.2773 -0.4242
 2684SOL     OW10507   0.042   3.290   4.953  0.6149 -0.1529 -0.5232
 2684SOL    HW210508  -0.054   3.297   4.959  0.4685  2.0097 -3.2181
 2684SOL    HW310509   0.061   3.301   4.860  3.5633  0.7657  0.0827
 2684SOL    MW410510   0.032   3.292   4.942  0.9846  0.2536 -0.7988
 2685SOL     OW10511   0.629   2.652   2.584 -0.2282  0.5836 -0.1851
 2685SOL    HW210512   0.589   2.737   2.603 -0.8533  0.6333 -1.5901
 2685SOL    HW310513   0.722   2.664   2.605 -0.5799  1.1151  1.1229
 2685SOL    MW410514   0.636   2.665   2.589 -0.3571  0.6603 -0.1979
 2686SOL     OW10515   1.040   4.190   3.986  0.2911 -0.1109 -1.0097
 2686SOL    HW210516   1.064   4.281   4.006  1.8451 -0.5837 -0.5967
 2686SOL    HW310517   1.120   4.140   4.001 -0.3347 -1.4580 -1.9815
 2686SOL    MW410518   1.054   4.196   3.991  0.4136 -0.3510 -1.0834
 2687SOL     OW10519   0.668   5.583   0.823 -0.3743 -0.2476  0.2730
 2687SOL    HW210520   0.710   5.660   0.782 -0.2022 -0.1749  0.5809
 2687SOL    HW310521   0.721   5.567   0.901 -0.6763 -0.4132  0.4426
 2687SOL    MW410522   0.681   5.591   0.828 -0.3914 -0.2599  0.3360
 2688SOL     OW10523   4.422   2.798   1.122  0.3956  0.0096 -0.2953
 2688SOL    HW210524   4.353   2.734   1.142  0.9886  0.0482  2.2000
 2688SOL    HW310525   4.466   2.763   1.044 -0.9657 -1.2074 -0.5596
 2688SOL    MW410526   4.419   2.785   1.114  0.2943 -0.1459 -0.0009
 2689SOL     OW10527   3.874   0.410   3.551 -0.7215 -0.0148  0.1742
 2689SOL    HW210528   3.797   0.402   3.494 -1.4003  0.6372  0.9739
 2689SOL    HW310529   3.924   0.330   3.534 -1.1149 -0.0411 -1.0098
 2689SOL    MW410530   3.870   0.398   3.541 -0.8630  0.0678  0.1235
 2690SOL     OW10531   1.348   5.046   2.248  0.2100  0.1825  0.1047
 2690SOL    HW210532   1.302   5.048   2.332 -1.0394 -0.3528 -0.5387
 2690SOL    HW310533   1.314   4.969   2.203  2.3708 -0.7066 -0.0918
 2690SOL    MW410534   1.337   5.036   2.253  0.3302 -0.0054 -0.0061
 2691SOL     OW10535   0.564   5.152   0.600  0.6331 -0.0390  0.2239
 2691SOL    HW210536   0.525   5.104   0.673 -0.1349 -1.2422 -0.9114
 2691SOL    HW310537   0.523   5.238   0.604 -1.4038 -0.9166 -0.2713
 2691SOL    MW410538   0.553   5.157   0.610  0.2630 -0.3135  0.0087
 2692SOL     OW10539   4.054   5.862   5.354 -0.5667 -0.5766 -0.3377
 2692SOL    HW210540   4.095   5.846   5.269  1.0497  0.1076  0.2680
 2692SOL    HW310541   4.042   5.957   5.357  0.5373 -0.4392  0.6643
 2692SOL    MW410542   4.058   5.873   5.343 -0.2078 -0.4682 -0.1256
 2693SOL     OW10543   2.329   6.273   1.073  0.5707 -0.1615 -0.3414
 2693SOL    HW210544   2.396   6.301   1.135  1.8052 -0.1802 -1.6005
 2693SOL    HW310545   2.303   6.353   1.027  1.6027 -0.4956 -1.5773
 2693SOL    MW410546   2.334   6.287   1.075  0.8698 -0.2080 -0.6706
 2694SOL     OW10547   1.782   6.423   1.395  0.2953 -0.4774  0.0699
 2694SOL    HW210548   1.772   6.426   1.300 -0.0357 -0.3885  0.1070
 2694SOL    HW310549   1.725   6.492   1.428  0.4132 -0.5041  0.3326
 2694SOL    MW410550   1.773   6.432   1.387  0.2672 -0.4692  0.1094
 2695SOL     OW10551   0.803   2.787   5.088 -0.3527 -0.2103  0.2029
 2695SOL    HW210552   0.854   2.784   5.007  0.5943 -0.0738  0.7889
 2695SOL    HW310553   0.754   2.869   5.082 -0.3071 -0.2123 -0.2424
 2695SOL    MW410554   0.803   2.797   5.076 -0.2217 -0.1925  0.2215
 2696SOL     OW10555   6.177   4.002   5.766  0.1772 -0.2606 -0.0406
 2696SOL    HW210556   6.230   4.037   5.694  0.0414  1.5756  0.7012
 2696SOL    HW310557   6.145   3.918   5.733  2.0578 -0.5841 -1.1881
 2696SOL    MW410558   6.180   3.995   5.752  0.4074 -0.0610 -0.0941
 2697SOL     OW10559   4.912   3.160   2.206  0.0037 -0.6905  0.2275
 2697SOL    HW210560   4.817   3.172   2.197 -0.1836 -1.5676  0.9152
 2697SOL    HW310561   4.936   3.100   2.135  0.1061 -0.2412 -0.1273
 2697SOL    MW410562   4.903   3.154   2.195 -0.0075 -0.7470  0.2714
 2698SOL     OW10563   5.756   0.628   5.705 -0.0513  0.0201 -0.0319
 2698SOL    HW210564   5.675   0.578   5.715 -1.5523  2.1967 -0.5513
 2698SOL    HW310565   5.748   0.668   5.618  1.9579 -0.3058 -0.4025
 2698SOL    MW410566   5.744   0.626   5.695  0.0157  0.2643 -0.1494
 2699SOL     OW10567   2.320   3.406   2.109  0.3718  0.6048 -0.2765
 2699SOL    HW210568   2.317   3.339   2.177 -1.2852  1.2437  0.3398
 2699SOL    HW310569   2.256   3.378   2.044  0.4903  1.0124 -0.5739
 2699SOL    MW410570   2.311   3.394   2.109  0.1688  0.7429 -0.2344
 2700SOL     OW10571   0.833   5.769   1.764 -0.1935  0.3757 -0.0839
 2700SOL    HW210572   0.795   5.682   1.750 -2.2136  1.2749 -0.4716
 2700SOL    HW310573   0.826   5.782   1.859  2.1728 -0.7179  0.3247
 2700SOL    MW410574   0.827   5.759   1.775 -0.1478  0.3501 -0.0812
 2701SOL     OW10575   0.704   0.749   0.238 -0.1352 -0.0469 -0.8565
 2701SOL    HW210576   0.719   0.796   0.320 -1.6771 -2.8683  1.1985
 2701SOL    HW310577   0.632   0.797   0.197 -1.3266 -0.2119  0.9110
 2701SOL    MW410578   0.697   0.762   0.244 -0.4958 -0.4409 -0.3522
 2702SOL     OW10579   5.383   0.340   3.776 -0.4369  0.3704 -0.1450
 2702SOL    HW210580   5.302   0.322   3.729 -0.0878 -0.9232 -0.2881
 2702SOL    HW310581   5.450   0.347   3.708 -0.3441  0.9835  0.0021
 2702SOL    MW410582   5.381   0.338   3.761 -0.3786  0.2806 -0.1445
 2703SOL     OW10583   2.319   2.901   4.655 -0.7989  0.7450  0.0334
 2703SOL    HW210584   2.362   2.965   4.599  0.0331  1.3146  1.2782
 2703SOL    HW310585   2.377   2.825   4.653 -0.9654  0.6220 -0.1717
 2703SOL    MW410586   2.332   2.899   4.647 -0.7111  0.8039  0.1706
 2704SOL     OW10587   1.567   0.936   2.577 -0.0837  0.5535 -0.3400
 2704SOL    HW210588   1.479   0.913   2.551 -0.0571  0.7464 -0.6066
 2704SOL    HW310589   1.604   0.982   2.501  0.9367 -1.2575 -1.0043
 2704SOL    MW410590   1.560   0.939   2.563  0.0545  0.3400 -0.4628
 2705SOL     OW10591   4.732   1.516   1.523  0.0495 -0.1055 -0.2734
 2705SOL    HW210592   4.806   1.467   1.561 -0.9772 -0.5369  1.2701
 2705SOL    HW310593   4.671   1.526   1.596 -0.4379  2.2398 -0.9330
 2705SOL    MW410594   4.734   1.511   1.538 -0.1503  0.1470 -0.1568
 2706SOL     OW10595   1.455   2.289   2.373  0.3497 -0.1174  0.4180
 2706SOL    HW210596   1.524   2.259   2.314  0.7313 -0.8456  1.2104
 2706SOL    HW310597   1.415   2.363   2.328  1.8482  0.5242  0.0831
 2706SOL    MW410598   1.459   2.294   2.359  0.5978 -0.1288  0.4784
 2707SOL     OW10599   1.203   4.318   0.198 -0.0469  0.1427 -0.0524
 2707SOL    HW210600   1.252   4.297   0.277  1.6420  4.0839  0.1467
 2707SOL    HW310601   1.111   4.313   0.225  0.4671  0.6235  1.9405
 2707SOL    MW410602   1.197   4.315   0.212  0.2438  0.7262  0.2368
 2708SOL     OW10603   3.887   4.545   3.489  0.3423 -0.7939 -0.5441
 2708SOL    HW210604   3.872   4.477   3.554  0.4419  0.7958  1.1993
 2708SOL    HW310605   3.964   4.514   3.440  1.8330 -0.8877  1.7301
 2708SOL    MW410606   3.896   4.532   3.491  0.5521 -0.5965 -0.0140
 2709SOL     OW10607   6.046   5.808   2.636 -0.4939  0.0287 -0.1033
 2709SOL    HW210608   6.126   5.779   2.681  0.0844  2.0212  0.2715
 2709SOL    HW310609   5.989   5.731   2.635  1.1821 -1.2785  0.1692
 2709SOL    MW410610   6.049   5.794   2.641 -0.1965  0.1191 -0.0179
 2710SOL     OW10611   2.189   2.259   5.614  0.4169  0.4775  0.0014
 2710SOL    HW210612   2.205   2.247   5.707  0.9415 -0.4094 -0.1871
 2710SOL    HW310613   2.223   2.179   5.573  0.3689  0.9309 -0.9643
 2710SOL    MW410614   2.196   2.247   5.621  0.4798  0.4203 -0.1509
 2711SOL     OW10615   5.479   3.307   4.585 -0.0230 -0.3897  0.0685
 2711SOL    HW210616   5.563   3.303   4.631 -0.3033 -1.8187  0.5157
 2711SOL    HW310617   5.478   3.393   4.544  1.2612  0.0060  0.8094
 2711SOL    MW410618   5.490   3.318   4.586  0.1094 -0.5260  0.2253
 2712SOL     OW10619   5.005   3.250   0.371  0.4038  0.5550 -0.2179
 2712SOL    HW210620   4.997   3.179   0.435  1.3739  1.4710  0.9489
 2712SOL    HW310621   4.934   3.233   0.309 -0.6972 -0.2442  1.1836
 2712SOL    MW410622   4.995   3.238   0.371  0.3865  0.5704  0.1209
 2713SOL     OW10623   4.976   2.243   4.341  0.2645  0.3271 -0.2542
 2713SOL    HW210624   4.979   2.298   4.263  1.0403  0.3816 -0.2021
 2713SOL    HW310625   5.061   2.197   4.340 -0.2680 -0.6885 -0.1744
 2713SOL    MW410626   4.988   2.244   4.330  0.2966  0.2003 -0.2368
 2714SOL     OW10627   5.518   6.129   0.299  0.5388  0.0671 -0.1701
 2714SOL    HW210628   5.508   6.042   0.260  0.4917 -1.4191  2.8867
 2714SOL    HW310629   5.608   6.155   0.277  0.3733 -0.4362 -1.5870
 2714SOL    MW410630   5.529   6.121   0.291  0.5107 -0.1954  0.0463
 2715SOL     OW10631   1.997   2.495   0.356  0.3559 -0.1157  0.3953
 2715SOL    HW210632   2.033   2.406   0.344 -0.3117 -0.0922 -2.5402
 2715SOL    HW310633   1.916   2.481   0.404  0.1885 -1.1262 -0.1457
 2715SOL    MW410634   1.991   2.481   0.361  0.2457 -0.2459 -0.0634
 2716SOL     OW10635   3.776   2.740   1.882  0.6752  0.2306  0.6642
 2716SOL    HW210636   3.694   2.722   1.837  0.3576 -0.7483  1.5845
 2716SOL    HW310637   3.793   2.832   1.864  0.0542  0.1210 -0.6042
 2716SOL    MW410638   3.767   2.750   1.874  0.5513  0.0870  0.6183
 2717SOL     OW10639   0.914   2.919   2.077 -0.2105  0.2579 -0.2919
 2717SOL    HW210640   0.860   2.954   2.005 -0.4349  1.6189  0.4959
 2717SOL    HW310641   0.997   2.967   2.069  0.5384 -1.0806 -0.8663
 2717SOL    MW410642   0.918   2.930   2.066 -0.1413  0.2608 -0.2637
 2718SOL     OW10643   2.475   5.558   1.558  0.1467 -0.0120  0.2696
 2718SOL    HW210644   2.434   5.501   1.493 -0.1365 -1.5311  1.7063
 2718SOL    HW310645   2.476   5.645   1.517  0.2515 -0.9594 -1.8454
 2718SOL    MW410646   2.469   5.562   1.544  0.1232 -0.3374  0.1801
 2719SOL     OW10647   2.525   4.469   5.001  0.6317 -0.0388 -0.2956
 2719SOL    HW210648   2.602   4.525   4.995  1.1420 -0.6098  0.6344
 2719SOL    HW310649   2.454   4.529   5.025  0.9781  0.3457 -0.2178
 2719SOL    MW410650   2.526   4.485   5.004  0.7447 -0.0634 -0.1626
 2720SOL     OW10651   3.748   5.296   4.434 -0.1763 -0.4123 -0.1649
 2720SOL    HW210652   3.655   5.311   4.449 -0.1817 -0.6964  0.1054
 2720SOL    HW310653   3.792   5.346   4.503 -0.1688 -1.0109  0.2815
 2720SOL    MW410654   3.742   5.304   4.445 -0.1760 -0.5288 -0.0704
 2721SOL     OW10655   3.490   2.548   4.028 -0.8040 -0.0676 -0.0591
 2721SOL    HW210656   3.515   2.561   4.120 -1.1200 -0.2080  0.0494
 2721SOL    HW310657   3.467   2.456   4.023  2.1875 -0.8586 -1.0070
 2721SOL    MW410658   3.490   2.538   4.040 -0.4510 -0.1905 -0.1699
 2722SOL     OW10659   0.241   3.901   0.121 -0.5670  0.4816  0.3735
 2722SOL    HW210660   0.242   3.930   0.030 -0.1380  0.8153  0.4834
 2722SOL    HW310661   0.240   3.806   0.115 -2.0598  0.4899  0.0077
 2722SOL    MW410662   0.241   3.892   0.108 -0.7073  0.5268  0.3398
 2723SOL     OW10663   3.203   4.941   1.812  0.0095 -0.2674  0.7744
 2723SOL    HW210664   3.112   4.939   1.783  1.3985  0.5287 -4.7666
 2723SOL    HW310665   3.239   4.856   1.786  1.2811  0.1441  1.0883
 2723SOL    MW410666   3.196   4.930   1.804  0.3605 -0.1081  0.0848
 2724SOL     OW10667   4.755   6.078   5.236  0.1763  0.2403 -0.0042
 2724SOL    HW210668   4.710   5.993   5.239  2.5959 -1.0999  1.2319
 2724SOL    HW310669   4.749   6.111   5.325 -1.2009  1.7251 -0.5812
 2724SOL    MW410670   4.748   6.071   5.248  0.3138  0.2594  0.0827
 2725SOL     OW10671   0.819   1.093   1.804 -0.3992 -0.2978 -0.1923
 2725SOL    HW210672   0.900   1.056   1.771 -0.4386 -0.7044  0.1649
 2725SOL    HW310673   0.751   1.056   1.749 -0.2921  0.5544 -0.9206
 2725SOL    MW410674   0.821   1.083   1.793 -0.3903 -0.2390 -0.2412
 2726SOL     OW10675   3.407   5.149   0.268 -0.3338 -0.4678  0.4534
 2726SOL    HW210676   3.408   5.206   0.191 -0.8604 -0.0477  0.7467
 2726SOL    HW310677   3.346   5.192   0.329  1.7623  0.4566  2.0483
 2726SOL    MW410678   3.399   5.163   0.266 -0.1268 -0.2904  0.7025
 2727SOL     OW10679   5.130   4.646   3.729  0.9104  0.1760 -0.1405
 2727SOL    HW210680   5.145   4.569   3.783  4.5957  1.1316  0.4469
 2727SOL    HW310681   5.142   4.615   3.639 -1.9041 -0.7068 -0.3069
 2727SOL    MW410682   5.133   4.632   3.724  1.0253  0.1856 -0.0849
 2728SOL     OW10683   0.197   4.338   2.508  0.0102  0.5024  0.4399
 2728SOL    HW210684   0.273   4.313   2.455  0.4062  1.9784  0.2744
 2728SOL    HW310685   0.194   4.433   2.502 -0.5679  0.6289  2.2287
 2728SOL    MW410686   0.207   4.347   2.500 -0.0139  0.7139  0.6541
 2729SOL     OW10687   0.230   3.601   0.066 -0.2276 -0.6225 -0.3721
 2729SOL    HW210688   0.272   3.559   0.141 -1.3309  1.6009  1.6336
 2729SOL    HW310689   0.143   3.561   0.062 -0.5874  0.0650  0.3165
 2729SOL    MW410690   0.224   3.591   0.075 -0.4206 -0.2384 -0.0166
 2730SOL     OW10691   5.206   0.766   0.253  0.0508  0.3342  0.0482
 2730SOL    HW210692   5.299   0.779   0.237  0.0571 -0.6660 -0.9234
 2730SOL    HW310693   5.190   0.801   0.341  1.4934 -0.1722  0.5317
 2730SOL    MW410694   5.216   0.772   0.262  0.2420  0.1355 -0.0162
 2731SOL     OW10695   2.576   0.323   0.242 -0.3188  0.4324  0.6141
 2731SOL    HW210696   2.638   0.368   0.186 -0.7450  0.5416  0.2210
 2731SOL    HW310697   2.509   0.289   0.182 -0.6416  0.3249  1.0251
 2731SOL    MW410698   2.575   0.325   0.227 -0.4177  0.4326  0.6165
 2732SOL     OW10699   4.786   1.124   0.108  0.0677 -0.4314 -0.0384
 2732SOL    HW210700   4.760   1.033   0.093  0.3330 -0.3267 -1.1947
 2732SOL    HW310701   4.880   1.126   0.092  0.0069  0.1122 -0.3692
 2732SOL    MW410702   4.795   1.112   0.104  0.0947 -0.3458 -0.2346
 2733SOL     OW10703   4.437   1.703   1.946  0.6709  0.3564 -0.3797
 2733SOL    HW210704   4.442   1.731   2.037  1.5080  0.3207 -0.4061
 2733SOL    HW310705   4.417   1.783   1.898 -1.1174  0.1457 -0.0509
 2733SOL    MW410706   4.435   1.717   1.952  0.5454  0.3239 -0.3398
 2734SOL     OW10707   4.990   5.328   2.274  0.2618 -0.2271  0.2577
 2734SOL    HW210708   4.921   5.281   2.228  0.6479  0.8502 -1.5666
 2734SOL    HW310709   5.069   5.277   2.257  0.4649  0.3588 -0.6310
 2734SOL    MW410710   4.991   5.315   2.265  0.3396 -0.0076 -0.1002
 2735SOL     OW10711   4.586   1.816   6.246  0.3800 -0.6560 -0.5776
 2735SOL    HW210712   4.508   1.761   6.251  0.2698 -0.3951  1.7984
 2735SOL    HW310713   4.628   1.806   6.332  1.0097  2.0071 -0.4897
 2735SOL    MW410714   4.582   1.808   6.258  0.4485 -0.2702 -0.2525
 2736SOL     OW10715   2.780   0.400   6.298 -0.3243  0.3305  0.0248
 2736SOL    HW210716   2.724   0.478   6.303  1.7995  1.9051  0.9421
 2736SOL    HW310717   2.818   0.393   6.386 -0.0126 -1.4253 -0.2169
 2736SOL    MW410718   2.778   0.409   6.311 -0.0030  0.3066  0.1140
 2737SOL     OW10719   2.122   3.289   1.127 -0.1699 -0.4849  0.3983
 2737SOL    HW210720   2.149   3.252   1.211 -0.5927  1.0202  1.2277
 2737SOL    HW310721   2.064   3.361   1.150  0.0886  0.2624 -1.1755
 2737SOL    MW410722   2.118   3.294   1.141 -0.1916 -0.1877  0.3001
 2738SOL     OW10723   1.205   0.694   1.376  0.6609 -0.4274 -0.3817
 2738SOL    HW210724   1.109   0.690   1.381  0.6226  1.1219  1.4112
 2738SOL    HW310725   1.232   0.604   1.360 -1.0981 -0.7791 -1.7596
 2738SOL    MW410726   1.196   0.682   1.374  0.4237 -0.2694 -0.3270
 2739SOL     OW10727   3.682   6.197   4.719 -0.0027  0.4192 -0.0245
 2739SOL    HW210728   3.619   6.163   4.783  0.3071  0.6178  0.3897
 2739SOL    HW310729   3.738   6.255   4.769 -0.3000  1.2743 -0.6570
 2739SOL    MW410730   3.681   6.200   4.734 -0.0011  0.5582 -0.0533
 2740SOL     OW10731   6.081   0.858   3.081  0.5739  0.7907 -0.1565
 2740SOL    HW210732   6.104   0.766   3.097  1.1267  1.0877  0.8635
 2740SOL    HW310733   5.986   0.861   3.092  0.3655  0.1000 -1.5414
 2740SOL    MW410734   6.071   0.846   3.085  0.6193  0.7388 -0.2046
 2741SOL     OW10735   4.268   0.674   2.481 -0.4182 -0.2432 -0.2489
 2741SOL    HW210736   4.273   0.769   2.467 -2.6254 -0.0703 -0.2187
 2741SOL    HW310737   4.314   0.637   2.405  0.2698  0.8299 -0.3849
 2741SOL    MW410738   4.275   0.682   2.469 -0.6187 -0.0788 -0.2628
 2742SOL     OW10739   3.206   1.575   4.043  0.1538 -0.3107  0.0993
 2742SOL    HW210740   3.158   1.565   4.125  0.4472  1.4210  0.5145
 2742SOL    HW310741   3.238   1.487   4.024 -2.6208 -1.4276  0.1145
 2742SOL    MW410742   3.204   1.562   4.051 -0.1735 -0.2296  0.1561
 2743SOL     OW10743   0.984   5.021   4.841  0.5724 -0.3699  0.1419
 2743SOL    HW210744   0.980   4.949   4.778  2.5194 -0.5797  0.2094
 2743SOL    HW310745   0.972   5.100   4.789 -0.4226 -0.6581 -0.0925
 2743SOL    MW410746   0.982   5.022   4.826  0.6980 -0.4356  0.1199
 2744SOL     OW10747   3.769   0.055   4.614 -0.2022 -0.2755  0.0619
 2744SOL    HW210748   3.789   0.128   4.555 -1.4071  0.4206  0.4702
 2744SOL    HW310749   3.854   0.013   4.630  0.4846  0.8930 -0.3783
 2744SOL    MW410750   3.783   0.059   4.608 -0.2706 -0.0295  0.0577
 2745SOL     OW10751   3.503   4.084   1.611  0.2296 -0.4049 -0.1949
 2745SOL    HW210752   3.450   4.005   1.603 -0.4643  0.1270 -1.1168
 2745SOL    HW310753   3.503   4.103   1.705 -2.2886  0.2465 -0.2408
 2745SOL    MW410754   3.496   4.076   1.622 -0.1942 -0.2488 -0.3226
 2746SOL     OW10755   6.193   5.083   4.550 -0.1322  0.5344  0.2373
 2746SOL    HW210756   6.271   5.029   4.538 -0.3078  0.0411  1.2700
 2746SOL    HW310757   6.218   5.170   4.517  0.9068  0.4361  0.7511
 2746SOL    MW410758   6.207   5.087   4.544 -0.0183  0.4564  0.4413
 2747SOL     OW10759   6.019   4.201   3.773  0.1200 -0.3816 -0.0762
 2747SOL    HW210760   6.065   4.135   3.722  0.3656  1.3161 -2.1757
 2747SOL    HW310761   6.057   4.194   3.861  0.1446 -2.9458 -0.2220
 2747SOL    MW410762   6.030   4.191   3.778  0.1557 -0.4959 -0.3724
 2748SOL     OW10763   3.764   3.764   5.977  0.0076  0.0529  0.2342
 2748SOL    HW210764   3.729   3.675   5.988  0.3869 -0.1459 -0.1586
 2748SOL    HW310765   3.691   3.815   5.943 -0.2331 -0.0895  0.5330
 2748SOL    MW410766   3.750   3.759   5.974  0.0259  0.0079  0.2218
 2749SOL     OW10767   1.871   4.076   3.567  0.0148 -0.1318 -0.2175
 2749SOL    HW210768   1.875   4.060   3.662 -0.8878  0.0269 -0.1409
 2749SOL    HW310769   1.818   4.156   3.559 -3.6834 -2.4217 -0.9999
 2749SOL    MW410770   1.865   4.084   3.579 -0.5922 -0.4130 -0.3106
 2750SOL     OW10771   3.182   0.110   5.919 -0.0662 -0.3917  0.3156
 2750SOL    HW210772   3.207   0.019   5.936  1.2173 -0.3583 -1.1321
 2750SOL    HW310773   3.115   0.104   5.851  0.0248 -0.2558  0.2137
 2750SOL    MW410774   3.177   0.097   5.912  0.1152 -0.3694  0.1112
 2751SOL     OW10775   0.018   3.967   4.434 -0.1178 -0.6358 -0.2658
 2751SOL    HW210776  -0.015   3.890   4.481 -0.2891  0.5137  1.5838
 2751SOL    HW310777  -0.060   4.020   4.417  0.3672  1.1405  2.3553
 2751SOL    MW410778   0.003   3.964   4.438 -0.0764 -0.2498  0.3241
 2752SOL     OW10779   2.318   1.097   5.171 -0.5678 -0.3829  0.0667
 2752SOL    HW210780   2.239   1.106   5.118 -0.4285 -0.0197 -0.0828
 2752SOL    HW310781   2.342   1.005   5.162 -2.5180 -1.2241  2.3228
 2752SOL    MW410782   2.311   1.086   5.163 -0.8067 -0.4460  0.3446
 2753SOL     OW10783   5.969   2.950   2.872 -0.1649  0.1631  0.0935
 2753SOL    HW210784   6.008   2.959   2.785  0.2928  0.3558  0.3142
 2753SOL    HW310785   6.006   3.024   2.922  0.1506 -0.3706  0.6587
 2753SOL    MW410786   5.979   2.961   2.867 -0.0629  0.1181  0.1972
 2754SOL     OW10787   5.659   5.683   5.038 -0.3782  0.2067 -0.1769
 2754SOL    HW210788   5.678   5.717   4.951 -0.5500 -0.2998 -0.4161
 2754SOL    HW310789   5.575   5.637   5.028 -0.5068  0.3310  0.3044
 2754SOL    MW410790   5.650   5.682   5.025 -0.4178  0.1563 -0.1450
 2755SOL     OW10791   1.210   5.251   0.346 -0.1190  0.0471  0.1420
 2755SOL    HW210792   1.306   5.251   0.353 -0.1553 -2.0547  1.9151
 2755SOL    HW310793   1.187   5.158   0.345 -2.3188  0.1204  5.8450
 2755SOL    MW410794   1.220   5.238   0.347 -0.4140 -0.2205  1.1284
 2756SOL     OW10795   5.047   1.221   3.450 -0.0933 -0.1432 -0.7126
 2756SOL    HW210796   5.022   1.131   3.470 -0.3482 -0.0130 -0.4323
 2756SOL    HW310797   5.034   1.268   3.532 -1.4906  0.4740 -1.2618
 2756SOL    MW410798   5.042   1.215   3.463 -0.3113 -0.0446 -0.7481
 2757SOL     OW10799   3.636   5.171   0.419 -0.2858 -0.2075 -0.4880
 2757SOL    HW210800   3.650   5.264   0.405 -1.8129  0.2476  0.6791
 2757SOL    HW310801   3.554   5.151   0.373 -0.4042 -0.7648 -0.0615
 2757SOL    MW410802   3.627   5.181   0.411 -0.5029 -0.2210 -0.2777
 2758SOL     OW10803   5.463   5.390   4.940  0.4989 -0.0713  0.0110
 2758SOL    HW210804   5.400   5.450   4.980  0.9957  1.3334 -1.2269
 2758SOL    HW310805   5.415   5.348   4.869  0.7949  0.6363 -0.6209
 2758SOL    MW410806   5.449   5.393   4.936  0.6035  0.2074 -0.2357
 2759SOL     OW10807   5.305   2.643   6.117 -0.7651 -0.0408  0.4102
 2759SOL    HW210808   5.293   2.702   6.042  1.1080  1.2968  1.0764
 2759SOL    HW310809   5.275   2.694   6.192 -0.0672 -0.2907  0.8716
 2759SOL    MW410810   5.300   2.658   6.117 -0.4259  0.1027  0.5589
 2760SOL     OW10811   0.816   6.217   4.158 -0.4675 -0.1325  0.5084
 2760SOL    HW210812   0.875   6.227   4.233  0.5432  0.7348 -0.3539
 2760SOL    HW310813   0.845   6.285   4.097 -2.2970  0.2243 -0.0095
 2760SOL    MW410814   0.828   6.228   4.160 -0.5756  0.0290  0.3263
 2761SOL     OW10815   5.330   1.237   1.155 -0.6089  0.7720  0.2494
 2761SOL    HW210816   5.391   1.267   1.087 -0.3609 -0.7861 -0.2661
 2761SOL    HW310817   5.379   1.170   1.203 -1.5936  0.1902  0.4622
 2761SOL    MW410818   5.344   1.232   1.152 -0.7061  0.4897  0.2094
 2762SOL     OW10819   3.251   2.178   1.042  0.8527 -0.0280 -0.1288
 2762SOL    HW210820   3.223   2.181   0.951  0.8423 -0.9841 -0.1691
 2762SOL    HW310821   3.171   2.160   1.092  0.0324  4.4250  0.5425
 2762SOL    MW410822   3.237   2.176   1.037  0.7431  0.4334 -0.0455
 2763SOL     OW10823   3.290   4.522   2.383  0.1123  0.4611 -0.0973
 2763SOL    HW210824   3.379   4.524   2.347  0.1737  0.1187  0.0335
 2763SOL    HW310825   3.292   4.451   2.448 -0.4700 -0.0581 -0.6404
 2763SOL    MW410826   3.302   4.513   2.387  0.0436  0.3474 -0.1517
 2764SOL     OW10827   4.625   1.580   2.131 -0.0371 -0.7778  0.0346
 2764SOL    HW210828   4.628   1.605   2.223 -1.3274  1.4357 -0.4544
 2764SOL    HW310829   4.549   1.522   2.124 -0.0478 -0.8001  0.3330
 2764SOL    MW410830   4.615   1.576   2.142 -0.2088 -0.4887  0.0095
 2765SOL     OW10831   5.482   2.884   5.982  0.1829  0.4026  0.5856
 2765SOL    HW210832   5.404   2.899   6.035  0.0480  1.8904 -0.0099
 2765SOL    HW310833   5.452   2.888   5.891  0.6585 -0.7511  0.3525
 2765SOL    MW410834   5.468   2.886   5.977  0.2278  0.4467  0.4763
 2766SOL     OW10835   2.962   4.007   2.200 -0.1255  0.1977 -0.1849
 2766SOL    HW210836   3.013   3.941   2.153 -0.1451 -0.1084  0.2233
 2766SOL    HW310837   2.927   4.064   2.131  1.2477  0.7700 -0.4461
 2766SOL    MW410838   2.964   4.006   2.184  0.0531  0.2328 -0.1655
 2767SOL     OW10839   3.127   6.423   3.587  0.1619 -0.2609 -0.3681
 2767SOL    HW210840   3.193   6.473   3.539 -1.0557  0.2475 -1.5739
 2767SOL    HW310841   3.077   6.490   3.635  0.2017 -0.5873  0.1309
 2767SOL    MW410842   3.129   6.439   3.587  0.0065 -0.2369 -0.4614
 2768SOL     OW10843   0.925   2.741   1.413 -0.1712 -0.5488  0.5578
 2768SOL    HW210844   0.850   2.734   1.353 -0.7116  2.1104  0.7893
 2768SOL    HW310845   0.887   2.727   1.499 -0.5041  0.9616  0.6903
 2768SOL    MW410846   0.910   2.738   1.416 -0.2865  0.0013  0.6058
 2769SOL     OW10847   0.969   0.082   1.973 -0.1960  0.2201 -0.0911
 2769SOL    HW210848   1.062   0.104   1.979 -0.1549 -0.0229  0.2210
 2769SOL    HW310849   0.953   0.027   2.050 -0.4795 -0.1683 -0.4251
 2769SOL    MW410850   0.980   0.078   1.984 -0.2280  0.1368 -0.0940
 2770SOL     OW10851   5.569   1.734   0.474 -0.2648  0.0181  0.2141
 2770SOL    HW210852   5.568   1.728   0.569 -1.0546  0.7281  0.2533
 2770SOL    HW310853   5.506   1.803   0.453 -0.9031 -0.8708 -0.8782
 2770SOL    MW410854   5.561   1.742   0.484 -0.4532 -0.0055  0.0752
 2771SOL     OW10855   5.209   1.858   5.534 -0.1836  0.5135  0.3038
 2771SOL    HW210856   5.124   1.816   5.519 -0.2057 -0.9347  3.5961
 2771SOL    HW310857   5.191   1.928   5.597  1.0548  0.0685  1.1892
 2771SOL    MW410858   5.195   1.862   5.540 -0.0231  0.2638  0.8550
 2772SOL     OW10859   1.311   5.776   5.873 -0.3738  0.5903 -0.1019
 2772SOL    HW210860   1.251   5.793   5.945 -2.0502  0.0833 -1.3222
 2772SOL    HW310861   1.282   5.693   5.837  0.3759  0.8733 -1.4223
 2772SOL    MW410862   1.299   5.767   5.878 -0.4961  0.5607 -0.4371
 2773SOL     OW10863   3.802   5.788   2.492 -0.5786  0.2284 -0.6160
 2773SOL    HW210864   3.706   5.790   2.485 -0.5854 -0.0646 -0.6190
 2773SOL    HW310865   3.820   5.717   2.554 -0.3612  0.2069 -0.7038
 2773SOL    MW410866   3.792   5.779   2.499 -0.5508  0.1869 -0.6280
 2774SOL     OW10867   4.903   3.762   4.340 -0.3916  0.0848  0.4219
 2774SOL    HW210868   4.978   3.813   4.369 -0.7185  1.1647 -0.5493
 2774SOL    HW310869   4.936   3.709   4.268 -0.4305  0.1884  0.3263
 2774SOL    MW410870   4.917   3.762   4.334 -0.4399  0.2409  0.2812
 2775SOL     OW10871   0.262   4.255   5.684 -0.1190  0.3932  0.2468
 2775SOL    HW210872   0.252   4.180   5.743  0.4701  0.3442  0.2967
 2775SOL    HW310873   0.336   4.304   5.720 -0.7958  1.2534  0.4756
 2775SOL    MW410874   0.271   4.252   5.696 -0.1306  0.5002  0.2835
 2776SOL     OW10875   2.995   3.161   6.065  0.3070 -0.1263 -0.0268
 2776SOL    HW210876   2.924   3.144   6.127  0.0007  1.1047 -0.0078
 2776SOL    HW310877   2.972   3.245   6.025  1.4069 -0.0447 -0.5229
 2776SOL    MW410878   2.983   3.170   6.068  0.4117  0.0469 -0.0897
 2777SOL     OW10879   5.023   2.659   2.031  0.2136 -0.1154  0.7154
 2777SOL    HW210880   5.028   2.575   1.986 -0.4005  0.6804 -0.9218
 2777SOL    HW310881   5.084   2.716   1.984 -1.4414  1.1169 -0.0529
 2777SOL    MW410882   5.032   2.655   2.019 -0.0858  0.1522  0.3980
 2778SOL     OW10883   0.628   6.214   1.537 -0.2880 -0.0936  0.6828
 2778SOL    HW210884   0.675   6.296   1.519 -1.3402  0.5261  0.6324
 2778SOL    HW310885   0.696   6.151   1.558  0.7334  0.2229 -1.3784
 2778SOL    MW410886   0.643   6.217   1.537 -0.2920  0.0299  0.4042
 2779SOL     OW10887   4.975   1.030   1.215  0.9303  0.0455  0.5792
 2779SOL    HW210888   5.052   0.981   1.245 -0.4720 -2.0550  0.9291
 2779SOL    HW310889   4.911   1.019   1.285 -1.9190 -3.7559 -2.2096
 2779SOL    MW410890   4.977   1.022   1.228  0.3694 -0.7332  0.2574
 2780SOL     OW10891   3.354   0.610   2.668 -0.6644 -0.3078  0.0325
 2780SOL    HW210892   3.353   0.682   2.605  0.9197 -1.0957 -0.9373
 2780SOL    HW310893   3.332   0.651   2.752  1.7405  1.6451 -0.1947
 2780SOL    MW410894   3.351   0.625   2.671 -0.1381 -0.1541 -0.1254
 2781SOL     OW10895   5.944   0.024   2.273  0.1032 -0.1077 -0.2556
 2781SOL    HW210896   5.881  -0.041   2.305  1.0221 -1.0439 -0.2760
 2781SOL    HW310897   6.002   0.040   2.348  1.9392 -1.9068 -1.1848
 2781SOL    MW410898   5.944   0.017   2.287  0.4667 -0.4686 -0.3809
 2782SOL     OW10899   4.053   5.138   0.565  0.0177 -0.5791 -0.1398
 2782SOL    HW210900   4.148   5.152   0.560 -0.0508 -0.2436 -0.4395
 2782SOL    HW310901   4.017   5.182   0.489 -0.6233  1.3599  1.2083
 2782SOL    MW410902   4.061   5.145   0.554 -0.0759 -0.2790 -0.0015
 2783SOL     OW10903   5.157   3.618   0.034  0.3445  0.3978  0.0442
 2783SOL    HW210904   5.152   3.528   0.002 -0.2103  0.9338 -1.4605
 2783SOL    HW310905   5.248   3.627   0.063 -0.1696 -1.3513  2.5573
 2783SOL    MW410906   5.169   3.607   0.034  0.2035  0.2377  0.1772
 2784SOL     OW10907   5.432   4.905   4.226  0.5227 -0.4231 -0.3696
 2784SOL    HW210908   5.439   4.810   4.223  0.0800 -0.4587 -0.3103
 2784SOL    HW310909   5.345   4.922   4.262 -0.0775  0.0041 -1.9670
 2784SOL    MW410910   5.422   4.895   4.231  0.3851 -0.3715 -0.5725
 2785SOL     OW10911   3.951   4.779   6.219  0.3897  0.2433 -0.0892
 2785SOL    HW210912   3.907   4.816   6.143  1.8080  2.2519  0.0037
 2785SOL    HW310913   4.038   4.755   6.187 -0.6513 -4.0048 -0.3643
 2785SOL    MW410914   3.957   4.781   6.205  0.4394 -0.0521 -0.1132
 2786SOL     OW10915   0.260   5.070   3.720  0.3189  0.0335  0.3524
 2786SOL    HW210916   0.261   5.043   3.812  1.8367  0.1691  0.3986
 2786SOL    HW310917   0.302   4.998   3.673 -1.1403 -0.3804 -0.3564
 2786SOL    MW410918   0.266   5.057   3.726  0.3267 -0.0032  0.2650
 2787SOL     OW10919   6.338   2.940   2.008 -0.2103  0.5427  0.6880
 2787SOL    HW210920   6.286   2.958   2.087 -1.2357 -0.9389  0.3969
 2787SOL    HW310921   6.274   2.934   1.938  0.3247 -1.2697  0.2982
 2787SOL    MW410922   6.323   2.941   2.009 -0.2750  0.1081  0.5982
 2788SOL     OW10923   0.914   3.515   2.541 -0.4667  0.1577  0.3468
 2788SOL    HW210924   0.975   3.589   2.533 -0.0741  0.0478  1.9935
 2788SOL    HW310925   0.836   3.552   2.581 -1.5102  0.2785 -1.6938
 2788SOL    MW410926   0.912   3.530   2.545 -0.5526  0.1592  0.2948
 2789SOL     OW10927   4.209   5.551   2.241 -0.2783  0.5500  0.1090
 2789SOL    HW210928   4.274   5.604   2.287 -0.9149  0.8398  0.6795
 2789SOL    HW310929   4.129   5.604   2.242 -0.3432  0.5128 -1.2293
 2789SOL    MW410930   4.207   5.565   2.247 -0.3708  0.5833  0.0077
 2790SOL     OW10931   0.497   5.486   4.254 -0.2503  0.4011 -0.3447
 2790SOL    HW210932   0.545   5.505   4.173 -1.4676  0.6596 -1.0271
 2790SOL    HW310933   0.536   5.405   4.286 -0.1349 -0.0298 -1.5076
 2790SOL    MW410934   0.508   5.478   4.247 -0.3957  0.3783 -0.5882
 2791SOL     OW10935   6.340   3.435   1.600 -0.5143 -0.7407  0.1337
 2791SOL    HW210936   6.322   3.516   1.647  2.2938 -0.2026  0.4262
 2791SOL    HW310937   6.332   3.367   1.667  0.0836 -0.3594  0.6039
 2791SOL    MW410938   6.336   3.437   1.615 -0.0650 -0.6194  0.2343
 2792SOL     OW10939   3.289   2.957   1.680 -0.4971 -0.1224 -0.0147
 2792SOL    HW210940   3.253   3.037   1.643  0.0113 -0.0562 -0.3711
 2792SOL    HW310941   3.225   2.889   1.658 -0.2722 -0.0582 -0.8859
 2792SOL    MW410942   3.276   2.959   1.672 -0.4003 -0.1052 -0.1767
 2793SOL     OW10943   2.888   1.446   6.033 -0.1452 -0.2429  0.1028
 2793SOL    HW210944   2.930   1.380   5.977 -1.6423 -0.9380 -0.2322
 2793SOL    HW310945   2.826   1.396   6.086 -0.9345  0.8361  0.2134
 2793SOL    MW410946   2.886   1.430   6.033 -0.4469 -0.1922  0.0732
 2794SOL     OW10947   0.263   4.389   2.796 -0.4862 -0.3925 -0.4816
 2794SOL    HW210948   0.262   4.300   2.760 -0.0255 -0.5515 -0.1051
 2794SOL    HW310949   0.329   4.435   2.744  0.0401 -0.5685  0.0288
 2794SOL    MW410950   0.272   4.383   2.784 -0.3560 -0.4367 -0.3646
 2795SOL     OW10951   1.282   0.510   0.092  0.3978 -0.2528  0.0183
 2795SOL    HW210952   1.307   0.507  -0.001 -1.5261  2.0729 -0.6724
 2795SOL    HW310953   1.292   0.420   0.122  1.3357 -1.0335 -2.3582
 2795SOL    MW410954   1.287   0.498   0.084  0.2677 -0.0489 -0.3864
 2796SOL     OW10955   1.863   1.769   0.088 -0.3187 -0.2707 -0.0604
 2796SOL    HW210956   1.882   1.863   0.081 -0.7678 -0.0738  1.1559
 2796SOL    HW310957   1.881   1.734   0.000  0.6989  0.7921 -0.2970
 2796SOL    MW410958   1.868   1.777   0.075 -0.2437 -0.1045  0.0689
 2797SOL     OW10959   4.662   3.336   4.936  0.6453  0.0447 -0.1672
 2797SOL    HW210960   4.661   3.263   4.873  0.1320 -1.2655  1.2750
 2797SOL    HW310961   4.741   3.386   4.915  0.9652 -0.8893 -1.2686
 2797SOL    MW410962   4.672   3.333   4.925  0.6197 -0.2514 -0.1222
 2798SOL     OW10963   2.806   1.564   4.781 -0.5977  0.4296 -0.5043
 2798SOL    HW210964   2.821   1.486   4.728 -0.6773  0.9513 -1.3208
 2798SOL    HW310965   2.752   1.534   4.854  1.3653 -0.7700  0.5658
 2798SOL    MW410966   2.801   1.550   4.784 -0.3492  0.3401 -0.4708
 2799SOL     OW10967   2.627   5.054   0.924 -0.0688 -0.9504 -0.5192
 2799SOL    HW210968   2.550   5.050   0.981  1.0864  1.1904  1.3403
 2799SOL    HW310969   2.675   4.973   0.943 -2.0132 -2.5800 -2.0976
 2799SOL    MW410970   2.623   5.043   0.934 -0.1729 -0.8829 -0.4821
 2800SOL     OW10971   0.766   5.990   1.606  0.7634  0.2549  0.6721
 2800SOL    HW210972   0.858   5.986   1.580  0.3483 -1.2872 -0.7641
 2800SOL    HW310973   0.752   5.910   1.656 -0.5095 -1.3632 -2.0015
 2800SOL    MW410974   0.776   5.979   1.609  0.5407 -0.1620  0.1299
 2801SOL     OW10975   1.539   0.388   1.443  0.4823  0.1819 -0.0014
 2801SOL    HW210976   1.533   0.305   1.491  1.1917  0.5767  0.7971
 2801SOL    HW310977   1.492   0.450   1.498  2.1947  0.8736  0.7597
 2801SOL    MW410978   1.532   0.385   1.456  0.8018  0.3253  0.2043
 2802SOL     OW10979   4.726   5.131   4.979  0.6127  0.3343 -0.0238
 2802SOL    HW210980   4.667   5.081   4.922 -0.2254 -0.5936  1.6034
 2802SOL    HW310981   4.710   5.097   5.067  2.1738  1.4391  0.7389
 2802SOL    MW410982   4.716   5.120   4.983  0.7081  0.3576  0.2915
 2803SOL     OW10983   3.165   3.505   3.607 -0.3067 -0.2920  0.0919
 2803SOL    HW210984   3.256   3.476   3.616 -0.4652 -1.3902 -1.5461
 2803SOL    HW310985   3.163   3.589   3.653  1.6113 -0.0901 -0.0924
 2803SOL    MW410986   3.177   3.513   3.614 -0.0745 -0.4102 -0.1485
 2804SOL     OW10987   4.635   1.369   3.005 -0.9003  0.1307  0.0458
 2804SOL    HW210988   4.622   1.362   3.100 -1.1630  1.5053  0.1376
 2804SOL    HW310989   4.704   1.434   2.996 -0.0506 -0.8420 -0.6983
 2804SOL    MW410990   4.642   1.377   3.017 -0.8229  0.1837 -0.0403
 2805SOL     OW10991   3.953   4.037   4.107  0.1140 -0.0965  0.0559
 2805SOL    HW210992   4.003   4.003   4.182 -0.8904 -0.8149  0.4219
 2805SOL    HW310993   3.903   3.961   4.076  0.6529  0.1456 -1.4737
 2805SOL    MW410994   3.953   4.022   4.113  0.0526 -0.1593 -0.0976
 2806SOL     OW10995   6.306   4.116   5.562  0.0300 -0.0054  0.2385
 2806SOL    HW210996   6.236   4.102   5.498 -0.2480  0.4137  0.4454
 2806SOL    HW310997   6.322   4.211   5.560  1.0845 -0.1873 -0.3216
 2806SOL    MW410998   6.298   4.127   5.554  0.1324  0.0259  0.1919
 2807SOL     OW10999   3.319   2.399   1.783  0.7170  0.2028 -0.3661
 2807SOL    HW211000   3.369   2.319   1.799 -0.6617 -0.3363  1.5898
 2807SOL    HW311001   3.381   2.470   1.803  1.3291 -0.4137 -0.0393
 2807SOL    MW411002   3.334   2.398   1.788  0.6159  0.0503 -0.0649
 2808SOL     OW11003   2.576   4.049   2.079 -0.9503 -0.0757  0.1668
 2808SOL    HW211004   2.636   4.020   2.148 -0.0057  0.8982 -0.2152
 2808SOL    HW311005   2.489   4.042   2.118 -0.4354  0.4608  1.4727
 2808SOL    MW411006   2.572   4.044   2.093 -0.7578  0.1236  0.2887
 2809SOL     OW11007   4.136   2.803   0.868  0.2544  0.4985  0.1503
 2809SOL    HW211008   4.082   2.869   0.910 -0.8545  0.1685 -0.7115
 2809SOL    HW311009   4.157   2.741   0.938 -2.0744 -0.3804  0.1523
 2809SOL    MW411010   4.132   2.804   0.883 -0.1992  0.3390  0.0369
 2810SOL     OW11011   0.443   0.266   4.716  0.1302  0.2046 -0.7922
 2810SOL    HW211012   0.358   0.224   4.729 -0.9369  2.3885 -0.2247
 2810SOL    HW311013   0.459   0.314   4.797  0.2127  2.5809 -2.1057
 2810SOL    MW411014   0.434   0.267   4.728  0.0003  0.8063 -0.8906
 2811SOL     OW11015   5.566   2.256   1.412 -0.3115 -0.2838 -0.1353
 2811SOL    HW211016   5.571   2.160   1.419  1.5617 -0.2204  0.0426
 2811SOL    HW311017   5.587   2.287   1.500  1.0406  0.2802 -0.6193
 2811SOL    MW411018   5.570   2.247   1.425  0.1140 -0.2010 -0.1757
 2812SOL     OW11019   2.035   2.739   4.333  0.1044  0.0647  0.2629
 2812SOL    HW211020   2.091   2.784   4.397  0.9897 -1.5738  0.6972
 2812SOL    HW311021   1.963   2.705   4.386  1.9738 -3.2618  0.9681
 2812SOL    MW411022   2.033   2.740   4.349  0.4679 -0.5904  0.4132
 2813SOL     OW11023   4.330   2.708   4.369 -0.2664 -0.2202  0.3989
 2813SOL    HW211024   4.372   2.673   4.290 -1.0484 -0.4705  0.0790
 2813SOL    HW311025   4.239   2.723   4.342  0.1750  2.8720  0.2412
 2813SOL    MW411026   4.323   2.705   4.355 -0.3114  0.1548  0.3359
 2814SOL     OW11027   0.121   6.295   1.099 -0.0718 -0.0443  0.5808
 2814SOL    HW211028   0.102   6.221   1.157  0.2255 -1.5384 -1.1290
 2814SOL    HW311029   0.125   6.256   1.012 -0.1862  2.0646 -0.4247
 2814SOL    MW411030   0.119   6.280   1.095 -0.0477  0.0368  0.2226
 2815SOL     OW11031   0.971   4.219   5.100 -0.2107  0.4475  0.2344
 2815SOL    HW211032   0.881   4.221   5.066 -0.6416  1.5025  1.3716
 2815SOL    HW311033   0.965   4.258   5.187  2.0547  5.2963 -1.4097
 2815SOL    MW411034   0.958   4.225   5.107  0.0313  1.2264  0.1676
 2816SOL     OW11035   4.377   1.959   4.116  0.1141  0.4525  0.4166
 2816SOL    HW211036   4.363   1.936   4.208  0.1350 -1.3456  0.0128
 2816SOL    HW311037   4.303   2.015   4.094 -2.0104 -2.0524  0.6044
 2816SOL    MW411038   4.366   1.963   4.125 -0.1634 -0.1153  0.3881
 2817SOL     OW11039   2.987   5.124   0.061 -0.5988 -0.2610 -0.1837
 2817SOL    HW211040   3.066   5.079   0.090 -0.2392  0.5078  0.0735
 2817SOL    HW311041   3.001   5.216   0.087 -1.3484 -0.0202 -0.5944
 2817SOL    MW411042   2.999   5.130   0.069 -0.6502 -0.1278 -0.2039
 2818SOL     OW11043   1.323   0.399   4.365 -0.0440 -0.3528 -0.2997
 2818SOL    HW211044   1.322   0.329   4.300 -0.1459  1.2537 -2.1037
 2818SOL    HW311045   1.234   0.434   4.363  0.3345  0.6239 -0.3348
 2818SOL    MW411046   1.311   0.394   4.356 -0.0075 -0.0119 -0.5423
 2819SOL     OW11047   4.615   4.607   4.301 -0.7212 -0.2333  0.4726
 2819SOL    HW211048   4.704   4.597   4.337 -0.9507 -1.0719  0.8285
 2819SOL    HW311049   4.629   4.617   4.207 -0.2860 -1.3224  0.4065
 2819SOL    MW411050   4.629   4.607   4.293 -0.6941 -0.4877  0.5108
 2820SOL     OW11051   4.099   2.981   2.357  0.2200 -1.0236 -0.1361
 2820SOL    HW211052   4.147   3.009   2.279 -0.0120 -1.1586 -0.3277
 2820SOL    HW311053   4.073   2.891   2.339 -0.8279 -0.6951 -0.3964
 2820SOL    MW411054   4.102   2.973   2.345  0.0511 -0.9981 -0.1957
 2821SOL     OW11055   0.109   2.328   5.082  0.1106 -0.0160 -0.6401
 2821SOL    HW211056   0.139   2.405   5.034 -0.2013  0.4139 -0.1622
 2821SOL    HW311057   0.166   2.323   5.158 -0.4599  0.2911 -0.1843
 2821SOL    MW411058   0.120   2.337   5.086 -0.0058  0.0812 -0.5169
 2822SOL     OW11059   5.296   5.637   1.653 -0.0187 -1.0204 -0.2806
 2822SOL    HW211060   5.366   5.691   1.617 -0.9072  0.4982  0.1875
 2822SOL    HW311061   5.310   5.551   1.614  0.8736 -0.2246 -1.8201
 2822SOL    MW411062   5.307   5.633   1.643 -0.0182 -0.7151 -0.4220
 2823SOL     OW11063   1.271   5.546   0.263  0.4652 -0.1225  0.0510
 2823SOL    HW211064   1.319   5.621   0.230  0.0632  0.3378  0.4900
 2823SOL    HW311065   1.319   5.519   0.341  0.2091  0.1246  0.2960
 2823SOL    MW411066   1.284   5.552   0.269  0.3784 -0.0292  0.1412
 2824SOL     OW11067   2.605   3.284   6.187 -0.0542 -0.1552 -0.0426
 2824SOL    HW211068   2.694   3.286   6.223  0.0155  1.0557 -0.2380
 2824SOL    HW311069   2.585   3.191   6.179  1.1009 -0.4517  0.2382
 2824SOL    MW411070   2.614   3.272   6.191  0.1074 -0.0346 -0.0313
 2825SOL     OW11071   2.732   4.143   0.775  0.0215 -0.0511 -0.0144
 2825SOL    HW211072   2.722   4.220   0.718 -0.9086 -0.6585 -0.7069
 2825SOL    HW311073   2.783   4.081   0.722 -1.6736 -0.9943 -0.6060
 2825SOL    MW411074   2.738   4.145   0.760 -0.3248 -0.2557 -0.1838
 2826SOL     OW11075   0.938   3.371   4.241 -0.6153 -0.8065 -0.1024
 2826SOL    HW211076   0.985   3.431   4.299 -0.1857 -1.7827  0.5838
 2826SOL    HW311077   0.908   3.427   4.168 -0.2932  0.2427  0.5427
 2826SOL    MW411078   0.940   3.387   4.239 -0.5161 -0.7969  0.0732
 2827SOL     OW11079   5.164   3.452   3.155  0.2155 -0.1703  0.3868
 2827SOL    HW211080   5.149   3.358   3.159 -0.1591 -0.1319  0.0502
 2827SOL    HW311081   5.259   3.462   3.166  0.4499 -0.6920 -0.9220
 2827SOL    MW411082   5.175   3.441   3.157  0.1970 -0.2340  0.1697
 2828SOL     OW11083   3.905   2.905   3.598  0.0698 -0.2963 -0.6436
 2828SOL    HW211084   3.831   2.944   3.645 -0.3326 -0.2621 -1.2991
 2828SOL    HW311085   3.896   2.811   3.612 -0.3389 -0.3236 -1.0632
 2828SOL    MW411086   3.894   2.898   3.606 -0.0372 -0.2954 -0.7855
 2829SOL     OW11087   4.301   3.832   1.991 -0.0938 -0.6930 -0.0649
 2829SOL    HW211088   4.341   3.752   2.024 -2.0451 -1.6184  0.1884
 2829SOL    HW311089   4.207   3.813   1.988 -0.4388  0.9587 -1.7855
 2829SOL    MW411090   4.294   3.819   1.995 -0.3967 -0.5972 -0.2585
 2830SOL     OW11091   5.693   5.665   5.927 -0.0068  0.4564 -1.1375
 2830SOL    HW211092   5.789   5.670   5.929 -0.0621  1.4378 -0.5159
 2830SOL    HW311093   5.668   5.647   6.017 -0.4270  0.5336 -1.2382
 2830SOL    MW411094   5.703   5.663   5.939 -0.0695  0.5961 -1.0688
 2831SOL     OW11095   6.155   4.325   2.156  0.1505 -0.0053 -0.4823
 2831SOL    HW211096   6.154   4.253   2.218  0.0727 -0.3729 -0.9063
 2831SOL    HW311097   6.245   4.357   2.158 -0.0792  0.6247  0.5408
 2831SOL    MW411098   6.167   4.320   2.164  0.1099  0.0293 -0.4033
 2832SOL     OW11099   5.373   5.637   5.817 -0.3023 -0.3069 -0.0277
 2832SOL    HW211100   5.434   5.577   5.773 -1.4509 -1.4571 -0.1019
 2832SOL    HW311101   5.399   5.724   5.786 -0.9109 -1.0161 -2.8977
 2832SOL    MW411102   5.384   5.640   5.807 -0.5342 -0.5522 -0.4162
 2833SOL     OW11103   1.774   1.729   2.103 -0.8125 -0.6840  0.0856
 2833SOL    HW211104   1.709   1.660   2.100 -0.3617 -1.1499  0.7814
 2833SOL    HW311105   1.838   1.699   2.168 -0.7735  0.5307  0.6239
 2833SOL    MW411106   1.774   1.716   2.111 -0.7479 -0.5852  0.2484
 2834SOL     OW11107   5.638   1.417   2.786 -0.4294 -0.1252 -0.0188
 2834SOL    HW211108   5.564   1.366   2.821 -0.8259 -0.2169 -0.9676
 2834SOL    HW311109   5.622   1.421   2.692  0.4568  0.3882 -0.1567
 2834SOL    MW411110   5.626   1.410   2.778 -0.3648 -0.0695 -0.1621
 2835SOL     OW11111   6.100   5.219   1.960 -0.5426  0.3387  0.1028
 2835SOL    HW211112   6.148   5.300   1.946 -0.4292  0.2809  0.1553
 2835SOL    HW311113   6.124   5.192   2.049 -0.5541  0.2314  0.0742
 2835SOL    MW411114   6.109   5.226   1.970 -0.5292  0.3169  0.1060
 2836SOL     OW11115   5.402   5.739   0.669 -0.1329  0.4874  0.1222
 2836SOL    HW211116   5.427   5.814   0.616  1.2258  0.6760  0.9763
 2836SOL    HW311117   5.380   5.671   0.605  1.4022  0.7209 -0.7066
 2836SOL    MW411118   5.402   5.740   0.654  0.2489  0.5431  0.1255
 2837SOL     OW11119   1.783   5.659   4.424 -0.3254 -0.7041 -0.2322
 2837SOL    HW211120   1.794   5.725   4.492 -0.3623 -1.6842  0.7419
 2837SOL    HW311121   1.817   5.578   4.462 -0.5879 -1.3293 -1.2765
 2837SOL    MW411122   1.789   5.657   4.438 -0.3649 -0.9159 -0.2414
 2838SOL     OW11123   3.654   1.945   1.908  0.2930 -0.0328 -0.1227
 2838SOL    HW211124   3.601   1.884   1.958 -0.7404 -0.2192 -1.4078
 2838SOL    HW311125   3.701   1.996   1.974 -1.7844  0.4202  1.0647
 2838SOL    MW411126   3.653   1.944   1.923 -0.1174  0.0024 -0.1356
 2839SOL     OW11127   3.025   1.023   0.364  0.4697  0.3221  0.1698
 2839SOL    HW211128   2.942   1.060   0.335  0.4715  0.7840  0.7122
 2839SOL    HW311129   3.001   0.945   0.413  0.3766  0.2793  0.0565
 2839SOL    MW411130   3.011   1.018   0.367  0.4577  0.3774  0.2264
 2840SOL     OW11131   3.836   3.586   4.968 -0.0707 -0.0198  0.6916
 2840SOL    HW211132   3.861   3.555   5.055  1.4581  0.1488  0.3435
 2840SOL    HW311133   3.788   3.513   4.930 -0.2530 -0.3179  1.4696
 2840SOL    MW411134   3.833   3.572   4.975  0.1070 -0.0369  0.7483
 2841SOL     OW11135   0.997   5.958   4.610 -0.4169 -0.0393  0.0757
 2841SOL    HW211136   1.020   5.912   4.691  0.8351 -1.1647 -0.8784
 2841SOL    HW311137   1.056   5.922   4.544 -0.3685  1.9425 -1.0366
 2841SOL    MW411138   1.008   5.947   4.612 -0.2453  0.0737 -0.1970
 2842SOL     OW11139   5.559   3.890   4.043 -0.3565  0.3932  0.5200
 2842SOL    HW211140   5.531   3.980   4.060 -0.8805 -0.1778  3.2550
 2842SOL    HW311141   5.653   3.891   4.057 -0.2735  0.6184 -0.0374
 2842SOL    MW411142   5.567   3.902   4.047 -0.4147  0.3475  0.8073
 2843SOL     OW11143   0.369   1.084   0.435 -0.1189  0.2412 -0.0917
 2843SOL    HW211144   0.364   1.141   0.359 -3.2986 -0.6982 -0.7066
 2843SOL    HW311145   0.457   1.099   0.470  0.4092  2.8412 -2.2290
 2843SOL    MW411146   0.380   1.094   0.430 -0.4688  0.4603 -0.4549
 2844SOL     OW11147   3.033   0.422   4.166  0.1316 -0.1606  0.3526
 2844SOL    HW211148   2.971   0.354   4.137 -0.9169  1.0976 -0.4743
 2844SOL    HW311149   3.112   0.406   4.115  0.0680 -1.0421  0.5146
 2844SOL    MW411150   3.035   0.411   4.156 -0.0151 -0.1109  0.2649
 2845SOL     OW11151   4.553   2.483   5.731 -0.0064  0.0762 -0.5801
 2845SOL    HW211152   4.640   2.470   5.693  0.1033 -1.4988  0.1488
 2845SOL    HW311153   4.499   2.515   5.659  0.8954 -0.0493 -1.3168
 2845SOL    MW411154   4.557   2.486   5.717  0.1270 -0.1482 -0.5811
 2846SOL     OW11155   2.782   0.043   3.773  0.3189  0.4950  0.2430
 2846SOL    HW211156   2.747   0.060   3.860 -1.5903  0.4870 -0.4582
 2846SOL    HW311157   2.849  -0.024   3.786  1.1652  1.6175  1.8648
 2846SOL    MW411158   2.786   0.036   3.786  0.1787  0.6420  0.3645
 2847SOL     OW11159   0.266   5.243   4.000  0.3823 -0.0775  0.4167
 2847SOL    HW211160   0.243   5.326   4.042 -2.0148  0.8461 -2.4156
 2847SOL    HW311161   0.321   5.267   3.926  1.6482 -1.3140  0.9031
 2847SOL    MW411162   0.270   5.257   3.996  0.2331 -0.1188  0.1072
 2848SOL     OW11163   5.300   5.067   3.580 -0.4331  0.3858 -0.1938
 2848SOL    HW211164   5.313   5.134   3.513 -1.2099  0.8753  0.1230
 2848SOL    HW311165   5.280   4.988   3.530 -1.0747  0.7612 -0.5547
 2848SOL    MW411166   5.299   5.066   3.565 -0.6203  0.4999 -0.1996
 2849SOL     OW11167   1.570   0.681   0.951 -0.1073  0.3804 -0.1390
 2849SOL    HW211168   1.586   0.633   1.032 -0.7869  1.0876  0.4315
 2849SOL    HW311169   1.647   0.737   0.941  0.4130 -0.3812 -0.4930
 2849SOL    MW411170   1.582   0.682   0.960 -0.1283  0.3732 -0.1104
 2850SOL     OW11171   1.240   2.255   5.086  0.6401 -0.0809 -0.5952
 2850SOL    HW211172   1.188   2.304   5.150  1.5206 -0.8618  0.7683
 2850SOL    HW311173   1.187   2.178   5.067  1.3769 -1.0818  1.1007
 2850SOL    MW411174   1.226   2.252   5.092  0.8534 -0.3160 -0.1915
 2851SOL     OW11175   4.214   4.290   1.036 -0.2193  0.1330 -0.1153
 2851SOL    HW211176   4.183   4.204   1.067  0.8142 -1.2079 -2.5439
 2851SOL    HW311177   4.259   4.327   1.111  1.9240 -2.7981  0.2275
 2851SOL    MW411178   4.216   4.283   1.050  0.1999 -0.4306 -0.3905
 2852SOL     OW11179   2.516   1.274   4.349  0.1166 -0.1119  0.0441
 2852SOL    HW211180   2.604   1.311   4.360  0.0931 -0.6384  2.3041
 2852SOL    HW311181   2.522   1.225   4.266  1.6154  0.7486 -0.4009
 2852SOL    MW411182   2.528   1.272   4.339  0.3112 -0.0678  0.2836
 2853SOL     OW11183   0.241   5.254   1.082 -0.5668  0.1721  0.0700
 2853SOL    HW211184   0.167   5.250   1.021 -1.7248  0.2499  1.4187
 2853SOL    HW311185   0.293   5.176   1.061 -2.5376 -1.4439  0.9147
 2853SOL    MW411186   0.238   5.243   1.071 -0.9796 -0.0308  0.3594
 2854SOL     OW11187   2.566   3.247   2.392 -0.5250  0.0745  0.0474
 2854SOL    HW211188   2.588   3.159   2.423  0.3459  1.1590  2.7801
 2854SOL    HW311189   2.499   3.278   2.453 -0.7302  1.3635 -0.8027
 2854SOL    MW411190   2.560   3.240   2.404 -0.4372  0.3876  0.2958
 2855SOL     OW11191   0.277   5.043   4.236  0.2437  0.2169 -0.2637
 2855SOL    HW211192   0.278   5.093   4.317  0.5004 -0.1239 -0.0515
 2855SOL    HW311193   0.253   5.106   4.168  0.4532  0.5948  0.0148
 2855SOL    MW411194   0.274   5.058   4.237  0.3052  0.2218 -0.1990
 2856SOL     OW11195   4.946   4.895   5.094  0.1275  0.1552 -0.6183
 2856SOL    HW211196   4.936   4.813   5.046 -0.2334 -0.5605  0.6419
 2856SOL    HW311197   4.861   4.908   5.137  1.0035 -0.2309  1.3438
 2856SOL    MW411198   4.934   4.886   5.093  0.1955  0.0098 -0.1931
 2857SOL     OW11199   1.316   3.815   1.262  0.3078  0.7507 -0.2180
 2857SOL    HW211200   1.387   3.763   1.223  0.4300  2.3356 -2.2857
 2857SOL    HW311201   1.245   3.752   1.276  1.0808 -0.3152 -0.9376
 2857SOL    MW411202   1.316   3.800   1.259  0.4259  0.8192 -0.5858
 2858SOL     OW11203   3.394   3.811   2.982 -0.9423  0.3909  0.0997
 2858SOL    HW211204   3.414   3.742   2.919 -0.1561 -1.4671  2.2450
 2858SOL    HW311205   3.316   3.779   3.028 -0.1901  0.6067  1.5577
 2858SOL    MW411206   3.386   3.798   2.980 -0.7393  0.1742  0.5751
 2859SOL     OW11207   2.618   5.715   2.754  0.3494  0.5452 -0.0066
 2859SOL    HW211208   2.648   5.639   2.705  2.0074  1.4410 -0.4684
 2859SOL    HW311209   2.653   5.703   2.842 -1.3568 -0.3277  0.5832
 2859SOL    MW411210   2.627   5.704   2.759  0.3430  0.5482  0.0103
 2860SOL     OW11211   6.310   5.077   3.051  0.3780 -0.2512 -0.0242
 2860SOL    HW211212   6.361   5.068   2.970 -0.7921 -1.0707 -0.6974
 2860SOL    HW311213   6.354   5.019   3.113  0.7207 -0.3592 -0.3656
 2860SOL    MW411214   6.323   5.068   3.048  0.2688 -0.3736 -0.1581
 2861SOL     OW11215   6.170   0.999   1.896  0.0427 -0.4297 -0.1610
 2861SOL    HW211216   6.236   1.042   1.950 -1.3742  1.8196 -0.1039
 2861SOL    HW311217   6.209   0.995   1.809  1.0384 -1.0185  0.2974
 2861SOL    MW411218   6.184   1.004   1.892 -0.0129 -0.2106 -0.0930
 2862SOL     OW11219   4.973   3.396   5.216  0.5757  0.4666  0.8140
 2862SOL    HW211220   4.915   3.439   5.278 -1.7306  0.2735 -1.0712
 2862SOL    HW311221   4.958   3.302   5.230  1.0319  0.3946  0.8440
 2862SOL    MW411222   4.963   3.389   5.226  0.3316  0.4316  0.5692
 2863SOL     OW11223   5.911   3.837   1.593 -0.0832  0.3077  1.1147
 2863SOL    HW211224   5.914   3.931   1.611  1.8649  0.6159 -0.4837
 2863SOL    HW311225   5.870   3.830   1.507 -2.5546 -0.5755  2.2607
 2863SOL    MW411226   5.906   3.849   1.584 -0.1522  0.2318  1.0550
 2864SOL     OW11227   0.673   4.869   5.395 -0.0292 -0.0913  0.5332
 2864SOL    HW211228   0.645   4.781   5.418 -2.3119  0.9863  2.2282
 2864SOL    HW311229   0.738   4.856   5.325  0.1224 -3.0893  1.0955
 2864SOL    MW411230   0.678   4.856   5.389 -0.3103 -0.3447  0.8310
 2865SOL     OW11231   4.794   0.562   6.428  0.1088 -0.0741  0.2243
 2865SOL    HW211232   4.800   0.625   6.500 -2.1708 -0.6029  0.9370
 2865SOL    HW311233   4.797   0.617   6.349 -0.3262  0.7932  0.7913
 2865SOL    MW411234   4.795   0.578   6.427 -0.2494 -0.0295  0.3931
 2866SOL     OW11235   0.360   2.074   5.159  0.1200  0.8041  0.9893
 2866SOL    HW211236   0.447   2.049   5.190  1.1865  2.9409 -0.1042
 2866SOL    HW311237   0.372   2.092   5.066 -1.2877  1.9590  0.9994
 2866SOL    MW411238   0.373   2.073   5.151  0.0750  1.2384  0.8464
 2867SOL     OW11239   1.850   5.499   3.554 -0.1182 -0.3503  0.2585
 2867SOL    HW211240   1.913   5.545   3.500 -1.0219 -1.4866 -1.8933
 2867SOL    HW311241   1.894   5.417   3.578 -0.5921 -0.9553 -0.8886
 2867SOL    MW411242   1.864   5.494   3.550 -0.3000 -0.5800 -0.1768
 2868SOL     OW11243   3.664   4.039   3.524  0.6141 -0.6045 -0.2858
 2868SOL    HW211244   3.624   3.955   3.544 -0.1169  0.3791  2.8978
 2868SOL    HW311245   3.591   4.100   3.516  1.1813 -0.0306 -1.4134
 2868SOL    MW411246   3.649   4.036   3.526  0.5925 -0.3990 -0.0146
 2869SOL     OW11247   1.292   0.223   2.218 -0.2173  0.0336 -0.6250
 2869SOL    HW211248   1.354   0.152   2.207  0.2491  0.5074 -1.1187
 2869SOL    HW311249   1.269   0.249   2.129  1.0128  1.6851 -0.5084
 2869SOL    MW411250   1.297   0.217   2.205  0.0065  0.3140 -0.6747
 2870SOL     OW11251   2.911   4.928   4.202  0.2491  0.3346 -0.5745
 2870SOL    HW211252   2.831   4.963   4.163  0.0818  1.1629  0.4892
 2870SOL    HW311253   2.916   4.967   4.289  0.5013 -1.6230  0.3602
 2870SOL    MW411254   2.901   4.938   4.208  0.2603  0.1856 -0.3109
 2871SOL     OW11255   4.593   6.086   3.242  0.2578  0.3242 -0.7650
 2871SOL    HW211256   4.526   6.116   3.303  0.6244  0.8899 -0.6341
 2871SOL    HW311257   4.615   6.163   3.190 -1.0530 -0.4507 -2.6042
 2871SOL    MW411258   4.587   6.100   3.243  0.1333  0.2966 -0.9904
 2872SOL     OW11259   0.411   1.184   1.661 -0.2331 -0.4760  0.2928
 2872SOL    HW211260   0.477   1.115   1.650  0.2774 -0.0406  0.6307
 2872SOL    HW311261   0.461   1.265   1.660 -0.9324 -0.0225 -1.1928
 2872SOL    MW411262   0.426   1.185   1.659 -0.2580 -0.3587  0.1414
 2873SOL     OW11263   6.265   2.724   0.321 -0.3618  0.5866  0.2101
 2873SOL    HW211264   6.258   2.725   0.417 -0.0941  1.2058  0.2290
 2873SOL    HW311265   6.356   2.701   0.304 -0.9912 -2.1318  0.0440
 2873SOL    MW411266   6.276   2.721   0.332 -0.4096  0.3097  0.1907
 2874SOL     OW11267   1.388   5.126   3.339 -0.2558  0.2452 -0.2785
 2874SOL    HW211268   1.455   5.187   3.308  1.0966 -0.6945  0.6710
 2874SOL    HW311269   1.437   5.060   3.387 -1.6431 -1.7432 -1.4601
 2874SOL    MW411270   1.404   5.125   3.341 -0.2604 -0.1411 -0.3092
 2875SOL     OW11271   2.948   1.582   0.146 -0.1622 -0.2937  0.7854
 2875SOL    HW211272   2.925   1.565   0.055  0.8762 -1.1266  0.6597
 2875SOL    HW311273   2.876   1.635   0.180  0.1989  1.4378 -0.9775
 2875SOL    MW411274   2.936   1.587   0.139  0.0225 -0.1751  0.5362
 2876SOL     OW11275   2.484   5.911   1.183  0.2949 -0.1383 -0.1706
 2876SOL    HW211276   2.425   5.967   1.233  0.4389 -1.0912  1.1055
 2876SOL    HW311277   2.455   5.822   1.203  1.5610 -0.5879 -0.2860
 2876SOL    MW411278   2.472   5.907   1.192  0.4809 -0.3233 -0.0174
 2877SOL     OW11279   6.277   3.466   1.084  0.0837  0.1605 -0.7980
 2877SOL    HW211280   6.363   3.489   1.119 -0.4733  1.1830 -0.0769
 2877SOL    HW311281   6.237   3.412   1.152 -0.0505  0.1130 -0.9147
 2877SOL    MW411282   6.283   3.462   1.098 -0.0075  0.2892 -0.7182
 2878SOL     OW11283   3.060   2.416   1.668 -0.0519 -0.5479 -0.7480
 2878SOL    HW211284   3.147   2.420   1.706 -0.7424  0.3178  0.8040
 2878SOL    HW311285   3.031   2.326   1.685  0.4844 -0.8147 -1.1999
 2878SOL    MW411286   3.068   2.404   1.675 -0.0722 -0.4689 -0.6028
 2879SOL     OW11287   4.405   1.025   5.554 -0.3923  0.0089  0.1153
 2879SOL    HW211288   4.490   0.984   5.542  1.3938  2.4058  3.1365
 2879SOL    HW311289   4.412   1.109   5.509 -0.3232  1.1177  2.1026
 2879SOL    MW411290   4.417   1.031   5.547 -0.1475  0.4714  0.7761
 2880SOL     OW11291   4.323   4.025   5.469  0.0431  0.0982  0.3185
 2880SOL    HW211292   4.414   3.997   5.479 -0.0723 -0.0458  1.0173
 2880SOL    HW311293   4.271   3.949   5.494 -0.2682  0.3755  0.5351
 2880SOL    MW411294   4.328   4.012   5.474 -0.0132  0.1158  0.4393
 2881SOL     OW11295   4.295   1.631   3.187  0.2787 -0.2184 -0.2872
 2881SOL    HW211296   4.388   1.625   3.211  0.0017  0.6423  1.1463
 2881SOL    HW311297   4.258   1.690   3.253 -1.2830 -0.5075 -0.8797
 2881SOL    MW411298   4.302   1.638   3.199  0.0361 -0.1430 -0.1763
 2882SOL     OW11299   5.257   5.473   3.350  0.1218 -0.3745 -0.4083
 2882SOL    HW211300   5.202   5.460   3.427 -0.7402  0.4038 -0.8753
 2882SOL    HW311301   5.299   5.389   3.337  0.7556 -0.3678  1.2584
 2882SOL    MW411302   5.255   5.460   3.359  0.0917 -0.2709 -0.2500
 2883SOL     OW11303   4.681   2.238   2.880 -0.0145  0.3543 -0.2598
 2883SOL    HW211304   4.615   2.188   2.831 -0.4404 -0.8934  1.4650
 2883SOL    HW311305   4.738   2.275   2.813 -1.1050 -0.4850 -1.7164
 2883SOL    MW411306   4.680   2.236   2.865 -0.2146  0.0790 -0.2244
 2884SOL     OW11307   0.826   4.904   0.197  0.2447 -0.2524  0.2918
 2884SOL    HW211308   0.808   4.992   0.165 -0.0177 -0.6996 -0.8270
 2884SOL    HW311309   0.740   4.862   0.202  0.3918 -0.5301  0.5641
 2884SOL    MW411310   0.812   4.910   0.194  0.2295 -0.3480  0.1801
 2885SOL     OW11311   0.517   4.300   0.735 -0.6727 -0.2320 -0.2491
 2885SOL    HW211312   0.526   4.389   0.770 -0.3635 -0.5175  0.4064
 2885SOL    HW311313   0.469   4.252   0.802 -1.2290 -0.4538 -0.7972
 2885SOL    MW411314   0.512   4.306   0.748 -0.7053 -0.2989 -0.2349
 2886SOL     OW11315   1.016   0.830   0.106 -0.1421 -0.1449 -0.0963
 2886SOL    HW211316   0.940   0.774   0.119  2.0279 -3.0250  1.3332
 2886SOL    HW311317   1.081   0.797   0.169  1.9272  2.8957 -0.4323
 2886SOL    MW411318   1.015   0.818   0.116  0.4172 -0.1237  0.0480
 2887SOL     OW11319   1.703   5.267   4.947  0.1197  0.3571  0.2599
 2887SOL    HW211320   1.786   5.221   4.955 -0.7670 -1.6869 -1.4028
 2887SOL    HW311321   1.642   5.217   5.001 -0.2843  1.2192  0.6234
 2887SOL    MW411322   1.706   5.254   4.955 -0.0506  0.2011  0.0885
 2888SOL     OW11323   5.734   2.935   1.771  0.4845 -0.1992  0.4143
 2888SOL    HW211324   5.768   2.869   1.711  2.5980  2.1994 -1.2146
 2888SOL    HW311325   5.653   2.965   1.731  0.6268 -0.3101  0.0434
 2888SOL    MW411326   5.728   2.930   1.758  0.7821  0.1026  0.1504
 2889SOL     OW11327   4.971   4.989   0.969  0.1958  0.8660 -0.3964
 2889SOL    HW211328   5.005   5.057   0.911  1.0770  1.4265  0.7361
 2889SOL    HW311329   4.932   5.037   1.042  1.7383  0.1879  0.9332
 2889SOL    MW411330   4.970   5.004   0.971  0.5155  0.8505 -0.0716
 2890SOL     OW11331   4.184   3.295   0.162  0.1193  0.4264 -0.5598
 2890SOL    HW211332   4.167   3.389   0.165 -2.1262  0.0959 -1.2033
 2890SOL    HW311333   4.230   3.282   0.079  0.6276  0.9493 -0.3737
 2890SOL    MW411334   4.188   3.306   0.152 -0.1099  0.4518 -0.6201
 2891SOL     OW11335   0.482   4.462   4.065  0.2545  0.0046  0.2476
 2891SOL    HW211336   0.526   4.547   4.055 -2.0027  1.6219  2.6746
 2891SOL    HW311337   0.531   4.418   4.134 -1.4948  1.6486  2.6916
 2891SOL    MW411338   0.495   4.467   4.073 -0.2741  0.4349  0.8903
 2892SOL     OW11339   0.616   0.573   5.258 -0.3742  0.1517 -0.3471
 2892SOL    HW211340   0.666   0.653   5.276  0.5397 -0.5016  0.0602
 2892SOL    HW311341   0.677   0.515   5.213 -1.4191  0.1621 -1.8523
 2892SOL    MW411342   0.631   0.576   5.254 -0.3915  0.0669 -0.4920
 2893SOL     OW11343   5.393   5.938   2.497  0.3515  0.4365 -0.0519
 2893SOL    HW211344   5.332   5.973   2.563  0.7868  1.7000 -0.2915
 2893SOL    HW311345   5.337   5.889   2.437 -0.3134  0.8012  0.2498
 2893SOL    MW411346   5.378   5.937   2.498  0.3212  0.6513 -0.0437
 2894SOL     OW11347   0.969   0.203   5.017  0.3260  0.8466  0.1322
 2894SOL    HW211348   1.010   0.117   5.022 -0.0431  0.6341 -0.4757
 2894SOL    HW311349   0.987   0.234   4.928 -1.2432  0.5268 -0.3278
 2894SOL    MW411350   0.976   0.196   5.006  0.0702  0.7764 -0.0087
 2895SOL     OW11351   2.255   4.534   2.763 -0.2951 -0.2764 -0.6975
 2895SOL    HW211352   2.337   4.546   2.811 -0.3842  0.6814 -0.7814
 2895SOL    HW311353   2.202   4.478   2.820 -0.5923  1.2553  0.5789
 2895SOL    MW411354   2.259   4.528   2.777 -0.3461  0.0520 -0.5402
 2896SOL     OW11355   3.236   0.428   0.534  0.4900  0.3000 -0.1882
 2896SOL    HW211356   3.322   0.423   0.576 -0.7300 -2.7113  2.3469
 2896SOL    HW311357   3.230   0.348   0.481 -1.3868 -0.6055  1.2557
 2896SOL    MW411358   3.246   0.416   0.532  0.0814 -0.2168  0.3368
 2897SOL     OW11359   2.020   1.935   1.230  0.0403 -0.5571 -0.3192
 2897SOL    HW211360   2.016   1.986   1.311  1.3479  0.4710 -0.8614
 2897SOL    HW311361   2.112   1.915   1.219  0.3011  1.4061 -2.7481
 2897SOL    MW411362   2.031   1.939   1.239  0.2472 -0.1624 -0.7112
 2898SOL     OW11363   5.688   2.927   5.386 -0.0569 -0.2335  0.2820
 2898SOL    HW211364   5.684   2.905   5.479 -1.2260 -1.1577  0.0372
 2898SOL    HW311365   5.640   2.856   5.342  0.6656  0.0620 -1.0470
 2898SOL    MW411366   5.681   2.915   5.392 -0.1158 -0.3164  0.0744
 2899SOL     OW11367   5.165   4.521   2.028  0.0683  0.1738 -0.0348
 2899SOL    HW211368   5.094   4.585   2.023 -0.2555 -0.1299  0.6103
 2899SOL    HW311369   5.209   4.528   1.943 -0.4712  0.6595 -0.2839
 2899SOL    MW411370   5.161   4.531   2.016 -0.0456  0.1978  0.0175
 2900SOL     OW11371   1.502   3.518   5.293  0.3887 -0.0422  0.1879
 2900SOL    HW211372   1.536   3.477   5.373  1.1042  0.8601  0.3547
 2900SOL    HW311373   1.417   3.553   5.319 -0.3600 -1.5920 -0.0194
 2900SOL    MW411374   1.495   3.517   5.307  0.3843 -0.1277  0.1825
 2901SOL     OW11375   4.467   5.036   2.151  0.2277 -0.3991 -0.5194
 2901SOL    HW211376   4.543   4.991   2.188 -0.1024 -0.5678 -0.0334
 2901SOL    HW311377   4.392   4.997   2.195 -0.2799 -1.4867 -2.2795
 2901SOL    MW411378   4.467   5.025   2.162  0.1172 -0.5649 -0.6875
 2902SOL     OW11379   6.221   0.278   6.082 -0.2038  0.3629 -0.3995
 2902SOL    HW211380   6.144   0.252   6.031  0.1533  0.2960 -0.9124
 2902SOL    HW311381   6.272   0.197   6.092 -1.0922 -0.0212  1.5506
 2902SOL    MW411382   6.218   0.264   6.077 -0.2739  0.3034 -0.2099
 2903SOL     OW11383   2.104   0.587   3.888  0.4843 -0.4273  0.9245
 2903SOL    HW211384   2.093   0.522   3.958  2.3503  1.1522  2.8225
 2903SOL    HW311385   2.169   0.548   3.830 -0.4825 -1.4126  0.4647
 2903SOL    MW411386   2.111   0.573   3.890  0.6029 -0.3489  1.1142
 2904SOL     OW11387   2.616   3.706   3.747 -0.6407 -0.0128  0.4850
 2904SOL    HW211388   2.608   3.738   3.657  0.1685 -1.2395 -0.0571
 2904SOL    HW311389   2.611   3.784   3.801  0.6453  0.9641 -0.7378
 2904SOL    MW411390   2.614   3.720   3.742 -0.3643 -0.0458  0.2522
 2905SOL     OW11391   2.283   5.809   1.888 -0.2737  0.1251  0.1884
 2905SOL    HW211392   2.284   5.902   1.866  0.5588 -0.1995 -1.2634
 2905SOL    HW311393   2.197   5.779   1.860 -1.0807  0.6912  1.8939
 2905SOL    MW411394   2.271   5.817   1.882 -0.2703  0.1570  0.2219
 2906SOL     OW11395   0.447   3.679   5.922 -0.1586 -0.3337  0.6735
 2906SOL    HW211396   0.391   3.735   5.976 -0.0077  1.4032 -0.8788
 2906SOL    HW311397   0.477   3.736   5.852  3.8355 -1.0529  1.5421
 2906SOL    MW411398   0.444   3.694   5.920  0.3883 -0.1994  0.5833
 2907SOL     OW11399   4.203   0.283   3.597 -0.1210 -0.4970  0.2228
 2907SOL    HW211400   4.296   0.260   3.595  0.0143  0.0001  0.4236
 2907SOL    HW311401   4.177   0.291   3.506 -0.0629 -1.0062  0.1611
 2907SOL    MW411402   4.212   0.281   3.585 -0.0955 -0.4986  0.2412
 2908SOL     OW11403   3.777   3.181   3.972  0.7714  0.3188 -0.1184
 2908SOL    HW211404   3.700   3.218   4.016  1.6890  1.9867  0.1827
 2908SOL    HW311405   3.764   3.086   3.976 -0.9820  0.5500  0.4273
 2908SOL    MW411406   3.765   3.173   3.978  0.6612  0.5694 -0.0067
 2909SOL     OW11407   1.514   2.955   3.436  0.1421 -0.4642 -0.2831
 2909SOL    HW211408   1.448   2.970   3.368  1.0238  0.2812 -0.9908
 2909SOL    HW311409   1.597   2.950   3.389  0.9487  1.4393  0.8424
 2909SOL    MW411410   1.516   2.956   3.421  0.3648 -0.1147 -0.2280
 2910SOL     OW11411   2.239   5.078   5.766  0.1869  0.0866  0.3913
 2910SOL    HW211412   2.198   5.003   5.723 -1.5028  1.1518  0.0499
 2910SOL    HW311413   2.332   5.056   5.771 -0.5263 -3.1851  2.6185
 2910SOL    MW411414   2.246   5.065   5.761 -0.1301 -0.2045  0.6401
 2911SOL     OW11415   3.885   2.353   4.823  0.1834 -0.0313 -0.2816
 2911SOL    HW211416   3.977   2.371   4.807 -0.0440 -0.3074 -2.0314
 2911SOL    HW311417   3.879   2.346   4.919  1.8580  0.5014 -0.0999
 2911SOL    MW411418   3.896   2.354   4.834  0.3744  0.0025 -0.4885
 2912SOL     OW11419   0.829   5.968   2.378  0.0260  0.4179 -0.3480
 2912SOL    HW211420   0.841   6.046   2.324  0.6637 -0.2218 -1.1758
 2912SOL    HW311421   0.898   5.908   2.348  0.8270  0.2647  1.6314
 2912SOL    MW411422   0.840   5.970   2.367  0.2158  0.3133 -0.1960
 2913SOL     OW11423   4.221   1.887   4.641  0.0121  0.4200 -0.2050
 2913SOL    HW211424   4.309   1.883   4.677  0.0908 -0.6068 -0.4604
 2913SOL    HW311425   4.233   1.892   4.546 -0.1863 -0.0632 -0.2644
 2913SOL    MW411426   4.234   1.887   4.633 -0.0037  0.2208 -0.2465
 2914SOL     OW11427   1.112   5.331   5.191  0.8131  0.0691  0.0754
 2914SOL    HW211428   1.094   5.415   5.148 -0.3790 -1.2917 -2.2445
 2914SOL    HW311429   1.055   5.331   5.268  1.4294  1.6759  0.5902
 2914SOL    MW411430   1.102   5.342   5.195  0.7371  0.1015 -0.1628
 2915SOL     OW11431   1.929   2.312   2.235  0.1396 -0.4137  0.1397
 2915SOL    HW211432   1.945   2.392   2.285 -1.8900 -0.5370  1.0722
 2915SOL    HW311433   1.940   2.241   2.298  1.9901 -0.9439 -0.6951
 2915SOL    MW411434   1.933   2.313   2.250  0.1160 -0.4999  0.1526
 2916SOL     OW11435   5.717   0.350   4.780  0.6813 -0.1143  0.1616
 2916SOL    HW211436   5.687   0.436   4.751  0.9152 -0.3693 -0.8683
 2916SOL    HW311437   5.812   0.354   4.775  0.6975 -0.4017  0.2021
 2916SOL    MW411438   5.725   0.362   4.776  0.7143 -0.1858  0.0311
 2917SOL     OW11439   3.906   2.296   0.814  0.1658  0.4098 -0.1900
 2917SOL    HW211440   3.969   2.270   0.880  0.3088  1.7827  0.2620
 2917SOL    HW311441   3.921   2.390   0.802  0.9795  0.0268 -3.0849
 2917SOL    MW411442   3.916   2.305   0.821  0.2920  0.5404 -0.5123
 2918SOL     OW11443   3.233   5.273   5.818  0.0128 -0.2395 -0.4831
 2918SOL    HW211444   3.313   5.220   5.825 -0.8643 -1.7405 -1.5107
 2918SOL    HW311445   3.225   5.294   5.725 -0.0580  1.1109 -0.1954
 2918SOL    MW411446   3.243   5.269   5.807 -0.1123 -0.2594 -0.5807
 2919SOL     OW11447   0.273   4.361   1.959 -0.0307  0.0990  0.2346
 2919SOL    HW211448   0.363   4.364   1.991 -0.1451  1.0405  0.4947
 2919SOL    HW311449   0.233   4.442   1.991 -1.2651 -0.7546  1.0045
 2919SOL    MW411450   0.279   4.372   1.968 -0.2087  0.1106  0.3705
 2920SOL     OW11451   5.973   5.741   5.894  0.0399  0.0470 -0.0107
 2920SOL    HW211452   6.004   5.763   5.806 -0.2911  0.1923 -0.0902
 2920SOL    HW311453   6.034   5.673   5.924 -0.1883 -0.4092 -0.5699
 2920SOL    MW411454   5.985   5.735   5.886 -0.0339  0.0060 -0.0950
 2921SOL     OW11455   5.423   4.626   5.206  0.2562 -0.1642 -0.3872
 2921SOL    HW211456   5.397   4.678   5.282  0.0554 -0.0886 -0.5062
 2921SOL    HW311457   5.406   4.683   5.131 -0.5405 -0.6152 -0.5608
 2921SOL    MW411458   5.417   4.640   5.206  0.1246 -0.2137 -0.4258
 2922SOL     OW11459   5.774   1.997   0.044 -0.4134  0.0113  0.0892
 2922SOL    HW211460   5.794   1.953  -0.039  1.1888 -2.2243  1.5483
 2922SOL    HW311461   5.794   2.089   0.028 -0.0299 -0.3818 -1.9469
 2922SOL    MW411462   5.779   2.003   0.031 -0.1514 -0.3356  0.0131
 2923SOL     OW11463   1.165   1.541   4.789 -0.0942 -0.2261  0.1268
 2923SOL    HW211464   1.245   1.594   4.793  1.0100 -1.7304 -0.7607
 2923SOL    HW311465   1.136   1.535   4.880 -0.2290  1.7844  0.2574
 2923SOL    MW411466   1.172   1.547   4.802  0.0337 -0.1593  0.0269
 2924SOL     OW11467   2.613   4.787   1.874 -0.0200 -0.2846  0.4799
 2924SOL    HW211468   2.617   4.859   1.937 -1.8034 -0.1441  0.4962
 2924SOL    HW311469   2.698   4.744   1.881  1.7357  2.7079 -0.6559
 2924SOL    MW411470   2.625   4.790   1.884 -0.0237  0.1288  0.3322
 2925SOL     OW11471   3.216   3.279   2.256  0.0558  0.3179 -0.0404
 2925SOL    HW211472   3.279   3.325   2.312  1.1307 -0.0922 -0.8592
 2925SOL    HW311473   3.268   3.251   2.181 -1.1909  0.2129 -0.8917
 2925SOL    MW411474   3.231   3.281   2.254  0.0331  0.2500 -0.2608
 2926SOL     OW11475   1.748   2.521   0.501 -0.2021  0.2906  0.0914
 2926SOL    HW211476   1.722   2.606   0.465 -0.6490  0.1301  0.0231
 2926SOL    HW311477   1.665   2.482   0.532  0.1081  0.2410  0.8877
 2926SOL    MW411478   1.733   2.527   0.500 -0.2201  0.2629  0.1875
 2927SOL     OW11479   0.854   6.371   2.215  0.6921 -0.0208  0.3807
 2927SOL    HW211480   0.874   6.361   2.308  0.6563 -1.3161  0.2772
 2927SOL    HW311481   0.759   6.372   2.210  0.6946  0.1982  0.3705
 2927SOL    MW411482   0.844   6.370   2.226  0.6877 -0.1628  0.3657
 2928SOL     OW11483   2.521   5.330   1.135  0.0902  0.2799 -0.0854
 2928SOL    HW211484   2.452   5.290   1.082  0.7214 -2.0182  0.7116
 2928SOL    HW311485   2.479   5.348   1.219 -0.1335  1.1271 -0.3700
 2928SOL    MW411486   2.507   5.327   1.139  0.1440  0.0885 -0.0178
 2929SOL     OW11487   3.879   1.161   1.193 -0.0275 -0.1003  0.1873
 2929SOL    HW211488   3.920   1.150   1.107 -1.2050 -1.0528 -0.2799
 2929SOL    HW311489   3.900   1.081   1.240  0.2158  0.2188  0.6245
 2929SOL    MW411490   3.887   1.149   1.188 -0.1508 -0.1839  0.1833
 2930SOL     OW11491   6.350   0.087   4.774  0.0158  0.1786 -0.7587
 2930SOL    HW211492   6.330   0.013   4.832  1.9803 -0.2314 -0.5180
 2930SOL    HW311493   6.304   0.067   4.693 -0.3798 -0.7495 -0.3178
 2930SOL    MW411494   6.341   0.074   4.771  0.2228  0.0020 -0.6688
 2931SOL     OW11495   2.783   0.434   0.644 -0.4524  0.0044  0.4545
 2931SOL    HW211496   2.780   0.355   0.698  2.0404 -0.3797  0.1224
 2931SOL    HW311497   2.859   0.482   0.675 -0.3295  0.9304 -1.1766
 2931SOL    MW411498   2.792   0.430   0.655 -0.1073  0.0759  0.1955
 2932SOL     OW11499   5.991   1.363   4.196 -0.1682 -0.3263 -0.0122
 2932SOL    HW211500   6.023   1.402   4.277 -1.6964  0.1200  0.3987
 2932SOL    HW311501   6.054   1.393   4.130  0.2083  0.6207  0.7434
 2932SOL    MW411502   6.004   1.372   4.198 -0.3202 -0.1425  0.1417
 2933SOL     OW11503   0.562   4.935   4.183 -0.2165  0.1352 -0.5000
 2933SOL    HW211504   0.573   5.027   4.207 -0.0780 -0.2330  0.9415
 2933SOL    HW311505   0.471   4.929   4.155 -0.4558  0.5711  0.1429
 2933SOL    MW411506   0.552   4.946   4.183 -0.2298  0.1441 -0.2250
 2934SOL     OW11507   2.878   2.060   2.515  0.6224 -0.5789 -0.2418
 2934SOL    HW211508   2.950   2.009   2.552  0.2216 -0.4882  0.6730
 2934SOL    HW311509   2.814   2.067   2.585 -0.6560 -1.3581 -1.2767
 2934SOL    MW411510   2.879   2.054   2.529  0.4009 -0.6697 -0.2576
 2935SOL     OW11511   5.118   3.314   1.869  0.2346 -0.1576  0.1028
 2935SOL    HW211512   5.033   3.337   1.907  0.3805  0.2703  0.1850
 2935SOL    HW311513   5.182   3.353   1.929  0.4734  0.0875 -0.3032
 2935SOL    MW411514   5.115   3.322   1.882  0.2853 -0.0688  0.0600
 2936SOL     OW11515   4.108   4.149   0.084 -0.1964 -0.4801  0.0775
 2936SOL    HW211516   4.104   4.074   0.144  0.0218 -0.4281  0.1578
 2936SOL    HW311517   4.191   4.191   0.104  2.1643 -2.9953 -3.2742
 2936SOL    MW411518   4.118   4.144   0.095  0.1439 -0.8051 -0.3541
 2937SOL     OW11519   2.491   4.839   3.463 -0.0864  0.5584  0.1992
 2937SOL    HW211520   2.451   4.815   3.547  0.2335 -0.1629  0.1492
 2937SOL    HW311521   2.534   4.922   3.480  1.7772 -0.5602  1.3503
 2937SOL    MW411522   2.491   4.847   3.476  0.2017  0.3156  0.3445
 2938SOL     OW11523   5.760   1.385   5.649 -0.5875  0.9512 -0.6100
 2938SOL    HW211524   5.685   1.338   5.685 -1.0864  2.9104  1.1122
 2938SOL    HW311525   5.786   1.334   5.572 -0.8117 -2.3463  1.2864
 2938SOL    MW411526   5.754   1.372   5.644 -0.6829  0.7746 -0.1325
 2939SOL     OW11527   1.434   5.780   2.862 -0.1033  0.3319  0.1853
 2939SOL    HW211528   1.398   5.862   2.896 -3.5774 -1.4128  1.2504
 2939SOL    HW311529   1.419   5.784   2.768 -1.7443  0.3590  0.4136
 2939SOL    MW411530   1.428   5.791   2.854 -0.7782  0.1053  0.3560
 2940SOL     OW11531   2.897   2.164   3.047 -0.5318  0.4997  0.1784
 2940SOL    HW211532   2.803   2.166   3.027 -0.2384 -0.2688 -1.5358
 2940SOL    HW311533   2.901   2.148   3.141 -2.0960  2.3526  0.6264
 2940SOL    MW411534   2.885   2.162   3.056 -0.6995  0.6428  0.0113
 2941SOL     OW11535   4.989   5.725   5.165  0.3856  0.0359 -1.0036
 2941SOL    HW211536   5.005   5.642   5.210 -0.7976 -0.6349 -1.7546
 2941SOL    HW311537   4.928   5.702   5.095 -1.3742  1.8348 -0.1595
 2941SOL    MW411538   4.983   5.711   5.162 -0.0027  0.1848 -0.9913
 2942SOL     OW11539   0.636   5.579   4.041  0.4535 -0.2453 -0.4717
 2942SOL    HW211540   0.683   5.624   3.972  3.2437 -2.6369 -0.3409
 2942SOL    HW311541   0.690   5.591   4.120 -1.8961  1.1960  1.0472
 2942SOL    MW411542   0.649   5.586   4.043  0.5116 -0.3707 -0.2541
 2943SOL     OW11543   4.948   3.511   2.419  0.0928 -0.2704  0.2734
 2943SOL    HW211544   5.008   3.440   2.393 -3.3211 -2.9508 -1.0981
 2943SOL    HW311545   4.927   3.555   2.337 -0.5631 -0.0655  0.5437
 2943SOL    MW411546   4.953   3.507   2.405 -0.4441 -0.5970  0.1281
 2944SOL     OW11547   0.070   3.713   5.954  0.7892  0.2164  0.2493
 2944SOL    HW211548   0.080   3.630   6.000 -0.4377 -0.0918  0.0096
 2944SOL    HW311549   0.104   3.696   5.866  0.7796  0.0410  0.2790
 2944SOL    MW411550   0.076   3.700   5.948  0.6261  0.1526  0.2216
 2945SOL     OW11551   3.044   3.008   3.048 -0.3854  0.4534  0.4949
 2945SOL    HW211552   2.971   3.048   3.096  0.3091  0.8156  1.2835
 2945SOL    HW311553   3.019   2.917   3.036 -0.9525  0.5692  0.7861
 2945SOL    MW411554   3.031   3.001   3.053 -0.3686  0.5165  0.6374
 2946SOL     OW11555   2.553   2.745   5.445  0.2435  0.5673  0.2654
 2946SOL    HW211556   2.629   2.706   5.401  0.2677  0.2356  0.5953
 2946SOL    HW311557   2.572   2.735   5.538  0.0125  0.9130  0.3527
 2946SOL    MW411558   2.566   2.738   5.451  0.2162  0.5691  0.3205
 2947SOL     OW11559   1.460   3.933   0.712  0.2977 -0.2168  0.1401
 2947SOL    HW211560   1.380   3.959   0.758  1.0507 -0.0756  1.4297
 2947SOL    HW311561   1.467   3.839   0.730  0.8611 -0.0635  0.7715
 2947SOL    MW411562   1.450   3.924   0.721  0.4714 -0.1780  0.3935
 2948SOL     OW11563   3.581   0.305   4.601  0.0529 -0.0421 -0.0523
 2948SOL    HW211564   3.645   0.298   4.530  0.0723 -2.0904  0.0903
 2948SOL    HW311565   3.534   0.386   4.583 -0.0714 -0.5919 -2.5579
 2948SOL    MW411566   3.583   0.315   4.589  0.0391 -0.3849 -0.3640
 2949SOL     OW11567   4.840   4.733   3.175 -0.1838 -0.1000 -0.0542
 2949SOL    HW211568   4.907   4.668   3.156 -0.4933 -0.8418  1.2375
 2949SOL    HW311569   4.873   4.781   3.252 -1.3573 -0.9017  1.0032
 2949SOL    MW411570   4.853   4.731   3.183 -0.3794 -0.3036  0.2558
 2950SOL     OW11571   0.130   4.842   0.803 -0.3863 -0.2551 -0.7310
 2950SOL    HW211572   0.069   4.916   0.803  0.6384  0.6286  0.9098
 2950SOL    HW311573   0.078   4.769   0.769 -1.5347  1.0960 -2.0231
 2950SOL    MW411574   0.115   4.842   0.798 -0.4026  0.0397 -0.6850
 2951SOL     OW11575   6.163   1.798   4.949  0.8833 -0.1232 -0.1799
 2951SOL    HW211576   6.239   1.740   4.956  0.9502 -0.5485 -3.1645
 2951SOL    HW311577   6.196   1.885   4.973  1.5527 -0.7506  1.2947
 2951SOL    MW411578   6.177   1.802   4.953  0.9804 -0.2621 -0.3791
 2952SOL     OW11579   5.108   5.969   5.108 -0.1705  0.9094  0.4440
 2952SOL    HW211580   5.038   6.023   5.072  0.2372  0.7084 -0.7193
 2952SOL    HW311581   5.066   5.885   5.128 -0.1164  0.4834 -1.0924
 2952SOL    MW411582   5.094   5.965   5.106 -0.1096  0.8267  0.0878
 2953SOL     OW11583   5.046   3.976   4.126  0.1109 -0.2635  0.0986
 2953SOL    HW211584   5.027   4.003   4.216 -0.0515  2.3504 -0.6221
 2953SOL    HW311585   5.126   3.925   4.132  1.4500  1.8641  1.4996
 2953SOL    MW411586   5.054   3.973   4.139  0.2661  0.3621  0.1884
 2954SOL     OW11587   2.649   2.878   3.248 -0.3455 -0.9113  0.0133
 2954SOL    HW211588   2.598   2.855   3.171  0.3260  0.6795 -0.9637
 2954SOL    HW311589   2.602   2.837   3.321 -1.7281 -1.3740 -1.0838
 2954SOL    MW411590   2.636   2.870   3.247 -0.4393 -0.7624 -0.2603
 2955SOL     OW11591   4.380   6.265   6.230  0.0901 -0.1735 -0.1196
 2955SOL    HW211592   4.300   6.213   6.226 -0.5259  0.7850 -0.5699
 2955SOL    HW311593   4.447   6.209   6.190 -0.1165 -1.3630  1.1246
 2955SOL    MW411594   4.379   6.251   6.224 -0.0184 -0.2040 -0.0148
 2956SOL     OW11595   2.167   5.108   4.969 -0.3262 -0.0933  0.0857
 2956SOL    HW211596   2.219   5.073   4.896  0.9720  0.1122  0.8788
 2956SOL    HW311597   2.078   5.081   4.950  0.2246 -1.4132 -0.7701
 2956SOL    MW411598   2.162   5.100   4.957 -0.0822 -0.2403  0.0774
 2957SOL     OW11599   1.153   2.223   2.796 -0.1833  0.0367 -0.6250
 2957SOL    HW211600   1.108   2.167   2.733  0.5110  1.0230 -2.0626
 2957SOL    HW311601   1.221   2.168   2.833  0.8811  0.0327 -2.4526
 2957SOL    MW411602   1.156   2.209   2.792  0.0487  0.1663 -1.0558
 2958SOL     OW11603   1.074   0.792   6.277  0.2317  0.1668 -0.0670
 2958SOL    HW211604   1.041   0.779   6.366 -1.5584 -1.6268 -0.9086
 2958SOL    HW311605   0.995   0.808   6.225  1.2541  1.2309 -1.3570
 2958SOL    MW411606   1.059   0.792   6.282  0.1304  0.0705 -0.3482
 2959SOL     OW11607   2.414   2.429   4.660 -0.2980 -0.2332 -0.9008
 2959SOL    HW211608   2.431   2.389   4.745 -2.3466  1.2126  0.2794
 2959SOL    HW311609   2.477   2.387   4.601  1.0655 -1.4307  1.2520
 2959SOL    MW411610   2.425   2.418   4.663 -0.3884 -0.2004 -0.4611
 2960SOL     OW11611   0.318   6.295   1.602  0.1130 -0.5561 -0.1243
 2960SOL    HW211612   0.236   6.247   1.606 -0.6636  0.7007 -0.3497
 2960SOL    HW311613   0.319   6.333   1.513 -0.9010  2.4565  1.0102
 2960SOL    MW411614   0.308   6.294   1.591 -0.1233  0.0072 -0.0043
 2961SOL     OW11615   4.921   5.004   4.587 -0.1601  0.2708 -0.1052
 2961SOL    HW211616   4.912   5.081   4.644 -0.7330  1.3611 -1.5821
 2961SOL    HW311617   4.834   4.964   4.587  0.1366 -0.4033  0.6586
 2961SOL    MW411618   4.909   5.009   4.595 -0.1965  0.3257 -0.1993
 2962SOL     OW11619   2.829   6.375   5.454 -0.2444 -0.5946  0.2146
 2962SOL    HW211620   2.876   6.376   5.371  0.8370 -0.0995  0.8084
 2962SOL    HW311621   2.774   6.453   5.451 -0.4053 -0.7236 -0.1521
 2962SOL    MW411622   2.828   6.386   5.443 -0.1230 -0.5463  0.2445
 2963SOL     OW11623   5.796   2.735   4.131 -0.0412 -0.5210 -0.5878
 2963SOL    HW211624   5.781   2.748   4.037 -1.2820 -1.1282 -0.4982
 2963SOL    HW311625   5.708   2.737   4.170  0.5446  1.1149  0.7644
 2963SOL    MW411626   5.782   2.737   4.124 -0.1276 -0.3852 -0.3976
 2964SOL     OW11627   0.758   5.236   2.079 -0.2168  0.0642 -0.4220
 2964SOL    HW211628   0.770   5.328   2.054 -1.5835  0.5490  0.5822
 2964SOL    HW311629   0.758   5.236   2.174 -0.3637 -0.9567 -0.4037
 2964SOL    MW411630   0.759   5.248   2.088 -0.4165 -0.0065 -0.2871
 2965SOL     OW11631   1.165   1.525   5.646 -0.4628  0.3749  0.5410
 2965SOL    HW211632   1.187   1.466   5.718 -0.8002  1.4503  1.5680
 2965SOL    HW311633   1.182   1.474   5.567 -2.6426 -1.8384  1.3348
 2965SOL    MW411634   1.170   1.510   5.645 -0.7949  0.2248  0.7813
 2966SOL     OW11635   2.770   3.018   0.275  0.0982  0.3630 -0.1055
 2966SOL    HW211636   2.763   2.977   0.362  1.3999 -0.2631 -0.2625
 2966SOL    HW311637   2.679   3.034   0.249 -0.3190  0.5546  1.3603
 2966SOL    MW411638   2.757   3.014   0.283  0.2149  0.3057  0.0672
 2967SOL     OW11639   4.516   5.639   0.584 -0.3565 -0.1200  0.0618
 2967SOL    HW211640   4.446   5.575   0.601 -0.6154  0.0305 -0.4292
 2967SOL    HW311641   4.579   5.624   0.655 -0.6716 -0.5586  0.2575
 2967SOL    MW411642   4.515   5.628   0.595 -0.4322 -0.1580  0.0229
 2968SOL     OW11643   4.894   1.601   3.403  0.0732  0.2919  0.4408
 2968SOL    HW211644   4.851   1.556   3.476 -2.7367  0.9949 -0.6788
 2968SOL    HW311645   4.848   1.684   3.395  0.2806  0.2222 -2.1579
 2968SOL    MW411646   4.882   1.606   3.412 -0.2701  0.3755 -0.0498
 2969SOL     OW11647   3.290   1.448   3.427  0.1121  0.5579  0.0778
 2969SOL    HW211648   3.254   1.445   3.515 -0.4328 -1.7560 -0.1739
 2969SOL    HW311649   3.215   1.434   3.369  0.7931 -0.2206 -0.6442
 2969SOL    MW411650   3.276   1.446   3.431  0.1300  0.1499 -0.0507
 2970SOL     OW11651   1.911   2.474   5.808  0.0369 -0.2200  0.3182
 2970SOL    HW211652   1.916   2.408   5.739 -0.6769  0.3157 -0.2610
 2970SOL    HW311653   1.817   2.482   5.827  0.3050 -1.4624  2.4514
 2970SOL    MW411654   1.899   2.466   5.801 -0.0219 -0.3132  0.5232
 2971SOL     OW11655   0.002   1.501   0.105  0.8862  0.0919  0.1099
 2971SOL    HW211656  -0.089   1.527   0.122  0.6089 -1.7523  1.9538
 2971SOL    HW311657   0.000   1.463   0.017 -0.4212 -0.9791  0.5602
 2971SOL    MW411658  -0.010   1.500   0.096  0.6771 -0.2927  0.4126
 2972SOL     OW11659   3.990   5.679   2.907  0.1830  0.3524  0.1359
 2972SOL    HW211660   3.940   5.642   2.834 -2.8059  1.9219  1.1972
 2972SOL    HW311661   3.942   5.650   2.985  0.7256  2.2427  1.2257
 2972SOL    MW411662   3.977   5.670   2.908 -0.1398  0.8089  0.4197
 2973SOL     OW11663   3.524   5.316   1.855  0.3917  0.0520  0.7751
 2973SOL    HW211664   3.520   5.401   1.899  0.1886  0.8583 -0.7303
 2973SOL    HW311665   3.596   5.325   1.792 -1.3406  0.1051 -1.2987
 2973SOL    MW411666   3.533   5.328   1.852  0.1364  0.1654  0.3029
 2974SOL     OW11667   0.220   2.905   3.121  0.1291 -0.3734 -0.5239
 2974SOL    HW211668   0.282   2.842   3.159 -0.7009 -0.8292  0.1166
 2974SOL    HW311669   0.176   2.856   3.052  1.1921  0.2650 -1.6872
 2974SOL    MW411670   0.222   2.890   3.117  0.1598 -0.3493 -0.5929
 2975SOL     OW11671   4.621   2.152   5.181 -0.1843 -0.7210 -0.2288
 2975SOL    HW211672   4.688   2.084   5.184  1.2859  0.6396 -0.9791
 2975SOL    HW311673   4.579   2.140   5.096 -0.8418 -1.4879  0.1854
 2975SOL    MW411674   4.624   2.141   5.170 -0.0770 -0.6427 -0.2731
 2976SOL     OW11675   3.865   6.188   2.269  0.4247  0.7510 -0.1633
 2976SOL    HW211676   3.815   6.160   2.345 -0.2725  0.5784 -0.6758
 2976SOL    HW311677   3.937   6.240   2.305  0.2927  0.3958  0.6268
 2976SOL    MW411678   3.868   6.192   2.284  0.3153  0.6814 -0.1266
 2977SOL     OW11679   6.134   0.586   3.164 -0.4018  0.2212 -0.4424
 2977SOL    HW211680   6.117   0.545   3.249 -1.9863  2.1381  0.2282
 2977SOL    HW311681   6.153   0.512   3.106  0.0441 -1.1967  1.3984
 2977SOL    MW411682   6.134   0.571   3.168 -0.5520  0.2870 -0.1111
 2978SOL     OW11683   3.845   2.274   5.495 -0.6147 -0.4903  0.2039
 2978SOL    HW211684   3.786   2.301   5.565  0.1562 -0.2902  0.7969
 2978SOL    HW311685   3.917   2.229   5.540 -0.8099 -1.6515 -0.5852
 2978SOL    MW411686   3.847   2.271   5.510 -0.5388 -0.6171  0.1780
 2979SOL     OW11687   4.127   2.909   4.345 -0.2901  0.2589  0.3404
 2979SOL    HW211688   4.099   2.883   4.257 -1.5870  1.3138  0.4069
 2979SOL    HW311689   4.219   2.934   4.334 -0.5877  0.9213 -0.8507
 2979SOL    MW411690   4.136   2.909   4.332 -0.5005  0.4855  0.1920
 2980SOL     OW11691   4.062   0.685   1.163  0.2643 -0.3815 -0.2190
 2980SOL    HW211692   3.972   0.667   1.188  0.1673  1.2533  0.7495
 2980SOL    HW311693   4.057   0.758   1.102  0.9255 -0.5690 -0.5178
 2980SOL    MW411694   4.050   0.692   1.158  0.3387 -0.1905 -0.1307
 2981SOL     OW11695   0.396   5.897   2.657  0.0245  0.0912 -0.4979
 2981SOL    HW211696   0.378   5.897   2.564  1.6160  2.1472 -0.8854
 2981SOL    HW311697   0.454   5.972   2.671 -1.1608  0.6326  2.3532
 2981SOL    MW411698   0.402   5.907   2.647  0.0781  0.4339 -0.1729
 2982SOL     OW11699   6.007   4.887   0.261  0.0967 -0.1049  0.1357
 2982SOL    HW211700   5.918   4.920   0.250  1.1889  3.6737  1.2272
 2982SOL    HW311701   5.996   4.793   0.273 -3.7035  0.1811  0.1580
 2982SOL    MW411702   5.993   4.879   0.261 -0.2606  0.4314  0.2826
 2983SOL     OW11703   1.548   1.844   4.587 -0.1038 -0.4613 -0.1244
 2983SOL    HW211704   1.495   1.788   4.644 -0.7037 -0.2790 -0.4882
 2983SOL    HW311705   1.628   1.793   4.572 -0.0760 -0.6489  0.6047
 2983SOL    MW411706   1.551   1.830   4.592 -0.1793 -0.4620 -0.0762
 2984SOL     OW11707   1.976   3.438   0.501  0.4602 -0.1739 -0.1486
 2984SOL    HW211708   2.025   3.433   0.584 -0.1685  0.5158  0.2796
 2984SOL    HW311709   1.985   3.530   0.474 -0.2961 -0.1290 -0.2495
 2984SOL    MW411710   1.984   3.450   0.509  0.2774 -0.0770 -0.1054
 2985SOL     OW11711   3.203   4.324   2.584 -0.5242  1.0910 -0.0621
 2985SOL    HW211712   3.159   4.244   2.613 -0.4558  1.1105  0.0995
 2985SOL    HW311713   3.294   4.313   2.615 -0.4571  1.1239 -0.2486
 2985SOL    MW411714   3.210   4.312   2.592 -0.5063  1.0979 -0.0654
 2986SOL     OW11715   2.212   4.286   5.002  0.1424 -0.3273  1.0903
 2986SOL    HW211716   2.256   4.314   5.082  1.1463 -1.5015  0.9876
 2986SOL    HW311717   2.223   4.191   5.001 -1.7006 -0.5579  0.6131
 2986SOL    MW411718   2.220   4.277   5.012  0.0317 -0.5127  1.0138
 2987SOL     OW11719   4.789   6.367   5.114  0.1892  0.0647  0.3168
 2987SOL    HW211720   4.814   6.380   5.023  1.8921 -0.7159  0.6154
 2987SOL    HW311721   4.767   6.274   5.120 -1.7853  0.4909  0.3354
 2987SOL    MW411722   4.789   6.356   5.103  0.1534  0.0180  0.3587
 2988SOL     OW11723   3.424   1.944   0.352 -0.5446  0.0770 -0.0978
 2988SOL    HW211724   3.519   1.942   0.348 -0.5829  0.2412 -2.6694
 2988SOL    HW311725   3.404   1.940   0.445  1.9511 -0.4010  0.4893
 2988SOL    MW411726   3.434   1.943   0.364 -0.2204  0.0356 -0.3596
 2989SOL     OW11727   4.137   4.759   4.952 -0.0848 -0.1467  0.2549
 2989SOL    HW211728   4.041   4.753   4.955 -0.2596 -0.3662 -2.8044
 2989SOL    HW311729   4.154   4.849   4.924  0.5332 -0.4230 -0.2788
 2989SOL    MW411730   4.126   4.770   4.949 -0.0263 -0.2121 -0.2192
 2990SOL     OW11731   3.365   3.832   1.600  0.0105 -0.4925  0.9278
 2990SOL    HW211732   3.350   3.759   1.541  0.0075  1.9688 -2.4400
 2990SOL    HW311733   3.280   3.847   1.643 -0.1197 -2.0622  1.2491
 2990SOL    MW411734   3.351   3.825   1.598 -0.0071 -0.3749  0.5259
 2991SOL     OW11735   4.340   0.870   1.931  0.4509 -0.0568  0.0881
 2991SOL    HW211736   4.250   0.898   1.917 -0.0113 -0.5630  1.8293
 2991SOL    HW311737   4.393   0.946   1.906 -0.3565 -0.1294 -1.9930
 2991SOL    MW411738   4.335   0.884   1.926  0.2834 -0.1332  0.0433
 2992SOL     OW11739   1.687   3.015   4.751 -0.2230 -0.3139  0.2300
 2992SOL    HW211740   1.672   3.052   4.664 -2.4704 -1.1042  0.2054
 2992SOL    HW311741   1.609   3.040   4.802  0.7714 -0.3658  1.8429
 2992SOL    MW411742   1.674   3.023   4.746 -0.3883 -0.4250  0.4395
 2993SOL     OW11743   1.094   3.173   6.256 -0.2800 -0.0334  0.2243
 2993SOL    HW211744   1.032   3.244   6.239 -0.3306  0.3646  1.8583
 2993SOL    HW311745   1.066   3.102   6.199 -0.7197  0.9724 -0.8573
 2993SOL    MW411746   1.082   3.173   6.246 -0.3447  0.1518  0.2972
 2994SOL     OW11747   1.642   5.260   2.750  0.3647 -0.5314 -0.3247
 2994SOL    HW211748   1.686   5.193   2.698 -0.8882 -1.0441 -0.7829
 2994SOL    HW311749   1.699   5.275   2.825  0.8764 -1.7956 -0.4472
 2994SOL    MW411750   1.655   5.253   2.753  0.2669 -0.7658 -0.4013
 2995SOL     OW11751   2.941   5.023   5.286  0.6850  0.2287  0.7530
 2995SOL    HW211752   2.853   5.061   5.286  0.5221 -0.0870 -0.8461
 2995SOL    HW311753   2.925   4.928   5.294  0.7774  0.0455 -0.9311
 2995SOL    MW411754   2.927   5.015   5.287  0.6757  0.1628  0.3198
 2996SOL     OW11755   6.161   2.552   4.401  0.6366  0.5094  0.2556
 2996SOL    HW211756   6.127   2.640   4.383 -1.1227 -0.2473 -0.3806
 2996SOL    HW311757   6.186   2.518   4.316  0.6124  0.1236  0.4032
 2996SOL    MW411758   6.160   2.559   4.388  0.4013  0.3586  0.1911
 2997SOL     OW11759   0.972   2.092   0.937 -0.1341  0.3888  0.0019
 2997SOL    HW211760   0.933   2.153   1.000 -0.5270  0.9563 -0.7749
 2997SOL    HW311761   1.008   2.022   0.991 -0.5813  0.7971  0.8518
 2997SOL    MW411762   0.972   2.091   0.953 -0.2449  0.5175  0.0115
 2998SOL     OW11763   0.827   4.979   5.649 -0.1795  0.4419 -0.7073
 2998SOL    HW211764   0.833   5.051   5.711 -0.6520  0.1849 -0.3582
 2998SOL    HW311765   0.875   5.009   5.572  0.6865  0.6358 -0.1060
 2998SOL    MW411766   0.834   4.992   5.647 -0.1276  0.4336 -0.5819
 2999SOL     OW11767   4.096   5.464   5.332 -0.3389  0.0940 -0.3028
 2999SOL    HW211768   4.143   5.452   5.250 -1.7168 -1.8459 -0.8951
 2999SOL    HW311769   4.028   5.528   5.311  0.5272  1.1094 -0.0923
 2999SOL    MW411770   4.093   5.471   5.318 -0.4064 -0.0280 -0.3531
 3000SOL     OW11771   2.065   0.543   6.003  0.7331 -0.3540 -0.5363
 3000SOL    HW211772   2.050   0.513   6.093  0.9742  2.8618  0.7073
 3000SOL    HW311773   2.156   0.519   5.984  0.3306 -2.0958 -0.4310
 3000SOL    MW411774   2.075   0.536   6.012  0.7118 -0.1596 -0.3583
 3001SOL     OW11775   0.646   1.119   0.984  0.3227 -0.2481 -0.2843
 3001SOL    HW211776   0.728   1.127   1.032 -0.4046  0.1309  0.9342
 3001SOL    HW311777   0.584   1.174   1.031 -1.1561 -2.0529  0.0386
 3001SOL    MW411778   0.649   1.127   0.996  0.0316 -0.4363 -0.0809
 3002SOL     OW11779   0.814   3.761   3.046 -0.0030 -0.0342 -0.0834
 3002SOL    HW211780   0.829   3.840   3.097 -1.0598 -1.4887  2.7585
 3002SOL    HW311781   0.899   3.740   3.008  1.4568  0.1401  2.7837
 3002SOL    MW411782   0.827   3.768   3.048  0.0502 -0.2031  0.6698
 3003SOL     OW11783   6.179   0.282   3.838 -0.0062 -0.3079  0.2929
 3003SOL    HW211784   6.098   0.329   3.821  0.6204  1.1139  0.9943
 3003SOL    HW311785   6.235   0.303   3.763 -0.2849 -1.2842 -0.1905
 3003SOL    MW411786   6.176   0.291   3.826  0.0397 -0.2491  0.3216
 3004SOL     OW11787   3.929   4.801   5.220  0.0479  0.5487  0.8134
 3004SOL    HW211788   3.857   4.852   5.256 -0.3710  0.6770 -0.1690
 3004SOL    HW311789   3.889   4.748   5.151  0.6275 -0.4896  1.2559
 3004SOL    MW411790   3.914   4.801   5.215  0.0691  0.4286  0.7421
 3005SOL     OW11791   0.893   1.390   5.391 -0.5408 -0.5372 -0.2152
 3005SOL    HW211792   0.987   1.376   5.401 -0.1628  1.4831 -0.5376
 3005SOL    HW311793   0.858   1.385   5.479  0.2743  1.1156  0.2347
 3005SOL    MW411794   0.901   1.388   5.404 -0.3834 -0.0526 -0.1984
 3006SOL     OW11795   0.971   3.734   6.012  0.0718  0.4572 -0.0996
 3006SOL    HW211796   1.006   3.668   5.952 -1.9716 -0.0015 -0.8751
 3006SOL    HW311797   0.879   3.709   6.025 -0.2037  1.9597  1.2792
 3006SOL    MW411798   0.963   3.722   6.006 -0.2342  0.5949 -0.0200
 3007SOL     OW11799   2.128   4.071   4.197 -0.6531 -0.8506 -0.2629
 3007SOL    HW211800   2.042   4.084   4.157 -0.6181 -0.8746 -0.3454
 3007SOL    HW311801   2.190   4.114   4.138 -0.8069  0.9624  0.8268
 3007SOL    MW411802   2.125   4.078   4.184 -0.6688 -0.6146 -0.1300
 3008SOL     OW11803   3.897   3.113   0.957 -0.1720 -0.3303  0.3420
 3008SOL    HW211804   3.881   3.067   0.874  1.2293 -0.8167  0.2995
 3008SOL    HW311805   3.810   3.126   0.995 -0.6826 -2.9809  0.3132
 3008SOL    MW411806   3.884   3.109   0.951 -0.0545 -0.7442  0.3326
 3009SOL     OW11807   6.043   0.639   3.638  0.0995  0.0405  0.2392
 3009SOL    HW211808   6.023   0.582   3.712  0.5990 -0.9527 -0.3723
 3009SOL    HW311809   5.959   0.679   3.615 -0.5590 -1.5278 -0.1998
 3009SOL    MW411810   6.029   0.637   3.644  0.0785 -0.2975  0.1006
 3010SOL     OW11811   1.058   6.438   0.844 -0.3009 -1.0864  0.2388
 3010SOL    HW211812   0.988   6.409   0.786  0.6726 -1.5908 -0.7222
 3010SOL    HW311813   1.038   6.530   0.862 -0.9141 -1.0743 -0.4646
 3010SOL    MW411814   1.046   6.446   0.839 -0.2533 -1.1514  0.0192
 3011SOL     OW11815   5.185   1.427   2.437  0.2953  0.0834 -0.6180
 3011SOL    HW211816   5.222   1.504   2.480 -1.4067  0.5339  0.1323
 3011SOL    HW311817   5.124   1.391   2.501 -0.1506 -0.9307 -1.5804
 3011SOL    MW411818   5.182   1.432   2.451  0.0119  0.0090 -0.6460
 3012SOL     OW11819   5.690   0.780   0.522  0.3763  0.0938  0.7148
 3012SOL    HW211820   5.772   0.824   0.501  0.4166 -0.8167 -1.3533
 3012SOL    HW311821   5.626   0.851   0.530  1.1771  0.7529  1.4512
 3012SOL    MW411822   5.692   0.795   0.520  0.4873  0.0606  0.5391
 3013SOL     OW11823   2.242   4.794   6.119  0.4558  0.0850 -0.0866
 3013SOL    HW211824   2.283   4.761   6.199  0.0734  0.7378  0.3855
 3013SOL    HW311825   2.180   4.860   6.149 -1.0804 -1.0040 -0.7876
 3013SOL    MW411826   2.239   4.798   6.134  0.2027  0.0274 -0.1168
 3014SOL     OW11827   1.459   3.289   5.144 -0.2860  0.2091  0.3579
 3014SOL    HW211828   1.530   3.225   5.149 -0.8381 -0.3502  1.5614
 3014SOL    HW311829   1.499   3.373   5.166  0.5427  0.3985 -1.6711
 3014SOL    MW411830   1.474   3.291   5.148 -0.2495  0.1603  0.2490
 3015SOL     OW11831   1.381   4.794   4.501 -0.7353 -0.1286  0.4063
 3015SOL    HW211832   1.452   4.782   4.564 -1.0385 -2.7511  0.3442
 3015SOL    HW311833   1.422   4.835   4.425 -0.2207  2.4166  1.9568
 3015SOL    MW411834   1.395   4.798   4.499 -0.7074 -0.1388  0.6027
 3016SOL     OW11835   3.807   1.333   2.850 -0.3826  0.6099  0.0829
 3016SOL    HW211836   3.719   1.296   2.860  0.0804 -0.5456  0.0653
 3016SOL    HW311837   3.815   1.397   2.921 -0.3809 -0.9950  1.5888
 3016SOL    MW411838   3.796   1.336   2.860 -0.3213  0.2457  0.2792
 3017SOL     OW11839   5.285   5.378   2.446 -0.2004  0.4499 -0.1079
 3017SOL    HW211840   5.194   5.390   2.471  0.0416  0.0035  1.0179
 3017SOL    HW311841   5.281   5.326   2.366 -1.0224  2.8460 -1.7659
 3017SOL    MW411842   5.273   5.373   2.438 -0.2769  0.7071 -0.1782
 3018SOL     OW11843   3.981   4.424   4.871  0.2226 -0.3208  0.5600
 3018SOL    HW211844   3.925   4.348   4.856  0.5383 -0.4902  0.2329
 3018SOL    HW311845   4.067   4.386   4.892  0.7587 -0.0588 -1.0320
 3018SOL    MW411846   3.985   4.409   4.872  0.3350 -0.3086  0.3068
 3019SOL     OW11847   4.007   6.451   6.432 -0.7448 -0.3353  0.2421
 3019SOL    HW211848   3.981   6.530   6.480 -1.8503  0.3112 -1.3266
 3019SOL    HW311849   3.924   6.407   6.413 -0.1641 -1.7008  0.7800
 3019SOL    MW411850   3.992   6.456   6.436 -0.8140 -0.4301  0.1061
 3020SOL     OW11851   3.472   6.330   1.943 -0.1130  0.7819 -0.5286
 3020SOL    HW211852   3.432   6.247   1.919 -0.7385  0.8637  0.2031
 3020SOL    HW311853   3.443   6.392   1.876 -0.1952  0.5650 -0.6923
 3020SOL    MW411854   3.463   6.327   1.931 -0.2064  0.7641 -0.4536
 3021SOL     OW11855   5.867   5.287   3.106 -0.2056 -0.1427  0.2713
 3021SOL    HW211856   5.927   5.221   3.143 -0.2825 -0.5689 -0.3565
 3021SOL    HW311857   5.924   5.358   3.079  0.1210 -0.8487 -0.9893
 3021SOL    MW411858   5.882   5.287   3.108 -0.1727 -0.2920  0.0222
 3022SOL     OW11859   5.261   4.765   6.277  0.6378 -0.2494 -0.0904
 3022SOL    HW211860   5.263   4.709   6.199  1.2914 -0.5587  0.1410
 3022SOL    HW311861   5.321   4.723   6.338  0.1081 -0.0257  0.6002
 3022SOL    MW411862   5.269   4.752   6.275  0.6541 -0.2607  0.0313
 3023SOL     OW11863   0.785   4.377   1.666  0.5340  0.4371 -0.1152
 3023SOL    HW211864   0.858   4.428   1.632  1.1144 -0.1095  0.3015
 3023SOL    HW311865   0.822   4.325   1.737 -0.5830  1.3427  1.2125
 3023SOL    MW411866   0.799   4.377   1.671  0.4632  0.4845  0.1149
 3024SOL     OW11867   2.560   0.292   5.884  0.1046 -0.0886 -0.3131
 3024SOL    HW211868   2.536   0.214   5.935  1.1032 -0.1210  0.1183
 3024SOL    HW311869   2.637   0.326   5.928 -0.0633  0.8990 -0.7698
 3024SOL    MW411870   2.567   0.286   5.897  0.2142  0.0374 -0.3165
 3025SOL     OW11871   3.394   3.700   5.607  0.0415 -0.3027  0.1822
 3025SOL    HW211872   3.352   3.783   5.586  2.4147  1.5121  2.0225
 3025SOL    HW311873   3.473   3.699   5.553  1.1126 -0.2938  1.6843
 3025SOL    MW411874   3.399   3.711   5.597  0.4959 -0.0621  0.6232
 3026SOL     OW11875   0.654   0.600   1.298 -0.4125  0.3355 -0.3709
 3026SOL    HW211876   0.628   0.676   1.247 -2.0101  0.9730  1.2768
 3026SOL    HW311877   0.643   0.526   1.238 -0.6599  1.2058 -1.4223
 3026SOL    MW411878   0.649   0.600   1.284 -0.6559  0.5345 -0.2922
 3027SOL     OW11879   5.753   4.579   2.276  0.3695  0.1330 -0.4536
 3027SOL    HW211880   5.800   4.525   2.340  0.7031  1.9425  0.8863
 3027SOL    HW311881   5.810   4.577   2.198 -0.5780 -2.9905 -1.2128
 3027SOL    MW411882   5.767   4.571   2.274  0.2885 -0.0403 -0.3770
 3028SOL     OW11883   0.032   1.169   4.887 -0.1229  0.2392  0.5392
 3028SOL    HW211884   0.021   1.087   4.935 -0.7549  0.3810  0.6414
 3028SOL    HW311885   0.042   1.236   4.955  1.3189  0.1451  0.4615
 3028SOL    MW411886   0.032   1.167   4.902 -0.0161  0.2455  0.5424
 3029SOL     OW11887   0.255   4.156   3.578  0.1799 -0.4491  0.7331
 3029SOL    HW211888   0.305   4.152   3.659  1.3962 -0.0537  0.0224
 3029SOL    HW311889   0.225   4.247   3.572  1.3750 -0.0779  0.0155
 3029SOL    MW411890   0.258   4.167   3.588  0.4980 -0.3480  0.5447
 3030SOL     OW11891   4.796   2.046   0.416 -0.2261 -0.2765  0.7491
 3030SOL    HW211892   4.761   2.045   0.327 -1.6998 -0.5456  1.2846
 3030SOL    HW311893   4.867   2.110   0.414 -0.5851  0.1158 -0.4951
 3030SOL    MW411894   4.800   2.054   0.404 -0.4679 -0.2603  0.6556
 3031SOL     OW11895   0.780   4.627   1.244 -0.1005  0.4148  0.0940
 3031SOL    HW211896   0.790   4.689   1.172  1.1494  0.1416  0.0062
 3031SOL    HW311897   0.842   4.657   1.310 -1.8623  1.1933  1.4760
 3031SOL    MW411898   0.790   4.639   1.243 -0.1681  0.4815  0.2647
 3032SOL     OW11899   2.323   5.354   3.999 -0.2655 -0.3480 -0.4279
 3032SOL    HW211900   2.233   5.387   4.003 -0.1134  0.0369 -0.0620
 3032SOL    HW311901   2.365   5.407   3.932 -0.1487 -0.1101 -0.1700
 3032SOL    MW411902   2.317   5.365   3.991 -0.2300 -0.2659 -0.3456
 3033SOL     OW11903   3.221   4.847   3.862 -0.8864  0.4614  0.0038
 3033SOL    HW211904   3.189   4.900   3.935  1.4674  0.4009  1.1442
 3033SOL    HW311905   3.243   4.910   3.794 -0.9383  0.7048  0.2117
 3033SOL    MW411906   3.219   4.862   3.863 -0.5827  0.4855  0.1817
 3034SOL     OW11907   2.425   6.302   1.408  0.7271 -0.1024  0.0688
 3034SOL    HW211908   2.393   6.392   1.415  1.9272  0.5322 -1.9424
 3034SOL    HW311909   2.517   6.311   1.384  1.2017 -1.8958  1.0466
 3034SOL    MW411910   2.433   6.315   1.406  0.9480 -0.2553 -0.0676
 3035SOL     OW11911   4.707   1.382   0.024 -0.2598  0.3658  0.1639
 3035SOL    HW211912   4.711   1.304   0.080 -1.1720  0.5771  0.5328
 3035SOL    HW311913   4.766   1.444   0.066 -0.9787  0.5422  0.9415
 3035SOL    MW411914   4.715   1.380   0.037 -0.4750  0.4169  0.3151
 3036SOL     OW11915   5.626   5.585   6.204 -0.6536  0.1269 -0.1231
 3036SOL    HW211916   5.540   5.573   6.164 -0.6651 -0.0855 -0.0333
 3036SOL    HW311917   5.607   5.620   6.291 -0.6991 -0.9496  0.3146
 3036SOL    MW411918   5.612   5.588   6.210 -0.6611 -0.0432 -0.0535
 3037SOL     OW11919   5.258   1.145   2.505  0.1969 -0.0173 -0.5790
 3037SOL    HW211920   5.214   1.226   2.478  0.1617  0.5990  1.1423
 3037SOL    HW311921   5.350   1.159   2.483 -0.0011 -0.0421 -1.4378
 3037SOL    MW411922   5.264   1.157   2.499  0.1661  0.0607 -0.4652
 3038SOL     OW11923   5.552   2.805   1.963  0.1570 -0.0394  0.3876
 3038SOL    HW211924   5.626   2.825   1.905  0.7716 -1.6817  0.5732
 3038SOL    HW311925   5.593   2.782   2.046 -0.6094 -0.2914  0.6949
 3038SOL    MW411926   5.567   2.805   1.966  0.1370 -0.2893  0.4526
 3039SOL     OW11927   0.851   1.366   0.187  0.3216  0.3621  0.5734
 3039SOL    HW211928   0.765   1.338   0.154 -1.1097  1.1119  3.2961
 3039SOL    HW311929   0.905   1.288   0.184 -0.9348 -0.5260  0.1646
 3039SOL    MW411930   0.847   1.352   0.182 -0.0330  0.3439  0.8787
 3040SOL     OW11931   6.223   5.461   4.975 -0.0995  0.0089  0.1034
 3040SOL    HW211932   6.139   5.451   4.929 -0.3895  1.2469  0.3251
 3040SOL    HW311933   6.283   5.404   4.926 -0.9667 -0.5955 -0.3003
 3040SOL    MW411934   6.220   5.452   4.962 -0.2522  0.0925  0.0794
 3041SOL     OW11935   2.557   5.669   5.728 -0.2828  0.2814  0.2486
 3041SOL    HW211936   2.637   5.711   5.699  0.5111 -0.9539  0.5494
 3041SOL    HW311937   2.514   5.734   5.783 -0.2041  1.4640 -1.0549
 3041SOL    MW411938   2.562   5.683   5.732 -0.1677  0.2744  0.1163
 3042SOL     OW11939   2.742   4.292   6.295 -0.1275 -0.1374  0.4455
 3042SOL    HW211940   2.694   4.335   6.366 -0.0710  0.3359  0.2009
 3042SOL    HW311941   2.679   4.229   6.259 -1.4572  2.0839 -1.3975
 3042SOL    MW411942   2.727   4.289   6.300 -0.2955  0.2181  0.1700
 3043SOL     OW11943   2.833   3.603   4.281 -0.6817  0.4039  0.4379
 3043SOL    HW211944   2.907   3.542   4.287 -1.4379 -0.6428 -0.3426
 3043SOL    HW311945   2.764   3.561   4.332 -1.5989 -0.0168 -1.0828
 3043SOL    MW411946   2.834   3.589   4.288 -0.9025  0.2103  0.1343
 3044SOL     OW11947   2.222   6.394   6.329 -0.0237  0.4593  0.1897
 3044SOL    HW211948   2.200   6.312   6.285  2.2839 -1.4002  2.2342
 3044SOL    HW311949   2.280   6.439   6.268  0.8581 -0.7389  0.0996
 3044SOL    MW411950   2.227   6.389   6.315  0.3971  0.0559  0.4476
 3045SOL     OW11951   0.257   0.404   4.025 -0.6318  0.2743 -0.6133
 3045SOL    HW211952   0.294   0.409   4.114 -2.2859 -2.2474  0.3219
 3045SOL    HW311953   0.333   0.401   3.968  0.5237  0.1358  0.8572
 3045SOL    MW411954   0.272   0.404   4.029 -0.6976 -0.0767 -0.2959
 3046SOL     OW11955   0.136   1.985   3.857  0.0127  0.2958  0.2853
 3046SOL    HW211956   0.196   1.950   3.923 -1.1039 -1.4060  0.4609
 3046SOL    HW311957   0.078   2.043   3.906 -0.1212 -0.1049  0.6081
 3046SOL    MW411958   0.136   1.988   3.872 -0.1523  0.0184  0.3511
 3047SOL     OW11959   5.212   1.328   2.173  0.0907  0.0372  0.3987
 3047SOL    HW211960   5.190   1.400   2.114 -1.6411  0.4094  1.4310
 3047SOL    HW311961   5.211   1.367   2.260  0.6671 -0.9231  0.8488
 3047SOL    MW411962   5.209   1.343   2.177 -0.0618 -0.0404  0.5943
 3048SOL     OW11963   4.676   3.125   4.766 -0.1484 -0.4214  0.1606
 3048SOL    HW211964   4.706   3.160   4.683  1.1655  0.3877  0.9277
 3048SOL    HW311965   4.750   3.072   4.797 -0.6388 -0.7565  0.7779
 3048SOL    MW411966   4.690   3.122   4.759 -0.0397 -0.3589  0.3432
 3049SOL     OW11967   4.238   6.144   1.026 -0.4950 -0.3697 -0.0732
 3049SOL    HW211968   4.268   6.061   0.989  1.9009  0.9671 -1.4244
 3049SOL    HW311969   4.261   6.209   0.960 -3.9754  1.2578  0.1090
 3049SOL    MW411970   4.245   6.142   1.012 -0.6381  0.0214 -0.2274
 3050SOL     OW11971   5.660   3.970   2.151 -0.0321 -0.2553  0.3990
 3050SOL    HW211972   5.641   3.897   2.092 -0.3602  0.6341 -0.6430
 3050SOL    HW311973   5.750   3.955   2.179  0.7953  0.1802 -1.7609
 3050SOL    MW411974   5.670   3.959   2.147  0.0338 -0.0805 -0.0234
 3051SOL     OW11975   1.015   0.221   1.043 -0.4776 -0.5821 -0.0110
 3051SOL    HW211976   0.994   0.214   1.136  1.1722  1.5453  0.6206
 3051SOL    HW311977   1.109   0.203   1.038 -0.2515  0.6706 -1.0093
 3051SOL    MW411978   1.025   0.218   1.055 -0.2301 -0.1361 -0.0594
 3052SOL     OW11979   0.379   2.847   6.335  0.1567  0.8180  0.0730
 3052SOL    HW211980   0.403   2.880   6.422 -0.0014  0.1324  0.3845
 3052SOL    HW311981   0.303   2.791   6.351  1.0400 -0.5307 -0.2813
 3052SOL    MW411982   0.372   2.844   6.349  0.2524  0.5496  0.0673
 3053SOL     OW11983   5.464   4.504   3.810 -0.4662 -0.0688 -0.1685
 3053SOL    HW211984   5.545   4.550   3.830 -1.1321  0.6625  0.9510
 3053SOL    HW311985   5.402   4.573   3.787 -1.7475 -0.2307  2.4509
 3053SOL    MW411986   5.466   4.519   3.810 -0.7231  0.0063  0.3248
 3054SOL     OW11987   0.077   5.599   6.424  0.0413 -0.3703 -0.1366
 3054SOL    HW211988  -0.013   5.572   6.404 -0.0522  0.1331 -0.4331
 3054SOL    HW311989   0.096   5.558   6.508 -0.2929 -0.8779 -0.2984
 3054SOL    MW411990   0.067   5.590   6.432 -0.0151 -0.3708 -0.1971
 3055SOL     OW11991   5.047   4.355   1.200 -0.4297  0.2337  0.3455
 3055SOL    HW211992   5.066   4.379   1.291 -0.0024  0.7914  0.1125
 3055SOL    HW311993   5.084   4.267   1.190 -1.5209 -0.3248  1.0462
 3055SOL    MW411994   5.055   4.347   1.211 -0.5173  0.2336  0.4072
 3056SOL     OW11995   6.074   6.438   1.194 -0.9283  0.2888  0.4710
 3056SOL    HW211996   6.046   6.522   1.229 -0.1811  0.8948 -0.3291
 3056SOL    HW311997   5.994   6.394   1.168 -1.2366  1.7954 -1.3824
 3056SOL    MW411998   6.060   6.443   1.195 -0.8704  0.5675  0.1209
 3057SOL     OW11999   0.174   2.017   1.397  0.4286 -0.5584  0.1703
 3057SOL    HW212000   0.088   1.975   1.411  0.2336  0.5538  3.1583
 3057SOL    HW312001   0.162   2.069   1.318 -1.2614 -1.3455 -0.1613
 3057SOL    MW412002   0.161   2.018   1.389  0.1799 -0.5155  0.5208
 3058SOL     OW12003   1.485   3.086   3.976  0.1460  0.0781  0.1085
 3058SOL    HW212004   1.528   3.068   3.892  0.9103 -0.2301  0.5572
 3058SOL    HW312005   1.538   3.039   4.041 -0.8968 -0.3523  0.6763
 3058SOL    MW412006   1.498   3.078   3.973  0.1092 -0.0194  0.2426
 3059SOL     OW12007   0.515   3.716   4.957  0.3762 -0.1745  0.1243
 3059SOL    HW212008   0.445   3.654   4.976 -1.5655  2.1459  1.1091
 3059SOL    HW312009   0.499   3.744   4.867 -0.3061  0.7021  0.5019
 3059SOL    MW412010   0.504   3.711   4.948  0.0300  0.2473  0.3040
 3060SOL     OW12011   3.037   1.903   1.161  0.4341  0.6142  0.1240
 3060SOL    HW212012   3.031   1.933   1.071  0.9740  0.2657 -0.0344
 3060SOL    HW312013   3.038   1.807   1.155  1.3290  0.5862  0.4227
 3060SOL    MW412014   3.037   1.894   1.149  0.6234  0.5645  0.1425
 3061SOL     OW12015   4.385   4.016   1.199 -0.1637  0.2528 -0.0196
 3061SOL    HW212016   4.444   4.086   1.173  0.5053  0.3753  1.6553
 3061SOL    HW312017   4.325   4.006   1.126 -0.0330  2.3084 -0.4604
 3061SOL    MW412018   4.385   4.024   1.186 -0.0582  0.5402  0.1432
 3062SOL     OW12019   2.184   3.596   5.907  0.0842  0.1670 -0.4032
 3062SOL    HW212020   2.112   3.639   5.953 -1.1161 -1.2216 -0.8798
 3062SOL    HW312021   2.226   3.541   5.973 -1.3497 -1.4735 -0.7848
 3062SOL    MW412022   2.180   3.595   5.922 -0.2634 -0.2327 -0.5165
 3063SOL     OW12023   2.797   0.237   2.215 -0.3221 -0.2738  0.1226
 3063SOL    HW212024   2.809   0.265   2.125  0.1044  1.0628  0.5728
 3063SOL    HW312025   2.776   0.143   2.209  2.0332 -0.7982 -1.2164
 3063SOL    MW412026   2.796   0.228   2.202  0.0449 -0.1666  0.0053
 3064SOL     OW12027   2.340   3.478   4.428  0.4268  0.0248  0.0064
 3064SOL    HW212028   2.264   3.438   4.386  1.0398 -0.4336 -0.6863
 3064SOL    HW312029   2.305   3.516   4.509 -0.9593  1.7482 -1.3310
 3064SOL    MW412030   2.325   3.477   4.433  0.3248  0.1917 -0.2615
 3065SOL     OW12031   0.849   4.778   5.190  0.7036  0.4113 -0.1874
 3065SOL    HW212032   0.850   4.864   5.148  0.7963  0.5949  0.1890
 3065SOL    HW312033   0.854   4.716   5.117  0.2983  0.7160 -0.4752
 3065SOL    MW412034   0.850   4.781   5.175  0.6624  0.4757 -0.1757
 3066SOL     OW12035   6.391   5.581   2.656  0.1373  0.0754  0.8496
 3066SOL    HW212036   6.304   5.544   2.639  0.4070 -1.5947  2.7280
 3066SOL    HW312037   6.379   5.637   2.732  0.7474 -0.5081  1.3937
 3066SOL    MW412038   6.378   5.583   2.663  0.2534 -0.2219  1.1692
 3067SOL     OW12039   0.812   5.578   2.247 -0.4094 -0.1296  0.3331
 3067SOL    HW212040   0.812   5.487   2.277 -0.2413  0.3503  1.8932
 3067SOL    HW312041   0.888   5.617   2.290 -0.0418  0.5735 -0.9106
 3067SOL    MW412042   0.822   5.571   2.257 -0.3387  0.0265  0.3748
 3068SOL     OW12043   1.938   6.125   6.118  0.2551 -0.5233  0.1063
 3068SOL    HW212044   2.008   6.166   6.066  0.4582 -1.4163 -0.3354
 3068SOL    HW312045   1.872   6.099   6.054 -0.5105  0.3202  0.5215
 3068SOL    MW412046   1.939   6.127   6.103  0.1809 -0.5299  0.1028
 3069SOL     OW12047   0.675   0.247   0.124  0.5241  0.3341 -0.1842
 3069SOL    HW212048   0.713   0.312   0.183 -0.0100  0.4475  0.0430
 3069SOL    HW312049   0.587   0.280   0.106  0.8203  0.5191 -1.3885
 3069SOL    MW412050   0.668   0.260   0.130  0.4927  0.3734 -0.3131
 3070SOL     OW12051   0.874   2.218   4.180 -0.2310  0.2262 -0.4505
 3070SOL    HW212052   0.804   2.255   4.126 -1.1923 -0.6676  0.1289
 3070SOL    HW312053   0.946   2.202   4.119 -1.3420 -0.9049 -1.5425
 3070SOL    MW412054   0.874   2.220   4.165 -0.5044 -0.0410 -0.5182
 3071SOL     OW12055   1.973   2.008   2.318 -0.3849 -0.2629 -0.1272
 3071SOL    HW212056   2.066   2.011   2.339 -0.1757 -0.4550 -1.0105
 3071SOL    HW312057   1.969   1.983   2.226 -1.2508  1.5893 -0.6358
 3071SOL    MW412058   1.985   2.005   2.309 -0.4715 -0.0438 -0.3108
 3072SOL     OW12059   2.253   4.766   0.165  0.5569 -0.0992  0.3924
 3072SOL    HW212060   2.178   4.727   0.121 -0.9348  1.0461  1.8211
 3072SOL    HW312061   2.219   4.799   0.248  1.8846  3.2869 -0.2400
 3072SOL    MW412062   2.239   4.765   0.170  0.5353  0.4986  0.4975
 3073SOL     OW12063   4.695   4.794   1.667 -0.2378  0.1354  0.2461
 3073SOL    HW212064   4.652   4.757   1.744 -3.7918 -0.4045 -1.7644
 3073SOL    HW312065   4.699   4.888   1.684 -0.2325 -0.0543  1.3822
 3073SOL    MW412066   4.689   4.801   1.679 -0.7060  0.0391  0.1307
 3074SOL     OW12067   5.304   1.138   3.396  0.2652 -0.1557 -0.3086
 3074SOL    HW212068   5.303   1.148   3.301 -1.7334 -3.5706 -0.8429
 3074SOL    HW312069   5.233   1.194   3.427 -0.4474 -0.5824 -1.1220
 3074SOL    MW412070   5.294   1.147   3.388 -0.0925 -0.6626 -0.4864
 3075SOL     OW12071   4.944   3.241   4.261  0.4841 -0.5802  0.0682
 3075SOL    HW212072   4.881   3.201   4.201 -0.2691  0.8706 -0.1491
 3075SOL    HW312073   4.895   3.257   4.341  0.8510 -0.3521  0.2525
 3075SOL    MW412074   4.929   3.238   4.264  0.4331 -0.3587  0.0639
 3076SOL     OW12075   0.439   5.192   4.552  0.1602 -0.0630 -0.5274
 3076SOL    HW212076   0.490   5.254   4.604  0.6433 -1.1059  0.2558
 3076SOL    HW312077   0.494   5.175   4.475  1.7464 -2.3342  1.0180
 3076SOL    MW412078   0.453   5.198   4.548  0.4332 -0.5002 -0.2202
 3077SOL     OW12079   1.636   2.231   5.102  0.1154  0.0777 -0.1462
 3077SOL    HW212080   1.545   2.257   5.087  0.0132  0.1646  0.5895
 3077SOL    HW312081   1.636   2.193   5.190  0.8292  0.2511 -0.0659
 3077SOL    MW412082   1.624   2.229   5.112  0.1961  0.1120 -0.0386
 3078SOL     OW12083   5.485   2.015   4.153  0.1156  0.1598  0.0397
 3078SOL    HW212084   5.503   2.107   4.172  0.5652  0.1295 -0.2223
 3078SOL    HW312085   5.534   1.997   4.073 -0.1129 -0.2623 -0.0085
 3078SOL    MW412086   5.494   2.025   4.145  0.1448  0.1001 -0.0012
 3079SOL     OW12087   4.485   3.904   3.980  0.0450 -0.0074 -0.1687
 3079SOL    HW212088   4.499   3.995   3.953  1.5614 -0.1320  0.1101
 3079SOL    HW312089   4.539   3.894   4.058 -0.8281 -0.9092  0.3360
 3079SOL    MW412090   4.494   3.915   3.986  0.1298 -0.1428 -0.0653
 3080SOL     OW12091   2.154   1.374   0.472  0.1063 -0.3926  0.2751
 3080SOL    HW212092   2.107   1.453   0.447 -1.4293 -1.3314  0.0841
 3080SOL    HW312093   2.162   1.379   0.567 -0.5748 -0.3366  0.3284
 3080SOL    MW412094   2.149   1.385   0.481 -0.1861 -0.5091  0.2569
 3081SOL     OW12095   3.965   5.341   0.030  0.4146 -0.5994  0.2754
 3081SOL    HW212096   3.920   5.263   0.062  1.0123 -1.2544 -0.4459
 3081SOL    HW312097   4.055   5.312   0.012  1.0959  0.6245  1.4743
 3081SOL    MW412098   3.971   5.327   0.032  0.5833 -0.5244  0.3384
 3082SOL     OW12099   1.225   2.212   1.771  0.5087  0.8682  0.5290
 3082SOL    HW212100   1.244   2.157   1.847  0.4649  0.4690  0.2581
 3082SOL    HW312101   1.303   2.206   1.716  0.1314  0.2811  0.0352
 3082SOL    MW412102   1.238   2.204   1.774  0.4532  0.7381  0.4281
 3083SOL     OW12103   5.002   0.271   5.478  0.5042  0.2580  0.6393
 3083SOL    HW212104   4.994   0.225   5.562 -2.5576  0.7951  0.7886
 3083SOL    HW312105   4.961   0.213   5.414  2.4944  0.0105 -0.4926
 3083SOL    MW412106   4.995   0.258   5.481  0.3628  0.2962  0.5097
 3084SOL     OW12107   3.015   0.366   4.452  0.3392  0.3676 -0.9353
 3084SOL    HW212108   2.931   0.324   4.469 -0.7253  2.2556 -1.3512
 3084SOL    HW312109   3.007   0.402   4.364  2.0961 -0.5587 -1.5328
 3084SOL    MW412110   3.003   0.365   4.442  0.4306  0.4945 -1.0690
 3085SOL     OW12111   6.129   3.180   2.994 -0.0404 -0.2245 -0.2552
 3085SOL    HW212112   6.216   3.150   2.971 -0.1313 -0.3401 -0.4500
 3085SOL    HW312113   6.126   3.174   3.090  0.7778  1.4592 -0.0862
 3085SOL    MW412114   6.140   3.175   3.004  0.0556 -0.0176 -0.2586
 3086SOL     OW12115   3.119   4.088   1.368 -0.5643 -0.2551  0.4632
 3086SOL    HW212116   3.134   3.994   1.368 -0.8699 -0.3267 -1.2370
 3086SOL    HW312117   3.145   4.117   1.280  1.5581  1.6077  1.5893
 3086SOL    MW412118   3.125   4.080   1.356 -0.3246 -0.0188  0.3874
 3087SOL     OW12119   2.134   1.703   1.010 -0.2127  0.1511  0.0510
 3087SOL    HW212120   2.167   1.675   1.095  0.9324  0.2828 -0.3427
 3087SOL    HW312121   2.170   1.790   0.996 -0.5888  0.2327 -0.4635
 3087SOL    MW412122   2.143   1.711   1.019 -0.1112  0.1792 -0.0689
 3088SOL     OW12123   2.633   5.854   6.174  0.5477 -0.4445  0.2957
 3088SOL    HW212124   2.568   5.824   6.238 -0.8328 -0.1956 -0.9363
 3088SOL    HW312125   2.583   5.863   6.093  1.7074  1.6818 -0.2347
 3088SOL    MW412126   2.618   5.851   6.172  0.5185 -0.1311  0.0632
 3089SOL     OW12127   5.542   4.343   5.459 -0.2639 -0.3367  0.6735
 3089SOL    HW212128   5.577   4.254   5.458 -0.5759 -0.4659 -0.8169
 3089SOL    HW312129   5.451   4.333   5.486 -0.4314 -0.5371  0.0548
 3089SOL    MW412130   5.535   4.330   5.462 -0.3272 -0.3802  0.3952
 3090SOL     OW12131   4.793   4.098   4.813 -0.2284 -0.6177  0.0350
 3090SOL    HW212132   4.803   4.052   4.896  0.3956 -0.5453  0.0109
 3090SOL    HW312133   4.870   4.156   4.809 -0.4622 -0.3317 -0.4080
 3090SOL    MW412134   4.805   4.100   4.823 -0.1769 -0.5704 -0.0267
 3091SOL     OW12135   4.900   3.476   4.937 -0.2293 -0.3553  0.1896
 3091SOL    HW212136   4.907   3.454   5.029 -0.0703 -0.0056  0.2608
 3091SOL    HW312137   4.984   3.451   4.899 -0.2923 -0.4936  0.1414
 3091SOL    MW412138   4.912   3.470   4.944 -0.2166 -0.3274  0.1926
 3092SOL     OW12139   1.657   2.068   5.349 -0.2993  0.3969  0.2705
 3092SOL    HW212140   1.563   2.079   5.336 -0.3916  0.6536  1.1193
 3092SOL    HW312141   1.666   2.028   5.435  0.4024  1.4107  0.6972
 3092SOL    MW412142   1.646   2.064   5.359 -0.2189  0.5645  0.4388
 3093SOL     OW12143   6.400   4.117   3.023  0.6456  0.3008  0.8511
 3093SOL    HW212144   6.345   4.039   3.027  1.5823 -0.7104 -2.4576
 3093SOL    HW312145   6.485   4.089   3.058  1.0074 -0.2657 -0.4176
 3093SOL    MW412146   6.404   4.103   3.028  0.8169  0.0926  0.2472
 3094SOL     OW12147   4.320   5.863   6.061  0.3202  0.3752  0.0225
 3094SOL    HW212148   4.354   5.894   6.145 -0.9545  0.3470  0.5650
 3094SOL    HW312149   4.375   5.907   5.996  1.6253  0.0354  0.8555
 3094SOL    MW412150   4.332   5.873   6.063  0.3242  0.3267  0.2040
 3095SOL     OW12151   1.502   5.148   0.312  0.0608 -0.1664 -0.1593
 3095SOL    HW212152   1.592   5.114   0.312  0.0916 -0.1213 -0.9649
 3095SOL    HW312153   1.505   5.225   0.255 -0.4052  0.0778  0.1367
 3095SOL    MW412154   1.514   5.154   0.304  0.0033 -0.1283 -0.2265
 3096SOL     OW12155   4.443   5.387   5.912 -0.0474  0.3105 -0.1312
 3096SOL    HW212156   4.527   5.370   5.956  0.0230  0.8735 -0.0317
 3096SOL    HW312157   4.464   5.385   5.819 -0.2055 -0.9355 -0.1523
 3096SOL    MW412158   4.457   5.385   5.906 -0.0590  0.2204 -0.1209
 3097SOL     OW12159   2.066   3.892   0.826  0.6611 -0.7286 -0.1832
 3097SOL    HW212160   2.051   3.982   0.854 -0.4660 -1.1879  0.8084
 3097SOL    HW312161   2.040   3.890   0.734 -0.0890 -0.2125  0.0130
 3097SOL    MW412162   2.060   3.903   0.818  0.4135 -0.7211 -0.0265
 3098SOL     OW12163   2.453   1.492   1.534 -0.8159  0.3460  0.0542
 3098SOL    HW212164   2.507   1.569   1.519 -1.0479  0.2883 -1.2411
 3098SOL    HW312165   2.413   1.506   1.620 -0.1429  1.2256  0.2322
 3098SOL    MW412166   2.455   1.504   1.543 -0.7577  0.4544 -0.0932
 3099SOL     OW12167   2.618   2.389   5.748  0.4191  0.9209  0.3593
 3099SOL    HW212168   2.646   2.355   5.832 -0.2796  0.8563  0.5750
 3099SOL    HW312169   2.667   2.338   5.683  0.6121  0.6556  0.7127
 3099SOL    MW412170   2.628   2.378   5.751  0.3524  0.8774  0.4344
 3100SOL     OW12171   5.233   5.351   4.301  0.0672  0.1617  0.4146
 3100SOL    HW212172   5.257   5.429   4.251 -0.0916 -0.8571 -1.3402
 3100SOL    HW312173   5.140   5.338   4.281  0.0721 -0.4263  0.7657
 3100SOL    MW412174   5.224   5.360   4.292  0.0469 -0.0503  0.2294
 3101SOL     OW12175   0.689   2.359   2.552  0.0581  0.2419  0.0732
 3101SOL    HW212176   0.713   2.339   2.643 -0.2978  0.6567  0.2658
 3101SOL    HW312177   0.702   2.454   2.545  1.0633  0.0613 -0.6110
 3101SOL    MW412178   0.694   2.369   2.563  0.1438  0.2728  0.0084
 3102SOL     OW12179   0.658   0.864   5.157 -0.1875  0.0712 -0.0242
 3102SOL    HW212180   0.674   0.931   5.224 -0.4649  0.6102 -0.4941
 3102SOL    HW312181   0.731   0.873   5.096 -0.8200  0.7223 -0.7057
 3102SOL    MW412182   0.670   0.874   5.158 -0.3076  0.2282 -0.1761
 3103SOL     OW12183   2.196   2.463   0.797 -0.3425  0.1239 -0.0816
 3103SOL    HW212184   2.211   2.535   0.858  2.7860 -1.4063  1.1574
 3103SOL    HW312185   2.112   2.485   0.755  0.0773  4.0584  0.7148
 3103SOL    MW412186   2.187   2.476   0.799  0.1256  0.4411  0.1870
 3104SOL     OW12187   2.998   0.038   2.605  0.4746  0.6603  0.4207
 3104SOL    HW212188   3.004  -0.044   2.654 -0.5619  0.3138 -0.0210
 3104SOL    HW312189   2.905   0.056   2.598  0.4671 -0.0566 -2.6202
 3104SOL    MW412190   2.987   0.029   2.611  0.3369  0.5200 -0.0388
 3105SOL     OW12191   4.207   4.645   1.691  0.2847  1.1263  0.3779
 3105SOL    HW212192   4.241   4.729   1.661  0.0960  1.2611  0.5369
 3105SOL    HW312193   4.278   4.583   1.675  0.5417  1.3744  0.5443
 3105SOL    MW412194   4.221   4.647   1.685  0.2937  1.1768  0.4208
 3106SOL     OW12195   3.458   4.607   3.132  0.3841  0.1679  0.3415
 3106SOL    HW212196   3.454   4.696   3.097  2.6586 -0.4347 -1.7503
 3106SOL    HW312197   3.528   4.610   3.197  1.0204 -0.2148 -0.3056
 3106SOL    MW412198   3.467   4.619   3.136  0.7681  0.0379 -0.0199
 3107SOL     OW12199   2.020   4.656   3.230 -0.2632 -0.4361  0.2793
 3107SOL    HW212200   2.007   4.692   3.142  0.4230 -0.8350  0.0101
 3107SOL    HW312201   2.095   4.704   3.264 -0.5738 -0.2284  0.6899
 3107SOL    MW412202   2.028   4.667   3.222 -0.2137 -0.4613  0.2979
 3108SOL     OW12203   6.304   2.222   5.323  0.2651 -0.4780  0.1822
 3108SOL    HW212204   6.389   2.265   5.329 -0.3800  0.8715  0.0521
 3108SOL    HW312205   6.301   2.185   5.234  0.7052 -0.5263  0.1875
 3108SOL    MW412206   6.315   2.223   5.312  0.2380 -0.3063  0.1657
 3109SOL     OW12207   3.740   2.568   3.892 -0.1433 -0.2336  0.5028
 3109SOL    HW212208   3.652   2.568   3.931  0.7145  0.5358  2.5763
 3109SOL    HW312209   3.758   2.476   3.872 -1.9992 -0.2604 -1.5025
 3109SOL    MW412210   3.731   2.556   3.894 -0.2750 -0.1356  0.5118
 3110SOL     OW12211   4.463   5.769   4.114  0.6245  0.3321 -0.3368
 3110SOL    HW212212   4.523   5.764   4.189  0.5295 -1.3655 -0.3452
 3110SOL    HW312213   4.456   5.863   4.096  1.9379  0.6752  0.7381
 3110SOL    MW412214   4.470   5.781   4.122  0.7853  0.1534 -0.1961
 3111SOL     OW12215   4.301   0.093   4.564 -0.4168  0.2883  0.5294
 3111SOL    HW212216   4.296  -0.001   4.576  1.2276 -0.0885 -1.1547
 3111SOL    HW312217   4.325   0.128   4.650  0.8688 -1.0469  0.7407
 3111SOL    MW412218   4.304   0.085   4.577 -0.0302  0.0625  0.3351
 3112SOL     OW12219   4.705   1.176   5.349 -0.2302 -0.3976  0.1974
 3112SOL    HW212220   4.665   1.163   5.435 -0.7327 -2.6161 -0.3110
 3112SOL    HW312221   4.798   1.189   5.367 -0.1172 -2.1029  1.0433
 3112SOL    MW412222   4.712   1.176   5.363 -0.2816 -0.9153  0.2419
 3113SOL     OW12223   2.598   2.022   4.069 -0.0471  0.1758  0.5693
 3113SOL    HW212224   2.571   1.964   3.997 -2.1787  1.8311 -0.0443
 3113SOL    HW312225   2.525   2.020   4.131  0.7404  0.6255  1.5441
 3113SOL    MW412226   2.585   2.014   4.068 -0.2244  0.4536  0.6169
 3114SOL     OW12227   0.642   0.493   3.024  0.2903 -0.5598 -0.3198
 3114SOL    HW212228   0.677   0.406   3.007 -1.5394 -1.6241  1.0306
 3114SOL    HW312229   0.718   0.544   3.052  1.3528 -1.7544 -0.9211
 3114SOL    MW412230   0.657   0.488   3.025  0.1891 -0.8579 -0.2210
 3115SOL     OW12231   2.328   1.509   2.388  0.0265  0.1011  0.2804
 3115SOL    HW212232   2.387   1.467   2.450  0.0616  2.8621  2.2773
 3115SOL    HW312233   2.384   1.571   2.341  0.0205 -1.9641 -2.7526
 3115SOL    MW412234   2.343   1.512   2.390  0.0303  0.1929  0.1437
 3116SOL     OW12235   1.018   2.080   5.552  0.2323 -0.7156  0.4154
 3116SOL    HW212236   0.984   2.104   5.638 -1.3418 -1.6825  0.0968
 3116SOL    HW312237   0.955   2.118   5.490  2.4161  1.7632 -0.4771
 3116SOL    MW412238   1.005   2.088   5.555  0.3127 -0.5161  0.2556
 3117SOL     OW12239   4.828   3.564   2.669 -0.0398  0.1019  0.0012
 3117SOL    HW212240   4.891   3.535   2.603 -0.5393 -1.9789  0.3728
 3117SOL    HW312241   4.746   3.524   2.643 -0.6855  0.8435  0.8316
 3117SOL    MW412242   4.826   3.555   2.657 -0.1909 -0.0748  0.1598
 3118SOL     OW12243   5.779   2.552   3.077 -0.4034 -0.0546 -0.4859
 3118SOL    HW212244   5.823   2.468   3.086 -1.9440 -1.1220 -2.1168
 3118SOL    HW312245   5.843   2.608   3.032 -0.3776 -1.3327 -2.1364
 3118SOL    MW412246   5.793   2.548   3.072 -0.6033 -0.3641 -0.9188
 3119SOL     OW12247   3.533   4.864   4.222  0.0115 -0.1758  0.1331
 3119SOL    HW212248   3.447   4.820   4.218  0.3985 -0.8503 -2.8458
 3119SOL    HW312249   3.515   4.946   4.267 -1.5050 -1.6460  2.4727
 3119SOL    MW412250   3.519   4.869   4.227 -0.1375 -0.4588  0.0487
 3120SOL     OW12251   3.108   1.036   5.086 -0.3681  0.9610  0.2561
 3120SOL    HW212252   3.066   1.071   5.165 -0.0463  0.9585  0.4268
 3120SOL    HW312253   3.038   1.038   5.020 -0.7263  0.6543  0.6240
 3120SOL    MW412254   3.093   1.041   5.088 -0.3729  0.9202  0.3272
 3121SOL     OW12255   3.224   5.636   4.154 -0.1000 -0.0204  0.6414
 3121SOL    HW212256   3.170   5.599   4.223  1.5745  0.6698  2.4264
 3121SOL    HW312257   3.306   5.586   4.159  0.2864  0.4747 -0.4187
 3121SOL    MW412258   3.228   5.624   4.164  0.1719  0.1360  0.7370
 3122SOL     OW12259   5.924   3.875   5.016  0.0449 -0.1392 -0.1347
 3122SOL    HW212260   5.876   3.833   4.944  0.0746 -1.0271  0.3497
 3122SOL    HW312261   6.016   3.869   4.989 -0.0502  1.1587 -0.8513
 3122SOL    MW412262   5.930   3.869   5.003  0.0363 -0.0851 -0.1653
 3123SOL     OW12263   1.053   0.397   4.109  0.3846 -0.1232  0.3233
 3123SOL    HW212264   0.970   0.432   4.076  0.8061 -0.9522 -1.8500
 3123SOL    HW312265   1.031   0.355   4.192 -1.1447  0.6264  0.3225
 3123SOL    MW412266   1.039   0.396   4.115  0.2384 -0.1336  0.0365
 3124SOL     OW12267   1.917   1.738   1.392  0.0425 -1.1667 -0.6230
 3124SOL    HW212268   1.890   1.668   1.333  1.4913 -0.8837 -1.6804
 3124SOL    HW312269   1.960   1.802   1.335  0.0520 -0.1075  0.5246
 3124SOL    MW412270   1.919   1.737   1.376  0.2349 -0.9896 -0.6111
 3125SOL     OW12271   2.527   0.499   1.713 -0.3176  0.0159 -0.0457
 3125SOL    HW212272   2.510   0.592   1.732  1.4438  0.3277  0.2214
 3125SOL    HW312273   2.470   0.479   1.639 -1.8793  0.8672  0.8694
 3125SOL    MW412274   2.517   0.509   1.706 -0.2912  0.1694  0.1103
 3126SOL     OW12275   0.412   2.687   1.115 -0.2561 -0.6033  0.1018
 3126SOL    HW212276   0.478   2.627   1.079  1.8825  1.6951 -0.1427
 3126SOL    HW312277   0.417   2.764   1.058 -2.3734  0.1200  0.8087
 3126SOL    MW412278   0.422   2.689   1.103 -0.2533 -0.2046  0.1628
 3127SOL     OW12279   0.384   2.985   1.447 -0.5249  0.3669 -0.5439
 3127SOL    HW212280   0.474   2.972   1.476 -0.2247  0.8721 -1.2213
 3127SOL    HW312281   0.348   2.897   1.439 -0.4752  0.1991  0.8847
 3127SOL    MW412282   0.391   2.972   1.450 -0.4788  0.4114 -0.4448
 3128SOL     OW12283   6.358   3.489   0.366  0.1936 -0.4212  0.1608
 3128SOL    HW212284   6.323   3.438   0.293 -0.0995  1.7160 -1.2791
 3128SOL    HW312285   6.453   3.489   0.352  0.1335  0.0302 -0.2776
 3128SOL    MW412286   6.366   3.483   0.354  0.1470 -0.0797 -0.0870
 3129SOL     OW12287   0.116   3.579   2.188  0.1809  0.2981 -0.0226
 3129SOL    HW212288   0.161   3.494   2.193 -0.3779  0.0522  0.9579
 3129SOL    HW312289   0.046   3.565   2.124  1.0293  0.4760 -1.0149
 3129SOL    MW412290   0.113   3.566   2.180  0.2191  0.2891 -0.0242
 3130SOL     OW12291   2.887   5.656   0.637 -0.1116 -0.0678 -0.1283
 3130SOL    HW212292   2.829   5.591   0.675  2.5262 -2.1422  0.6353
 3130SOL    HW312293   2.946   5.680   0.709  1.3242  0.3097 -1.3762
 3130SOL    MW412294   2.887   5.651   0.651  0.4259 -0.2917 -0.1922
 3131SOL     OW12295   2.469   0.185   2.346  0.2998 -0.1421 -0.4212
 3131SOL    HW212296   2.400   0.198   2.411  0.2388  0.3905 -0.5904
 3131SOL    HW312297   2.540   0.243   2.373  0.5362 -0.4065 -0.4612
 3131SOL    MW412298   2.470   0.194   2.358  0.3229 -0.1067 -0.4488
 3132SOL     OW12299   4.101   3.230   5.291  0.0404  0.2311 -0.0431
 3132SOL    HW212300   4.093   3.143   5.252 -0.0031  0.1207  0.2081
 3132SOL    HW312301   4.054   3.224   5.374  1.5400 -0.0338  0.8300
 3132SOL    MW412302   4.094   3.218   5.297  0.2326  0.1816  0.1052
 3133SOL     OW12303   1.513   2.586   5.061 -0.2198  0.3147 -0.1440
 3133SOL    HW212304   1.598   2.603   5.020  0.4878 -1.5652  0.4753
 3133SOL    HW312305   1.450   2.631   5.004  0.9719 -0.0878 -1.8505
 3133SOL    MW412306   1.516   2.594   5.048  0.0308  0.0136 -0.2874
 3134SOL     OW12307   0.299   1.588   5.414 -0.2798 -0.3457  0.2511
 3134SOL    HW212308   0.389   1.601   5.387 -0.0310 -1.1574  0.6560
 3134SOL    HW312309   0.293   1.495   5.437 -1.4143 -0.4827 -0.4823
 3134SOL    MW412310   0.310   1.577   5.414 -0.3966 -0.4709  0.2078
 3135SOL     OW12311   5.373   5.039   1.611  0.1688  0.0197 -0.4947
 3135SOL    HW212312   5.320   5.029   1.690 -0.3431  1.3095 -0.6495
 3135SOL    HW312313   5.378   4.951   1.574 -0.6595 -0.3715  0.2895
 3135SOL    MW412314   5.367   5.027   1.617 -0.0080  0.1382 -0.4117
 3136SOL     OW12315   2.961   0.579   1.450 -0.2613  0.6395  0.4295
 3136SOL    HW212316   3.045   0.534   1.450 -1.2590 -1.4081 -0.9482
 3136SOL    HW312317   2.966   0.639   1.376 -0.2373 -0.0161 -0.1141
 3136SOL    MW412318   2.973   0.581   1.440 -0.3898  0.2829  0.1760
 3137SOL     OW12319   0.512   5.640   6.267 -0.0383  0.3883  0.3483
 3137SOL    HW212320   0.460   5.560   6.262  0.3866  0.1941 -1.8878
 3137SOL    HW312321   0.555   5.636   6.352  0.3144 -1.9681  0.1026
 3137SOL    MW412322   0.511   5.629   6.278  0.0643  0.0518  0.0208
 3138SOL     OW12323   6.276   4.957   3.970 -0.1384  0.1915  0.4967
 3138SOL    HW212324   6.328   4.944   4.050 -0.6979  2.6031  1.3490
 3138SOL    HW312325   6.324   5.024   3.922 -0.8297  0.1609 -0.2418
 3138SOL    MW412326   6.290   4.964   3.974 -0.3035  0.5056  0.5117
 3139SOL     OW12327   1.145   3.011   1.746 -0.2300 -0.4734 -0.4331
 3139SOL    HW212328   1.126   2.919   1.764 -1.8190 -0.3257 -1.2219
 3139SOL    HW312329   1.197   3.010   1.666 -0.0170 -0.6832 -0.2950
 3139SOL    MW412330   1.150   2.999   1.738 -0.4115 -0.4816 -0.5190
 3140SOL     OW12331   2.569   0.189   2.934  0.3297  0.0272 -0.1545
 3140SOL    HW212332   2.583   0.262   2.873 -1.5122  0.5359 -0.0285
 3140SOL    HW312333   2.495   0.140   2.896  1.1669 -1.4712  0.0636
 3140SOL    MW412334   2.561   0.192   2.921  0.1972 -0.1034 -0.1091
 3141SOL     OW12335   2.773   2.074   3.811  0.3847 -0.4016  0.3647
 3141SOL    HW212336   2.770   2.115   3.724  0.3115 -1.0556  0.0581
 3141SOL    HW312337   2.687   2.035   3.822 -0.5239  1.7897  1.7870
 3141SOL    MW412338   2.762   2.074   3.801  0.2552 -0.1988  0.5119
 3142SOL     OW12339   0.217   1.519   3.085 -0.2672 -0.4574 -0.2724
 3142SOL    HW212340   0.154   1.542   3.016  0.9859 -1.7866 -1.9259
 3142SOL    HW312341   0.255   1.436   3.057  0.6051 -0.8355  1.8384
 3142SOL    MW412342   0.214   1.511   3.072  0.0132 -0.6826 -0.2121
 3143SOL     OW12343   5.845   5.999   5.909 -0.3753  0.2275 -0.0550
 3143SOL    HW212344   5.780   6.003   5.979 -1.4268  0.0423 -0.9841
 3143SOL    HW312345   5.877   5.909   5.910 -1.6846 -0.2729 -0.9201
 3143SOL    MW412346   5.841   5.988   5.918 -0.6868  0.1370 -0.2917
 3144SOL     OW12347   0.020   2.730   4.242  0.1256 -0.5310 -0.3588
 3144SOL    HW212348   0.110   2.700   4.252  0.3540  0.3363  0.3009
 3144SOL    HW312349  -0.031   2.650   4.231  0.7997 -1.1338  0.6886
 3144SOL    MW412350   0.025   2.716   4.242  0.2447 -0.4961 -0.1336
 3145SOL     OW12351   0.744   0.562   5.972 -0.0664 -0.2929  0.2955
 3145SOL    HW212352   0.790   0.478   5.977 -0.8903 -0.7406  0.4886
 3145SOL    HW312353   0.667   0.551   6.027 -0.0181  0.7102  0.5889
 3145SOL    MW412354   0.740   0.550   5.980 -0.1687 -0.2196  0.3597
 3146SOL     OW12355   5.157   2.236   2.848  0.2384 -0.4107 -0.4494
 3146SOL    HW212356   5.122   2.221   2.760 -0.7213 -0.8889 -0.0101
 3146SOL    HW312357   5.249   2.259   2.834  0.2402 -0.9956 -1.5483
 3146SOL    MW412358   5.164   2.237   2.835  0.1120 -0.5510 -0.5364
 3147SOL     OW12359   5.693   2.878   2.880 -0.1387  0.2759 -0.2654
 3147SOL    HW212360   5.639   2.957   2.871 -0.3107  0.2147  0.1801
 3147SOL    HW312361   5.782   2.909   2.867 -0.2583  0.4265 -0.7401
 3147SOL    MW412362   5.697   2.893   2.877 -0.1772  0.2877 -0.2692
 3148SOL     OW12363   0.098   1.132   3.395  0.4034  0.5523 -0.3327
 3148SOL    HW212364   0.024   1.104   3.448 -1.7833  0.7570 -3.0281
 3148SOL    HW312365   0.139   1.051   3.366  0.2917  0.3900 -0.0340
 3148SOL    MW412366   0.094   1.118   3.398  0.1002  0.5579 -0.6489
 3149SOL     OW12367   3.908   1.369   0.431 -0.4385 -0.6988 -0.0878
 3149SOL    HW212368   3.961   1.400   0.504  0.3976 -0.6844 -0.6824
 3149SOL    HW312369   3.818   1.373   0.463 -0.3325  1.6257  0.1321
 3149SOL    MW412370   3.903   1.374   0.445 -0.3142 -0.3902 -0.1372
 3150SOL     OW12371   0.002   2.873   4.486 -0.1085  0.4024 -0.2701
 3150SOL    HW212372   0.077   2.852   4.542 -1.4373 -0.0955  1.4143
 3150SOL    HW312373   0.015   2.820   4.407  2.1392  1.5853 -0.7953
 3150SOL    MW412374   0.013   2.863   4.483  0.0128  0.4927 -0.1172
 3151SOL     OW12375   3.894   5.303   0.761 -0.3885 -0.0855  0.6440
 3151SOL    HW212376   3.955   5.245   0.715  1.1882  1.8449  0.1359
 3151SOL    HW312377   3.814   5.251   0.771 -0.0431 -1.4004 -2.2482
 3151SOL    MW412378   3.892   5.288   0.756 -0.1349 -0.0043  0.1954
 3152SOL     OW12379   0.670   3.571   5.391 -0.7073  0.1578 -0.4595
 3152SOL    HW212380   0.686   3.635   5.322 -1.8071 -0.7520 -1.5970
 3152SOL    HW312381   0.708   3.490   5.359  0.6930  0.1855  0.9826
 3152SOL    MW412382   0.677   3.569   5.378 -0.6676  0.0414 -0.4193
 3153SOL     OW12383   3.886   4.919   2.553  0.7954 -0.1102  0.1042
 3153SOL    HW212384   3.920   5.008   2.559 -0.0552  0.2208  0.0678
 3153SOL    HW312385   3.807   4.919   2.607  0.5708 -0.7417 -0.2132
 3153SOL    MW412386   3.880   4.930   2.561  0.6535 -0.1498  0.0576
 3154SOL     OW12387   1.504   5.450   2.582 -0.0715  0.2988 -0.8490
 3154SOL    HW212388   1.419   5.420   2.548 -0.7007  0.5641  0.4197
 3154SOL    HW312389   1.533   5.378   2.639 -0.4089  1.0120  0.2652
 3154SOL    MW412390   1.496   5.436   2.585 -0.1990  0.4279 -0.5346
 3155SOL     OW12391   0.343   4.770   2.740  0.6059  0.2357  0.5390
 3155SOL    HW212392   0.321   4.770   2.833 -1.4481  1.5040  0.1045
 3155SOL    HW312393   0.376   4.681   2.723 -2.0960 -1.1271  1.8023
 3155SOL    MW412394   0.345   4.758   2.750 -0.0216  0.2233  0.6484
 3156SOL     OW12395   0.016   0.402   3.128 -0.2008 -0.3452  0.1018
 3156SOL    HW212396  -0.006   0.437   3.215 -0.7046 -0.6608  0.1064
 3156SOL    HW312397   0.075   0.466   3.091  0.3264 -0.3911  0.8355
 3156SOL    MW412398   0.021   0.415   3.135 -0.1977 -0.3929  0.1992
 3157SOL     OW12399   4.322   4.583   4.004  0.1110  0.2221  0.0011
 3157SOL    HW212400   4.284   4.634   4.075 -0.9400  0.0876 -0.4557
 3157SOL    HW312401   4.286   4.621   3.924 -1.8979 -2.1250 -0.3117
 3157SOL    MW412402   4.312   4.595   4.003 -0.2927 -0.1053 -0.1004
 3158SOL     OW12403   5.815   3.728   4.788  0.3911  0.0774 -0.2173
 3158SOL    HW212404   5.785   3.770   4.708 -0.6743  1.1044  0.6770
 3158SOL    HW312405   5.898   3.688   4.765  1.0243  1.9373 -1.3825
 3158SOL    MW412406   5.822   3.729   4.775  0.3341  0.4583 -0.2530
 3159SOL     OW12407   3.717   3.810   0.290  0.5751  0.4304  0.4205
 3159SOL    HW212408   3.671   3.767   0.362 -0.2392  2.5797  1.2454
 3159SOL    HW312409   3.809   3.787   0.304  0.5518  1.4805  2.6719
 3159SOL    MW412410   3.723   3.801   0.301  0.4646  0.8525  0.8264
 3160SOL     OW12411   6.016   4.892   2.354  0.2233  0.1851 -0.2069
 3160SOL    HW212412   5.945   4.899   2.291  0.2291 -0.8970 -0.3636
 3160SOL    HW312413   5.986   4.939   2.431 -0.0758  0.9277 -0.7689
 3160SOL    MW412414   6.003   4.899   2.356  0.1846  0.1403 -0.3017
 3161SOL     OW12415   1.982   3.761   5.459  0.0949  0.2050  0.0418
 3161SOL    HW212416   1.893   3.772   5.423  0.1386  0.4866  0.0195
 3161SOL    HW312417   2.040   3.791   5.389  0.2145 -0.1223  0.0005
 3161SOL    MW412418   1.978   3.767   5.445  0.1164  0.1990  0.0334
 3162SOL     OW12419   1.677   2.322   4.440  0.2987  0.4237 -0.6994
 3162SOL    HW212420   1.688   2.353   4.350  0.0277 -0.7257 -1.1558
 3162SOL    HW312421   1.642   2.397   4.488 -0.5258  0.7614 -1.7917
 3162SOL    MW412422   1.674   2.336   4.434  0.1542  0.3166 -0.9037
 3163SOL     OW12423   5.120   0.034   2.553 -0.2729  0.1142  0.1759
 3163SOL    HW212424   5.089   0.124   2.543  0.1735  0.3999  1.2261
 3163SOL    HW312425   5.157   0.012   2.468 -1.8063  0.3575 -0.5759
 3163SOL    MW412426   5.121   0.043   2.541 -0.4163  0.1840  0.2153
 3164SOL     OW12427   1.584   3.368   0.157 -0.3434  0.4008  0.4222
 3164SOL    HW212428   1.621   3.451   0.186 -0.8283  0.5722  0.5531
 3164SOL    HW312429   1.592   3.310   0.233  3.1494 -0.7672 -0.6452
 3164SOL    MW412430   1.590   3.371   0.171  0.0535  0.2693  0.2986
 3165SOL     OW12431   0.549   6.345   2.724 -0.4475  0.1070 -0.7270
 3165SOL    HW212432   0.567   6.340   2.818  0.3036 -0.7139 -0.9089
 3165SOL    HW312433   0.493   6.422   2.715 -0.7198  0.0642  0.4219
 3165SOL    MW412434   0.544   6.355   2.735 -0.3843 -0.0070 -0.5994
 3166SOL     OW12435   5.529   1.078   0.098  0.0785  0.4042  0.0610
 3166SOL    HW212436   5.507   1.030   0.178  0.3503 -1.7471 -1.0712
 3166SOL    HW312437   5.580   1.153   0.129 -0.1539 -0.1385  1.9337
 3166SOL    MW412438   5.533   1.081   0.113  0.0837  0.0488  0.1587
 3167SOL     OW12439   6.119   0.950   0.447 -0.1610 -0.0332 -0.1243
 3167SOL    HW212440   6.081   0.948   0.534 -0.2224  1.1710 -0.1108
 3167SOL    HW312441   6.155   1.039   0.438  0.0599 -0.2189 -1.2255
 3167SOL    MW412442   6.119   0.962   0.457 -0.1399  0.1012 -0.2678
 3168SOL     OW12443   5.053   0.585   5.559  0.3255  0.5107 -0.4901
 3168SOL    HW212444   5.049   0.647   5.486  1.9713 -0.4386 -1.4382
 3168SOL    HW312445   5.052   0.499   5.517  1.4863 -0.0544  0.5903
 3168SOL    MW412446   5.052   0.582   5.544  0.6958  0.3109 -0.4727
 3169SOL     OW12447   0.862   4.956   3.536 -0.1462 -0.2566 -0.3662
 3169SOL    HW212448   0.794   4.970   3.470 -0.4657 -0.0150  0.0165
 3169SOL    HW312449   0.936   5.010   3.506 -0.4246  0.1500 -0.3236
 3169SOL    MW412450   0.863   4.965   3.523 -0.2251 -0.1710 -0.3101
 3170SOL     OW12451   3.952   1.520   6.435  0.4004  0.2947 -0.3236
 3170SOL    HW212452   3.965   1.455   6.366  0.0917  0.6231 -0.6938
 3170SOL    HW312453   3.864   1.554   6.420 -0.2211 -0.6007  1.0551
 3170SOL    MW412454   3.942   1.516   6.424  0.2777  0.2199 -0.1906
 3171SOL     OW12455   0.179   0.579   4.817 -0.5085  0.0752 -0.9060
 3171SOL    HW212456   0.234   0.563   4.893 -1.2897 -0.2312 -0.3914
 3171SOL    HW312457   0.224   0.536   4.745  0.3514  0.5554 -0.6736
 3171SOL    MW412458   0.192   0.571   4.817 -0.4981  0.0981 -0.8074
 3172SOL     OW12459   5.554   5.975   0.572 -0.3536  0.8952 -0.2806
 3172SOL    HW212460   5.539   6.002   0.481  1.2670  0.3386 -0.7432
 3172SOL    HW312461   5.629   6.027   0.600  0.0115  0.0822  0.2882
 3172SOL    MW412462   5.562   5.986   0.564 -0.0916  0.7145 -0.2666
 3173SOL     OW12463   1.981   2.583   1.015  0.7036 -0.4079  0.3331
 3173SOL    HW212464   1.892   2.610   1.036  1.0781  1.4527 -0.2903
 3173SOL    HW312465   1.974   2.546   0.926  0.4864 -0.6819  0.4634
 3173SOL    MW412466   1.969   2.581   1.006  0.7244 -0.1986  0.2680
 3174SOL     OW12467   2.940   4.451   5.197  0.0645  0.0322  0.6722
 3174SOL    HW212468   3.017   4.454   5.140 -0.7580  0.9387 -0.4421
 3174SOL    HW312469   2.890   4.375   5.166 -1.1722  1.4235 -0.9619
 3174SOL    MW412470   2.943   4.442   5.185 -0.2072  0.3354  0.3095
 3175SOL     OW12471   5.473   0.790   0.169  0.2509  0.0367 -0.0104
 3175SOL    HW212472   5.463   0.710   0.117 -0.1285 -0.4257  0.7492
 3175SOL    HW312473   5.541   0.770   0.233 -0.1998  0.1279  0.5148
 3175SOL    MW412474   5.480   0.777   0.171  0.1414 -0.0123  0.1591
 3176SOL     OW12475   1.882   4.062   4.079  0.1627 -0.1691 -0.2868
 3176SOL    HW212476   1.817   4.010   4.127 -0.1578  0.3998 -0.1032
 3176SOL    HW312477   1.838   4.145   4.062  0.9022  0.2756 -0.0231
 3176SOL    MW412478   1.867   4.066   4.083  0.2180 -0.0354 -0.2278
 3177SOL     OW12479   5.713   5.319   6.234 -0.1514  0.1029 -0.5863
 3177SOL    HW212480   5.691   5.412   6.230 -1.0422 -0.0650  0.1373
 3177SOL    HW312481   5.693   5.286   6.147 -1.5143  0.2416 -0.3487
 3177SOL    MW412482   5.708   5.327   6.222 -0.4487  0.0990 -0.4595
 3178SOL     OW12483   1.987   5.926   4.011 -0.0702  0.0723 -0.1965
 3178SOL    HW212484   1.913   5.921   4.072 -0.5009 -0.1750 -0.7237
 3178SOL    HW312485   1.946   5.923   3.924  0.6838 -2.3889 -0.5388
 3178SOL    MW412486   1.972   5.925   4.007 -0.0276 -0.2850 -0.3112
 3179SOL     OW12487   2.286   3.410   2.770 -0.0161 -0.2245 -0.2055
 3179SOL    HW212488   2.285   3.315   2.759 -0.8174 -0.1449 -0.9502
 3179SOL    HW312489   2.194   3.433   2.784 -0.0996  0.6159 -1.8223
 3179SOL    MW412490   2.274   3.401   2.770 -0.1328 -0.1031 -0.5171
 3180SOL     OW12491   4.565   2.546   4.831 -0.5078 -0.5495 -0.1184
 3180SOL    HW212492   4.511   2.618   4.799  1.5651  1.0420 -0.2443
 3180SOL    HW312493   4.537   2.470   4.780 -0.8328  0.7885 -2.0347
 3180SOL    MW412494   4.554   2.545   4.820 -0.2772 -0.1630 -0.3879
 3181SOL     OW12495   1.781   4.955   4.704  0.1974  0.2007  0.1274
 3181SOL    HW212496   1.866   4.931   4.665  0.1146  0.7501 -0.3991
 3181SOL    HW312497   1.731   4.991   4.632 -1.0919 -1.5828  0.0669
 3181SOL    MW412498   1.786   4.956   4.690  0.0163  0.0379  0.0500
 3182SOL     OW12499   5.509   1.838   2.002 -0.6424 -0.1205 -0.2394
 3182SOL    HW212500   5.519   1.906   1.936 -1.6040 -0.6631 -0.9753
 3182SOL    HW312501   5.450   1.774   1.962 -3.1252  0.5916  1.9285
 3182SOL    MW412502   5.502   1.839   1.988 -1.0969 -0.0982 -0.0505
 3183SOL     OW12503  -0.001   0.575   6.192  0.3544  0.8481  0.0309
 3183SOL    HW212504  -0.093   0.592   6.211  0.1173  0.3764 -0.6694
 3183SOL    HW312505   0.047   0.639   6.244 -0.3063  0.1887  1.5004
 3183SOL    MW412506  -0.007   0.586   6.202  0.2360  0.6989  0.1324
 3184SOL     OW12507   5.718   4.494   4.533  0.2996 -0.0437  0.2874
 3184SOL    HW212508   5.758   4.412   4.563  2.3053  0.1627 -1.5474
 3184SOL    HW312509   5.764   4.563   4.582  1.1920  0.1182 -0.7332
 3184SOL    MW412510   5.729   4.492   4.543  0.6819  0.0049 -0.0893
 3185SOL     OW12511   4.033   0.160   5.735  0.2767 -0.1924 -0.5802
 3185SOL    HW212512   4.115   0.205   5.719  2.0401 -2.7022  0.5988
 3185SOL    HW312513   4.012   0.116   5.652 -0.8704  1.7558 -1.3949
 3185SOL    MW412514   4.041   0.160   5.722  0.3580 -0.2665 -0.5321
 3186SOL     OW12515   5.014   2.217   3.428  0.1060  0.0857  0.1002
 3186SOL    HW212516   5.060   2.181   3.352 -0.4457  1.5611 -0.9915
 3186SOL    HW312517   4.931   2.249   3.392  0.3204  1.8565  1.0822
 3186SOL    MW412518   5.009   2.217   3.413  0.0615  0.5140  0.0857
 3187SOL     OW12519   1.070   2.306   2.306 -0.1549  0.1806  0.1420
 3187SOL    HW212520   1.059   2.320   2.213 -1.0770  1.0247  0.3719
 3187SOL    HW312521   0.990   2.261   2.334  1.2629 -2.5917  0.0543
 3187SOL    MW412522   1.058   2.302   2.298 -0.0895 -0.0738  0.1607
 3188SOL     OW12523   2.756   5.206   1.473  0.0951  0.1946 -0.0540
 3188SOL    HW212524   2.842   5.182   1.509  1.9367  1.3671 -3.1859
 3188SOL    HW312525   2.747   5.151   1.396 -1.5745  0.7391 -0.2831
 3188SOL    MW412526   2.766   5.196   1.468  0.1178  0.4211 -0.4974
 3189SOL     OW12527   5.755   4.980   2.742 -0.1891 -0.4393  0.1076
 3189SOL    HW212528   5.720   5.055   2.790 -0.1160  0.2619 -0.8885
 3189SOL    HW312529   5.847   5.000   2.729 -0.3318 -0.3259 -0.8165
 3189SOL    MW412530   5.762   4.992   2.746 -0.1983 -0.3318 -0.1458
 3190SOL     OW12531   5.066   0.753   5.346 -0.3546  0.0164 -0.0459
 3190SOL    HW212532   5.101   0.714   5.266 -0.2698  3.1252 -1.6792
 3190SOL    HW312533   4.972   0.736   5.342 -0.0890 -1.6076  0.2873
 3190SOL    MW412534   5.058   0.746   5.335 -0.3083  0.2123 -0.2174
 3191SOL     OW12535   5.533   1.819   5.634  0.1001  0.7357  0.1029
 3191SOL    HW212536   5.587   1.762   5.689  0.3505  0.0616 -0.8213
 3191SOL    HW312537   5.536   1.779   5.548 -2.8053  0.0507  0.2373
 3191SOL    MW412538   5.541   1.806   5.630 -0.2502  0.5564 -0.0013
 3192SOL     OW12539   0.819   0.452   4.624  0.1315  0.2831  0.2086
 3192SOL    HW212540   0.816   0.523   4.560  0.3372  0.7327  0.6829
 3192SOL    HW312541   0.758   0.387   4.591 -0.1886  0.7596 -0.1549
 3192SOL    MW412542   0.811   0.453   4.611  0.1164  0.4053  0.2232
 3193SOL     OW12543   3.948   2.082   6.014 -0.1024  0.4406 -0.2558
 3193SOL    HW212544   3.960   2.000   6.062  0.3038  0.5265 -0.2055
 3193SOL    HW312545   3.853   2.091   6.005 -0.1844  0.4335  0.5459
 3193SOL    MW412546   3.937   2.072   6.019 -0.0596  0.4510 -0.1434
 3194SOL     OW12547   6.202   5.169   5.770  0.2386 -0.3240  0.2387
 3194SOL    HW212548   6.201   5.073   5.772  0.1295 -0.3206  2.6415
 3194SOL    HW312549   6.289   5.193   5.802  1.0932  0.4525 -2.3540
 3194SOL    MW412550   6.214   5.159   5.774  0.3369 -0.2211  0.2136
 3195SOL     OW12551   5.202   2.831   3.817 -0.2412 -0.4524  0.1750
 3195SOL    HW212552   5.142   2.836   3.743  0.4051 -2.1282 -0.5230
 3195SOL    HW312553   5.218   2.738   3.829  2.1495 -0.1017  0.3611
 3195SOL    MW412554   5.196   2.820   3.809  0.1595 -0.6273  0.1075
 3196SOL     OW12555   2.046   1.717   5.669 -0.3227 -0.0051 -0.1867
 3196SOL    HW212556   2.013   1.628   5.680  0.5327 -0.3845 -0.5615
 3196SOL    HW312557   2.104   1.712   5.593  0.3787  0.6833  0.2816
 3196SOL    MW412558   2.049   1.705   5.661 -0.1173  0.0357 -0.1744
 3197SOL     OW12559   4.122   1.408   1.296  0.1165  0.2149  0.2293
 3197SOL    HW212560   4.066   1.370   1.364  0.0160  1.1745  0.7111
 3197SOL    HW312561   4.112   1.350   1.221 -1.9521  0.6338  0.1150
 3197SOL    MW412562   4.114   1.395   1.295 -0.1697  0.3968  0.2778
 3198SOL     OW12563   1.694   1.070   3.219  0.4445 -0.3571  0.0669
 3198SOL    HW212564   1.613   1.117   3.241  0.5631 -0.3908  0.6071
 3198SOL    HW312565   1.719   1.104   3.134 -0.9703 -1.4613 -0.8406
 3198SOL    MW412566   1.686   1.080   3.211  0.2735 -0.5073  0.0185
 3199SOL     OW12567   3.980   6.176   3.212  0.3834 -0.3076 -0.2610
 3199SOL    HW212568   3.958   6.100   3.266  1.1982  0.5568  1.3478
 3199SOL    HW312569   4.074   6.168   3.197  0.1117 -0.7437 -1.9542
 3199SOL    MW412570   3.989   6.165   3.217  0.4550 -0.2511 -0.2721
 3200SOL     OW12571   2.136   2.100   4.449 -0.3752  0.0238 -0.6711
 3200SOL    HW212572   2.048   2.105   4.486 -0.0427  2.7606 -0.0140
 3200SOL    HW312573   2.124   2.119   4.356 -0.3479  2.5658 -0.2157
 3200SOL    MW412574   2.123   2.103   4.442 -0.3277  0.7203 -0.5243
 3201SOL     OW12575   6.338   3.868   6.116 -0.4562  0.2448  0.4230
 3201SOL    HW212576   6.393   3.823   6.051 -0.4066  3.0419 -1.6507
 3201SOL    HW312577   6.250   3.833   6.101  0.1822 -2.3558  2.0023
 3201SOL    MW412578   6.334   3.857   6.106 -0.3655  0.2707  0.3578
 3202SOL     OW12579   2.084   1.161   0.070  0.1853  0.4153 -0.0593
 3202SOL    HW212580   2.043   1.234   0.115 -0.6967  1.0978 -1.8377
 3202SOL    HW312581   2.012   1.122   0.019  0.5858 -1.8472  1.0077
 3202SOL    MW412582   2.069   1.165   0.069  0.1218  0.2068 -0.1532
 3203SOL     OW12583   2.886   5.294   3.218  0.7045  0.0972  0.9318
 3203SOL    HW212584   2.793   5.289   3.238  0.7888 -2.2086  0.9951
 3203SOL    HW312585   2.923   5.349   3.288 -0.4357  0.1358  1.5238
 3203SOL    MW412586   2.879   5.301   3.230  0.5652 -0.2019  1.0183
 3204SOL     OW12587   0.537   2.507   1.963 -0.8019 -0.3062 -0.4043
 3204SOL    HW212588   0.452   2.466   1.980 -0.1298 -2.7069 -2.2672
 3204SOL    HW312589   0.601   2.447   2.000  0.1635  1.1750  0.4355
 3204SOL    MW412590   0.534   2.494   1.970 -0.5858 -0.4275 -0.5393
 3205SOL     OW12591   1.555   4.929   2.464  0.0285  0.2680  0.1383
 3205SOL    HW212592   1.475   4.982   2.458  0.2431  0.6945  1.0373
 3205SOL    HW312593   1.554   4.894   2.553 -0.3884 -1.6930 -0.5799
 3205SOL    MW412594   1.544   4.931   2.475  0.0018  0.0655  0.1621
 3206SOL     OW12595   5.882   4.031   2.412  0.1368 -0.4848 -0.5235
 3206SOL    HW212596   5.891   3.974   2.335  0.8990 -1.2921  0.1376
 3206SOL    HW312597   5.913   3.977   2.485 -0.6979  0.2189  0.3772
 3206SOL    MW412598   5.888   4.016   2.412  0.1272 -0.4984 -0.3174
 3207SOL     OW12599   6.374   2.906   2.627  0.2653  0.1231 -0.5157
 3207SOL    HW212600   6.382   2.834   2.689 -0.3056  0.3314 -0.1887
 3207SOL    HW312601   6.448   2.895   2.567  0.5135 -0.3936 -0.1225
 3207SOL    MW412602   6.385   2.895   2.627  0.2227  0.0824 -0.4207
 3208SOL     OW12603   6.144   0.862   1.382 -0.6014 -0.5780  0.5033
 3208SOL    HW212604   6.136   0.856   1.287 -0.0617 -0.7091  0.4660
 3208SOL    HW312605   6.060   0.828   1.415 -1.2804  0.5938  0.0543
 3208SOL    MW412606   6.132   0.857   1.374 -0.6198 -0.4407  0.4391
 3209SOL     OW12607   2.541   0.182   5.634  0.6331  0.0558  0.2469
 3209SOL    HW212608   2.577   0.216   5.716  1.5126  3.6013 -1.3878
 3209SOL    HW312609   2.446   0.195   5.642  0.6282 -0.3962  0.9915
 3209SOL    MW412610   2.533   0.188   5.646  0.7485  0.4639  0.1295
 3210SOL     OW12611   4.802   4.236   1.224  0.2069  0.3256  0.0741
 3210SOL    HW212612   4.881   4.288   1.209  0.6373 -0.3767 -0.1394
 3210SOL    HW312613   4.822   4.184   1.302  0.3257 -0.5434 -0.5164
 3210SOL    MW412614   4.815   4.236   1.233  0.2794  0.1183 -0.0320
 3211SOL     OW12615   6.086   5.279   6.019  0.6829  0.3437  0.0090
 3211SOL    HW212616   6.117   5.240   5.937 -0.2979 -1.2464  0.3395
 3211SOL    HW312617   6.141   5.241   6.087  1.0057  1.0786  0.1652
 3211SOL    MW412618   6.097   5.269   6.017  0.5961  0.2309  0.0732
 3212SOL     OW12619   3.520   6.196   6.036  0.0338 -0.2983 -0.0816
 3212SOL    HW212620   3.597   6.253   6.026 -0.1519  0.1539  0.9218
 3212SOL    HW312621   3.446   6.249   6.007 -0.0438 -0.3027  0.1053
 3212SOL    MW412622   3.521   6.211   6.031 -0.0009 -0.2392  0.0755
 3213SOL     OW12623   4.810   4.272   4.395 -0.1346  0.1323 -0.1574
 3213SOL    HW212624   4.879   4.207   4.406  0.3815  0.4348 -1.4464
 3213SOL    HW312625   4.854   4.348   4.357 -0.7781  1.1537  1.0316
 3213SOL    MW412626   4.825   4.274   4.391 -0.1514  0.3070 -0.1706
 3214SOL     OW12627   4.539   4.143   4.347  0.0667 -0.2538  0.1837
 3214SOL    HW212628   4.550   4.233   4.377 -2.1300  0.5295 -1.0828
 3214SOL    HW312629   4.611   4.095   4.387  1.3476  2.0633  0.8549
 3214SOL    MW412630   4.550   4.148   4.356 -0.0541  0.1553  0.1052
 3215SOL     OW12631   0.762   4.152   4.043 -0.5190 -0.0899  0.3781
 3215SOL    HW212632   0.715   4.226   4.003  0.1970  0.0070 -0.3046
 3215SOL    HW312633   0.853   4.163   4.015 -0.2893 -0.8877  0.7789
 3215SOL    MW412634   0.767   4.163   4.034 -0.3942 -0.1823  0.3409
 3216SOL     OW12635   5.133   3.883   3.787 -0.0769  0.6787  0.3121
 3216SOL    HW212636   5.171   3.836   3.862 -0.8005  1.2565  1.0639
 3216SOL    HW312637   5.159   3.974   3.800 -0.7215  0.8807  0.1953
 3216SOL    MW412638   5.141   3.889   3.799 -0.2574  0.7816  0.3959
 3217SOL     OW12639   5.892   1.075   1.239  0.3902  0.2947 -0.2273
 3217SOL    HW212640   5.923   1.146   1.182  1.5224 -1.1680 -1.5496
 3217SOL    HW312641   5.897   0.997   1.184 -0.6345 -0.8539  1.2333
 3217SOL    MW412642   5.897   1.074   1.224  0.4044 -0.0498 -0.2091
 3218SOL     OW12643   2.940   5.730   2.019  0.1007  0.1781  0.0772
 3218SOL    HW212644   3.019   5.778   1.994 -0.6533  0.3707 -2.2606
 3218SOL    HW312645   2.947   5.717   2.113  1.1077  3.4491  0.5615
 3218SOL    MW412646   2.951   5.735   2.028  0.1341  0.6351 -0.1674
 3219SOL     OW12647   1.490   2.074   4.377 -0.2528  0.2215  0.9467
 3219SOL    HW212648   1.534   2.152   4.413 -1.8171  0.7522  1.8139
 3219SOL    HW312649   1.491   2.012   4.449 -0.0980 -0.1216  0.6506
 3219SOL    MW412650   1.496   2.076   4.391 -0.4388  0.2463  1.0220
 3220SOL     OW12651   2.830   1.807   6.269 -0.4460  0.5679 -0.2803
 3220SOL    HW212652   2.793   1.788   6.183  0.1406 -2.1507 -0.0185
 3220SOL    HW312653   2.762   1.778   6.331 -0.5299  1.7428  0.1970
 3220SOL    MW412654   2.816   1.801   6.266 -0.3797  0.3642 -0.1828
 3221SOL     OW12655   4.701   2.727   1.636 -0.0031 -0.5586  0.1401
 3221SOL    HW212656   4.649   2.714   1.715 -1.7520 -0.0709 -0.8705
 3221SOL    HW312657   4.661   2.669   1.571 -0.0509  0.6985 -1.0021
 3221SOL    MW412658   4.689   2.717   1.637 -0.2401 -0.3284 -0.1439
 3222SOL     OW12659   0.207   3.462   0.328  0.2539  0.8258  0.4168
 3222SOL    HW212660   0.249   3.487   0.411  1.5693  0.1319 -0.0103
 3222SOL    HW312661   0.168   3.377   0.345  0.9947  0.4297  0.1938
 3222SOL    MW412662   0.207   3.454   0.341  0.5252  0.6820  0.3310
 3223SOL     OW12663   4.816   1.630   1.923 -0.4149 -0.4005  0.4207
 3223SOL    HW212664   4.777   1.638   2.010 -1.0929  1.3354  0.0078
 3223SOL    HW312665   4.745   1.597   1.868 -2.4093  4.9342 -0.8349
 3223SOL    MW412666   4.801   1.627   1.927 -0.7675  0.5324  0.2006
 3224SOL     OW12667   5.371   3.661   2.211  0.3937  0.3240  0.0518
 3224SOL    HW212668   5.446   3.632   2.159  1.3281  1.9542  0.4145
 3224SOL    HW312669   5.388   3.627   2.299 -0.3782 -1.0721 -0.3119
 3224SOL    MW412670   5.383   3.653   2.216  0.4152  0.3549  0.0517
 3225SOL     OW12671   5.189   4.379   2.315  0.3307 -0.0437  0.2955
 3225SOL    HW212672   5.210   4.443   2.247  2.3020  0.4473  1.2829
 3225SOL    HW312673   5.154   4.431   2.387  0.5377 -0.2505  0.5489
 3225SOL    MW412674   5.187   4.395   2.316  0.6181 -0.0062  0.4592
 3226SOL     OW12675   3.775   4.299   0.757 -0.5703 -0.5907  0.1435
 3226SOL    HW212676   3.765   4.372   0.695  1.6801 -1.2118 -1.0569
 3226SOL    HW312677   3.829   4.335   0.827 -1.2256 -0.5418  0.6367
 3226SOL    MW412678   3.781   4.314   0.758 -0.3599 -0.6662  0.0502
 3227SOL     OW12679   4.988   4.509   0.281 -0.0746  0.3645  0.3119
 3227SOL    HW212680   4.968   4.602   0.273 -0.5372  0.2117 -0.4946
 3227SOL    HW312681   4.943   4.481   0.361 -0.4610  0.6989  0.2136
 3227SOL    MW412682   4.979   4.517   0.290 -0.1866  0.3885  0.1925
 3228SOL     OW12683   5.406   6.025   1.723  0.5225 -0.1112 -0.5510
 3228SOL    HW212684   5.316   6.033   1.755  0.4788  0.6277 -0.8258
 3228SOL    HW312685   5.419   6.104   1.670  0.6874 -1.1628 -2.1337
 3228SOL    MW412686   5.396   6.037   1.720  0.5385 -0.1524 -0.7961
 3229SOL     OW12687   4.031   5.718   3.810 -0.6546  0.3783 -0.2138
 3229SOL    HW212688   4.042   5.628   3.780  0.6826  0.5236 -0.2184
 3229SOL    HW312689   4.119   5.746   3.836 -1.0913  1.5937  0.0358
 3229SOL    MW412690   4.044   5.710   3.809 -0.5358  0.5578 -0.1815
 3230SOL     OW12691   4.378   0.344   5.885 -0.2694  0.2916  0.1310
 3230SOL    HW212692   4.455   0.304   5.924 -0.3962 -1.5337 -1.3633
 3230SOL    HW312693   4.401   0.437   5.876  2.0744 -0.3040 -0.9170
 3230SOL    MW412694   4.391   0.351   5.889  0.0231 -0.0278 -0.2045
 3231SOL     OW12695   5.131   3.694   2.637  0.4522  0.5239  0.5116
 3231SOL    HW212696   5.106   3.643   2.714 -0.9289 -0.3104 -0.4304
 3231SOL    HW312697   5.086   3.650   2.564  1.3299  1.5634 -0.7006
 3231SOL    MW412698   5.121   3.681   2.638  0.3857  0.5510  0.2274
 3232SOL     OW12699   0.202   4.774   3.001 -0.4909 -0.0868 -0.0008
 3232SOL    HW212700   0.222   4.867   2.989  2.9916 -0.6636  0.2743
 3232SOL    HW312701   0.238   4.753   3.087 -0.1413 -1.8986 -0.5473
 3232SOL    MW412702   0.210   4.784   3.011  0.0147 -0.4020 -0.0366
 3233SOL     OW12703   0.078   6.104   1.286 -0.0699 -0.0998 -0.5639
 3233SOL    HW212704  -0.011   6.108   1.321  0.4124 -4.1978  1.7477
 3233SOL    HW312705   0.075   6.034   1.220  1.6384 -1.2435  0.5064
 3233SOL    MW412706   0.066   6.095   1.282  0.2191 -0.7914 -0.1177
 3234SOL     OW12707   0.526   4.273   6.061 -0.5457  0.0652 -0.0099
 3234SOL    HW212708   0.561   4.186   6.042 -1.1762  0.0252 -1.0676
 3234SOL    HW312709   0.602   4.323   6.091  0.1239 -0.4565 -0.7791
 3234SOL    MW412710   0.541   4.268   6.062 -0.5406 -0.0089 -0.2510
 3235SOL     OW12711   3.028   0.584   0.679  0.0788  0.0116 -0.1464
 3235SOL    HW212712   3.094   0.530   0.635 -1.1725  0.4154 -2.7196
 3235SOL    HW312713   3.074   0.622   0.754  1.9460 -1.8902 -0.2330
 3235SOL    MW412714   3.043   0.582   0.683  0.1601 -0.1860 -0.4973
 3236SOL     OW12715   2.333   6.151   2.259 -0.3033 -0.2520  0.2136
 3236SOL    HW212716   2.413   6.121   2.216  0.1623 -0.2599  1.0668
 3236SOL    HW312717   2.264   6.098   2.219 -0.3980  1.9773 -2.9102
 3236SOL    MW412718   2.334   6.140   2.248 -0.2544  0.0411 -0.0860
 3237SOL     OW12719   2.661   6.213   1.227  0.0463  0.0677 -0.1541
 3237SOL    HW212720   2.671   6.296   1.179  0.0854 -0.0415 -0.3384
 3237SOL    HW312721   2.664   6.146   1.158 -0.9766 -0.0257 -0.1095
 3237SOL    MW412722   2.663   6.215   1.211 -0.0835  0.0409 -0.1725
 3238SOL     OW12723   0.475   1.521   2.348 -0.2153 -0.2271  0.1840
 3238SOL    HW212724   0.448   1.512   2.256  1.8495 -0.5623 -0.4438
 3238SOL    HW312725   0.481   1.431   2.380 -0.2779 -0.1334  0.4660
 3238SOL    MW412726   0.472   1.508   2.340  0.0489 -0.2590  0.1384
 3239SOL     OW12727   0.700   3.214   5.521  0.7660 -0.6496  0.0204
 3239SOL    HW212728   0.703   3.131   5.473  0.9560 -0.5188 -0.1939
 3239SOL    HW312729   0.618   3.254   5.494  1.7401  0.3301 -1.7235
 3239SOL    MW412730   0.690   3.208   5.511  0.9196 -0.5031 -0.2380
 3240SOL     OW12731   4.666   3.782   1.522 -0.1973  0.0764 -0.7520
 3240SOL    HW212732   4.579   3.783   1.482 -0.4118 -0.7421 -0.3365
 3240SOL    HW312733   4.651   3.758   1.613  0.2616  2.1870 -0.0657
 3240SOL    MW412734   4.653   3.779   1.529 -0.1651  0.2469 -0.6066
 3241SOL     OW12735   4.960   2.633   2.588 -0.3356  0.2648  0.0616
 3241SOL    HW212736   4.983   2.615   2.497  1.0183  0.3744  0.3721
 3241SOL    HW312737   4.898   2.564   2.611 -1.6085  0.8881 -1.2755
 3241SOL    MW412738   4.955   2.622   2.579 -0.3249  0.3615 -0.0738
 3242SOL     OW12739   4.234   3.644   4.038 -0.7763  0.3273 -0.1778
 3242SOL    HW212740   4.261   3.732   4.015 -1.4043  0.3212 -0.9917
 3242SOL    HW312741   4.243   3.640   4.133 -0.1824  1.0689 -0.1976
 3242SOL    MW412742   4.239   3.655   4.048 -0.7808  0.4244 -0.2878
 3243SOL     OW12743   0.486   3.922   0.853 -0.2988  0.3741 -0.5438
 3243SOL    HW212744   0.447   4.006   0.875  1.6307  0.6139  2.5557
 3243SOL    HW312745   0.450   3.861   0.918  0.2546 -0.6112 -1.1404
 3243SOL    MW412746   0.476   3.925   0.864  0.0288  0.2757 -0.2136
 3244SOL     OW12747   6.282   6.332   0.775  0.4911  0.2870 -0.0139
 3244SOL    HW212748   6.374   6.342   0.752  0.2348 -0.9725 -1.8298
 3244SOL    HW312749   6.264   6.404   0.836  2.1305  1.9542 -1.3639
 3244SOL    MW412750   6.291   6.343   0.780  0.6736  0.3408 -0.4316
 3245SOL     OW12751   2.100   4.726   2.209 -0.0037 -0.2928 -0.8247
 3245SOL    HW212752   2.045   4.732   2.131 -1.5642 -0.6664  0.2126
 3245SOL    HW312753   2.078   4.641   2.247  1.9271 -0.8396 -0.8116
 3245SOL    MW412754   2.090   4.715   2.203  0.0452 -0.4142 -0.6861
 3246SOL     OW12755   0.943   2.354   1.324 -0.0318 -0.3280 -0.1560
 3246SOL    HW212756   0.871   2.350   1.386 -0.5832 -0.1533 -0.7700
 3246SOL    HW312757   0.903   2.337   1.239  0.2284  1.9847 -0.8324
 3246SOL    MW412758   0.928   2.352   1.321 -0.0702  0.0002 -0.3262
 3247SOL     OW12759   0.798   0.274   6.320 -0.7554  0.4737 -0.0220
 3247SOL    HW212760   0.753   0.270   6.404 -0.3376 -0.1084  0.1848
 3247SOL    HW312761   0.729   0.290   6.256 -0.8441  3.0730  0.6224
 3247SOL    MW412762   0.783   0.275   6.322 -0.7120  0.7399  0.0903
 3248SOL     OW12763   2.428   4.382   2.439  0.1384  0.7568 -0.3023
 3248SOL    HW212764   2.391   4.469   2.455  3.3517  1.7912  2.7177
 3248SOL    HW312765   2.403   4.331   2.516  1.3657  0.2133 -0.2493
 3248SOL    MW412766   2.420   4.387   2.451  0.7243  0.8216  0.1031
 3249SOL     OW12767   0.603   5.394   4.675 -1.1665  0.6790 -0.0572
 3249SOL    HW212768   0.671   5.419   4.614 -1.7887  0.3684 -0.8994
 3249SOL    HW312769   0.580   5.475   4.721  1.3940  0.3885  1.9896
 3249SOL    MW412770   0.609   5.408   4.673 -0.9107  0.5997  0.1017
 3250SOL     OW12771   5.899   1.703   4.153  0.2230 -0.0167 -0.1847
 3250SOL    HW212772   5.811   1.684   4.121  0.4647  0.0213 -0.8900
 3250SOL    HW312773   5.896   1.680   4.246 -0.2380 -0.9911 -0.4235
 3250SOL    MW412774   5.887   1.698   4.161  0.1941 -0.1403 -0.3093
 3251SOL     OW12775   2.369   3.864   2.381  0.2778 -0.0063  0.3516
 3251SOL    HW212776   2.428   3.827   2.447 -0.8761  0.6226  1.7731
 3251SOL    HW312777   2.327   3.787   2.341  0.6092 -0.3653  0.6823
 3251SOL    MW412778   2.371   3.849   2.384  0.1693  0.0293  0.5828
 3252SOL     OW12779   0.788   1.615   3.278  0.4602  0.2745 -0.1779
 3252SOL    HW212780   0.712   1.557   3.285 -0.2091  1.3012  2.4613
 3252SOL    HW312781   0.860   1.563   3.313 -0.2201  1.0086  2.5797
 3252SOL    MW412782   0.788   1.601   3.284  0.2821  0.5068  0.5342
 3253SOL     OW12783   3.919   2.413   4.471  0.5147  0.0848 -0.1580
 3253SOL    HW212784   3.899   2.470   4.397 -0.4248 -0.3009 -0.2099
 3253SOL    HW312785   3.863   2.445   4.542  0.0144 -0.7312 -0.1714
 3253SOL    MW412786   3.909   2.425   4.471  0.3247 -0.0738 -0.1666
 3254SOL     OW12787   4.373   4.813   4.548 -0.0432  0.6474 -0.1622
 3254SOL    HW212788   4.343   4.746   4.486  0.3014  0.7320 -0.4195
 3254SOL    HW312789   4.331   4.789   4.631 -0.3333  0.4113 -0.3752
 3254SOL    MW412790   4.363   4.801   4.551 -0.0360  0.6274 -0.2243
 3255SOL     OW12791   5.924   4.130   6.105 -0.0462  0.0358  0.2496
 3255SOL    HW212792   5.978   4.119   6.183  0.9754  0.6270 -0.3579
 3255SOL    HW312793   5.985   4.158   6.037 -0.8361 -0.8544 -0.8766
 3255SOL    MW412794   5.939   4.132   6.106 -0.0156 -0.0037  0.0208
 3256SOL     OW12795   3.104   4.790   3.409  0.1343  0.0965 -0.1418
 3256SOL    HW212796   3.092   4.762   3.500  0.2077  0.7219  0.0615
 3256SOL    HW312797   3.154   4.719   3.369 -1.4932 -1.0852 -0.1952
 3256SOL    MW412798   3.109   4.777   3.416 -0.0707  0.0231 -0.1220
 3257SOL     OW12799   6.316   0.839   5.835 -0.2986  0.2130  0.4462
 3257SOL    HW212800   6.284   0.928   5.849  0.2451  0.3341  0.9385
 3257SOL    HW312801   6.335   0.835   5.741  1.6191  1.2667  0.7529
 3257SOL    MW412802   6.314   0.850   5.824  0.0262  0.3680  0.5516
 3258SOL     OW12803   6.392   3.486   5.592  0.2607 -0.2988  0.0869
 3258SOL    HW212804   6.477   3.492   5.636  0.3457  1.0953 -0.1938
 3258SOL    HW312805   6.391   3.562   5.533 -1.6692  0.4530  0.9817
 3258SOL    MW412806   6.403   3.497   5.590  0.0173 -0.0157  0.1679
 3259SOL     OW12807   0.713   4.100   4.963  0.1863 -0.5381  0.5107
 3259SOL    HW212808   0.694   4.194   4.961  0.0702 -0.5652  0.3855
 3259SOL    HW312809   0.686   4.072   5.051 -2.4892 -1.0346 -0.3726
 3259SOL    MW412810   0.707   4.109   4.975 -0.1820 -0.6072  0.3776
 3260SOL     OW12811   4.961   1.320   5.367  0.6371  0.2397  0.1130
 3260SOL    HW212812   5.005   1.346   5.448  1.1495 -0.1333 -0.0446
 3260SOL    HW312813   4.902   1.393   5.348  0.4798  0.3101  0.8439
 3260SOL    MW412814   4.959   1.333   5.375  0.6839  0.1998  0.1886
 3261SOL     OW12815   2.416   2.894   2.351 -0.1273 -0.6808 -0.3359
 3261SOL    HW212816   2.509   2.916   2.349 -0.4937  0.9822 -0.8951
 3261SOL    HW312817   2.373   2.975   2.376 -1.4391 -1.4112 -0.1419
 3261SOL    MW412818   2.423   2.907   2.354 -0.3487 -0.5578 -0.3841
 3262SOL     OW12819   4.928   3.162   0.884 -0.1181  0.3380  0.5418
 3262SOL    HW212820   4.992   3.104   0.843 -0.9658 -0.9258  0.9338
 3262SOL    HW312821   4.972   3.247   0.889  1.7046 -0.5810  1.2038
 3262SOL    MW412822   4.943   3.166   0.879  0.0105  0.0500  0.6809
 3263SOL     OW12823   1.999   1.346   4.699  0.3853 -0.0259  1.0037
 3263SOL    HW212824   2.058   1.416   4.669  1.5894 -1.6429 -0.5617
 3263SOL    HW312825   2.049   1.301   4.767  0.8631 -1.2227 -0.1213
 3263SOL    MW412826   2.014   1.350   4.704  0.6072 -0.3972  0.6488
 3264SOL     OW12827   0.197   4.995   1.649 -0.1067  0.3476 -0.1422
 3264SOL    HW212828   0.272   5.038   1.610 -0.7970 -0.2163 -2.2101
 3264SOL    HW312829   0.206   5.011   1.743  2.9935 -0.3894 -0.2314
 3264SOL    MW412830   0.208   5.003   1.656  0.2112  0.1760 -0.4268
 3265SOL     OW12831   4.105   1.636   6.211 -0.6274 -0.0481  0.0614
 3265SOL    HW212832   4.069   1.602   6.293  1.4304 -0.9544  0.6694
 3265SOL    HW312833   4.197   1.654   6.231  0.0252 -0.6174 -2.1250
 3265SOL    MW412834   4.113   1.634   6.224 -0.2698 -0.2428 -0.1468
 3266SOL     OW12835   5.326   1.531   3.420 -0.5616 -0.0693  0.1574
 3266SOL    HW212836   5.249   1.522   3.364 -0.2789 -0.2848 -0.2058
 3266SOL    HW312837   5.294   1.576   3.498 -0.9048  0.4777 -0.2910
 3266SOL    MW412838   5.312   1.535   3.423 -0.5696 -0.0255  0.0503
 3267SOL     OW12839   6.197   5.988   1.072 -0.2302 -0.0464 -0.0047
 3267SOL    HW212840   6.106   5.963   1.053 -0.3060 -0.8527  1.2985
 3267SOL    HW312841   6.189   6.058   1.137  0.0801 -0.5048  0.5338
 3267SOL    MW412842   6.184   5.994   1.078 -0.1993 -0.2133  0.2383
 3268SOL     OW12843   2.967   2.243   4.254 -0.3274  0.1516  0.0145
 3268SOL    HW212844   3.043   2.302   4.248 -2.0074  2.4232 -0.3278
 3268SOL    HW312845   2.921   2.254   4.171 -1.2629 -0.8561  0.3735
 3268SOL    MW412846   2.971   2.252   4.242 -0.6725  0.3183  0.0167
 3269SOL     OW12847   2.112   5.713   2.477 -0.2442  0.3333 -0.3756
 3269SOL    HW212848   2.052   5.770   2.525 -1.5160 -1.3252  0.1147
 3269SOL    HW312849   2.059   5.678   2.405  0.4361 -0.4233 -0.5179
 3269SOL    MW412850   2.097   5.716   2.474 -0.3222  0.0147 -0.3297
 3270SOL     OW12851   2.474   2.191   0.425 -0.2734 -0.2034 -0.2320
 3270SOL    HW212852   2.470   2.278   0.463 -0.7596 -1.1815  2.1582
 3270SOL    HW312853   2.387   2.154   0.441  0.1904 -1.4165 -0.3730
 3270SOL    MW412854   2.462   2.197   0.432 -0.2763 -0.4925  0.0647
 3271SOL     OW12855   1.625   1.241   4.344  0.4705  0.4018 -0.1049
 3271SOL    HW212856   1.680   1.292   4.284 -0.0482  2.9012  1.3763
 3271SOL    HW312857   1.558   1.203   4.289  1.1243  1.0197 -1.3650
 3271SOL    MW412858   1.624   1.243   4.329  0.4883  0.8131 -0.0757
 3272SOL     OW12859   6.416   3.948   1.036  0.8006 -0.6492  0.3485
 3272SOL    HW212860   6.382   4.025   0.991  2.1384 -0.5824 -0.5901
 3272SOL    HW312861   6.344   3.884   1.032  0.7421 -0.5136 -1.5795
 3272SOL    MW412862   6.402   3.949   1.029  0.9694 -0.6225 -0.0297
 3273SOL     OW12863   2.884   4.830   3.206  0.1364  0.0398 -0.1380
 3273SOL    HW212864   2.918   4.833   3.117 -1.6265 -0.9677 -0.9030
 3273SOL    HW312865   2.961   4.829   3.262  1.2756  0.6267 -1.6458
 3273SOL    MW412866   2.898   4.831   3.202  0.0541 -0.0157 -0.4379
 3274SOL     OW12867   6.171   0.677   0.457  0.6297  0.6492  0.2421
 3274SOL    HW212868   6.080   0.658   0.434  0.4971 -0.8797  1.8339
 3274SOL    HW312869   6.175   0.773   0.460 -0.8807  0.7546 -0.0287
 3274SOL    MW412870   6.159   0.687   0.454  0.4129  0.4614  0.4164
 3275SOL     OW12871   0.549   6.183   4.769  0.3665  0.0752  0.9496
 3275SOL    HW212872   0.619   6.169   4.706  0.7943 -0.3515  1.5000
 3275SOL    HW312873   0.592   6.227   4.843 -0.1041  0.4909  0.9807
 3275SOL    MW412874   0.564   6.187   4.771  0.3609  0.0738  1.0263
 3276SOL     OW12875   4.414   0.156   0.073 -0.0374 -0.2586 -0.2179
 3276SOL    HW212876   4.384   0.144  -0.017 -0.1452 -0.3215 -0.1740
 3276SOL    HW312877   4.357   0.100   0.125  1.4033 -1.9249 -0.3528
 3276SOL    MW412878   4.402   0.147   0.068  0.1384 -0.4867 -0.2299
 3277SOL     OW12879   5.208   0.924   1.317  0.0797 -0.0121  0.2071
 3277SOL    HW212880   5.187   0.858   1.383 -0.6754 -0.2599 -0.2614
 3277SOL    HW312881   5.238   0.873   1.241 -2.3597  0.0088 -0.8532
 3277SOL    MW412882   5.209   0.908   1.315 -0.3418 -0.0420  0.0053
 3278SOL     OW12883   5.051   5.543   0.213 -0.0955  0.2247  0.2237
 3278SOL    HW212884   4.975   5.597   0.192  0.4144  0.9931  0.3095
 3278SOL    HW312885   5.014   5.466   0.257 -0.7266  1.2609  1.5995
 3278SOL    MW412886   5.036   5.540   0.216 -0.1115  0.4628  0.4165
 3279SOL     OW12887   3.532   1.632   4.063 -0.0702 -0.3765 -0.2526
 3279SOL    HW212888   3.449   1.677   4.082 -0.5802 -1.6454  0.6413
 3279SOL    HW312889   3.551   1.582   4.142  0.4761 -1.7342 -1.2087
 3279SOL    MW412890   3.523   1.632   4.076 -0.0654 -0.7230 -0.2608
 3280SOL     OW12891   4.713   0.358   0.230 -0.5458 -0.2958  0.3104
 3280SOL    HW212892   4.771   0.426   0.263 -0.4520  0.2458 -0.8879
 3280SOL    HW312893   4.668   0.399   0.155 -0.4859 -1.5370 -0.4447
 3280SOL    MW412894   4.715   0.372   0.224 -0.5255 -0.3881  0.0527
 3281SOL     OW12895   4.006   6.122   5.441  0.3193 -0.3709  0.2903
 3281SOL    HW212896   4.001   6.104   5.535 -0.3375  2.1531  0.8130
 3281SOL    HW312897   3.916   6.117   5.410 -0.3982  4.0747  1.0273
 3281SOL    MW412898   3.994   6.119   5.449  0.1380  0.5486  0.4565
 3282SOL     OW12899   2.357   4.355   4.303  0.0171 -0.3034 -0.1188
 3282SOL    HW212900   2.348   4.294   4.229  0.7172 -1.9562  1.0724
 3282SOL    HW312901   2.452   4.370   4.309 -0.2252  2.5690 -1.5797
 3282SOL    MW412902   2.368   4.349   4.294  0.0775 -0.1425 -0.1544
 3283SOL     OW12903   0.788   3.057   0.100  0.2517 -0.1895 -0.0704
 3283SOL    HW212904   0.766   3.043   0.008  1.1247 -0.2735 -0.2747
 3283SOL    HW312905   0.858   3.123   0.098 -2.4631  2.9513  0.7727
 3283SOL    MW412906   0.795   3.064   0.087  0.0087  0.2138  0.0139
 3284SOL     OW12907   1.268   5.079   3.097  0.0636 -0.0554 -0.3533
 3284SOL    HW212908   1.320   5.120   3.028  0.1289 -0.0142 -0.2809
 3284SOL    HW312909   1.323   5.087   3.176  0.1746 -0.4752 -0.3832
 3284SOL    MW412910   1.282   5.086   3.099  0.0869 -0.1053 -0.3477
 3285SOL     OW12911   2.876   1.249   5.608 -0.2128 -0.4662 -0.1187
 3285SOL    HW212912   2.938   1.264   5.536  1.8362  1.3725  1.8561
 3285SOL    HW312913   2.850   1.157   5.599  3.4138 -1.5905 -0.6908
 3285SOL    MW412914   2.881   1.239   5.597  0.5360 -0.3720  0.0664
 3286SOL     OW12915   1.464   1.811   3.595 -0.2308 -0.1825 -0.0609
 3286SOL    HW212916   1.453   1.853   3.510  1.1434  0.5569  0.1037
 3286SOL    HW312917   1.379   1.823   3.638 -1.0106 -0.7393 -1.3754
 3286SOL    MW412918   1.451   1.818   3.590 -0.1524 -0.1584 -0.2126
 3287SOL     OW12919   2.525   1.432   6.330 -0.1007  0.6878  0.0493
 3287SOL    HW212920   2.501   1.462   6.242 -1.4102  0.1498  0.1982
 3287SOL    HW312921   2.454   1.374   6.356  0.7698  0.0376  1.0767
 3287SOL    MW412922   2.512   1.429   6.322 -0.1586  0.5311  0.2045
 3288SOL     OW12923   2.034   3.932   2.697  0.1747  0.7861 -0.3779
 3288SOL    HW212924   2.108   3.967   2.648  0.2998 -0.4710 -1.1204
 3288SOL    HW312925   1.978   3.891   2.631  0.2152 -0.7169  0.4843
 3288SOL    MW412926   2.036   3.931   2.682  0.1965  0.4220 -0.3621
 3289SOL     OW12927   5.971   2.095   5.306  0.0384 -0.7193 -0.3949
 3289SOL    HW212928   5.936   2.008   5.322  1.2403 -0.9826  1.0213
 3289SOL    HW312929   6.066   2.084   5.312  0.1946  1.0647  2.2947
 3289SOL    MW412930   5.979   2.082   5.309  0.2176 -0.5187  0.1468
 3290SOL     OW12931   1.225   5.559   3.250  0.1265  0.1010 -0.5886
 3290SOL    HW212932   1.197   5.470   3.268 -0.0959  0.5593  1.6427
 3290SOL    HW312933   1.286   5.551   3.177  0.3922 -1.9066 -0.1993
 3290SOL    MW412934   1.229   5.546   3.243  0.1322 -0.1034 -0.2428
 3291SOL     OW12935   4.465   5.758   3.661 -0.4331 -0.5019  0.1821
 3291SOL    HW212936   4.496   5.847   3.649 -1.4640 -0.3192 -1.4081
 3291SOL    HW312937   4.482   5.715   3.577  2.1936 -2.5350  1.6066
 3291SOL    MW412938   4.472   5.764   3.649 -0.2226 -0.7460  0.1602
 3292SOL     OW12939   0.741   3.735   4.397 -0.4658 -0.2963 -0.2552
 3292SOL    HW212940   0.691   3.759   4.475 -0.3500  1.5308 -0.7126
 3292SOL    HW312941   0.705   3.649   4.372 -0.5986 -0.8565  1.6955
 3292SOL    MW412942   0.729   3.727   4.404 -0.4681 -0.1291 -0.0582
 3293SOL     OW12943   1.708   6.260   5.846 -0.1112  0.1636  0.4383
 3293SOL    HW212944   1.759   6.302   5.777  1.2790 -1.2583  0.5255
 3293SOL    HW312945   1.632   6.316   5.858  0.2476  1.1033 -1.3700
 3293SOL    MW412946   1.705   6.273   5.839  0.1195  0.1000  0.2112
 3294SOL     OW12947   1.659   4.112   5.352 -0.3723 -0.2089 -0.3460
 3294SOL    HW212948   1.625   4.058   5.424 -1.2739 -0.7105 -1.1383
 3294SOL    HW312949   1.600   4.187   5.348  0.9415  0.9579  0.8247
 3294SOL    MW412950   1.647   4.115   5.361 -0.3179 -0.1211 -0.2961
 3295SOL     OW12951   5.558   2.526   3.802  0.6702 -0.1629  0.5489
 3295SOL    HW212952   5.634   2.474   3.775  0.8225 -0.4260  1.4323
 3295SOL    HW312953   5.486   2.494   3.748  0.8326 -1.0819  0.8585
 3295SOL    MW412954   5.559   2.515   3.791  0.7117 -0.3189  0.7063
 3296SOL     OW12955   4.448   2.433   5.308 -0.0458 -0.1962  0.0620
 3296SOL    HW212956   4.416   2.493   5.376  1.0620  1.0082 -0.4454
 3296SOL    HW312957   4.459   2.488   5.231 -0.5331 -1.3952 -0.8928
 3296SOL    MW412958   4.445   2.448   5.307  0.0361 -0.1955 -0.1309
 3297SOL     OW12959   6.395   5.273   5.443  0.3197 -0.0968 -0.4004
 3297SOL    HW212960   6.483   5.295   5.411  0.6019  2.6637  1.8339
 3297SOL    HW312961   6.336   5.314   5.381  0.8185  3.0495  0.9896
 3297SOL    MW412962   6.399   5.281   5.431  0.4227  0.6825  0.0778
 3298SOL     OW12963   4.282   3.344   0.841 -0.2834  0.3006 -0.1913
 3298SOL    HW212964   4.338   3.416   0.814  0.0737 -0.4917 -1.7144
 3298SOL    HW312965   4.338   3.266   0.833 -0.7408 -0.1913  1.1283
 3298SOL    MW412966   4.297   3.343   0.836 -0.2967  0.1311 -0.2182
 3299SOL     OW12967   5.454   2.151   6.052  0.9702  0.3929  0.3587
 3299SOL    HW212968   5.399   2.228   6.070  0.4739 -0.1135  1.0374
 3299SOL    HW312969   5.394   2.087   6.014  1.5272  0.5753 -0.9059
 3299SOL    MW412970   5.439   2.153   6.049  0.9782  0.3501  0.2814
 3300SOL     OW12971   1.174   5.542   1.014  0.0128  0.4270 -0.0201
 3300SOL    HW212972   1.112   5.610   1.041 -0.3531  0.5181 -1.0387
 3300SOL    HW312973   1.212   5.510   1.096 -2.1927 -0.4241  0.7268
 3300SOL    MW412974   1.171   5.547   1.028 -0.3265  0.3268 -0.0559
 3301SOL     OW12975   3.065   2.724   3.004 -0.2694 -0.4186 -0.5467
 3301SOL    HW212976   2.996   2.698   3.065  0.3070 -0.7469 -0.0250
 3301SOL    HW312977   3.146   2.716   3.054  0.2598 -1.1146 -1.4813
 3301SOL    MW412978   3.066   2.720   3.019 -0.1235 -0.5538 -0.6012
 3302SOL     OW12979   5.167   3.792   4.479  0.2216 -0.0495  0.3866
 3302SOL    HW212980   5.168   3.699   4.459 -0.3746  0.3077 -1.5133
 3302SOL    HW312981   5.259   3.820   4.471 -0.0145  0.1537 -2.6003
 3302SOL    MW412982   5.180   3.784   4.475  0.1118  0.0245 -0.2581
 3303SOL     OW12983   1.319   2.470   4.467  0.3341  0.3440  0.1504
 3303SOL    HW212984   1.277   2.384   4.479  1.5676 -0.5404 -1.4080
 3303SOL    HW312985   1.394   2.469   4.526  1.9850 -0.8834 -1.8200
 3303SOL    MW412986   1.323   2.458   4.476  0.7146  0.0654 -0.3152
 3304SOL     OW12987   5.993   2.822   0.565 -0.1960 -0.2700  0.4152
 3304SOL    HW212988   6.083   2.793   0.581 -0.5000 -0.3696  2.1605
 3304SOL    HW312989   5.947   2.743   0.539 -0.4101 -0.8878  2.4815
 3304SOL    MW412990   5.999   2.808   0.564 -0.2643 -0.3647  0.9181
 3305SOL     OW12991   3.100   3.050   2.361 -0.5799  0.1691  0.7851
 3305SOL    HW212992   3.136   3.119   2.306  0.8119  0.3796  1.8965
 3305SOL    HW312993   3.017   3.027   2.320 -0.0610  1.0068 -0.8082
 3305SOL    MW412994   3.094   3.056   2.349 -0.3278  0.3074  0.7215
 3306SOL     OW12995   4.434   2.494   2.149  0.3353  0.2151 -0.5817
 3306SOL    HW212996   4.513   2.459   2.110 -0.5958 -0.5252 -1.8725
 3306SOL    HW312997   4.372   2.503   2.076 -1.0134  0.0635  0.4939
 3306SOL    MW412998   4.436   2.490   2.134  0.0345  0.0975 -0.6101
 3307SOL     OW12999   0.112   2.766   1.983  0.4173  0.3498 -0.0540
 3307SOL    HW213000   0.100   2.699   2.050 -1.2535  0.3450 -0.3173
 3307SOL    HW313001   0.046   2.832   2.002  0.2086  0.5734 -1.4167
 3307SOL    MW413002   0.102   2.766   1.994  0.1694  0.3786 -0.2685
 3308SOL     OW13003   2.742   1.807   2.467  0.3169 -0.1360 -0.2358
 3308SOL    HW213004   2.770   1.760   2.388 -1.5672  0.3483 -1.2441
 3308SOL    HW313005   2.783   1.893   2.460  2.6580 -1.0598  0.9292
 3308SOL    MW413006   2.751   1.812   2.456  0.3772 -0.1940 -0.2151
 3309SOL     OW13007   1.849   3.101   2.670 -0.5830  0.2806  0.4350
 3309SOL    HW213008   1.930   3.072   2.628 -0.8685  1.3050 -0.8718
 3309SOL    HW313009   1.783   3.099   2.600 -2.1090 -2.0358  1.8035
 3309SOL    MW413010   1.851   3.097   2.655 -0.8220  0.1101  0.4431
 3310SOL     OW13011   4.093   0.782   1.606  0.0834 -0.0247  0.1969
 3310SOL    HW213012   4.027   0.850   1.594 -0.2939 -0.2602  0.8902
 3310SOL    HW313013   4.160   0.801   1.540 -1.2225 -0.4644 -1.3217
 3310SOL    MW413014   4.093   0.793   1.596 -0.1387 -0.1138  0.0880
 3311SOL     OW13015   0.462   2.790   3.227  0.0597  0.1760 -0.1304
 3311SOL    HW213016   0.474   2.861   3.291 -0.3636 -0.5631  0.8006
 3311SOL    HW313017   0.506   2.715   3.267 -0.3731 -0.3493 -0.6268
 3311SOL    MW413018   0.470   2.790   3.241 -0.0532  0.0092 -0.0731
 3312SOL     OW13019   3.195   5.424   3.813 -0.4048  0.0112 -0.0853
 3312SOL    HW213020   3.118   5.440   3.868 -1.3996  0.3216 -1.5208
 3312SOL    HW313021   3.165   5.443   3.724  1.2930 -0.0481 -0.6926
 3312SOL    MW413022   3.181   5.428   3.809 -0.3121  0.0444 -0.3548
 3313SOL     OW13023   6.192   5.957   6.088  0.1513 -0.3434  0.1542
 3313SOL    HW213024   6.273   5.918   6.122 -0.2030 -0.6599  0.6577
 3313SOL    HW313025   6.194   6.048   6.118 -0.1732 -0.6246  1.0887
 3313SOL    MW413026   6.203   5.964   6.097  0.0617 -0.4222  0.3439
 3314SOL     OW13027   5.549   1.567   1.644  0.2952 -0.0900  0.0339
 3314SOL    HW213028   5.585   1.479   1.652  0.6626 -0.0701 -1.1806
 3314SOL    HW313029   5.625   1.625   1.658  0.3790 -0.0091 -0.7104
 3314SOL    MW413030   5.564   1.563   1.647  0.3548 -0.0767 -0.2246
 3315SOL     OW13031   0.704   1.970   2.347  0.4713  0.6314 -0.2811
 3315SOL    HW213032   0.728   1.878   2.342  0.6295  0.7062 -0.9505
 3315SOL    HW313033   0.609   1.972   2.330  0.3395  0.5305  0.4111
 3315SOL    MW413034   0.694   1.958   2.344  0.4748  0.6279 -0.2781
 3316SOL     OW13035   0.540   0.205   2.743  0.2295  0.0975 -0.1972
 3316SOL    HW213036   0.627   0.244   2.747  0.0622  0.5371 -0.7453
 3316SOL    HW313037   0.487   0.269   2.696 -0.4231 -0.1047  0.2492
 3316SOL    MW413038   0.544   0.219   2.738  0.1213  0.1288 -0.2106
 3317SOL     OW13039   0.701   3.803   6.290 -0.1765  0.5169  0.1154
 3317SOL    HW213040   0.662   3.889   6.279 -1.6309 -0.1095  0.1356
 3317SOL    HW313041   0.651   3.763   6.361  1.5445  0.2356  1.2297
 3317SOL    MW413042   0.689   3.809   6.298 -0.1413  0.3972  0.2651
 3318SOL     OW13043   0.229   5.448   4.361 -0.5494  0.0359 -0.3872
 3318SOL    HW213044   0.164   5.477   4.297  0.2192 -1.6156 -1.9924
 3318SOL    HW313045   0.313   5.472   4.323 -0.1326  0.8021  0.9643
 3318SOL    MW413046   0.231   5.455   4.348 -0.3930 -0.0809 -0.4207
 3319SOL     OW13047   1.257   5.114   0.942 -0.1517 -0.0899 -0.5048
 3319SOL    HW213048   1.293   5.038   0.897  1.4796  0.5251 -0.3018
 3319SOL    HW313049   1.211   5.163   0.874  1.1639  0.1464 -1.2551
 3319SOL    MW413050   1.255   5.111   0.927  0.2371  0.0224 -0.5770
 3320SOL     OW13051   3.779   6.387   4.906  0.0158 -0.4353 -0.4457
 3320SOL    HW213052   3.728   6.469   4.904  0.3010 -0.2588 -0.5206
 3320SOL    HW313053   3.860   6.408   4.859  0.9442 -0.1691  1.1887
 3320SOL    MW413054   3.783   6.401   4.900  0.1759 -0.3769 -0.2399
 3321SOL     OW13055   3.870   0.362   5.860  0.7631  0.1026  0.4047
 3321SOL    HW213056   3.902   0.293   5.802 -1.0699  1.0195 -1.8646
 3321SOL    HW313057   3.778   0.342   5.874 -0.5931  3.2434 -2.4747
 3321SOL    MW413058   3.862   0.350   5.854  0.3423  0.6380 -0.2746
 3322SOL     OW13059   1.721   1.737   3.205  0.3424  0.3848  0.3183
 3322SOL    HW213060   1.711   1.725   3.299 -1.8032  2.0865  0.3959
 3322SOL    HW313061   1.801   1.788   3.195  1.1693 -0.7115  1.0892
 3322SOL    MW413062   1.730   1.742   3.216  0.1684  0.4647  0.4302
 3323SOL     OW13063   0.635   5.638   2.634  0.1937  0.1222 -0.2430
 3323SOL    HW213064   0.613   5.701   2.703  2.4694  0.1242  0.5545
 3323SOL    HW313065   0.579   5.563   2.652 -0.8859  1.0017  0.2083
 3323SOL    MW413066   0.625   5.637   2.646  0.3515  0.2385 -0.0783
 3324SOL     OW13067   3.775   1.859   4.499  0.2011  0.0221 -0.3582
 3324SOL    HW213068   3.679   1.863   4.508  0.3210 -0.2629  1.3702
 3324SOL    HW313069   3.796   1.766   4.506  0.6783  0.1716  0.2199
 3324SOL    MW413070   3.765   1.847   4.501  0.2799  0.0042 -0.0539
 3325SOL     OW13071   2.706   2.664   5.131  0.2033  0.4648  0.5689
 3325SOL    HW213072   2.663   2.750   5.138  1.0597  0.9951 -0.3650
 3325SOL    HW313073   2.799   2.684   5.138  0.5034 -0.2000 -1.0239
 3325SOL    MW413074   2.713   2.678   5.133  0.3559  0.4470  0.2355
 3326SOL     OW13075   4.171   5.195   0.230  0.6112 -0.4672  0.3321
 3326SOL    HW213076   4.233   5.251   0.277  0.4110  0.0650 -0.0267
 3326SOL    HW313077   4.215   5.173   0.148  0.1942  0.2060 -0.0828
 3326SOL    MW413078   4.185   5.199   0.225  0.5298 -0.3081  0.2300
 3327SOL     OW13079   2.889   1.280   4.133  0.1353  0.3723  0.6149
 3327SOL    HW213080   2.852   1.241   4.054  1.2873  0.5488 -0.0323
 3327SOL    HW313081   2.938   1.208   4.174  1.2511  0.7970  0.0613
 3327SOL    MW413082   2.890   1.265   4.128  0.4345  0.4516  0.4565
 3328SOL     OW13083   2.749   1.505   1.237 -0.1101  0.1165  0.2775
 3328SOL    HW213084   2.761   1.552   1.320 -1.0123  0.1385  0.4040
 3328SOL    HW313085   2.809   1.431   1.243  0.4073  0.5574  0.6123
 3328SOL    MW413086   2.759   1.501   1.249 -0.1609  0.1776  0.3384
 3329SOL     OW13087   4.858   1.151   0.577  0.2124 -0.2966  0.1414
 3329SOL    HW213088   4.770   1.122   0.555  0.3338  0.2427 -1.1753
 3329SOL    HW313089   4.895   1.081   0.630 -0.2984 -1.4779 -1.0177
 3329SOL    MW413090   4.852   1.138   0.581  0.1610 -0.3813 -0.1853
 3330SOL     OW13091   5.758   2.787   0.238 -0.2100  0.6274  0.0913
 3330SOL    HW213092   5.712   2.704   0.241  1.1967 -0.1779  0.4201
 3330SOL    HW313093   5.724   2.836   0.313 -0.2991 -0.0820  0.5216
 3330SOL    MW413094   5.747   2.783   0.249 -0.0362  0.4276  0.1914
 3331SOL     OW13095   4.899   1.543   0.176 -0.5720  0.5191 -0.1182
 3331SOL    HW213096   4.981   1.511   0.138 -1.8633 -1.2953 -1.5743
 3331SOL    HW313097   4.901   1.637   0.162  1.5821  0.6527  0.6066
 3331SOL    MW413098   4.910   1.551   0.169 -0.4582  0.2974 -0.2147
 3332SOL     OW13099   6.071   0.762   2.009 -0.0472 -0.6125 -0.4781
 3332SOL    HW213100   6.114   0.841   1.975  1.8327 -1.2949  0.1887
 3332SOL    HW313101   6.136   0.723   2.067 -2.7187 -0.0910  3.1523
 3332SOL    MW413102   6.085   0.768   2.012 -0.1516 -0.6337  0.0889
 3333SOL     OW13103   1.834   3.491   1.803  0.5068  0.4454  0.3445
 3333SOL    HW213104   1.920   3.504   1.842  0.1239  0.7534  1.0956
 3333SOL    HW313105   1.783   3.567   1.832  0.7014  1.6343 -2.1472
 3333SOL    MW413106   1.839   3.503   1.812  0.4820  0.6429  0.1149
 3334SOL     OW13107   2.746   6.094   1.752 -0.6939 -0.0250 -0.2503
 3334SOL    HW213108   2.728   6.014   1.801 -0.1792  0.2953  0.4776
 3334SOL    HW313109   2.680   6.095   1.683  0.2987 -1.9224 -1.3105
 3334SOL    MW413110   2.735   6.084   1.749 -0.4950 -0.2331 -0.2941
 3335SOL     OW13111   5.776   3.506   3.935  0.0975  0.2230 -0.4829
 3335SOL    HW213112   5.734   3.449   3.871 -1.6287  0.5115  0.3256
 3335SOL    HW313113   5.761   3.595   3.902 -2.3605  0.4951  1.0728
 3335SOL    MW413114   5.769   3.510   3.922 -0.4546  0.2970 -0.1710
 3336SOL     OW13115   4.741   3.401   5.411 -0.0364 -0.3951 -0.4312
 3336SOL    HW213116   4.664   3.345   5.406 -0.9886  0.7789  0.3651
 3336SOL    HW313117   4.802   3.353   5.467  0.1578 -1.6960 -1.7180
 3336SOL    MW413118   4.739   3.387   5.418 -0.1364 -0.4118 -0.4959
 3337SOL     OW13119   1.650   2.572   5.749  0.3294  0.6439 -0.6655
 3337SOL    HW213120   1.656   2.520   5.669 -0.5055  0.8797 -0.8881
 3337SOL    HW313121   1.602   2.517   5.810  1.7134  0.1060 -0.0088
 3337SOL    MW413122   1.644   2.558   5.746  0.4018  0.6040 -0.6083
 3338SOL     OW13123   0.265   3.743   2.606  0.1743  0.1680  0.4054
 3338SOL    HW213124   0.321   3.672   2.639 -0.2505  0.0417  0.8761
 3338SOL    HW313125   0.192   3.697   2.564 -0.3357  0.3167  1.1138
 3338SOL    MW413126   0.262   3.728   2.605  0.0510  0.1710  0.5610
 3339SOL     OW13127   1.079   3.804   3.750  0.0434  0.1622  0.1946
 3339SOL    HW213128   1.040   3.791   3.837 -0.7139  0.8963 -0.0228
 3339SOL    HW313129   1.089   3.716   3.715 -1.3901 -0.0526  0.2788
 3339SOL    MW413130   1.075   3.791   3.757 -0.2456  0.2307  0.1770
 3340SOL     OW13131   0.479   5.408   3.750 -0.7067  0.5156 -0.2536
 3340SOL    HW213132   0.504   5.348   3.680 -0.5141 -1.6884  1.5996
 3340SOL    HW313133   0.440   5.483   3.705  0.3814 -0.3074 -2.7384
 3340SOL    MW413134   0.477   5.410   3.735 -0.5377  0.1162 -0.3369
 3341SOL     OW13135   1.473   0.563   3.601 -0.9781  0.3283  0.4256
 3341SOL    HW213136   1.400   0.541   3.543  0.2784  0.2731 -1.2105
 3341SOL    HW313137   1.551   0.553   3.546  0.5103 -1.9804  2.7032
 3341SOL    MW413138   1.473   0.558   3.586 -0.6160  0.0164  0.5102
 3342SOL     OW13139   0.286   1.420   6.236  0.6712 -0.7030  0.5673
 3342SOL    HW213140   0.296   1.468   6.319  0.8826 -0.8935  0.6527
 3342SOL    HW313141   0.197   1.384   6.240  0.9038 -1.2515  1.0009
 3342SOL    MW413142   0.276   1.422   6.248  0.7298 -0.8005  0.6358
 3343SOL     OW13143   1.853   3.237   0.233  0.3280  0.3825  0.0410
 3343SOL    HW213144   1.803   3.265   0.309  0.3840  0.7634 -0.0589
 3343SOL    HW313145   1.822   3.149   0.214 -0.0122  0.4627  0.2281
 3343SOL    MW413146   1.842   3.229   0.240  0.2905  0.4433  0.0525
 3344SOL     OW13147   1.116   1.131   3.998  0.0426  0.3263 -0.0071
 3344SOL    HW213148   1.080   1.060   4.051 -1.1729  0.6986 -0.3024
 3344SOL    HW313149   1.168   1.183   4.059  4.1219 -2.8000 -0.4417
 3344SOL    MW413150   1.118   1.129   4.013  0.4205 -0.0371 -0.1034
 3345SOL     OW13151   2.002   2.073   0.962 -0.3592  0.2716 -0.3292
 3345SOL    HW213152   2.002   2.018   1.040 -0.9396  0.4314 -0.2150
 3345SOL    HW313153   2.072   2.136   0.976  0.0930 -0.2241 -0.3136
 3345SOL    MW413154   2.011   2.074   0.974 -0.3761  0.2273 -0.3121
 3346SOL     OW13155   0.812   1.311   5.898 -0.1873  0.4361 -0.2652
 3346SOL    HW213156   0.728   1.265   5.900 -1.2377  2.1549 -1.8845
 3346SOL    HW313157   0.831   1.330   5.990 -1.4249 -0.2064  0.1441
 3346SOL    MW413158   0.803   1.308   5.911 -0.4892  0.5781 -0.4248
 3347SOL     OW13159   3.947   4.341   2.214 -0.5574 -0.3164  0.2377
 3347SOL    HW213160   4.026   4.386   2.186 -0.7856 -0.2574 -0.3219
 3347SOL    HW313161   3.979   4.262   2.258 -0.1426  0.5849  1.6031
 3347SOL    MW413162   3.962   4.337   2.216 -0.5328 -0.1897  0.3440
 3348SOL     OW13163   1.207   5.933   3.406 -0.1367  0.0534  0.4065
 3348SOL    HW213164   1.145   5.983   3.459  2.4414  1.8638  1.9402
 3348SOL    HW313165   1.220   5.852   3.454 -0.8819 -0.0882  0.3715
 3348SOL    MW413166   1.201   5.929   3.419  0.1052  0.2736  0.6042
 3349SOL     OW13167   3.546   5.111   2.318  0.0754  0.1892  0.4171
 3349SOL    HW213168   3.560   5.198   2.356  0.3018  0.2539  0.1877
 3349SOL    HW313169   3.574   5.120   2.227  1.5857 -0.5265  0.7779
 3349SOL    MW413170   3.552   5.124   2.311  0.3045  0.1033  0.4345
 3350SOL     OW13171   2.161   4.023   1.679 -0.3495  0.1784 -0.2452
 3350SOL    HW213172   2.142   4.117   1.683 -0.1524  0.1983  0.5047
 3350SOL    HW313173   2.109   3.990   1.606  1.0613  1.2079 -1.7953
 3350SOL    MW413174   2.152   4.031   1.670 -0.1373  0.3168 -0.3508
 3351SOL     OW13175   5.045   4.284   4.088  0.5929 -0.4422 -0.1056
 3351SOL    HW213176   4.974   4.270   4.025  0.7372 -0.5206 -0.2508
 3351SOL    HW313177   5.080   4.197   4.105  1.6418 -0.2580 -1.1944
 3351SOL    MW413178   5.040   4.271   4.082  0.7503 -0.4283 -0.2684
 3352SOL     OW13179   1.158   4.357   4.966 -0.5310 -0.1771  0.2945
 3352SOL    HW213180   1.157   4.444   5.006 -1.1323 -0.4005  0.7844
 3352SOL    HW313181   1.122   4.299   5.034 -0.1453 -0.8054 -0.0272
 3352SOL    MW413182   1.153   4.361   4.980 -0.5594 -0.2895  0.3167
 3353SOL     OW13183   3.959   0.158   0.269  0.2015  0.1136 -0.2575
 3353SOL    HW213184   3.999   0.231   0.222  1.4868 -0.5915 -0.2949
 3353SOL    HW313185   3.871   0.151   0.232  0.2580  1.2699 -0.6523
 3353SOL    MW413186   3.953   0.167   0.258  0.3786  0.1731 -0.3145
 3354SOL     OW13187   0.068   3.588   2.512  0.0535 -0.0774 -0.3513
 3354SOL    HW213188  -0.015   3.633   2.502  1.2040  2.4424  0.6918
 3354SOL    HW313189   0.088   3.554   2.425 -2.1230 -0.9691 -0.5623
 3354SOL    MW413190   0.060   3.589   2.500 -0.0819  0.1374 -0.2415
 3355SOL     OW13191   5.240   5.844   4.047 -0.0677  0.2660  0.3255
 3355SOL    HW213192   5.245   5.892   4.130  1.4029  0.0941  0.3566
 3355SOL    HW313193   5.252   5.752   4.071  0.7702  0.2533 -0.1055
 3355SOL    MW413194   5.242   5.838   4.061  0.2369  0.2417  0.2728
 3356SOL     OW13195   5.428   4.980   3.952  0.2235 -0.1855 -0.2496
 3356SOL    HW213196   5.343   4.947   3.923 -0.2283  0.2041  0.5861
 3356SOL    HW313197   5.436   4.949   4.042  0.8434  0.0185 -0.2303
 3356SOL    MW413198   5.418   4.972   3.960  0.2457 -0.1072 -0.1368
 3357SOL     OW13199   6.300   4.338   5.862  0.3835 -0.0258 -0.3310
 3357SOL    HW213200   6.364   4.268   5.849  1.2326  0.9272 -1.5214
 3357SOL    HW313201   6.216   4.299   5.838  0.3908 -1.4477  1.7140
 3357SOL    MW413202   6.297   4.324   5.857  0.4965 -0.0877 -0.2182
 3358SOL     OW13203   6.036   3.081   0.392 -0.1045 -0.1479  0.7915
 3358SOL    HW213204   6.014   3.013   0.328 -1.3070  0.2084  0.7846
 3358SOL    HW313205   6.040   3.162   0.340  2.9915 -0.3844  0.5097
 3358SOL    MW413206   6.033   3.083   0.376  0.1453 -0.1321  0.7534
 3359SOL     OW13207   4.528   4.357   0.348  0.5044 -0.3850 -0.1003
 3359SOL    HW213208   4.606   4.308   0.321  1.6327  0.8589  0.7940
 3359SOL    HW313209   4.507   4.322   0.435 -0.1469 -0.9243 -0.4598
 3359SOL    MW413210   4.535   4.346   0.356  0.5674 -0.2920 -0.0297
 3360SOL     OW13211   2.944   2.475   0.931  0.0990 -0.3610  0.5925
 3360SOL    HW213212   2.915   2.545   0.873 -1.6111  1.0001  2.9477
 3360SOL    HW313213   2.879   2.405   0.919  0.6837 -0.7731 -0.2890
 3360SOL    MW413214   2.932   2.475   0.922 -0.0495 -0.2358  0.7869
 3361SOL     OW13215   1.539   1.424   1.304  0.0853 -0.2439 -0.3343
 3361SOL    HW213216   1.530   1.359   1.235  0.6510  0.7407 -1.3658
 3361SOL    HW313217   1.487   1.499   1.275 -0.8997 -0.3507  1.0349
 3361SOL    MW413218   1.531   1.426   1.291  0.0300 -0.1281 -0.2898
 3362SOL     OW13219   5.040   3.686   6.202  0.0602 -0.2432  0.1536
 3362SOL    HW213220   5.036   3.782   6.209 -2.2089 -0.3958  2.0412
 3362SOL    HW313221   5.081   3.658   6.284  0.7999 -0.9131 -0.4289
 3362SOL    MW413222   5.045   3.695   6.213 -0.1416 -0.3517  0.3258
 3363SOL     OW13223   1.026   4.518   1.599  0.0211  0.3982  0.2244
 3363SOL    HW213224   1.013   4.560   1.684 -0.9232  0.6712 -0.0394
 3363SOL    HW313225   1.120   4.504   1.593 -0.0209 -0.9996  1.9675
 3363SOL    MW413226   1.036   4.522   1.609 -0.1090  0.2498  0.4196
 3364SOL     OW13227   5.200   1.320   5.227 -0.4810 -0.4533 -0.3093
 3364SOL    HW213228   5.114   1.349   5.258 -0.3165  0.8880 -1.0210
 3364SOL    HW313229   5.193   1.225   5.221 -2.1367 -0.3234 -0.9366
 3364SOL    MW413230   5.188   1.311   5.230 -0.6778 -0.2592 -0.4860
 3365SOL     OW13231   4.169   0.601   2.966 -0.1565  0.2392 -0.0923
 3365SOL    HW213232   4.198   0.652   3.041  0.7930 -0.1350 -0.1942
 3365SOL    HW313233   4.240   0.611   2.901  0.1608 -1.3749 -0.0240
 3365SOL    MW413234   4.182   0.609   2.967  0.0106 -0.0232 -0.0967
 3366SOL     OW13235   1.369   1.114   4.956  0.5030 -0.0052 -0.2364
 3366SOL    HW213236   1.369   1.173   5.031  1.9655  0.5135 -0.6030
 3366SOL    HW313237   1.332   1.165   4.885 -0.1012 -0.2174 -0.0807
 3366SOL    MW413238   1.364   1.129   4.957  0.6163  0.0353 -0.2642
 3367SOL     OW13239   1.366   5.684   0.858 -0.0684 -0.4805  0.1672
 3367SOL    HW213240   1.355   5.777   0.880 -0.9759 -0.9779  1.9911
 3367SOL    HW313241   1.290   5.641   0.898  0.4826 -2.0622 -0.4162
 3367SOL    MW413242   1.354   5.691   0.866 -0.1154 -0.7548  0.3309
 3368SOL     OW13243   3.669   5.884   3.934 -0.2470  0.2009  0.4148
 3368SOL    HW213244   3.680   5.935   3.853 -0.5807  0.3010  0.4332
 3368SOL    HW313245   3.588   5.916   3.972  0.7463  1.3627  1.6684
 3368SOL    MW413246   3.660   5.895   3.928 -0.1600  0.3674  0.5826
 3369SOL     OW13247   2.401   4.713   6.359 -0.2381  0.0656  0.0278
 3369SOL    HW213248   2.472   4.777   6.354  0.7911 -1.0363 -0.1574
 3369SOL    HW313249   2.355   4.733   6.440  1.0726  0.0440  0.8033
 3369SOL    MW413250   2.405   4.724   6.369  0.0706 -0.0826  0.1057
 3370SOL     OW13251   4.800   1.580   2.952  0.5650 -0.3760 -0.2199
 3370SOL    HW213252   4.723   1.630   2.981 -0.3198 -2.2826  0.9375
 3370SOL    HW313253   4.791   1.576   2.857  0.1410  0.8131 -0.2522
 3370SOL    MW413254   4.788   1.586   2.943  0.3923 -0.4707 -0.0715
 3371SOL     OW13255   4.962   2.730   1.223  0.3133  0.4656  0.3939
 3371SOL    HW213256   4.966   2.667   1.295  1.1544  0.1393  0.0755
 3371SOL    HW313257   4.876   2.717   1.185  0.8092 -1.1620 -0.2450
 3371SOL    MW413258   4.951   2.720   1.228  0.4897  0.2078  0.2676
 3372SOL     OW13259   5.577   4.303   0.802  0.1861  0.3903  0.5854
 3372SOL    HW213260   5.484   4.289   0.785  0.3256  0.9250 -0.7410
 3372SOL    HW313261   5.581   4.387   0.846  0.1191  0.9552 -0.4588
 3372SOL    MW413262   5.565   4.312   0.805  0.1957  0.5354  0.2727
 3373SOL     OW13263   4.624   0.203   3.452 -0.3208 -0.0553  0.6338
 3373SOL    HW213264   4.659   0.281   3.410  0.0886 -1.4193 -1.7037
 3373SOL    HW313265   4.692   0.137   3.441 -1.6736 -1.4439  0.2468
 3373SOL    MW413266   4.638   0.205   3.445 -0.4452 -0.4185  0.2744
 3374SOL     OW13267   5.249   4.041   1.457 -0.2928  0.4362 -0.0451
 3374SOL    HW213268   5.335   4.078   1.476  0.8585 -1.5737 -0.9288
 3374SOL    HW313269   5.238   3.972   1.523 -0.0576 -0.9551 -1.3901
 3374SOL    MW413270   5.259   4.036   1.469 -0.1099 -0.0126 -0.3392
 3375SOL     OW13271   5.663   2.109   5.859 -0.1497  0.1944  0.3307
 3375SOL    HW213272   5.678   2.022   5.896 -0.0830  0.0242 -0.0862
 3375SOL    HW313273   5.606   2.153   5.921  0.7096  0.2450  1.0998
 3375SOL    MW413274   5.657   2.103   5.872 -0.0275  0.1786  0.3772
 3376SOL     OW13275   4.423   3.802   0.749 -0.2388 -0.1686 -0.0507
 3376SOL    HW213276   4.502   3.854   0.757 -0.3512  0.0124 -0.1110
 3376SOL    HW313277   4.454   3.711   0.743 -0.0772 -0.1852  0.9090
 3376SOL    MW413278   4.437   3.797   0.749 -0.2323 -0.1469  0.0680
 3377SOL     OW13279   2.291   6.079   1.298 -0.1476 -0.7551  0.3664
 3377SOL    HW213280   2.338   6.150   1.342 -0.8182 -1.2437  1.9528
 3377SOL    HW313281   2.239   6.123   1.231 -0.0988  0.1947  0.9256
 3377SOL    MW413282   2.290   6.094   1.295 -0.2296 -0.6942  0.6495
 3378SOL     OW13283   3.087   1.347   3.878  0.0911 -0.2198  0.0817
 3378SOL    HW213284   3.074   1.359   3.972  0.8117  0.1326  0.1507
 3378SOL    HW313285   3.067   1.255   3.862 -1.7360  0.1086  0.2610
 3378SOL    MW413286   3.083   1.337   3.888 -0.0549 -0.1300  0.1145
 3379SOL     OW13287   2.815   6.414   4.406 -0.4509 -0.2370 -0.6598
 3379SOL    HW213288   2.836   6.321   4.416 -0.2549 -0.2284 -0.9829
 3379SOL    HW313289   2.900   6.458   4.408 -0.6472  0.1994  2.0687
 3379SOL    MW413290   2.829   6.408   4.408 -0.4510 -0.1783 -0.3424
 3380SOL     OW13291   5.807   4.230   2.609 -0.0856 -0.2744 -0.3867
 3380SOL    HW213292   5.887   4.226   2.662 -1.0442  0.2054  1.1764
 3380SOL    HW313293   5.837   4.220   2.519  1.7189 -0.2176  0.1674
 3380SOL    MW413294   5.821   4.228   2.604  0.0260 -0.2036 -0.1074
 3381SOL     OW13295   0.155   4.158   0.626 -0.1463  0.3500 -0.3576
 3381SOL    HW213296   0.167   4.063   0.621 -0.3553  0.3754 -1.6760
 3381SOL    HW313297   0.093   4.178   0.556  0.1880  1.5110 -0.3415
 3381SOL    MW413298   0.149   4.148   0.616 -0.1298  0.5065 -0.5294
 3382SOL     OW13299   4.416   0.622   0.913  0.1443 -0.2172 -0.5821
 3382SOL    HW213300   4.418   0.624   0.818  0.4932 -2.5871 -0.6861
 3382SOL    HW313301   4.330   0.587   0.935 -0.3710  1.3708  0.0499
 3382SOL    MW413302   4.405   0.618   0.904  0.1223 -0.3204 -0.5124
 3383SOL     OW13303   4.311   5.432   1.307  0.0695 -0.5086 -0.1587
 3383SOL    HW213304   4.231   5.394   1.343  0.3933 -1.0386  0.0125
 3383SOL    HW313305   4.294   5.526   1.305  0.1192 -0.4481  1.5514
 3383SOL    MW413306   4.298   5.439   1.311  0.1188 -0.5706  0.0895
 3384SOL     OW13307   5.576   2.672   5.554 -0.2746  0.0726  0.3072
 3384SOL    HW213308   5.547   2.672   5.463 -0.3476 -0.3167  0.3311
 3384SOL    HW313309   5.574   2.580   5.580 -1.6445  0.3150  1.1417
 3384SOL    MW413310   5.572   2.660   5.545 -0.4650  0.0532  0.4205
 3385SOL     OW13311   3.998   3.482   3.705  0.6331 -0.2820  0.1880
 3385SOL    HW213312   4.008   3.567   3.663  1.3810 -0.8108 -0.7509
 3385SOL    HW313313   4.086   3.458   3.733  0.8135 -1.6257 -1.3749
 3385SOL    MW413314   4.011   3.490   3.703  0.7556 -0.5291 -0.1421
 3386SOL     OW13315   3.752   3.644   2.111  0.2541 -0.1456 -0.1899
 3386SOL    HW213316   3.668   3.667   2.072  0.0278 -1.3423 -0.4415
 3386SOL    HW313317   3.817   3.689   2.056 -0.1503 -0.3355 -0.8282
 3386SOL    MW413318   3.750   3.653   2.099  0.1709 -0.3285 -0.3073
 3387SOL     OW13319   5.709   5.917   2.221 -0.0563  0.0952  0.2065
 3387SOL    HW213320   5.698   6.007   2.254  0.0242 -0.4772  1.8489
 3387SOL    HW313321   5.799   5.894   2.243  0.4056  0.1032 -1.5371
 3387SOL    MW413322   5.719   5.926   2.228  0.0152  0.0207  0.1932
 3388SOL     OW13323   5.003   0.905   3.903 -0.6251 -0.1541 -0.2377
 3388SOL    HW213324   4.949   0.916   3.981  1.0437 -0.2187  0.9822
 3388SOL    HW313325   5.044   0.990   3.889 -2.1177  0.3323 -2.0511
 3388SOL    MW413326   5.002   0.917   3.912 -0.6018 -0.0985 -0.3160
 3389SOL     OW13327   4.636   5.079   2.388 -0.2164  0.0202 -0.3986
 3389SOL    HW213328   4.560   5.122   2.426 -0.9914 -1.1090 -0.6087
 3389SOL    HW313329   4.663   5.015   2.454  0.3693  0.2100 -0.4490
 3389SOL    MW413330   4.630   5.076   2.402 -0.2414 -0.1037 -0.4330
 3390SOL     OW13331   3.909   1.982   0.540  0.0895  0.1906  0.2319
 3390SOL    HW213332   4.002   1.992   0.560 -0.0718 -0.2800  1.3109
 3390SOL    HW313333   3.889   1.892   0.567 -1.1718  1.0033  2.2253
 3390SOL    MW413334   3.919   1.972   0.546 -0.0982  0.2357  0.6373
 3391SOL     OW13335   2.750   3.266   5.791  0.0978 -0.9208  0.1833
 3391SOL    HW213336   2.768   3.173   5.802  1.3757 -0.8698 -1.2086
 3391SOL    HW313337   2.794   3.290   5.710  1.2828  1.2800  1.3817
 3391SOL    MW413338   2.758   3.257   5.782  0.4228 -0.6237  0.1578
 3392SOL     OW13339   5.008   0.525   4.084  0.3983 -0.0625 -0.0355
 3392SOL    HW213340   5.010   0.470   4.162  0.1196 -0.1943 -0.1224
 3392SOL    HW313341   5.033   0.612   4.116 -0.1699 -0.0126  0.2861
 3392SOL    MW413342   5.012   0.530   4.099  0.2865 -0.0733 -0.0045
 3393SOL     OW13343   5.267   3.836   3.542 -0.0751  0.1300 -0.4105
 3393SOL    HW213344   5.221   3.830   3.626  0.4970 -0.6094 -0.1437
 3393SOL    HW313345   5.234   3.762   3.491 -1.5624  1.4376 -1.4320
 3393SOL    MW413346   5.257   3.826   3.547 -0.1958  0.2050 -0.5101
 3394SOL     OW13347   0.681   0.131   5.111 -0.4337  0.3609  0.8446
 3394SOL    HW213348   0.745   0.181   5.060  0.5532 -1.3190  0.3792
 3394SOL    HW313349   0.716   0.129   5.200 -1.6207  2.3672  1.4328
 3394SOL    MW413350   0.694   0.137   5.116 -0.4601  0.4039  0.8608
 3395SOL     OW13351   3.588   3.136   4.661  0.6723 -0.5195  0.1109
 3395SOL    HW213352   3.603   3.058   4.606  2.3984 -0.2935  0.2059
 3395SOL    HW313353   3.495   3.134   4.680  0.6041 -2.3676 -0.2142
 3395SOL    MW413354   3.578   3.125   4.656  0.8910 -0.7335  0.0806
 3396SOL     OW13355   1.695   0.125   6.031  0.5371 -0.8737 -0.0380
 3396SOL    HW213356   1.608   0.098   6.001  0.2876  1.2290 -1.4117
 3396SOL    HW313357   1.748   0.045   6.024 -0.7231 -1.6489 -1.4104
 3396SOL    MW413358   1.690   0.111   6.026  0.3379 -0.6985 -0.4003
 3397SOL     OW13359   5.160   0.681   3.706 -0.2312 -0.6759  0.0926
 3397SOL    HW213360   5.101   0.616   3.745  0.6322 -0.1673  2.4372
 3397SOL    HW313361   5.129   0.765   3.741  1.4942 -0.3391  0.9282
 3397SOL    MW413362   5.148   0.684   3.716  0.1104 -0.5644  0.5122
 3398SOL     OW13363   4.554   3.402   2.909  0.8344 -0.0093 -0.4066
 3398SOL    HW213364   4.537   3.475   2.968  1.8761 -1.6650  2.1156
 3398SOL    HW313365   4.650   3.397   2.904  0.9320 -2.8995  1.9387
 3398SOL    MW413366   4.565   3.411   2.916  0.9847 -0.6091  0.2356
 3399SOL     OW13367   1.564   2.332   1.099 -0.0045  0.5982 -0.2494
 3399SOL    HW213368   1.516   2.363   1.176  0.1686  0.2174  0.0147
 3399SOL    HW313369   1.517   2.253   1.072  0.0807  0.5944 -0.3896
 3399SOL    MW413370   1.551   2.326   1.106  0.0296  0.5475 -0.2330
 3400SOL     OW13371   1.896   0.245   6.218 -0.0819 -0.2164  0.5390
 3400SOL    HW213372   1.819   0.194   6.194 -0.5273 -0.3291  2.1260
 3400SOL    HW313373   1.920   0.214   6.305  1.5587  0.0638  0.2215
 3400SOL    MW413374   1.889   0.234   6.226  0.0758 -0.1943  0.7065
 3401SOL     OW13375   5.861   3.981   5.344 -0.2884 -0.5382 -0.4522
 3401SOL    HW213376   5.867   3.900   5.294 -0.2984 -0.5094 -0.5002
 3401SOL    HW313377   5.776   3.977   5.387  0.0075 -0.8818  0.1137
 3401SOL    MW413378   5.851   3.970   5.343 -0.2507 -0.5797 -0.3838
 3402SOL     OW13379   2.233   3.623   2.287  0.3621  0.1016 -0.1050
 3402SOL    HW213380   2.264   3.569   2.214  0.7311 -0.4138  0.4203
 3402SOL    HW313381   2.138   3.612   2.288  0.4702 -0.8993  0.2640
 3402SOL    MW413382   2.225   3.615   2.278  0.4250 -0.0984  0.0130
 3403SOL     OW13383   2.893   5.091   2.324  0.0145  0.0244 -0.2700
 3403SOL    HW213384   2.807   5.133   2.312  0.1574  1.0577  1.8720
 3403SOL    HW313385   2.872   4.999   2.340 -0.4578 -0.3553 -2.6767
 3403SOL    MW413386   2.879   5.084   2.324 -0.0290  0.1106 -0.3049
 3404SOL     OW13387   1.920   1.057   4.002  0.1172 -0.0405 -0.2931
 3404SOL    HW213388   1.869   1.037   4.080  0.6947 -1.5632 -0.2855
 3404SOL    HW313389   1.872   1.015   3.931 -0.4233  1.3629 -0.8052
 3404SOL    MW413390   1.907   1.049   4.003  0.1221 -0.0562 -0.3597
 3405SOL     OW13391   2.492   6.149   1.620 -0.0131  0.6152  0.0916
 3405SOL    HW213392   2.402   6.137   1.650  0.3235  1.8457  1.7132
 3405SOL    HW313393   2.485   6.208   1.545 -0.7260 -1.2329 -1.3820
 3405SOL    MW413394   2.480   6.155   1.614 -0.0627  0.5337  0.1111
 3406SOL     OW13395   3.407   6.209   3.269  1.1605 -0.0180  0.2354
 3406SOL    HW213396   3.342   6.155   3.314  1.9453 -0.0484  1.4016
 3406SOL    HW313397   3.359   6.286   3.239  0.7279  0.3782  1.8493
 3406SOL    MW413398   3.392   6.212   3.271  1.2069  0.0303  0.6022
 3407SOL     OW13399   4.695   1.803   0.071  0.4309 -0.0533  0.1111
 3407SOL    HW213400   4.788   1.807   0.095  0.2567  1.4218  0.5950
 3407SOL    HW313401   4.650   1.786   0.154  0.3119 -1.8639 -0.2763
 3407SOL    MW413402   4.701   1.801   0.085  0.3922 -0.0975  0.1238
 3408SOL     OW13403   3.990   3.333   4.079  0.1435 -0.3295 -0.1449
 3408SOL    HW213404   3.959   3.422   4.066  0.8181  0.1006  1.1125
 3408SOL    HW313405   3.920   3.278   4.043  0.2471  0.6897 -2.0307
 3408SOL    MW413406   3.976   3.337   4.072  0.2462 -0.1383 -0.2278
 3409SOL     OW13407   2.500   6.321   1.852 -0.0397 -0.0316  0.2052
 3409SOL    HW213408   2.505   6.278   1.766 -0.7703 -1.8008  1.0179
 3409SOL    HW313409   2.562   6.273   1.906 -1.7283 -0.8797  1.4594
 3409SOL    MW413410   2.509   6.309   1.848 -0.3589 -0.3769  0.4779
 3410SOL     OW13411   2.097   6.309   0.380 -0.2579  0.5561 -0.1295
 3410SOL    HW213412   2.172   6.255   0.354 -0.0023  2.6914 -4.9642
 3410SOL    HW313413   2.021   6.259   0.351 -0.2387  1.0137 -1.0243
 3410SOL    MW413414   2.097   6.295   0.373 -0.2217  0.8982 -0.8854
 3411SOL     OW13415   0.725   6.381   0.455 -0.2640  1.1438  0.2945
 3411SOL    HW213416   0.729   6.476   0.444  0.3369  0.9712 -1.2863
 3411SOL    HW313417   0.766   6.346   0.375 -1.4323 -0.4541  0.3437
 3411SOL    MW413418   0.731   6.389   0.443 -0.3388  0.9102  0.0924
 3412SOL     OW13419   2.278   4.036   5.470 -0.0464  0.5583  0.0832
 3412SOL    HW213420   2.332   3.981   5.526  1.9812  1.1096 -1.2044
 3412SOL    HW313421   2.261   4.115   5.522  2.7583  1.5530 -0.3744
 3412SOL    MW413422   2.283   4.039   5.484  0.5911  0.7622 -0.1470
 3413SOL     OW13423   0.272   4.633   5.440  0.5846 -0.2944 -0.0127
 3413SOL    HW213424   0.231   4.598   5.519  0.9197  1.9796  1.2615
 3413SOL    HW313425   0.326   4.561   5.408 -1.3698 -2.0870  0.4227
 3413SOL    MW413426   0.273   4.619   5.446  0.3710 -0.2309  0.2128
 3414SOL     OW13427   3.474   5.808   1.424 -0.3425  0.3788 -0.4916
 3414SOL    HW213428   3.452   5.901   1.432 -0.2391  0.2715  1.2612
 3414SOL    HW313429   3.428   5.780   1.345 -1.0216  1.7295 -0.6074
 3414SOL    MW413430   3.465   5.817   1.414 -0.4184  0.5428 -0.2756
 3415SOL     OW13431   3.945   3.897   2.891  0.4904 -0.6159 -0.7308
 3415SOL    HW213432   3.874   3.906   2.955  1.0823 -0.4686 -0.0833
 3415SOL    HW313433   4.023   3.927   2.938  0.3293  3.8755 -2.8265
 3415SOL    MW413434   3.945   3.902   2.906  0.5472 -0.0039 -0.9218
 3416SOL     OW13435   2.443   4.555   0.243 -0.2955  0.7761  0.0681
 3416SOL    HW213436   2.384   4.598   0.182  0.1819  0.5141 -0.5899
 3416SOL    HW313437   2.512   4.517   0.188 -1.2760 -1.8388  0.4809
 3416SOL    MW413438   2.444   4.555   0.228 -0.3619  0.3965  0.0357
 3417SOL     OW13439   4.148   4.606   6.428  0.0360  0.4490 -0.0326
 3417SOL    HW213440   4.154   4.640   6.339 -1.6405 -0.2963 -0.4713
 3417SOL    HW313441   4.096   4.526   6.420 -1.2889  1.0474  1.7565
 3417SOL    MW413442   4.142   4.600   6.415 -0.3600  0.4296  0.1455
 3418SOL     OW13443   1.828   1.440   1.966 -0.6950 -0.0956  0.3485
 3418SOL    HW213444   1.844   1.347   1.954  0.1347 -0.0431  0.9294
 3418SOL    HW313445   1.734   1.448   1.982 -1.0203 -0.6644 -1.1825
 3418SOL    MW413446   1.818   1.429   1.967 -0.6285 -0.1637  0.2231
 3419SOL     OW13447   0.012   5.337   2.764  0.4518  0.0194  0.1184
 3419SOL    HW213448   0.014   5.404   2.695  3.0375 -1.7605 -1.7495
 3419SOL    HW313449   0.094   5.350   2.812 -0.4522  0.0384  1.7245
 3419SOL    MW413450   0.023   5.348   2.761  0.6736 -0.2129  0.0838
 3420SOL     OW13451   2.073   5.544   5.223  0.4761 -0.1133  0.4560
 3420SOL    HW213452   2.020   5.503   5.292  1.6509 -0.6575  1.0759
 3420SOL    HW313453   2.151   5.488   5.217  1.2056  0.9372 -0.0679
 3420SOL    MW413454   2.076   5.531   5.232  0.7273 -0.0465  0.4687
 3421SOL     OW13455   2.630   5.173   2.305  0.3334 -0.4184 -0.3120
 3421SOL    HW213456   2.629   5.269   2.297 -0.1998 -0.3978 -0.0433
 3421SOL    HW313457   2.607   5.157   2.397 -1.5820 -0.8564 -0.8284
 3421SOL    MW413458   2.627   5.184   2.316  0.0104 -0.4734 -0.3447
 3422SOL     OW13459   2.194   2.381   4.497  0.0338 -0.3212  0.0830
 3422SOL    HW213460   2.271   2.402   4.550  0.0860 -0.0343 -0.1078
 3422SOL    HW313461   2.200   2.286   4.483 -0.4278 -0.5468  1.2999
 3422SOL    MW413462   2.205   2.371   4.502 -0.0202 -0.3131  0.2184
 3423SOL     OW13463   1.718   5.705   0.460  0.0352 -0.4003 -0.1496
 3423SOL    HW213464   1.751   5.746   0.539  3.7243  1.1354 -2.1924
 3423SOL    HW313465   1.643   5.758   0.434  0.4186  0.7115  0.9295
 3423SOL    MW413466   1.713   5.717   0.467  0.5725 -0.0510 -0.2768
 3424SOL     OW13467   1.771   4.764   1.220  0.2454 -0.2380  0.4302
 3424SOL    HW213468   1.774   4.695   1.154  2.4839 -0.6032  0.8306
 3424SOL    HW313469   1.860   4.801   1.219 -0.8606  2.6375  0.2611
 3424SOL    MW413470   1.783   4.760   1.211  0.3948  0.0932  0.4607
 3425SOL     OW13471   1.382   2.537   2.245  0.0072  0.1781 -0.4453
 3425SOL    HW213472   1.387   2.557   2.152 -0.7175 -2.1085 -1.0546
 3425SOL    HW313473   1.298   2.575   2.273 -0.4186 -0.2711 -1.0706
 3425SOL    MW413474   1.371   2.545   2.236 -0.1446 -0.1829 -0.6082
 3426SOL     OW13475   1.279   2.962   1.477  0.4158  0.2699 -0.1066
 3426SOL    HW213476   1.200   2.994   1.433  0.3621  0.0183 -0.1941
 3426SOL    HW313477   1.281   2.869   1.458  1.0600  0.3781 -0.5967
 3426SOL    MW413478   1.268   2.954   1.469  0.4937  0.2510 -0.1828
 3427SOL     OW13479   1.047   3.356   3.911 -0.0212 -0.3967  0.2065
 3427SOL    HW213480   0.962   3.383   3.877  1.3823  1.8727 -1.8616
 3427SOL    HW313481   1.073   3.283   3.855  0.4925  0.6642 -0.9975
 3427SOL    MW413482   1.040   3.350   3.899  0.2317  0.0427 -0.2252
 3428SOL     OW13483   1.893   1.665   6.227  0.7158  0.0977  0.3903
 3428SOL    HW213484   1.807   1.675   6.186  1.6912  0.2133 -1.7672
 3428SOL    HW313485   1.949   1.727   6.181  2.0609 -0.2854  1.4481
 3428SOL    MW413486   1.889   1.674   6.216  1.0220  0.0624  0.2452
 3429SOL     OW13487   5.830   1.859   6.228 -0.2163 -0.5323  0.0214
 3429SOL    HW213488   5.891   1.867   6.154 -0.6834  1.1545 -0.2237
 3429SOL    HW313489   5.748   1.833   6.187 -0.6301  0.9722 -0.1832
 3429SOL    MW413490   5.827   1.857   6.213 -0.3325 -0.1112 -0.0379
 3430SOL     OW13491   5.491   4.377   0.261 -0.2330 -0.6495  0.1056
 3430SOL    HW213492   5.494   4.398   0.355 -0.1511  2.0048 -0.4241
 3430SOL    HW313493   5.401   4.397   0.236 -0.2600 -1.3821 -0.4023
 3430SOL    MW413494   5.479   4.382   0.270 -0.2258 -0.3960 -0.0313
 3431SOL     OW13495   1.430   5.727   1.539 -0.0850  0.0853 -0.2794
 3431SOL    HW213496   1.413   5.813   1.577  1.1911  0.4530 -0.4893
 3431SOL    HW313497   1.374   5.723   1.461 -1.0755  0.2026  0.4043
 3431SOL    MW413498   1.420   5.738   1.534 -0.0473  0.1493 -0.2169
 3432SOL     OW13499   1.011   0.468   1.152 -0.2088  0.5939 -0.1003
 3432SOL    HW213500   1.100   0.468   1.186  0.0788  1.0408 -0.8442
 3432SOL    HW313501   1.015   0.413   1.074 -0.5641  0.7228 -0.2111
 3432SOL    MW413502   1.023   0.461   1.146 -0.2178  0.6698 -0.2130
 3433SOL     OW13503   1.501   4.759   2.227  0.1931 -0.3087  0.4529
 3433SOL    HW213504   1.507   4.824   2.297  0.7912 -0.1760  0.2784
 3433SOL    HW313505   1.578   4.704   2.239 -0.4840 -1.2108  0.8158
 3433SOL    MW413506   1.512   4.760   2.238  0.1826 -0.4102  0.4778
 3434SOL     OW13507   0.119   4.608   6.105  0.1065 -0.3182  0.8293
 3434SOL    HW213508   0.206   4.620   6.143 -0.1810  2.1433  0.8472
 3434SOL    HW313509   0.065   4.578   6.178  0.6357 -0.5713  1.1256
 3434SOL    MW413510   0.124   4.605   6.119  0.1384 -0.0268  0.8708
 3435SOL     OW13511   5.347   1.977   5.333  0.1761 -0.7413 -0.1269
 3435SOL    HW213512   5.306   1.924   5.401  1.4012 -1.7470 -0.1245
 3435SOL    HW313513   5.371   1.914   5.265  2.4196 -0.3626  0.2440
 3435SOL    MW413514   5.345   1.962   5.333  0.6338 -0.8240 -0.0776
 3436SOL     OW13515   4.903   1.816   0.586  0.0984 -0.6746 -0.5744
 3436SOL    HW213516   4.953   1.743   0.550  0.1977  0.2131 -2.3039
 3436SOL    HW313517   4.862   1.858   0.511 -2.2600 -0.5810  0.6379
 3436SOL    MW413518   4.904   1.812   0.572 -0.1997 -0.5451 -0.6426
 3437SOL     OW13519   2.200   5.632   6.275  0.3327 -0.0143  0.0257
 3437SOL    HW213520   2.133   5.565   6.293  1.4490 -1.5043 -1.0580
 3437SOL    HW313521   2.172   5.672   6.193 -0.1847  0.6654  0.5268
 3437SOL    MW413522   2.187   5.628   6.267  0.4117 -0.1212 -0.0511
 3438SOL     OW13523   1.644   2.912   6.133 -0.4405 -0.3942  0.0195
 3438SOL    HW213524   1.647   2.818   6.114 -0.2147 -0.5282  0.6842
 3438SOL    HW313525   1.666   2.918   6.226  0.0575  0.3556 -0.1363
 3438SOL    MW413526   1.647   2.900   6.143 -0.3450 -0.3129  0.0866
 3439SOL     OW13527   4.145   2.224   3.449 -0.2695  0.0919  0.4303
 3439SOL    HW213528   4.110   2.287   3.386  1.2389 -0.0213 -0.5713
 3439SOL    HW313529   4.069   2.199   3.502 -1.4538  0.6897 -0.9027
 3439SOL    MW413530   4.130   2.229   3.448 -0.2268  0.1559  0.1223
 3440SOL     OW13531   4.107   2.673   4.167  0.1502 -0.2802 -0.0798
 3440SOL    HW213532   4.015   2.673   4.193 -0.0999 -2.6283 -0.7091
 3440SOL    HW313533   4.106   2.645   4.075  1.5166 -1.0908  0.1221
 3440SOL    MW413534   4.095   2.669   4.158  0.2975 -0.6969 -0.1362
 3441SOL     OW13535   4.516   2.977   0.167 -0.2147 -0.0844 -0.3784
 3441SOL    HW213536   4.424   2.979   0.194 -0.6367  1.2284 -1.8317
 3441SOL    HW313537   4.565   2.989   0.249 -1.3441  0.0152  0.3056
 3441SOL    MW413538   4.510   2.979   0.182 -0.4194  0.1019 -0.4799
 3442SOL     OW13539   5.949   0.728   0.085 -0.2559  0.1166  0.0882
 3442SOL    HW213540   6.032   0.697   0.049 -0.3647  0.2070 -0.2481
 3442SOL    HW313541   5.884   0.665   0.052 -0.0018 -1.5256  2.5002
 3442SOL    MW413542   5.951   0.715   0.076 -0.2367 -0.0882  0.3621
 3443SOL     OW13543   0.503   0.723   1.976 -0.6436 -0.4194 -0.0429
 3443SOL    HW213544   0.594   0.737   1.950 -1.7488  4.0186 -2.5110
 3443SOL    HW313545   0.479   0.639   1.937  1.8407 -0.7911 -0.9283
 3443SOL    MW413546   0.512   0.714   1.967 -0.4617  0.1171 -0.4854
 3444SOL     OW13547   5.837   4.492   5.543 -0.2022 -0.3824 -0.2846
 3444SOL    HW213548   5.786   4.555   5.491 -0.0809  0.2772  0.3826
 3444SOL    HW313549   5.864   4.541   5.620 -1.8378 -1.7994  1.2927
 3444SOL    MW413550   5.834   4.507   5.546 -0.4020 -0.4823  0.0115
 3445SOL     OW13551   5.367   5.920   5.056  0.2560 -0.4128 -0.1022
 3445SOL    HW213552   5.361   5.971   4.975 -1.4621 -0.9718 -0.3526
 3445SOL    HW313553   5.280   5.924   5.094  0.5935 -1.5913  0.8573
 3445SOL    MW413554   5.355   5.927   5.051  0.0738 -0.6421 -0.0086
 3446SOL     OW13555   5.674   2.777   3.864  0.5369  0.7335 -0.1494
 3446SOL    HW213556   5.601   2.830   3.834  0.8554  0.1334 -2.1459
 3446SOL    HW313557   5.643   2.687   3.856  0.9082  0.5309  0.6333
 3446SOL    MW413558   5.660   2.772   3.859  0.6279  0.6276 -0.3095
 3447SOL     OW13559   1.054   1.227   5.758 -0.0944  0.8461 -0.0417
 3447SOL    HW213560   0.970   1.262   5.789 -0.9583 -0.6455 -0.5607
 3447SOL    HW313561   1.033   1.190   5.672  0.6520 -1.1783  0.5991
 3447SOL    MW413562   1.040   1.227   5.751 -0.1099  0.3822 -0.0257
 3448SOL     OW13563   4.223   2.511   4.560 -0.6746 -0.0709  0.8328
 3448SOL    HW213564   4.195   2.441   4.501  1.6908 -0.6472  0.2834
 3448SOL    HW313565   4.279   2.567   4.507 -0.5200  0.8271  1.9025
 3448SOL    MW413566   4.226   2.509   4.546 -0.3421 -0.0285  0.9015
 3449SOL     OW13567   1.449   3.917   2.833 -0.0627  0.0931 -0.1939
 3449SOL    HW213568   1.527   3.881   2.792 -0.8414 -1.0968 -0.7017
 3449SOL    HW313569   1.471   3.921   2.927  0.7767  0.2672 -0.3893
 3449SOL    MW413570   1.462   3.913   2.840 -0.0547 -0.0409 -0.2867
 3450SOL     OW13571   5.594   4.541   5.694  0.2818 -0.2581  0.3265
 3450SOL    HW213572   5.540   4.489   5.754 -1.3372  0.4871 -0.4306
 3450SOL    HW313573   5.626   4.478   5.630 -0.0453 -0.6503  0.5417
 3450SOL    MW413574   5.591   4.526   5.693  0.0250 -0.2115  0.2550
 3451SOL     OW13575   4.858   5.718   3.772  0.2745  0.1106 -0.1638
 3451SOL    HW213576   4.865   5.674   3.687 -1.3149  1.7169 -1.2024
 3451SOL    HW313577   4.789   5.670   3.818  0.9793 -0.6193  0.1513
 3451SOL    MW413578   4.850   5.706   3.767  0.1578  0.2262 -0.2592
 3452SOL     OW13579   2.707   3.778   0.500  0.7371  0.5692 -0.4163
 3452SOL    HW213580   2.752   3.857   0.468  1.0173  0.0809 -1.2579
 3452SOL    HW313581   2.747   3.706   0.451 -0.1513 -0.0039 -0.3217
 3452SOL    MW413582   2.719   3.779   0.490  0.6569  0.4291 -0.5149
 3453SOL     OW13583   3.337   1.694   0.295 -0.5010  0.6792  0.7519
 3453SOL    HW213584   3.294   1.682   0.211 -3.4989 -0.0042  2.2442
 3453SOL    HW313585   3.372   1.783   0.291 -1.9494  1.2369 -0.6540
 3453SOL    MW413586   3.336   1.704   0.283 -1.0876  0.6626  0.7633
 3454SOL     OW13587   5.710   0.744   6.164  0.1172  0.2024 -0.2364
 3454SOL    HW213588   5.653   0.727   6.089 -1.6703 -1.3681  1.3640
 3454SOL    HW313589   5.654   0.788   6.228  1.3098  0.5866  0.5840
 3454SOL    MW413590   5.695   0.747   6.162  0.0387  0.0459  0.0830
 3455SOL     OW13591   0.527   6.128   2.331 -0.6988 -0.3924 -0.2901
 3455SOL    HW213592   0.545   6.131   2.425 -0.9438  0.1783 -0.2569
 3455SOL    HW313593   0.464   6.057   2.320 -0.2201 -0.8563 -0.1044
 3455SOL    MW413594   0.521   6.119   2.342 -0.6680 -0.3783 -0.2612
 3456SOL     OW13595   2.893   6.069   0.677 -0.2616 -0.1847  0.1469
 3456SOL    HW213596   2.901   5.994   0.737 -0.5874  0.4626  1.0094
 3456SOL    HW313597   2.983   6.096   0.661 -0.1854 -0.1836  0.5730
 3456SOL    MW413598   2.906   6.062   0.683 -0.2945 -0.0992  0.3169
 3457SOL     OW13599   2.281   4.978   4.751  0.1369  0.0109  0.1393
 3457SOL    HW213600   2.250   5.009   4.666 -0.1299  2.0966  0.9346
 3457SOL    HW313601   2.371   4.951   4.735 -0.0655 -0.0891 -0.8980
 3457SOL    MW413602   2.289   4.979   4.738  0.0750  0.2729  0.1073
 3458SOL     OW13603   2.726   3.597   6.098  0.2306  0.1463 -0.0127
 3458SOL    HW213604   2.744   3.642   6.015  0.0686  1.0055  0.4079
 3458SOL    HW313605   2.647   3.546   6.081  0.0319  0.5461 -0.3114
 3458SOL    MW413606   2.718   3.596   6.085  0.1830  0.3124  0.0034
 3459SOL     OW13607   5.526   3.858   3.416  0.1318  0.1261  0.2741
 3459SOL    HW213608   5.587   3.928   3.438  1.1966 -0.2731 -1.2333
 3459SOL    HW313609   5.461   3.860   3.486  1.3487  1.1824  1.4360
 3459SOL    MW413610   5.526   3.867   3.428  0.4329  0.2128  0.2285
 3460SOL     OW13611   0.762   1.861   2.962 -0.5512 -0.0560  1.0545
 3460SOL    HW213612   0.831   1.799   2.987 -0.2043  0.6510  1.8850
 3460SOL    HW313613   0.796   1.905   2.884 -0.2470 -0.0120  1.2115
 3460SOL    MW413614   0.776   1.858   2.955 -0.4653  0.0430  1.1848
 3461SOL     OW13615   3.118   1.220   4.307 -0.3211 -0.3025  0.0622
 3461SOL    HW213616   3.168   1.164   4.248  3.1239 -0.8988  3.2118
 3461SOL    HW313617   3.087   1.161   4.376  0.0513  1.0621  1.4395
 3461SOL    MW413618   3.120   1.205   4.308  0.1825 -0.2012  0.6594
 3462SOL     OW13619   0.616   1.562   4.874 -0.6332  0.0613  0.5792
 3462SOL    HW213620   0.659   1.476   4.871  1.7813  1.1761  0.0077
 3462SOL    HW313621   0.578   1.568   4.961  0.1695 -1.1460  1.0342
 3462SOL    MW413622   0.617   1.551   4.885 -0.2087  0.0491  0.5638
 3463SOL     OW13623   0.373   2.104   2.519  0.0723  0.0003  0.4371
 3463SOL    HW213624   0.450   2.063   2.558  0.1549 -1.1667 -0.8678
 3463SOL    HW313625   0.337   2.160   2.588  3.0647  1.9857  0.5851
 3463SOL    MW413626   0.378   2.106   2.533  0.4780  0.1083  0.2845
 3464SOL     OW13627   1.957   1.490   3.354 -0.7886 -0.5545  0.4538
 3464SOL    HW213628   1.891   1.467   3.288 -0.8106 -2.1307  0.9820
 3464SOL    HW313629   1.959   1.414   3.412 -0.3928  0.5833  1.9717
 3464SOL    MW413630   1.948   1.477   3.353 -0.7393 -0.6123  0.7238
 3465SOL     OW13631   2.126   6.287   5.981  0.4006 -0.4301 -0.0320
 3465SOL    HW213632   2.218   6.263   5.991  0.8407  0.9058 -0.6182
 3465SOL    HW313633   2.112   6.357   6.045 -0.0562 -0.2390 -0.3331
 3465SOL    MW413634   2.136   6.293   5.991  0.3984 -0.2286 -0.1491
 3466SOL     OW13635   3.795   0.710   2.029 -0.3942  0.1481  0.0650
 3466SOL    HW213636   3.744   0.770   2.084 -0.9526  0.3103 -0.6040
 3466SOL    HW313637   3.850   0.661   2.090 -0.8043  0.5091  0.7328
 3466SOL    MW413638   3.795   0.711   2.044 -0.5220  0.2172  0.0648
 3467SOL     OW13639   3.491   4.991   1.948 -0.7855  0.1427  0.2811
 3467SOL    HW213640   3.530   4.906   1.926 -1.0074  0.2391 -0.5294
 3467SOL    HW313641   3.560   5.037   1.995 -0.0602  0.1264 -0.7149
 3467SOL    MW413642   3.505   4.986   1.951 -0.7191  0.1533  0.0428
 3468SOL     OW13643   2.879   0.635   5.997  0.0344  0.0100 -0.0692
 3468SOL    HW213644   2.859   0.645   6.090  1.0727  0.2275  0.1344
 3468SOL    HW313645   2.875   0.541   5.981 -3.0299  0.0834 -0.4866
 3468SOL    MW413646   2.876   0.624   6.007 -0.2329  0.0484 -0.0974
 3469SOL     OW13647   5.570   4.396   4.826 -0.1107 -0.4225 -0.1496
 3469SOL    HW213648   5.593   4.334   4.757 -1.4570 -1.5540  0.3907
 3469SOL    HW313649   5.576   4.346   4.907  1.4606  0.8911  0.6232
 3469SOL    MW413650   5.574   4.381   4.828 -0.0810 -0.3985  0.0236
 3470SOL     OW13651   3.204   5.824   3.638  0.1952 -0.2900  0.4864
 3470SOL    HW213652   3.199   5.800   3.730 -1.4554  0.4748  0.6169
 3470SOL    HW313653   3.114   5.841   3.611  0.5748 -0.9510 -1.4047
 3470SOL    MW413654   3.192   5.823   3.646  0.0275 -0.2763  0.2541
 3471SOL     OW13655   1.035   2.507   3.296  0.6440 -0.5706 -0.0367
 3471SOL    HW213656   0.975   2.567   3.252 -0.3205 -0.9500  0.7200
 3471SOL    HW313657   1.061   2.446   3.227  0.4572 -0.1739 -0.4658
 3471SOL    MW413658   1.030   2.507   3.281  0.4921 -0.5684  0.0066
 3472SOL     OW13659   5.651   1.166   0.867  0.8045 -0.5440 -0.3301
 3472SOL    HW213660   5.605   1.211   0.797  1.3267  0.4600 -0.0398
 3472SOL    HW313661   5.616   1.204   0.947  1.3944 -0.5161 -0.0854
 3472SOL    MW413662   5.640   1.177   0.868  0.9512 -0.4078 -0.2595
 3473SOL     OW13663   0.146   3.208   3.226  0.6731  0.4778 -0.1194
 3473SOL    HW213664   0.091   3.251   3.160 -0.3806  0.0703  0.4641
 3473SOL    HW313665   0.171   3.124   3.187 -0.7218 -0.1740  0.3307
 3473SOL    MW413666   0.142   3.203   3.212  0.3501  0.3381  0.0169
 3474SOL     OW13667   0.994   4.692   1.814 -0.4881  1.0204  0.2928
 3474SOL    HW213668   1.004   4.623   1.880 -2.6950  0.4235  0.0940
 3474SOL    HW313669   1.056   4.760   1.840 -1.3095  0.8317  3.0240
 3474SOL    MW413670   1.004   4.692   1.826 -0.8876  0.9168  0.6269
 3475SOL     OW13671   3.945   1.945   4.695  0.3606  0.5476  0.1666
 3475SOL    HW213672   4.026   1.899   4.674  0.3084  0.7365 -0.4571
 3475SOL    HW313673   3.880   1.909   4.635  0.2839  1.3138 -0.2199
 3475SOL    MW413674   3.947   1.934   4.685  0.3436  0.6736  0.0333
 3476SOL     OW13675   0.539   6.349   3.265 -0.3843  0.3965  0.1703
 3476SOL    HW213676   0.545   6.267   3.314  0.0371 -0.7884 -1.7530
 3476SOL    HW313677   0.594   6.410   3.315  0.7821 -1.0121  0.6963
 3476SOL    MW413678   0.547   6.346   3.278 -0.1748  0.0543 -0.0141
 3477SOL     OW13679   4.963   0.277   1.653 -0.1178  0.1355 -0.6398
 3477SOL    HW213680   4.990   0.246   1.567  0.3913  1.4318 -0.9601
 3477SOL    HW313681   4.875   0.311   1.639 -0.6941 -1.1198 -0.2771
 3477SOL    MW413682   4.955   0.277   1.640 -0.1267  0.1409 -0.6342
 3478SOL     OW13683   4.308   4.723   0.504  0.1089  0.9633 -0.3872
 3478SOL    HW213684   4.273   4.808   0.480 -0.2989  1.3797  1.5418
 3478SOL    HW313685   4.377   4.706   0.439 -0.0269  2.5811 -0.9965
 3478SOL    MW413686   4.312   4.732   0.492  0.0372  1.2317 -0.2131
 3479SOL     OW13687   3.140   3.103   3.517 -0.2676  0.3650  0.6292
 3479SOL    HW213688   3.148   3.171   3.450 -0.5651 -0.2058  0.0009
 3479SOL    HW313689   3.086   3.035   3.476 -3.3292  1.4316  2.5414
 3479SOL    MW413690   3.134   3.103   3.503 -0.7108  0.4304  0.7986
 3480SOL     OW13691   1.636   3.422   5.536 -0.0310  0.9740  0.1224
 3480SOL    HW213692   1.705   3.364   5.504  0.1836  0.8292  0.8229
 3480SOL    HW313693   1.591   3.371   5.604 -0.0203  1.5232  0.5477
 3480SOL    MW413694   1.639   3.408   5.541 -0.0012  1.0274  0.2709
 3481SOL     OW13695   0.010   1.540   1.033  0.1304  0.7505  0.2353
 3481SOL    HW213696   0.042   1.604   1.097 -0.2362  0.0469  1.1304
 3481SOL    HW313697   0.085   1.524   0.977  0.8575  0.4009  1.2784
 3481SOL    MW413698   0.024   1.547   1.034  0.1780  0.6115  0.4910
 3482SOL     OW13699   5.189   0.524   0.097  0.3662  0.5938 -0.1788
 3482SOL    HW213700   5.236   0.473   0.162  1.5626  0.1481 -1.3437
 3482SOL    HW313701   5.171   0.607   0.140  0.5505  0.0840  0.9251
 3482SOL    MW413702   5.193   0.528   0.111  0.5483  0.4677 -0.1869
 3483SOL     OW13703   3.229   6.093   5.560 -0.0987 -0.5247 -0.1291
 3483SOL    HW213704   3.175   6.136   5.628  0.3909 -1.0122  0.5771
 3483SOL    HW313705   3.167   6.076   5.489 -0.7918 -0.6549  0.4812
 3483SOL    MW413706   3.213   6.097   5.560 -0.1255 -0.6062  0.0446
 3484SOL     OW13707   2.934   1.533   3.720  0.1716  0.2114  0.8054
 3484SOL    HW213708   2.942   1.609   3.779 -0.9040 -0.2721  1.6103
 3484SOL    HW313709   2.992   1.467   3.759 -0.7761 -0.2157  1.5248
 3484SOL    MW413710   2.943   1.535   3.733 -0.0953  0.0913  1.0065
 3485SOL     OW13711   4.553   3.265   0.527  0.3449  0.0860  0.0754
 3485SOL    HW213712   4.580   3.196   0.467  0.1952  0.0811  0.0140
 3485SOL    HW313713   4.635   3.304   0.558  0.5859 -1.9563  2.2786
 3485SOL    MW413714   4.567   3.261   0.523  0.3570 -0.1841  0.3580
 3486SOL     OW13715   3.864   3.752   1.110  0.1978 -0.6665  0.1556
 3486SOL    HW213716   3.867   3.665   1.070  1.3508 -0.7181  0.3202
 3486SOL    HW313717   3.945   3.759   1.159 -1.0663 -0.5220  2.3477
 3486SOL    MW413718   3.875   3.742   1.111  0.1832 -0.6542  0.4666
 3487SOL     OW13719   6.091   1.911   1.720 -0.4094  0.0407  0.0053
 3487SOL    HW213720   6.015   1.953   1.759  0.2932 -0.0558  1.5349
 3487SOL    HW313721   6.057   1.830   1.682 -1.6583  1.5651 -2.4211
 3487SOL    MW413722   6.076   1.906   1.720 -0.4815  0.2291 -0.1131
 3488SOL     OW13723   5.622   2.464   0.835  0.1706 -0.4158 -0.4162
 3488SOL    HW213724   5.648   2.535   0.893 -0.3159  0.6141 -1.4028
 3488SOL    HW313725   5.682   2.470   0.761  0.4452 -1.3632 -0.2762
 3488SOL    MW413726   5.633   2.474   0.833  0.1426 -0.4050 -0.5279
 3489SOL     OW13727   3.098   2.235   2.435 -0.0641 -0.7655  0.2977
 3489SOL    HW213728   3.084   2.327   2.455  0.2831  0.1900 -3.0941
 3489SOL    HW313729   3.015   2.192   2.457 -0.7460  0.6411  0.5780
 3489SOL    MW413730   3.085   2.242   2.440 -0.1083 -0.4539 -0.1128
 3490SOL     OW13731   5.126   3.202   2.759 -0.0053  0.2850 -0.1138
 3490SOL    HW213732   5.201   3.255   2.787 -0.2861  1.3814 -1.3292
 3490SOL    HW313733   5.117   3.135   2.827  2.1303  0.0585 -0.0043
 3490SOL    MW413734   5.134   3.200   2.772  0.2394  0.3998 -0.2597
 3491SOL     OW13735   4.033   0.045   2.879  0.0851 -0.1925 -0.1616
 3491SOL    HW213736   4.080   0.048   2.795  0.4420 -0.8578  0.0090
 3491SOL    HW313737   4.031  -0.047   2.902 -2.3322 -0.3367 -0.7284
 3491SOL    MW413738   4.039   0.034   2.871 -0.1868 -0.2993 -0.2139
 3492SOL     OW13739   1.435   1.615   0.908 -0.1958  0.2526  0.3241
 3492SOL    HW213740   1.412   1.624   0.815 -0.6264 -0.9343  0.3010
 3492SOL    HW313741   1.492   1.690   0.926 -1.4970  1.4760 -0.4533
 3492SOL    MW413742   1.440   1.626   0.898 -0.4243  0.2574  0.2185
 3493SOL     OW13743   2.868   3.337   6.326 -0.4386 -0.4951  0.0632
 3493SOL    HW213744   2.874   3.426   6.292 -1.1872  0.3621  1.9822
 3493SOL    HW313745   2.958   3.305   6.327 -0.1304  0.3304 -0.4274
 3493SOL    MW413746   2.880   3.344   6.322 -0.4967 -0.2731  0.2516
 3494SOL     OW13747   3.402   4.086   4.628  0.0549 -0.1446 -0.0438
 3494SOL    HW213748   3.323   4.126   4.590 -0.7674 -0.9144  0.7894
 3494SOL    HW313749   3.445   4.156   4.676  1.0307  0.8176 -2.2088
 3494SOL    MW413750   3.397   4.100   4.629  0.0751 -0.1192 -0.2195
 3495SOL     OW13751   1.561   1.422   0.165  0.6892 -0.5863 -0.2739
 3495SOL    HW213752   1.577   1.411   0.071  1.3085 -1.1038 -0.1190
 3495SOL    HW313753   1.617   1.495   0.190 -0.9794  0.8914 -0.6746
 3495SOL    MW413754   1.570   1.430   0.156  0.5508 -0.4596 -0.3064
 3496SOL     OW13755   1.548   1.452   3.758 -1.1437  0.3823  0.5419
 3496SOL    HW213756   1.614   1.385   3.739 -0.8489  0.8378 -0.0855
 3496SOL    HW313757   1.597   1.534   3.754 -1.7194  0.7123  0.2258
 3496SOL    MW413758   1.563   1.454   3.755 -1.1808  0.4859  0.4174
 3497SOL     OW13759   2.688   0.325   2.455  0.2359 -0.4959 -0.1487
 3497SOL    HW213760   2.676   0.420   2.462  1.8847 -0.1212 -1.6353
 3497SOL    HW313761   2.715   0.311   2.364 -0.0912 -2.4228  0.0018
 3497SOL    MW413762   2.690   0.336   2.444  0.4103 -0.7007 -0.3250
 3498SOL     OW13763   5.840   1.631   2.263  0.2038  0.2429  0.7205
 3498SOL    HW213764   5.809   1.683   2.189 -0.1832  1.3247  1.6059
 3498SOL    HW313765   5.929   1.607   2.240  0.5988  1.7882  0.5075
 3498SOL    MW413766   5.847   1.635   2.250  0.2049  0.5896  0.8092
 3499SOL     OW13767   2.465   3.154   4.230 -0.0284 -0.0956 -0.2769
 3499SOL    HW213768   2.456   3.234   4.178 -1.0066  0.1095  0.1825
 3499SOL    HW313769   2.406   3.091   4.187  2.2288 -1.2926 -1.8912
 3499SOL    MW413770   2.456   3.156   4.217  0.1404 -0.2265 -0.4293
 3500SOL     OW13771   2.103   5.126   1.622  0.1818 -0.2007 -0.2779
 3500SOL    HW213772   2.059   5.207   1.596  0.6656 -0.4091 -1.8347
 3500SOL    HW313773   2.189   5.155   1.653  0.1753 -0.0679 -0.3794
 3500SOL    MW413774   2.108   5.141   1.623  0.2447 -0.2107 -0.4967
 3501SOL     OW13775   2.391   4.607   0.774 -0.1983 -0.6532 -0.2295
 3501SOL    HW213776   2.362   4.516   0.781 -1.1519 -0.3832 -0.5664
 3501SOL    HW313777   2.482   4.605   0.802 -0.1521 -1.7460 -0.4221
 3501SOL    MW413778   2.399   4.595   0.779 -0.3180 -0.7617 -0.2994
 3502SOL     OW13779   1.247   0.214   4.557 -0.1610  0.0805  0.5542
 3502SOL    HW213780   1.289   0.265   4.488  2.1314 -0.9145  1.1189
 3502SOL    HW313781   1.223   0.131   4.515  2.1198 -0.9183  1.0701
 3502SOL    MW413782   1.250   0.210   4.543  0.4424 -0.1825  0.6968
 3503SOL     OW13783   4.371   5.156   5.102 -0.2381  0.3665 -0.3312
 3503SOL    HW213784   4.451   5.140   5.152  0.2078  1.4834 -0.6624
 3503SOL    HW313785   4.312   5.084   5.126 -0.1929  1.0688  2.0974
 3503SOL    MW413786   4.373   5.144   5.112 -0.1733  0.6065 -0.0545
 3504SOL     OW13787   0.134   5.926   1.879 -0.3413  0.0248  0.4180
 3504SOL    HW213788   0.110   6.018   1.868 -1.0473 -0.0621  1.1303
 3504SOL    HW313789   0.195   5.926   1.953  0.8436  0.0822 -0.5288
 3504SOL    MW413790   0.139   5.938   1.888 -0.2781  0.0209  0.3870
 3505SOL     OW13791   6.375   5.336   3.585 -0.5474 -0.3958  0.1038
 3505SOL    HW213792   6.464   5.361   3.610 -0.1274 -1.4533 -0.2571
 3505SOL    HW313793   6.356   5.390   3.508  0.5680 -1.5533 -1.0282
 3505SOL    MW413794   6.384   5.347   3.578 -0.3448 -0.6881 -0.0931
 3506SOL     OW13795   3.201   0.927   1.894  0.6063  0.5806 -0.2861
 3506SOL    HW213796   3.178   1.011   1.935 -0.5583 -0.3891  1.1585
 3506SOL    HW313797   3.132   0.914   1.828 -0.5619 -0.2566  1.0397
 3506SOL    MW413798   3.189   0.937   1.891  0.2985  0.3422  0.0794
 3507SOL     OW13799   0.187   5.980   5.426  0.2167 -0.1865 -0.3063
 3507SOL    HW213800   0.101   6.017   5.407 -0.1509 -0.8540  0.0065
 3507SOL    HW313801   0.179   5.948   5.516  1.2669  1.0789  0.2544
 3507SOL    MW413802   0.174   5.981   5.435  0.3068 -0.1076 -0.1911
 3508SOL     OW13803   4.168   4.980   5.211 -0.0548 -0.0064 -0.1046
 3508SOL    HW213804   4.106   4.908   5.197  0.8091 -0.3778 -2.5800
 3508SOL    HW313805   4.114   5.055   5.234 -1.3976 -0.4722 -1.5717
 3508SOL    MW413806   4.153   4.980   5.212 -0.1180 -0.1168 -0.6247
 3509SOL     OW13807   1.492   1.431   4.037  0.1560 -0.0695  0.4210
 3509SOL    HW213808   1.425   1.499   4.037 -1.6880 -1.7879  0.4226
 3509SOL    HW313809   1.511   1.416   3.944 -0.1120 -0.1515  0.3769
 3509SOL    MW413810   1.486   1.438   4.025 -0.1226 -0.3071  0.4154
 3510SOL     OW13811   2.942   2.065   5.380 -0.4889  0.0076  0.3030
 3510SOL    HW213812   2.891   1.983   5.381  0.8053 -0.8235  1.4018
 3510SOL    HW313813   2.992   2.060   5.298  0.5207 -0.9359  0.9486
 3510SOL    MW413814   2.942   2.053   5.369 -0.1849 -0.2265  0.5331
 3511SOL     OW13815   2.113   4.170   0.908 -0.1923 -0.0069 -0.5372
 3511SOL    HW213816   2.050   4.189   0.839 -0.1646 -0.3353 -0.6503
 3511SOL    HW313817   2.188   4.225   0.888 -0.2155 -0.0442 -0.7233
 3511SOL    MW413818   2.114   4.180   0.896 -0.1917 -0.0552 -0.5767
 3512SOL     OW13819   1.854   6.172   1.518 -0.2817 -0.0065 -0.1478
 3512SOL    HW213820   1.811   6.227   1.452 -0.6753  0.5947  0.5858
 3512SOL    HW313821   1.888   6.234   1.582  0.2832 -0.5691  0.1060
 3512SOL    MW413822   1.853   6.187   1.518 -0.2591 -0.0014 -0.0175
 3513SOL     OW13823   5.031   4.923   6.354  0.1297  0.5494 -0.4788
 3513SOL    HW213824   5.116   4.883   6.333 -1.1657 -3.2626  0.7282
 3513SOL    HW313825   5.054   5.004   6.400  3.0824  0.0435 -0.8335
 3513SOL    MW413826   5.045   4.929   6.358  0.3484 -0.0203 -0.3664
 3514SOL     OW13827   2.026   4.899   4.574  0.0573 -0.1106 -0.9001
 3514SOL    HW213828   2.075   4.823   4.543 -0.3593 -0.5302 -0.5517
 3514SOL    HW313829   2.071   4.974   4.536  1.1725 -0.4623 -0.3085
 3514SOL    MW413830   2.038   4.899   4.565  0.1495 -0.2124 -0.7761
 3515SOL     OW13831   5.406   3.322   2.509  0.2470 -0.3993  0.2395
 3515SOL    HW213832   5.368   3.409   2.496  0.1154 -0.5149 -0.1627
 3515SOL    HW313833   5.484   3.338   2.561 -0.4563 -0.1779  1.2533
 3515SOL    MW413834   5.411   3.336   2.514  0.1368 -0.3853  0.3202
 3516SOL     OW13835   4.819   5.331   3.568  0.2218 -0.3860 -0.0050
 3516SOL    HW213836   4.871   5.252   3.554 -0.3770 -0.8812  0.5244
 3516SOL    HW313837   4.738   5.315   3.519  0.3871  0.2134 -0.4981
 3516SOL    MW413838   4.815   5.318   3.559  0.1646 -0.3723 -0.0002
 3517SOL     OW13839   0.085   5.797   2.133  0.5456 -0.2782 -0.3931
 3517SOL    HW213840   0.070   5.725   2.194 -2.4281 -0.2255 -0.9434
 3517SOL    HW313841   0.062   5.876   2.182  0.6314  0.0054 -0.7990
 3517SOL    MW413842   0.080   5.798   2.148  0.1646 -0.2338 -0.5193
 3518SOL     OW13843   5.185   3.315   1.547  0.0708 -0.2947  0.0108
 3518SOL    HW213844   5.205   3.246   1.610 -0.2159 -0.5963 -0.2253
 3518SOL    HW313845   5.193   3.272   1.461 -0.5666 -0.1550 -0.1208
 3518SOL    MW413846   5.189   3.300   1.544 -0.0511 -0.3161 -0.0377
 3519SOL     OW13847   4.899   5.884   2.033  0.0641  0.0932  0.0905
 3519SOL    HW213848   4.989   5.870   2.005  0.0499  0.7977 -0.3240
 3519SOL    HW313849   4.897   5.856   2.125  0.0978 -2.3191 -0.5843
 3519SOL    MW413850   4.911   5.879   2.042  0.0667 -0.1321 -0.0532
 3520SOL     OW13851   1.179   0.975   1.395 -0.2216  0.0317 -0.0371
 3520SOL    HW213852   1.258   0.986   1.448 -0.8066 -0.6839  1.0196
 3520SOL    HW313853   1.197   0.899   1.340 -0.0848  0.0126  0.0335
 3520SOL    MW413854   1.192   0.967   1.394 -0.2807 -0.0652  0.1116
 3521SOL     OW13855   5.147   3.346   4.857 -0.2612 -0.0006  0.8288
 3521SOL    HW213856   5.141   3.265   4.807 -0.7423  0.6392 -0.1845
 3521SOL    HW313857   5.188   3.408   4.797  0.2107  0.4831  1.6326
 3521SOL    MW413858   5.152   3.343   4.842 -0.2624  0.1476  0.8012
 3522SOL     OW13859   3.659   1.816   1.357  0.0424  0.1730 -0.0276
 3522SOL    HW213860   3.737   1.771   1.389 -1.7727 -2.5361  1.0643
 3522SOL    HW313861   3.633   1.874   1.429 -0.3402 -0.8970  0.7264
 3522SOL    MW413862   3.666   1.817   1.371 -0.2475 -0.3256  0.2159
 3523SOL     OW13863   3.477   3.550   6.185 -0.0184 -0.7144  1.0730
 3523SOL    HW213864   3.492   3.616   6.253 -0.0270 -0.6461  1.0091
 3523SOL    HW313865   3.384   3.559   6.163 -0.2556 -1.4289  1.7698
 3523SOL    MW413866   3.467   3.560   6.191 -0.0508 -0.7997  1.1565
 3524SOL     OW13867   0.010   0.760   5.010 -0.2610  0.3704  0.0625
 3524SOL    HW213868  -0.058   0.789   4.949 -0.1671 -0.6063 -0.5406
 3524SOL    HW313869   0.066   0.702   4.957 -0.9586 -1.6085  1.3553
 3524SOL    MW413870   0.008   0.756   4.995 -0.3406 -0.0196  0.1535
 3525SOL     OW13871   1.299   4.134   4.080  0.2299  0.3075  0.0072
 3525SOL    HW213872   1.312   4.199   4.149 -2.1465  3.6130 -2.2936
 3525SOL    HW313873   1.353   4.166   4.007 -0.5445 -0.5902 -1.0013
 3525SOL    MW413874   1.308   4.147   4.079 -0.1858  0.6252 -0.4294
 3526SOL     OW13875   2.134   2.932   4.872 -0.5307 -0.0311  0.3447
 3526SOL    HW213876   2.191   2.913   4.797  1.8260  1.6886  1.5406
 3526SOL    HW313877   2.101   2.846   4.900  2.6629 -1.3925  0.3935
 3526SOL    MW413878   2.137   2.918   4.866  0.2016  0.0162  0.5090
 3527SOL     OW13879   3.727   1.669   5.309 -0.0052  0.1140 -0.8306
 3527SOL    HW213880   3.747   1.605   5.241 -0.4231 -0.8669 -0.0489
 3527SOL    HW313881   3.636   1.693   5.294  0.3122  0.9674 -1.4645
 3527SOL    MW413882   3.718   1.664   5.298 -0.0184  0.0972 -0.8111
 3528SOL     OW13883   1.805   3.341   6.350 -0.6584 -0.6503  0.4532
 3528SOL    HW213884   1.855   3.260   6.343  0.0646 -0.1230 -0.5997
 3528SOL    HW313885   1.736   3.321   6.414 -0.3531 -2.0153  0.3773
 3528SOL    MW413886   1.802   3.328   6.358 -0.5227 -0.7608  0.3043
 3529SOL     OW13887   5.047   3.928   2.815 -0.0533  1.0292  0.2557
 3529SOL    HW213888   5.077   3.864   2.750  0.4404  0.8379  0.6640
 3529SOL    HW313889   4.952   3.914   2.821 -0.1294  1.1499 -0.5225
 3529SOL    MW413890   5.038   3.918   2.807  0.0018  1.0199  0.2069
 3530SOL     OW13891   6.328   3.541   3.743  0.4841 -0.3454  0.3056
 3530SOL    HW213892   6.285   3.456   3.754  0.0469 -0.1728 -0.0297
 3530SOL    HW313893   6.258   3.605   3.754  0.5756 -0.0706 -0.6245
 3530SOL    MW413894   6.313   3.538   3.746  0.4385 -0.2864  0.1386
 3531SOL     OW13895   0.601   0.861   3.362 -0.1863  0.2559  0.2244
 3531SOL    HW213896   0.576   0.807   3.437  0.2277 -3.3939 -2.0232
 3531SOL    HW313897   0.696   0.852   3.356 -0.3163 -0.3761 -1.2722
 3531SOL    MW413898   0.610   0.853   3.371 -0.1488 -0.3090 -0.2696
 3532SOL     OW13899   4.485   5.452   5.360  0.2641  0.0390 -0.2737
 3532SOL    HW213900   4.456   5.472   5.449  2.7496  2.4367  0.1293
 3532SOL    HW313901   4.437   5.514   5.305  0.1024 -0.1682 -0.3652
 3532SOL    MW413902   4.475   5.463   5.365  0.5707  0.3280 -0.2326
 3533SOL     OW13903   3.765   3.123   4.873  0.4017  0.4715 -0.4172
 3533SOL    HW213904   3.714   3.126   4.792  0.6270 -1.4179 -0.6800
 3533SOL    HW313905   3.856   3.124   4.844  0.5313  2.1009 -0.0354
 3533SOL    MW413906   3.770   3.124   4.858  0.4485  0.4372 -0.4015
 3534SOL     OW13907   3.263   5.104   2.075  0.0114 -0.1651  0.0233
 3534SOL    HW213908   3.168   5.105   2.068  0.1134 -1.3139 -3.1386
 3534SOL    HW313909   3.286   5.011   2.083  0.9059 -0.2616 -2.6336
 3534SOL    MW413910   3.254   5.092   2.075  0.1429 -0.3294 -0.7444
 3535SOL     OW13911   4.576   6.369   1.388 -0.1872  0.4719  0.6874
 3535SOL    HW213912   4.639   6.439   1.373  0.4259 -0.1511  0.3255
 3535SOL    HW313913   4.626   6.288   1.376 -1.3043 -0.0418 -0.7725
 3535SOL    MW413914   4.591   6.368   1.384 -0.2537  0.3219  0.4470
 3536SOL     OW13915   5.836   4.493   4.894 -0.4306 -0.2926 -0.4402
 3536SOL    HW213916   5.761   4.452   4.851 -1.0627  0.4490 -0.0510
 3536SOL    HW313917   5.812   4.585   4.903  0.9977  0.2135 -1.3797
 3536SOL    MW413918   5.823   4.500   4.889 -0.3255 -0.1280 -0.5128
 3537SOL     OW13919   2.748   1.324   3.633 -0.1698  0.5983 -0.1548
 3537SOL    HW213920   2.746   1.308   3.538  0.2614  1.1887 -0.2737
 3537SOL    HW313921   2.820   1.386   3.644 -1.0229  1.5254  0.4022
 3537SOL    MW413922   2.757   1.330   3.622 -0.2254  0.7985 -0.0970
 3538SOL     OW13923   1.476   5.671   2.213  0.2300  0.3226  0.1805
 3538SOL    HW213924   1.426   5.739   2.260 -0.4473 -0.0591  0.0245
 3538SOL    HW313925   1.567   5.686   2.240  0.1752  1.6630 -0.3131
 3538SOL    MW413926   1.482   5.682   2.223  0.1334  0.4491  0.0948
 3539SOL     OW13927   4.773   1.430   0.388 -0.1617  0.5423 -0.2023
 3539SOL    HW213928   4.806   1.474   0.310 -0.6610 -1.6178 -1.7193
 3539SOL    HW313929   4.852   1.397   0.431  0.1056  1.6134  0.1565
 3539SOL    MW413930   4.788   1.432   0.384 -0.1923  0.3986 -0.3551
 3540SOL     OW13931   5.733   3.912   5.953  0.0930  0.3934 -0.8709
 3540SOL    HW213932   5.764   3.980   6.014 -0.6256  2.0881 -2.2967
 3540SOL    HW313933   5.813   3.866   5.927  0.6890  1.0444 -0.2606
 3540SOL    MW413934   5.748   3.915   5.957  0.0768  0.7029 -0.9785
 3541SOL     OW13935   6.346   1.602   5.023 -0.1005 -0.2442 -0.0306
 3541SOL    HW213936   6.404   1.538   4.982  0.8976  0.5442  0.1033
 3541SOL    HW313937   6.400   1.643   5.091 -1.0011  0.1057  0.4868
 3541SOL    MW413938   6.361   1.599   5.027 -0.0876 -0.0940  0.0553
 3542SOL     OW13939   3.411   2.296   6.433  0.4666  0.1312 -0.0689
 3542SOL    HW213940   3.362   2.308   6.515 -0.5767 -1.9344 -0.3506
 3542SOL    HW313941   3.382   2.369   6.378 -0.3284  0.4129  0.6858
 3542SOL    MW413942   3.401   2.307   6.437  0.2241 -0.1041 -0.0065
 3543SOL     OW13943   4.762   6.118   1.980  0.4946 -0.2114  0.3292
 3543SOL    HW213944   4.800   6.033   2.000 -0.8045 -0.4528  2.0310
 3543SOL    HW313945   4.676   6.116   2.022  0.0181  1.5628 -0.4741
 3543SOL    MW413946   4.755   6.107   1.988  0.2603 -0.0092  0.4477
 3544SOL     OW13947   4.918   1.345   5.757 -0.2778 -0.0443  0.1344
 3544SOL    HW213948   4.947   1.266   5.803  0.3668  0.7963  1.2224
 3544SOL    HW313949   4.853   1.314   5.694  0.4856 -1.5299  0.0431
 3544SOL    MW413950   4.913   1.331   5.755 -0.0920 -0.1294  0.2659
 3545SOL     OW13951   1.866   4.215   6.248 -0.1778  0.1653  0.0720
 3545SOL    HW213952   1.957   4.197   6.271  0.3352  2.0397 -0.2812
 3545SOL    HW313953   1.828   4.251   6.328 -0.4256  0.0092  0.0262
 3545SOL    MW413954   1.873   4.218   6.262 -0.1428  0.3920  0.0194
 3546SOL     OW13955   1.810   2.195   1.555 -0.0570 -0.4540 -0.5529
 3546SOL    HW213956   1.766   2.138   1.618  0.0825  2.1431  2.0870
 3546SOL    HW313957   1.767   2.177   1.472 -2.8504 -1.3944  0.9763
 3546SOL    MW413958   1.799   2.185   1.552 -0.4071 -0.2354 -0.0029
 3547SOL     OW13959   1.669   0.210   4.413 -0.0254 -0.0866 -0.5806
 3547SOL    HW213960   1.702   0.255   4.491  1.7895 -0.9136 -0.8070
 3547SOL    HW313961   1.611   0.273   4.371 -0.8388  0.4665  1.2876
 3547SOL    MW413962   1.666   0.224   4.417  0.1067 -0.1228 -0.3640
 3548SOL     OW13963   5.534   2.560   2.907  0.8847  0.1092 -0.6187
 3548SOL    HW213964   5.495   2.482   2.869  1.5542 -1.2640  1.3461
 3548SOL    HW313965   5.625   2.535   2.924  1.2172  1.4522 -0.3357
 3548SOL    MW413966   5.541   2.546   2.905  1.0169  0.1052 -0.3221
 3549SOL     OW13967   3.668   4.218   3.218 -0.3601 -0.6258 -0.1824
 3549SOL    HW213968   3.756   4.222   3.256 -0.8057 -1.8045  1.0211
 3549SOL    HW313969   3.609   4.236   3.291 -1.1701 -1.1164 -0.7056
 3549SOL    MW413970   3.672   4.221   3.233 -0.5257 -0.8460 -0.0927
 3550SOL     OW13971   2.094   3.824   4.330 -0.3238  0.3298 -0.1158
 3550SOL    HW213972   2.129   3.898   4.279  1.4343 -0.9492 -0.9019
 3550SOL    HW313973   2.082   3.755   4.265  0.3420 -0.8131  0.9499
 3550SOL    MW413974   2.097   3.825   4.315 -0.0040  0.0103 -0.0789
 3551SOL     OW13975   1.154   0.278   0.572  0.1679  0.1194  0.0383
 3551SOL    HW213976   1.127   0.323   0.652 -2.1747 -1.6327  0.3393
 3551SOL    HW313977   1.198   0.199   0.602  2.5608  1.1432 -0.4946
 3551SOL    MW413978   1.157   0.274   0.586  0.1746  0.0233  0.0077
 3552SOL     OW13979   5.902   0.662   2.456 -0.2646  0.3764  0.1074
 3552SOL    HW213980   5.815   0.633   2.429  0.3488 -0.6564 -0.8419
 3552SOL    HW313981   5.921   0.613   2.536 -0.1013 -0.2954 -0.3290
 3552SOL    MW413982   5.893   0.652   2.463 -0.1621  0.1515 -0.0754
 3553SOL     OW13983   4.625   2.467   4.357  0.0247  0.1897  0.1884
 3553SOL    HW213984   4.666   2.507   4.280 -0.3745 -0.8866 -0.6164
 3553SOL    HW313985   4.688   2.482   4.428  1.0373  0.0329 -0.6434
 3553SOL    MW413986   4.639   2.474   4.356  0.1056  0.0270 -0.0275
 3554SOL     OW13987   0.319   3.452   2.913  0.0185 -0.2490  0.2601
 3554SOL    HW213988   0.359   3.365   2.918  0.9854  0.1267 -0.5373
 3554SOL    HW313989   0.386   3.510   2.949  0.6218  0.5170 -1.9764
 3554SOL    MW413990   0.333   3.448   2.919  0.2257 -0.0984 -0.1402
 3555SOL     OW13991   5.755   4.506   2.560  0.1144  0.0975  0.2954
 3555SOL    HW213992   5.776   4.413   2.575 -0.0072 -0.1291 -0.8319
 3555SOL    HW313993   5.833   4.553   2.588  0.3819 -0.3970  0.3979
 3555SOL    MW413994   5.768   4.500   2.565  0.1336  0.0024  0.1602
 3556SOL     OW13995   1.390   5.951   0.101 -0.3342  0.3137 -0.3434
 3556SOL    HW213996   1.400   5.947   0.006 -0.4518  0.8100 -0.3830
 3556SOL    HW313997   1.389   6.045   0.121 -1.5418  0.2466  0.0044
 3556SOL    MW413998   1.391   5.963   0.091 -0.5090  0.3703 -0.3027
 3557SOL     OW13999   2.236   5.281   2.394 -0.3170  0.3868 -0.4145
 3557SOL    HW214000   2.143   5.288   2.412  0.0028  1.6756  0.9050
 3557SOL    HW314001   2.251   5.188   2.383 -1.5609  0.0402  0.5447
 3557SOL    MW414002   2.226   5.270   2.395 -0.4389  0.5111 -0.1139
 3558SOL     OW14003   1.591   5.384   3.521  0.5774  0.3021  0.2609
 3558SOL    HW214004   1.550   5.424   3.598  1.5813 -1.0372  1.5502
 3558SOL    HW314005   1.683   5.410   3.527  0.6626  0.1997 -0.5088
 3558SOL    MW414006   1.598   5.393   3.532  0.7211  0.1119  0.3295
 3559SOL     OW14007   5.821   4.595   3.231  0.2103  0.4972  0.0448
 3559SOL    HW214008   5.753   4.607   3.164 -1.8636  0.7130  2.0872
 3559SOL    HW314009   5.866   4.680   3.235 -1.5163  1.4243  0.8222
 3559SOL    MW414010   5.818   4.608   3.222 -0.2911  0.6480  0.4168
 3560SOL     OW14011   6.173   1.625   0.164 -0.6931  0.2323  0.3428
 3560SOL    HW214012   6.181   1.694   0.098  0.5351 -0.3316 -0.1143
 3560SOL    HW314013   6.206   1.665   0.244  1.1499 -0.1646 -0.1853
 3560SOL    MW414014   6.178   1.640   0.166 -0.2879  0.1055  0.2128
 3561SOL     OW14015   1.096   3.174   3.698 -0.1273  0.9340 -0.3979
 3561SOL    HW214016   1.134   3.087   3.711 -0.5690  0.9775  1.4776
 3561SOL    HW314017   1.045   3.166   3.617 -0.9347 -0.8395  0.2333
 3561SOL    MW414018   1.094   3.162   3.689 -0.2921  0.7058 -0.0671
 3562SOL     OW14019   5.926   3.183   2.628  0.0227  0.0947 -0.3014
 3562SOL    HW214020   5.911   3.191   2.722  0.5975  1.0419 -0.2788
 3562SOL    HW314021   5.979   3.103   2.619 -3.1789 -2.2160 -0.2196
 3562SOL    MW414022   5.931   3.174   2.639 -0.3239 -0.0852 -0.2877
 3563SOL     OW14023   0.665   3.480   2.928  0.1796  0.0342 -0.0806
 3563SOL    HW214024   0.675   3.419   2.855  0.0637  0.4795 -0.4794
 3563SOL    HW314025   0.683   3.428   3.006 -0.2310 -0.5829 -0.3869
 3563SOL    MW414026   0.669   3.465   2.929  0.1101  0.0116 -0.1736
 3564SOL     OW14027   5.024   5.561   2.121  0.5487 -0.1908 -0.2000
 3564SOL    HW214028   5.118   5.574   2.130  1.2958 -2.7698 -2.7000
 3564SOL    HW314029   5.005   5.485   2.177  0.3757 -0.8310 -1.0993
 3564SOL    MW414030   5.034   5.553   2.130  0.6245 -0.6155 -0.6485
 3565SOL     OW14031   1.157   4.918   4.600 -0.1514  0.3173 -0.0033
 3565SOL    HW214032   1.204   4.997   4.627 -0.2723 -0.2781  2.2049
 3565SOL    HW314033   1.206   4.884   4.526  0.1117  2.2380 -0.7764
 3565SOL    MW414034   1.170   4.924   4.594 -0.1326  0.4922  0.1860
 3566SOL     OW14035   4.699   2.062   1.778 -0.0524  0.1844 -0.5337
 3566SOL    HW214036   4.736   1.974   1.763 -1.2812 -0.7903  1.6535
 3566SOL    HW314037   4.638   2.075   1.705  1.8423  0.2972 -2.1996
 3566SOL    MW414038   4.696   2.052   1.766  0.0355  0.0707 -0.4649
 3567SOL     OW14039   0.350   3.596   4.355  0.5353 -0.5187  0.4054
 3567SOL    HW214040   0.368   3.682   4.316  0.8833 -0.3937  0.8254
 3567SOL    HW314041   0.355   3.612   4.449 -0.6053 -0.7433  0.5220
 3567SOL    MW414042   0.353   3.610   4.362  0.4307 -0.5318  0.4762
 3568SOL     OW14043   2.364   3.579   5.192  0.3669  0.2156  0.1939
 3568SOL    HW214044   2.426   3.643   5.157  0.6772  0.2573  0.7993
 3568SOL    HW314045   2.282   3.596   5.146  1.3552 -1.3670 -2.3627
 3568SOL    MW414046   2.361   3.589   5.181  0.5382  0.0123 -0.0635
 3569SOL     OW14047   2.545   6.417   4.283 -0.2101  0.4869  0.1015
 3569SOL    HW214048   2.614   6.442   4.344 -0.1705  0.6051  0.0067
 3569SOL    HW314049   2.495   6.350   4.330  0.4396 -0.1697 -0.1338
 3569SOL    MW414050   2.548   6.411   4.297 -0.1191  0.4159  0.0580
 3570SOL     OW14051   6.196   1.240   3.604  0.1242 -0.3605 -0.1982
 3570SOL    HW214052   6.172   1.281   3.688 -0.7203 -1.4931  0.1432
 3570SOL    HW314053   6.128   1.270   3.544  1.0011  0.8381 -0.6161
 3570SOL    MW414054   6.184   1.250   3.607  0.1285 -0.3517 -0.2083
 3571SOL     OW14055   1.428   2.657   6.221 -0.1917  0.6347  0.5320
 3571SOL    HW214056   1.410   2.735   6.168 -0.0560  0.2294 -0.1148
 3571SOL    HW314057   1.414   2.686   6.311  1.4446  1.8882  0.4449
 3571SOL    MW414058   1.424   2.671   6.226  0.0421  0.7466  0.4352
 3572SOL     OW14059   2.586   2.007   2.221 -0.6470  0.0089  0.6627
 3572SOL    HW214060   2.500   2.015   2.181 -0.9020 -0.1662  1.1756
 3572SOL    HW314061   2.628   2.091   2.204 -1.5413  0.7287  1.8596
 3572SOL    MW414062   2.580   2.019   2.213 -0.7986  0.0808  0.8883
 3573SOL     OW14063   5.204   1.115   5.880  0.1750  0.4312 -0.1926
 3573SOL    HW214064   5.221   1.208   5.895  1.4394  0.2275 -0.2009
 3573SOL    HW314065   5.210   1.075   5.967 -1.0447  0.4391 -0.0917
 3573SOL    MW414066   5.207   1.122   5.894  0.1809  0.4053 -0.1804
 3574SOL     OW14067   0.687   5.403   0.027 -0.0131  0.8765  0.2606
 3574SOL    HW214068   0.659   5.384  -0.063  0.4841 -1.3151  0.5044
 3574SOL    HW314069   0.708   5.496   0.026  1.1138  0.6851 -2.2291
 3574SOL    MW414070   0.686   5.412   0.015  0.2012  0.5621 -0.0357
 3575SOL     OW14071   4.404   2.287   0.754 -0.4116 -0.2268  0.3232
 3575SOL    HW214072   4.496   2.298   0.730  0.1538  1.5446  2.8357
 3575SOL    HW314073   4.378   2.205   0.713  2.0233 -0.3587 -1.1559
 3575SOL    MW414074   4.412   2.278   0.746 -0.0158 -0.0105  0.4596
 3576SOL     OW14075   4.919   2.236   6.311 -0.1526  0.0066  0.0627
 3576SOL    HW214076   4.929   2.221   6.405  0.5590 -0.2746 -0.0519
 3576SOL    HW314077   4.831   2.202   6.291 -0.1804 -0.2322  0.5649
 3576SOL    MW414078   4.908   2.229   6.321 -0.0624 -0.0620  0.1138
 3577SOL     OW14079   2.538   2.085   5.440  0.5271 -0.0680  0.2168
 3577SOL    HW214080   2.577   2.007   5.480  1.9472  0.6603  0.3410
 3577SOL    HW314081   2.555   2.075   5.346  1.5856  0.5209  0.3275
 3577SOL    MW414082   2.546   2.074   5.433  0.8541  0.1058  0.2478
 3578SOL     OW14083   3.997   4.287   3.966 -0.2280  0.0818  0.2817
 3578SOL    HW214084   3.967   4.374   3.993  1.3898  0.5661  0.6252
 3578SOL    HW314085   3.964   4.228   4.034  1.3353  0.8816  1.7972
 3578SOL    MW414086   3.988   4.291   3.978  0.1917  0.2512  0.5270
 3579SOL     OW14087   4.810   2.578   0.850 -0.1478 -0.5377  0.1073
 3579SOL    HW214088   4.901   2.548   0.849 -0.0191 -0.1912  0.9174
 3579SOL    HW314089   4.815   2.673   0.842 -0.3098 -0.3070  2.1571
 3579SOL    MW414090   4.823   2.586   0.849 -0.1522 -0.4616  0.4846
 3580SOL     OW14091   1.594   0.066   4.104  0.3737 -0.3879  0.3534
 3580SOL    HW214092   1.616   0.056   4.011  1.0409 -0.2049  0.4871
 3580SOL    HW314093   1.617   0.157   4.124 -0.9873 -0.0181  0.3843
 3580SOL    MW414094   1.600   0.077   4.094  0.2821 -0.3149  0.3751
 3581SOL     OW14095   6.420   4.703   4.683 -0.1547 -0.0720 -0.0926
 3581SOL    HW214096   6.342   4.711   4.738  0.8411 -1.4652  1.6252
 3581SOL    HW314097   6.463   4.789   4.691  0.5820 -0.5833  2.3957
 3581SOL    MW414098   6.416   4.716   4.692  0.0739 -0.3232  0.4623
 3582SOL     OW14099   1.962   2.759   3.772 -0.1183  0.1949 -0.1830
 3582SOL    HW214100   1.951   2.809   3.853  0.0797  1.2651 -0.7963
 3582SOL    HW314101   1.875   2.725   3.753  0.1262 -1.4162  1.2969
 3582SOL    MW414102   1.949   2.761   3.780 -0.0599  0.1235 -0.0686
 3583SOL     OW14103   0.947   5.429   1.828 -0.8321 -0.0399 -0.1814
 3583SOL    HW214104   0.955   5.481   1.908 -1.8224 -2.6314  1.7529
 3583SOL    HW314105   1.015   5.464   1.770  0.0749  1.8287  1.8372
 3583SOL    MW414106   0.957   5.440   1.831 -0.8431 -0.1353  0.3402
 3584SOL     OW14107   0.534   4.050   1.370  0.5262 -0.0325 -0.1490
 3584SOL    HW214108   0.577   4.131   1.399 -1.7158  1.2722 -0.2399
 3584SOL    HW314109   0.493   4.015   1.450  0.7037 -0.5919 -0.2954
 3584SOL    MW414110   0.534   4.056   1.385  0.2538  0.0659 -0.1803
 3585SOL     OW14111   5.835   3.725   5.239  0.0369  0.0047  0.0678
 3585SOL    HW214112   5.855   3.751   5.149 -1.0883 -0.6142 -0.3864
 3585SOL    HW314113   5.920   3.699   5.276  0.9562  2.7355  0.0604
 3585SOL    MW414114   5.849   3.725   5.232  0.0098  0.2834  0.0069
 3586SOL     OW14115   0.082   3.217   0.440 -0.0702  0.1378  0.1989
 3586SOL    HW214116   0.057   3.271   0.515  0.0016 -0.5761  0.7473
 3586SOL    HW314117   0.009   3.156   0.429 -0.8426  1.2940 -1.3625
 3586SOL    MW414118   0.069   3.216   0.449 -0.1627  0.1961  0.0652
 3587SOL     OW14119   1.011   4.512   2.053  0.7318  0.4419  0.3344
 3587SOL    HW214120   1.072   4.446   2.018  0.3777  0.7774 -0.9844
 3587SOL    HW314121   1.067   4.572   2.103  1.0801 -0.7296  1.4006
 3587SOL    MW414122   1.027   4.511   2.055  0.7310  0.3316  0.3011
 3588SOL     OW14123   2.345   6.288   5.004  0.2786 -0.2277 -0.6031
 3588SOL    HW214124   2.251   6.270   5.008 -0.2095  1.9986 -0.5654
 3588SOL    HW314125   2.355   6.372   5.050  2.5448 -1.2450  0.9416
 3588SOL    MW414126   2.334   6.297   5.011  0.5132 -0.0682 -0.3943
 3589SOL     OW14127   1.891   3.126   3.193  0.3586 -0.6478  0.3349
 3589SOL    HW214128   1.949   3.079   3.133  1.9396  0.2032  1.1162
 3589SOL    HW314129   1.838   3.058   3.234  1.3002 -1.5611  0.0919
 3589SOL    MW414130   1.892   3.111   3.191  0.6914 -0.6560  0.4059
 3590SOL     OW14131   1.889   0.020   4.962  0.0817  0.5502 -0.1127
 3590SOL    HW214132   1.952  -0.052   4.974 -0.7404 -0.0259  0.9766
 3590SOL    HW314133   1.922   0.068   4.887  1.2239 -0.3769 -0.2431
 3590SOL    MW414134   1.902   0.017   4.954  0.1239  0.3519  0.0138
 3591SOL     OW14135   2.827   5.987   2.752  0.1270  0.2969  0.5370
 3591SOL    HW214136   2.775   5.916   2.715 -0.2935 -2.0435  4.9387
 3591SOL    HW314137   2.770   6.064   2.747 -1.8087 -1.0529  0.8273
 3591SOL    MW414138   2.812   5.988   2.746 -0.1838 -0.1900  1.1560
 3592SOL     OW14139   1.932   3.626   2.329 -0.1605 -0.3066  0.2666
 3592SOL    HW214140   1.918   3.716   2.358 -0.8318  0.1246 -1.3185
 3592SOL    HW314141   1.868   3.575   2.378  0.1189  0.0866  1.0593
 3592SOL    MW414142   1.921   3.631   2.339 -0.2122 -0.1978  0.1621
 3593SOL     OW14143   4.675   2.880   5.719 -0.1703  0.3726  0.6884
 3593SOL    HW214144   4.641   2.923   5.641  2.6441 -0.5135 -1.1704
 3593SOL    HW314145   4.600   2.832   5.754 -2.0046  2.3569 -0.2706
 3593SOL    MW414146   4.661   2.879   5.713 -0.0410  0.5175  0.3166
 3594SOL     OW14147   3.072   3.413   1.007 -0.2288  0.1906  0.1038
 3594SOL    HW214148   2.982   3.392   0.981 -0.5546  2.8849 -1.4004
 3594SOL    HW314149   3.101   3.337   1.057 -3.5444 -0.5475  1.1894
 3594SOL    MW414150   3.064   3.400   1.010 -0.7093  0.4487  0.0485
 3595SOL     OW14151   1.450   2.329   3.613 -0.0634 -0.5339 -0.2086
 3595SOL    HW214152   1.424   2.318   3.521  0.7892 -0.3509 -0.4782
 3595SOL    HW314153   1.499   2.411   3.615 -1.5767  0.3949  0.7499
 3595SOL    MW414154   1.453   2.338   3.601 -0.1505 -0.3872 -0.1177
 3596SOL     OW14155   3.960   5.848   0.137  0.4052 -0.0242  0.3170
 3596SOL    HW214156   3.883   5.831   0.083  1.4176 -0.7354 -0.9520
 3596SOL    HW314157   3.973   5.767   0.187 -0.0011  0.3092  0.9784
 3596SOL    MW414158   3.952   5.835   0.137  0.4852 -0.0740  0.2368
 3597SOL     OW14159   3.992   1.144   1.980 -0.0908  0.3033 -0.1716
 3597SOL    HW214160   4.069   1.199   2.001 -0.6491  0.4725  1.6180
 3597SOL    HW314161   4.029   1.065   1.941  0.7824  1.6456 -2.2105
 3597SOL    MW414162   4.007   1.141   1.978 -0.0493  0.5027 -0.2045
 3598SOL     OW14163   2.916   3.636   6.310 -0.0233  0.3279  0.4499
 3598SOL    HW214164   2.853   3.662   6.378 -0.2351  0.7738  0.0840
 3598SOL    HW314165   2.864   3.630   6.230  0.5929  1.8384 -0.1036
 3598SOL    MW414166   2.900   3.639   6.309  0.0300  0.5860  0.3286
 3599SOL     OW14167   5.025   1.397   0.913  0.0069  0.9946 -0.0203
 3599SOL    HW214168   4.952   1.373   0.856 -0.2454  0.7758  0.3896
 3599SOL    HW314169   5.000   1.481   0.951  0.7137  1.7390 -1.1478
 3599SOL    MW414170   5.012   1.405   0.910  0.0669  1.0640 -0.1150
 3600SOL     OW14171   4.453   5.987   5.830 -0.2110 -0.8218 -0.4031
 3600SOL    HW214172   4.424   6.034   5.751 -2.0867  0.0804  0.7346
 3600SOL    HW314173   4.515   5.922   5.798 -1.3896 -0.9122 -2.7084
 3600SOL    MW414174   4.457   5.985   5.815 -0.6140 -0.7147 -0.5572
 3601SOL     OW14175   0.755   2.597   0.754 -0.2320  0.2627 -0.3100
 3601SOL    HW214176   0.745   2.692   0.747 -0.2406  0.1931 -1.2577
 3601SOL    HW314177   0.711   2.562   0.677  0.3213 -0.4851 -0.2999
 3601SOL    MW414178   0.748   2.605   0.743 -0.1601  0.1549 -0.4337
 3602SOL     OW14179   4.230   6.090   4.003 -0.6748 -0.4743  0.0884
 3602SOL    HW214180   4.234   6.053   4.091  0.9193 -0.8273 -0.1044
 3602SOL    HW314181   4.285   6.169   4.007 -1.1466 -0.1078 -0.4191
 3602SOL    MW414182   4.238   6.096   4.015 -0.5267 -0.4725 -0.0040
 3603SOL     OW14183   2.866   2.894   4.754 -0.3826 -0.3298 -0.2788
 3603SOL    HW214184   2.909   2.902   4.669 -0.4861  1.6698 -0.1926
 3603SOL    HW314185   2.938   2.886   4.817 -0.2933 -1.2366 -0.4778
 3603SOL    MW414186   2.881   2.894   4.751 -0.3845 -0.1856 -0.2937
 3604SOL     OW14187   6.395   5.387   1.083  0.0084 -0.0494 -0.2580
 3604SOL    HW214188   6.376   5.477   1.109 -0.8268 -0.7693  1.7756
 3604SOL    HW314189   6.418   5.342   1.164  0.8335 -1.5804 -1.2964
 3604SOL    MW414190   6.395   5.393   1.097  0.0071 -0.3464 -0.1267
 3605SOL     OW14191   5.297   5.191   1.942 -0.6035 -0.6396  0.1204
 3605SOL    HW214192   5.348   5.272   1.931 -1.7880  0.1843  0.4931
 3605SOL    HW314193   5.360   5.121   1.926  0.5148  0.3510  0.0288
 3605SOL    MW414194   5.312   5.192   1.938 -0.6122 -0.4002  0.1575
 3606SOL     OW14195   4.713   0.136   0.056  0.0987 -0.2874  0.5150
 3606SOL    HW214196   4.618   0.139   0.050 -0.0125  1.2572  2.3418
 3606SOL    HW314197   4.737   0.213   0.106  2.2262 -1.3221  1.2172
 3606SOL    MW414198   4.704   0.146   0.062  0.3648 -0.2201  0.8487
 3607SOL     OW14199   3.308   6.245   4.639  1.0443  0.5841  0.4808
 3607SOL    HW214200   3.385   6.283   4.682  0.6776  0.0249  1.6807
 3607SOL    HW314201   3.266   6.193   4.707  0.1485  0.0694 -0.4375
 3607SOL    MW414202   3.312   6.243   4.654  0.8777  0.4424  0.5180
 3608SOL     OW14203   4.499   3.204   5.807  0.0636 -0.2743 -0.5735
 3608SOL    HW214204   4.583   3.169   5.835 -1.1063 -0.9850  2.3790
 3608SOL    HW314205   4.483   3.279   5.865 -0.1217  1.6506 -2.9534
 3608SOL    MW414206   4.508   3.209   5.818 -0.1152 -0.1141 -0.4980
 3609SOL     OW14207   5.736   2.904   3.428 -0.3066 -0.1404  0.3197
 3609SOL    HW214208   5.714   2.861   3.346 -0.7548  1.1422 -0.2633
 3609SOL    HW314209   5.824   2.872   3.448  0.2818  0.3605 -1.2672
 3609SOL    MW414210   5.745   2.894   3.420 -0.2881  0.0949  0.0334
 3610SOL     OW14211   2.132   2.895   0.302  0.4651 -0.0311  0.1518
 3610SOL    HW214212   2.177   2.976   0.325 -0.7010  0.6886 -0.0344
 3610SOL    HW314213   2.151   2.835   0.374  3.5094 -0.5169 -0.9212
 3610SOL    MW414214   2.140   2.898   0.314  0.7129 -0.0002 -0.0143
 3611SOL     OW14215   3.790   2.745   4.579  0.5822 -0.2486  0.5024
 3611SOL    HW214216   3.884   2.752   4.595  0.6556 -1.2614  0.5893
 3611SOL    HW314217   3.764   2.665   4.624 -0.0324 -0.8197 -0.8237
 3611SOL    MW414218   3.799   2.736   4.587  0.5108 -0.4576  0.3389
 3612SOL     OW14219   6.152   5.785   4.433 -0.1404 -0.5717 -0.4102
 3612SOL    HW214220   6.174   5.716   4.496  0.3964 -0.3591 -0.3623
 3612SOL    HW314221   6.077   5.830   4.473 -0.6321 -1.2525 -0.5417
 3612SOL    MW414222   6.145   5.782   4.447 -0.1345 -0.6335 -0.4212
 3613SOL     OW14223   4.943   0.573   4.624 -0.1230 -0.0693  0.3701
 3613SOL    HW214224   4.998   0.651   4.635  1.8954 -1.3253 -0.2061
 3613SOL    HW314225   4.962   0.519   4.701  0.5038 -1.0820 -0.4482
 3613SOL    MW414226   4.953   0.576   4.635  0.2260 -0.3686  0.1861
 3614SOL     OW14227   4.333   1.159   2.390 -0.8010  0.5239  0.5186
 3614SOL    HW214228   4.256   1.216   2.395 -0.9942  0.3221 -0.0766
 3614SOL    HW314229   4.297   1.070   2.385 -0.5516  0.4572 -0.2483
 3614SOL    MW414230   4.318   1.155   2.390 -0.7936  0.4885  0.3389
 3615SOL     OW14231   1.686   5.419   0.599  0.2813 -0.9014  0.0121
 3615SOL    HW214232   1.694   5.502   0.647  0.3638 -1.1615  0.4588
 3615SOL    HW314233   1.620   5.370   0.647 -0.7942 -0.5487 -1.0707
 3615SOL    MW414234   1.678   5.424   0.612  0.1503 -0.8892 -0.0718
 3616SOL     OW14235   0.249   1.217   5.220  0.8183 -0.4701 -0.1456
 3616SOL    HW214236   0.215   1.138   5.178  0.7773  0.3454 -1.7168
 3616SOL    HW314237   0.229   1.205   5.313 -2.0443 -0.8691 -0.7419
 3616SOL    MW414238   0.242   1.205   5.227  0.4352 -0.4151 -0.4316
 3617SOL     OW14239   4.763   2.741   2.064 -0.0054 -0.4657 -0.3474
 3617SOL    HW214240   4.735   2.650   2.053 -1.0336 -0.2310  0.1510
 3617SOL    HW314241   4.858   2.737   2.068 -0.0889 -1.8126  2.0911
 3617SOL    MW414242   4.772   2.729   2.063 -0.1521 -0.6124  0.0400
 3618SOL     OW14243   1.531   3.913   6.111 -0.2785 -0.1313  0.2381
 3618SOL    HW214244   1.615   3.933   6.071 -0.4765 -2.2400 -1.4135
 3618SOL    HW314245   1.533   3.818   6.124 -1.5806  0.0621  2.1665
 3618SOL    MW414246   1.542   3.903   6.107 -0.4764 -0.3840  0.2746
 3619SOL     OW14247   0.415   2.985   2.168 -0.4690  0.1681 -0.2160
 3619SOL    HW214248   0.474   3.059   2.157 -1.6072  1.3540  1.1960
 3619SOL    HW314249   0.369   2.977   2.084 -0.4432  1.1762 -0.3322
 3619SOL    MW414250   0.417   2.994   2.155 -0.6158  0.4576 -0.0450
 3620SOL     OW14251   4.137   6.025   2.311 -0.1571  0.2577 -0.0366
 3620SOL    HW214252   4.067   6.018   2.376  0.1673  0.8782  0.3973
 3620SOL    HW314253   4.102   5.983   2.233 -0.4738 -0.6951  0.6037
 3620SOL    MW414254   4.124   6.019   2.309 -0.1561  0.2139  0.1051
 3621SOL     OW14255   3.439   1.885   4.895  0.3989 -0.1072 -0.4966
 3621SOL    HW214256   3.426   1.813   4.957  0.7563  1.7405  1.8513
 3621SOL    HW314257   3.350   1.910   4.869  0.2411 -0.7778 -0.6447
 3621SOL    MW414258   3.425   1.879   4.900  0.4252  0.0481 -0.2063
 3622SOL     OW14259   5.800   0.202   3.000 -0.1129 -0.0559  0.4921
 3622SOL    HW214260   5.889   0.175   2.981  0.2271  0.7110  0.9295
 3622SOL    HW314261   5.793   0.290   2.963 -1.3873 -0.9146 -1.4515
 3622SOL    MW414262   5.811   0.210   2.993 -0.2362 -0.0680  0.2934
 3623SOL     OW14263   3.660   1.522   2.034  0.1162 -0.1617  0.2853
 3623SOL    HW214264   3.696   1.609   2.050  0.4858 -0.4424  0.9876
 3623SOL    HW314265   3.665   1.477   2.118 -0.4718 -0.7236  0.0330
 3623SOL    MW414266   3.665   1.527   2.047  0.0874 -0.2729  0.3447
 3624SOL     OW14267   1.432   2.524   1.967  0.4726  0.4198  0.3874
 3624SOL    HW214268   1.525   2.531   1.987  0.5517  0.5138 -0.0207
 3624SOL    HW314269   1.408   2.436   1.995  0.6790  0.4031  0.5130
 3624SOL    MW414270   1.441   2.514   1.974  0.5103  0.4300  0.3502
 3625SOL     OW14271   6.257   2.249   2.991  0.4544  0.7349 -0.2974
 3625SOL    HW214272   6.194   2.230   2.921  0.6139  1.5965 -0.6961
 3625SOL    HW314273   6.322   2.179   2.985 -0.5180 -0.2354  0.2002
 3625SOL    MW414274   6.257   2.238   2.981  0.3472  0.7206 -0.2844
 3626SOL     OW14275   4.554   4.735   4.875 -0.3661  0.1468 -0.1380
 3626SOL    HW214276   4.547   4.826   4.847 -0.4082  0.0380 -0.4896
 3626SOL    HW314277   4.468   4.697   4.853 -0.3017 -0.0114 -0.1158
 3626SOL    MW414278   4.541   4.742   4.868 -0.3631  0.1116 -0.1814
 3627SOL     OW14279   0.790   6.191   4.629  0.6732 -0.0749 -0.1588
 3627SOL    HW214280   0.871   6.150   4.661  0.1880 -0.5260  0.5052
 3627SOL    HW314281   0.816   6.281   4.609  1.4936 -0.3882 -0.5798
 3627SOL    MW414282   0.804   6.198   4.630  0.7174 -0.1758 -0.1267
 3628SOL     OW14283   3.914   5.484   4.174 -0.1472  0.0280 -0.4178
 3628SOL    HW214284   3.890   5.415   4.113 -2.0817  0.9593 -0.7984
 3628SOL    HW314285   3.889   5.565   4.129 -1.1338  0.7729  1.3570
 3628SOL    MW414286   3.907   5.486   4.160 -0.5326  0.2492 -0.2339
 3629SOL     OW14287   6.173   3.274   4.975  0.0103  0.1028  0.3072
 3629SOL    HW214288   6.185   3.185   5.008 -0.9668 -0.5225 -0.9247
 3629SOL    HW314289   6.079   3.283   4.964 -0.0661  1.8948  1.9069
 3629SOL    MW414290   6.162   3.264   4.978 -0.1287  0.2567  0.3558
 3630SOL     OW14291   5.613   1.048   4.043 -0.2589 -0.9288  0.3167
 3630SOL    HW214292   5.556   1.084   4.112 -0.3334 -0.7756  0.1746
 3630SOL    HW314293   5.557   1.043   3.966 -0.8364 -3.1914  0.8030
 3630SOL    MW414294   5.598   1.052   4.042 -0.3450 -1.2071  0.3621
 3631SOL     OW14295   5.274   0.534   2.921  0.3193 -0.0179 -0.0776
 3631SOL    HW214296   5.302   0.622   2.895  0.6919  0.0620  0.5779
 3631SOL    HW314297   5.243   0.494   2.840 -2.7795  1.7721  0.0515
 3631SOL    MW414298   5.273   0.540   2.907 -0.0404  0.2288  0.0259
 3632SOL     OW14299   4.217   6.194   1.283 -0.1470 -0.6762  0.5153
 3632SOL    HW214300   4.281   6.265   1.284  0.5996 -1.3489  0.7157
 3632SOL    HW314301   4.217   6.163   1.192 -3.7587  2.4707 -0.8497
 3632SOL    MW414302   4.225   6.199   1.271 -0.5250 -0.3498  0.3616
 3633SOL     OW14303   0.382   3.097   4.611 -0.1110  0.6049 -0.0827
 3633SOL    HW214304   0.477   3.080   4.611 -0.1382  0.2121 -1.7121
 3633SOL    HW314305   0.375   3.192   4.603  0.1556  0.6216 -0.1407
 3633SOL    MW414306   0.394   3.108   4.610 -0.0794  0.5553 -0.3054
 3634SOL     OW14307   5.071   6.297   1.331  0.2071  0.2286 -0.5311
 3634SOL    HW214308   5.023   6.294   1.248 -2.0372 -0.4678  0.7088
 3634SOL    HW314309   5.149   6.244   1.316  0.1057  0.5126 -2.3124
 3634SOL    MW414310   5.075   6.290   1.318 -0.1024  0.1742 -0.6025
 3635SOL     OW14311   1.511   2.062   5.607 -0.9370 -0.1801  0.1579
 3635SOL    HW214312   1.556   2.116   5.671 -0.3450  0.0471 -0.4381
 3635SOL    HW314313   1.551   1.975   5.616 -1.1760 -0.2647  0.4112
 3635SOL    MW414314   1.522   2.057   5.616 -0.8904 -0.1613  0.1127
 3636SOL     OW14315   1.769   4.954   3.541 -0.6221  0.2056  0.3440
 3636SOL    HW214316   1.819   5.035   3.529 -1.0079  0.5542  1.0345
 3636SOL    HW314317   1.822   4.901   3.601 -1.4145  0.8968  1.6985
 3636SOL    MW414318   1.783   4.958   3.547 -0.7776  0.3428  0.6138
 3637SOL     OW14319   1.123   3.599   1.306  0.0115 -0.2449 -0.3255
 3637SOL    HW214320   1.052   3.605   1.369 -1.1718 -2.5970 -1.2739
 3637SOL    HW314321   1.086   3.634   1.225  0.7656  0.6889 -0.2835
 3637SOL    MW414322   1.109   3.604   1.303 -0.0451 -0.4320 -0.4451
 3638SOL     OW14323   1.910   2.676   2.614  0.1434  0.2085 -0.3710
 3638SOL    HW214324   1.832   2.720   2.579 -0.6333 -0.0071  1.0104
 3638SOL    HW314325   1.886   2.584   2.619  0.4517  0.1481  0.1282
 3638SOL    MW414326   1.896   2.670   2.610  0.0816  0.1721 -0.1229
 3639SOL     OW14327   4.029   3.593   1.427  0.6108 -0.0822  0.4176
 3639SOL    HW214328   4.097   3.596   1.495  2.2067  1.2437 -1.1265
 3639SOL    HW314329   4.061   3.652   1.359 -1.3118 -0.7315 -1.1402
 3639SOL    MW414330   4.043   3.601   1.427  0.5677  0.0071  0.0083
 3640SOL     OW14331   5.534   2.229   2.577 -0.2603 -0.0133 -0.2904
 3640SOL    HW214332   5.476   2.157   2.552  0.3489 -0.5981 -0.0219
 3640SOL    HW314333   5.616   2.187   2.603 -0.1225  0.7269  0.5274
 3640SOL    MW414334   5.537   2.214   2.577 -0.1618  0.0072 -0.1470
 3641SOL     OW14335   3.987   2.892   1.104  0.2377  0.0193  0.2910
 3641SOL    HW214336   3.947   2.972   1.069 -1.1656 -0.5204  0.5725
 3641SOL    HW314337   3.914   2.831   1.111  0.9079 -0.6303  2.0011
 3641SOL    MW414338   3.972   2.895   1.100  0.1409 -0.1376  0.5538
 3642SOL     OW14339   3.647   3.417   3.406 -0.2779 -0.1815 -0.1594
 3642SOL    HW214340   3.739   3.398   3.422  0.1066  1.3422 -0.4145
 3642SOL    HW314341   3.648   3.492   3.346 -1.6770  0.0368  0.0518
 3642SOL    MW414342   3.659   3.425   3.400 -0.4118  0.0483 -0.1652
 3643SOL     OW14343   3.749   4.943   1.411 -0.1134 -0.0144 -0.8667
 3643SOL    HW214344   3.837   4.907   1.398  0.3566  0.4964  0.6747
 3643SOL    HW314345   3.756   5.035   1.383 -0.1747  0.0054 -0.8196
 3643SOL    MW414346   3.761   4.951   1.406 -0.0595  0.0556 -0.6571
 3644SOL     OW14347   4.682   2.892   6.063  0.2567 -0.5845 -0.3342
 3644SOL    HW214348   4.750   2.825   6.048 -0.3784 -1.1442 -0.7732
 3644SOL    HW314349   4.606   2.860   6.014 -0.8408 -0.7707  1.4203
 3644SOL    MW414350   4.681   2.879   6.055  0.0281 -0.6829 -0.1606
 3645SOL     OW14351   3.475   4.075   5.650 -0.0181 -0.3404  0.2406
 3645SOL    HW214352   3.524   4.000   5.615  1.3235 -0.8017  2.8368
 3645SOL    HW314353   3.543   4.134   5.683 -1.0876  1.6857 -0.9876
 3645SOL    MW414354   3.491   4.073   5.650  0.0178 -0.1340  0.4211
 3646SOL     OW14355   1.717   3.889   4.229 -0.5179  0.2274 -0.0069
 3646SOL    HW214356   1.692   3.920   4.315 -2.4432 -2.2886  0.4589
 3646SOL    HW314357   1.638   3.902   4.175 -0.6788 -1.7655 -0.3085
 3646SOL    MW414358   1.703   3.895   4.233 -0.7932 -0.3675  0.0148
 3647SOL     OW14359   4.374   5.104   6.016 -0.0762  0.1352 -0.0627
 3647SOL    HW214360   4.429   5.032   6.045  0.3093 -0.8170 -2.8403
 3647SOL    HW314361   4.427   5.183   6.031  0.7023 -0.4541  0.3256
 3647SOL    MW414362   4.388   5.105   6.022  0.0774 -0.0682 -0.3779
 3648SOL     OW14363   4.431   4.295   2.103 -0.2927  0.3082  0.6669
 3648SOL    HW214364   4.456   4.304   2.011  1.5925  0.3802  1.1424
 3648SOL    HW314365   4.358   4.356   2.115  0.9402  2.0287 -0.2387
 3648SOL    MW414366   4.425   4.304   2.093  0.1187  0.5447  0.6102
 3649SOL     OW14367   1.770   1.209   2.987 -0.2373  0.3044 -0.3143
 3649SOL    HW214368   1.711   1.168   2.924 -1.1756 -0.4364  0.9873
 3649SOL    HW314369   1.751   1.302   2.980 -0.8005  0.1710 -0.6585
 3649SOL    MW414370   1.760   1.216   2.978 -0.4354  0.1891 -0.1879
 3650SOL     OW14371   2.811   6.367   5.847  0.0795 -0.6377 -0.3286
 3650SOL    HW214372   2.784   6.298   5.786  0.8798 -0.4690 -0.9063
 3650SOL    HW314373   2.864   6.426   5.793 -2.2311  1.5871 -0.3921
 3650SOL    MW414374   2.814   6.366   5.832 -0.1198 -0.3219 -0.4132
 3651SOL     OW14375   5.486   2.337   3.373  0.0953 -0.4807 -0.8471
 3651SOL    HW214376   5.565   2.283   3.373  0.7275  0.4315 -0.3217
 3651SOL    HW314377   5.443   2.316   3.290  2.0349  0.6721 -2.2107
 3651SOL    MW414378   5.490   2.327   3.362  0.4346 -0.2082 -0.9577
 3652SOL     OW14379   0.918   3.124   1.649  0.2961 -0.1800  0.3483
 3652SOL    HW214380   0.995   3.088   1.691  1.3761 -0.0546 -1.4020
 3652SOL    HW314381   0.950   3.158   1.565 -1.2792  1.7409  0.4319
 3652SOL    MW414382   0.932   3.124   1.643  0.2307  0.0899  0.1284
 3653SOL     OW14383   2.962   3.256   1.413 -0.0052 -0.1808 -0.2629
 3653SOL    HW214384   3.001   3.343   1.404  0.2426 -0.3759 -1.2190
 3653SOL    HW314385   3.020   3.210   1.474  0.8453 -0.2196 -1.0771
 3653SOL    MW414386   2.975   3.262   1.420  0.1397 -0.2117 -0.4965
 3654SOL     OW14387   5.081   0.425   2.039  0.0906 -0.1447 -0.1163
 3654SOL    HW214388   5.148   0.383   2.092 -1.5720 -0.2186  2.0547
 3654SOL    HW314389   5.046   0.494   2.095 -2.0065 -0.4568 -0.9687
 3654SOL    MW414390   5.085   0.429   2.054 -0.4054 -0.1957  0.0577
 3655SOL     OW14391   2.277   3.290   0.623  0.1574 -0.1320 -0.3212
 3655SOL    HW214392   2.362   3.318   0.588  0.4111 -1.2529 -0.6412
 3655SOL    HW314393   2.280   3.315   0.715  0.9001 -0.3123 -0.2905
 3655SOL    MW414394   2.288   3.297   0.631  0.2889 -0.3037 -0.3593
 3656SOL     OW14395   0.405   1.391   4.799  0.4839 -0.3212  0.2097
 3656SOL    HW214396   0.431   1.303   4.825  1.4592  0.0163  0.4228
 3656SOL    HW314397   0.478   1.447   4.827  0.0617  0.4969 -0.2797
 3656SOL    MW414398   0.418   1.387   4.806  0.5569 -0.1687  0.1733
 3657SOL     OW14399   4.739   3.390   3.599  0.1071  0.2113  0.0489
 3657SOL    HW214400   4.690   3.347   3.529 -0.6582 -1.8519  1.7351
 3657SOL    HW314401   4.782   3.319   3.646 -0.5584  1.3029  2.5229
 3657SOL    MW414402   4.738   3.375   3.596 -0.0817  0.0831  0.5978
 3658SOL     OW14403   5.397   5.409   1.105 -0.1656 -0.4373 -0.4922
 3658SOL    HW214404   5.491   5.401   1.121  0.4860  2.2047 -2.3532
 3658SOL    HW314405   5.386   5.385   1.013 -0.9898  1.1313 -0.8286
 3658SOL    MW414406   5.408   5.405   1.095 -0.1884  0.1183 -0.7821
 3659SOL     OW14407   3.436   5.494   6.010 -0.2293  0.1323 -0.3076
 3659SOL    HW214408   3.433   5.527   6.099  2.0314  1.0217 -0.5101
 3659SOL    HW314409   3.345   5.498   5.980 -1.0370 -0.2034  1.9171
 3659SOL    MW414410   3.423   5.499   6.017 -0.0376  0.2053 -0.0408
 3660SOL     OW14411   6.042   0.109   2.524 -0.0437 -0.4273  0.0076
 3660SOL    HW214412   6.116   0.169   2.517  0.1261 -0.5815  0.4133
 3660SOL    HW314413   6.081   0.025   2.549 -0.4346 -0.2874  1.1509
 3660SOL    MW414414   6.057   0.106   2.527 -0.0729 -0.4292  0.2120
 3661SOL     OW14415   0.831   2.595   1.027 -0.3461  0.0557  0.4302
 3661SOL    HW214416   0.794   2.593   0.939  1.6279  2.3059 -0.5876
 3661SOL    HW314417   0.925   2.585   1.014 -0.1273 -1.1806  2.4778
 3661SOL    MW414418   0.838   2.594   1.014 -0.0568  0.1895  0.5661
 3662SOL     OW14419   2.582   2.746   4.156  0.1170  0.3727 -0.1969
 3662SOL    HW214420   2.592   2.651   4.165  1.0409  0.4026 -0.7283
 3662SOL    HW314421   2.555   2.776   4.242 -1.1473 -0.4847 -0.2745
 3662SOL    MW414422   2.580   2.738   4.168  0.0721  0.2635 -0.2772
 3663SOL     OW14423   0.519   2.742   3.695 -0.2906  0.2455  0.8169
 3663SOL    HW214424   0.575   2.820   3.694 -0.1620  0.1543 -0.3644
 3663SOL    HW314425   0.539   2.697   3.613 -0.5682 -0.8958  1.3567
 3663SOL    MW414426   0.529   2.747   3.684 -0.3102  0.0829  0.7322
 3664SOL     OW14427   2.767   0.800   5.034  0.2785 -0.1757  0.3144
 3664SOL    HW214428   2.784   0.871   4.972 -3.1113  0.1433 -0.4364
 3664SOL    HW314429   2.781   0.720   4.983  1.1732  0.0014  0.2723
 3664SOL    MW414430   2.771   0.799   5.019 -0.0507 -0.1102  0.2098
 3665SOL     OW14431   5.103   2.081   3.195 -0.4985  0.0314  0.9307
 3665SOL    HW214432   5.042   2.083   3.122  0.5779  0.4186  0.0100
 3665SOL    HW314433   5.149   1.997   3.186  0.8372  0.8027  0.0993
 3665SOL    MW414434   5.101   2.070   3.184 -0.1803  0.1842  0.6995
 3666SOL     OW14435   0.540   4.704   1.353  0.1300  0.1084 -0.5653
 3666SOL    HW214436   0.556   4.724   1.445  1.3135 -0.3643 -0.6506
 3666SOL    HW314437   0.621   4.664   1.322 -1.2003 -2.4527 -1.0518
 3666SOL    MW414438   0.553   4.701   1.361  0.1106 -0.2919 -0.6408
 3667SOL     OW14439   3.761   2.681   3.631 -0.0071 -0.2085 -0.5024
 3667SOL    HW214440   3.754   2.653   3.722 -0.9287 -0.9371 -0.7791
 3667SOL    HW314441   3.686   2.739   3.618  0.9638  1.1169 -0.3990
 3667SOL    MW414442   3.750   2.685   3.641 -0.0006 -0.1298 -0.5252
 3668SOL     OW14443   4.141   4.018   6.232  0.3680 -0.4699  0.1587
 3668SOL    HW214444   4.115   4.061   6.314  0.4766  2.8020 -1.3543
 3668SOL    HW314445   4.090   3.937   6.231 -0.8772  0.1566  2.6906
 3668SOL    MW414446   4.131   4.013   6.243  0.2180  0.0445  0.2931
 3669SOL     OW14447   5.539   1.698   2.245  0.3850 -0.2494  0.2627
 3669SOL    HW214448   5.538   1.766   2.177  0.5883  0.5647  1.0466
 3669SOL    HW314449   5.454   1.705   2.287  0.5420 -0.2320  0.5828
 3669SOL    MW414450   5.528   1.708   2.242  0.4325 -0.1397  0.4084
 3670SOL     OW14451   4.153   2.699   5.937  0.4379  0.2705 -0.5386
 3670SOL    HW214452   4.114   2.779   5.903  1.2598  0.5435 -0.8636
 3670SOL    HW314453   4.094   2.671   6.007  1.0508  2.1092  0.7740
 3670SOL    MW414454   4.140   2.706   5.941  0.6272  0.5491 -0.4083
 3671SOL     OW14455   3.534   2.501   0.952 -0.0967 -0.0461  0.0692
 3671SOL    HW214456   3.510   2.559   0.880 -0.5410  1.4223  1.3672
 3671SOL    HW314457   3.629   2.494   0.947 -0.0092  1.0185  0.0411
 3671SOL    MW414458   3.543   2.507   0.942 -0.1438  0.2881  0.2368
 3672SOL     OW14459   0.300   4.022   1.862  0.2939  0.1440  0.5399
 3672SOL    HW214460   0.361   3.974   1.918  1.6671  1.5675  0.3430
 3672SOL    HW314461   0.285   3.964   1.787  3.2379  0.6002 -0.5225
 3672SOL    MW414462   0.306   4.008   1.860  0.8635  0.3920  0.3737
 3673SOL     OW14463   1.183   2.312   0.587 -0.7108 -0.0315  0.1190
 3673SOL    HW214464   1.092   2.318   0.559 -1.5478 -0.1648  2.5340
 3673SOL    HW314465   1.234   2.315   0.506 -2.7962  1.0170 -1.2434
 3673SOL    MW414466   1.178   2.314   0.573 -1.0964  0.0892  0.2579
 3674SOL     OW14467   1.776   0.963   3.788  0.2011  0.1724  0.3770
 3674SOL    HW214468   1.712   0.894   3.805 -1.5902  1.4877 -0.7381
 3674SOL    HW314469   1.826   0.931   3.713  1.7174 -1.3555  1.9242
 3674SOL    MW414470   1.774   0.949   3.781  0.1648  0.1444  0.4340
 3675SOL     OW14471   4.244   2.767   6.217  0.0610 -0.3729 -0.4301
 3675SOL    HW214472   4.150   2.746   6.224  0.4448 -1.9599  0.4373
 3675SOL    HW314473   4.265   2.752   6.125 -0.4066 -0.6064 -0.5062
 3675SOL    MW414474   4.234   2.763   6.206  0.0499 -0.6131 -0.3257
 3676SOL     OW14475   4.544   1.590   3.279  0.3160  0.5210 -0.0307
 3676SOL    HW214476   4.560   1.498   3.300 -0.5497 -0.0178 -1.5585
 3676SOL    HW314477   4.542   1.634   3.364  1.1057 -0.8060  0.7083
 3676SOL    MW414478   4.546   1.583   3.293  0.3060  0.2748 -0.1348
 3677SOL     OW14479   3.543   2.903   4.518 -0.1518  0.4486  0.1756
 3677SOL    HW214480   3.470   2.859   4.563 -0.8041 -1.0178 -2.1631
 3677SOL    HW314481   3.618   2.845   4.534 -0.3963 -0.1032 -0.6074
 3677SOL    MW414482   3.544   2.889   4.526 -0.2702  0.1823 -0.2363
 3678SOL     OW14483   5.705   4.580   0.063  0.7151 -0.3872 -0.3640
 3678SOL    HW214484   5.716   4.660   0.012  1.1764  0.0656  0.4201
 3678SOL    HW314485   5.790   4.537   0.060  0.8559 -0.1677  0.3213
 3678SOL    MW414486   5.718   4.585   0.056  0.7945 -0.2985 -0.1702
 3679SOL     OW14487   0.745   6.087   2.129  0.0886  0.0840  0.0810
 3679SOL    HW214488   0.752   5.997   2.099  0.4071 -0.3432  1.3777
 3679SOL    HW314489   0.671   6.087   2.189 -0.7151  0.9805 -0.8707
 3679SOL    MW414490   0.736   6.076   2.133  0.0246  0.1459  0.1265
 3680SOL     OW14491   5.856   6.092   3.378 -0.0694  0.0320 -0.1162
 3680SOL    HW214492   5.930   6.033   3.383  0.7718  1.1381  1.8963
 3680SOL    HW314493   5.809   6.078   3.461 -2.9033 -1.5645 -1.8514
 3680SOL    MW414494   5.859   6.082   3.390 -0.3323 -0.0327 -0.0796
 3681SOL     OW14495   3.430   5.075   5.896  0.3575  0.0183  0.1860
 3681SOL    HW214496   3.462   4.985   5.896  0.3391  0.0090 -0.4414
 3681SOL    HW314497   3.469   5.114   5.975  0.7965 -0.3826  0.1747
 3681SOL    MW414498   3.440   5.069   5.906  0.4130 -0.0358  0.1017
 3682SOL     OW14499   4.065   2.376   1.929 -0.1869 -0.6808  0.1260
 3682SOL    HW214500   4.100   2.326   2.002 -0.9683 -0.2087  0.8434
 3682SOL    HW314501   4.138   2.383   1.868  0.4942 -1.0513  0.8744
 3682SOL    MW414502   4.079   2.370   1.931 -0.2001 -0.6674  0.3194
 3683SOL     OW14503   5.443   5.511   3.141 -0.6451 -0.4314 -0.1531
 3683SOL    HW214504   5.379   5.506   3.212  2.9020 -1.3474  3.2792
 3683SOL    HW314505   5.453   5.604   3.124 -2.1246 -0.2380 -0.0586
 3683SOL    MW414506   5.436   5.522   3.148 -0.3723 -0.5267  0.3122
 3684SOL     OW14507   2.766   1.527   3.266  0.5460  0.3224 -0.7751
 3684SOL    HW214508   2.703   1.467   3.226  0.8215 -0.3042 -0.2974
 3684SOL    HW314509   2.780   1.595   3.201  0.4308 -0.2824 -1.4436
 3684SOL    MW414510   2.760   1.528   3.252  0.5671  0.1599 -0.8003
 3685SOL     OW14511   3.693   0.227   3.172 -0.0413  0.3090 -0.7832
 3685SOL    HW214512   3.717   0.273   3.092 -0.0353  2.2225  0.2501
 3685SOL    HW314513   3.751   0.151   3.175  1.0126  1.0393 -1.8314
 3685SOL    MW414514   3.704   0.223   3.162  0.0985  0.6578 -0.7852
 3686SOL     OW14515   0.711   3.439   5.882 -0.1199 -0.3493 -0.2397
 3686SOL    HW214516   0.693   3.488   5.802 -3.0596 -0.1242  0.4500
 3686SOL    HW314517   0.717   3.505   5.951 -2.7024 -0.7193  0.4632
 3686SOL    MW414518   0.709   3.454   5.881 -0.8485 -0.3684 -0.0559
 3687SOL     OW14519   4.089   0.227   1.585  0.1554  0.1700 -0.0652
 3687SOL    HW214520   4.087   0.188   1.672 -0.4340 -2.1549 -1.0556
 3687SOL    HW314521   4.000   0.218   1.552  0.8987 -1.3609 -1.8449
 3687SOL    MW414522   4.077   0.221   1.592  0.1757 -0.3387 -0.4307
 3688SOL     OW14523   6.143   2.189   1.278 -0.4233 -0.2455 -0.0382
 3688SOL    HW214524   6.114   2.135   1.204 -0.2955 -0.4886  0.0887
 3688SOL    HW314525   6.237   2.202   1.263 -0.5204  0.2452 -0.2598
 3688SOL    MW414526   6.152   2.184   1.266 -0.4193 -0.2128 -0.0507
 3689SOL     OW14527   5.274   4.508   3.284 -0.0638  0.6977  0.0796
 3689SOL    HW214528   5.185   4.520   3.316 -0.0494  1.3427 -0.1071
 3689SOL    HW314529   5.264   4.476   3.194 -0.1137  1.1527 -0.0805
 3689SOL    MW414530   5.261   4.506   3.276 -0.0685  0.8429  0.0338
 3690SOL     OW14531   4.459   3.821   2.877  0.3482  0.1177  0.2325
 3690SOL    HW214532   4.554   3.824   2.888  0.2694 -0.1270  1.0313
 3690SOL    HW314533   4.441   3.885   2.808  1.2468 -1.0094 -1.1163
 3690SOL    MW414534   4.469   3.830   2.869  0.4563 -0.0633  0.1599
 3691SOL     OW14535   4.460   4.417   4.410  0.0746  0.0798 -0.3653
 3691SOL    HW214536   4.515   4.472   4.354 -0.6155 -0.1206 -1.2797
 3691SOL    HW314537   4.377   4.464   4.416 -0.8048 -1.1622 -1.8090
 3691SOL    MW414538   4.456   4.430   4.403 -0.1325 -0.1105 -0.6764
 3692SOL     OW14539   1.982   5.186   0.598 -0.1263 -0.4276  0.4470
 3692SOL    HW214540   2.038   5.239   0.655  1.1005  1.0951 -1.9684
 3692SOL    HW314541   2.043   5.126   0.554 -0.1943  1.3207 -2.2948
 3692SOL    MW414542   1.998   5.185   0.600  0.0266  0.0040 -0.2334
 3693SOL     OW14543   3.856   4.584   5.430  0.3340 -0.1397 -0.2710
 3693SOL    HW214544   3.845   4.533   5.350 -1.9965  1.3606 -1.0037
 3693SOL    HW314545   3.907   4.660   5.403  0.4538 -0.1464 -0.0668
 3693SOL    MW414546   3.862   4.587   5.416  0.0423  0.0574 -0.3407
 3694SOL     OW14547   6.137   1.508   5.175 -0.3805  0.2140 -0.0060
 3694SOL    HW214548   6.116   1.575   5.239 -2.1282 -1.0994  0.8547
 3694SOL    HW314549   6.211   1.545   5.126 -1.4096  2.8518  0.2528
 3694SOL    MW414550   6.144   1.522   5.177 -0.7468  0.3887  0.1417
 3695SOL     OW14551   0.948   3.447   4.873 -0.3607 -0.0847  0.6006
 3695SOL    HW214552   0.858   3.433   4.846 -0.4308  0.5445  0.4883
 3695SOL    HW314553   0.999   3.436   4.792 -0.3563 -0.2789  0.6310
 3695SOL    MW414554   0.943   3.444   4.859 -0.3693 -0.0273  0.5898
 3696SOL     OW14555   5.287   4.358   5.166 -0.6228 -0.0566  0.0575
 3696SOL    HW214556   5.337   4.438   5.179  0.3781 -0.8487  1.3938
 3696SOL    HW314557   5.200   4.388   5.142 -0.7636  1.5328  2.1797
 3696SOL    MW414558   5.282   4.373   5.165 -0.5093  0.0486  0.5138
 3697SOL     OW14559   1.980   3.757   1.071 -0.2083  0.1076  0.7054
 3697SOL    HW214560   1.997   3.827   1.134  0.3549  0.9766 -0.3738
 3697SOL    HW314561   2.036   3.778   0.996  0.2361 -1.6967  0.4822
 3697SOL    MW414562   1.989   3.769   1.070 -0.0754 -0.0158  0.5335
 3698SOL     OW14563   3.147   0.185   0.108 -0.3671 -0.3166  0.5157
 3698SOL    HW214564   3.112   0.222   0.028 -2.0667  1.8532  2.1234
 3698SOL    HW314565   3.231   0.229   0.121  0.9567 -2.2235 -1.0528
 3698SOL    MW414566   3.153   0.196   0.099 -0.4167 -0.2819  0.5208
 3699SOL     OW14567   1.024   2.164   5.822 -0.6356 -0.6233  0.4420
 3699SOL    HW214568   1.119   2.165   5.838  0.3144  0.2380 -4.0134
 3699SOL    HW314569   0.995   2.253   5.842  0.3856  0.2790 -1.7558
 3699SOL    MW414570   1.033   2.176   5.827 -0.3755 -0.3906 -0.4358
 3700SOL     OW14571   2.760   2.086   6.284 -1.0593 -0.8106  0.3039
 3700SOL    HW214572   2.798   2.004   6.317 -2.5572 -0.9429  1.8473
 3700SOL    HW314573   2.701   2.059   6.214 -0.1911 -0.8408 -0.4359
 3700SOL    MW414574   2.757   2.071   6.279 -1.1424 -0.8320  0.4100
 3701SOL     OW14575   1.393   4.628   5.839  0.6659  0.5274  0.1814
 3701SOL    HW214576   1.373   4.681   5.761  0.7546 -0.8341 -0.8071
 3701SOL    HW314577   1.307   4.606   5.875  0.4905 -0.8514 -0.9728
 3701SOL    MW414578   1.379   4.632   5.833  0.6544  0.1659 -0.1013
 3702SOL     OW14579   3.752   1.241   6.436 -0.0702 -0.4563  0.1397
 3702SOL    HW214580   3.725   1.309   6.497 -1.2554 -0.7919  0.0031
 3702SOL    HW314581   3.828   1.200   6.478  1.2557  1.5094 -0.1889
 3702SOL    MW414582   3.759   1.244   6.449 -0.0516 -0.2412  0.0783
 3703SOL     OW14583   5.542   2.571   1.548  0.6281 -0.5403  0.0603
 3703SOL    HW214584   5.548   2.580   1.643  1.1140  2.0921 -0.1283
 3703SOL    HW314585   5.448   2.571   1.530  0.4198  3.0981  0.3903
 3703SOL    MW414586   5.530   2.572   1.558  0.6647  0.2870  0.0790
 3704SOL     OW14587   1.984   5.831   1.596  0.2874  0.2920 -0.0902
 3704SOL    HW214588   1.890   5.841   1.576  0.7157  0.0172 -2.5500
 3704SOL    HW314589   2.021   5.917   1.576  0.8443 -0.1758 -1.1567
 3704SOL    MW414590   1.976   5.844   1.591  0.4174  0.1940 -0.5555
 3705SOL     OW14591   2.582   2.657   2.410  0.5323  0.3797  0.0445
 3705SOL    HW214592   2.623   2.585   2.363  1.7021  1.8227 -1.2720
 3705SOL    HW314593   2.529   2.702   2.344  1.5513  1.9665  0.2317
 3705SOL    MW414594   2.580   2.654   2.395  0.8211  0.7794 -0.1045
 3706SOL     OW14595   2.626   4.451   0.060  0.0051 -0.0192 -0.0925
 3706SOL    HW214596   2.697   4.443   0.124 -0.1643 -1.2877 -0.0270
 3706SOL    HW314597   2.652   4.524   0.004 -0.2305  1.6658  1.8897
 3706SOL    MW414598   2.639   4.459   0.061 -0.0483  0.0357  0.1777
 3707SOL     OW14599   4.123   0.558   4.723 -0.2241  0.0166 -0.2018
 3707SOL    HW214600   4.045   0.603   4.689  0.8254  1.7351 -0.4596
 3707SOL    HW314601   4.106   0.551   4.817 -1.0231 -0.3349 -0.3594
 3707SOL    MW414602   4.110   0.563   4.731 -0.1910  0.1970 -0.2566
 3708SOL     OW14603   2.084   4.799   0.393 -0.1961  0.4197 -0.0909
 3708SOL    HW214604   2.125   4.882   0.417  2.0748 -0.3210 -1.0681
 3708SOL    HW314605   2.014   4.824   0.332 -0.8445  1.7111  1.1350
 3708SOL    MW414606   2.081   4.813   0.388  0.0179  0.4924 -0.0581
 3709SOL     OW14607   3.214   2.487   5.589  0.2568 -0.3847 -0.1282
 3709SOL    HW214608   3.229   2.582   5.584  1.2671 -0.5315  0.0719
 3709SOL    HW314609   3.261   2.459   5.667 -0.4653 -0.9795  0.1044
 3709SOL    MW414610   3.222   2.496   5.598  0.2948 -0.4825 -0.0711
 3710SOL     OW14611   2.264   3.140   2.420  0.6323 -0.0677  0.3202
 3710SOL    HW214612   2.222   3.135   2.334 -0.5104  0.0848  0.8493
 3710SOL    HW314613   2.270   3.234   2.438 -5.1677  0.2050  3.1371
 3710SOL    MW414614   2.260   3.152   2.411 -0.2837 -0.0116  0.7617
 3711SOL     OW14615   2.725   0.072   0.795 -0.3834  0.0328 -0.1085
 3711SOL    HW214616   2.760  -0.017   0.797 -0.3643  0.0307 -0.4849
 3711SOL    HW314617   2.630   0.060   0.793 -0.3829  0.0227 -0.0730
 3711SOL    MW414618   2.717   0.059   0.795 -0.3808  0.0312 -0.1535
 3712SOL     OW14619   5.004   2.965   4.490 -0.5740  0.1245  0.0717
 3712SOL    HW214620   4.938   2.925   4.433 -0.5056  0.7158 -0.4372
 3712SOL    HW314621   5.040   3.037   4.438  0.4595 -0.1759  0.3557
 3712SOL    MW414622   5.000   2.969   4.475 -0.4286  0.1629  0.0420
 3713SOL     OW14623   5.049   1.704   2.998  0.2044  0.4846 -0.0938
 3713SOL    HW214624   5.041   1.796   3.020 -1.4729  0.1925  0.6489
 3713SOL    HW314625   4.959   1.671   2.996  0.5361 -0.5415 -3.0222
 3713SOL    MW414626   5.036   1.712   3.001  0.0269  0.3107 -0.3822
 3714SOL     OW14627   3.442   1.744   5.312 -0.0115  0.0371  0.2030
 3714SOL    HW214628   3.452   1.779   5.400  0.5924  1.5934 -0.4489
 3714SOL    HW314629   3.365   1.790   5.276 -1.0484 -1.5146  0.3206
 3714SOL    MW414630   3.433   1.754   5.319 -0.0686  0.0377  0.1325
 3715SOL     OW14631   0.165   5.435   2.524 -0.5894  0.4153  0.2708
 3715SOL    HW214632   0.124   5.352   2.501 -0.8725  0.3510  0.9831
 3715SOL    HW314633   0.258   5.413   2.535 -1.1160 -0.6712  4.1016
 3715SOL    MW414634   0.172   5.421   2.522 -0.6963  0.2635  0.8702
 3716SOL     OW14635   6.363   1.640   1.590  0.4828 -0.0044 -0.3315
 3716SOL    HW214636   6.303   1.624   1.664 -1.5269  0.2161 -1.8172
 3716SOL    HW314637   6.354   1.562   1.535  1.6748 -0.0061 -0.5448
 3716SOL    MW414638   6.354   1.627   1.593  0.3749  0.0245 -0.5556
 3717SOL     OW14639   2.598   5.254   0.737  0.1332  0.0549  0.0179
 3717SOL    HW214640   2.622   5.185   0.800  0.0792  0.6875  0.7464
 3717SOL    HW314641   2.607   5.212   0.651  2.0736 -0.2832  0.3343
 3717SOL    MW414642   2.602   5.239   0.734  0.3821  0.0937  0.1557
 3718SOL     OW14643   4.382   2.159   3.583  0.3849  0.1980  0.3991
 3718SOL    HW214644   4.357   2.078   3.627  0.6817 -0.2853 -0.3020
 3718SOL    HW314645   4.312   2.174   3.519  0.8559 -0.0832 -0.1952
 3718SOL    MW414646   4.369   2.151   3.580  0.4862  0.0971  0.2282
 3719SOL     OW14647   0.170   0.806   0.839  0.3685 -0.0549 -0.4138
 3719SOL    HW214648   0.263   0.792   0.819  0.5361 -0.2523  0.4781
 3719SOL    HW314649   0.138   0.860   0.766  1.2046  0.0996 -0.6800
 3719SOL    MW414650   0.178   0.812   0.827  0.5009 -0.0605 -0.3312
 3720SOL     OW14651   5.991   2.240   5.621  0.2546 -0.3030  0.3829
 3720SOL    HW214652   5.920   2.278   5.672 -0.0292 -1.3009  0.7597
 3720SOL    HW314653   6.037   2.315   5.584 -0.7802  0.3694  0.4222
 3720SOL    MW414654   5.988   2.255   5.623  0.0806 -0.3460  0.4378
 3721SOL     OW14655   6.289   5.623   3.069  0.5070  0.2515  0.9377
 3721SOL    HW214656   6.206   5.577   3.082  1.3396 -1.1165  1.7874
 3721SOL    HW314657   6.312   5.657   3.155  0.0452  2.0946  0.3728
 3721SOL    MW414658   6.281   5.621   3.082  0.5559  0.3142  0.9753
 3722SOL     OW14659   1.201   4.237   5.528 -0.6257 -0.0031 -0.3681
 3722SOL    HW214660   1.209   4.150   5.488  1.2890 -0.4112  0.7467
 3722SOL    HW314661   1.146   4.286   5.468 -2.4802 -2.2143 -0.6066
 3722SOL    MW414662   1.195   4.232   5.515 -0.6178 -0.3487 -0.2525
 3723SOL     OW14663   2.745   6.397   2.276  0.4700 -0.0891  0.4815
 3723SOL    HW214664   2.677   6.372   2.338  0.7952 -0.4696  0.6900
 3723SOL    HW314665   2.725   6.349   2.196  0.3110  0.0480  0.4393
 3723SOL    MW414666   2.734   6.388   2.274  0.4919 -0.1212  0.5034
 3724SOL     OW14667   2.609   0.817   3.705 -0.2071 -0.7511 -0.3076
 3724SOL    HW214668   2.554   0.773   3.640 -0.6719 -1.1433  0.3453
 3724SOL    HW314669   2.607   0.760   3.781 -0.5906  0.2592  0.4619
 3724SOL    MW414670   2.602   0.804   3.706 -0.3190 -0.6695 -0.1199
 3725SOL     OW14671   4.022   5.951   0.818  0.3145  0.7017  0.0212
 3725SOL    HW214672   3.997   5.867   0.856  1.5947  0.4359  0.3284
 3725SOL    HW314673   3.962   6.014   0.858 -0.9564 -0.0994 -0.5473
 3725SOL    MW414674   4.011   5.948   0.828  0.3157  0.5610 -0.0133
 3726SOL     OW14675   4.925   0.090   1.075 -0.1858 -0.3961  0.0385
 3726SOL    HW214676   4.925   0.081   0.980 -0.3750 -2.4233  0.1986
 3726SOL    HW314677   5.000   0.147   1.094 -0.9715  1.1954 -1.3829
 3726SOL    MW414678   4.935   0.097   1.065 -0.3144 -0.4536 -0.1279
 3727SOL     OW14679   3.782   3.571   4.444 -0.0988  0.6133  0.4041
 3727SOL    HW214680   3.730   3.491   4.446 -1.5776  1.3217 -3.0630
 3727SOL    HW314681   3.800   3.591   4.536  1.9084 -4.5574  1.4502
 3727SOL    MW414682   3.778   3.563   4.457 -0.0291  0.0245  0.0847
 3728SOL     OW14683   5.001   4.636   5.311 -0.2916 -0.5853 -0.1795
 3728SOL    HW214684   5.007   4.577   5.236  0.1890 -0.9402  0.1384
 3728SOL    HW314685   4.907   4.651   5.321 -0.4890 -1.9629  0.2430
 3728SOL    MW414686   4.989   4.630   5.303 -0.2542 -0.8139 -0.0818
 3729SOL     OW14687   1.925   4.358   1.464 -0.1106 -0.1137 -0.1262
 3729SOL    HW214688   1.971   4.377   1.546  1.6537 -1.3201 -0.7964
 3729SOL    HW314689   1.895   4.268   1.474 -2.2578  0.5734  0.2154
 3729SOL    MW414690   1.927   4.349   1.476 -0.1611 -0.1822 -0.1696
 3730SOL     OW14691   3.102   5.631   2.724 -0.4561 -0.1542 -0.1951
 3730SOL    HW214692   3.045   5.618   2.800 -3.0468 -2.1944 -2.2685
 3730SOL    HW314693   3.155   5.551   2.720 -0.3613 -0.0778 -0.5334
 3730SOL    MW414694   3.102   5.618   2.733 -0.7854 -0.4133 -0.5133
 3731SOL     OW14695   1.125   6.438   4.399 -0.0337 -0.2064  0.1873
 3731SOL    HW214696   1.110   6.343   4.400  0.5636 -0.3199 -0.6723
 3731SOL    HW314697   1.124   6.462   4.307 -1.7315  0.9051  0.4463
 3731SOL    MW414698   1.123   6.429   4.387 -0.1789 -0.0747  0.1080
 3732SOL     OW14699   0.923   0.136   1.674 -0.3078 -0.1937 -0.2055
 3732SOL    HW214700   0.879   0.098   1.598 -1.4907  0.1426  0.2839
 3732SOL    HW314701   0.908   0.230   1.666 -0.1694 -0.1268  0.2765
 3732SOL    MW414702   0.915   0.143   1.663 -0.4456 -0.1405 -0.0774
 3733SOL     OW14703   3.048   3.260   3.726  0.0802  0.1661  0.0806
 3733SOL    HW214704   3.070   3.351   3.707  1.9816 -0.2322  0.1753
 3733SOL    HW314705   3.056   3.215   3.642 -3.2386  0.4058 -0.5316
 3733SOL    MW414706   3.052   3.266   3.712 -0.1068  0.1452  0.0123
 3734SOL     OW14707   2.965   2.692   5.202  0.4309 -0.0909  0.2621
 3734SOL    HW214708   2.992   2.760   5.142 -0.1087  0.6816  0.8697
 3734SOL    HW314709   3.001   2.611   5.166  0.2590  0.3785 -0.9934
 3734SOL    MW414710   2.973   2.690   5.189  0.3371  0.0729  0.1766
 3735SOL     OW14711   1.640   0.693   6.124 -0.4801 -0.7931  0.2169
 3735SOL    HW214712   1.584   0.701   6.047 -1.5786  1.3577  1.1378
 3735SOL    HW314713   1.584   0.651   6.190 -0.2633 -0.6983  0.4652
 3735SOL    MW414714   1.625   0.688   6.123 -0.5964 -0.4968  0.3712
 3736SOL     OW14715   4.725   6.108   1.425 -0.2625 -0.1811  0.1494
 3736SOL    HW214716   4.670   6.100   1.502 -2.0363  1.6125 -0.8368
 3736SOL    HW314717   4.678   6.062   1.356 -0.1521  0.6785 -0.5206
 3736SOL    MW414718   4.712   6.101   1.426 -0.4820  0.1689 -0.0691
 3737SOL     OW14719   3.507   0.847   5.064 -0.1232  0.3297 -0.0380
 3737SOL    HW214720   3.579   0.869   5.006 -0.0260 -0.3931 -0.1948
 3737SOL    HW314721   3.511   0.752   5.073 -0.4828  0.3756  0.6998
 3737SOL    MW414722   3.517   0.838   5.057 -0.1578  0.2404  0.0387
 3738SOL     OW14723   1.544   2.701   4.367  0.5774  0.0773  0.1512
 3738SOL    HW214724   1.547   2.628   4.305  0.8350  1.1504 -1.1582
 3738SOL    HW314725   1.623   2.692   4.419  0.7472 -0.4232 -0.1820
 3738SOL    MW414726   1.555   2.690   4.366  0.6338  0.1528 -0.0655
 3739SOL     OW14727   1.156   2.865   0.650 -0.1541  0.3840  0.4766
 3739SOL    HW214728   1.148   2.769   0.650 -0.6864  0.4236  0.4866
 3739SOL    HW314729   1.201   2.885   0.568  0.8394  0.0646  0.9224
 3739SOL    MW414730   1.161   2.855   0.640 -0.0933  0.3470  0.5367
 3740SOL     OW14731   0.329   6.325   1.307 -0.0928 -0.2892  0.3588
 3740SOL    HW214732   0.397   6.269   1.269  1.3153  2.0315 -0.7776
 3740SOL    HW314733   0.262   6.330   1.239  1.0210  1.4076 -0.7224
 3740SOL    MW414734   0.329   6.319   1.293  0.2399  0.2409  0.0662
 3741SOL     OW14735   5.967   4.638   2.759 -0.1433 -0.1765 -0.1373
 3741SOL    HW214736   6.018   4.671   2.833 -0.3776  1.3851 -0.6389
 3741SOL    HW314737   6.020   4.658   2.682  0.0188 -1.6308 -0.4366
 3741SOL    MW414738   5.980   4.645   2.758 -0.1529 -0.1624 -0.2429
 3742SOL     OW14739   2.672   6.226   2.055  0.3564  0.0962  0.1343
 3742SOL    HW214740   2.630   6.143   2.078 -1.6669  1.0919  0.3097
 3742SOL    HW314741   2.764   6.205   2.043 -0.3675 -2.5324 -1.6382
 3742SOL    MW414742   2.679   6.212   2.056 -0.0060 -0.1192 -0.0764
 3743SOL     OW14743   4.957   5.344   5.497 -0.2807 -0.2516  0.0883
 3743SOL    HW214744   4.981   5.371   5.586 -2.4259 -2.0194  1.2999
 3743SOL    HW314745   4.980   5.251   5.494 -2.2128 -0.7525 -0.4003
 3743SOL    MW414746   4.963   5.335   5.508 -0.8187 -0.5509  0.1837
 3744SOL     OW14747   1.785   4.348   3.419  0.1889  0.1337  0.0917
 3744SOL    HW214748   1.872   4.389   3.423 -0.3918  1.6528 -1.4625
 3744SOL    HW314749   1.761   4.352   3.326 -0.5340 -2.5275  0.0918
 3744SOL    MW414750   1.793   4.354   3.407  0.0169 -0.0170 -0.1134
 3745SOL     OW14751   3.680   3.087   3.609 -0.6888  0.2214 -0.2552
 3745SOL    HW214752   3.704   3.103   3.518  2.0695 -2.8553 -0.2381
 3745SOL    HW314753   3.693   3.171   3.652  1.2081  0.9768 -2.1090
 3745SOL    MW414754   3.685   3.100   3.602 -0.0746 -0.0849 -0.4975
 3746SOL     OW14755   2.232   1.227   2.464  0.1307  0.7062  0.2392
 3746SOL    HW214756   2.319   1.222   2.425 -0.1127  0.3090 -0.2676
 3746SOL    HW314757   2.246   1.214   2.558  0.4675 -0.8546 -0.0097
 3746SOL    MW414758   2.245   1.225   2.471  0.1430  0.4479  0.1395
 3747SOL     OW14759   2.713   2.410   2.347  0.3160  0.1454  0.1925
 3747SOL    HW214760   2.723   2.360   2.266 -0.0056 -0.4390  0.5072
 3747SOL    HW314761   2.803   2.432   2.373  0.4983 -0.7268  0.3298
 3747SOL    MW414762   2.727   2.407   2.340  0.2976 -0.0468  0.2521
 3748SOL     OW14763   6.411   3.569   6.400  0.3989  0.3562  0.7939
 3748SOL    HW214764   6.332   3.518   6.417  0.2919  0.0900 -0.4144
 3748SOL    HW314765   6.389   3.658   6.427 -0.2525  0.2465  0.6257
 3748SOL    MW414766   6.398   3.574   6.406  0.2988  0.3066  0.6123
 3749SOL     OW14767   4.308   3.561   6.317 -0.3202 -0.2789 -0.5240
 3749SOL    HW214768   4.383   3.520   6.361  0.8211  0.6391 -1.5299
 3749SOL    HW314769   4.339   3.649   6.295 -1.7600  0.1662 -0.8501
 3749SOL    MW414770   4.322   3.567   6.320 -0.3596 -0.0991 -0.6997
 3750SOL     OW14771   1.704   5.755   1.252 -0.2916 -0.4931 -0.2908
 3750SOL    HW214772   1.732   5.827   1.196  1.8366 -1.9044 -1.1795
 3750SOL    HW314773   1.628   5.718   1.207 -1.2129  0.9622  0.0145
 3750SOL    MW414774   1.698   5.760   1.238 -0.1323 -0.4873 -0.3678
 3751SOL     OW14775   3.296   3.169   0.919 -0.0041 -0.1044  0.4509
 3751SOL    HW214776   3.290   3.132   1.007  2.2056 -0.0549  0.6902
 3751SOL    HW314777   3.308   3.094   0.861 -0.0031 -0.0488  0.3786
 3751SOL    MW414778   3.297   3.155   0.923  0.2876 -0.0906  0.4729
 3752SOL     OW14779   6.269   6.075   4.009 -0.0916 -0.6379  0.2309
 3752SOL    HW214780   6.225   6.153   4.043 -2.5793 -1.2041 -1.4122
 3752SOL    HW314781   6.359   6.084   4.039  0.1129  3.5406 -0.8742
 3752SOL    MW414782   6.275   6.087   4.017 -0.3929 -0.1613 -0.1317
 3753SOL     OW14783   2.405   2.351   2.298  0.1255  0.1875  0.3911
 3753SOL    HW214784   2.314   2.338   2.326 -0.0296  0.2711 -0.0554
 3753SOL    HW314785   2.455   2.354   2.379 -0.2413 -0.0927  0.6331
 3753SOL    MW414786   2.400   2.349   2.312  0.0566  0.1616  0.3641
 3754SOL     OW14787   4.491   2.578   3.804 -0.5257 -0.1483 -0.3151
 3754SOL    HW214788   4.405   2.562   3.764  0.1497  0.0734 -1.9239
 3754SOL    HW314789   4.548   2.598   3.730  0.6904  0.7233  0.8304
 3754SOL    MW414790   4.487   2.578   3.789 -0.2761 -0.0040 -0.3762
 3755SOL     OW14791   0.706   4.463   3.648 -0.6123 -0.1384  0.2128
 3755SOL    HW214792   0.673   4.479   3.559  1.3915  1.9969 -0.2390
 3755SOL    HW314793   0.801   4.466   3.639 -0.2808 -2.4647  2.0534
 3755SOL    MW414794   0.714   4.465   3.635 -0.3042 -0.1636  0.3960
 3756SOL     OW14795   0.545   1.540   1.388  0.1657  0.5814 -0.6156
 3756SOL    HW214796   0.628   1.574   1.356  0.1287  1.0760 -0.2160
 3756SOL    HW314797   0.564   1.509   1.477 -0.3882  2.1761  0.1106
 3756SOL    MW414798   0.558   1.541   1.396  0.0877  0.8571 -0.4671
 3757SOL     OW14799   0.023   0.321   5.001  0.7969  0.3334  0.3212
 3757SOL    HW214800   0.098   0.262   5.006  0.4077 -0.2574 -0.5464
 3757SOL    HW314801   0.034   0.381   5.075  0.3766 -1.8097  2.2362
 3757SOL    MW414802   0.034   0.321   5.011  0.6901 -0.0273  0.4594
 3758SOL     OW14803   1.153   5.548   3.677  0.0341 -0.2816  0.3048
 3758SOL    HW214804   1.206   5.588   3.608 -0.5877 -0.1563 -0.1110
 3758SOL    HW314805   1.161   5.454   3.664 -0.8898 -0.2505 -0.5777
 3758SOL    MW414806   1.161   5.541   3.666 -0.1698 -0.2610  0.1335
 3759SOL     OW14807   4.141   1.551   4.503 -0.1126  0.2796 -0.2672
 3759SOL    HW214808   4.071   1.592   4.553  1.5277  2.6407  0.2695
 3759SOL    HW314809   4.222   1.588   4.540  1.3117 -0.5567 -2.3603
 3759SOL    MW414810   4.142   1.561   4.514  0.2918  0.4808 -0.4725
 3760SOL     OW14811   0.894   1.191   6.326  0.2610 -0.5290 -0.2895
 3760SOL    HW214812   0.856   1.263   6.276  1.0907  0.6604  0.7299
 3760SOL    HW314813   0.957   1.151   6.266 -0.7736 -0.9486 -1.1343
 3760SOL    MW414814   0.897   1.195   6.312  0.2339 -0.4274 -0.2664
 3761SOL     OW14815   3.743   5.644   3.135 -0.7285 -0.5601  0.1709
 3761SOL    HW214816   3.713   5.720   3.084 -0.2410  0.0403  0.7504
 3761SOL    HW314817   3.726   5.669   3.226  1.2155 -0.3016  0.5196
 3761SOL    MW414818   3.737   5.657   3.140 -0.4077 -0.4468  0.2933
 3762SOL     OW14819   2.257   3.468   6.416 -0.2686 -0.1719 -0.5401
 3762SOL    HW214820   2.207   3.466   6.498  0.7086  0.1596  0.0849
 3762SOL    HW314821   2.242   3.383   6.377 -0.7284 -0.3484  0.0060
 3762SOL    MW414822   2.249   3.457   6.422 -0.2003 -0.1515 -0.3856
 3763SOL     OW14823   1.527   2.368   0.588 -0.3372  0.0840  0.4246
 3763SOL    HW214824   1.554   2.277   0.594  0.3851  0.2234 -0.4602
 3763SOL    HW314825   1.511   2.394   0.679  0.7343 -0.5506  0.8245
 3763SOL    MW414826   1.529   2.360   0.601 -0.1005  0.0187  0.3606
 3764SOL     OW14827   3.694   3.945   5.539  0.3815  0.2568  0.1610
 3764SOL    HW214828   3.768   3.991   5.500  0.7435 -0.2238  0.2697
 3764SOL    HW314829   3.733   3.886   5.603 -0.2038  1.0739  1.3068
 3764SOL    MW414830   3.709   3.943   5.542  0.3520  0.3012  0.3265
 3765SOL     OW14831   5.598   2.531   6.168 -0.4577 -0.1007 -1.1855
 3765SOL    HW214832   5.529   2.594   6.147  0.7026  1.5438 -0.3646
 3765SOL    HW314833   5.657   2.534   6.093  0.5862  1.2851 -0.3596
 3765SOL    MW414834   5.597   2.540   6.156 -0.1669  0.2991 -0.9682
 3766SOL     OW14835   3.901   4.033   2.629  0.4514  0.3080 -0.1160
 3766SOL    HW214836   3.892   4.002   2.720  1.4317  1.5378  0.4362
 3766SOL    HW314837   3.815   4.019   2.590  0.8213 -3.1153  0.0384
 3766SOL    MW414838   3.888   4.027   2.636  0.6296  0.0186 -0.0228
 3767SOL     OW14839   6.324   2.989   4.784 -0.3031  0.1885  0.7234
 3767SOL    HW214840   6.270   2.987   4.864 -0.7410  0.9222  0.4586
 3767SOL    HW314841   6.270   2.946   4.718 -0.5553  0.8697  0.4729
 3767SOL    MW414842   6.309   2.983   4.786 -0.3942  0.3752  0.6554
 3768SOL     OW14843   0.520   0.330   3.927  0.0387 -1.0311  0.4694
 3768SOL    HW214844   0.557   0.242   3.922  2.4960 -0.0220 -0.8690
 3768SOL    HW314845   0.481   0.344   3.840  0.3693 -0.5358  0.3964
 3768SOL    MW414846   0.520   0.320   3.915  0.4065 -0.8326  0.2832
 3769SOL     OW14847   5.893   0.196   0.792  0.5777 -0.2164  0.2185
 3769SOL    HW214848   5.862   0.282   0.822 -0.2556 -0.7622  0.9975
 3769SOL    HW314849   5.819   0.137   0.809  0.6325 -0.8582 -1.5427
 3769SOL    MW414850   5.879   0.200   0.798  0.4750 -0.3731  0.0889
 3770SOL     OW14851   5.659   4.038   4.358 -0.4747  0.2403 -0.0389
 3770SOL    HW214852   5.713   3.987   4.418 -2.2680 -0.3119  1.1721
 3770SOL    HW314853   5.627   4.111   4.411  0.9493  1.9674 -1.3818
 3770SOL    MW414854   5.662   4.041   4.373 -0.5234  0.3953 -0.0563
 3771SOL     OW14855   5.657   4.823   1.017 -0.1400  0.2668  0.6757
 3771SOL    HW214856   5.740   4.840   1.062 -1.3701  0.4839  3.0643
 3771SOL    HW314857   5.592   4.868   1.071 -1.9945 -1.3766 -0.0931
 3771SOL    MW414858   5.660   4.831   1.030 -0.5469  0.0786  0.8894
 3772SOL     OW14859   0.174   3.387   1.559  0.0028 -0.0279  0.5683
 3772SOL    HW214860   0.191   3.386   1.465  1.2973  2.0134  0.7204
 3772SOL    HW314861   0.080   3.401   1.566 -0.5516 -2.8222 -0.3626
 3772SOL    MW414862   0.164   3.389   1.548  0.1004 -0.1272  0.4655
 3773SOL     OW14863   1.770   5.528   2.473  0.2786 -0.0082  0.2118
 3773SOL    HW214864   1.683   5.496   2.497  0.3706  0.2495  0.8958
 3773SOL    HW314865   1.776   5.614   2.514  1.1688 -0.3650  0.8543
 3773SOL    MW414866   1.759   5.535   2.481  0.4082 -0.0213  0.3868
 3774SOL     OW14867   2.341   0.117   5.064  0.2921  0.4008  0.1128
 3774SOL    HW214868   2.304   0.174   4.997  0.6680  1.0340  0.4418
 3774SOL    HW314869   2.434   0.139   5.066  0.1564  0.8989  1.3419
 3774SOL    MW414870   2.348   0.127   5.055  0.3238  0.5500  0.3184
 3775SOL     OW14871   5.770   3.914   4.581 -0.3511 -0.6801 -0.4114
 3775SOL    HW214872   5.864   3.924   4.566 -0.4569 -1.7656 -2.0316
 3775SOL    HW314873   5.747   3.988   4.638  1.7565 -1.3236  1.4033
 3775SOL    MW414874   5.779   3.925   4.586 -0.0870 -0.9082 -0.3857
 3776SOL     OW14875   1.099   0.930   4.216 -0.6399 -0.5149 -0.2049
 3776SOL    HW214876   1.165   0.860   4.210 -0.5881 -0.9114  3.1639
 3776SOL    HW314877   1.015   0.884   4.212 -0.6170 -0.6793  1.0048
 3776SOL    MW414878   1.097   0.914   4.215 -0.6301 -0.5889  0.3991
 3777SOL     OW14879   4.252   4.644   5.184 -0.5806 -0.3673  0.0672
 3777SOL    HW214880   4.212   4.708   5.125 -0.6728  0.1929  0.7284
 3777SOL    HW314881   4.224   4.559   5.150 -1.5455 -0.0161 -0.0413
 3777SOL    MW414882   4.243   4.642   5.172 -0.7201 -0.2471  0.1401
 3778SOL     OW14883   4.701   4.074   2.043 -0.0398  0.3627 -0.2941
 3778SOL    HW214884   4.786   4.038   2.019 -0.4976  0.1927 -1.7562
 3778SOL    HW314885   4.645   4.056   1.967 -1.4527  0.2203  0.7449
 3778SOL    MW414886   4.705   4.067   2.030 -0.2866  0.3215 -0.3499
 3779SOL     OW14887   0.746   3.314   5.198  0.3267 -0.4073  0.0763
 3779SOL    HW214888   0.840   3.308   5.182  0.4131 -0.3999  0.5710
 3779SOL    HW314889   0.714   3.225   5.190  0.7044 -0.7485  1.8761
 3779SOL    MW414890   0.754   3.302   5.195  0.3879 -0.4513  0.3791
 3780SOL     OW14891   4.054   0.775   0.149  0.4516 -0.4118 -0.2374
 3780SOL    HW214892   3.961   0.798   0.145  0.5961  0.0781 -1.3037
 3780SOL    HW314893   4.098   0.859   0.163  0.7401 -0.6139  0.0616
 3780SOL    MW414894   4.047   0.789   0.150  0.5087 -0.3738 -0.3386
 3781SOL     OW14895   4.683   6.176   5.546  0.1329 -0.0229  0.3645
 3781SOL    HW214896   4.684   6.258   5.496  0.0039 -0.2581 -0.0258
 3781SOL    HW314897   4.722   6.199   5.631 -1.6458  0.9126  0.9817
 3781SOL    MW414898   4.688   6.190   5.551 -0.1188  0.0695  0.3944
 3782SOL     OW14899   4.734   6.278   5.812  0.0172 -0.5310 -0.3627
 3782SOL    HW214900   4.697   6.360   5.780  1.9666 -0.1440 -1.7953
 3782SOL    HW314901   4.826   6.297   5.828  0.1729 -2.0424  0.8472
 3782SOL    MW414902   4.741   6.291   5.810  0.2950 -0.6793 -0.3921
 3783SOL     OW14903   6.083   3.643   0.675  0.6866  0.0814  0.0538
 3783SOL    HW214904   6.107   3.701   0.602  0.5602 -0.1199 -0.1503
 3783SOL    HW314905   6.091   3.555   0.639  0.8408 -0.0291  0.3518
 3783SOL    MW414906   6.088   3.639   0.660  0.6903  0.0403  0.0662
 3784SOL     OW14907   4.920   1.661   1.325 -0.0762  0.3235  0.7539
 3784SOL    HW214908   4.924   1.647   1.231  2.3359  0.8521  0.7185
 3784SOL    HW314909   4.841   1.615   1.353 -0.3113 -0.6702 -1.3632
 3784SOL    MW414910   4.910   1.653   1.316  0.2110  0.2621  0.4699
 3785SOL     OW14911   2.318   1.212   4.559 -0.2458  0.7895 -0.0761
 3785SOL    HW214912   2.379   1.254   4.497  0.4707  1.6409  1.1609
 3785SOL    HW314913   2.275   1.144   4.507  1.0152  0.8433 -1.2607
 3785SOL    MW414914   2.320   1.209   4.544  0.0151  0.9089 -0.0692
 3786SOL     OW14915   2.131   1.529   2.215  0.1588 -0.6023  0.1425
 3786SOL    HW214916   2.213   1.522   2.264  1.1495  0.1888 -1.3382
 3786SOL    HW314917   2.068   1.480   2.268  1.6028 -1.3562  1.2560
 3786SOL    MW414918   2.134   1.522   2.229  0.4800 -0.5974  0.0940
 3787SOL     OW14919   5.380   4.726   4.503  0.3582  0.6527 -0.2644
 3787SOL    HW214920   5.289   4.748   4.524 -0.2630 -0.8374 -1.2070
 3787SOL    HW314921   5.426   4.809   4.506 -1.1955  1.5690 -0.5426
 3787SOL    MW414922   5.374   4.740   4.506  0.0712  0.5770 -0.4254
 3788SOL     OW14923   3.509   2.090   1.036  0.1704 -0.6174  0.1109
 3788SOL    HW214924   3.501   2.003   0.995 -1.0339 -0.2989 -0.3919
 3788SOL    HW314925   3.418   2.116   1.053  0.3781  1.2582 -1.2901
 3788SOL    MW414926   3.496   2.082   1.033  0.0389 -0.3279 -0.1403
 3789SOL     OW14927   3.386   5.866   0.295  0.3641 -0.1480  0.2149
 3789SOL    HW214928   3.295   5.842   0.276  0.5365 -1.2807  0.6942
 3789SOL    HW314929   3.379   5.940   0.355 -0.2169  0.7157 -0.8971
 3789SOL    MW414930   3.373   5.872   0.301  0.3102 -0.1835  0.1314
 3790SOL     OW14931   1.509   3.351   3.921 -0.4572 -0.1900  0.6454
 3790SOL    HW214932   1.512   3.262   3.957 -1.6484 -0.2776  0.5453
 3790SOL    HW314933   1.463   3.341   3.838  1.4832  0.1510 -0.5480
 3790SOL    MW414934   1.504   3.338   3.915 -0.3584 -0.1566  0.4747
 3791SOL     OW14935   3.566   4.494   0.321 -0.3575  0.4033 -0.6015
 3791SOL    HW214936   3.622   4.474   0.396 -2.7890  1.2913  1.5986
 3791SOL    HW314937   3.581   4.587   0.303 -0.5883  0.4676 -0.4688
 3791SOL    MW414938   3.575   4.504   0.329 -0.7087  0.5290 -0.2937
 3792SOL     OW14939   1.587   1.052   0.424 -0.6448  0.2963  0.1534
 3792SOL    HW214940   1.627   1.138   0.413  0.7148  0.1405  3.1304
 3792SOL    HW314941   1.560   1.049   0.515 -1.7813 -2.0220 -0.1731
 3792SOL    MW414942   1.589   1.063   0.434 -0.6154 -0.0301  0.5031
 3793SOL     OW14943   0.836   3.985   3.213 -0.2466  0.1737  0.1858
 3793SOL    HW214944   0.825   3.927   3.288  0.5560  0.4176  0.5029
 3793SOL    HW314945   0.887   4.059   3.247  3.0827 -1.2477 -1.3109
 3793SOL    MW414946   0.841   3.987   3.227  0.2985  0.0184  0.0302
 3794SOL     OW14947   3.235   3.182   4.282 -0.3306 -0.1654  0.5847
 3794SOL    HW214948   3.179   3.201   4.207  0.2932 -1.3182 -0.2022
 3794SOL    HW314949   3.231   3.086   4.292 -0.9263  0.0003  2.4453
 3794SOL    MW414950   3.227   3.172   4.274 -0.3269 -0.2956  0.7264
 3795SOL     OW14951   0.935   2.107   1.549 -0.4910  0.8997 -0.3987
 3795SOL    HW214952   0.851   2.141   1.580 -1.0375 -0.8139  0.1181
 3795SOL    HW314953   0.913   2.060   1.468 -0.7196 -2.5372  1.5057
 3795SOL    MW414954   0.921   2.105   1.542 -0.5932  0.2202 -0.0792
 3796SOL     OW14955   4.424   1.298   2.838 -0.0344 -0.0501  0.8732
 3796SOL    HW214956   4.431   1.215   2.791  1.0719  1.6824 -2.3460
 3796SOL    HW314957   4.514   1.321   2.860  0.0845  1.6540 -1.0781
 3796SOL    MW414958   4.437   1.290   2.835  0.1272  0.4033  0.1910
 3797SOL     OW14959   2.458   4.489   3.181 -0.3143  0.4175  0.1910
 3797SOL    HW214960   2.523   4.559   3.184  1.2039 -0.6138 -3.1786
 3797SOL    HW314961   2.414   4.493   3.266  1.0805  4.0506  0.9377
 3797SOL    MW414962   2.461   4.499   3.193  0.0700  0.7608 -0.1551
 3798SOL     OW14963   1.448   1.519   4.482 -0.5146 -0.4724 -0.1845
 3798SOL    HW214964   1.472   1.536   4.573  0.5998 -1.1226 -0.3352
 3798SOL    HW314965   1.477   1.598   4.436 -1.4761  0.0439  0.0741
 3798SOL    MW414966   1.455   1.532   4.488 -0.4944 -0.4901 -0.1703
 3799SOL     OW14967   4.304   3.601   2.804 -0.1258 -0.2086  0.0426
 3799SOL    HW214968   4.366   3.551   2.751 -0.1356  0.5361 -0.6835
 3799SOL    HW314969   4.342   3.689   2.809 -0.7435  0.0526  0.2268
 3799SOL    MW414970   4.317   3.606   2.798 -0.2086 -0.0759 -0.0289
 3800SOL     OW14971   2.071   6.346   1.373 -0.0264  0.0546  0.1202
 3800SOL    HW214972   1.991   6.388   1.405 -1.3323 -2.0207 -0.2416
 3800SOL    HW314973   2.135   6.360   1.444 -1.4098 -0.2830  1.4885
 3800SOL    MW414974   2.069   6.354   1.387 -0.3812 -0.2638  0.2530
 3801SOL     OW14975   5.886   0.886   1.800 -0.1200 -0.1158 -0.7115
 3801SOL    HW214976   5.955   0.896   1.865 -1.2314 -3.1700  1.1672
 3801SOL    HW314977   5.824   0.955   1.820 -1.0997 -1.7466  2.5787
 3801SOL    MW414978   5.887   0.896   1.811 -0.3959 -0.7339 -0.0296
 3802SOL     OW14979   1.261   3.596   5.569  0.2465 -0.8882  0.2620
 3802SOL    HW214980   1.222   3.576   5.654  0.8166  0.9413  1.0149
 3802SOL    HW314981   1.351   3.622   5.589  0.2476  0.0556 -0.8165
 3802SOL    MW414982   1.268   3.597   5.583  0.3219 -0.5223  0.2190
 3803SOL     OW14983   1.189   0.433   2.964  0.2494 -0.6827  0.2260
 3803SOL    HW214984   1.210   0.395   3.049  0.1113 -0.2929  0.4394
 3803SOL    HW314985   1.148   0.362   2.916  0.8988 -1.0844  0.2566
 3803SOL    MW414986   1.186   0.419   2.969  0.3169 -0.6842  0.2582
 3804SOL     OW14987   4.586   5.986   1.196 -0.0434  0.1364 -0.3631
 3804SOL    HW214988   4.570   6.069   1.152 -0.2703 -0.3536 -1.2116
 3804SOL    HW314989   4.506   5.971   1.248 -0.1357  0.2803 -0.4622
 3804SOL    MW414990   4.573   5.995   1.197 -0.0856  0.0907 -0.4881
 3805SOL     OW14991   1.858   3.500   4.092 -0.0379 -0.6253  0.2416
 3805SOL    HW214992   1.787   3.523   4.152  1.7989 -2.3470  3.3499
 3805SOL    HW314993   1.832   3.538   4.009 -2.6096  2.3313  2.1662
 3805SOL    MW414994   1.845   3.508   4.089 -0.1348 -0.4624  0.9056
 3806SOL     OW14995   1.299   0.173   5.907 -0.3699  0.4004  0.5417
 3806SOL    HW214996   1.349   0.093   5.923  0.8218  0.8125 -0.8954
 3806SOL    HW314997   1.208   0.147   5.919 -0.0766 -1.4070 -0.6912
 3806SOL    MW414998   1.294   0.159   5.911 -0.1740  0.2163  0.1895
 3807SOL     OW14999   6.219   4.812   5.271  0.4821  0.7090 -0.0297
 3807SOL    HW215000   6.126   4.802   5.291  0.3951  2.5849  0.6844
 3807SOL    HW315001   6.223   4.886   5.210  1.5000  0.5526 -0.1726
 3807SOL    MW415002   6.208   4.820   5.265  0.6049  0.9359  0.0456
 3808SOL     OW15003   2.669   1.028   6.188 -0.1335  0.2946 -0.2426
 3808SOL    HW215004   2.588   1.027   6.239  0.4224  0.9731  0.6888
 3808SOL    HW315005   2.697   1.119   6.190  0.3438  0.1725 -1.0663
 3808SOL    MW415006   2.662   1.040   6.195  0.0028  0.3680 -0.2284
 3809SOL     OW15007   3.760   0.574   1.568 -0.5617 -0.1246  0.1763
 3809SOL    HW215008   3.842   0.606   1.606  0.3324 -0.1789 -1.6178
 3809SOL    HW315009   3.694   0.637   1.598  0.7143  1.9306 -1.0782
 3809SOL    MW415010   3.762   0.587   1.577 -0.2754  0.1394 -0.2259
 3810SOL     OW15011   4.233   4.808   2.878 -0.0547 -0.3282  0.0069
 3810SOL    HW215012   4.189   4.878   2.926  1.4957  0.9864 -0.3814
 3810SOL    HW315013   4.320   4.803   2.919 -0.5428 -2.9374  0.8677
 3810SOL    MW415014   4.239   4.817   2.890  0.0854 -0.4990  0.0692
 3811SOL     OW15015   0.235   0.803   1.928  0.4008  0.3774 -0.0176
 3811SOL    HW215016   0.318   0.756   1.936 -1.3967 -3.0292  0.4014
 3811SOL    HW315017   0.169   0.743   1.962 -2.6631  1.7042 -2.9231
 3811SOL    MW415018   0.237   0.789   1.933 -0.2406  0.1030 -0.3456
 3812SOL     OW15019   3.839   1.024   0.247  0.0997 -0.2392 -0.1210
 3812SOL    HW215020   3.845   1.052   0.339 -0.1884 -0.4898 -0.0228
 3812SOL    HW315021   3.913   1.067   0.204  0.4161 -0.3605  0.2934
 3812SOL    MW415022   3.849   1.033   0.254  0.1035 -0.2883 -0.0534
 3813SOL     OW15023   1.487   6.328   2.881 -0.0933  0.4552  0.8596
 3813SOL    HW215024   1.579   6.354   2.883  0.3130 -0.9263  1.1962
 3813SOL    HW315025   1.440   6.403   2.917  0.6024  2.2170 -1.6401
 3813SOL    MW415026   1.493   6.341   2.886  0.0521  0.5053  0.5742
 3814SOL     OW15027   1.448   5.862   4.429 -0.0131 -0.2229 -0.5546
 3814SOL    HW215028   1.468   5.903   4.513  2.0728 -0.2432 -0.9923
 3814SOL    HW315029   1.460   5.769   4.444 -0.7372 -0.3274 -0.6000
 3814SOL    MW415030   1.452   5.855   4.442  0.1666 -0.2394 -0.6183
 3815SOL     OW15031   4.352   5.991   1.659 -0.3098 -0.1411  0.6278
 3815SOL    HW215032   4.277   6.049   1.645 -0.7912 -0.8031  0.3739
 3815SOL    HW315033   4.424   6.049   1.680 -0.9373  0.5010  1.0390
 3815SOL    MW415034   4.352   6.006   1.660 -0.4561 -0.1437  0.6486
 3816SOL     OW15035   3.365   4.394   3.708  0.1190  0.1287  0.8879
 3816SOL    HW215036   3.295   4.341   3.670 -1.2102  0.7664  2.3176
 3816SOL    HW315037   3.439   4.334   3.716  0.1559 -0.2919 -1.6591
 3816SOL    MW415038   3.365   4.379   3.704 -0.0515  0.1574  0.7405
 3817SOL     OW15039   2.078   5.551   1.533  0.3223  0.3953 -0.1963
 3817SOL    HW215040   2.124   5.520   1.611  0.6348 -0.5886 -0.7584
 3817SOL    HW315041   2.024   5.624   1.565 -0.3029 -0.5966  1.1292
 3817SOL    MW415042   2.077   5.557   1.548  0.2810  0.1346 -0.0956
 3818SOL     OW15043   3.623   4.258   3.781  0.3660 -0.1080  0.2060
 3818SOL    HW215044   3.710   4.273   3.744  1.3360 -2.3142  1.4008
 3818SOL    HW315045   3.625   4.167   3.812 -1.6389  0.4362  2.2163
 3818SOL    MW415046   3.635   4.248   3.780  0.2295 -0.3273  0.6288
 3819SOL     OW15047   5.920   4.955   5.705  0.1641 -0.5624 -0.6962
 3819SOL    HW215048   5.832   4.919   5.695  0.6151 -2.3955  1.1944
 3819SOL    HW315049   5.911   5.022   5.773  0.0597  0.0043 -1.2608
 3819SOL    MW415050   5.907   4.960   5.712  0.2098 -0.7295 -0.5213
 3820SOL     OW15051   5.921   4.944   3.844 -0.0436  0.2121 -0.5720
 3820SOL    HW215052   5.830   4.939   3.813 -0.0607 -0.4983 -0.4193
 3820SOL    HW315053   5.964   4.869   3.804  0.2625  0.0368  0.0739
 3820SOL    MW415054   5.915   4.934   3.834 -0.0054  0.0953 -0.4667
 3821SOL     OW15055   5.370   0.695   4.729  0.2500 -0.4975 -0.6206
 3821SOL    HW215056   5.332   0.616   4.691 -0.1138 -0.7001  0.1458
 3821SOL    HW315057   5.460   0.671   4.750  1.3458  0.3932 -3.7264
 3821SOL    MW415058   5.377   0.682   4.727  0.3466 -0.4067 -0.9293
 3822SOL     OW15059   4.948   5.435   1.302  0.1512  0.0477  0.0221
 3822SOL    HW215060   4.937   5.530   1.311 -1.9013 -0.0848 -0.4813
 3822SOL    HW315061   4.925   5.401   1.388  0.1121 -0.0401 -0.0238
 3822SOL    MW415062   4.943   5.443   1.315 -0.1247  0.0187 -0.0504
 3823SOL     OW15063   5.071   3.078   4.755 -0.0628  0.4213 -0.0118
 3823SOL    HW215064   5.164   3.056   4.749 -0.3606 -0.5798 -1.5772
 3823SOL    HW315065   5.037   3.065   4.666 -1.8898 -0.1476  0.7203
 3823SOL    MW415066   5.079   3.073   4.742 -0.3431  0.2141 -0.1218
 3824SOL     OW15067   2.267   6.049   0.894  1.0625  0.1715  0.1313
 3824SOL    HW215068   2.291   5.984   0.960 -2.6402 -1.2579  0.2612
 3824SOL    HW315069   2.287   6.133   0.936  0.5636 -0.7416  2.3531
 3824SOL    MW415070   2.273   6.052   0.908  0.5081 -0.1375  0.4416
 3825SOL     OW15071   2.572   0.205   3.604 -0.2947  0.3637 -0.1714
 3825SOL    HW215072   2.603   0.124   3.564 -1.0679  0.0603 -0.1682
 3825SOL    HW315073   2.644   0.233   3.661 -0.1494 -0.4913  0.0731
 3825SOL    MW415074   2.585   0.198   3.606 -0.3775  0.2109 -0.1388
 3826SOL     OW15075   6.176   1.218   0.359  0.1934 -0.5581  0.0534
 3826SOL    HW215076   6.111   1.226   0.288 -1.5229 -0.6053  1.5375
 3826SOL    HW315077   6.168   1.300   0.407  2.1806 -0.0371 -0.4352
 3826SOL    MW415078   6.166   1.230   0.356  0.2291 -0.4956  0.1848
 3827SOL     OW15079   6.003   2.143   4.689  0.1258  0.6567  0.8464
 3827SOL    HW215080   6.061   2.078   4.649  1.4628  1.5265  1.3006
 3827SOL    HW315081   6.005   2.217   4.629  1.2871  1.5474  1.9090
 3827SOL    MW415082   6.011   2.144   4.676  0.4554  0.8890  1.0465
 3828SOL     OW15083   6.008   4.541   6.215 -0.0944 -0.0040  0.8092
 3828SOL    HW215084   6.058   4.464   6.188 -0.3805 -0.2285  0.9193
 3828SOL    HW315085   5.950   4.559   6.141  1.7252  1.6504 -0.3284
 3828SOL    MW415086   6.007   4.533   6.201  0.1079  0.1846  0.6736
 3829SOL     OW15087   4.633   0.900   2.412  0.3460 -0.3238  0.3257
 3829SOL    HW215088   4.575   0.870   2.342  0.6634 -1.8632  0.6662
 3829SOL    HW315089   4.582   0.965   2.460 -0.2701 -0.0462 -0.6844
 3829SOL    MW415090   4.619   0.904   2.409  0.3066 -0.4903  0.2374
 3830SOL     OW15091   0.382   5.016   1.079  0.3397  0.8674  0.5206
 3830SOL    HW215092   0.376   4.921   1.072  0.5293  0.8830  0.1025
 3830SOL    HW315093   0.447   5.031   1.147 -2.2379  0.6996  3.2314
 3830SOL    MW415094   0.390   5.006   1.087  0.0246  0.8474  0.8231
 3831SOL     OW15095   3.485   2.933   3.747 -0.6166 -0.3787  0.1797
 3831SOL    HW215096   3.550   2.959   3.682  0.7944 -0.7763  1.3753
 3831SOL    HW315097   3.411   2.901   3.696 -0.0023  0.3579 -1.2286
 3831SOL    MW415098   3.484   2.932   3.732 -0.3494 -0.3340  0.1517
 3832SOL     OW15099   2.429   4.089   6.047 -0.6485  0.1115 -0.4376
 3832SOL    HW215100   2.510   4.105   5.998 -0.9393 -1.6224 -1.6161
 3832SOL    HW315101   2.419   3.993   6.044 -0.8355 -0.0692  2.8602
 3832SOL    MW415102   2.438   4.078   6.040 -0.7115 -0.1411 -0.1580
 3833SOL     OW15103   2.327   5.707   5.083 -0.1097 -0.2766  0.3788
 3833SOL    HW215104   2.257   5.762   5.118 -0.8316  1.2020 -2.9740
 3833SOL    HW315105   2.405   5.732   5.133 -0.8146  2.4836  0.2288
 3833SOL    MW415106   2.328   5.717   5.094 -0.2980  0.2827 -0.0834
 3834SOL     OW15107   3.345   6.383   5.211 -0.6774 -0.3859 -0.3242
 3834SOL    HW215108   3.429   6.353   5.178 -0.7225  1.6042 -2.5928
 3834SOL    HW315109   3.285   6.310   5.194  0.0667 -0.7983 -1.2643
 3834SOL    MW415110   3.348   6.369   5.204 -0.5852 -0.1778 -0.7476
 3835SOL     OW15111   0.745   2.925   4.052 -0.4904  0.7509  0.5864
 3835SOL    HW215112   0.837   2.906   4.066 -0.5938 -1.4044 -1.1369
 3835SOL    HW315113   0.744   2.997   3.989  0.1065 -0.5381 -0.9691
 3835SOL    MW415114   0.757   2.932   4.045 -0.4253  0.2964  0.1538
 3836SOL     OW15115   1.740   3.492   5.125 -0.0266 -0.3499 -0.3135
 3836SOL    HW215116   1.685   3.541   5.185  0.5023  0.4628 -0.4831
 3836SOL    HW315117   1.725   3.532   5.040  0.3054 -0.5687 -0.4780
 3836SOL    MW415118   1.731   3.503   5.122  0.0870 -0.2715 -0.3576
 3837SOL     OW15119   0.334   4.095   2.775 -0.2786  0.0569  0.2975
 3837SOL    HW215120   0.296   4.031   2.835 -0.6580 -0.4177 -0.4282
 3837SOL    HW315121   0.273   4.099   2.702 -0.8339  2.0612  0.7950
 3837SOL    MW415122   0.321   4.087   2.773 -0.4019  0.2587  0.2674
 3838SOL     OW15123   3.695   6.385   3.500 -0.0387  0.0970  0.0031
 3838SOL    HW215124   3.624   6.428   3.547 -0.9595 -2.0710  0.6789
 3838SOL    HW315125   3.664   6.296   3.484  0.8036  0.3035 -3.5033
 3838SOL    MW415126   3.682   6.379   3.504 -0.0490 -0.1618 -0.3704
 3839SOL     OW15127   3.099   0.091   0.671  0.1301 -0.1276  0.0525
 3839SOL    HW215128   3.005   0.101   0.656 -0.0298 -1.2862  0.1742
 3839SOL    HW315129   3.139   0.124   0.591 -0.6549 -5.0693 -2.8419
 3839SOL    MW415130   3.091   0.096   0.659  0.0054 -0.9324 -0.3133
 3840SOL     OW15131   5.727   4.804   4.127 -0.1918 -0.2039  0.3453
 3840SOL    HW215132   5.695   4.741   4.191 -1.0159 -0.1736 -0.0223
 3840SOL    HW315133   5.721   4.758   4.043 -2.1065  0.7815 -0.1156
 3840SOL    MW415134   5.722   4.789   4.124 -0.5532 -0.0699  0.2360
 3841SOL     OW15135   5.278   5.814   6.206  0.6288 -0.1751 -0.1136
 3841SOL    HW215136   5.324   5.746   6.158  1.1160 -0.6856  1.0497
 3841SOL    HW315137   5.197   5.772   6.235 -0.1339  0.4311 -1.3268
 3841SOL    MW415138   5.273   5.800   6.204  0.5925 -0.1624 -0.1202
 3842SOL     OW15139   5.439   2.750   3.559  0.0464  0.3179 -0.1683
 3842SOL    HW215140   5.443   2.798   3.642 -2.2651 -0.2249  0.3298
 3842SOL    HW315141   5.428   2.817   3.492  2.8680  0.8403 -0.2394
 3842SOL    MW415142   5.438   2.765   3.561  0.1137  0.3152 -0.1120
 3843SOL     OW15143   1.609   6.140   5.218 -0.2043 -0.3066 -0.4150
 3843SOL    HW215144   1.625   6.146   5.312 -1.4289 -2.2646 -0.0145
 3843SOL    HW315145   1.639   6.223   5.183  0.7106  0.2945  1.6408
 3843SOL    MW415146   1.615   6.152   5.226 -0.2452 -0.4857 -0.0910
 3844SOL     OW15147   3.065   3.665   0.256 -0.8002 -0.0098 -0.0285
 3844SOL    HW215148   2.972   3.646   0.268 -1.0536  1.0206 -0.2366
 3844SOL    HW315149   3.103   3.582   0.228 -1.3470 -0.8682  1.6008
 3844SOL    MW415150   3.058   3.652   0.254 -0.9057  0.0129  0.1590
 3845SOL     OW15151   5.003   6.295   3.109  0.1273 -0.0682 -0.9756
 3845SOL    HW215152   5.023   6.367   3.169 -4.3078  1.4224 -0.9381
 3845SOL    HW315153   4.995   6.337   3.023 -0.6295 -0.8654 -1.3093
 3845SOL    MW415154   5.004   6.310   3.105 -0.5577  0.0233 -1.0147
 3846SOL     OW15155   1.646   2.618   1.723 -0.4576 -0.8260  0.2963
 3846SOL    HW215156   1.673   2.654   1.639 -0.2661 -1.2967  0.1539
 3846SOL    HW315157   1.559   2.582   1.708 -0.9994  0.2683  0.6385
 3846SOL    MW415158   1.638   2.618   1.710 -0.5039 -0.7437  0.3227
 3847SOL     OW15159   1.231   3.336   2.355 -0.0106 -0.8850 -0.0177
 3847SOL    HW215160   1.142   3.303   2.342 -0.1785 -0.9274  1.1408
 3847SOL    HW315161   1.234   3.417   2.305 -1.0563 -0.3252  0.7833
 3847SOL    MW415162   1.219   3.342   2.347 -0.1707 -0.8167  0.2409
 3848SOL     OW15163   1.004   1.831   2.594 -0.3483 -0.5325  0.3570
 3848SOL    HW215164   1.046   1.806   2.676  0.6392  1.6858  0.6197
 3848SOL    HW315165   1.076   1.838   2.531 -0.8433 -0.4758 -0.2077
 3848SOL    MW415166   1.019   1.829   2.597 -0.2833 -0.2323  0.3171
 3849SOL     OW15167   5.745   4.226   2.977  0.0847 -0.4960  0.5025
 3849SOL    HW215168   5.709   4.254   3.061 -1.1439 -1.8416  0.4666
 3849SOL    HW315169   5.744   4.304   2.923 -3.1502 -0.4639  0.4150
 3849SOL    MW415170   5.740   4.240   2.981 -0.5042 -0.6693  0.4862
 3850SOL     OW15171   5.423   1.848   4.762  0.1676  0.3966 -0.0609
 3850SOL    HW215172   5.329   1.837   4.777  0.1922  0.6093  0.2582
 3850SOL    HW315173   5.441   1.793   4.686 -0.1333  0.0045  0.1452
 3850SOL    MW415174   5.413   1.839   4.754  0.1311  0.3730  0.0084
 3851SOL     OW15175   6.080   0.192   5.285 -0.0387 -0.0412  0.1898
 3851SOL    HW215176   6.152   0.232   5.334  1.6717 -2.2068 -0.3936
 3851SOL    HW315177   6.108   0.195   5.193 -0.5141 -1.2064 -0.0204
 3851SOL    MW415178   6.093   0.198   5.279  0.1242 -0.4807  0.0851
 3852SOL     OW15179   4.862   3.142   5.248 -0.3157 -0.1078  0.6513
 3852SOL    HW215180   4.856   3.084   5.172 -1.5186 -2.1798  2.2138
 3852SOL    HW315181   4.771   3.156   5.274  0.0224  1.5010  1.0834
 3852SOL    MW415182   4.849   3.136   5.241 -0.4298 -0.1689  0.9144
 3853SOL     OW15183   0.562   2.619   1.471  0.2904 -0.3947  0.0129
 3853SOL    HW215184   0.565   2.532   1.429 -0.0266  0.0229 -0.8995
 3853SOL    HW315185   0.480   2.658   1.440  0.4152  0.2166  0.4441
 3853SOL    MW415186   0.552   2.612   1.461  0.2651 -0.2590 -0.0506
 3854SOL     OW15187   2.023   6.124   1.207  0.3774  0.1968  1.0671
 3854SOL    HW215188   2.039   6.210   1.244 -0.2325  1.2258 -0.8984
 3854SOL    HW315189   2.013   6.140   1.113  2.6060 -2.3100  0.2609
 3854SOL    MW415190   2.024   6.137   1.199  0.5909  0.0018  0.7014
 3855SOL     OW15191   1.159   1.323   0.858  0.1804 -0.0428  0.8123
 3855SOL    HW215192   1.171   1.247   0.914 -1.7151 -2.8504 -2.2373
 3855SOL    HW315193   1.071   1.313   0.821  1.2776  1.4561 -2.6574
 3855SOL    MW415194   1.149   1.312   0.860  0.0751 -0.2155 -0.0479
 3856SOL     OW15195   5.200   2.758   6.367  0.0924  0.0710 -0.2530
 3856SOL    HW215196   5.285   2.763   6.412  0.8975 -0.2637 -1.6658
 3856SOL    HW315197   5.138   2.733   6.436  1.3207 -0.7336  0.6175
 3856SOL    MW415198   5.203   2.755   6.382  0.3607 -0.0793 -0.3246
 3857SOL     OW15199   2.080   4.856   3.529 -0.6154 -0.8689 -0.1498
 3857SOL    HW215200   2.123   4.874   3.613  1.7429  0.6550 -1.5798
 3857SOL    HW315201   2.088   4.761   3.518  1.5479 -0.7610  0.1200
 3857SOL    MW415202   2.086   4.846   3.539 -0.0188 -0.6536 -0.3029
 3858SOL     OW15203   2.440   4.498   5.897 -0.3289  0.0817 -0.1784
 3858SOL    HW215204   2.489   4.543   5.966  1.2454 -1.1618 -0.4355
 3858SOL    HW315205   2.483   4.413   5.888 -1.6012 -0.4673 -1.4904
 3858SOL    MW415206   2.452   4.493   5.905 -0.2891 -0.1548 -0.3854
 3859SOL     OW15207   3.557   4.178   5.947 -0.1195  0.4910 -0.3735
 3859SOL    HW215208   3.471   4.190   5.907 -0.8836 -0.8231  0.8005
 3859SOL    HW315209   3.577   4.085   5.934  0.4308  0.4493  0.6743
 3859SOL    MW415210   3.548   4.167   5.940 -0.1477  0.3122 -0.0803
 3860SOL     OW15211   0.466   1.023   6.106  0.0905  0.5126 -0.2211
 3860SOL    HW215212   0.502   1.054   6.023  1.4960 -1.1142 -0.2665
 3860SOL    HW315213   0.372   1.014   6.090 -0.2228  3.3347 -0.5798
 3860SOL    MW415214   0.458   1.026   6.093  0.2346  0.6703 -0.2744
 3861SOL     OW15215   6.426   1.475   2.062  0.5508 -0.3731 -0.4862
 3861SOL    HW215216   6.403   1.421   1.987 -1.9997  1.9602 -1.5480
 3861SOL    HW315217   6.365   1.448   2.131  2.5973 -2.2041  0.7367
 3861SOL    MW415218   6.415   1.464   2.061  0.4843 -0.3069 -0.4650
 3862SOL     OW15219   6.112   1.571   2.184 -0.6413  0.2507  0.5390
 3862SOL    HW215220   6.150   1.638   2.241 -0.7571 -0.0701  0.9913
 3862SOL    HW315221   6.069   1.621   2.114  0.4863  0.6274  0.0888
 3862SOL    MW415222   6.112   1.586   2.182 -0.5078  0.2581  0.5393
 3863SOL     OW15223   5.075   3.184   5.925 -0.5482  0.1615 -0.2438
 3863SOL    HW215224   5.085   3.272   5.888 -0.7802 -0.1471 -1.0719
 3863SOL    HW315225   5.036   3.133   5.854  1.0227 -1.0107 -0.3009
 3863SOL    MW415226   5.071   3.189   5.911 -0.3715 -0.0339 -0.3606
 3864SOL     OW15227   6.205   3.839   1.222 -0.3483 -0.6183 -0.2122
 3864SOL    HW215228   6.152   3.761   1.236 -1.0810  0.0308  0.6934
 3864SOL    HW315229   6.228   3.870   1.309  1.1726 -0.6233 -0.5712
 3864SOL    MW415230   6.201   3.833   1.235 -0.2443 -0.5333 -0.1401
 3865SOL     OW15231   4.958   1.662   4.694  0.1639  0.1483  0.4582
 3865SOL    HW215232   5.039   1.691   4.737 -0.5909  1.9182  0.7626
 3865SOL    HW315233   4.944   1.727   4.625  0.7862 -2.0370 -1.8724
 3865SOL    MW415234   4.967   1.675   4.691  0.1464  0.0935  0.1909
 3866SOL     OW15235   3.734   4.917   6.084  0.2696 -0.5637 -0.1714
 3866SOL    HW215236   3.650   4.900   6.126  0.8759 -0.4420  1.1353
 3866SOL    HW315237   3.728   4.871   6.000 -1.4433  0.2324 -0.5307
 3866SOL    MW415238   3.722   4.909   6.079  0.1236 -0.4426 -0.0464
 3867SOL     OW15239   1.332   6.147   5.918  0.4272  0.1266 -0.4473
 3867SOL    HW215240   1.406   6.116   5.969  0.9625 -0.1236 -1.3480
 3867SOL    HW315241   1.342   6.104   5.833 -0.6049  0.3001 -0.6634
 3867SOL    MW415242   1.343   6.138   5.913  0.3616  0.1165 -0.5946
 3868SOL     OW15243   3.632   5.432   2.188 -0.1217  0.4903 -0.2537
 3868SOL    HW215244   3.547   5.407   2.153 -1.0026  1.7226  0.8819
 3868SOL    HW315245   3.638   5.526   2.171  0.7613  0.5170  0.1600
 3868SOL    MW415246   3.621   5.441   2.181 -0.1214  0.6564 -0.0493
 3869SOL     OW15247   4.547   1.853   1.577  0.2719  0.2547  0.1788
 3869SOL    HW215248   4.625   1.817   1.619  1.0697  0.2184 -1.2570
 3869SOL    HW315249   4.529   1.792   1.505 -0.7189  0.6097  0.1109
 3869SOL    MW415250   4.555   1.840   1.573  0.2464  0.2967 -0.0196
 3870SOL     OW15251   2.902   0.357   1.201 -0.5619 -0.8561 -0.1245
 3870SOL    HW215252   2.919   0.279   1.148 -1.0663 -0.2621 -1.1962
 3870SOL    HW315253   2.824   0.335   1.252 -0.2369 -1.3333  0.1715
 3870SOL    MW415254   2.894   0.344   1.201 -0.5856 -0.8407 -0.2269
 3871SOL     OW15255   0.503   4.055   4.330  0.3562 -0.1722  0.1991
 3871SOL    HW215256   0.547   4.043   4.414 -0.5973  0.1938  0.7704
 3871SOL    HW315257   0.472   3.967   4.307  1.0353 -0.3626 -0.0240
 3871SOL    MW415258   0.505   4.042   4.338  0.3200 -0.1490  0.2451
 3872SOL     OW15259   1.376   5.375   5.178  0.0919  0.1834  0.1128
 3872SOL    HW215260   1.282   5.358   5.184  0.1083 -0.6622 -1.4186
 3872SOL    HW315261   1.382   5.449   5.117  0.4435 -0.4738 -0.6691
 3872SOL    MW415262   1.364   5.382   5.170  0.1405 -0.0149 -0.1924
 3873SOL     OW15263   0.946   5.750   3.659 -0.2516 -0.4150  0.2107
 3873SOL    HW215264   0.997   5.824   3.691 -0.2242  0.2176 -1.2240
 3873SOL    HW315265   0.978   5.675   3.709 -0.2326  0.5130  1.6367
 3873SOL    MW415266   0.957   5.750   3.669 -0.2455 -0.2091  0.2096
 3874SOL     OW15267   2.826   4.257   5.721  0.9224  0.0001 -0.6357
 3874SOL    HW215268   2.851   4.193   5.788  1.3075  0.6165 -0.1834
 3874SOL    HW315269   2.908   4.298   5.695  0.6692  0.3502 -0.8924
 3874SOL    MW415270   2.840   4.254   5.726  0.9398  0.1276 -0.6099
 3875SOL     OW15271   6.208   5.415   5.249  0.2616 -0.4583  0.4313
 3875SOL    HW215272   6.223   5.406   5.155  0.5268  0.6606  0.3551
 3875SOL    HW315273   6.139   5.481   5.256  0.7388 -0.0203  1.0411
 3875SOL    MW415274   6.201   5.422   5.237  0.3596 -0.2529  0.5017
 3876SOL     OW15275   3.812   4.824   3.170 -0.5076  0.3761 -0.2791
 3876SOL    HW215276   3.849   4.870   3.245  0.1937  0.1945 -0.5081
 3876SOL    HW315277   3.773   4.745   3.207  1.3249 -0.5661 -0.2915
 3876SOL    MW415278   3.812   4.820   3.184 -0.1733  0.2278 -0.3110
 3877SOL     OW15279   0.978   4.400   5.887 -0.2146  0.5342  0.1391
 3877SOL    HW215280   1.033   4.479   5.888  0.8508 -0.1782  0.4903
 3877SOL    HW315281   1.009   4.349   5.962  0.6225 -1.1795 -1.2860
 3877SOL    MW415282   0.990   4.404   5.897  0.0364  0.2141 -0.0026
 3878SOL     OW15283   3.682   2.318   6.423 -0.0244 -0.3765  0.6291
 3878SOL    HW215284   3.592   2.286   6.409  0.3130 -1.0346 -0.1324
 3878SOL    HW315285   3.671   2.406   6.457 -0.9823  0.2822 -1.2214
 3878SOL    MW415286   3.668   2.325   6.426 -0.1063 -0.3764  0.2845
 3879SOL     OW15287   1.728   6.061   0.488 -0.4732  0.2104 -0.2977
 3879SOL    HW215288   1.782   5.984   0.471  0.3563  0.2070  2.0249
 3879SOL    HW315289   1.738   6.115   0.409  2.3950 -0.1201 -0.2577
 3879SOL    MW415290   1.736   6.058   0.475  0.0147  0.1664  0.0140
 3880SOL     OW15291   4.613   3.174   2.102  0.0774 -0.1916  0.1463
 3880SOL    HW215292   4.633   3.147   2.012  0.6251  0.3828  0.0957
 3880SOL    HW315293   4.539   3.118   2.127  0.0179 -0.4647 -0.6049
 3880SOL    MW415294   4.606   3.163   2.093  0.1418 -0.1518  0.0405
 3881SOL     OW15295   3.738   4.484   0.547  0.4706  0.3183 -0.0055
 3881SOL    HW215296   3.754   4.576   0.569 -0.3628  0.8163 -1.3625
 3881SOL    HW315297   3.801   4.466   0.477  0.9034 -0.2771  0.5292
 3881SOL    MW415298   3.749   4.494   0.540  0.4177  0.3055 -0.1140
 3882SOL     OW15299   4.369   0.741   4.692  0.3096 -0.3026 -0.4598
 3882SOL    HW215300   4.322   0.677   4.745  0.7315  0.1315  0.4652
 3882SOL    HW315301   4.438   0.691   4.648  1.2031 -0.3725  0.9489
 3882SOL    MW415302   4.372   0.726   4.693  0.4832 -0.2545 -0.1519
 3883SOL     OW15303   5.843   4.379   0.314  0.1894 -0.2821 -0.0328
 3883SOL    HW215304   5.883   4.315   0.373 -1.5924  0.0982  1.7041
 3883SOL    HW315305   5.778   4.329   0.265 -0.1858 -0.1093  0.2786
 3883SOL    MW415306   5.840   4.364   0.315 -0.0952 -0.2091  0.2375
 3884SOL     OW15307   5.943   6.392   3.608  0.0073  0.4139  0.2531
 3884SOL    HW215308   5.992   6.399   3.690  0.7980 -1.4272 -0.0264
 3884SOL    HW315309   6.010   6.384   3.541 -0.5679 -3.0917 -0.0556
 3884SOL    MW415310   5.958   6.392   3.610  0.0358 -0.2916  0.1755
 3885SOL     OW15311   1.727   3.644   1.433 -0.1938  0.0206 -0.8023
 3885SOL    HW215312   1.698   3.659   1.523 -0.8770  1.3909 -1.2199
 3885SOL    HW315313   1.822   3.632   1.440  0.2413  3.1427 -0.1777
 3885SOL    MW415314   1.735   3.644   1.446 -0.2266  0.6133 -0.7750
 3886SOL     OW15315   4.374   0.672   3.440  0.3198 -0.9161  0.2791
 3886SOL    HW215316   4.335   0.672   3.527  0.7586  0.5554  0.5036
 3886SOL    HW315317   4.307   0.712   3.384  0.9444  0.3376  0.4041
 3886SOL    MW415318   4.360   0.677   3.444  0.4601 -0.5565  0.3252
 3887SOL     OW15319   1.266   0.754   0.263  0.1002 -0.1861  0.3912
 3887SOL    HW215320   1.360   0.773   0.269 -0.0399  0.4883  0.5018
 3887SOL    HW315321   1.262   0.671   0.215  0.7185  0.1779 -0.3270
 3887SOL    MW415322   1.278   0.745   0.257  0.1633 -0.0491  0.3110
 3888SOL     OW15323   3.612   5.214   0.696  0.1312  0.1907 -0.0053
 3888SOL    HW215324   3.628   5.194   0.604  0.2220 -0.1128  0.0772
 3888SOL    HW315325   3.584   5.306   0.695 -2.3980 -0.5207 -0.6087
 3888SOL    MW415326   3.611   5.224   0.684 -0.1905  0.0568 -0.0741
 3889SOL     OW15327   0.758   0.469   5.718  0.0809  0.5695 -0.3688
 3889SOL    HW215328   0.837   0.504   5.676  0.2596 -1.0776 -1.5186
 3889SOL    HW315329   0.753   0.515   5.802  0.9189  2.4388 -1.2678
 3889SOL    MW415330   0.768   0.480   5.723  0.2151  0.5988 -0.6391
 3890SOL     OW15331   0.534   1.418   1.694  0.1059 -0.1370  0.5085
 3890SOL    HW215332   0.480   1.477   1.748  0.0535 -0.2946  0.6289
 3890SOL    HW315333   0.619   1.417   1.738 -0.3515 -1.4036  1.4283
 3890SOL    MW415334   0.538   1.426   1.707  0.0387 -0.3249  0.6457
 3891SOL     OW15335   0.086   3.356   3.834 -0.2954 -0.3128 -0.0362
 3891SOL    HW215336   0.046   3.443   3.830  1.1478  0.3989  0.5587
 3891SOL    HW315337   0.110   3.337   3.743  1.7755  1.1011  0.1481
 3891SOL    MW415338   0.084   3.365   3.821  0.1683 -0.0324  0.0666
 3892SOL     OW15339   3.591   0.825   5.806  0.0737  0.6014  0.0832
 3892SOL    HW215340   3.595   0.732   5.785 -1.9391  0.5550 -0.2209
 3892SOL    HW315341   3.668   0.840   5.862  0.6142 -1.1541 -0.1350
 3892SOL    MW415342   3.602   0.815   5.811 -0.1206  0.3637  0.0143
 3893SOL     OW15343   4.568   6.048   3.714  0.3254  0.2884 -0.0381
 3893SOL    HW215344   4.655   6.008   3.713  1.1230  1.8701  0.8921
 3893SOL    HW315345   4.540   6.042   3.805 -0.0442  0.7781 -0.1164
 3893SOL    MW415346   4.576   6.042   3.726  0.3819  0.5617  0.0743
 3894SOL     OW15347   0.620   4.809   0.706  0.5737  0.6360 -0.1824
 3894SOL    HW215348   0.701   4.835   0.750  0.0170  1.2831  0.5031
 3894SOL    HW315349   0.556   4.875   0.735  0.0365  0.7101 -1.4779
 3894SOL    MW415350   0.622   4.821   0.716  0.4294  0.7311 -0.2629
 3895SOL     OW15351   6.392   4.000   2.274 -0.3979  0.0488  0.5359
 3895SOL    HW215352   6.455   4.067   2.246  0.0892  0.7939  3.0843
 3895SOL    HW315353   6.313   4.050   2.296 -1.4262 -0.7198 -1.2127
 3895SOL    MW415354   6.390   4.016   2.274 -0.4693  0.0457  0.6414
 3896SOL     OW15355   4.123   5.871   2.071  0.3663  0.4516  0.2197
 3896SOL    HW215356   4.041   5.826   2.093  0.5380  0.2114  0.3656
 3896SOL    HW315357   4.154   5.827   1.992 -0.2428  1.3069 -0.5119
 3896SOL    MW415358   4.116   5.859   2.064  0.3086  0.5328  0.1424
 3897SOL     OW15359   4.789   5.332   4.428 -0.3375 -0.2585 -0.5115
 3897SOL    HW215360   4.770   5.262   4.490  1.4097 -0.0351  0.3227
 3897SOL    HW315361   4.789   5.412   4.480  0.1161  0.0663 -0.9986
 3897SOL    MW415362   4.786   5.334   4.443 -0.0471 -0.1862 -0.4657
 3898SOL     OW15363   5.800   0.259   6.344 -0.4754  0.1155  0.1108
 3898SOL    HW215364   5.736   0.297   6.285 -1.0712 -1.3624 -0.2412
 3898SOL    HW315365   5.756   0.254   6.429  0.1564  1.6375  0.5601
 3898SOL    MW415366   5.786   0.263   6.348 -0.4706  0.1213  0.1236
 3899SOL     OW15367   2.023   3.013   1.690  0.6730 -0.0944  0.1054
 3899SOL    HW215368   2.116   3.025   1.704  0.7687 -1.3691  0.6564
 3899SOL    HW315369   1.983   3.097   1.715  1.6581  0.4606 -0.1570
 3899SOL    MW415370   2.030   3.026   1.695  0.8156 -0.1894  0.1434
 3900SOL     OW15371   1.493   0.304   5.767 -0.6843  0.0755 -0.4852
 3900SOL    HW215372   1.413   0.262   5.798 -0.1028 -0.6822  0.0139
 3900SOL    HW315373   1.535   0.339   5.846  0.6622 -1.6155 -0.3910
 3900SOL    MW415374   1.488   0.303   5.781 -0.4299 -0.2475 -0.4070
 3901SOL     OW15375   1.114   2.022   5.166  0.0061 -0.2940 -0.0507
 3901SOL    HW215376   1.098   1.980   5.250  0.8699 -0.9973 -0.2268
 3901SOL    HW315377   1.073   1.964   5.102 -0.7020  0.2702 -0.1280
 3901SOL    MW415378   1.106   2.009   5.169  0.0266 -0.3123 -0.0841
 3902SOL     OW15379   3.264   2.707   3.960 -0.0658 -0.2824  0.1999
 3902SOL    HW215380   3.342   2.661   3.988 -0.1846 -1.3384 -1.1081
 3902SOL    HW315381   3.191   2.654   3.994 -0.2127  0.1026  0.4914
 3902SOL    MW415382   3.264   2.694   3.968 -0.1009 -0.3709  0.0658
 3903SOL     OW15383   5.321   2.755   1.653  0.5270 -0.0984  0.3740
 3903SOL    HW215384   5.391   2.818   1.667  1.3663 -0.8546 -0.3087
 3903SOL    HW315385   5.328   2.731   1.560 -0.7358 -0.0756  0.2463
 3903SOL    MW415386   5.331   2.761   1.642  0.4711 -0.1951  0.2671
 3904SOL     OW15387   0.525   4.564   0.824  0.6550  0.0313  0.1561
 3904SOL    HW215388   0.555   4.555   0.914 -1.5822  1.1761  1.0757
 3904SOL    HW315389   0.548   4.654   0.799  1.6350 -0.4087 -0.5847
 3904SOL    MW415390   0.532   4.575   0.833  0.4891  0.1243  0.1797
 3905SOL     OW15391   5.346   0.233   5.786 -0.4618  0.2771 -0.4135
 3905SOL    HW215392   5.427   0.218   5.737  0.3934  0.2703  0.9408
 3905SOL    HW315393   5.355   0.178   5.863 -1.5531  0.6464 -0.0135
 3905SOL    MW415394   5.358   0.224   5.789 -0.4929  0.3249 -0.1820
 3906SOL     OW15395   5.275   2.870   2.917 -0.2873  0.4183  1.0725
 3906SOL    HW215396   5.320   2.837   2.996  0.5151  0.1523  0.5172
 3906SOL    HW315397   5.261   2.791   2.864 -0.6141  0.6297  0.8478
 3906SOL    MW415398   5.279   2.855   2.921 -0.2246  0.4111  0.9696
 3907SOL     OW15399   3.376   0.330   1.584  0.3412  0.0355 -0.1300
 3907SOL    HW215400   3.322   0.354   1.659  1.2473  0.8314  0.2939
 3907SOL    HW315401   3.466   0.344   1.614  0.7605 -0.5742 -1.0478
 3907SOL    MW415402   3.381   0.335   1.598  0.5161  0.0601 -0.1952
 3908SOL     OW15403   4.186   2.333   0.956  0.3231 -0.1955 -0.4795
 3908SOL    HW215404   4.252   2.270   0.927  2.3206  0.0264  3.0430
 3908SOL    HW315405   4.142   2.289   1.029  0.1787  1.5729  0.5644
 3908SOL    MW415406   4.189   2.319   0.962  0.5676  0.0671  0.1230
 3909SOL     OW15407   3.102   1.196   4.694 -0.4338  0.1237  0.5088
 3909SOL    HW215408   3.092   1.129   4.627  1.1349  2.4273 -2.2519
 3909SOL    HW315409   3.194   1.223   4.688 -1.0182  2.5889  1.4084
 3909SOL    MW415410   3.113   1.191   4.685 -0.3040  0.7529  0.2632
 3910SOL     OW15411   1.464   3.170   2.249 -0.5142 -0.7965 -0.0912
 3910SOL    HW215412   1.519   3.187   2.173  1.2164 -0.7418  1.1295
 3910SOL    HW315413   1.400   3.242   2.249 -1.5497 -1.6205 -2.3026
 3910SOL    MW415414   1.463   3.181   2.239 -0.4225 -0.8980 -0.2220
 3911SOL     OW15415   0.813   4.368   2.202 -0.0657 -0.1945  0.1744
 3911SOL    HW215416   0.889   4.367   2.145 -0.5485  2.3274 -0.6172
 3911SOL    HW315417   0.826   4.443   2.260 -1.6109 -0.1183  0.4766
 3911SOL    MW415418   0.825   4.377   2.202 -0.3333  0.1483  0.1098
 3912SOL     OW15419   1.545   4.511   4.876  0.7234 -0.2611  0.4146
 3912SOL    HW215420   1.505   4.448   4.816 -0.2112  1.9480 -1.4257
 3912SOL    HW315421   1.471   4.545   4.927  0.9162  0.6587  0.0919
 3912SOL    MW415422   1.530   4.507   4.875  0.6256  0.1517  0.1292
 3913SOL     OW15423   0.343   0.500   2.404 -0.1386 -0.0656 -0.0075
 3913SOL    HW215424   0.369   0.462   2.320  0.4419 -3.3112  1.4716
 3913SOL    HW315425   0.267   0.554   2.384  1.1027  0.8318 -2.8446
 3913SOL    MW415426   0.337   0.502   2.391  0.1018 -0.3754 -0.1867
 3914SOL     OW15427   2.299   6.324   4.728 -0.0495 -0.1302 -0.5769
 3914SOL    HW215428   2.231   6.256   4.727  0.1716 -0.3961  0.5587
 3914SOL    HW315429   2.312   6.342   4.821  0.6525  0.7131 -0.8342
 3914SOL    MW415430   2.292   6.317   4.740  0.0723 -0.0540 -0.4610
 3915SOL     OW15431   1.561   4.140   3.226  0.1644  0.8446  0.2228
 3915SOL    HW215432   1.545   4.137   3.320  1.4445 -1.5798  0.4451
 3915SOL    HW315433   1.634   4.201   3.216 -3.0537  5.0949  0.1193
 3915SOL    MW415434   1.569   4.147   3.237 -0.0913  1.0855  0.2385
 3916SOL     OW15435   3.029   1.686   3.480 -0.5677 -0.1385 -0.0001
 3916SOL    HW215436   2.994   1.629   3.548 -1.0101 -0.6390 -0.6346
 3916SOL    HW315437   3.031   1.632   3.401  0.7388  0.1746 -0.2113
 3916SOL    MW415438   3.025   1.671   3.478 -0.4537 -0.1633 -0.1117
 3917SOL     OW15439   3.075   4.005   3.267 -0.2450  0.0513 -0.4657
 3917SOL    HW215440   3.146   4.068   3.277 -1.5357  1.5991 -0.6081
 3917SOL    HW315441   3.060   4.002   3.172  1.0803 -2.0024 -0.6630
 3917SOL    MW415442   3.083   4.013   3.256 -0.2405 -0.0155 -0.5105
 3918SOL     OW15443   2.735   5.095   4.435  0.1600 -0.1925  0.4006
 3918SOL    HW215444   2.789   5.146   4.374 -2.5067  0.7810 -1.3489
 3918SOL    HW315445   2.706   5.158   4.500 -1.4793  0.1588 -0.5979
 3918SOL    MW415446   2.738   5.110   4.435 -0.4081 -0.0177  0.0380
 3919SOL     OW15447   3.052   6.276   3.070 -0.7622 -0.4241 -0.9227
 3919SOL    HW215448   2.999   6.323   3.135 -0.2683 -1.4239  0.2404
 3919SOL    HW315449   3.129   6.332   3.059 -2.3970  1.6049 -3.4418
 3919SOL    MW415450   3.055   6.290   3.077 -0.9128 -0.2883 -1.1016
 3920SOL     OW15451   3.754   5.577   1.119  0.0277  0.3607 -0.1231
 3920SOL    HW215452   3.671   5.544   1.086 -0.3199 -0.2820  1.3273
 3920SOL    HW315453   3.738   5.669   1.138 -0.0717  0.4703 -0.7186
 3920SOL    MW415454   3.741   5.585   1.117 -0.0313  0.2903 -0.0103
 3921SOL     OW15455   5.126   0.277   3.662  0.1036  0.3939  0.0586
 3921SOL    HW215456   5.097   0.298   3.574 -0.0241  0.2815  0.0729
 3921SOL    HW315457   5.091   0.347   3.717 -0.2477  0.1890  0.0943
 3921SOL    MW415458   5.118   0.289   3.658  0.0404  0.3520  0.0652
 3922SOL     OW15459   5.890   2.985   5.060  0.3367 -0.6755 -0.0327
 3922SOL    HW215460   5.919   3.010   5.147 -0.1397  0.4914 -0.1934
 3922SOL    HW315461   5.816   3.043   5.041  0.7712 -0.5261 -1.4203
 3922SOL    MW415462   5.884   2.996   5.069  0.3312 -0.5019 -0.2370
 3923SOL     OW15463   4.385   0.270   3.104  0.5132 -0.2825 -0.4468
 3923SOL    HW215464   4.435   0.188   3.098  2.2819  0.6556  0.5457
 3923SOL    HW315465   4.357   0.287   3.014  0.7235 -1.6088 -0.7870
 3923SOL    MW415466   4.388   0.261   3.091  0.7743 -0.3337 -0.3607
 3924SOL     OW15467   0.637   0.887   1.206  0.2025 -0.0016 -0.4400
 3924SOL    HW215468   0.639   0.940   1.127  1.4895 -1.1094 -1.1739
 3924SOL    HW315469   0.554   0.911   1.248  0.1840  1.6752 -1.3505
 3924SOL    MW415470   0.626   0.897   1.201  0.3698  0.0734 -0.6570
 3925SOL     OW15471   3.313   5.204   5.224  0.2207 -0.2249 -0.0059
 3925SOL    HW215472   3.340   5.143   5.293  2.3112  0.1783 -0.3945
 3925SOL    HW315473   3.277   5.148   5.155  0.9570 -0.9238  0.1590
 3925SOL    MW415474   3.312   5.189   5.224  0.5937 -0.2639 -0.0354
 3926SOL     OW15475   4.161   4.912   5.501 -0.1671 -0.0542  0.1133
 3926SOL    HW215476   4.164   4.945   5.411 -0.8162  0.1959  0.1788
 3926SOL    HW315477   4.250   4.924   5.534  0.2219 -0.6789 -0.6797
 3926SOL    MW415478   4.173   4.918   5.493 -0.2014 -0.1036  0.0173
 3927SOL     OW15479   0.023   0.250   0.656 -0.2897 -0.3449 -0.2209
 3927SOL    HW215480   0.099   0.307   0.646 -1.4887  1.0998 -1.4087
 3927SOL    HW315481   0.034   0.213   0.744  0.6878  1.4853  0.4984
 3927SOL    MW415482   0.035   0.253   0.667 -0.3189  0.0872 -0.2827
 3928SOL     OW15483   5.470   4.579   2.878 -0.0825 -0.4524 -0.2452
 3928SOL    HW215484   5.562   4.550   2.881  0.0023 -0.1144  0.9789
 3928SOL    HW315485   5.424   4.518   2.934 -0.1909  0.7197  0.9984
 3928SOL    MW415486   5.476   4.567   2.886 -0.0856 -0.2532  0.0804
 3929SOL     OW15487   1.414   1.726   5.663 -0.1481  0.2533  0.4431
 3929SOL    HW215488   1.386   1.733   5.754  0.5274 -0.7744  0.7517
 3929SOL    HW315489   1.373   1.646   5.631 -0.1796  0.4757 -0.0872
 3929SOL    MW415490   1.405   1.716   5.671 -0.0631  0.1471  0.4139
 3930SOL     OW15491   2.187   5.643   4.411  0.1381 -0.0973  0.6447
 3930SOL    HW215492   2.142   5.719   4.448  0.9051  0.5207  0.3410
 3930SOL    HW315493   2.265   5.680   4.370  1.1024 -1.1847  1.4580
 3930SOL    MW415494   2.191   5.658   4.410  0.3665 -0.1592  0.7119
 3931SOL     OW15495   3.666   3.962   4.951 -0.2983 -0.9535  0.2031
 3931SOL    HW215496   3.670   3.940   4.858  0.7370 -1.1417  0.2893
 3931SOL    HW315497   3.685   4.055   4.955  1.5892 -1.3097  0.3707
 3931SOL    MW415498   3.669   3.971   4.939  0.0873 -1.0254  0.2366
 3932SOL     OW15499   4.426   0.224   4.813  0.5252  0.4195 -0.4868
 3932SOL    HW215500   4.429   0.289   4.742  0.9900  0.2342 -0.6417
 3932SOL    HW315501   4.516   0.222   4.847  0.5140 -0.1305 -0.4763
 3932SOL    MW415502   4.439   0.232   4.808  0.5850  0.3225 -0.5059
 3933SOL     OW15503   1.442   4.687   1.420 -0.0273 -0.1425 -0.0152
 3933SOL    HW215504   1.533   4.664   1.439 -0.2326 -0.2695  0.8550
 3933SOL    HW315505   1.444   4.721   1.331  0.6111 -1.6499 -0.6119
 3933SOL    MW415506   1.454   4.688   1.411  0.0298 -0.3582  0.0209
 3934SOL     OW15507   4.577   4.926   3.977  0.6380 -0.3742 -0.0144
 3934SOL    HW215508   4.514   4.938   3.906  1.8260  1.9873 -0.7675
 3934SOL    HW315509   4.617   4.841   3.960 -0.3326 -0.6301 -1.1470
 3934SOL    MW415510   4.574   4.916   3.965  0.6667 -0.0964 -0.2632
 3935SOL     OW15511   1.024   6.084   5.637 -0.2442  0.3843  0.0754
 3935SOL    HW215512   1.021   6.085   5.733 -4.5088 -1.1322  0.1619
 3935SOL    HW315513   1.099   6.028   5.616 -0.1899 -0.6097  2.5775
 3935SOL    MW415514   1.034   6.077   5.647 -0.7997  0.0531  0.4170
 3936SOL     OW15515   0.212   5.716   0.617  0.3697 -0.0662 -0.5891
 3936SOL    HW215516   0.213   5.705   0.521  0.4420 -0.5530 -0.5345
 3936SOL    HW315517   0.173   5.803   0.630 -2.0115 -0.9993 -0.9742
 3936SOL    MW415518   0.207   5.726   0.606  0.0651 -0.2535 -0.6327
 3937SOL     OW15519   5.323   1.449   0.846 -0.0415 -0.6474 -0.0425
 3937SOL    HW215520   5.244   1.411   0.884  0.2993 -1.6442 -0.2865
 3937SOL    HW315521   5.299   1.538   0.823 -0.2569  0.0227  2.4970
 3937SOL    MW415522   5.310   1.456   0.848 -0.0250 -0.6905  0.2604
 3938SOL     OW15523   4.111   3.838   0.072 -0.1681 -0.0040 -0.3428
 3938SOL    HW215524   4.081   3.778   0.004  1.0341  0.2893 -1.1614
 3938SOL    HW315525   4.196   3.802   0.099 -0.4159  0.1474  0.6723
 3938SOL    MW415526   4.118   3.825   0.067 -0.0422  0.0547 -0.3169
 3939SOL     OW15527   0.206   5.528   1.622  0.5203 -0.1690 -0.5402
 3939SOL    HW215528   0.143   5.547   1.691 -0.2670  0.1963 -1.3517
 3939SOL    HW315529   0.154   5.510   1.544  1.3782 -1.2472 -0.8940
 3939SOL    MW415530   0.191   5.529   1.621  0.5296 -0.2630 -0.6940
 3940SOL     OW15531   5.234   2.149   0.822 -0.4413  0.1497  0.2274
 3940SOL    HW215532   5.203   2.219   0.765  0.8820 -0.7465 -1.6769
 3940SOL    HW315533   5.329   2.147   0.810 -0.2978 -1.0611  1.3117
 3940SOL    MW415534   5.242   2.158   0.813 -0.2478 -0.1283  0.1192
 3941SOL     OW15535   4.886   6.257   1.107  0.4171 -0.4879 -0.3150
 3941SOL    HW215536   4.886   6.215   1.021 -1.5063  0.5091 -0.8525
 3941SOL    HW315537   4.905   6.349   1.089  1.2735 -0.4941  0.4837
 3941SOL    MW415538   4.889   6.264   1.093  0.2763 -0.3571 -0.2806
 3942SOL     OW15539   5.955   5.732   2.274  0.5324 -0.0666  0.2522
 3942SOL    HW215540   5.954   5.693   2.186  0.6737  0.8146 -0.1525
 3942SOL    HW315541   6.048   5.737   2.297  0.5269  0.1916  0.2235
 3942SOL    MW415542   5.967   5.728   2.265  0.5503  0.0837  0.1950
 3943SOL     OW15543   6.201   5.822   3.849 -0.4705 -0.8894 -0.9211
 3943SOL    HW215544   6.233   5.803   3.937  1.1784 -2.3381 -1.7510
 3943SOL    HW315545   6.118   5.868   3.862  1.2137  1.8125  1.4000
 3943SOL    MW415546   6.194   5.826   3.862 -0.0308 -0.7240 -0.7244
 3944SOL     OW15547   3.444   4.550   3.515 -0.6106 -0.0133 -0.3657
 3944SOL    HW215548   3.423   4.497   3.591  1.6347 -2.1346 -1.1254
 3944SOL    HW315549   3.494   4.624   3.550  3.1563 -2.5422  0.1324
 3944SOL    MW415550   3.448   4.553   3.529  0.1826 -0.6269 -0.4002
 3945SOL     OW15551   1.647   2.755   4.721 -0.0376 -0.1253 -0.4434
 3945SOL    HW215552   1.680   2.728   4.806 -0.7327  1.1116  0.2503
 3945SOL    HW315553   1.665   2.849   4.717 -2.0590  0.2820 -0.6852
 3945SOL    MW415554   1.654   2.764   4.731 -0.3960  0.0916 -0.3838
 3946SOL     OW15555   1.732   6.422   0.483  0.0112  0.6948  0.4313
 3946SOL    HW215556   1.756   6.513   0.504 -0.6054  0.6785  1.2523
 3946SOL    HW315557   1.776   6.370   0.549  0.4810  0.3701 -0.1274
 3946SOL    MW415558   1.741   6.427   0.494 -0.0081  0.6498  0.4659
 3947SOL     OW15559   2.877   5.665   1.738  0.8206  0.1381 -0.0582
 3947SOL    HW215560   2.877   5.690   1.831  2.5323  1.5210 -0.3777
 3947SOL    HW315561   2.865   5.570   1.739  0.2051  0.1980  1.5410
 3947SOL    MW415562   2.875   5.656   1.751  0.9652  0.3285  0.1106
 3948SOL     OW15563   3.159   0.971   0.089 -0.1885 -0.5760  0.2229
 3948SOL    HW215564   3.095   1.008   0.151 -0.3165  0.0517 -0.2688
 3948SOL    HW315565   3.149   1.025   0.011  0.0204 -1.3200 -0.3213
 3948SOL    MW415566   3.149   0.983   0.087 -0.1778 -0.5913  0.0862
 3949SOL     OW15567   6.158   3.417   2.869  0.6186  0.1524 -0.0591
 3949SOL    HW215568   6.134   3.342   2.923  0.6400  0.2539  0.0923
 3949SOL    HW315569   6.093   3.418   2.799  0.1825  0.4227  0.3463
 3949SOL    MW415570   6.146   3.407   2.867  0.5639  0.2015  0.0144
 3950SOL     OW15571   4.802   5.612   5.433 -0.4204 -0.2338 -0.1679
 3950SOL    HW215572   4.887   5.655   5.440 -1.0245  1.3765 -1.6797
 3950SOL    HW315573   4.822   5.519   5.425  1.3426  0.2305 -2.0227
 3950SOL    MW415574   4.816   5.606   5.433 -0.2675  0.0399 -0.6121
 3951SOL     OW15575   5.071   5.673   5.464 -0.3542 -0.6002 -0.1125
 3951SOL    HW215576   5.144   5.611   5.472  0.0252 -0.8647 -3.6342
 3951SOL    HW315577   5.114   5.756   5.442 -1.0242 -0.3477 -0.4805
 3951SOL    MW415578   5.087   5.676   5.462 -0.3925 -0.6018 -0.6257
 3952SOL     OW15579   0.596   2.556   2.312 -0.2091 -0.1102  0.0081
 3952SOL    HW215580   0.606   2.597   2.398  2.8366 -0.5435 -0.0548
 3952SOL    HW315581   0.631   2.621   2.251 -1.1919 -0.3214 -0.8128
 3952SOL    MW415582   0.602   2.570   2.315  0.0630 -0.1953 -0.1085
 3953SOL     OW15583   3.745   4.455   2.857 -0.1429 -0.3601  0.0697
 3953SOL    HW215584   3.697   4.536   2.840  0.0943 -0.3049 -0.3459
 3953SOL    HW315585   3.805   4.446   2.783  0.1462 -0.6835  0.3364
 3953SOL    MW415586   3.747   4.465   2.845 -0.0735 -0.3955  0.0500
 3954SOL     OW15587   2.487   3.333   5.746 -0.2405 -0.7534  0.2990
 3954SOL    HW215588   2.577   3.311   5.768 -0.6881 -1.6752  1.2563
 3954SOL    HW315589   2.464   3.271   5.677 -0.0303 -0.2409 -0.2519
 3954SOL    MW415590   2.496   3.322   5.740 -0.2718 -0.8074  0.3527
 3955SOL     OW15591   2.935   3.786   0.673  0.3884 -0.3376  0.2477
 3955SOL    HW215592   2.879   3.758   0.601  0.2130 -0.9868  0.6284
 3955SOL    HW315593   3.001   3.716   0.680  0.4801 -0.2145  0.6325
 3955SOL    MW415594   2.937   3.773   0.664  0.3773 -0.4070  0.3487
 3956SOL     OW15595   4.905   0.186   4.658 -0.4275  0.0483 -0.0986
 3956SOL    HW215596   4.923   0.103   4.615  0.3870 -0.5939  1.4043
 3956SOL    HW315597   4.814   0.206   4.636 -0.7181 -1.3718 -0.2545
 3956SOL    MW415598   4.896   0.178   4.649 -0.3584 -0.2238  0.0791
 3957SOL     OW15599   3.630   4.815   1.045 -0.0715  0.4663  0.1941
 3957SOL    HW215600   3.630   4.735   0.992 -0.2694 -0.8875  2.1095
 3957SOL    HW315601   3.705   4.865   1.013 -1.1969  0.6063 -2.5175
 3957SOL    MW415602   3.640   4.811   1.034 -0.2461  0.3062  0.0891
 3958SOL     OW15603   2.184   1.063   4.105  0.3532  0.0275  0.0592
 3958SOL    HW215604   2.098   1.061   4.064 -0.3372 -0.3766  1.4671
 3958SOL    HW315605   2.219   0.975   4.091 -0.1232 -0.2926  0.7771
 3958SOL    MW415606   2.177   1.051   4.098  0.1992 -0.0680  0.3397
 3959SOL     OW15607   1.931   5.294   2.341 -0.1400 -0.6398 -0.3632
 3959SOL    HW215608   1.883   5.214   2.364 -1.3384  0.3929  0.9673
 3959SOL    HW315609   1.885   5.363   2.389  1.8375  0.6340 -0.2100
 3959SOL    MW415610   1.918   5.293   2.350 -0.0372 -0.3355 -0.1674
 3960SOL     OW15611   4.116   0.735   0.734  0.1541  0.3049  0.3095
 3960SOL    HW215612   4.116   0.792   0.657 -0.5057 -0.3277 -0.1840
 3960SOL    HW315613   4.110   0.795   0.809 -0.5773  0.8862 -0.1984
 3960SOL    MW415614   4.115   0.751   0.734 -0.0294  0.2981  0.1774
 3961SOL     OW15615   0.323   6.205   4.235 -0.7605  0.0355  0.1399
 3961SOL    HW215616   0.271   6.218   4.314  0.5045 -2.3081  1.4800
 3961SOL    HW315617   0.413   6.225   4.262 -0.2622 -1.1110 -0.5850
 3961SOL    MW415618   0.328   6.209   4.249 -0.5278 -0.4250  0.2211
 3962SOL     OW15619   3.125   0.361   6.309  0.1455 -0.1581  0.5989
 3962SOL    HW215620   3.079   0.425   6.363 -0.6503  0.2697 -0.5363
 3962SOL    HW315621   3.208   0.404   6.286 -0.1528  0.2572  0.2832
 3962SOL    MW415622   3.130   0.375   6.313  0.0011 -0.0468  0.4075
 3963SOL     OW15623   4.731   3.755   0.094 -0.3693 -0.0570  0.1314
 3963SOL    HW215624   4.717   3.684   0.156 -0.7802  0.4140  0.5916
 3963SOL    HW315625   4.824   3.777   0.104 -0.1028 -0.9099 -0.4356
 3963SOL    MW415626   4.741   3.749   0.104 -0.3883 -0.1074  0.1173
 3964SOL     OW15627   4.487   1.509   0.723 -0.3058 -0.1041  0.7132
 3964SOL    HW215628   4.423   1.480   0.658 -1.2794  0.8893  1.1930
 3964SOL    HW315629   4.540   1.574   0.676 -0.8261  0.4039  0.8125
 3964SOL    MW415630   4.486   1.514   0.708 -0.5029  0.0939  0.7896
 3965SOL     OW15631   5.624   1.983   1.386  0.0868 -0.1498  0.0761
 3965SOL    HW215632   5.642   2.009   1.296  1.6450  1.8978  0.8930
 3965SOL    HW315633   5.559   1.913   1.378 -2.3928  2.1629 -2.4907
 3965SOL    MW415634   5.618   1.977   1.373 -0.0348  0.4255 -0.1548
 3966SOL     OW15635   6.006   1.361   4.695  0.6268 -0.1386  0.2559
 3966SOL    HW215636   5.987   1.443   4.741  1.1495  0.1053  0.0371
 3966SOL    HW315637   5.923   1.338   4.652  0.9412  1.2146 -1.1576
 3966SOL    MW415638   5.992   1.368   4.696  0.7372  0.0722  0.0405
 3967SOL     OW15639   2.889   5.302   4.275  0.0542 -0.0368 -0.2966
 3967SOL    HW215640   2.804   5.311   4.233 -0.6338  0.8980  1.2381
 3967SOL    HW315641   2.931   5.387   4.263 -0.3222  0.3904  1.2147
 3967SOL    MW415642   2.883   5.314   4.267 -0.0863  0.1429  0.1053
 3968SOL     OW15643   6.175   4.881   5.890  0.7193  0.1845 -0.2558
 3968SOL    HW215644   6.232   4.903   5.964 -0.3541  1.1071  0.3328
 3968SOL    HW315645   6.192   4.788   5.872  2.1705  0.3712  0.0866
 3968SOL    MW415646   6.184   4.871   5.897  0.7691  0.3309 -0.1330
 3969SOL     OW15647   3.190   0.263   2.453  0.1113 -0.0135 -0.1027
 3969SOL    HW215648   3.148   0.177   2.452  1.1670 -0.5713  1.0305
 3969SOL    HW315649   3.275   0.247   2.493  0.9589  1.2948 -1.3174
 3969SOL    MW415650   3.196   0.249   2.459  0.3624  0.0855 -0.1134
 3970SOL     OW15651   0.332   6.367   4.017  0.0058 -0.1810  0.3270
 3970SOL    HW215652   0.392   6.437   4.044  2.5120 -1.8008 -0.6644
 3970SOL    HW315653   0.339   6.302   4.087  0.8627 -1.1667 -0.6351
 3970SOL    MW415654   0.341   6.368   4.030  0.4495 -0.5248  0.0692
 3971SOL     OW15655   0.951   3.363   0.739 -0.4193 -0.2320 -0.1026
 3971SOL    HW215656   0.940   3.457   0.747 -0.0482 -0.2228  0.3494
 3971SOL    HW315657   0.983   3.350   0.650 -1.5555 -0.0396 -0.5522
 3971SOL    MW415658   0.954   3.374   0.728 -0.5202 -0.2054 -0.1023
 3972SOL     OW15659   1.927   1.276   6.182  0.5148 -0.1178 -0.2041
 3972SOL    HW215660   1.999   1.328   6.146  0.5170  0.1545  0.1926
 3972SOL    HW315661   1.970   1.212   6.238  0.5036 -0.4754 -0.6003
 3972SOL    MW415662   1.943   1.275   6.185  0.5136 -0.1291 -0.2040
 3973SOL     OW15663   2.229   6.377   4.166 -0.1787  0.1469  0.0861
 3973SOL    HW215664   2.238   6.423   4.082 -0.2918 -0.6129 -0.3483
 3973SOL    HW315665   2.173   6.302   4.146  0.0120 -0.1819  0.7870
 3973SOL    MW415666   2.223   6.373   4.152 -0.1684  0.0033  0.1212
 3974SOL     OW15667   0.018   4.880   3.195  0.5437 -0.0257  0.6054
 3974SOL    HW215668   0.071   4.914   3.267  1.5960  1.2963 -0.7342
 3974SOL    HW315669   0.081   4.843   3.134 -0.2150 -0.0077 -0.2171
 3974SOL    MW415670   0.033   4.879   3.196  0.5824  0.1511  0.3202
 3975SOL     OW15671   2.826   2.293   4.008  0.4025 -0.4893  0.4007
 3975SOL    HW215672   2.807   2.212   3.962 -0.0500 -0.0185 -0.2727
 3975SOL    HW315673   2.864   2.350   3.942  0.9715 -0.2368  0.9305
 3975SOL    MW415674   2.829   2.290   3.994  0.4178 -0.3939  0.3818
 3976SOL     OW15675   1.437   3.349   1.815 -0.0790 -0.2269  0.0111
 3976SOL    HW215676   1.441   3.442   1.793 -0.5033  0.0806  1.1645
 3976SOL    HW315677   1.350   3.337   1.854 -0.1103 -1.1521 -0.3132
 3976SOL    MW415678   1.426   3.359   1.817 -0.1391 -0.3084  0.1205
 3977SOL     OW15679   3.157   1.570   5.628  0.5956 -0.2836 -0.0209
 3977SOL    HW215680   3.150   1.640   5.563  0.8221 -3.4083 -3.7946
 3977SOL    HW315681   3.251   1.556   5.639  0.5656  0.4716  1.3644
 3977SOL    MW415682   3.168   1.577   5.620  0.6216 -0.5962 -0.3360
 3978SOL     OW15683   4.335   2.011   5.926 -0.3242 -0.2026  0.1662
 3978SOL    HW215684   4.374   2.037   6.010 -0.0690  0.8886 -0.2701
 3978SOL    HW315685   4.410   1.979   5.875 -0.6094 -1.7176  0.6356
 3978SOL    MW415686   4.350   2.010   5.931 -0.3282 -0.2585  0.1706
 3979SOL     OW15687   5.187   2.007   0.196  0.3285 -0.7609  0.0925
 3979SOL    HW215688   5.114   2.070   0.198 -1.6693 -2.7707 -2.1719
 3979SOL    HW315689   5.244   2.038   0.125  0.4893 -0.3657  0.3949
 3979SOL    MW415690   5.185   2.019   0.187  0.0861 -0.9739 -0.1663
 3980SOL     OW15691   3.191   0.917   1.496 -0.2296 -0.0323  0.4133
 3980SOL    HW215692   3.240   0.843   1.462 -1.8028 -0.6208 -0.7142
 3980SOL    HW315693   3.256   0.986   1.509  0.9263 -0.9010 -0.6205
 3980SOL    MW415694   3.206   0.916   1.493 -0.2847 -0.2246  0.1281
 3981SOL     OW15695   4.576   4.135   1.566 -0.5278  0.1655  0.0707
 3981SOL    HW215696   4.661   4.111   1.528 -0.5441  0.6971 -0.3063
 3981SOL    HW315697   4.569   4.080   1.645  1.2035  1.7224  1.4103
 3981SOL    MW415698   4.586   4.124   1.572 -0.3016  0.4410  0.1977
 3982SOL     OW15699   1.894   3.905   6.368  0.0915 -0.0160 -0.0896
 3982SOL    HW215700   1.865   3.977   6.312  1.4318  0.4236 -0.2544
 3982SOL    HW315701   1.885   3.827   6.313  0.2331  0.2509 -0.4983
 3982SOL    MW415702   1.889   3.905   6.353  0.2870  0.0772 -0.1653
 3983SOL     OW15703   0.969   6.344   3.959  0.0599  0.1769 -0.1617
 3983SOL    HW215704   1.025   6.395   4.018  1.2862  1.1036 -2.0434
 3983SOL    HW315705   1.029   6.286   3.912 -0.9660 -0.9517 -0.1419
 3983SOL    MW415706   0.984   6.343   3.961  0.0864  0.1503 -0.4073
 3984SOL     OW15707   3.733   2.403   1.740  0.6171  0.3026  1.0070
 3984SOL    HW215708   3.655   2.372   1.695  0.9653  0.2564  0.4219
 3984SOL    HW315709   3.786   2.324   1.752  1.4152  0.6014 -0.3028
 3984SOL    MW415710   3.730   2.389   1.736  0.7683  0.3360  0.7570
 3985SOL     OW15711   4.891   5.299   1.540 -0.2240  0.8554  0.5060
 3985SOL    HW215712   4.974   5.309   1.586 -0.9260 -1.0513  2.3499
 3985SOL    HW315713   4.825   5.329   1.603 -1.1681 -1.2985  0.6550
 3985SOL    MW415714   4.893   5.304   1.554 -0.4412  0.3197  0.7690
 3986SOL     OW15715   2.209   3.558   1.677  0.2130 -0.3738  0.2594
 3986SOL    HW215716   2.168   3.473   1.662 -0.5404 -0.1646  1.0759
 3986SOL    HW315717   2.137   3.616   1.703  0.3158  1.1290 -2.4722
 3986SOL    MW415718   2.194   3.555   1.679  0.1271 -0.1479  0.0067
 3987SOL     OW15719   3.636   1.730   1.089  0.0753  0.4247  0.3301
 3987SOL    HW215720   3.659   1.748   1.180  0.5987 -0.6519  0.4246
 3987SOL    HW315721   3.696   1.661   1.062 -0.4843  0.2994 -0.6469
 3987SOL    MW415722   3.647   1.723   1.097  0.0705  0.2661  0.2136
 3988SOL     OW15723   1.821   3.363   3.030  0.4582  0.5323 -0.1070
 3988SOL    HW215724   1.887   3.358   2.961 -0.7092 -0.4566 -1.2108
 3988SOL    HW315725   1.842   3.289   3.087  0.8427  0.7597  0.0485
 3988SOL    MW415726   1.832   3.353   3.028  0.3549  0.4318 -0.2321
 3989SOL     OW15727   4.905   5.606   4.262 -0.3424  0.7543  0.2906
 3989SOL    HW215728   4.922   5.646   4.177 -0.5421 -0.5393 -0.3927
 3989SOL    HW315729   4.939   5.517   4.254 -1.3995  0.2412  1.1583
 3989SOL    MW415730   4.911   5.600   4.250 -0.5082  0.5159  0.3150
 3990SOL     OW15731   2.915   3.339   0.648  0.1289 -0.7380 -0.4991
 3990SOL    HW215732   2.891   3.340   0.556 -0.4531 -0.0386 -0.3496
 3990SOL    HW315733   3.005   3.307   0.649  0.5488  0.3552 -1.4077
 3990SOL    MW415734   2.924   3.335   0.636  0.1075 -0.5015 -0.5992
 3991SOL     OW15735   4.288   4.384   1.284  0.3909 -0.3867 -0.3217
 3991SOL    HW215736   4.382   4.399   1.281  0.4710 -0.4132  1.2340
 3991SOL    HW315737   4.274   4.335   1.365 -1.0294  0.2433 -0.1511
 3991SOL    MW415738   4.298   4.380   1.295  0.2141 -0.3070 -0.0939
 3992SOL     OW15739   5.596   5.053   0.532 -0.4036  0.2865  0.6901
 3992SOL    HW215740   5.511   5.036   0.572 -0.5000 -0.4674  0.1850
 3992SOL    HW315741   5.575   5.107   0.455 -0.4264  0.0813  0.5528
 3992SOL    MW415742   5.582   5.058   0.527 -0.4193  0.1600  0.6053
 3993SOL     OW15743   5.731   3.548   4.219 -0.2095  0.3158 -0.1450
 3993SOL    HW215744   5.824   3.564   4.235 -0.5995  4.0811 -0.8311
 3993SOL    HW315745   5.723   3.539   4.124 -0.3670 -2.1956  0.0392
 3993SOL    MW415746   5.742   3.549   4.209 -0.2818  0.4812 -0.2112
 3994SOL     OW15747   3.614   5.735   2.132  0.1073  0.1321 -0.2070
 3994SOL    HW215748   3.533   5.763   2.174  0.2272  0.1216  0.0316
 3994SOL    HW315749   3.586   5.694   2.050 -0.1790 -0.5713  0.2380
 3994SOL    MW415750   3.600   5.733   2.127  0.0854  0.0379 -0.1168
 3995SOL     OW15751   1.107   5.711   4.756 -0.0860  0.6316  0.0123
 3995SOL    HW215752   1.180   5.755   4.798  0.4197 -1.2508  1.2221
 3995SOL    HW315753   1.138   5.691   4.668  0.8808 -0.1349  0.5101
 3995SOL    MW415754   1.120   5.714   4.750  0.1083  0.2821  0.2376
 3996SOL     OW15755   4.191   2.271   0.409 -0.3013 -0.4510 -0.3849
 3996SOL    HW215756   4.105   2.267   0.367 -0.1139  0.3066 -0.8640
 3996SOL    HW315757   4.181   2.339   0.476 -1.0516 -2.6969  1.9123
 3996SOL    MW415758   4.179   2.280   0.412 -0.3755 -0.6474 -0.1450
 3997SOL     OW15759   1.870   4.815   0.196  0.4986  0.6607  0.0324
 3997SOL    HW215760   1.919   4.784   0.120 -1.2715  2.6568 -2.0745
 3997SOL    HW315761   1.827   4.737   0.232 -1.1412  0.0474 -2.9868
 3997SOL    MW415762   1.871   4.801   0.191  0.0487  0.8432 -0.6440
 3998SOL     OW15763   3.990   3.067   3.075 -0.0624 -0.2082  0.5362
 3998SOL    HW215764   4.006   3.009   3.149  0.8681  0.5697  0.9520
 3998SOL    HW315765   4.048   3.034   3.006 -0.2484 -0.3626  0.4523
 3998SOL    MW415766   4.000   3.055   3.075  0.0359 -0.1259  0.5800
 3999SOL     OW15767   0.436   5.445   2.574 -0.2074 -0.0448  0.1626
 3999SOL    HW215768   0.443   5.361   2.618 -1.7578  0.0602  0.6745
 3999SOL    HW315769   0.482   5.433   2.491  2.3457 -0.4065  1.5204
 3999SOL    MW415770   0.443   5.433   2.569 -0.0751 -0.0787  0.4093
 4000SOL     OW15771   6.302   1.027   1.656 -0.3808 -0.7468  0.3062
 4000SOL    HW215772   6.390   1.053   1.628 -0.4256 -0.7081  0.2010
 4000SOL    HW315773   6.244   1.057   1.585 -0.4114 -1.3054  0.0890
 4000SOL    MW415774   6.306   1.034   1.643 -0.3907 -0.8154  0.2637
 4001SOL     OW15775   6.306   3.837   5.230  0.1172  0.4343 -0.1289
 4001SOL    HW215776   6.226   3.803   5.269  0.8032  0.0879  1.0401
 4001SOL    HW315777   6.338   3.766   5.174 -0.1956  0.4436 -0.3251
 4001SOL    MW415778   6.300   3.823   5.228  0.1664  0.3898 -0.0005
 4002SOL     OW15779   5.426   3.265   3.033  0.2662  0.3365  0.0333
 4002SOL    HW215780   5.394   3.345   2.991 -1.0145  1.7521  3.3782
 4002SOL    HW315781   5.513   3.289   3.066  1.2355 -0.7407 -1.6070
 4002SOL    MW415782   5.433   3.279   3.032  0.2251  0.3811  0.2582
 4003SOL     OW15783   2.412   2.974   0.509  0.0788  0.4762  0.1686
 4003SOL    HW215784   2.458   3.043   0.557  0.5862 -0.3025  0.8263
 4003SOL    HW315785   2.323   2.975   0.545  0.4473 -0.0897  1.1580
 4003SOL    MW415786   2.406   2.983   0.520  0.1943  0.2988  0.3859
 4004SOL     OW15787   5.370   4.965   2.284 -0.2670 -0.2158  0.1789
 4004SOL    HW215788   5.385   4.927   2.370 -0.7867  0.4648  0.5804
 4004SOL    HW315789   5.352   4.890   2.227 -0.5407 -0.6227  0.8013
 4004SOL    MW415790   5.369   4.950   2.288 -0.3717 -0.1797  0.3140
 4005SOL     OW15791   0.031   0.520   5.205 -0.2150  0.3661  0.2009
 4005SOL    HW215792  -0.043   0.573   5.176  0.2062  1.2658  0.7445
 4005SOL    HW315793   0.108   0.570   5.179  0.2184 -0.7563 -0.7228
 4005SOL    MW415794   0.031   0.534   5.198 -0.1022  0.3367  0.1508
 4006SOL     OW15795   0.659   5.860   2.842 -0.2051 -0.3635  0.4143
 4006SOL    HW215796   0.740   5.911   2.839  0.8221 -1.8621  1.2566
 4006SOL    HW315797   0.590   5.923   2.820  1.2259  0.8130 -0.9369
 4006SOL    MW415798   0.660   5.875   2.839  0.1193 -0.4060  0.3471
 4007SOL     OW15799   1.905   3.248   0.779  0.1255  0.0665 -0.0775
 4007SOL    HW215800   1.983   3.303   0.786 -0.4697  1.0098 -0.6602
 4007SOL    HW315801   1.935   3.160   0.803  1.1389  0.6019  0.6916
 4007SOL    MW415802   1.919   3.244   0.783  0.1807  0.2616 -0.0529
 4008SOL     OW15803   0.613   2.404   6.382 -0.0485 -0.3620 -0.4101
 4008SOL    HW215804   0.646   2.366   6.463 -0.5417 -0.8054 -0.4094
 4008SOL    HW315805   0.518   2.393   6.387 -0.1136 -0.0584 -0.8806
 4008SOL    MW415806   0.605   2.397   6.393 -0.1221 -0.3804 -0.4721
 4009SOL     OW15807   5.894   2.286   5.119  0.0962  0.0721  0.5835
 4009SOL    HW215808   5.956   2.231   5.166  0.6784  1.6627  1.7842
 4009SOL    HW315809   5.824   2.302   5.182 -1.8650 -2.0796 -0.8964
 4009SOL    MW415810   5.893   2.281   5.134 -0.0857 -0.0019  0.5467
 4010SOL     OW15811   2.346   0.126   1.824 -0.0359  0.8201  0.5476
 4010SOL    HW215812   2.284   0.104   1.754 -0.3889  1.2219  0.7261
 4010SOL    HW315813   2.403   0.050   1.831  0.3320  0.9695 -0.5288
 4010SOL    MW415814   2.345   0.113   1.816 -0.0340  0.8929  0.4292
 4011SOL     OW15815   5.771   2.667   2.697 -0.3419  0.1390  0.2593
 4011SOL    HW215816   5.742   2.728   2.764  1.8980 -0.1202  1.5785
 4011SOL    HW315817   5.747   2.581   2.731  0.2502  0.0462  0.4584
 4011SOL    MW415818   5.764   2.663   2.710  0.0317  0.0926  0.4596
 4012SOL     OW15819   1.817   4.843   2.721 -0.4245 -0.2670 -0.2409
 4012SOL    HW215820   1.756   4.884   2.782  0.1936 -1.3116  1.1238
 4012SOL    HW315821   1.865   4.917   2.683  0.5200  0.3665  1.9863
 4012SOL    MW415822   1.816   4.859   2.724 -0.2183 -0.3213  0.2330
 4013SOL     OW15823   0.161   5.494   4.640 -0.0945  0.1610  0.0898
 4013SOL    HW215824   0.217   5.483   4.564  1.5920  0.0173  1.2846
 4013SOL    HW315825   0.132   5.586   4.635  0.8040  0.4383 -0.2101
 4013SOL    MW415826   0.165   5.505   4.630  0.2466  0.1786  0.2079
 4014SOL     OW15827   1.682   1.690   3.711  0.1923  0.2543 -0.0798
 4014SOL    HW215828   1.598   1.735   3.705 -0.3530 -0.7889 -0.6053
 4014SOL    HW315829   1.697   1.655   3.623  0.3691 -0.9286  0.3936
 4014SOL    MW415830   1.673   1.691   3.699  0.1437 -0.0394 -0.0867
 4015SOL     OW15831   3.109   2.605   0.107  0.2343  0.2372  0.3839
 4015SOL    HW215832   3.144   2.523   0.143  0.2872  0.7366  1.5144
 4015SOL    HW315833   3.021   2.612   0.142 -0.1816  0.1192 -0.6170
 4015SOL    MW415834   3.102   2.595   0.117  0.1864  0.2875  0.4010
 4016SOL     OW15835   1.942   1.270   3.516  0.0131  0.6373  0.4251
 4016SOL    HW215836   1.957   1.198   3.454 -0.2533 -0.1513  1.2557
 4016SOL    HW315837   2.027   1.283   3.557  0.0997  0.9171  0.1666
 4016SOL    MW415838   1.955   1.262   3.513 -0.0106  0.5701  0.5006
 4017SOL     OW15839   6.285   0.341   5.383  0.1251  0.4450 -1.0916
 4017SOL    HW215840   6.276   0.394   5.463 -1.4066  3.1365 -2.8907
 4017SOL    HW315841   6.302   0.405   5.314  1.9059 -1.8485 -2.9022
 4017SOL    MW415842   6.286   0.357   5.385  0.1579  0.4975 -1.5678
 4018SOL     OW15843   3.625   3.827   2.298 -0.3147 -0.0210  0.6197
 4018SOL    HW215844   3.669   3.902   2.339 -0.3003  0.8532 -0.9326
 4018SOL    HW315845   3.691   3.787   2.243 -0.7022 -0.3624  0.3995
 4018SOL    MW415846   3.639   3.832   2.296 -0.3639  0.0493  0.3859
 4019SOL     OW15847   4.747   0.485   3.990 -0.4871  0.2123  0.5718
 4019SOL    HW215848   4.838   0.499   4.017 -0.9041  0.4540  1.9193
 4019SOL    HW315849   4.744   0.517   3.899  0.5940  0.9087  0.7635
 4019SOL    MW415850   4.759   0.491   3.981 -0.3995  0.3361  0.7749
 4020SOL     OW15851   5.237   0.802   4.960  0.1259 -0.1405 -0.3706
 4020SOL    HW215852   5.300   0.768   4.896 -2.3730 -2.2029 -1.9548
 4020SOL    HW315853   5.225   0.730   5.022 -1.5796 -0.3239 -0.8680
 4020SOL    MW415854   5.244   0.788   4.959 -0.4288 -0.4368 -0.6453
 4021SOL     OW15855   0.382   2.575   4.047  0.1470  0.3518 -0.0536
 4021SOL    HW215856   0.348   2.648   3.994  0.7150  1.5624  1.1734
 4021SOL    HW315857   0.364   2.601   4.137  1.7610 -0.2971  0.4936
 4021SOL    MW415858   0.375   2.588   4.052  0.4349  0.4259  0.1805
 4022SOL     OW15859   2.861   5.706   4.885  0.0623  0.1356 -0.5456
 4022SOL    HW215860   2.870   5.659   4.802  0.3424  0.0763 -0.4821
 4022SOL    HW315861   2.925   5.666   4.943  0.0086  0.3132 -0.3601
 4022SOL    MW415862   2.870   5.695   4.882  0.0921  0.1512 -0.5128
 4023SOL     OW15863   3.892   3.573   0.025  0.2429 -0.5862 -0.0886
 4023SOL    HW215864   3.809   3.619   0.031  1.7573  3.0461 -2.9989
 4023SOL    HW315865   3.873   3.495  -0.026 -1.7119 -1.0358  1.2467
 4023SOL    MW415866   3.879   3.569   0.019  0.1848 -0.1663 -0.2964
 4024SOL     OW15867   3.764   4.273   4.290  0.2825  0.4230  0.0654
 4024SOL    HW215868   3.785   4.365   4.273  1.9070 -0.0757 -0.9450
 4024SOL    HW315869   3.676   4.261   4.255 -0.0094  1.6034  0.3370
 4024SOL    MW415870   3.755   4.283   4.283  0.4583  0.5129 -0.0321
 4025SOL     OW15871   5.778   2.377   5.714 -0.2936 -0.3688  0.4281
 4025SOL    HW215872   5.814   2.434   5.646  0.0093  0.4780  1.2778
 4025SOL    HW315873   5.685   2.371   5.693 -0.1951 -0.1575 -0.0931
 4025SOL    MW415874   5.771   2.384   5.702 -0.2407 -0.2292  0.4714
 4026SOL     OW15875   5.497   0.521   5.753 -0.0977 -0.0654 -0.3832
 4026SOL    HW215876   5.478   0.427   5.759  2.5441 -0.6837 -0.3839
 4026SOL    HW315877   5.436   0.554   5.688 -3.0523 -1.1256  1.6104
 4026SOL    MW415878   5.487   0.513   5.746 -0.1390 -0.2869 -0.1203
 4027SOL     OW15879   5.050   2.333   5.087  0.1307 -0.1238 -0.1373
 4027SOL    HW215880   5.075   2.353   4.997  1.0188 -0.6747 -0.0312
 4027SOL    HW315881   4.955   2.328   5.085  0.0775  0.7673 -0.8471
 4027SOL    MW415882   5.041   2.335   5.075  0.2409 -0.0789 -0.2170
 4028SOL     OW15883   3.157   3.202   1.604  0.2367 -0.3246  0.1206
 4028SOL    HW215884   3.225   3.264   1.577 -0.5891  0.2814 -0.6209
 4028SOL    HW315885   3.140   3.224   1.695 -2.8309  3.3294 -1.0863
 4028SOL    MW415886   3.164   3.213   1.612 -0.2770  0.2375 -0.1365
 4029SOL     OW15887   0.742   1.130   2.066 -0.0882  0.7577 -0.2444
 4029SOL    HW215888   0.765   1.116   1.974  2.0797  2.4080 -0.0368
 4029SOL    HW315889   0.737   1.041   2.103  0.1989  0.1085 -1.7007
 4029SOL    MW415890   0.745   1.116   2.059  0.2357  0.8898 -0.4091
 4030SOL     OW15891   1.695   0.646   4.507  0.2527 -0.1351 -0.1632
 4030SOL    HW215892   1.629   0.703   4.546  0.7760 -0.3308  1.0373
 4030SOL    HW315893   1.752   0.705   4.458  0.9359  0.4479  1.2681
 4030SOL    MW415894   1.694   0.661   4.506  0.4118 -0.0840  0.1840
 4031SOL     OW15895   3.760   2.741   1.166  0.2071  0.0957  0.8070
 4031SOL    HW215896   3.768   2.668   1.104  1.0690  1.3283 -0.6147
 4031SOL    HW315897   3.795   2.707   1.248  1.6365 -0.7628 -0.1196
 4031SOL    MW415898   3.765   2.727   1.169  0.5094  0.1451  0.4972
 4032SOL     OW15899   4.813   3.179   3.784 -0.2252  0.5160 -0.0476
 4032SOL    HW215900   4.816   3.090   3.749 -0.9649  0.0312  1.0537
 4032SOL    HW315901   4.905   3.207   3.789  0.0524 -0.4258  0.1879
 4032SOL    MW415902   4.826   3.171   3.780 -0.2862  0.3278  0.1288
 4033SOL     OW15903   3.947   4.580   4.626  0.3397  0.0068 -0.5090
 4033SOL    HW215904   3.971   4.533   4.706 -0.7474 -1.3865 -0.9519
 4033SOL    HW315905   3.894   4.517   4.577 -2.1574  2.0560 -0.6494
 4033SOL    MW415906   3.943   4.565   4.630 -0.1332  0.0933 -0.5860
 4034SOL     OW15907   1.194   3.767   4.192  0.0660  0.3730  0.4956
 4034SOL    HW215908   1.148   3.719   4.262 -1.0931 -2.6971 -2.0830
 4034SOL    HW315909   1.135   3.759   4.116  2.4353  1.1055 -1.5451
 4034SOL    MW415910   1.180   3.760   4.191  0.2257  0.0646 -0.1139
 4035SOL     OW15911   0.521   2.945   4.220 -0.1178  0.5424 -0.0865
 4035SOL    HW215912   0.593   2.938   4.157 -1.7985 -2.9839 -1.9099
 4035SOL    HW315913   0.442   2.949   4.167 -1.4648  0.7481  1.8245
 4035SOL    MW415914   0.520   2.944   4.205 -0.5173  0.1043 -0.0749
 4036SOL     OW15915   2.653   4.926   5.975 -0.4824 -0.0668 -0.3698
 4036SOL    HW215916   2.593   4.969   5.915 -1.2913  0.0695  0.5015
 4036SOL    HW315917   2.738   4.968   5.960 -0.5568 -0.3693 -1.7303
 4036SOL    MW415918   2.657   4.937   5.965 -0.5990 -0.0887 -0.4343
 4037SOL     OW15919   2.568   1.767   1.566 -0.0222 -0.3853  0.0850
 4037SOL    HW215920   2.560   1.783   1.660 -0.0437 -0.2321  0.0564
 4037SOL    HW315921   2.655   1.727   1.556 -0.3248 -1.1165  0.2663
 4037SOL    MW415922   2.579   1.764   1.577 -0.0649 -0.4615  0.1052
 4038SOL     OW15923   4.833   5.993   3.706 -0.2298  0.5878 -0.1736
 4038SOL    HW215924   4.880   5.910   3.718 -3.2093 -1.1886  0.2783
 4038SOL    HW315925   4.833   6.007   3.612  1.0406  0.5828 -0.1969
 4038SOL    MW415926   4.839   5.984   3.696 -0.4553  0.3528 -0.1170
 4039SOL     OW15927   3.525   0.181   5.225  0.1255 -0.2346  0.3141
 4039SOL    HW215928   3.488   0.095   5.205  2.4558 -0.8804 -1.5939
 4039SOL    HW315929   3.462   0.243   5.190 -0.5814 -1.2045 -0.1807
 4039SOL    MW415930   3.512   0.178   5.218  0.3396 -0.4478 -0.0029
 4040SOL     OW15931   1.047   6.368   0.032 -0.1307  0.7621 -0.3660
 4040SOL    HW215932   1.031   6.435  -0.035 -0.0085  1.2185  0.0649
 4040SOL    HW315933   1.062   6.417   0.112 -0.2765  0.2099  0.0007
 4040SOL    MW415934   1.047   6.383   0.034 -0.1338  0.7494 -0.2608
 4041SOL     OW15935   0.761   2.930   4.420 -0.3980 -0.9917 -0.1712
 4041SOL    HW215936   0.819   2.856   4.440  1.6393  0.1749 -1.5210
 4041SOL    HW315937   0.805   2.978   4.350 -1.8997  1.2473  0.3133
 4041SOL    MW415938   0.774   2.927   4.414 -0.3273 -0.5424 -0.2853
 4042SOL     OW15939   0.142   2.946   0.191 -0.0698  0.6788  0.3427
 4042SOL    HW215940   0.122   2.876   0.130  3.3632 -1.0793  1.0121
 4042SOL    HW315941   0.135   2.905   0.278  1.0496  1.4076  0.7958
 4042SOL    MW415942   0.138   2.932   0.194  0.5309  0.5430  0.4908
 4043SOL     OW15943   3.545   2.917   4.218  0.3059  0.0407 -1.0098
 4043SOL    HW215944   3.462   2.954   4.188 -0.2350 -0.4876 -0.2111
 4043SOL    HW315945   3.525   2.878   4.304  1.5653  0.6270 -0.4170
 4043SOL    MW415946   3.531   2.917   4.226  0.4007  0.0484 -0.8262
 4044SOL     OW15947   3.119   0.241   2.886  0.2514 -0.1744 -1.0415
 4044SOL    HW215948   3.111   0.305   2.815 -1.5942  1.3723  0.4377
 4044SOL    HW315949   3.032   0.201   2.891  0.8364 -1.4375 -0.6793
 4044SOL    MW415950   3.106   0.244   2.877  0.0851 -0.1370 -0.7986
 4045SOL     OW15951   4.623   1.763   3.063  0.4740  0.3456 -0.0075
 4045SOL    HW215952   4.657   1.844   3.103  0.4348 -0.3871  1.5979
 4045SOL    HW315953   4.608   1.705   3.138 -1.2255 -0.5073 -0.9728
 4045SOL    MW415954   4.626   1.766   3.078  0.2446  0.1364  0.0770
 4046SOL     OW15955   0.108   5.878   4.887 -0.3049  1.0151  0.4480
 4046SOL    HW215956   0.166   5.905   4.958 -1.2018 -0.4458  1.8037
 4046SOL    HW315957   0.052   5.810   4.926 -1.6143  0.9936 -1.3356
 4046SOL    MW415958   0.108   5.872   4.901 -0.5960  0.8195  0.3915
 4047SOL     OW15959   4.398   5.574   4.934  0.7277 -0.1306  0.4509
 4047SOL    HW215960   4.453   5.649   4.958  1.2529 -0.3421 -0.0716
 4047SOL    HW315961   4.349   5.554   5.014  0.6717  0.6874  0.6307
 4047SOL    MW415962   4.399   5.582   4.948  0.7896 -0.0505  0.4057
 4048SOL     OW15963   2.326   0.067   3.194  0.0932  0.0730 -0.1371
 4048SOL    HW215964   2.271   0.057   3.272  0.1156  2.3583  0.2180
 4048SOL    HW315965   2.268   0.106   3.129  0.6136  0.0204 -0.6393
 4048SOL    MW415966   2.311   0.071   3.196  0.1648  0.3676 -0.1565
 4049SOL     OW15967   2.226   1.590   2.866  0.4822  0.8451  0.2038
 4049SOL    HW215968   2.181   1.666   2.902  0.5670  1.0429 -0.1044
 4049SOL    HW315969   2.241   1.612   2.775 -1.6211 -0.4883 -0.5543
 4049SOL    MW415970   2.222   1.603   2.859  0.2159  0.6953  0.0631
 4050SOL     OW15971   2.880   1.906   2.947 -0.5741 -0.4587 -0.4784
 4050SOL    HW215972   2.969   1.870   2.939 -0.9433 -1.5387  0.1070
 4050SOL    HW315973   2.888   1.974   3.014 -0.1916 -0.5348 -0.4418
 4050SOL    MW415974   2.893   1.910   2.955 -0.5723 -0.6112 -0.3963
 4051SOL     OW15975   0.769   5.476   4.478  0.2072 -0.7521  0.1205
 4051SOL    HW215976   0.730   5.528   4.408 -0.2925 -0.7913  0.3660
 4051SOL    HW315977   0.821   5.409   4.432 -1.6164 -1.9750 -0.2873
 4051SOL    MW415978   0.771   5.474   4.462 -0.0993 -0.9186  0.0991
 4052SOL     OW15979   5.370   3.068   6.189 -0.1695  0.2795 -0.7181
 4052SOL    HW215980   5.420   3.075   6.270 -1.8475 -0.7649  0.4672
 4052SOL    HW315981   5.280   3.052   6.217 -1.1851  1.7947 -2.7633
 4052SOL    MW415982   5.365   3.067   6.203 -0.5249  0.3416 -0.8315
 4053SOL     OW15983   3.869   4.050   4.498 -0.2393  0.2019 -0.3544
 4053SOL    HW215984   3.815   4.084   4.427  0.7046  1.0726 -0.6749
 4053SOL    HW315985   3.808   4.035   4.570 -0.7162  2.5702 -0.2042
 4053SOL    MW415986   3.854   4.052   4.498 -0.1777  0.6293 -0.3769
 4054SOL     OW15987   4.158   3.976   1.031  0.8257  0.0747  0.7446
 4054SOL    HW215988   4.164   3.913   0.960 -0.1776 -0.1708  0.8642
 4054SOL    HW315989   4.067   4.007   1.029  0.8206  0.1933  1.8067
 4054SOL    MW415990   4.146   3.972   1.022  0.6927  0.0580  0.9005
 4055SOL     OW15991   4.895   0.655   1.888  0.1888 -0.2593 -0.0508
 4055SOL    HW215992   4.865   0.632   1.800 -0.6360  1.3691 -0.2225
 4055SOL    HW315993   4.990   0.648   1.883  0.1931  0.4112 -1.2594
 4055SOL    MW415994   4.904   0.651   1.875  0.0806  0.0440 -0.2329
 4056SOL     OW15995   1.748   3.978   2.214  0.6843 -0.0848  0.3994
 4056SOL    HW215996   1.794   3.970   2.130  0.3612 -1.8573  0.3491
 4056SOL    HW315997   1.656   3.989   2.190  0.7012  0.4070  0.5345
 4056SOL    MW415998   1.742   3.979   2.200  0.6439 -0.2538  0.4106
 4057SOL     OW15999   5.010   3.684   0.849 -0.8132  0.4599  0.0845
 4057SOL    HW216000   4.990   3.687   0.755  1.3134  1.0004 -0.3890
 4057SOL    HW316001   4.932   3.721   0.891 -1.3738  1.2112 -1.5256
 4057SOL    MW416002   4.997   3.689   0.842 -0.6066  0.6303 -0.1904
 4058SOL     OW16003   3.518   2.995   1.961  0.4346  0.1290 -0.2281
 4058SOL    HW216004   3.594   3.014   2.015 -0.6245  3.3263  0.3599
 4058SOL    HW316005   3.531   3.049   1.882 -0.2546 -0.8816 -1.0559
 4058SOL    MW416006   3.530   3.005   1.958  0.2039  0.4175 -0.2598
 4059SOL     OW16007   2.328   0.819   5.088  0.0044 -0.3528 -0.0717
 4059SOL    HW216008   2.311   0.869   5.007 -1.0463 -1.7488 -0.7614
 4059SOL    HW316009   2.359   0.734   5.057 -1.8106 -1.4395  0.8980
 4059SOL    MW416010   2.330   0.815   5.073 -0.3737 -0.6804 -0.0347
 4060SOL     OW16011   4.358   2.705   2.467 -0.0949  0.3146 -0.0452
 4060SOL    HW216012   4.368   2.640   2.536 -1.2754  0.1877  0.0266
 4060SOL    HW316013   4.373   2.789   2.510  1.4545  0.1165 -0.1427
 4060SOL    MW416014   4.362   2.708   2.482 -0.0462  0.2717 -0.0486
 4061SOL     OW16015   0.452   5.428   5.649  0.7355  0.4110  0.1264
 4061SOL    HW216016   0.480   5.337   5.657  0.1745  0.2758  0.5994
 4061SOL    HW316017   0.426   5.453   5.738 -0.4650  0.5906 -0.2625
 4061SOL    MW416018   0.452   5.420   5.662  0.5031  0.4169  0.1375
 4062SOL     OW16019   5.362   5.359   1.588  0.3922 -0.0707  0.0511
 4062SOL    HW216020   5.393   5.292   1.650  1.1232  0.9062  0.7675
 4062SOL    HW316021   5.434   5.370   1.526  0.4521  0.3728  0.1980
 4062SOL    MW416022   5.376   5.351   1.588  0.4965  0.1167  0.1650
 4063SOL     OW16023   4.329   4.131   1.458 -0.1683  0.1260  0.5481
 4063SOL    HW216024   4.328   4.096   1.369 -0.5879  0.4900  0.4006
 4063SOL    HW316025   4.418   4.115   1.490 -1.0137 -3.4909  1.5002
 4063SOL    MW416026   4.341   4.124   1.451 -0.3352 -0.3032  0.6543
 4064SOL     OW16027   6.266   4.192   6.378 -0.0616  0.4678 -0.0233
 4064SOL    HW216028   6.233   4.246   6.449  1.8529 -0.0037  1.2816
 4064SOL    HW316029   6.247   4.242   6.299 -0.9301  1.6694  0.9170
 4064SOL    MW416030   6.259   4.205   6.377  0.0764  0.5641  0.2729
 4065SOL     OW16031   5.865   1.139   4.989 -0.0677  0.1480 -0.8070
 4065SOL    HW216032   5.872   1.235   4.981 -0.1312  0.2994  0.7384
 4065SOL    HW316033   5.951   1.107   4.961  1.3782  0.9424  2.3189
 4065SOL    MW416034   5.877   1.148   4.984  0.1147  0.2728 -0.1907
 4066SOL     OW16035   0.472   0.478   1.658  0.4187  0.1847  0.3168
 4066SOL    HW216036   0.464   0.404   1.597  0.2999  0.5585 -0.1290
 4066SOL    HW316037   0.566   0.487   1.672  0.7581  2.0468 -2.2934
 4066SOL    MW416038   0.484   0.470   1.652  0.4478  0.4797 -0.0864
 4067SOL     OW16039   4.932   5.855   6.151  0.5562  0.0054 -0.2123
 4067SOL    HW216040   4.883   5.906   6.215  0.8880 -0.4178  0.3913
 4067SOL    HW316041   4.920   5.902   6.069 -3.4578 -1.6564 -0.8382
 4067SOL    MW416042   4.924   5.868   6.149  0.0704 -0.2697 -0.2152
 4068SOL     OW16043   0.259   3.385   3.612  0.5374 -0.1505 -0.0114
 4068SOL    HW216044   0.238   3.473   3.581 -1.4681 -0.2543  0.9189
 4068SOL    HW316045   0.332   3.399   3.673 -0.4710  1.0726  0.9926
 4068SOL    MW416046   0.266   3.399   3.616  0.1397 -0.0028  0.2438
 4069SOL     OW16047   1.776   0.405   4.645 -0.2822  0.3596  0.5543
 4069SOL    HW216048   1.749   0.417   4.736  0.1259  0.8168  0.6201
 4069SOL    HW316049   1.743   0.482   4.599 -1.0110 -0.1592  0.1847
 4069SOL    MW416050   1.768   0.417   4.651 -0.3245  0.3515  0.5142
 4070SOL     OW16051   3.440   3.634   1.417 -0.3103  0.0313  0.6270
 4070SOL    HW216052   3.525   3.593   1.431 -0.0383  0.9699  1.8965
 4070SOL    HW316053   3.422   3.621   1.324  0.1389 -2.1987  0.7978
 4070SOL    MW416054   3.449   3.627   1.406 -0.2152 -0.1391  0.8170
 4071SOL     OW16055   1.328   6.125   4.630  0.4879  0.3082  0.0523
 4071SOL    HW216056   1.324   6.037   4.666  2.3982 -0.0261 -0.4318
 4071SOL    HW316057   1.295   6.181   4.700 -0.1968 -0.7322  0.5815
 4071SOL    MW416058   1.323   6.121   4.644  0.6496  0.1268  0.0582
 4072SOL     OW16059   6.241   4.630   5.782 -0.9310  0.0806  0.5407
 4072SOL    HW216060   6.280   4.645   5.695 -2.1366 -0.0354 -0.0324
 4072SOL    HW316061   6.264   4.540   5.803 -1.1805 -0.1021  0.0457
 4072SOL    MW416062   6.250   4.620   5.773 -1.1230  0.0412  0.3998
 4073SOL     OW16063   3.735   0.643   0.916  0.4961 -0.7030  0.0816
 4073SOL    HW216064   3.754   0.592   0.837  2.5762  1.0754 -0.6572
 4073SOL    HW316065   3.738   0.578   0.987  1.0061 -1.9462 -1.0334
 4073SOL    MW416066   3.738   0.627   0.915  0.8378 -0.6324 -0.1630
 4074SOL     OW16067   6.117   0.376   2.711 -0.1286  0.2158 -0.1256
 4074SOL    HW216068   6.184   0.331   2.660 -2.0103 -2.7128 -0.2305
 4074SOL    HW316069   6.152   0.378   2.801  0.1921 -1.1144 -0.2034
 4074SOL    MW416070   6.130   0.371   2.716 -0.3346 -0.3461 -0.1497
 4075SOL     OW16071   2.606   6.069   0.987  0.0103  0.5950  0.2358
 4075SOL    HW216072   2.601   6.010   0.911 -0.3718  1.5341 -0.4967
 4075SOL    HW316073   2.551   6.027   1.053 -0.1088  0.0405 -0.2019
 4075SOL    MW416074   2.598   6.056   0.985 -0.0558  0.6457  0.0814
 4076SOL     OW16075   4.598   0.551   2.040  0.3043  0.3750 -0.3268
 4076SOL    HW216076   4.690   0.525   2.042 -0.0975 -1.2093 -1.1613
 4076SOL    HW316077   4.582   0.576   1.949  0.2841  2.1940  0.1412
 4076SOL    MW416078   4.608   0.551   2.029  0.2486  0.4060 -0.3752
 4077SOL     OW16079   5.881   5.898   0.756  0.2328  0.3262  0.0962
 4077SOL    HW216080   5.861   5.987   0.728 -0.7619  1.1180  2.9575
 4077SOL    HW316081   5.888   5.848   0.675  0.5506  2.9203 -1.5998
 4077SOL    MW416082   5.880   5.903   0.742  0.1435  0.7729  0.2500
 4078SOL     OW16083   3.137   5.835   1.324  0.6324 -0.6336  0.1663
 4078SOL    HW216084   3.185   5.778   1.265  1.1621 -1.6370  1.5017
 4078SOL    HW316085   3.097   5.775   1.388  0.1489  0.3955  0.8635
 4078SOL    MW416086   3.138   5.819   1.325  0.6385 -0.6302  0.4345
 4079SOL     OW16087   1.255   1.264   4.754  0.8052  0.2325  0.3607
 4079SOL    HW216088   1.303   1.264   4.671  0.4131  0.1448  0.1338
 4079SOL    HW316089   1.249   1.357   4.778  2.1393  0.1834  1.0079
 4079SOL    MW416090   1.261   1.277   4.746  0.9295  0.2145  0.4162
 4080SOL     OW16091   2.603   3.767   1.127 -0.3565  0.0629 -0.0696
 4080SOL    HW216092   2.605   3.826   1.052  0.4758  1.0215  0.6854
 4080SOL    HW316093   2.664   3.806   1.190  0.7865 -1.9569  0.1818
 4080SOL    MW416094   2.612   3.780   1.125 -0.0959 -0.0771  0.0632
 4081SOL     OW16095   5.517   4.435   2.083  0.3576  0.3395  0.0433
 4081SOL    HW216096   5.452   4.446   2.153 -0.0464  0.9801 -0.4250
 4081SOL    HW316097   5.574   4.512   2.091  1.5390 -0.5715  0.9195
 4081SOL    MW416098   5.516   4.446   2.094  0.4602  0.3038  0.0971
 4082SOL     OW16099   4.111   4.358   5.348 -0.5969  0.3501  0.4248
 4082SOL    HW216100   4.160   4.286   5.308 -0.7066 -0.9343  2.4587
 4082SOL    HW316101   4.040   4.376   5.286  0.9045  0.5246 -1.3493
 4082SOL    MW416102   4.108   4.351   5.334 -0.4133  0.2037  0.4591
 4083SOL     OW16103   4.974   2.787   0.439 -0.0846 -0.2345 -0.2006
 4083SOL    HW216104   4.889   2.745   0.445 -1.0666  1.7552  0.6340
 4083SOL    HW316105   5.012   2.777   0.526 -0.5410  0.9855  0.1534
 4083SOL    MW416106   4.968   2.780   0.451 -0.2744  0.1890 -0.0438
 4084SOL     OW16107   6.348   5.515   0.438  0.1174  0.1881  0.2793
 4084SOL    HW216108   6.389   5.505   0.524  0.5893  2.4353  0.3691
 4084SOL    HW316109   6.271   5.570   0.455 -0.0117  0.3190 -0.6675
 4084SOL    MW416110   6.343   5.521   0.452  0.1626  0.5019  0.1662
 4085SOL     OW16111   6.240   3.236   4.679 -0.3974  0.1798 -0.4040
 4085SOL    HW216112   6.201   3.271   4.760 -0.8889 -0.3261 -0.4067
 4085SOL    HW316113   6.293   3.162   4.709  1.1548  1.2770 -0.3251
 4085SOL    MW416114   6.242   3.231   4.694 -0.2575  0.2578 -0.3939
 4086SOL     OW16115   5.763   0.478   2.947  0.2073 -0.1768 -0.0446
 4086SOL    HW216116   5.786   0.533   3.022  0.7523 -0.0253 -0.3148
 4086SOL    HW316117   5.816   0.513   2.875 -0.0385 -0.5505 -0.4105
 4086SOL    MW416118   5.773   0.490   2.948  0.2468 -0.2061 -0.1285
 4087SOL     OW16119   0.840   6.230   5.193 -0.4503 -0.4174 -0.0548
 4087SOL    HW216120   0.918   6.285   5.200 -0.5765 -0.2714  0.2516
 4087SOL    HW316121   0.848   6.168   5.266 -0.8582 -0.0870  0.2847
 4087SOL    MW416122   0.851   6.229   5.204 -0.5208 -0.3546  0.0304
 4088SOL     OW16123   6.023   3.738   4.074  0.4036 -0.3422 -0.1137
 4088SOL    HW216124   5.955   3.800   4.100  0.5373 -0.1245 -0.2799
 4088SOL    HW316125   6.026   3.674   4.146 -1.6412 -1.7607 -1.1754
 4088SOL    MW416126   6.014   3.738   4.087  0.1514 -0.5006 -0.2757
 4089SOL     OW16127   4.962   4.621   2.824 -0.1524 -0.1041  0.1218
 4089SOL    HW216128   4.999   4.709   2.821 -0.2064 -0.0490  0.9004
 4089SOL    HW316129   5.003   4.575   2.751  0.2858  0.4056  0.0432
 4089SOL    MW416130   4.972   4.626   2.814 -0.1017 -0.0296  0.2141
 4090SOL     OW16131   3.787   6.318   6.091  0.4782  0.1560  0.3854
 4090SOL    HW216132   3.819   6.342   6.004 -1.3292 -1.7495 -0.9100
 4090SOL    HW316133   3.806   6.224   6.099 -0.6488 -0.0206  1.4410
 4090SOL    MW416134   3.794   6.309   6.081  0.0910 -0.1187  0.3537
 4091SOL     OW16135   5.701   0.043   0.537  0.2963  0.5867 -0.4872
 4091SOL    HW216136   5.676  -0.020   0.605  3.7562  0.8550  1.2195
 4091SOL    HW316137   5.632   0.109   0.541 -1.4084 -1.1242  0.3171
 4091SOL    MW416138   5.688   0.043   0.546  0.5279  0.3964 -0.1559
 4092SOL     OW16139   3.649   5.599   4.807 -0.4176  0.1389  0.3334
 4092SOL    HW216140   3.711   5.527   4.815 -0.3231  0.3197  1.3790
 4092SOL    HW316141   3.624   5.600   4.714 -0.2466 -1.0882  0.2635
 4092SOL    MW416142   3.654   5.590   4.796 -0.3826  0.0009  0.4622
 4093SOL     OW16143   5.525   1.322   4.822  0.3016 -0.6530  0.1772
 4093SOL    HW216144   5.553   1.297   4.911 -0.3184  0.7034  0.7864
 4093SOL    HW316145   5.501   1.414   4.830 -1.1078 -0.8735 -1.0924
 4093SOL    MW416146   5.525   1.331   4.835  0.0338 -0.5031  0.0901
 4094SOL     OW16147   5.640   0.689   4.477 -0.4221  0.3736  0.8245
 4094SOL    HW216148   5.584   0.766   4.470 -1.8199 -0.7058 -0.4254
 4094SOL    HW316149   5.712   0.706   4.417 -1.7388 -0.0614 -0.9728
 4094SOL    MW416150   5.642   0.701   4.468 -0.7803  0.1738  0.4224
 4095SOL     OW16151   2.172   2.297   2.440 -0.6154  0.3186 -0.2654
 4095SOL    HW216152   2.142   2.312   2.529 -2.6532 -0.4780 -0.7621
 4095SOL    HW316153   2.195   2.204   2.438 -0.6130  0.3251 -0.5792
 4095SOL    MW416154   2.171   2.286   2.451 -0.8840  0.2143 -0.3723
 4096SOL     OW16155   2.578   1.039   4.838 -0.0207  0.0758  0.1700
 4096SOL    HW216156   2.608   1.102   4.772  3.4370 -1.8319 -0.3155
 4096SOL    HW316157   2.485   1.027   4.820 -0.1081  2.7428 -1.6121
 4096SOL    MW416158   2.570   1.046   4.827  0.4240  0.1760 -0.1292
 4097SOL     OW16159   1.225   1.010   0.405 -0.6964 -0.2230 -0.2868
 4097SOL    HW216160   1.225   0.916   0.387 -1.4378 -0.5080  1.1213
 4097SOL    HW316161   1.275   1.048   0.332  0.7543 -1.8352 -0.1876
 4097SOL    MW416162   1.232   1.003   0.393 -0.6028 -0.4733 -0.0879
 4098SOL     OW16163   0.346   3.579   5.479 -0.3395 -0.6353 -0.1618
 4098SOL    HW216164   0.383   3.666   5.490 -2.8709  0.3934  0.7799
 4098SOL    HW316165   0.323   3.551   5.568 -0.2938 -1.9574 -0.5402
 4098SOL    MW416166   0.348   3.587   5.492 -0.6675 -0.6740 -0.0875
 4099SOL     OW16167   4.923   4.222   3.840  0.1386  0.0745 -0.4407
 4099SOL    HW216168   4.841   4.267   3.861 -0.8063 -1.4882 -0.6182
 4099SOL    HW316169   4.903   4.129   3.850  1.3253 -0.4538 -2.4023
 4099SOL    MW416170   4.909   4.216   3.844  0.1705 -0.2014 -0.7229
 4100SOL     OW16171   5.137   4.355   2.812  0.1440  0.5534  0.5222
 4100SOL    HW216172   5.191   4.297   2.758 -0.1098  0.3616  0.4703
 4100SOL    HW316173   5.062   4.301   2.837  1.1508  0.0112  2.6376
 4100SOL    MW416174   5.134   4.340   2.808  0.2433  0.4566  0.7945
 4101SOL     OW16175   2.579   1.688   4.588 -0.4667  0.2127 -0.1790
 4101SOL    HW216176   2.664   1.654   4.559 -0.2150  1.0445 -0.4548
 4101SOL    HW316177   2.516   1.651   4.526 -0.4517 -1.1871  0.5992
 4101SOL    MW416178   2.582   1.678   4.576 -0.4315  0.1377 -0.1127
 4102SOL     OW16179   4.369   2.879   0.731  0.3461  0.1048  0.0936
 4102SOL    HW216180   4.281   2.871   0.769  0.4958  0.3858  0.5005
 4102SOL    HW316181   4.396   2.969   0.752  1.1332 -0.3002  0.8344
 4102SOL    MW416182   4.361   2.890   0.739  0.4697  0.0884  0.2450
 4103SOL     OW16183   2.128   0.069   2.012  0.1243 -0.2311 -0.1824
 4103SOL    HW216184   2.167   0.042   2.095  1.5950 -0.0605 -0.7832
 4103SOL    HW316185   2.202   0.102   1.960 -1.0234  1.3499 -0.9003
 4103SOL    MW416186   2.143   0.070   2.016  0.1670 -0.0000 -0.3564
 4104SOL     OW16187   1.485   4.274   3.899 -0.2170  0.1881 -0.0315
 4104SOL    HW216188   1.560   4.262   3.957 -0.9956 -0.9234  0.7938
 4104SOL    HW316189   1.518   4.257   3.811  1.0381  2.1071  0.0138
 4104SOL    MW416190   1.499   4.270   3.895 -0.1542  0.2946  0.0833
 4105SOL     OW16191   4.376   3.277   1.405  0.2948  0.0294  0.4022
 4105SOL    HW216192   4.391   3.202   1.347 -0.6514 -0.7660  1.1572
 4105SOL    HW316193   4.322   3.336   1.352  1.4428  0.4310 -0.3681
 4105SOL    MW416194   4.371   3.275   1.390  0.3215 -0.0225  0.4002
 4106SOL     OW16195   5.962   5.193   5.136  0.3779 -0.0711  0.3730
 4106SOL    HW216196   5.906   5.119   5.110  0.8564 -0.4722  0.4598
 4106SOL    HW316197   5.917   5.270   5.103 -0.3892 -0.3624  0.7276
 4106SOL    MW416198   5.949   5.193   5.128  0.3399 -0.1624  0.4312
 4107SOL     OW16199   0.113   6.099   6.141 -0.2374 -0.1924 -0.1602
 4107SOL    HW216200   0.095   6.131   6.052 -1.2993  1.0115  0.4417
 4107SOL    HW316201   0.197   6.055   6.134  0.2442  0.8512 -1.5428
 4107SOL    MW416202   0.122   6.098   6.128 -0.3140  0.1042 -0.2632
 4108SOL     OW16203   1.074   1.810   4.448 -0.0287 -0.3602  0.4239
 4108SOL    HW216204   1.046   1.861   4.372  0.8086 -0.2016  0.2106
 4108SOL    HW316205   1.145   1.861   4.486  1.3474 -1.7115 -0.2389
 4108SOL    MW416206   1.080   1.823   4.443  0.2633 -0.5176  0.3083
 4109SOL     OW16207   2.983   5.235   0.588  0.4562 -0.3025  0.1039
 4109SOL    HW216208   2.993   5.283   0.670  1.0225  0.0112 -0.1396
 4109SOL    HW316209   2.897   5.260   0.555  0.7353  0.5462 -0.0071
 4109SOL    MW416210   2.973   5.245   0.594  0.5677 -0.1491  0.0571
 4110SOL     OW16211   3.082   4.360   5.645 -0.3389  0.0308  0.1569
 4110SOL    HW216212   3.119   4.298   5.582  0.8843  0.9312 -0.0652
 4110SOL    HW316213   3.049   4.432   5.591 -0.3565  0.2637  0.4729
 4110SOL    MW416214   3.083   4.362   5.630 -0.1798  0.1803  0.1693
 4111SOL     OW16215   4.811   1.888   3.381  0.1854 -0.0846 -0.0525
 4111SOL    HW216216   4.763   1.926   3.455  2.5966 -0.4927  1.8467
 4111SOL    HW316217   4.872   1.957   3.354  0.9393 -0.7527 -0.0997
 4111SOL    MW416218   4.813   1.902   3.387  0.6030 -0.2266  0.1918
 4112SOL     OW16219   5.345   0.065   4.681 -0.2332  0.2288 -0.6291
 4112SOL    HW216220   5.267   0.120   4.691  0.2031  0.5335  1.5031
 4112SOL    HW316221   5.408   0.101   4.743  0.5128 -1.9072 -0.0731
 4112SOL    MW416222   5.343   0.077   4.691 -0.0772 -0.0128 -0.2744
 4113SOL     OW16223   2.257   6.253   2.826  0.2051 -0.7160  0.1306
 4113SOL    HW216224   2.203   6.213   2.758 -1.5797  0.0218  1.0534
 4113SOL    HW316225   2.225   6.214   2.908  0.8041  0.0462  0.7423
 4113SOL    MW416226   2.246   6.242   2.828  0.0486 -0.5181  0.3330
 4114SOL     OW16227   3.536   3.911   5.894  0.6057  0.0414 -0.3549
 4114SOL    HW216228   3.495   3.940   5.813 -0.2001  0.9880  0.3807
 4114SOL    HW316229   3.463   3.890   5.953  1.1533 -1.9047 -0.2700
 4114SOL    MW416230   3.521   3.912   5.891  0.5716 -0.0904 -0.2466
 4115SOL     OW16231   1.734   4.324   0.654  0.0318  0.1895 -0.0882
 4115SOL    HW216232   1.725   4.419   0.648  0.3530  0.2153 -0.2373
 4115SOL    HW316233   1.825   4.310   0.682  0.1594 -0.0814 -0.6084
 4115SOL    MW416234   1.745   4.335   0.657  0.0910  0.1572 -0.1765
 4116SOL     OW16235   3.535   2.660   4.933  0.0777 -0.5768  0.4537
 4116SOL    HW216236   3.492   2.690   4.854 -0.6566 -0.2757  0.9556
 4116SOL    HW316237   3.624   2.693   4.926  0.2787 -1.3056 -0.6474
 4116SOL    MW416238   3.541   2.668   4.922  0.0074 -0.6332  0.3746
 4117SOL     OW16239   2.576   4.239   5.864 -0.1900  0.1181 -0.4500
 4117SOL    HW216240   2.536   4.204   5.784  0.2685 -1.5783  0.0262
 4117SOL    HW316241   2.659   4.278   5.835  0.9176 -2.2137 -0.6044
 4117SOL    MW416242   2.582   4.240   5.850  0.0166 -0.4134 -0.4076
 4118SOL     OW16243   2.186   0.070   3.893  0.0640  0.2784 -0.4520
 4118SOL    HW216244   2.115   0.011   3.866 -1.3839  1.1352  1.2699
 4118SOL    HW316245   2.151   0.158   3.877 -0.3341  0.7990  2.6560
 4118SOL    MW416246   2.172   0.074   3.887 -0.1795  0.4601  0.1852
 4119SOL     OW16247   3.985   1.360   4.774 -0.5784 -0.2848  0.3898
 4119SOL    HW216248   4.079   1.372   4.792 -0.9929 -0.2097  2.8700
 4119SOL    HW316249   3.948   1.448   4.778 -0.9591 -0.4630  0.7732
 4119SOL    MW416250   3.993   1.373   4.777 -0.6833 -0.2984  0.7676
 4120SOL     OW16251   6.021   5.074   3.207 -0.2782  0.5948  0.1815
 4120SOL    HW216252   6.112   5.081   3.179 -0.3462 -3.0325 -1.5774
 4120SOL    HW316253   6.016   4.989   3.251 -3.0878 -0.1797 -1.3474
 4120SOL    MW416254   6.032   5.063   3.209 -0.6579  0.0140 -0.2523
 4121SOL     OW16255   3.743   3.004   5.310  0.1585  0.2597  0.6194
 4121SOL    HW216256   3.772   3.039   5.226 -1.5376  1.1612  0.3747
 4121SOL    HW316257   3.793   2.923   5.320  0.2034 -0.0158 -1.3939
 4121SOL    MW416258   3.753   2.998   5.300 -0.0594  0.3423  0.3214
 4122SOL     OW16259   0.913   4.060   1.202  0.6465  0.2679  0.8374
 4122SOL    HW216260   0.943   4.139   1.248  2.1901  0.1132  0.1355
 4122SOL    HW316261   0.885   4.001   1.272 -0.7316  1.4772  1.3673
 4122SOL    MW416262   0.913   4.063   1.218  0.6683  0.4071  0.8147
 4123SOL     OW16263   0.988   6.062   5.917 -0.0488  0.0788 -0.0301
 4123SOL    HW216264   0.960   5.975   5.945 -0.2082 -0.1202 -0.7829
 4123SOL    HW316265   1.008   6.108   5.998 -1.7309 -0.0495  0.4837
 4123SOL    MW416266   0.987   6.057   5.931 -0.2917  0.0356 -0.0617
 4124SOL     OW16267   2.806   1.899   1.282  0.6131 -0.3913  0.4517
 4124SOL    HW216268   2.885   1.915   1.230  1.3580  3.7050  2.3944
 4124SOL    HW316269   2.837   1.892   1.372 -1.1073 -0.0035  1.1180
 4124SOL    MW416270   2.820   1.901   1.287  0.4844  0.2003  0.7959
 4125SOL     OW16271   1.777   2.855   0.833 -0.4101  0.3642  0.6587
 4125SOL    HW216272   1.815   2.844   0.746 -0.4881  1.6535  0.4430
 4125SOL    HW316273   1.853   2.872   0.889 -0.2641 -1.3288  1.0344
 4125SOL    MW416274   1.792   2.856   0.829 -0.4011  0.3109  0.6798
 4126SOL     OW16275   5.212   6.355   6.186 -0.0984  0.0602  0.1316
 4126SOL    HW216276   5.274   6.283   6.197 -2.5710 -2.0477  1.5437
 4126SOL    HW316277   5.216   6.404   6.268  0.5501  0.6597 -0.2554
 4126SOL    MW416278   5.220   6.352   6.198 -0.3391 -0.1389  0.2669
 4127SOL     OW16279   2.493   3.446   6.007  0.4368 -0.1950  0.2632
 4127SOL    HW216280   2.474   3.409   5.921  1.3868 -1.7845  0.6989
 4127SOL    HW316281   2.547   3.380   6.050 -1.1045 -0.0633  2.5836
 4127SOL    MW416282   2.497   3.432   6.001  0.3588 -0.3874  0.6268
 4128SOL     OW16283   3.183   2.653   4.626 -0.3602  0.3220  0.3548
 4128SOL    HW216284   3.125   2.717   4.584  0.1677  0.3399 -0.3641
 4128SOL    HW316285   3.250   2.636   4.561 -0.2520 -0.6490  0.7111
 4128SOL    MW416286   3.184   2.659   4.612 -0.2763  0.1962  0.3069
 4129SOL     OW16287   6.150   1.980   0.356 -0.1950  0.4004  0.6461
 4129SOL    HW216288   6.135   1.967   0.262 -0.8206 -2.0550  1.0274
 4129SOL    HW316289   6.067   2.014   0.389 -0.6223 -0.5576  0.5934
 4129SOL    MW416290   6.137   1.983   0.348 -0.3339 -0.0499  0.6894
 4130SOL     OW16291   1.997   3.338   2.801  0.4401 -0.6230 -0.5724
 4130SOL    HW216292   1.974   3.266   2.741 -0.1676 -0.5216 -0.4650
 4130SOL    HW316293   1.950   3.414   2.766  1.5482 -0.1258 -1.0314
 4130SOL    MW416294   1.988   3.338   2.788  0.5061 -0.5441 -0.6188
 4131SOL     OW16295   2.039   1.781   5.256  0.5769  0.2909 -0.1560
 4131SOL    HW216296   2.067   1.865   5.292 -0.6930  1.4045 -1.6399
 4131SOL    HW316297   2.041   1.793   5.161  0.2528 -1.3261 -0.4058
 4131SOL    MW416298   2.043   1.793   5.248  0.3666  0.2245 -0.3847
 4132SOL     OW16299   2.556   3.772   3.460 -0.0856  0.6877  0.1651
 4132SOL    HW216300   2.567   3.813   3.374 -0.3808  0.3223 -0.0517
 4132SOL    HW316301   2.491   3.703   3.445 -0.4972  0.9297  0.7841
 4132SOL    MW416302   2.549   3.768   3.447 -0.1789  0.6714  0.2181
 4133SOL     OW16303   6.371   0.386   3.663 -0.2725 -0.3848 -0.1435
 4133SOL    HW216304   6.444   0.335   3.698 -2.6703 -2.5743  2.1471
 4133SOL    HW316305   6.378   0.470   3.707 -0.1257 -1.2295  1.5532
 4133SOL    MW416306   6.382   0.390   3.674 -0.5695 -0.7851  0.3826
 4134SOL     OW16307   0.255   3.580   5.027  0.2173 -0.5097 -0.1216
 4134SOL    HW216308   0.267   3.487   5.008 -1.0257 -0.7023 -0.0486
 4134SOL    HW316309   0.217   3.616   4.947 -0.2232 -0.2678  0.1964
 4134SOL    MW416310   0.252   3.572   5.014 -0.0048 -0.5032 -0.0700
 4135SOL     OW16311   3.993   2.056   6.353  0.1120 -0.3428  0.4282
 4135SOL    HW216312   3.949   1.995   6.294 -0.0942 -0.0172  0.2366
 4135SOL    HW316313   3.927   2.076   6.420 -0.8678  1.8494 -1.0618
 4135SOL    MW416314   3.978   2.051   6.354 -0.0445 -0.0106  0.2063
 4136SOL     OW16315   5.935   2.001   1.453  0.4892 -0.4988  0.2790
 4136SOL    HW216316   5.894   2.013   1.538 -1.6800  0.0372 -0.7881
 4136SOL    HW316317   5.882   2.052   1.392  3.2746  0.9851 -1.1131
 4136SOL    MW416318   5.923   2.009   1.456  0.5705 -0.2323 -0.0455
 4137SOL     OW16319   2.092   2.969   2.559 -0.1405  0.3490 -0.1286
 4137SOL    HW216320   2.135   3.040   2.510  0.7129 -0.5644 -0.7413
 4137SOL    HW316321   2.017   2.945   2.504  0.5206 -0.3249 -0.7643
 4137SOL    MW416322   2.088   2.975   2.545  0.0593  0.1396 -0.2933
 4138SOL     OW16323   5.332   2.611   0.908 -0.7184  0.4593  0.0743
 4138SOL    HW216324   5.305   2.608   0.817 -2.0897  0.0295  0.4742
 4138SOL    HW316325   5.404   2.548   0.914 -0.1521  0.9946 -0.8350
 4138SOL    MW416326   5.338   2.602   0.897 -0.8246  0.4732  0.0071
 4139SOL     OW16327   2.095   3.355   3.611  0.6409  0.3408 -0.3943
 4139SOL    HW216328   2.187   3.371   3.592  0.4050  0.9031 -1.1522
 4139SOL    HW316329   2.063   3.307   3.535  0.5598 -0.8652  0.3803
 4139SOL    MW416330   2.103   3.351   3.599  0.5991  0.2559 -0.3921
 4140SOL     OW16331   3.200   2.243   0.760  0.3811  0.0157  0.5377
 4140SOL    HW216332   3.275   2.201   0.718 -0.4430  0.3622 -1.3812
 4140SOL    HW316333   3.211   2.336   0.742 -0.2980  0.1129  0.6018
 4140SOL    MW416334   3.212   2.249   0.752  0.1827  0.0742  0.2930
 4141SOL     OW16335   0.649   3.596   5.668 -0.3927  0.2512  0.5310
 4141SOL    HW216336   0.613   3.684   5.683 -0.0360  0.1815  2.0101
 4141SOL    HW316337   0.623   3.574   5.579 -1.5978  1.3343  0.5849
 4141SOL    MW416338   0.641   3.605   5.659 -0.5046  0.3849  0.7333
 4142SOL     OW16339   0.851   4.190   2.394 -0.2344 -0.0603  0.2516
 4142SOL    HW216340   0.832   4.247   2.319 -0.2667  1.3845  1.3281
 4142SOL    HW316341   0.906   4.121   2.357 -0.6133  0.3632 -1.1942
 4142SOL    MW416342   0.856   4.188   2.379 -0.2887  0.1862  0.2028
 4143SOL     OW16343   0.892   2.207   0.046  0.5158 -0.0766 -0.7178
 4143SOL    HW216344   0.856   2.151  -0.023  1.9246 -1.0418 -0.7282
 4143SOL    HW316345   0.905   2.292   0.003 -0.7953  0.0089 -0.9665
 4143SOL    MW416346   0.889   2.211   0.031  0.5287 -0.1926 -0.7520
 4144SOL     OW16347   5.803   4.751   0.516  0.7515  0.0195  0.0054
 4144SOL    HW216348   5.759   4.733   0.433  1.1943  0.4254 -0.3243
 4144SOL    HW316349   5.848   4.670   0.539  1.3342  0.1659 -0.5952
 4144SOL    MW416350   5.803   4.738   0.508  0.8868  0.0923 -0.1173
 4145SOL     OW16351   0.194   2.312   3.038 -1.0225 -0.4603 -0.1006
 4145SOL    HW216352   0.224   2.276   2.955 -1.6035  0.7305 -0.8583
 4145SOL    HW316353   0.133   2.382   3.013 -0.6034  0.4438  1.3115
 4145SOL    MW416354   0.190   2.316   3.024 -1.0439 -0.1839 -0.0142
 4146SOL     OW16355   1.925   4.169   5.465 -0.2956 -0.6208  0.4497
 4146SOL    HW216356   1.976   4.097   5.502 -0.2909 -1.4372 -1.0941
 4146SOL    HW316357   1.834   4.138   5.470 -0.4278 -0.1787  0.9524
 4146SOL    MW416358   1.919   4.156   5.471 -0.3124 -0.6702  0.3123
 4147SOL     OW16359   2.807   5.859   5.815  0.5609  0.0731 -0.5046
 4147SOL    HW216360   2.891   5.813   5.818  0.4325 -0.3047 -2.0517
 4147SOL    HW316361   2.829   5.949   5.790  0.4468 -0.2613 -1.8739
 4147SOL    MW416362   2.821   5.865   5.812  0.5289 -0.0209 -0.8894
 4148SOL     OW16363   3.681   4.582   3.301 -0.3402 -0.1615  0.5024
 4148SOL    HW216364   3.742   4.584   3.374  0.3229  0.5302 -0.0578
 4148SOL    HW316365   3.709   4.508   3.248 -0.6319 -0.4767  0.7872
 4148SOL    MW416366   3.693   4.573   3.303 -0.2912 -0.1118  0.4660
 4149SOL     OW16367   2.126   4.697   1.859  0.1930  0.1813  0.4445
 4149SOL    HW216368   2.177   4.775   1.880  0.7581  0.0091 -0.2637
 4149SOL    HW316369   2.189   4.625   1.865  0.0253 -0.0398 -0.3886
 4149SOL    MW416370   2.141   4.698   1.862  0.2454  0.1294  0.2411
 4150SOL     OW16371   6.228   1.246   5.613 -0.0307  0.1020 -0.1839
 4150SOL    HW216372   6.147   1.294   5.598 -0.9200 -0.7047  1.7191
 4150SOL    HW316373   6.212   1.160   5.575 -0.3089 -0.2394  0.6787
 4150SOL    MW416374   6.215   1.241   5.606 -0.1848 -0.0494  0.1810
 4151SOL     OW16375   1.306   1.111   5.899  0.3053  0.4634  0.3906
 4151SOL    HW216376   1.245   1.059   5.846 -0.0330 -3.3730  3.9747
 4151SOL    HW316377   1.393   1.087   5.867  0.0911  1.5012 -1.0418
 4151SOL    MW416378   1.310   1.101   5.888  0.2324  0.0942  0.6744
 4152SOL     OW16379   2.373   0.451   0.378  0.6372 -0.3625 -0.2357
 4152SOL    HW216380   2.405   0.539   0.395  0.7586 -0.2595 -1.0054
 4152SOL    HW316381   2.444   0.408   0.331  0.1282 -0.5124 -0.8727
 4152SOL    MW416382   2.387   0.457   0.374  0.5861 -0.3687 -0.4213
 4153SOL     OW16383   1.108   4.520   0.632 -0.1034 -0.4091  0.7548
 4153SOL    HW216384   1.020   4.489   0.612 -0.9572  1.4845  1.3413
 4153SOL    HW316385   1.153   4.443   0.669 -0.5169 -2.2077 -2.1364
 4153SOL    MW416386   1.102   4.506   0.634 -0.2706 -0.3965  0.4507
 4154SOL     OW16387   2.235   6.048   4.378 -0.0203 -0.2557  0.0944
 4154SOL    HW216388   2.286   6.121   4.411  0.0396 -0.4224  0.3795
 4154SOL    HW316389   2.299   5.986   4.345 -0.1358  0.7064 -2.0922
 4154SOL    MW416390   2.250   6.049   4.378 -0.0277 -0.1507 -0.1565
 4155SOL     OW16391   3.909   0.262   0.515  0.1942  0.0618  0.6111
 4155SOL    HW216392   3.954   0.210   0.448  0.4576 -0.7001  1.3525
 4155SOL    HW316393   3.896   0.348   0.475 -0.1571 -0.5405 -0.6187
 4155SOL    MW416394   3.913   0.266   0.501  0.1826 -0.1182  0.5466
 4156SOL     OW16395   2.725   3.770   4.766  0.6352 -0.1493  0.9648
 4156SOL    HW216396   2.767   3.698   4.814  0.6297 -1.2859 -0.6340
 4156SOL    HW316397   2.643   3.786   4.814  0.6790 -1.1585  1.4076
 4156SOL    MW416398   2.720   3.762   4.779  0.6403 -0.4324  0.8123
 4157SOL     OW16399   3.860   2.402   2.155  0.3084  0.5516  0.5300
 4157SOL    HW216400   3.901   2.484   2.125  0.1220 -0.1030 -1.7212
 4157SOL    HW316401   3.811   2.371   2.078 -2.9894  0.3716  2.5165
 4157SOL    MW416402   3.859   2.409   2.141 -0.1513  0.4415  0.4951
 4158SOL     OW16403   0.687   6.095   6.188 -0.8005  0.0774  0.0344
 4158SOL    HW216404   0.699   6.136   6.102 -1.7244 -0.5637 -0.4177
 4158SOL    HW316405   0.609   6.137   6.224  0.0721  0.9555  0.9479
 4158SOL    MW416406   0.678   6.106   6.182 -0.8073  0.1087  0.0953
 4159SOL     OW16407   3.840   5.058   1.653  0.6326  0.1298  0.4231
 4159SOL    HW216408   3.804   5.018   1.573  0.0533  0.4229  0.5300
 4159SOL    HW316409   3.784   5.134   1.669 -0.1728 -0.7254  1.9042
 4159SOL    MW416410   3.827   5.063   1.644  0.4499  0.0557  0.6326
 4160SOL     OW16411   5.916   5.689   0.136 -0.1282  0.0173  0.2285
 4160SOL    HW216412   6.000   5.646   0.151 -0.3238 -0.0683  1.1395
 4160SOL    HW316413   5.851   5.625   0.165 -0.4410  0.7177  1.1113
 4160SOL    MW416414   5.918   5.675   0.142 -0.1953  0.0984  0.4651
 4161SOL     OW16415   5.489   5.965   5.351 -0.1163  0.6470  0.4168
 4161SOL    HW216416   5.549   5.944   5.279  0.3935 -1.0015  1.2914
 4161SOL    HW316417   5.539   6.024   5.407  0.0191  0.7505  0.1902
 4161SOL    MW416418   5.503   5.970   5.349 -0.0312  0.4432  0.5023
 4162SOL     OW16419   2.854   2.787   3.981 -0.5160  0.0663  0.3412
 4162SOL    HW216420   2.762   2.790   3.953 -0.6411  2.4351  0.8299
 4162SOL    HW316421   2.900   2.838   3.914  0.4279 -0.8644  0.2606
 4162SOL    MW416422   2.848   2.794   3.968 -0.4080  0.2560  0.3950
 4163SOL     OW16423   5.292   4.162   6.018 -0.2751 -0.2478  0.1991
 4163SOL    HW216424   5.210   4.166   6.067  1.2724  0.9157  2.9654
 4163SOL    HW316425   5.332   4.079   6.044  0.6757  0.4937  1.1953
 4163SOL    MW416426   5.286   4.152   6.028  0.0545  0.0035  0.6955
 4164SOL     OW16427   1.376   0.131   6.354  0.4199  0.2487  0.8151
 4164SOL    HW216428   1.331   0.150   6.437 -1.5452 -2.3638  0.4944
 4164SOL    HW316429   1.317   0.165   6.287 -1.8310 -3.8078  0.3598
 4164SOL    MW416430   1.362   0.138   6.356 -0.1363 -0.6312  0.7127
 4165SOL     OW16431   0.088   0.863   1.097 -0.6309 -0.0005 -0.1528
 4165SOL    HW216432   0.106   0.823   1.012 -1.3858  0.9852 -0.8038
 4165SOL    HW316433   0.121   0.800   1.161 -0.5145 -0.9964 -1.1625
 4165SOL    MW416434   0.095   0.849   1.095 -0.7151 -0.0019 -0.3719
 4166SOL     OW16435   6.357   2.114   6.309 -0.0687 -0.1633  0.2480
 4166SOL    HW216436   6.415   2.140   6.380  1.1166 -0.5210 -0.5477
 4166SOL    HW316437   6.381   2.023   6.290 -0.9290 -0.3343 -0.0688
 4166SOL    MW416438   6.368   2.105   6.316 -0.0258 -0.2331  0.1012
 4167SOL     OW16439   2.307   0.565   3.702 -0.2526  0.3253  0.2304
 4167SOL    HW216440   2.289   0.656   3.677  0.4979  0.0662 -1.3290
 4167SOL    HW316441   2.301   0.516   3.621 -0.9961 -1.1032  1.1184
 4167SOL    MW416442   2.304   0.571   3.688 -0.2517  0.1026  0.1418
 4168SOL     OW16443   0.133   4.151   3.959  0.7775  0.0558  0.0209
 4168SOL    HW216444   0.142   4.127   4.051  1.7160  0.6728  0.1008
 4168SOL    HW316445   0.046   4.190   3.952 -0.6823 -2.9233 -0.0373
 4168SOL    MW416446   0.123   4.153   3.970  0.7087 -0.2558  0.0238
 4169SOL     OW16447   6.423   5.422   2.174 -0.4511 -0.1469  0.4129
 4169SOL    HW216448   6.361   5.436   2.245 -0.1499  0.9428  0.4840
 4169SOL    HW316449   6.436   5.327   2.172 -2.5878 -0.4885 -0.0276
 4169SOL    MW416450   6.417   5.411   2.183 -0.6933 -0.0482  0.3642
 4170SOL     OW16451   2.425   6.070   5.154 -0.3569  0.1134 -0.2742
 4170SOL    HW216452   2.428   6.144   5.093  0.5434  0.1920 -0.1387
 4170SOL    HW316453   2.506   6.076   5.203 -0.0984 -1.1983 -0.5097
 4170SOL    MW416454   2.436   6.081   5.152 -0.2040 -0.0493 -0.2874
 4171SOL     OW16455   0.641   4.914   2.476  0.0244  0.0876  0.4393
 4171SOL    HW216456   0.698   4.948   2.546  0.8244  1.3415 -0.7616
 4171SOL    HW316457   0.637   4.820   2.491 -0.0564  0.3551  2.3288
 4171SOL    MW416458   0.648   4.906   2.488  0.1193  0.2884  0.5302
 4172SOL     OW16459   2.322   6.409   0.227 -0.1210  0.2235  0.4903
 4172SOL    HW216460   2.322   6.490   0.176  0.2111  0.0520  0.2094
 4172SOL    HW316461   2.265   6.350   0.178  1.4726 -0.4974 -0.6259
 4172SOL    MW416462   2.315   6.412   0.214  0.1330  0.1058  0.3060
 4173SOL     OW16463   4.388   1.019   4.792 -0.2823  0.1338 -0.1416
 4173SOL    HW216464   4.448   1.066   4.734  0.1557  1.2887  1.2027
 4173SOL    HW316465   4.402   0.927   4.770 -0.2722  0.5322 -1.9729
 4173SOL    MW416466   4.398   1.013   4.781 -0.2232  0.3387 -0.2059
 4174SOL     OW16467   5.924   6.403   1.560  0.3447  0.4803 -0.2737
 4174SOL    HW216468   6.007   6.450   1.567 -0.4889  1.9899 -0.1218
 4174SOL    HW316469   5.872   6.455   1.499 -1.1812  0.6422  1.0870
 4174SOL    MW416470   5.928   6.416   1.553  0.0334  0.7008 -0.0741
 4175SOL     OW16471   4.364   4.813   2.548 -0.3822 -0.2749 -0.6878
 4175SOL    HW216472   4.324   4.732   2.578  0.1581  0.3437  1.9019
 4175SOL    HW316473   4.458   4.794   2.545  0.0632  0.8393  2.4284
 4175SOL    MW416474   4.371   4.800   2.551 -0.2521 -0.0463  0.0650
 4176SOL     OW16475   3.532   6.176   4.072  0.2149 -0.4583 -0.0718
 4176SOL    HW216476   3.576   6.254   4.104  2.4671 -1.0020 -1.6651
 4176SOL    HW316477   3.488   6.204   3.991  0.3666 -0.6717 -0.2277
 4176SOL    MW416478   3.532   6.190   4.066  0.5320 -0.5582 -0.3026
 4177SOL     OW16479   4.557   0.240   3.950 -0.3096  0.0526  0.0295
 4177SOL    HW216480   4.615   0.309   3.984 -0.5484 -0.7855  2.3844
 4177SOL    HW316481   4.613   0.163   3.945 -0.4851 -0.0240 -0.7420
 4177SOL    MW416482   4.572   0.239   3.954 -0.3642 -0.0681  0.2384
 4178SOL     OW16483   0.716   1.086   3.537  0.7731  0.2111  0.2330
 4178SOL    HW216484   0.649   1.027   3.501 -0.0617  1.8652 -1.0923
 4178SOL    HW316485   0.685   1.106   3.625  0.7239 -0.8051  0.4563
 4178SOL    MW416486   0.703   1.081   3.544  0.6565  0.2952  0.0877
 4179SOL     OW16487   1.246   3.576   2.172  0.0080  0.3238  0.1746
 4179SOL    HW216488   1.288   3.611   2.093 -1.7085 -0.3052 -1.0774
 4179SOL    HW316489   1.170   3.632   2.186 -2.0186 -1.9480 -1.0745
 4179SOL    MW416490   1.242   3.588   2.164 -0.4858 -0.0589 -0.1554
 4180SOL     OW16491   3.621   5.277   6.370 -0.4659  0.0702  0.7326
 4180SOL    HW216492   3.576   5.323   6.440  1.0191  0.9550  1.1660
 4180SOL    HW316493   3.691   5.229   6.414 -0.3753 -0.4942 -0.0055
 4180SOL    MW416494   3.625   5.277   6.385 -0.2580  0.1124  0.6924
 4181SOL     OW16495   1.913   3.625   3.314 -0.5746 -0.4104  0.4825
 4181SOL    HW216496   1.842   3.619   3.250 -3.1694  0.0869  3.0707
 4181SOL    HW316497   1.930   3.719   3.322  0.1633 -0.5098  0.1177
 4181SOL    MW416498   1.906   3.637   3.307 -0.8196 -0.3579  0.7759
 4182SOL     OW16499   3.454   3.103   0.205 -0.1010 -0.2291 -0.3860
 4182SOL    HW216500   3.409   3.018   0.208  0.7361 -0.7520 -1.5603
 4182SOL    HW316501   3.534   3.089   0.257 -0.1217 -0.0496 -0.3047
 4182SOL    MW416502   3.459   3.090   0.212  0.0067 -0.2744 -0.5302
 4183SOL     OW16503   2.502   2.530   2.108 -0.1666 -0.0906 -0.5944
 4183SOL    HW216504   2.453   2.472   2.166 -1.9232  2.1208  0.3016
 4183SOL    HW316505   2.461   2.517   2.022 -0.6520 -0.0852 -0.3692
 4183SOL    MW416506   2.490   2.520   2.104 -0.4624  0.2019 -0.4464
 4184SOL     OW16507   2.586   6.113   0.453 -0.0466  0.7995 -0.5049
 4184SOL    HW216508   2.566   6.207   0.457 -1.0875  0.5693 -0.1148
 4184SOL    HW316509   2.567   6.081   0.541  0.8884  0.3176 -0.4617
 4184SOL    MW416510   2.581   6.121   0.465 -0.0606  0.7056 -0.4477
 4185SOL     OW16511   1.713   3.712   1.915 -0.7600 -0.5083 -0.4104
 4185SOL    HW216512   1.784   3.771   1.940 -1.5275 -0.1856  1.1120
 4185SOL    HW316513   1.660   3.763   1.854  0.0217 -0.5770 -1.1626
 4185SOL    MW416514   1.715   3.727   1.910 -0.7581 -0.4748 -0.3088
 4186SOL     OW16515   5.569   0.346   6.167 -0.0317  0.1622  0.0355
 4186SOL    HW216516   5.606   0.391   6.091  0.7292  0.2138  0.4301
 4186SOL    HW316517   5.474   0.355   6.155  0.0523  2.8077  0.6047
 4186SOL    MW416518   5.561   0.353   6.155  0.0798  0.5180  0.1627
 4187SOL     OW16519   5.342   0.096   6.025 -0.6332 -0.1500 -0.0304
 4187SOL    HW216520   5.285   0.030   6.066  0.2361 -0.3188  0.9486
 4187SOL    HW316521   5.347   0.166   6.089  2.7648 -1.4921  1.4123
 4187SOL    MW416522   5.335   0.096   6.039 -0.0702 -0.3494  0.2891
 4188SOL     OW16523   3.822   2.295   3.822  0.2099 -0.0081  0.3875
 4188SOL    HW216524   3.798   2.237   3.894 -0.2015 -0.7509 -0.3188
 4188SOL    HW316525   3.917   2.299   3.825  0.1870  0.1359  1.0866
 4188SOL    MW416526   3.831   2.288   3.832  0.1526 -0.0871  0.3866
 4189SOL     OW16527   1.704   2.906   6.397  0.6869  0.5505 -0.7832
 4189SOL    HW216528   1.747   2.825   6.425 -0.1101 -0.7230 -2.9388
 4189SOL    HW316529   1.688   2.954   6.478  0.4465 -1.8466  0.7006
 4189SOL    MW416530   1.707   2.902   6.411  0.5501  0.0662 -0.8718
 4190SOL     OW16531   5.646   3.735   6.432  0.2396 -0.2256  0.2033
 4190SOL    HW216532   5.649   3.730   6.336 -0.2728 -0.1149  0.1823
 4190SOL    HW316533   5.696   3.659   6.461 -0.4372 -0.8207 -0.1560
 4190SOL    MW416534   5.653   3.724   6.423  0.0827 -0.2895  0.1531
 4191SOL     OW16535   3.109   0.731   3.116  0.3244  0.2566 -0.2172
 4191SOL    HW216536   3.033   0.674   3.102  1.2248 -1.6944  2.1321
 4191SOL    HW316537   3.151   0.736   3.030 -1.1334 -0.6038 -1.0243
 4191SOL    MW416538   3.104   0.724   3.103  0.2509 -0.1143 -0.0137
 4192SOL     OW16539   4.574   3.244   3.413 -0.2654  0.2430  0.0855
 4192SOL    HW216540   4.508   3.283   3.356 -2.6748 -1.5651  1.4548
 4192SOL    HW316541   4.599   3.163   3.369  0.3685  0.4705  0.0194
 4192SOL    MW416542   4.569   3.239   3.400 -0.4996  0.0345  0.2574
 4193SOL     OW16543   3.212   2.693   1.205  0.1322  0.2555 -0.3732
 4193SOL    HW216544   3.305   2.704   1.187  0.2345  1.0511  0.5538
 4193SOL    HW316545   3.204   2.603   1.236  0.8118  0.5567  0.7401
 4193SOL    MW416546   3.223   2.682   1.207  0.2353  0.4002 -0.1040
 4194SOL     OW16547   2.405   6.059   2.524  0.1346 -0.3932  0.0294
 4194SOL    HW216548   2.387   6.073   2.431  0.4140 -0.5940 -0.0582
 4194SOL    HW316549   2.409   5.964   2.533  2.0285 -0.3674 -0.1398
 4194SOL    MW416550   2.403   6.048   2.513  0.4213 -0.4163 -0.0045
 4195SOL     OW16551   3.514   4.832   2.309 -0.0450  0.4680 -0.0098
 4195SOL    HW216552   3.536   4.922   2.333 -1.0262  0.8011 -0.3165
 4195SOL    HW316553   3.453   4.803   2.376  1.6558 -0.6347  1.1338
 4195SOL    MW416554   3.509   4.840   2.321  0.0499  0.3665  0.1006
 4196SOL     OW16555   1.333   5.584   6.356  0.0899  0.4075  0.1951
 4196SOL    HW216556   1.417   5.623   6.379  0.1598  0.3282  0.0778
 4196SOL    HW316557   1.270   5.625   6.416  0.3627 -0.2574  0.9671
 4196SOL    MW416558   1.336   5.594   6.367  0.1351  0.3093  0.2815
 4197SOL     OW16559   4.525   4.638   0.345  0.5222  0.2815  0.1953
 4197SOL    HW216560   4.492   4.651   0.257 -3.0061  0.0667  1.3561
 4197SOL    HW316561   4.535   4.543   0.353  1.7879  0.3515 -0.1933
 4197SOL    MW416562   4.522   4.627   0.334  0.2236  0.2624  0.2972
 4198SOL     OW16563   2.446   3.813   4.125  0.0683 -0.1583  0.2650
 4198SOL    HW216564   2.411   3.779   4.208 -1.8013 -1.9100 -1.1446
 4198SOL    HW316565   2.524   3.760   4.108 -0.4847 -0.9323  0.1076
 4198SOL    MW416566   2.452   3.802   4.134 -0.2513 -0.4915  0.0582
 4199SOL     OW16567   0.369   5.188   4.969 -0.2340  0.2305 -0.2445
 4199SOL    HW216568   0.436   5.157   4.908 -0.8477 -1.6574 -0.0253
 4199SOL    HW316569   0.415   5.200   5.052 -0.1548 -1.2251 -0.0503
 4199SOL    MW416570   0.384   5.185   4.972 -0.3045 -0.2106 -0.1900
 4200SOL     OW16571   3.529   3.169   1.733 -0.3185 -0.2272 -0.3626
 4200SOL    HW216572   3.450   3.206   1.694 -1.0466 -1.3591 -0.0267
 4200SOL    HW316573   3.562   3.109   1.666  0.1314  0.0811 -0.4158
 4200SOL    MW416574   3.523   3.166   1.719 -0.3552 -0.3359 -0.3253
 4201SOL     OW16575   2.404   2.519   1.859  0.1337 -0.3981 -0.0922
 4201SOL    HW216576   2.424   2.598   1.808 -2.4978  0.5209  0.1301
 4201SOL    HW316577   2.357   2.462   1.798 -0.6779 -0.4464  0.5678
 4201SOL    MW416578   2.401   2.522   1.844 -0.3206 -0.2832  0.0242
 4202SOL     OW16579   3.006   0.083   5.703 -0.8159  0.2697  0.4544
 4202SOL    HW216580   3.025   0.019   5.634 -0.2960  0.8209  0.0646
 4202SOL    HW316581   2.990   0.164   5.655  0.4501  0.8746  1.0097
 4202SOL    MW416582   3.006   0.085   5.687 -0.5803  0.4223  0.4763
 4203SOL     OW16583   4.462   5.851   4.636 -0.0717  0.1587 -0.3965
 4203SOL    HW216584   4.549   5.855   4.598 -0.3565  1.3723 -0.9503
 4203SOL    HW316585   4.445   5.757   4.648  1.4086 -0.0745 -0.0130
 4203SOL    MW416586   4.471   5.839   4.633  0.0860  0.2880 -0.4190
 4204SOL     OW16587   4.096   3.449   6.176  0.2049  0.1740 -0.0322
 4204SOL    HW216588   4.158   3.503   6.225 -0.9478  0.1207  1.5721
 4204SOL    HW316589   4.053   3.509   6.116  1.4933  0.2844 -0.8958
 4204SOL    MW416590   4.099   3.464   6.175  0.2228  0.1815  0.0656
 4205SOL     OW16591   4.654   0.912   5.502 -0.2328 -0.1570  0.0413
 4205SOL    HW216592   4.740   0.948   5.526  0.0610 -1.1982  0.6039
 4205SOL    HW316593   4.673   0.845   5.438 -0.5650 -0.8005  0.6062
 4205SOL    MW416594   4.668   0.908   5.497 -0.2379 -0.3793  0.1901
 4206SOL     OW16595   0.018   0.459   3.396 -0.4059 -0.8505 -0.2463
 4206SOL    HW216596   0.057   0.545   3.410 -0.2796 -1.0248  0.5203
 4206SOL    HW316597  -0.003   0.427   3.484 -1.7954 -0.9909 -0.6128
 4206SOL    MW416598   0.021   0.466   3.409 -0.5726 -0.8920 -0.1936
 4207SOL     OW16599   6.396   6.357   2.114  0.1417 -0.6523  0.0957
 4207SOL    HW216600   6.375   6.451   2.111  0.3893 -0.6126 -0.7807
 4207SOL    HW316601   6.330   6.319   2.172  0.6879  0.2241  1.3169
 4207SOL    MW416602   6.385   6.364   2.121  0.2465 -0.5314  0.1412
 4208SOL     OW16603   4.633   5.927   2.508 -0.3104  0.5399 -0.5336
 4208SOL    HW216604   4.550   5.958   2.471 -0.3853  0.5266 -0.3774
 4208SOL    HW316605   4.655   5.991   2.576 -1.7972 -1.0720  1.6274
 4208SOL    MW416606   4.625   5.939   2.512 -0.5165  0.3255 -0.2278
 4209SOL     OW16607   3.729   5.878   5.155  0.0564  0.0760 -0.3226
 4209SOL    HW216608   3.769   5.852   5.072  1.0384 -1.7642  0.6592
 4209SOL    HW316609   3.639   5.846   5.149  0.2837 -0.5494 -0.4635
 4209SOL    MW416610   3.722   5.870   5.143  0.2159 -0.2493 -0.2117
 4210SOL     OW16611   1.348   0.134   3.190 -0.3192  1.6243  0.1878
 4210SOL    HW216612   1.286   0.073   3.230 -0.8562  0.5862 -2.0564
 4210SOL    HW316613   1.433   0.108   3.226 -0.6305  0.0060 -0.1654
 4210SOL    MW416614   1.351   0.122   3.200 -0.4311  1.2738 -0.1549
 4211SOL     OW16615   6.420   4.906   1.498 -0.2342 -0.6981  0.3580
 4211SOL    HW216616   6.475   4.946   1.566  0.6152 -0.2417 -0.5685
 4211SOL    HW316617   6.483   4.872   1.434 -1.0344 -0.5486 -0.5230
 4211SOL    MW416618   6.436   4.907   1.499 -0.2277 -0.6182  0.1195
 4212SOL     OW16619   1.316   0.068   3.841  0.1211  0.4564 -0.4001
 4212SOL    HW216620   1.409   0.091   3.838 -0.0335  0.9716 -1.7605
 4212SOL    HW316621   1.273   0.146   3.876  0.1411  0.4131 -0.2788
 4212SOL    MW416622   1.322   0.081   3.845  0.1033  0.5187 -0.5636
 4213SOL     OW16623   0.921   5.557   6.099 -0.0667 -0.9429  0.2957
 4213SOL    HW216624   0.973   5.477   6.091  1.7728  0.1965  0.4381
 4213SOL    HW316625   0.944   5.593   6.185  0.0281  0.3363 -0.2384
 4213SOL    MW416626   0.931   5.551   6.109  0.1885 -0.6238  0.2440
 4214SOL     OW16627   0.622   4.304   4.237  0.4890  0.0950  0.5095
 4214SOL    HW216628   0.550   4.242   4.250 -0.4855  0.7520 -1.4785
 4214SOL    HW316629   0.688   4.255   4.188 -0.9980  0.9652 -2.6115
 4214SOL    MW416630   0.622   4.289   4.233  0.1642  0.2965 -0.1646
 4215SOL     OW16631   5.936   3.319   0.898 -0.2437 -0.1029  0.2122
 4215SOL    HW216632   5.947   3.410   0.927 -3.9604  0.2603  0.9446
 4215SOL    HW316633   5.928   3.269   0.978 -0.6047 -0.7177 -0.2021
 4215SOL    MW416634   5.937   3.325   0.912 -0.7817 -0.1361  0.2542
 4216SOL     OW16635   0.922   5.321   3.622  0.2994  0.3054  0.5227
 4216SOL    HW216636   0.998   5.270   3.595  0.6296 -0.2852  2.4179
 4216SOL    HW316637   0.884   5.270   3.694 -0.4384  1.8269  1.2479
 4216SOL    MW416638   0.927   5.307   3.628  0.2456  0.4282  0.8684
 4217SOL     OW16639   3.886   2.061   3.106  0.0717 -0.2885 -0.1925
 4217SOL    HW216640   3.826   2.113   3.159 -0.9075  0.4039 -1.8720
 4217SOL    HW316641   3.968   2.061   3.155 -0.0440  2.4240  0.1877
 4217SOL    MW416642   3.889   2.068   3.119 -0.0728  0.1607 -0.3639
 4218SOL     OW16643   0.002   4.780   1.069 -0.3841 -0.1046 -0.3790
 4218SOL    HW216644   0.033   4.813   0.985  1.0568 -0.0683  0.1452
 4218SOL    HW316645   0.066   4.712   1.093 -0.8983 -0.2615  0.5843
 4218SOL    MW416646   0.015   4.775   1.061 -0.2618 -0.1205 -0.1827
 4219SOL     OW16647   1.150   2.555   1.981 -0.0010  0.1219  0.1982
 4219SOL    HW216648   1.243   2.575   1.976  0.3136 -0.8280  1.6641
 4219SOL    HW316649   1.146   2.459   1.978 -0.8669  0.1247  0.9181
 4219SOL    MW416650   1.161   2.545   1.980 -0.0738 -0.0031  0.4866
 4220SOL     OW16651   6.007   3.255   0.127 -0.1293  0.8690 -0.0701
 4220SOL    HW216652   6.023   3.268   0.034 -0.0455  0.0414 -0.1763
 4220SOL    HW316653   5.913   3.237   0.133 -0.5867  3.0756  0.2604
 4220SOL    MW416654   5.996   3.254   0.116 -0.1786  1.0510 -0.0405
 4221SOL     OW16655   2.402   3.313   3.995  0.3613  0.8200  0.0035
 4221SOL    HW216656   2.409   3.390   3.939  0.6264 -0.0545 -1.1859
 4221SOL    HW316657   2.314   3.279   3.979  1.1599 -0.6536 -1.5551
 4221SOL    MW416658   2.391   3.318   3.986  0.5016  0.5102 -0.3591
 4222SOL     OW16659   3.910   1.883   3.600  0.6595 -0.1653  0.0650
 4222SOL    HW216660   3.996   1.869   3.560  1.7336 -0.4883  2.3307
 4222SOL    HW316661   3.907   1.977   3.616 -0.3211  0.1770 -1.8109
 4222SOL    MW416662   3.921   1.894   3.597  0.6718 -0.1628  0.1164
 4223SOL     OW16663   2.647   3.218   1.139 -0.3772 -0.5220  0.2947
 4223SOL    HW216664   2.702   3.162   1.193  1.0336  0.5563  0.0395
 4223SOL    HW316665   2.708   3.261   1.078 -1.4271  1.0110  0.2513
 4223SOL    MW416666   2.662   3.217   1.138 -0.3295 -0.1774  0.2553
 4224SOL     OW16667   4.880   6.015   4.370  0.0296 -0.2725  0.3411
 4224SOL    HW216668   4.957   6.067   4.396 -1.2335  1.4768  0.7745
 4224SOL    HW316669   4.890   6.004   4.275  0.6838  0.1413  0.3523
 4224SOL    MW416670   4.892   6.020   4.361 -0.0507  0.0129  0.3997
 4225SOL     OW16671   5.707   1.577   0.119 -0.7171 -0.5967 -0.2054
 4225SOL    HW216672   5.744   1.600   0.034 -1.8697  1.8002 -0.1233
 4225SOL    HW316673   5.782   1.578   0.179 -0.2084 -0.3444 -0.8381
 4225SOL    MW416674   5.722   1.580   0.116 -0.8021 -0.2471 -0.2781
 4226SOL     OW16675   5.317   1.812   4.018 -0.4105 -0.1350  0.0869
 4226SOL    HW216676   5.242   1.803   4.077 -2.3525  1.1671 -2.0207
 4226SOL    HW316677   5.366   1.886   4.053 -1.6580  0.7644 -0.0075
 4226SOL    MW416678   5.314   1.820   4.031 -0.8314  0.1555 -0.2037
 4227SOL     OW16679   3.645   1.461   1.359 -0.2061 -0.7238  0.2812
 4227SOL    HW216680   3.571   1.495   1.410 -0.3700  1.2347 -1.1415
 4227SOL    HW316681   3.605   1.417   1.284  0.0482 -0.7952  0.1862
 4227SOL    MW416682   3.630   1.460   1.356 -0.1942 -0.4748  0.0809
 4228SOL     OW16683   0.487   5.926   4.865  0.5665  0.6490  0.2911
 4228SOL    HW216684   0.439   5.946   4.946 -2.4410  0.6009 -1.3697
 4228SOL    HW316685   0.511   6.012   4.830 -0.0337  0.7585  0.1492
 4228SOL    MW416686   0.484   5.940   4.871  0.0905  0.6571  0.0532
 4229SOL     OW16687   3.538   4.224   2.464 -0.3293  0.0238  0.5042
 4229SOL    HW216688   3.518   4.257   2.552  1.2734 -0.2093  1.0031
 4229SOL    HW316689   3.558   4.302   2.412 -0.4892  0.1119  0.5760
 4229SOL    MW416690   3.538   4.238   2.469 -0.1390  0.0047  0.5795
 4230SOL     OW16691   2.293   1.192   3.047 -0.1389 -0.2768 -0.2764
 4230SOL    HW216692   2.234   1.264   3.070  0.4651 -0.3425  1.6873
 4230SOL    HW316693   2.245   1.113   3.072  0.0509 -0.4282 -0.3907
 4230SOL    MW416694   2.279   1.191   3.054 -0.0341 -0.3054 -0.0324
 4231SOL     OW16695   4.908   5.904   4.766  0.5598 -0.2270  0.4676
 4231SOL    HW216696   4.959   5.838   4.812 -0.1507 -1.6098 -0.6355
 4231SOL    HW316697   4.970   5.975   4.747  1.7910 -1.3618  0.1540
 4231SOL    MW416698   4.923   5.905   4.769  0.6285 -0.5592  0.2807
 4232SOL     OW16699   3.760   6.101   5.309 -0.1239 -0.1239  0.5360
 4232SOL    HW216700   3.675   6.077   5.345 -0.4629 -0.1840 -0.2817
 4232SOL    HW316701   3.785   6.025   5.255 -0.2141  0.4702 -0.3580
 4232SOL    MW416702   3.752   6.088   5.307 -0.1805 -0.0535  0.3102
 4233SOL     OW16703   2.384   5.633   1.212 -0.4455  0.5266 -0.0548
 4233SOL    HW216704   2.318   5.577   1.171 -1.7907  1.1585  1.1910
 4233SOL    HW316705   2.344   5.664   1.293  0.8435  2.0836  0.0486
 4233SOL    MW416706   2.370   5.630   1.217 -0.4529  0.8154  0.1232
 4234SOL     OW16707   3.998   5.745   5.763 -0.2974  0.0041  0.5320
 4234SOL    HW216708   4.000   5.812   5.831  0.4288 -0.7136  1.2436
 4234SOL    HW316709   4.072   5.766   5.707 -0.5974  0.3056  0.2473
 4234SOL    MW416710   4.008   5.757   5.765 -0.2412 -0.0508  0.5884
 4235SOL     OW16711   6.051   2.931   1.588 -0.3764  0.1901  0.2654
 4235SOL    HW216712   6.089   2.875   1.521 -2.4091 -2.1897  0.9390
 4235SOL    HW316713   6.012   3.004   1.539 -1.3947 -1.2302 -1.1213
 4235SOL    MW416714   6.051   2.934   1.573 -0.7789 -0.3113  0.1713
 4236SOL     OW16715   5.601   2.617   0.506 -0.2287  0.2366  0.4146
 4236SOL    HW216716   5.585   2.679   0.577 -0.7946  0.7687 -0.1677
 4236SOL    HW316717   5.696   2.609   0.501 -0.1455  1.1762  0.3985
 4236SOL    MW416718   5.611   2.624   0.515 -0.2924  0.4308  0.3356
 4237SOL     OW16719   4.266   3.393   5.849 -0.3151 -0.0500  0.6543
 4237SOL    HW216720   4.249   3.470   5.795  0.4694 -0.5584 -0.3459
 4237SOL    HW316721   4.302   3.429   5.931  0.1541  0.6552  0.1523
 4237SOL    MW416722   4.269   3.408   5.853 -0.1497 -0.0240  0.4561
 4238SOL     OW16723   2.525   3.665   0.698  0.3769  0.3453 -0.4524
 4238SOL    HW216724   2.461   3.721   0.741  1.4163  0.5359  0.9040
 4238SOL    HW316725   2.563   3.720   0.630 -0.6715  0.3223 -1.0733
 4238SOL    MW416726   2.521   3.679   0.695  0.3757  0.3674 -0.3553
 4239SOL     OW16727   1.931   1.268   1.196  0.7215  0.4909 -0.1804
 4239SOL    HW216728   1.900   1.258   1.106  4.4144 -3.2529 -1.3347
 4239SOL    HW316729   1.876   1.209   1.247 -1.1357  2.3417  0.0716
 4239SOL    MW416730   1.920   1.259   1.191  0.9637  0.2411 -0.2995
 4240SOL     OW16731   0.031   5.798   1.285  0.1384  0.1593  0.3880
 4240SOL    HW216732  -0.002   5.725   1.336 -0.1155  0.0395  0.0607
 4240SOL    HW316733   0.125   5.782   1.276 -0.1543 -0.9312 -0.9582
 4240SOL    MW416734   0.039   5.786   1.290  0.0663 -0.0004  0.1672
 4241SOL     OW16735   3.287   5.417   2.417 -0.1062  0.0579 -0.2010
 4241SOL    HW216736   3.268   5.324   2.428  1.6830 -0.1901  1.3174
 4241SOL    HW316737   3.375   5.428   2.455 -1.3878  2.8899  2.3347
 4241SOL    MW416738   3.296   5.406   2.423 -0.0392  0.3988  0.3339
 4242SOL     OW16739   1.501   0.679   5.886 -0.3703 -0.2884  0.2948
 4242SOL    HW216740   1.431   0.733   5.851 -1.0860 -1.3538  0.0405
 4242SOL    HW316741   1.574   0.691   5.825 -0.8265 -0.3111 -0.2559
 4242SOL    MW416742   1.502   0.688   5.874 -0.5249 -0.4320  0.1886
 4243SOL     OW16743   5.247   5.910   1.417 -0.3036  0.0401  0.5902
 4243SOL    HW216744   5.284   5.997   1.407 -0.4995  0.6808  4.0662
 4243SOL    HW316745   5.154   5.921   1.398 -0.4860  0.8557  1.8041
 4243SOL    MW416746   5.239   5.923   1.413 -0.3535  0.2323  1.2089
 4244SOL     OW16747   0.583   3.150   0.351  0.1310 -0.5141  0.4150
 4244SOL    HW216748   0.647   3.134   0.282 -0.6796  0.8029 -0.6857
 4244SOL    HW316749   0.572   3.245   0.352 -2.7287 -0.7483 -0.2941
 4244SOL    MW416750   0.590   3.161   0.342 -0.3532 -0.3712  0.1762
 4245SOL     OW16751   2.942   1.980   5.649  0.3816  0.0663  0.0507
 4245SOL    HW216752   3.010   1.996   5.715 -0.0879  0.9969  0.3256
 4245SOL    HW316753   2.968   2.034   5.574  0.3182 -0.1255 -0.1107
 4245SOL    MW416754   2.955   1.990   5.648  0.3113  0.1637  0.0657
 4246SOL     OW16755   1.329   4.390   2.248  0.4819  0.0019 -0.3207
 4246SOL    HW216756   1.281   4.428   2.175 -0.6220  1.0498  0.8892
 4246SOL    HW316757   1.409   4.442   2.254  1.0827 -0.7572 -1.3905
 4246SOL    MW416758   1.333   4.402   2.239  0.4155  0.0400 -0.3022
 4247SOL     OW16759   5.434   4.553   0.673  0.5070 -0.5587  0.7199
 4247SOL    HW216760   5.483   4.484   0.629 -1.9859 -1.0814 -1.4978
 4247SOL    HW316761   5.500   4.620   0.694  2.2697 -1.4865 -1.4857
 4247SOL    MW416762   5.449   4.553   0.670  0.4107 -0.7501  0.1363
 4248SOL     OW16763   2.063   4.299   1.718  0.4791  0.6449 -0.3982
 4248SOL    HW216764   2.010   4.264   1.789  0.2552  1.7766  0.0255
 4248SOL    HW316765   2.124   4.360   1.762  0.7670  0.8683 -1.0989
 4248SOL    MW416766   2.064   4.303   1.733  0.4876  0.8237 -0.4348
 4249SOL     OW16767   0.880   0.141   5.425 -0.5174  0.0814  0.0989
 4249SOL    HW216768   0.788   0.115   5.424 -1.4474  2.9635 -1.4588
 4249SOL    HW316769   0.924   0.079   5.367 -2.0150  0.1579 -1.1860
 4249SOL    MW416770   0.874   0.129   5.417 -0.8377  0.4718 -0.2762
 4250SOL     OW16771   2.032   2.504   1.861  0.2323  1.0772  0.1917
 4250SOL    HW216772   1.962   2.458   1.815  1.2835  1.8130 -2.3031
 4250SOL    HW316773   1.986   2.561   1.924 -1.1795 -1.1586  1.3121
 4250SOL    MW416774   2.017   2.506   1.863  0.1847  0.8793  0.0104
 4251SOL     OW16775   1.873   5.926   0.152 -0.3445  0.4832  0.1442
 4251SOL    HW216776   1.928   5.916   0.075 -1.2847 -1.6332 -0.3140
 4251SOL    HW316777   1.902   5.858   0.212 -0.5973  1.1794  1.0862
 4251SOL    MW416778   1.884   5.916   0.149 -0.5019  0.2958  0.2080
 4252SOL     OW16779   5.848   4.226   5.610  0.0762  0.1609 -0.2537
 4252SOL    HW216780   5.863   4.313   5.573  2.2296  0.8222  1.9243
 4252SOL    HW316781   5.831   4.170   5.534  1.3359  1.9642 -1.9525
 4252SOL    MW416782   5.848   4.230   5.595  0.5265  0.4861 -0.1905
 4253SOL     OW16783   1.378   6.000   6.267 -0.1032 -0.0433  0.1150
 4253SOL    HW216784   1.324   5.929   6.233 -0.2801 -0.5127  1.3218
 4253SOL    HW316785   1.314   6.067   6.293  0.0253  0.2849 -0.4092
 4253SOL    MW416786   1.362   6.000   6.266 -0.1096 -0.0619  0.2050
 4254SOL     OW16787   1.966   5.827   5.867  0.8252  0.4926 -0.2730
 4254SOL    HW216788   2.009   5.755   5.820 -0.7000 -0.7813  0.1904
 4254SOL    HW316789   1.890   5.849   5.814 -0.8084 -0.8245  1.3802
 4254SOL    MW416790   1.962   5.820   5.854  0.4084  0.1507  0.0063
 4255SOL     OW16791   5.969   1.650   0.600  0.0839  0.3171 -0.0299
 4255SOL    HW216792   6.012   1.582   0.549 -0.4548  1.1522 -1.6988
 4255SOL    HW316793   6.040   1.711   0.622  0.3576 -0.1558  0.4288
 4255SOL    MW416794   5.984   1.649   0.596  0.0489  0.3649 -0.1896
 4256SOL     OW16795   4.528   6.423   2.806 -0.0464  0.8269 -0.1906
 4256SOL    HW216796   4.622   6.418   2.824 -0.0721  1.4453  0.1465
 4256SOL    HW316797   4.490   6.453   2.888 -0.6634 -0.3962 -0.0125
 4256SOL    MW416798   4.536   6.427   2.819 -0.1312  0.7471 -0.1226
 4257SOL     OW16799   3.484   4.427   5.503  0.2500  0.0899 -0.9081
 4257SOL    HW216800   3.452   4.511   5.534 -0.6877 -0.8731  0.8388
 4257SOL    HW316801   3.540   4.395   5.574  0.1942 -0.9894 -1.3389
 4257SOL    MW416802   3.487   4.434   5.516  0.1189 -0.1796 -0.7344
 4258SOL     OW16803   3.919   5.597   2.660 -0.0930  0.2099 -0.4194
 4258SOL    HW216804   4.000   5.622   2.615  2.0964 -0.8798  2.5684
 4258SOL    HW316805   3.893   5.515   2.618 -0.4691  1.2057 -2.2589
 4258SOL    MW416806   3.926   5.590   2.649  0.1462  0.1975 -0.2679
 4259SOL     OW16807   4.119   5.058   1.731 -0.6360 -0.4343 -0.1754
 4259SOL    HW216808   4.130   5.129   1.794  0.7461 -0.8591  0.0951
 4259SOL    HW316809   4.028   5.065   1.702 -0.2671  2.0888 -0.9424
 4259SOL    MW416810   4.108   5.068   1.735 -0.4049 -0.1574 -0.2409
 4260SOL     OW16811   3.246   4.553   3.314  0.2195  0.6647 -0.1867
 4260SOL    HW216812   3.298   4.579   3.238 -0.3701  0.1407 -0.7838
 4260SOL    HW316813   3.308   4.553   3.387  1.1752 -0.4731 -0.9734
 4260SOL    MW416814   3.261   4.557   3.313  0.2678  0.4455 -0.3693
 4261SOL     OW16815   2.290   5.213   3.569  0.4970  0.0606 -0.2716
 4261SOL    HW216816   2.225   5.220   3.500  2.8020  1.2319 -2.4716
 4261SOL    HW316817   2.279   5.292   3.621  0.3887  0.4356 -0.8566
 4261SOL    MW416818   2.280   5.224   3.567  0.7868  0.2646 -0.6390
 4262SOL     OW16819   5.412   2.039   2.426 -0.6046 -0.0364 -0.3294
 4262SOL    HW216820   5.389   2.054   2.335 -0.2073  1.2634 -0.2386
 4262SOL    HW316821   5.344   1.980   2.459 -0.9277 -0.2601 -1.3754
 4262SOL    MW416822   5.400   2.033   2.419 -0.5948  0.1055 -0.4554
 4263SOL     OW16823   6.147   5.138   3.724  0.5828 -0.5973  0.1024
 4263SOL    HW216824   6.114   5.146   3.634 -0.4641  0.8677  0.5862
 4263SOL    HW316825   6.078   5.091   3.770  0.7322 -0.5813  0.3405
 4263SOL    MW416826   6.134   5.133   3.718  0.4644 -0.4019  0.1977
 4264SOL     OW16827   0.615   4.428   0.223 -0.0491  0.8353 -0.1726
 4264SOL    HW216828   0.640   4.346   0.265  0.8872  0.4917 -1.3565
 4264SOL    HW316829   0.525   4.443   0.252 -0.2747 -0.6661 -0.0186
 4264SOL    MW416830   0.606   4.419   0.232  0.0446  0.5919 -0.3085
 4265SOL     OW16831   5.966   4.514   3.759  0.2018  0.5571  0.4946
 4265SOL    HW216832   5.993   4.426   3.733  1.9639  0.4513  2.4665
 4265SOL    HW316833   6.015   4.532   3.839 -2.1778  2.2661  1.7138
 4265SOL    MW416834   5.976   4.505   3.766  0.1203  0.7686  0.9156
 4266SOL     OW16835   5.195   4.566   0.803  0.3060  0.3762  0.5405
 4266SOL    HW216836   5.281   4.548   0.764  0.4906  1.4684  0.4175
 4266SOL    HW316837   5.163   4.480   0.830  0.1192 -0.4906 -2.1039
 4266SOL    MW416838   5.202   4.552   0.801  0.3057  0.4059  0.1754
 4267SOL     OW16839   6.033   6.245   5.107  0.4407 -0.2700  0.1666
 4267SOL    HW216840   6.063   6.157   5.084  2.1037 -0.3443  2.3358
 4267SOL    HW316841   6.038   6.248   5.203 -3.0366  1.0153  0.4548
 4267SOL    MW416842   6.037   6.234   5.117  0.2014 -0.1102  0.4908
 4268SOL     OW16843   0.913   3.606   0.268  0.0700 -0.1639  0.2560
 4268SOL    HW216844   0.905   3.701   0.265  1.0212  0.0758  2.8334
 4268SOL    HW316845   0.881   3.582   0.355  2.2829 -1.8920  0.6808
 4268SOL    MW416846   0.907   3.615   0.279  0.4875 -0.3602  0.6521
 4269SOL     OW16847   4.737   2.540   4.111  0.0770  0.2422 -0.4669
 4269SOL    HW216848   4.673   2.483   4.070 -2.8795  2.3021  0.9259
 4269SOL    HW316849   4.740   2.618   4.056  1.3996  0.2097 -0.4794
 4269SOL    MW416850   4.729   2.543   4.099 -0.1386  0.5097 -0.2848
 4270SOL     OW16851   1.181   6.322   2.152 -0.1072 -0.3165  0.6891
 4270SOL    HW216852   1.205   6.261   2.222  0.1118 -1.2219 -0.1618
 4270SOL    HW316853   1.111   6.278   2.104  0.4872 -0.1779 -0.3264
 4270SOL    MW416854   1.175   6.308   2.155  0.0002 -0.4177  0.4428
 4271SOL     OW16855   3.229   4.392   1.008 -0.3533  0.3448 -0.2475
 4271SOL    HW216856   3.146   4.439   1.010 -0.3272  0.3734  0.4945
 4271SOL    HW316857   3.210   4.311   0.961 -0.3053  1.2568 -1.8832
 4271SOL    MW416858   3.216   4.387   1.002 -0.3435  0.4689 -0.3654
 4272SOL     OW16859   5.304   5.016   0.228  0.5200  0.2459 -0.1641
 4272SOL    HW216860   5.294   4.925   0.253 -0.9483 -0.0584 -1.6855
 4272SOL    HW316861   5.218   5.041   0.192  0.6392  2.4548  0.9074
 4272SOL    MW416862   5.291   5.008   0.227  0.3420  0.4972 -0.2235
 4273SOL     OW16863   0.627   2.086   4.792 -0.1565  1.2698 -0.1257
 4273SOL    HW216864   0.605   2.110   4.702  2.4772 -0.2403 -1.2764
 4273SOL    HW316865   0.682   2.008   4.784 -0.8016  0.3465  2.8957
 4273SOL    MW416866   0.632   2.079   4.779  0.1059  0.9487  0.1211
 4274SOL     OW16867   0.680   3.285   0.715 -0.0202  0.0731  0.0062
 4274SOL    HW216868   0.640   3.363   0.752 -0.7230 -0.0590 -0.4715
 4274SOL    HW316869   0.775   3.302   0.722 -0.1568  1.1850 -0.5419
 4274SOL    MW416870   0.687   3.298   0.721 -0.1309  0.2023 -0.1291
 4275SOL     OW16871   2.721   3.081   4.339 -0.0514 -0.6067 -0.1204
 4275SOL    HW216872   2.639   3.103   4.295 -0.8729 -0.2567  1.5201
 4275SOL    HW316873   2.732   3.149   4.406  1.9033 -0.2979 -0.6885
 4275SOL    MW416874   2.711   3.093   4.342  0.0981 -0.5198  0.0211
 4276SOL     OW16875   0.445   4.937   5.244 -0.2053  0.3391 -0.6661
 4276SOL    HW216876   0.401   4.922   5.328 -1.6973  1.8848 -1.1043
 4276SOL    HW316877   0.536   4.912   5.260 -0.4433  0.5573  1.4117
 4276SOL    MW416878   0.451   4.932   5.258 -0.4336  0.5718 -0.4498
 4277SOL     OW16879   1.271   0.232   0.171  0.0906  0.5480 -0.1043
 4277SOL    HW216880   1.184   0.238   0.211  0.4328  0.3845  0.6963
 4277SOL    HW316881   1.320   0.176   0.231  0.4965 -0.0922 -1.0033
 4277SOL    MW416882   1.266   0.225   0.184  0.1893  0.4420 -0.1173
 4278SOL     OW16883   1.330   3.017   5.396 -0.1046 -0.6750  0.0580
 4278SOL    HW216884   1.287   3.075   5.459 -0.2330  1.4523 -1.8424
 4278SOL    HW316885   1.408   3.065   5.369  0.9634 -2.3860 -0.0300
 4278SOL    MW416886   1.334   3.031   5.400  0.0194 -0.6201 -0.2043
 4279SOL     OW16887   2.906   4.237   2.890  0.4757 -0.0079  0.2958
 4279SOL    HW216888   2.878   4.233   2.982 -3.2017 -2.5129 -0.6941
 4279SOL    HW316889   2.972   4.168   2.883  0.9958  0.3908  1.0982
 4279SOL    MW416890   2.911   4.227   2.901  0.0591 -0.2858  0.2711
 4280SOL     OW16891   2.513   1.977   1.395 -0.0190  0.2642 -0.3133
 4280SOL    HW216892   2.535   1.900   1.447  1.0431  1.8054  1.6392
 4280SOL    HW316893   2.546   1.958   1.308 -2.2331 -2.5831 -0.6621
 4280SOL    MW416894   2.520   1.965   1.390 -0.1710  0.0919 -0.1017
 4281SOL     OW16895   1.409   0.915   1.581  0.2022 -0.0577  0.2970
 4281SOL    HW216896   1.499   0.913   1.550 -0.1943 -1.3669 -0.8453
 4281SOL    HW316897   1.415   0.897   1.675  1.1020 -0.2847  0.1990
 4281SOL    MW416898   1.422   0.913   1.589  0.2686 -0.2604  0.1334
 4282SOL     OW16899   3.851   4.059   6.072 -0.1029  0.0270  0.4449
 4282SOL    HW216900   3.853   3.971   6.108  0.2871 -0.5077 -0.8270
 4282SOL    HW316901   3.886   4.050   5.984 -0.7058  1.3432  0.0395
 4282SOL    MW416902   3.856   4.046   6.065 -0.1310  0.1301  0.2236
 4283SOL     OW16903   2.969   4.832   2.674 -0.3842  0.5219 -0.2630
 4283SOL    HW216904   3.013   4.751   2.649 -0.0614  1.3200 -2.5234
 4283SOL    HW316905   2.937   4.868   2.591 -1.4445  2.1803  0.8123
 4283SOL    MW416906   2.971   4.826   2.660 -0.4815  0.8460 -0.4194
 4284SOL     OW16907   0.979   1.657   6.055  0.0455 -0.0689  0.1351
 4284SOL    HW216908   0.998   1.702   5.973  0.9566 -0.4567  0.1255
 4284SOL    HW316909   1.019   1.571   6.046 -2.6457 -1.3982 -0.3229
 4284SOL    MW416910   0.986   1.651   6.043 -0.1894 -0.2954  0.0734
 4285SOL     OW16911   4.069   2.556   0.281 -0.1879  0.1834 -0.2733
 4285SOL    HW216912   4.125   2.623   0.320 -0.3658 -0.3611  0.9559
 4285SOL    HW316913   4.016   2.524   0.354 -0.7687 -0.6289 -1.0415
 4285SOL    MW416914   4.070   2.561   0.296 -0.2880  0.0044 -0.2125
 4286SOL     OW16915   3.774   2.713   5.201 -0.1718  0.4094  0.1367
 4286SOL    HW216916   3.810   2.662   5.129 -0.8421  1.4158 -0.9513
 4286SOL    HW316917   3.739   2.648   5.262  0.7255 -0.4660 -0.2634
 4286SOL    MW416918   3.774   2.697   5.200 -0.1418  0.4267 -0.0596
 4287SOL     OW16919   2.223   0.812   4.615  0.4894  0.3615  0.5505
 4287SOL    HW216920   2.144   0.763   4.638  2.0537 -2.1789  0.9843
 4287SOL    HW316921   2.214   0.829   4.522  0.6200 -2.5098 -0.0961
 4287SOL    MW416922   2.212   0.808   4.606  0.7130 -0.3525  0.5224
 4288SOL     OW16923   6.126   4.696   6.417  0.6153 -0.5815 -0.7446
 4288SOL    HW216924   6.095   4.680   6.507 -0.3723  0.4902 -0.8721
 4288SOL    HW316925   6.064   4.648   6.362  0.6487 -0.4399 -0.9045
 4288SOL    MW416926   6.114   4.687   6.422  0.4894 -0.4214 -0.7826
 4289SOL     OW16927   3.471   4.872   6.211  0.1338  0.5873  0.6746
 4289SOL    HW216928   3.411   4.946   6.204  0.1710  0.6215  0.7166
 4289SOL    HW316929   3.413   4.796   6.218  0.0868  0.5000 -0.4120
 4289SOL    MW416930   3.455   4.872   6.211  0.1325  0.5803  0.5368
 4290SOL     OW16931   0.336   2.193   3.795 -0.6270  0.2831 -0.6894
 4290SOL    HW216932   0.261   2.134   3.788  1.7680 -3.4238  1.5201
 4290SOL    HW316933   0.326   2.234   3.881 -0.3114  0.0262 -0.5278
 4290SOL    MW416934   0.325   2.190   3.805 -0.2694 -0.2399 -0.3766
 4291SOL     OW16935   2.749   2.252   5.538  0.3827  0.2767  0.0850
 4291SOL    HW216936   2.826   2.234   5.484  0.8186  0.3923  0.6600
 4291SOL    HW316937   2.679   2.200   5.499  0.8470 -0.1343 -0.2025
 4291SOL    MW416938   2.750   2.243   5.526  0.5015  0.2377  0.1229
 4292SOL     OW16939   5.340   5.653   5.027 -0.0109  0.0519 -0.1350
 4292SOL    HW216940   5.362   5.745   5.043 -0.6793  0.2053 -0.0804
 4292SOL    HW316941   5.325   5.617   5.114  1.3208 -0.3943 -0.0703
 4292SOL    MW416942   5.341   5.660   5.041  0.0766  0.0133 -0.1193
 4293SOL     OW16943   2.911   5.189   3.890 -0.3608  0.1256 -0.9245
 4293SOL    HW216944   2.817   5.169   3.890 -0.0823 -1.3254 -0.2208
 4293SOL    HW316945   2.932   5.206   3.798 -1.2321  0.0615 -1.1457
 4293SOL    MW416946   2.902   5.189   3.878 -0.4390 -0.0743 -0.8608
 4294SOL     OW16947   4.660   1.976   2.564  0.1018 -0.0701 -0.3533
 4294SOL    HW216948   4.737   1.938   2.606 -0.1899 -1.0020 -0.6466
 4294SOL    HW316949   4.609   2.012   2.637  1.2108  1.3483 -0.2294
 4294SOL    MW416950   4.664   1.976   2.579  0.2096 -0.0059 -0.3756
 4295SOL     OW16951   5.014   6.346   2.291 -0.2532  0.0509  0.2045
 4295SOL    HW216952   5.032   6.257   2.321  0.9691  0.1858 -0.0868
 4295SOL    HW316953   4.981   6.336   2.202 -0.6346 -0.1364  0.3650
 4295SOL    MW416954   5.012   6.333   2.284 -0.1422  0.0440  0.1872
 4296SOL     OW16955   6.241   5.787   1.709 -0.5093 -0.3363 -0.1547
 4296SOL    HW216956   6.261   5.696   1.690  0.1813 -0.4076  0.8584
 4296SOL    HW316957   6.273   5.835   1.633  0.6296 -0.7741  0.0367
 4296SOL    MW416958   6.248   5.781   1.696 -0.2679 -0.4035  0.0042
 4297SOL     OW16959   4.599   6.109   1.657 -0.3491 -0.2340  0.1743
 4297SOL    HW216960   4.673   6.080   1.711 -0.2201 -1.4779 -0.6513
 4297SOL    HW316961   4.596   6.204   1.671  1.5719 -0.1064  0.0139
 4297SOL    MW416962   4.608   6.118   1.666 -0.0787 -0.3813  0.0442
 4298SOL     OW16963   4.618   0.743   2.667  0.2842 -0.1544  0.3411
 4298SOL    HW216964   4.698   0.690   2.676  0.8392  0.5923 -0.0852
 4298SOL    HW316965   4.632   0.794   2.587 -0.1549  0.7751  0.8470
 4298SOL    MW416966   4.631   0.742   2.658  0.2995  0.0667  0.3516
 4299SOL     OW16967   3.933   0.352   5.454  0.0078  0.0040  0.1744
 4299SOL    HW216968   3.841   0.352   5.425  0.4365  1.1568 -1.3307
 4299SOL    HW316969   3.973   0.279   5.407  0.2085  0.5147 -0.4671
 4299SOL    MW416970   3.926   0.342   5.444  0.0909  0.2235 -0.1088
 4300SOL     OW16971   3.416   0.777   1.135 -0.0124 -0.5027  0.5148
 4300SOL    HW216972   3.381   0.689   1.121 -0.1253 -0.2682 -0.7893
 4300SOL    HW316973   3.451   0.803   1.050 -2.3588  1.7512  0.1243
 4300SOL    MW416974   3.416   0.769   1.122 -0.3369 -0.1744  0.2912
 4301SOL     OW16975   2.818   2.839   0.031 -0.0546  0.4418  0.7285
 4301SOL    HW216976   2.819   2.756   0.078  0.3862  0.0342  0.0089
 4301SOL    HW316977   2.863   2.900   0.089 -1.2061  0.4299  1.6861
 4301SOL    MW416978   2.824   2.836   0.044 -0.1483  0.3865  0.7599
 4302SOL     OW16979   3.591   3.011   1.257  0.0375  0.5036 -0.7003
 4302SOL    HW216980   3.604   3.080   1.191  0.0916 -0.1960 -1.4368
 4302SOL    HW316981   3.663   2.950   1.241  0.1735  0.4304  0.1572
 4302SOL    MW416982   3.602   3.012   1.246  0.0626  0.4017 -0.6843
 4303SOL     OW16983   2.579   5.682   5.241  0.0213 -0.3423 -0.6993
 4303SOL    HW216984   2.649   5.729   5.287 -0.4968  0.0271 -0.2822
 4303SOL    HW316985   2.624   5.640   5.167  0.3670  1.4555 -1.5732
 4303SOL    MW416986   2.594   5.683   5.237 -0.0014 -0.0564 -0.7596
 4304SOL     OW16987   1.307   5.303   1.902 -0.3849 -0.2051  0.0872
 4304SOL    HW216988   1.257   5.338   1.829 -0.0588 -1.0151 -0.5432
 4304SOL    HW316989   1.241   5.265   1.960 -0.5285 -1.2721 -0.7425
 4304SOL    MW416990   1.292   5.303   1.900 -0.3609 -0.4528 -0.1055
 4305SOL     OW16991   2.829   2.844   1.504 -0.3737 -0.1418  0.0893
 4305SOL    HW216992   2.830   2.750   1.489  1.0338 -0.1548  0.1391
 4305SOL    HW316993   2.829   2.853   1.600  0.5103 -0.1108  0.0952
 4305SOL    MW416994   2.829   2.833   1.515 -0.0714 -0.1395  0.0967
 4306SOL     OW16995   0.755   6.256   5.616 -0.1858 -0.0422 -0.1879
 4306SOL    HW216996   0.776   6.186   5.555  2.0499  0.9068 -0.5879
 4306SOL    HW316997   0.717   6.211   5.692  0.0435 -1.5419 -0.9290
 4306SOL    MW416998   0.753   6.240   5.618  0.1395 -0.1148 -0.3384
 4307SOL     OW16999   1.717   4.986   4.424 -0.2121 -0.0248  0.4607
 4307SOL    HW217000   1.746   5.069   4.386 -0.1936 -0.3799 -0.2995
 4307SOL    HW317001   1.625   4.979   4.399  0.2260 -1.0666 -0.9937
 4307SOL    MW417002   1.709   4.996   4.416 -0.1519 -0.2091  0.1685
 4308SOL     OW17003   0.459   5.423   0.612 -0.1352 -0.5278 -0.3015
 4308SOL    HW217004   0.438   5.471   0.692  0.9034  0.1269 -0.3953
 4308SOL    HW317005   0.378   5.422   0.562 -0.2068  1.0810 -0.2592
 4308SOL    MW417006   0.446   5.429   0.616 -0.0076 -0.2291 -0.3083
 4309SOL     OW17007   5.496   3.248   6.023 -0.2082  0.1730 -0.1293
 4309SOL    HW217008   5.443   3.187   6.074  1.4792 -1.1962  0.0806
 4309SOL    HW317009   5.455   3.250   5.937 -1.7194  0.6856  0.5808
 4309SOL    MW417010   5.484   3.240   6.019 -0.1850  0.0600 -0.0079
 4310SOL     OW17011   0.135   6.340   6.341 -0.1469 -0.0510 -0.5905
 4310SOL    HW217012   0.062   6.396   6.316 -1.2444 -1.0641  0.2554
 4310SOL    HW317013   0.112   6.253   6.308  1.6699 -0.0201 -2.1461
 4310SOL    MW417014   0.123   6.336   6.333 -0.0520 -0.1806 -0.6841
 4311SOL     OW17015   1.657   2.524   2.380  0.2910  0.4064 -0.1417
 4311SOL    HW217016   1.571   2.525   2.338  1.1063 -0.0056 -1.9607
 4311SOL    HW317017   1.668   2.434   2.410 -0.2304  0.6622  0.8566
 4311SOL    MW417018   1.647   2.512   2.378  0.3298  0.3858 -0.2500
 4312SOL     OW17019   2.712   5.527   1.076  0.3848  0.2709 -0.6550
 4312SOL    HW217020   2.709   5.601   1.136  1.3846  0.4550 -0.8076
 4312SOL    HW317021   2.649   5.465   1.111 -1.2918  1.6201 -1.1200
 4312SOL    MW417022   2.704   5.529   1.088  0.2955  0.4732 -0.7365
 4313SOL     OW17023   6.020   0.278   0.545 -0.2177  0.3283  0.4402
 4313SOL    HW217024   6.097   0.223   0.537  0.6027  1.4184  0.6162
 4313SOL    HW317025   5.968   0.237   0.615  0.3491 -0.2389  0.5276
 4313SOL    MW417026   6.023   0.265   0.553 -0.0347  0.3972  0.4750
 4314SOL     OW17027   4.582   1.473   4.135 -0.2332  0.0458  0.5847
 4314SOL    HW217028   4.567   1.546   4.195 -1.8042 -0.8093  1.2933
 4314SOL    HW317029   4.535   1.499   4.055 -0.4626 -0.0194  0.6983
 4314SOL    MW417030   4.574   1.486   4.132 -0.4707 -0.0756  0.6932
 4315SOL     OW17031   4.926   6.186   3.894  0.2799 -0.2543 -0.3460
 4315SOL    HW217032   4.961   6.271   3.867  0.2874  0.0857  0.6867
 4315SOL    HW317033   4.906   6.141   3.812  0.0015  0.8596 -0.9069
 4315SOL    MW417034   4.928   6.191   3.880  0.2442 -0.0625 -0.2838
 4316SOL     OW17035   3.911   4.078   5.406  0.2737 -0.1582 -0.3940
 4316SOL    HW217036   4.006   4.078   5.399  0.2325 -0.1450 -1.0429
 4316SOL    HW317037   3.881   4.104   5.319 -0.3282 -0.6154 -0.3296
 4316SOL    MW417038   3.920   4.081   5.393  0.1889 -0.2168 -0.4711
 4317SOL     OW17039   2.742   0.820   1.579 -0.0723  0.5195  0.3624
 4317SOL    HW217040   2.831   0.810   1.613  0.0675 -1.8658 -0.5064
 4317SOL    HW317041   2.700   0.882   1.638  1.4811 -0.0926  2.2016
 4317SOL    MW417042   2.748   0.827   1.591  0.1511  0.1240  0.4904
 4318SOL     OW17043   1.056   5.624   1.639  0.1047  0.0431  0.2540
 4318SOL    HW217044   1.144   5.661   1.632 -0.1329  0.3426 -2.2997
 4318SOL    HW317045   1.001   5.698   1.664  0.6080 -0.2714  2.4517
 4318SOL    MW417046   1.061   5.639   1.641  0.1398  0.0411  0.2070
 4319SOL     OW17047   4.769   4.221   0.347 -0.2892  0.2714  0.0740
 4319SOL    HW217048   4.796   4.219   0.255  1.0329 -0.4400  0.4622
 4319SOL    HW317049   4.756   4.129   0.370  0.9380  0.3165  1.0250
 4319SOL    MW417050   4.771   4.209   0.338  0.0472  0.1835  0.2507
 4320SOL     OW17051   5.427   1.164   6.267 -0.2516  0.5179 -0.2381
 4320SOL    HW217052   5.463   1.119   6.344 -0.6998 -1.0829 -0.9266
 4320SOL    HW317053   5.401   1.250   6.299  1.2494  0.5550  0.9873
 4320SOL    MW417054   5.429   1.170   6.281 -0.1127  0.3116 -0.1673
 4321SOL     OW17055   4.366   4.037   4.978  0.2814 -0.0001 -0.4835
 4321SOL    HW217056   4.405   4.123   4.960 -3.0856  1.8112  0.0968
 4321SOL    HW317057   4.315   4.016   4.900  0.5749 -1.2363 -0.3739
 4321SOL    MW417058   4.365   4.045   4.965 -0.1241  0.0758 -0.3925
 4322SOL     OW17059   0.450   4.439   5.335  0.2027  0.1602 -0.4504
 4322SOL    HW217060   0.456   4.483   5.250  0.1521  0.3420 -0.3596
 4322SOL    HW317061   0.523   4.475   5.385  0.7122 -0.5191 -0.6776
 4322SOL    MW417062   0.461   4.450   5.330  0.2632  0.0946 -0.4684
 4323SOL     OW17063   1.057   4.959   1.562 -0.2624 -0.2552  0.4133
 4323SOL    HW217064   1.020   5.029   1.615  2.1408  0.6457  1.0435
 4323SOL    HW317065   1.107   4.906   1.624 -1.1160 -1.9333 -0.2480
 4323SOL    MW417066   1.059   4.961   1.577 -0.0579 -0.3577  0.4092
 4324SOL     OW17067   6.336   0.940   2.777 -0.4870 -0.3839  0.3823
 4324SOL    HW217068   6.375   0.978   2.699 -2.1850 -1.4949 -1.0915
 4324SOL    HW317069   6.385   0.859   2.793  0.9579  0.6613  1.5423
 4324SOL    MW417070   6.348   0.934   2.769 -0.5204 -0.3926  0.3409
 4325SOL     OW17071   5.974   3.285   4.372 -0.6871 -0.5927 -0.3393
 4325SOL    HW217072   5.971   3.380   4.364 -0.1202 -0.5464 -0.0315
 4325SOL    HW317073   6.066   3.264   4.387 -0.6128 -1.2972 -1.6138
 4325SOL    MW417074   5.986   3.295   4.373 -0.6025 -0.6795 -0.4669
 4326SOL     OW17075   0.857   5.183   3.850 -0.0873 -0.0906  0.0433
 4326SOL    HW217076   0.913   5.117   3.890  1.5021  1.0914 -0.1541
 4326SOL    HW317077   0.772   5.139   3.839  0.0140 -1.1277  2.7129
 4326SOL    MW417078   0.853   5.168   3.854  0.1358 -0.0714  0.3695
 4327SOL     OW17079   5.406   5.176   5.740  0.0026  0.0596  0.1116
 4327SOL    HW217080   5.398   5.161   5.646  1.6788 -0.0913 -0.0200
 4327SOL    HW317081   5.317   5.164   5.773 -0.4789 -0.5811 -1.3462
 4327SOL    MW417082   5.393   5.173   5.732  0.1602 -0.0448 -0.0981
 4328SOL     OW17083   1.316   2.135   5.849 -0.4660 -0.3597  0.5943
 4328SOL    HW217084   1.380   2.101   5.912  0.4994  1.4865  0.6637
 4328SOL    HW317085   1.346   2.101   5.765 -0.3637 -0.8340  0.8137
 4328SOL    MW417086   1.328   2.126   5.846 -0.3251 -0.1787  0.6324
 4329SOL     OW17087   3.312   2.340   3.427 -0.0437 -0.3878  0.1623
 4329SOL    HW217088   3.324   2.435   3.425 -2.3233  0.0369  2.1736
 4329SOL    HW317089   3.233   2.325   3.376 -1.1334 -0.8511  1.9024
 4329SOL    MW417090   3.303   2.350   3.420 -0.4882 -0.3929  0.6573
 4330SOL     OW17091   2.666   4.323   2.020 -0.1337  0.6459 -0.3685
 4330SOL    HW217092   2.614   4.243   2.029  0.0803  0.5613  0.1389
 4330SOL    HW317093   2.689   4.346   2.110 -2.6646  2.9152 -0.1725
 4330SOL    MW417094   2.662   4.315   2.033 -0.4394  0.9341 -0.2757
 4331SOL     OW17095   2.339   4.651   4.212  0.0724 -0.1533  0.8400
 4331SOL    HW217096   2.434   4.648   4.202  0.2897  1.5287  2.0736
 4331SOL    HW317097   2.314   4.560   4.230  1.1000 -1.0818 -1.8260
 4331SOL    MW417098   2.348   4.638   4.213  0.2366 -0.0539  0.6510
 4332SOL     OW17099   5.116   0.883   0.477  0.3162 -0.3361  0.1439
 4332SOL    HW217100   5.072   0.958   0.437 -0.2219 -0.7575 -0.0623
 4332SOL    HW317101   5.134   0.910   0.567  0.9626  0.3847 -0.1853
 4332SOL    MW417102   5.113   0.897   0.483  0.3305 -0.2966  0.0732
 4333SOL     OW17103   0.933   4.114   4.586 -0.2441 -0.3017 -0.2820
 4333SOL    HW217104   0.979   4.176   4.642 -1.5647  0.2956  0.1947
 4333SOL    HW317105   0.985   4.111   4.505  0.8317  0.0117  0.3824
 4333SOL    MW417106   0.946   4.122   4.583 -0.2764 -0.1816 -0.1314
 4334SOL     OW17107   3.384   0.258   1.186 -0.3370  0.3788 -0.0331
 4334SOL    HW217108   3.308   0.221   1.231  0.0436  0.5267  0.7632
 4334SOL    HW317109   3.428   0.310   1.253  0.5388  0.1835 -0.4405
 4334SOL    MW417110   3.380   0.260   1.201 -0.1712  0.3725  0.0182
 4335SOL     OW17111   5.992   1.553   0.872 -0.5340 -0.8753 -0.1066
 4335SOL    HW217112   5.951   1.469   0.890  0.6524 -1.3256  0.5578
 4335SOL    HW317113   5.963   1.575   0.783 -0.1579 -2.4043 -0.6280
 4335SOL    MW417114   5.983   1.545   0.862 -0.3279 -1.1364 -0.0878
 4336SOL     OW17115   5.303   6.335   3.669  1.2059 -0.3238  0.3370
 4336SOL    HW217116   5.303   6.242   3.646  0.1509 -0.1407 -0.5040
 4336SOL    HW317117   5.317   6.336   3.764  0.6553 -1.3642  0.4486
 4336SOL    MW417118   5.305   6.323   3.678  0.9941 -0.4369  0.2407
 4337SOL     OW17119   4.328   5.158   5.735 -0.2746 -0.1585  0.4046
 4337SOL    HW217120   4.326   5.172   5.830  0.3357  1.3051  0.2290
 4337SOL    HW317121   4.244   5.193   5.704  0.9344  2.6043  0.0514
 4337SOL    MW417122   4.316   5.164   5.743 -0.0346  0.3992  0.3348
 4338SOL     OW17123   6.162   1.772   5.377 -0.1060 -0.1050  0.8578
 4338SOL    HW217124   6.115   1.745   5.456 -0.6829 -1.9174 -0.0510
 4338SOL    HW317125   6.094   1.801   5.317  0.3726  1.7655  1.1423
 4338SOL    MW417126   6.147   1.772   5.380 -0.1190 -0.0974  0.7754
 4339SOL     OW17127   1.590   2.668   0.183  1.0375 -0.4170  0.5804
 4339SOL    HW217128   1.511   2.681   0.131  1.7386 -1.4443 -0.8189
 4339SOL    HW317129   1.569   2.704   0.269 -0.1051  1.5362 -0.4535
 4339SOL    MW417130   1.577   2.675   0.187  0.9792 -0.2948  0.2594
 4340SOL     OW17131   4.795   0.861   2.014  0.0688  0.1236 -0.4618
 4340SOL    HW217132   4.838   0.794   1.960 -0.5309 -0.9660  0.3677
 4340SOL    HW317133   4.707   0.827   2.029 -0.4801  1.4342 -0.5566
 4340SOL    MW417134   4.789   0.848   2.009 -0.0828  0.1527 -0.3649
 4341SOL     OW17135   6.169   5.125   1.337  0.1254  0.3278 -0.1908
 4341SOL    HW217136   6.261   5.143   1.315  0.0066  0.7520 -0.3446
 4341SOL    HW317137   6.155   5.036   1.305  0.6556  0.0255  0.3840
 4341SOL    MW417138   6.180   5.116   1.330  0.1796  0.3439 -0.1353
 4342SOL     OW17139   0.122   4.502   5.653  0.2482 -0.1363  0.0377
 4342SOL    HW217140   0.149   4.413   5.676 -1.7448  0.1169  4.4146
 4342SOL    HW317141   0.046   4.490   5.596  1.9618 -1.0396 -2.1903
 4342SOL    MW417142   0.116   4.488   5.649  0.2113 -0.2221  0.3212
 4343SOL     OW17143   3.333   5.828   5.632 -0.4084 -0.0536  0.4600
 4343SOL    HW217144   3.424   5.844   5.604 -0.5607 -0.1078 -0.0712
 4343SOL    HW317145   3.289   5.912   5.617 -0.9695 -0.6376 -1.3815
 4343SOL    MW417146   3.339   5.841   5.626 -0.5025 -0.1378  0.1469
 4344SOL     OW17147   4.612   5.116   3.047 -0.4957 -0.1940  0.8760
 4344SOL    HW217148   4.583   5.104   3.137 -0.3493  1.4735  1.1657
 4344SOL    HW317149   4.563   5.192   3.015  1.9160  1.3961  0.6910
 4344SOL    MW417150   4.602   5.124   3.055 -0.1582  0.2358  0.8898
 4345SOL     OW17151   0.268   1.446   2.102 -0.1762  0.1638 -0.1106
 4345SOL    HW217152   0.283   1.401   2.019 -1.7918 -0.4511 -0.1089
 4345SOL    HW317153   0.173   1.454   2.108 -0.0124  1.6142  0.9550
 4345SOL    MW417154   0.257   1.441   2.092 -0.3677  0.2740  0.0302
 4346SOL     OW17155   6.108   5.094   0.429 -0.0040  0.2685 -0.5562
 4346SOL    HW217156   6.073   5.024   0.374  0.1043  0.0585 -0.3554
 4346SOL    HW317157   6.036   5.157   0.436 -0.0786  0.2129 -0.7914
 4346SOL    MW417158   6.094   5.093   0.423  0.0004  0.2335 -0.5608
 4347SOL     OW17159   0.210   3.792   1.004  0.7828 -0.1005 -0.2748
 4347SOL    HW217160   0.202   3.771   0.911 -0.8119  0.5318 -0.3034
 4347SOL    HW317161   0.162   3.874   1.015 -0.8915 -1.2269  1.4780
 4347SOL    MW417162   0.203   3.800   0.993  0.3515 -0.1657 -0.0473
 4348SOL     OW17163   1.428   1.187   4.140 -0.5763 -0.6569  0.4413
 4348SOL    HW217164   1.476   1.264   4.111  1.8277 -1.8942  0.9113
 4348SOL    HW317165   1.347   1.222   4.177 -0.7582  1.4212 -1.6867
 4348SOL    MW417166   1.424   1.202   4.141 -0.2831 -0.5460  0.2226
 4349SOL     OW17167   4.582   2.797   2.706  0.1319  0.6779 -0.0801
 4349SOL    HW217168   4.627   2.795   2.621  1.0653  1.0118  0.4043
 4349SOL    HW317169   4.604   2.882   2.743  0.3279  0.2361  0.8299
 4349SOL    MW417170   4.591   2.808   2.699  0.2809  0.6637  0.1039
 4350SOL     OW17171   0.224   2.229   6.140 -0.0954  0.9438 -0.1557
 4350SOL    HW217172   0.205   2.202   6.230  0.1210 -1.1394 -0.6762
 4350SOL    HW317173   0.167   2.304   6.125 -1.7437 -0.0076  1.0263
 4350SOL    MW417174   0.214   2.235   6.150 -0.2843  0.5434 -0.0684
 4351SOL     OW17175   2.544   5.070   5.761  0.8090 -0.3106 -0.3094
 4351SOL    HW217176   2.568   5.153   5.720  0.7060 -0.4844 -0.7343
 4351SOL    HW317177   2.594   5.004   5.712  0.9934 -0.4853  0.1130
 4351SOL    MW417178   2.554   5.072   5.749  0.8197 -0.3566 -0.3098
 4352SOL     OW17179   0.227   0.104   5.750  0.1154  0.2335  0.2704
 4352SOL    HW217180   0.206   0.037   5.684 -2.0112  0.4435  0.6714
 4352SOL    HW317181   0.228   0.186   5.702 -1.9375  0.4505  0.5219
 4352SOL    MW417182   0.225   0.106   5.735 -0.4361  0.2899  0.3565
 4353SOL     OW17183   4.715   5.427   1.705  0.5256  0.1525 -0.2504
 4353SOL    HW217184   4.688   5.480   1.631  1.0729 -1.9916 -2.1179
 4353SOL    HW317185   4.791   5.473   1.741  1.3346  0.3959 -2.1436
 4353SOL    MW417186   4.722   5.440   1.700  0.7046 -0.0983 -0.7466
 4354SOL     OW17187   0.191   1.479   0.834  0.0024 -0.1433 -0.2322
 4354SOL    HW217188   0.264   1.417   0.827 -0.6650 -0.9847  0.1350
 4354SOL    HW317189   0.119   1.437   0.787 -0.4376  0.3880 -0.0466
 4354SOL    MW417190   0.191   1.466   0.827 -0.1437 -0.1842 -0.1592
 4355SOL     OW17191   4.180   1.591   1.937 -0.4215  0.3288  0.3761
 4355SOL    HW217192   4.136   1.676   1.924  0.6287  0.7110 -0.8944
 4355SOL    HW317193   4.273   1.612   1.936 -0.0344 -1.0518 -2.1245
 4355SOL    MW417194   4.187   1.605   1.935 -0.2319  0.1971 -0.1214
 4356SOL     OW17195   4.360   0.894   2.886 -0.1741 -0.3503  0.1933
 4356SOL    HW217196   4.450   0.922   2.868  0.4634 -2.8121 -0.9135
 4356SOL    HW317197   4.370   0.811   2.934 -1.8645 -0.5099  0.3355
 4356SOL    MW417198   4.373   0.887   2.890 -0.3130 -0.6961  0.0660
 4357SOL     OW17199   6.045   5.632   2.034  0.3701 -0.4133  0.2513
 4357SOL    HW217200   6.079   5.555   1.990 -0.1335  0.5276 -1.9048
 4357SOL    HW317201   6.103   5.703   2.007 -1.0516  0.5323 -0.4433
 4357SOL    MW417202   6.057   5.632   2.025  0.1161 -0.1644 -0.1248
 4358SOL     OW17203   3.497   3.268   6.329  0.0011  0.1723  0.3440
 4358SOL    HW217204   3.502   3.277   6.424 -2.2079  0.0710  0.5357
 4358SOL    HW317205   3.481   3.356   6.297  1.8242  0.3892 -0.0883
 4358SOL    MW417206   3.495   3.281   6.337 -0.0498  0.1876  0.3122
 4359SOL     OW17207   0.668   2.821   0.333  0.2295  0.0466  0.2669
 4359SOL    HW217208   0.673   2.750   0.268  3.5610  0.6621 -0.3343
 4359SOL    HW317209   0.738   2.802   0.395 -0.6752  1.3227  1.7563
 4359SOL    MW417210   0.678   2.809   0.332  0.5497  0.2962  0.3841
 4360SOL     OW17211   5.948   4.101   1.711  0.5124  0.0867 -0.3231
 4360SOL    HW217212   6.043   4.113   1.709  0.8803 -2.4782 -2.1420
 4360SOL    HW317213   5.919   4.156   1.784  3.6040 -0.5290  1.5440
 4360SOL    MW417214   5.956   4.110   1.720  0.9689 -0.3330 -0.3168
 4361SOL     OW17215   3.849   2.315   5.099  0.2002 -0.3115 -0.0012
 4361SOL    HW217216   3.941   2.340   5.107  0.7302 -1.7436 -0.9813
 4361SOL    HW317217   3.840   2.238   5.155  0.7181 -2.6401 -2.8378
 4361SOL    MW417218   3.860   2.308   5.107  0.3385 -0.8077 -0.5048
 4362SOL     OW17219   4.266   4.558   2.647 -0.1079 -0.0073  0.8109
 4362SOL    HW217220   4.317   4.487   2.609  1.8931  1.5838  0.3639
 4362SOL    HW317221   4.252   4.532   2.738 -1.5505 -2.0392  0.0884
 4362SOL    MW417222   4.271   4.546   2.654 -0.0343 -0.0655  0.6566
 4363SOL     OW17223   2.110   5.308   5.977 -0.3155  0.0478 -0.1180
 4363SOL    HW217224   2.112   5.213   5.975  2.6092 -0.0246  0.7942
 4363SOL    HW317225   2.039   5.330   6.037 -0.0183 -1.6468  0.9228
 4363SOL    MW417226   2.101   5.298   5.985  0.1096 -0.1853  0.1397
 4364SOL     OW17227   0.470   2.545   5.757 -0.0911  0.2398 -0.3400
 4364SOL    HW217228   0.502   2.586   5.837  0.5320 -0.6944 -0.0994
 4364SOL    HW317229   0.402   2.485   5.786  2.4609 -2.7390  0.0010
 4364SOL    MW417230   0.465   2.543   5.771  0.3278 -0.2765 -0.2633
 4365SOL     OW17231   0.368   3.650   4.638 -0.7566 -0.2601  0.2085
 4365SOL    HW217232   0.312   3.716   4.679  0.4395  0.6798  0.3736
 4365SOL    HW317233   0.457   3.679   4.656 -0.1932 -0.6510 -1.7617
 4365SOL    MW417234   0.372   3.662   4.646 -0.5245 -0.1877 -0.0297
 4366SOL     OW17235   5.949   2.659   3.413  0.4128  0.1688  0.1503
 4366SOL    HW217236   5.889   2.602   3.366 -2.9955  3.6807 -0.3245
 4366SOL    HW317237   5.929   2.645   3.505  0.1328  0.0344  0.0689
 4366SOL    MW417238   5.939   2.650   3.419 -0.0738  0.6144  0.0769
 4367SOL     OW17239   0.646   2.224   3.008  0.3246 -0.4282  0.4191
 4367SOL    HW217240   0.703   2.180   3.072 -0.9550  0.5948  2.3484
 4367SOL    HW317241   0.575   2.161   2.992  1.7430 -1.6226 -1.8391
 4367SOL    MW417242   0.644   2.210   3.014  0.3429 -0.4508  0.3757
 4368SOL     OW17243   0.447   0.801   0.732  0.0211  0.2232 -0.0947
 4368SOL    HW217244   0.457   0.894   0.751  1.8754 -0.0290  0.3841
 4368SOL    HW317245   0.433   0.797   0.637  1.1173  0.9382 -0.3016
 4368SOL    MW417246   0.447   0.813   0.722  0.4104  0.2843 -0.0588
 4369SOL     OW17247   2.551   2.072   1.825 -0.3453 -0.0740  0.5649
 4369SOL    HW217248   2.584   2.137   1.887 -2.0285  0.6846  0.7247
 4369SOL    HW317249   2.498   2.123   1.763  1.5180 -0.7493 -1.7313
 4369SOL    MW417250   2.548   2.087   1.825 -0.3215 -0.0630  0.2831
 4370SOL     OW17251   4.260   2.456   3.676 -0.1784  0.2639  0.2497
 4370SOL    HW217252   4.192   2.521   3.657 -0.0385  0.2305 -0.4119
 4370SOL    HW317253   4.244   2.385   3.613  0.0697 -0.0439  0.5257
 4370SOL    MW417254   4.249   2.455   3.665 -0.1272  0.2189  0.1988
 4371SOL     OW17255   3.241   5.181   0.505  0.2931  0.2555  0.0424
 4371SOL    HW217256   3.275   5.162   0.593  1.2858 -1.4320 -0.6525
 4371SOL    HW317257   3.147   5.195   0.518  0.1928 -1.2570  1.2122
 4371SOL    MW417258   3.233   5.180   0.519  0.4109 -0.1667  0.1051
 4372SOL     OW17259   4.616   2.693   0.171  0.6684  0.3563 -0.1516
 4372SOL    HW217260   4.623   2.692   0.076  1.4017 -1.3666 -0.1065
 4372SOL    HW317261   4.600   2.785   0.193 -0.8210  0.6013 -2.0060
 4372SOL    MW417262   4.615   2.705   0.162  0.5686  0.1613 -0.3903
 4373SOL     OW17263   4.747   2.159   5.681  0.1322 -0.5421  0.3618
 4373SOL    HW217264   4.713   2.075   5.713 -1.2034 -0.1503  0.0312
 4373SOL    HW317265   4.680   2.192   5.622  0.3863  1.0080  0.8740
 4373SOL    MW417266   4.734   2.152   5.677 -0.0105 -0.2859  0.3858
 4374SOL     OW17267   3.654   1.765   5.947  0.0685  0.0548  0.3825
 4374SOL    HW217268   3.722   1.699   5.956 -0.5700 -0.6071  0.4482
 4374SOL    HW317269   3.574   1.722   5.978 -0.1146  1.3054  1.7449
 4374SOL    MW417270   3.652   1.750   5.952 -0.0399  0.1325  0.5709
 4375SOL     OW17271   0.560   4.283   4.680  0.3070 -0.1055  0.2546
 4375SOL    HW217272   0.511   4.350   4.632  0.7296  0.0159 -0.0133
 4375SOL    HW317273   0.503   4.259   4.753  0.1561  0.5603  0.3636
 4375SOL    MW417274   0.546   4.289   4.683  0.3429 -0.0016  0.2337
 4376SOL     OW17275   0.937   6.428   4.621 -0.0051 -0.7156  0.7096
 4376SOL    HW217276   0.952   6.513   4.660 -0.3750 -0.3533  0.0892
 4376SOL    HW317277   1.007   6.418   4.556 -0.4962 -0.4634  0.1251
 4376SOL    MW417278   0.948   6.438   4.617 -0.1187 -0.6345  0.5506
 4377SOL     OW17279   2.879   3.709   3.566  0.2148  0.9522 -0.2274
 4377SOL    HW217280   2.827   3.656   3.627  0.8631 -1.2666 -1.5426
 4377SOL    HW317281   2.967   3.673   3.571  0.4331  1.1847 -1.9695
 4377SOL    MW417282   2.883   3.697   3.575  0.3291  0.6901 -0.6308
 4378SOL     OW17283   0.149   5.444   5.743  0.4479 -0.0484 -0.3943
 4378SOL    HW217284   0.180   5.471   5.657  0.1773  1.2142 -0.1107
 4378SOL    HW317285   0.070   5.495   5.758 -0.2127 -1.1712  0.0876
 4378SOL    MW417286   0.143   5.454   5.734  0.3251 -0.0299 -0.2933
 4379SOL     OW17287   0.279   1.124   1.432  0.0796  0.0667  0.4405
 4379SOL    HW217288   0.340   1.153   1.500 -1.1590  0.1248  1.5821
 4379SOL    HW317289   0.300   1.032   1.418 -0.2940 -0.2312  1.6756
 4379SOL    MW417290   0.290   1.116   1.439 -0.1331  0.0350  0.7541
 4380SOL     OW17291   2.904   3.050   2.797 -0.5896  0.4715 -0.3232
 4380SOL    HW217292   2.970   3.061   2.866 -0.3019 -0.7546 -0.3835
 4380SOL    HW317293   2.829   3.100   2.828 -0.6686 -0.5113  1.1661
 4380SOL    MW417294   2.903   3.058   2.810 -0.5621  0.1800 -0.1347
 4381SOL     OW17295   1.472   2.027   3.196 -0.3136 -0.4777  0.2243
 4381SOL    HW217296   1.556   2.044   3.240 -0.9625 -0.2138  1.3946
 4381SOL    HW317297   1.446   1.940   3.227  0.1553 -1.1619 -1.1964
 4381SOL    MW417298   1.480   2.018   3.206 -0.3374 -0.5332  0.1913
 4382SOL     OW17299   1.409   3.734   2.373 -0.2631  0.2360 -0.0965
 4382SOL    HW217300   1.455   3.671   2.318 -0.0541 -0.3110  0.7009
 4382SOL    HW317301   1.320   3.698   2.382 -0.0681 -0.0941  0.5781
 4382SOL    MW417302   1.403   3.721   2.367 -0.2098  0.1203  0.0977
 4383SOL     OW17303   3.695   1.963   0.327 -0.1835 -0.9309 -0.1652
 4383SOL    HW217304   3.728   2.012   0.252 -2.5275 -1.4047 -1.6033
 4383SOL    HW317305   3.732   2.008   0.403  0.5268  0.8976 -1.5125
 4383SOL    MW417306   3.704   1.975   0.327 -0.3990 -0.7522 -0.5327
 4384SOL     OW17307   3.993   5.359   3.225 -0.2444 -0.5905  0.2704
 4384SOL    HW217308   3.910   5.387   3.262  0.1146  4.1084 -1.8159
 4384SOL    HW317309   3.969   5.309   3.147 -1.1851  0.8152 -0.3785
 4384SOL    MW417310   3.979   5.356   3.219 -0.3211  0.2149 -0.0905
 4385SOL     OW17311   3.499   6.014   0.713 -0.1990 -0.1560  0.2121
 4385SOL    HW217312   3.510   5.936   0.658  0.0457  0.6892 -0.9766
 4385SOL    HW317313   3.439   6.069   0.664 -1.3826 -0.1142  1.6462
 4385SOL    MW417314   3.493   6.011   0.699 -0.3229 -0.0390  0.2445
 4386SOL     OW17315   2.437   2.564   3.061 -0.0653 -0.1514 -0.7262
 4386SOL    HW217316   2.405   2.543   2.973 -0.7731  0.6905 -0.6910
 4386SOL    HW317317   2.359   2.594   3.108  0.5740  0.9204 -0.3044
 4386SOL    MW417318   2.422   2.565   3.055 -0.0743  0.1011 -0.6659
 4387SOL     OW17319   3.932   1.801   3.871  0.2245 -0.5692 -0.0100
 4387SOL    HW217320   3.943   1.809   3.776  1.0600  0.5038  0.1570
 4387SOL    HW317321   3.935   1.707   3.887  1.3509 -0.7228 -0.9210
 4387SOL    MW417322   3.934   1.789   3.860  0.4833 -0.4479 -0.1081
 4388SOL     OW17323   4.920   0.751   4.233  0.7107 -0.4998 -0.2988
 4388SOL    HW217324   4.848   0.688   4.236  0.7202 -0.4677  0.8669
 4388SOL    HW317325   4.973   0.731   4.310  0.2283  1.5018  0.6112
 4388SOL    MW417326   4.918   0.740   4.243  0.6483 -0.2315 -0.0250
 4389SOL     OW17327   4.420   1.706   2.579  0.4137 -0.0850 -0.2779
 4389SOL    HW217328   4.371   1.655   2.643  0.2093  0.3067 -0.1203
 4389SOL    HW317329   4.390   1.796   2.592  1.2782  0.1839 -0.0743
 4389SOL    MW417330   4.410   1.711   2.589  0.5008  0.0021 -0.2303
 4390SOL     OW17331   0.421   5.519   1.422  0.2637  0.6481 -0.3060
 4390SOL    HW217332   0.440   5.590   1.361 -1.4114  0.7755 -0.7206
 4390SOL    HW317333   0.346   5.549   1.472  0.2261 -0.3748  0.2860
 4390SOL    MW417334   0.414   5.532   1.420  0.0377  0.5299 -0.2826
 4391SOL     OW17335   6.024   1.426   5.500 -0.1844  0.1547  0.0952
 4391SOL    HW217336   6.034   1.501   5.557 -0.6537 -1.2890  2.1847
 4391SOL    HW317337   5.952   1.450   5.441 -0.7501  1.0881  1.1357
 4391SOL    MW417338   6.016   1.439   5.500 -0.3210  0.0874  0.5082
 4392SOL     OW17339   1.110   0.465   0.756  0.2795  0.2150 -0.2038
 4392SOL    HW217340   1.039   0.487   0.816 -0.2188  1.1666 -1.1012
 4392SOL    HW317341   1.162   0.545   0.750  1.3145 -0.4026  0.2736
 4392SOL    MW417342   1.108   0.479   0.763  0.3503  0.2591 -0.2592
 4393SOL     OW17343   3.274   0.523   1.116 -0.6286 -0.1413  0.5271
 4393SOL    HW217344   3.314   0.449   1.070  0.4054  0.9146 -0.3405
 4393SOL    HW317345   3.180   0.514   1.097 -0.4926 -1.0964  0.2427
 4393SOL    MW417346   3.267   0.512   1.107 -0.4742 -0.1280  0.3751
 4394SOL     OW17347   2.314   4.903   1.905 -1.1227  0.0115 -0.0626
 4394SOL    HW217348   2.285   4.993   1.896 -0.9040 -0.0292 -1.4180
 4394SOL    HW317349   2.392   4.908   1.960 -1.5010  0.5581  0.4353
 4394SOL    MW417350   2.321   4.915   1.911 -1.1437  0.0782 -0.1758
 4395SOL     OW17351   5.193   0.956   5.494 -0.6560  0.0316  0.2773
 4395SOL    HW217352   5.212   0.907   5.575 -1.1858  0.0820  0.4385
 4395SOL    HW317353   5.145   0.893   5.440  0.2101 -0.1949 -0.2498
 4395SOL    MW417354   5.189   0.941   5.498 -0.6116  0.0084  0.2290
 4396SOL     OW17355   3.749   3.074   4.376 -0.3528  0.1539  0.1919
 4396SOL    HW217356   3.709   3.160   4.384  0.4938  0.4324  1.9247
 4396SOL    HW317357   3.676   3.015   4.358 -0.9210  1.2370 -1.1763
 4396SOL    MW417358   3.734   3.077   4.375 -0.3160  0.3336  0.2400
 4397SOL     OW17359   1.108   5.188   0.584 -0.2451  0.0018 -0.4468
 4397SOL    HW217360   1.138   5.221   0.499 -0.2759  0.1098 -0.4168
 4397SOL    HW317361   1.140   5.253   0.647  0.0418 -0.2367 -0.3423
 4397SOL    MW417362   1.116   5.201   0.581 -0.2113 -0.0155 -0.4291
 4398SOL     OW17363   4.083   3.630   2.454 -0.0235  0.0179 -0.1799
 4398SOL    HW217364   4.001   3.635   2.502  0.6143 -1.1841  1.1271
 4398SOL    HW317365   4.070   3.561   2.390  0.1300 -0.5774  0.4171
 4398SOL    MW417366   4.071   3.622   2.452  0.0809 -0.2192  0.0713
 4399SOL     OW17367   3.381   2.801   4.741  0.1424  0.3232 -0.1915
 4399SOL    HW217368   3.302   2.769   4.699  0.5379  0.4467 -1.0433
 4399SOL    HW317369   3.354   2.881   4.787 -0.7123 -0.8407  1.4304
 4399SOL    MW417370   3.367   2.807   4.742  0.0818  0.1860 -0.0899
 4400SOL     OW17371   5.641   4.306   3.215 -0.0746 -0.2813 -0.1394
 4400SOL    HW217372   5.557   4.272   3.244  0.0362 -0.7495 -0.3503
 4400SOL    HW317373   5.693   4.314   3.295  0.3841 -1.9944 -0.2269
 4400SOL    MW417374   5.637   4.302   3.229  0.0005 -0.5691 -0.1788
 4401SOL     OW17375   4.990   5.876   1.026 -0.4450  0.0570  0.0703
 4401SOL    HW217376   5.062   5.934   1.001 -1.8395  2.3182  0.8861
 4401SOL    HW317377   4.925   5.889   0.957  0.1459 -2.5069 -1.0446
 4401SOL    MW417378   4.991   5.886   1.014 -0.5510  0.0170  0.0309
 4402SOL     OW17379   2.900   4.822   2.389 -0.1874  0.6430 -0.0472
 4402SOL    HW217380   2.837   4.768   2.342 -0.4454  0.1154  0.8846
 4402SOL    HW317381   2.982   4.811   2.341  0.2025 -1.9366  1.0516
 4402SOL    MW417382   2.903   4.813   2.376 -0.1700  0.2330  0.2207
 4403SOL     OW17383   1.740   4.589   0.301  0.2372 -0.4257  0.4767
 4403SOL    HW217384   1.729   4.612   0.393 -2.0109  2.5407 -0.3608
 4403SOL    HW317385   1.679   4.517   0.286 -1.0320  0.5213  0.9101
 4403SOL    MW417386   1.730   4.583   0.311 -0.2269  0.0907  0.4234
 4404SOL     OW17387   5.534   0.326   2.113  0.4265  0.2056 -0.6467
 4404SOL    HW217388   5.585   0.247   2.093  1.0095  0.3859  0.0780
 4404SOL    HW317389   5.501   0.356   2.028  0.2864 -0.7561 -0.9457
 4404SOL    MW417390   5.537   0.319   2.099  0.4849  0.1025 -0.5905
 4405SOL     OW17391   3.442   4.790   5.159 -0.2454  0.1178 -0.2397
 4405SOL    HW217392   3.500   4.852   5.204 -1.5141  0.3152  1.2535
 4405SOL    HW317393   3.500   4.725   5.121  0.9781  0.5290  0.8506
 4405SOL    MW417394   3.457   4.790   5.160 -0.2514  0.1981  0.1012
 4406SOL     OW17395   5.363   4.968   0.691 -0.1031 -0.4657  0.2981
 4406SOL    HW217396   5.368   5.027   0.766  0.0633  1.2655 -0.9978
 4406SOL    HW317397   5.440   4.911   0.700  0.2909  0.1698  1.0804
 4406SOL    MW417398   5.374   4.969   0.702 -0.0292 -0.1534  0.2303
 4407SOL     OW17399   5.600   2.391   5.397  1.1002  0.7874 -0.1732
 4407SOL    HW217400   5.605   2.419   5.306  0.2261 -0.7990 -0.7422
 4407SOL    HW317401   5.601   2.295   5.393 -2.3139  0.5429  1.1735
 4407SOL    MW417402   5.601   2.382   5.385  0.5344  0.5459 -0.0706
 4408SOL     OW17403   0.091   0.829   4.671  0.2234  0.1088  0.3269
 4408SOL    HW217404   0.137   0.910   4.693 -1.0035  0.5682  1.3367
 4408SOL    HW317405   0.149   0.759   4.702  2.3925  0.4175 -2.6110
 4408SOL    MW417406   0.105   0.830   4.678  0.3477  0.2102  0.0725
 4409SOL     OW17407   0.366   0.230   2.974  0.5147  0.1103  0.4105
 4409SOL    HW217408   0.396   0.288   3.044 -2.6923  0.5011  1.6387
 4409SOL    HW317409   0.441   0.223   2.914  2.7382  1.3159  2.8581
 4409SOL    MW417410   0.380   0.237   2.975  0.3849  0.3210  0.8955
 4410SOL     OW17411   3.498   5.792   2.517  0.0693 -0.2807 -0.4433
 4410SOL    HW217412   3.511   5.721   2.580 -0.0462 -0.3942 -0.5467
 4410SOL    HW317413   3.440   5.854   2.563  0.9643  0.2372  0.0266
 4410SOL    MW417414   3.492   5.791   2.532  0.1721 -0.2274 -0.3949
 4411SOL     OW17415   0.148   3.319   6.376 -0.8924  0.0805 -0.5330
 4411SOL    HW217416   0.192   3.277   6.451 -0.8725  0.9716 -0.0364
 4411SOL    HW317417   0.220   3.350   6.321 -0.9075 -0.2386 -0.7352
 4411SOL    MW417418   0.163   3.317   6.379 -0.8918  0.1560 -0.4942
 4412SOL     OW17419   2.029   0.050   4.311  0.0509 -0.1706  0.1323
 4412SOL    HW217420   2.092   0.054   4.384  0.1626 -0.2166  0.0398
 4412SOL    HW317421   2.083   0.030   4.234  0.5867  3.8238 -0.7565
 4412SOL    MW417422   2.045   0.048   4.310  0.1364  0.3504  0.0028
 4413SOL     OW17423   3.098   1.301   0.643  0.1454 -0.2294  0.3021
 4413SOL    HW217424   3.068   1.211   0.653  0.5781 -0.3491  0.5996
 4413SOL    HW317425   3.026   1.347   0.600  0.4382 -1.0241 -1.0863
 4413SOL    MW417426   3.085   1.295   0.638  0.2411 -0.3500  0.1582
 4414SOL     OW17427   2.934   1.549   6.301  0.0502 -0.5169 -0.0621
 4414SOL    HW217428   2.921   1.514   6.213 -0.8754  1.0230 -0.5671
 4414SOL    HW317429   2.883   1.630   6.303 -2.2208 -1.8212  2.7451
 4414SOL    MW417430   2.925   1.555   6.290 -0.3716 -0.4858  0.2416
 4415SOL     OW17431   3.111   2.163   4.616 -0.6511  0.4251 -0.2414
 4415SOL    HW217432   3.112   2.239   4.674 -1.1517  0.3174 -0.0927
 4415SOL    HW317433   3.034   2.175   4.560 -0.5751  0.1676 -0.4063
 4415SOL    MW417434   3.101   2.174   4.616 -0.7072  0.3769 -0.2435
 4416SOL     OW17435   2.822   5.381   1.778 -0.3136  0.1361  0.3882
 4416SOL    HW217436   2.750   5.342   1.829 -0.8081 -0.4695 -0.7491
 4416SOL    HW317437   2.791   5.380   1.688  1.4265 -0.8172 -0.2368
 4416SOL    MW417438   2.808   5.376   1.773 -0.1492 -0.0696  0.1557
 4417SOL     OW17439   4.426   1.823   1.108 -0.2537 -0.5073  0.4268
 4417SOL    HW217440   4.434   1.891   1.041 -0.3291 -0.8807  0.0324
 4417SOL    HW317441   4.425   1.741   1.058  1.6999 -0.9155  0.9754
 4417SOL    MW417442   4.427   1.821   1.092 -0.0059 -0.6104  0.4471
 4418SOL     OW17443   1.687   4.627   3.619  0.1840  0.3829 -0.1967
 4418SOL    HW217444   1.717   4.625   3.528 -0.9325 -0.8244 -0.5654
 4418SOL    HW317445   1.753   4.680   3.665  2.1150 -1.0399 -1.2159
 4418SOL    MW417446   1.700   4.634   3.613  0.2915  0.0359 -0.3798
 4419SOL     OW17447   3.801   5.831   4.890  0.1220  0.2354  0.0675
 4419SOL    HW217448   3.746   5.755   4.872  1.3969 -0.7147  0.0483
 4419SOL    HW317449   3.746   5.907   4.869 -2.1105 -0.5567  2.6150
 4419SOL    MW417450   3.787   5.831   4.884 -0.0043  0.0055  0.4011
 4420SOL     OW17451   2.603   0.743   3.424  0.3656 -0.5767 -0.0597
 4420SOL    HW217452   2.693   0.731   3.453  0.6137  0.2361 -0.4545
 4420SOL    HW317453   2.610   0.755   3.329 -0.1798 -0.7397 -0.1249
 4420SOL    MW417454   2.616   0.743   3.415  0.3264 -0.4909 -0.1204
 4421SOL     OW17455   5.844   2.211   3.450 -0.2769 -0.2917  0.5406
 4421SOL    HW217456   5.769   2.159   3.421 -1.5410  1.7126 -0.0027
 4421SOL    HW317457   5.909   2.146   3.476 -1.8381 -2.1270  0.1538
 4421SOL    MW417458   5.842   2.196   3.450 -0.6497 -0.2694  0.4179
 4422SOL     OW17459   1.288   5.147   4.393 -0.0251 -0.7472  0.2447
 4422SOL    HW217460   1.370   5.164   4.348 -0.0584 -0.0605  0.4236
 4422SOL    HW317461   1.232   5.105   4.327 -0.2346  0.6677 -0.5268
 4422SOL    MW417462   1.291   5.144   4.378 -0.0571 -0.4699  0.1665
 4423SOL     OW17463   4.182   3.918   1.635  0.2500  1.1939  0.5621
 4423SOL    HW217464   4.235   3.978   1.582  0.1479  1.5859  0.8982
 4423SOL    HW317465   4.093   3.953   1.629 -0.4071 -0.6158 -1.6871
 4423SOL    MW417466   4.177   3.931   1.628  0.1498  1.0068  0.3097
 4424SOL     OW17467   0.419   4.865   6.418 -0.6183 -0.0423  0.3464
 4424SOL    HW217468   0.372   4.889   6.498 -0.5598 -0.5016  0.5208
 4424SOL    HW317469   0.509   4.893   6.434 -0.5402 -0.4142  0.5682
 4424SOL    MW417470   0.425   4.872   6.431 -0.6003 -0.1520  0.3987
 4425SOL     OW17471   0.054   2.512   5.413  0.1989  0.2327 -0.3643
 4425SOL    HW217472   0.026   2.601   5.393  0.0933  0.9589  2.5875
 4425SOL    HW317473   0.126   2.495   5.352  0.2509  2.3521 -0.9479
 4425SOL    MW417474   0.060   2.521   5.402  0.1918  0.6081 -0.0518
 4426SOL     OW17475   3.265   5.431   1.157  0.6213 -0.5963  0.1501
 4426SOL    HW217476   3.170   5.429   1.143  0.6406  0.6796 -0.2635
 4426SOL    HW317477   3.288   5.340   1.176 -0.6724 -0.9359  0.1980
 4426SOL    MW417478   3.255   5.419   1.158  0.4532 -0.4728  0.1019
 4427SOL     OW17479   0.822   2.373   3.760  0.4709  0.2060  0.0472
 4427SOL    HW217480   0.732   2.372   3.726 -0.2770  2.4953  1.7294
 4427SOL    HW317481   0.866   2.439   3.706  0.9298 -0.3635 -0.2747
 4427SOL    MW417482   0.816   2.382   3.748  0.4328  0.4329  0.2267
 4428SOL     OW17483   3.496   5.590   1.903 -0.1404  0.0627  0.0429
 4428SOL    HW217484   3.475   5.637   1.822  0.3234  1.3693  0.6654
 4428SOL    HW317485   3.414   5.591   1.953 -0.1774  0.0444 -0.0170
 4428SOL    MW417486   3.482   5.596   1.899 -0.0841  0.2327  0.1171
 4429SOL     OW17487   2.628   0.667   2.231  0.0264  0.2775 -0.5366
 4429SOL    HW217488   2.623   0.718   2.150  1.9667 -1.0154 -1.5521
 4429SOL    HW317489   2.570   0.592   2.216  0.2987  0.0959 -0.6765
 4429SOL    MW417490   2.620   0.663   2.218  0.3183  0.0829 -0.6890
 4430SOL     OW17491   5.328   0.631   5.567 -0.5695  0.0881 -0.7172
 4430SOL    HW217492   5.317   0.720   5.600 -1.0115 -0.3052  0.2352
 4430SOL    HW317493   5.240   0.594   5.568 -0.3701 -0.3971 -1.0102
 4430SOL    MW417494   5.315   0.638   5.572 -0.6015 -0.0278 -0.6302
 4431SOL     OW17495   3.102   3.526   1.354 -0.0405 -1.1201 -0.3067
 4431SOL    HW217496   3.191   3.494   1.342  0.5609  0.9588 -2.0995
 4431SOL    HW317497   3.083   3.573   1.273 -1.6460  1.0445  1.2198
 4431SOL    MW417498   3.111   3.528   1.342 -0.1730 -0.5602 -0.3418
 4432SOL     OW17499   3.081   2.499   1.361 -0.1301 -0.2213 -0.2133
 4432SOL    HW217500   3.153   2.517   1.421  0.8759 -0.5048 -1.2915
 4432SOL    HW317501   3.005   2.542   1.400  0.6867  0.3474  0.7906
 4432SOL    MW417502   3.080   2.507   1.374  0.1104 -0.1836 -0.2231
 4433SOL     OW17503   1.945   0.896   3.573  0.0199 -0.5242 -0.0411
 4433SOL    HW217504   1.914   0.816   3.530 -0.0111  0.2700 -1.5573
 4433SOL    HW317505   2.037   0.878   3.593  0.1594 -0.7423 -0.8702
 4433SOL    MW417506   1.953   0.883   3.570  0.0342 -0.4482 -0.3506
 4434SOL     OW17507   0.962   5.366   0.983 -0.0759  0.7041  0.6575
 4434SOL    HW217508   0.949   5.389   0.892 -0.9932 -0.9724  0.3237
 4434SOL    HW317509   1.047   5.404   1.006  0.0745  1.3053 -0.8186
 4434SOL    MW417510   0.971   5.374   0.974 -0.1771  0.5622  0.4187
 4435SOL     OW17511   5.481   4.084   5.229 -0.5153  0.2142  0.0504
 4435SOL    HW217512   5.525   4.153   5.179 -2.3002  0.7943 -0.8250
 4435SOL    HW317513   5.452   4.021   5.163 -3.4076  1.2629  0.1445
 4435SOL    MW417514   5.483   4.085   5.214 -1.1324  0.4291 -0.0527
 4436SOL     OW17515   6.013   5.492   3.020 -0.1405  0.2301 -0.2456
 4436SOL    HW217516   6.084   5.458   2.967 -0.0556  1.0991 -0.7095
 4436SOL    HW317517   5.949   5.525   2.957 -1.5266 -1.5756  0.1179
 4436SOL    MW417518   6.014   5.492   3.005 -0.3122  0.1065 -0.2588
 4437SOL     OW17519   3.528   4.615   1.636 -0.1134 -0.4962  0.3436
 4437SOL    HW217520   3.619   4.588   1.651  0.5448  1.7118  0.7406
 4437SOL    HW317521   3.532   4.667   1.555 -0.2018  2.7290  2.2094
 4437SOL    MW417522   3.541   4.619   1.627 -0.0382  0.2206  0.6421
 4438SOL     OW17523   5.959   3.680   1.250 -0.1706  0.2289  0.1961
 4438SOL    HW217524   5.883   3.729   1.280  0.7510  1.4565  0.6356
 4438SOL    HW317525   5.954   3.596   1.295 -0.5216  0.8345  1.3196
 4438SOL    MW417526   5.948   3.676   1.260 -0.0953  0.4708  0.4023
 4439SOL     OW17527   6.351   5.134   0.541  0.0175 -0.2555  0.2521
 4439SOL    HW217528   6.420   5.144   0.477 -2.3284  1.3793 -2.2610
 4439SOL    HW317529   6.282   5.086   0.495 -1.8266  1.1267  1.4019
 4439SOL    MW417530   6.351   5.129   0.527 -0.5353  0.1425  0.0722
 4440SOL     OW17531   1.715   5.626   0.773  0.3240  0.5381  0.3529
 4440SOL    HW217532   1.800   5.594   0.806 -0.1578 -1.3453 -0.1101
 4440SOL    HW317533   1.712   5.717   0.802  2.5037  0.6712  0.3920
 4440SOL    MW417534   1.726   5.634   0.781  0.5480  0.3072  0.2970
 4441SOL     OW17535   3.969   4.367   6.371  0.5453  0.2812 -0.0933
 4441SOL    HW217536   3.885   4.330   6.398  0.2846  1.9223  1.5751
 4441SOL    HW317537   4.032   4.296   6.385 -0.3556 -0.5493 -0.1224
 4441SOL    MW417538   3.966   4.353   6.376  0.3921  0.3882  0.1230
 4442SOL     OW17539   3.137   2.823   1.492 -0.1681 -0.3920  0.2328
 4442SOL    HW217540   3.144   2.811   1.398 -2.6118  0.8511 -0.2016
 4442SOL    HW317541   3.046   2.852   1.506  0.5469  0.9799  2.7682
 4442SOL    MW417542   3.126   2.826   1.482 -0.3962 -0.0470  0.5100
 4443SOL     OW17543   3.804   1.348   3.497  0.3309 -0.0495  0.2416
 4443SOL    HW217544   3.766   1.380   3.415  0.2207 -0.3567  0.1700
 4443SOL    HW317545   3.765   1.261   3.508 -0.5831  0.4570  1.2260
 4443SOL    MW417546   3.794   1.341   3.487  0.1957 -0.0232  0.3620
 4444SOL     OW17547   4.844   4.861   4.257  0.8258  0.4121 -0.1947
 4444SOL    HW217548   4.847   4.940   4.204 -1.6581  0.8928  0.2421
 4444SOL    HW317549   4.790   4.885   4.333  0.0062 -1.6761 -0.0477
 4444SOL    MW417550   4.837   4.875   4.260  0.3899  0.2000 -0.1177
 4445SOL     OW17551   0.396   0.244   0.078  0.7030 -0.5717 -0.1681
 4445SOL    HW217552   0.357   0.289   0.152  1.0722 -1.4788  0.5959
 4445SOL    HW317553   0.351   0.280   0.001  0.2487  0.3007  0.4958
 4445SOL    MW417554   0.385   0.255   0.077  0.6918 -0.5763  0.0203
 4446SOL     OW17555   6.389   4.649   1.614  0.5037  0.7785 -0.3302
 4446SOL    HW217556   6.404   4.740   1.591 -1.1982  1.2633  0.2941
 4446SOL    HW317557   6.338   4.653   1.695  0.9535 -0.7461  0.0573
 4446SOL    MW417558   6.384   4.661   1.622  0.3385  0.6413 -0.1967
 4447SOL     OW17559   5.152   6.347   5.177 -0.4924  0.1511 -0.0504
 4447SOL    HW217560   5.231   6.299   5.202 -1.4174 -1.4181  0.0262
 4447SOL    HW317561   5.083   6.310   5.233 -1.4069  1.0038 -0.5824
 4447SOL    MW417562   5.153   6.336   5.188 -0.7351  0.0565 -0.1105
 4448SOL     OW17563   4.674   4.832   4.546 -0.0454 -0.5030  0.3317
 4448SOL    HW217564   4.579   4.823   4.550 -0.1424 -0.9281 -1.5613
 4448SOL    HW317565   4.705   4.744   4.525  0.8992 -0.6293  2.1087
 4448SOL    MW417566   4.666   4.819   4.544  0.0664 -0.5757  0.3164
 4449SOL     OW17567   0.259   0.194   2.387 -0.0368  0.0768 -0.4157
 4449SOL    HW217568   0.352   0.177   2.402  0.2582  1.0803 -0.9927
 4449SOL    HW317569   0.221   0.197   2.475  0.1943 -1.6908 -0.2132
 4449SOL    MW417570   0.266   0.192   2.401  0.0326 -0.0240 -0.4651
 4450SOL     OW17571   3.510   0.668   2.215 -0.2408  0.1542  0.3815
 4450SOL    HW217572   3.516   0.632   2.127 -0.8883  1.0926 -0.0671
 4450SOL    HW317573   3.586   0.633   2.261  0.4367  0.1271 -0.7320
 4450SOL    MW417574   3.521   0.659   2.210 -0.2369  0.2744  0.1754
 4451SOL     OW17575   0.243   3.119   1.170  0.2486 -1.0194 -0.3503
 4451SOL    HW217576   0.215   3.043   1.221  0.3317  0.0315  1.3543
 4451SOL    HW317577   0.337   3.106   1.158  0.6164 -0.3763  1.4990
 4451SOL    MW417578   0.252   3.107   1.175  0.3081 -0.7959  0.1186
 4452SOL     OW17579   3.130   0.524   5.880 -0.2583  0.5921  0.2218
 4452SOL    HW217580   3.075   0.591   5.920 -0.2080  1.9438 -1.8424
 4452SOL    HW317581   3.148   0.557   5.792  1.1932 -1.3455 -0.2701
 4452SOL    MW417582   3.125   0.537   5.874 -0.0602  0.5148 -0.1155
 4453SOL     OW17583   2.772   4.618   5.006  0.0145  0.1224  0.1650
 4453SOL    HW217584   2.853   4.591   5.049  0.3501 -1.7596 -1.4812
 4453SOL    HW317585   2.800   4.676   4.936  0.1315 -1.3181 -1.0501
 4453SOL    MW417586   2.786   4.622   5.003  0.0742 -0.3159 -0.2126
 4454SOL     OW17587   2.565   1.682   2.692  0.1201 -0.1759 -0.2796
 4454SOL    HW217588   2.609   1.735   2.626  0.6093 -1.9007 -1.4246
 4454SOL    HW317589   2.474   1.678   2.663  0.1728 -0.2845 -0.4354
 4454SOL    MW417590   2.559   1.688   2.679  0.1916 -0.4178 -0.4512
 4455SOL     OW17591   1.194   3.160   4.260  0.6824 -0.1020 -0.1148
 4455SOL    HW217592   1.224   3.231   4.203  2.6192 -1.4122 -0.8299
 4455SOL    HW317593   1.098   3.166   4.257  0.7650  1.1122 -1.9012
 4455SOL    MW417594   1.185   3.170   4.252  0.9489 -0.1147 -0.4449
 4456SOL     OW17595   0.088   5.947   0.689 -0.5442 -0.0804 -0.1103
 4456SOL    HW217596   0.098   6.013   0.621 -0.3249 -1.0005 -0.9919
 4456SOL    HW317597   0.028   5.986   0.753  0.2556  1.2912 -0.1751
 4456SOL    MW417598   0.081   5.961   0.689 -0.4097 -0.0208 -0.2351
 4457SOL     OW17599   3.327   3.659   4.498  0.4171  0.0709  0.3482
 4457SOL    HW217600   3.319   3.576   4.451 -0.6550  0.2423  0.2217
 4457SOL    HW317601   3.266   3.651   4.571  0.5210  0.6421  0.4990
 4457SOL    MW417602   3.318   3.647   4.502  0.2893  0.1689  0.3514
 4458SOL     OW17603   4.236   5.883   2.833  0.2858 -0.2976 -0.4972
 4458SOL    HW217604   4.204   5.873   2.743 -0.2084 -0.2865 -0.3228
 4458SOL    HW317605   4.165   5.850   2.888 -0.1157  1.2467 -0.0318
 4458SOL    MW417606   4.222   5.877   2.828  0.1676 -0.0923 -0.4128
 4459SOL     OW17607   1.226   6.116   2.354 -0.2407 -0.0043 -0.1611
 4459SOL    HW217608   1.306   6.167   2.367  0.1868 -0.6589 -0.1850
 4459SOL    HW317609   1.184   6.113   2.440 -0.0256 -0.0152 -0.0572
 4459SOL    MW417610   1.231   6.122   2.367 -0.1559 -0.0921 -0.1505
 4460SOL     OW17611   0.905   1.086   2.502 -0.3638 -0.0184 -0.8892
 4460SOL    HW217612   0.885   1.176   2.475 -0.5753 -0.4042 -2.1219
 4460SOL    HW317613   0.819   1.043   2.502 -0.4333  0.0587  0.9031
 4460SOL    MW417614   0.891   1.093   2.498 -0.4009 -0.0592 -0.8154
 4461SOL     OW17615   5.427   1.660   3.077  0.3567  0.0056  0.4009
 4461SOL    HW217616   5.375   1.712   3.138 -0.5402 -1.0773  0.5935
 4461SOL    HW317617   5.497   1.622   3.130  0.2011 -0.0780  0.5478
 4461SOL    MW417618   5.429   1.661   3.092  0.2179 -0.1483  0.4457
 4462SOL     OW17619   3.812   2.800   2.200  0.6083  0.5261  0.2441
 4462SOL    HW217620   3.751   2.758   2.260 -0.5182  0.7565 -0.7105
 4462SOL    HW317621   3.766   2.879   2.170  1.2666  0.5660 -0.6981
 4462SOL    MW417622   3.798   2.805   2.204  0.5465  0.5618 -0.0061
 4463SOL     OW17623   6.084   3.701   5.351 -0.0831 -0.1567  0.8680
 4463SOL    HW217624   6.097   3.607   5.358  1.8204 -0.0020  0.0478
 4463SOL    HW317625   6.074   3.731   5.442  1.0634 -0.9286  1.2662
 4463SOL    MW417626   6.084   3.693   5.364  0.3193 -0.2381  0.8123
 4464SOL     OW17627   0.761   0.209   0.537 -0.1821 -0.5094  0.2614
 4464SOL    HW217628   0.830   0.255   0.489  1.5340 -2.5394  0.6149
 4464SOL    HW317629   0.685   0.266   0.530  1.6170  2.0904  0.2053
 4464SOL    MW417630   0.760   0.223   0.530  0.2817 -0.4342  0.3007
 4465SOL     OW17631   3.300   1.189   5.771  0.2810 -0.2561 -0.1818
 4465SOL    HW217632   3.362   1.240   5.822  0.6357 -0.2758 -0.5855
 4465SOL    HW317633   3.340   1.182   5.684 -1.5041  2.0128 -1.2820
 4465SOL    MW417634   3.313   1.195   5.766  0.0923  0.0406 -0.3803
 4466SOL     OW17635   0.625   1.955   0.945  0.3571 -0.4609  0.1973
 4466SOL    HW217636   0.634   1.948   1.040 -1.2108  1.3781  0.5418
 4466SOL    HW317637   0.531   1.961   0.930  0.6350  2.4550 -1.1259
 4466SOL    MW417638   0.614   1.955   0.956  0.1869  0.1665  0.0682
 4467SOL     OW17639   0.097   2.565   4.840 -0.1019  0.5085 -0.2361
 4467SOL    HW217640   0.047   2.561   4.758  1.7263  3.5946 -1.6674
 4467SOL    HW317641   0.180   2.522   4.819 -0.6111 -1.1647  0.9504
 4467SOL    MW417642   0.102   2.559   4.826  0.0722  0.6949 -0.2684
 4468SOL     OW17643   3.478   6.436   4.749  0.8235 -0.2090  0.0910
 4468SOL    HW217644   3.480   6.364   4.812  2.1864 -0.0993  0.2057
 4468SOL    HW317645   3.557   6.423   4.696  1.6914  1.8014  0.8148
 4468SOL    MW417646   3.489   6.425   4.750  1.1178  0.0707  0.2016
 4469SOL     OW17647   3.324   6.120   2.275 -0.0649  0.4223 -0.2860
 4469SOL    HW217648   3.394   6.170   2.316 -1.3839  1.5960  0.6145
 4469SOL    HW317649   3.340   6.128   2.181  1.1058  0.4819 -0.0946
 4469SOL    MW417650   3.335   6.127   2.268 -0.0845  0.5850 -0.1420
 4470SOL     OW17651   0.667   3.424   4.979  0.6967 -0.3638 -0.3926
 4470SOL    HW217652   0.663   3.520   4.985 -3.8214 -0.3786  0.3536
 4470SOL    HW317653   0.687   3.396   5.068  0.4895 -0.0898 -0.2553
 4470SOL    MW417654   0.669   3.433   4.992  0.0733 -0.3296 -0.2760
 4471SOL     OW17655   0.849   4.898   0.817  0.0297  0.0973 -0.2273
 4471SOL    HW217656   0.870   4.985   0.785  0.5492  0.0610  0.0075
 4471SOL    HW317657   0.933   4.852   0.819 -0.2218 -0.3652 -0.2242
 4471SOL    MW417658   0.863   4.904   0.813  0.0651  0.0315 -0.1959
 4472SOL     OW17659   1.178   4.886   5.294  0.2066 -0.2131 -0.2189
 4472SOL    HW217660   1.181   4.953   5.226 -0.5997  0.9805  0.8802
 4472SOL    HW317661   1.268   4.875   5.322  0.6743 -1.2818 -1.9641
 4472SOL    MW417662   1.190   4.893   5.288  0.1620 -0.1966 -0.3041
 4473SOL     OW17663  -0.002   1.328   6.291 -0.1129  0.0719  0.1827
 4473SOL    HW217664  -0.032   1.261   6.353 -0.8810 -0.2714 -0.5498
 4473SOL    HW317665  -0.080   1.353   6.242  0.2905  1.0629  0.0221
 4473SOL    MW417666  -0.016   1.322   6.293 -0.1610  0.1574  0.0649
 4474SOL     OW17667   4.548   4.210   1.098 -0.2362  0.3926  0.3476
 4474SOL    HW217668   4.509   4.298   1.105 -0.0140  0.5080  0.1562
 4474SOL    HW317669   4.628   4.215   1.149 -1.4664 -0.4469  2.4880
 4474SOL    MW417670   4.553   4.223   1.106 -0.3692  0.2971  0.6048
 4475SOL     OW17671   3.713   3.551   0.488 -0.3123 -0.3511 -0.0955
 4475SOL    HW217672   3.633   3.523   0.443 -0.6233  0.9657 -0.3834
 4475SOL    HW317673   3.784   3.521   0.431 -0.6700  0.2830 -0.8888
 4475SOL    MW417674   3.712   3.543   0.474 -0.4005 -0.0937 -0.2381
 4476SOL     OW17675   1.456   5.740   2.591  0.1912 -0.2315  0.5664
 4476SOL    HW217676   1.465   5.645   2.597  0.2363 -0.2961 -0.3934
 4476SOL    HW317677   1.542   5.771   2.565  0.0213  0.0112  0.2835
 4476SOL    MW417678   1.468   5.732   2.588  0.1748 -0.2080  0.4025
 4477SOL     OW17679   0.000   1.814   6.296  0.4194  0.2412  0.2036
 4477SOL    HW217680  -0.093   1.800   6.314  0.0393  1.0688 -0.9795
 4477SOL    HW317681   0.012   1.783   6.206  1.2075  0.4445  0.2285
 4477SOL    MW417682  -0.011   1.808   6.286  0.4733  0.3772  0.0508
 4478SOL     OW17683   4.335   5.569   2.641 -0.4340 -0.4040 -0.1233
 4478SOL    HW217684   4.315   5.644   2.584  1.2988  0.1212 -0.0941
 4478SOL    HW317685   4.422   5.541   2.613  0.3915 -0.2414  2.1330
 4478SOL    MW417686   4.344   5.575   2.630 -0.0965 -0.3132  0.1782
 4479SOL     OW17687   6.039   3.921   4.564  0.3893 -0.3313 -0.1574
 4479SOL    HW217688   6.087   3.957   4.639 -2.4504  1.8956  0.7996
 4479SOL    HW317689   6.075   3.967   4.488 -1.4396  2.9712  0.7766
 4479SOL    MW417690   6.050   3.932   4.564 -0.2266  0.3982  0.0921
 4480SOL     OW17691   0.285   2.228   4.191 -0.0774 -0.4968  0.9737
 4480SOL    HW217692   0.361   2.198   4.140 -0.8818 -3.2221  1.2258
 4480SOL    HW317693   0.322   2.284   4.259  1.3471  0.6961 -0.6946
 4480SOL    MW417694   0.300   2.232   4.193  0.0044 -0.6990  0.7868
 4481SOL     OW17695   1.169   4.153   6.412 -0.5729 -0.0659 -0.0160
 4481SOL    HW217696   1.177   4.180   6.503  0.4492 -1.1995  0.2606
 4481SOL    HW317697   1.246   4.191   6.369  0.3052 -1.5691  0.1545
 4481SOL    MW417698   1.180   4.162   6.418 -0.3222 -0.4138  0.0430
 4482SOL     OW17699   4.058   2.655   3.637 -0.1091 -0.5366  0.3674
 4482SOL    HW217700   4.110   2.731   3.613 -1.5993 -0.1776 -2.0543
 4482SOL    HW317701   4.047   2.662   3.732  1.1581  1.3312  0.4205
 4482SOL    MW417702   4.063   2.666   3.646 -0.1385 -0.2428  0.0549
 4483SOL     OW17703   2.416   3.354   5.035  0.3934 -0.1036 -0.2772
 4483SOL    HW217704   2.405   3.437   5.082  1.6119  0.7669 -1.4518
 4483SOL    HW317705   2.370   3.289   5.089  2.0178  0.7565  2.3214
 4483SOL    MW417706   2.408   3.356   5.048  0.7685  0.1248 -0.0893
 4484SOL     OW17707   2.974   4.329   4.292 -0.6742  0.0021  0.0239
 4484SOL    HW217708   2.978   4.269   4.367  1.9251  0.4907  0.3473
 4484SOL    HW317709   3.054   4.381   4.298 -1.6975  1.9086 -1.6020
 4484SOL    MW417710   2.985   4.328   4.303 -0.4663  0.3181 -0.1480
 4485SOL     OW17711   0.105   2.773   6.400 -0.2204 -0.0870 -0.0868
 4485SOL    HW217712   0.087   2.680   6.386  1.3425 -0.4033 -0.1797
 4485SOL    HW317713   0.030   2.818   6.363 -1.2972 -1.3344  0.5048
 4485SOL    MW417714   0.093   2.767   6.394 -0.1563 -0.2933 -0.0210
 4486SOL     OW17715   4.382   1.188   1.342  0.2394  0.2704  0.6305
 4486SOL    HW217716   4.391   1.260   1.280 -2.3085  0.9352  0.9305
 4486SOL    HW317717   4.355   1.113   1.289 -0.0561  0.3221  0.7117
 4486SOL    MW417718   4.380   1.187   1.327 -0.1358  0.3650  0.6808
 4487SOL     OW17719   5.205   1.070   0.962  0.5133 -0.5895 -0.2560
 4487SOL    HW217720   5.245   1.124   1.031  0.8826 -1.1682 -0.0124
 4487SOL    HW317721   5.113   1.062   0.988  0.4586 -0.0982 -0.2817
 4487SOL    MW417722   5.198   1.076   0.975  0.5548 -0.6010 -0.2272
 4488SOL     OW17723   3.645   2.486   3.450 -0.4469 -0.2489 -0.0986
 4488SOL    HW217724   3.692   2.548   3.506  2.5893 -1.7791 -0.7693
 4488SOL    HW317725   3.617   2.416   3.510 -0.4994 -0.0824  0.0704
 4488SOL    MW417726   3.647   2.485   3.466 -0.0533 -0.4288 -0.1648
 4489SOL     OW17727   1.096   2.738   1.780  0.2398 -0.2301  0.4213
 4489SOL    HW217728   1.127   2.702   1.697  0.7486 -0.5420  0.7450
 4489SOL    HW317729   1.112   2.669   1.844  0.7889  0.3797  0.9597
 4489SOL    MW417730   1.102   2.724   1.778  0.3793 -0.1908  0.5350
 4490SOL     OW17731   2.826   5.519   3.640  0.5955  0.7024 -0.7367
 4490SOL    HW217732   2.920   5.506   3.628  0.6149 -2.6524  1.6503
 4490SOL    HW317733   2.819   5.588   3.707  1.5044 -0.6131  0.7548
 4490SOL    MW417734   2.837   5.527   3.647  0.7180  0.0862 -0.2250
 4491SOL     OW17735   2.387   5.383   3.256  0.0442 -0.1013  0.0239
 4491SOL    HW217736   2.363   5.404   3.166 -1.1313  0.3716  0.4268
 4491SOL    HW317737   2.468   5.331   3.248  0.5672  0.8606 -1.2242
 4491SOL    MW417738   2.395   5.379   3.243 -0.0419  0.0880 -0.0876
 4492SOL     OW17739   3.693   3.347   5.557 -0.4627  0.2248 -0.3866
 4492SOL    HW217740   3.664   3.391   5.636 -0.4985 -2.3825  1.1669
 4492SOL    HW317741   3.621   3.359   5.495 -1.5412  0.2402  0.8272
 4492SOL    MW417742   3.680   3.354   5.559 -0.6097 -0.1171 -0.0215
 4493SOL     OW17743   3.005   3.982   6.188  0.2135  0.5687 -0.6671
 4493SOL    HW217744   3.048   3.898   6.202  2.6627  1.5811 -1.3588
 4493SOL    HW317745   2.924   3.961   6.143  0.4979 -1.4450 -0.3255
 4493SOL    MW417746   3.000   3.968   6.184  0.5742  0.4366 -0.7133
 4494SOL     OW17747   0.537   0.203   2.375 -0.4632 -0.0407 -0.2896
 4494SOL    HW217748   0.502   0.255   2.303 -0.9602 -1.2251 -0.9324
 4494SOL    HW317749   0.564   0.121   2.334 -1.4531 -1.0364  0.9790
 4494SOL    MW417750   0.536   0.199   2.360 -0.6593 -0.3284 -0.2070
 4495SOL     OW17751   3.258   5.579   5.519  0.4522  0.7423  0.1997
 4495SOL    HW217752   3.279   5.663   5.562  0.2041  0.1994  1.4353
 4495SOL    HW317753   3.165   5.586   5.499  0.6270  1.1039 -0.5301
 4495SOL    MW417754   3.249   5.591   5.522  0.4425  0.7184  0.2664
 4496SOL     OW17755   6.360   0.446   1.876 -0.1772 -0.2497 -0.1706
 4496SOL    HW217756   6.298   0.509   1.840  0.6336 -0.0507 -1.2547
 4496SOL    HW317757   6.424   0.433   1.807  1.2658 -0.0965  1.1005
 4496SOL    MW417758   6.360   0.452   1.862  0.1201 -0.2032 -0.1459
 4497SOL     OW17759   0.134   0.378   1.320 -0.2670  0.2088 -0.1091
 4497SOL    HW217760   0.071   0.335   1.377  0.4837 -0.9146 -0.1110
 4497SOL    HW317761   0.218   0.339   1.342  0.6881  2.6316  0.8610
 4497SOL    MW417762   0.137   0.368   1.330 -0.0420  0.3802  0.0186
 4498SOL     OW17763   3.348   3.747   5.162  0.2754  0.1700 -0.1178
 4498SOL    HW217764   3.441   3.742   5.138 -0.0298  0.8916 -1.5316
 4498SOL    HW317765   3.326   3.658   5.191  1.5187  0.1093  0.7556
 4498SOL    MW417766   3.357   3.734   5.163  0.3992  0.2572 -0.1891
 4499SOL     OW17767   6.216   3.467   4.119 -0.3569 -0.8366 -0.1532
 4499SOL    HW217768   6.259   3.382   4.118  1.6117  0.1004 -0.7887
 4499SOL    HW317769   6.284   3.529   4.091 -1.8123  0.9046 -0.0542
 4499SOL    MW417770   6.231   3.464   4.115 -0.2892 -0.4832 -0.2240
 4500SOL     OW17771   1.842   3.630   6.285  0.4509 -0.2864 -0.3274
 4500SOL    HW217772   1.872   3.648   6.196 -1.5220  1.6733 -0.6952
 4500SOL    HW317773   1.841   3.535   6.291  1.4747 -0.4656 -2.0612
 4500SOL    MW417774   1.846   3.620   6.274  0.3256 -0.0515 -0.6046
 4501SOL     OW17775   1.864   4.412   6.060  0.6794 -0.7221 -0.5784
 4501SOL    HW217776   1.771   4.417   6.039  0.5606 -0.8608 -0.0997
 4501SOL    HW317777   1.868   4.357   6.139  1.0791  0.0826 -0.0268
 4501SOL    MW417778   1.852   4.405   6.068  0.7165 -0.6342 -0.4425
 4502SOL     OW17779   1.684   4.127   4.902  0.6661  0.5679 -0.3102
 4502SOL    HW217780   1.730   4.126   4.985  1.2482  3.6962 -0.4454
 4502SOL    HW317781   1.593   4.145   4.925  0.6349  0.3686 -0.2829
 4502SOL    MW417782   1.678   4.129   4.916  0.7388  0.9543 -0.3244
 4503SOL     OW17783   3.013   5.491   5.415  0.0217 -0.6380 -0.0858
 4503SOL    HW217784   2.933   5.540   5.395  0.4709  0.4559  0.7116
 4503SOL    HW317785   2.982   5.404   5.442 -0.9300 -0.1256  0.5375
 4503SOL    MW417786   2.999   5.486   5.416 -0.0446 -0.4261  0.1017
 4504SOL     OW17787   5.301   5.439   5.541  0.1254 -0.6097  0.1601
 4504SOL    HW217788   5.293   5.344   5.541 -1.0838 -0.5379 -0.4726
 4504SOL    HW317789   5.379   5.458   5.593  0.4256 -1.9436  0.2154
 4504SOL    MW417790   5.310   5.429   5.548  0.0054 -0.7762  0.0839
 4505SOL     OW17791   2.054   4.418   3.422  0.5169  0.0525 -0.2912
 4505SOL    HW217792   2.100   4.484   3.474  0.7458  0.7728 -1.3740
 4505SOL    HW317793   2.030   4.464   3.341 -0.7135 -0.7594 -0.4120
 4505SOL    MW417794   2.057   4.433   3.418  0.3847  0.0404 -0.4500
 4506SOL     OW17795   1.029   0.172   1.329  0.1767  0.0332 -0.0790
 4506SOL    HW217796   0.970   0.243   1.356 -0.0715  0.5919 -1.9256
 4506SOL    HW317797   0.987   0.092   1.361 -1.0453  0.5146 -0.4313
 4506SOL    MW417798   1.016   0.171   1.336 -0.0173  0.1705 -0.3691
 4507SOL     OW17799   3.214   4.377   6.409  0.0412 -0.0461 -0.2504
 4507SOL    HW217800   3.153   4.312   6.441  0.1566  0.0948  0.2616
 4507SOL    HW317801   3.296   4.358   6.454  0.1134  0.3631 -0.2007
 4507SOL    MW417802   3.217   4.366   6.419  0.0660  0.0265 -0.1763
 4508SOL     OW17803   3.280   4.553   5.952 -0.2779 -0.4897 -0.2060
 4508SOL    HW217804   3.280   4.459   5.932 -1.8287 -0.9560  1.6255
 4508SOL    HW317805   3.332   4.593   5.882  1.5551 -2.8431 -0.3058
 4508SOL    MW417806   3.287   4.546   5.940 -0.2407 -0.8617  0.0225
 4509SOL     OW17807   3.126   2.495   2.618 -0.3412  0.0485 -0.2828
 4509SOL    HW217808   3.142   2.584   2.650  0.5627  0.1708 -1.0340
 4509SOL    HW317809   3.075   2.453   2.688  2.6587 -0.1021  2.0223
 4509SOL    MW417810   3.121   2.501   2.632  0.1738  0.0448 -0.0778
 4510SOL     OW17811   2.252   0.218   5.549 -0.1390 -0.2794  0.3614
 4510SOL    HW217812   2.303   0.256   5.479  2.2523  0.1127  2.1862
 4510SOL    HW317813   2.193   0.288   5.577  2.0420  1.1734  1.6290
 4510SOL    MW417814   2.251   0.232   5.544  0.4642 -0.0360  0.7694
 4511SOL     OW17815   5.069   3.926   3.273  0.8846  0.4351  0.2907
 4511SOL    HW217816   5.109   3.986   3.335  0.3424  1.3785 -0.2415
 4511SOL    HW317817   5.071   3.973   3.190 -0.4803  0.1516  0.0719
 4511SOL    MW417818   5.074   3.940   3.270  0.6330  0.5222  0.1916
 4512SOL     OW17819   2.666   3.266   3.030 -0.3303 -0.2442  0.1002
 4512SOL    HW217820   2.654   3.360   3.045  1.5421  0.5303 -2.5951
 4512SOL    HW317821   2.743   3.242   3.081  1.0643  0.4628 -1.5990
 4512SOL    MW417822   2.674   3.275   3.039  0.1008 -0.0487 -0.4796
 4513SOL     OW17823   4.895   1.792   2.492  0.3823 -0.6805 -0.4752
 4513SOL    HW217824   4.963   1.851   2.460  0.2844 -0.5532 -0.4517
 4513SOL    HW317825   4.927   1.762   2.577  0.0152  0.0578 -0.0663
 4513SOL    MW417826   4.908   1.796   2.499  0.3210 -0.5663 -0.4182
 4514SOL     OW17827   2.036   1.428   4.294  0.0388 -0.1852  0.2603
 4514SOL    HW217828   2.078   1.483   4.361  1.8111 -0.9325 -0.1789
 4514SOL    HW317829   2.103   1.418   4.227 -0.8127 -1.5762 -0.4083
 4514SOL    MW417830   2.050   1.434   4.294  0.1603 -0.4673  0.1142
 4515SOL     OW17831   2.080   0.119   6.040 -0.4525 -0.1684  0.3569
 4515SOL    HW217832   2.018   0.162   6.098 -0.1984  1.8130 -0.7362
 4515SOL    HW317833   2.165   0.134   6.081 -0.4453 -0.5663  0.4966
 4515SOL    MW417834   2.083   0.127   6.053 -0.4180  0.0405  0.2311
 4516SOL     OW17835   6.035   3.863   1.923 -0.2612  0.3090  1.5011
 4516SOL    HW217836   6.036   3.929   1.853 -1.6316  0.1613  1.3253
 4516SOL    HW317837   6.127   3.858   1.951  0.5208 -0.3351 -0.9396
 4516SOL    MW417838   6.047   3.871   1.918 -0.3388  0.2045  1.1559
 4517SOL     OW17839   0.881   5.463   4.871 -0.7157 -0.3698 -0.5682
 4517SOL    HW217840   0.960   5.496   4.912  1.4743 -2.5688 -2.6840
 4517SOL    HW317841   0.852   5.535   4.814  0.4272  0.0749 -0.6170
 4517SOL    MW417842   0.887   5.477   4.869 -0.2759 -0.6012 -0.8538
 4518SOL     OW17843   5.216   3.356   6.173 -0.2418  0.3882 -0.3554
 4518SOL    HW217844   5.237   3.268   6.144  1.9848  0.9027 -0.4962
 4518SOL    HW317845   5.227   3.410   6.095 -1.0397  0.8737 -0.1433
 4518SOL    MW417846   5.220   3.352   6.159 -0.0533  0.5202 -0.3460
 4519SOL     OW17847   5.812   1.979   4.106 -0.5673 -0.7618 -0.3967
 4519SOL    HW217848   5.854   1.893   4.112 -0.1064 -0.4618  1.1519
 4519SOL    HW317849   5.799   2.006   4.197 -1.0464  0.6458 -0.8507
 4519SOL    MW417850   5.816   1.971   4.119 -0.5697 -0.5365 -0.2523
 4520SOL     OW17851   2.439   3.056   5.866 -0.1687  0.3707  0.1232
 4520SOL    HW217852   2.408   2.972   5.833 -1.9208  0.3708  1.6206
 4520SOL    HW317853   2.382   3.121   5.825  1.4454  0.9259 -1.3572
 4520SOL    MW417854   2.428   3.054   5.856 -0.1869  0.4440  0.1254
 4521SOL     OW17855   4.634   5.649   4.342  0.8772 -0.3035 -0.1601
 4521SOL    HW217856   4.598   5.560   4.334  0.1801 -0.0882  0.4711
 4521SOL    HW317857   4.723   5.641   4.307  1.7484 -1.8596  2.1392
 4521SOL    MW417858   4.641   5.636   4.336  0.9002 -0.4804  0.2265
 4522SOL     OW17859   4.721   5.588   0.401  0.5000 -0.3062  0.6488
 4522SOL    HW217860   4.721   5.493   0.418 -1.0158 -0.7816 -1.6064
 4522SOL    HW317861   4.641   5.620   0.443 -0.8002 -0.6915 -1.3755
 4522SOL    MW417862   4.711   5.580   0.409  0.1284 -0.4197  0.0842
 4523SOL     OW17863   2.663   2.378   2.801 -0.2461 -0.0468 -0.0316
 4523SOL    HW217864   2.710   2.298   2.779 -0.3994 -0.0741 -0.2545
 4523SOL    HW317865   2.688   2.440   2.733 -0.1556  0.0843  0.1206
 4523SOL    MW417866   2.673   2.376   2.789 -0.2544 -0.0331 -0.0409
 4524SOL     OW17867   5.186   2.201   4.005  0.8756 -0.4874  0.1155
 4524SOL    HW217868   5.275   2.210   3.970  0.2601 -0.9646 -1.6942
 4524SOL    HW317869   5.156   2.292   4.015  0.7911 -0.2903 -1.5050
 4524SOL    MW417870   5.194   2.214   4.001  0.7833 -0.5243 -0.3371
 4525SOL     OW17871   0.341   2.874   2.686  0.3773  0.0847 -0.1982
 4525SOL    HW217872   0.303   2.806   2.742  0.1066  0.3197 -0.0970
 4525SOL    HW317873   0.327   2.842   2.597  2.0333 -0.9574 -0.1172
 4525SOL    MW417874   0.334   2.861   2.682  0.5601 -0.0218 -0.1741
 4526SOL     OW17875   1.663   1.621   0.555 -0.1626 -0.0957 -0.3030
 4526SOL    HW217876   1.710   1.576   0.626  0.2424 -1.1292 -1.1840
 4526SOL    HW317877   1.571   1.600   0.570 -0.1596  0.2780  0.2987
 4526SOL    MW417878   1.657   1.612   0.566 -0.1088 -0.1827 -0.3399
 4527SOL     OW17879   4.268   0.567   3.732 -0.3894 -0.1509 -0.7231
 4527SOL    HW217880   4.252   0.539   3.822  0.4186 -0.9152 -0.7988
 4527SOL    HW317881   4.250   0.489   3.680 -0.2579  0.1126 -1.1630
 4527SOL    MW417882   4.264   0.553   3.737 -0.2654 -0.2170 -0.7911
 4528SOL     OW17883   0.296   2.098   5.723 -0.0453 -0.2876  0.0429
 4528SOL    HW217884   0.264   2.067   5.638 -0.5695  1.2637 -0.3466
 4528SOL    HW317885   0.368   2.038   5.744 -0.7811 -1.5399 -0.8304
 4528SOL    MW417886   0.301   2.086   5.714 -0.2116 -0.2481 -0.1237
 4529SOL     OW17887   6.088   1.480   4.444  0.6636 -0.1555 -0.2574
 4529SOL    HW217888   6.052   1.443   4.524 -1.3354  0.0980 -0.9911
 4529SOL    HW317889   6.093   1.574   4.462  0.2385 -0.1015 -0.4131
 4529SOL    MW417890   6.084   1.488   4.457  0.3438 -0.1149 -0.3748
 4530SOL     OW17891   2.285   2.957   4.144  0.2054 -0.0929 -0.6338
 4530SOL    HW217892   2.291   2.892   4.213  0.1918 -1.2535 -1.6934
 4530SOL    HW317893   2.299   2.908   4.063  0.5606  1.2802 -1.4458
 4530SOL    MW417894   2.288   2.942   4.142  0.2505 -0.0649 -0.8807
 4531SOL     OW17895   1.293   2.744   4.570  0.1265 -0.0174 -0.1460
 4531SOL    HW217896   1.365   2.793   4.530 -0.0355 -0.6567 -1.2561
 4531SOL    HW317897   1.294   2.659   4.526 -0.7701 -0.3463  0.4351
 4531SOL    MW417898   1.303   2.739   4.559 -0.0132 -0.1451 -0.2158
 4532SOL     OW17899   1.971   5.497   0.167 -0.3729 -0.2359  0.1887
 4532SOL    HW217900   1.945   5.442   0.241  0.1142 -0.0159  0.5313
 4532SOL    HW317901   1.985   5.583   0.205  1.9638 -0.5758  0.2735
 4532SOL    MW417902   1.970   5.501   0.182 -0.0004 -0.2517  0.2451
 4533SOL     OW17903   1.455   5.294   1.414  0.2927 -0.1234 -0.5014
 4533SOL    HW217904   1.442   5.207   1.450  1.1726 -0.7699 -1.6969
 4533SOL    HW317905   1.484   5.347   1.489  0.1570 -0.9443  0.1437
 4533SOL    MW417906   1.457   5.290   1.429  0.3909 -0.3170 -0.5740
 4534SOL     OW17907   5.079   2.175   1.763  0.1990  0.4340  0.2411
 4534SOL    HW217908   5.169   2.159   1.791 -0.2194  0.3006  1.6164
 4534SOL    HW317909   5.030   2.101   1.800 -0.4409  0.3626 -0.7167
 4534SOL    MW417910   5.085   2.163   1.772  0.0593  0.4070  0.2962
 4535SOL     OW17911   3.052   4.787   6.173 -0.3451  0.0302  0.1208
 4535SOL    HW217912   3.062   4.709   6.227  2.6567  0.4344  0.3181
 4535SOL    HW317913   3.014   4.754   6.091 -0.9801 -1.2713  0.8997
 4535SOL    MW417914   3.048   4.773   6.169 -0.0328 -0.0882  0.2496
 4536SOL     OW17915   1.285   3.292   0.986 -0.6844  0.0902  0.0827
 4536SOL    HW217916   1.318   3.279   0.897 -0.2690 -3.1421  0.5832
 4536SOL    HW317917   1.199   3.250   0.985 -1.0143  0.7336  1.0172
 4536SOL    MW417918   1.278   3.285   0.974 -0.6731 -0.2513  0.2720
 4537SOL     OW17919   0.873   0.558   0.871 -0.5123 -0.4309 -0.3080
 4537SOL    HW217920   0.805   0.530   0.933 -0.1564  1.9525  1.2595
 4537SOL    HW317921   0.823   0.587   0.794 -1.0221 -2.0614 -0.6490
 4537SOL    MW417922   0.857   0.558   0.869 -0.5326 -0.3316 -0.1462
 4538SOL     OW17923   4.502   1.367   0.337 -0.5374 -0.7856 -0.5361
 4538SOL    HW217924   4.594   1.385   0.353 -0.6090  0.5539 -1.4687
 4538SOL    HW317925   4.500   1.275   0.308  0.4463 -0.9253 -0.1911
 4538SOL    MW417926   4.514   1.357   0.335 -0.4171 -0.6273 -0.6137
 4539SOL     OW17927   6.420   1.067   2.540 -0.4127 -0.1729 -0.6097
 4539SOL    HW217928   6.394   1.008   2.468 -0.3139 -0.8992 -0.0644
 4539SOL    HW317929   6.515   1.069   2.536 -0.4595  1.5921 -1.8997
 4539SOL    MW417930   6.429   1.059   2.530 -0.4059 -0.0359 -0.7080
 4540SOL     OW17931   0.520   5.670   1.155 -0.2423 -0.1714  0.1066
 4540SOL    HW217932   0.607   5.635   1.175  0.3411  1.0214 -0.2885
 4540SOL    HW317933   0.535   5.737   1.089 -1.2835  1.0330  1.0378
 4540SOL    MW417934   0.534   5.674   1.149 -0.3027  0.1449  0.1773
 4541SOL     OW17935   3.589   4.582   2.590 -0.2789 -0.0039 -0.7336
 4541SOL    HW217936   3.629   4.636   2.658 -1.3782 -0.2964  0.1837
 4541SOL    HW317937   3.644   4.595   2.513  0.9562  0.4029  0.1864
 4541SOL    MW417938   3.601   4.590   2.589 -0.2610  0.0112 -0.4912
 4542SOL     OW17939   2.832   1.650   4.272 -0.0456  0.1472 -0.6579
 4542SOL    HW217940   2.916   1.604   4.267  0.3160  0.7784 -0.5040
 4542SOL    HW317941   2.779   1.597   4.332 -0.4628 -1.3159 -2.2204
 4542SOL    MW417942   2.836   1.637   4.279 -0.0529  0.0375 -0.8438
 4543SOL     OW17943   0.121   1.949   5.080 -0.0792  0.0544  0.2962
 4543SOL    HW217944   0.100   1.908   5.164 -0.9542  0.7620  0.4485
 4543SOL    HW317945   0.172   2.026   5.103 -0.3054  0.2404  0.1813
 4543SOL    MW417946   0.125   1.954   5.094 -0.2245  0.1723  0.3012
 4544SOL     OW17947   0.934   0.700   1.328 -0.3964  0.7219 -0.0006
 4544SOL    HW217948   0.858   0.642   1.316  1.3742 -1.6583 -0.3736
 4544SOL    HW317949   0.954   0.730   1.239  0.2705 -0.2582 -0.1923
 4544SOL    MW417950   0.926   0.696   1.314 -0.0748  0.2786 -0.0751
 4545SOL     OW17951   2.422   2.262   1.176  0.4245  0.4354  0.1280
 4545SOL    HW217952   2.460   2.178   1.200 -0.0401 -0.2303 -1.3529
 4545SOL    HW317953   2.457   2.280   1.089 -0.1618  1.3618  0.0670
 4545SOL    MW417954   2.432   2.253   1.168  0.2858  0.4698 -0.0754
 4546SOL     OW17955   0.667   0.686   5.562  0.0812  0.7078 -0.5916
 4546SOL    HW217956   0.689   0.629   5.636 -0.6832  0.0633 -0.8454
 4546SOL    HW317957   0.683   0.774   5.595 -0.5996  0.4614  0.4882
 4546SOL    MW417958   0.672   0.690   5.576 -0.1095  0.5903 -0.4826
 4547SOL     OW17959   2.326   3.915   2.125  0.1192 -0.0297 -0.3701
 4547SOL    HW217960   2.374   3.845   2.082  2.2046  1.0358  0.1078
 4547SOL    HW317961   2.346   3.905   2.218 -1.8831 -0.4746  0.0653
 4547SOL    MW417962   2.335   3.904   2.132  0.1302  0.0522 -0.2496
 4548SOL     OW17963   2.855   4.622   1.853  0.0791 -0.2130 -0.0243
 4548SOL    HW217964   2.854   4.598   1.946  0.2375  0.7957  0.2484
 4548SOL    HW317965   2.815   4.547   1.809  1.5520 -1.4637  0.6626
 4548SOL    MW417966   2.850   4.609   1.859  0.2943 -0.2449  0.1023
 4549SOL     OW17967   3.897   5.485   4.599  0.3405 -0.4401  0.3651
 4549SOL    HW217968   3.981   5.442   4.586  0.3187  0.3164 -3.4329
 4549SOL    HW317969   3.907   5.571   4.557 -2.4860 -0.5856 -0.8484
 4549SOL    MW417970   3.909   5.491   4.592 -0.0353 -0.3595 -0.2961
 4550SOL     OW17971   6.330   4.398   5.511 -0.3313 -0.1835 -0.1445
 4550SOL    HW217972   6.236   4.407   5.493 -0.4596  0.4671  0.7388
 4550SOL    HW317973   6.373   4.438   5.436 -0.8025  1.1762  0.2849
 4550SOL    MW417974   6.323   4.404   5.499 -0.4104  0.0817  0.0287
 4551SOL     OW17975   1.086   5.623   4.489 -0.1828 -0.3658 -0.1416
 4551SOL    HW217976   1.130   5.545   4.522 -0.0096  0.2682  1.1739
 4551SOL    HW317977   1.115   5.629   4.397  1.4378 -0.7019  0.3093
 4551SOL    MW417978   1.096   5.614   4.481  0.0539 -0.3265  0.0915
 4552SOL     OW17979   1.899   2.156   4.560  0.2240 -0.0631 -0.0120
 4552SOL    HW217980   1.865   2.089   4.619  0.3146 -0.0821  0.0184
 4552SOL    HW317981   1.826   2.175   4.501 -0.3562  0.9684  0.9920
 4552SOL    MW417982   1.885   2.150   4.560  0.1594  0.0705  0.1245
 4553SOL     OW17983   0.443   5.446   3.079  0.5828 -0.3371 -0.9805
 4553SOL    HW217984   0.490   5.529   3.083  0.1403 -0.1092 -0.3865
 4553SOL    HW317985   0.385   5.447   3.155  1.2752 -1.6338 -0.3989
 4553SOL    MW417986   0.441   5.457   3.089  0.6158 -0.4781 -0.8254
 4554SOL     OW17987   2.299   2.843   3.895  0.3843  0.5285 -0.2854
 4554SOL    HW217988   2.391   2.818   3.904  0.1305  0.2631  2.4560
 4554SOL    HW317989   2.255   2.762   3.867  0.4022 -0.7935  3.0179
 4554SOL    MW417990   2.305   2.829   3.892  0.3532  0.3190  0.5121
 4555SOL     OW17991   3.337   1.069   2.927 -0.3591  0.1075  0.2192
 4555SOL    HW217992   3.248   1.034   2.925 -0.2948 -0.0780  0.5479
 4555SOL    HW317993   3.382   1.016   2.992 -0.4153  1.1689  1.1576
 4555SOL    MW417994   3.331   1.058   2.935 -0.3580  0.2231  0.3864
 4556SOL     OW17995   4.621   4.166   6.338  0.0990 -0.9511  0.1573
 4556SOL    HW217996   4.588   4.101   6.401  0.1141  0.3328  1.5670
 4556SOL    HW317997   4.711   4.184   6.366  0.0581 -0.2571 -0.1208
 4556SOL    MW417998   4.628   4.160   6.350  0.0956 -0.6901  0.3066
 4557SOL     OW17999   1.815   0.122   1.769 -0.1331 -0.0322  0.2478
 4557SOL    HW218000   1.858   0.201   1.803 -0.1187 -0.7553  2.0193
 4557SOL    HW318001   1.774   0.082   1.846 -1.1753 -1.1190 -0.8301
 4557SOL    MW418002   1.815   0.127   1.783 -0.2687 -0.2710  0.3393
 4558SOL     OW18003   2.176   0.066   4.542 -0.3540  0.2921 -0.0813
 4558SOL    HW218004   2.241   0.135   4.555 -0.0128 -0.1697  0.7528
 4558SOL    HW318005   2.192   0.004   4.613 -0.5845 -0.7020 -0.8772
 4558SOL    MW418006   2.186   0.067   4.553 -0.3394  0.1000 -0.0763
 4559SOL     OW18007   2.037   1.782   2.980  0.0940 -0.6391 -0.3783
 4559SOL    HW218008   2.095   1.839   3.031  0.4979 -2.4045  1.2313
 4559SOL    HW318009   1.966   1.839   2.952  1.5709  1.1343 -0.7301
 4559SOL    MW418010   2.035   1.797   2.983  0.3421 -0.6380 -0.2124
 4560SOL     OW18011   3.562   0.667   5.460  0.6336 -0.6366 -0.3891
 4560SOL    HW218012   3.489   0.606   5.469  0.5856 -0.4067  1.0866
 4560SOL    HW318013   3.528   0.739   5.407 -0.4404 -0.2229  0.8235
 4560SOL    MW418014   3.548   0.669   5.454  0.4856 -0.5517 -0.0344
 4561SOL     OW18015   0.490   1.518   3.354  0.0317 -0.3132 -0.1030
 4561SOL    HW218016   0.425   1.459   3.392  0.1828 -0.3558  0.0929
 4561SOL    HW318017   0.512   1.478   3.270 -0.6729  0.0471 -0.4646
 4561SOL    MW418018   0.484   1.505   3.348 -0.0414 -0.2713 -0.1248
 4562SOL     OW18019   0.549   4.036   6.330  0.1268 -0.3439 -0.3432
 4562SOL    HW218020   0.570   4.129   6.327  0.8459 -0.3880  1.7272
 4562SOL    HW318021   0.457   4.031   6.304  0.2294  0.8684 -0.9940
 4562SOL    MW418022   0.540   4.047   6.327  0.2352 -0.1897 -0.1559
 4563SOL     OW18023   0.826   2.376   5.898 -0.1790  0.7715  0.0367
 4563SOL    HW218024   0.794   2.463   5.874 -1.8998  0.1420 -0.1395
 4563SOL    HW318025   0.813   2.371   5.993  0.5645  0.9457  0.1517
 4563SOL    MW418026   0.820   2.387   5.907 -0.3080  0.7115  0.0286
 4564SOL     OW18027   3.924   1.132   2.998 -0.0870 -0.5913 -0.0567
 4564SOL    HW218028   3.966   1.082   2.928  1.8188 -1.8565  1.8501
 4564SOL    HW318029   3.897   1.214   2.957 -0.6259 -1.9775 -2.6196
 4564SOL    MW418030   3.926   1.136   2.984  0.0933 -0.9411 -0.1433
 4565SOL     OW18031   5.519   5.632   0.043 -0.1257  0.1350 -0.0769
 4565SOL    HW218032   5.574   5.566   0.084 -1.1157  0.1854  1.3972
 4565SOL    HW318033   5.436   5.588   0.027 -0.1175  0.4437 -1.0145
 4565SOL    MW418034   5.515   5.618   0.046 -0.2553  0.1824 -0.0061
 4566SOL     OW18035   3.863   4.129   5.148  0.6296  0.5214 -0.7797
 4566SOL    HW218036   3.776   4.101   5.175  0.4256  2.6930  1.0682
 4566SOL    HW318037   3.907   4.048   5.121 -0.7722 -1.1619  1.6616
 4566SOL    MW418038   3.858   4.115   5.148  0.4177  0.5858 -0.2138
 4567SOL     OW18039   5.251   4.807   5.338  0.0106 -0.0598  0.0216
 4567SOL    HW218040   5.222   4.896   5.318 -0.1378  0.0858  0.8432
 4567SOL    HW318041   5.190   4.751   5.290  0.6467  0.2719 -1.2201
 4567SOL    MW418042   5.239   4.811   5.329  0.0750  0.0032 -0.0338
 4568SOL     OW18043   4.946   2.839   6.066  0.5572  0.1506 -0.2420
 4568SOL    HW218044   4.903   2.795   6.140 -2.1058 -0.5191 -2.0516
 4568SOL    HW318045   4.932   2.932   6.084  0.7329  0.0380  0.5391
 4568SOL    MW418046   4.938   2.846   6.078  0.2290  0.0474 -0.3777
 4569SOL     OW18047   5.407   0.787   1.490  0.1166 -0.1018  0.0016
 4569SOL    HW218048   5.501   0.804   1.483  0.2989 -0.3800  1.4892
 4569SOL    HW318049   5.373   0.858   1.544  0.0749 -1.7303  2.2557
 4569SOL    MW418050   5.415   0.798   1.496  0.1351 -0.3534  0.4952
 4570SOL     OW18051   5.157   3.932   0.737  0.1919  0.3848 -0.0593
 4570SOL    HW218052   5.235   3.912   0.685 -0.0793  1.0042 -0.7217
 4570SOL    HW318053   5.128   3.848   0.771  0.5467  0.0069 -0.6799
 4570SOL    MW418054   5.164   3.919   0.735  0.2029  0.4166 -0.2286
 4571SOL     OW18055   0.736   0.563   4.892 -0.1211  0.5716 -0.4618
 4571SOL    HW218056   0.771   0.536   4.807  0.1799  0.9223 -0.4514
 4571SOL    HW318057   0.723   0.658   4.883 -1.7620  0.3550 -0.7158
 4571SOL    MW418058   0.739   0.572   4.879 -0.2979  0.5893 -0.4939
 4572SOL     OW18059   1.540   3.571   2.597 -0.5114  0.0848 -0.3997
 4572SOL    HW218060   1.563   3.602   2.685 -2.8543 -0.0842  0.3579
 4572SOL    HW318061   1.510   3.650   2.551  0.5830  0.1499 -1.0403
 4572SOL    MW418062   1.539   3.586   2.603 -0.6761  0.0711 -0.3842
 4573SOL     OW18063   1.971   1.643   4.805 -0.5577  0.7188  0.5862
 4573SOL    HW218064   1.933   1.578   4.865 -1.2491 -1.9398 -2.4510
 4573SOL    HW318065   2.066   1.629   4.813 -0.6962 -1.0939 -0.2921
 4573SOL    MW418066   1.979   1.632   4.814 -0.6672  0.1289  0.0696
 4574SOL     OW18067   3.521   1.243   2.793 -0.4131 -0.0789  0.0476
 4574SOL    HW218068   3.452   1.184   2.824  0.1029 -0.8326 -0.2026
 4574SOL    HW318069   3.498   1.260   2.702 -0.5099  0.0302  0.0921
 4574SOL    MW418070   3.509   1.237   2.785 -0.3578 -0.1639  0.0204
 4575SOL     OW18071   3.244   1.249   1.276 -0.0642  0.0236  0.5322
 4575SOL    HW218072   3.256   1.343   1.267  0.4748  0.1467  2.2254
 4575SOL    HW318073   3.246   1.216   1.186  1.6462  1.3845  0.0247
 4575SOL    MW418074   3.246   1.257   1.263  0.2325  0.2194  0.6886
 4576SOL     OW18075   4.800   6.401   2.875  0.2741  0.1332  0.3156
 4576SOL    HW218076   4.811   6.306   2.877  0.8018  0.2061  1.0776
 4576SOL    HW318077   4.825   6.426   2.786  1.5588 -0.2806  0.5387
 4576SOL    MW418078   4.805   6.392   2.863  0.5132  0.0882  0.4456
 4577SOL     OW18079   0.890   5.412   0.726 -0.0231  0.2007  0.1500
 4577SOL    HW218080   0.809   5.457   0.700  1.7156  1.9292 -2.9467
 4577SOL    HW318081   0.873   5.319   0.707 -1.4037  0.4774 -0.0747
 4577SOL    MW418082   0.877   5.405   0.720  0.0242  0.4653 -0.2882
 4578SOL     OW18083   2.292   3.082   3.742 -0.6186 -0.2507 -0.1940
 4578SOL    HW218084   2.264   3.165   3.781  0.1385 -0.0079 -0.1512
 4578SOL    HW318085   2.262   3.015   3.804 -2.0111 -0.0807 -0.6706
 4578SOL    MW418086   2.285   3.084   3.755 -0.7024 -0.1962 -0.2513
 4579SOL     OW18087   2.575   2.013   6.084  0.2554 -0.0954  0.2236
 4579SOL    HW218088   2.509   2.064   6.130  0.6039 -0.4739  1.1685
 4579SOL    HW318089   2.548   2.016   5.992 -1.7987 -1.2672  0.7246
 4579SOL    MW418090   2.563   2.020   6.078  0.0304 -0.3000  0.4144
 4580SOL     OW18091   5.404   1.767   5.117  0.3696 -0.1940 -0.3088
 4580SOL    HW218092   5.482   1.721   5.088 -0.1343 -0.6476 -0.9651
 4580SOL    HW318093   5.333   1.703   5.109 -0.5186  0.9461 -2.1477
 4580SOL    MW418094   5.405   1.753   5.112  0.1859 -0.1034 -0.6380
 4581SOL     OW18095   0.972   3.659   1.090  0.3193 -0.1001  0.2552
 4581SOL    HW218096   0.881   3.666   1.121  0.2720  0.3129  0.0263
 4581SOL    HW318097   0.988   3.742   1.045 -0.0713 -1.2400 -2.1035
 4581SOL    MW418098   0.962   3.671   1.088  0.2616 -0.1960 -0.0862
 4582SOL     OW18099   4.583   0.790   4.409  0.2836 -0.1900  0.0419
 4582SOL    HW218100   4.638   0.714   4.393  0.7195  0.1450 -0.0577
 4582SOL    HW318101   4.640   0.852   4.454  0.7784  1.1951 -2.3424
 4582SOL    MW418102   4.598   0.788   4.413  0.4064  0.0370 -0.2858
 4583SOL     OW18103   6.188   2.213   0.692  0.1244 -0.3623  0.5018
 4583SOL    HW218104   6.107   2.186   0.737  1.2570 -3.0057  1.1629
 4583SOL    HW318105   6.210   2.297   0.732 -2.1709  0.3512  0.4280
 4583SOL    MW418106   6.180   2.221   0.703 -0.0290 -0.6169  0.5793
 4584SOL     OW18107   4.425   2.784   4.799  0.2619  0.4829  0.2629
 4584SOL    HW218108   4.446   2.832   4.719 -0.2007 -1.6880 -1.2505
 4584SOL    HW318109   4.336   2.812   4.822  0.1405  0.6234 -0.3709
 4584SOL    MW418110   4.416   2.794   4.792  0.1848  0.2150 -0.0204
 4585SOL     OW18111   3.633   2.375   5.660 -0.8469  0.4740  0.2390
 4585SOL    HW218112   3.588   2.371   5.575 -1.4171 -0.7106  0.5791
 4585SOL    HW318113   3.563   2.381   5.724 -0.3978  2.7752  0.6229
 4585SOL    MW418114   3.618   2.375   5.657 -0.8629  0.6213  0.3345
 4586SOL     OW18115   0.809   2.299   1.060  0.7188  0.8026  0.0667
 4586SOL    HW218116   0.804   2.394   1.048 -1.4554  0.6987 -0.0693
 4586SOL    HW318117   0.738   2.264   1.007  0.4648 -0.7814  1.3751
 4586SOL    MW418118   0.799   2.307   1.052  0.3984  0.5799  0.2214
 4587SOL     OW18119   0.586   1.171   4.433  0.4841  0.1229  0.0858
 4587SOL    HW218120   0.502   1.126   4.422  0.7161  0.1158 -2.3175
 4587SOL    HW318121   0.563   1.262   4.453 -0.0418 -0.3157  1.5322
 4587SOL    MW418122   0.572   1.177   4.434  0.4454  0.0641 -0.0405
 4588SOL     OW18123   0.619   1.250   2.273  0.1841 -0.2490 -0.0297
 4588SOL    HW218124   0.659   1.215   2.194 -0.0515 -0.8045  0.0900
 4588SOL    HW318125   0.692   1.278   2.328  0.4120 -1.2031  0.1646
 4588SOL    MW418126   0.634   1.249   2.270  0.1831 -0.4482  0.0117
 4589SOL     OW18127   6.373   3.507   1.988 -0.2307 -0.0904  0.7591
 4589SOL    HW218128   6.279   3.491   1.997 -0.3063  0.0292  0.1593
 4589SOL    HW318129   6.381   3.566   1.914  0.2305  0.8914  1.5600
 4589SOL    MW418130   6.362   3.513   1.980 -0.1798  0.0549  0.7856
 4590SOL     OW18131   0.915   3.608   1.483  0.2729  0.6088 -0.6063
 4590SOL    HW218132   0.848   3.548   1.451  2.3375 -0.8701 -2.4961
 4590SOL    HW318133   0.867   3.688   1.505 -2.4626 -1.2902  1.0103
 4590SOL    MW418134   0.900   3.611   1.481  0.1844  0.1631 -0.6423
 4591SOL     OW18135   2.584   3.217   1.912  0.4552 -0.0836  0.1026
 4591SOL    HW218136   2.643   3.257   1.976  0.6373  1.4378 -0.9650
 4591SOL    HW318137   2.497   3.231   1.949  0.6406 -1.3564  1.1397
 4591SOL    MW418138   2.580   3.224   1.925  0.5037 -0.0508  0.0986
 4592SOL     OW18139   2.357   3.666   1.191 -0.2266 -0.6017 -0.2092
 4592SOL    HW218140   2.451   3.676   1.173 -0.5021 -1.0027 -2.1221
 4592SOL    HW318141   2.353   3.625   1.277  1.4521 -2.8185 -1.0920
 4592SOL    MW418142   2.369   3.662   1.200 -0.0415 -0.9471 -0.5781
 4593SOL     OW18143   5.234   2.486   5.714  0.2361 -0.5797 -0.0295
 4593SOL    HW218144   5.205   2.425   5.646 -1.2231  0.2682 -0.2145
 4593SOL    HW318145   5.255   2.567   5.666 -3.4662  0.9897  0.6133
 4593SOL    MW418146   5.233   2.489   5.699 -0.4449 -0.2608  0.0309
 4594SOL     OW18147   5.042   2.015   4.920 -0.2888 -0.3610 -0.1760
 4594SOL    HW218148   5.049   2.044   4.829 -2.0572  1.6805  0.2566
 4594SOL    HW318149   5.129   2.033   4.957 -0.1982  0.8718 -0.9298
 4594SOL    MW418150   5.054   2.021   4.913 -0.5102  0.0710 -0.2184
 4595SOL     OW18151   1.320   0.918   0.645 -0.3912 -0.2078 -0.1934
 4595SOL    HW218152   1.292   0.967   0.568 -1.4855 -0.5589 -0.0333
 4595SOL    HW318153   1.405   0.955   0.667 -1.0219  1.3713 -0.2962
 4595SOL    MW418154   1.328   0.929   0.638 -0.6188 -0.0458 -0.1859
 4596SOL     OW18155   5.176   6.007   5.384  0.5207  0.2805  0.4051
 4596SOL    HW218156   5.140   5.990   5.297 -0.0105 -0.2684  0.7218
 4596SOL    HW318157   5.269   6.021   5.369  0.4135  0.3200 -0.2680
 4596SOL    MW418158   5.183   6.007   5.371  0.4365  0.2133  0.3581
 4597SOL     OW18159   2.122   2.940   3.142 -0.3333  0.0894  0.3500
 4597SOL    HW218160   2.177   2.953   3.219 -0.4059  0.0088  0.4147
 4597SOL    HW318161   2.180   2.960   3.068  0.3834 -1.9630  0.3052
 4597SOL    MW418162   2.137   2.945   3.142 -0.2483 -0.1920  0.3526
 4598SOL     OW18163   5.928   3.108   5.846  0.1868  0.0689  0.0011
 4598SOL    HW218164   5.854   3.111   5.908  0.7811 -0.4076  0.7495
 4598SOL    HW318165   5.965   3.196   5.849 -2.5444  1.5282 -3.1768
 4598SOL    MW418166   5.923   3.120   5.855 -0.0951  0.1986 -0.3194
 4599SOL     OW18167   4.461   4.395   6.394 -0.3499  0.0266 -0.2940
 4599SOL    HW218168   4.527   4.328   6.377 -1.4408 -0.9337 -0.8581
 4599SOL    HW318169   4.469   4.456   6.320  1.3333  1.1212  0.7412
 4599SOL    MW418170   4.471   4.394   6.382 -0.2718  0.0443 -0.2319
 4600SOL     OW18171   3.627   1.457   4.957 -0.1285  0.6362 -0.5636
 4600SOL    HW218172   3.694   1.514   4.919 -0.6191  1.8193  0.2755
 4600SOL    HW318173   3.565   1.443   4.886  0.7494 -0.1055 -1.2157
 4600SOL    MW418174   3.628   1.463   4.942 -0.0774  0.6945 -0.5389
 4601SOL     OW18175   3.586   1.950   3.188 -0.0061  1.2175 -0.0271
 4601SOL    HW218176   3.602   1.938   3.282 -0.5134 -0.4335 -0.1080
 4601SOL    HW318177   3.534   2.030   3.182 -0.6743  0.9023  1.1886
 4601SOL    MW418178   3.581   1.959   3.200 -0.1611  0.9581  0.1226
 4602SOL     OW18179   4.103   0.398   6.280  0.0821 -0.5111  0.8499
 4602SOL    HW218180   4.085   0.385   6.373 -0.7275 -1.0393  0.6280
 4602SOL    HW318181   4.164   0.328   6.258 -2.5693 -2.8026  0.1686
 4602SOL    MW418182   4.108   0.387   6.289 -0.3746 -0.8831  0.7308
 4603SOL     OW18183   5.576   1.570   3.310  0.3043 -0.3292  0.0435
 4603SOL    HW218184   5.496   1.532   3.345 -0.9839  1.5665 -0.6834
 4603SOL    HW318185   5.617   1.614   3.385  0.4624 -0.9558  0.3285
 4603SOL    MW418186   5.571   1.571   3.324  0.1552 -0.1617 -0.0148
 4604SOL     OW18187   4.948   3.815   5.862 -0.8254  0.0046 -0.6442
 4604SOL    HW218188   5.036   3.780   5.870 -0.5970  0.9145  1.2447
 4604SOL    HW318189   4.960   3.901   5.821 -0.9458 -0.2471 -1.2223
 4604SOL    MW418190   4.961   3.822   5.858 -0.8112  0.0915 -0.4712
 4605SOL     OW18191   2.222   1.966   2.738 -0.0122 -0.0782 -0.4080
 4605SOL    HW218192   2.135   2.005   2.724 -0.5597 -0.9761  0.3594
 4605SOL    HW318193   2.231   1.904   2.666  0.3164  0.5283 -0.9018
 4605SOL    MW418194   2.212   1.963   2.726 -0.0411 -0.1167 -0.3719
 4606SOL     OW18195   0.662   1.939   5.057  0.0516  0.4740  0.0674
 4606SOL    HW218196   0.599   1.886   5.008 -1.9579  0.4991  2.4436
 4606SOL    HW318197   0.725   1.967   4.991 -2.3915  0.4233 -2.4878
 4606SOL    MW418198   0.662   1.936   5.042 -0.5358  0.4706  0.0438
 4607SOL     OW18199   2.982   2.936   3.374  0.3590 -0.4624 -0.2618
 4607SOL    HW218200   2.931   3.006   3.333  0.0736 -0.7315 -0.3754
 4607SOL    HW318201   2.919   2.888   3.428  0.9869  0.6646  1.5607
 4607SOL    MW418202   2.967   2.939   3.375  0.4042 -0.3492 -0.0363
 4608SOL     OW18203   2.878   3.022   5.416 -0.1159 -0.0178 -0.2142
 4608SOL    HW218204   2.889   2.947   5.473  0.1140  0.7049  0.7213
 4608SOL    HW318205   2.783   3.029   5.404 -0.2248  0.2681  0.7172
 4608SOL    MW418206   2.867   3.013   5.422 -0.0999  0.1152  0.0321
 4609SOL     OW18207   1.391   1.614   2.408 -0.5395 -0.6945 -0.0166
 4609SOL    HW218208   1.481   1.583   2.396 -0.2879  0.5106 -1.5785
 4609SOL    HW318209   1.337   1.538   2.387  0.0774 -1.5172  1.2054
 4609SOL    MW418210   1.396   1.600   2.403 -0.4249 -0.6440 -0.0614
 4610SOL     OW18211   0.377   2.124   4.894  0.2363 -0.1674 -0.2434
 4610SOL    HW218212   0.464   2.097   4.866  0.3799 -0.5523  0.5421
 4610SOL    HW318213   0.317   2.075   4.837  0.5278  0.3337 -0.9893
 4610SOL    MW418214   0.380   2.114   4.883  0.2937 -0.1520 -0.2381
 4611SOL     OW18215   2.029   1.301   1.523 -0.3338  0.1326 -0.0454
 4611SOL    HW218216   2.008   1.363   1.592  4.8593  1.7286  0.5449
 4611SOL    HW318217   2.075   1.229   1.568  0.1412 -0.4977 -1.4675
 4611SOL    MW418218   2.032   1.300   1.538  0.4140  0.2600 -0.1551
 4612SOL     OW18219   2.991   2.383   6.008  0.2244  0.1168  0.0614
 4612SOL    HW218220   2.996   2.478   6.012 -0.9891  0.2068 -0.0068
 4612SOL    HW318221   3.001   2.362   5.916  1.4251  0.0913  0.1812
 4612SOL    MW418222   2.993   2.393   5.997  0.2227  0.1253  0.0682
 4613SOL     OW18223   4.827   1.714   4.282 -0.5618 -0.0909  0.3459
 4613SOL    HW218224   4.763   1.776   4.246  2.6776  3.1572 -0.4590
 4613SOL    HW318225   4.861   1.669   4.205 -0.4943 -0.4105  0.5600
 4613SOL    MW418226   4.823   1.716   4.267 -0.1255  0.2955  0.2680
 4614SOL     OW18227   3.686   1.803   2.554 -0.3664  0.9438 -0.1079
 4614SOL    HW218228   3.660   1.858   2.627  0.0890  0.7177  0.2337
 4614SOL    HW318229   3.655   1.715   2.577 -0.5317  0.9364 -0.3516
 4614SOL    MW418230   3.679   1.798   2.566 -0.3281  0.9130 -0.0950
 4615SOL     OW18231   5.951   0.446   4.496 -0.1061 -0.0232 -0.2574
 4615SOL    HW218232   6.006   0.524   4.503  1.3654 -0.8295 -2.2254
 4615SOL    HW318233   5.990   0.383   4.556 -0.3706  0.1990  0.1588
 4615SOL    MW418234   5.963   0.448   4.505  0.0531 -0.1003 -0.4621
 4616SOL     OW18235   1.050   3.217   5.282  0.5513  0.2130  0.2489
 4616SOL    HW218236   1.032   3.306   5.311  1.1386  0.0442  1.1895
 4616SOL    HW318237   1.114   3.227   5.212  0.7870  0.5237  0.5048
 4616SOL    MW418238   1.056   3.230   5.277  0.6599  0.2317  0.4068
 4617SOL     OW18239   6.428   3.304   0.689  0.1629 -0.1600 -0.0719
 4617SOL    HW218240   6.444   3.383   0.741 -1.0528  1.6338 -2.2890
 4617SOL    HW318241   6.340   3.275   0.715 -0.1535  0.3165 -0.6113
 4617SOL    MW418242   6.419   3.310   0.699 -0.0392  0.1395 -0.4356
 4618SOL     OW18243   0.622   3.509   4.287 -0.2142  0.0811 -0.1086
 4618SOL    HW218244   0.638   3.419   4.316  0.5970  0.4919  0.7824
 4618SOL    HW318245   0.536   3.531   4.324  0.8862  0.6668  2.3031
 4618SOL    MW418246   0.613   3.500   4.296  0.0380  0.2126  0.3271
 4619SOL     OW18247   5.296   0.030   2.206 -0.7094 -0.2471 -0.9254
 4619SOL    HW218248   5.295   0.124   2.219  1.0125 -0.1936 -0.8428
 4619SOL    HW318249   5.208   0.000   2.228 -1.0717  1.2477 -0.2849
 4619SOL    MW418250   5.284   0.038   2.211 -0.5300 -0.0428 -0.8300
 4620SOL     OW18251   0.388   6.339   0.878  0.3639 -0.1439 -0.0512
 4620SOL    HW218252   0.339   6.346   0.797 -0.0291 -0.2159  0.1797
 4620SOL    HW318253   0.380   6.247   0.904  1.0745 -0.2817 -0.2955
 4620SOL    MW418254   0.381   6.328   0.871  0.4058 -0.1716 -0.0530
 4621SOL     OW18255   1.004   1.121   0.141 -0.0765  0.0440  0.3623
 4621SOL    HW218256   0.976   1.159   0.058  1.1745  0.1766 -0.0251
 4621SOL    HW318257   1.005   1.027   0.126  1.5135  0.1276 -0.2652
 4621SOL    MW418258   1.001   1.114   0.128  0.2983  0.0725  0.2284
 4622SOL     OW18259   4.745   1.459   4.403 -0.0578 -0.0545 -0.0122
 4622SOL    HW218260   4.735   1.395   4.333 -1.4378 -1.1029  1.0896
 4622SOL    HW318261   4.744   1.544   4.358 -1.2171 -0.6852 -1.2371
 4622SOL    MW418262   4.744   1.462   4.388 -0.3929 -0.2760 -0.0285
 4623SOL     OW18263   2.650   0.462   5.258  0.1821 -0.3652  0.1820
 4623SOL    HW218264   2.643   0.456   5.163 -2.8041  0.0602  0.2882
 4623SOL    HW318265   2.695   0.382   5.284  1.0454 -0.4972 -1.5639
 4623SOL    MW418266   2.655   0.451   5.249 -0.0980 -0.3265 -0.0343
 4624SOL     OW18267   4.009   3.426   2.259  0.1247 -0.2584  0.2911
 4624SOL    HW218268   3.990   3.428   2.165 -1.3692 -2.5476  0.4669
 4624SOL    HW318269   4.091   3.378   2.266  0.5467  0.4170  0.1664
 4624SOL    MW418270   4.017   3.420   2.247 -0.0168 -0.4713  0.2979
 4625SOL     OW18271   2.642   2.680   0.737 -0.2953 -0.2546  0.0399
 4625SOL    HW218272   2.631   2.615   0.806  2.6629 -0.4072  0.4970
 4625SOL    HW318273   2.648   2.764   0.783  0.8697 -0.2637 -0.0647
 4625SOL    MW418274   2.641   2.683   0.752  0.2487 -0.2760  0.0864
 4626SOL     OW18275   4.084   5.380   4.903  0.1920 -0.4626 -0.2108
 4626SOL    HW218276   4.077   5.475   4.916  4.4697  0.1754 -1.0100
 4626SOL    HW318277   4.108   5.370   4.811  2.2682 -2.0508  0.4333
 4626SOL    MW418278   4.086   5.391   4.892  1.0303 -0.5879 -0.2312
 4627SOL     OW18279   5.694   2.656   1.007  0.0640  0.2078  0.2794
 4627SOL    HW218280   5.699   2.613   1.092  1.0955 -0.3296 -0.0323
 4627SOL    HW318281   5.786   2.669   0.981 -0.1791  2.6813  0.3942
 4627SOL    MW418282   5.707   2.652   1.015  0.1680  0.4633  0.2534
 4628SOL     OW18283   3.319   6.315   3.906  0.7826  0.0787 -0.0067
 4628SOL    HW218284   3.280   6.239   3.948 -1.4350  0.4409 -1.2634
 4628SOL    HW318285   3.343   6.285   3.818 -0.3978  0.8565 -0.6256
 4628SOL    MW418286   3.317   6.301   3.900  0.3343  0.2291 -0.2542
 4629SOL     OW18287   4.326   0.302   1.861  0.1868 -0.3948 -0.2086
 4629SOL    HW218288   4.384   0.281   1.934  1.0616 -1.6106 -1.2096
 4629SOL    HW318289   4.317   0.397   1.864  4.5014  0.2621 -1.5772
 4629SOL    MW418290   4.332   0.312   1.871  0.8715 -0.4685 -0.5212
 4630SOL     OW18291   3.373   3.407   1.578 -0.2610  0.2671  0.0326
 4630SOL    HW218292   3.389   3.497   1.550  1.9437 -0.1205 -0.1147
 4630SOL    HW318293   3.414   3.354   1.509 -0.7064 -0.8272  0.5959
 4630SOL    MW418294   3.381   3.412   1.565 -0.0289  0.0716  0.0875
 4631SOL     OW18295   4.083   1.288   2.351 -0.1164 -0.1902 -0.2630
 4631SOL    HW218296   4.083   1.357   2.284 -0.2549 -0.2327 -0.3067
 4631SOL    HW318297   4.032   1.325   2.423  0.1838 -0.0752 -0.1089
 4631SOL    MW418298   4.076   1.302   2.352 -0.0950 -0.1806 -0.2485
 4632SOL     OW18299   3.412   3.299   2.749 -0.1462 -0.5638 -0.4074
 4632SOL    HW218300   3.371   3.216   2.725  1.9637 -2.0611  0.8024
 4632SOL    HW318301   3.504   3.288   2.726  0.4948  0.8039  1.2364
 4632SOL    MW418302   3.419   3.287   2.743  0.2167 -0.5809 -0.0309
 4633SOL     OW18303   0.335   4.721   3.237  0.2446  0.0116 -0.1348
 4633SOL    HW218304   0.318   4.628   3.251 -1.0136 -0.0579 -1.8475
 4633SOL    HW318305   0.430   4.730   3.249  0.3246 -1.3970  0.4732
 4633SOL    MW418306   0.346   4.710   3.240  0.0891 -0.1834 -0.2805
 4634SOL     OW18307   0.686   1.168   1.398  0.3818 -0.2408 -0.3971
 4634SOL    HW218308   0.623   1.208   1.337  0.8909  0.7241 -0.3237
 4634SOL    HW318309   0.732   1.102   1.345  0.5890  0.3567 -0.9877
 4634SOL    MW418310   0.684   1.165   1.383  0.4763 -0.0347 -0.4654
 4635SOL     OW18311   5.076   2.227   1.492 -0.3574 -0.2249 -0.5382
 4635SOL    HW218312   5.148   2.179   1.451 -0.3141  0.3621 -1.1779
 4635SOL    HW318313   5.091   2.218   1.586  2.3512  2.3553 -0.5558
 4635SOL    MW418314   5.088   2.220   1.499  0.0057  0.1930 -0.6249
 4636SOL     OW18315   0.862   5.268   4.333 -0.1470 -0.2578 -0.0930
 4636SOL    HW218316   0.905   5.274   4.248 -0.3513  0.7533 -0.1369
 4636SOL    HW318317   0.896   5.187   4.371 -0.5748 -1.1102 -1.4157
 4636SOL    MW418318   0.872   5.258   4.327 -0.2304 -0.2369 -0.2733
 4637SOL     OW18319   6.078   6.139   1.633 -0.3010 -0.0205 -0.3316
 4637SOL    HW218320   6.132   6.146   1.712  1.5936 -0.2736 -1.5565
 4637SOL    HW318321   6.026   6.220   1.632  1.4000  1.1165 -0.0556
 4637SOL    MW418322   6.078   6.151   1.644  0.1734  0.0961 -0.4568
 4638SOL     OW18323   6.330   1.311   1.844  0.1177  0.0802 -0.1524
 4638SOL    HW218324   6.250   1.296   1.894 -0.4936 -0.7315 -1.3295
 4638SOL    HW318325   6.350   1.226   1.806  0.9039  0.5435 -0.7886
 4638SOL    MW418326   6.322   1.298   1.846  0.1408  0.0342 -0.3916
 4639SOL     OW18327   0.042   1.219   6.017  0.2479 -0.1665 -0.3488
 4639SOL    HW218328   0.099   1.143   6.013  1.3818  0.6826 -0.6549
 4639SOL    HW318329   0.023   1.229   6.110 -0.1833 -1.0035 -0.3334
 4639SOL    MW418330   0.047   1.210   6.029  0.3406 -0.1649 -0.3872
 4640SOL     OW18331   5.929   4.865   1.092 -0.5477 -0.2761 -0.0254
 4640SOL    HW218332   5.910   4.941   1.146  1.3436  0.9903 -1.0449
 4640SOL    HW318333   6.010   4.887   1.046 -0.3858 -2.5709 -0.9953
 4640SOL    MW418334   5.937   4.878   1.093 -0.2768 -0.4117 -0.2879
 4641SOL     OW18335   1.383   0.872   1.045  0.4788 -0.3902 -0.0748
 4641SOL    HW218336   1.445   0.820   0.995  2.1347  1.2487  0.1595
 4641SOL    HW318337   1.398   0.846   1.136 -1.8714 -2.6762 -0.2002
 4641SOL    MW418338   1.393   0.862   1.051  0.3872 -0.4755 -0.0605
 4642SOL     OW18339   0.849   6.078   0.117 -0.3848  0.0910  0.0796
 4642SOL    HW218340   0.783   6.044   0.057 -3.4083  0.4763  2.8777
 4642SOL    HW318341   0.810   6.157   0.154  2.6867  1.6808  0.2798
 4642SOL    MW418342   0.835   6.084   0.114 -0.3785  0.3516  0.4752
 4643SOL     OW18343   6.253   1.356   1.130  0.0104  0.0575  0.5296
 4643SOL    HW218344   6.314   1.429   1.140  0.1107  0.0680 -0.1362
 4643SOL    HW318345   6.272   1.299   1.205  3.2125 -1.6542 -1.3158
 4643SOL    MW418346   6.264   1.358   1.141  0.4461 -0.1670  0.1983
 4644SOL     OW18347   1.625   3.899   4.764 -0.1744  0.8564  0.3170
 4644SOL    HW218348   1.569   3.864   4.833  0.9055  0.4302  1.0070
 4644SOL    HW318349   1.674   3.969   4.806  3.2434 -1.7795  1.1729
 4644SOL    MW418350   1.624   3.904   4.779  0.4190  0.4524  0.5209
 4645SOL     OW18351   2.136   0.901   2.887 -0.0330 -0.5099  0.6854
 4645SOL    HW218352   2.100   0.985   2.858  1.8712  0.1759  0.1546
 4645SOL    HW318353   2.147   0.911   2.982 -0.6362 -0.5204  0.7649
 4645SOL    MW418354   2.132   0.913   2.896  0.1386 -0.4208  0.6258
 4646SOL     OW18355   4.575   3.301   1.124  0.1511 -0.1558  0.5085
 4646SOL    HW218356   4.551   3.208   1.130  3.2217 -1.2021 -1.1686
 4646SOL    HW318357   4.608   3.323   1.212 -0.9825 -0.4982  1.0370
 4646SOL    MW418358   4.576   3.291   1.137  0.4066 -0.3390  0.3569
 4647SOL     OW18359   1.241   0.671   4.720 -0.2045 -0.5294  0.1528
 4647SOL    HW218360   1.316   0.705   4.671 -1.5799 -0.8955 -2.3144
 4647SOL    HW318361   1.211   0.745   4.772  0.5744  0.2223 -0.4346
 4647SOL    MW418362   1.247   0.685   4.721 -0.2832 -0.4786 -0.2502
 4648SOL     OW18363   1.676   3.891   4.504  0.1883 -0.1385 -0.0840
 4648SOL    HW218364   1.756   3.840   4.496 -0.3809 -1.1660  0.5764
 4648SOL    HW318365   1.667   3.907   4.598  0.2868  1.0888 -0.2674
 4648SOL    MW418366   1.685   3.887   4.515  0.1262 -0.1121 -0.0211
 4649SOL     OW18367   1.389   4.862   1.902  0.3348  0.0125 -0.5738
 4649SOL    HW218368   1.453   4.792   1.890  0.9534  0.5680 -0.5840
 4649SOL    HW318369   1.442   4.941   1.916 -0.3031  0.9102 -2.8297
 4649SOL    MW418370   1.405   4.863   1.903  0.3323  0.2042 -0.8728
 4650SOL     OW18371   0.801   5.302   2.348 -0.4186 -0.1575 -0.3745
 4650SOL    HW218372   0.789   5.298   2.443 -0.7075  0.3885 -0.3854
 4650SOL    HW318373   0.895   5.293   2.336 -0.0968  2.0842  0.1166
 4650SOL    MW418374   0.812   5.300   2.359 -0.4143  0.2103 -0.3111
 4651SOL     OW18375   4.696   0.668   0.893  0.3520  0.2489 -0.8617
 4651SOL    HW218376   4.628   0.627   0.945  1.1017  1.3699  1.1149
 4651SOL    HW318377   4.709   0.609   0.818  0.1180 -2.1105  0.8566
 4651SOL    MW418378   4.689   0.655   0.890  0.4200  0.0855 -0.3742
 4652SOL     OW18379   1.835   0.542   5.559 -0.4723  0.5036 -0.3133
 4652SOL    HW218380   1.838   0.568   5.651 -1.3869  0.0477 -0.1365
 4652SOL    HW318381   1.915   0.491   5.546  0.1396  1.3677 -0.0384
 4652SOL    MW418382   1.846   0.538   5.570 -0.5122  0.5575 -0.2537
 4653SOL     OW18383   1.355   6.227   0.126  0.4298  0.2202 -0.5835
 4653SOL    HW218384   1.408   6.217   0.205  0.3814 -0.9214 -0.6792
 4653SOL    HW318385   1.414   6.267   0.063  1.6514 -2.2128 -1.0987
 4653SOL    MW418386   1.370   6.231   0.128  0.5846 -0.2514 -0.6641
 4654SOL     OW18387   3.874   4.956   0.970  0.1081  0.1987  0.3908
 4654SOL    HW218388   3.890   4.957   0.875 -3.1719 -1.5091 -0.3247
 4654SOL    HW318389   3.833   5.041   0.988  1.2477  0.7567  0.4292
 4654SOL    MW418390   3.870   4.968   0.960 -0.1743  0.0470  0.3015
 4655SOL     OW18391   5.081   0.141   5.696 -0.8663 -0.3558 -0.0835
 4655SOL    HW218392   5.167   0.179   5.678 -1.2153  0.1833 -0.6410
 4655SOL    HW318393   5.100   0.057   5.737 -0.0734  0.5944  1.5787
 4655SOL    MW418394   5.095   0.135   5.699 -0.8078 -0.1593  0.0623
 4656SOL     OW18395   4.596   0.344   0.515 -0.4090 -0.0420  0.5393
 4656SOL    HW218396   4.501   0.352   0.521 -0.5378 -0.5718 -0.4541
 4656SOL    HW318397   4.615   0.361   0.423  0.0765 -3.0020 -0.0144
 4656SOL    MW418398   4.586   0.347   0.503 -0.3620 -0.5024  0.3352
 4657SOL     OW18399   4.890   0.363   5.115 -0.3816 -0.4702  0.5286
 4657SOL    HW218400   4.947   0.291   5.142 -0.8808 -1.0509  0.0812
 4657SOL    HW318401   4.836   0.380   5.192  0.1320 -0.1717  0.8281
 4657SOL    MW418402   4.890   0.355   5.129 -0.3797 -0.5074  0.5091
 4658SOL     OW18403   5.009   2.564   3.677 -0.1785  0.0611 -0.3110
 4658SOL    HW218404   5.044   2.569   3.766  0.1325  0.4142 -0.4482
 4658SOL    HW318405   5.072   2.613   3.624 -1.5104  1.8657 -0.3561
 4658SOL    MW418406   5.022   2.571   3.682 -0.3132  0.3458 -0.3350
 4659SOL     OW18407   2.378   3.143   2.731 -0.5887  0.2886 -0.2342
 4659SOL    HW218408   2.395   3.057   2.692 -1.9460  0.2645 -0.8266
 4659SOL    HW318409   2.465   3.183   2.740 -0.1042 -0.3097 -1.8969
 4659SOL    MW418410   2.392   3.137   2.727 -0.7038  0.2065 -0.5317
 4660SOL     OW18411   4.152   0.495   0.952 -0.2914  0.3288  0.5879
 4660SOL    HW218412   4.108   0.549   1.018 -3.1454 -1.3980  0.2647
 4660SOL    HW318413   4.110   0.519   0.870  0.9518  0.1442 -0.1151
 4660SOL    MW418414   4.141   0.505   0.950 -0.5039  0.0766  0.4525
 4661SOL     OW18415   3.008   5.359   2.849  0.1579  0.0442  0.0536
 4661SOL    HW218416   3.100   5.341   2.830  0.6198 -2.2020  3.6445
 4661SOL    HW318417   3.009   5.443   2.895  1.0158 -1.4485  3.0184
 4661SOL    MW418418   3.020   5.368   2.853  0.3320 -0.4491  0.9185
 4662SOL     OW18419   4.203   0.730   3.219 -0.1635  0.2820  0.4268
 4662SOL    HW218420   4.125   0.677   3.237  0.1633  0.4461  2.5725
 4662SOL    HW318421   4.170   0.819   3.214 -0.4993  0.0877 -1.7110
 4662SOL    MW418422   4.188   0.735   3.221 -0.1647  0.2780  0.4278
 4663SOL     OW18423   0.669   2.101   1.252  0.2411 -0.0239 -0.5337
 4663SOL    HW218424   0.578   2.075   1.237  0.1269  0.0285  0.0564
 4663SOL    HW318425   0.671   2.195   1.235  0.6797 -0.3780 -2.7949
 4663SOL    MW418426   0.657   2.110   1.248  0.2839 -0.0637 -0.7542
 4664SOL     OW18427   3.919   3.591   3.969 -0.1761  0.2941  0.1123
 4664SOL    HW218428   4.007   3.621   3.992  0.5803 -2.0718  0.5305
 4664SOL    HW318429   3.930   3.548   3.884 -0.9584  0.1245  0.0924
 4664SOL    MW418430   3.932   3.590   3.961 -0.1795 -0.0404  0.1649
 4665SOL     OW18431   2.417   0.890   2.403 -0.1223  0.8209  0.4060
 4665SOL    HW218432   2.510   0.892   2.377 -0.1505 -0.6598  0.0970
 4665SOL    HW318433   2.392   0.798   2.394 -1.7105  1.2489  0.2083
 4665SOL    MW418434   2.426   0.878   2.398 -0.3355  0.6820  0.3391
 4666SOL     OW18435   5.175   0.811   4.094  0.1886  0.7020  0.5301
 4666SOL    HW218436   5.135   0.852   4.018 -0.7410 -0.5136  0.3286
 4666SOL    HW318437   5.104   0.804   4.158 -0.0528 -1.6936  0.0885
 4666SOL    MW418438   5.160   0.815   4.092  0.0341  0.2255  0.4452
 4667SOL     OW18439   5.925   4.921   6.009  0.4142  0.4822 -0.3333
 4667SOL    HW218440   5.990   4.883   5.950  0.5773 -0.2003  0.2752
 4667SOL    HW318441   5.972   4.937   6.090  0.4511  2.4201 -0.7018
 4667SOL    MW418442   5.939   4.918   6.012  0.4406  0.6478 -0.3016
 4668SOL     OW18443   2.054   0.546   1.377 -0.8757 -0.0942 -0.2197
 4668SOL    HW218444   1.988   0.495   1.424  0.1016 -0.6681  0.5596
 4668SOL    HW318445   2.003   0.598   1.314 -2.1374 -0.0161  0.8126
 4668SOL    MW418446   2.038   0.546   1.375 -0.9133 -0.1596  0.0193
 4669SOL     OW18447   5.996   1.493   3.484 -0.0223 -0.0981  0.4467
 4669SOL    HW218448   5.903   1.472   3.491 -0.1008  0.1363  0.1557
 4669SOL    HW318449   6.027   1.495   3.574 -0.6738  1.4390  0.6701
 4669SOL    MW418450   5.988   1.490   3.497 -0.1186  0.1357  0.4378
 4670SOL     OW18451   0.533   4.846   4.995 -0.0727 -0.7137 -0.0645
 4670SOL    HW218452   0.608   4.905   4.983 -0.0988 -0.6922 -0.1214
 4670SOL    HW318453   0.488   4.880   5.073 -0.4901 -0.2325 -0.5091
 4670SOL    MW418454   0.537   4.858   5.004 -0.1312 -0.6474 -0.1306
 4671SOL     OW18455   1.386   3.759   0.333  0.0932  0.3219  0.1760
 4671SOL    HW218456   1.316   3.701   0.303 -0.6178  0.2901  1.7683
 4671SOL    HW318457   1.370   3.842   0.288  0.8051 -0.5050 -1.7105
 4671SOL    MW418458   1.375   3.762   0.323  0.0933  0.2086  0.1372
 4672SOL     OW18459   0.333   5.631   3.656 -0.3481  0.0141  0.1370
 4672SOL    HW218460   0.366   5.664   3.573  1.3400 -1.8575 -0.0063
 4672SOL    HW318461   0.239   5.649   3.654 -0.1519  0.9833 -1.6830
 4672SOL    MW418462   0.325   5.638   3.645 -0.0995 -0.1050 -0.1221
 4673SOL     OW18463   3.638   3.688   5.395  0.2964 -0.3571 -0.1174
 4673SOL    HW218464   3.624   3.679   5.301  2.9769  0.3898 -0.6788
 4673SOL    HW318465   3.659   3.780   5.407 -4.3631  0.6860  2.0014
 4673SOL    MW418466   3.639   3.699   5.384  0.0353 -0.1209  0.0881
 4674SOL     OW18467   4.009   3.123   4.777  0.0507 -0.1583  0.8212
 4674SOL    HW218468   4.073   3.188   4.807 -1.1379  1.1028  0.6793
 4674SOL    HW318469   4.014   3.127   4.681 -0.7040  0.4328  0.7992
 4674SOL    MW418470   4.018   3.132   4.768 -0.2057  0.0860  0.7996
 4675SOL     OW18471   4.412   6.118   3.468  0.3132 -0.3476  0.0126
 4675SOL    HW218472   4.349   6.047   3.476  3.6809 -3.6786 -0.3545
 4675SOL    HW318473   4.458   6.119   3.551 -0.1900  2.1640  0.3592
 4675SOL    MW418474   4.410   6.109   3.480  0.6911 -0.4557  0.0099
 4676SOL     OW18475   6.418   2.476   3.002  0.2824  0.3638  0.1729
 4676SOL    HW218476   6.374   2.391   2.996  1.0556 -0.0505  0.3397
 4676SOL    HW318477   6.383   2.514   3.083 -0.3469  0.3740 -0.0969
 4676SOL    MW418478   6.407   2.470   3.012  0.3014  0.3105  0.1593
 4677SOL     OW18479   5.059   1.340   3.717  0.3407 -0.0360  0.2245
 4677SOL    HW218480   5.000   1.337   3.792  0.1368  0.7129  0.1015
 4677SOL    HW318481   5.095   1.429   3.718  0.7348 -0.1857 -0.2552
 4677SOL    MW418482   5.056   1.351   3.727  0.3658  0.0430  0.1450
 4678SOL     OW18483   3.657   5.452   0.421 -0.0790  0.5669 -0.1209
 4678SOL    HW218484   3.565   5.468   0.440 -1.4799 -1.7560 -3.9200
 4678SOL    HW318485   3.673   5.496   0.338  1.6548 -0.7406 -0.5350
 4678SOL    MW418486   3.647   5.460   0.413 -0.0351  0.0879 -0.6768
 4679SOL     OW18487   3.684   1.104   3.557 -0.0446  0.5137 -0.1038
 4679SOL    HW218488   3.697   1.011   3.542 -1.6426  0.3360 -0.5463
 4679SOL    HW318489   3.653   1.110   3.647  1.1371  0.7511  0.3082
 4679SOL    MW418490   3.682   1.093   3.567 -0.0995  0.5216 -0.1078
 4680SOL     OW18491   3.312   4.406   0.381  0.1993 -0.1495 -0.1418
 4680SOL    HW218492   3.397   4.443   0.356  0.2375  0.0681  0.3043
 4680SOL    HW318493   3.316   4.398   0.476 -0.5438  0.5247 -0.0449
 4680SOL    MW418494   3.324   4.410   0.390  0.1063 -0.0318 -0.0702
 4681SOL     OW18495   6.374   2.312   2.199 -0.1790  0.2626 -0.6012
 4681SOL    HW218496   6.386   2.339   2.109 -0.4892 -1.0029 -1.0517
 4681SOL    HW318497   6.453   2.264   2.221  0.9560  2.5519  0.6255
 4681SOL    MW418498   6.386   2.309   2.190 -0.0702  0.3977 -0.4988
 4682SOL     OW18499   0.357   0.875   1.360 -0.4134 -0.0334 -0.3112
 4682SOL    HW218500   0.288   0.823   1.320 -1.3013 -0.2253  1.3594
 4682SOL    HW318501   0.381   0.827   1.439  0.2255  1.0384  0.1797
 4682SOL    MW418502   0.351   0.862   1.365 -0.4462  0.0827 -0.0260
 4683SOL     OW18503   0.965   1.094   5.177  0.4718  0.0276  0.0726
 4683SOL    HW218504   0.955   1.033   5.104  2.1311  0.2690 -0.3906
 4683SOL    HW318505   0.974   1.180   5.135  2.1833  0.0810  0.4741
 4683SOL    MW418506   0.965   1.097   5.162  0.9165  0.0665  0.0645
 4684SOL     OW18507   0.521   2.492   0.957 -0.1434  0.0529  0.1777
 4684SOL    HW218508   0.504   2.535   0.874 -2.7278 -1.0621  0.0302
 4684SOL    HW318509   0.546   2.403   0.934 -0.7629 -0.2302  0.5720
 4684SOL    MW418510   0.522   2.486   0.943 -0.5661 -0.1315  0.2103
 4685SOL     OW18511   2.377   3.380   3.544 -0.0472 -0.4570 -0.3194
 4685SOL    HW218512   2.396   3.419   3.630 -0.7214  0.0114 -0.3727
 4685SOL    HW318513   2.448   3.317   3.530 -0.1863 -0.9068  0.8125
 4685SOL    MW418514   2.389   3.377   3.554 -0.1545 -0.4545 -0.1771
 4686SOL     OW18515   5.674   3.306   3.109 -0.1032  0.2829 -0.2938
 4686SOL    HW218516   5.717   3.249   3.174  2.3901  2.3906  0.0942
 4686SOL    HW318517   5.717   3.284   3.026  0.3658  1.0563 -0.2673
 4686SOL    MW418518   5.686   3.295   3.107  0.2876  0.6630 -0.2391
 4687SOL     OW18519   4.828   0.728   0.195  0.0380 -0.1624  0.7963
 4687SOL    HW218520   4.748   0.780   0.190 -0.1260 -0.3873  1.0525
 4687SOL    HW318521   4.895   0.782   0.153 -0.5403 -0.5627 -0.6812
 4687SOL    MW418522   4.827   0.742   0.189 -0.0599 -0.2449  0.6351
 4688SOL     OW18523   0.067   1.020   5.430 -0.2135 -0.0407 -0.4348
 4688SOL    HW218524   0.017   1.101   5.431  0.6192  0.4915  0.9564
 4688SOL    HW318525   0.074   0.997   5.337 -0.8650  1.2175 -0.8136
 4688SOL    MW418526   0.061   1.028   5.418 -0.1896  0.1955 -0.3012
 4689SOL     OW18527   2.647   1.619   3.492 -0.1021 -0.3815 -0.2584
 4689SOL    HW218528   2.663   1.581   3.406 -2.2478  0.9570 -1.3521
 4689SOL    HW318529   2.700   1.698   3.494  0.9204 -1.0574  0.2032
 4689SOL    MW418530   2.656   1.624   3.481 -0.2503 -0.2941 -0.3418
 4690SOL     OW18531   5.305   5.635   4.371  0.2874  0.1077 -0.0434
 4690SOL    HW218532   5.226   5.595   4.408  0.8522  0.9250  2.2399
 4690SOL    HW318533   5.376   5.574   4.394  0.7620  1.0235  1.0108
 4690SOL    MW418534   5.304   5.621   4.379  0.4245  0.3364  0.3969
 4691SOL     OW18535   0.001   4.445   4.205 -0.1233 -0.2338  0.3898
 4691SOL    HW218536  -0.022   4.525   4.251 -0.6730  0.8396 -1.6237
 4691SOL    HW318537   0.087   4.462   4.168 -0.9743  0.1767 -1.5224
 4691SOL    MW418538   0.009   4.458   4.206 -0.3081 -0.0380 -0.1282
 4692SOL     OW18539   2.159   3.590   5.629 -0.1902  0.3431  0.0615
 4692SOL    HW218540   2.186   3.618   5.716 -0.4219 -0.5463  0.4326
 4692SOL    HW318541   2.126   3.670   5.587  0.1348  0.8223  0.7008
 4692SOL    MW418542   2.158   3.604   5.635 -0.1779  0.2890  0.1948
 4693SOL     OW18543   3.344   4.744   2.620 -0.7170 -0.0759  0.1602
 4693SOL    HW218544   3.421   4.692   2.642 -1.3312 -0.3170  1.9020
 4693SOL    HW318545   3.287   4.684   2.572 -1.2816 -0.9790  1.8744
 4693SOL    MW418546   3.347   4.729   2.616 -0.8725 -0.2269  0.6162
 4694SOL     OW18547   0.951   4.677   3.534  0.8029 -0.5800 -0.5861
 4694SOL    HW218548   1.030   4.688   3.587  2.1712 -0.7425 -2.5055
 4694SOL    HW318549   0.919   4.765   3.519  0.5234 -0.5192  0.2927
 4694SOL    MW418550   0.957   4.690   3.539  0.9465 -0.5934 -0.7234
 4695SOL     OW18551   1.274   4.480   1.477 -0.0698 -0.1107  0.5612
 4695SOL    HW218552   1.315   4.557   1.436 -1.5062  0.2124 -0.3219
 4695SOL    HW318553   1.207   4.453   1.416 -1.3630 -0.4685  2.0787
 4695SOL    MW418554   1.271   4.487   1.464 -0.4300 -0.1153  0.6449
 4696SOL     OW18555   3.476   0.914   1.848  0.0442 -0.1653 -0.4181
 4696SOL    HW218556   3.383   0.939   1.848 -0.5785 -2.1267  1.5167
 4696SOL    HW318557   3.523   0.997   1.849 -1.7627  0.9218  1.3799
 4696SOL    MW418558   3.470   0.928   1.848 -0.2763 -0.2806  0.0744
 4697SOL     OW18559   3.020   4.687   5.900 -0.2214  0.4746 -0.5117
 4697SOL    HW218560   3.092   4.625   5.907  0.0923  0.9533  0.7811
 4697SOL    HW318561   2.942   4.633   5.889  0.2564 -0.0618 -1.3392
 4697SOL    MW418562   3.019   4.672   5.899 -0.1170  0.4670 -0.4503
 4698SOL     OW18563   3.162   0.147   0.392  0.1837 -0.0116 -0.5631
 4698SOL    HW218564   3.142   0.180   0.305  1.4488 -0.6100 -1.1063
 4698SOL    HW318565   3.255   0.125   0.389 -0.3736 -2.9188 -0.0438
 4698SOL    MW418566   3.171   0.148   0.380  0.2771 -0.4742 -0.5663
 4699SOL     OW18567   3.364   1.169   3.473 -0.0241  0.3056 -0.1992
 4699SOL    HW218568   3.278   1.162   3.431  0.3616  1.0371 -1.1565
 4699SOL    HW318569   3.385   1.262   3.468  0.5402  0.2316  0.6321
 4699SOL    MW418570   3.355   1.180   3.467  0.1013  0.3923 -0.2158
 4700SOL     OW18571   0.403   5.225   0.010 -0.3830  0.1162 -0.0128
 4700SOL    HW218572   0.409   5.304   0.064 -1.2584  0.3192 -0.1975
 4700SOL    HW318573   0.403   5.258  -0.080 -1.7588 -0.0117 -0.0707
 4700SOL    MW418574   0.404   5.240   0.005 -0.6800  0.1261 -0.0448
 4701SOL     OW18575   2.646   5.453   2.618 -0.4479  0.2375 -0.3777
 4701SOL    HW218576   2.722   5.396   2.611 -0.2693  0.5089 -0.6821
 4701SOL    HW318577   2.601   5.442   2.534 -0.7615  0.0556 -0.1891
 4701SOL    MW418578   2.650   5.444   2.606 -0.4657  0.2493 -0.3930
 4702SOL     OW18579   1.686   4.350   4.354 -0.1812 -0.2235  0.2559
 4702SOL    HW218580   1.594   4.321   4.351  0.0029 -0.7485 -0.3291
 4702SOL    HW318581   1.718   4.315   4.437 -0.6114  0.2776  0.6422
 4702SOL    MW418582   1.678   4.341   4.365 -0.2137 -0.2267  0.2297
 4703SOL     OW18583   3.264   0.686   1.348  0.0790 -0.3691 -0.3342
 4703SOL    HW218584   3.328   0.747   1.312  0.6013 -1.5445 -1.4764
 4703SOL    HW318585   3.253   0.619   1.280 -0.7863 -1.3299  0.6987
 4703SOL    MW418586   3.271   0.685   1.334  0.0337 -0.6509 -0.3486
 4704SOL     OW18587   4.512   1.716   3.514 -0.3430 -0.7110  0.0344
 4704SOL    HW218588   4.561   1.777   3.569 -2.3971  2.1291 -1.0907
 4704SOL    HW318589   4.424   1.714   3.553 -0.9617 -1.0671 -1.3389
 4704SOL    MW418590   4.507   1.724   3.526 -0.6957 -0.3833 -0.2953
 4705SOL     OW18591   2.307   0.455   5.891 -0.4514 -0.2112  0.0650
 4705SOL    HW218592   2.368   0.528   5.902 -1.1775  0.3423  0.4781
 4705SOL    HW318593   2.360   0.378   5.912  0.5032  0.1221 -1.0277
 4705SOL    MW418594   2.322   0.454   5.896 -0.4213 -0.0942 -0.0247
 4706SOL     OW18595   0.714   0.590   1.566 -0.8193  0.7837 -0.1111
 4706SOL    HW218596   0.675   0.590   1.478 -3.4567 -0.8602  0.9425
 4706SOL    HW318597   0.765   0.509   1.570 -1.9673  0.0652  0.3418
 4706SOL    MW418598   0.716   0.580   1.555 -1.3187  0.4720  0.0877
 4707SOL     OW18599   2.575   0.192   0.496 -0.8757 -0.2926  0.8576
 4707SOL    HW218600   2.603   0.244   0.421  0.5155 -2.7747 -0.4949
 4707SOL    HW318601   2.653   0.183   0.549 -1.9536  1.8181  2.9883
 4707SOL    MW418602   2.589   0.198   0.493 -0.8344 -0.3416  0.9603
 4708SOL     OW18603   1.752   2.392   3.769  0.0989  0.6210  0.3210
 4708SOL    HW218604   1.825   2.392   3.706  0.6010  1.2474  0.8910
 4708SOL    HW318605   1.774   2.324   3.832 -0.9265 -0.7547 -0.7405
 4708SOL    MW418606   1.764   2.383   3.769  0.0298  0.5221  0.2562
 4709SOL     OW18607   0.075   4.942   2.594  0.0974  0.8188  0.0070
 4709SOL    HW218608   0.168   4.963   2.592  0.8137 -1.9097  0.6972
 4709SOL    HW318609   0.050   4.953   2.686  0.4340 -0.8805  0.3394
 4709SOL    MW418610   0.084   4.946   2.606  0.2363  0.2346  0.1419
 4710SOL     OW18611   3.571   2.120   4.854 -0.0596 -0.5425 -1.1274
 4710SOL    HW218612   3.521   2.042   4.877  1.4444 -0.4549  3.3697
 4710SOL    HW318613   3.529   2.191   4.901  1.4513  0.4380 -1.1856
 4710SOL    MW418614   3.559   2.119   4.863  0.3382 -0.4016 -0.5417
 4711SOL     OW18615   2.916   2.886   1.776  0.5649  0.0130  0.1228
 4711SOL    HW218616   2.937   2.797   1.803  3.0570  0.1335 -1.0586
 4711SOL    HW318617   2.978   2.941   1.824 -0.2819  1.0231  0.1063
 4711SOL    MW418618   2.927   2.882   1.786  0.7820  0.1622 -0.0353
 4712SOL     OW18619   5.485   3.327   1.829  0.0459 -0.1597 -0.1364
 4712SOL    HW218620   5.458   3.379   1.904  2.7381 -0.1558  0.9446
 4712SOL    HW318621   5.454   3.239   1.848 -2.0239  0.4183 -0.5983
 4712SOL    MW418622   5.477   3.322   1.841  0.1280 -0.0829 -0.0547
 4713SOL     OW18623   5.370   2.007   1.131 -0.3307 -0.5039  0.1243
 4713SOL    HW218624   5.463   2.008   1.111 -0.2153 -0.6984  0.6410
 4713SOL    HW318625   5.338   2.091   1.097  0.3372  0.2753  1.3252
 4713SOL    MW418626   5.378   2.018   1.124 -0.2274 -0.4268  0.3509
 4714SOL     OW18627   1.385   2.020   0.027  0.8140 -0.0210  0.6402
 4714SOL    HW218628   1.428   1.935   0.035  0.0516 -0.5388 -0.5756
 4714SOL    HW318629   1.296   2.000   0.001  1.0440  1.1688 -1.2574
 4714SOL    MW418630   1.379   2.006   0.025  0.7438  0.0677  0.2295
 4715SOL     OW18631   5.998   3.941   2.990 -0.1500 -0.4296  0.0435
 4715SOL    HW218632   6.000   3.928   3.085  1.0345  0.1553  0.1143
 4715SOL    HW318633   6.030   4.030   2.977 -1.4689 -0.0556 -0.8486
 4715SOL    MW418634   6.002   3.951   3.001 -0.1677 -0.3031 -0.0649
 4716SOL     OW18635   1.307   5.667   3.477  0.5163 -0.1307  1.0004
 4716SOL    HW218636   1.299   5.640   3.385 -0.9016  1.1688  0.7013
 4716SOL    HW318637   1.401   5.678   3.490  0.7059  0.4232 -0.5491
 4716SOL    MW418638   1.318   5.665   3.466  0.3543  0.1139  0.7565
 4717SOL     OW18639   3.636   0.412   6.326 -0.2686  0.7620 -0.1453
 4717SOL    HW218640   3.545   0.384   6.322 -0.1825 -1.0118  4.3312
 4717SOL    HW318641   3.685   0.339   6.288 -0.6052 -0.3283  1.4127
 4717SOL    MW418642   3.630   0.398   6.320 -0.3017  0.3841  0.6509
 4718SOL     OW18643   1.471   2.674   2.761 -0.0537 -0.3629  0.4502
 4718SOL    HW218644   1.457   2.768   2.755 -0.7733 -0.5281 -1.1272
 4718SOL    HW318645   1.386   2.639   2.787  0.0603 -0.6111  0.4950
 4718SOL    MW418646   1.458   2.681   2.763 -0.1336 -0.4175  0.2480
 4719SOL     OW18647   1.786   5.890   4.592 -0.0467  0.0631  0.8232
 4719SOL    HW218648   1.835   5.885   4.674 -0.7249  2.5996  1.4485
 4719SOL    HW318649   1.778   5.983   4.573 -3.2124 -0.2427 -0.0859
 4719SOL    MW418650   1.791   5.901   4.601 -0.5539  0.3575  0.7857
 4720SOL     OW18651   1.525   4.298   4.664 -0.5798  0.0529 -0.0413
 4720SOL    HW218652   1.489   4.211   4.681 -0.8556 -0.0110 -0.9084
 4720SOL    HW318653   1.619   4.286   4.669 -0.6185 -0.2811 -0.0632
 4720SOL    MW418654   1.532   4.285   4.667 -0.6213  0.0004 -0.1586
 4721SOL     OW18655   5.523   5.147   5.046 -0.2844  0.4906  0.6898
 4721SOL    HW218656   5.510   5.219   4.985 -1.3303 -0.0282  0.2769
 4721SOL    HW318657   5.568   5.080   4.995 -3.2381 -0.9093 -0.3289
 4721SOL    MW418658   5.527   5.147   5.031 -0.8121  0.2375  0.5009
 4722SOL     OW18659   5.250   0.071   1.125 -0.0200  0.1819  0.9013
 4722SOL    HW218660   5.269  -0.013   1.082  0.7526  0.5970  0.4258
 4722SOL    HW318661   5.215   0.126   1.055 -0.9570  0.1214  1.3083
 4722SOL    MW418662   5.248   0.067   1.110 -0.0417  0.2287  0.8922
 4723SOL     OW18663   5.980   0.847   5.737 -0.8571  0.2699 -0.1745
 4723SOL    HW218664   5.970   0.928   5.787  1.8589  0.3965  0.3062
 4723SOL    HW318665   5.918   0.787   5.776  0.3920  0.7037  2.6805
 4723SOL    MW418666   5.971   0.850   5.749 -0.3340  0.3439  0.2656
 4724SOL     OW18667   5.893   1.862   3.691  0.2837  0.0982 -0.4123
 4724SOL    HW218668   5.868   1.947   3.727 -2.0278 -0.7589  0.2041
 4724SOL    HW318669   5.961   1.831   3.750  0.9851  1.3996 -0.5068
 4724SOL    MW418670   5.898   1.869   3.704  0.0712  0.1568 -0.3434
 4725SOL     OW18671   6.308   1.749   0.374  0.1182 -0.3147  0.2027
 4725SOL    HW218672   6.372   1.750   0.446  0.7618  1.0358 -0.3542
 4725SOL    HW318673   6.262   1.833   0.381  1.1473  0.4805 -1.7539
 4725SOL    MW418674   6.311   1.760   0.384  0.3389 -0.0316 -0.1289
 4726SOL     OW18675   6.083   3.345   5.917 -0.1370  0.3537  0.4919
 4726SOL    HW218676   6.113   3.341   5.826 -1.8154  0.6657 -0.1066
 4726SOL    HW318677   6.164   3.347   5.968  0.8476 -0.1489 -0.9637
 4726SOL    MW418678   6.098   3.344   5.911 -0.2285  0.3285  0.2209
 4727SOL     OW18679   5.049   1.322   2.932 -0.1618  0.2957 -0.1027
 4727SOL    HW218680   4.982   1.322   3.000  0.8070  0.3723  0.8864
 4727SOL    HW318681   5.065   1.230   2.914 -0.1059  0.2640  0.1028
 4727SOL    MW418682   5.042   1.310   2.939 -0.0266  0.3016  0.0549
 4728SOL     OW18683   2.731   2.046   1.590  0.1664 -0.3882  0.2868
 4728SOL    HW218684   2.671   2.030   1.518  1.0413 -0.7835 -0.3734
 4728SOL    HW318685   2.675   2.075   1.662 -0.5952  1.1275 -0.8744
 4728SOL    MW418686   2.716   2.047   1.590  0.1814 -0.2404  0.0465
 4729SOL     OW18687   2.979   4.570   3.925  0.1071 -0.1180  0.2945
 4729SOL    HW218688   2.940   4.484   3.910 -0.5466 -0.0649  1.5343
 4729SOL    HW318689   2.990   4.607   3.838 -2.1589 -0.3691 -0.1745
 4729SOL    MW418690   2.975   4.564   3.912 -0.2781 -0.1441  0.3962
 4730SOL     OW18691   2.745   4.631   6.335  0.8825  0.2706  0.0536
 4730SOL    HW218692   2.838   4.611   6.327  1.3252  1.3178  2.0604
 4730SOL    HW318693   2.738   4.683   6.415 -1.4493  0.1098  0.0254
 4730SOL    MW418694   2.756   4.635   6.345  0.6332  0.3876  0.3147
 4731SOL     OW18695   1.446   2.723   0.737  0.4007 -0.1118 -0.3445
 4731SOL    HW218696   1.506   2.657   0.774 -1.2925 -2.9581 -2.2924
 4731SOL    HW318697   1.410   2.767   0.814 -0.3925 -3.3983  1.3662
 4731SOL    MW418698   1.450   2.720   0.752  0.0726 -0.9209 -0.3758
 4732SOL     OW18699   5.454   6.313   3.901 -0.1671 -0.4731 -0.4639
 4732SOL    HW218700   5.430   6.405   3.914 -1.8702 -0.5053 -2.7030
 4732SOL    HW318701   5.547   6.316   3.880 -0.0043  0.6280  0.3247
 4732SOL    MW418702   5.463   6.326   3.900 -0.3704 -0.3321 -0.6553
 4733SOL     OW18703   2.257   1.662   0.775  0.3502  0.5317  0.1607
 4733SOL    HW218704   2.325   1.595   0.783 -1.9824 -2.0583 -0.5630
 4733SOL    HW318705   2.217   1.666   0.862 -0.3241  0.0499 -0.1210
 4733SOL    MW418706   2.261   1.654   0.788 -0.0466  0.1264  0.0280
 4734SOL     OW18707   4.840   4.269   5.984 -0.0097 -0.1169  0.5834
 4734SOL    HW218708   4.745   4.270   5.991 -0.1649 -1.5261 -0.7586
 4734SOL    HW318709   4.862   4.351   5.939 -0.8199 -0.7433 -1.0507
 4734SOL    MW418710   4.831   4.280   5.979 -0.1371 -0.3855  0.1907
 4735SOL     OW18711   5.581   0.772   4.123 -0.2131 -0.3869  0.3816
 4735SOL    HW218712   5.509   0.835   4.120 -2.0144 -2.3782 -1.4126
 4735SOL    HW318713   5.660   0.827   4.128 -1.6248  2.0411 -1.4935
 4735SOL    MW418714   5.582   0.788   4.124 -0.6370 -0.3293 -0.1025
 4736SOL     OW18715   6.317   4.755   2.394  0.1354 -0.1165  0.3976
 4736SOL    HW218716   6.264   4.751   2.473 -1.3152 -0.3652 -0.5414
 4736SOL    HW318717   6.283   4.684   2.339  0.5735  0.5484 -0.7599
 4736SOL    MW418718   6.306   4.745   2.397  0.0018 -0.0616  0.1210
 4737SOL     OW18719   5.867   3.108   6.251  0.6699  0.1319 -0.0096
 4737SOL    HW218720   5.909   3.022   6.264 -1.6829 -1.0892  0.0714
 4737SOL    HW318721   5.797   3.091   6.188  1.0808  2.3622 -1.1468
 4737SOL    MW418722   5.863   3.094   6.244  0.4137  0.2650 -0.1489
 4738SOL     OW18723   4.972   6.437   1.975  0.0427 -0.0327  0.3001
 4738SOL    HW218724   4.939   6.526   1.966  2.9786  0.9311 -3.1170
 4738SOL    HW318725   4.916   6.384   1.918 -0.0627  0.1373  0.2459
 4738SOL    MW418726   4.960   6.441   1.967  0.4162  0.1169 -0.1579
 4739SOL     OW18727   4.936   1.021   5.856 -0.0276  0.3102 -0.1033
 4739SOL    HW218728   4.907   1.080   5.925  0.9131 -0.0506  0.6136
 4739SOL    HW318729   5.030   1.011   5.869 -0.2756 -2.1252  0.4492
 4739SOL    MW418730   4.945   1.027   5.867  0.0638 -0.0587  0.0642
 4740SOL     OW18731   0.948   3.634   0.725 -0.2637  0.2673  0.1476
 4740SOL    HW218732   1.020   3.693   0.700 -0.1439  0.5524  1.1170
 4740SOL    HW318733   0.890   3.689   0.777 -0.3034 -0.3935  0.8160
 4740SOL    MW418734   0.950   3.649   0.729 -0.2531  0.2177  0.3637
 4741SOL     OW18735   0.253   5.065   3.020  0.3512  0.5940  0.3635
 4741SOL    HW218736   0.341   5.100   3.003  0.1598  0.7633 -0.3309
 4741SOL    HW318737   0.221   5.116   3.094  1.6499 -0.9255  2.0671
 4741SOL    MW418738   0.261   5.077   3.027  0.4973  0.4158  0.4967
 4742SOL     OW18739   0.600   6.088   2.610  0.2769  0.4047 -1.0039
 4742SOL    HW218740   0.688   6.055   2.628  0.2320  0.9967  0.4548
 4742SOL    HW318741   0.597   6.172   2.655 -0.6263  0.9764 -2.0977
 4742SOL    MW418742   0.611   6.094   2.618  0.1518  0.5582 -0.9558
 4743SOL     OW18743   5.191   0.672   1.766 -0.6041  0.0305  0.2053
 4743SOL    HW218744   5.194   0.752   1.817 -2.1124 -0.4063  1.0476
 4743SOL    HW318745   5.263   0.618   1.801  1.0113  1.3034 -0.9883
 4743SOL    MW418746   5.201   0.675   1.778 -0.5900  0.1408  0.1590
 4744SOL     OW18747   3.140   3.898   1.726 -0.0105  0.4839 -0.1346
 4744SOL    HW218748   3.171   3.966   1.786  1.7455 -0.9351  0.6546
 4744SOL    HW318749   3.079   3.846   1.778  0.4638  0.0606  0.0001
 4744SOL    MW418750   3.136   3.900   1.741  0.2838  0.2408 -0.0127
 4745SOL     OW18751   5.184   1.575   3.684 -0.3625 -0.5353  0.1978
 4745SOL    HW218752   5.134   1.655   3.702 -1.8200 -1.6835  1.5686
 4745SOL    HW318753   5.244   1.568   3.758  0.0474 -0.5053 -0.1296
 4745SOL    MW418754   5.185   1.584   3.696 -0.5007 -0.6828  0.3355
 4746SOL     OW18755   1.505   5.062   0.574  0.2071  0.1958  0.0545
 4746SOL    HW218756   1.485   5.089   0.485 -0.5023 -2.3381 -0.6396
 4746SOL    HW318757   1.596   5.033   0.570 -0.1781 -1.0212 -0.1632
 4746SOL    MW418758   1.515   5.062   0.562  0.0627 -0.2991 -0.0658
 4747SOL     OW18759   4.507   3.717   3.764  0.4231  0.0998  0.3622
 4747SOL    HW218760   4.454   3.749   3.692  1.1015 -0.3955 -0.3673
 4747SOL    HW318761   4.484   3.774   3.838 -1.8853 -0.7414  0.3692
 4747SOL    MW418762   4.497   3.729   3.764  0.2080 -0.0765  0.2669
 4748SOL     OW18763   2.141   3.090   0.064  0.3969  0.6362 -0.5858
 4748SOL    HW218764   2.062   3.088   0.010  0.2120  1.3889 -0.3547
 4748SOL    HW318765   2.115   3.050   0.147 -0.1531  2.1141 -0.0029
 4748SOL    MW418766   2.127   3.084   0.068  0.2999  0.9305 -0.4784
 4749SOL     OW18767   1.174   3.328   1.922 -0.2952  0.0537 -0.7629
 4749SOL    HW218768   1.134   3.242   1.935 -1.0869  0.3872 -0.9096
 4749SOL    HW318769   1.212   3.351   2.006 -1.0093  0.0206 -0.4273
 4749SOL    MW418770   1.174   3.319   1.935 -0.4939  0.0934 -0.7379
 4750SOL     OW18771   2.442   1.201   0.794 -0.0580  0.3636 -0.4380
 4750SOL    HW218772   2.482   1.198   0.707  1.5094 -0.9794  0.2764
 4750SOL    HW318773   2.381   1.127   0.795  1.0758 -0.5896  0.0996
 4750SOL    MW418774   2.439   1.191   0.783  0.2984  0.0606 -0.2728
 4751SOL     OW18775   4.707   3.497   1.646  0.1443  0.3580  0.1075
 4751SOL    HW218776   4.795   3.459   1.645 -0.2426 -0.5837 -1.8136
 4751SOL    HW318777   4.688   3.518   1.555 -2.4794 -1.5907  0.0749
 4751SOL    MW418778   4.716   3.495   1.634 -0.2529 -0.0233 -0.1503
 4752SOL     OW18779   1.251   3.662   4.684 -0.1079 -0.1220  0.1361
 4752SOL    HW218780   1.308   3.701   4.619  0.9143 -0.1584  0.9898
 4752SOL    HW318781   1.217   3.736   4.735 -1.5077 -0.0271 -0.8876
 4752SOL    MW418782   1.254   3.677   4.682 -0.1577 -0.1143  0.1137
 4753SOL     OW18783   1.367   0.551   5.317 -0.4461  0.1242 -0.0130
 4753SOL    HW218784   1.310   0.479   5.344 -1.6618  1.8126  2.2703
 4753SOL    HW318785   1.428   0.561   5.389  0.6257  0.5132 -0.9432
 4753SOL    MW418786   1.367   0.542   5.330 -0.4651  0.3983  0.1655
 4754SOL     OW18787   0.924   6.286   1.757  0.1328 -0.9257 -0.1405
 4754SOL    HW218788   0.913   6.381   1.750 -0.7449 -0.9410  0.6673
 4754SOL    HW318789   0.962   6.273   1.844  0.8122 -1.2779 -0.4903
 4754SOL    MW418790   0.927   6.297   1.768  0.1066 -0.9742 -0.0800
 4755SOL     OW18791   0.991   1.668   3.714  0.3226  0.1346  0.2536
 4755SOL    HW218792   1.004   1.577   3.688  4.1910  0.4365  0.5267
 4755SOL    HW318793   0.923   1.701   3.655 -1.7493 -3.0270  0.6571
 4755SOL    MW418794   0.984   1.661   3.703  0.5596 -0.2427  0.3429
 4756SOL     OW18795   5.966   1.133   2.205 -0.5003  0.2090  0.7023
 4756SOL    HW218796   5.907   1.186   2.259 -2.0993 -1.4050  0.6154
 4756SOL    HW318797   6.007   1.072   2.266 -0.7767 -0.2793  0.4071
 4756SOL    MW418798   5.964   1.132   2.220 -0.7478 -0.0684  0.6519
 4757SOL     OW18799   2.594   2.922   5.153 -0.1135 -0.4383 -0.4809
 4757SOL    HW218800   2.664   2.979   5.121  0.3961 -1.0575 -0.5106
 4757SOL    HW318801   2.577   2.952   5.242  1.9182 -1.7734  0.4561
 4757SOL    MW418802   2.601   2.933   5.160  0.2218 -0.6962 -0.3612
 4758SOL     OW18803   4.941   0.982   3.517  0.6965 -0.1786 -0.0905
 4758SOL    HW218804   4.853   0.965   3.483  1.0524 -1.7283 -0.3132
 4758SOL    HW318805   4.930   0.991   3.611  0.3595 -1.0461 -0.0353
 4758SOL    MW418806   4.928   0.981   3.525  0.6990 -0.4976 -0.1126
 4759SOL     OW18807   5.964   1.459   0.311 -0.0036 -0.2434  0.0530
 4759SOL    HW218808   5.946   1.544   0.352 -0.8450 -0.4031  0.0292
 4759SOL    HW318809   6.058   1.448   0.321 -0.2003 -0.4034  2.2051
 4759SOL    MW418810   5.974   1.469   0.317 -0.1405 -0.2856  0.3338
 4760SOL     OW18811   1.111   2.542   0.975 -0.3452 -0.4127 -0.2648
 4760SOL    HW218812   1.126   2.552   0.881 -0.1658  0.6141 -0.1307
 4760SOL    HW318813   1.177   2.597   1.016 -1.3666  0.3157  0.4383
 4760SOL    MW418814   1.122   2.550   0.968 -0.4563 -0.1811 -0.1543
 4761SOL     OW18815   1.902   5.998   2.366  0.0557  0.1816 -0.3607
 4761SOL    HW218816   1.864   6.080   2.401  1.4908  0.2614  1.1230
 4761SOL    HW318817   1.936   5.953   2.443 -0.9999 -2.0352 -1.0981
 4761SOL    MW418818   1.901   6.003   2.381  0.1058 -0.1003 -0.2622
 4762SOL     OW18819   0.011   2.380   1.932 -1.0660 -0.3759  0.2597
 4762SOL    HW218820  -0.046   2.453   1.908 -0.8303  0.0985  1.0818
 4762SOL    HW318821   0.099   2.411   1.912 -0.6299  0.8600  3.4033
 4762SOL    MW418822   0.015   2.394   1.926 -0.9774 -0.1503  0.7829
 4763SOL     OW18823   0.579   6.422   2.169  0.1668 -0.2917 -0.9787
 4763SOL    HW218824   0.498   6.371   2.160  1.3091 -2.2984 -0.3777
 4763SOL    HW318825   0.593   6.459   2.082 -1.3020  0.0015 -1.1307
 4763SOL    MW418826   0.570   6.420   2.157  0.1238 -0.5178 -0.9195
 4764SOL     OW18827   1.157   3.663   2.507  0.0117 -0.4281  0.4902
 4764SOL    HW218828   1.194   3.602   2.571  1.3320  0.2481  0.4092
 4764SOL    HW318829   1.169   3.750   2.547  1.9471  0.1173 -1.1144
 4764SOL    MW418830   1.164   3.667   2.521  0.4412 -0.2669  0.2678
 4765SOL     OW18831   4.256   1.590   2.390  0.1536 -0.2991  0.0082
 4765SOL    HW218832   4.291   1.646   2.459  0.7303 -0.3328 -0.2452
 4765SOL    HW318833   4.163   1.580   2.411 -0.4823  2.4793 -1.1067
 4765SOL    MW418834   4.249   1.596   2.402  0.1458  0.0631 -0.1723
 4766SOL     OW18835   0.159   5.719   0.954 -0.4581  0.7782 -0.2834
 4766SOL    HW218836   0.225   5.721   0.885 -1.3508  1.9348 -1.1480
 4766SOL    HW318837   0.197   5.664   1.022  1.2207  1.0853 -0.9194
 4766SOL    MW418838   0.173   5.712   0.954 -0.3544  0.9713 -0.4814
 4767SOL     OW18839   3.193   2.375   4.824 -0.7713 -0.2733 -0.1397
 4767SOL    HW218840   3.166   2.463   4.799  0.1585 -0.4859 -2.0801
 4767SOL    HW318841   3.286   2.370   4.800 -0.2299 -1.1236  1.8845
 4767SOL    MW418842   3.202   2.386   4.818 -0.5772 -0.4136 -0.1287
 4768SOL     OW18843   4.726   5.426   3.022  0.2358  0.3012 -0.0473
 4768SOL    HW218844   4.765   5.410   2.936  0.8420  1.5716 -0.0342
 4768SOL    HW318845   4.762   5.358   3.079  0.3912 -0.1110 -0.6362
 4768SOL    MW418846   4.736   5.415   3.018  0.3363  0.4144 -0.1233
 4769SOL     OW18847   3.534   3.494   5.772  0.7246  0.0118  0.2737
 4769SOL    HW218848   3.507   3.583   5.750 -1.0959 -0.5308  0.1558
 4769SOL    HW318849   3.597   3.506   5.844 -0.4238  1.3558  1.1246
 4769SOL    MW418850   3.539   3.508   5.779  0.3329  0.1175  0.3704
 4770SOL     OW18851   2.545   1.500   0.484 -0.2921  0.3932 -0.1468
 4770SOL    HW218852   2.488   1.507   0.407 -0.9526 -1.0189  0.1780
 4770SOL    HW318853   2.533   1.410   0.514  0.5723  0.6886  1.1505
 4770SOL    MW418854   2.536   1.489   0.478 -0.2652  0.2459  0.0672
 4771SOL     OW18855   4.574   5.174   0.413  0.7848  0.1640 -0.2188
 4771SOL    HW218856   4.621   5.135   0.340  0.0904 -0.8887 -0.1144
 4771SOL    HW318857   4.566   5.103   0.477 -0.3795  0.5049  0.0296
 4771SOL    MW418858   4.580   5.160   0.412  0.5396  0.0701 -0.1722
 4772SOL     OW18859   1.444   4.168   5.048  0.2975 -0.2935  0.7610
 4772SOL    HW218860   1.439   4.202   5.137 -1.4304  1.1321  0.1672
 4772SOL    HW318861   1.354   4.167   5.017  0.7666 -1.5491 -0.7249
 4772SOL    MW418862   1.432   4.172   5.055  0.1314 -0.2711  0.4866
 4773SOL     OW18863   3.496   4.225   0.782 -0.2585  0.5574  0.0188
 4773SOL    HW218864   3.496   4.186   0.869  2.0057  0.0149 -0.1579
 4773SOL    HW318865   3.589   4.235   0.761 -0.7226 -0.1125 -2.6733
 4773SOL    MW418866   3.509   4.221   0.791 -0.0210  0.3975 -0.3597
 4774SOL     OW18867   5.593   0.032   3.102  0.0652 -0.1018  0.3417
 4774SOL    HW218868   5.656   0.091   3.060  1.1499 -0.2178  1.7511
 4774SOL    HW318869   5.647  -0.029   3.152 -1.0384 -2.1075 -0.7661
 4774SOL    MW418870   5.609   0.032   3.103  0.0627 -0.3818  0.3815
 4775SOL     OW18871   4.051   5.538   0.488  0.3941  0.8398  0.4559
 4775SOL    HW218872   4.016   5.592   0.417  1.1054 -1.1329 -1.4906
 4775SOL    HW318873   3.988   5.550   0.560 -0.0208  3.3829 -0.2120
 4775SOL    MW418874   4.038   5.547   0.488  0.4332  0.9150  0.1109
 4776SOL     OW18875   4.690   3.325   2.504  0.1248 -0.4805 -0.0333
 4776SOL    HW218876   4.742   3.362   2.433  0.0503  0.7898  0.5293
 4776SOL    HW318877   4.643   3.251   2.465  1.7868 -1.2157 -0.7317
 4776SOL    MW418878   4.691   3.320   2.490  0.3343 -0.4099 -0.0512
 4777SOL     OW18879   6.050   2.908   6.362 -0.1984 -0.2366 -0.0189
 4777SOL    HW218880   6.051   2.821   6.321  1.7100 -0.6829  0.8668
 4777SOL    HW318881   6.059   2.891   6.455 -2.4050  0.8603  0.4662
 4777SOL    MW418882   6.051   2.894   6.369 -0.2378 -0.1508  0.1620
 4778SOL     OW18883   0.884   1.524   6.387  0.0318 -0.6052  0.3034
 4778SOL    HW218884   0.859   1.492   6.474 -1.6104 -1.6417 -0.4947
 4778SOL    HW318885   0.960   1.471   6.363  0.3233 -0.5067  0.9854
 4778SOL    MW418886   0.891   1.513   6.395 -0.1464 -0.7290  0.2881
 4779SOL     OW18887   0.995   2.667   3.893 -0.1474  0.4197 -0.3621
 4779SOL    HW218888   1.026   2.596   3.949  0.7245  0.4476 -0.7923
 4779SOL    HW318889   0.899   2.662   3.899 -0.1569 -1.5125 -1.2704
 4779SOL    MW418890   0.986   2.657   3.902 -0.0336  0.1684 -0.5387
 4780SOL     OW18891   4.235   1.761   0.717  0.1687  0.6916  0.0804
 4780SOL    HW218892   4.194   1.824   0.775  0.2617 -0.7791  1.8209
 4780SOL    HW318893   4.329   1.771   0.733  0.1404 -0.6823  1.3073
 4780SOL    MW418894   4.242   1.771   0.726  0.1772  0.3163  0.4719
 4781SOL     OW18895   3.700   3.530   1.436 -0.2975  0.4305  0.3355
 4781SOL    HW218896   3.726   3.618   1.460  0.9383  0.2973 -0.3864
 4781SOL    HW318897   3.714   3.478   1.515 -0.0799  0.7018  0.4770
 4781SOL    MW418898   3.705   3.535   1.449 -0.1058  0.4487  0.2589
 4782SOL     OW18899   0.388   3.568   0.996 -0.4320  0.1174  0.1445
 4782SOL    HW218900   0.355   3.506   0.932  0.8091 -1.3841  0.8976
 4782SOL    HW318901   0.318   3.633   1.005 -2.4617 -1.9875  0.4677
 4782SOL    MW418902   0.375   3.569   0.989 -0.5361 -0.3584  0.2865
 4783SOL     OW18903   5.020   0.607   2.248 -0.1218  0.1850  0.1361
 4783SOL    HW218904   4.952   0.563   2.298  0.5485  2.2377  3.0991
 4783SOL    HW318905   4.993   0.699   2.247  2.5226  1.0678  1.4508
 4783SOL    MW418906   5.008   0.613   2.254  0.3156  0.5723  0.7005
 4784SOL     OW18907   1.623   1.696   4.123  0.2356 -0.6126 -0.0659
 4784SOL    HW218908   1.671   1.613   4.113  1.1173 -0.1826  0.4464
 4784SOL    HW318909   1.587   1.692   4.212 -1.1426 -1.1536 -0.6267
 4784SOL    MW418910   1.625   1.684   4.134  0.1701 -0.6273 -0.0723
 4785SOL     OW18911   0.983   5.755   5.249 -0.5712 -0.6757 -0.0648
 4785SOL    HW218912   1.010   5.737   5.339 -0.6558 -0.9334 -0.0902
 4785SOL    HW318913   0.894   5.788   5.257 -0.5252 -0.5561 -0.0428
 4785SOL    MW418914   0.975   5.757   5.262 -0.5763 -0.6939 -0.0653
 4786SOL     OW18915   1.391   4.981   6.187 -0.2484 -1.1200 -0.1866
 4786SOL    HW218916   1.427   5.002   6.273  0.6246 -1.0861 -0.5564
 4786SOL    HW318917   1.436   4.901   6.161 -0.6263 -1.2191 -0.5449
 4786SOL    MW418918   1.401   4.973   6.195 -0.1831 -1.1286 -0.2827
 4787SOL     OW18919   1.018   3.490   5.362  0.6528 -0.1961  0.5752
 4787SOL    HW218920   1.010   3.570   5.414 -2.0229 -0.1084  0.1552
 4787SOL    HW318921   1.050   3.521   5.277 -1.5556  0.6911  0.0040
 4787SOL    MW418922   1.021   3.505   5.357  0.0084 -0.0675  0.4445
 4788SOL     OW18923   2.501   2.808   2.643  0.4832  0.2951  0.0021
 4788SOL    HW218924   2.526   2.759   2.564  0.7079  0.6260 -0.1367
 4788SOL    HW318925   2.544   2.761   2.714 -1.8434 -1.5975  0.2861
 4788SOL    MW418926   2.510   2.795   2.642  0.2059  0.0891  0.0213
 4789SOL     OW18927   2.775   3.484   3.827  0.0966 -0.2144  0.1800
 4789SOL    HW218928   2.712   3.553   3.841 -0.5060 -0.7494  0.1534
 4789SOL    HW318929   2.733   3.405   3.862 -0.2123 -1.0240 -1.8556
 4789SOL    MW418930   2.761   3.482   3.833 -0.0236 -0.3918 -0.0920
 4790SOL     OW18931   1.491   2.243   1.615  0.4723 -0.5279 -0.8590
 4790SOL    HW218932   1.540   2.230   1.695  0.2394  0.7484 -0.4825
 4790SOL    HW318933   1.479   2.155   1.579  0.3213 -1.1580  0.6488
 4790SOL    MW418934   1.496   2.230   1.621  0.4216 -0.4426 -0.6104
 4791SOL     OW18935   1.940   0.299   4.331  0.3638 -0.7370  0.0692
 4791SOL    HW218936   1.844   0.301   4.331  0.3575  1.4259 -0.1990
 4791SOL    HW318937   1.962   0.209   4.308 -1.6029 -0.9253 -1.3452
 4791SOL    MW418938   1.930   0.287   4.328  0.1035 -0.4765 -0.1528
 4792SOL     OW18939   2.976   2.625   1.859 -0.6338 -0.1991  0.4035
 4792SOL    HW218940   2.971   2.565   1.785 -0.4572 -0.0653  0.2835
 4792SOL    HW318941   3.044   2.588   1.916  0.4069  0.5733 -0.2930
 4792SOL    MW418942   2.984   2.612   1.857 -0.4732 -0.0795  0.2958
 4793SOL     OW18943   4.551   4.671   3.196  0.6957 -0.0628 -0.5299
 4793SOL    HW218944   4.644   4.662   3.177  0.3494 -1.8066 -1.6719
 4793SOL    HW318945   4.517   4.726   3.126  0.7315 -0.0281 -0.5206
 4793SOL    MW418946   4.559   4.677   3.184  0.6548 -0.2883 -0.6793
 4794SOL     OW18947   3.590   0.670   0.388 -0.1776  0.2198 -0.2035
 4794SOL    HW218948   3.570   0.762   0.408 -0.9063  0.3452 -1.4333
 4794SOL    HW318949   3.614   0.670   0.296  0.0484 -0.8037 -0.1523
 4794SOL    MW418950   3.591   0.682   0.379 -0.2439  0.1013 -0.3590
 4795SOL     OW18951   5.855   4.755   4.564  0.4546  0.2118 -0.4770
 4795SOL    HW218952   5.917   4.794   4.626  1.5078 -3.1451  0.8298
 4795SOL    HW318953   5.910   4.709   4.501 -0.6273 -1.6296 -0.1484
 4795SOL    MW418954   5.870   4.754   4.564  0.4508 -0.4740 -0.2612
 4796SOL     OW18955   2.067   1.338   5.482 -0.1303 -0.5474 -0.1922
 4796SOL    HW218956   1.980   1.376   5.494 -0.1438 -0.6194 -0.0502
 4796SOL    HW318957   2.050   1.245   5.467 -0.0453 -0.6857  0.5235
 4796SOL    MW418958   2.053   1.331   5.482 -0.1209 -0.5752 -0.0791
 4797SOL     OW18959   3.806   5.213   1.342  0.1459 -0.1079  0.7654
 4797SOL    HW218960   3.885   5.199   1.394  1.4809  1.4776 -0.7210
 4797SOL    HW318961   3.800   5.308   1.333 -0.4033 -0.2980 -1.3767
 4797SOL    MW418962   3.816   5.224   1.348  0.2496  0.0762  0.2867
 4798SOL     OW18963   5.279   1.183   3.117  0.0319  0.0936 -0.4667
 4798SOL    HW218964   5.213   1.115   3.124 -1.5133  1.6516  1.0957
 4798SOL    HW318965   5.230   1.264   3.104  1.5925  1.3011  0.6662
 4798SOL    MW418966   5.264   1.185   3.116  0.0339  0.4585 -0.1111
 4799SOL     OW18967   6.355   5.972   4.455  0.0814  0.0795 -0.3357
 4799SOL    HW218968   6.292   5.906   4.427  1.7046 -2.4627  1.5830
 4799SOL    HW318969   6.437   5.948   4.411  0.6071  1.1461  0.0178
 4799SOL    MW418970   6.358   5.960   4.445  0.3649 -0.1152 -0.0359
 4800SOL     OW18971   1.342   3.870   1.543 -0.0278  0.0746 -0.2471
 4800SOL    HW218972   1.343   3.965   1.547 -0.3666  0.0743 -0.1369
 4800SOL    HW318973   1.355   3.850   1.450  2.7130  0.1639  0.0517
 4800SOL    MW418974   1.344   3.880   1.531  0.2891  0.0863 -0.1931
 4801SOL     OW18975   0.327   6.074   0.930 -0.0374  0.4082 -0.0099
 4801SOL    HW218976   0.326   6.055   0.836  0.8479  0.4185 -0.0282
 4801SOL    HW318977   0.246   6.036   0.963  1.0708 -2.3289 -0.2520
 4801SOL    MW418978   0.316   6.067   0.922  0.2256  0.0485 -0.0443
 4802SOL     OW18979   4.452   3.138   0.761 -0.4639  0.1393 -0.4472
 4802SOL    HW218980   4.519   3.129   0.829 -1.1056 -0.6465  0.1005
 4802SOL    HW318981   4.497   3.182   0.688 -0.1370  2.3674  1.0105
 4802SOL    MW418982   4.466   3.142   0.760 -0.5054  0.3296 -0.1826
 4803SOL     OW18983   6.411   5.062   4.815  0.3218 -0.3633 -0.0914
 4803SOL    HW218984   6.351   4.994   4.847  0.0928  0.3529  1.0466
 4803SOL    HW318985   6.480   5.066   4.881 -0.1982  1.1958  0.3982
 4803SOL    MW418986   6.412   5.054   4.828  0.2230 -0.0631  0.1233
 4804SOL     OW18987   0.089   5.508   1.374 -0.0881 -0.1454  0.3583
 4804SOL    HW218988   0.157   5.521   1.308  0.5691  0.7740  1.1860
 4804SOL    HW318989   0.061   5.417   1.363  0.4584 -0.1868 -0.7520
 4804SOL    MW418990   0.094   5.497   1.364  0.0707 -0.0295  0.3210
 4805SOL     OW18991   3.916   1.838   1.522  0.1352  0.0949  0.5610
 4805SOL    HW218992   3.884   1.796   1.601  1.1687  1.4918  1.7795
 4805SOL    HW318993   4.010   1.819   1.520 -0.2470 -1.9959 -1.7060
 4805SOL    MW418994   3.924   1.830   1.532  0.2212  0.0034  0.4227
 4806SOL     OW18995   5.218   2.262   5.556 -0.9203 -0.4120  0.6559
 4806SOL    HW218996   5.261   2.181   5.585 -1.7025 -0.6307  1.2456
 4806SOL    HW318997   5.140   2.232   5.510  0.3335 -0.0824 -1.8658
 4806SOL    MW418998   5.214   2.247   5.553 -0.8581 -0.3974  0.4010
 4807SOL     OW18999   2.674   5.531   3.402  0.2247  0.3859  0.3444
 4807SOL    HW219000   2.585   5.565   3.415 -0.0724 -0.5123  0.8175
 4807SOL    HW319001   2.715   5.539   3.488  0.8784  1.5232 -0.0606
 4807SOL    MW419002   2.668   5.536   3.415  0.2718  0.4175  0.3534
 4808SOL     OW19003   1.595   3.840   1.684  0.4558 -0.3415  0.3895
 4808SOL    HW219004   1.507   3.856   1.649  0.2958 -1.5785  0.1977
 4808SOL    HW319005   1.651   3.901   1.637 -0.0525 -0.6483 -0.6372
 4808SOL    MW419006   1.591   3.851   1.673  0.3676 -0.5452  0.2288
 4809SOL     OW19007   6.062   5.630   4.232  0.7842 -0.0333 -0.0018
 4809SOL    HW219008   6.095   5.667   4.314  2.2658 -0.4849 -0.3651
 4809SOL    HW319009   6.062   5.704   4.171  1.9542 -0.1942 -0.2192
 4809SOL    MW419010   6.066   5.644   4.235  1.1340 -0.1141 -0.0784
 4810SOL     OW19011   1.574   2.093   0.521 -0.2773 -0.2021 -0.1194
 4810SOL    HW219012   1.609   2.032   0.586 -2.1230 -0.9208  0.2578
 4810SOL    HW319013   1.488   2.057   0.498 -1.3741  2.1466 -0.0215
 4810SOL    MW419014   1.567   2.080   0.526 -0.6656  0.0129 -0.0567
 4811SOL     OW19015   3.132   6.206   6.225  0.3802  0.0556  0.1307
 4811SOL    HW219016   3.111   6.290   6.265  0.7964  0.6405 -0.8327
 4811SOL    HW319017   3.050   6.178   6.183  0.2284 -0.0435  0.4918
 4811SOL    MW419018   3.118   6.213   6.225  0.4151  0.1197  0.0512
 4812SOL     OW19019   5.898   0.222   5.537  0.1610 -0.0422 -0.0091
 4812SOL    HW219020   5.865   0.137   5.565 -0.2735 -0.1234 -0.7328
 4812SOL    HW319021   5.929   0.208   5.448 -1.6114  0.9318 -0.8401
 4812SOL    MW419022   5.897   0.209   5.529 -0.1301  0.0756 -0.2142
 4813SOL     OW19023   4.950   1.639   5.746 -0.2746 -0.2630  0.0566
 4813SOL    HW219024   4.946   1.543   5.739 -1.3644 -0.1987 -0.5127
 4813SOL    HW319025   4.957   1.669   5.655  0.4422  0.1928  0.2575
 4813SOL    MW419026   4.950   1.630   5.733 -0.3238 -0.1944  0.0080
 4814SOL     OW19027   0.753   1.846   0.506  0.5210 -0.1705  0.3411
 4814SOL    HW219028   0.764   1.777   0.440  0.4790 -0.1551  0.3177
 4814SOL    HW319029   0.727   1.799   0.585  2.0914 -0.3417  0.7710
 4814SOL    MW419030   0.751   1.831   0.508  0.7226 -0.1911  0.3948
 4815SOL     OW19031   1.146   3.082   2.030  0.3921  0.0852 -0.0132
 4815SOL    HW219032   1.214   3.030   2.074  0.4693  1.2303  1.2782
 4815SOL    HW319033   1.150   3.054   1.939  3.3003  0.8090 -0.2135
 4815SOL    MW419034   1.156   3.071   2.024  0.7860  0.3318  0.1308
 4816SOL     OW19035   3.148   1.893   6.140  0.4070  0.0125  0.1186
 4816SOL    HW219036   3.225   1.936   6.177 -0.1084  1.0705 -0.0340
 4816SOL    HW319037   3.080   1.959   6.141  0.0520 -0.2729 -1.6594
 4816SOL    MW419038   3.149   1.907   6.145  0.2922  0.1144 -0.1361
 4817SOL     OW19039   1.414   5.476   0.498 -0.2924 -0.2020  0.2058
 4817SOL    HW219040   1.381   5.434   0.577  0.4823  0.0049  0.6446
 4817SOL    HW319041   1.509   5.470   0.504 -0.2207 -0.8106 -1.0595
 4817SOL    MW419042   1.422   5.470   0.509 -0.1807 -0.2550  0.0968
 4818SOL     OW19043   4.046   2.963   5.919 -0.0150 -0.1990  0.0261
 4818SOL    HW219044   4.060   3.035   5.980  2.3873 -1.9542  1.7653
 4818SOL    HW319045   3.954   2.969   5.894 -0.2096  2.6288  1.1085
 4818SOL    MW419046   4.036   2.973   5.923  0.2763 -0.0574  0.3983
 4819SOL     OW19047   0.652   5.353   6.191 -0.1368 -0.4267 -0.7029
 4819SOL    HW219048   0.640   5.435   6.143  1.5270  1.0574  1.2617
 4819SOL    HW319049   0.737   5.320   6.161 -0.8124 -1.5126 -1.5094
 4819SOL    MW419050   0.661   5.359   6.180 -0.0064 -0.3741 -0.5501
 4820SOL     OW19051   6.115   3.785   0.139  0.0577 -0.1838  0.2221
 4820SOL    HW219052   6.183   3.774   0.073 -1.1621 -0.2806 -1.0850
 4820SOL    HW319053   6.037   3.810   0.088 -1.3085 -1.7319  1.4708
 4820SOL    MW419054   6.114   3.787   0.123 -0.2835 -0.4008  0.2144
 4821SOL     OW19055   3.972   1.873   1.143 -0.1306  0.2436 -0.2414
 4821SOL    HW219056   3.955   1.807   1.210  0.1567 -0.4347 -0.8137
 4821SOL    HW319057   4.051   1.918   1.172 -0.3646  0.3822  0.1866
 4821SOL    MW419058   3.980   1.870   1.155 -0.1236  0.1724 -0.2604
 4822SOL     OW19059   4.461   3.146   2.845  0.0228 -0.1778  0.4070
 4822SOL    HW219060   4.483   3.239   2.846 -0.3062 -0.0120 -1.6710
 4822SOL    HW319061   4.542   3.102   2.820 -0.5196 -0.0898 -1.7514
 4822SOL    MW419062   4.474   3.152   2.842 -0.0921 -0.1443 -0.1519
 4823SOL     OW19063   3.013   2.887   4.990  0.5327  0.1298  0.1166
 4823SOL    HW219064   2.940   2.950   4.997  1.0625  0.8472 -0.5676
 4823SOL    HW319065   3.089   2.942   4.972  0.9326 -0.7503 -0.9613
 4823SOL    MW419066   3.013   2.903   4.989  0.6554  0.1083 -0.1159
 4824SOL     OW19067   1.702   5.813   1.622 -0.1159 -0.0805 -0.3995
 4824SOL    HW219068   1.612   5.836   1.598 -1.2906 -1.5389  2.1521
 4824SOL    HW319069   1.711   5.722   1.592 -0.1594 -0.5298  0.9176
 4824SOL    MW419070   1.691   5.804   1.615 -0.2766 -0.3322  0.1109
 4825SOL     OW19071   5.321   4.510   4.339 -0.2974 -0.2716 -0.2307
 4825SOL    HW219072   5.389   4.484   4.276 -0.1932 -0.0020 -0.2323
 4825SOL    HW319073   5.360   4.585   4.386  0.1581 -1.2639  1.0548
 4825SOL    MW419074   5.335   4.517   4.337 -0.2236 -0.3669 -0.0613
 4826SOL     OW19075   1.391   0.422   0.969  0.0550  0.7752 -0.3311
 4826SOL    HW219076   1.393   0.388   0.879 -2.7251  0.1578 -0.2272
 4826SOL    HW319077   1.318   0.483   0.970 -0.1843  0.4998  1.5945
 4826SOL    MW419078   1.382   0.425   0.957 -0.3433  0.6574 -0.0634
 4827SOL     OW19079   0.735   0.425   1.890  1.2460 -0.3435  0.3303
 4827SOL    HW219080   0.756   0.511   1.926  1.0660 -0.2592  0.2364
 4827SOL    HW319081   0.786   0.419   1.810  0.6453  0.0095 -0.0880
 4827SOL    MW419082   0.744   0.436   1.884  1.1430 -0.2858  0.2627
 4828SOL     OW19083   1.036   3.880   1.616  0.6097  0.4438 -0.3344
 4828SOL    HW219084   1.023   3.975   1.615  0.7111  0.4611 -1.3674
 4828SOL    HW319085   1.130   3.869   1.602  0.6080  0.1885 -0.1403
 4828SOL    MW419086   1.046   3.891   1.614  0.6229  0.4124 -0.4451
 4829SOL     OW19087   0.290   0.597   5.122 -0.7056 -0.0486  0.1413
 4829SOL    HW219088   0.318   0.681   5.158 -1.4386  0.5140 -0.5394
 4829SOL    HW319089   0.367   0.564   5.076 -0.1850 -0.1213  1.0419
 4829SOL    MW419090   0.304   0.604   5.120 -0.7336  0.0160  0.1703
 4830SOL     OW19091   0.032   5.200   2.436  0.1095  0.0697  0.2360
 4830SOL    HW219092   0.056   5.202   2.343 -0.5284 -0.4310  0.0482
 4830SOL    HW319093   0.081   5.126   2.471  1.3954  1.0666  0.6203
 4830SOL    MW419094   0.041   5.190   2.428  0.1950  0.1352  0.2620
 4831SOL     OW19095   3.352   6.085   0.474  0.3296 -0.3404 -0.4301
 4831SOL    HW219096   3.407   6.141   0.420 -1.5002 -0.5016 -2.6243
 4831SOL    HW319097   3.268   6.132   0.479  0.0907 -0.8705  1.4007
 4831SOL    MW419098   3.348   6.099   0.467  0.0567 -0.4316 -0.4780
 4832SOL     OW19099   0.454   6.048   2.981  0.3591 -0.0586 -0.2514
 4832SOL    HW219100   0.403   6.125   3.005  0.4363 -0.6491  2.0151
 4832SOL    HW319101   0.518   6.039   3.051  1.1092 -1.5372 -1.0699
 4832SOL    MW419102   0.456   6.057   2.993  0.4683 -0.3316 -0.0604
 4833SOL     OW19103   4.714   6.441   3.900  0.0959  0.0695 -0.0575
 4833SOL    HW219104   4.809   6.434   3.897  0.1202 -0.4303  1.3846
 4833SOL    HW319105   4.688   6.397   3.980 -1.2616  1.2163  0.1917
 4833SOL    MW419106   4.723   6.435   3.910 -0.0800  0.1549  0.1656
 4834SOL     OW19107   4.966   1.086   4.189 -0.6952 -0.2056 -0.2074
 4834SOL    HW219108   4.884   1.127   4.217 -0.0835  0.6777  0.3641
 4834SOL    HW319109   5.027   1.103   4.261  1.2307  3.0054 -2.3495
 4834SOL    MW419110   4.964   1.094   4.202 -0.3604  0.3346 -0.4146
 4835SOL     OW19111   4.054   4.273   1.852 -0.2435  0.0308 -0.7730
 4835SOL    HW219112   4.010   4.197   1.815  0.3601 -0.5914 -0.2382
 4835SOL    HW319113   4.105   4.238   1.925 -2.7196  1.4494  1.8148
 4835SOL    MW419114   4.055   4.258   1.856 -0.4906  0.1359 -0.3610
 4836SOL     OW19115   5.170   4.617   5.573  0.4278 -0.1772  0.3368
 4836SOL    HW219116   5.111   4.642   5.502  0.3702 -1.2956 -0.0179
 4836SOL    HW319117   5.220   4.697   5.590  1.2892 -0.1999 -1.7758
 4836SOL    MW419118   5.169   4.631   5.566  0.5339 -0.3278  0.0113
 4837SOL     OW19119   2.187   0.387   0.053  0.2044  0.0725 -0.0843
 4837SOL    HW219120   2.131   0.313   0.028 -2.3723  2.1051 -0.7627
 4837SOL    HW319121   2.150   0.417   0.136  1.2427  0.5755  0.2019
 4837SOL    MW419122   2.174   0.381   0.061  0.0014  0.4071 -0.1360
 4838SOL     OW19123   2.466   3.063   0.260 -0.4941 -0.1130 -0.3953
 4838SOL    HW219124   2.449   3.058   0.354  1.6268 -0.0676  0.0361
 4838SOL    HW319125   2.450   3.155   0.238 -0.0841  0.0895  0.1288
 4838SOL    MW419126   2.462   3.074   0.270 -0.1602 -0.0803 -0.2693
 4839SOL     OW19127   3.780   5.081   0.083  0.2473 -0.8252 -0.0764
 4839SOL    HW219128   3.711   5.018   0.064 -0.0296 -0.5998  0.1741
 4839SOL    HW319129   3.861   5.034   0.063  0.0387 -1.2053 -0.0447
 4839SOL    MW419130   3.781   5.066   0.078  0.1833 -0.8456 -0.0392
 4840SOL     OW19131   1.185   1.025   6.372  0.3808  0.2810 -0.2907
 4840SOL    HW219132   1.166   1.042   6.465 -0.7689  0.8601 -0.6247
 4840SOL    HW319133   1.147   0.939   6.356  0.3471  0.2985 -0.3029
 4840SOL    MW419134   1.178   1.016   6.382  0.2247  0.3597 -0.3364
 4841SOL     OW19135   0.793   5.438   2.974 -0.3364 -0.1886  0.0496
 4841SOL    HW219136   0.783   5.366   3.036  0.4390 -0.2229  0.1352
 4841SOL    HW319137   0.749   5.512   3.015 -1.2953 -0.6427 -0.1133
 4841SOL    MW419138   0.786   5.439   2.987 -0.3606 -0.2531  0.0394
 4842SOL     OW19139   6.195   3.399   3.189  0.4942  0.4548 -0.3220
 4842SOL    HW219140   6.246   3.427   3.265 -0.3386  1.1986 -0.0143
 4842SOL    HW319141   6.259   3.385   3.120  1.3374 -0.8025  0.6685
 4842SOL    MW419142   6.210   3.401   3.190  0.4955  0.3870 -0.1507
 4843SOL     OW19143   5.808   3.106   4.549 -0.2658  0.4168  0.3000
 4843SOL    HW219144   5.860   3.169   4.499 -1.0780  0.3148 -0.6987
 4843SOL    HW319145   5.822   3.023   4.504  1.7924 -0.4256  2.3355
 4843SOL    MW419146   5.817   3.103   4.536 -0.1014  0.2922  0.4368
 4844SOL     OW19147   2.320   5.767   2.155 -0.4264 -0.1423 -0.1791
 4844SOL    HW219148   2.312   5.786   2.062  0.7842 -1.3471 -0.5543
 4844SOL    HW319149   2.277   5.682   2.166 -0.6255  0.0278  0.3752
 4844SOL    MW419150   2.313   5.758   2.144 -0.2929 -0.2788 -0.1554
 4845SOL     OW19151   3.841   1.238   4.975 -0.5131  0.1848  0.5237
 4845SOL    HW219152   3.900   1.277   4.911 -3.0005 -0.0579 -2.0990
 4845SOL    HW319153   3.763   1.295   4.973 -1.2273 -0.6563  2.2911
 4845SOL    MW419154   3.838   1.251   4.967 -0.9355  0.0418  0.4109
 4846SOL     OW19155   3.322   3.603   1.828  0.4037  0.8753 -0.1656
 4846SOL    HW219156   3.325   3.524   1.773  0.0567 -0.1783  1.2639
 4846SOL    HW319157   3.229   3.613   1.850  0.6631  0.6202  1.1112
 4846SOL    MW419158   3.310   3.594   1.824  0.3922  0.7026  0.1914
 4847SOL     OW19159   3.027   4.853   2.972 -0.4815  0.1267  0.0942
 4847SOL    HW219160   3.089   4.922   2.947  0.2756 -0.3893  0.5194
 4847SOL    HW319161   2.987   4.826   2.890  0.9938 -0.6079 -0.4165
 4847SOL    MW419162   3.030   4.859   2.958 -0.1869 -0.0383  0.0829
 4848SOL     OW19163   3.824   0.918   3.322  0.2415 -0.1685 -0.2409
 4848SOL    HW219164   3.905   0.893   3.277 -0.3347 -1.1296 -0.7735
 4848SOL    HW319165   3.774   0.836   3.330 -0.0708  0.1301  1.3578
 4848SOL    MW419166   3.828   0.904   3.317  0.1242 -0.2559 -0.1002
 4849SOL     OW19167   3.666   1.040   3.105  0.2233  0.2477 -0.0172
 4849SOL    HW219168   3.691   0.996   3.186 -0.5519  1.0238  0.6481
 4849SOL    HW319169   3.749   1.064   3.064  0.6341 -0.7973  0.1711
 4849SOL    MW419170   3.680   1.037   3.110  0.1752  0.2122  0.0954
 4850SOL     OW19171   1.864   2.436   5.094 -0.7148  0.1408 -0.0484
 4850SOL    HW219172   1.779   2.394   5.084 -0.6930  0.4566 -1.8354
 4850SOL    HW319173   1.920   2.394   5.029 -0.0028  1.1523 -0.1162
 4850SOL    MW419174   1.860   2.425   5.084 -0.6180  0.3159 -0.2932
 4851SOL     OW19175   6.116   1.580   1.415  0.2620 -0.3720  0.4156
 4851SOL    HW219176   6.161   1.495   1.422  1.4294  0.2896  1.4270
 4851SOL    HW319177   6.175   1.634   1.364 -0.6680 -0.2634 -0.5703
 4851SOL    MW419178   6.130   1.576   1.409  0.2933 -0.2703  0.4189
 4852SOL     OW19179   2.460   4.633   5.356  0.5295 -0.3816 -0.3976
 4852SOL    HW219180   2.442   4.575   5.281  0.5780 -0.0791 -0.6467
 4852SOL    HW319181   2.375   4.673   5.376  0.6454  0.0345 -0.7155
 4852SOL    MW419182   2.446   4.631   5.348  0.5512 -0.2868 -0.4724
 4853SOL     OW19183   0.574   0.575   2.764  0.5083 -0.3932 -0.2659
 4853SOL    HW219184   0.598   0.563   2.856  0.6673  0.8262 -0.1291
 4853SOL    HW319185   0.539   0.490   2.737 -0.9798 -0.3527  1.3549
 4853SOL    MW419186   0.573   0.562   2.773  0.3329 -0.2270 -0.0340
 4854SOL     OW19187   5.323   2.518   4.483 -0.0069 -0.5895  0.2359
 4854SOL    HW219188   5.282   2.604   4.468 -0.2567 -0.6880  0.3474
 4854SOL    HW319189   5.335   2.515   4.578 -2.4494 -1.7774  0.5702
 4854SOL    MW419190   5.319   2.529   4.494 -0.3621 -0.7592  0.2947
 4855SOL     OW19191   4.608   6.021   0.878 -0.1053  0.5850  0.3566
 4855SOL    HW219192   4.573   6.108   0.899 -0.1419  0.4473  0.8891
 4855SOL    HW319193   4.563   5.995   0.798 -0.5589  0.7898  0.5435
 4855SOL    MW419194   4.598   6.029   0.870 -0.1699  0.5939  0.4515
 4856SOL     OW19195   0.111   2.869   1.279  0.8057  0.2793  0.1379
 4856SOL    HW219196   0.076   2.913   1.356 -2.1994  0.5204 -1.2503
 4856SOL    HW319197   0.179   2.811   1.314 -1.7594 -1.1311  3.3103
 4856SOL    MW419198   0.115   2.867   1.294  0.0708  0.1250  0.3733
 4857SOL     OW19199   2.182   2.763   6.307 -0.5895 -0.7891 -0.0446
 4857SOL    HW219200   2.266   2.797   6.276 -1.4840  0.0007 -1.7855
 4857SOL    HW319201   2.159   2.696   6.243 -2.1006  0.2784 -0.6918
 4857SOL    MW419202   2.190   2.759   6.294 -0.9068 -0.5440 -0.3597
 4858SOL     OW19203   4.956   1.842   0.849 -0.2129 -0.6062  0.3171
 4858SOL    HW219204   4.942   1.855   0.755  0.5213  1.3675  0.4415
 4858SOL    HW319205   4.886   1.891   0.891 -1.4015 -2.6381  0.8505
 4858SOL    MW419206   4.945   1.850   0.842 -0.2729 -0.6139  0.4039
 4859SOL     OW19207   0.907   2.471   4.623 -0.2042  0.0002  0.2498
 4859SOL    HW219208   0.873   2.505   4.540  0.8263  1.5197  0.3972
 4859SOL    HW319209   0.863   2.524   4.690 -1.2642 -1.4242  0.7324
 4859SOL    MW419210   0.896   2.483   4.621 -0.2081  0.0127  0.3329
 4860SOL     OW19211   6.240   0.018   4.116 -0.3309  0.0719  0.0547
 4860SOL    HW219212   6.185  -0.019   4.047  0.1682 -0.1462 -0.2294
 4860SOL    HW319213   6.329  -0.005   4.091 -0.1954 -0.8582  1.2721
 4860SOL    MW419214   6.245   0.010   4.104 -0.2472 -0.0796  0.1779
 4861SOL     OW19215   3.499   4.235   4.206 -0.0669 -0.1955  0.1312
 4861SOL    HW219216   3.435   4.243   4.276 -1.2556 -3.1130 -0.5086
 4861SOL    HW319217   3.452   4.261   4.127 -0.3007 -1.6482 -0.2356
 4861SOL    MW419218   3.485   4.240   4.205 -0.2546 -0.7721 -0.0016
 4862SOL     OW19219   1.770   4.458   1.969  0.1780  0.6435  0.2449
 4862SOL    HW219220   1.794   4.433   1.880 -0.8246 -0.0027  0.1316
 4862SOL    HW319221   1.839   4.518   1.997  1.9093 -1.1209 -0.0288
 4862SOL    MW419222   1.782   4.462   1.961  0.2741  0.3255  0.1938
 4863SOL     OW19223   0.618   1.545   0.637 -0.0883 -0.0719  0.0025
 4863SOL    HW219224   0.658   1.518   0.720 -1.0368 -3.3059 -0.4354
 4863SOL    HW319225   0.650   1.482   0.573 -2.0577  0.1814 -1.3418
 4863SOL    MW419226   0.627   1.533   0.640 -0.4733 -0.4652 -0.2326
 4864SOL     OW19227   3.726   5.412   3.284  0.4908 -0.1014  0.1640
 4864SOL    HW219228   3.651   5.361   3.254  1.1902 -1.9414  1.3731
 4864SOL    HW319229   3.734   5.483   3.220 -1.0432 -1.0196 -1.1167
 4864SOL    MW419230   3.717   5.414   3.272  0.3807 -0.4653  0.1546
 4865SOL     OW19231   3.686   5.867   2.967 -0.1752 -0.2450 -0.4922
 4865SOL    HW219232   3.626   5.935   2.997 -0.3209 -0.2642 -0.7320
 4865SOL    HW319233   3.773   5.899   2.992  0.0610  1.4561 -3.1020
 4865SOL    MW419234   3.690   5.880   2.974 -0.1633 -0.0231 -0.8682
 4866SOL     OW19235   3.592   6.330   3.038 -0.0719  0.1563  0.1988
 4866SOL    HW219236   3.643   6.339   3.118 -0.6301 -0.2758  0.6061
 4866SOL    HW319237   3.647   6.369   2.970 -0.0045  1.4110  0.9498
 4866SOL    MW419238   3.606   6.337   3.039 -0.1366  0.2649  0.3517
 4867SOL     OW19239   0.164   0.791   4.386  0.0333 -0.1388  0.4907
 4867SOL    HW219240   0.249   0.835   4.382  0.1515 -0.3314  0.9239
 4867SOL    HW319241   0.134   0.804   4.475 -0.5999  0.3123  0.2208
 4867SOL    MW419242   0.171   0.799   4.397 -0.0347 -0.1047  0.5123
 4868SOL     OW19243   4.356   5.968   1.368 -0.1006 -0.2314 -0.4848
 4868SOL    HW219244   4.311   6.052   1.356  1.7372  1.0984  1.2260
 4868SOL    HW319245   4.365   5.959   1.463 -0.8948 -2.7919 -0.5777
 4868SOL    MW419246   4.351   5.978   1.379  0.0371 -0.3937 -0.2714
 4869SOL     OW19247   4.681   0.267   4.898 -0.8196 -0.1142  0.0018
 4869SOL    HW219248   4.651   0.357   4.898 -0.2798  0.1468  2.2895
 4869SOL    HW319249   4.724   0.256   4.983  0.2713 -2.1605 -0.7281
 4869SOL    MW419250   4.683   0.277   4.910 -0.6044 -0.3498  0.2073
 4870SOL     OW19251   4.922   1.617   1.021 -0.0429 -0.2521  0.2484
 4870SOL    HW219252   4.979   1.685   0.985  1.5826 -1.7955 -0.2285
 4870SOL    HW319253   4.841   1.624   0.969 -0.0788  1.4918  0.4504
 4870SOL    MW419254   4.919   1.627   1.009  0.1668 -0.2257  0.2121
 4871SOL     OW19255   6.318   2.501   5.103  0.0855  0.1005  0.6046
 4871SOL    HW219256   6.400   2.451   5.103 -1.6052 -2.9608  0.7603
 4871SOL    HW319257   6.316   2.545   5.188  1.8144  0.7655  0.3352
 4871SOL    MW419258   6.328   2.500   5.114  0.0906 -0.2157  0.5896
 4872SOL     OW19259   4.083   5.239   1.436 -0.1055  0.0203 -0.0720
 4872SOL    HW219260   4.121   5.266   1.520 -0.4706 -0.1465  0.1527
 4872SOL    HW319261   4.125   5.155   1.417  1.1708  0.8015 -0.8656
 4872SOL    MW419262   4.094   5.232   1.445  0.0147  0.1014 -0.1470
 4873SOL     OW19263   4.953   5.258   4.711  0.1599  0.0377  0.4225
 4873SOL    HW219264   5.031   5.296   4.671  0.2270 -0.9582 -0.4410
 4873SOL    HW319265   4.900   5.333   4.737  0.5117  0.7208 -0.7582
 4873SOL    MW419266   4.956   5.273   4.709  0.2152 -0.0036  0.1528
 4874SOL     OW19267   0.468   4.530   2.267  0.1300  0.7370 -0.0801
 4874SOL    HW219268   0.483   4.544   2.174  0.9192  0.8135  0.0515
 4874SOL    HW319269   0.374   4.540   2.278  0.0014  0.5018 -0.9059
 4874SOL    MW419270   0.458   4.533   2.256  0.2171  0.7161 -0.1717
 4875SOL     OW19271   1.197   1.831   4.149 -0.5335 -0.5963 -0.1910
 4875SOL    HW219272   1.196   1.925   4.164 -0.3349 -0.0026 -3.2538
 4875SOL    HW319273   1.106   1.808   4.131 -0.3740 -0.6263 -1.0393
 4875SOL    MW419274   1.185   1.840   4.148 -0.4862 -0.5219 -0.7070
 4876SOL     OW19275   0.267   2.402   3.566 -0.0723  0.3603 -0.3081
 4876SOL    HW219276   0.210   2.450   3.626 -0.5704  0.3627 -0.7776
 4876SOL    HW319277   0.348   2.387   3.616 -1.1178 -1.2004  1.0214
 4876SOL    MW419278   0.271   2.406   3.581 -0.2759  0.1547 -0.1946
 4877SOL     OW19279   5.437   3.088   1.390 -0.0069 -0.0754 -0.0472
 4877SOL    HW219280   5.454   3.016   1.329 -0.5855  0.8703 -1.3726
 4877SOL    HW319281   5.355   3.126   1.360  0.8373  1.8351 -0.0963
 4877SOL    MW419282   5.429   3.083   1.378  0.0282  0.3014 -0.2286
 4878SOL     OW19283   0.518   1.939   5.412  0.1933  0.6028 -0.2744
 4878SOL    HW219284   0.546   1.939   5.504  1.5878  2.1192 -0.6472
 4878SOL    HW319285   0.423   1.928   5.415  0.2744  0.1264  1.3126
 4878SOL    MW419286   0.509   1.938   5.424  0.3880  0.7400 -0.1142
 4879SOL     OW19287   4.265   5.406   5.122 -0.1914 -0.4427  0.1139
 4879SOL    HW219288   4.203   5.404   5.050  1.9020  0.0728 -1.8359
 4879SOL    HW319289   4.290   5.314   5.135  0.9368 -0.3597 -1.2771
 4879SOL    MW419290   4.260   5.393   5.115  0.2336 -0.3637 -0.3268
 4880SOL     OW19291   2.838   2.634   4.303 -0.1528  0.6712 -0.3079
 4880SOL    HW219292   2.840   2.726   4.275 -1.7820  0.9880  0.4887
 4880SOL    HW319293   2.799   2.588   4.229  0.1926  0.6945 -0.5079
 4880SOL    MW419294   2.833   2.640   4.290 -0.3222  0.7160 -0.2292
 4881SOL     OW19295   0.035   5.015   5.458 -0.0682 -0.3056  0.1146
 4881SOL    HW219296  -0.005   5.102   5.457 -2.9547 -1.5086  0.2852
 4881SOL    HW319297   0.007   4.976   5.541  1.7290 -1.2136  0.3574
 4881SOL    MW419298   0.026   5.021   5.469 -0.2120 -0.5841  0.1692
 4882SOL     OW19299   2.839   1.985   0.149 -0.3178 -0.1939 -0.6035
 4882SOL    HW219300   2.761   2.037   0.167  0.5742  0.5285  1.4648
 4882SOL    HW319301   2.876   2.025   0.070 -1.0793  0.5946 -0.5798
 4882SOL    MW419302   2.834   1.997   0.141 -0.3006  0.0055 -0.3275
 4883SOL     OW19303   2.580   0.849   1.061 -0.7379  0.4025  0.3731
 4883SOL    HW219304   2.486   0.834   1.048 -0.4799 -0.3228 -0.8976
 4883SOL    HW319305   2.592   0.847   1.156 -1.8446 -0.5812  0.5140
 4883SOL    MW419306   2.569   0.847   1.072 -0.8499  0.1770  0.2240
 4884SOL     OW19307   0.181   5.044   0.427  0.4283 -0.0249  0.1072
 4884SOL    HW219308   0.217   5.029   0.339  1.5576  0.1988  0.5233
 4884SOL    HW319309   0.157   4.956   0.458 -1.0033 -0.0001 -0.8308
 4884SOL    MW419310   0.182   5.030   0.419  0.3884  0.0079  0.0383
 4885SOL     OW19311   4.595   2.802   0.586  0.0561  0.3023 -0.1238
 4885SOL    HW219312   4.574   2.719   0.542 -0.0317 -0.3378  1.0952
 4885SOL    HW319313   4.511   2.833   0.621 -0.0334  1.2560 -1.1139
 4885SOL    MW419314   4.581   2.795   0.585  0.0327  0.3437 -0.0936
 4886SOL     OW19315   4.329   0.388   0.580 -0.8248  0.1549  0.1448
 4886SOL    HW219316   4.241   0.415   0.552 -0.9103  2.6781  2.4964
 4886SOL    HW319317   4.315   0.341   0.662 -0.1175 -1.9560 -0.8675
 4886SOL    MW419318   4.315   0.385   0.587 -0.7428  0.2093  0.3215
 4887SOL     OW19319   1.468   6.395   5.873  0.0560 -0.5069 -0.2225
 4887SOL    HW219320   1.415   6.316   5.888 -0.4367 -0.0294  0.6013
 4887SOL    HW319321   1.459   6.412   5.779 -2.2953  0.2579  0.0831
 4887SOL    MW419322   1.460   6.387   5.862 -0.3192 -0.3430 -0.0735
 4888SOL     OW19323   1.529   3.681   5.593 -0.1290 -0.1297  0.1339
 4888SOL    HW219324   1.578   3.599   5.591  0.5824  0.2770  0.5835
 4888SOL    HW319325   1.508   3.694   5.685 -1.9104 -0.7656 -0.1450
 4888SOL    MW419326   1.533   3.672   5.605 -0.2702 -0.1600  0.1564
 4889SOL     OW19327   5.832   2.596   1.741 -0.3737 -0.7529  0.1437
 4889SOL    HW219328   5.751   2.576   1.788  0.1749 -0.6194  1.1624
 4889SOL    HW319329   5.803   2.644   1.663 -1.1609  0.9034  1.3980
 4889SOL    MW419330   5.818   2.600   1.737 -0.4052 -0.5168  0.4436
 4890SOL     OW19331   2.721   4.407   1.735  0.1706 -0.0686  0.1364
 4890SOL    HW219332   2.693   4.403   1.827  0.4068 -1.1773  0.1764
 4890SOL    HW319333   2.639   4.416   1.686 -0.0608 -0.6906  0.3956
 4890SOL    MW419334   2.706   4.407   1.741  0.1712 -0.2969  0.1759
 4891SOL     OW19335   5.901   5.934   1.091 -0.0158  0.2694 -0.1331
 4891SOL    HW219336   5.914   6.027   1.107 -1.9803  0.3534  1.1871
 4891SOL    HW319337   5.892   5.895   1.177  1.5102 -1.3070 -0.6256
 4891SOL    MW419338   5.902   5.941   1.104 -0.0736  0.0725 -0.0239
 4892SOL     OW19339   6.375   3.157   5.762  0.0745 -0.0947  0.3331
 4892SOL    HW219340   6.384   3.234   5.819 -1.1065  0.8339 -0.6902
 4892SOL    HW319341   6.430   3.091   5.803  0.5724  1.0753  1.6313
 4892SOL    MW419342   6.383   3.159   5.775 -0.0156  0.1822  0.3694
 4893SOL     OW19343   1.026   1.434   3.381 -0.2083 -0.0375  0.0258
 4893SOL    HW219344   1.022   1.435   3.286  1.1020 -2.9100 -0.1756
 4893SOL    HW319345   1.105   1.483   3.403 -0.5246  0.6450 -0.3228
 4893SOL    MW419346   1.036   1.441   3.372 -0.0772 -0.3264 -0.0468
 4894SOL     OW19347   2.725   1.049   4.447  0.2181 -0.1476  0.4926
 4894SOL    HW219348   2.685   0.982   4.503 -0.3575  0.7186  1.1348
 4894SOL    HW319349   2.689   1.031   4.360 -0.5692 -0.1940  0.8128
 4894SOL    MW419350   2.715   1.038   4.443  0.0383 -0.0394  0.6196
 4895SOL     OW19351   4.124   1.067   4.836 -0.2778 -0.5671 -0.3020
 4895SOL    HW219352   4.111   1.127   4.909  1.3047 -1.6700  0.9573
 4895SOL    HW319353   4.217   1.074   4.816  0.3687 -3.7096  0.9956
 4895SOL    MW419354   4.135   1.076   4.843  0.0163 -1.1272  0.0354
 4896SOL     OW19355   1.843   1.004   4.669  0.2393 -0.2334 -0.0745
 4896SOL    HW219356   1.886   0.959   4.597 -0.2481  0.1244 -0.5950
 4896SOL    HW319357   1.762   1.037   4.632  0.8953  1.6843  0.0876
 4896SOL    MW419358   1.838   1.003   4.655  0.2616  0.0668 -0.1218
 4897SOL     OW19359   1.623   5.729   5.071 -0.0541 -0.4064 -0.1823
 4897SOL    HW219360   1.706   5.681   5.065  0.1909  0.0079 -0.1566
 4897SOL    HW319361   1.644   5.817   5.039 -0.2479 -0.0147  0.7247
 4897SOL    MW419362   1.637   5.734   5.066 -0.0474 -0.3000 -0.0593
 4898SOL     OW19363   4.479   4.567   6.153 -0.0137 -0.1917  0.6986
 4898SOL    HW219364   4.539   4.534   6.086  1.2567 -1.5828  2.4037
 4898SOL    HW319365   4.393   4.535   6.127  0.2997  0.0006 -0.6686
 4898SOL    MW419366   4.476   4.558   6.141  0.1952 -0.3499  0.7432
 4899SOL     OW19367   1.116   2.802   2.262 -0.3978  0.1612  0.2145
 4899SOL    HW219368   1.182   2.787   2.195  0.4350 -0.8358  1.2138
 4899SOL    HW319369   1.042   2.746   2.237  0.7395 -1.8950  1.2142
 4899SOL    MW419370   1.115   2.792   2.250 -0.1379 -0.2417  0.4783
 4900SOL     OW19371   3.627   6.091   3.386  0.2223  0.2282 -0.0125
 4900SOL    HW219372   3.568   6.037   3.439 -0.8892  1.4007 -0.0157
 4900SOL    HW319373   3.570   6.135   3.323  1.2455  0.5810 -0.7301
 4900SOL    MW419374   3.612   6.089   3.385  0.2106  0.4295 -0.1076
 4901SOL     OW19375   4.238   3.326   3.726 -0.1229 -0.1208  0.6782
 4901SOL    HW219376   4.197   3.244   3.699 -1.9202  0.0815  2.5022
 4901SOL    HW319377   4.320   3.299   3.767 -0.5414 -0.9869  0.9750
 4901SOL    MW419378   4.243   3.312   3.728 -0.4152 -0.2084  0.9580
 4902SOL     OW19379   5.324   0.345   0.356  0.2554  0.3156  0.2095
 4902SOL    HW219380   5.391   0.296   0.404 -1.3156 -1.7436  0.4505
 4902SOL    HW319381   5.272   0.388   0.424 -0.8969 -1.1771  0.3439
 4902SOL    MW419382   5.326   0.344   0.371 -0.1039 -0.1530  0.2590
 4903SOL     OW19383   5.305   0.554   6.088 -0.5314  0.6906 -0.1260
 4903SOL    HW219384   5.357   0.608   6.149  0.0337 -1.0006  0.9572
 4903SOL    HW319385   5.275   0.480   6.141 -1.0390 -0.2200 -1.6289
 4903SOL    MW419386   5.308   0.552   6.103 -0.5238  0.3473 -0.1814
 4904SOL     OW19387   5.359   0.365   1.462  0.1035  0.1428  0.0504
 4904SOL    HW219388   5.336   0.458   1.465  2.7909  0.9478 -1.4105
 4904SOL    HW319389   5.445   0.360   1.504 -0.6619 -1.9957  1.5491
 4904SOL    MW419390   5.367   0.376   1.468  0.3571 -0.0331  0.0554
 4905SOL     OW19391   4.591   0.884   0.158  0.4844  0.3954 -0.0912
 4905SOL    HW219392   4.545   0.805   0.187 -0.3667  0.2867 -1.5764
 4905SOL    HW319393   4.537   0.956   0.191 -0.3930  0.2764 -1.1785
 4905SOL    MW419394   4.578   0.883   0.166  0.2564  0.3654 -0.4306
 4906SOL     OW19395   5.049   2.911   3.581  0.1646 -0.5447 -0.1275
 4906SOL    HW219396   4.957   2.925   3.602  0.4073 -1.2545  1.6446
 4906SOL    HW319397   5.050   2.883   3.490 -1.3745 -0.6975 -0.1166
 4906SOL    MW419398   5.037   2.909   3.572 -0.0064 -0.6585  0.1077
 4907SOL     OW19399   2.166   1.349   0.753  0.4838  0.1877 -0.6419
 4907SOL    HW219400   2.136   1.301   0.830  0.4958  1.1714 -0.0123
 4907SOL    HW319401   2.262   1.352   0.763  0.6285 -0.9922 -1.4877
 4907SOL    MW419402   2.175   1.343   0.765  0.5045  0.1618 -0.6704
 4908SOL     OW19403   4.913   2.555   2.307 -0.3837  0.6925 -0.6956
 4908SOL    HW219404   4.827   2.574   2.343 -0.1394  0.0196  0.2651
 4908SOL    HW319405   4.902   2.568   2.212 -2.9951 -4.1910 -1.3966
 4908SOL    MW419406   4.900   2.559   2.299 -0.6960 -0.0406 -0.6613
 4909SOL     OW19407   4.658   4.683   2.594 -0.8206 -0.1584 -0.3161
 4909SOL    HW219408   4.721   4.629   2.548 -1.5183 -0.6724 -0.6798
 4909SOL    HW319409   4.653   4.645   2.681 -0.2755  0.1845 -0.1251
 4909SOL    MW419410   4.666   4.671   2.599 -0.8408 -0.1810 -0.3389
 4910SOL     OW19411   3.083   3.023   0.110  0.1027 -0.8232 -0.7145
 4910SOL    HW219412   3.119   3.033   0.022  0.7979  0.9008 -0.2780
 4910SOL    HW319413   3.131   3.087   0.163 -1.0354 -1.0864  0.6992
 4910SOL    MW419414   3.094   3.033   0.106  0.0442 -0.6304 -0.4704
 4911SOL     OW19415   2.935   4.843   1.715  0.0493 -0.3142  0.2796
 4911SOL    HW219416   2.906   4.770   1.770 -0.6476  0.0878  0.4637
 4911SOL    HW319417   2.856   4.870   1.667 -0.3223  1.8113  1.9217
 4911SOL    MW419418   2.920   4.837   1.716 -0.0917  0.0193  0.5205
 4912SOL     OW19419   4.518   3.478   0.181  0.8927  0.4314 -0.4342
 4912SOL    HW219420   4.604   3.485   0.221  0.4043 -2.1065  1.3230
 4912SOL    HW319421   4.519   3.392   0.137 -0.8793  0.0971  0.1062
 4912SOL    MW419422   4.529   3.467   0.180  0.5945  0.0525 -0.1311
 4913SOL     OW19423   3.160   6.160   3.676 -0.5152 -0.6307  0.0465
 4913SOL    HW219424   3.150   6.247   3.637  0.6032  0.2146  1.5442
 4913SOL    HW319425   3.087   6.110   3.640 -0.7388  0.6878 -1.4650
 4913SOL    MW419426   3.149   6.165   3.666 -0.3971 -0.3452  0.0446
 4914SOL     OW19427   2.122   1.532   6.354  0.1724  0.0431  0.2701
 4914SOL    HW219428   2.052   1.577   6.308  0.5838  0.4146 -0.0071
 4914SOL    HW319429   2.184   1.602   6.377  2.3122 -0.6408 -2.7733
 4914SOL    MW419430   2.121   1.548   6.351  0.5090  0.0019 -0.1680
 4915SOL     OW19431   5.740   6.161   1.684  0.7302 -0.0348 -0.3033
 4915SOL    HW219432   5.730   6.067   1.699  3.5773 -0.6576 -1.5553
 4915SOL    HW319433   5.813   6.186   1.740  0.9048  1.1076 -1.0074
 4915SOL    MW419434   5.749   6.152   1.693  1.1289  0.0337 -0.5614
 4916SOL     OW19435   4.282   5.727   0.049 -0.2485  0.6219 -0.3384
 4916SOL    HW219436   4.221   5.719  -0.025 -0.2634  2.1071 -0.5268
 4916SOL    HW319437   4.283   5.640   0.089 -1.3465  0.1741 -1.2220
 4916SOL    MW419438   4.274   5.715   0.044 -0.3953  0.7588 -0.4798
 4917SOL     OW19439   0.564   5.554   5.004  0.1217  0.0356 -0.7309
 4917SOL    HW219440   0.636   5.610   4.976  0.5690 -1.7657 -3.5675
 4917SOL    HW319441   0.499   5.560   4.934 -1.9102  0.5105  1.0940
 4917SOL    MW419442   0.565   5.562   4.991 -0.0874 -0.1394 -0.8644
 4918SOL     OW19443   4.500   3.775   6.064  0.5020 -0.3348  0.5165
 4918SOL    HW219444   4.464   3.800   6.149  1.3284 -3.5864  2.0165
 4918SOL    HW319445   4.423   3.761   6.009 -0.0675  1.4200  0.8162
 4918SOL    MW419446   4.485   3.776   6.068  0.5359 -0.5323  0.7539
 4919SOL     OW19447   0.055   3.873   1.586 -0.3057  0.3319 -0.0589
 4919SOL    HW219448   0.037   3.814   1.513 -0.6853  0.1090  0.2104
 4919SOL    HW319449   0.069   3.815   1.661  2.0564  0.4601 -0.3284
 4919SOL    MW419450   0.054   3.858   1.587 -0.0441  0.3194 -0.0589
 4920SOL     OW19451   2.866   3.443   1.643 -0.4928 -0.0287  0.1332
 4920SOL    HW219452   2.891   3.400   1.562  0.3685 -0.1241  0.4485
 4920SOL    HW319453   2.787   3.397   1.672 -1.1413  0.3764 -0.9380
 4920SOL    MW419454   2.859   3.432   1.636 -0.4647  0.0121  0.0335
 4921SOL     OW19455   5.111   1.728   2.039 -0.1344 -0.0219  0.0889
 4921SOL    HW219456   5.030   1.686   2.009 -0.2372 -1.4023  2.0886
 4921SOL    HW319457   5.180   1.684   1.991 -0.4687  0.3580 -0.7715
 4921SOL    MW419458   5.109   1.717   2.029 -0.1920 -0.1539  0.2393
 4922SOL     OW19459   5.135   3.639   1.787  1.0882  0.1221 -0.5784
 4922SOL    HW219460   5.224   3.616   1.813  0.9346 -0.8300 -0.8515
 4922SOL    HW319461   5.136   3.632   1.691  0.7849  0.3519 -0.5986
 4922SOL    MW419462   5.147   3.635   1.778  1.0279  0.0268 -0.6171
 4923SOL     OW19463   1.502   0.920   4.081  0.5258  0.0106  0.7622
 4923SOL    HW219464   1.455   1.004   4.074  0.5146 -0.0133  0.5220
 4923SOL    HW319465   1.584   0.942   4.126  0.6983  0.2251  0.3528
 4923SOL    MW419466   1.507   0.934   4.086  0.5471  0.0358  0.6765
 4924SOL     OW19467   0.840   1.986   0.291  0.0939 -0.2574  0.2240
 4924SOL    HW219468   0.771   1.932   0.251  0.0911 -0.0186 -0.1047
 4924SOL    HW319469   0.839   1.962   0.383 -0.4468 -0.2486  0.2265
 4924SOL    MW419470   0.831   1.976   0.298  0.0222 -0.2247  0.1810
 4925SOL     OW19471   0.041   0.978   0.243 -0.2917  0.1598  0.6429
 4925SOL    HW219472  -0.007   1.052   0.205  0.8229  1.1579  1.1232
 4925SOL    HW319473   0.038   0.993   0.337 -0.5099 -0.7101  0.7795
 4925SOL    MW419474   0.034   0.990   0.250 -0.1734  0.1767  0.7243
 4926SOL     OW19475   6.405   6.451   5.951  0.0148 -0.3290 -0.2650
 4926SOL    HW219476   6.334   6.454   5.887 -1.1250 -0.1181  0.9573
 4926SOL    HW319477   6.477   6.498   5.910 -1.6196  2.3428 -0.2981
 4926SOL    MW419478   6.405   6.457   5.937 -0.3512  0.0514 -0.1081
 4927SOL     OW19479   4.411   1.418   2.242 -0.0753 -0.0527  0.2956
 4927SOL    HW219480   4.422   1.332   2.283  0.5056 -1.2033 -2.0662
 4927SOL    HW319481   4.352   1.465   2.301 -0.8504 -2.2660  1.4239
 4927SOL    MW419482   4.405   1.413   2.255 -0.1009 -0.4965  0.1329
 4928SOL     OW19483   3.900   2.923   4.132 -0.3763 -0.4790 -0.2145
 4928SOL    HW219484   3.845   2.870   4.074 -0.6174  1.0537 -1.4549
 4928SOL    HW319485   3.838   2.958   4.197 -0.8431  0.9306 -1.3778
 4928SOL    MW419486   3.884   2.920   4.133 -0.4697 -0.0908 -0.5317
 4929SOL     OW19487   5.154   6.177   4.411  0.1624  0.0584  0.0580
 4929SOL    HW219488   5.217   6.181   4.483  0.6167  1.8267 -0.3889
 4929SOL    HW319489   5.194   6.229   4.341 -0.7785 -0.6859 -1.0777
 4929SOL    MW419490   5.168   6.184   4.411  0.0982  0.1935 -0.1508
 4930SOL     OW19491   1.812   1.485   0.738  0.6553  0.0187 -0.2065
 4930SOL    HW219492   1.884   1.524   0.689 -0.9617  4.8506  0.6948
 4930SOL    HW319493   1.821   1.520   0.827 -0.4313 -2.8269  1.1845
 4930SOL    MW419494   1.823   1.495   0.743  0.2986  0.2808  0.0960
 4931SOL     OW19495   3.723   0.173   2.485  0.0353 -0.1123  0.8686
 4931SOL    HW219496   3.768   0.117   2.422  0.0210 -0.1631  0.9034
 4931SOL    HW319497   3.681   0.241   2.431 -0.9542 -0.8258  0.7146
 4931SOL    MW419498   3.723   0.175   2.470 -0.0972 -0.2132  0.8529
 4932SOL     OW19499   0.547   5.881   0.952  0.3856  0.0295 -0.7747
 4932SOL    HW219500   0.480   5.949   0.958 -0.0220 -0.4084 -0.2557
 4932SOL    HW319501   0.630   5.928   0.958  0.1029  0.4158  0.2700
 4932SOL    MW419502   0.549   5.896   0.953  0.2946  0.0227 -0.5684
 4933SOL     OW19503   0.838   6.057   5.433 -0.0181  0.2291  0.0917
 4933SOL    HW219504   0.913   6.042   5.489 -0.5973  1.6319  1.3228
 4933SOL    HW319505   0.775   5.989   5.457 -0.7919  1.5775  2.2083
 4933SOL    MW419506   0.840   6.046   5.443 -0.1966  0.5921  0.5334
 4934SOL     OW19507   6.018   4.940   6.309 -0.1028 -0.1237 -0.0708
 4934SOL    HW219508   6.067   4.867   6.346  0.6840 -0.2500 -1.3176
 4934SOL    HW319509   6.060   5.018   6.345  0.1966 -0.2499 -0.1511
 4934SOL    MW419510   6.030   4.941   6.319  0.0405 -0.1570 -0.2459
 4935SOL     OW19511   0.688   0.457   0.309  0.5861  0.3297  0.9616
 4935SOL    HW219512   0.690   0.548   0.280  1.8346  0.0423  0.0479
 4935SOL    HW319513   0.623   0.455   0.379 -2.0050  1.2297 -1.2441
 4935SOL    MW419514   0.680   0.469   0.314  0.4090  0.4105  0.5501
 4936SOL     OW19515   5.820   3.909   4.117  0.0793  0.5282  1.1232
 4936SOL    HW219516   5.835   3.950   4.032  0.7470 -0.0529  0.9479
 4936SOL    HW319517   5.787   3.980   4.173 -2.2599  0.4914 -0.1189
 4936SOL    MW419518   5.818   3.924   4.113 -0.1412  0.4466  0.9362
 4937SOL     OW19519   4.031   0.743   6.297  0.3411  0.0327 -0.0555
 4937SOL    HW219520   3.941   0.711   6.288  0.0816  0.8749 -0.5061
 4937SOL    HW319521   4.049   0.736   6.391 -0.6244  1.0026  0.2201
 4937SOL    MW419522   4.022   0.738   6.308  0.1795  0.2718 -0.0786
 4938SOL     OW19523   2.549   2.838   6.397  0.2509 -0.1685  0.5058
 4938SOL    HW219524   2.515   2.927   6.387  0.3671 -0.2304 -0.5172
 4938SOL    HW319525   2.634   2.849   6.440  1.0304  0.3779 -1.0861
 4938SOL    MW419526   2.556   2.851   6.401  0.3691 -0.1045  0.1608
 4939SOL     OW19527   2.898   1.839   1.595 -0.3507  0.1269  0.3110
 4939SOL    HW219528   2.857   1.923   1.618  0.0098 -0.0043  1.4845
 4939SOL    HW319529   2.988   1.847   1.624 -0.1642 -0.4809 -0.0699
 4939SOL    MW419530   2.904   1.851   1.602 -0.2785  0.0294  0.4155
 4940SOL     OW19531   1.351   5.527   5.428 -0.0264 -0.2501 -0.0885
 4940SOL    HW219532   1.386   5.602   5.380 -0.8922 -0.4896 -1.1277
 4940SOL    HW319533   1.369   5.452   5.372  0.3672 -0.7597  0.7055
 4940SOL    MW419534   1.358   5.527   5.414 -0.0887 -0.3489 -0.1208
 4941SOL     OW19535   5.918   2.292   2.998 -0.2963  0.5932  1.0321
 4941SOL    HW219536   5.902   2.200   3.021  4.0553 -0.9353 -0.9317
 4941SOL    HW319537   5.952   2.331   3.079 -0.8298  0.1149  1.5009
 4941SOL    MW419538   5.920   2.285   3.012  0.2075  0.3284  0.8348
 4942SOL     OW19539   5.934   6.036   2.481 -0.2639  0.0078  0.2394
 4942SOL    HW219540   5.955   5.944   2.498 -3.8159 -1.2855 -1.4945
 4942SOL    HW319541   5.984   6.058   2.402  0.2951 -0.5110  0.4364
 4942SOL    MW419542   5.944   6.027   2.473 -0.6588 -0.2313  0.0366
 4943SOL     OW19543   2.532   1.336   2.122 -0.1516  0.4432  0.1516
 4943SOL    HW219544   2.554   1.275   2.052  1.5872 -0.4291  1.3943
 4943SOL    HW319545   2.550   1.422   2.085 -0.1460  0.0617 -0.7608
 4943SOL    MW419546   2.537   1.339   2.108  0.0786  0.2778  0.1952
 4944SOL     OW19547   5.164   5.133   5.868  0.8321  0.7683 -0.4373
 4944SOL    HW219548   5.202   5.093   5.946 -1.6617  0.4675  0.7163
 4944SOL    HW319549   5.104   5.200   5.902  0.4510  1.3586 -2.1481
 4944SOL    MW419550   5.161   5.137   5.882  0.4528  0.8065 -0.5108
 4945SOL     OW19551   1.199   1.569   4.320 -0.0831 -0.2049 -0.2284
 4945SOL    HW219552   1.141   1.641   4.344 -0.8922 -1.4908  1.9410
 4945SOL    HW319553   1.285   1.594   4.353  0.1939  0.7567 -1.5784
 4945SOL    MW419554   1.203   1.581   4.327 -0.1533 -0.2477 -0.1203
 4946SOL     OW19555   1.587   5.787   3.542  0.5892 -0.1050 -0.4488
 4946SOL    HW219556   1.641   5.756   3.469  0.1067  0.5384 -1.0969
 4946SOL    HW319557   1.603   5.881   3.547  1.2713 -0.2685  0.8502
 4946SOL    MW419558   1.596   5.795   3.533  0.6155 -0.0417 -0.3629
 4947SOL     OW19559   5.452   3.025   3.169 -0.2521  0.1415  0.7098
 4947SOL    HW219560   5.504   2.969   3.112  0.7554 -0.7461  2.4164
 4947SOL    HW319561   5.446   3.108   3.122  1.8678 -0.0485 -0.0276
 4947SOL    MW419562   5.458   3.028   3.155  0.1605 -0.0007  0.8377
 4948SOL     OW19563   4.032   3.636   2.826  0.2445 -0.8204 -0.5656
 4948SOL    HW219564   4.127   3.622   2.824  0.2216 -1.2692  0.7125
 4948SOL    HW319565   4.022   3.729   2.848  0.4157 -1.1312  0.9606
 4948SOL    MW419566   4.044   3.646   2.829  0.2640 -0.9206 -0.1956
 4949SOL     OW19567   4.653   4.997   0.730 -0.6403 -0.0393 -0.0178
 4949SOL    HW219568   4.566   5.036   0.718  0.2352  1.9412 -0.2759
 4949SOL    HW319569   4.676   4.964   0.643 -0.0344  1.9133 -0.6469
 4949SOL    MW419570   4.645   4.998   0.717 -0.4448  0.4797 -0.1349
 4950SOL     OW19571   4.751   2.363   1.801  0.1313 -0.2557  0.4312
 4950SOL    HW219572   4.671   2.378   1.751  0.6086 -0.8721 -0.5502
 4950SOL    HW319573   4.767   2.269   1.793  1.1354 -0.0902  0.3129
 4950SOL    MW419574   4.743   2.352   1.793  0.3268 -0.3152  0.2861
 4951SOL     OW19575   6.215   3.404   5.227  0.5132  0.0463 -0.1052
 4951SOL    HW219576   6.293   3.367   5.269  0.3861 -0.4175 -0.2732
 4951SOL    HW319577   6.200   3.349   5.151 -0.9745 -0.9486  0.8552
 4951SOL    MW419578   6.223   3.392   5.223  0.3001 -0.1461 -0.0007
 4952SOL     OW19579   2.283   2.200   5.131 -1.0130  0.0059 -0.0366
 4952SOL    HW219580   2.307   2.291   5.149 -1.0158  0.2611 -1.2732
 4952SOL    HW319581   2.265   2.197   5.037  1.8724 -1.8712 -0.6844
 4952SOL    MW419582   2.284   2.211   5.121 -0.6327 -0.2081 -0.2852
 4953SOL     OW19583   3.930   6.218   0.482 -0.0531 -0.1343 -0.1243
 4953SOL    HW219584   3.898   6.239   0.570 -0.4135  0.1808 -0.3248
 4953SOL    HW319585   3.998   6.152   0.496  0.6407  0.6864  0.4794
 4953SOL    MW419586   3.934   6.212   0.496 -0.0091  0.0155 -0.0711
 4954SOL     OW19587   2.204   4.080   4.589 -0.1455 -0.1659 -0.4032
 4954SOL    HW219588   2.151   4.014   4.632 -1.1871  1.0449  0.2279
 4954SOL    HW319589   2.146   4.118   4.523  0.4971 -0.0052 -0.8835
 4954SOL    MW419590   2.189   4.077   4.586 -0.1982  0.0150 -0.3833
 4955SOL     OW19591   3.262   2.787   3.677  0.0431 -0.4817 -0.1492
 4955SOL    HW219592   3.287   2.716   3.617 -0.7709 -1.0003  0.0934
 4955SOL    HW319593   3.275   2.750   3.764  2.0647  0.5790  0.0324
 4955SOL    MW419594   3.267   2.773   3.681  0.2024 -0.4102 -0.0933
 4956SOL     OW19595   5.724   4.780   2.945  0.2181  0.1219  0.2529
 4956SOL    HW219596   5.647   4.820   2.987  0.1538  1.0659 -0.7142
 4956SOL    HW319597   5.750   4.844   2.878  1.2784 -0.6218 -0.0619
 4956SOL    MW419598   5.717   4.794   2.942  0.3495  0.1483  0.0838
 4957SOL     OW19599   5.039   4.463   4.303  0.3472  0.0845  0.1668
 4957SOL    HW219600   5.131   4.468   4.329  0.1526  0.0863  0.9027
 4957SOL    HW319601   5.039   4.418   4.219  1.1875  1.9975 -0.8962
 4957SOL    MW419602   5.051   4.457   4.296  0.4324  0.3371  0.1236
 4958SOL     OW19603   4.011   6.359   2.432 -0.5255  1.3457  0.5248
 4958SOL    HW219604   3.977   6.449   2.429 -2.2888  0.7233  0.0369
 4958SOL    HW319605   3.980   6.325   2.516 -1.3093  0.7060 -0.0057
 4958SOL    MW419606   4.002   6.366   2.442 -0.8616  1.1792  0.3904
 4959SOL     OW19607   0.998   2.844   4.885  0.2195  0.0065  0.4387
 4959SOL    HW219608   1.073   2.887   4.845  1.2390 -2.3264 -0.3633
 4959SOL    HW319609   1.034   2.764   4.924 -1.4610  0.0681  2.3027
 4959SOL    MW419610   1.012   2.839   4.885  0.1323 -0.2932  0.5788
 4960SOL     OW19611   1.864   4.536   6.303  0.1116  0.2334  0.0089
 4960SOL    HW219612   1.874   4.516   6.210 -4.1791 -0.6642 -0.4557
 4960SOL    HW319613   1.780   4.581   6.309  0.2791  0.3384  3.4922
 4960SOL    MW419614   1.854   4.539   6.292 -0.4324  0.1288  0.4072
 4961SOL     OW19615   4.456   0.048   1.021 -0.5727  0.1610  0.0775
 4961SOL    HW219616   4.414   0.049   1.108  0.6725  0.9933  0.7074
 4961SOL    HW319617   4.488   0.138   1.010 -0.6781  0.0430 -1.2351
 4961SOL    MW419618   4.454   0.060   1.031 -0.4224  0.2552 -0.0126
 4962SOL     OW19619   1.426   5.265   3.937 -0.8062  0.1298  0.1747
 4962SOL    HW219620   1.413   5.199   4.005 -1.0598 -0.0447 -0.0467
 4962SOL    HW319621   1.425   5.217   3.855  1.0729  0.1074  0.1176
 4962SOL    MW419622   1.424   5.250   3.935 -0.5917  0.1038  0.1380
 4963SOL     OW19623   0.063   1.450   3.892 -0.3129  0.3994  0.2553
 4963SOL    HW219624   0.059   1.435   3.797  2.9228 -2.6878  0.3650
 4963SOL    HW319625   0.138   1.509   3.903  0.0540 -0.1734  0.9032
 4963SOL    MW419626   0.073   1.456   3.881  0.1624 -0.0835  0.3552
 4964SOL     OW19627   1.794   4.422   1.209 -0.4211 -0.1623  0.1387
 4964SOL    HW219628   1.815   4.436   1.301 -1.0304 -0.0963  0.2724
 4964SOL    HW319629   1.723   4.358   1.210 -0.3667 -0.2300 -0.2869
 4964SOL    MW419630   1.787   4.416   1.221 -0.4943 -0.1625  0.1002
 4965SOL     OW19631   2.119   4.973   3.124  0.3097  0.2899  0.0060
 4965SOL    HW219632   2.051   4.982   3.191 -0.0213  0.1075 -0.3041
 4965SOL    HW319633   2.192   4.931   3.170  0.1958  0.4460  0.3296
 4965SOL    MW419634   2.120   4.968   3.139  0.2510  0.2865  0.0078
 4966SOL     OW19635   5.116   3.032   1.481 -0.4023 -0.4390  0.4753
 4966SOL    HW219636   5.044   2.984   1.521 -0.1715 -1.5199 -0.3571
 4966SOL    HW319637   5.151   2.972   1.415 -0.0579  0.8434 -0.5503
 4966SOL    MW419638   5.111   3.018   1.477 -0.3264 -0.4124  0.2301
 4967SOL     OW19639   4.660   1.845   4.081  0.0484 -0.1351  0.4412
 4967SOL    HW219640   4.565   1.860   4.082  0.0271 -0.1658 -0.4937
 4967SOL    HW319641   4.698   1.932   4.085 -0.0204 -0.1230  0.8311
 4967SOL    MW419642   4.652   1.858   4.082  0.0365 -0.1376  0.3693
 4968SOL     OW19643   4.303   0.899   6.172  0.0215 -0.8576 -0.1640
 4968SOL    HW219644   4.340   0.931   6.090 -1.0315 -1.4243 -0.8743
 4968SOL    HW319645   4.370   0.840   6.207  0.5662 -0.4473 -0.5020
 4968SOL    MW419646   4.317   0.895   6.166 -0.0456 -0.8782 -0.3023
 4969SOL     OW19647   3.267   4.695   1.713  0.1462 -0.2944  0.0882
 4969SOL    HW219648   3.213   4.716   1.636 -0.1265 -0.6518  0.1776
 4969SOL    HW319649   3.355   4.682   1.677 -0.3428 -2.4948 -0.5027
 4969SOL    MW419650   3.272   4.696   1.698  0.0457 -0.6318  0.0220
 4970SOL     OW19651   3.353   0.427   5.521 -0.1159 -0.5531 -0.8727
 4970SOL    HW219652   3.290   0.497   5.536  0.4259  0.5388 -3.1905
 4970SOL    HW319653   3.314   0.349   5.561 -1.1215  0.8566  1.0410
 4970SOL    MW419654   3.340   0.426   5.528 -0.1771 -0.2231 -0.9260
 4971SOL     OW19655   5.515   1.467   5.503 -0.1520  0.3977  0.4734
 4971SOL    HW219656   5.590   1.441   5.557 -0.9852 -1.8886  0.6153
 4971SOL    HW319657   5.454   1.507   5.564  0.9638  2.4986  0.3226
 4971SOL    MW419658   5.517   1.469   5.518 -0.1147  0.3732  0.4723
 4972SOL     OW19659   4.786   3.707   3.752  0.1235  0.1848 -0.2215
 4972SOL    HW219660   4.692   3.691   3.755  0.0895  0.1792 -1.0238
 4972SOL    HW319661   4.800   3.785   3.806 -0.3445  0.2192 -0.1505
 4972SOL    MW419662   4.776   3.715   3.759  0.0573  0.1886 -0.3180
 4973SOL     OW19663   3.777   3.506   2.364 -0.2861 -0.4592  0.2702
 4973SOL    HW219664   3.844   3.455   2.320  2.0347  1.0934  1.7951
 4973SOL    HW319665   3.755   3.576   2.302 -0.1643 -0.7070 -0.0557
 4973SOL    MW419666   3.783   3.509   2.350  0.0361 -0.2870  0.4284
 4974SOL     OW19667   1.541   0.231   3.527 -0.0077 -0.4238  0.3417
 4974SOL    HW219668   1.573   0.312   3.487  0.1597 -1.2088 -1.1741
 4974SOL    HW319669   1.557   0.164   3.461 -2.3383 -1.2982  0.5839
 4974SOL    MW419670   1.547   0.233   3.513 -0.2931 -0.6428  0.1737
 4975SOL     OW19671   1.357   4.697   3.477 -0.1884 -0.6020  0.1614
 4975SOL    HW219672   1.312   4.673   3.396  0.7735  1.3644 -1.0502
 4975SOL    HW319673   1.422   4.628   3.490  1.4971  0.3522 -2.3589
 4975SOL    MW419674   1.360   4.685   3.468  0.1609 -0.2167 -0.3310
 4976SOL     OW19675   0.232   1.979   5.493 -0.0336 -0.0596  0.0115
 4976SOL    HW219676   0.206   2.060   5.451  1.2049 -0.3199 -1.3254
 4976SOL    HW319677   0.157   1.921   5.483 -0.0352  0.1312 -1.2264
 4976SOL    MW419678   0.219   1.982   5.486  0.1296 -0.0688 -0.3282
 4977SOL     OW19679   2.038   4.377   4.078  0.4338 -0.3103 -0.0441
 4977SOL    HW219680   2.067   4.355   4.166  2.0319 -0.7498 -0.6451
 4977SOL    HW319681   2.016   4.470   4.082 -0.4055 -0.5407  1.0222
 4977SOL    MW419682   2.039   4.387   4.090  0.5339 -0.3987  0.0173
 4978SOL     OW19683   3.462   3.837   3.502  0.1303  0.0787  0.2573
 4978SOL    HW219684   3.369   3.824   3.483 -0.1049 -0.2870  1.5619
 4978SOL    HW319685   3.506   3.763   3.460 -0.2661 -0.2331  0.3841
 4978SOL    MW419686   3.455   3.826   3.494  0.0470 -0.0107  0.4461
 4979SOL     OW19687   0.001   1.314   3.196  0.0560 -0.5331 -0.1387
 4979SOL    HW219688   0.037   1.244   3.251 -0.1980  0.8853  1.9463
 4979SOL    HW319689   0.063   1.386   3.205  0.1273 -0.3131 -1.9599
 4979SOL    MW419690   0.014   1.314   3.204  0.0319 -0.3169 -0.1039
 4980SOL     OW19691   5.351   3.806   0.564 -0.8051  0.5364  0.4028
 4980SOL    HW219692   5.301   3.727   0.544 -0.3486  0.0613  1.0887
 4980SOL    HW319693   5.432   3.774   0.604  0.4318  1.2573 -1.3966
 4980SOL    MW419694   5.355   3.791   0.567 -0.5817  0.5688  0.2559
 4981SOL     OW19695   5.138   6.071   4.768 -0.2913 -0.4590 -0.1195
 4981SOL    HW219696   5.144   6.056   4.862 -1.9013 -2.4477 -0.2612
 4981SOL    HW319697   5.119   6.165   4.760  1.5878  0.1077  1.3999
 4981SOL    MW419698   5.136   6.081   4.779 -0.2558 -0.6466  0.0623
 4982SOL     OW19699   4.271   0.541   5.485 -0.0095  0.3344  0.1175
 4982SOL    HW219700   4.211   0.561   5.414  0.1260 -0.9361 -0.3684
 4982SOL    HW319701   4.255   0.610   5.550 -1.0426  0.7615 -0.5740
 4982SOL    MW419702   4.261   0.553   5.484 -0.1279  0.2231 -0.0379
 4983SOL     OW19703   5.027   5.155   3.600 -0.0447  0.0698 -0.5746
 4983SOL    HW219704   5.003   5.140   3.692 -0.5952 -1.9577 -0.9953
 4983SOL    HW319705   5.113   5.114   3.592 -0.5392 -0.8824 -1.2234
 4983SOL    MW419706   5.035   5.147   3.611 -0.1826 -0.3233 -0.7157
 4984SOL     OW19707   6.316   4.563   3.418  0.4956 -0.3402  0.1549
 4984SOL    HW219708   6.231   4.522   3.405 -0.3561  1.0007  1.2875
 4984SOL    HW319709   6.365   4.500   3.472  0.4788 -1.3887 -1.0179
 4984SOL    MW419710   6.311   4.549   3.423  0.3810 -0.3016  0.1496
 4985SOL     OW19711   0.733   6.087   1.010  0.4297  0.1353  0.1269
 4985SOL    HW219712   0.817   6.042   1.017 -0.6340 -1.9675  0.1239
 4985SOL    HW319713   0.708   6.104   1.101  0.3275 -0.3424  0.1946
 4985SOL    MW419714   0.740   6.083   1.023  0.2759 -0.2052  0.1354
 4986SOL     OW19715   6.067   2.765   1.829  0.2413 -0.0224  0.3177
 4986SOL    HW219716   5.986   2.714   1.819  0.6426 -0.7819  0.9326
 4986SOL    HW319717   6.067   2.823   1.753 -0.3926 -0.7020 -0.2200
 4986SOL    MW419718   6.056   2.766   1.817  0.2106 -0.2122  0.3278
 4987SOL     OW19719   2.533   2.497   0.919 -0.6753 -0.1619  0.2410
 4987SOL    HW219720   2.473   2.563   0.954 -1.3954 -1.0962  0.7930
 4987SOL    HW319721   2.477   2.426   0.890  0.1726 -1.1873  1.0307
 4987SOL    MW419722   2.518   2.496   0.920 -0.6585 -0.4205  0.4180
 4988SOL     OW19723   0.804   2.208   2.345  0.3604 -0.5116 -0.0221
 4988SOL    HW219724   0.763   2.251   2.421  0.3773  0.2678 -0.4393
 4988SOL    HW319725   0.789   2.115   2.359 -2.5315 -0.2349 -0.6656
 4988SOL    MW419726   0.796   2.201   2.357 -0.0190 -0.3723 -0.1620
 4989SOL     OW19727   0.364   1.832   2.865  0.1413 -0.0330 -0.5052
 4989SOL    HW219728   0.419   1.846   2.787 -1.8518 -1.0014 -2.1773
 4989SOL    HW319729   0.421   1.784   2.925  1.6790  0.5340 -1.4276
 4989SOL    MW419730   0.379   1.827   2.862  0.0812 -0.0860 -0.8475
 4990SOL     OW19731   0.544   5.410   0.252  0.0876 -0.0392 -0.2424
 4990SOL    HW219732   0.594   5.403   0.171  1.4622 -0.0365  0.5778
 4990SOL    HW319733   0.576   5.338   0.306  0.8072  1.2509  1.1333
 4990SOL    MW419734   0.555   5.399   0.248  0.3639  0.1314  0.0473
 4991SOL     OW19735   1.638   4.173   1.310  0.5556 -0.0315  0.1449
 4991SOL    HW219736   1.552   4.215   1.320  0.2717 -0.7030  0.5930
 4991SOL    HW319737   1.634   4.131   1.225  0.9038  0.9727 -0.3854
 4991SOL    MW419738   1.626   4.173   1.300  0.5641  0.0124  0.1340
 4992SOL     OW19739   5.185   4.841   1.781 -0.0230  0.6278  0.2877
 4992SOL    HW219740   5.210   4.806   1.696  2.4195  1.6394  0.4890
 4992SOL    HW319741   5.101   4.884   1.767 -0.6956 -1.0310 -1.0674
 4992SOL    MW419742   5.177   4.842   1.768  0.2105  0.5424  0.1355
 4993SOL     OW19743   1.453   4.678   2.873 -0.2849 -0.0515  0.1997
 4993SOL    HW219744   1.381   4.733   2.842 -0.4179  0.5848  1.5719
 4993SOL    HW319745   1.513   4.673   2.799 -0.5275  1.5251 -0.1471
 4993SOL    MW419746   1.451   4.685   2.859 -0.3344  0.2404  0.3350
 4994SOL     OW19747   1.837   3.815   2.965 -0.5905 -0.0947 -0.6455
 4994SOL    HW219748   1.922   3.780   2.940  1.3155  1.5147  2.8902
 4994SOL    HW319749   1.795   3.745   3.014  0.9983  0.6666  1.9678
 4994SOL    MW419750   1.843   3.801   2.968 -0.1294  0.2181  0.1658
 4995SOL     OW19751   2.396   1.004   6.266  0.1115 -0.1733 -0.2376
 4995SOL    HW219752   2.351   0.994   6.182 -0.2921  0.1784 -0.0669
 4995SOL    HW319753   2.376   1.094   6.294  2.8446  0.8632 -1.2699
 4995SOL    MW419754   2.388   1.015   6.259  0.4189  0.0099 -0.3513
 4996SOL     OW19755   1.102   5.053   3.406 -0.5053  0.1185 -0.0054
 4996SOL    HW219756   1.078   5.013   3.322  0.9301 -0.6699 -0.0718
 4996SOL    HW319757   1.197   5.050   3.407 -0.4358  1.6293  0.9511
 4996SOL    MW419758   1.111   5.048   3.395 -0.3068  0.2138  0.1121
 4997SOL     OW19759   4.927   3.499   4.648  0.0979  0.0198 -0.1843
 4997SOL    HW219760   4.854   3.555   4.620  1.5352  1.1465 -1.9054
 4997SOL    HW319761   4.996   3.516   4.584  1.8731 -1.0708  1.3459
 4997SOL    MW419762   4.926   3.508   4.636  0.5217  0.0245 -0.2095
 4998SOL     OW19763   4.196   5.744   5.547 -0.2534 -0.0150  0.5464
 4998SOL    HW219764   4.277   5.795   5.557  0.2634 -1.1369  2.5757
 4998SOL    HW319765   4.144   5.794   5.485  1.7291  1.0795 -0.3337
 4998SOL    MW419766   4.200   5.757   5.540  0.0764 -0.0186  0.6980
 4999SOL     OW19767   2.222   1.094   3.808  0.3002  0.3253 -0.4264
 4999SOL    HW219768   2.216   1.048   3.891  0.7411  0.1261 -0.5001
 4999SOL    HW319769   2.316   1.109   3.795  0.1870  1.0029 -0.5377
 4999SOL    MW419770   2.233   1.090   3.817  0.3435  0.3884 -0.4508
 5000SOL     OW19771   3.177   5.891   4.284 -0.3656  0.0985 -0.1588
 5000SOL    HW219772   3.192   5.803   4.249  1.7621 -0.4063  1.7628
 5000SOL    HW319773   3.133   5.877   4.368 -1.7613  1.0283 -0.7023
 5000SOL    MW419774   3.173   5.877   4.290 -0.2690  0.1546  0.0230
 5001SOL     OW19775   3.414   0.247   0.121 -0.0470  0.0344  0.0590
 5001SOL    HW219776   3.428   0.337   0.151  1.8041  0.3157 -1.4620
 5001SOL    HW319777   3.434   0.192   0.197  0.1185  0.8718  0.6262
 5001SOL    MW419778   3.419   0.251   0.135  0.2191  0.1820 -0.0669
 5002SOL     OW19779   4.160   2.888   4.838  0.1691  0.1549 -0.5591
 5002SOL    HW219780   4.121   2.972   4.813  1.5098  0.7502 -0.7432
 5002SOL    HW319781   4.137   2.878   4.930 -0.6344  0.3554 -0.7313
 5002SOL    MW419782   4.152   2.898   4.847  0.2400  0.2599 -0.6061
 5003SOL     OW19783   6.429   1.442   5.646  0.2793  0.3239  0.1449
 5003SOL    HW219784   6.472   1.454   5.730  0.4071  0.4939  0.0552
 5003SOL    HW319785   6.362   1.375   5.663  1.1139 -0.5401  0.1014
 5003SOL    MW419786   6.426   1.434   5.659  0.4063  0.2324  0.1273
 5004SOL     OW19787   6.220   4.655   1.840  0.3843 -0.2373 -0.8950
 5004SOL    HW219788   6.262   4.737   1.867 -1.9282  0.1248  2.2803
 5004SOL    HW319789   6.137   4.682   1.803 -0.1426 -1.0987 -0.3742
 5004SOL    MW419790   6.215   4.670   1.839  0.0096 -0.3032 -0.4073
 5005SOL     OW19791   0.124   2.592   3.716  0.1145  0.2029 -0.3909
 5005SOL    HW219792   0.043   2.631   3.683 -0.1543  0.3260  0.4015
 5005SOL    HW319793   0.166   2.663   3.765 -0.0508 -0.3056  0.4958
 5005SOL    MW419794   0.119   2.607   3.718  0.0572  0.1520 -0.1694
 5006SOL     OW19795   4.356   6.438   1.263  0.2786 -0.4231  0.0480
 5006SOL    HW219796   4.345   6.521   1.310  1.4226  0.1261 -0.6103
 5006SOL    HW319797   4.423   6.391   1.313 -0.0793 -0.7766  0.1956
 5006SOL    MW419798   4.363   6.442   1.276  0.3823 -0.3973 -0.0194
 5007SOL     OW19799   4.327   3.767   2.336 -0.2794  0.0825 -0.3699
 5007SOL    HW219800   4.290   3.824   2.268 -0.3794 -1.1211 -1.3647
 5007SOL    HW319801   4.251   3.720   2.370 -0.1630  0.3606  0.2828
 5007SOL    MW419802   4.312   3.769   2.331 -0.2772 -0.0396 -0.4151
 5008SOL     OW19803   2.937   1.486   2.777  0.4090  0.5758 -0.4246
 5008SOL    HW219804   3.014   1.453   2.731  0.7907  0.2249  0.4388
 5008SOL    HW319805   2.966   1.568   2.817  0.1469  0.7676 -0.6272
 5008SOL    MW419806   2.951   1.493   2.776  0.4248  0.5548 -0.3374
 5009SOL     OW19807   4.309   4.006   5.822 -0.6509 -0.3906 -0.9930
 5009SOL    HW219808   4.404   4.001   5.821 -0.7282 -2.8019 -2.8357
 5009SOL    HW319809   4.287   4.066   5.751 -0.5438 -0.1902 -0.8591
 5009SOL    MW419810   4.319   4.014   5.813 -0.6470 -0.6823 -1.2185
 5010SOL     OW19811   6.349   4.834   6.118 -0.0177 -0.1861  0.5640
 5010SOL    HW219812   6.311   4.746   6.111  0.0672 -0.1652 -0.1715
 5010SOL    HW319813   6.442   4.818   6.136  0.2630 -0.2764 -0.8346
 5010SOL    MW419814   6.356   4.820   6.120  0.0305 -0.1953  0.2824
 5011SOL     OW19815   4.498   3.519   0.738 -0.6269  0.2947 -0.1636
 5011SOL    HW219816   4.560   3.463   0.691 -2.0290 -1.4579  0.0064
 5011SOL    HW319817   4.531   3.521   0.828 -0.5289 -0.2259 -0.1843
 5011SOL    MW419818   4.511   3.512   0.744 -0.7989 -0.0053 -0.1439
 5012SOL     OW19819   6.081   0.553   0.954 -0.1771 -0.3720 -0.1290
 5012SOL    HW219820   6.117   0.489   0.893  0.8368 -1.2076  1.2652
 5012SOL    HW319821   6.109   0.522   1.040  0.0283  1.7492  0.6328
 5012SOL    MW419822   6.090   0.540   0.957 -0.0162 -0.2024  0.1555
 5013SOL     OW19823   5.965   1.483   1.822 -0.5887  0.1694  0.5876
 5013SOL    HW219824   5.981   1.398   1.782  0.3163  0.6525 -0.0978
 5013SOL    HW319825   6.051   1.521   1.833 -0.9579  0.8238  1.3044
 5013SOL    MW419826   5.978   1.477   1.818 -0.5180  0.3194  0.5918
 5014SOL     OW19827   3.403   2.138   0.630  0.3516  0.8028 -0.6136
 5014SOL    HW219828   3.417   2.047   0.654 -2.5407  0.4040 -0.0402
 5014SOL    HW319829   3.469   2.186   0.680  0.8399 -0.8409  0.4101
 5014SOL    MW419830   3.413   2.133   0.640  0.0344  0.5333 -0.4029
 5015SOL     OW19831   0.209   2.232   3.355 -0.3163 -0.1878 -0.3224
 5015SOL    HW219832   0.230   2.296   3.423 -0.5494 -1.1839  0.7149
 5015SOL    HW319833   0.118   2.251   3.332 -0.6734 -0.6881  0.6193
 5015SOL    MW419834   0.200   2.243   3.361 -0.3942 -0.3852 -0.0613
 5016SOL     OW19835   6.353   4.102   3.346  0.2038  0.4910 -0.1030
 5016SOL    HW219836   6.377   4.138   3.432  1.0184 -0.1072 -0.0721
 5016SOL    HW319837   6.420   4.137   3.287 -0.5163  1.1283 -0.5534
 5016SOL    MW419838   6.365   4.112   3.350  0.2163  0.4962 -0.1584
 5017SOL     OW19839   3.516   1.448   4.696  0.0508 -0.6479  0.0329
 5017SOL    HW219840   3.596   1.410   4.661  0.1384 -0.8332  0.4303
 5017SOL    HW319841   3.457   1.374   4.707  0.9678 -1.0879  2.9057
 5017SOL    MW419842   3.519   1.434   4.693  0.1833 -0.7304  0.4644
 5018SOL     OW19843   0.483   3.662   3.004 -0.0210  0.2987  0.1814
 5018SOL    HW219844   0.508   3.752   3.024 -0.4536  0.5019 -0.1810
 5018SOL    HW319845   0.566   3.617   2.988  0.3548  0.1473  2.2526
 5018SOL    MW419846   0.498   3.668   3.004 -0.0285  0.3055  0.4068
 5019SOL     OW19847   1.000   5.049   5.461  0.5573 -0.2982  0.0699
 5019SOL    HW219848   1.040   4.969   5.427  0.7944 -0.1373 -0.0322
 5019SOL    HW319849   1.074   5.105   5.484  0.4038  0.3291 -0.8798
 5019SOL    MW419850   1.015   5.046   5.460  0.5683 -0.1942 -0.0689
 5020SOL     OW19851   0.705   2.939   3.647  0.1686  0.2036  0.3983
 5020SOL    HW219852   0.759   2.898   3.579 -2.2894 -1.6399 -0.5683
 5020SOL    HW319853   0.769   2.970   3.712  2.6510  2.0768 -2.6279
 5020SOL    MW419854   0.721   2.938   3.646  0.1718  0.2075 -0.1285
 5021SOL     OW19855   5.723   1.170   1.420 -0.1185  0.3753 -0.0735
 5021SOL    HW219856   5.785   1.131   1.359 -1.3241 -0.8182 -0.5663
 5021SOL    HW319857   5.640   1.171   1.374 -1.4590 -2.0822  2.0274
 5021SOL    MW419858   5.721   1.165   1.406 -0.4544 -0.1064  0.1387
 5022SOL     OW19859   6.138   1.910   4.182 -0.2563 -0.4645  0.0635
 5022SOL    HW219860   6.227   1.894   4.213 -0.6718 -1.5072  0.7578
 5022SOL    HW319861   6.113   1.994   4.222 -0.5435 -1.4579  2.0676
 5022SOL    MW419862   6.146   1.919   4.191 -0.3490 -0.7331  0.4195
 5023SOL     OW19863   2.918   2.690   0.698 -0.0767 -0.1579 -0.5992
 5023SOL    HW219864   2.948   2.666   0.611 -0.3906  0.0807 -0.7761
 5023SOL    HW319865   2.828   2.658   0.702  0.6482 -2.2336  0.4797
 5023SOL    MW419866   2.910   2.683   0.687 -0.0224 -0.4003 -0.4802
 5024SOL     OW19867   4.955   4.110   1.763 -0.1163  0.1166  0.7127
 5024SOL    HW219868   4.884   4.175   1.759 -1.7078 -1.3411  2.8593
 5024SOL    HW319869   5.013   4.143   1.833  0.0634  0.1190  0.5642
 5024SOL    MW419870   4.954   4.123   1.772 -0.3026 -0.0754  0.9763
 5025SOL     OW19871   1.273   1.374   3.777 -0.4206  0.9051 -0.5843
 5025SOL    HW219872   1.234   1.412   3.856 -0.0788 -0.3537  0.2184
 5025SOL    HW319873   1.366   1.396   3.783 -0.0833 -0.5794  0.2586
 5025SOL    MW419874   1.280   1.382   3.788 -0.3310  0.5432 -0.3672
 5026SOL     OW19875   6.089   5.350   5.584 -0.0920  0.0669 -0.2875
 5026SOL    HW219876   6.134   5.279   5.630  0.2944 -0.9093 -2.0805
 5026SOL    HW319877   6.046   5.307   5.510  2.0282  1.9114 -2.7846
 5026SOL    MW419878   6.089   5.335   5.580  0.2387  0.1815 -0.8535
 5027SOL     OW19879   1.379   2.414   3.092  0.0375 -0.2057 -0.1117
 5027SOL    HW219880   1.425   2.363   3.025 -1.3916 -1.5878 -0.1035
 5027SOL    HW319881   1.444   2.426   3.161  0.5803 -1.5981 -0.3428
 5027SOL    MW419882   1.394   2.409   3.092 -0.0795 -0.5717 -0.1411
 5028SOL     OW19883   4.650   6.253   4.730  0.2900 -0.0971 -0.4265
 5028SOL    HW219884   4.714   6.313   4.767  1.7089 -1.6521 -0.2318
 5028SOL    HW319885   4.681   6.237   4.641 -0.2167 -0.3343 -0.5660
 5028SOL    MW419886   4.663   6.259   4.723  0.4104 -0.3335 -0.4192
 5029SOL     OW19887   1.622   4.138   2.620  0.4003  0.1164 -0.5729
 5029SOL    HW219888   1.533   4.120   2.590 -0.0093  0.1313  0.6006
 5029SOL    HW319889   1.614   4.216   2.674  1.1656  0.2392 -0.6257
 5029SOL    MW419890   1.609   4.146   2.623  0.4472  0.1346 -0.4250
 5030SOL     OW19891   2.529   5.532   0.042  0.4674  0.3148 -0.0366
 5030SOL    HW219892   2.474   5.464   0.003 -0.0076 -0.1883  1.4301
 5030SOL    HW319893   2.619   5.502   0.027  0.2829 -0.1493 -0.2460
 5030SOL    MW419894   2.533   5.519   0.035  0.3804  0.1872  0.1293
 5031SOL     OW19895   0.957   3.277   0.200  0.0766  0.3885 -0.6402
 5031SOL    HW219896   1.029   3.303   0.143  0.3651  0.8662 -0.0597
 5031SOL    HW319897   0.885   3.336   0.176 -0.0158  0.1473 -0.9690
 5031SOL    MW419898   0.957   3.288   0.189  0.1025  0.4197 -0.6070
 5032SOL     OW19899   4.457   1.084   3.848  0.0664 -0.5235 -0.7238
 5032SOL    HW219900   4.475   1.100   3.941  1.8205  0.2220 -1.1463
 5032SOL    HW319901   4.415   0.998   3.846 -0.5816 -0.2755  0.8070
 5032SOL    MW419902   4.454   1.075   3.860  0.2124 -0.3924 -0.5775
 5033SOL     OW19903   4.427   5.134   1.662  0.1518  0.5660 -0.0052
 5033SOL    HW219904   4.479   5.132   1.582  3.8172 -1.8653  2.1203
 5033SOL    HW319905   4.394   5.045   1.671  0.5637  0.5474  1.5803
 5033SOL    MW419906   4.429   5.122   1.653  0.6897  0.2428  0.4844
 5034SOL     OW19907   2.246   3.398   5.377  0.7527 -0.0896 -0.1880
 5034SOL    HW219908   2.304   3.460   5.334  1.8455 -0.1048  1.2066
 5034SOL    HW319909   2.159   3.438   5.370  1.0383  0.3428 -1.5488
 5034SOL    MW419910   2.242   3.411   5.371  0.9346 -0.0345 -0.1835
 5035SOL     OW19911   5.619   5.767   5.668  0.2123 -0.1874  0.3584
 5035SOL    HW219912   5.567   5.841   5.700 -1.9176 -0.7832 -1.4160
 5035SOL    HW319913   5.669   5.738   5.744 -0.8798  1.4413  1.7885
 5035SOL    MW419914   5.619   5.773   5.682 -0.2128 -0.0511  0.3130
 5036SOL     OW19915   2.563   5.682   0.266 -0.1064 -0.9026  0.1369
 5036SOL    HW219916   2.640   5.728   0.233 -0.6368  0.0906  0.2457
 5036SOL    HW319917   2.534   5.628   0.193 -1.3918  1.4223 -1.1863
 5036SOL    MW419918   2.570   5.681   0.252 -0.3460 -0.4648 -0.0233
 5037SOL     OW19919   3.296   4.172   3.270 -0.0064 -0.2690 -0.6772
 5037SOL    HW219920   3.303   4.238   3.201  1.7693  0.0994 -0.1958
 5037SOL    HW319921   3.351   4.099   3.240 -0.8728 -0.9748 -0.5848
 5037SOL    MW419922   3.304   4.171   3.257  0.1136 -0.3135 -0.6015
 5038SOL     OW19923   0.705   2.983   1.160  0.0842 -0.5048 -0.1097
 5038SOL    HW219924   0.674   2.893   1.159 -2.6816  0.3342  0.1574
 5038SOL    HW319925   0.754   2.993   1.079 -1.1107 -1.8016 -1.0340
 5038SOL    MW419926   0.707   2.973   1.149 -0.4384 -0.5652 -0.1964
 5039SOL     OW19927   1.351   4.291   6.279 -0.2991 -0.2607 -0.0912
 5039SOL    HW219928   1.273   4.312   6.227  0.6220  0.0998 -1.3772
 5039SOL    HW319929   1.366   4.370   6.331 -1.3198 -0.6802  0.8672
 5039SOL    MW419930   1.342   4.304   6.279 -0.3123 -0.2685 -0.1345
 5040SOL     OW19931   5.813   5.874   2.828 -0.1988  0.1656  0.1347
 5040SOL    HW219932   5.872   5.883   2.753  0.6902  1.0744  0.9174
 5040SOL    HW319933   5.727   5.859   2.789  0.2636  0.5244 -1.0648
 5040SOL    MW419934   5.809   5.873   2.813 -0.0205  0.3329  0.0797
 5041SOL     OW19935   2.018   5.202   1.049  0.1317  0.0990 -0.1917
 5041SOL    HW219936   2.004   5.178   1.140  0.0279  0.2696 -0.1619
 5041SOL    HW319937   2.035   5.119   1.004  2.6526  0.2211  0.3991
 5041SOL    MW419938   2.018   5.188   1.055  0.4506  0.1376 -0.1098
 5042SOL     OW19939   4.318   4.626   4.778 -0.4784 -0.3827  0.2339
 5042SOL    HW219940   4.244   4.650   4.833 -1.3860 -0.9759 -0.6922
 5042SOL    HW319941   4.289   4.547   4.731  0.9708 -0.9934  0.3189
 5042SOL    MW419942   4.304   4.619   4.779 -0.4069 -0.5415  0.1229
 5043SOL     OW19943   2.809   0.315   1.727  0.0045  0.5875  0.2097
 5043SOL    HW219944   2.903   0.331   1.716  0.3273 -1.0653  0.3163
 5043SOL    HW319945   2.769   0.355   1.650  0.8559  0.7515 -0.1658
 5043SOL    MW419946   2.816   0.323   1.716  0.1594  0.3911  0.1742
 5044SOL     OW19947   0.806   3.544   4.022  0.5880 -0.2657 -0.1504
 5044SOL    HW219948   0.775   3.520   3.934  1.2976 -0.8955 -0.2373
 5044SOL    HW319949   0.727   3.539   4.077  0.6044 -2.5286 -0.2270
 5044SOL    MW419950   0.791   3.540   4.017  0.6838 -0.6474 -0.1720
 5045SOL     OW19951   2.123   5.010   4.082 -0.3517 -0.3206 -0.4485
 5045SOL    HW219952   2.085   5.094   4.054  0.8045 -0.3372 -2.1988
 5045SOL    HW319953   2.051   4.965   4.125 -1.8038  0.4109 -2.0073
 5045SOL    MW419954   2.108   5.015   4.084 -0.3907 -0.2262 -0.8851
 5046SOL     OW19955   1.832   2.718   2.894  0.3085 -0.2351  0.2259
 5046SOL    HW219956   1.890   2.728   2.819  2.0146  1.9864  1.7048
 5046SOL    HW319957   1.773   2.793   2.890 -0.7621 -1.0473  0.1966
 5046SOL    MW419958   1.832   2.729   2.884  0.3923 -0.0492  0.4172
 5047SOL     OW19959   4.616   0.969   2.855 -0.6541 -0.5236  0.2042
 5047SOL    HW219960   4.648   1.050   2.815 -1.8171 -0.0662  0.1402
 5047SOL    HW319961   4.631   0.902   2.789  1.1008 -0.5463  0.5814
 5047SOL    MW419962   4.622   0.971   2.841 -0.5760 -0.4662  0.2455
 5048SOL     OW19963   4.179   0.568   0.281  0.1623 -0.2422  0.0170
 5048SOL    HW219964   4.140   0.646   0.240  1.1289 -0.4006 -1.2633
 5048SOL    HW319965   4.155   0.576   0.373  0.3752  1.6806 -0.0426
 5048SOL    MW419966   4.171   0.580   0.288  0.3179 -0.0094 -0.1598
 5049SOL     OW19967   2.858   4.255   2.513  0.1819 -0.4204  0.0610
 5049SOL    HW219968   2.831   4.323   2.575  1.0390  1.0744 -1.1347
 5049SOL    HW319969   2.937   4.217   2.550  1.0955  0.9596 -0.4083
 5049SOL    MW419970   2.864   4.259   2.526  0.4155 -0.0411 -0.1586
 5050SOL     OW19971   2.325   3.700   6.224  0.3608  0.3319 -0.4074
 5050SOL    HW219972   2.261   3.766   6.197  0.6802  1.0115  0.4344
 5050SOL    HW319973   2.274   3.636   6.274  0.4069  1.1844  0.7774
 5050SOL    MW419974   2.310   3.701   6.227  0.4090  0.5341 -0.1400
 5051SOL     OW19975   0.217   3.312   2.164 -0.2002  0.7019  0.3399
 5051SOL    HW219976   0.142   3.281   2.215  1.5879 -2.3750  1.3658
 5051SOL    HW319977   0.195   3.291   2.073 -0.3974 -0.6803  0.6827
 5051SOL    MW419978   0.204   3.305   2.159  0.0097  0.1136  0.5205
 5052SOL     OW19979   3.275   0.418   4.038 -0.0037 -0.2772 -0.0074
 5052SOL    HW219980   3.300   0.379   4.123 -0.1905 -1.1007 -0.3199
 5052SOL    HW319981   3.237   0.345   3.989 -2.4515  0.7688  0.1924
 5052SOL    MW419982   3.274   0.403   4.043 -0.3513 -0.2479 -0.0223
 5053SOL     OW19983   4.356   5.353   0.411  0.3459 -0.0947 -0.6194
 5053SOL    HW219984   4.337   5.360   0.505  0.0331 -0.7823 -0.6211
 5053SOL    HW319985   4.432   5.296   0.406  0.5379  0.1732 -0.7719
 5053SOL    MW419986   4.363   5.346   0.423  0.3299 -0.1501 -0.6397
 5054SOL     OW19987   4.546   0.519   3.758  0.2246 -0.1927 -0.2851
 5054SOL    HW219988   4.452   0.539   3.755  0.0854  0.0215  2.5065
 5054SOL    HW319989   4.584   0.574   3.690 -1.4435  1.3614 -0.0553
 5054SOL    MW419990   4.539   0.529   3.749 -0.0138  0.0406  0.1136
 5055SOL     OW19991   4.564   2.530   2.777 -0.2575  0.3723 -0.0967
 5055SOL    HW219992   4.476   2.492   2.776 -1.4611  2.7200  2.7581
 5055SOL    HW319993   4.551   2.621   2.751  1.0047  1.2284  2.0419
 5055SOL    MW419994   4.551   2.537   2.773 -0.2498  0.7950  0.5621
 5056SOL     OW19995   4.026   5.179   3.507  0.2045 -0.3090 -0.1603
 5056SOL    HW219996   4.075   5.261   3.498 -1.1047  1.0061  3.1581
 5056SOL    HW319997   3.934   5.206   3.513 -0.2590 -1.9761  0.9821
 5056SOL    MW419998   4.020   5.193   3.506 -0.0294 -0.3554  0.4283
 5057SOL     OW19999   6.137   0.461   3.430 -0.2417 -0.6430  0.6052
 5057SOL    HW220000   6.075   0.388   3.431 -2.0229  0.7825  1.3825
 5057SOL    HW320001   6.110   0.515   3.504  1.3782  0.5239  0.3871
 5057SOL    MW420002   6.125   0.459   3.440 -0.2630 -0.3010  0.6790
 5058SOL     OW20003   2.410   0.321   5.328  0.1244  0.3092  0.4702
 5058SOL    HW220004   2.416   0.274   5.245  0.0379 -0.5802  0.9538
 5058SOL    HW320005   2.487   0.378   5.328  1.2274 -1.0953  0.6046
 5058SOL    MW420006   2.421   0.322   5.317  0.2585  0.0066  0.5517
 5059SOL     OW20007   4.845   2.840   4.308  0.0553  0.6127  0.3339
 5059SOL    HW220008   4.755   2.851   4.280  0.6716 -2.1603 -3.4072
 5059SOL    HW320009   4.846   2.759   4.359  0.3461  1.2350  1.3771
 5059SOL    MW420010   4.834   2.831   4.311  0.1750  0.3289 -0.0221
 5060SOL     OW20011   0.807   2.292   2.786 -0.0057  0.7529  0.8061
 5060SOL    HW220012   0.762   2.261   2.864  2.1105 -0.3918  1.6699
 5060SOL    HW320013   0.867   2.221   2.763 -2.0300  0.0830 -3.2149
 5060SOL    MW420014   0.809   2.279   2.793  0.0064  0.5135  0.3895
 5061SOL     OW20015   0.574   5.909   5.939  0.4024 -0.0483  0.2023
 5061SOL    HW220016   0.525   5.918   6.022 -1.0163  0.3879 -0.6466
 5061SOL    HW320017   0.621   5.826   5.948 -0.0383 -0.1988  1.3032
 5061SOL    MW420018   0.574   5.899   5.951  0.1571 -0.0106  0.2355
 5062SOL     OW20019   6.377   1.274   5.379 -0.4501  0.0882 -0.9676
 5062SOL    HW220020   6.328   1.289   5.460  0.1496 -0.3653 -0.5098
 5062SOL    HW320021   6.403   1.361   5.350  1.2860  0.1505  0.5789
 5062SOL    MW420022   6.374   1.287   5.386 -0.1419  0.0366 -0.7031
 5063SOL     OW20023   1.755   4.703   3.342 -0.0163  0.7231  0.0021
 5063SOL    HW220024   1.760   4.777   3.403  2.5216  0.1878  0.5625
 5063SOL    HW320025   1.845   4.691   3.312 -0.7146 -0.9064 -1.6034
 5063SOL    MW420026   1.768   4.711   3.346  0.2264  0.4375 -0.1358
 5064SOL     OW20027   0.222   1.590   2.671  0.0995 -0.0504  0.3311
 5064SOL    HW220028   0.197   1.542   2.592 -1.7646  1.0345  0.2163
 5064SOL    HW320029   0.270   1.526   2.723 -4.0860 -2.9161  1.1709
 5064SOL    MW420030   0.225   1.575   2.668 -0.6986 -0.2854  0.4268
 5065SOL     OW20031   3.463   1.802   2.052  0.1856 -0.1880  0.4976
 5065SOL    HW220032   3.429   1.882   2.093 -0.1161 -0.2347  0.3445
 5065SOL    HW320033   3.459   1.736   2.122  1.4831  0.1914  0.9550
 5065SOL    MW420034   3.458   1.804   2.067  0.3170 -0.1441  0.5377
 5066SOL     OW20035   1.403   1.591   6.175 -0.2008  0.1637  0.4302
 5066SOL    HW220036   1.403   1.499   6.198 -1.1015  0.7408  3.1300
 5066SOL    HW320037   1.349   1.633   6.242 -1.3694  2.4459 -1.7433
 5066SOL    MW420038   1.396   1.585   6.187 -0.4738  0.5410  0.4997
 5067SOL     OW20039   0.407   2.379   4.392  0.3858 -0.1076  0.0112
 5067SOL    HW220040   0.365   2.421   4.467  0.6434  2.3925 -1.1443
 5067SOL    HW320041   0.485   2.431   4.375  0.9221 -1.2800 -1.3337
 5067SOL    MW420042   0.411   2.391   4.400  0.4905  0.0676 -0.3187
 5068SOL     OW20043   0.509   6.125   3.441 -0.1834 -0.1123  0.4077
 5068SOL    HW220044   0.548   6.058   3.385 -1.9005 -0.0488 -0.9753
 5068SOL    HW320045   0.552   6.115   3.525  1.2146 -1.4265 -0.4148
 5068SOL    MW420046   0.519   6.115   3.445 -0.2255 -0.2773  0.1167
 5069SOL     OW20047   4.464   4.557   0.775  0.1674 -0.2263  0.2121
 5069SOL    HW220048   4.538   4.577   0.717 -0.7485  0.2173 -0.8627
 5069SOL    HW320049   4.440   4.467   0.754 -0.1020 -0.0988 -0.0365
 5069SOL    MW420050   4.470   4.548   0.764  0.0110 -0.1509  0.0375
 5070SOL     OW20051   0.890   1.430   2.181 -0.3878  0.2352  0.3225
 5070SOL    HW220052   0.911   1.358   2.121 -2.2863 -0.7395  0.7591
 5070SOL    HW320053   0.823   1.481   2.135 -0.8674  0.2630  1.0309
 5070SOL    MW420054   0.884   1.427   2.167 -0.7016  0.1103  0.4736
 5071SOL     OW20055   5.429   5.421   1.942  0.4158 -0.4105 -0.6229
 5071SOL    HW220056   5.515   5.423   1.901  0.6717 -1.4398 -0.1495
 5071SOL    HW320057   5.446   5.418   2.036 -0.0940 -1.6739 -0.5456
 5071SOL    MW420058   5.442   5.421   1.949  0.3823 -0.7130 -0.5503
 5072SOL     OW20059   3.122   0.337   1.738  0.4696  0.2653 -0.7250
 5072SOL    HW220060   3.117   0.317   1.831  2.4356  0.6060 -0.5040
 5072SOL    HW320061   3.128   0.252   1.695  0.7205  0.1375 -0.4384
 5072SOL    MW420062   3.122   0.323   1.744  0.7621  0.2934 -0.6580
 5073SOL     OW20063   1.686   1.269   6.027  0.1940 -0.5535 -0.7662
 5073SOL    HW220064   1.612   1.269   6.088  1.4393  1.8795  0.9063
 5073SOL    HW320065   1.763   1.256   6.081  1.1904 -0.8686 -2.1886
 5073SOL    MW420066   1.686   1.268   6.042  0.4898 -0.2741 -0.7332
 5074SOL     OW20067   3.156   3.715   3.085 -0.2886  0.0114  0.1831
 5074SOL    HW220068   3.167   3.662   3.164 -1.2316  0.8885  0.9186
 5074SOL    HW320069   3.180   3.655   3.013 -0.2489 -1.0629  1.0609
 5074SOL    MW420070   3.160   3.700   3.086 -0.4078 -0.0146  0.3960
 5075SOL     OW20071   5.849   1.512   5.289 -0.1935 -0.3826  0.3109
 5075SOL    HW220072   5.918   1.518   5.223  1.7686  0.1113  2.2587
 5075SOL    HW320073   5.810   1.600   5.290  1.8729  0.6259  1.8118
 5075SOL    MW420074   5.853   1.525   5.280  0.3380 -0.1844  0.7659
 5076SOL     OW20075   4.180   5.020   4.857 -0.2715 -0.4520 -0.2998
 5076SOL    HW220076   4.110   5.069   4.900  0.9774 -0.4429  1.8425
 5076SOL    HW320077   4.157   5.023   4.764 -2.5566  0.4013  0.2229
 5076SOL    MW420078   4.168   5.027   4.850 -0.4082 -0.3382  0.0518
 5077SOL     OW20079   1.214   1.142   2.851 -0.0157 -0.1060  0.1468
 5077SOL    HW220080   1.280   1.202   2.816 -1.1657  0.4753 -1.1152
 5077SOL    HW320081   1.263   1.086   2.912  1.4711  0.8241 -0.1316
 5077SOL    MW420082   1.229   1.142   2.854  0.0287  0.0934 -0.0564
 5078SOL     OW20083   0.541   4.340   6.408 -0.1049  0.1740  0.2343
 5078SOL    HW220084   0.447   4.336   6.392  0.2209 -4.1759 -2.3297
 5078SOL    HW320085   0.550   4.384   6.492 -4.2494  2.1115 -0.1350
 5078SOL    MW420086   0.530   4.345   6.417 -0.6087 -0.1443 -0.1527
 5079SOL     OW20087   3.302   0.610   4.408  0.1220  0.4631  0.1689
 5079SOL    HW220088   3.317   0.522   4.375  3.4806  0.4476  1.3950
 5079SOL    HW320089   3.305   0.666   4.330  1.2121 -0.2067 -0.2863
 5079SOL    MW420090   3.304   0.606   4.394  0.7090  0.3727  0.2706
 5080SOL     OW20091   2.467   1.477   4.745 -0.6078 -0.2895  0.3119
 5080SOL    HW220092   2.532   1.540   4.712 -0.2895 -0.5477  0.4422
 5080SOL    HW320093   2.388   1.529   4.757 -0.6717 -0.1491 -0.6640
 5080SOL    MW420094   2.465   1.492   4.742 -0.5742 -0.3050  0.2003
 5081SOL     OW20095   2.170   3.541   3.153  0.5131 -0.6954  0.1216
 5081SOL    HW220096   2.156   3.447   3.139  1.5469 -0.9508  0.7551
 5081SOL    HW320097   2.091   3.569   3.201  0.4528 -1.3596  0.4296
 5081SOL    MW420098   2.157   3.532   3.158  0.6416 -0.8168  0.2458
 5082SOL     OW20099   3.902   6.333   0.750 -1.0223  0.1215 -0.6936
 5082SOL    HW220100   3.823   6.383   0.772  0.6657  2.2685  0.9438
 5082SOL    HW320101   3.935   6.302   0.834  0.5425  0.3452 -1.1935
 5082SOL    MW420102   3.896   6.336   0.764 -0.5931  0.4343 -0.5435
 5083SOL     OW20103   1.199   5.424   1.284 -0.0883  0.0040  0.1623
 5083SOL    HW220104   1.248   5.347   1.311  0.8896  0.5781  0.0766
 5083SOL    HW320105   1.112   5.412   1.322  0.2618 -0.7989  0.7329
 5083SOL    MW420106   1.194   5.412   1.293  0.0869 -0.0262  0.2263
 5084SOL     OW20107   3.377   1.312   4.011  0.3399  0.3324 -0.5597
 5084SOL    HW220108   3.422   1.327   3.928 -1.1807  0.9150 -1.3146
 5084SOL    HW320109   3.368   1.217   4.017 -0.4379  0.3234 -1.5843
 5084SOL    MW420110   3.382   1.301   4.001  0.0366  0.4081 -0.7945
 5085SOL     OW20111   5.343   5.805   3.787 -0.2583  0.0484  0.2777
 5085SOL    HW220112   5.437   5.789   3.793 -0.2861  0.0300  0.6653
 5085SOL    HW320113   5.317   5.829   3.876 -0.9449 -1.6330  0.5622
 5085SOL    MW420114   5.352   5.806   3.799 -0.3525 -0.1758  0.3664
 5086SOL     OW20115   4.558   4.524   3.599  0.6309  0.5964 -0.1908
 5086SOL    HW220116   4.566   4.467   3.522  1.5583 -1.3936  1.2863
 5086SOL    HW320117   4.467   4.551   3.600  0.4900  0.2485 -1.7068
 5086SOL    MW420118   4.547   4.520   3.589  0.7347  0.2879 -0.1960
 5087SOL     OW20119   0.344   3.310   4.251  0.3766  0.3149 -0.1359
 5087SOL    HW220120   0.279   3.243   4.229 -0.2910  0.9689 -0.1894
 5087SOL    HW320121   0.323   3.383   4.192  1.0653  0.5872 -0.0440
 5087SOL    MW420122   0.332   3.311   4.240  0.3794  0.4371 -0.1308
 5088SOL     OW20123   2.753   3.739   5.870  0.4767 -0.1086 -0.0429
 5088SOL    HW220124   2.667   3.754   5.830  0.4623  1.7473  0.5811
 5088SOL    HW320125   2.815   3.747   5.797  0.1657 -1.3121 -0.4686
 5088SOL    MW420126   2.750   3.742   5.855  0.4338 -0.0225 -0.0168
 5089SOL     OW20127   4.982   6.301   3.567 -0.1435  0.4329 -0.5793
 5089SOL    HW220128   5.014   6.222   3.524  0.9926 -0.0069  0.9674
 5089SOL    HW320129   5.003   6.371   3.506  1.5986 -0.1404 -0.7174
 5089SOL    MW420130   4.989   6.300   3.553  0.2363  0.2993 -0.3935
 5090SOL     OW20131   0.671   3.474   1.508 -0.3134  0.4760  0.2660
 5090SOL    HW220132   0.642   3.394   1.465 -0.7262  1.1009 -0.6554
 5090SOL    HW320133   0.602   3.538   1.488  1.6201  2.0372 -2.0122
 5090SOL    MW420134   0.658   3.472   1.500 -0.1128  0.7644 -0.1562
 5091SOL     OW20135   5.220   0.360   1.713  0.0531  0.1054  0.0943
 5091SOL    HW220136   5.263   0.337   1.631  0.5868 -1.1971  0.7110
 5091SOL    HW320137   5.129   0.331   1.702  0.2874 -0.6988  0.1972
 5091SOL    MW420138   5.214   0.353   1.701  0.1545 -0.1725  0.1892
 5092SOL     OW20139   3.393   5.822   2.277  0.2847 -0.0695 -0.1112
 5092SOL    HW220140   3.426   5.819   2.367 -1.3245 -0.6183  0.4990
 5092SOL    HW320141   3.354   5.909   2.269  0.1401 -0.1393 -0.1687
 5092SOL    MW420142   3.392   5.833   2.288  0.0533 -0.1511 -0.0383
 5093SOL     OW20143   0.126   6.398   0.706 -0.2856  0.3082  0.6082
 5093SOL    HW220144   0.114   6.326   0.645 -1.3414  1.0906 -0.1358
 5093SOL    HW320145   0.173   6.465   0.656 -3.8250  2.2290 -0.4694
 5093SOL    MW420146   0.131   6.398   0.692 -0.8919  0.6648  0.3679
 5094SOL     OW20147   2.230   4.193   3.074 -0.0110 -0.0548  0.0350
 5094SOL    HW220148   2.299   4.147   3.026  0.8051  0.2359  0.9001
 5094SOL    HW320149   2.175   4.232   3.006  1.5275  0.9482 -0.6803
 5094SOL    MW420150   2.232   4.193   3.059  0.2996  0.1159  0.0547
 5095SOL     OW20151   2.958   5.451   6.031  0.2851 -0.3742  0.5590
 5095SOL    HW220152   3.035   5.489   5.989  0.3669 -1.1937 -0.0717
 5095SOL    HW320153   2.993   5.389   6.095  0.1966  1.8985  2.9773
 5095SOL    MW420154   2.973   5.448   6.034  0.2842 -0.1825  0.7949
 5096SOL     OW20155   4.894   4.476   5.762 -0.0939 -0.2401 -0.1768
 5096SOL    HW220156   4.872   4.416   5.691 -0.2351 -0.3892 -0.0080
 5096SOL    HW320157   4.990   4.478   5.763 -0.0357 -1.8566  0.9651
 5096SOL    MW420158   4.904   4.468   5.753 -0.1049 -0.4731 -0.0039
 5097SOL     OW20159   2.083   4.545   0.780  0.0436  0.0577 -0.1912
 5097SOL    HW220160   2.129   4.553   0.697 -1.9901 -0.7630 -1.4964
 5097SOL    HW320161   2.012   4.609   0.774  0.6571  0.9472  1.5218
 5097SOL    MW420162   2.079   4.554   0.769 -0.1438  0.0668 -0.1374
 5098SOL     OW20163   2.941   3.801   2.667  0.3822 -0.3571 -0.0647
 5098SOL    HW220164   2.927   3.728   2.607  0.7918  1.6247 -2.7604
 5098SOL    HW320165   2.877   3.866   2.640  0.9129  0.8136  1.3701
 5098SOL    MW420166   2.931   3.800   2.655  0.5063  0.0588 -0.2311
 5099SOL     OW20167   5.379   4.437   6.259 -0.4597  0.0755  0.0191
 5099SOL    HW220168   5.406   4.345   6.263 -0.0323  0.2005  0.1333
 5099SOL    HW320169   5.435   4.475   6.190 -1.7175 -0.0980 -1.1323
 5099SOL    MW420170   5.390   4.430   6.250 -0.5693  0.0691 -0.1177
 5100SOL     OW20171   1.846   5.517   5.053 -0.1979  0.0382  0.2867
 5100SOL    HW220172   1.811   5.436   5.092  1.1501 -0.1896  1.0803
 5100SOL    HW320173   1.919   5.541   5.110  0.2898  1.0608 -0.7397
 5100SOL    MW420174   1.851   5.509   5.066  0.0443  0.1431  0.2560
 5101SOL     OW20175   2.077   2.100   3.569 -0.2351  0.1006  0.1925
 5101SOL    HW220176   2.004   2.047   3.602  0.6109 -0.3647  1.3907
 5101SOL    HW320177   2.144   2.035   3.547  0.0751  0.5706 -0.2630
 5101SOL    MW420178   2.076   2.084   3.571 -0.0826  0.1012  0.2905
 5102SOL     OW20179   0.442   3.521   1.258 -0.4874 -0.2387  0.1517
 5102SOL    HW220180   0.393   3.444   1.287  0.6895 -1.4260 -0.8907
 5102SOL    HW320181   0.443   3.515   1.163 -0.2935  1.0172  0.0644
 5102SOL    MW420182   0.436   3.510   1.250 -0.3066 -0.2297  0.0027
 5103SOL     OW20183   1.675   5.238   5.589  0.3182  0.4868  0.1080
 5103SOL    HW220184   1.766   5.246   5.615  0.0346  2.6670  0.6396
 5103SOL    HW320185   1.639   5.326   5.601 -1.9508 -0.3948  0.3021
 5103SOL    MW420186   1.682   5.250   5.594 -0.0186  0.6581  0.2038
 5104SOL     OW20187   1.004   2.479   4.117 -0.2446 -0.0767  0.2688
 5104SOL    HW220188   0.922   2.431   4.104 -1.2545  1.4594  0.7660
 5104SOL    HW320189   1.071   2.422   4.079 -1.6347 -1.0222 -0.8631
 5104SOL    MW420190   1.002   2.465   4.110 -0.5612  0.0013  0.1850
 5105SOL     OW20191   6.286   0.976   6.283  0.3604  0.3377 -0.0324
 5105SOL    HW220192   6.239   0.894   6.295  1.1720  0.0024  0.9865
 5105SOL    HW320193   6.229   1.029   6.227 -1.0081 -0.2231  0.8047
 5105SOL    MW420194   6.273   0.972   6.277  0.2869  0.2194  0.2124
 5106SOL     OW20195   3.597   1.388   5.677  0.0291  0.0007 -0.0536
 5106SOL    HW220196   3.551   1.320   5.628  2.1469 -1.6918  0.1634
 5106SOL    HW320197   3.569   1.376   5.768 -1.8198  1.3995 -0.3621
 5106SOL    MW420198   3.587   1.378   5.683  0.0646 -0.0380 -0.0657
 5107SOL     OW20199   5.902   4.610   1.208  0.3839 -0.2594 -0.8136
 5107SOL    HW220200   5.904   4.697   1.168 -3.0595  0.2894 -0.0981
 5107SOL    HW320201   5.953   4.619   1.288 -1.7362  1.8555  0.4095
 5107SOL    MW420202   5.909   4.623   1.213 -0.3501  0.0921 -0.5579
 5108SOL     OW20203   2.467   4.290   3.769 -0.1026 -0.0989 -0.1506
 5108SOL    HW220204   2.523   4.300   3.693  0.9282  1.2440  0.7408
 5108SOL    HW320205   2.477   4.199   3.796 -0.2408 -0.4985 -1.4126
 5108SOL    MW420206   2.476   4.280   3.763  0.0152  0.0255 -0.1995
 5109SOL     OW20207   5.759   1.925   0.856 -0.0818  0.2006 -0.3486
 5109SOL    HW220208   5.819   1.867   0.902  0.0574  0.0587 -0.7078
 5109SOL    HW320209   5.686   1.869   0.829  1.0091 -0.2964 -2.5279
 5109SOL    MW420210   5.757   1.910   0.858  0.0805  0.1163 -0.6835
 5110SOL     OW20211   1.076   1.946   0.135 -0.3806  0.0133  0.2417
 5110SOL    HW220212   1.088   1.965   0.042 -0.7245 -2.5670 -0.4312
 5110SOL    HW320213   0.987   1.975   0.154 -0.4151  0.2832 -0.3172
 5110SOL    MW420214   1.066   1.952   0.125 -0.4305 -0.2915  0.0791
 5111SOL     OW20215   3.896   2.173   3.593  0.0620 -0.7621  0.4950
 5111SOL    HW220216   3.838   2.219   3.532 -0.1548 -0.8624  0.6262
 5111SOL    HW320217   3.875   2.210   3.679 -0.0139 -1.0076  0.5825
 5111SOL    MW420218   3.885   2.184   3.596  0.0234 -0.8077  0.5238
 5112SOL     OW20219   5.893   5.502   1.247 -0.1621  0.3851 -0.0109
 5112SOL    HW220220   5.945   5.422   1.235 -0.2622 -0.2783  3.1587
 5112SOL    HW320221   5.804   5.476   1.223  0.0507 -0.0188 -0.3947
 5112SOL    MW420222   5.888   5.488   1.243 -0.1473  0.2443  0.3567
 5113SOL     OW20223   4.080   0.538   0.545 -0.5714  0.0927 -0.0113
 5113SOL    HW220224   4.108   0.607   0.606  2.1926 -0.4624 -0.4892
 5113SOL    HW320225   4.005   0.576   0.499 -0.6166  1.8425  1.3858
 5113SOL    MW420226   4.074   0.552   0.547 -0.2127  0.2504  0.1100
 5114SOL     OW20227   2.077   1.475   3.880 -0.1899 -0.6400 -0.1276
 5114SOL    HW220228   1.994   1.434   3.906  0.5298 -2.1485 -0.1654
 5114SOL    HW320229   2.106   1.426   3.804  0.5472  0.1507 -0.3771
 5114SOL    MW420230   2.070   1.463   3.873  0.0023 -0.7347 -0.1655
 5115SOL     OW20231   4.182   1.026   0.160 -0.3993 -0.1886 -0.1844
 5115SOL    HW220232   4.130   1.105   0.170 -1.0868 -0.7052  0.4611
 5115SOL    HW320233   4.209   1.026   0.068 -1.5734  0.0803 -0.5443
 5115SOL    MW420234   4.178   1.036   0.149 -0.6449 -0.2213 -0.1467
 5116SOL     OW20235   2.394   1.670   3.592 -0.1261  0.3836  0.2934
 5116SOL    HW220236   2.478   1.640   3.559  0.5734  1.9364  0.5417
 5116SOL    HW320237   2.356   1.594   3.636  1.9028  0.0760  1.6210
 5116SOL    MW420238   2.400   1.656   3.594  0.2339  0.5479  0.5013
 5117SOL     OW20239   0.577   3.836   2.417  0.3947  0.5450  0.4397
 5117SOL    HW220240   0.598   3.778   2.490 -2.5755 -1.1198  0.1409
 5117SOL    HW320241   0.585   3.780   2.339  0.6199  1.4659 -0.2188
 5117SOL    MW420242   0.581   3.821   2.416  0.0325  0.4469  0.3134
 5118SOL     OW20243   1.402   4.431   3.613 -0.1015 -0.0721  0.2623
 5118SOL    HW220244   1.356   4.440   3.697  0.1874  0.6530  0.3461
 5118SOL    HW320245   1.495   4.430   3.637  0.0484  1.6009 -0.1528
 5118SOL    MW420246   1.408   4.432   3.627 -0.0436  0.2443  0.2186
 5119SOL     OW20247   4.752   0.931   4.042 -0.0297 -0.0537  0.1115
 5119SOL    HW220248   4.681   0.867   4.042 -0.1643  0.0959  0.2215
 5119SOL    HW320249   4.806   0.907   4.117  0.0035 -0.1321  0.0620
 5119SOL    MW420250   4.750   0.919   4.052 -0.0431 -0.0443  0.1195
 5120SOL     OW20251   2.288   2.010   5.528  0.1156  0.1411 -0.2509
 5120SOL    HW220252   2.236   1.993   5.450  0.4897 -2.9305  0.0365
 5120SOL    HW320253   2.375   2.033   5.495  0.0100 -0.1527 -0.7468
 5120SOL    MW420254   2.293   2.011   5.514  0.1510 -0.3029 -0.2784
 5121SOL     OW20255   5.310   5.211   3.345  0.0018 -0.1109 -0.1160
 5121SOL    HW220256   5.374   5.168   3.288 -0.7782 -0.4044 -0.7943
 5121SOL    HW320257   5.225   5.188   3.307 -0.5781 -0.7466  1.4517
 5121SOL    MW420258   5.307   5.202   3.332 -0.1776 -0.2335  0.0014
 5122SOL     OW20259   4.923   6.254   6.264  0.0838 -0.9491  0.2088
 5122SOL    HW220260   4.928   6.303   6.346 -3.0558 -0.1657  0.0591
 5122SOL    HW320261   5.013   6.251   6.232  0.7259  3.2576  1.1076
 5122SOL    MW420262   4.935   6.260   6.270 -0.2457 -0.2907  0.3076
 5123SOL     OW20263   2.113   2.243   0.250  0.5008  0.1271  0.1592
 5123SOL    HW220264   2.164   2.197   0.316  1.1810  0.5710 -0.0406
 5123SOL    HW320265   2.109   2.183   0.175 -1.1717 -0.8138  0.9519
 5123SOL    MW420266   2.120   2.229   0.249  0.3699  0.0615  0.2374
 5124SOL     OW20267   3.946   2.284   1.115 -0.1286  0.2141 -0.5635
 5124SOL    HW220268   3.945   2.346   1.188 -2.2801 -0.3885 -0.0086
 5124SOL    HW320269   3.890   2.212   1.143 -1.0328 -0.0378 -2.8008
 5124SOL    MW420270   3.939   2.283   1.128 -0.5318  0.1014 -0.7855
 5125SOL     OW20271   1.996   5.038   3.356 -0.1167  0.3346 -0.0922
 5125SOL    HW220272   2.025   4.986   3.431 -0.8674  1.1927  0.8273
 5125SOL    HW320273   2.059   5.110   3.351 -0.3506  0.5474  0.0231
 5125SOL    MW420274   2.008   5.041   3.365 -0.2466  0.4759  0.0443
 5126SOL     OW20275   0.089   5.648   1.838 -0.0810 -0.2521  0.7129
 5126SOL    HW220276   0.079   5.618   1.929  1.1596 -0.7375  0.7243
 5126SOL    HW320277   0.097   5.743   1.844 -0.9133 -0.1937  1.0081
 5126SOL    MW420278   0.089   5.656   1.851 -0.0271 -0.3084  0.7533
 5127SOL     OW20279   1.984   1.713   2.628  0.1066 -0.2461 -0.1676
 5127SOL    HW220280   1.898   1.747   2.654  0.0062 -0.4404 -0.2473
 5127SOL    HW320281   1.984   1.622   2.659  0.5367 -0.0524  0.4205
 5127SOL    MW420282   1.973   1.706   2.636  0.1501 -0.2462 -0.1005
 5128SOL     OW20283   3.786   4.028   0.129 -0.2810  0.0804 -0.3012
 5128SOL    HW220284   3.769   3.934   0.135 -1.3722  0.2037 -1.1861
 5128SOL    HW320285   3.821   4.051   0.215 -0.6243 -1.0149  0.1554
 5128SOL    MW420286   3.788   4.018   0.141 -0.4703 -0.0479 -0.3577
 5129SOL     OW20287   1.410   6.371   5.559 -0.6818 -0.4503  0.1745
 5129SOL    HW220288   1.319   6.352   5.536 -0.2527 -1.1245 -1.0853
 5129SOL    HW320289   1.423   6.463   5.534 -1.1302 -0.2238  0.7678
 5129SOL    MW420290   1.400   6.381   5.553 -0.6844 -0.5094  0.0866
 5130SOL     OW20291   0.026   0.150   0.918 -0.1491 -0.0731  0.1285
 5130SOL    HW220292  -0.064   0.124   0.943  0.0196  0.7193  1.7027
 5130SOL    HW320293   0.082   0.089   0.967  0.1922  1.0419  1.1621
 5130SOL    MW420294   0.021   0.138   0.928 -0.0818  0.1786  0.4726
 5131SOL     OW20295   4.257   4.141   5.218 -0.1579  0.5485  0.1498
 5131SOL    HW220296   4.281   4.107   5.304 -0.3586  0.6137  0.2317
 5131SOL    HW320297   4.301   4.083   5.156 -0.2480  0.3241  0.2943
 5131SOL    MW420298   4.266   4.128   5.221 -0.1963  0.5275  0.1796
 5132SOL     OW20299   2.734   3.265   4.555 -0.1934  0.0922 -0.2045
 5132SOL    HW220300   2.805   3.316   4.593  0.7804 -1.0878 -0.3619
 5132SOL    HW320301   2.711   3.202   4.624 -0.6723  0.0756 -0.3757
 5132SOL    MW420302   2.740   3.263   4.569 -0.1281 -0.0656 -0.2479
 5133SOL     OW20303   2.525   5.402   4.823  0.1241 -0.1224  0.1406
 5133SOL    HW220304   2.439   5.431   4.792  0.3667  0.6545  0.1815
 5133SOL    HW320305   2.509   5.316   4.861 -0.6679  0.0893  0.3031
 5133SOL    MW420306   2.511   5.394   4.824  0.0516  0.0080  0.1674
 5134SOL     OW20307   4.261   2.901   3.805  0.0926  0.0437  0.0380
 5134SOL    HW220308   4.341   2.953   3.794  1.9664 -2.1029  2.3135
 5134SOL    HW320309   4.208   2.951   3.868  0.8098  0.3171  0.4390
 5134SOL    MW420310   4.265   2.915   3.812  0.4345 -0.2034  0.3912
 5135SOL     OW20311   4.153   0.728   5.680 -0.1755 -0.1423  0.0554
 5135SOL    HW220312   4.079   0.668   5.690  1.5355 -2.0758  2.5130
 5135SOL    HW320313   4.141   0.793   5.749 -0.7883  0.9854 -1.0862
 5135SOL    MW420314   4.142   0.729   5.690 -0.0306 -0.2486  0.2290
 5136SOL     OW20315   4.810   5.289   2.487 -0.2206 -0.1239  0.2213
 5136SOL    HW220316   4.865   5.307   2.411 -1.0246  1.9061  0.0574
 5136SOL    HW320317   4.785   5.197   2.477  0.5087 -0.1811 -1.4300
 5136SOL    MW420318   4.814   5.279   2.476 -0.2305  0.1364 -0.0182
 5137SOL     OW20319   1.838   1.707   4.559 -0.4584 -0.2095 -0.0942
 5137SOL    HW220320   1.891   1.709   4.639  2.4298  0.3665 -1.8556
 5137SOL    HW320321   1.842   1.616   4.530  0.5201  0.0141 -0.7377
 5137SOL    MW420322   1.846   1.695   4.565  0.0517 -0.1040 -0.4115
 5138SOL     OW20323   3.931   6.168   1.007 -0.0546  0.2957  0.0110
 5138SOL    HW220324   4.016   6.174   1.051 -0.3709 -1.4255  0.9702
 5138SOL    HW320325   3.867   6.171   1.079 -0.8751  2.1032 -0.7277
 5138SOL    MW420326   3.933   6.169   1.023 -0.2046  0.3071  0.0401
 5139SOL     OW20327   4.467   6.161   0.057  0.4953 -0.2854 -0.1137
 5139SOL    HW220328   4.427   6.161  -0.030  1.3900  0.3749 -0.5386
 5139SOL    HW320329   4.414   6.222   0.108 -0.6480 -1.4339  0.1186
 5139SOL    MW420330   4.455   6.169   0.052  0.4625 -0.3498 -0.1391
 5140SOL     OW20331   2.913   6.435   0.484 -0.2768  0.4165 -0.2552
 5140SOL    HW220332   2.998   6.458   0.447  0.6746 -0.3861  1.3209
 5140SOL    HW320333   2.886   6.356   0.438 -0.6394  1.1769 -1.3981
 5140SOL    MW420334   2.921   6.428   0.473 -0.1991  0.4109 -0.1980
 5141SOL     OW20335   2.405   3.296   1.271  0.0053  0.5289 -0.0170
 5141SOL    HW220336   2.487   3.296   1.222 -0.6921 -0.5801 -1.2543
 5141SOL    HW320337   2.350   3.359   1.226 -1.2668 -1.7604 -1.8888
 5141SOL    MW420338   2.409   3.304   1.259 -0.2545  0.0805 -0.4273
 5142SOL     OW20339   2.171   2.203   4.184 -0.2083 -0.0579  0.4538
 5142SOL    HW220340   2.134   2.288   4.207 -0.0848  0.4431 -1.1245
 5142SOL    HW320341   2.145   2.189   4.093 -0.7350 -1.9945  0.8439
 5142SOL    MW420342   2.162   2.212   4.175 -0.2615 -0.2473  0.2971
 5143SOL     OW20343   5.137   3.168   3.551  0.1921 -0.8581 -0.1125
 5143SOL    HW220344   5.119   3.198   3.640  0.2030 -1.7032  0.1859
 5143SOL    HW320345   5.113   3.075   3.551  0.0656 -0.8423 -1.0307
 5143SOL    MW420346   5.132   3.159   3.563  0.1768 -0.9675 -0.1943
 5144SOL     OW20347   0.958   1.021   2.967 -0.6625 -0.1058  0.7347
 5144SOL    HW220348   1.016   0.995   2.896 -1.0603  1.9332 -0.3956
 5144SOL    HW320349   0.970   1.115   2.976 -2.0982  0.0068  2.0428
 5144SOL    MW420350   0.967   1.030   2.959 -0.9044  0.1781  0.7582
 5145SOL     OW20351   4.159   5.707   1.839  0.2453  0.4864  0.1691
 5145SOL    HW220352   4.208   5.711   1.757  0.5482  2.6727  0.4141
 5145SOL    HW320353   4.180   5.620   1.875  1.6437  0.2532 -1.1053
 5145SOL    MW420354   4.168   5.696   1.832  0.4697  0.7441  0.0333
 5146SOL     OW20355   3.124   3.222   1.886  0.1426 -0.0115  0.0972
 5146SOL    HW220356   3.207   3.230   1.933  0.5157 -1.4923 -0.2390
 5146SOL    HW320357   3.075   3.301   1.908  1.9831  1.3238 -0.3878
 5146SOL    MW420358   3.128   3.234   1.895  0.4346 -0.0307 -0.0111
 5147SOL     OW20359   1.260   5.905   4.909 -0.2551  0.2360 -0.2442
 5147SOL    HW220360   1.290   5.876   4.996 -0.4968 -0.6192 -0.4353
 5147SOL    HW320361   1.177   5.950   4.927 -1.1788 -1.4113 -0.1801
 5147SOL    MW420362   1.253   5.907   4.923 -0.4088 -0.0942 -0.2610
 5148SOL     OW20363   2.348   2.729   5.221  0.1933  0.3740 -0.1269
 5148SOL    HW220364   2.395   2.749   5.302  1.4584  0.3417 -0.8128
 5148SOL    HW320365   2.407   2.759   5.151 -0.6310 -0.0666 -1.0472
 5148SOL    MW420366   2.362   2.736   5.222  0.2514  0.3116 -0.3388
 5149SOL     OW20367   2.936   5.259   3.631  0.3132  0.3150  0.9882
 5149SOL    HW220368   2.867   5.324   3.641  0.2106  0.0884  1.7633
 5149SOL    HW320369   2.907   5.205   3.557  0.5654  1.3414  0.1139
 5149SOL    MW420370   2.923   5.261   3.622  0.3329  0.4205  0.9751
 5150SOL     OW20371   6.046   4.736   3.614  0.2697  0.3406  0.9365
 5150SOL    HW220372   6.133   4.744   3.654  1.5446 -2.2602 -1.0435
 5150SOL    HW320373   6.015   4.650   3.641 -0.7575  0.3607 -0.1375
 5150SOL    MW420374   6.053   4.726   3.623  0.3024  0.0001  0.5336
 5151SOL     OW20375   3.732   3.558   1.841 -0.0873  0.6575 -0.4130
 5151SOL    HW220376   3.742   3.537   1.933 -1.1343  0.0411 -0.4202
 5151SOL    HW320377   3.820   3.580   1.811  0.5487 -0.7403  0.3431
 5151SOL    MW420378   3.745   3.558   1.849 -0.1415  0.3918 -0.3142
 5152SOL     OW20379   5.060   0.156   1.408  0.2610 -0.0033  0.1452
 5152SOL    HW220380   5.108   0.084   1.367  1.0701 -0.1745  1.3214
 5152SOL    HW320381   5.106   0.235   1.379 -0.5820  0.0580 -1.0868
 5152SOL    MW420382   5.072   0.157   1.399  0.2565 -0.0178  0.1379
 5153SOL     OW20383   1.911   2.727   5.596  0.0514 -0.3076  0.5274
 5153SOL    HW220384   1.931   2.726   5.689 -0.5377  2.1157  0.7393
 5153SOL    HW320385   1.918   2.635   5.569  1.2617 -0.9280  2.7068
 5153SOL    MW420386   1.915   2.715   5.605  0.1333 -0.0697  0.8429
 5154SOL     OW20387   0.937   0.031   5.682 -0.3549  0.0174 -0.5817
 5154SOL    HW220388   0.880  -0.045   5.673 -0.7233  0.3359 -1.0171
 5154SOL    HW320389   0.918   0.084   5.604 -0.3103  0.6935 -0.1409
 5154SOL    MW420390   0.927   0.028   5.670 -0.3976  0.1486 -0.5810
 5155SOL     OW20391   5.463   3.570   4.401  0.1277  0.8678  0.3522
 5155SOL    HW220392   5.550   3.559   4.362  0.4182  0.0159  1.1852
 5155SOL    HW320393   5.465   3.657   4.441  0.0220  1.5124 -0.9938
 5155SOL    MW420394   5.475   3.580   4.402  0.1521  0.8405  0.2845
 5156SOL     OW20395   4.379   1.619   6.244 -0.3024  0.2380 -0.3280
 5156SOL    HW220396   4.399   1.608   6.337 -0.9069 -0.4895 -0.2745
 5156SOL    HW320397   4.386   1.531   6.207  0.7572  0.6388 -1.1545
 5156SOL    MW420398   4.383   1.606   6.251 -0.2424  0.1949 -0.4300
 5157SOL     OW20399   5.075   5.650   1.125 -0.0515 -0.0890 -0.0845
 5157SOL    HW220400   5.043   5.728   1.080 -1.5429 -0.0149  1.0446
 5157SOL    HW320401   5.089   5.586   1.055 -1.9433  0.1486 -0.7384
 5157SOL    MW420402   5.073   5.652   1.110 -0.4979 -0.0479 -0.0218
 5158SOL     OW20403   4.572   2.132   1.531 -0.3032  0.1738  0.0476
 5158SOL    HW220404   4.554   2.038   1.521 -0.6647  0.1449  0.8948
 5158SOL    HW320405   4.651   2.146   1.479 -0.7527 -0.4137 -0.8260
 5158SOL    MW420406   4.580   2.121   1.523 -0.4102  0.0925  0.0441
 5159SOL     OW20407   3.868   2.300   2.650 -0.0285  0.0468  0.1975
 5159SOL    HW220408   3.799   2.233   2.655  1.9206 -2.0076  2.4887
 5159SOL    HW320409   3.886   2.307   2.556 -3.0322  0.4495 -0.4805
 5159SOL    MW420410   3.861   2.292   2.638 -0.1676 -0.1711  0.4104
 5160SOL     OW20411   4.794   0.467   6.046  0.6281 -0.2514  0.3665
 5160SOL    HW220412   4.816   0.447   5.956 -1.2342 -3.4471  0.4698
 5160SOL    HW320413   4.874   0.447   6.095  1.7135  1.6945 -0.5116
 5160SOL    MW420414   4.808   0.462   6.041  0.5256 -0.4163  0.2643
 5161SOL     OW20415   3.625   0.391   2.318  0.4398 -0.1341  0.2062
 5161SOL    HW220416   3.660   0.458   2.377  1.3766  0.5445 -1.0817
 5161SOL    HW320417   3.686   0.388   2.245 -1.1803 -0.2576 -1.2178
 5161SOL    MW420418   3.637   0.400   2.316  0.3496 -0.0609 -0.1516
 5162SOL     OW20419   1.203   1.108   1.020  0.3955  0.5582  0.0277
 5162SOL    HW220420   1.252   1.026   1.032 -1.0741 -0.5666 -1.1815
 5162SOL    HW320421   1.166   1.126   1.106 -0.3520 -0.8349  0.0440
 5162SOL    MW420422   1.204   1.099   1.033  0.1030  0.2260 -0.1297
 5163SOL     OW20423   2.396   6.089   0.078 -0.5023 -0.0908 -0.1874
 5163SOL    HW220424   2.333   6.104   0.007  0.4349  0.4065 -0.9427
 5163SOL    HW320425   2.416   5.995   0.072  0.1425  0.0856 -1.0994
 5163SOL    MW420426   2.390   6.078   0.068 -0.2936 -0.0019 -0.4074
 5164SOL     OW20427   3.601   2.536   4.292  0.4712 -0.1554 -0.3176
 5164SOL    HW220428   3.532   2.562   4.353  0.1452 -0.1364 -0.6851
 5164SOL    HW320429   3.615   2.443   4.310  0.7631 -0.0194  0.1566
 5164SOL    MW420430   3.593   2.527   4.302  0.4667 -0.1349 -0.3035
 5165SOL     OW20431   5.261   2.899   0.958  0.0551  0.3204  0.2637
 5165SOL    HW220432   5.293   2.813   0.929 -1.4238 -0.6002  1.2663
 5165SOL    HW320433   5.239   2.887   1.050  0.9550  2.1263  0.7528
 5165SOL    MW420434   5.262   2.886   0.966 -0.0213  0.4372  0.4605
 5166SOL     OW20435   0.764   4.674   0.498  0.1723  0.1329 -0.3371
 5166SOL    HW220436   0.727   4.746   0.548 -1.4178  0.5483 -1.9960
 5166SOL    HW320437   0.838   4.713   0.451  0.6494  0.1331  0.3954
 5166SOL    MW420438   0.769   4.689   0.498  0.0254  0.1877 -0.4593
 5167SOL     OW20439   2.884   0.527   2.819 -0.0655 -0.0270 -0.3867
 5167SOL    HW220440   2.801   0.481   2.827 -0.0206 -0.0458 -0.0048
 5167SOL    HW320441   2.943   0.465   2.775  0.9889 -1.6781  3.0035
 5167SOL    MW420442   2.881   0.513   2.815  0.0795 -0.2473  0.1110
 5168SOL     OW20443   5.246   4.155   3.825 -0.5135  0.0002  0.4222
 5168SOL    HW220444   5.316   4.150   3.760  0.9716 -1.3620  2.0107
 5168SOL    HW320445   5.212   4.244   3.817  0.8514  0.4452 -0.9540
 5168SOL    MW420446   5.251   4.166   3.815 -0.1374 -0.1208  0.4502
 5169SOL     OW20447   2.657   4.795   5.297 -0.0497 -0.0763  0.0487
 5169SOL    HW220448   2.579   4.744   5.319 -0.5842  0.3723 -0.7437
 5169SOL    HW320449   2.649   4.811   5.203  0.9340  0.0921 -0.0126
 5169SOL    MW420450   2.646   4.790   5.287  0.0096  0.0051 -0.0639
 5170SOL     OW20451   1.404   1.921   1.254  0.0844 -0.6283  0.3380
 5170SOL    HW220452   1.394   2.010   1.221 -0.8446 -0.9422 -0.2757
 5170SOL    HW320453   1.497   1.901   1.244  0.1544 -0.0204 -0.2932
 5170SOL    MW420454   1.415   1.930   1.249 -0.0290 -0.5895  0.1737
 5171SOL     OW20455   0.300   0.876   3.503  1.0534  0.0906  0.0055
 5171SOL    HW220456   0.348   0.956   3.482 -0.4926  1.0378 -0.0498
 5171SOL    HW320457   0.248   0.899   3.580  1.2252 -1.1383  0.5134
 5171SOL    MW420458   0.300   0.889   3.510  0.8721  0.0534  0.0652
 5172SOL     OW20459   0.351   2.450   4.848 -0.0232  0.1330 -0.1192
 5172SOL    HW220460   0.341   2.447   4.753 -0.7933 -2.6072 -0.0214
 5172SOL    HW320461   0.349   2.359   4.876 -1.7136  0.9121  2.7275
 5172SOL    MW420462   0.349   2.438   4.839 -0.3478 -0.1257  0.2693
 5173SOL     OW20463   4.471   1.789   4.764  0.0926  0.6256 -0.1706
 5173SOL    HW220464   4.509   1.746   4.841 -0.4673  1.0439  0.3442
 5173SOL    HW320465   4.547   1.824   4.717  0.3552  1.9756  1.1615
 5173SOL    MW420466   4.486   1.788   4.768  0.0534  0.8589  0.0730
 5174SOL     OW20467   2.680   2.433   3.096 -0.0562  0.1589  0.1576
 5174SOL    HW220468   2.600   2.484   3.081  0.4655  1.4667  1.5592
 5174SOL    HW320469   2.704   2.401   3.010 -2.1816 -0.4126 -0.2733
 5174SOL    MW420470   2.673   2.436   3.083 -0.2678  0.2561  0.2857
 5175SOL     OW20471   2.526   4.196   3.460  0.1523  0.2463 -0.3904
 5175SOL    HW220472   2.486   4.114   3.491 -0.4361  0.7796  0.3161
 5175SOL    HW320473   2.511   4.196   3.366 -1.3835  0.3321 -0.1746
 5175SOL    MW420474   2.518   4.185   3.452 -0.1280  0.3280 -0.2687
 5176SOL     OW20475   1.301   1.275   3.101  0.1207  0.0666 -0.2424
 5176SOL    HW220476   1.278   1.211   3.168  0.5615 -2.2476 -2.1551
 5176SOL    HW320477   1.275   1.234   3.019  2.1501  1.5120 -1.7244
 5176SOL    MW420478   1.295   1.261   3.099  0.4466 -0.0480 -0.6903
 5177SOL     OW20479   5.511   6.259   1.154 -0.2965 -0.2835  0.2693
 5177SOL    HW220480   5.578   6.199   1.122  0.2038  0.2544  0.2752
 5177SOL    HW320481   5.466   6.290   1.076  0.6769  0.7438  0.0844
 5177SOL    MW420482   5.514   6.255   1.140 -0.1020 -0.0770  0.2457
 5178SOL     OW20483   0.786   6.340   0.187 -0.0903  0.5572  0.0020
 5178SOL    HW220484   0.705   6.370   0.146  0.8094  1.0623 -1.4713
 5178SOL    HW320485   0.855   6.361   0.124  1.1940  0.0554  1.1715
 5178SOL    MW420486   0.785   6.347   0.174  0.1978  0.5577 -0.0381
 5179SOL     OW20487   1.510   5.289   0.755  0.1880  0.1124  0.1380
 5179SOL    HW220488   1.487   5.213   0.701 -0.5835 -0.4808  1.2569
 5179SOL    HW320489   1.589   5.263   0.801 -0.3678 -0.2284  0.9158
 5179SOL    MW420490   1.517   5.276   0.754  0.0129 -0.0108  0.3882
 5180SOL     OW20491   1.488   2.831   1.089 -0.0044 -0.2636  0.5175
 5180SOL    HW220492   1.498   2.901   1.154  1.2161 -0.4211  0.5174
 5180SOL    HW320493   1.433   2.870   1.021  0.6201  0.7040  0.5422
 5180SOL    MW420494   1.482   2.846   1.088  0.2390 -0.1567  0.5208
 5181SOL     OW20495   5.732   0.175   5.078  0.0507  0.2781  0.9373
 5181SOL    HW220496   5.818   0.144   5.050 -0.1273  0.6879 -0.1020
 5181SOL    HW320497   5.686   0.195   4.997 -0.3824  1.7923  1.5115
 5181SOL    MW420498   5.737   0.174   5.064 -0.0299  0.5319  0.8760
 5182SOL     OW20499   6.076   3.960   3.630  0.2773 -0.1785  0.0137
 5182SOL    HW220500   6.170   3.949   3.613  0.0644 -1.3670 -0.5311
 5182SOL    HW320501   6.058   3.902   3.704 -0.4772 -1.9659 -1.4953
 5182SOL    MW420502   6.086   3.951   3.637  0.1497 -0.5711 -0.2573
 5183SOL     OW20503   4.068   0.039   3.255  0.0548  0.1238 -0.0467
 5183SOL    HW220504   3.977   0.015   3.242  0.0479  0.5111 -0.7535
 5183SOL    HW320505   4.093  -0.005   3.336 -0.4467 -0.8770 -0.4096
 5183SOL    MW420506   4.060   0.030   3.264 -0.0122  0.0429 -0.1878
 5184SOL     OW20507   0.375   0.854   5.239  0.1678 -0.5015 -0.2224
 5184SOL    HW220508   0.377   0.802   5.319  0.3524  1.3128  1.0307
 5184SOL    HW320509   0.466   0.859   5.211 -0.0005 -1.8863 -1.1010
 5184SOL    MW420510   0.387   0.848   5.246  0.1699 -0.4448 -0.1730
 5185SOL     OW20511   1.471   0.084   1.251  0.4168  0.4457 -0.0530
 5185SOL    HW220512   1.518   0.021   1.304 -0.2788  0.0776  0.1426
 5185SOL    HW320513   1.400   0.115   1.307 -0.1252  0.3041 -0.6443
 5185SOL    MW420514   1.468   0.080   1.265  0.2535  0.3784 -0.1052
 5186SOL     OW20515   2.374   1.717   5.651 -0.2305  0.3007 -0.0128
 5186SOL    HW220516   2.333   1.654   5.593  0.1711  0.0016  0.0251
 5186SOL    HW320517   2.334   1.801   5.629 -0.1935  0.1611 -0.6057
 5186SOL    MW420518   2.363   1.720   5.641 -0.1726  0.2428 -0.0860
 5187SOL     OW20519   1.507   2.948   1.629  0.1841  0.1891 -0.1486
 5187SOL    HW220520   1.513   2.913   1.717  0.4236  1.2201  0.2566
 5187SOL    HW320521   1.424   2.913   1.595 -0.3752  0.5342  0.8268
 5187SOL    MW420522   1.497   2.939   1.636  0.1419  0.3707  0.0336
 5188SOL     OW20523   5.947   3.459   0.306 -0.3020  0.6097 -0.0287
 5188SOL    HW220524   5.954   3.426   0.216 -1.1484  0.4973 -0.0597
 5188SOL    HW320525   5.924   3.551   0.295  0.8849  0.9435  0.0736
 5188SOL    MW420526   5.945   3.467   0.293 -0.2571  0.6389 -0.0192
 5189SOL     OW20527   1.133   2.629   5.981 -0.1704 -0.4765 -0.0650
 5189SOL    HW220528   1.206   2.567   5.976 -1.1594 -1.7127  0.4172
 5189SOL    HW320529   1.175   2.715   5.976  1.1432 -1.1365 -2.4331
 5189SOL    MW420530   1.148   2.632   5.979 -0.1276 -0.7267 -0.3138
 5190SOL     OW20531   0.079   1.808   3.642 -0.4099 -0.5332 -0.1201
 5190SOL    HW220532   0.144   1.859   3.593  2.1979 -1.7723  1.8302
 5190SOL    HW320533   0.059   1.862   3.718 -0.2815 -0.9335  0.1964
 5190SOL    MW420534   0.085   1.822   3.645 -0.0489 -0.7495  0.1790
 5191SOL     OW20535   0.465   5.228   5.256  0.6702 -0.4982 -0.5553
 5191SOL    HW220536   0.387   5.274   5.284  1.4844  0.6417 -0.0834
 5191SOL    HW320537   0.437   5.137   5.244 -0.4605 -0.3401  0.6849
 5191SOL    MW420538   0.451   5.222   5.258  0.6284 -0.3270 -0.3294
 5192SOL     OW20539   0.286   2.543   2.384  0.1914  0.1269 -0.4618
 5192SOL    HW220540   0.337   2.467   2.354 -1.2196 -1.4393  0.8945
 5192SOL    HW320541   0.223   2.558   2.314 -1.0403 -1.5074  0.2237
 5192SOL    MW420542   0.285   2.535   2.371 -0.1573 -0.2954 -0.1924
 5193SOL     OW20543   3.443   5.407   0.143  0.1287 -0.3215 -0.2297
 5193SOL    HW220544   3.364   5.445   0.105 -0.1222  0.0555  0.6348
 5193SOL    HW320545   3.502   5.481   0.153 -0.7104  0.1056  2.3486
 5193SOL    MW420546   3.440   5.421   0.139 -0.0151 -0.2154  0.2245
 5194SOL     OW20547   5.866   4.151   5.039  0.0412  0.5924  0.4011
 5194SOL    HW220548   5.955   4.185   5.046  0.3442  0.0985 -0.6933
 5194SOL    HW320549   5.875   4.057   5.056 -0.4451  0.7024  1.3105
 5194SOL    MW420550   5.879   4.143   5.042  0.0170  0.5418  0.3767
 5195SOL     OW20551   5.761   4.771   1.844  0.2046  0.0705  0.5418
 5195SOL    HW220552   5.763   4.864   1.820 -1.7880  0.0633  0.2208
 5195SOL    HW320553   5.807   4.727   1.772  1.8654  0.8480  1.0869
 5195SOL    MW420554   5.768   4.778   1.831  0.1608  0.1721  0.5714
 5196SOL     OW20555   6.344   4.039   2.757 -0.3054 -0.1390 -0.3244
 5196SOL    HW220556   6.431   4.033   2.716 -0.0319  1.8347 -0.1194
 5196SOL    HW320557   6.362   4.051   2.850 -0.6993  1.9324 -0.4694
 5196SOL    MW420558   6.358   4.040   2.764 -0.3213  0.3947 -0.3165
 5197SOL     OW20559   4.319   1.880   0.482 -0.3479  0.2750 -0.7766
 5197SOL    HW220560   4.272   1.824   0.543 -1.1753  0.4029 -1.2753
 5197SOL    HW320561   4.294   1.847   0.395 -0.5625  1.1689 -1.0725
 5197SOL    MW420562   4.310   1.868   0.478 -0.4854  0.4098 -0.8815
 5198SOL     OW20563   0.100   3.283   1.911 -0.0397 -0.0797  0.0884
 5198SOL    HW220564   0.044   3.219   1.867  0.3322 -0.1458 -0.2983
 5198SOL    HW320565   0.039   3.345   1.952 -0.4353 -1.3836  1.5563
 5198SOL    MW420566   0.085   3.283   1.911 -0.0429 -0.2605  0.2311
 5199SOL     OW20567   2.629   2.717   1.144  0.3744  0.0197 -0.1870
 5199SOL    HW220568   2.712   2.675   1.165 -0.5650 -0.8236  2.1371
 5199SOL    HW320569   2.568   2.684   1.209 -1.1498  2.7207 -0.0886
 5199SOL    MW420570   2.632   2.707   1.155  0.0493  0.2648  0.1326
 5200SOL     OW20571   0.539   0.418   0.557  0.1493 -0.4910 -0.5257
 5200SOL    HW220572   0.572   0.501   0.594 -0.2734 -0.2576 -0.6662
 5200SOL    HW320573   0.444   0.429   0.556  0.0105 -1.4327  0.5332
 5200SOL    MW420574   0.531   0.431   0.562  0.0752 -0.5845 -0.4046
 5201SOL     OW20575   6.349   2.729   2.842  0.5545  0.1803  0.1321
 5201SOL    HW220576   6.265   2.698   2.809  0.0595  0.3584  1.2209
 5201SOL    HW320577   6.378   2.661   2.902  1.0323  0.2822  0.0224
 5201SOL    MW420578   6.342   2.716   2.845  0.5522  0.2173  0.2613
 5202SOL     OW20579   4.189   6.012   0.147 -0.1057  0.3626  0.1108
 5202SOL    HW220580   4.141   6.093   0.166  0.4736  1.0081 -1.0760
 5202SOL    HW320581   4.121   5.950   0.122 -0.5277  0.5940  0.6641
 5202SOL    MW420582   4.173   6.015   0.146 -0.0850  0.4783  0.0272
 5203SOL     OW20583   3.435   2.079   3.528 -0.1451  0.1436  0.8535
 5203SOL    HW220584   3.495   2.009   3.503  1.2874  0.5812  2.7414
 5203SOL    HW320585   3.355   2.062   3.479  0.8695 -1.6021 -0.2945
 5203SOL    MW420586   3.432   2.068   3.519  0.1778 -0.0290  0.9511
 5204SOL     OW20587   6.223   2.414   3.254 -0.0556  0.8416 -0.1469
 5204SOL    HW220588   6.244   2.321   3.249  1.0904  1.1400 -1.7278
 5204SOL    HW320589   6.265   2.444   3.335 -0.3788  0.0210  0.3385
 5204SOL    MW420590   6.231   2.406   3.264  0.0530  0.7727 -0.2914
 5205SOL     OW20591   5.549   3.771   5.819  0.3150  0.1880 -0.4998
 5205SOL    HW220592   5.602   3.808   5.889  0.4061  0.8585 -0.9103
 5205SOL    HW320593   5.468   3.823   5.819  0.2138  0.0376 -0.7327
 5205SOL    MW420594   5.545   3.783   5.828  0.3137  0.2566 -0.5847
 5206SOL     OW20595   3.744   0.146   6.190 -0.4112 -0.1956 -0.0181
 5206SOL    HW220596   3.776   0.060   6.161  1.2219  0.4796 -0.3217
 5206SOL    HW320597   3.705   0.184   6.111 -2.1954 -1.0733  0.3840
 5206SOL    MW420598   3.743   0.140   6.175 -0.4311 -0.2223 -0.0051
 5207SOL     OW20599   2.821   1.334   1.538 -0.8959  0.1156 -0.2599
 5207SOL    HW220600   2.738   1.288   1.525 -0.2695 -0.9524 -0.5580
 5207SOL    HW320601   2.877   1.304   1.466 -0.7081  1.9519 -0.9404
 5207SOL    MW420602   2.818   1.324   1.527 -0.7885  0.2170 -0.3890
 5208SOL     OW20603   2.348   2.150   6.216  0.0749  0.1292  0.4491
 5208SOL    HW220604   2.386   2.198   6.290  0.8017  1.2551 -0.6110
 5208SOL    HW320605   2.276   2.206   6.186  2.1137  1.6765 -2.0072
 5208SOL    MW420606   2.344   2.164   6.222  0.4398  0.4819 -0.0149
 5209SOL     OW20607   5.711   6.167   1.381 -0.4461  0.2681 -0.0970
 5209SOL    HW220608   5.687   6.075   1.372 -0.0483  0.1335  0.1823
 5209SOL    HW320609   5.736   6.176   1.473 -0.2381  0.5967 -0.1844
 5209SOL    MW420610   5.711   6.157   1.392 -0.3662  0.2937 -0.0716
 5210SOL     OW20611   2.172   2.314   2.070 -0.2022  0.2353  0.0103
 5210SOL    HW220612   2.133   2.376   2.008 -1.4611 -0.2678  0.2641
 5210SOL    HW320613   2.115   2.318   2.147  0.5753 -0.1258  0.6178
 5210SOL    MW420614   2.160   2.323   2.072 -0.2657  0.1213  0.1239
 5211SOL     OW20615   2.957   3.277   5.113 -0.1622  0.1294 -0.3292
 5211SOL    HW220616   2.900   3.315   5.180 -0.2658  0.2817 -0.5020
 5211SOL    HW320617   3.020   3.225   5.162  0.7154  1.4675 -0.0026
 5211SOL    MW420618   2.958   3.275   5.128 -0.0601  0.3260 -0.3089
 5212SOL     OW20619   2.807   0.312   0.901  0.3008 -0.0983  0.1312
 5212SOL    HW220620   2.776   0.224   0.881  0.3945 -0.0656 -0.1645
 5212SOL    HW320621   2.731   0.358   0.936  0.6434 -0.7956  1.8899
 5212SOL    MW420622   2.793   0.307   0.903  0.3584 -0.1860  0.3242
 5213SOL     OW20623   2.720   3.498   2.750  0.4340 -0.0256  0.6377
 5213SOL    HW220624   2.812   3.494   2.777  0.9322  1.7664 -0.5952
 5213SOL    HW320625   2.722   3.479   2.656 -0.7593 -2.1091  0.9793
 5213SOL    MW420626   2.732   3.495   2.741  0.3423 -0.0641  0.5201
 5214SOL     OW20627   4.780   3.707   6.252  0.1036 -0.4302 -0.6632
 5214SOL    HW220628   4.875   3.696   6.246  0.1810  0.1084 -0.4625
 5214SOL    HW320629   4.764   3.739   6.341 -0.1123  0.8991 -1.1502
 5214SOL    MW420630   4.790   3.710   6.263  0.0853 -0.1837 -0.7009
 5215SOL     OW20631   3.230   4.564   4.023  0.1354 -0.1992 -0.3936
 5215SOL    HW220632   3.141   4.581   3.991 -0.2445  0.4653  0.9386
 5215SOL    HW320633   3.252   4.478   3.988 -0.2602  0.4645 -2.3559
 5215SOL    MW420634   3.221   4.555   4.015  0.0331 -0.0240 -0.4767
 5216SOL     OW20635   1.929   2.440   4.602 -0.1298 -0.0220 -1.0555
 5216SOL    HW220636   2.015   2.429   4.561 -0.8023  2.3040 -3.3711
 5216SOL    HW320637   1.887   2.355   4.592  2.3180 -1.7355  1.5402
 5216SOL    MW420638   1.935   2.428   4.595  0.1044  0.0588 -1.0186
 5217SOL     OW20639   3.904   3.475   0.293 -0.1989  0.1101  0.0205
 5217SOL    HW220640   3.893   3.390   0.249  1.1089 -0.8314  1.4107
 5217SOL    HW320641   3.927   3.535   0.222  1.2310 -1.2236 -0.7327
 5217SOL    MW420642   3.906   3.471   0.278  0.1623 -0.1901  0.1046
 5218SOL     OW20643   3.810   0.650   1.315  0.0284 -0.2953  0.0740
 5218SOL    HW220644   3.819   0.599   1.396 -2.3167 -0.9636 -0.0051
 5218SOL    HW320645   3.731   0.702   1.328 -0.0539  0.0339 -1.5515
 5218SOL    MW420646   3.801   0.650   1.327 -0.2919 -0.3400 -0.1509
 5219SOL     OW20647   3.797   3.248   6.003  0.5001 -0.0998  0.1951
 5219SOL    HW220648   3.771   3.162   5.969  0.5950 -0.3133  0.6645
 5219SOL    HW320649   3.867   3.276   5.944 -0.9078  0.5902 -1.2444
 5219SOL    MW420650   3.803   3.240   5.991  0.3269 -0.0369  0.0671
 5220SOL     OW20651   1.714   4.586   4.019  0.3776  0.2904  0.2824
 5220SOL    HW220652   1.643   4.605   3.958  0.1018 -3.5164 -0.8384
 5220SOL    HW320653   1.674   4.592   4.105 -0.7980  0.0727 -0.2343
 5220SOL    MW420654   1.700   4.590   4.022  0.1861 -0.2406  0.0664
 5221SOL     OW20655   0.157   0.967   6.254 -0.5493 -0.1974  0.0718
 5221SOL    HW220656   0.196   0.883   6.278 -1.3652 -0.3060  1.0607
 5221SOL    HW320657   0.063   0.953   6.259 -0.7005  0.6808 -0.1070
 5221SOL    MW420658   0.150   0.954   6.258 -0.6769 -0.0959  0.1787
 5222SOL     OW20659   4.057   5.036   4.152 -0.2755 -0.4160  0.2653
 5222SOL    HW220660   4.141   5.082   4.157 -0.5642  0.2694 -0.7579
 5222SOL    HW320661   3.995   5.096   4.193 -0.6136  0.0425 -0.8691
 5222SOL    MW420662   4.060   5.050   4.158 -0.3582 -0.2650 -0.0194
 5223SOL     OW20663   2.741   4.822   1.065  0.5277 -0.4263 -0.2415
 5223SOL    HW220664   2.741   4.789   1.155  1.5449  2.7428  1.0822
 5223SOL    HW320665   2.728   4.744   1.010 -2.4817 -2.2287  2.6546
 5223SOL    MW420666   2.739   4.807   1.069  0.2649 -0.2460  0.3153
 5224SOL     OW20667   0.218   1.060   2.048  0.2937 -0.3506 -0.3637
 5224SOL    HW220668   0.281   1.116   2.004  0.1357 -0.0130 -0.1670
 5224SOL    HW320669   0.229   0.974   2.007  0.3267 -0.1035 -0.8764
 5224SOL    MW420670   0.228   1.056   2.037  0.2772 -0.2735 -0.4054
 5225SOL     OW20671   1.507   3.058   0.520  0.0456 -0.0404  0.0531
 5225SOL    HW220672   1.519   3.019   0.606  0.1211 -1.6629 -0.6523
 5225SOL    HW320673   1.432   3.011   0.482  0.9790 -0.4747 -1.3466
 5225SOL    MW420674   1.499   3.047   0.526  0.1787 -0.3118 -0.2246
 5226SOL     OW20675   5.534   1.826   2.676  0.3257  0.8773 -0.1605
 5226SOL    HW220676   5.607   1.773   2.644  0.8493  0.4974  1.5289
 5226SOL    HW320677   5.460   1.801   2.621  1.0349 -0.1539 -0.6811
 5226SOL    MW420678   5.534   1.816   2.665  0.4883  0.6911 -0.0063
 5227SOL     OW20679   3.950   4.279   5.646 -0.2843 -0.6775  0.3788
 5227SOL    HW220680   3.919   4.270   5.556  0.8633 -2.3713  0.1211
 5227SOL    HW320681   3.879   4.326   5.690 -1.1151 -0.3077 -1.2599
 5227SOL    MW420682   3.936   4.284   5.640 -0.2425 -0.8522  0.1286
 5228SOL     OW20683   4.037   5.175   2.506 -0.0102  0.3398 -0.7091
 5228SOL    HW220684   4.110   5.179   2.443  1.6260  0.2102  1.0640
 5228SOL    HW320685   4.077   5.199   2.589 -2.2590  1.2288  0.1830
 5228SOL    MW420686   4.052   5.179   2.508 -0.0910  0.4400 -0.3575
 5229SOL     OW20687   3.017   0.820   1.722 -0.1556 -0.1083 -0.2523
 5229SOL    HW220688   3.084   0.756   1.747  0.9882  0.1621 -2.4173
 5229SOL    HW320689   3.057   0.869   1.650 -2.5046  0.4044 -1.2828
 5229SOL    MW420690   3.031   0.818   1.716 -0.3146 -0.0050 -0.6739
 5230SOL     OW20691   4.418   5.274   4.820  0.9812  0.0503 -0.1550
 5230SOL    HW220692   4.388   5.231   4.900  0.9606 -0.3762 -0.3891
 5230SOL    HW320693   4.349   5.338   4.800  0.6725 -0.2907 -0.1870
 5230SOL    MW420694   4.405   5.277   4.828  0.9377 -0.0510 -0.1901
 5231SOL     OW20695   3.454   3.877   4.397 -0.1868  0.5748  0.0924
 5231SOL    HW220696   3.411   3.800   4.435  0.1806  0.5582  0.4859
 5231SOL    HW320697   3.407   3.952   4.435 -0.9523  0.5459 -0.7748
 5231SOL    MW420698   3.442   3.877   4.407 -0.2394  0.5688  0.0299
 5232SOL     OW20699   3.622   2.081   5.719 -0.1514  0.7527 -0.1902
 5232SOL    HW220700   3.527   2.070   5.709 -0.4918  3.0337 -0.0866
 5232SOL    HW320701   3.647   2.139   5.646  0.6001  2.5289  1.3875
 5232SOL    MW420702   3.613   2.088   5.708 -0.0972  1.2880  0.0316
 5233SOL     OW20703   4.750   0.030   2.332 -0.1111  0.4635 -0.1535
 5233SOL    HW220704   4.830  -0.018   2.310  0.5063 -0.1912  3.0156
 5233SOL    HW320705   4.686  -0.039   2.349 -0.3805  0.8708  0.5048
 5233SOL    MW420706   4.752   0.014   2.332 -0.0652  0.4309  0.3515
 5234SOL     OW20707   4.161   0.138   4.083 -0.0035  0.4390 -0.3180
 5234SOL    HW220708   4.150   0.167   3.992  2.4984  1.4733 -0.3630
 5234SOL    HW320709   4.220   0.202   4.122  0.8773 -1.2802  1.3566
 5234SOL    MW420710   4.168   0.150   4.076  0.4428  0.3486 -0.1030
 5235SOL     OW20711   2.573   3.902   6.309  0.1599 -0.2159 -0.3718
 5235SOL    HW220712   2.544   3.812   6.323  1.5605 -0.6082  0.2040
 5235SOL    HW320713   2.519   3.954   6.369  0.1781 -0.8260  0.1802
 5235SOL    MW420714   2.562   3.897   6.319  0.3471 -0.3482 -0.2230
 5236SOL     OW20715   1.084   4.100   4.343 -0.5817 -0.2026 -0.3548
 5236SOL    HW220716   1.030   4.067   4.271  0.8852  0.7846 -2.0112
 5236SOL    HW320717   1.097   4.193   4.322 -0.0220  0.0897  1.1488
 5236SOL    MW420718   1.079   4.108   4.331 -0.3143 -0.0338 -0.3749
 5237SOL     OW20719   0.717   4.097   3.637  0.0733 -1.0363 -0.4893
 5237SOL    HW220720   0.674   4.080   3.720  1.4457  0.3824  0.5693
 5237SOL    HW320721   0.658   4.157   3.590  0.4012  0.1212  0.5323
 5237SOL    MW420722   0.704   4.103   3.641  0.2976 -0.6964 -0.2148
 5238SOL     OW20723   1.563   5.625   1.924  0.0972  0.2714 -0.1023
 5238SOL    HW220724   1.526   5.556   1.869 -0.2506  0.4498 -0.0976
 5238SOL    HW320725   1.615   5.579   1.989  0.5428  0.0567 -0.6024
 5238SOL    MW420726   1.565   5.610   1.925  0.1101  0.2666 -0.1677
 5239SOL     OW20727   3.152   3.751   3.805  0.7169 -0.2720 -0.3679
 5239SOL    HW220728   3.208   3.799   3.865 -0.2143  1.8585 -1.1052
 5239SOL    HW320729   3.109   3.686   3.860  0.7576  0.8478  1.0622
 5239SOL    MW420730   3.153   3.749   3.820  0.5994  0.1568 -0.2765
 5240SOL     OW20731   3.515   4.806   3.619 -0.0426  0.2907 -0.6610
 5240SOL    HW220732   3.526   4.791   3.713  1.1004 -0.9815 -0.9650
 5240SOL    HW320733   3.446   4.872   3.613 -1.6411 -1.1273  1.0033
 5240SOL    MW420734   3.507   4.813   3.631 -0.1027 -0.0643 -0.4815
 5241SOL     OW20735   0.453   1.877   4.628 -0.3119 -0.4873  0.5371
 5241SOL    HW220736   0.479   1.956   4.580 -0.4355 -1.1480 -0.6742
 5241SOL    HW320737   0.385   1.837   4.573  0.4814 -1.9802  0.5736
 5241SOL    MW420738   0.447   1.882   4.614 -0.2236 -0.7714  0.3821
 5242SOL     OW20739   3.831   1.602   4.799 -0.4127 -0.0332  0.4328
 5242SOL    HW220740   3.863   1.661   4.867  0.8710 -0.2997  0.0873
 5242SOL    HW320741   3.761   1.650   4.757  1.5427  1.9178 -0.8051
 5242SOL    MW420742   3.826   1.616   4.803  0.0147  0.1891  0.2239
 5243SOL     OW20743   1.799   1.171   1.445  0.5546 -0.5273  0.0305
 5243SOL    HW220744   1.883   1.215   1.457  0.8817 -0.4974 -1.9320
 5243SOL    HW320745   1.814   1.081   1.472  0.3967  0.0687  2.3220
 5243SOL    MW420746   1.812   1.165   1.450  0.5769 -0.4447  0.0739
 5244SOL     OW20747   0.526   2.934   1.764  0.1127  0.2742  0.4871
 5244SOL    HW220748   0.439   2.954   1.798 -0.4618 -0.6388 -0.3845
 5244SOL    HW320749   0.523   2.840   1.745  0.5297  0.6583 -1.6686
 5244SOL    MW420750   0.514   2.924   1.766  0.0919  0.2044  0.0877
 5245SOL     OW20751   3.640   1.493   0.084 -0.5137 -0.1435 -0.4008
 5245SOL    HW220752   3.631   1.558   0.153 -1.6613  0.4365 -1.0569
 5245SOL    HW320753   3.651   1.545   0.004  2.6588 -0.7796 -0.5181
 5245SOL    MW420754   3.640   1.508   0.082 -0.2465 -0.1509 -0.5028
 5246SOL     OW20755   0.163   1.764   0.102  0.0883 -0.2284 -0.3363
 5246SOL    HW220756   0.107   1.701   0.147  2.0466 -3.1535 -1.7322
 5246SOL    HW320757   0.118   1.780   0.018 -1.2802  1.7403  0.6816
 5246SOL    MW420758   0.150   1.758   0.097  0.1661 -0.3546 -0.3862
 5247SOL     OW20759   2.740   3.995   2.604  0.9579  0.0738 -0.1469
 5247SOL    HW220760   2.785   4.078   2.585  0.5390  0.3016 -0.1815
 5247SOL    HW320761   2.691   4.013   2.684 -0.7441  0.5359 -1.2232
 5247SOL    MW420762   2.739   4.009   2.612  0.6781  0.1649 -0.2935
 5248SOL     OW20763   5.010   0.467   0.814 -0.3885 -0.7142 -0.3039
 5248SOL    HW220764   5.025   0.560   0.833 -0.5325 -0.6598 -0.4514
 5248SOL    HW320765   5.077   0.445   0.749 -0.1924 -0.7790 -0.0780
 5248SOL    MW420766   5.021   0.477   0.808 -0.3816 -0.7156 -0.2936
 5249SOL     OW20767   2.680   0.921   2.921 -0.0352  0.5031  0.3382
 5249SOL    HW220768   2.642   0.871   2.994  0.5262 -0.6716 -0.1639
 5249SOL    HW320769   2.605   0.943   2.866 -0.1093 -1.1679 -0.2591
 5249SOL    MW420770   2.665   0.917   2.923  0.0291  0.1276  0.1931
 5250SOL     OW20771   0.217   0.171   1.942 -0.2979 -0.4172  0.0146
 5250SOL    HW220772   0.256   0.257   1.931  1.3179 -1.1990 -0.6356
 5250SOL    HW320773   0.142   0.171   1.883  0.3695  0.1548 -0.8546
 5250SOL    MW420774   0.212   0.182   1.933  0.0033 -0.4449 -0.1858
 5251SOL     OW20775   5.101   1.384   4.876  0.0597  0.1228 -0.4067
 5251SOL    HW220776   5.062   1.391   4.789 -0.4233  3.0708 -0.0596
 5251SOL    HW320777   5.028   1.393   4.937  0.2475 -2.8241  0.4434
 5251SOL    MW420778   5.086   1.386   4.873  0.0208  0.1229 -0.2487
 5252SOL     OW20779   5.059   2.101   1.145  1.0517  0.2710  0.1865
 5252SOL    HW220780   4.989   2.163   1.167 -1.5985 -2.0798 -0.9317
 5252SOL    HW320781   5.083   2.062   1.229 -1.5381 -1.2866  0.2993
 5252SOL    MW420782   5.053   2.104   1.159  0.3604 -0.2447  0.0539
 5253SOL     OW20783   4.945   5.547   3.238  0.4384  0.2519  0.4489
 5253SOL    HW220784   4.909   5.459   3.232  1.2237 -0.0087 -0.8368
 5253SOL    HW320785   5.040   5.535   3.231  0.6172  1.1323  1.1174
 5253SOL    MW420786   4.953   5.534   3.237  0.5656  0.3337  0.3674
 5254SOL     OW20787   3.811   4.295   1.620 -0.0651 -0.4686 -0.1715
 5254SOL    HW220788   3.779   4.278   1.531  0.6082 -0.3982 -0.4316
 5254SOL    HW320789   3.784   4.385   1.638 -2.0913 -1.1587  0.5352
 5254SOL    MW420790   3.803   4.304   1.611 -0.2436 -0.5504 -0.1125
 5255SOL     OW20791   4.854   3.234   2.715  0.6786 -0.4288 -0.3722
 5255SOL    HW220792   4.948   3.223   2.705  0.5141 -2.1115 -0.3658
 5255SOL    HW320793   4.824   3.263   2.628  1.0058 -1.5291 -0.8717
 5255SOL    MW420794   4.862   3.236   2.702  0.7001 -0.7960 -0.4373
 5256SOL     OW20795   5.359   0.578   4.254 -0.1632  0.2458  0.3630
 5256SOL    HW220796   5.441   0.624   4.238  0.4172 -0.8227  0.1810
 5256SOL    HW320797   5.297   0.617   4.192  0.7658 -0.4161 -1.0388
 5256SOL    MW420798   5.361   0.589   4.244  0.0360  0.0175  0.1540
 5257SOL     OW20799   2.554   5.864   5.912  0.1064 -0.0724  0.0396
 5257SOL    HW220800   2.521   5.918   5.841 -0.7685 -0.0986  0.4071
 5257SOL    HW320801   2.645   5.845   5.888 -0.1784 -0.1006 -1.0673
 5257SOL    MW420802   2.562   5.869   5.900 -0.0466 -0.0795 -0.0580
 5258SOL     OW20803   5.144   3.053   0.754 -0.1085  0.3401 -0.0771
 5258SOL    HW220804   5.212   3.008   0.804  0.3954  1.2127  0.0556
 5258SOL    HW320805   5.182   3.139   0.735 -0.8321  0.5149 -0.7775
 5258SOL    MW420806   5.158   3.059   0.758 -0.1375  0.4783 -0.1520
 5259SOL     OW20807   5.793   3.037   2.194  0.3449  0.5228 -0.0053
 5259SOL    HW220808   5.747   3.113   2.157 -1.9326 -0.5239  0.4730
 5259SOL    HW320809   5.866   3.021   2.134 -1.0651  1.1183 -1.9871
 5259SOL    MW420810   5.796   3.045   2.181 -0.1416  0.4633 -0.2036
 5260SOL     OW20811   1.742   4.973   4.002  0.1763  0.6345 -0.7697
 5260SOL    HW220812   1.785   4.929   3.928  0.4708  0.5126 -0.5311
 5260SOL    HW320813   1.651   4.943   3.998  0.3030  0.2394 -0.7905
 5260SOL    MW420814   1.736   4.963   3.991  0.2318  0.5663 -0.7410
 5261SOL     OW20815   2.660   4.679   3.268 -0.2264  0.0617  0.4719
 5261SOL    HW220816   2.605   4.748   3.303  0.9582  0.7040  1.1230
 5261SOL    HW320817   2.748   4.716   3.268  0.2615 -1.0364 -0.2762
 5261SOL    MW420818   2.665   4.693   3.273 -0.0058  0.0016  0.4591
 5262SOL     OW20819   2.401   2.169   3.635 -0.3856  0.2168  0.0544
 5262SOL    HW220820   2.426   2.169   3.727 -0.7747 -0.4361  0.1664
 5262SOL    HW320821   2.397   2.262   3.611 -0.4197  0.3928  0.7321
 5262SOL    MW420822   2.404   2.181   3.644 -0.4414  0.1539  0.1586
 5263SOL     OW20823   5.932   1.383   5.854 -0.2347  0.6862 -0.0765
 5263SOL    HW220824   5.883   1.394   5.773 -2.1133  0.9402  1.0250
 5263SOL    HW320825   5.997   1.454   5.852  2.1342 -1.3359 -2.8694
 5263SOL    MW420826   5.934   1.394   5.843 -0.1701  0.4529 -0.2996
 5264SOL     OW20827   4.692   4.312   2.255  0.0354 -0.0840 -0.0506
 5264SOL    HW220828   4.624   4.286   2.193 -1.4706  1.0570  1.0351
 5264SOL    HW320829   4.773   4.278   2.218 -1.0697 -1.1887 -1.5850
 5264SOL    MW420830   4.694   4.304   2.242 -0.3091 -0.0792 -0.1098
 5265SOL     OW20831   0.018   4.601   0.763 -0.0975  0.0723  0.0714
 5265SOL    HW220832  -0.040   4.590   0.688 -1.3801  0.3868  0.9875
 5265SOL    HW320833  -0.038   4.586   0.839  1.0291  0.3694  0.9850
 5265SOL    MW420834   0.003   4.597   0.763 -0.1181  0.1530  0.3128
 5266SOL     OW20835   6.325   2.713   3.634 -0.8564  0.4296  0.5336
 5266SOL    HW220836   6.321   2.808   3.644 -0.3277  0.4356  0.7168
 5266SOL    HW320837   6.258   2.679   3.693 -0.3093  0.6391  1.2902
 5266SOL    MW420838   6.316   2.721   3.643 -0.7145  0.4580  0.6576
 5267SOL     OW20839   2.866   5.724   5.311 -0.1433  0.0723 -0.4422
 5267SOL    HW220840   2.877   5.787   5.382 -0.8152  0.3226 -0.5549
 5267SOL    HW320841   2.917   5.760   5.239 -0.9224  0.7563 -0.6693
 5267SOL    MW420842   2.874   5.737   5.311 -0.3347  0.1955 -0.4870
 5268SOL     OW20843   5.689   1.299   0.141 -0.0505 -0.0759  0.0965
 5268SOL    HW220844   5.778   1.263   0.147 -0.3275 -0.5942  1.4554
 5268SOL    HW320845   5.702   1.392   0.126  0.7013 -0.3718 -1.2343
 5268SOL    MW420846   5.703   1.306   0.140  0.0122 -0.1833  0.1002
 5269SOL     OW20847   3.697   5.711   6.265 -0.0973 -0.7740 -0.2354
 5269SOL    HW220848   3.626   5.650   6.250  0.5254 -1.3094 -1.1394
 5269SOL    HW320849   3.775   5.656   6.270  0.5440 -0.0466 -1.5740
 5269SOL    MW420850   3.698   5.696   6.263  0.0695 -0.7487 -0.5313
 5270SOL     OW20851   5.122   0.194   5.113  0.3223  0.5019 -0.5345
 5270SOL    HW220852   5.161   0.197   5.026  3.1717  1.6991  0.6511
 5270SOL    HW320853   5.127   0.102   5.139  0.1825  0.2668 -1.3213
 5270SOL    MW420854   5.128   0.183   5.105  0.6798  0.6288 -0.4819
 5271SOL     OW20855   4.738   0.465   5.342  0.3751  0.2967 -0.0467
 5271SOL    HW220856   4.731   0.454   5.437 -1.0668 -0.2272 -0.1850
 5271SOL    HW320857   4.652   0.495   5.315  0.4662 -0.5089 -1.3071
 5271SOL    MW420858   4.726   0.467   5.351  0.1968  0.1213 -0.2312
 5272SOL     OW20859   0.070   1.487   5.921 -0.6998  0.1594  0.2122
 5272SOL    HW220860   0.044   1.410   5.972 -1.5115  0.9748  1.0765
 5272SOL    HW320861   0.153   1.515   5.960 -0.9402  0.3360  0.6096
 5272SOL    MW420862   0.077   1.481   5.933 -0.8386  0.2903  0.3786
 5273SOL     OW20863   3.432   5.070   5.453 -0.5676  0.0153 -0.1751
 5273SOL    HW220864   3.376   5.143   5.479 -0.6556  0.3557 -1.2421
 5273SOL    HW320865   3.379   4.992   5.469 -2.0165  0.3965 -2.5937
 5273SOL    MW420866   3.418   5.069   5.458 -0.7704  0.1105 -0.6350
 5274SOL     OW20867   1.655   0.457   4.880  0.1944 -0.3381  0.2888
 5274SOL    HW220868   1.624   0.456   4.970 -0.7254 -0.1741 -0.0140
 5274SOL    HW320869   1.605   0.387   4.837  0.2046 -0.0345 -0.2248
 5274SOL    MW420870   1.644   0.448   4.886  0.0744 -0.2764  0.1811
 5275SOL     OW20871   1.231   3.388   1.459  0.0789  0.3676 -0.3378
 5275SOL    HW220872   1.256   3.432   1.540  1.2998  0.6541 -0.8580
 5275SOL    HW320873   1.187   3.456   1.408 -0.4949  0.2433 -0.0231
 5275SOL    MW420874   1.228   3.403   1.463  0.1643  0.3890 -0.3649
 5276SOL     OW20875   2.452   1.186   0.238  0.4664 -0.2745  0.1334
 5276SOL    HW220876   2.515   1.124   0.199  0.8355  0.4210 -0.3989
 5276SOL    HW320877   2.370   1.138   0.240  0.7854 -0.8455 -0.1147
 5276SOL    MW420878   2.450   1.171   0.233  0.5572 -0.2581  0.0304
 5277SOL     OW20879   0.485   5.889   0.214  0.0919  0.4120 -0.4190
 5277SOL    HW220880   0.553   5.868   0.279 -0.5962 -0.0904  0.1559
 5277SOL    HW320881   0.533   5.897   0.132  0.8430 -0.0403 -0.0469
 5277SOL    MW420882   0.501   5.887   0.212  0.1002  0.2860 -0.2940
 5278SOL     OW20883   2.306   5.128   3.839  0.0206  0.0510 -0.0104
 5278SOL    HW220884   2.302   5.213   3.884 -0.2506  0.3784 -0.6344
 5278SOL    HW320885   2.297   5.150   3.746 -1.5059 -0.7583 -0.0916
 5278SOL    MW420886   2.304   5.142   3.832 -0.2166 -0.0126 -0.1034
 5279SOL     OW20887   3.515   2.915   5.996  0.4935 -0.1526  0.0210
 5279SOL    HW220888   3.501   2.999   6.040  0.4744  0.8617 -1.8176
 5279SOL    HW320889   3.535   2.938   5.905 -2.5372 -2.1940 -1.3303
 5279SOL    MW420890   3.516   2.929   5.990  0.0911 -0.2881 -0.3999
 5280SOL     OW20891   6.253   6.071   6.419 -0.2212  0.4514 -0.1628
 5280SOL    HW220892   6.329   6.103   6.469  1.2436 -1.7080 -0.8572
 5280SOL    HW320893   6.240   6.138   6.351 -0.3501  1.9198  1.2482
 5280SOL    MW420894   6.262   6.084   6.416 -0.0449  0.3603 -0.0682
 5281SOL     OW20895   6.188   6.019   5.105  0.2036 -0.2175  0.0928
 5281SOL    HW220896   6.267   6.068   5.085 -0.9966  1.1384 -1.6042
 5281SOL    HW320897   6.171   5.965   5.028 -1.5865  1.0337 -0.4566
 5281SOL    MW420898   6.196   6.018   5.092 -0.1909  0.1265 -0.2035
 5282SOL     OW20899   3.568   3.610   2.753  0.4153 -0.9436 -0.2182
 5282SOL    HW220900   3.560   3.518   2.726  1.4892 -0.9360 -0.6181
 5282SOL    HW320901   3.599   3.606   2.843  0.4492 -0.9735 -0.2312
 5282SOL    MW420902   3.571   3.597   2.761  0.5614 -0.9465 -0.2726
 5283SOL     OW20903   4.667   4.864   0.468 -0.4358  0.3787 -0.4203
 5283SOL    HW220904   4.743   4.872   0.411  1.0666 -2.2075  0.9820
 5283SOL    HW320905   4.617   4.791   0.432 -0.3845 -0.1656  0.5643
 5283SOL    MW420906   4.671   4.855   0.456 -0.2308 -0.0343 -0.1054
 5284SOL     OW20907   0.767   5.316   0.434  0.0198 -0.0094  0.1330
 5284SOL    HW220908   0.767   5.404   0.474  2.1853 -0.2080  0.6785
 5284SOL    HW320909   0.756   5.256   0.508  1.3626 -0.2806  0.1326
 5284SOL    MW420910   0.765   5.320   0.449  0.4826 -0.0714  0.2049
 5285SOL     OW20911   2.318   3.995   0.524 -0.4028  0.0060 -0.0129
 5285SOL    HW220912   2.380   4.067   0.528  0.4307 -0.7391  1.0947
 5285SOL    HW320913   2.348   3.941   0.450 -1.8974  1.4949 -1.8228
 5285SOL    MW420914   2.330   3.997   0.514 -0.4900  0.1041 -0.1056
 5286SOL     OW20915   5.179   6.091   0.933 -0.3796 -0.2675  0.2786
 5286SOL    HW220916   5.219   6.010   0.903  0.5589  0.2602  0.0750
 5286SOL    HW320917   5.141   6.130   0.854 -1.9478 -1.0924  0.5762
 5286SOL    MW420918   5.179   6.086   0.919 -0.4626 -0.3067  0.2910
 5287SOL     OW20919   5.931   6.325   0.531 -0.1297  0.6615 -0.2695
 5287SOL    HW220920   5.857   6.385   0.541 -0.3775  0.0986  1.5966
 5287SOL    HW320921   5.969   6.318   0.618  2.5917  1.4399 -1.2779
 5287SOL    MW420922   5.926   6.332   0.544  0.1966  0.6900 -0.1563
 5288SOL     OW20923   2.228   2.800   2.752 -0.1182 -0.8860 -0.2260
 5288SOL    HW220924   2.319   2.807   2.721  0.3739 -0.1166  1.2921
 5288SOL    HW320925   2.178   2.854   2.692  0.4867 -0.9993 -0.8494
 5288SOL    MW420926   2.233   2.808   2.740  0.0265 -0.7994 -0.1080
 5289SOL     OW20927   4.504   4.278   5.790  0.1287  0.5536 -0.6917
 5289SOL    HW220928   4.501   4.280   5.885 -2.7903 -1.6088 -0.5954
 5289SOL    HW320929   4.539   4.192   5.768 -1.1807  0.1808 -1.4722
 5289SOL    MW420930   4.508   4.267   5.799 -0.4292  0.2191 -0.7820
 5290SOL     OW20931   1.316   2.385   2.648  0.0523  0.3138 -0.0111
 5290SOL    HW220932   1.252   2.341   2.704 -0.0852  1.0439  0.4207
 5290SOL    HW320933   1.292   2.359   2.559 -2.6415  2.7414 -0.1464
 5290SOL    MW420934   1.305   2.376   2.644 -0.3213  0.7304  0.0280
 5291SOL     OW20935  -0.004   1.702   5.577 -0.1064  0.2080  0.5755
 5291SOL    HW220936  -0.029   1.611   5.595 -0.3344 -0.7209 -3.4512
 5291SOL    HW320937   0.092   1.702   5.580  0.1216 -1.1719 -2.5936
 5291SOL    MW420938   0.005   1.690   5.580 -0.1064 -0.0966 -0.3739
 5292SOL     OW20939   4.129   6.162   1.699  0.0903 -0.0453  0.0874
 5292SOL    HW220940   4.079   6.164   1.618 -1.1991 -1.7102  0.7760
 5292SOL    HW320941   4.065   6.186   1.767  0.6643 -0.4558  0.7886
 5292SOL    MW420942   4.114   6.165   1.698 -0.0041 -0.3192  0.2708
 5293SOL     OW20943   0.570   1.831   6.195  0.2911  0.1713  0.2810
 5293SOL    HW220944   0.483   1.860   6.166  0.0019 -0.4078  0.5539
 5293SOL    HW320945   0.604   1.781   6.121  0.9148  1.4243 -0.3068
 5293SOL    MW420946   0.563   1.828   6.182  0.3352  0.2602  0.2395
 5294SOL     OW20947   0.383   5.004   2.598 -0.2045 -0.4172  0.0352
 5294SOL    HW220948   0.374   4.929   2.657  1.2292 -0.7318 -0.1152
 5294SOL    HW320949   0.449   4.977   2.535  1.2021  1.3803  0.6417
 5294SOL    MW420950   0.391   4.991   2.598  0.1702 -0.2216  0.0953
 5295SOL     OW20951   2.176   1.327   3.670 -0.4204  0.5623  0.4941
 5295SOL    HW220952   2.256   1.345   3.620 -0.2872  1.8157  1.1044
 5295SOL    HW320953   2.201   1.256   3.730 -0.1705  0.0191 -0.2417
 5295SOL    MW420954   2.190   1.320   3.671 -0.3699  0.6560  0.4775
 5296SOL     OW20955   3.386   6.113   1.452 -0.3545  0.2788  0.5196
 5296SOL    HW220956   3.434   6.173   1.395 -0.7793 -0.9816 -1.2698
 5296SOL    HW320957   3.316   6.079   1.396 -1.0880 -0.6638  1.9639
 5296SOL    MW420958   3.383   6.116   1.437 -0.5073 -0.0118  0.4741
 5297SOL     OW20959   6.348   6.245   4.505  0.4133 -0.3709  0.4434
 5297SOL    HW220960   6.347   6.157   4.468  0.0335 -0.1029 -0.1962
 5297SOL    HW320961   6.274   6.290   4.465 -0.9395 -0.5018  2.6478
 5297SOL    MW420962   6.338   6.240   4.495  0.1847 -0.3528  0.6498
 5298SOL     OW20963   6.380   5.063   0.796  0.1717  0.3897 -0.3260
 5298SOL    HW220964   6.359   5.084   0.705  1.7299  0.0326 -0.8124
 5298SOL    HW320965   6.435   5.137   0.825  1.8551 -0.7074 -0.5624
 5298SOL    MW420966   6.385   5.076   0.788  0.5994  0.1978 -0.4214
 5299SOL     OW20967   4.826   2.632   6.233 -0.4438  0.6703  0.3878
 5299SOL    HW220968   4.743   2.586   6.247 -1.1677  1.8084 -0.0301
 5299SOL    HW320969   4.886   2.564   6.203 -1.3247 -0.1111  0.3482
 5299SOL    MW420970   4.823   2.617   6.231 -0.6555  0.7173  0.3274
 5300SOL     OW20971   5.153   5.374   5.011 -0.1213 -0.1516  0.0408
 5300SOL    HW220972   5.129   5.289   4.975  0.7274 -1.0219  1.4712
 5300SOL    HW320973   5.084   5.395   5.074  0.0734 -0.1521  0.2569
 5300SOL    MW420974   5.141   5.366   5.014  0.0164 -0.2664  0.2580
 5301SOL     OW20975   4.171   1.722   4.095  0.7167  0.1104  0.4512
 5301SOL    HW220976   4.075   1.729   4.096  0.4890 -2.2137  1.4202
 5301SOL    HW320977   4.202   1.812   4.109 -1.3848  0.5890  2.7833
 5301SOL    MW420978   4.162   1.735   4.097  0.4094 -0.1331  0.8867
 5302SOL     OW20979   2.926   6.147   1.964  0.6271 -0.7253 -0.2877
 5302SOL    HW220980   2.865   6.121   1.895  0.3360  2.2360 -1.2599
 5302SOL    HW320981   2.909   6.085   2.035 -0.5069 -2.5903 -2.0812
 5302SOL    MW420982   2.916   6.135   1.965  0.4390 -0.5807 -0.6526
 5303SOL     OW20983   1.040   0.065   5.942 -0.4540 -0.2892  0.0015
 5303SOL    HW220984   1.019   0.152   5.975 -1.6246 -0.2766 -0.7391
 5303SOL    HW320985   0.992   0.058   5.860 -1.5400 -2.1695  0.7381
 5303SOL    MW420986   1.031   0.076   5.936 -0.7517 -0.5356  0.0010
 5304SOL     OW20987   3.058   1.080   3.815  0.1585  0.4916 -0.0736
 5304SOL    HW220988   2.981   1.060   3.762  0.9128 -1.0036 -0.6433
 5304SOL    HW320989   3.132   1.057   3.760  1.0086  1.2425  0.7310
 5304SOL    MW420990   3.057   1.074   3.801  0.3702  0.3934 -0.0426
 5305SOL     OW20991   1.249   5.901   5.610  0.0298 -0.4174 -0.3624
 5305SOL    HW220992   1.246   5.868   5.700 -3.6450 -0.1974 -0.2361
 5305SOL    HW320993   1.340   5.890   5.583  1.1708 -0.9438  3.1847
 5305SOL    MW420994   1.260   5.895   5.618 -0.3045 -0.4578  0.1222
 5306SOL     OW20995   1.649   3.590   4.617  0.2068  0.7932  0.4790
 5306SOL    HW220996   1.713   3.621   4.681 -1.6301  0.6847  2.4949
 5306SOL    HW320997   1.622   3.668   4.569 -0.0893  1.3263  1.4782
 5306SOL    MW420998   1.653   3.604   4.619 -0.0747  0.8492  0.8768
 5307SOL     OW20999   3.757   6.182   0.258 -0.6527  0.0805 -0.1402
 5307SOL    HW221000   3.820   6.192   0.330 -0.1540  0.9552 -0.6819
 5307SOL    HW321001   3.732   6.090   0.260 -0.8772  0.1496  1.3499
 5307SOL    MW421002   3.762   6.171   0.268 -0.6165  0.2050 -0.0150
 5308SOL     OW21003   3.556   4.737   1.895 -0.3079  0.3888  0.3080
 5308SOL    HW221004   3.648   4.764   1.886 -0.5712  1.2883  0.2447
 5308SOL    HW321005   3.525   4.726   1.805 -0.8411  2.1473  0.2381
 5308SOL    MW421006   3.564   4.739   1.882 -0.4130  0.7395  0.2904
 5309SOL     OW21007   2.424   2.775   0.215  0.3770 -0.4655 -0.4812
 5309SOL    HW221008   2.467   2.775   0.129 -0.3997  0.2476 -0.8784
 5309SOL    HW321009   2.396   2.865   0.228  1.1994 -0.3946  0.8988
 5309SOL    MW421010   2.426   2.787   0.205  0.3830 -0.3620 -0.3515
 5310SOL     OW21011   4.759   2.341   3.630  0.1182  0.1003  0.4843
 5310SOL    HW221012   4.689   2.396   3.598 -0.0677 -1.2316 -1.5714
 5310SOL    HW321013   4.716   2.281   3.691 -0.3311  0.0023  0.0779
 5310SOL    MW421014   4.744   2.340   3.634  0.0344 -0.0884  0.1595
 5311SOL     OW21015   5.424   2.386   3.998  0.0532  0.6907  0.0051
 5311SOL    HW221016   5.487   2.363   4.066 -0.4904  0.7226  0.5291
 5311SOL    HW321017   5.473   2.440   3.937  0.8466 -0.2874 -0.2361
 5311SOL    MW421018   5.439   2.390   3.999  0.0862  0.5658  0.0424
 5312SOL     OW21019   6.262   5.450   1.946  0.0724  0.2265 -0.0453
 5312SOL    HW221020   6.292   5.522   1.892  0.6399 -0.2177 -0.3358
 5312SOL    HW321021   6.323   5.448   2.020 -1.1858  1.3482  1.0666
 5312SOL    MW421022   6.274   5.459   1.949 -0.0187  0.3159  0.0631
 5313SOL     OW21023   6.275   4.962   0.176 -0.2666 -0.0659  0.3770
 5313SOL    HW221024   6.249   5.017   0.102  0.0511  0.8109  0.9084
 5313SOL    HW321025   6.192   4.933   0.214 -0.4710  1.1108  0.8698
 5313SOL    MW421026   6.261   4.965   0.171 -0.2516  0.2050  0.5121
 5314SOL     OW21027   4.392   5.700   5.255 -0.2989  0.8506 -0.2355
 5314SOL    HW221028   4.379   5.747   5.337  0.6632  1.6290 -0.5159
 5314SOL    HW321029   4.336   5.746   5.192  0.0788  1.1651 -0.3433
 5314SOL    MW421030   4.383   5.712   5.257 -0.1221  0.9948 -0.2867
 5315SOL     OW21031   3.783   0.920   0.927 -0.3511  0.1166  0.5235
 5315SOL    HW221032   3.772   0.825   0.923  2.8578 -0.3171 -0.2930
 5315SOL    HW321033   3.720   0.954   0.862 -1.5271 -1.3973  0.8110
 5315SOL    MW421034   3.773   0.912   0.918 -0.0828 -0.1404  0.4537
 5316SOL     OW21035   1.594   4.430   5.702  0.5533 -0.2278  1.0702
 5316SOL    HW221036   1.540   4.508   5.712  1.1293  0.1836  1.0383
 5316SOL    HW321037   1.630   4.438   5.614  1.0958 -0.2122  1.2906
 5316SOL    MW421038   1.592   4.442   5.692  0.7009 -0.1715  1.0951
 5317SOL     OW21039   2.859   0.028   1.753  0.5873 -0.5653 -0.2437
 5317SOL    HW221040   2.842   0.005   1.845  2.1424 -0.4553  0.0919
 5317SOL    HW321041   2.840   0.122   1.748  0.0387 -0.6678 -0.1601
 5317SOL    MW421042   2.854   0.037   1.765  0.7201 -0.5643 -0.1884
 5318SOL     OW21043   1.760   5.605   3.791  0.3208 -0.1431  0.8519
 5318SOL    HW221044   1.842   5.619   3.839 -0.3881  0.0232  2.0746
 5318SOL    HW321045   1.786   5.591   3.700  1.6466  0.6540  1.0961
 5318SOL    MW421046   1.774   5.605   3.786  0.4022 -0.0160  1.0454
 5319SOL     OW21047   2.768   5.062   0.202 -0.5310 -0.3802  0.0155
 5319SOL    HW221048   2.845   5.085   0.150  0.4410 -0.8793  1.2047
 5319SOL    HW321049   2.768   4.967   0.205 -0.2946 -0.3515  1.3322
 5319SOL    MW421050   2.778   5.053   0.196 -0.3715 -0.4423  0.3461
 5320SOL     OW21051   3.656   0.999   2.775 -0.4885  0.2511 -0.2796
 5320SOL    HW221052   3.607   1.081   2.780 -0.3842  0.3432 -0.6865
 5320SOL    HW321053   3.617   0.943   2.842  1.0444  1.4671  1.7614
 5320SOL    MW421054   3.645   1.003   2.784 -0.2725  0.4237 -0.0640
 5321SOL     OW21055   5.022   0.259   6.192  0.8287 -0.7524  0.5579
 5321SOL    HW221056   4.969   0.181   6.175 -0.6605  0.2301  0.5762
 5321SOL    HW321057   5.010   0.276   6.286 -0.5963  0.7004  0.1539
 5321SOL    MW421058   5.013   0.251   6.202  0.4442 -0.4311  0.5070
 5322SOL     OW21059   5.654   4.465   1.828 -0.0102 -0.9223 -0.4452
 5322SOL    HW221060   5.580   4.430   1.878 -0.4071 -2.4347 -1.9961
 5322SOL    HW321061   5.620   4.545   1.788 -0.0342 -0.3127  0.7434
 5322SOL    MW421062   5.640   4.471   1.829 -0.0657 -1.0414 -0.4930
 5323SOL     OW21063   0.456   1.930   1.180  0.0261 -0.1791 -0.4617
 5323SOL    HW221064   0.457   1.896   1.269  1.5030 -1.0023 -0.7493
 5323SOL    HW321065   0.412   1.863   1.128 -4.5851  1.9838  0.1239
 5323SOL    MW421066   0.451   1.917   1.185 -0.3874 -0.0023 -0.4224
 5324SOL     OW21067   1.916   6.032   5.517 -0.4196  0.2050 -0.4557
 5324SOL    HW221068   1.933   6.118   5.555 -2.6854  0.7595 -0.5621
 5324SOL    HW321069   1.995   5.982   5.536  0.9659  2.2764 -0.3766
 5324SOL    MW421070   1.928   6.037   5.524 -0.5358  0.5514 -0.4593
 5325SOL     OW21071   0.284   3.853   6.062  0.0201 -0.4089  0.1370
 5325SOL    HW221072   0.206   3.797   6.063 -1.2681  1.2952 -0.3488
 5325SOL    HW321073   0.267   3.916   5.993  0.5480  1.7534  1.8797
 5325SOL    MW421074   0.271   3.854   6.053 -0.0802  0.1012  0.3028
 5326SOL     OW21075   1.712   3.044   5.716  0.1073  0.1256  0.0829
 5326SOL    HW221076   1.662   2.964   5.700 -0.9759  0.6446  0.7956
 5326SOL    HW321077   1.647   3.114   5.712  1.0213  0.9742 -0.4008
 5326SOL    MW421078   1.697   3.043   5.713  0.0850  0.3061  0.1131
 5327SOL     OW21079   3.202   6.057   3.942 -0.0911 -0.3644  0.3872
 5327SOL    HW221080   3.192   6.079   3.849  0.3478 -1.8705 -0.0384
 5327SOL    HW321081   3.130   6.103   3.986 -0.2535  0.4289 -0.6768
 5327SOL    MW421082   3.191   6.066   3.936 -0.0546 -0.4584  0.1907
 5328SOL     OW21083   2.989   4.462   2.356  0.2556 -0.6945  0.1056
 5328SOL    HW221084   2.949   4.387   2.400  1.0132 -1.4530 -0.4598
 5328SOL    HW321085   3.065   4.426   2.311  2.3322  0.8999  2.1406
 5328SOL    MW421086   2.994   4.448   2.356  0.6295 -0.5842  0.2995
 5329SOL     OW21087   2.929   2.712   2.131 -0.4315  0.0015  0.5118
 5329SOL    HW221088   2.836   2.726   2.147 -0.7868 -1.7411  0.1725
 5329SOL    HW321089   2.934   2.690   2.038  0.5300  1.5156  0.1656
 5329SOL    MW421090   2.917   2.711   2.121 -0.3515 -0.0286  0.4213
 5330SOL     OW21091   3.475   3.660   3.833  0.1415  0.1395 -0.1921
 5330SOL    HW221092   3.564   3.688   3.813  0.7446 -0.9600  0.7994
 5330SOL    HW321093   3.421   3.737   3.818  1.3344  0.9837 -0.2726
 5330SOL    MW421094   3.480   3.674   3.828  0.3785  0.1058 -0.0719
 5331SOL     OW21095   3.524   4.933   3.353 -0.0442 -0.5423  0.4787
 5331SOL    HW221096   3.519   4.844   3.387  0.4464 -0.8633 -0.2422
 5331SOL    HW321097   3.591   4.976   3.407  1.9211 -1.5327 -1.0370
 5331SOL    MW421098   3.532   4.927   3.364  0.2798 -0.7153  0.1836
 5332SOL     OW21099   2.168   5.913   5.189 -0.9400  0.4572 -0.4346
 5332SOL    HW221100   2.109   5.970   5.239 -0.6018  1.1212 -0.7871
 5332SOL    HW321101   2.236   5.972   5.156 -0.4414 -0.1955 -0.5862
 5332SOL    MW421102   2.169   5.929   5.191 -0.8296  0.4587 -0.5011
 5333SOL     OW21103   3.446   2.995   2.380  0.5726 -0.2912  0.0715
 5333SOL    HW221104   3.356   3.015   2.404  0.4594 -0.3509 -0.3058
 5333SOL    HW321105   3.464   2.911   2.422  0.8062  0.2166  1.0391
 5333SOL    MW421106   3.437   2.987   2.389  0.5885 -0.2320  0.1494
 5334SOL     OW21107   5.490   1.261   4.219  0.4453 -0.2928  0.1056
 5334SOL    HW221108   5.565   1.317   4.202  0.3849  0.0461  0.9116
 5334SOL    HW321109   5.430   1.278   4.146  0.8309 -0.0096 -0.1454
 5334SOL    MW421110   5.492   1.271   4.207  0.4882 -0.2107  0.1788
 5335SOL     OW21111   3.258   6.265   0.791 -0.4342  0.1972 -0.0066
 5335SOL    HW221112   3.336   6.308   0.825  0.7348 -0.2304 -2.0168
 5335SOL    HW321113   3.185   6.308   0.837  0.8829  1.7806  0.6802
 5335SOL    MW421114   3.258   6.276   0.802 -0.1062  0.3497 -0.1812
 5336SOL     OW21115   1.274   4.629   5.441 -0.0033  0.0775  0.0217
 5336SOL    HW221116   1.190   4.605   5.401  0.0580  0.9914 -0.6743
 5336SOL    HW321117   1.249   4.679   5.519 -0.1010  0.5817 -0.3339
 5336SOL    MW421118   1.259   4.632   5.446 -0.0081  0.2646 -0.1170
 5337SOL     OW21119   2.998   1.628   1.121 -0.2624 -0.1220  0.2172
 5337SOL    HW221120   2.911   1.600   1.147  0.2222 -3.2568 -1.0787
 5337SOL    HW321121   3.058   1.575   1.173  0.8279  0.1465 -0.7064
 5337SOL    MW421122   2.994   1.618   1.131 -0.0546 -0.5002 -0.0757
 5338SOL     OW21123   3.049   2.985   0.584 -0.6698 -0.4438 -0.4664
 5338SOL    HW221124   2.955   2.998   0.590 -0.9049 -1.8320 -0.8994
 5338SOL    HW321125   3.071   2.926   0.656 -0.0271  0.3233 -0.0150
 5338SOL    MW421126   3.040   2.979   0.594 -0.6160 -0.5257 -0.4640
 5339SOL     OW21127   3.998   0.593   2.195  0.5023 -0.3817 -0.2235
 5339SOL    HW221128   4.066   0.619   2.256  2.3504 -0.0029 -2.2918
 5339SOL    HW321129   4.007   0.498   2.188  0.8279 -0.3309 -0.4994
 5339SOL    MW421130   4.008   0.583   2.202  0.7891 -0.3250 -0.5328
 5340SOL     OW21131   2.616   0.637   0.065 -0.2999  0.5245  0.4544
 5340SOL    HW221132   2.524   0.631   0.087 -0.2383 -1.0198  0.4386
 5340SOL    HW321133   2.619   0.631  -0.031 -0.1265 -1.2212  0.5285
 5340SOL    MW421134   2.604   0.636   0.055 -0.2689  0.0904  0.4621
 5341SOL     OW21135   1.313   2.920   5.710 -0.0825 -0.3043  0.1045
 5341SOL    HW221136   1.326   3.015   5.704 -0.5311 -0.3222 -1.9781
 5341SOL    HW321137   1.221   2.907   5.689  0.2581 -1.2630 -0.9185
 5341SOL    MW421138   1.303   2.931   5.706 -0.0968 -0.4331 -0.3053
 5342SOL     OW21139   4.976   6.163   1.557  0.2690  0.0752 -0.4130
 5342SOL    HW221140   4.894   6.119   1.533 -0.5380  1.1292  0.2932
 5342SOL    HW321141   4.992   6.225   1.485  1.0836 -0.9264 -1.1151
 5342SOL    MW421142   4.967   6.166   1.544  0.2700  0.0821 -0.4124
 5343SOL     OW21143   0.363   2.859   0.885 -0.0078 -0.0475 -0.1714
 5343SOL    HW221144   0.376   2.796   0.814  0.9220  1.0169 -0.9720
 5343SOL    HW321145   0.273   2.890   0.874  0.5524  1.1274 -1.7532
 5343SOL    MW421146   0.353   2.855   0.875  0.1888  0.2480 -0.4857
 5344SOL     OW21147   3.661   4.953   2.704 -0.0260  0.1053  0.5975
 5344SOL    HW221148   3.569   4.980   2.692 -0.1992 -0.7369 -0.0528
 5344SOL    HW321149   3.703   5.029   2.745 -0.3035  1.7496 -1.9261
 5344SOL    MW421150   3.654   4.967   2.708 -0.0855  0.2112  0.1787
 5345SOL     OW21151   0.089   0.397   4.513  0.4027  0.5078  1.2348
 5345SOL    HW221152   0.124   0.315   4.477 -0.0810  0.7014  0.3031
 5345SOL    HW321153   0.030   0.369   4.583 -0.4237  0.0020  0.3627
 5345SOL    MW421154   0.086   0.383   4.518  0.2299  0.4666  0.9968
 5346SOL     OW21155   1.011   0.682   2.562 -0.3061  0.2833  0.0506
 5346SOL    HW221156   0.971   0.767   2.579  0.1355  0.5978 -0.4478
 5346SOL    HW321157   1.006   0.671   2.467  1.3092  0.6092 -0.0995
 5346SOL    MW421158   1.005   0.692   2.552 -0.0347  0.3678 -0.0350
 5347SOL     OW21159   1.734   4.549   5.465  0.0247 -0.2647  0.3472
 5347SOL    HW221160   1.658   4.527   5.411 -1.5508  1.0106  1.9363
 5347SOL    HW321161   1.726   4.643   5.481  1.8810 -0.1217  0.6806
 5347SOL    MW421162   1.723   4.559   5.460  0.0617 -0.0776  0.6008
 5348SOL     OW21163   6.299   6.227   3.220  0.3183 -0.0644 -0.2286
 5348SOL    HW221164   6.361   6.211   3.292  0.4777 -0.1886 -0.3939
 5348SOL    HW321165   6.264   6.140   3.199 -0.7406  0.1366  0.6029
 5348SOL    MW421166   6.302   6.213   3.227  0.1996 -0.0543 -0.1407
 5349SOL     OW21167   2.127   4.881   3.823 -0.2578  0.8416  0.8612
 5349SOL    HW221168   2.175   4.810   3.866  1.1043 -1.1272 -3.3231
 5349SOL    HW321169   2.153   4.960   3.871  1.7910 -0.9541  2.9683
 5349SOL    MW421170   2.137   4.882   3.835  0.1922  0.3449  0.5871
 5350SOL     OW21171   1.940   2.423   0.054  0.1013  0.7755  0.6186
 5350SOL    HW221172   1.963   2.512   0.027  2.3052 -0.0815 -0.5808
 5350SOL    HW321173   1.982   2.412   0.139 -0.2278  0.9188  0.7971
 5350SOL    MW421174   1.949   2.433   0.061  0.3487  0.6813  0.4839
 5351SOL     OW21175   2.080   4.287   4.405 -0.0328  0.6563  0.4169
 5351SOL    HW221176   2.049   4.213   4.353  0.4535  0.3739  0.5213
 5351SOL    HW321177   2.174   4.290   4.390  0.1544  0.4184  1.4642
 5351SOL    MW421178   2.088   4.278   4.396  0.0561  0.5876  0.5689
 5352SOL     OW21179   2.125   5.227   5.209 -0.2099  0.0890  0.2843
 5352SOL    HW221180   2.146   5.175   5.131  1.0205 -0.5741  1.0147
 5352SOL    HW321181   2.057   5.176   5.254  0.6522 -0.6771  0.7524
 5352SOL    MW421182   2.119   5.213   5.205  0.0662 -0.0996  0.4424
 5353SOL     OW21183   0.402   1.092   0.808  0.1720 -0.1083 -0.2923
 5353SOL    HW221184   0.345   1.153   0.761  0.7725 -0.0952 -1.0303
 5353SOL    HW321185   0.469   1.148   0.847 -0.4136 -0.1037  0.7353
 5353SOL    MW421186   0.403   1.108   0.807  0.1739 -0.1060 -0.2541
 5354SOL     OW21187   5.974   4.824   3.333  0.0060 -0.4227 -0.0747
 5354SOL    HW221188   6.000   4.825   3.425  1.1950  0.7227 -0.3946
 5354SOL    HW321189   6.054   4.802   3.285  0.0328  1.4141 -0.9717
 5354SOL    MW421190   5.988   4.821   3.339  0.1664 -0.0293 -0.2352
 5355SOL     OW21191   3.950   4.932   0.694 -0.4846  1.0256  0.3012
 5355SOL    HW221192   4.031   4.888   0.720 -0.0212  0.9793 -1.1480
 5355SOL    HW321193   3.979   5.005   0.638 -1.4924 -0.4567 -2.3220
 5355SOL    MW421194   3.965   4.936   0.690 -0.5564  0.8239 -0.2361
 5356SOL     OW21195   1.968   5.603   2.220 -0.7476 -0.3003  0.0775
 5356SOL    HW221196   2.047   5.551   2.207 -0.4231  0.2741 -0.3209
 5356SOL    HW321197   1.896   5.546   2.192 -0.3412 -0.2841 -1.0763
 5356SOL    MW421198   1.969   5.589   2.214 -0.6512 -0.2224 -0.1273
 5357SOL     OW21199   3.245   1.999   3.360  0.2670  0.1235  0.1021
 5357SOL    HW221200   3.236   1.915   3.314 -0.0081  0.0518  0.2870
 5357SOL    HW321201   3.309   2.047   3.308 -0.5692  0.3238 -0.7791
 5357SOL    MW421202   3.252   1.994   3.347  0.1204  0.1405  0.0102
 5358SOL     OW21203   2.676   1.762   6.007  0.3928 -0.3092  0.0285
 5358SOL    HW221204   2.627   1.843   6.018  0.1374 -0.0644 -2.4143
 5358SOL    HW321205   2.706   1.764   5.916  3.6283 -1.1832  0.9526
 5358SOL    MW421206   2.674   1.773   5.996  0.7860 -0.3922 -0.1719
 5359SOL     OW21207   5.994   5.388   4.861 -0.1545 -0.5719  0.2394
 5359SOL    HW221208   5.920   5.420   4.913 -1.4148 -2.5414 -0.2377
 5359SOL    HW321209   5.999   5.447   4.786 -0.0005  0.7099  1.2246
 5359SOL    MW421210   5.985   5.400   4.858 -0.3005 -0.6626  0.3065
 5360SOL     OW21211   1.615   2.546   0.870  0.2969  0.4326  0.5675
 5360SOL    HW221212   1.614   2.487   0.945  1.2572  2.0463  1.9145
 5360SOL    HW321213   1.689   2.605   0.887  1.1247  0.2766 -2.1109
 5360SOL    MW421214   1.625   2.546   0.882  0.5328  0.6249  0.3918
 5361SOL     OW21215   4.180   2.486   5.745 -0.7789  0.3424  0.1479
 5361SOL    HW221216   4.183   2.550   5.816  3.1296 -0.8666  1.2648
 5361SOL    HW321217   4.161   2.403   5.787 -0.4737 -0.0721 -0.5110
 5361SOL    MW421218   4.178   2.484   5.760 -0.2230  0.1282  0.2083
 5362SOL     OW21219   1.322   4.139   1.555 -0.1367 -0.0680 -0.0322
 5362SOL    HW221220   1.390   4.141   1.622 -1.1529  3.5555  1.1010
 5362SOL    HW321221   1.363   4.178   1.478 -0.1587 -0.4363 -0.2338
 5362SOL    MW421222   1.337   4.144   1.554 -0.2737  0.3615  0.0907
 5363SOL     OW21223   4.558   0.975   1.771  0.0228  0.1470  0.4017
 5363SOL    HW221224   4.638   1.026   1.763 -0.0617  0.1263 -0.6973
 5363SOL    HW321225   4.498   1.012   1.706  0.3626 -2.0363 -1.3120
 5363SOL    MW421226   4.560   0.986   1.761  0.0565 -0.1438  0.0306
 5364SOL     OW21227   1.494   4.878   4.253 -0.6018  0.0806 -0.6042
 5364SOL    HW221228   1.416   4.860   4.199  0.5191 -0.5232 -2.0945
 5364SOL    HW321229   1.542   4.796   4.253  0.2727  0.5799 -0.0960
 5364SOL    MW421230   1.490   4.865   4.246 -0.3386  0.0668 -0.7338
 5365SOL     OW21231   4.187   3.965   4.244 -0.2875 -0.1711  0.2563
 5365SOL    HW221232   4.272   3.922   4.250  0.7676  1.7976  0.2339
 5365SOL    HW321233   4.195   4.042   4.299 -1.6971  0.6281 -0.5925
 5365SOL    MW421234   4.199   3.969   4.252 -0.3343  0.1941  0.1413
 5366SOL     OW21235   5.440   6.099   4.858 -0.1652  0.4710  0.0947
 5366SOL    HW221236   5.481   6.176   4.898  2.1186 -0.8170  0.4172
 5366SOL    HW321237   5.513   6.041   4.838 -1.5262 -0.4276 -2.8333
 5366SOL    MW421238   5.455   6.102   4.861 -0.0435  0.1825 -0.2490
 5367SOL     OW21239   5.520   0.752   3.504 -0.0359 -0.1838 -0.2642
 5367SOL    HW221240   5.482   0.753   3.592 -4.2781  2.0342 -1.8271
 5367SOL    HW321241   5.579   0.827   3.503  0.3030 -0.4208  0.7585
 5367SOL    MW421242   5.523   0.762   3.515 -0.5509  0.0776 -0.3355
 5368SOL     OW21243   5.441   3.481   3.571  0.4183 -0.1603  0.1009
 5368SOL    HW221244   5.386   3.509   3.644  1.0230 -1.5117  1.1173
 5368SOL    HW321245   5.505   3.551   3.560  1.0433 -0.4503  1.6653
 5368SOL    MW421246   5.442   3.494   3.579  0.5805 -0.3768  0.4414
 5369SOL     OW21247   1.482   6.444   2.190  0.5114  0.1643 -0.2034
 5369SOL    HW221248   1.428   6.393   2.129 -1.5077  1.0656  0.7426
 5369SOL    HW321249   1.491   6.388   2.267  0.4531  0.2223 -0.1538
 5369SOL    MW421250   1.476   6.430   2.192  0.2373  0.2909 -0.0721
 5370SOL     OW21251   3.654   5.887   0.229  0.6131 -0.3380 -0.1581
 5370SOL    HW221252   3.698   5.853   0.308 -0.4223  0.7969  0.9631
 5370SOL    HW321253   3.562   5.889   0.253  0.2852  0.0985 -1.4045
 5370SOL    MW421254   3.648   5.883   0.243  0.4332 -0.1307 -0.1747
 5371SOL     OW21255   2.644   4.963   3.149 -0.3582  0.2381 -0.9835
 5371SOL    HW221256   2.730   4.924   3.165  0.3944  2.0439 -0.3489
 5371SOL    HW321257   2.662   5.055   3.128 -2.2235  1.3332  1.6140
 5371SOL    MW421258   2.657   4.970   3.148 -0.5050  0.6209 -0.5571
 5372SOL     OW21259   5.087   6.005   3.464  0.0032 -0.1740  0.1735
 5372SOL    HW221260   5.002   6.012   3.420  0.3848  1.8812 -0.3421
 5372SOL    HW321261   5.084   5.920   3.508 -2.4126 -0.0753  0.3555
 5372SOL    MW421262   5.075   5.995   3.464 -0.2652  0.1102  0.1295
 5373SOL     OW21263   5.860   0.486   4.060  0.6729 -0.3533 -0.7130
 5373SOL    HW221264   5.774   0.444   4.051  0.2321 -0.0830  1.6581
 5373SOL    HW321265   5.912   0.424   4.111  0.6374  1.0381  1.1230
 5373SOL    MW421266   5.855   0.473   4.066  0.6101 -0.1341 -0.1579
 5374SOL     OW21267   0.658   6.360   3.017 -0.1150  0.4494  0.4617
 5374SOL    HW221268   0.716   6.284   3.011 -0.1687  0.3471  1.1468
 5374SOL    HW321269   0.617   6.352   3.103 -0.2666  1.1513  0.4620
 5374SOL    MW421270   0.660   6.349   3.027 -0.1421  0.5285  0.5521
 5375SOL     OW21271   5.072   2.599   1.530 -0.2876  0.0167 -0.3175
 5375SOL    HW221272   5.047   2.688   1.556 -3.3249 -1.2005  1.3562
 5375SOL    HW321273   5.124   2.566   1.603 -1.0995 -0.3103  0.1286
 5375SOL    MW421274   5.076   2.606   1.543 -0.7954 -0.1870 -0.0379
 5376SOL     OW21275   1.275   2.894   2.953  0.5804  0.2356  0.0479
 5376SOL    HW221276   1.356   2.904   3.002  1.7783 -0.4145 -1.7065
 5376SOL    HW321277   1.264   2.800   2.942 -0.5336  0.3010  0.4299
 5376SOL    MW421278   1.284   2.883   2.958  0.5915  0.1584 -0.1332
 5377SOL     OW21279   1.928   3.487   4.414  0.0863  0.0529  0.6738
 5377SOL    HW221280   1.849   3.441   4.386 -0.4288  1.1128  0.3348
 5377SOL    HW321281   1.998   3.451   4.360 -0.6006  0.8412 -0.7907
 5377SOL    MW421282   1.927   3.476   4.403 -0.0723  0.2968  0.4358
 5378SOL     OW21283   3.606   1.939   2.290  0.2005  0.2480 -0.4889
 5378SOL    HW221284   3.609   1.860   2.345 -0.5163  0.3576 -0.2893
 5378SOL    HW321285   3.533   1.990   2.325  0.8928  1.1895 -0.3784
 5378SOL    MW421286   3.597   1.935   2.302  0.1973  0.3867 -0.4479
 5379SOL     OW21287   2.706   0.986   2.330  0.2505  0.7526  0.1716
 5379SOL    HW221288   2.727   0.958   2.419 -0.2435  0.3652  0.1722
 5379SOL    HW321289   2.789   0.983   2.283  0.6206  1.5148  0.7585
 5379SOL    MW421290   2.719   0.982   2.336  0.2341  0.8020  0.2491
 5380SOL     OW21291   5.501   5.007   5.450 -0.0845  0.1303 -0.0805
 5380SOL    HW221292   5.427   5.066   5.464  0.9745  1.6533 -0.6310
 5380SOL    HW321293   5.574   5.065   5.430  0.6473 -1.4510 -2.3252
 5380SOL    MW421294   5.501   5.022   5.450  0.1518  0.1226 -0.4493
 5381SOL     OW21295   4.477   0.591   5.296  0.6632 -0.4399 -1.0128
 5381SOL    HW221296   4.415   0.559   5.361 -0.8410  0.7323 -1.7952
 5381SOL    HW321297   4.447   0.555   5.213  0.1679  1.2309 -1.6029
 5381SOL    MW421298   4.465   0.582   5.294  0.3994 -0.0648 -1.1939
 5382SOL     OW21299   1.176   5.637   4.236 -0.4792  0.2951  0.3777
 5382SOL    HW221300   1.237   5.564   4.227 -0.5792  0.1580  0.8154
 5382SOL    HW321301   1.149   5.656   4.146  1.5424  1.5000 -0.0410
 5382SOL    MW421302   1.180   5.630   4.223 -0.2256  0.4360  0.3802
 5383SOL     OW21303   5.293   6.336   4.204  0.3738 -0.4093 -0.3219
 5383SOL    HW221304   5.378   6.367   4.235  1.1363 -1.5218 -1.2219
 5383SOL    HW321305   5.313   6.282   4.128 -0.6574 -4.3229  1.8965
 5383SOL    MW421306   5.307   6.333   4.198  0.3383 -1.0724 -0.1480
 5384SOL     OW21307   0.187   5.928   4.380  0.4679 -0.3859  0.8779
 5384SOL    HW221308   0.222   5.979   4.454 -0.7920  2.2498 -0.1850
 5384SOL    HW321309   0.246   5.947   4.307  1.2401 -2.3135  0.9521
 5384SOL    MW421310   0.199   5.937   4.380  0.4035 -0.2925  0.7475
 5385SOL     OW21311   0.490   2.762   4.423 -0.2273  0.5181  0.3506
 5385SOL    HW221312   0.500   2.817   4.346  0.4843 -1.8323 -1.3503
 5385SOL    HW321313   0.528   2.812   4.495 -0.8321  2.7379 -0.8144
 5385SOL    MW421314   0.496   2.776   4.422 -0.2132  0.5009 -0.0275
 5386SOL     OW21315   6.324   4.937   2.185 -0.1551 -0.1900 -0.7200
 5386SOL    HW221316   6.253   5.001   2.197  0.5700  0.7654 -1.4037
 5386SOL    HW321317   6.309   4.872   2.254  0.2519  1.7585  1.3179
 5386SOL    MW421318   6.312   4.937   2.196 -0.0057  0.1932 -0.5413
 5387SOL     OW21319   0.071   0.562   3.876  0.5821  0.1483  0.0401
 5387SOL    HW221320   0.115   0.647   3.869  1.2900 -0.2957 -1.2306
 5387SOL    HW321321   0.123   0.513   3.939  0.0344  0.7313  0.9558
 5387SOL    MW421322   0.084   0.567   3.883  0.6032  0.1666 -0.0068
 5388SOL     OW21323   3.511   6.193   4.927 -0.8726  0.4899  0.3553
 5388SOL    HW221324   3.502   6.103   4.958 -0.8701  0.6425  0.8007
 5388SOL    HW321325   3.549   6.240   5.001  0.3952  0.5787 -0.3216
 5388SOL    MW421326   3.515   6.187   4.940 -0.7050  0.5218  0.3248
 5389SOL     OW21327   5.764   5.920   5.166 -0.3705  0.3947  0.0694
 5389SOL    HW221328   5.839   5.886   5.216 -0.0503  1.7540  0.5529
 5389SOL    HW321329   5.733   5.845   5.116  2.2341  0.0921 -1.2823
 5389SOL    MW421330   5.770   5.906   5.166  0.0154  0.5341 -0.0451
 5390SOL     OW21331   4.486   6.339   2.075 -0.3584  0.2831  0.1614
 5390SOL    HW221332   4.401   6.295   2.065  0.2976 -1.9909  2.9729
 5390SOL    HW321333   4.505   6.332   2.169  1.7532  3.1364  0.0878
 5390SOL    MW421334   4.477   6.332   2.086  0.0067  0.3596  0.5226
 5391SOL     OW21335   0.944   3.251   2.263  0.0043  0.2037  0.6763
 5391SOL    HW221336   0.989   3.186   2.209 -0.7617 -0.7120  1.0928
 5391SOL    HW321337   0.878   3.200   2.311  1.2786  0.7861  3.2091
 5391SOL    MW421338   0.941   3.235   2.262  0.0714  0.1597  1.0654
 5392SOL     OW21339   2.896   3.416   5.966  0.2453  0.0018  0.5054
 5392SOL    HW221340   2.817   3.443   6.012 -0.3317 -0.6508 -0.0918
 5392SOL    HW321341   2.865   3.378   5.884  1.1999  0.1290  0.0657
 5392SOL    MW421342   2.882   3.415   5.961  0.2951 -0.0675  0.3686
 5393SOL     OW21343   5.430   1.257   1.875  0.8324 -0.4783  0.1233
 5393SOL    HW221344   5.504   1.317   1.872  3.1914 -3.1638 -2.7804
 5393SOL    HW321345   5.387   1.268   1.790 -0.3879 -0.9572  0.6573
 5393SOL    MW421346   5.434   1.266   1.863  0.9826 -0.8958 -0.1894
 5394SOL     OW21347   1.702   2.329   4.832 -0.0346 -0.1684  1.0339
 5394SOL    HW221348   1.631   2.312   4.894 -2.0856 -1.6625 -1.5241
 5394SOL    HW321349   1.775   2.278   4.864 -0.3491  0.6605  3.2478
 5394SOL    MW421350   1.702   2.320   4.844 -0.3467 -0.2562  0.9885
 5395SOL     OW21351   1.149   1.941   0.588  0.3094  0.2714 -0.2303
 5395SOL    HW221352   1.210   1.953   0.516  0.0607  3.4506 -0.0656
 5395SOL    HW321353   1.183   1.997   0.658 -1.3791  0.0803  0.8113
 5395SOL    MW421354   1.162   1.950   0.588  0.0538  0.6657 -0.0712
 5396SOL     OW21355   6.145   3.336   3.758 -0.4584  0.6450 -0.1477
 5396SOL    HW221356   6.115   3.355   3.847 -1.3137  0.0726 -0.3061
 5396SOL    HW321357   6.080   3.378   3.702 -0.1753  0.6065 -0.5028
 5396SOL    MW421358   6.133   3.344   3.763 -0.5339  0.5644 -0.2155
 5397SOL     OW21359   5.943   3.560   3.597 -0.0333  0.4527 -0.2597
 5397SOL    HW221360   5.851   3.569   3.575  0.4098  0.3214 -2.4031
 5397SOL    HW321361   5.986   3.635   3.553  1.1776 -0.9913 -1.6793
 5397SOL    MW421362   5.937   3.571   3.588  0.1849  0.2448 -0.7298
 5398SOL     OW21363   3.808   3.887   1.906  0.2213 -0.1248 -0.2698
 5398SOL    HW221364   3.719   3.884   1.871  0.2274  0.5631 -0.3649
 5398SOL    HW321365   3.808   3.965   1.963  1.1197  0.6497 -1.2876
 5398SOL    MW421366   3.796   3.897   1.909  0.3407  0.0681 -0.4166
 5399SOL     OW21367   4.783   4.888   5.974  0.1080  0.5416 -0.2963
 5399SOL    HW221368   4.756   4.910   6.063 -0.7549  0.4906 -0.5294
 5399SOL    HW321369   4.789   4.793   5.973  0.0198  0.5362 -0.3174
 5399SOL    MW421370   4.780   4.878   5.985 -0.0175  0.5342 -0.3299
 5400SOL     OW21371   0.702   1.010   2.838 -0.6983  0.1564 -0.6541
 5400SOL    HW221372   0.791   1.023   2.871 -0.2271  0.5223 -1.9852
 5400SOL    HW321373   0.681   0.919   2.859 -0.1314  0.1616 -0.0511
 5400SOL    MW421374   0.711   1.000   2.845 -0.5613  0.2054 -0.7502
 5401SOL     OW21375   4.067   3.510   4.730  0.6643  0.0900  0.0561
 5401SOL    HW221376   4.040   3.522   4.639 -0.5282  1.5851  0.5773
 5401SOL    HW321377   4.151   3.556   4.736  0.1387  1.0585  0.0153
 5401SOL    MW421378   4.075   3.517   4.719  0.4376  0.4151  0.1195
 5402SOL     OW21379   1.141   0.521   2.093  0.1515 -0.4488  0.2422
 5402SOL    HW221380   1.088   0.442   2.093  1.3884 -1.3085  1.0069
 5402SOL    HW321381   1.198   0.513   2.170  0.8181  0.8273 -0.0742
 5402SOL    MW421382   1.142   0.510   2.103  0.4027 -0.3938  0.3013
 5403SOL     OW21383   5.743   2.495   1.321  0.1469 -0.3416 -0.4756
 5403SOL    HW221384   5.688   2.492   1.399 -3.3049  0.2941 -2.6300
 5403SOL    HW321385   5.797   2.572   1.333 -0.2598 -0.2857  1.2995
 5403SOL    MW421386   5.743   2.505   1.333 -0.3622 -0.2503 -0.5256
 5404SOL     OW21387   1.943   1.191   4.432  0.2052 -0.0360  0.1529
 5404SOL    HW221388   1.979   1.267   4.386 -0.7629  0.3657  0.0334
 5404SOL    HW321389   1.953   1.212   4.525  0.2663  0.0894  0.1180
 5404SOL    MW421390   1.949   1.204   4.438  0.0856  0.0336  0.1325
 5405SOL     OW21391   5.235   1.724   5.902 -0.3870  0.0350  0.5415
 5405SOL    HW221392   5.234   1.694   5.811 -0.1634 -0.8404  0.8121
 5405SOL    HW321393   5.229   1.819   5.896 -1.0365 -0.0455 -0.3665
 5405SOL    MW421394   5.234   1.732   5.889 -0.4432 -0.0911  0.4574
 5406SOL     OW21395   2.297   1.222   2.736 -0.7644  0.5680  0.2310
 5406SOL    HW221396   2.363   1.287   2.763  0.0921 -0.3652  0.4378
 5406SOL    HW321397   2.253   1.198   2.817  0.5828 -0.8962  0.5677
 5406SOL    MW421398   2.300   1.228   2.750 -0.4736  0.2517  0.3027
 5407SOL     OW21399   5.021   4.354   0.827  0.4618 -0.0006 -0.0577
 5407SOL    HW221400   4.977   4.269   0.818  0.8256 -0.1384 -0.5967
 5407SOL    HW321401   4.951   4.415   0.851  0.3316 -0.5870  1.0740
 5407SOL    MW421402   5.006   4.351   0.829  0.4926 -0.0961  0.0205
 5408SOL     OW21403   0.491   6.216   5.144 -0.3927 -0.0445  0.2603
 5408SOL    HW221404   0.571   6.268   5.135  0.0745 -0.4772  1.5884
 5408SOL    HW321405   0.481   6.204   5.239 -1.6803 -0.5523  0.0852
 5408SOL    MW421406   0.500   6.221   5.155 -0.5009 -0.1686  0.4124
 5409SOL     OW21407   3.453   2.959   0.506  0.7860 -0.0294 -0.0808
 5409SOL    HW221408   3.416   2.914   0.429 -0.7632  0.2121  0.4767
 5409SOL    HW321409   3.412   3.045   0.504  2.7196  0.9311 -0.3941
 5409SOL    MW421410   3.442   2.964   0.496  0.8367  0.1292 -0.0486
 5410SOL     OW21411   5.770   3.471   0.076 -0.6327  0.0989 -0.6752
 5410SOL    HW221412   5.722   3.437   0.151  1.5010 -1.3878  0.1081
 5410SOL    HW321413   5.736   3.421   0.001 -0.0112 -1.3209 -0.0555
 5410SOL    MW421414   5.759   3.460   0.076 -0.2692 -0.2846 -0.4901
 5411SOL     OW21415   2.628   3.502   4.441  0.1821 -0.1293 -0.4941
 5411SOL    HW221416   2.536   3.489   4.416 -0.5544 -0.6925  2.2535
 5411SOL    HW321417   2.657   3.417   4.473  1.2104  0.4068  0.0512
 5411SOL    MW421418   2.620   3.489   4.442  0.2206 -0.1329 -0.0597
 5412SOL     OW21419   1.927   2.224   5.335  0.0061  0.1125  0.8722
 5412SOL    HW221420   1.836   2.199   5.345  0.2398 -0.2538  2.2746
 5412SOL    HW321421   1.927   2.291   5.266 -1.4421  0.8258  1.5372
 5412SOL    MW421422   1.915   2.230   5.327 -0.1541  0.1583  1.1450
 5413SOL     OW21423   3.590   4.112   5.239 -0.8441  0.1055 -0.3675
 5413SOL    HW221424   3.555   4.127   5.151  0.2245 -1.6442 -1.1603
 5413SOL    HW321425   3.519   4.068   5.286 -0.6002 -1.2514 -1.2056
 5413SOL    MW421426   3.576   4.108   5.234 -0.6710 -0.3044 -0.5827
 5414SOL     OW21427   2.770   0.389   4.655  0.2042 -0.1129  0.7161
 5414SOL    HW221428   2.805   0.424   4.737 -0.9093  0.9852  0.7448
 5414SOL    HW321429   2.678   0.370   4.675  0.0123 -0.1517 -0.1837
 5414SOL    MW421430   2.763   0.391   4.668  0.0320  0.0269  0.6011
 5415SOL     OW21431   3.799   6.114   1.239  0.3006 -0.5652 -0.1458
 5415SOL    HW221432   3.707   6.144   1.239  1.1652  2.5938  1.6691
 5415SOL    HW321433   3.818   6.095   1.331  1.6669 -0.3721 -0.3677
 5415SOL    MW421434   3.789   6.116   1.251  0.5949 -0.1229  0.0644
 5416SOL     OW21435   3.205   4.828   1.056  0.2340  0.3533 -0.0243
 5416SOL    HW221436   3.127   4.837   1.001 -0.9886 -1.6574  1.2112
 5416SOL    HW321437   3.248   4.749   1.023  1.5643  1.2165 -0.4282
 5416SOL    MW421438   3.200   4.818   1.044  0.2482  0.2019  0.0854
 5417SOL     OW21439   0.740   2.013   3.187  0.0788 -0.1959 -0.4753
 5417SOL    HW221440   0.669   1.971   3.234  0.4507 -0.4081 -0.0994
 5417SOL    HW321441   0.744   1.966   3.103 -0.1489 -0.2514 -0.4559
 5417SOL    MW421442   0.731   2.001   3.182  0.0978 -0.2312 -0.4231
 5418SOL     OW21443   0.454   6.349   0.509 -0.5399  0.1491 -0.4029
 5418SOL    HW221444   0.406   6.331   0.428  0.9587 -0.8967 -1.1020
 5418SOL    HW321445   0.543   6.368   0.480  0.0244 -0.2297  1.0098
 5418SOL    MW421446   0.460   6.349   0.494 -0.2677 -0.0388 -0.3087
 5419SOL     OW21447   4.571   1.786   0.330  0.0261 -0.4065 -0.3745
 5419SOL    HW221448   4.489   1.747   0.299  1.0397 -1.3814 -2.0016
 5419SOL    HW321449   4.574   1.764   0.423 -2.6077  1.6291  0.3044
 5419SOL    MW421450   4.560   1.778   0.338 -0.1877 -0.2666 -0.4996
 5420SOL     OW21451   6.053   2.487   5.862  0.1026  0.4140 -0.0992
 5420SOL    HW221452   5.985   2.435   5.905  0.0263 -0.8208 -1.6078
 5420SOL    HW321453   6.122   2.424   5.843  1.7228  1.6301  1.3589
 5420SOL    MW421454   6.053   2.472   5.865  0.3063  0.4115 -0.1059
 5421SOL     OW21455   0.287   2.684   2.889 -0.5285 -0.1190  0.4557
 5421SOL    HW221456   0.283   2.642   2.975 -1.9121  0.3799  0.6601
 5421SOL    HW321457   0.352   2.634   2.840  0.9290  0.1213  2.0650
 5421SOL    MW421458   0.295   2.672   2.894 -0.5187 -0.0215  0.6950
 5422SOL     OW21459   4.273   5.997   4.285 -0.3888 -0.5897  0.2631
 5422SOL    HW221460   4.183   6.021   4.308 -0.7542 -0.1718 -1.4438
 5422SOL    HW321461   4.278   5.903   4.301 -1.6422 -0.9226 -1.1054
 5422SOL    MW421462   4.262   5.988   4.290 -0.6024 -0.5785 -0.1427
 5423SOL     OW21463   6.072   2.682   5.653  0.4017  0.0224  0.2386
 5423SOL    HW221464   6.069   2.633   5.735 -0.4982 -1.6095 -0.7425
 5423SOL    HW321465   6.004   2.644   5.598  1.8857  0.1254 -1.8038
 5423SOL    MW421466   6.063   2.671   5.657  0.4788 -0.1793 -0.1603
 5424SOL     OW21467   4.591   6.240   1.083  0.2690 -0.9131 -0.6493
 5424SOL    HW221468   4.553   6.323   1.054  1.5236 -0.5221 -1.2200
 5424SOL    HW321469   4.685   6.252   1.075  0.4636 -2.7642 -1.8737
 5424SOL    MW421470   4.598   6.253   1.078  0.4602 -1.1057 -0.8861
 5425SOL     OW21471   5.689   4.249   0.098 -0.1916  0.1558  0.1109
 5425SOL    HW221472   5.615   4.299   0.134 -0.4942 -0.2110  0.0107
 5425SOL    HW321473   5.747   4.314   0.060  0.6368  0.6670  2.1403
 5425SOL    MW421474   5.687   4.264   0.098 -0.1223  0.1748  0.3654
 5426SOL     OW21475   1.210   0.277   5.358  0.0291  0.4904  0.1634
 5426SOL    HW221476   1.240   0.258   5.269 -1.5723 -0.0369 -0.3102
 5426SOL    HW321477   1.117   0.300   5.347 -0.0624  0.9266  1.6475
 5426SOL    MW421478   1.201   0.278   5.345 -0.1943  0.4784  0.2968
 5427SOL     OW21479   0.072   5.221   5.885 -0.3439  0.7622  0.1371
 5427SOL    HW221480   0.151   5.182   5.922 -0.4053  1.4791  1.0625
 5427SOL    HW321481   0.103   5.283   5.819 -0.2260 -0.4172 -0.9417
 5427SOL    MW421482   0.087   5.224   5.881 -0.3364  0.7012  0.1169
 5428SOL     OW21483   6.075   3.989   6.330  0.4442  0.2184  0.0753
 5428SOL    HW221484   6.006   4.001   6.395  0.6352 -0.5565  0.4354
 5428SOL    HW321485   6.148   4.042   6.362  0.1017  0.8738 -0.1986
 5428SOL    MW421486   6.076   3.998   6.343  0.4242  0.2026  0.0867
 5429SOL     OW21487   2.337   0.099   6.136  0.1888 -0.1822  0.1687
 5429SOL    HW221488   2.413   0.136   6.180 -0.2476 -0.3038  1.0479
 5429SOL    HW321489   2.374   0.045   6.066  0.9574 -0.9570  1.1413
 5429SOL    MW421490   2.352   0.097   6.132  0.2326 -0.3004  0.4131
 5430SOL     OW21491   0.954   1.808   5.044  0.6460 -0.1147 -0.2393
 5430SOL    HW221492   0.885   1.828   5.108  0.7448  0.3580 -0.2737
 5430SOL    HW321493   0.914   1.826   4.959 -0.2647 -2.9898 -0.5061
 5430SOL    MW421494   0.940   1.813   5.042  0.5389 -0.4317 -0.2791
 5431SOL     OW21495   3.942   4.122   3.558 -0.1265  0.1632  0.2504
 5431SOL    HW221496   3.855   4.084   3.547 -0.9655  0.9498  3.2504
 5431SOL    HW321497   4.000   4.046   3.568 -0.5202 -0.3493 -1.0457
 5431SOL    MW421498   3.938   4.107   3.558 -0.2891  0.1994  0.4752
 5432SOL     OW21499   4.130   4.959   1.103  0.2996  0.0967  0.0071
 5432SOL    HW221500   4.185   4.898   1.054  0.5890  0.9964 -0.8471
 5432SOL    HW321501   4.040   4.934   1.082  0.3995 -0.6394  0.4528
 5432SOL    MW421502   4.125   4.948   1.093  0.3509  0.1183 -0.0468
 5433SOL     OW21503   2.348   0.567   2.869  0.3146 -0.1855  0.5248
 5433SOL    HW221504   2.373   0.649   2.826 -0.9836  0.4836  0.9772
 5433SOL    HW321505   2.291   0.524   2.805  3.3799 -2.3073 -1.0414
 5433SOL    MW421506   2.344   0.572   2.855  0.5477 -0.3772  0.3779
 5434SOL     OW21507   5.036   5.676   6.332  0.1382 -0.5358  0.0102
 5434SOL    HW221508   5.012   5.714   6.417  1.9330 -0.7414  0.6550
 5434SOL    HW321509   4.992   5.732   6.268 -1.6197 -0.6466  1.0603
 5434SOL    MW421510   5.027   5.689   6.335  0.1431 -0.5775  0.2338
 5435SOL     OW21511   5.855   1.010   0.072  0.2616  0.2764  0.3181
 5435SOL    HW221512   5.881   0.921   0.047 -1.6386 -0.1524 -0.2651
 5435SOL    HW321513   5.814   1.046  -0.006  0.0859  1.3054  0.8687
 5435SOL    MW421514   5.853   1.003   0.058 -0.0123  0.3556  0.3138
 5436SOL     OW21515   0.460   3.062   3.131  0.0119  0.1097 -0.4004
 5436SOL    HW221516   0.400   2.994   3.100  0.2286 -0.1732 -0.1903
 5436SOL    HW321517   0.469   3.121   3.056  0.8873 -0.8161 -1.0499
 5436SOL    MW421518   0.453   3.061   3.117  0.1560 -0.0498 -0.4584
 5437SOL     OW21519   1.356   1.833   5.409 -0.3161 -0.3939  0.2741
 5437SOL    HW221520   1.261   1.822   5.400 -0.0311 -3.2247 -0.0087
 5437SOL    HW321521   1.373   1.821   5.503 -0.3635  1.9502  0.6437
 5437SOL    MW421522   1.346   1.830   5.420 -0.2847 -0.4581  0.2856
 5438SOL     OW21523   3.380   4.625   0.978  0.7358  0.9179 -0.0313
 5438SOL    HW221524   3.336   4.541   0.980 -0.2922  1.4487  0.8951
 5438SOL    HW321525   3.384   4.649   0.886 -1.6399  1.2073 -0.1080
 5438SOL    MW421526   3.375   4.617   0.966  0.2867  1.0261  0.0808
 5439SOL     OW21527   3.917   5.146   4.921  0.8506 -0.3083  0.5531
 5439SOL    HW221528   3.887   5.126   5.010 -1.5653  1.6707  0.2887
 5439SOL    HW321529   3.939   5.239   4.924  0.6093 -0.1880 -0.9587
 5439SOL    MW421530   3.916   5.155   4.933  0.5000 -0.0313  0.3188
 5440SOL     OW21531   5.492   5.801   1.539 -0.1598 -0.1570 -0.1455
 5440SOL    HW221532   5.530   5.851   1.612 -0.2939 -1.7957  1.1018
 5440SOL    HW321533   5.416   5.852   1.512  1.1783  1.6536 -0.6962
 5440SOL    MW421534   5.487   5.814   1.545 -0.0010 -0.1343 -0.0536
 5441SOL     OW21535   4.470   5.067   6.373 -0.0191  0.0885 -0.2495
 5441SOL    HW221536   4.537   5.072   6.441 -1.6276 -0.1421  1.4051
 5441SOL    HW321537   4.398   5.020   6.414 -0.9972 -0.1743 -2.1772
 5441SOL    MW421538   4.470   5.061   6.387 -0.3604  0.0234 -0.2855
 5442SOL     OW21539   6.374   5.704   5.068 -0.0661  0.2321  0.6318
 5442SOL    HW221540   6.458   5.662   5.086 -0.1521  0.2175  1.0120
 5442SOL    HW321541   6.316   5.632   5.043  0.3790  0.3884 -0.9799
 5442SOL    MW421542   6.378   5.689   5.067 -0.0187  0.2508  0.4693
 5443SOL     OW21543   3.258   1.993   0.136 -0.4422  0.3400  0.2019
 5443SOL    HW221544   3.227   1.903   0.122  0.0565 -0.1996  2.2329
 5443SOL    HW321545   3.320   1.986   0.208  0.6854  2.1368 -0.5329
 5443SOL    MW421546   3.262   1.980   0.144 -0.2276  0.5058  0.3729
 5444SOL     OW21547   2.152   4.741   1.562 -0.0226 -0.0590  0.5110
 5444SOL    HW221548   2.208   4.671   1.528  0.7565  1.3359 -1.2508
 5444SOL    HW321549   2.155   4.730   1.657  3.5795  0.1363  0.5655
 5444SOL    MW421550   2.160   4.730   1.570  0.5554  0.1508  0.2857
 5445SOL     OW21551   0.436   1.850   5.808 -0.2813  0.1798  0.2254
 5445SOL    HW221552   0.374   1.778   5.794 -0.3576 -0.6796  3.9731
 5445SOL    HW321553   0.417   1.881   5.896  4.0423  0.4256  1.3041
 5445SOL    MW421554   0.425   1.844   5.818  0.2791  0.0989  0.8622
 5446SOL     OW21555   0.892   4.494   0.090  0.3732 -0.0854  0.3533
 5446SOL    HW221556   0.872   4.434   0.162  0.0692 -0.2295  0.1520
 5446SOL    HW321557   0.808   4.531   0.066  0.5372  0.2907  0.3579
 5446SOL    MW421558   0.879   4.491   0.096  0.3548 -0.0548  0.3273
 5447SOL     OW21559   3.708   5.100   2.104  0.3726 -0.4528  0.3137
 5447SOL    HW221560   3.739   5.174   2.052 -0.5819 -0.4414 -0.2760
 5447SOL    HW321561   3.781   5.078   2.161  0.9625  0.4146 -0.0850
 5447SOL    MW421562   3.722   5.107   2.104  0.3245 -0.3368  0.1833
 5448SOL     OW21563   1.488   2.320   2.846  0.4749 -0.1484  0.3520
 5448SOL    HW221564   1.568   2.372   2.844 -0.1626  0.8603 -0.1583
 5448SOL    HW321565   1.437   2.352   2.772 -0.5835 -0.4676  0.9171
 5448SOL    MW421566   1.492   2.331   2.836  0.2511 -0.0574  0.3592
 5449SOL     OW21567   0.154   4.142   4.613 -0.2377  0.0013 -0.0608
 5449SOL    HW221568   0.075   4.169   4.661  1.2639  0.7068  2.1662
 5449SOL    HW321569   0.122   4.077   4.550 -2.3346 -1.3479  2.1863
 5449SOL    MW421570   0.139   4.137   4.611 -0.3162 -0.0836  0.5295
 5450SOL     OW21571   5.963   5.902   1.699 -0.9015 -0.0169 -0.3712
 5450SOL    HW221572   6.034   5.838   1.710 -0.6847  0.4469  1.0243
 5450SOL    HW321573   6.005   5.976   1.655 -0.8892 -0.3619 -0.9516
 5450SOL    MW421574   5.978   5.903   1.694 -0.8713 -0.0012 -0.2637
 5451SOL     OW21575   1.785   2.389   1.764 -0.6745  0.1481  0.2157
 5451SOL    HW221576   1.746   2.468   1.726 -1.9220 -0.7188 -0.3615
 5451SOL    HW321577   1.797   2.330   1.689  2.1778  0.4790  0.2660
 5451SOL    MW421578   1.782   2.392   1.749 -0.4628  0.0774  0.1462
 5452SOL     OW21579   0.756   0.228   4.293  0.1215 -0.3797  0.3653
 5452SOL    HW221580   0.715   0.210   4.377 -0.8933  1.8876  0.4035
 5452SOL    HW321581   0.847   0.247   4.314 -0.3287  1.0717  1.0882
 5452SOL    MW421582   0.763   0.228   4.307 -0.0718  0.1110  0.4657
 5453SOL     OW21583   3.348   2.340   5.768 -0.4865 -0.1907  0.0796
 5453SOL    HW221584   3.378   2.343   5.859  0.5926 -0.7640 -0.2512
 5453SOL    HW321585   3.332   2.247   5.751 -1.8050  0.0225  0.0218
 5453SOL    MW421586   3.350   2.328   5.778 -0.5181 -0.2382  0.0283
 5454SOL     OW21587   0.627   3.002   2.687  0.3423  0.4650 -0.4903
 5454SOL    HW221588   0.541   2.966   2.708  0.1278  1.7963  1.0423
 5454SOL    HW321589   0.686   2.964   2.751  1.0937 -1.0070 -1.9707
 5454SOL    MW421590   0.623   2.992   2.698  0.4131  0.4465 -0.4834
 5455SOL     OW21591   5.151   2.555   3.938 -0.0177  0.4032 -0.6438
 5455SOL    HW221592   5.232   2.522   3.976  0.3262  0.6134 -1.1814
 5455SOL    HW321593   5.082   2.517   3.993  0.4918  2.0635  1.2554
 5455SOL    MW421594   5.152   2.545   3.950  0.0949  0.6500 -0.4641
 5456SOL     OW21595   1.240   6.321   3.257 -0.2169  0.0570  0.2449
 5456SOL    HW221596   1.309   6.318   3.323 -1.7506  1.7539  2.0357
 5456SOL    HW321597   1.161   6.295   3.304 -1.6061  2.6389 -0.4889
 5456SOL    MW421598   1.239   6.317   3.272 -0.6025  0.6216  0.3843
 5457SOL     OW21599   1.749   5.792   6.049  0.1443 -0.0499  0.2456
 5457SOL    HW221600   1.816   5.820   5.987 -2.8199  3.3769 -1.8197
 5457SOL    HW321601   1.688   5.740   5.996 -1.9182  2.0830  0.3803
 5457SOL    MW421602   1.750   5.789   6.034 -0.5189  0.6836 -0.0091
 5458SOL     OW21603   6.342   5.510   4.251  0.4150  0.4480  0.1896
 5458SOL    HW221604   6.359   5.429   4.203  0.2678  1.2113 -1.1929
 5458SOL    HW321605   6.248   5.524   4.244  0.7022  1.8857 -1.5528
 5458SOL    MW421606   6.332   5.501   4.244  0.4335  0.7384 -0.2227
 5459SOL     OW21607   0.487   5.935   5.690 -0.3382 -0.3696  0.4828
 5459SOL    HW221608   0.529   5.934   5.776  0.6855  1.0508  0.0478
 5459SOL    HW321609   0.416   5.999   5.699 -0.3485 -0.3573  0.3196
 5459SOL    MW421610   0.483   5.943   5.703 -0.2045 -0.1806  0.4039
 5460SOL     OW21611   5.601   5.243   5.990  0.1016 -0.1935 -0.4982
 5460SOL    HW221612   5.532   5.277   5.934  0.6854 -1.0724 -1.7914
 5460SOL    HW321613   5.679   5.244   5.935  0.7297 -0.9128  0.3609
 5460SOL    MW421614   5.602   5.248   5.975  0.2615 -0.4043 -0.5555
 5461SOL     OW21615   0.407   3.349   4.993  0.2425  0.1789 -0.0406
 5461SOL    HW221616   0.389   3.282   4.927  0.0889 -0.3160  0.5054
 5461SOL    HW321617   0.495   3.381   4.970  1.3209 -1.8125  1.0296
 5461SOL    MW421618   0.416   3.345   4.981  0.3645 -0.1491  0.1727
 5462SOL     OW21619   3.430   0.968   4.580 -0.5048 -0.5093 -0.4704
 5462SOL    HW221620   3.420   0.929   4.667  1.8377 -0.0962  0.0574
 5462SOL    HW321621   3.522   0.994   4.576 -1.5348  3.7642 -1.2885
 5462SOL    MW421622   3.441   0.966   4.591 -0.3316  0.1090 -0.5087
 5463SOL     OW21623   1.503   6.437   4.845 -0.3176 -0.5628  0.3954
 5463SOL    HW221624   1.524   6.438   4.938  0.3937  0.5938  0.2435
 5463SOL    HW321625   1.523   6.347   4.817  3.3705  0.0243  0.5685
 5463SOL    MW421626   1.508   6.425   4.853  0.2628 -0.3328  0.3982
 5464SOL     OW21627   0.309   4.524   4.700  0.1119 -0.4624 -0.5975
 5464SOL    HW221628   0.396   4.537   4.738  1.7747 -1.0765 -3.8607
 5464SOL    HW321629   0.259   4.601   4.729  1.8813  0.2083  0.9025
 5464SOL    MW421630   0.314   4.536   4.709  0.5648 -0.4549 -0.8301
 5465SOL     OW21631   1.573   4.346   2.823  0.3313 -0.1925  0.4393
 5465SOL    HW221632   1.666   4.366   2.836  0.2268  0.2593  0.5070
 5465SOL    HW321633   1.541   4.417   2.766  0.3963 -1.2170 -0.9041
 5465SOL    MW421634   1.581   4.358   2.817  0.3261 -0.2681  0.2710
 5466SOL     OW21635   5.198   4.079   3.447 -0.0582  0.1024  0.1035
 5466SOL    HW221636   5.220   3.994   3.486  2.0826  1.0202  1.0492
 5466SOL    HW321637   5.134   4.117   3.507 -0.6303 -0.6050 -0.0446
 5466SOL    MW421638   5.192   4.073   3.460  0.1487  0.1301  0.2088
 5467SOL     OW21639   6.388   1.788   4.226 -0.1028 -0.3763 -0.5091
 5467SOL    HW221640   6.375   1.734   4.148  1.7791 -1.6427 -0.0084
 5467SOL    HW321641   6.450   1.855   4.199 -0.1240 -0.2862 -0.3334
 5467SOL    MW421642   6.395   1.789   4.212  0.1427 -0.5315 -0.4198
 5468SOL     OW21643   5.401   2.226   1.747  0.1656  0.0911 -0.4484
 5468SOL    HW221644   5.425   2.240   1.838  2.0340 -1.0870 -0.6982
 5468SOL    HW321645   5.355   2.306   1.721  2.3683  1.8487  0.6543
 5468SOL    MW421646   5.398   2.238   1.755  0.7028  0.1675 -0.3358
 5469SOL     OW21647   2.427   3.542   5.563  0.4005 -0.4820 -0.0760
 5469SOL    HW221648   2.332   3.556   5.563  0.8450  4.1073  1.0524
 5469SOL    HW321649   2.443   3.484   5.638 -1.4157 -0.5834  0.2691
 5469SOL    MW421650   2.417   3.536   5.573  0.2195  0.1101  0.1184
 5470SOL     OW21651   1.380   4.775   1.162  0.0052  0.2612  0.3575
 5470SOL    HW221652   1.285   4.768   1.153  0.2382 -0.9040 -1.9760
 5470SOL    HW321653   1.395   4.865   1.193 -1.8344  0.3488  1.0951
 5470SOL    MW421654   1.370   4.786   1.165 -0.2067  0.1190  0.1469
 5471SOL     OW21655   3.977   4.433   0.907  0.0373 -0.2739 -0.2784
 5471SOL    HW221656   3.991   4.463   0.817 -1.6016  0.5636 -0.2943
 5471SOL    HW321657   4.054   4.380   0.927  1.3022  1.0278 -1.5174
 5471SOL    MW421658   3.989   4.430   0.897 -0.0120  0.0084 -0.4440
 5472SOL     OW21659   1.036   2.375   1.627 -0.2249  0.0014  0.0667
 5472SOL    HW221660   1.006   2.299   1.576  0.9637  0.4503 -1.3771
 5472SOL    HW321661   1.100   2.338   1.688 -0.8149 -0.3749  0.4737
 5472SOL    MW421662   1.040   2.360   1.628 -0.1459  0.0110 -0.0701
 5473SOL     OW21663   0.213   3.361   1.297  0.7164 -0.5186 -0.1432
 5473SOL    HW221664   0.220   3.280   1.247  0.2446 -0.7053  0.0936
 5473SOL    HW321665   0.158   3.417   1.242 -0.4193 -0.9876  0.5029
 5473SOL    MW421666   0.207   3.358   1.283  0.5043 -0.6051 -0.0268
 5474SOL     OW21667   0.746   5.896   4.478 -0.0780  0.5867 -0.1318
 5474SOL    HW221668   0.707   5.810   4.490 -1.5895  1.4292  1.3292
 5474SOL    HW321669   0.820   5.897   4.538 -1.7194  1.2342  1.9991
 5474SOL    MW421670   0.751   5.885   4.487 -0.4940  0.7833  0.3421
 5475SOL     OW21671   6.163   2.469   6.138 -0.0538  0.3747 -0.2289
 5475SOL    HW221672   6.131   2.502   6.054  0.0348  1.0372 -0.0125
 5475SOL    HW321673   6.255   2.446   6.122  0.1009  0.9456 -0.2070
 5475SOL    MW421674   6.171   2.471   6.125 -0.0217  0.5374 -0.1975
 5476SOL     OW21675   3.600   2.367   3.040  0.1656 -0.6758  0.2994
 5476SOL    HW221676   3.660   2.350   3.113  0.7771 -1.7440 -0.4293
 5476SOL    HW321677   3.658   2.387   2.966 -0.3940 -1.1060 -0.2624
 5476SOL    MW421678   3.615   2.368   3.040  0.1724 -0.8735  0.1291
 5477SOL     OW21679   0.889   5.277   6.088  0.0172 -0.1986  0.3061
 5477SOL    HW221680   0.884   5.248   5.997 -0.7935  1.1625 -0.1221
 5477SOL    HW321681   0.920   5.201   6.137 -0.8125 -1.3486 -0.9114
 5477SOL    MW421682   0.893   5.263   6.082 -0.1992 -0.1708  0.0890
 5478SOL     OW21683   0.992   5.014   2.140 -0.4575 -0.4555  0.9170
 5478SOL    HW221684   1.037   4.972   2.067 -1.2933 -0.2831  0.2906
 5478SOL    HW321685   0.904   4.978   2.137 -0.8825  0.5680  1.0140
 5478SOL    MW421686   0.987   5.003   2.130 -0.6239 -0.2977  0.8471
 5479SOL     OW21687   0.430   3.535   2.667  0.2902 -0.3977 -0.0801
 5479SOL    HW221688   0.406   3.492   2.749  0.1453  2.0724  1.2694
 5479SOL    HW321689   0.467   3.465   2.613  0.3952 -2.1149  2.0787
 5479SOL    MW421690   0.432   3.520   2.671  0.2850 -0.2984  0.3828
 5480SOL     OW21691   4.777   2.844   2.502 -0.4533  0.4310 -0.1864
 5480SOL    HW221692   4.820   2.763   2.531 -1.2192  0.8949  2.5800
 5480SOL    HW321693   4.846   2.909   2.502 -0.4691  0.4719  1.0070
 5480SOL    MW421694   4.791   2.842   2.506 -0.5565  0.4976  0.3361
 5481SOL     OW21695   2.969   1.272   1.297  0.1899  0.5101  0.3375
 5481SOL    HW221696   2.948   1.179   1.286  1.1080  0.2788  0.4034
 5481SOL    HW321697   3.064   1.273   1.307  0.3426  1.5862 -0.9661
 5481SOL    MW421698   2.979   1.259   1.297  0.3312  0.6215  0.1742
 5482SOL     OW21699   1.140   2.943   0.102  0.1280 -0.2408  0.5197
 5482SOL    HW221700   1.092   2.885   0.042  1.0152  0.9529 -1.4684
 5482SOL    HW321701   1.074   2.971   0.166 -1.0740 -0.9678 -0.3480
 5482SOL    MW421702   1.125   2.939   0.102  0.0865 -0.1792  0.1429
 5483SOL     OW21703   3.004   5.388   0.837 -0.9903 -0.4796 -0.2534
 5483SOL    HW221704   2.914   5.421   0.838 -0.6452  0.5063  0.9634
 5483SOL    HW321705   3.059   5.466   0.838 -0.1232 -1.0689  0.2811
 5483SOL    MW421706   2.999   5.403   0.837 -0.8303 -0.4272 -0.0223
 5484SOL     OW21707   5.351   4.781   5.712  0.7385  0.2227 -0.0469
 5484SOL    HW221708   5.391   4.700   5.683 -0.1153 -0.4928  0.7167
 5484SOL    HW321709   5.373   4.787   5.805  1.6835  1.4235 -0.3112
 5484SOL    MW421710   5.359   4.771   5.721  0.7505  0.2867  0.0190
 5485SOL     OW21711   2.176   2.875   0.877 -0.1573  0.1109 -0.3676
 5485SOL    HW221712   2.191   2.921   0.794  1.1278  1.0093  0.3208
 5485SOL    HW321713   2.123   2.936   0.929  1.0794  0.6184  0.3403
 5485SOL    MW421714   2.171   2.889   0.873  0.1754  0.2964 -0.1833
 5486SOL     OW21715   5.809   0.885   3.156 -0.2973 -0.4872  0.2766
 5486SOL    HW221716   5.724   0.884   3.113  0.5885  1.4288 -1.6764
 5486SOL    HW321717   5.804   0.960   3.216  0.3201  0.2889 -0.6123
 5486SOL    MW421718   5.797   0.895   3.159 -0.0990 -0.1320 -0.0984
 5487SOL     OW21719   2.280   1.277   6.336 -1.3201  0.2626  0.0576
 5487SOL    HW221720   2.235   1.335   6.274 -0.3362  0.1313 -0.8066
 5487SOL    HW321721   2.212   1.250   6.398 -2.5047 -0.1600 -1.3705
 5487SOL    MW421722   2.265   1.281   6.336 -1.3466  0.1895 -0.2449
 5488SOL     OW21723   5.191   1.960   2.899 -0.4250  0.4484 -0.1116
 5488SOL    HW221724   5.284   1.938   2.910  0.0907  1.6608 -1.7546
 5488SOL    HW321725   5.190   2.053   2.878 -1.8004  0.0099 -2.3419
 5488SOL    MW421726   5.203   1.969   2.898 -0.5384  0.5505 -0.6226
 5489SOL     OW21727   4.430   2.588   0.474 -0.1725 -0.1581  0.3090
 5489SOL    HW221728   4.355   2.548   0.517 -1.0182  1.5985  0.5815
 5489SOL    HW321729   4.398   2.617   0.389  0.3052  0.2264  0.2504
 5489SOL    MW421730   4.416   2.587   0.469 -0.2211  0.1244  0.3372
 5490SOL     OW21731   5.251   2.466   1.723 -0.0925 -0.4883 -0.1629
 5490SOL    HW221732   5.189   2.432   1.787 -1.1981  0.3562 -0.7558
 5490SOL    HW321733   5.274   2.553   1.757  0.2104 -0.5074 -0.3213
 5490SOL    MW421734   5.246   2.473   1.736 -0.1984 -0.3794 -0.2620
 5491SOL     OW21735   2.287   3.103   1.658  0.2684 -0.2713 -0.0633
 5491SOL    HW221736   2.381   3.101   1.639  0.4232  0.8799  0.5221
 5491SOL    HW321737   2.245   3.107   1.572  0.8085  0.5548 -0.2959
 5491SOL    MW421738   2.294   3.103   1.644  0.3601 -0.0104 -0.0168
 5492SOL     OW21739   3.944   0.990   5.648  0.3072 -0.2383 -0.0379
 5492SOL    HW221740   3.896   0.935   5.585 -0.6969 -0.7205  1.1032
 5492SOL    HW321741   3.901   1.075   5.642  1.4008  0.2487 -1.2939
 5492SOL    MW421742   3.932   0.994   5.639  0.3190 -0.2376 -0.0530
 5493SOL     OW21743   4.796   2.342   5.903 -0.6983  0.0271  0.4593
 5493SOL    HW221744   4.749   2.299   5.832 -2.6743  0.9218  1.1568
 5493SOL    HW321745   4.861   2.397   5.859 -0.4434 -1.0331 -0.5430
 5493SOL    MW421746   4.799   2.343   5.888 -0.9254  0.0053  0.4191
 5494SOL     OW21747   1.232   2.391   1.328 -0.0933 -0.6186 -0.0474
 5494SOL    HW221748   1.142   2.365   1.348 -0.3842  0.6365  0.3950
 5494SOL    HW321749   1.222   2.455   1.257  0.2042  1.1984  1.4449
 5494SOL    MW421750   1.218   2.396   1.321 -0.0924 -0.2133  0.2078
 5495SOL     OW21751   4.748   3.168   4.074  0.5983  0.7943  0.4286
 5495SOL    HW221752   4.776   3.161   3.983 -0.2780  2.0494  0.0383
 5495SOL    HW321753   4.719   3.259   4.084 -2.6137 -0.1452  0.9546
 5495SOL    MW421754   4.748   3.179   4.063  0.0589  0.8359  0.4465
 5496SOL     OW21755   4.005   2.847   2.791 -0.4784  0.7172  0.0621
 5496SOL    HW221756   3.948   2.792   2.844  0.2201 -1.8136 -1.6270
 5496SOL    HW321757   4.085   2.856   2.843 -0.0510 -1.1834 -0.1593
 5496SOL    MW421758   4.008   2.841   2.805 -0.3299  0.1326 -0.1900
 5497SOL     OW21759   1.106   1.491   4.014 -0.1898 -0.7693  0.1786
 5497SOL    HW221760   1.074   1.580   4.030  2.6752  0.1809  1.1898
 5497SOL    HW321761   1.104   1.449   4.099  0.5176 -0.9448  0.1097
 5497SOL    MW421762   1.101   1.497   4.027  0.2816 -0.6671  0.3029
 5498SOL     OW21763   0.053   0.703   4.119 -0.2754 -0.3459  0.5153
 5498SOL    HW221764   0.008   0.639   4.064 -0.0897 -0.8986  0.9968
 5498SOL    HW321765   0.026   0.681   4.208 -0.4979  0.4833  0.6584
 5498SOL    MW421766   0.044   0.691   4.123 -0.2802 -0.3094  0.5977
 5499SOL     OW21767   0.352   0.745   3.122 -0.6546  0.0864  0.5836
 5499SOL    HW221768   0.319   0.669   3.074  0.1462 -0.6172  1.1064
 5499SOL    HW321769   0.364   0.713   3.212  0.9469  0.4378  0.5306
 5499SOL    MW421770   0.349   0.731   3.128 -0.3376  0.0400  0.6456
 5500SOL     OW21771   2.994   3.563   3.976  0.3132 -0.2009 -0.0226
 5500SOL    HW221772   2.970   3.590   4.064  0.8288  1.6653 -0.4143
 5500SOL    HW321773   2.911   3.546   3.932  0.0323 -0.5757  0.6399
 5500SOL    MW421774   2.980   3.564   3.981  0.3442 -0.0042  0.0132
 5501SOL     OW21775   5.734   2.385   4.407  0.4703 -0.2574 -0.0995
 5501SOL    HW221776   5.821   2.414   4.434  0.9487 -1.2575 -0.5289
 5501SOL    HW321777   5.691   2.356   4.487  0.4019  0.5430  0.1613
 5501SOL    MW421778   5.740   2.385   4.421  0.5244 -0.2837 -0.1218
 5502SOL     OW21779   0.702   3.650   6.072 -0.3081 -0.0773 -0.3029
 5502SOL    HW221780   0.615   3.662   6.035 -0.1769  0.2618 -0.4986
 5502SOL    HW321781   0.700   3.696   6.155  0.4616  2.1051 -1.4317
 5502SOL    MW421782   0.690   3.657   6.078 -0.1892  0.2554 -0.4777
 5503SOL     OW21783   1.978   4.848   2.410 -0.7137 -0.2203 -0.2273
 5503SOL    HW221784   2.011   4.814   2.493  0.1784 -0.1963 -0.5515
 5503SOL    HW321785   2.030   4.803   2.343 -1.3141 -0.1293 -0.7663
 5503SOL    MW421786   1.989   4.838   2.412 -0.6752 -0.2052 -0.3412
 5504SOL     OW21787   4.535   1.868   0.817  0.5699 -0.0260 -0.4345
 5504SOL    HW221788   4.553   1.906   0.731  1.3295 -1.4676 -0.9506
 5504SOL    HW321789   4.600   1.908   0.875 -0.2911  1.3567 -0.3936
 5504SOL    MW421790   4.546   1.878   0.813  0.5565 -0.0338 -0.4972
 5505SOL     OW21791   1.473   2.016   6.040  0.2538  0.3627  0.5432
 5505SOL    HW221792   1.568   2.020   6.032  0.3179 -1.1885  0.0643
 5505SOL    HW321793   1.453   2.064   6.121  1.5528 -0.1709  1.2075
 5505SOL    MW421794   1.483   2.023   6.050  0.4336  0.0876  0.5677
 5506SOL     OW21795   0.159   3.155   5.160  0.5614 -0.2786  0.0245
 5506SOL    HW221796   0.139   3.202   5.079 -1.4394 -1.2463 -0.1143
 5506SOL    HW321797   0.254   3.152   5.163  0.6971  0.2842 -1.9977
 5506SOL    MW421798   0.169   3.161   5.150  0.3153 -0.3320 -0.2606
 5507SOL     OW21799   2.519   2.282   3.286  0.7540  0.7237  0.2707
 5507SOL    HW221800   2.552   2.195   3.263  1.9277  0.6382  2.1290
 5507SOL    HW321801   2.544   2.337   3.212  1.2070 -0.2422 -0.3152
 5507SOL    MW421802   2.526   2.278   3.273  0.9686  0.5850  0.4386
 5508SOL     OW21803   5.996   4.778   4.113  0.1682  0.0515 -0.5417
 5508SOL    HW221804   5.902   4.799   4.117  0.4648  1.3536  0.4626
 5508SOL    HW321805   6.039   4.862   4.127  1.4871 -0.9024  1.4941
 5508SOL    MW421806   5.989   4.792   4.115  0.3814  0.0974 -0.1406
 5509SOL     OW21807   2.208   1.912   6.271  0.0364  0.3875  0.7897
 5509SOL    HW221808   2.263   1.842   6.305  0.2439  0.7336  1.1789
 5509SOL    HW321809   2.269   1.983   6.250 -0.0772  0.1596 -0.3924
 5509SOL    MW421810   2.223   1.912   6.273  0.0488  0.4031  0.6851
 5510SOL     OW21811   4.587   0.386   1.244 -0.3177 -0.5010 -0.6128
 5510SOL    HW221812   4.584   0.376   1.149  4.1298  1.8993 -1.3005
 5510SOL    HW321813   4.643   0.314   1.274 -0.1278 -0.1394 -0.0879
 5510SOL    MW421814   4.594   0.375   1.235  0.2941 -0.1366 -0.6343
 5511SOL     OW21815   0.727   1.391   4.066 -0.5573  0.6738  0.3799
 5511SOL    HW221816   0.802   1.370   4.010  0.2426  3.1946  0.3649
 5511SOL    HW321817   0.702   1.308   4.106  2.0685 -0.3136  0.1463
 5511SOL    MW421818   0.734   1.378   4.064 -0.1053  0.8761  0.3471
 5512SOL     OW21819   2.646   5.310   2.008 -0.3073  0.1891  0.2634
 5512SOL    HW221820   2.675   5.346   2.091 -2.4028  0.2378  1.0389
 5512SOL    HW321821   2.675   5.218   2.010 -0.9190  0.0080  1.3663
 5512SOL    MW421822   2.653   5.302   2.019 -0.6645  0.1716  0.5112
 5513SOL     OW21823   2.237   5.498   2.198  0.2767 -0.6681  0.2241
 5513SOL    HW221824   2.229   5.425   2.260  1.7053 -1.1530 -0.1071
 5513SOL    HW321825   2.291   5.463   2.127  0.9120  0.6806  0.0083
 5513SOL    MW421826   2.243   5.484   2.197  0.5490 -0.5541  0.1519
 5514SOL     OW21827   5.293   4.500   1.111  0.2153  0.2932 -0.2001
 5514SOL    HW221828   5.246   4.562   1.056 -1.5023 -0.4306  0.3857
 5514SOL    HW321829   5.227   4.437   1.138  1.3454 -0.2579  1.4374
 5514SOL    MW421830   5.278   4.500   1.107  0.1378  0.1250  0.0933
 5515SOL     OW21831   0.223   4.770   1.402 -0.3052 -0.3943 -0.0540
 5515SOL    HW221832   0.221   4.737   1.492  0.7916 -0.3932 -0.0177
 5515SOL    HW321833   0.294   4.834   1.401  1.7340 -2.4917 -1.5937
 5515SOL    MW421834   0.232   4.774   1.414  0.1086 -0.6709 -0.2524
 5516SOL     OW21835   1.876   0.875   4.904  0.4606  1.0579 -0.3823
 5516SOL    HW221836   1.874   0.901   4.812  0.9681  0.2542 -0.6369
 5516SOL    HW321837   1.954   0.819   4.911 -0.5549 -0.3578  0.1127
 5516SOL    MW421838   1.886   0.871   4.893  0.3936  0.7651 -0.3506
 5517SOL     OW21839   5.624   3.476   2.199  0.4776  0.5134  0.3822
 5517SOL    HW221840   5.654   3.465   2.289 -1.9698 -0.6157  1.1610
 5517SOL    HW321841   5.636   3.390   2.159 -0.3421  0.4257  0.2991
 5517SOL    MW421842   5.629   3.463   2.206  0.0466  0.3528  0.4740
 5518SOL     OW21843   0.487   1.426   4.514 -0.0004  0.1183 -0.4359
 5518SOL    HW221844   0.547   1.500   4.510  0.8609 -0.5767 -0.4902
 5518SOL    HW321845   0.478   1.407   4.608 -0.0589  0.1589 -0.4330
 5518SOL    MW421846   0.493   1.433   4.526  0.1055  0.0320 -0.4427
 5519SOL     OW21847   5.983   3.559   6.320  0.0774 -0.3454  0.1657
 5519SOL    HW221848   5.911   3.558   6.384  0.0211 -0.1354  0.1072
 5519SOL    HW321849   6.013   3.468   6.317  0.4991 -0.2427  0.9627
 5519SOL    MW421850   5.977   3.547   6.328  0.1256 -0.3041  0.2631
 5520SOL     OW21851   2.723   4.837   2.851 -0.0200  0.5983  0.0019
 5520SOL    HW221852   2.753   4.927   2.852 -0.2546  0.6767  0.7282
 5520SOL    HW321853   2.753   4.802   2.767  1.6454  0.8162  0.4708
 5520SOL    MW421854   2.731   4.844   2.840  0.1688  0.6374  0.1596
 5521SOL     OW21855   1.172   4.782   3.713  0.3787  0.3876 -0.4978
 5521SOL    HW221856   1.230   4.770   3.637  1.7224 -1.8478  0.7783
 5521SOL    HW321857   1.161   4.877   3.720  0.9865  0.7042 -2.8899
 5521SOL    MW421858   1.178   4.793   3.704  0.6362  0.1345 -0.6451
 5522SOL     OW21859   5.456   1.895   2.910 -0.4840 -0.0672 -0.2665
 5522SOL    HW221860   5.497   1.867   2.828 -0.2531  0.2924 -0.2787
 5522SOL    HW321861   5.452   1.816   2.963 -0.1807 -0.2025 -0.4401
 5522SOL    MW421862   5.461   1.881   2.906 -0.4135 -0.0376 -0.2910
 5523SOL     OW21863   0.009   2.243   2.652  0.3392 -0.1379 -0.2500
 5523SOL    HW221864  -0.053   2.241   2.725  1.7994 -0.3291  1.0275
 5523SOL    HW321865  -0.043   2.274   2.578 -0.6948  2.2533  1.3523
 5523SOL    MW421866  -0.006   2.247   2.652  0.3954  0.1524  0.1299
 5524SOL     OW21867   5.516   0.344   2.928 -0.9118 -0.0420 -0.0736
 5524SOL    HW221868   5.607   0.371   2.932 -0.2970 -2.0372  0.2808
 5524SOL    HW321869   5.466   0.425   2.937  0.8061  0.8913  1.6372
 5524SOL    MW421870   5.521   0.358   2.930 -0.6040 -0.1821  0.1989
 5525SOL     OW21871   0.769   0.392   2.719 -0.2982  0.1874 -0.3066
 5525SOL    HW221872   0.724   0.475   2.704  0.6317  0.3631 -2.4567
 5525SOL    HW321873   0.850   0.416   2.765  0.3916  0.6351 -1.6899
 5525SOL    MW421874   0.774   0.406   2.724 -0.0845  0.2697 -0.7728
 5526SOL     OW21875   2.886   3.866   4.317  0.0859 -0.1273  0.0150
 5526SOL    HW221876   2.875   3.772   4.329 -0.6316 -0.2936 -1.6392
 5526SOL    HW321877   2.798   3.899   4.300  0.4131  0.7264 -0.0828
 5526SOL    MW421878   2.873   3.858   4.316  0.0344 -0.0366 -0.2162
 5527SOL     OW21879   2.201   5.150   2.090 -0.2308 -0.7837 -0.4425
 5527SOL    HW221880   2.109   5.172   2.108  0.4434  0.9317  1.2958
 5527SOL    HW321881   2.222   5.080   2.152 -0.0817 -0.4216 -0.0801
 5527SOL    MW421882   2.192   5.144   2.101 -0.1222 -0.5096 -0.1654
 5528SOL     OW21883   3.011   6.398   2.340  0.2293  0.0825 -0.5353
 5528SOL    HW221884   3.016   6.437   2.428  0.2945  0.8550 -0.8756
 5528SOL    HW321885   2.918   6.394   2.321 -0.0256 -2.8545  0.7568
 5528SOL    MW421886   3.000   6.403   2.349  0.2042 -0.2031 -0.4097
 5529SOL     OW21887   4.131   3.177   6.076 -0.2521  0.0399 -0.5783
 5529SOL    HW221888   4.123   3.272   6.065  0.3770 -0.1011 -2.6191
 5529SOL    HW321889   4.084   3.158   6.158  2.4790  2.5301  1.8040
 5529SOL    MW421890   4.124   3.187   6.086  0.1913  0.3499 -0.5333
 5530SOL     OW21891   4.170   5.416   3.901  0.4320  0.0211  0.0530
 5530SOL    HW221892   4.078   5.389   3.902  0.4373 -0.0063 -0.2708
 5530SOL    HW321893   4.189   5.437   3.993 -0.6506  2.5702 -0.2383
 5530SOL    MW421894   4.160   5.415   3.913  0.2899  0.3538 -0.0281
 5531SOL     OW21895   4.071   2.168   4.552  0.7957 -0.6537 -0.3741
 5531SOL    HW221896   4.022   2.099   4.597 -0.1415  0.1405 -0.1448
 5531SOL    HW321897   4.008   2.240   4.544  2.0774  0.5874  0.3664
 5531SOL    MW421898   4.056   2.168   4.557  0.8411 -0.3852 -0.2462
 5532SOL     OW21899   1.025   3.919   0.446 -0.5621  0.2282 -0.1301
 5532SOL    HW221900   0.941   3.934   0.488  0.6094  0.3043  2.3657
 5532SOL    HW321901   1.071   3.859   0.505  0.5453 -1.1427 -2.2560
 5532SOL    MW421902   1.020   3.913   0.459 -0.2614  0.0574 -0.0813
 5533SOL     OW21903   0.190   2.188   2.239 -0.3233 -0.1265  0.1174
 5533SOL    HW221904   0.273   2.214   2.278 -0.1364 -1.4430  0.6502
 5533SOL    HW321905   0.175   2.099   2.271 -1.6953 -0.0988 -0.3688
 5533SOL    MW421906   0.199   2.180   2.248 -0.4796 -0.2966  0.1235
 5534SOL     OW21907   5.893   2.583   0.440  0.2262 -0.2771  0.2274
 5534SOL    HW221908   5.966   2.528   0.470  0.4249 -0.4175 -0.4951
 5534SOL    HW321909   5.886   2.564   0.347  0.1959  0.8198  0.0039
 5534SOL    MW421910   5.902   2.573   0.432  0.2484 -0.1509  0.1026
 5535SOL     OW21911   3.996   4.322   1.403  0.1086  0.2313 -0.3369
 5535SOL    HW221912   3.914   4.359   1.370  0.8821  1.5019 -0.9096
 5535SOL    HW321913   3.981   4.309   1.497 -0.2559  1.9102 -0.1372
 5535SOL    MW421914   3.983   4.325   1.411  0.1625  0.6204 -0.3861
 5536SOL     OW21915   2.217   2.204   2.895 -0.3450  0.1826  0.2633
 5536SOL    HW221916   2.229   2.140   2.825  0.8209  0.3236  0.3167
 5536SOL    HW321917   2.283   2.272   2.877 -0.1682  0.3235  1.3712
 5536SOL    MW421918   2.227   2.204   2.884 -0.1678  0.2198  0.4166
 5537SOL     OW21919   1.198   5.283   3.600 -0.4911 -0.5966  0.1599
 5537SOL    HW221920   1.183   5.286   3.506 -2.0049  1.4216  0.4242
 5537SOL    HW321921   1.291   5.261   3.608  0.2230  1.3564 -1.8514
 5537SOL    MW421922   1.209   5.280   3.589 -0.5966 -0.0727 -0.0706
 5538SOL     OW21923   3.615   2.274   4.381  0.4645 -0.5223  0.2686
 5538SOL    HW221924   3.528   2.244   4.406 -0.4892  2.8554  1.5321
 5538SOL    HW321925   3.675   2.216   4.427 -1.2036 -0.6540  2.4374
 5538SOL    MW421926   3.612   2.263   4.390  0.1186 -0.0941  0.7214
 5539SOL     OW21927   5.809   3.429   6.040  0.1492 -0.3915 -0.0413
 5539SOL    HW221928   5.757   3.451   5.962  1.4146  0.7089 -0.6158
 5539SOL    HW321929   5.889   3.391   6.005  1.6934  2.1053  0.5695
 5539SOL    MW421930   5.812   3.427   6.025  0.5199  0.0831 -0.0365
 5540SOL     OW21931   3.127   0.734   5.041 -0.1302 -0.3455  0.0314
 5540SOL    HW221932   3.065   0.722   5.113  0.0156 -0.3380  0.1581
 5540SOL    HW321933   3.161   0.823   5.054  0.9970 -0.8687  0.8135
 5540SOL    MW421934   3.123   0.744   5.053  0.0378 -0.4136  0.1513
 5541SOL     OW21935   4.748   2.123   4.034  0.1653 -0.1011  0.1290
 5541SOL    HW221936   4.702   2.157   3.958  0.2527 -0.2888 -0.0107
 5541SOL    HW321937   4.714   2.173   4.108 -1.8803 -1.6884  0.3629
 5541SOL    MW421938   4.738   2.134   4.034 -0.0931 -0.3353  0.1414
 5542SOL     OW21939   4.282   5.213   4.185  0.6412  0.2462  0.2962
 5542SOL    HW221940   4.245   5.301   4.181  1.0050  0.8324  4.8440
 5542SOL    HW321941   4.369   5.222   4.147 -0.0311  1.2646 -1.1406
 5542SOL    MW421942   4.288   5.226   4.179  0.6005  0.4579  0.7067
 5543SOL     OW21943   4.740   0.768   5.013 -0.1230 -0.1689 -0.1779
 5543SOL    HW221944   4.686   0.840   5.045 -1.6699 -1.2987 -0.1317
 5543SOL    HW321945   4.771   0.796   4.927 -1.9425 -0.0315 -0.8151
 5543SOL    MW421946   4.737   0.781   5.006 -0.5672 -0.2999 -0.2558
 5544SOL     OW21947   3.384   0.500   6.224  0.9541 -0.0516 -0.2039
 5544SOL    HW221948   3.400   0.592   6.203 -3.2493  0.8124 -0.6041
 5544SOL    HW321949   3.369   0.458   6.140 -2.1486  0.2282  0.0647
 5544SOL    MW421950   3.384   0.506   6.210 -0.0099  0.0993 -0.2213
 5545SOL     OW21951   1.603   0.750   3.840 -0.1193  0.4517 -0.1033
 5545SOL    HW221952   1.542   0.716   3.775 -0.1251 -1.0891  0.6630
 5545SOL    HW321953   1.555   0.819   3.886  0.2198  2.3068 -2.3397
 5545SOL    MW421954   1.589   0.755   3.837 -0.0753  0.4932 -0.2972
 5546SOL     OW21955   0.352   0.498   1.920  0.1175 -0.0987 -0.1524
 5546SOL    HW221956   0.357   0.496   1.825  1.3932  1.3995 -0.1533
 5546SOL    HW321957   0.262   0.525   1.939  0.7345  3.0568 -1.0765
 5546SOL    MW421958   0.341   0.501   1.910  0.3672  0.5153 -0.2744
 5547SOL     OW21959   6.083   5.928   3.369 -0.2119 -0.1535  0.4036
 5547SOL    HW221960   6.057   5.851   3.419 -0.8581  0.0722  0.4218
 5547SOL    HW321961   6.137   5.979   3.431 -0.7065 -0.0517  0.7590
 5547SOL    MW421962   6.087   5.924   3.384 -0.3624 -0.1103  0.4529
 5548SOL     OW21963   5.670   3.655   0.997  0.1116  0.2738  0.3644
 5548SOL    HW221964   5.664   3.580   1.056 -1.2611 -1.7786 -2.1533
 5548SOL    HW321965   5.759   3.650   0.961 -0.6074 -1.5935 -1.3733
 5548SOL    MW421966   5.681   3.645   1.000 -0.1644 -0.2434 -0.1971
 5549SOL     OW21967   1.544   0.765   0.355 -0.8470 -0.3651  0.3171
 5549SOL    HW221968   1.577   0.854   0.366 -4.0882  0.8929  1.0241
 5549SOL    HW321969   1.551   0.748   0.262  0.9970  0.0625  0.3301
 5549SOL    MW421970   1.550   0.775   0.344 -1.0313 -0.1427  0.4121
 5550SOL     OW21971   4.148   5.333   5.566  1.1779  0.2361  0.2759
 5550SOL    HW221972   4.118   5.390   5.495 -0.3188 -0.0868  0.6144
 5550SOL    HW321973   4.130   5.382   5.646  0.5052 -0.4193  0.5371
 5550SOL    MW421974   4.142   5.347   5.567  0.8917  0.1070  0.3550
 5551SOL     OW21975   1.223   2.095   4.227 -0.2818  0.0760  0.5178
 5551SOL    HW221976   1.222   2.166   4.164 -2.5197 -0.1613  0.2037
 5551SOL    HW321977   1.310   2.100   4.268  0.2632  1.8326 -0.7395
 5551SOL    MW421978   1.235   2.105   4.224 -0.5051  0.2764  0.3105
 5552SOL     OW21979   2.894   5.507   4.666  0.2943  0.0344 -0.1060
 5552SOL    HW221980   2.961   5.440   4.681 -1.5537 -1.5940  1.3755
 5552SOL    HW321981   2.919   5.547   4.582  0.9706 -3.2058 -1.6048
 5552SOL    MW421982   2.906   5.504   4.657  0.1397 -0.6079 -0.1083
 5553SOL     OW21983   0.443   4.450   1.352  0.0799  0.4294  0.2740
 5553SOL    HW221984   0.369   4.422   1.406  0.3209  0.2501  0.5193
 5553SOL    HW321985   0.457   4.541   1.375  0.5633  0.1864  0.9684
 5553SOL    MW421986   0.435   4.458   1.362  0.1754  0.3737  0.3980
 5554SOL     OW21987   6.189   1.925   4.661  0.1755  0.2469  0.2540
 5554SOL    HW221988   6.209   1.881   4.744  2.0498  0.5330 -0.0028
 5554SOL    HW321989   6.168   1.854   4.601 -0.1009 -0.0488  0.6928
 5554SOL    MW421990   6.189   1.910   4.664  0.3863  0.2457  0.2780
 5555SOL     OW21991   2.125   1.397   6.007  0.4734  0.4418 -0.2812
 5555SOL    HW221992   2.147   1.330   5.943 -0.6668 -0.8775  0.6561
 5555SOL    HW321993   2.182   1.471   5.985  0.9673 -0.4166 -2.0275
 5555SOL    MW421994   2.136   1.398   5.996  0.3881  0.1544 -0.3879
 5556SOL     OW21995   4.027   4.085   2.351 -0.0909 -0.4210  0.1289
 5556SOL    HW221996   3.955   4.086   2.413  0.0938  0.8551  0.3554
 5556SOL    HW321997   4.106   4.088   2.406  0.2111 -2.8561 -0.0711
 5556SOL    MW421998   4.028   4.085   2.366 -0.0267 -0.5739  0.1324
 5557SOL     OW21999   2.099   0.412   5.683 -0.5461 -0.5760  0.0320
 5557SOL    HW222000   2.049   0.346   5.730 -1.1454 -0.2109 -0.0764
 5557SOL    HW322001   2.180   0.422   5.733 -0.7860 -0.8347  0.4761
 5557SOL    MW422002   2.103   0.405   5.695 -0.6568 -0.5620  0.0763
 5558SOL     OW22003   4.577   1.519   1.778  0.1729  0.2398  0.1148
 5558SOL    HW222004   4.505   1.474   1.734  0.9874  0.8139 -1.9334
 5558SOL    HW322005   4.534   1.576   1.842 -1.1457  0.0096 -0.5214
 5558SOL    MW422006   4.562   1.521   1.781  0.1064  0.2852 -0.2393
 5559SOL     OW22007   2.498   4.010   3.922  0.1230 -0.0848 -0.3811
 5559SOL    HW222008   2.459   3.952   3.987  0.6967 -1.3090 -1.1089
 5559SOL    HW322009   2.592   4.008   3.941  0.3237 -0.6303 -1.3813
 5559SOL    MW422010   2.505   4.002   3.934  0.2252 -0.3183 -0.6091
 5560SOL     OW22011   0.207   5.688   3.221 -0.2041 -1.0777 -0.4884
 5560SOL    HW222012   0.214   5.734   3.138  0.8327  1.9844  1.1258
 5560SOL    HW322013   0.129   5.725   3.262  1.8825  1.1773  1.8027
 5560SOL    MW422014   0.198   5.699   3.216  0.2080 -0.3762  0.0269
 5561SOL     OW22015   1.252   0.112   3.575  0.2112 -0.1618  0.5086
 5561SOL    HW222016   1.310   0.177   3.536  1.1671 -0.0236  2.0999
 5561SOL    HW322017   1.281   0.105   3.666 -1.0150 -1.5297  0.8274
 5561SOL    MW422018   1.263   0.120   3.582  0.1755 -0.3241  0.7606
 5562SOL     OW22019   4.847   3.833   2.544  0.8091  0.5895 -0.2522
 5562SOL    HW222020   4.799   3.851   2.464  1.3847 -1.6613 -1.1913
 5562SOL    HW322021   4.841   3.738   2.555  1.7186  0.7060  1.7486
 5562SOL    MW422022   4.840   3.823   2.535  1.0050  0.3079 -0.1121
 5563SOL     OW22023   5.764   4.792   4.916 -0.0010 -0.0276 -0.5475
 5563SOL    HW222024   5.785   4.838   4.997  0.3084 -1.3433  0.1470
 5563SOL    HW322025   5.684   4.834   4.885 -0.2085  0.4012  0.5011
 5563SOL    MW422026   5.756   4.804   4.923  0.0124 -0.1446 -0.3175
 5564SOL     OW22027   1.705   5.912   0.872 -0.2420  0.0996 -0.7478
 5564SOL    HW222028   1.635   5.976   0.864  0.7906  1.4695  0.5865
 5564SOL    HW322029   1.751   5.937   0.952  0.3801 -2.1629 -0.3394
 5564SOL    MW422030   1.702   5.924   0.881 -0.0237 -0.0182 -0.5179
 5565SOL     OW22031   5.168   2.787   5.912  0.0330  0.7537 -0.1236
 5565SOL    HW222032   5.156   2.698   5.878  0.9275  0.8096 -0.6117
 5565SOL    HW322033   5.090   2.803   5.965  0.7770 -1.0494  1.6091
 5565SOL    MW422034   5.156   2.777   5.914  0.2492  0.5232  0.0406
 5566SOL     OW22035   5.326   2.275   3.149  0.2001 -0.3102  0.3910
 5566SOL    HW222036   5.282   2.359   3.141  1.0219  0.0070 -1.3331
 5566SOL    HW322037   5.257   2.213   3.171 -0.6762  0.5614  0.1607
 5566SOL    MW422038   5.311   2.278   3.151  0.1929 -0.1533  0.1331
 5567SOL     OW22039   0.346   0.493   4.602 -0.2870 -0.2138  0.2317
 5567SOL    HW222040   0.267   0.460   4.559  0.9453 -1.3109 -1.3397
 5567SOL    HW322041   0.375   0.420   4.657  0.4508 -0.3973 -0.3934
 5567SOL    MW422042   0.339   0.479   4.603 -0.0271 -0.3828 -0.0581
 5568SOL     OW22043   6.023   5.817   5.617 -0.3240 -0.3594  0.1919
 5568SOL    HW222044   5.957   5.814   5.547  0.0290 -0.6764 -0.1325
 5568SOL    HW322045   6.083   5.746   5.595  0.2357  0.0572  0.3745
 5568SOL    MW422046   6.022   5.808   5.605 -0.2036 -0.3462  0.1732
 5569SOL     OW22047   3.603   4.586   5.075  0.1123 -0.6529 -0.3478
 5569SOL    HW222048   3.620   4.522   5.144  1.5410 -1.8226 -1.7058
 5569SOL    HW322049   3.546   4.541   5.013 -1.9372  0.7071  0.4566
 5569SOL    MW422050   3.598   4.572   5.076  0.0304 -0.6278 -0.4208
 5570SOL     OW22051   6.405   0.234   1.489  0.6669 -0.1292 -0.2945
 5570SOL    HW222052   6.408   0.167   1.421  1.6404  0.2263 -0.6173
 5570SOL    HW322053   6.414   0.185   1.571 -1.7745 -0.6895 -0.2794
 5570SOL    MW422054   6.406   0.219   1.491  0.4732 -0.1562 -0.3351
 5571SOL     OW22055   4.665   1.118   3.468  0.0153  0.5059 -0.6687
 5571SOL    HW222056   4.713   1.139   3.549 -0.6852  1.8736 -0.5678
 5571SOL    HW322057   4.573   1.136   3.490 -0.8261 -3.2641 -0.4542
 5571SOL    MW422058   4.659   1.124   3.482 -0.1882  0.1889 -0.6271
 5572SOL     OW22059   3.403   3.935   2.193  0.3520 -0.1108  0.0938
 5572SOL    HW222060   3.487   3.896   2.217  0.4475  0.5502  0.8664
 5572SOL    HW322061   3.351   3.933   2.274  0.4653  1.5996  0.2356
 5572SOL    MW422062   3.407   3.930   2.207  0.3796  0.2021  0.2144
 5573SOL     OW22063   2.794   3.045   1.316 -0.3268 -0.2549  0.2641
 5573SOL    HW222064   2.831   3.118   1.365 -1.6398  0.1332  0.7111
 5573SOL    HW322065   2.798   2.971   1.376  1.9642 -0.8703 -0.5391
 5573SOL    MW422066   2.799   3.045   1.330 -0.1977 -0.2849  0.2171
 5574SOL     OW22067   1.344   4.506   0.038 -0.0991 -0.2157 -0.2548
 5574SOL    HW222068   1.298   4.446   0.098  1.5520 -2.2603 -0.9365
 5574SOL    HW322069   1.391   4.566   0.096 -0.4103 -0.6504  0.4618
 5574SOL    MW422070   1.344   4.506   0.054  0.0777 -0.5428 -0.2502
 5575SOL     OW22071   5.971   4.674   5.713 -0.0809  0.4735  0.0899
 5575SOL    HW222072   5.948   4.766   5.727 -1.5301 -0.1364  2.0259
 5575SOL    HW322073   6.066   4.670   5.729 -0.2699  1.3718  1.5924
 5575SOL    MW422074   5.981   4.686   5.717 -0.2970  0.5116  0.5436
 5576SOL     OW22075   5.142   0.663   3.153 -0.1858 -0.3524  0.3980
 5576SOL    HW222076   5.159   0.582   3.104  1.8407 -0.3232  0.9678
 5576SOL    HW322077   5.185   0.649   3.237 -0.2809  1.1137  0.7040
 5576SOL    MW422078   5.150   0.650   3.157  0.0690 -0.1551  0.5136
 5577SOL     OW22079   2.312   1.975   0.948 -0.4387 -0.3273  0.5978
 5577SOL    HW222080   2.392   1.947   0.992  0.8249  0.6785 -0.9736
 5577SOL    HW322081   2.317   1.935   0.861 -0.4582  1.6293 -0.3476
 5577SOL    MW422082   2.323   1.966   0.942 -0.2745  0.0635  0.2658
 5578SOL     OW22083   5.501   0.249   3.285  0.1568 -0.6175 -0.3197
 5578SOL    HW222084   5.488   0.183   3.353 -0.9343 -1.6385 -1.4523
 5578SOL    HW322085   5.496   0.200   3.203  0.1652  0.7573 -1.1755
 5578SOL    MW422086   5.498   0.234   3.283  0.0140 -0.5708 -0.5820
 5579SOL     OW22087   1.709   2.622   6.115 -0.1496 -0.3194 -0.3572
 5579SOL    HW222088   1.647   2.613   6.188 -0.4492 -0.8446 -0.6716
 5579SOL    HW322089   1.686   2.551   6.056  0.1660  0.0394 -0.9117
 5579SOL    MW422090   1.697   2.611   6.117 -0.1475 -0.3413 -0.4718
 5580SOL     OW22091   4.710   0.445   3.391  0.0778 -0.4563 -0.0691
 5580SOL    HW222092   4.665   0.510   3.445 -1.2091 -1.5077  0.1581
 5580SOL    HW322093   4.668   0.453   3.305 -0.1301 -1.0432 -0.0208
 5580SOL    MW422094   4.699   0.455   3.387 -0.1194 -0.6724 -0.0327
 5581SOL     OW22095   3.250   0.905   5.550  0.2069  0.2399 -0.2959
 5581SOL    HW222096   3.275   0.923   5.641  0.6516 -1.7748  0.0391
 5581SOL    HW322097   3.332   0.907   5.502  0.6484 -2.7002  0.1390
 5581SOL    MW422098   3.264   0.907   5.556  0.3238 -0.4138 -0.1943
 5582SOL     OW22099   3.032   5.713   5.705 -0.2011  0.1577  0.6348
 5582SOL    HW222100   2.975   5.636   5.705  1.1473 -0.8790 -0.3588
 5582SOL    HW322101   2.990   5.773   5.643  0.3039 -1.0287 -0.9096
 5582SOL    MW422102   3.019   5.711   5.697  0.0434 -0.1356  0.2999
 5583SOL     OW22103   3.468   2.771   2.569 -0.3479 -0.0903  0.4053
 5583SOL    HW222104   3.556   2.732   2.568 -0.2776  0.0019  1.5808
 5583SOL    HW322105   3.417   2.712   2.625 -0.9427  0.0621  0.0278
 5583SOL    MW422106   3.473   2.758   2.577 -0.4171 -0.0580  0.5106
 5584SOL     OW22107   6.356   0.805   5.542 -0.3677 -0.1924  0.2787
 5584SOL    HW222108   6.278   0.860   5.538  0.0843  0.4284 -0.4125
 5584SOL    HW322109   6.429   0.867   5.534  0.1681 -0.8330  0.1527
 5584SOL    MW422110   6.355   0.821   5.540 -0.2374 -0.1950  0.1709
 5585SOL     OW22111   6.357   4.675   4.348  0.0238 -0.3464  0.4222
 5585SOL    HW222112   6.264   4.686   4.371 -0.6316 -2.2030 -1.0503
 5585SOL    HW322113   6.401   4.662   4.432 -0.8615  1.5289  1.2309
 5585SOL    MW422114   6.350   4.675   4.362 -0.1795 -0.3439  0.3346
 5586SOL     OW22115   0.102   0.718   0.187 -0.3583 -0.1324  0.4473
 5586SOL    HW222116   0.168   0.682   0.246 -0.5376 -0.5734  0.3778
 5586SOL    HW322117   0.078   0.802   0.227 -1.1155 -0.8098  1.4976
 5586SOL    MW422118   0.107   0.725   0.200 -0.4819 -0.2800  0.5767
 5587SOL     OW22119   4.210   2.245   2.134  0.0670  0.0995 -0.3306
 5587SOL    HW222120   4.292   2.218   2.093  0.0133 -0.3114 -0.1735
 5587SOL    HW322121   4.166   2.163   2.155 -0.0651  0.3079  0.2241
 5587SOL    MW422122   4.215   2.230   2.131  0.0425  0.0728 -0.2367
 5588SOL     OW22123   1.647   0.396   6.014 -0.6307  0.1563 -0.0002
 5588SOL    HW222124   1.615   0.395   6.104  0.4164 -0.2805  0.3795
 5588SOL    HW322125   1.678   0.307   5.999 -3.4355 -0.6442 -1.7994
 5588SOL    MW422126   1.647   0.384   6.024 -0.8626 -0.0069 -0.1875
 5589SOL     OW22127   3.848   3.665   2.603 -0.0735 -0.6626 -0.5515
 5589SOL    HW222128   3.881   3.641   2.690  2.0250  0.3284 -1.0106
 5589SOL    HW322129   3.806   3.585   2.571 -0.3492 -1.2213  1.1154
 5589SOL    MW422130   3.847   3.651   2.610  0.1670 -0.6056 -0.3921
 5590SOL     OW22131   0.092   5.151   2.175  0.2462 -0.0530 -0.0874
 5590SOL    HW222132   0.186   5.141   2.192  0.1479 -0.3273  0.3188
 5590SOL    HW322133   0.055   5.065   2.194 -0.0392 -0.0415 -0.5891
 5590SOL    MW422134   0.100   5.139   2.180  0.1955 -0.0877 -0.1000
 5591SOL     OW22135   1.560   1.054   4.583  0.6492 -0.1038  0.3465
 5591SOL    HW222136   1.567   1.093   4.670  0.8029  0.8955 -0.1050
 5591SOL    HW322137   1.519   1.121   4.530  1.8028 -0.1729 -0.6786
 5591SOL    MW422138   1.556   1.068   4.588  0.8216  0.0189  0.1517
 5592SOL     OW22139   5.838   2.376   4.001 -0.1552  0.3317 -0.4358
 5592SOL    HW222140   5.867   2.354   3.913 -0.0362 -1.1122 -0.0538
 5592SOL    HW322141   5.897   2.446   4.030  0.0141  0.5803 -1.3642
 5592SOL    MW422142   5.849   2.383   3.993 -0.1172  0.1740 -0.5079
 5593SOL     OW22143   1.885   0.555   0.257 -0.0385 -0.0251 -0.6348
 5593SOL    HW222144   1.967   0.514   0.287  1.5222  3.0836 -0.2884
 5593SOL    HW322145   1.854   0.604   0.333 -0.1693  1.8374 -1.8473
 5593SOL    MW422146   1.892   0.556   0.271  0.1501  0.6308 -0.7490
 5594SOL     OW22147   3.918   1.049   2.640  0.2164  0.2321 -0.2622
 5594SOL    HW222148   3.841   1.035   2.695 -0.9601  1.0245 -1.6301
 5594SOL    HW322149   3.992   1.022   2.695 -1.1309 -2.3788  0.4509
 5594SOL    MW422150   3.918   1.043   2.655 -0.1166 -0.0078 -0.3486
 5595SOL     OW22151   3.478   5.354   4.457 -0.1369 -0.4202  0.0165
 5595SOL    HW222152   3.440   5.328   4.540 -1.2807 -0.2424 -0.4415
 5595SOL    HW322153   3.515   5.441   4.473  0.5437 -0.8029  0.5888
 5595SOL    MW422154   3.478   5.362   4.470 -0.1980 -0.4472  0.0316
 5596SOL     OW22155   3.104   1.772   5.447 -0.1052 -0.3214 -0.0718
 5596SOL    HW222156   3.145   1.858   5.460 -0.6312 -0.1306  0.3577
 5596SOL    HW322157   3.012   1.791   5.432 -0.1784 -0.7985 -0.2405
 5596SOL    MW422158   3.097   1.786   5.447 -0.1843 -0.3592 -0.0374
 5597SOL     OW22159   4.663   1.852   3.748 -0.6643  0.3572  0.2876
 5597SOL    HW222160   4.705   1.936   3.728  0.7518 -0.5009 -0.5895
 5597SOL    HW322161   4.682   1.836   3.841 -0.7845  0.9131  0.4079
 5597SOL    MW422162   4.671   1.861   3.758 -0.4933  0.3174  0.1878
 5598SOL     OW22163   5.242   2.054   1.359  0.1488 -0.0380  0.1560
 5598SOL    HW222164   5.285   1.998   1.423 -1.0046 -1.0761  0.0766
 5598SOL    HW322165   5.301   2.056   1.284 -0.2246 -2.0490 -0.2441
 5598SOL    MW422166   5.255   2.047   1.357 -0.0527 -0.4403  0.0928
 5599SOL     OW22167   0.047   2.322   0.716 -0.0318  0.1685 -0.2477
 5599SOL    HW222168   0.080   2.252   0.660 -0.4645  0.4152 -0.8237
 5599SOL    HW322169   0.084   2.402   0.679 -1.3498  0.4626 -0.9830
 5599SOL    MW422170   0.056   2.323   0.704 -0.2628  0.2399 -0.4207
 5600SOL     OW22171   3.106   6.114   5.838 -0.2871 -0.2602 -0.0794
 5600SOL    HW222172   3.176   6.048   5.849  0.6359  0.9493  2.1025
 5600SOL    HW322173   3.048   6.099   5.913 -1.6099 -0.3070 -1.0787
 5600SOL    MW422174   3.108   6.103   5.850 -0.3398 -0.1068  0.0766
 5601SOL     OW22175   1.759   1.034   5.597  0.2362  0.2715 -0.7986
 5601SOL    HW222176   1.673   1.067   5.569  0.0923 -0.2072 -0.9188
 5601SOL    HW322177   1.789   1.099   5.660  0.7291  1.5685 -2.3046
 5601SOL    MW422178   1.751   1.047   5.601  0.2823  0.3794 -1.0132
 5602SOL     OW22179   1.109   1.669   0.582  0.2661 -0.1911 -0.3280
 5602SOL    HW222180   1.079   1.666   0.491  0.2087 -0.6492 -0.2961
 5602SOL    HW322181   1.118   1.762   0.602 -1.3091 -0.0227 -0.2858
 5602SOL    MW422182   1.106   1.681   0.573  0.0507 -0.2293 -0.3182
 5603SOL     OW22183   4.612   6.444   6.073  0.2679  0.2389  0.4804
 5603SOL    HW222184   4.565   6.469   5.994  2.1336  2.4693 -0.0392
 5603SOL    HW322185   4.544   6.437   6.140 -0.9886  1.9010 -0.5298
 5603SOL    MW422186   4.597   6.447   6.072  0.3483  0.7525  0.2786
 5604SOL     OW22187   2.408   4.740   2.224  0.0392  0.6260  0.2817
 5604SOL    HW222188   2.401   4.670   2.160  0.8973  0.0897  0.7698
 5604SOL    HW322189   2.361   4.708   2.301 -1.0220  1.2837 -0.0674
 5604SOL    MW422190   2.401   4.727   2.226  0.0124  0.6420  0.3000
 5605SOL     OW22191   4.853   2.184   0.836  0.9206 -0.9257  0.1358
 5605SOL    HW222192   4.933   2.187   0.784  1.4243 -0.6472  0.9193
 5605SOL    HW322193   4.874   2.231   0.916 -0.5303  0.6371 -0.3296
 5605SOL    MW422194   4.866   2.191   0.840  0.7956 -0.6828  0.1778
 5606SOL     OW22195   0.824   4.898   1.104 -0.0405  0.3102  0.6879
 5606SOL    HW222196   0.787   4.895   1.016 -0.1102 -0.5253  0.7391
 5606SOL    HW322197   0.754   4.937   1.157  0.2962  1.5545  0.2443
 5606SOL    MW422198   0.810   4.903   1.100 -0.0053  0.3641  0.6361
 5607SOL     OW22199   0.705   5.277   1.114  0.4666 -0.3523 -0.3646
 5607SOL    HW222200   0.641   5.300   1.046  1.1079 -0.2504 -0.9458
 5607SOL    HW322201   0.790   5.290   1.072  0.8976  0.5687  0.7547
 5607SOL    MW422202   0.708   5.281   1.099  0.6081 -0.2173 -0.2936
 5608SOL     OW22203   0.533   2.403   5.147  1.0567  0.0802  0.4857
 5608SOL    HW222204   0.546   2.319   5.191  1.4460 -0.3715 -0.4583
 5608SOL    HW322205   0.583   2.465   5.199  0.1803 -0.1261  1.6044
 5608SOL    MW422206   0.541   2.400   5.160  0.9924 -0.0066  0.5087
 5609SOL     OW22207   2.347   5.441   5.154 -0.2871 -0.0781 -0.0366
 5609SOL    HW222208   2.373   5.442   5.246 -1.5681 -0.7669  0.3456
 5609SOL    HW322209   2.324   5.532   5.135 -0.0718  0.0572  0.3426
 5609SOL    MW422210   2.348   5.453   5.164 -0.4277 -0.1511  0.0639
 5610SOL     OW22211   3.477   1.942   4.378 -0.2081 -0.0027 -0.1615
 5610SOL    HW222212   3.462   2.032   4.406  1.9346  0.1963  0.5354
 5610SOL    HW322213   3.425   1.888   4.438  0.5437  0.6590  1.1143
 5610SOL    MW422214   3.468   1.947   4.389  0.1738  0.1109  0.0988
 5611SOL     OW22215   3.852   2.530   5.776 -0.3569  0.0460  0.2055
 5611SOL    HW222216   3.775   2.496   5.730  0.2198 -1.1537  0.0673
 5611SOL    HW322217   3.918   2.539   5.707  0.5892 -1.9869  0.7594
 5611SOL    MW422218   3.851   2.527   5.761 -0.1559 -0.3805  0.2604
 5612SOL     OW22219   2.896   0.637   3.795 -0.3942  0.3158 -0.4874
 5612SOL    HW222220   2.988   0.610   3.799 -0.0554  1.4815  0.5274
 5612SOL    HW322221   2.847   0.557   3.779  0.5910 -0.7785  1.6772
 5612SOL    MW422222   2.902   0.623   3.793 -0.2195  0.3252 -0.0679
 5613SOL     OW22223   3.280   2.193   4.198 -0.1562  0.6922 -0.3521
 5613SOL    HW222224   3.340   2.217   4.128  1.5930 -1.7757  0.1882
 5613SOL    HW322225   3.227   2.122   4.161 -0.3514  0.4907  0.2940
 5613SOL    MW422226   3.281   2.187   4.184  0.0488  0.3400 -0.1956
 5614SOL     OW22227   5.419   5.502   0.530 -0.0571  0.2047 -0.4485
 5614SOL    HW222228   5.347   5.456   0.487 -0.3464 -0.2450  0.5087
 5614SOL    HW322229   5.498   5.474   0.483 -0.3521 -0.4098 -0.5774
 5614SOL    MW422230   5.420   5.492   0.518 -0.1342  0.0643 -0.3392
 5615SOL     OW22231   5.003   1.991   3.961  0.1882 -0.2519  0.4889
 5615SOL    HW222232   4.917   2.024   3.989 -0.8052 -0.0926 -2.3987
 5615SOL    HW322233   5.061   2.067   3.968 -0.3304  0.1261  0.8174
 5615SOL    MW422234   4.999   2.005   3.965 -0.0113 -0.1810  0.1512
 5616SOL     OW22235   0.714   4.760   2.869  0.1026 -0.5667 -0.1322
 5616SOL    HW222236   0.784   4.694   2.864 -0.3236 -1.2953  2.1846
 5616SOL    HW322237   0.637   4.711   2.899 -0.5593  0.7770  0.4405
 5616SOL    MW422238   0.713   4.745   2.872 -0.0409 -0.4856  0.2490
 5617SOL     OW22239   5.215   3.768   4.036  0.4405  0.3601  0.6112
 5617SOL    HW222240   5.147   3.705   4.061 -0.0052  0.1768 -0.9804
 5617SOL    HW322241   5.297   3.724   4.058  0.0885 -0.1488  0.9325
 5617SOL    MW422242   5.217   3.754   4.042  0.3352  0.2688  0.4436
 5618SOL     OW22243   3.144   0.296   3.174 -0.4652  0.3047  0.5361
 5618SOL    HW222244   3.143   0.288   3.078 -0.9852  0.8305  0.4885
 5618SOL    HW322245   3.212   0.360   3.192  1.0013 -1.2098  0.6651
 5618SOL    MW422246   3.153   0.303   3.163 -0.3403  0.1743  0.5468
 5619SOL     OW22247   4.280   0.290   5.634  0.6333 -0.2648 -0.5634
 5619SOL    HW222248   4.304   0.313   5.724  0.0606 -0.2726 -0.4068
 5619SOL    HW322249   4.286   0.373   5.586  0.6422 -0.2015 -0.4544
 5619SOL    MW422250   4.284   0.304   5.640  0.5590 -0.2574 -0.5283
 5620SOL     OW22251   5.769   1.058   4.503  0.5992 -0.5990  0.1430
 5620SOL    HW222252   5.831   0.987   4.491  2.0427  0.7331 -0.6403
 5620SOL    HW322253   5.689   1.029   4.460  1.2604 -1.6172 -0.4260
 5620SOL    MW422254   5.767   1.045   4.496  0.8769 -0.5576 -0.0354
 5621SOL     OW22255   6.137   6.443   3.855 -0.1707 -0.7730  0.1576
 5621SOL    HW222256   6.178   6.530   3.861  0.4358 -1.1340  2.3312
 5621SOL    HW322257   6.202   6.390   3.809 -1.1839  0.1899 -2.6077
 5621SOL    MW422258   6.151   6.448   3.850 -0.2243 -0.6936  0.0796
 5622SOL     OW22259   3.425   2.174   3.237 -0.3833 -0.2233 -0.3436
 5622SOL    HW222260   3.358   2.218   3.185  1.2943  1.2933 -1.3251
 5622SOL    HW322261   3.429   2.223   3.319 -1.1175 -0.9213  0.1258
 5622SOL    MW422262   3.417   2.186   3.241 -0.2588 -0.1153 -0.4111
 5623SOL     OW22263   1.756   0.894   0.941  0.1815 -0.0613  0.2815
 5623SOL    HW222264   1.851   0.891   0.931  0.1137 -1.6677 -0.1085
 5623SOL    HW322265   1.742   0.911   1.034  0.8672 -1.0709  0.5775
 5623SOL    MW422266   1.766   0.896   0.952  0.2630 -0.4064  0.2691
 5624SOL     OW22267   6.396   0.723   3.162  0.2630 -0.2573  0.3992
 5624SOL    HW222268   6.320   0.665   3.157  1.6604 -2.1816  0.3633
 5624SOL    HW322269   6.441   0.696   3.242  2.4405 -1.2335 -1.0571
 5624SOL    MW422270   6.392   0.712   3.172  0.7347 -0.6399  0.2023
 5625SOL     OW22271   4.504   1.686   4.373 -0.3692  0.0622  0.0360
 5625SOL    HW222272   4.470   1.616   4.428 -1.1822 -0.2252 -0.8112
 5625SOL    HW322273   4.579   1.721   4.422 -0.4131 -0.8932  0.8108
 5625SOL    MW422274   4.509   1.681   4.387 -0.4823 -0.1017  0.0264
 5626SOL     OW22275   1.092   2.205   0.266 -0.1669 -0.6105  0.4433
 5626SOL    HW222276   1.093   2.110   0.268  0.0061 -0.6097  0.3443
 5626SOL    HW322277   1.057   2.227   0.180  1.9356 -0.5723 -0.4510
 5626SOL    MW422278   1.087   2.196   0.255  0.1333 -0.6053  0.3122
 5627SOL     OW22279   1.609   0.981   5.358  0.3453 -0.4438 -0.5470
 5627SOL    HW222280   1.579   0.958   5.270 -0.5003  2.5570 -1.1688
 5627SOL    HW322281   1.692   0.935   5.368 -0.0506 -1.7117 -2.4560
 5627SOL    MW422282   1.616   0.972   5.348  0.1815 -0.2151 -0.8809
 5628SOL     OW22283   2.055   2.356   2.680  0.4109  0.2567 -0.4226
 5628SOL    HW222284   2.056   2.427   2.744 -0.3663 -0.0369 -0.0725
 5628SOL    HW322285   2.049   2.276   2.733 -0.4188  0.0175 -0.8623
 5628SOL    MW422286   2.054   2.355   2.696  0.1989  0.1864 -0.4344
 5629SOL     OW22287   2.503   5.427   2.379  0.4037  0.4226 -0.2242
 5629SOL    HW222288   2.409   5.409   2.376  0.0664  1.8297  0.8268
 5629SOL    HW322289   2.515   5.500   2.318  0.1385  2.6742  2.2326
 5629SOL    MW422290   2.492   5.434   2.370  0.3242  0.9053  0.2386
 5630SOL     OW22291   3.037   5.188   5.485  0.2219 -0.5211 -0.3641
 5630SOL    HW222292   3.012   5.122   5.421 -0.0137 -1.4127  0.6168
 5630SOL    HW322293   3.023   5.146   5.570  3.3212 -0.4408  0.3143
 5630SOL    MW422294   3.032   5.174   5.488  0.5997 -0.6282 -0.1452
 5631SOL     OW22295   3.379   1.296   6.221 -0.1745 -0.0025 -0.2053
 5631SOL    HW222296   3.371   1.336   6.307 -1.0652 -1.8693  0.6183
 5631SOL    HW322297   3.455   1.238   6.227 -0.1385 -0.0226 -0.7361
 5631SOL    MW422298   3.388   1.294   6.233 -0.2873 -0.2515 -0.1667
 5632SOL     OW22299   0.055   0.730   3.431  0.0820  0.1057  0.1027
 5632SOL    HW222300  -0.014   0.750   3.494  0.8570 -0.0380  1.0281
 5632SOL    HW322301   0.126   0.789   3.454 -0.8617  2.7573 -2.9977
 5632SOL    MW422302   0.055   0.741   3.442  0.0598  0.4366 -0.1843
 5633SOL     OW22303   4.824   0.653   3.734 -0.6653  0.2530 -0.3880
 5633SOL    HW222304   4.764   0.645   3.660 -3.8521  1.5482  1.8342
 5633SOL    HW322305   4.811   0.743   3.765  1.9560  0.3384  0.7142
 5633SOL    MW422306   4.814   0.664   3.728 -0.7399  0.4351  0.0506
 5634SOL     OW22307   3.903   1.621   2.340  0.3404 -0.0627  0.4506
 5634SOL    HW222308   3.910   1.663   2.426  1.8855 -0.3657  0.5031
 5634SOL    HW322309   3.826   1.565   2.347  0.4506 -0.0884  1.6570
 5634SOL    MW422310   3.894   1.619   2.352  0.5588 -0.1061  0.6167
 5635SOL     OW22311   2.127   5.933   0.439 -0.0476 -0.6290  0.1972
 5635SOL    HW222312   2.152   5.919   0.530 -1.3138  1.0605  0.8434
 5635SOL    HW322313   2.187   6.001   0.408 -1.0216  0.3765  0.4630
 5635SOL    MW422314   2.139   5.940   0.447 -0.3432 -0.2734  0.3176
 5636SOL     OW22315   5.777   5.055   0.759 -0.2868  0.2710 -0.1175
 5636SOL    HW222316   5.712   5.038   0.691  0.2724 -0.0738 -0.5807
 5636SOL    HW322317   5.854   5.004   0.732 -0.1667 -0.1517  0.9648
 5636SOL    MW422318   5.779   5.046   0.746 -0.1972  0.1697 -0.0358
 5637SOL     OW22319   5.637   0.266   5.652 -0.2015  0.3320 -0.3690
 5637SOL    HW222320   5.728   0.239   5.642 -0.7047 -1.1175 -1.2370
 5637SOL    HW322321   5.614   0.307   5.569 -0.4899  0.2568 -0.3303
 5637SOL    MW422322   5.646   0.268   5.640 -0.3059  0.1308 -0.4784
 5638SOL     OW22323   6.026   5.900   5.310 -0.0861  0.3391  0.4781
 5638SOL    HW222324   6.089   5.915   5.380  1.0145  2.0971 -0.7918
 5638SOL    HW322325   6.067   5.938   5.232 -1.8900 -0.2053 -0.8164
 5638SOL    MW422326   6.040   5.907   5.309 -0.1789  0.4992  0.1398
 5639SOL     OW22327   3.656   0.298   5.477 -0.5763  0.3760 -0.1516
 5639SOL    HW222328   3.602   0.269   5.404  0.3665  0.2370 -0.8186
 5639SOL    HW322329   3.607   0.371   5.516 -1.5584 -0.1904 -0.2972
 5639SOL    MW422330   3.643   0.304   5.472 -0.5815  0.2830 -0.2588
 5640SOL     OW22331   0.373   0.780   0.475  0.1603  0.1503  0.2901
 5640SOL    HW222332   0.390   0.859   0.423  0.9898 -0.5796 -0.5945
 5640SOL    HW322333   0.278   0.776   0.484  0.0609  0.7698 -0.4307
 5640SOL    MW422334   0.363   0.790   0.469  0.2566  0.1357  0.0783
 5641SOL     OW22335   2.004   0.199   5.143  0.2567 -0.2340 -0.0278
 5641SOL    HW222336   2.010   0.275   5.084  1.7167 -1.1447 -1.1423
 5641SOL    HW322337   1.954   0.134   5.094  0.4818 -0.5905  0.2096
 5641SOL    MW422338   1.998   0.201   5.128  0.4790 -0.4012 -0.1436
 5642SOL     OW22339   6.040   4.619   2.434  0.1076 -0.3071 -0.1936
 5642SOL    HW222340   5.995   4.549   2.386 -0.8391  0.3548 -0.2863
 5642SOL    HW322341   6.001   4.700   2.401  2.0318  0.3644 -0.9940
 5642SOL    MW422342   6.029   4.620   2.423  0.2366 -0.1312 -0.3114
 5643SOL     OW22343   4.087   0.097   0.638 -0.7555  0.3909  0.2979
 5643SOL    HW222344   4.029   0.160   0.594 -1.4305  0.5966  1.4284
 5643SOL    HW322345   4.029   0.025   0.663 -0.0932 -0.4318 -0.4735
 5643SOL    MW422346   4.071   0.096   0.636 -0.7572  0.3095  0.3453
 5644SOL     OW22347   1.636   1.542   1.564 -0.6437 -0.3486 -0.1336
 5644SOL    HW222348   1.722   1.517   1.597 -1.0574 -2.2068 -0.3451
 5644SOL    HW322349   1.619   1.479   1.493 -0.9182  1.8241 -2.1340
 5644SOL    MW422350   1.645   1.530   1.559 -0.7345 -0.3071 -0.4254
 5645SOL     OW22351   5.677   5.248   2.900  0.2671 -0.3706 -0.0612
 5645SOL    HW222352   5.683   5.335   2.860  0.1532 -0.5787 -0.5464
 5645SOL    HW322353   5.736   5.252   2.975  0.4210  0.0606 -0.1994
 5645SOL    MW422354   5.685   5.260   2.904  0.2724 -0.3412 -0.1434
 5646SOL     OW22355   4.978   1.819   0.120  0.4763  0.2520  0.2293
 5646SOL    HW222356   5.055   1.842   0.172 -0.2822  1.2667  0.9433
 5646SOL    HW322357   5.000   1.845   0.031  1.4654 -0.7296  0.1627
 5646SOL    MW422358   4.991   1.825   0.115  0.5067  0.2564  0.3147
 5647SOL     OW22359   3.714   2.967   0.774  0.6192  0.2954  0.5088
 5647SOL    HW222360   3.670   3.038   0.727  1.4626  0.4793 -0.0178
 5647SOL    HW322361   3.649   2.896   0.778 -0.0627  0.9163  0.6274
 5647SOL    MW422362   3.700   2.967   0.769  0.6405  0.4016  0.4550
 5648SOL     OW22363   5.218   6.270   2.875  0.1612 -0.1312 -0.1066
 5648SOL    HW222364   5.179   6.357   2.873  0.5693  0.1343  1.7394
 5648SOL    HW322365   5.312   6.285   2.879  0.3006 -0.6946 -1.0329
 5648SOL    MW422366   5.225   6.283   2.875  0.2334 -0.1705  0.0148
 5649SOL     OW22367   4.463   2.620   5.095  0.1188  0.1978 -0.3329
 5649SOL    HW222368   4.524   2.685   5.059 -0.7751  1.2830  0.0631
 5649SOL    HW322369   4.439   2.566   5.020 -1.1374  1.9584 -1.2657
 5649SOL    MW422370   4.468   2.621   5.081 -0.1649  0.5733 -0.4037
 5650SOL     OW22371   3.713   2.509   2.822 -0.4456 -0.0720  0.0364
 5650SOL    HW222372   3.631   2.520   2.775  0.0839  4.1525 -0.2999
 5650SOL    HW322373   3.774   2.475   2.757 -0.5360  2.5977 -1.5895
 5650SOL    MW422374   3.711   2.506   2.808 -0.3876  0.8376 -0.2225
 5651SOL     OW22375   3.990   5.694   1.523 -0.0206 -0.2961  1.0717
 5651SOL    HW222376   3.993   5.608   1.565 -0.6680  0.0815  1.9262
 5651SOL    HW322377   4.008   5.755   1.594 -0.4402  0.3232  0.6529
 5651SOL    MW422378   3.993   5.691   1.538 -0.1613 -0.1646  1.1292
 5652SOL     OW22379   4.194   0.087   2.639 -0.0499 -0.2280  0.6939
 5652SOL    HW222380   4.245   0.149   2.691  1.2707  0.0615 -0.8564
 5652SOL    HW322381   4.222   0.103   2.549  2.8977 -5.2063  0.3818
 5652SOL    MW422382   4.204   0.097   2.634  0.5132 -0.8466  0.4482
 5653SOL     OW22383   4.136   0.273   4.417 -0.3456 -0.3451  0.0074
 5653SOL    HW222384   4.201   0.208   4.445 -1.6510 -1.7623 -0.1269
 5653SOL    HW322385   4.092   0.299   4.498 -0.1674  0.0005 -0.0049
 5653SOL    MW422386   4.139   0.268   4.432 -0.4943 -0.4865 -0.0120
 5654SOL     OW22387   5.752   1.255   5.344 -0.2925 -0.1150 -0.4515
 5654SOL    HW222388   5.783   1.344   5.326  0.5485  0.0150  1.3305
 5654SOL    HW322389   5.657   1.263   5.347 -0.2061  0.9056  0.3675
 5654SOL    MW422390   5.744   1.268   5.342 -0.1701  0.0368 -0.1083
 5655SOL     OW22391   2.137   0.208   3.648  0.0322 -0.1921  0.2030
 5655SOL    HW222392   2.171   0.144   3.586  0.2449 -0.9554  1.0762
 5655SOL    HW322393   2.051   0.232   3.614 -0.1681 -1.1567  0.0063
 5655SOL    MW422394   2.130   0.203   3.635  0.0338 -0.4201  0.2923
 5656SOL     OW22395   5.636   4.972   5.984  0.4206 -0.4921  0.3316
 5656SOL    HW222396   5.725   4.968   6.019  0.1038 -0.7425  1.1133
 5656SOL    HW322397   5.625   5.065   5.961  0.7098 -0.3684  0.6757
 5656SOL    MW422398   5.647   4.984   5.985  0.4169 -0.5088  0.4802
 5657SOL     OW22399   3.333   0.365   5.999  0.0343 -0.7056  0.4156
 5657SOL    HW222400   3.281   0.288   6.021 -0.1046 -1.1218 -1.2830
 5657SOL    HW322401   3.272   0.424   5.955  0.3607  0.0003  0.8835
 5657SOL    MW422402   3.318   0.363   5.996  0.0591 -0.6674  0.2532
 5658SOL     OW22403   2.981   1.245   1.772  0.3512  0.2509 -0.1503
 5658SOL    HW222404   2.930   1.278   1.698  0.3432 -0.4800 -0.4744
 5658SOL    HW322405   3.072   1.248   1.743  0.3141 -0.4318 -0.3500
 5658SOL    MW422406   2.986   1.250   1.759  0.3452  0.0644 -0.2194
 5659SOL     OW22407   3.699   5.548   5.434  0.6508 -0.4197  0.0395
 5659SOL    HW222408   3.733   5.493   5.504  1.2923 -0.3078 -0.1725
 5659SOL    HW322409   3.667   5.627   5.479  2.7915  0.4954  0.0820
 5659SOL    MW422410   3.699   5.551   5.449  1.0179 -0.2842  0.0172
 5660SOL     OW22411   3.573   2.484   6.131 -0.1078  0.0230 -0.4929
 5660SOL    HW222412   3.557   2.520   6.218  2.4377 -1.4083  0.6853
 5660SOL    HW322413   3.597   2.560   6.077 -1.8914  0.9480 -0.0371
 5660SOL    MW422414   3.574   2.499   6.135 -0.0073 -0.0438 -0.2773
 5661SOL     OW22415   1.707   4.048   0.608 -0.2059 -0.4979 -0.5335
 5661SOL    HW222416   1.624   4.030   0.652 -0.8954 -0.5150 -1.7903
 5661SOL    HW322417   1.730   4.137   0.634 -0.6552 -0.4722 -0.2289
 5661SOL    MW422418   1.699   4.057   0.617 -0.3562 -0.4967 -0.6591
 5662SOL     OW22419   1.283   1.478   2.055  0.4297  0.1760 -0.0620
 5662SOL    HW222420   1.254   1.394   2.021 -1.1588  0.3000  0.8634
 5662SOL    HW322421   1.258   1.541   1.988  1.0999 -0.0106 -0.4983
 5662SOL    MW422422   1.276   1.475   2.042  0.3085  0.1677  0.0026
 5663SOL     OW22423   3.094   5.236   6.145  0.4427 -0.1642 -0.1941
 5663SOL    HW222424   3.151   5.287   6.087 -0.5097  0.9625 -0.2054
 5663SOL    HW322425   3.126   5.146   6.138  0.6672  0.0113 -2.1026
 5663SOL    MW422426   3.105   5.231   6.137  0.3467  0.0076 -0.4474
 5664SOL     OW22427   1.664   4.307   3.669  0.5446 -0.2865 -0.0008
 5664SOL    HW222428   1.737   4.307   3.731  0.8028  0.0984 -0.3006
 5664SOL    HW322429   1.693   4.365   3.598  0.0666 -0.3632 -0.2605
 5664SOL    MW422430   1.678   4.315   3.668  0.5156 -0.2459 -0.0746
 5665SOL     OW22431   4.285   0.291   0.834 -0.2753  0.0800 -0.2848
 5665SOL    HW222432   4.224   0.217   0.826  0.9672 -0.9090 -0.8981
 5665SOL    HW322433   4.239   0.353   0.890 -0.7394 -1.8282  1.5850
 5665SOL    MW422434   4.271   0.289   0.840 -0.1726 -0.3023 -0.1190
 5666SOL     OW22435   5.151   1.787   4.849 -0.2195 -0.5711 -0.0696
 5666SOL    HW222436   5.086   1.854   4.869 -1.9512 -1.7479 -1.4688
 5666SOL    HW322437   5.162   1.739   4.931 -0.5229  0.1370  0.3907
 5666SOL    MW422438   5.144   1.789   4.862 -0.4880 -0.6329 -0.1935
 5667SOL     OW22439   0.715   2.221   1.750 -0.2898  0.0713  0.0664
 5667SOL    HW222440   0.729   2.315   1.746 -5.6773  1.1625 -3.3632
 5667SOL    HW322441   0.657   2.208   1.826 -0.8137 -0.1781 -0.3659
 5667SOL    MW422442   0.709   2.231   1.760 -1.0697  0.1824 -0.4431
 5668SOL     OW22443   3.955   5.489   3.649 -0.5625  0.2284 -0.0982
 5668SOL    HW222444   3.911   5.418   3.602  0.9024  0.1691 -1.4686
 5668SOL    HW322445   3.940   5.566   3.594  2.8157 -0.1967 -1.9317
 5668SOL    MW422446   3.948   5.490   3.635  0.0765  0.1645 -0.5209
 5669SOL     OW22447   0.016   4.988   4.555  0.0578 -0.3399 -0.0268
 5669SOL    HW222448   0.071   5.046   4.503 -2.3866  1.5002 -0.7777
 5669SOL    HW322449   0.019   5.025   4.644  0.5752 -0.6765  0.0987
 5669SOL    MW422450   0.023   5.001   4.560 -0.1964 -0.1415 -0.1093
 5670SOL     OW22451   1.848   5.227   2.964  0.5457 -0.1963  0.2111
 5670SOL    HW222452   1.933   5.188   2.941  0.6069 -0.9070  1.5572
 5670SOL    HW322453   1.819   5.177   3.040 -1.1092  0.0250 -0.2496
 5670SOL    MW422454   1.856   5.215   2.971  0.3355 -0.2608  0.3279
 5671SOL     OW22455   4.985   1.373   1.531  0.6281 -0.1320  0.1560
 5671SOL    HW222456   5.032   1.363   1.448 -1.3447 -0.3042 -1.0022
 5671SOL    HW322457   4.969   1.283   1.560 -2.0427 -0.2537 -1.3508
 5671SOL    MW422458   4.989   1.360   1.524  0.0155 -0.1708 -0.1956
 5672SOL     OW22459   3.728   2.793   3.219  0.4191  0.6936  0.9770
 5672SOL    HW222460   3.639   2.789   3.183  0.5564 -0.6104  0.7570
 5672SOL    HW322461   3.785   2.785   3.143  0.7320  0.7708  1.2002
 5672SOL    MW422462   3.723   2.792   3.204  0.4785  0.5318  0.9774
 5673SOL     OW22463   0.977   0.180   3.668 -0.0262  0.7066  0.1867
 5673SOL    HW222464   1.011   0.228   3.744 -1.7090 -1.0007  2.1555
 5673SOL    HW322465   1.049   0.123   3.641 -0.0669 -0.3059  2.0308
 5673SOL    MW422466   0.991   0.179   3.674 -0.2536  0.3478  0.6897
 5674SOL     OW22467   1.463   0.789   1.294 -0.0377  0.3056 -0.1630
 5674SOL    HW222468   1.403   0.761   1.363  0.3010 -1.5480 -0.5744
 5674SOL    HW322469   1.537   0.827   1.341  0.9821 -2.4799  0.6792
 5674SOL    MW422470   1.465   0.791   1.309  0.1416 -0.3065 -0.1062
 5675SOL     OW22471   1.373   4.426   0.908  0.2720  0.3030 -0.8525
 5675SOL    HW222472   1.452   4.372   0.916 -1.1109 -1.7940 -0.9117
 5675SOL    HW322473   1.324   4.388   0.835 -1.7023  0.3589  0.3753
 5675SOL    MW422474   1.377   4.414   0.899 -0.1709  0.0337 -0.6983
 5676SOL     OW22475   6.127   1.869   6.110  0.0666 -0.4798  0.5622
 5676SOL    HW222476   6.099   1.929   6.041  0.3147 -1.0871 -0.0758
 5676SOL    HW322477   6.166   1.795   6.064  0.4446 -0.7960  1.3595
 5676SOL    MW422478   6.129   1.867   6.095  0.1492 -0.6017  0.5832
 5677SOL     OW22479   2.404   2.801   6.081 -0.2836  0.4147 -0.2689
 5677SOL    HW222480   2.406   2.710   6.109 -0.2790  0.3110 -0.6106
 5677SOL    HW322481   2.380   2.798   5.989 -1.5695  0.8258  0.0245
 5677SOL    MW422482   2.401   2.789   6.073 -0.4526  0.4552 -0.2753
 5678SOL     OW22483   4.969   5.467   5.754  0.4924 -0.4595  0.4065
 5678SOL    HW222484   4.877   5.491   5.768 -0.1290 -1.5402 -1.5518
 5678SOL    HW322485   5.015   5.551   5.754 -0.3925  0.0748  1.7849
 5678SOL    MW422486   4.963   5.481   5.756  0.2936 -0.5316  0.3300
 5679SOL     OW22487   1.284   4.762   4.800  0.3453 -0.0567  0.4856
 5679SOL    HW222488   1.377   4.750   4.779  0.5761 -0.1953  1.5006
 5679SOL    HW322489   1.250   4.817   4.730  1.7641  1.9383  1.2572
 5679SOL    MW422490   1.292   4.768   4.788  0.5630  0.1882  0.7213
 5680SOL     OW22491   3.345   2.057   5.736  0.0368  0.7523  0.7166
 5680SOL    HW222492   3.333   2.034   5.644  2.8022 -0.6682  0.6178
 5680SOL    HW322493   3.311   1.982   5.784  1.4195  0.0976  0.7047
 5680SOL    MW422494   3.339   2.044   5.730  0.5841  0.4785  0.7020
 5681SOL     OW22495   2.719   5.781   1.225 -0.4938  0.4529  0.2797
 5681SOL    HW222496   2.632   5.820   1.215 -0.7998 -0.2878 -0.0229
 5681SOL    HW322497   2.726   5.762   1.319 -0.8011  0.2027  0.2543
 5681SOL    MW422498   2.708   5.784   1.236 -0.5747  0.3221  0.2364
 5682SOL     OW22499   1.742   3.525   2.143  0.5425  0.0410 -0.6972
 5682SOL    HW222500   1.806   3.570   2.198 -1.8211  1.5706  0.9826
 5682SOL    HW322501   1.730   3.582   2.067  0.4113  0.2827 -0.4949
 5682SOL    MW422502   1.749   3.538   2.140  0.2134  0.2747 -0.4489
 5683SOL     OW22503   1.766   3.586   5.794 -0.2556 -0.1152  0.6199
 5683SOL    HW222504   1.831   3.532   5.748 -1.3421 -0.5849 -0.4260
 5683SOL    HW322505   1.706   3.522   5.834 -0.5398  0.3133  0.8874
 5683SOL    MW422506   1.767   3.570   5.793 -0.4364 -0.1206  0.5172
 5684SOL     OW22507   0.673   0.929   5.731 -0.3682 -0.7275 -0.7877
 5684SOL    HW222508   0.601   0.876   5.766 -0.3915 -1.2049 -1.5321
 5684SOL    HW322509   0.739   0.929   5.801 -2.0267  1.7786  0.9508
 5684SOL    MW422510   0.672   0.922   5.745 -0.5901 -0.4598 -0.6565
 5685SOL     OW22511   1.294   0.852   6.106 -0.1902  0.7804  0.0655
 5685SOL    HW222512   1.207   0.845   6.146 -1.4625 -0.3501 -2.6688
 5685SOL    HW322513   1.284   0.920   6.040  0.9806  0.5855 -0.3294
 5685SOL    MW422514   1.281   0.860   6.103 -0.2036  0.6056 -0.3474
 5686SOL     OW22515   4.574   3.434   2.201 -0.5042  0.1770  0.6339
 5686SOL    HW222516   4.559   3.355   2.150  0.4022  0.0690  0.5134
 5686SOL    HW322517   4.532   3.416   2.286  0.1221 -0.6486  0.7881
 5686SOL    MW422518   4.567   3.421   2.206 -0.3019  0.0538  0.6384
 5687SOL     OW22519   0.991   0.239   4.723  0.2944 -0.2430  0.4052
 5687SOL    HW222520   1.074   0.287   4.733 -0.3374  0.9184  0.3002
 5687SOL    HW322521   0.934   0.301   4.677 -1.2631 -0.2581  2.2187
 5687SOL    MW422522   0.994   0.254   4.718  0.0055 -0.0918  0.6306
 5688SOL     OW22523   2.637   6.410   3.455 -0.0524 -0.2044 -0.0836
 5688SOL    HW222524   2.586   6.434   3.378  0.5089 -0.7175 -0.6169
 5688SOL    HW322525   2.685   6.332   3.430  1.1014  0.3405  0.3681
 5688SOL    MW422526   2.636   6.403   3.442  0.1739 -0.2002 -0.0944
 5689SOL     OW22527   5.938   0.415   3.783 -0.3285 -0.5018  0.6880
 5689SOL    HW222528   5.922   0.435   3.875  0.5192 -1.5787  1.0867
 5689SOL    HW322529   5.860   0.446   3.738 -0.3862  0.8388  1.6441
 5689SOL    MW422530   5.926   0.422   3.789 -0.2242 -0.4670  0.8667
 5690SOL     OW22531   4.774   0.446   2.908  0.2299  0.1665  0.4509
 5690SOL    HW222532   4.846   0.486   2.956  0.1118  0.7131  0.1817
 5690SOL    HW322533   4.705   0.436   2.974 -0.0858  1.3160  0.3132
 5690SOL    MW422534   4.774   0.450   2.923  0.1726  0.3903  0.3972
 5691SOL     OW22535   2.071   0.462   5.075  0.1736 -0.0893  0.4997
 5691SOL    HW222536   2.133   0.417   5.018 -0.5439  1.0870 -1.2789
 5691SOL    HW322537   2.116   0.466   5.160  2.0164 -0.3722 -0.4115
 5691SOL    MW422538   2.085   0.457   5.079  0.3221  0.0286  0.1448
 5692SOL     OW22539   1.451   3.540   4.830 -0.0203  0.2414 -0.0939
 5692SOL    HW222540   1.526   3.550   4.771  2.0454  0.5079  2.3883
 5692SOL    HW322541   1.382   3.593   4.790  2.4075  3.4312 -0.5177
 5692SOL    MW422542   1.452   3.548   4.817  0.5726  0.6974  0.1777
 5693SOL     OW22543   1.836   0.540   6.247 -0.4765  0.7769 -0.1354
 5693SOL    HW222544   1.793   0.570   6.167 -4.5930 -0.1583  1.5099
 5693SOL    HW322545   1.857   0.448   6.229 -0.1831  0.9125 -0.5244
 5693SOL    MW422546   1.833   0.532   6.234 -0.9809  0.6714  0.0304
 5694SOL     OW22547   1.565   3.688   3.347 -0.1533 -0.0082 -0.0174
 5694SOL    HW222548   1.625   3.750   3.387 -0.0630  0.0282 -0.2086
 5694SOL    HW322549   1.594   3.602   3.380  0.7043 -0.1054 -0.9687
 5694SOL    MW422550   1.577   3.685   3.357 -0.0283 -0.0162 -0.1681
 5695SOL     OW22551   1.937   3.696   6.008  0.4488 -0.2839 -0.1290
 5695SOL    HW222552   1.861   3.658   5.964  0.0041  0.4883 -0.0595
 5695SOL    HW322553   1.932   3.789   5.987  2.2168 -0.4126 -1.3459
 5695SOL    MW422554   1.926   3.703   5.999  0.6234 -0.1990 -0.2804
 5696SOL     OW22555   2.378   1.765   0.293  0.0013  0.1955  0.0575
 5696SOL    HW222556   2.294   1.811   0.303 -0.3824 -0.1468 -1.3966
 5696SOL    HW322557   2.354   1.673   0.289  0.5894 -0.0092  0.9736
 5696SOL    MW422558   2.364   1.759   0.294  0.0282  0.1233 -0.0135
 5697SOL     OW22559   3.239   3.583   2.842  0.0339  0.2108  0.0566
 5697SOL    HW222560   3.290   3.512   2.803 -0.0687 -0.1212  0.5125
 5697SOL    HW322561   3.247   3.656   2.780  1.3301  0.2750  0.2790
 5697SOL    MW422562   3.247   3.583   2.829  0.1914  0.1754  0.1461
 5698SOL     OW22563   0.690   1.129   4.168  0.0703 -0.3218 -0.2600
 5698SOL    HW222564   0.631   1.152   4.239  0.1371  1.5962 -0.7725
 5698SOL    HW322565   0.639   1.071   4.112 -0.7087 -0.1342  0.2408
 5698SOL    MW422566   0.675   1.124   4.170 -0.0237 -0.0440 -0.2616
 5699SOL     OW22567   2.130   3.652   5.059  0.4482 -0.7064 -0.2893
 5699SOL    HW222568   2.196   3.678   4.995  0.1473 -1.2510 -0.8214
 5699SOL    HW322569   2.110   3.561   5.038 -0.2188 -0.6509  0.0870
 5699SOL    MW422570   2.136   3.644   5.048  0.3205 -0.7709 -0.3099
 5700SOL     OW22571   1.709   0.785   3.136  0.3018 -0.1236  0.0105
 5700SOL    HW222572   1.776   0.784   3.067 -0.4501 -0.2743 -0.7464
 5700SOL    HW322573   1.700   0.877   3.160  1.5374 -0.2118  0.9045
 5700SOL    MW422574   1.717   0.797   3.130  0.3656 -0.1551  0.0286
 5701SOL     OW22575   4.996   2.457   4.146 -0.0330  0.1521 -0.0687
 5701SOL    HW222576   4.905   2.484   4.144 -0.0170  0.2059 -0.0520
 5701SOL    HW322577   5.037   2.511   4.213 -0.6205 -1.8811  2.0664
 5701SOL    MW422578   4.990   2.468   4.154 -0.1084 -0.1091  0.2152
 5702SOL     OW22579   0.813   1.839   0.788 -0.2973  0.0706 -0.2454
 5702SOL    HW222580   0.832   1.909   0.726  0.5775  0.5778  0.5548
 5702SOL    HW322581   0.745   1.875   0.844  1.3487  1.0272  1.2614
 5702SOL    MW422582   0.807   1.853   0.787  0.0353  0.2638  0.0590
 5703SOL     OW22583   5.360   3.046   4.684  0.2321  0.2291 -0.5450
 5703SOL    HW222584   5.381   2.982   4.615  1.0298 -0.1925  0.0763
 5703SOL    HW322585   5.388   3.130   4.649  1.6208 -0.1278 -0.3217
 5703SOL    MW422586   5.366   3.048   4.670  0.5206  0.1264 -0.4336
 5704SOL     OW22587   1.110   2.082   4.852 -0.5052 -0.8904  0.1933
 5704SOL    HW222588   1.148   2.042   4.774 -4.4607 -0.8269 -2.0069
 5704SOL    HW322589   1.103   2.175   4.831 -0.0928 -0.5629  1.3807
 5704SOL    MW422590   1.114   2.089   4.839 -0.9727 -0.8388  0.0597
 5705SOL     OW22591   1.236   1.171   5.522 -0.4850  0.6575  1.0352
 5705SOL    HW222592   1.233   1.098   5.460  0.2776  0.3524  1.3431
 5705SOL    HW322593   1.312   1.153   5.577 -0.5633  1.4448  1.4214
 5705SOL    MW422594   1.246   1.159   5.521 -0.3947  0.7212  1.1268
 5706SOL     OW22595   6.120   0.055   4.607  0.0717  0.7030 -0.2122
 5706SOL    HW222596   6.084  -0.018   4.657  2.4579 -0.4392 -0.0314
 5706SOL    HW322597   6.099   0.034   4.516  0.3852 -0.0168 -0.1243
 5706SOL    MW422598   6.113   0.042   4.601  0.4279  0.4573 -0.1768
 5707SOL     OW22599   3.355   3.430   4.342  0.1454  0.1305  0.4024
 5707SOL    HW222600   3.369   3.480   4.262  2.2554  0.2118  0.7720
 5707SOL    HW322601   3.331   3.342   4.313  0.2619  0.3332 -0.3124
 5707SOL    MW422602   3.354   3.425   4.328  0.4391  0.1680  0.3568
 5708SOL     OW22603   1.714   4.653   1.469  0.0393  0.0513  0.0486
 5708SOL    HW222604   1.756   4.706   1.537  2.2267 -0.2530 -0.9779
 5708SOL    HW322605   1.719   4.707   1.390 -0.1509 -0.6080 -0.4266
 5708SOL    MW422606   1.720   4.667   1.467  0.3028 -0.0758 -0.1495
 5709SOL     OW22607   1.918   4.338   3.810  0.1488 -0.0114  0.3207
 5709SOL    HW222608   1.951   4.251   3.786 -1.3706 -0.7889  0.8863
 5709SOL    HW322609   1.920   4.339   3.905 -1.7552 -0.2472  0.3944
 5709SOL    MW422610   1.923   4.326   3.819 -0.3029 -0.1451  0.4050
 5710SOL     OW22611   1.205   4.936   0.644  0.6469  0.0498  0.0091
 5710SOL    HW222612   1.160   5.020   0.636  1.6271  0.7870  1.6729
 5710SOL    HW322613   1.232   4.914   0.555 -1.4239  0.4462 -0.7679
 5710SOL    MW422614   1.203   4.944   0.631  0.5030  0.1993  0.1261
 5711SOL     OW22615   2.459   2.286   6.430  0.2767  0.2058 -0.1420
 5711SOL    HW222616   2.404   2.339   6.488  0.3577  0.1112  0.0227
 5711SOL    HW322617   2.515   2.350   6.385 -0.5637  0.3849 -0.9635
 5711SOL    MW422618   2.460   2.301   6.432  0.1765  0.2169 -0.2286
 5712SOL     OW22619   0.537   0.972   0.126  1.0360  0.1933  0.0995
 5712SOL    HW222620   0.587   0.954   0.047  0.6923  0.9817 -0.3043
 5712SOL    HW322621   0.445   0.970   0.098  0.9400  1.3259  0.2850
 5712SOL    MW422622   0.531   0.969   0.112  0.9780  0.4468  0.0707
 5713SOL     OW22623   0.535   5.840   1.456 -0.1515 -0.0465 -0.8699
 5713SOL    HW222624   0.498   5.802   1.535 -1.3672 -1.6788 -2.1597
 5713SOL    HW322625   0.582   5.918   1.487  2.0398 -2.2232  1.8495
 5713SOL    MW422626   0.536   5.845   1.471 -0.0228 -0.5491 -0.6813
 5714SOL     OW22627   0.889   1.682   5.385 -0.1231 -0.3172 -0.4337
 5714SOL    HW222628   0.903   1.589   5.372 -3.1478 -0.9467  0.0349
 5714SOL    HW322629   0.889   1.694   5.480  0.2576  0.1791 -0.4912
 5714SOL    MW422630   0.891   1.672   5.396 -0.4719 -0.3348 -0.3794
 5715SOL     OW22631   4.155   6.130   4.787  0.2713  0.1669  0.2990
 5715SOL    HW222632   4.167   6.137   4.881  0.0875 -1.1651  0.4396
 5715SOL    HW322633   4.238   6.160   4.750  0.8601 -0.6135  0.9506
 5715SOL    MW422634   4.168   6.135   4.794  0.3247 -0.1118  0.4035
 5716SOL     OW22635   0.245   3.997   6.293 -0.0610  0.2271 -0.5287
 5716SOL    HW222636   0.248   3.961   6.204  1.1115  1.5611 -1.0629
 5716SOL    HW322637   0.238   4.092   6.280 -3.1579  0.2980  0.8238
 5716SOL    MW422638   0.244   4.005   6.279 -0.3149  0.4125 -0.4207
 5717SOL     OW22639   0.117   4.073   2.555  0.6298 -1.0491  0.1017
 5717SOL    HW222640   0.118   4.168   2.551 -0.1475 -0.9296  1.6826
 5717SOL    HW322641   0.129   4.044   2.465 -3.0609  0.6069 -1.1145
 5717SOL    MW422642   0.119   4.082   2.543  0.0403 -0.8149  0.1498
 5718SOL     OW22643   4.452   2.776   5.904 -0.1302  0.0069 -0.0358
 5718SOL    HW222644   4.411   2.860   5.924  0.2538  0.5151 -1.2819
 5718SOL    HW322645   4.378   2.717   5.884 -0.3120  0.7423 -1.6455
 5718SOL    MW422646   4.437   2.779   5.904 -0.1035  0.1710 -0.4126
 5719SOL     OW22647   0.922   1.264   3.856 -0.2767 -0.1704  0.3014
 5719SOL    HW222648   0.961   1.332   3.801 -1.3787 -0.5194 -0.9448
 5719SOL    HW322649   0.997   1.221   3.897  0.5494  0.3873 -0.5840
 5719SOL    MW422650   0.937   1.267   3.854 -0.3131 -0.1428  0.0202
 5720SOL     OW22651   2.433   0.210   3.865  0.3192 -0.0259 -0.2609
 5720SOL    HW222652   2.473   0.201   3.779 -0.5810 -2.8436 -0.4728
 5720SOL    HW322653   2.375   0.134   3.873 -2.0828  1.8287  1.5436
 5720SOL    MW422654   2.430   0.199   3.854 -0.1165 -0.1530 -0.0508
 5721SOL     OW22655   3.376   1.616   5.998  0.3921 -0.4262 -0.3870
 5721SOL    HW222656   3.297   1.604   6.051 -0.1164 -0.9111 -1.2280
 5721SOL    HW322657   3.354   1.686   5.937  0.4725 -0.8122 -0.8676
 5721SOL    MW422658   3.363   1.624   5.997  0.3356 -0.5411 -0.5614
 5722SOL     OW22659   0.835   4.822   6.325 -0.5250 -0.0722 -0.6555
 5722SOL    HW222660   0.831   4.817   6.420 -0.0113  0.5508 -0.5984
 5722SOL    HW322661   0.893   4.750   6.300 -1.5453 -0.9400 -0.5863
 5722SOL    MW422662   0.842   4.812   6.334 -0.5919 -0.1045 -0.6388
 5723SOL     OW22663   5.245   3.466   5.100 -0.1502  0.1610 -0.9317
 5723SOL    HW222664   5.224   3.442   5.010 -0.9667 -2.0382 -0.2336
 5723SOL    HW322665   5.166   3.444   5.150  1.4203 -2.0474  0.7928
 5723SOL    MW422666   5.232   3.460   5.095 -0.0508 -0.4205 -0.6120
 5724SOL     OW22667   2.937   1.297   4.989 -0.4973 -0.3439  0.0598
 5724SOL    HW222668   2.910   1.232   5.054  2.1563 -1.3994  0.2275
 5724SOL    HW322669   2.915   1.381   5.028 -2.0895 -1.0506  0.7634
 5724SOL    MW422670   2.930   1.300   5.002 -0.3573 -0.5764  0.1747
 5725SOL     OW22671   5.208   0.573   1.492 -0.3378  0.2143  0.3118
 5725SOL    HW222672   5.268   0.644   1.472 -1.0814  0.6234 -0.5513
 5725SOL    HW322673   5.182   0.589   1.583  0.1999  0.5120  0.4187
 5725SOL    MW422674   5.212   0.584   1.501 -0.3650  0.3076  0.2120
 5726SOL     OW22675   6.228   0.128   5.751 -0.5498 -0.4535  0.4076
 5726SOL    HW222676   6.145   0.173   5.771 -0.4158 -0.0923  0.1615
 5726SOL    HW322677   6.283   0.196   5.713 -0.2045 -0.7396  0.3964
 5726SOL    MW422678   6.224   0.143   5.748 -0.4866 -0.4436  0.3736
 5727SOL     OW22679   2.359   6.287   4.445  0.2087  0.6103  0.3018
 5727SOL    HW222680   2.306   6.334   4.381  0.5865 -0.1413 -0.5817
 5727SOL    HW322681   2.358   6.343   4.523  0.0962  1.7459 -0.5002
 5727SOL    MW422682   2.352   6.301   4.447  0.2437  0.6609  0.0794
 5728SOL     OW22683   6.210   0.699   6.367 -0.4497 -0.1759 -0.0089
 5728SOL    HW222684   6.163   0.621   6.337 -0.5638 -0.5466  1.0916
 5728SOL    HW322685   6.236   0.678   6.457  0.7915  0.4892 -0.1962
 5728SOL    MW422686   6.207   0.686   6.375 -0.3010 -0.1370  0.1116
 5729SOL     OW22687   4.367   2.160   6.420 -0.2469 -0.1778 -0.3446
 5729SOL    HW222688   4.292   2.218   6.416  1.3226  2.2758  2.3740
 5729SOL    HW322689   4.379   2.130   6.330 -2.1176  2.4572 -1.5957
 5729SOL    MW422690   4.359   2.163   6.407 -0.2867  0.4936 -0.1510
 5730SOL     OW22691   0.654   5.015   3.328  0.5393 -0.1506 -0.9041
 5730SOL    HW222692   0.669   4.950   3.260  0.0120 -0.4108 -0.7742
 5730SOL    HW322693   0.563   5.002   3.355  0.9236 -0.5041  0.3165
 5730SOL    MW422694   0.644   5.005   3.323  0.5204 -0.2315 -0.7259
 5731SOL     OW22695   4.772   4.943   1.983 -0.1917  0.0498  0.4298
 5731SOL    HW222696   4.830   4.871   2.009  2.3776  1.3839 -1.2228
 5731SOL    HW322697   4.789   5.012   2.047  0.9146  0.8193 -0.6490
 5731SOL    MW422698   4.782   4.943   1.995  0.2933  0.3273  0.0694
 5732SOL     OW22699   6.002   2.711   3.005 -0.3792 -0.3870  0.7527
 5732SOL    HW222700   6.049   2.735   3.085  0.3564 -2.3409  0.9498
 5732SOL    HW322701   5.988   2.794   2.960  1.0786  0.5228  1.8834
 5732SOL    MW422702   6.006   2.725   3.010 -0.0898 -0.5247  0.9279
 5733SOL     OW22703   5.540   4.169   1.870 -0.5569  0.1620  0.4015
 5733SOL    HW222704   5.633   4.170   1.889 -0.4430  1.5867 -0.1843
 5733SOL    HW322705   5.506   4.095   1.922  1.1613 -1.6026 -0.8426
 5733SOL    MW422706   5.548   4.159   1.879 -0.3152  0.1172  0.1600
 5734SOL     OW22707   3.561   2.701   5.574  0.2884  0.5209  0.1631
 5734SOL    HW222708   3.586   2.635   5.510 -3.4073 -0.1535 -0.7797
 5734SOL    HW322709   3.552   2.653   5.656 -2.1764 -0.2316 -0.4746
 5734SOL    MW422710   3.563   2.686   5.577 -0.5244  0.3326 -0.0454
 5735SOL     OW22711   2.789   1.827   5.091  0.0299 -0.0508 -0.2595
 5735SOL    HW222712   2.766   1.817   5.184 -2.7952  1.9731 -0.6216
 5735SOL    HW322713   2.823   1.916   5.084  0.1900 -0.1834 -1.1918
 5735SOL    MW422714   2.790   1.837   5.103 -0.3217  0.1987 -0.4303
 5736SOL     OW22715   5.749   3.853   1.332  0.1038 -0.6415 -0.1954
 5736SOL    HW222716   5.675   3.794   1.348  0.2086 -0.6326  0.3392
 5736SOL    HW322717   5.724   3.903   1.254 -0.2817 -0.9137 -0.2465
 5736SOL    MW422718   5.736   3.852   1.324  0.0667 -0.6763 -0.1316
 5737SOL     OW22719   2.273   4.783   3.291 -0.2002  0.2010  0.1970
 5737SOL    HW222720   2.338   4.807   3.357 -0.0903 -0.5553  0.3739
 5737SOL    HW322721   2.320   4.788   3.208  0.7007 -2.3283  0.4837
 5737SOL    MW422722   2.288   4.787   3.289 -0.0668 -0.2325  0.2581
 5738SOL     OW22723   4.299   4.159   2.834  0.3881  0.2745 -0.4186
 5738SOL    HW222724   4.217   4.200   2.808  0.6825  0.6603 -0.7512
 5738SOL    HW322725   4.328   4.111   2.757  0.2366 -0.2526 -0.1500
 5738SOL    MW422726   4.292   4.158   2.821  0.4069  0.2558 -0.4271
 5739SOL     OW22727   2.353   1.220   5.468  0.3636  0.0063  0.0053
 5739SOL    HW222728   2.423   1.155   5.467  0.6122  0.2733 -0.3539
 5739SOL    HW322729   2.305   1.203   5.387  0.7550  0.6147 -0.3632
 5739SOL    MW422730   2.356   1.209   5.457  0.4480  0.1218 -0.0907
 5740SOL     OW22731   4.387   6.345   5.155  1.1242 -0.5117 -0.4284
 5740SOL    HW222732   4.450   6.413   5.179 -0.9370  0.6894  2.0043
 5740SOL    HW322733   4.376   6.293   5.234  0.1315 -1.6172 -1.2465
 5740SOL    MW422734   4.394   6.347   5.168  0.7213 -0.4991 -0.2154
 5741SOL     OW22735   2.894   5.460   5.755 -0.2670 -0.8593 -0.0080
 5741SOL    HW222736   2.841   5.382   5.741  1.0715 -1.5768 -1.3947
 5741SOL    HW322737   2.914   5.459   5.849 -1.3243 -1.4546  0.2299
 5741SOL    MW422738   2.890   5.450   5.765 -0.2299 -1.0325 -0.1596
 5742SOL     OW22739   4.879   4.954   0.318 -0.2717 -0.3401 -0.3973
 5742SOL    HW222740   4.958   5.004   0.339 -0.8660  1.1300 -1.4971
 5742SOL    HW322741   4.911   4.878   0.269  0.6569 -1.1610  1.3873
 5742SOL    MW422742   4.893   4.951   0.314 -0.2276 -0.2544 -0.3070
 5743SOL     OW22743   1.130   5.722   0.077  0.3931 -0.2430  0.0629
 5743SOL    HW222744   1.139   5.676   0.160  3.9767 -0.2998 -0.1941
 5743SOL    HW322745   1.145   5.814   0.099  2.3914 -0.3721 -0.5641
 5743SOL    MW422746   1.133   5.728   0.091  1.1295 -0.2675 -0.0537
 5744SOL     OW22747   0.151   0.412   1.730  0.3200 -0.2782  0.5790
 5744SOL    HW222748   0.160   0.499   1.691  0.2580 -0.1725  0.7959
 5744SOL    HW322749   0.215   0.358   1.685 -1.0732 -0.6504 -1.0559
 5744SOL    MW422750   0.161   0.416   1.719  0.1280 -0.3134  0.3919
 5745SOL     OW22751   5.986   5.172   2.845  0.5704  0.2375  0.1259
 5745SOL    HW222752   6.056   5.237   2.849 -1.0396  2.0091  1.3281
 5745SOL    HW322753   5.966   5.153   2.937  0.5279 -1.4863 -0.2009
 5745SOL    MW422754   5.993   5.178   2.858  0.3524  0.2438  0.2414
 5746SOL     OW22755   4.624   5.669   0.147 -0.7459  0.2247 -0.4460
 5746SOL    HW222756   4.571   5.748   0.156 -2.1544 -0.6953 -0.3716
 5746SOL    HW322757   4.666   5.658   0.232 -1.5281  0.2349 -0.0436
 5746SOL    MW422758   4.622   5.678   0.159 -1.0350  0.1046 -0.3831
 5747SOL     OW22759   3.986   2.569   0.791  0.5778  0.3000  0.1210
 5747SOL    HW222760   3.931   2.599   0.718  0.4100  1.3320  0.6567
 5747SOL    HW322761   4.034   2.647   0.818 -0.5236  0.3417  2.1348
 5747SOL    MW422762   3.985   2.583   0.785  0.4104  0.4416  0.4574
 5748SOL     OW22763   0.660   1.666   4.518  0.1221  0.1294  0.0628
 5748SOL    HW222764   0.608   1.740   4.551 -0.3582 -0.6496  1.0909
 5748SOL    HW322765   0.749   1.682   4.550 -0.1251 -0.0816  0.8844
 5748SOL    MW422766   0.665   1.678   4.526  0.0261 -0.0012  0.3068
 5749SOL     OW22767   3.522   4.463   2.267 -0.1766 -0.5654  0.1553
 5749SOL    HW222768   3.603   4.485   2.221 -0.1260  0.5632  0.7634
 5749SOL    HW322769   3.462   4.436   2.197  0.1864  0.2363 -0.4741
 5749SOL    MW422770   3.525   4.462   2.252 -0.1220 -0.3107  0.1525
 5750SOL     OW22771   2.609   2.449   0.315 -0.0384 -0.3491 -0.2493
 5750SOL    HW222772   2.514   2.439   0.307 -0.0312 -0.1089 -0.6608
 5750SOL    HW322773   2.642   2.359   0.317 -0.0442 -0.5051 -3.0865
 5750SOL    MW422774   2.601   2.435   0.314 -0.0382 -0.3380 -0.6779
 5751SOL     OW22775   5.709   3.246   5.313  0.3506  0.0099 -0.5796
 5751SOL    HW222776   5.702   3.305   5.388  1.5809  1.2520 -1.3961
 5751SOL    HW322777   5.788   3.194   5.330  0.2144 -0.2246 -0.6581
 5751SOL    MW422778   5.719   3.247   5.325  0.4950  0.1428 -0.6977
 5752SOL     OW22779   6.134   0.984   5.549 -0.2461  0.4453  0.1439
 5752SOL    HW222780   6.089   0.922   5.608  0.0363 -0.4497 -0.5590
 5752SOL    HW322781   6.077   0.989   5.472  0.7293 -0.5519 -0.6761
 5752SOL    MW422782   6.121   0.976   5.547 -0.0802  0.1957 -0.0570
 5753SOL     OW22783   4.819   1.372   0.742 -0.4996 -0.0707  0.0980
 5753SOL    HW222784   4.830   1.283   0.709  0.1670 -0.2040  0.6475
 5753SOL    HW322785   4.767   1.362   0.822 -0.8965  0.0949 -0.1383
 5753SOL    MW422786   4.814   1.359   0.748 -0.4640 -0.0664  0.1393
 5754SOL     OW22787   4.892   6.083   4.983  0.3125 -0.3016 -0.8319
 5754SOL    HW222788   4.832   6.082   5.058  1.2586  0.8159 -0.0038
 5754SOL    HW322789   4.867   6.007   4.931 -0.8807 -0.6734  0.2220
 5754SOL    MW422790   4.881   6.073   4.986  0.2799 -0.2032 -0.5836
 5755SOL     OW22791   2.777   6.441   6.172  0.0293 -0.6415 -0.3634
 5755SOL    HW222792   2.860   6.489   6.173  0.7697 -1.7770 -2.3004
 5755SOL    HW322793   2.788   6.373   6.238  0.0193  0.1399  0.4641
 5755SOL    MW422794   2.789   6.438   6.181  0.1257 -0.6882 -0.5098
 5756SOL     OW22795   5.225   2.609   3.505  0.6328 -0.4175 -0.4493
 5756SOL    HW222796   5.217   2.607   3.410  0.7457  0.4412 -0.4867
 5756SOL    HW322797   5.298   2.669   3.522  1.4080 -1.5047  0.1425
 5756SOL    MW422798   5.233   2.617   3.495  0.7500 -0.4476 -0.3762
 5757SOL     OW22799   3.523   3.611   4.729  0.3594  0.0232  0.0078
 5757SOL    HW222800   3.508   3.694   4.775  0.6308  1.0142 -1.6033
 5757SOL    HW322801   3.499   3.630   4.638  1.0872 -1.4752 -0.5238
 5757SOL    MW422802   3.518   3.625   4.723  0.4912 -0.0437 -0.2749
 5758SOL     OW22803   5.362   1.564   3.902  0.0831  0.2327  0.0434
 5758SOL    HW222804   5.327   1.492   3.954 -0.7064 -0.5004 -1.4469
 5758SOL    HW322805   5.349   1.641   3.957 -1.7729 -0.3488  0.5044
 5758SOL    MW422806   5.355   1.565   3.916 -0.2659  0.0592 -0.0924
 5759SOL     OW22807   2.873   1.355   4.592 -0.0166  0.0748  0.2508
 5759SOL    HW222808   2.801   1.298   4.619  0.3614 -0.1026  0.8937
 5759SOL    HW322809   2.951   1.301   4.601  0.1592  0.1156 -0.9055
 5759SOL    MW422810   2.874   1.340   4.597  0.0564  0.0568  0.1831
 5760SOL     OW22811   1.721   2.002   4.733  0.9907  0.0644 -0.4998
 5760SOL    HW222812   1.661   1.947   4.683  1.7668  0.4190 -1.9016
 5760SOL    HW322813   1.674   2.084   4.745  1.0796  0.2591 -1.3892
 5760SOL    MW422814   1.707   2.006   4.728  1.1048  0.1369 -0.8021
 5761SOL     OW22815   1.613   3.287   2.043  0.3054  0.6270 -0.0100
 5761SOL    HW222816   1.660   3.363   2.075 -1.2373  1.7457 -0.2468
 5761SOL    HW322817   1.573   3.317   1.961 -0.3963 -0.4049 -0.0640
 5761SOL    MW422818   1.614   3.301   2.036  0.0093  0.6385 -0.0484
 5762SOL     OW22819   3.279   5.454   0.536  0.1513  0.0457 -0.0938
 5762SOL    HW222820   3.260   5.360   0.533 -0.1195  0.0197  1.5283
 5762SOL    HW322821   3.328   5.466   0.618 -1.0627  1.5365  0.4555
 5762SOL    MW422822   3.283   5.443   0.546 -0.0446  0.2390  0.1927
 5763SOL     OW22823   2.056   2.133   1.820  0.4909 -0.1893  0.3234
 5763SOL    HW222824   2.113   2.160   1.748  1.6201  0.4605  1.4115
 5763SOL    HW322825   2.099   2.168   1.899 -2.1895  1.5863  1.1059
 5763SOL    MW422826   2.069   2.141   1.821  0.2862  0.1307  0.5702
 5764SOL     OW22827   1.938   3.154   5.590 -0.1847  0.2173  0.1580
 5764SOL    HW222828   1.873   3.101   5.636  0.5623 -0.1354  0.8273
 5764SOL    HW322829   1.994   3.090   5.546  0.0028  0.4923 -0.0038
 5764SOL    MW422830   1.937   3.138   5.591 -0.0614  0.2071  0.2250
 5765SOL     OW22831   3.874   3.190   0.565  0.1082 -0.5658 -0.0651
 5765SOL    HW222832   3.790   3.212   0.605  0.5310  0.7743  0.1711
 5765SOL    HW322833   3.856   3.114   0.511 -0.5754 -2.2717  2.3835
 5765SOL    MW422834   3.860   3.183   0.564  0.0738 -0.6141  0.2891
 5766SOL     OW22835   3.651   2.570   2.328  0.0461  0.3025  0.4305
 5766SOL    HW222836   3.573   2.591   2.278 -0.6601  0.4674  1.5719
 5766SOL    HW322837   3.707   2.522   2.267 -1.2494 -0.4466 -0.1951
 5766SOL    MW422838   3.648   2.566   2.313 -0.2180  0.2254  0.4986
 5767SOL     OW22839   0.589   1.660   5.339  0.0717 -0.2291 -0.2012
 5767SOL    HW222840   0.683   1.642   5.339 -0.1881 -2.4039  3.1361
 5767SOL    HW322841   0.582   1.754   5.358  1.6117 -0.3512  1.1548
 5767SOL    MW422842   0.600   1.670   5.341  0.2406 -0.5322  0.4180
 5768SOL     OW22843   4.000   3.330   1.716 -0.1088 -0.2499  0.4883
 5768SOL    HW222844   4.008   3.405   1.774  0.1865  0.8534 -0.9303
 5768SOL    HW322845   3.908   3.331   1.688  0.4888  1.3906 -1.7673
 5768SOL    MW422846   3.989   3.340   1.720  0.0090  0.1121  0.0035
 5769SOL     OW22847   0.695   0.500   3.723  0.5699  0.0216 -0.4284
 5769SOL    HW222848   0.666   0.420   3.679  1.7949 -0.2355 -0.8323
 5769SOL    HW322849   0.615   0.551   3.736 -0.2799 -1.3900  0.1144
 5769SOL    MW422850   0.681   0.496   3.719  0.6194 -0.1986 -0.4101
 5770SOL     OW22851   6.386   0.947   4.302  0.4486 -0.1990  0.5024
 5770SOL    HW222852   6.465   0.895   4.319  1.3181  0.6714 -0.7018
 5770SOL    HW322853   6.325   0.887   4.260  2.1437  0.1026 -2.6623
 5770SOL    MW422854   6.389   0.932   4.299  0.7870 -0.0444 -0.0740
 5771SOL     OW22855   5.848   0.930   4.171 -0.1294 -0.0882 -0.2998
 5771SOL    HW222856   5.929   0.978   4.185 -0.5613  0.2191  1.3668
 5771SOL    HW322857   5.785   0.997   4.144 -0.6397  0.3007  1.6756
 5771SOL    MW422858   5.850   0.945   4.169 -0.2537  0.0036  0.1807
 5772SOL     OW22859   1.434   2.070   2.547 -0.6727  0.1745  0.0791
 5772SOL    HW222860   1.443   2.155   2.502 -1.6141  0.5088  0.4900
 5772SOL    HW322861   1.438   2.006   2.476  1.4566  0.4324 -0.1091
 5772SOL    MW422862   1.436   2.073   2.531 -0.5160  0.2526  0.1085
 5773SOL     OW22863   3.667   0.088   0.767 -0.4932 -0.0166 -0.2810
 5773SOL    HW222864   3.639   0.116   0.680  0.2685  0.3994 -0.3990
 5773SOL    HW322865   3.597   0.030   0.797 -0.6819 -0.3058 -1.2403
 5773SOL    MW422866   3.654   0.084   0.759 -0.4176  0.0001 -0.4232
 5774SOL     OW22867   5.608   2.640   4.489 -0.0240 -0.3834  0.4173
 5774SOL    HW222868   5.604   2.551   4.525  0.9433 -1.4635 -1.9188
 5774SOL    HW322869   5.695   2.671   4.514  0.7239 -1.2064 -1.0167
 5774SOL    MW422870   5.619   2.632   4.497  0.2023 -0.6345 -0.0801
 5775SOL     OW22871   0.996   4.680   0.284 -0.1426  0.8342  0.3047
 5775SOL    HW222872   0.940   4.747   0.246 -1.4676 -0.1703  0.3911
 5775SOL    HW322873   1.002   4.612   0.217 -0.3653  0.2212  0.8823
 5775SOL    MW422874   0.989   4.680   0.270 -0.3468  0.6208  0.3923
 5776SOL     OW22875   3.086   0.495   4.708  0.6590  0.2001  0.3413
 5776SOL    HW222876   3.055   0.465   4.623 -1.0471  1.6879  0.3865
 5776SOL    HW322877   3.180   0.479   4.706  0.4980 -0.7711 -1.3909
 5776SOL    MW422878   3.094   0.489   4.697  0.4127  0.2683  0.1187
 5777SOL     OW22879   5.671   5.067   2.025 -0.1444 -0.3427  0.4029
 5777SOL    HW222880   5.643   5.050   1.935  1.5814  0.4048 -0.3251
 5777SOL    HW322881   5.714   4.986   2.052  1.4881  0.2407 -0.3568
 5777SOL    MW422882   5.673   5.054   2.017  0.2987 -0.1671  0.2066
 5778SOL     OW22883   4.963   0.354   0.078 -0.2365  0.0820 -0.3651
 5778SOL    HW222884   4.914   0.420   0.028 -0.7925 -0.0410  0.0070
 5778SOL    HW322885   5.050   0.391   0.088 -0.6243  0.8926  0.0937
 5778SOL    MW422886   4.968   0.368   0.072 -0.3611  0.1727 -0.2555
 5779SOL     OW22887   4.392   5.423   3.053  0.1350 -0.0036 -0.2374
 5779SOL    HW222888   4.320   5.443   2.992 -0.6568  0.8797  0.9591
 5779SOL    HW322889   4.469   5.415   2.996 -0.9056 -1.1423 -1.5775
 5779SOL    MW422890   4.393   5.425   3.037 -0.1067 -0.0373 -0.2563
 5780SOL     OW22891   2.132   3.072   3.494 -0.6136  0.2431 -0.1202
 5780SOL    HW222892   2.150   3.068   3.588 -2.3596  1.4876  0.3181
 5780SOL    HW322893   2.217   3.060   3.453  0.3675  0.7700  1.6557
 5780SOL    MW422894   2.145   3.070   3.501 -0.7145  0.4768  0.1720
 5781SOL     OW22895   1.846   1.332   3.945 -0.1574 -0.0559 -0.1072
 5781SOL    HW222896   1.784   1.314   3.875  0.3224  0.6923 -0.7346
 5781SOL    HW322897   1.894   1.249   3.956  0.3966  0.0848 -1.3087
 5781SOL    MW422898   1.844   1.319   3.938 -0.0210  0.0614 -0.3485
 5782SOL     OW22899   1.835   2.889   5.927 -0.2353  0.2086 -0.4573
 5782SOL    HW222900   1.799   2.947   5.860  1.1470  0.6211 -0.8956
 5782SOL    HW322901   1.782   2.905   6.004 -1.3731  0.3020 -1.2301
 5782SOL    MW422902   1.823   2.899   5.928 -0.2031  0.2753 -0.6171
 5783SOL     OW22903   2.547   3.775   5.119 -0.8048 -0.0319 -0.1917
 5783SOL    HW222904   2.611   3.761   5.189  0.6977  0.0115 -1.5038
 5783SOL    HW322905   2.512   3.862   5.135 -0.3379  0.0547  0.3824
 5783SOL    MW422906   2.551   3.784   5.130 -0.5450 -0.0148 -0.2890
 5784SOL     OW22907   4.497   4.044   2.673  0.8798 -0.3971 -0.1194
 5784SOL    HW222908   4.527   3.961   2.637  0.7738 -0.1764 -0.7290
 5784SOL    HW322909   4.520   4.109   2.607  1.4817  0.1434  0.6050
 5784SOL    MW422910   4.504   4.042   2.659  0.9452 -0.2967 -0.1043
 5785SOL     OW22911   5.659   4.894   5.651 -0.1476 -0.3131 -0.3883
 5785SOL    HW222912   5.609   4.940   5.583 -0.2729  0.4382  0.2011
 5785SOL    HW322913   5.594   4.872   5.717  0.0495 -0.6682 -0.3106
 5785SOL    MW422914   5.644   4.897   5.651 -0.1381 -0.2608 -0.3003
 5786SOL     OW22915   4.817   2.506   5.603 -1.1513 -0.1765  0.5683
 5786SOL    HW222916   4.885   2.570   5.621 -0.8244 -0.3613 -0.0058
 5786SOL    HW322917   4.779   2.533   5.519 -0.4850 -1.1755 -0.0684
 5786SOL    MW422918   4.821   2.518   5.595 -1.0203 -0.3327  0.4085
 5787SOL     OW22919   4.369   5.202   5.431 -0.1361 -0.6440 -0.0718
 5787SOL    HW222920   4.403   5.280   5.388  1.3441 -0.4177  1.4029
 5787SOL    HW322921   4.287   5.230   5.472 -0.9149 -0.5489 -1.6506
 5787SOL    MW422922   4.362   5.216   5.431 -0.0435 -0.6016 -0.0855
 5788SOL     OW22923   4.462   1.806   5.262 -0.2185  0.3667  0.6758
 5788SOL    HW222924   4.410   1.840   5.189 -1.3468  0.4996  1.5082
 5788SOL    HW322925   4.410   1.733   5.296  1.0283 -0.6876  0.4156
 5788SOL    MW422926   4.448   1.801   5.257 -0.2029  0.2451  0.7513
 5789SOL     OW22927   3.025   1.404   5.433 -0.1248  0.0646 -0.0632
 5789SOL    HW222928   2.946   1.453   5.411  0.8650  1.6165 -0.3268
 5789SOL    HW322929   3.076   1.465   5.488  0.5624 -1.1676  0.7005
 5789SOL    MW422930   3.021   1.419   5.437  0.0965  0.1068  0.0027
 5790SOL     OW22931   5.392   0.768   2.816  0.1030  0.1626  0.1621
 5790SOL    HW222932   5.360   0.854   2.790  1.2108  0.3296 -0.7686
 5790SOL    HW322933   5.457   0.746   2.749 -0.1610 -1.3989  0.3896
 5790SOL    MW422934   5.396   0.777   2.803  0.2143 -0.0214  0.0693
 5791SOL     OW22935   5.064   3.312   3.785 -0.3963 -0.2794 -0.2733
 5791SOL    HW222936   5.056   3.396   3.741 -0.4297 -0.5366 -0.7655
 5791SOL    HW322937   5.117   3.330   3.863  0.4121  0.0003 -0.8830
 5791SOL    MW422938   5.070   3.325   3.790 -0.2941 -0.2764 -0.4187
 5792SOL     OW22939   6.222   3.765   4.904  0.3191 -0.2653 -0.0639
 5792SOL    HW222940   6.276   3.800   4.833 -0.1513 -1.3438 -0.9814
 5792SOL    HW322941   6.275   3.698   4.945 -0.4330 -1.6298 -1.2433
 5792SOL    MW422942   6.236   3.761   4.900  0.1578 -0.5877 -0.3406
 5793SOL     OW22943   2.908   4.513   2.091 -0.0142 -0.1391  0.5576
 5793SOL    HW222944   2.986   4.538   2.041 -0.0418 -0.6011  0.2698
 5793SOL    HW322945   2.929   4.536   2.182 -0.1929  1.2455  0.2582
 5793SOL    MW422946   2.921   4.519   2.096 -0.0415 -0.0174  0.4801
 5794SOL     OW22947   1.487   5.754   5.332  0.0446  0.4435 -0.0030
 5794SOL    HW222948   1.547   5.746   5.258  0.0847  1.4466 -0.0845
 5794SOL    HW322949   1.417   5.811   5.301 -0.6581 -0.2378  0.2877
 5794SOL    MW422950   1.485   5.760   5.319 -0.0428  0.4860  0.0246
 5795SOL     OW22951   1.242   4.694   2.109 -0.3438 -0.4131 -0.3515
 5795SOL    HW222952   1.251   4.766   2.048  0.3277 -0.9984 -0.9658
 5795SOL    HW322953   1.324   4.694   2.158  0.1285 -1.4096 -1.1009
 5795SOL    MW422954   1.254   4.703   2.108 -0.1929 -0.6218 -0.5314
 5796SOL     OW22955   1.717   5.465   2.182 -0.3193 -0.2552  0.4995
 5796SOL    HW222956   1.717   5.502   2.270 -0.9374 -1.5496  1.0784
 5796SOL    HW322957   1.665   5.384   2.190  1.5074 -1.6156 -0.5249
 5796SOL    MW422958   1.710   5.459   2.195 -0.1598 -0.6055  0.4407
 5797SOL     OW22959   1.094   3.550   1.682 -0.2231  0.3462 -0.0376
 5797SOL    HW222960   1.032   3.571   1.613 -0.0520 -1.3661 -0.7596
 5797SOL    HW322961   1.054   3.479   1.730  0.4840  0.2826  0.4825
 5797SOL    MW422962   1.081   3.544   1.679 -0.1072  0.1119 -0.0642
 5798SOL     OW22963   6.112   5.003   5.530  0.1188  0.4422  0.2433
 5798SOL    HW222964   6.191   4.957   5.557  0.7891  1.9075  0.8272
 5798SOL    HW322965   6.047   4.980   5.596  1.1897  2.3958  2.0955
 5798SOL    MW422966   6.114   4.994   5.542  0.3485  0.8933  0.5647
 5799SOL     OW22967   0.989   5.994   0.991  0.7454  0.2848  0.9885
 5799SOL    HW222968   1.024   6.014   0.904 -0.6546  0.9721  0.5450
 5799SOL    HW322969   1.002   6.075   1.041 -1.9391  1.3109  0.1979
 5799SOL    MW422970   0.995   6.008   0.986  0.2065  0.5108  0.8257
 5800SOL     OW22971   6.060   5.877   4.113 -0.0534 -0.0258 -0.3148
 5800SOL    HW222972   6.035   5.945   4.175 -0.4789 -0.5123  0.0604
 5800SOL    HW322973   6.133   5.914   4.065  0.2189  0.4006  0.4118
 5800SOL    MW422974   6.066   5.890   4.115 -0.0736 -0.0338 -0.1695
 5801SOL     OW22975   5.698   5.890   1.731 -0.1507  0.1997 -0.3823
 5801SOL    HW222976   5.784   5.850   1.716 -0.0959  0.1759 -0.0133
 5801SOL    HW322977   5.668   5.851   1.813 -1.4742 -1.4419 -1.5797
 5801SOL    MW422978   5.705   5.879   1.740 -0.3181 -0.0200 -0.4916
 5802SOL     OW22979   3.058   0.750   4.485  0.2501 -0.1755 -0.0868
 5802SOL    HW222980   2.976   0.710   4.514  0.3867 -0.5918 -0.2556
 5802SOL    HW322981   3.121   0.677   4.484  0.7638  0.2566  0.5855
 5802SOL    MW422982   3.056   0.735   4.489  0.3359 -0.1734 -0.0204
 5803SOL     OW22983   0.019   2.174   4.015  0.3321 -0.0545 -0.9436
 5803SOL    HW222984   0.061   2.161   4.100 -1.6522 -0.7117 -0.0080
 5803SOL    HW322985   0.058   2.255   3.981  1.4567 -0.0097  0.3829
 5803SOL    MW422986   0.030   2.183   4.021  0.2186 -0.1353 -0.6451
 5804SOL     OW22987   3.819   4.842   1.860  0.7931 -0.0842 -0.1108
 5804SOL    HW222988   3.874   4.868   1.934  0.4851 -1.3958  0.6222
 5804SOL    HW322989   3.840   4.905   1.791  1.1204  1.1642  1.0690
 5804SOL    MW422990   3.829   4.854   1.861  0.7956 -0.0926  0.1416
 5805SOL     OW22991   5.286   5.597   2.189  0.0492 -0.2453 -0.4732
 5805SOL    HW222992   5.329   5.679   2.166 -0.5772  0.4317  0.6980
 5805SOL    HW322993   5.357   5.534   2.195  0.5294  0.1808 -1.4569
 5805SOL    MW422994   5.301   5.599   2.187  0.0299 -0.0997 -0.4485
 5806SOL     OW22995   5.121   1.861   6.304  0.5853 -0.8552 -0.3006
 5806SOL    HW222996   5.081   1.800   6.242  2.5391 -1.1825 -1.3416
 5806SOL    HW322997   5.127   1.944   6.256 -1.4500  0.0562  0.8761
 5806SOL    MW422998   5.116   1.864   6.289  0.5746 -0.7781 -0.2827
 5807SOL     OW22999   1.921   5.461   1.865  0.5831  0.6234 -0.2484
 5807SOL    HW223000   1.845   5.441   1.810 -0.8352 -0.2665  1.9251
 5807SOL    HW323001   1.924   5.556   1.867  0.0651  0.6713 -1.0719
 5807SOL    MW423002   1.911   5.471   1.858  0.3276  0.5123 -0.0703
 5808SOL     OW23003   3.053   5.121   4.465  0.0908 -0.4369 -0.0465
 5808SOL    HW223004   3.049   5.180   4.540  3.0721  0.1328 -0.2178
 5808SOL    HW323005   3.115   5.163   4.405  0.0146 -2.3148 -1.5248
 5808SOL    MW423006   3.061   5.134   4.467  0.4741 -0.6095 -0.2641
 5809SOL     OW23007   5.276   4.549   0.442 -0.1627  0.7850  0.6592
 5809SOL    HW223008   5.337   4.568   0.514 -0.8686 -1.1659  1.8489
 5809SOL    HW323009   5.189   4.557   0.481 -0.5464 -1.6309  0.5038
 5809SOL    MW423010   5.273   4.552   0.457 -0.3064  0.2089  0.7956
 5810SOL     OW23011   1.113   0.068   4.135 -0.4045 -0.0632  0.3497
 5810SOL    HW223012   1.160  -0.013   4.119 -0.9945 -0.2405 -0.6312
 5810SOL    HW323013   1.179   0.136   4.131 -0.0496 -0.4152  0.1914
 5810SOL    MW423014   1.128   0.066   4.132 -0.4355 -0.1330  0.1994
 5811SOL     OW23015   2.445   3.108   3.166  0.4287  0.2955 -0.3429
 5811SOL    HW223016   2.522   3.159   3.138 -0.2937  0.9272 -1.2322
 5811SOL    HW323017   2.421   3.057   3.089 -0.9417  1.2413 -0.5756
 5811SOL    MW423018   2.452   3.108   3.152  0.1525  0.5037 -0.4909
 5812SOL     OW23019   1.719   1.797   2.678 -0.0210  0.1260 -0.4775
 5812SOL    HW223020   1.713   1.841   2.594  1.1163  2.2826  0.4782
 5812SOL    HW323021   1.709   1.867   2.743  1.3543 -1.0772  1.1425
 5812SOL    MW423022   1.717   1.812   2.676  0.3105  0.2518 -0.1377
 5813SOL     OW23023   5.630   1.591   5.901  0.2490 -0.5696  0.7073
 5813SOL    HW223024   5.714   1.619   5.864 -0.1793 -1.1910 -0.8176
 5813SOL    HW323025   5.595   1.530   5.836 -2.8703  2.0157 -0.3360
 5813SOL    MW423026   5.637   1.587   5.887 -0.2191 -0.3105  0.3685
 5814SOL     OW23027   3.480   1.494   2.951  0.1927  0.7026 -0.0934
 5814SOL    HW223028   3.494   1.423   2.889 -0.4880  0.1833  0.3358
 5814SOL    HW323029   3.443   1.452   3.029  1.5385  1.2435  0.8907
 5814SOL    MW423030   3.477   1.479   2.953  0.2805  0.7054  0.0930
 5815SOL     OW23031   3.529   0.549   1.922  0.3298  0.1883 -0.0534
 5815SOL    HW223032   3.619   0.581   1.920  0.3556  0.5053 -4.8378
 5815SOL    HW323033   3.537   0.454   1.926  0.7001  0.2730  2.0767
 5815SOL    MW423034   3.542   0.541   1.922  0.3820  0.2413 -0.4036
 5816SOL     OW23035   3.584   2.936   2.796 -0.4258  0.3015  0.7159
 5816SOL    HW223036   3.556   2.861   2.743 -3.2773  1.5377  0.2951
 5816SOL    HW323037   3.665   2.966   2.754 -0.0577 -1.5638 -0.0366
 5816SOL    MW423038   3.591   2.930   2.784 -0.7535  0.2185  0.5611
 5817SOL     OW23039   4.081   6.331   6.189 -0.4338  0.0599 -0.3657
 5817SOL    HW223040   3.991   6.327   6.158 -0.9026 -0.0430  0.9420
 5817SOL    HW323041   4.076   6.380   6.271  0.8469  0.8846 -0.7524
 5817SOL    MW423042   4.069   6.337   6.196 -0.3267  0.1552 -0.2442
 5818SOL     OW23043   0.250   1.629   1.454 -0.2444 -0.2454  0.7074
 5818SOL    HW223044   0.216   1.660   1.537 -2.7213  0.7089 -0.5833
 5818SOL    HW323045   0.335   1.673   1.445 -1.3000  2.0743  1.3561
 5818SOL    MW423046   0.257   1.639   1.463 -0.7105  0.1866  0.6227
 5819SOL     OW23047   1.193   5.378   4.575 -0.1034 -0.1647  0.2139
 5819SOL    HW223048   1.131   5.318   4.618 -0.1878  0.8683  1.5952
 5819SOL    HW323049   1.234   5.325   4.507 -1.4604 -1.2863  0.2185
 5819SOL    MW423050   1.190   5.363   4.572 -0.2935 -0.1764  0.3967
 5820SOL     OW23051   6.384   4.889   1.901 -0.2639  0.0401 -0.0735
 5820SOL    HW223052   6.355   4.894   1.992 -0.9654 -1.0167 -0.2225
 5820SOL    HW323053   6.429   4.972   1.886 -3.2748  1.8592  0.1492
 5820SOL    MW423054   6.386   4.900   1.911 -0.7537  0.1407 -0.0637
 5821SOL     OW23055   5.288   4.565   1.788  0.5463 -0.0008 -0.4817
 5821SOL    HW223056   5.335   4.542   1.708  0.2123  0.2075 -0.7383
 5821SOL    HW323057   5.244   4.648   1.767 -0.7291 -0.6766 -0.5618
 5821SOL    MW423058   5.289   4.573   1.775  0.3339 -0.0625 -0.5261
 5822SOL     OW23059   3.682   0.058   1.992 -0.0188  0.2991  0.0284
 5822SOL    HW223060   3.644   0.142   1.967  1.2559  1.2629  1.2331
 5822SOL    HW323061   3.610  -0.004   1.981 -0.9895  1.5177 -0.8794
 5822SOL    MW423062   3.668   0.061   1.987  0.0213  0.5870  0.0676
 5823SOL     OW23063   5.667   5.177   0.974  0.1840  0.1645  0.1514
 5823SOL    HW223064   5.727   5.133   0.913  3.0554  0.1106  2.7795
 5823SOL    HW323065   5.580   5.154   0.942  1.5006 -0.8931 -3.1342
 5823SOL    MW423066   5.663   5.168   0.962  0.7365  0.0178  0.0646
 5824SOL     OW23067   2.100   5.716   5.450 -0.1528  0.3209  0.0792
 5824SOL    HW223068   2.073   5.675   5.368  1.7948 -0.5321 -0.1965
 5824SOL    HW323069   2.189   5.748   5.433  0.0770  0.6451  1.6808
 5824SOL    MW423070   2.109   5.715   5.437  0.1345  0.2511  0.2542
 5825SOL     OW23071   1.988   3.060   4.686  0.0331 -0.7551  0.0588
 5825SOL    HW223072   1.898   3.070   4.717  0.0031 -2.7854  0.7170
 5825SOL    HW323073   2.039   3.041   4.765  1.0745  0.3268 -0.3113
 5825SOL    MW423074   1.983   3.059   4.700  0.1666 -0.8803  0.0968
 5826SOL     OW23075   1.073   5.601   0.692  0.4971  0.2960 -0.2732
 5826SOL    HW223076   1.099   5.598   0.600  2.2899 -0.5571  0.2175
 5826SOL    HW323077   1.018   5.523   0.704  1.3991 -0.3752 -0.3410
 5826SOL    MW423078   1.069   5.590   0.682  0.8527  0.0949 -0.2174
 5827SOL     OW23079   5.213   2.363   2.195 -0.0637  0.6062  0.8444
 5827SOL    HW223080   5.226   2.450   2.231 -1.5666  0.9221  0.6963
 5827SOL    HW323081   5.145   2.324   2.251 -1.3380  0.5375 -0.6584
 5827SOL    MW423082   5.206   2.369   2.207 -0.4301  0.6388  0.6266
 5828SOL     OW23083   3.845   1.275   5.585 -0.3768 -0.2192 -0.1831
 5828SOL    HW223084   3.824   1.252   5.495 -0.7605  0.7974 -0.3742
 5828SOL    HW323085   3.766   1.320   5.617  0.1695  0.4266  0.2823
 5828SOL    MW423086   3.832   1.278   5.577 -0.3554  0.0001 -0.1469
 5829SOL     OW23087   4.389   2.517   4.150  0.1487  0.2459 -0.3448
 5829SOL    HW223088   4.295   2.530   4.157  0.1761 -0.1501  1.1802
 5829SOL    HW323089   4.414   2.477   4.233  1.1028 -3.2196 -2.0884
 5829SOL    MW423090   4.380   2.513   4.162  0.2782 -0.2636 -0.3737
 5830SOL     OW23091   5.142   5.773   3.598 -0.2086  0.1228  0.1390
 5830SOL    HW223092   5.195   5.737   3.527 -0.3961 -2.0649  1.0060
 5830SOL    HW323093   5.205   5.797   3.666 -0.1665  0.1562  0.0877
 5830SOL    MW423094   5.157   5.771   3.598 -0.2278 -0.1615  0.2466
 5831SOL     OW23095   4.347   5.103   0.658 -0.2644 -0.2043 -0.2806
 5831SOL    HW223096   4.297   5.023   0.643 -1.8395  0.4258  1.2291
 5831SOL    HW323097   4.291   5.156   0.715  2.4561  0.2377  2.1996
 5831SOL    MW423098   4.333   5.100   0.663 -0.1133 -0.0628  0.2458
 5832SOL     OW23099   5.382   5.698   1.901  0.1669 -0.5782 -0.4016
 5832SOL    HW223100   5.347   5.678   1.814 -0.5456 -1.2315  0.0183
 5832SOL    HW323101   5.367   5.618   1.952 -1.6488  0.5669  1.0026
 5832SOL    MW423102   5.375   5.685   1.896 -0.1667 -0.5133 -0.1609
 5833SOL     OW23103   4.869   3.776   3.355 -0.2100  0.4985 -0.0760
 5833SOL    HW223104   4.903   3.692   3.322 -0.8237  0.4772 -0.6846
 5833SOL    HW323105   4.942   3.837   3.344 -0.4240  0.5209 -1.6563
 5833SOL    MW423106   4.883   3.773   3.349 -0.3192  0.4987 -0.3648
 5834SOL     OW23107   0.582   5.751   2.383 -0.1523  0.1888 -0.1949
 5834SOL    HW223108   0.590   5.699   2.464 -1.8256  0.9334  0.4923
 5834SOL    HW323109   0.655   5.812   2.387  0.0415 -0.0778  0.5346
 5834SOL    MW423110   0.593   5.752   2.395 -0.3475  0.2519 -0.0080
 5835SOL     OW23111   1.859   5.579   4.119 -0.0688 -0.2422  0.0302
 5835SOL    HW223112   1.825   5.598   4.207  0.0146 -2.4550  0.6122
 5835SOL    HW323113   1.796   5.517   4.083 -0.6500  1.3853 -1.9397
 5835SOL    MW423114   1.846   5.573   4.126 -0.1345 -0.3194 -0.1530
 5836SOL     OW23115   1.059   0.944   2.714 -0.9953 -0.0618  0.0394
 5836SOL    HW223116   1.012   1.000   2.652  0.4834 -0.2100 -1.2797
 5836SOL    HW323117   1.127   1.001   2.751 -1.2625 -0.2378  0.8295
 5836SOL    MW423118   1.062   0.959   2.711 -0.8355 -0.1046 -0.0304
 5837SOL     OW23119   1.207   4.733   6.375  0.2090 -0.4451  0.2124
 5837SOL    HW223120   1.245   4.802   6.429 -1.1461 -0.0046  0.6158
 5837SOL    HW323121   1.238   4.651   6.415  1.1629 -0.0988  0.2071
 5837SOL    MW423122   1.216   4.731   6.387  0.1560 -0.3413  0.2650
 5838SOL     OW23123   2.197   2.066   0.481  0.0262  0.5528  0.6166
 5838SOL    HW223124   2.248   2.011   0.541 -1.9030 -1.8118  0.2810
 5838SOL    HW323125   2.125   2.099   0.535 -1.3638 -1.0744 -0.1240
 5838SOL    MW423126   2.194   2.063   0.496 -0.4117  0.0261  0.4746
 5839SOL     OW23127   5.892   2.563   5.253 -0.1758  0.8067  0.6869
 5839SOL    HW223128   5.891   2.634   5.188  0.9115 -0.0586 -0.3264
 5839SOL    HW323129   5.913   2.485   5.202  0.6721  0.0878  2.0798
 5839SOL    MW423130   5.895   2.562   5.238  0.0795  0.5977  0.7370
 5840SOL     OW23131   0.494   3.365   2.238 -0.2406  0.3792  0.4076
 5840SOL    HW223132   0.406   3.349   2.204 -0.0171 -2.2459  0.8426
 5840SOL    HW323133   0.553   3.322   2.175  0.6395  1.0121  0.7725
 5840SOL    MW423134   0.490   3.357   2.225 -0.0950  0.1163  0.5131
 5841SOL     OW23135   0.013   0.434   2.766 -0.8820 -0.1835  0.6395
 5841SOL    HW223136   0.023   0.509   2.825  1.8207  0.1984 -0.1710
 5841SOL    HW323137   0.036   0.468   2.680 -3.3200 -1.0995 -0.4644
 5841SOL    MW423138   0.017   0.448   2.762 -0.8470 -0.2540  0.3869
 5842SOL     OW23139   6.099   0.293   0.067 -0.1771  0.1275  0.2558
 5842SOL    HW223140   6.101   0.360  -0.002  1.3147  0.4447  0.5698
 5842SOL    HW323141   6.010   0.298   0.103 -0.2834  1.4940 -0.1484
 5842SOL    MW423142   6.087   0.302   0.062  0.0057  0.3497  0.2439
 5843SOL     OW23143   1.164   4.969   0.281  0.2044 -0.2998 -0.1475
 5843SOL    HW223144   1.080   4.961   0.237 -0.5137  2.1754  0.5907
 5843SOL    HW323145   1.229   4.940   0.217 -0.8610  2.3134 -2.5822
 5843SOL    MW423146   1.162   4.964   0.267 -0.0309  0.3715 -0.3713
 5844SOL     OW23147   3.823   2.748   0.623  0.2774 -0.2652  0.4661
 5844SOL    HW223148   3.865   2.787   0.547  0.7622 -0.2488  0.7381
 5844SOL    HW323149   3.785   2.822   0.671 -1.5533 -0.4100 -0.6373
 5844SOL    MW423150   3.823   2.763   0.620  0.0998 -0.2821  0.3564
 5845SOL     OW23151   2.033   0.552   3.367  0.0657 -0.1686  0.0197
 5845SOL    HW223152   2.105   0.613   3.352 -0.3399 -0.0402 -1.6114
 5845SOL    HW323153   2.005   0.570   3.457 -0.0530  2.0637 -0.4126
 5845SOL    MW423154   2.039   0.563   3.377 -0.0034  0.1429 -0.2525
 5846SOL     OW23155   3.737   6.330   4.162 -0.0622  0.0309  0.3891
 5846SOL    HW223156   3.714   6.338   4.255  0.7990 -1.7007  0.7805
 5846SOL    HW323157   3.833   6.340   4.160  0.1217 -1.6414 -0.0854
 5846SOL    MW423158   3.747   6.333   4.174  0.0757 -0.4182  0.3781
 5847SOL     OW23159   0.171   1.190   2.305 -0.1897 -0.0085 -0.0017
 5847SOL    HW223160   0.194   1.178   2.213 -0.7488 -1.0331 -0.0242
 5847SOL    HW323161   0.223   1.125   2.352 -0.9158 -0.4208  0.2505
 5847SOL    MW423162   0.181   1.180   2.299 -0.3593 -0.1981  0.0286
 5848SOL     OW23163   3.792   4.210   4.906  0.1745 -0.9289 -0.3180
 5848SOL    HW223164   3.832   4.206   4.994 -1.0265 -2.4759  0.2008
 5848SOL    HW323165   3.861   4.180   4.847  0.5136 -1.3816  0.2950
 5848SOL    MW423166   3.806   4.205   4.910  0.0608 -1.1927 -0.1687
 5849SOL     OW23167   3.426   4.871   3.017 -0.4109  0.2618  0.2235
 5849SOL    HW223168   3.488   4.942   3.029  0.2138 -0.3227  0.5798
 5849SOL    HW323169   3.346   4.912   2.984  0.1729  1.0191 -0.2446
 5849SOL    MW423170   3.424   4.886   3.015 -0.2515  0.2846  0.2088
 5850SOL     OW23171   3.680   4.790   5.481  0.3518 -0.3622 -0.3644
 5850SOL    HW223172   3.740   4.716   5.487  0.8727 -0.0178 -1.1890
 5850SOL    HW323173   3.699   4.830   5.396 -1.5382 -0.6519 -0.9760
 5850SOL    MW423174   3.691   4.786   5.471  0.1711 -0.3550 -0.5539
 5851SOL     OW23175   5.001   2.727   5.273 -0.1623 -0.7448 -0.4377
 5851SOL    HW223176   5.008   2.806   5.327  0.9562 -0.6990 -0.6319
 5851SOL    HW323177   4.911   2.729   5.240 -0.5202 -0.1911  0.5257
 5851SOL    MW423178   4.990   2.738   5.276 -0.0620 -0.6657 -0.3362
 5852SOL     OW23179   5.215   3.773   5.862 -0.4165 -0.1093 -1.2195
 5852SOL    HW223180   5.237   3.683   5.885  1.8744  0.5598 -0.5556
 5852SOL    HW323181   5.234   3.779   5.768  1.9544  0.3075 -0.7662
 5852SOL    MW423182   5.221   3.762   5.853  0.1986  0.0339 -1.0721
 5853SOL     OW23183   4.096   2.319   3.885 -0.0553  0.4759 -0.4391
 5853SOL    HW223184   4.140   2.262   3.948 -0.7130  1.7577  1.2410
 5853SOL    HW323185   4.167   2.356   3.832  0.4772 -0.8589 -0.6925
 5853SOL    MW423186   4.111   2.317   3.886 -0.0718  0.4689 -0.2508
 5854SOL     OW23187   3.329   4.535   4.577  0.1797 -0.0005  0.6465
 5854SOL    HW223188   3.410   4.579   4.553 -0.0111 -0.5456 -1.1959
 5854SOL    HW323189   3.262   4.577   4.523 -0.5952 -0.2179  1.4222
 5854SOL    MW423190   3.331   4.546   4.566  0.0523 -0.1011  0.5058
 5855SOL     OW23191   1.878   0.313   1.236 -0.3990 -0.0047  0.5417
 5855SOL    HW223192   1.939   0.245   1.206 -0.1449  0.4898 -0.0914
 5855SOL    HW323193   1.804   0.307   1.176 -0.4726  0.1412  0.6173
 5855SOL    MW423194   1.876   0.303   1.224 -0.3752  0.0798  0.4681
 5856SOL     OW23195   5.883   1.922   2.511 -0.2787  0.2196  0.4991
 5856SOL    HW223196   5.804   1.923   2.457 -1.1838 -0.9536  1.7173
 5856SOL    HW323197   5.953   1.952   2.453 -1.3517 -0.1993 -1.0698
 5856SOL    MW423198   5.882   1.926   2.496 -0.5397  0.0096  0.4528
 5857SOL     OW23199   4.785   5.177   2.185  0.4731 -0.4178  0.1435
 5857SOL    HW223200   4.744   5.134   2.260 -2.1938 -1.5880 -1.8013
 5857SOL    HW323201   4.717   5.235   2.151  1.9761  0.8871 -0.7748
 5857SOL    MW423202   4.770   5.179   2.190  0.3195 -0.4000 -0.2343
 5858SOL     OW23203   1.010   1.828   3.310  0.1241 -0.0439 -0.0097
 5858SOL    HW223204   0.936   1.831   3.370  1.0553 -0.2007  1.1646
 5858SOL    HW323205   1.022   1.919   3.283 -0.6411 -0.0491 -0.4142
 5858SOL    MW423206   1.002   1.840   3.314  0.1460 -0.0653  0.0918
 5859SOL     OW23207   3.917   4.242   3.313  0.5001 -0.1409 -0.3516
 5859SOL    HW223208   3.937   4.204   3.399 -3.1140  2.0066  1.7271
 5859SOL    HW323209   3.970   4.322   3.309  0.4080 -0.0559  0.0733
 5859SOL    MW423210   3.927   4.247   3.324  0.0111  0.1536 -0.0213
 5860SOL     OW23211   5.697   4.692   3.460  0.3442  0.3831 -0.1417
 5860SOL    HW223212   5.672   4.614   3.510 -0.6860 -0.2284 -1.5131
 5860SOL    HW323213   5.753   4.658   3.390 -0.9343  0.6749 -1.3535
 5860SOL    MW423214   5.701   4.677   3.457  0.0396  0.3410 -0.4825
 5861SOL     OW23215   4.012   3.720   2.017  0.1193 -0.5861 -0.0235
 5861SOL    HW223216   4.002   3.756   2.105 -0.9994 -0.8638 -0.0164
 5861SOL    HW323217   3.958   3.776   1.961 -0.5548 -1.4168 -0.2325
 5861SOL    MW423218   4.004   3.732   2.021 -0.1172 -0.7324 -0.0501
 5862SOL     OW23219   0.624   0.282   1.527  0.0674 -0.8836  0.1817
 5862SOL    HW223220   0.561   0.269   1.456 -1.7514  1.4521  1.2102
 5862SOL    HW323221   0.701   0.319   1.483 -1.1939  0.9835 -0.6238
 5862SOL    MW423222   0.626   0.286   1.512 -0.3390 -0.3291  0.2111
 5863SOL     OW23223   1.649   3.402   4.404  0.2793 -0.0585 -0.5986
 5863SOL    HW223224   1.633   3.450   4.485 -0.4817 -0.3887 -0.5508
 5863SOL    HW323225   1.621   3.463   4.335 -5.3470 -1.9450 -0.4818
 5863SOL    MW423226   1.643   3.417   4.405 -0.5634 -0.3510 -0.5769
 5864SOL     OW23227   0.620   0.442   4.175  0.2769  0.2092  0.0269
 5864SOL    HW223228   0.680   0.378   4.214  0.4000  0.3726  0.1108
 5864SOL    HW323229   0.573   0.394   4.108 -1.1453 -0.5395  1.4837
 5864SOL    MW423230   0.622   0.427   4.171  0.1055  0.1320  0.2301
 5865SOL     OW23231   5.627   2.631   5.010 -0.3917 -0.3539 -0.2523
 5865SOL    HW223232   5.719   2.656   5.002 -0.6234  1.1816  1.3260
 5865SOL    HW323233   5.629   2.549   5.058  0.2149 -1.5489 -2.2016
 5865SOL    MW423234   5.640   2.624   5.015 -0.3423 -0.3089 -0.3013
 5866SOL     OW23235   0.951   0.406   5.396 -0.1229  0.4434  0.2827
 5866SOL    HW223236   0.933   0.313   5.404 -0.1581  0.3306 -0.9011
 5866SOL    HW323237   0.882   0.440   5.339  0.5147  0.9722 -0.1995
 5866SOL    MW423238   0.940   0.398   5.389 -0.0434  0.4983  0.0629
 5867SOL     OW23239   0.659   0.251   3.610 -0.3383  0.5013  0.1275
 5867SOL    HW223240   0.604   0.181   3.646  0.2868  0.0224  0.1571
 5867SOL    HW323241   0.746   0.234   3.645 -0.2651  1.5550  0.4990
 5867SOL    MW423242   0.663   0.240   3.620 -0.2461  0.5771  0.1804
 5868SOL     OW23243   1.316   3.874   3.576  0.0192  0.3101  0.6727
 5868SOL    HW223244   1.259   3.896   3.650  0.5026  1.3328  0.7673
 5868SOL    HW323245   1.350   3.787   3.596 -0.6103  0.1749  1.1764
 5868SOL    MW423246   1.313   3.866   3.588 -0.0000  0.4272  0.7516
 5869SOL     OW23247   5.620   4.658   1.626  0.2013  0.0101  0.8485
 5869SOL    HW223248   5.525   4.654   1.615  0.0933  2.1365  0.4689
 5869SOL    HW323249   5.633   4.726   1.692  1.4918  0.8491 -0.2258
 5869SOL    MW423250   5.609   4.667   1.634  0.3573  0.4013  0.6567
 5870SOL     OW23251   5.951   2.722   1.225 -0.1071 -0.0308  0.1717
 5870SOL    HW223252   6.025   2.778   1.248 -0.0667  1.5063 -3.0793
 5870SOL    HW323253   5.983   2.633   1.236  1.6146  0.6038  0.5612
 5870SOL    MW423254   5.965   2.718   1.229  0.1254  0.2557 -0.2059
 5871SOL     OW23255   4.449   3.846   4.332 -0.7129 -0.1888 -0.4034
 5871SOL    HW223256   4.513   3.902   4.289 -0.5532 -0.0910 -0.0470
 5871SOL    HW323257   4.495   3.762   4.344 -0.6232 -0.1003 -0.0946
 5871SOL    MW423258   4.464   3.842   4.328 -0.6800 -0.1642 -0.3156
 5872SOL     OW23259   1.634   1.734   6.126 -0.4659  0.4088  0.0123
 5872SOL    HW223260   1.633   1.814   6.178 -0.7748  0.4672 -0.0813
 5872SOL    HW323261   1.548   1.696   6.140  0.0502 -0.4715  0.9186
 5872SOL    MW423262   1.623   1.740   6.135 -0.4386  0.3004  0.1195
 5873SOL     OW23263   3.170   1.035   4.053 -0.1233  0.4690 -0.0109
 5873SOL    HW223264   3.262   1.022   4.030  0.0793 -1.6582  1.6627
 5873SOL    HW323265   3.124   1.036   3.970  1.3898  1.6592 -0.8928
 5873SOL    MW423266   3.176   1.033   4.039  0.1030  0.3454  0.0936
 5874SOL     OW23267   3.474   2.330   5.427 -0.1362 -0.3824 -0.0342
 5874SOL    HW223268   3.384   2.356   5.409  0.2074  1.3650  0.6103
 5874SOL    HW323269   3.482   2.243   5.387 -1.9254 -0.3404 -0.5785
 5874SOL    MW423270   3.463   2.322   5.420 -0.3269 -0.1463 -0.0210
 5875SOL     OW23271   5.437   2.758   4.836  0.5051  0.7596 -0.0929
 5875SOL    HW223272   5.495   2.714   4.898  0.4275 -0.9388 -1.1677
 5875SOL    HW323273   5.410   2.838   4.881  2.8663  1.1327  0.8513
 5875SOL    MW423274   5.441   2.763   4.850  0.8064  0.5847 -0.1101
 5876SOL     OW23275   5.385   5.558   6.084  0.9153  0.3281 -0.0572
 5876SOL    HW223276   5.377   5.463   6.092 -3.2133  0.5326  0.8625
 5876SOL    HW323277   5.383   5.575   5.990  0.5079 -0.4941 -0.2073
 5876SOL    MW423278   5.383   5.548   6.073  0.3168  0.2466  0.0443
 5877SOL     OW23279   0.753   3.651   0.527  0.1581  0.3941  0.0182
 5877SOL    HW223280   0.808   3.639   0.604 -1.4151 -0.2914  1.0883
 5877SOL    HW323281   0.689   3.717   0.553  0.1903  0.8632 -1.0405
 5877SOL    MW423282   0.752   3.658   0.541 -0.0452  0.3655  0.0197
 5878SOL     OW23283   5.087   4.868   5.780 -0.1827 -0.0039  0.0052
 5878SOL    HW223284   5.176   4.845   5.751  0.1181  2.0173 -0.8460
 5878SOL    HW323285   5.100   4.920   5.860 -0.5190  0.9239 -0.5224
 5878SOL    MW423286   5.101   4.872   5.787 -0.1874  0.3852 -0.1768
 5879SOL     OW23287   4.397   4.023   2.179 -0.2986 -0.2411 -0.2852
 5879SOL    HW223288   4.404   4.115   2.156 -3.4188  0.0780 -0.3889
 5879SOL    HW323289   4.361   3.981   2.100  2.7609 -2.0013 -0.9264
 5879SOL    MW423290   4.393   4.029   2.166 -0.3066 -0.4312 -0.3835
 5880SOL     OW23291   0.533   3.537   3.245 -0.0182  0.5394 -0.3252
 5880SOL    HW223292   0.494   3.451   3.259 -1.3202  1.3082  1.0491
 5880SOL    HW323293   0.527   3.552   3.151  0.4568 -0.9537 -0.6129
 5880SOL    MW423294   0.527   3.528   3.234 -0.1273  0.4439 -0.1818
 5881SOL     OW23295   4.869   3.524   3.225  0.2974  0.1602 -0.3964
 5881SOL    HW223296   4.893   3.459   3.291  0.4999  0.8731  0.2529
 5881SOL    HW323297   4.889   3.482   3.142  2.3211  0.1081  0.0575
 5881SOL    MW423298   4.875   3.510   3.223  0.5911  0.2474 -0.2508
 5882SOL     OW23299   1.568   5.989   1.343  0.1091  0.2050 -0.3603
 5882SOL    HW223300   1.484   5.971   1.300 -1.0363  1.6460  1.1542
 5882SOL    HW323301   1.611   5.904   1.348 -1.7659 -0.7786 -0.1792
 5882SOL    MW423302   1.563   5.976   1.338 -0.2894  0.2653 -0.1366
 5883SOL     OW23303   2.101   6.046   1.507 -0.2631 -0.8665  0.3112
 5883SOL    HW223304   2.154   6.036   1.429 -0.6829  0.6433 -0.2071
 5883SOL    HW323305   2.023   6.093   1.477 -0.3242 -0.0447  1.6611
 5883SOL    MW423306   2.097   6.051   1.493 -0.3266 -0.5589  0.4209
 5884SOL     OW23307   1.529   1.994   3.872 -0.0768 -0.4705  0.0140
 5884SOL    HW223308   1.579   1.998   3.953 -0.5087 -2.8539  0.4657
 5884SOL    HW323309   1.477   1.914   3.879 -1.9564  0.5179 -1.5923
 5884SOL    MW423310   1.529   1.984   3.884 -0.3817 -0.6545 -0.1383
 5885SOL     OW23311   4.902   0.673   1.104  0.0397 -0.7240 -0.6236
 5885SOL    HW223312   4.855   0.656   1.186 -0.6755  1.2927 -0.5626
 5885SOL    HW323313   4.837   0.660   1.036  0.1910 -0.7607 -0.7624
 5885SOL    MW423314   4.888   0.669   1.106 -0.0347 -0.4628 -0.6339
 5886SOL     OW23315   3.904   5.356   5.923  0.3781 -0.0778 -0.3989
 5886SOL    HW223316   3.875   5.405   6.000  0.1973 -0.6432 -0.0982
 5886SOL    HW323317   3.973   5.409   5.884 -0.3154  0.7664 -0.4972
 5886SOL    MW423318   3.909   5.369   5.928  0.2628 -0.0410 -0.3722
 5887SOL     OW23319   1.247   0.290   6.169  0.3800 -0.4199  0.2112
 5887SOL    HW223320   1.213   0.379   6.167 -0.1563 -0.6337 -0.6330
 5887SOL    HW323321   1.279   0.274   6.080  1.5070 -0.6911  0.6449
 5887SOL    MW423322   1.247   0.299   6.157  0.4579 -0.4839  0.1570
 5888SOL     OW23323   1.366   0.206   4.168 -0.0687  0.0949  0.6620
 5888SOL    HW223324   1.418   0.134   4.133 -1.0667 -0.3617  0.0894
 5888SOL    HW323325   1.397   0.283   4.121 -1.1996 -0.4662 -1.0675
 5888SOL    MW423326   1.377   0.207   4.157 -0.3496 -0.0394  0.3583
 5889SOL     OW23327   4.274   0.849   3.822  0.2987  0.7247  0.2431
 5889SOL    HW223328   4.267   0.762   3.783 -1.3898  1.3136 -0.8933
 5889SOL    HW323329   4.239   0.838   3.911 -3.0951  0.7838 -0.9182
 5889SOL    MW423330   4.268   0.836   3.829 -0.3719  0.8102 -0.0601
 5890SOL     OW23331   6.381   0.030   1.266  0.9140 -0.0136 -0.3870
 5890SOL    HW223332   6.453  -0.013   1.220 -0.8545 -2.5010 -1.0249
 5890SOL    HW323333   6.302  -0.006   1.226 -0.7240  1.9174  0.9130
 5890SOL    MW423334   6.380   0.019   1.255  0.4646 -0.0870 -0.2997
 5891SOL     OW23335   4.409   3.379   3.247  0.1998 -0.4930 -0.0431
 5891SOL    HW223336   4.466   3.456   3.254  0.5363 -0.6845 -0.6097
 5891SOL    HW323337   4.340   3.406   3.187  0.9271 -0.9825 -1.1275
 5891SOL    MW423338   4.407   3.393   3.240  0.3402 -0.5828 -0.2609
 5892SOL     OW23339   0.069   3.934   1.288  0.1932  0.2850  0.1564
 5892SOL    HW223340   0.025   3.918   1.205  1.0775  0.3438 -0.3357
 5892SOL    HW323341   0.115   3.852   1.308 -2.4253 -0.8456  2.1538
 5892SOL    MW423342   0.070   3.921   1.280 -0.0356  0.1436  0.3550
 5893SOL     OW23343   4.546   5.309   2.159 -0.8295  0.5216  0.1951
 5893SOL    HW223344   4.517   5.218   2.152  3.0425 -0.9589  1.0207
 5893SOL    HW323345   4.548   5.340   2.068 -0.6226 -0.7919 -0.2680
 5893SOL    MW423346   4.542   5.301   2.146 -0.2914  0.1529  0.2429
 5894SOL     OW23347   6.263   0.111   0.487 -0.3614 -0.5029 -0.1359
 5894SOL    HW223348   6.265   0.140   0.396 -0.6168  0.0608  0.0357
 5894SOL    HW323349   6.339   0.152   0.528  0.4641 -1.7425 -0.3787
 5894SOL    MW423350   6.273   0.120   0.481 -0.2862 -0.5920 -0.1453
 5895SOL     OW23351   5.113   0.801   4.555  0.4870 -0.2384 -0.0829
 5895SOL    HW223352   5.172   0.726   4.546  1.5784  0.3024  1.8628
 5895SOL    HW323353   5.161   0.862   4.612 -1.2492  1.0067  0.1251
 5895SOL    MW423354   5.127   0.799   4.562  0.4019 -0.0028  0.2013
 5896SOL     OW23355   2.602   4.440   1.140  0.3500 -0.4729 -0.7305
 5896SOL    HW223356   2.545   4.385   1.085  0.6716 -1.4094 -0.1455
 5896SOL    HW323357   2.556   4.524   1.145 -0.7498 -1.0592 -0.6675
 5896SOL    MW423358   2.588   4.444   1.133  0.2473 -0.6738 -0.6450
 5897SOL     OW23359   6.047   1.030   0.718  0.0702  0.7475 -0.5825
 5897SOL    HW223360   6.111   0.982   0.771  0.3780  0.2199 -1.4081
 5897SOL    HW323361   5.963   0.989   0.739  0.1641  0.6535 -0.3817
 5897SOL    MW423362   6.044   1.018   0.728  0.1232  0.6655 -0.6649
 5898SOL     OW23363   1.715   4.303   4.070 -0.2599 -0.4345  0.3005
 5898SOL    HW223364   1.720   4.308   4.165 -2.9552  0.3507  0.4690
 5898SOL    HW323365   1.742   4.389   4.040 -0.4016 -0.3448  0.4268
 5898SOL    MW423366   1.719   4.315   4.079 -0.6342 -0.3190  0.3394
 5899SOL     OW23367   0.310   1.987   0.857  0.2884  0.5597  0.2505
 5899SOL    HW223368   0.231   1.998   0.909 -2.5140  1.9748 -3.8281
 5899SOL    HW323369   0.305   1.896   0.825 -0.4980  1.0395 -1.0607
 5899SOL    MW423370   0.299   1.976   0.860 -0.1851  0.8097 -0.4606
 5900SOL     OW23371   3.486   2.737   1.106  0.5755  0.4844 -0.0275
 5900SOL    HW223372   3.576   2.767   1.116  0.4699  0.9247 -0.3555
 5900SOL    HW323373   3.493   2.657   1.054  0.7487  0.7093 -0.3510
 5900SOL    MW423374   3.498   2.731   1.101  0.5844  0.5721 -0.1134
 5901SOL     OW23375   5.593   0.966   5.612  0.7145 -0.6240 -0.0177
 5901SOL    HW223376   5.546   1.007   5.539  1.6158  0.9000  0.2176
 5901SOL    HW323377   5.658   0.910   5.570  0.3311 -0.8172 -0.3637
 5901SOL    MW423378   5.595   0.964   5.597  0.7828 -0.4484 -0.0323
 5902SOL     OW23379   5.173   1.136   4.373  0.3889  0.6727 -0.1849
 5902SOL    HW223380   5.159   1.228   4.349 -0.2082  0.6921  0.2021
 5902SOL    HW323381   5.147   1.131   4.465  0.8013  0.1960 -0.0906
 5902SOL    MW423382   5.167   1.147   4.382  0.3645  0.6124 -0.1214
 5903SOL     OW23383   1.416   6.054   2.907  0.3140  0.2768  0.2946
 5903SOL    HW223384   1.394   6.061   3.000  2.5086  0.0879  0.8816
 5903SOL    HW323385   1.419   6.144   2.876  0.3650  0.3822  0.6038
 5903SOL    MW423386   1.413   6.066   2.916  0.6103  0.2658  0.4129
 5904SOL     OW23387   2.704   2.178   4.797 -0.0918 -0.2884  0.7746
 5904SOL    HW223388   2.734   2.110   4.736  1.7580 -1.2910  2.6684
 5904SOL    HW323389   2.751   2.257   4.769 -0.7029 -0.2554 -0.2086
 5904SOL    MW423390   2.714   2.179   4.785  0.0716 -0.4164  0.8947
 5905SOL     OW23391   2.187   0.018   1.606  0.0448 -0.4730 -0.2895
 5905SOL    HW223392   2.150   0.106   1.605  1.5019  0.2157  1.1738
 5905SOL    HW323393   2.149  -0.024   1.683  2.0001  0.1690  1.1007
 5905SOL    MW423394   2.177   0.024   1.616  0.4950 -0.2974  0.0870
 5906SOL     OW23395   4.952   5.686   1.436  0.2771 -0.4379  0.5100
 5906SOL    HW223396   4.978   5.777   1.418 -3.1059  0.9379  1.7749
 5906SOL    HW323397   4.986   5.669   1.524 -1.9092  0.9761  1.7307
 5906SOL    MW423398   4.960   5.696   1.445 -0.4577 -0.0698  0.8380
 5907SOL     OW23399   5.430   4.295   1.320 -0.0182  0.2437 -0.2260
 5907SOL    HW223400   5.513   4.273   1.363 -0.5329  1.9916  1.7988
 5907SOL    HW323401   5.451   4.292   1.226  2.4913  1.0798  0.2296
 5907SOL    MW423402   5.444   4.291   1.313  0.2450  0.5846  0.1013
 5908SOL     OW23403   2.628   1.467   4.105 -0.2596  0.1493 -0.0306
 5908SOL    HW223404   2.618   1.535   4.038 -1.2193  0.9726  0.9031
 5908SOL    HW323405   2.714   1.484   4.143  0.1178 -0.0720 -0.7717
 5908SOL    MW423406   2.638   1.479   4.101 -0.3364  0.2287 -0.0052
 5909SOL     OW23407   1.494   4.565   5.295  0.4213  0.0098  0.4917
 5909SOL    HW223408   1.418   4.598   5.342  0.8547  0.9808  0.5475
 5909SOL    HW323409   1.515   4.635   5.233  1.6814  0.0742  0.9660
 5909SOL    MW423410   1.487   4.579   5.293  0.6448  0.1464  0.5616
 5910SOL     OW23411   3.020   4.712   3.690  0.0445  0.8854 -0.4407
 5910SOL    HW223412   2.950   4.778   3.691 -0.6970  0.1593 -1.7651
 5910SOL    HW323413   3.093   4.754   3.736 -1.4106  1.4570  1.5033
 5910SOL    MW423414   3.020   4.726   3.696 -0.2453  0.8651 -0.3589
 5911SOL     OW23415   2.886   0.783   2.508  0.0352  0.1021  0.8183
 5911SOL    HW223416   2.963   0.825   2.471 -1.3448  1.0659 -1.1680
 5911SOL    HW323417   2.897   0.790   2.603  1.2097  2.3895  0.5699
 5911SOL    MW423418   2.898   0.789   2.516  0.0081  0.5311  0.5235
 5912SOL     OW23419   1.172   1.986   6.292  0.2027 -0.7501 -0.1485
 5912SOL    HW223420   1.158   1.893   6.275 -1.4679 -0.4865 -0.3703
 5912SOL    HW323421   1.126   2.030   6.220  1.2126  0.2486 -0.2030
 5912SOL    MW423422   1.164   1.980   6.280  0.1155 -0.5836 -0.1849
 5913SOL     OW23423   3.464   5.481   3.720  0.2202  0.6936  0.1470
 5913SOL    HW223424   3.504   5.465   3.805 -1.9219 -1.0645  0.9343
 5913SOL    HW323425   3.386   5.533   3.740 -1.5348 -1.6099 -0.3716
 5913SOL    MW423426   3.459   5.486   3.734 -0.2940  0.1577  0.1824
 5914SOL     OW23427   2.044   2.967   6.106 -0.3877  0.4490 -0.2124
 5914SOL    HW223428   2.064   2.882   6.147 -0.1477  1.7567  2.6531
 5914SOL    HW323429   1.986   2.945   6.034 -0.3836 -2.1646  0.4490
 5914SOL    MW423430   2.039   2.953   6.102 -0.3555  0.2767  0.2529
 5915SOL     OW23431   6.401   3.647   1.415 -0.0738  0.2482  0.5356
 5915SOL    HW223432   6.374   3.560   1.444 -0.9845  0.3989  0.1634
 5915SOL    HW323433   6.332   3.706   1.446  0.3970  0.8133  0.5485
 5915SOL    MW423434   6.388   3.644   1.423 -0.1318  0.3427  0.4882
 5916SOL     OW23435   6.339   2.489   4.181 -0.1232  0.1739 -0.3927
 5916SOL    HW223436   6.367   2.439   4.258  0.4852  1.1248  0.0225
 5916SOL    HW323437   6.398   2.460   4.111  1.0222  1.1634  0.1400
 5916SOL    MW423438   6.350   2.478   4.182  0.1082  0.4299 -0.2677
 5917SOL     OW23439   5.273   4.665   4.102  0.1399  0.6861  0.4407
 5917SOL    HW223440   5.183   4.686   4.076  0.1422 -0.1403 -0.3015
 5917SOL    HW323441   5.263   4.613   4.182 -0.3207 -2.2534 -1.3531
 5917SOL    MW423442   5.260   4.661   4.109  0.0794  0.1892  0.1061
 5918SOL     OW23443   4.413   4.150   4.640  0.3705 -0.4423 -0.1713
 5918SOL    HW223444   4.495   4.188   4.609 -0.0156  0.6567  0.1230
 5918SOL    HW323445   4.366   4.127   4.560 -0.6363  2.3986 -0.5032
 5918SOL    MW423446   4.418   4.152   4.625  0.1867  0.0775 -0.1763
 5919SOL     OW23447   0.035   1.450   0.564 -0.2687 -0.6311  0.3546
 5919SOL    HW223448   0.061   1.542   0.570  1.1050 -0.9379 -0.4212
 5919SOL    HW323449   0.053   1.426   0.473 -1.7436 -1.3501  0.2376
 5919SOL    MW423450   0.041   1.459   0.552 -0.2821 -0.7664  0.2368
 5920SOL     OW23451   2.205   1.111   1.944 -0.1402  0.2391  0.0692
 5920SOL    HW223452   2.240   1.046   2.004 -0.6239 -0.3884 -0.3238
 5920SOL    HW323453   2.206   1.193   1.994  1.2776  0.1139  0.2826
 5920SOL    MW423454   2.210   1.113   1.958 -0.0170  0.1398  0.0455
 5921SOL     OW23455   1.496   5.569   1.256  0.1981 -0.5939 -0.4635
 5921SOL    HW223456   1.511   5.544   1.165  1.7015 -1.4392 -0.0190
 5921SOL    HW323457   1.445   5.496   1.292 -0.3645 -0.2771 -0.6065
 5921SOL    MW423458   1.491   5.556   1.249  0.3222 -0.6636 -0.4237
 5922SOL     OW23459   5.118   5.989   5.743 -0.4546  0.3294  0.0256
 5922SOL    HW223460   5.098   5.994   5.649 -0.4418  0.9083  0.0531
 5922SOL    HW323461   5.100   5.898   5.766 -0.9143  0.2964 -0.4395
 5922SOL    MW423462   5.113   5.978   5.734 -0.5136  0.4014 -0.0321
 5923SOL     OW23463   1.749   5.581   1.441 -0.2646  0.0461 -0.0309
 5923SOL    HW223464   1.730   5.656   1.384 -0.4276 -1.5220 -2.1541
 5923SOL    HW323465   1.718   5.505   1.392 -0.4882 -1.4191  2.2357
 5923SOL    MW423466   1.742   5.581   1.427 -0.3156 -0.3541 -0.0120
 5924SOL     OW23467   0.162   4.064   4.228  0.1147 -0.0259  0.2568
 5924SOL    HW223468   0.209   4.133   4.275 -0.8364  0.4416  0.5474
 5924SOL    HW323469   0.110   4.020   4.295 -0.7461  0.2182 -0.2376
 5924SOL    MW423470   0.161   4.068   4.243 -0.1243  0.0680  0.2299
 5925SOL     OW23471   0.447   0.374   3.213  0.9378  0.0730  0.2588
 5925SOL    HW223472   0.494   0.436   3.157 -0.2796  0.1867 -0.6814
 5925SOL    HW323473   0.515   0.318   3.249  1.8249  0.3421 -0.9214
 5925SOL    MW423474   0.462   0.375   3.210  0.8942  0.1235 -0.0210
 5926SOL     OW23475   4.360   2.765   3.166  0.4922  0.3157  0.4671
 5926SOL    HW223476   4.415   2.843   3.153  0.8906  0.0436  0.4862
 5926SOL    HW323477   4.275   2.800   3.193  0.2404  0.8099 -0.8641
 5926SOL    MW423478   4.356   2.780   3.168  0.5115  0.3450  0.2940
 5927SOL     OW23479   0.175   1.142   1.029  0.4670 -0.0384 -0.3152
 5927SOL    HW223480   0.145   1.056   1.060  0.0063 -0.2009 -1.1977
 5927SOL    HW323481   0.243   1.122   0.966  0.7257  0.2680 -0.1354
 5927SOL    MW423482   0.180   1.128   1.025  0.4403 -0.0194 -0.4079
 5928SOL     OW23483   1.609   1.965   2.069  1.1167  0.2186 -0.2980
 5928SOL    HW223484   1.667   1.891   2.087  1.1409  0.2535 -0.2314
 5928SOL    HW323485   1.605   1.970   1.974 -0.5396 -1.1721 -0.3449
 5928SOL    MW423486   1.616   1.956   2.059  0.9014  0.0397 -0.2954
 5929SOL     OW23487   1.614   0.116   1.577  0.1796 -0.0854 -0.6298
 5929SOL    HW223488   1.564   0.038   1.602 -1.3068  1.4507  1.6430
 5929SOL    HW323489   1.682   0.123   1.645  0.5198  0.4015 -1.0156
 5929SOL    MW423490   1.617   0.106   1.589  0.0283  0.1815 -0.3809
 5930SOL     OW23491   1.905   1.466   5.037 -0.3648  0.1302 -0.1032
 5930SOL    HW223492   1.848   1.393   5.012 -0.5022 -0.8775  2.8474
 5930SOL    HW323493   1.972   1.427   5.093  0.7626  1.9750 -0.0905
 5930SOL    MW423494   1.906   1.451   5.041 -0.2342  0.2406  0.2878
 5931SOL     OW23495   3.505   0.271   1.936  0.0577  0.8050 -0.1196
 5931SOL    HW223496   3.442   0.223   1.882 -0.5324  2.5215 -1.0203
 5931SOL    HW323497   3.459   0.284   2.019  1.2103 -2.4281  1.2115
 5931SOL    MW423498   3.490   0.266   1.940  0.1319  0.6049 -0.0628
 5932SOL     OW23499   5.591   2.114   5.349  0.0110  0.7922 -0.3461
 5932SOL    HW223500   5.505   2.075   5.361  0.3237  0.0913 -0.3104
 5932SOL    HW323501   5.638   2.094   5.431  0.5460  0.2411 -0.7709
 5932SOL    MW423502   5.586   2.106   5.361  0.1228  0.6270 -0.3974
 5933SOL     OW23503   6.306   6.092   4.758 -0.4180 -0.1398  0.0842
 5933SOL    HW223504   6.389   6.046   4.768 -0.6242 -0.1537  1.9536
 5933SOL    HW323505   6.313   6.135   4.672  0.0074 -3.1184 -1.5088
 5933SOL    MW423506   6.318   6.091   4.748 -0.3891 -0.5346  0.1207
 5934SOL     OW23507   6.227   4.734   3.211  0.1283 -0.1210  0.4299
 5934SOL    HW223508   6.262   4.680   3.281  0.0819 -2.1959 -1.0633
 5934SOL    HW323509   6.301   4.787   3.182  0.3579  0.1451  1.4520
 5934SOL    MW423510   6.241   4.734   3.217  0.1525 -0.3596  0.3678
 5935SOL     OW23511   0.497   5.585   2.159  0.2444  0.2464  0.4180
 5935SOL    HW223512   0.515   5.509   2.214 -4.9772 -0.0848  2.2578
 5935SOL    HW323513   0.507   5.660   2.218 -1.2434  0.2751  0.6717
 5935SOL    MW423514   0.500   5.585   2.174 -0.6408  0.2065  0.6942
 5936SOL     OW23515   2.332   2.753   1.436  0.3191  0.2122 -0.2695
 5936SOL    HW223516   2.310   2.783   1.524  1.8694 -0.4939  0.3950
 5936SOL    HW323517   2.362   2.832   1.390 -2.1929  0.9331 -0.7843
 5936SOL    MW423518   2.333   2.768   1.441  0.1922  0.2142 -0.2498
 5937SOL     OW23519   5.880   2.676   4.613  0.0212 -0.2599  0.2320
 5937SOL    HW223520   5.823   2.717   4.678 -0.4706 -0.3415 -0.1442
 5937SOL    HW323521   5.962   2.725   4.618 -1.2142  2.2005 -1.6928
 5937SOL    MW423522   5.883   2.688   4.622 -0.2067  0.0540 -0.0716
 5938SOL     OW23523   2.856   0.171   2.972  0.0715  0.0802  0.3580
 5938SOL    HW223524   2.881   0.125   3.052 -0.4089 -0.6221  0.1154
 5938SOL    HW323525   2.775   0.129   2.944  0.8478 -0.5240 -1.1464
 5938SOL    MW423526   2.849   0.159   2.979  0.1105 -0.0922  0.1275
 5939SOL     OW23527   1.634   4.624   4.304 -0.3274 -0.0342 -0.1372
 5939SOL    HW223528   1.689   4.657   4.375 -1.0594 -1.2811  1.0759
 5939SOL    HW323529   1.643   4.528   4.311 -0.4951 -0.1809 -1.6856
 5939SOL    MW423530   1.643   4.615   4.314 -0.4461 -0.2181 -0.1815
 5940SOL     OW23531   2.610   1.843   5.566 -0.2497 -0.3958 -0.4251
 5940SOL    HW223532   2.544   1.775   5.582  0.5074 -1.0132  0.2036
 5940SOL    HW323533   2.677   1.826   5.632 -0.6524  1.8051  0.6476
 5940SOL    MW423534   2.610   1.832   5.577 -0.2029 -0.1869 -0.2006
 5941SOL     OW23535   4.355   1.783   2.205  0.0661  0.1963 -0.7971
 5941SOL    HW223536   4.423   1.830   2.252  2.1744 -1.2215 -2.2711
 5941SOL    HW323537   4.339   1.704   2.257 -1.2752  0.9764  0.0675
 5941SOL    MW423538   4.362   1.779   2.218  0.1673  0.1122 -0.8775
 5942SOL     OW23539   3.295   4.364   2.104  0.2763 -0.6000 -0.2874
 5942SOL    HW223540   3.246   4.313   2.167  0.0470  0.3931  0.3619
 5942SOL    HW323541   3.235   4.434   2.077  1.5702  1.1916  1.2144
 5942SOL    MW423542   3.281   4.367   2.109  0.4168 -0.2326 -0.0036
 5943SOL     OW23543   0.619   5.657   3.054  0.4575 -0.2082 -0.6127
 5943SOL    HW223544   0.620   5.715   3.131 -0.3181 -0.4987 -0.3739
 5943SOL    HW323545   0.629   5.717   2.979 -0.6690  0.2802 -0.3877
 5943SOL    MW423546   0.621   5.673   3.054  0.2065 -0.1821 -0.5515
 5944SOL     OW23547   3.113   4.669   0.482 -0.4066  0.1885 -0.0357
 5944SOL    HW223548   3.110   4.611   0.406 -0.5055 -1.6872  1.3281
 5944SOL    HW323549   3.117   4.757   0.445  0.7866 -0.7096 -2.1935
 5944SOL    MW423550   3.113   4.673   0.467 -0.2622 -0.1775 -0.1404
 5945SOL     OW23551   3.888   3.482   0.987  0.4844 -0.3562 -0.2688
 5945SOL    HW223552   3.898   3.414   1.053  0.8469 -0.4292 -0.3991
 5945SOL    HW323553   3.923   3.443   0.907 -1.2216 -0.7972 -0.8598
 5945SOL    MW423554   3.894   3.468   0.985  0.3071 -0.4240 -0.3640
 5946SOL     OW23555   5.304   3.531   5.956  0.0587  0.2032  0.0599
 5946SOL    HW223556   5.341   3.493   5.876 -0.4710  0.5809 -0.3705
 5946SOL    HW323557   5.375   3.583   5.992 -0.1500  1.2691 -0.9915
 5946SOL    MW423558   5.318   3.533   5.950 -0.0387  0.3936 -0.1356
 5947SOL     OW23559   0.481   5.646   4.725  0.6510 -0.1960 -0.1544
 5947SOL    HW223560   0.497   5.677   4.636 -1.8154  0.7537 -0.3461
 5947SOL    HW323561   0.469   5.726   4.776  1.6945 -0.7393  0.9918
 5947SOL    MW423562   0.481   5.661   4.720  0.4633 -0.1424 -0.0285
 5948SOL     OW23563   4.610   5.729   6.077 -0.2419 -0.4426 -0.1761
 5948SOL    HW223564   4.572   5.803   6.125 -0.8013 -0.4821 -0.5550
 5948SOL    HW323565   4.702   5.727   6.105 -0.5173 -0.3529  0.7538
 5948SOL    MW423566   4.617   5.739   6.087 -0.3521 -0.4360 -0.1034
 5949SOL     OW23567   2.312   2.787   4.369 -0.4005  0.1509  0.0097
 5949SOL    HW223568   2.388   2.837   4.401  0.5808 -1.4720  0.3670
 5949SOL    HW323569   2.340   2.695   4.376 -2.6253 -0.5445  0.7248
 5949SOL    MW423570   2.326   2.781   4.374 -0.5646 -0.1550  0.1512
 5950SOL     OW23571   5.979   1.823   5.180  0.4914 -0.2051 -0.2415
 5950SOL    HW223572   5.928   1.901   5.159  2.4225  0.7114 -1.9106
 5950SOL    HW323573   6.031   1.807   5.101  3.8396 -0.1491  1.7445
 5950SOL    MW423574   5.979   1.831   5.167  1.1879 -0.0768 -0.1997
 5951SOL     OW23575   4.341   0.037   3.815  0.1899 -0.6251  0.0934
 5951SOL    HW223576   4.387   0.116   3.787 -3.2743  1.0400 -1.5915
 5951SOL    HW323577   4.377  -0.033   3.760  0.8510  0.5384 -0.9963
 5951SOL    MW423578   4.352   0.038   3.804 -0.1799 -0.2519 -0.2727
 5952SOL     OW23579   0.898   3.371   6.271  0.4213 -0.4650  0.5257
 5952SOL    HW223580   0.851   3.424   6.335  0.3497 -0.8006  0.7509
 5952SOL    HW323581   0.953   3.434   6.224  0.1118 -0.1440  0.5872
 5952SOL    MW423582   0.899   3.386   6.273  0.3711 -0.4669  0.5636
 5953SOL     OW23583   0.678   4.044   6.032 -0.2804  0.7040 -0.2934
 5953SOL    HW223584   0.757   3.999   6.061 -1.4890 -1.8210 -0.7004
 5953SOL    HW323585   0.684   4.044   5.937 -0.9232  0.1651 -0.3411
 5953SOL    MW423586   0.689   4.038   6.024 -0.5247  0.2998 -0.3534
 5954SOL     OW23587   3.870   4.518   4.196  0.3434  0.1626 -0.5176
 5954SOL    HW223588   3.850   4.569   4.118  0.3400 -0.1901 -0.7508
 5954SOL    HW323589   3.896   4.583   4.261  0.1342  0.4773 -0.7439
 5954SOL    MW423590   3.871   4.533   4.194  0.3153  0.1575 -0.5782
 5955SOL     OW23591   5.397   3.776   0.117 -0.4351  0.1744  0.0009
 5955SOL    HW223592   5.477   3.736   0.083 -0.3288  0.0307  0.4138
 5955SOL    HW323593   5.380   3.850   0.059  1.3579  1.7051  1.3339
 5955SOL    MW423594   5.405   3.780   0.105 -0.1845  0.3574  0.2312
 5956SOL     OW23595   3.121   3.137   5.307  0.2923  0.6085  0.3390
 5956SOL    HW223596   3.151   3.181   5.387 -1.1396  2.0236  0.1482
 5956SOL    HW323597   3.048   3.083   5.336  2.3237 -2.1987  0.6588
 5956SOL    MW423598   3.116   3.135   5.322  0.3714  0.4249  0.3560
 5957SOL     OW23599   0.218   1.333   5.519 -0.1935  0.3644 -0.1005
 5957SOL    HW223600   0.148   1.377   5.567  0.9704  2.3263 -0.1045
 5957SOL    HW323601   0.260   1.276   5.583 -2.0935 -1.3124 -0.2389
 5957SOL    MW423602   0.215   1.331   5.533 -0.2906  0.4020 -0.1193
 5958SOL     OW23603   0.513   5.727   1.912 -0.4614 -0.0147 -0.2391
 5958SOL    HW223604   0.483   5.681   1.990 -1.1404 -0.7265 -0.9085
 5958SOL    HW323605   0.577   5.668   1.872  0.3666  0.6242  0.1024
 5958SOL    MW423606   0.518   5.713   1.917 -0.4417 -0.0243 -0.2824
 5959SOL     OW23607   3.595   0.054   1.217 -0.0780 -0.2577  0.1897
 5959SOL    HW223608   3.682   0.054   1.258 -0.1620  0.2096  0.3754
 5959SOL    HW323609   3.562   0.142   1.233  0.2682  0.2575 -1.6805
 5959SOL    MW423610   3.602   0.065   1.225 -0.0434 -0.1281 -0.0326
 5960SOL     OW23611   3.314   1.075   1.056  0.7712 -0.0692 -0.1435
 5960SOL    HW223612   3.367   1.014   1.107  0.5922 -0.4396 -0.4028
 5960SOL    HW323613   3.240   1.024   1.025  0.8461  0.1682 -0.7273
 5960SOL    MW423614   3.311   1.060   1.059  0.7574 -0.0867 -0.2548
 5961SOL     OW23615   4.991   1.092   0.345 -0.1405  0.3931  0.0499
 5961SOL    HW223616   4.957   1.117   0.431 -0.8114 -0.1085 -0.0614
 5961SOL    HW323617   5.047   1.165   0.319 -1.2095  1.2913  0.1910
 5961SOL    MW423618   4.994   1.105   0.353 -0.3700  0.4454  0.0538
 5962SOL     OW23619   4.625   3.192   6.155 -0.1055 -0.2751 -0.3711
 5962SOL    HW223620   4.717   3.180   6.132  0.0308 -0.4981  0.2845
 5962SOL    HW323621   4.598   3.109   6.194  0.4729  0.9161  2.8978
 5962SOL    MW423622   4.634   3.180   6.157 -0.0112 -0.1474  0.1467
 5963SOL     OW23623   6.028   4.214   2.955  0.6227 -0.2731 -0.2915
 5963SOL    HW223624   6.022   4.214   2.859  0.5315  0.6880 -0.2888
 5963SOL    HW323625   5.938   4.225   2.985  0.6269 -0.7739 -0.0833
 5963SOL    MW423626   6.016   4.215   2.946  0.6112 -0.2123 -0.2636
 5964SOL     OW23627   3.253   1.286   1.699  0.1606  0.8525 -0.4664
 5964SOL    HW223628   3.297   1.244   1.625 -1.1448  4.0495 -3.3563
 5964SOL    HW323629   3.322   1.333   1.744  0.7903 -0.1239 -0.3781
 5964SOL    MW423630   3.268   1.286   1.695  0.0714  1.1455 -0.8361
 5965SOL     OW23631   4.058   3.832   4.558  0.3037 -0.3342  0.1136
 5965SOL    HW223632   4.011   3.906   4.519  1.8445  0.5593 -0.1086
 5965SOL    HW323633   4.106   3.793   4.485 -0.4407 -1.5561  0.2387
 5965SOL    MW423634   4.058   3.836   4.543  0.4088 -0.3776  0.1008
 5966SOL     OW23635   3.762   5.970   6.361  0.6098 -0.3030 -0.5270
 5966SOL    HW223636   3.721   5.887   6.336 -1.0452  0.5752 -0.9370
 5966SOL    HW323637   3.691   6.034   6.354  1.1974  0.7732  2.1324
 5966SOL    MW423638   3.747   5.967   6.357  0.4690 -0.0452 -0.2302
 5967SOL     OW23639   0.309   1.518   0.366 -0.0068 -0.0976 -0.0228
 5967SOL    HW223640   0.318   1.530   0.271 -0.5725 -1.9017 -0.3586
 5967SOL    HW323641   0.368   1.582   0.405 -1.0176  1.8512 -1.5403
 5967SOL    MW423642   0.318   1.528   0.358 -0.2148 -0.0785 -0.2673
 5968SOL     OW23643   5.568   5.454   2.700 -0.0788 -0.2725  0.3097
 5968SOL    HW223644   5.536   5.512   2.631  2.0503  1.1076  0.4187
 5968SOL    HW323645   5.488   5.423   2.743 -1.3345  1.9179 -0.2849
 5968SOL    MW423646   5.553   5.458   2.697  0.0364  0.1986  0.2456
 5969SOL     OW23647   5.033   3.586   4.138 -0.5976  0.4643 -0.7491
 5969SOL    HW223648   5.066   3.510   4.186 -0.3406  1.4679  0.7412
 5969SOL    HW323649   4.963   3.550   4.082 -0.1317 -0.9356 -0.4774
 5969SOL    MW423650   5.028   3.571   4.137 -0.5022  0.4120 -0.5166
 5970SOL     OW23651   2.742   1.678   3.027 -0.4725 -0.0506  0.0772
 5970SOL    HW223652   2.790   1.755   2.996  0.5368 -0.9480 -0.6820
 5970SOL    HW323653   2.656   1.711   3.050 -0.4006  1.1432 -1.2211
 5970SOL    MW423654   2.737   1.693   3.026 -0.3299 -0.0115 -0.1943
 5971SOL     OW23655   1.068   5.787   3.227 -0.7780 -0.2727 -0.9068
 5971SOL    HW223656   1.121   5.845   3.282 -0.7143  2.0365 -3.1715
 5971SOL    HW323657   1.117   5.705   3.224  0.3410  0.2921  0.5929
 5971SOL    MW423658   1.081   5.784   3.234 -0.6219  0.1065 -1.0078
 5972SOL     OW23659   4.159   3.304   4.326  0.5145 -0.2470  0.3695
 5972SOL    HW223660   4.084   3.254   4.356  1.0501  0.0907  2.3847
 5972SOL    HW323661   4.140   3.323   4.234 -1.4349 -0.8943  0.6005
 5972SOL    MW423662   4.147   3.300   4.318  0.3280 -0.2878  0.6658
 5973SOL     OW23663   6.400   5.891   6.253  0.0788  0.3950  0.3201
 5973SOL    HW223664   6.367   5.958   6.313 -0.3841 -0.4528  1.0388
 5973SOL    HW323665   6.459   5.939   6.194  0.4577  1.2769  1.3704
 5973SOL    MW423666   6.404   5.906   6.253  0.0677  0.3995  0.5535
 5974SOL     OW23667   1.629   2.947   4.184  0.5747 -0.2182 -0.0299
 5974SOL    HW223668   1.594   2.884   4.247  1.4776 -0.1882  0.5233
 5974SOL    HW323669   1.686   3.003   4.236  0.0502  0.8583 -0.5800
 5974SOL    MW423670   1.632   2.946   4.199  0.6246 -0.0722 -0.0295
 5975SOL     OW23671   2.796   5.792   3.698  0.0992  0.2319 -0.3723
 5975SOL    HW223672   2.720   5.789   3.641 -0.0334  0.9697 -0.2380
 5975SOL    HW323673   2.776   5.860   3.762  1.8646  2.1714 -1.7702
 5975SOL    MW423674   2.783   5.801   3.699  0.3146  0.5851 -0.5390
 5976SOL     OW23675   1.471   4.117   3.491 -0.0336  0.1150  0.7641
 5976SOL    HW223676   1.395   4.069   3.526 -2.1573  2.1492 -0.7538
 5976SOL    HW323677   1.468   4.201   3.536  1.0379  0.4220  0.2849
 5976SOL    MW423678   1.460   4.121   3.502 -0.1724  0.4239  0.5006
 5977SOL     OW23679   3.181   0.166   3.891  0.4770 -0.1289 -0.0840
 5977SOL    HW223680   3.225   0.090   3.853  0.2188 -0.4355  0.2217
 5977SOL    HW323681   3.130   0.203   3.819  0.0481 -0.6641 -0.0601
 5977SOL    MW423682   3.180   0.161   3.876  0.3863 -0.2400 -0.0405
 5978SOL     OW23683   2.359   1.832   5.195 -0.1156  0.8499  0.2002
 5978SOL    HW223684   2.272   1.870   5.201  0.2868  2.0015 -0.9427
 5978SOL    HW323685   2.418   1.907   5.189  0.7891  0.0857 -0.9541
 5978SOL    MW423686   2.356   1.847   5.195  0.0569  0.9010 -0.1029
 5979SOL     OW23687   6.022   3.441   1.666  0.2736  0.0274 -0.3489
 5979SOL    HW223688   5.981   3.496   1.734 -0.7530 -0.4428 -0.5715
 5979SOL    HW323689   6.109   3.422   1.701 -0.2574 -0.2705  0.8912
 5979SOL    MW423690   6.028   3.446   1.680  0.0681 -0.0739 -0.2146
 5980SOL     OW23691   3.305   4.373   5.285  0.3514 -0.2114  0.8741
 5980SOL    HW223692   3.268   4.459   5.267  1.1971 -0.3569 -2.0735
 5980SOL    HW323693   3.353   4.384   5.368  0.1819  2.0437  0.7319
 5980SOL    MW423694   3.307   4.386   5.294  0.4406  0.0670  0.4664
 5981SOL     OW23695   0.626   1.021   2.490 -0.8233  0.0609  0.6883
 5981SOL    HW223696   0.650   0.947   2.547 -0.8933 -0.8180 -0.3764
 5981SOL    HW323697   0.619   0.982   2.403  1.0550  1.6896 -0.2657
 5981SOL    MW423698   0.628   1.006   2.486 -0.5847  0.1598  0.4220
 5982SOL     OW23699   2.872   2.099   1.951 -0.0528 -0.2659 -0.4276
 5982SOL    HW223700   2.962   2.129   1.964  0.0398  0.2688 -2.0850
 5982SOL    HW323701   2.820   2.179   1.946 -0.3980 -0.5178 -0.9485
 5982SOL    MW423702   2.877   2.113   1.952 -0.0861 -0.2286 -0.7150
 5983SOL     OW23703   1.126   4.344   3.497 -0.5899 -0.6032 -0.0430
 5983SOL    HW223704   1.219   4.358   3.514  0.4472 -5.0070 -0.7078
 5983SOL    HW323705   1.086   4.340   3.584  0.0198  0.2638  0.2899
 5983SOL    MW423706   1.133   4.345   3.511 -0.3726 -1.0698 -0.0868
 5984SOL     OW23707   2.807   6.023   5.006 -0.5918  0.1888 -0.1421
 5984SOL    HW223708   2.777   6.107   4.972  0.7330  0.6825 -0.1427
 5984SOL    HW323709   2.799   5.962   4.932  1.5665  1.0830 -1.1925
 5984SOL    MW423710   2.802   6.026   4.992 -0.1322  0.3720 -0.2808
 5985SOL     OW23711   1.080   4.433   4.314  0.7206  0.2660 -0.1252
 5985SOL    HW223712   0.985   4.433   4.313  0.6720 -0.9854  1.1864
 5985SOL    HW323713   1.104   4.501   4.377  0.7446  1.2435 -1.1617
 5985SOL    MW423714   1.071   4.442   4.323  0.7174  0.2298 -0.0889
 5986SOL     OW23715   0.049   1.745   0.609  0.2818 -0.0632 -0.3972
 5986SOL    HW223716  -0.012   1.791   0.667  1.0591 -1.7154  1.8989
 5986SOL    HW323717   0.135   1.779   0.634  0.6840 -1.2909 -0.0651
 5986SOL    MW423718   0.052   1.756   0.620  0.4374 -0.4432 -0.0504
 5987SOL     OW23719   6.237   4.494   2.711 -0.0340 -0.2131  0.0267
 5987SOL    HW223720   6.318   4.523   2.754  0.0189 -1.4897  0.8251
 5987SOL    HW323721   6.178   4.569   2.720  0.8058  0.4636  0.0895
 5987SOL    MW423722   6.240   4.508   2.718  0.0838 -0.2922  0.1404
 5988SOL     OW23723   0.287   5.439   4.901 -0.1863 -0.1041 -0.1672
 5988SOL    HW223724   0.329   5.353   4.904  0.8597  0.4203  1.0696
 5988SOL    HW323725   0.247   5.442   4.815  1.2272 -1.1558 -0.9159
 5988SOL    MW423726   0.287   5.428   4.890  0.1382 -0.1737 -0.1028
 5989SOL     OW23727   1.029   5.688   2.386  0.4905  0.4636 -0.0186
 5989SOL    HW223728   1.066   5.601   2.368  1.9959  0.2917  3.2137
 5989SOL    HW323729   1.099   5.749   2.362 -0.0753  0.7365 -1.0384
 5989SOL    MW423730   1.043   5.685   2.381  0.6145  0.4769  0.2733
 5990SOL     OW23731   1.785   1.190   0.957  0.2695  0.2281  0.8352
 5990SOL    HW223732   1.726   1.256   0.922 -0.1133 -0.1215  0.8234
 5990SOL    HW323733   1.732   1.111   0.966  1.6692 -1.4145 -3.2066
 5990SOL    MW423734   1.771   1.188   0.954  0.4037 -0.0348  0.3004
 5991SOL     OW23735   4.132   5.766   2.545 -0.5621 -0.7481 -0.0940
 5991SOL    HW223736   4.096   5.855   2.544  0.6891 -0.2283 -0.5311
 5991SOL    HW323737   4.185   5.761   2.466 -1.9643 -2.4769 -0.9974
 5991SOL    MW423738   4.134   5.777   2.534 -0.5820 -0.9076 -0.2708
 5992SOL     OW23739   6.269   5.518   1.631 -0.1364  0.2571  0.1554
 5992SOL    HW223740   6.181   5.488   1.652  0.7608  0.4173  5.6303
 5992SOL    HW323741   6.321   5.437   1.628 -0.0595  0.3289 -0.6707
 5992SOL    MW423742   6.264   5.503   1.633 -0.0079  0.2877  0.7688
 5993SOL     OW23743   0.111   5.011   1.213 -0.0609 -0.1712 -0.0882
 5993SOL    HW223744   0.199   5.023   1.177  0.1439  0.6792  0.6591
 5993SOL    HW323745   0.077   4.932   1.169  0.3891  0.4935 -1.6860
 5993SOL    MW423746   0.118   5.002   1.203  0.0255  0.0287 -0.2004
 5994SOL     OW23747   1.126   1.384   2.685 -0.1505 -0.0009  0.2835
 5994SOL    HW223748   1.184   1.436   2.740 -0.2122  0.3099  0.0550
 5994SOL    HW323749   1.054   1.443   2.663 -0.9823 -0.6271  1.2385
 5994SOL    MW423750   1.124   1.398   2.689 -0.2684 -0.0425  0.3793
 5995SOL     OW23751   0.962   0.993   0.888  0.5364  0.2679  0.1445
 5995SOL    HW223752   0.921   0.995   0.802  1.7350 -1.0953 -0.5089
 5995SOL    HW323753   1.027   1.064   0.886 -0.2835  1.0359  0.3952
 5995SOL    MW423754   0.965   1.003   0.876  0.5863  0.1894  0.0914
 5996SOL     OW23755   2.091   6.430   5.529 -0.7611 -0.5328 -0.3033
 5996SOL    HW223756   2.121   6.396   5.445  0.4124 -0.7291  0.1823
 5996SOL    HW323757   2.144   6.509   5.543  0.2735 -1.4130  1.0208
 5996SOL    MW423758   2.102   6.436   5.520 -0.4697 -0.6748 -0.0646
 5997SOL     OW23759   2.940   4.974   0.679  0.1760  0.2113  0.3194
 5997SOL    HW223760   2.973   4.979   0.769 -0.1310 -0.4182  0.4744
 5997SOL    HW323761   2.942   5.065   0.648 -0.9740  0.6386  1.4124
 5997SOL    MW423762   2.945   4.987   0.687 -0.0163  0.1846  0.4840
 5998SOL     OW23763   6.222   3.797   2.690  0.3869 -0.3781  0.1147
 5998SOL    HW223764   6.265   3.877   2.719 -0.6783  0.6361 -0.9451
 5998SOL    HW323765   6.248   3.730   2.753  0.9394  0.9127  1.2932
 5998SOL    MW423766   6.231   3.799   2.702  0.3193 -0.0740  0.1304
 5999SOL     OW23767   0.571   3.533   1.924 -0.1467  0.2170 -1.1778
 5999SOL    HW223768   0.603   3.445   1.908  1.8798  0.8176 -0.7791
 5999SOL    HW323769   0.587   3.549   2.017 -1.2793  0.7220 -1.0469
 5999SOL    MW423770   0.577   3.524   1.934 -0.0288  0.3629 -1.1079
 6000SOL     OW23771   3.470   4.353   2.706 -0.3532  0.2842 -0.0631
 6000SOL    HW223772   3.499   4.342   2.796 -1.2186  0.1082  0.2057
 6000SOL    HW323773   3.503   4.439   2.680  2.5023 -0.8685 -0.6301
 6000SOL    MW423774   3.478   4.363   2.714 -0.0906  0.1089 -0.1025
 6001SOL     OW23775   5.189   4.474   5.829 -0.1314  0.2340 -0.1591
 6001SOL    HW223776   5.273   4.428   5.838  1.0034  2.1836 -0.2840
 6001SOL    HW323777   5.193   4.515   5.744 -1.3590  0.1497 -0.2713
 6001SOL    MW423778   5.201   4.473   5.819 -0.1437  0.4801 -0.1904
 6002SOL     OW23779   5.049   3.049   5.686  0.4785  0.1141  0.5306
 6002SOL    HW223780   5.007   2.968   5.714 -0.5506  0.1886 -0.7172
 6002SOL    HW323781   5.141   3.039   5.712  0.5566 -1.8144 -0.3123
 6002SOL    MW423782   5.056   3.037   5.693  0.3530 -0.1305  0.2547
 6003SOL     OW23783   1.285   3.450   0.439  0.3462 -0.4853 -0.3637
 6003SOL    HW223784   1.334   3.523   0.477  0.5528 -0.6770 -0.2602
 6003SOL    HW323785   1.288   3.466   0.345 -1.8475  1.0600 -0.2274
 6003SOL    MW423786   1.292   3.461   0.432  0.0840 -0.3067 -0.3321
 6004SOL     OW23787   4.777   2.708   3.798 -1.0230  0.0506  0.0865
 6004SOL    HW223788   4.817   2.734   3.881 -0.2562 -2.0213  0.4130
 6004SOL    HW323789   4.843   2.654   3.754 -1.7419  0.3809 -1.4910
 6004SOL    MW423790   4.791   2.704   3.803 -1.0167 -0.1792 -0.0786
 6005SOL     OW23791   0.524   4.210   3.456  0.3126 -0.0102  0.0373
 6005SOL    HW223792   0.521   4.148   3.384 -2.1661  1.1656 -1.0034
 6005SOL    HW323793   0.434   4.215   3.488  0.9238  1.1640  1.7544
 6005SOL    MW423794   0.512   4.203   3.450  0.0662  0.2999  0.1265
 6006SOL     OW23795   0.339   5.023   0.199  0.4280 -0.2039 -0.1250
 6006SOL    HW223796   0.417   5.014   0.253  0.7429 -0.4851 -0.6131
 6006SOL    HW323797   0.368   5.075   0.124 -0.3509  1.4205  0.6479
 6006SOL    MW423798   0.353   5.028   0.196  0.3668 -0.0267 -0.0874
 6007SOL     OW23799   0.288   0.987   2.464  0.4818  0.1761 -0.0107
 6007SOL    HW223800   0.336   0.916   2.422 -1.0245 -1.7053  1.2606
 6007SOL    HW323801   0.343   1.013   2.538  2.3598  2.3708 -2.0440
 6007SOL    MW423802   0.301   0.981   2.468  0.5308  0.2174 -0.1112
 6008SOL     OW23803   2.716   3.490   1.917  0.2349  0.2488 -0.3375
 6008SOL    HW223804   2.638   3.438   1.896  0.8256  0.1606 -2.5766
 6008SOL    HW323805   2.709   3.567   1.860  1.2568  0.7803  0.2292
 6008SOL    MW423806   2.704   3.493   1.907  0.4477  0.3073 -0.5581
 6009SOL     OW23807   3.482   5.385   5.107  0.1853 -0.4198  0.1131
 6009SOL    HW223808   3.439   5.302   5.127 -1.0432 -0.1091 -1.0845
 6009SOL    HW323809   3.471   5.437   5.186 -1.7255 -0.3473 -0.1556
 6009SOL    MW423810   3.475   5.381   5.120 -0.2289 -0.3692 -0.0804
 6010SOL     OW23811   4.553   3.352   4.524 -0.1741 -0.3504  0.2610
 6010SOL    HW223812   4.491   3.290   4.485  0.1375 -0.5827  0.1365
 6010SOL    HW323813   4.518   3.370   4.611 -0.2251 -0.7468  0.3201
 6010SOL    MW423814   4.540   3.346   4.530 -0.1398 -0.4333  0.2524
 6011SOL     OW23815   5.251   1.838   3.257 -0.0434 -0.4439 -0.4065
 6011SOL    HW223816   5.199   1.757   3.260 -0.8548  0.0968  0.9425
 6011SOL    HW323817   5.273   1.855   3.349 -0.8814  1.4917 -0.5294
 6011SOL    MW423818   5.247   1.829   3.270 -0.2610 -0.1172 -0.2447
 6012SOL     OW23819   5.385   4.451   1.562 -0.7716 -0.5746 -0.2476
 6012SOL    HW223820   5.405   4.370   1.610  0.3357  0.5041  1.1838
 6012SOL    HW323821   5.412   4.432   1.472 -4.2249 -3.1474 -0.9477
 6012SOL    MW423822   5.392   4.438   1.557 -1.0811 -0.7717 -0.1511
 6013SOL     OW23823   1.130   2.875   1.253  0.2710 -0.5260  1.0003
 6013SOL    HW223824   1.055   2.830   1.289 -0.0642 -0.9178 -0.1339
 6013SOL    HW323825   1.093   2.948   1.203  0.5138 -1.5207 -0.7119
 6013SOL    MW423826   1.115   2.879   1.251  0.2588 -0.7089  0.6248
 6014SOL     OW23827   5.268   4.854   3.429  0.2551  0.2309 -0.4656
 6014SOL    HW223828   5.193   4.795   3.431  1.5311 -1.5041  2.2124
 6014SOL    HW323829   5.315   4.831   3.348 -0.5816 -0.6848 -0.7090
 6014SOL    MW423830   5.264   4.843   3.419  0.3131 -0.1188 -0.1444
 6015SOL     OW23831   0.125   5.704   6.067 -0.1924  0.2643 -0.1473
 6015SOL    HW223832   0.151   5.724   6.157 -0.1348  1.0127 -0.3230
 6015SOL    HW323833   0.080   5.620   6.073  1.7865 -0.8396  0.2612
 6015SOL    MW423834   0.123   5.695   6.079  0.0763  0.2174 -0.1166
 6016SOL     OW23835   0.784   4.001   0.556  0.3514  0.1500  0.3041
 6016SOL    HW223836   0.704   3.950   0.567  0.4233  0.1143  0.6552
 6016SOL    HW323837   0.782   4.064   0.628  0.9798 -0.2922  0.7133
 6016SOL    MW423838   0.773   4.003   0.567  0.4438  0.0869  0.4044
 6017SOL     OW23839   6.244   4.571   0.974 -0.2290 -0.0308 -0.5512
 6017SOL    HW223840   6.270   4.649   1.023 -1.0566  0.7594 -1.3335
 6017SOL    HW323841   6.253   4.500   1.036 -1.9324  1.0161  1.0115
 6017SOL    MW423842   6.249   4.572   0.988 -0.5629  0.2115 -0.4482
 6018SOL     OW23843   3.965   5.991   2.563 -0.4099  0.2407 -0.2416
 6018SOL    HW223844   3.887   5.938   2.578  0.8311 -0.9106  3.3003
 6018SOL    HW323845   3.939   6.080   2.588 -0.5392 -0.2320  1.4339
 6018SOL    MW423846   3.951   5.996   2.569 -0.2633  0.0264  0.4468
 6019SOL     OW23847   1.199   5.218   5.575 -0.5397  0.0944  0.1884
 6019SOL    HW223848   1.234   5.263   5.498 -1.2374  0.0310 -0.1781
 6019SOL    HW323849   1.150   5.285   5.623 -2.9193 -0.5388 -1.1767
 6019SOL    MW423850   1.197   5.233   5.571 -0.9457  0.0025 -0.0401
 6020SOL     OW23851   6.141   4.281   4.638 -0.0509  0.5021  0.0217
 6020SOL    HW223852   6.175   4.310   4.554  0.7501 -0.8578 -0.1512
 6020SOL    HW323853   6.215   4.238   4.681 -1.2848 -1.8916 -0.0601
 6020SOL    MW423854   6.155   4.279   4.633 -0.1080  0.0069 -0.0119
 6021SOL     OW23855   5.279   0.389   5.260  0.1116  0.1169 -0.8311
 6021SOL    HW223856   5.361   0.392   5.210  2.0840 -1.9187  1.9381
 6021SOL    HW323857   5.230   0.317   5.222  0.5380  0.0445 -1.2488
 6021SOL    MW423858   5.284   0.380   5.248  0.4281 -0.1612 -0.5208
 6022SOL     OW23859   1.028   1.406   3.655 -0.0494 -0.4064 -0.0445
 6022SOL    HW223860   1.031   1.405   3.559 -0.0627 -0.0112 -0.0514
 6022SOL    HW323861   1.118   1.392   3.682  0.5179  2.4470 -0.1561
 6022SOL    MW423862   1.040   1.404   3.646  0.0237  0.0222 -0.0602
 6023SOL     OW23863   2.503   2.339   4.925 -0.4910  0.0074 -0.0159
 6023SOL    HW223864   2.554   2.346   5.005  1.4643  1.6690 -1.3109
 6023SOL    HW323865   2.548   2.272   4.874  0.2314  1.2030 -1.0042
 6023SOL    MW423866   2.516   2.331   4.929 -0.1377  0.3844 -0.3172
 6024SOL     OW23867   0.309   3.938   1.516  0.7335  0.1026 -0.3085
 6024SOL    HW223868   0.219   3.927   1.548  0.2452  0.8993 -1.3478
 6024SOL    HW323869   0.335   3.850   1.489  0.2820 -0.1453  0.0415
 6024SOL    MW423870   0.300   3.925   1.517  0.6095  0.1750 -0.3995
 6025SOL     OW23871   2.903   0.558   5.474 -0.0653  0.4224  0.6866
 6025SOL    HW223872   2.810   0.543   5.491 -0.0252  0.1240  0.6484
 6025SOL    HW323873   2.905   0.609   5.394 -0.1392 -1.2447 -0.4357
 6025SOL    MW423874   2.891   0.562   5.466 -0.0697  0.1631  0.5335
 6026SOL     OW23875   2.059   3.695   2.824 -0.4307 -0.5773  0.2599
 6026SOL    HW223876   2.069   3.781   2.783  0.1709 -0.6111  0.3194
 6026SOL    HW323877   1.987   3.654   2.777 -0.0378 -0.4485 -0.4797
 6026SOL    MW423878   2.051   3.701   2.812 -0.2995 -0.5648  0.1702
 6027SOL     OW23879   1.936   0.259   5.829 -0.4445 -0.0462  0.9635
 6027SOL    HW223880   1.900   0.347   5.833 -0.3279  0.0804 -0.3581
 6027SOL    HW323881   1.971   0.243   5.917 -1.0042  0.9831  1.3852
 6027SOL    MW423882   1.936   0.268   5.841 -0.5030  0.1063  0.8448
 6028SOL     OW23883   4.978   5.695   0.459 -0.7916 -0.2023  0.4555
 6028SOL    HW223884   5.032   5.652   0.394 -0.2322  0.9935  0.0923
 6028SOL    HW323885   4.892   5.655   0.450 -0.6465 -0.2405 -0.8478
 6028SOL    MW423886   4.973   5.684   0.449 -0.6986 -0.0496  0.2356
 6029SOL     OW23887   1.222   4.282   1.112 -0.2218  0.1016 -0.0595
 6029SOL    HW223888   1.170   4.355   1.147  0.0277  0.2503 -0.0018
 6029SOL    HW323889   1.266   4.320   1.036 -0.2483 -0.0451 -0.1474
 6029SOL    MW423890   1.221   4.297   1.106 -0.1924  0.1019 -0.0634
 6030SOL     OW23891   2.929   4.533   0.667  0.1178 -0.2087  0.1239
 6030SOL    HW223892   2.985   4.468   0.710 -0.7308 -0.7108  0.4924
 6030SOL    HW323893   2.987   4.580   0.607  1.3924  0.5917  1.8903
 6030SOL    MW423894   2.944   4.531   0.665  0.1740 -0.1693  0.4056
 6031SOL     OW23895   5.471   3.561   0.417  0.1868 -0.5761  0.2961
 6031SOL    HW223896   5.542   3.498   0.407  1.7658  1.3292 -1.4543
 6031SOL    HW323897   5.515   3.646   0.424 -1.8640  0.8001 -1.8829
 6031SOL    MW423898   5.486   3.564   0.416  0.1245 -0.1432 -0.2224
 6032SOL     OW23899   2.609   0.641   6.222  0.5970  0.4986  0.6015
 6032SOL    HW223900   2.569   0.651   6.136 -1.2447  2.5677  1.5944
 6032SOL    HW323901   2.672   0.713   6.228 -0.0027  0.9803  1.3210
 6032SOL    MW423902   2.612   0.652   6.212  0.2749  0.8352  0.8274
 6033SOL     OW23903   4.501   4.927   1.253 -0.0078  0.0033 -0.1507
 6033SOL    HW223904   4.490   4.972   1.169 -1.3298  0.3553  0.1863
 6033SOL    HW323905   4.429   4.863   1.255  0.8131 -0.9349  0.1401
 6033SOL    MW423906   4.490   4.924   1.242 -0.0739 -0.0740 -0.0679
 6034SOL     OW23907   0.006   3.290   5.353 -0.0305  0.5132  0.1865
 6034SOL    HW223908   0.040   3.219   5.297 -0.1319 -0.2179  1.0318
 6034SOL    HW323909   0.046   3.369   5.317 -2.3113  0.4912 -2.7512
 6034SOL    MW423910   0.016   3.291   5.341 -0.3448  0.4139 -0.0895
 6035SOL     OW23911   4.857   5.831   2.311  0.0837  0.0202  0.1270
 6035SOL    HW223912   4.775   5.849   2.358  0.1104 -0.1058  0.2197
 6035SOL    HW323913   4.897   5.758   2.358  0.7950  0.7954  0.7517
 6035SOL    MW423914   4.851   5.824   2.323  0.1811  0.1059  0.2217
 6036SOL     OW23915   0.781   1.657   0.264 -0.6799 -0.8643  0.1445
 6036SOL    HW223916   0.876   1.667   0.265 -0.6458 -1.1662  0.2432
 6036SOL    HW323917   0.767   1.564   0.285 -1.0035 -0.7689  0.3544
 6036SOL    MW423918   0.792   1.646   0.267 -0.7181 -0.8916  0.1852
 6037SOL     OW23919   2.718   1.130   3.386 -0.0652  0.6470  0.2991
 6037SOL    HW223920   2.762   1.090   3.311  0.1171 -2.8898  2.1218
 6037SOL    HW323921   2.629   1.148   3.354  0.2745  0.1188 -1.0376
 6037SOL    MW423922   2.712   1.127   3.372  0.0037  0.1107  0.3632
 6038SOL     OW23923   4.098   0.784   5.991  0.2598 -0.1953  0.0666
 6038SOL    HW223924   4.144   0.827   6.063  1.4985 -1.7526  0.2780
 6038SOL    HW323925   4.059   0.706   6.031 -1.4530  0.3619 -0.4139
 6038SOL    MW423926   4.099   0.779   6.006  0.1973 -0.3272  0.0311
 6039SOL     OW23927   0.969   4.349   6.311  0.5314 -0.2047 -0.4019
 6039SOL    HW223928   0.940   4.400   6.387 -1.5422 -1.9084  0.0534
 6039SOL    HW323929   1.012   4.272   6.349  0.6140 -0.4505 -0.9813
 6039SOL    MW423930   0.971   4.346   6.326  0.2687 -0.4619 -0.4183
 6040SOL     OW23931   4.296   5.673   1.022 -0.1602 -0.4844  0.0216
 6040SOL    HW223932   4.362   5.637   0.964 -0.0186 -0.9582  0.4678
 6040SOL    HW323933   4.332   5.661   1.110 -1.3431 -1.8312  0.3591
 6040SOL    MW423934   4.309   5.667   1.026 -0.2976 -0.7246  0.1250
 6041SOL     OW23935   1.785   1.026   4.246  0.3234 -0.0576  0.2083
 6041SOL    HW223936   1.727   1.094   4.278 -3.2819 -2.6708 -0.1505
 6041SOL    HW323937   1.832   0.995   4.323 -1.6371 -0.3647  1.3245
 6041SOL    MW423938   1.784   1.031   4.260 -0.4109 -0.4429  0.3083
 6042SOL     OW23939   0.079   0.146   3.211 -0.1145  0.1378 -0.1779
 6042SOL    HW223940   0.023   0.145   3.289 -1.6062 -0.1497 -1.2079
 6042SOL    HW323941   0.057   0.228   3.168 -2.6184 -1.5704 -2.5132
 6042SOL    MW423942   0.069   0.157   3.216 -0.6417 -0.1255 -0.6219
 6043SOL     OW23943   5.333   4.036   4.341  0.2860 -0.6535  0.0075
 6043SOL    HW223944   5.415   3.997   4.370  0.1489 -0.2579  0.9725
 6043SOL    HW323945   5.285   4.055   4.422 -0.8512 -1.0652 -0.5377
 6043SOL    MW423946   5.337   4.034   4.355  0.1179 -0.6556  0.0629
 6044SOL     OW23947   2.097   0.283   1.592 -0.5134 -0.7733  0.0459
 6044SOL    HW223948   2.127   0.337   1.664 -1.5158  0.0832 -0.1630
 6044SOL    HW323949   2.005   0.306   1.580 -0.1034 -0.0309 -2.2540
 6044SOL    MW423950   2.089   0.293   1.600 -0.5915 -0.5624 -0.2851
 6045SOL     OW23951   4.312   5.716   3.873 -0.6876 -0.0542 -0.2185
 6045SOL    HW223952   4.374   5.741   3.804 -1.3367 -0.9616 -1.1649
 6045SOL    HW323953   4.357   5.740   3.955  0.1919  0.8475 -0.9295
 6045SOL    MW423954   4.326   5.723   3.875 -0.6572 -0.0550 -0.4372
 6046SOL     OW23955   3.747   1.493   0.953  0.6648 -0.5139 -0.4579
 6046SOL    HW223956   3.715   1.486   0.863  0.7071 -0.2744 -0.4930
 6046SOL    HW323957   3.693   1.432   1.003 -0.2550  0.3063 -0.4112
 6046SOL    MW423958   3.735   1.484   0.948  0.5491 -0.3741 -0.4564
 6047SOL     OW23959   3.135   2.788   2.302 -0.2191  0.2546  0.1487
 6047SOL    HW223960   3.126   2.883   2.307  0.1075  0.3148 -0.2592
 6047SOL    HW323961   3.076   2.762   2.232 -0.2297  0.1717  0.1887
 6047SOL    MW423962   3.126   2.797   2.293 -0.1774  0.2516  0.1002
 6048SOL     OW23963   3.488   3.075   5.450 -0.4672  0.6038  0.4977
 6048SOL    HW223964   3.437   2.995   5.437  0.1239  0.2142  0.5424
 6048SOL    HW323965   3.576   3.051   5.422 -0.2129  1.1383  0.8395
 6048SOL    MW423966   3.493   3.061   5.445 -0.3557  0.6229  0.5487
 6049SOL     OW23967   1.245   2.398   3.774  0.1804 -0.3620 -0.0640
 6049SOL    HW223968   1.293   2.351   3.706 -0.9601  0.1034 -1.2378
 6049SOL    HW323969   1.165   2.427   3.731  1.7032  4.5605 -0.0856
 6049SOL    MW423970   1.241   2.395   3.759  0.2308  0.3488 -0.2217
 6050SOL     OW23971   4.076   2.149   5.604  0.1552 -0.0705  0.0641
 6050SOL    HW223972   4.111   2.189   5.684  0.7358 -1.1979  0.3866
 6050SOL    HW323973   4.067   2.056   5.625 -2.6075  0.0530 -0.1650
 6050SOL    MW423974   4.079   2.142   5.617 -0.1327 -0.2030  0.0765
 6051SOL     OW23975   0.419   6.379   5.882 -0.6908 -0.7444  0.2241
 6051SOL    HW223976   0.407   6.300   5.829 -3.0110 -0.0738 -0.3679
 6051SOL    HW323977   0.366   6.446   5.838  2.9714  1.9093 -0.6573
 6051SOL    MW423978   0.411   6.377   5.869 -0.5137 -0.3058  0.0297
 6052SOL     OW23979   5.031   4.455   5.104  0.0626 -0.5676  0.1120
 6052SOL    HW223980   4.956   4.395   5.102  0.2611 -0.7959 -0.6896
 6052SOL    HW323981   5.008   4.525   5.043 -0.3388  0.4054  1.3414
 6052SOL    MW423982   5.018   4.456   5.096  0.0358 -0.4694  0.1684
 6053SOL     OW23983   2.352   5.344   2.002  0.3660 -0.1107 -1.0130
 6053SOL    HW223984   2.440   5.311   2.020  0.3224  1.5957  3.4228
 6053SOL    HW323985   2.294   5.272   2.024  0.5504 -0.2014 -0.8253
 6053SOL    MW423986   2.356   5.331   2.007  0.3846  0.1025 -0.4030
 6054SOL     OW23987   1.075   4.461   4.043 -0.3572 -0.0217 -0.0493
 6054SOL    HW223988   1.086   4.471   4.138 -0.9753 -1.5025  0.2027
 6054SOL    HW323989   0.985   4.491   4.027  0.1952  1.5601 -0.4166
 6054SOL    MW423990   1.064   4.466   4.053 -0.3659 -0.0084 -0.0645
 6055SOL     OW23991   2.207   6.005   5.666 -0.5125  0.4962  0.1315
 6055SOL    HW223992   2.147   6.072   5.698  0.5940  1.6412 -0.0960
 6055SOL    HW323993   2.241   6.041   5.584 -0.1652 -0.5168 -0.1884
 6055SOL    MW423994   2.204   6.019   5.659 -0.3207  0.5136  0.0593
 6056SOL     OW23995   2.505   6.357   0.453 -0.3250 -0.0943  0.5812
 6056SOL    HW223996   2.534   6.447   0.462  1.9163 -0.2867 -2.9848
 6056SOL    HW323997   2.433   6.361   0.389  0.2329 -0.8783 -0.1088
 6056SOL    MW423998   2.499   6.369   0.446  0.0443 -0.2231  0.0197
 6057SOL     OW23999   3.095   5.843   4.768  0.3769  0.5138 -0.5359
 6057SOL    HW224000   3.179   5.799   4.759  0.4825  0.2408  1.4178
 6057SOL    HW324001   3.043   5.786   4.823 -1.2346  0.5414 -1.9468
 6057SOL    MW424002   3.099   5.830   4.774  0.1782  0.4814 -0.4643
 6058SOL     OW24003   3.530   2.224   2.189 -0.0347  0.1140  0.4749
 6058SOL    HW224004   3.496   2.145   2.147  0.3597 -0.6818  1.6179
 6058SOL    HW324005   3.522   2.292   2.122  0.0613 -0.9951 -0.6983
 6058SOL    MW424006   3.525   2.223   2.174  0.0300 -0.1374  0.4709
 6059SOL     OW24007   2.942   1.545   5.092 -0.1405 -0.1789 -0.2945
 6059SOL    HW224008   2.929   1.640   5.097 -0.4605 -0.2837  2.9774
 6059SOL    HW324009   3.036   1.533   5.103 -0.2003 -0.2523  0.1611
 6059SOL    MW424010   2.953   1.556   5.094 -0.1906 -0.2024  0.1973
 6060SOL     OW24011   3.202   4.988   0.172 -0.1080 -0.1817  0.1148
 6060SOL    HW224012   3.275   5.044   0.201  0.5704 -0.7997 -0.3826
 6060SOL    HW324013   3.163   4.956   0.253  0.4089 -0.1425  0.3841
 6060SOL    MW424014   3.207   4.992   0.186  0.0497 -0.2581  0.0847
 6061SOL     OW24015   1.126   2.520   2.500  0.2031  0.1573  0.7730
 6061SOL    HW224016   1.178   2.489   2.575  2.4405 -0.1808 -0.8257
 6061SOL    HW324017   1.080   2.441   2.469  0.8159 -0.1477  0.6217
 6061SOL    MW424018   1.126   2.505   2.506  0.5792  0.0724  0.5421
 6062SOL     OW24019   0.726   3.458   4.648 -0.0803  0.4121 -0.3228
 6062SOL    HW224020   0.772   3.465   4.565 -1.0093  0.4489 -0.8504
 6062SOL    HW324021   0.689   3.369   4.647 -0.8589  0.7258 -0.3711
 6062SOL    MW424022   0.727   3.447   4.637 -0.3056  0.4584 -0.3988
 6063SOL     OW24023   2.071   3.953   1.221  0.1213 -0.2728 -0.2020
 6063SOL    HW224024   2.166   3.961   1.221  0.2338 -1.2144  1.0964
 6063SOL    HW324025   2.039   4.042   1.202  1.2364 -0.1325 -1.5485
 6063SOL    MW424026   2.079   3.966   1.219  0.2832 -0.3785 -0.2083
 6064SOL     OW24027   1.582   4.633   6.314 -0.1924 -0.0280  0.4941
 6064SOL    HW224028   1.550   4.667   6.231  0.0431 -0.7952  0.0794
 6064SOL    HW324029   1.510   4.580   6.348 -0.0951 -0.1412  0.5259
 6064SOL    MW424030   1.569   4.630   6.308 -0.1485 -0.1441  0.4436
 6065SOL     OW24031   1.007   2.870   4.061  0.4259 -0.6562  0.2475
 6065SOL    HW224032   1.017   2.786   4.017  0.6957 -1.3129  1.5203
 6065SOL    HW324033   1.097   2.904   4.068  0.4930 -0.9826  1.0795
 6065SOL    MW424034   1.020   2.864   4.056  0.4703 -0.7859  0.5252
 6066SOL     OW24035   4.288   3.418   1.997  0.1820 -0.4253 -0.3938
 6066SOL    HW224036   4.308   3.328   1.971  2.1158 -0.2812  0.4168
 6066SOL    HW324037   4.325   3.472   1.927  0.6060 -0.2261 -0.0263
 6066SOL    MW424038   4.296   3.413   1.985  0.4931 -0.3800 -0.2384
 6067SOL     OW24039   2.900   2.344   5.283 -0.2996  0.1085  0.5703
 6067SOL    HW224040   2.932   2.379   5.199  1.8840 -2.4377  0.1845
 6067SOL    HW324041   2.833   2.280   5.259 -0.9346  0.6281  0.9254
 6067SOL    MW424042   2.896   2.340   5.269 -0.0953 -0.1589  0.5662
 6068SOL     OW24043   2.796   1.258   0.563 -0.2106 -0.1495  0.0442
 6068SOL    HW224044   2.811   1.331   0.622 -1.3050  0.2222 -0.1290
 6068SOL    HW324045   2.832   1.288   0.479  0.3673 -0.2647  0.2416
 6068SOL    MW424046   2.803   1.271   0.559 -0.2788 -0.1157  0.0474
 6069SOL     OW24047   2.548   5.588   2.141 -0.5300 -0.7074 -0.3834
 6069SOL    HW224048   2.563   5.578   2.047 -1.4290 -0.8997 -0.5150
 6069SOL    HW324049   2.477   5.653   2.147  0.4996  0.4086  0.2180
 6069SOL    MW424050   2.540   5.595   2.129 -0.5128 -0.5855 -0.3214
 6070SOL     OW24051   1.466   0.192   5.501  0.2858 -0.1117  0.3075
 6070SOL    HW224052   1.470   0.227   5.589  0.1749  1.3071 -0.2284
 6070SOL    HW324053   1.386   0.229   5.463  0.7760 -0.0098 -0.6630
 6070SOL    MW424054   1.456   0.202   5.507  0.3359  0.0889  0.1088
 6071SOL     OW24055   6.248   0.270   2.475  0.6447  0.1580  0.0560
 6071SOL    HW224056   6.231   0.355   2.434 -0.6772  0.5385  1.3222
 6071SOL    HW324057   6.319   0.233   2.423 -0.3325  1.0034 -2.0060
 6071SOL    MW424058   6.255   0.277   2.462  0.3413  0.3197 -0.0490
 6072SOL     OW24059   2.309   0.659   4.363 -0.2356  0.1091  0.0377
 6072SOL    HW224060   2.261   0.597   4.419  1.1947 -0.4451  0.6985
 6072SOL    HW324061   2.241   0.698   4.308 -1.2215 -1.8930 -0.2626
 6072SOL    MW424062   2.294   0.656   4.363 -0.1769 -0.2281  0.0853
 6073SOL     OW24063   5.671   4.260   6.101 -0.2755 -0.6206 -0.1955
 6073SOL    HW224064   5.753   4.220   6.129  0.7640  0.7714 -1.1001
 6073SOL    HW324065   5.665   4.240   6.007  0.2246  1.1538 -0.6543
 6073SOL    MW424066   5.681   4.252   6.092 -0.0724 -0.2029 -0.3754
 6074SOL     OW24067   6.126   0.681   2.758 -0.2667  0.3843 -0.0836
 6074SOL    HW224068   6.060   0.625   2.715 -1.3386  0.6541  1.1461
 6074SOL    HW324069   6.092   0.770   2.748 -0.3023  0.4918  0.8958
 6074SOL    MW424070   6.113   0.685   2.751 -0.4128  0.4340  0.2079
 6075SOL     OW24071   2.931   3.429   4.640 -0.3826 -0.4784 -0.1377
 6075SOL    HW224072   2.966   3.419   4.729 -0.2942  0.7352 -0.0228
 6075SOL    HW324073   2.938   3.523   4.621 -1.0389 -0.6158 -1.1696
 6075SOL    MW424074   2.937   3.440   4.649 -0.4576 -0.3364 -0.2587
 6076SOL     OW24075   5.035   5.150   3.909  0.0208  0.1072  1.0098
 6076SOL    HW224076   5.092   5.073   3.899 -0.7803 -0.5920  1.6143
 6076SOL    HW324077   5.095   5.224   3.910  0.7837 -0.4499 -0.1557
 6076SOL    MW424078   5.051   5.149   3.908  0.0157 -0.0585  0.9358
 6077SOL     OW24079   0.998   0.333   3.433 -0.2590 -0.5102 -0.4429
 6077SOL    HW224080   0.970   0.417   3.468 -0.2282 -0.2705 -0.9837
 6077SOL    HW324081   1.007   0.276   3.510 -0.3773 -0.0501 -0.0883
 6077SOL    MW424082   0.995   0.336   3.448 -0.2705 -0.4179 -0.4675
 6078SOL     OW24083   0.180   5.569   5.486 -0.3378  0.1653 -0.1580
 6078SOL    HW224084   0.222   5.635   5.541  1.5757 -2.0735  1.2541
 6078SOL    HW324085   0.111   5.617   5.440  0.8236  3.0726  0.8834
 6078SOL    MW424086   0.176   5.584   5.487  0.0679  0.2535  0.1657
 6079SOL     OW24087   6.057   4.413   1.599  0.2062 -0.1762 -0.2685
 6079SOL    HW224088   6.067   4.401   1.694  0.4062  1.3439 -0.0718
 6079SOL    HW324089   6.125   4.358   1.561 -0.0087 -0.9677  0.4506
 6079SOL    MW424090   6.067   4.404   1.607  0.2043 -0.0801 -0.1477
 6080SOL     OW24091   3.597   4.257   2.962  0.2526 -0.2651 -0.3697
 6080SOL    HW224092   3.615   4.245   3.055 -1.3474 -1.1181 -0.1256
 6080SOL    HW324093   3.656   4.326   2.934  1.3718 -0.6013  1.0722
 6080SOL    MW424094   3.607   4.264   2.970  0.1891 -0.4220 -0.1473
 6081SOL     OW24095   0.618   0.993   1.640  0.4054  0.1540  0.0796
 6081SOL    HW224096   0.654   1.009   1.553 -1.0241  0.9510 -0.4143
 6081SOL    HW324097   0.579   0.906   1.634 -0.3204  0.4922 -0.3336
 6081SOL    MW424098   0.617   0.984   1.627  0.1211  0.3038 -0.0401
 6082SOL     OW24099   1.086   6.127   0.481  0.3014 -0.0191 -0.3724
 6082SOL    HW224100   1.088   6.210   0.432 -1.0340  0.6630  0.6275
 6082SOL    HW324101   1.064   6.061   0.416 -0.3962  0.7054 -0.8978
 6082SOL    MW424102   1.083   6.130   0.466  0.0332  0.1665 -0.3098
 6083SOL     OW24103   3.077   6.237   2.760 -0.2680  0.5853  0.7904
 6083SOL    HW224104   3.104   6.145   2.761 -0.4585  0.5290  0.7623
 6083SOL    HW324105   3.067   6.260   2.852 -0.4466  0.5116  0.7887
 6083SOL    MW424106   3.080   6.228   2.772 -0.3167  0.5682  0.7864
 6084SOL     OW24107   1.700   4.037   3.848  0.0115 -1.1404  0.1765
 6084SOL    HW224108   1.623   4.042   3.904 -0.6574 -2.0241 -0.6275
 6084SOL    HW324109   1.755   3.970   3.889 -0.0606 -1.1501  0.2590
 6084SOL    MW424110   1.697   4.029   3.861 -0.0863 -1.2583  0.0813
 6085SOL     OW24111   3.909   2.618   1.690  0.5398 -0.2609  0.1767
 6085SOL    HW224112   3.860   2.663   1.760  1.0270  0.5285  0.0217
 6085SOL    HW324113   3.862   2.536   1.678  0.0928 -0.1494  1.0246
 6085SOL    MW424114   3.896   2.613   1.698  0.5451 -0.1421  0.2681
 6086SOL     OW24115   3.303   4.332   3.050  0.0820 -0.3099 -0.4874
 6086SOL    HW224116   3.266   4.411   3.012  0.4559  0.9540  1.6539
 6086SOL    HW324117   3.398   4.347   3.049  0.1019 -0.1671  0.9910
 6086SOL    MW424118   3.311   4.344   3.045  0.1340 -0.1243 -0.0098
 6087SOL     OW24119   5.454   0.672   1.179 -0.6099 -0.0034 -0.0099
 6087SOL    HW224120   5.533   0.632   1.215 -0.4583  0.7125  0.4775
 6087SOL    HW324121   5.485   0.747   1.128 -0.9508  0.1007 -0.0738
 6087SOL    MW424122   5.468   0.677   1.177 -0.6349  0.1048  0.0460
 6088SOL     OW24123   6.274   0.485   1.465  0.5701 -0.0643  0.6864
 6088SOL    HW224124   6.192   0.471   1.513  1.3146 -2.3862  1.3734
 6088SOL    HW324125   6.334   0.419   1.499  1.5324 -1.0485 -2.6163
 6088SOL    MW424126   6.271   0.475   1.476  0.7953 -0.5005  0.3413
 6089SOL     OW24127   6.043   5.032   1.764  0.6302  0.3285  0.6716
 6089SOL    HW224128   5.949   5.016   1.757  0.9883 -1.1178 -2.7854
 6089SOL    HW324129   6.050   5.104   1.827 -2.8800  1.3720  0.0919
 6089SOL    MW424130   6.032   5.040   1.771  0.2144  0.2754  0.1390
 6090SOL     OW24131   0.330   4.909   4.568 -0.2684  0.4195  0.0044
 6090SOL    HW224132   0.331   5.003   4.586  0.5602  0.0423  2.2069
 6090SOL    HW324133   0.319   4.868   4.654 -0.1802 -1.5112 -0.8561
 6090SOL    MW424134   0.329   4.916   4.582 -0.1474  0.1150  0.1814
 6091SOL     OW24135   3.192   0.186   0.936  0.7024 -0.2805 -0.1235
 6091SOL    HW224136   3.113   0.153   0.979  0.9802 -0.3709  0.3284
 6091SOL    HW324137   3.179   0.166   0.844 -0.5168  1.1539 -0.2940
 6091SOL    MW424138   3.180   0.179   0.930  0.5782 -0.1032 -0.0864
 6092SOL     OW24139   5.047   1.831   3.744  0.4763  0.6088  0.2311
 6092SOL    HW224140   5.047   1.876   3.828 -4.3398  0.9713  0.2963
 6092SOL    HW324141   4.981   1.876   3.692  0.2725 -2.2051 -2.2046
 6092SOL    MW424142   5.038   1.843   3.749 -0.1860  0.2853 -0.0817
 6093SOL     OW24143   4.594   2.847   5.004 -0.1659 -0.5502 -0.1065
 6093SOL    HW224144   4.545   2.846   4.922  1.1885 -0.1807 -0.9399
 6093SOL    HW324145   4.672   2.794   4.987 -0.6832 -1.9282  1.4924
 6093SOL    MW424146   4.598   2.840   4.991 -0.0555 -0.6833 -0.0055
 6094SOL     OW24147   6.357   3.822   4.650  0.0096 -0.0209  0.1018
 6094SOL    HW224148   6.442   3.841   4.690  0.0365  0.5720 -0.2266
 6094SOL    HW324149   6.360   3.729   4.628  0.0801 -0.3132  1.2679
 6094SOL    MW424150   6.368   3.813   4.653  0.0224  0.0188  0.2123
 6095SOL     OW24151   2.182   5.600   4.863 -0.0474  0.0319 -0.2963
 6095SOL    HW224152   2.122   5.529   4.887  1.7313 -0.8114  1.9272
 6095SOL    HW324153   2.239   5.611   4.939  0.2724  3.3599 -0.8602
 6095SOL    MW424154   2.182   5.592   4.876  0.2295  0.3598 -0.0774
 6096SOL     OW24155   3.479   5.750   0.578  0.1552 -0.3660 -0.6063
 6096SOL    HW224156   3.411   5.764   0.513  0.9347  2.4698 -0.9879
 6096SOL    HW324157   3.561   5.752   0.528  0.7186  1.0951  0.2922
 6096SOL    MW424158   3.481   5.752   0.563  0.3324  0.2009 -0.5381
 6097SOL     OW24159   1.467   4.275   5.322 -0.3299 -0.4444  0.1760
 6097SOL    HW224160   1.391   4.254   5.376 -1.4311  0.0305 -1.1445
 6097SOL    HW324161   1.454   4.365   5.295  0.2609 -0.6273 -0.7753
 6097SOL    MW424162   1.455   4.284   5.325 -0.3972 -0.4058 -0.1237
 6098SOL     OW24163   3.519   1.657   0.500  0.2696  0.2122  0.3387
 6098SOL    HW224164   3.449   1.667   0.436 -0.7692  1.7987  1.6624
 6098SOL    HW324165   3.599   1.681   0.453 -0.4363  1.0633 -0.4359
 6098SOL    MW424166   3.521   1.661   0.486  0.0394  0.5338  0.4111
 6099SOL     OW24167   0.302   4.555   4.411  0.2694  0.5511 -0.4065
 6099SOL    HW224168   0.294   4.461   4.391 -0.1645  0.6447 -0.6879
 6099SOL    HW324169   0.313   4.558   4.506 -0.0169  0.2272 -0.3590
 6099SOL    MW424170   0.302   4.543   4.421  0.1744  0.5207 -0.4374
 6100SOL     OW24171   3.883   4.974   4.414 -0.1285 -0.3304  0.2100
 6100SOL    HW224172   3.837   5.025   4.347  0.8828  0.3886  0.0402
 6100SOL    HW324173   3.852   5.010   4.497 -1.9515 -1.7212  0.1912
 6100SOL    MW424174   3.873   4.985   4.416 -0.2356 -0.4191  0.1852
 6101SOL     OW24175   0.238   4.427   4.984  0.3723 -0.2092  0.0399
 6101SOL    HW224176   0.193   4.370   5.047 -1.9911  0.0672 -1.2583
 6101SOL    HW324177   0.200   4.514   5.000  0.9366  0.1800 -0.7034
 6101SOL    MW424178   0.227   4.431   4.995  0.1349 -0.1214 -0.2295
 6102SOL     OW24179   3.077   4.613   4.382 -0.2206  0.6512  0.2783
 6102SOL    HW224180   3.129   4.670   4.326 -1.4336  2.2133  0.6628
 6102SOL    HW324181   2.997   4.597   4.332  0.1778 -0.9328  0.0870
 6102SOL    MW424182   3.073   4.618   4.368 -0.3281  0.6483  0.3038
 6103SOL     OW24183   6.340   2.734   2.341  0.3229  0.2447 -0.4412
 6103SOL    HW224184   6.292   2.809   2.304  1.0593 -0.1022 -2.2042
 6103SOL    HW324185   6.277   2.693   2.400  0.0502  2.5000  0.9694
 6103SOL    MW424186   6.325   2.739   2.344  0.3841  0.4965 -0.4877
 6104SOL     OW24187   3.315   0.021   3.138 -0.1869  0.0142 -0.2895
 6104SOL    HW224188   3.301   0.101   3.189  0.2039  1.1147 -1.8444
 6104SOL    HW324189   3.408   0.023   3.116 -0.4326 -0.1847 -1.4272
 6104SOL    MW424190   3.326   0.032   3.142 -0.1677  0.1331 -0.6448
 6105SOL     OW24191   2.190   0.828   6.354  0.0200 -0.0681 -0.0206
 6105SOL    HW224192   2.137   0.907   6.350  1.7329  1.5136  3.6744
 6105SOL    HW324193   2.277   0.856   6.326  0.1854 -1.2404 -0.7477
 6105SOL    MW424194   2.195   0.842   6.350  0.2678 -0.0141  0.3710
 6106SOL     OW24195   4.889   0.035   6.106 -0.4694 -0.4590  0.1000
 6106SOL    HW224196   4.907  -0.039   6.165  0.4397 -3.3242 -3.3797
 6106SOL    HW324197   4.795   0.029   6.088 -0.7045  0.2780  1.0341
 6106SOL    MW424198   4.879   0.024   6.112 -0.3805 -0.7398 -0.2358
 6107SOL     OW24199   3.804   4.787   5.803  0.0532 -0.2178 -0.2685
 6107SOL    HW224200   3.778   4.695   5.804 -0.5487 -0.0524  0.2605
 6107SOL    HW324201   3.894   4.786   5.771  0.8583 -1.2027  1.8362
 6107SOL    MW424202   3.813   4.775   5.799  0.0800 -0.3259  0.0790
 6108SOL     OW24203   0.937   2.495   0.025 -0.3746  0.1763 -0.2095
 6108SOL    HW224204   0.950   2.526  -0.064  1.0486  0.5247  0.1009
 6108SOL    HW324205   1.017   2.518   0.071  0.1714 -2.6254  0.4354
 6108SOL    MW424206   0.949   2.502   0.019 -0.1148 -0.1474 -0.0835
 6109SOL     OW24207   1.148   3.335   5.044  0.0049 -0.2169 -0.2405
 6109SOL    HW224208   1.076   3.352   4.984  0.6177  0.0162 -0.9197
 6109SOL    HW324209   1.226   3.336   4.989  0.4125 -1.7787  0.2635
 6109SOL    MW424210   1.149   3.337   5.029  0.1395 -0.3922 -0.2636
 6110SOL     OW24211   4.005   1.589   2.615 -0.1188 -0.0251 -0.8557
 6110SOL    HW224212   4.062   1.587   2.692  0.3024 -0.0521 -1.1660
 6110SOL    HW324213   3.966   1.502   2.612 -1.8281  0.6295  0.5716
 6110SOL    MW424214   4.008   1.578   2.625 -0.2888  0.0577 -0.7084
 6111SOL     OW24215   5.790   1.434   4.958  0.1225  0.5617  0.3734
 6111SOL    HW224216   5.845   1.488   4.901 -1.9374  1.6663 -0.6710
 6111SOL    HW324217   5.703   1.437   4.918 -0.2474 -3.0525  0.6363
 6111SOL    MW424218   5.786   1.442   4.945 -0.1981  0.2306  0.2703
 6112SOL     OW24219   2.108   5.482   1.245 -0.0151  0.3397 -0.0311
 6112SOL    HW224220   2.105   5.518   1.334 -2.2323  2.4903 -0.8739
 6112SOL    HW324221   2.024   5.506   1.206  0.7993 -0.7091 -2.6792
 6112SOL    MW424222   2.096   5.490   1.252 -0.2002  0.4851 -0.4917
 6113SOL     OW24223   4.054   2.065   5.090  0.8656  0.3831  0.6660
 6113SOL    HW224224   4.053   2.073   5.185  0.2957  2.8205  0.5151
 6113SOL    HW324225   3.962   2.052   5.066  0.9790  0.0114  0.4200
 6113SOL    MW424226   4.042   2.064   5.099  0.8054  0.6556  0.6137
 6114SOL     OW24227   3.857   4.052   1.065 -0.0971  0.5203  0.2571
 6114SOL    HW224228   3.878   4.024   1.154 -0.3724 -0.8929 -0.1030
 6114SOL    HW324229   3.818   3.975   1.024  0.1370  1.1158 -1.1337
 6114SOL    MW424230   3.855   4.038   1.072 -0.1025  0.4124  0.0261
 6115SOL     OW24231   4.161   1.265   4.447 -0.5494 -0.2316 -0.8796
 6115SOL    HW224232   4.245   1.237   4.411  0.6668 -1.0868  2.3070
 6115SOL    HW324233   4.176   1.354   4.476 -0.2802 -0.8167  0.8654
 6115SOL    MW424234   4.174   1.273   4.446 -0.3534 -0.4217 -0.2290
 6116SOL     OW24235   5.429   2.782   0.095  0.5507  0.2358 -0.1904
 6116SOL    HW224236   5.356   2.801   0.153 -1.2204  0.6206 -2.3876
 6116SOL    HW324237   5.476   2.709   0.137 -0.5550  0.5668  1.7096
 6116SOL    MW424238   5.426   2.775   0.108  0.1711  0.3303 -0.2296
 6117SOL     OW24239   6.268   4.843   1.283  0.5748  0.2339 -0.0174
 6117SOL    HW224240   6.334   4.809   1.223  1.1722 -1.4676  1.5185
 6117SOL    HW324241   6.317   4.869   1.361 -0.3663  0.6546  0.4517
 6117SOL    MW424242   6.283   4.842   1.285  0.5294  0.0649  0.2471
 6118SOL     OW24243   0.792   4.857   1.738  0.4981  0.4352  0.4745
 6118SOL    HW224244   0.858   4.795   1.771  0.6808 -0.1521 -0.9285
 6118SOL    HW324245   0.720   4.801   1.709 -0.6958  1.0760  2.0879
 6118SOL    MW424246   0.791   4.841   1.739  0.3647  0.4423  0.5023
 6119SOL     OW24247   3.192   5.030   1.435 -0.1401  0.2285  0.1972
 6119SOL    HW224248   3.262   5.036   1.499 -1.2920  1.2347  1.4390
 6119SOL    HW324249   3.164   4.938   1.439  0.4458  0.0529  0.4093
 6119SOL    MW424250   3.197   5.018   1.444 -0.2148  0.3381  0.3890
 6120SOL     OW24251   3.545   1.948   2.796 -0.7378  0.1801  0.3159
 6120SOL    HW224252   3.509   2.028   2.835  0.6605  0.6265  0.7463
 6120SOL    HW324253   3.583   1.901   2.870 -0.4455 -0.2736 -0.1185
 6120SOL    MW424254   3.545   1.953   2.811 -0.5147  0.1791  0.3154
 6121SOL     OW24255   4.209   1.941   0.071 -0.4567  0.0619 -0.1409
 6121SOL    HW224256   4.261   2.021   0.065 -0.7756  0.3691  0.8325
 6121SOL    HW324257   4.134   1.956   0.013 -1.6474  1.4131  1.6094
 6121SOL    MW424258   4.206   1.954   0.063 -0.6559  0.2807  0.2185
 6122SOL     OW24259   5.027   0.840   6.247  0.1905  0.0177  0.0294
 6122SOL    HW224260   5.033   0.840   6.343  0.1549  0.2365  0.0337
 6122SOL    HW324261   4.939   0.808   6.228 -0.9995  2.8570  0.1794
 6122SOL    MW424262   5.016   0.836   6.257  0.0288  0.4212  0.0498
 6123SOL     OW24263   6.110   1.861   3.877  0.0589 -0.6774  0.4288
 6123SOL    HW224264   6.173   1.906   3.822 -0.9228 -1.2533 -1.2473
 6123SOL    HW324265   6.132   1.888   3.966  0.6893  1.5879 -0.3428
 6123SOL    MW424266   6.121   1.870   3.882  0.0126 -0.4545  0.1059
 6124SOL     OW24267   2.177   0.455   1.807  0.8335  0.0034  0.4726
 6124SOL    HW224268   2.258   0.443   1.857  1.0837 -0.6685 -0.0759
 6124SOL    HW324269   2.114   0.396   1.849  1.1155 -0.7542 -0.1444
 6124SOL    MW424270   2.179   0.446   1.819  0.9037 -0.1852  0.3188
 6125SOL     OW24271   4.916   0.928   0.723  0.4493 -0.1649 -0.1055
 6125SOL    HW224272   4.878   0.845   0.692 -1.0411 -0.4081  2.1057
 6125SOL    HW324273   4.895   0.930   0.816  0.1406  2.8881 -0.1530
 6125SOL    MW424274   4.908   0.917   0.731  0.2119  0.2058  0.1799
 6126SOL     OW24275   4.779   0.714   6.160 -0.2456  0.2036 -0.2389
 6126SOL    HW224276   4.749   0.773   6.091  0.6607  0.5042 -0.3916
 6126SOL    HW324277   4.793   0.630   6.116  1.3679  0.6694 -0.6760
 6126SOL    MW424278   4.777   0.711   6.145  0.0868  0.3047 -0.3167
 6127SOL     OW24279   5.956   4.827   5.360 -0.5514  0.1806  0.1516
 6127SOL    HW224280   5.992   4.885   5.427  0.3780  0.0047 -0.1866
 6127SOL    HW324281   5.879   4.789   5.401 -1.3214  1.8071  0.3140
 6127SOL    MW424282   5.951   4.830   5.374 -0.5304  0.3720  0.1284
 6128SOL     OW24283   1.793   1.225   0.644  0.1417  0.4308  0.3313
 6128SOL    HW224284   1.813   1.232   0.551  1.9019  0.8156  0.7079
 6128SOL    HW324285   1.805   1.314   0.678 -0.2690  0.2484  0.9692
 6128SOL    MW424286   1.797   1.238   0.636  0.3197  0.4575  0.4652
 6129SOL     OW24287   0.430   3.301   5.444 -0.1680  0.2857 -0.4746
 6129SOL    HW224288   0.401   3.265   5.527 -1.3736 -0.1962 -1.0733
 6129SOL    HW324289   0.413   3.394   5.451 -2.2594 -0.0130 -0.9116
 6129SOL    MW424290   0.424   3.308   5.456 -0.6030  0.1827 -0.6113
 6130SOL     OW24291   1.153   4.072   1.963 -0.0635 -0.5315 -0.3310
 6130SOL    HW224292   1.181   3.984   1.938  1.8731  0.0466 -0.3122
 6130SOL    HW324293   1.149   4.071   2.058  0.0521 -0.5585 -0.3277
 6130SOL    MW424294   1.156   4.061   1.972  0.2073 -0.4588 -0.3281
 6131SOL     OW24295   3.098   2.762   2.733  0.4048 -0.0699 -0.1590
 6131SOL    HW224296   3.142   2.847   2.733  0.3528 -0.0413 -0.9838
 6131SOL    HW324297   3.081   2.744   2.826 -0.2145  1.1552 -0.0148
 6131SOL    MW424298   3.101   2.771   2.746  0.3162  0.0955 -0.2488
 6132SOL     OW24299   0.238   4.451   3.273 -0.1391  0.0623  0.5628
 6132SOL    HW224300   0.158   4.446   3.221 -0.6369 -2.0372  1.4384
 6132SOL    HW324301   0.306   4.414   3.216 -0.4161 -0.9716  0.8850
 6132SOL    MW424302   0.236   4.445   3.259 -0.2413 -0.3511  0.7208
 6133SOL     OW24303   0.361   3.093   4.888 -0.3378  0.3220  0.2982
 6133SOL    HW224304   0.278   3.049   4.905  0.0827 -0.5957  0.0588
 6133SOL    HW324305   0.363   3.105   4.793  1.1312 -2.5246 -0.1554
 6133SOL    MW424306   0.351   3.089   4.878 -0.0885 -0.1747  0.2068
 6134SOL     OW24307   0.342   1.729   1.043 -0.3064  0.1087  0.0561
 6134SOL    HW224308   0.333   1.645   1.088 -1.0367 -0.5058 -1.1811
 6134SOL    HW324309   0.337   1.706   0.950  2.5972  1.1418 -0.4500
 6134SOL    MW424310   0.340   1.715   1.037 -0.0197  0.1639 -0.1740
 6135SOL     OW24311   6.035   4.472   3.361  0.1366 -0.0406 -0.2732
 6135SOL    HW224312   6.053   4.386   3.322  0.6791  0.6196 -1.5212
 6135SOL    HW324313   5.971   4.511   3.303 -0.2225  0.3448  0.3807
 6135SOL    MW424314   6.029   4.466   3.349  0.1608  0.0974 -0.3516
 6136SOL     OW24315   3.926   4.035   5.801  0.4527  0.0392 -0.5505
 6136SOL    HW224316   3.946   4.109   5.743  1.8458 -0.4182 -0.6994
 6136SOL    HW324317   3.952   3.958   5.751  2.2127 -0.3342  0.8406
 6136SOL    MW424318   3.932   4.035   5.787  0.8687 -0.0704 -0.3866
 6137SOL     OW24319   4.976   0.905   4.849  0.4179 -0.3277 -0.0603
 6137SOL    HW224320   5.055   0.872   4.891  0.7914 -0.1028 -0.5748
 6137SOL    HW324321   5.008   0.967   4.783 -0.2423  0.7690  0.6197
 6137SOL    MW424322   4.991   0.909   4.846  0.3801 -0.1533 -0.0384
 6138SOL     OW24323   3.218   1.687   0.916  0.4087 -0.0270 -0.0156
 6138SOL    HW224324   3.144   1.675   0.976  1.1294 -0.1389  0.8718
 6138SOL    HW324325   3.253   1.599   0.904  0.4464  0.0352 -0.3790
 6138SOL    MW424326   3.213   1.674   0.922  0.5088 -0.0336  0.0536
 6139SOL     OW24327   1.395   1.067   0.206 -0.5012  0.1987 -0.3053
 6139SOL    HW224328   1.427   1.036   0.121 -1.0066  0.0415 -0.4395
 6139SOL    HW324329   1.471   1.059   0.264 -0.2049  0.1363 -0.6976
 6139SOL    MW424330   1.409   1.062   0.202 -0.5288  0.1697 -0.3748
 6140SOL     OW24331   6.242   4.331   4.386  0.3709 -0.0845 -0.0441
 6140SOL    HW224332   6.327   4.350   4.346  0.2873  0.7657  0.1660
 6140SOL    HW324333   6.181   4.389   4.340  0.4052  1.5478  1.8559
 6140SOL    MW424334   6.245   4.341   4.375  0.3644  0.2431  0.2343
 6141SOL     OW24335   0.183   2.542   1.061  0.2573  0.1224 -0.0064
 6141SOL    HW224336   0.123   2.607   1.023  0.7337  1.2832  1.1443
 6141SOL    HW324337   0.264   2.591   1.075  0.2005 -0.3203  2.1575
 6141SOL    MW424338   0.186   2.557   1.058  0.3126  0.2171  0.4309
 6142SOL     OW24339   3.774   0.128   1.551  0.4971 -0.2053 -0.2917
 6142SOL    HW224340   3.740   0.210   1.586  1.7529 -0.0638  0.6602
 6142SOL    HW324341   3.755   0.063   1.620  0.4033 -0.5214 -0.6096
 6142SOL    MW424342   3.767   0.130   1.565  0.6504 -0.2283 -0.2080
 6143SOL     OW24343   0.051   2.429   5.663 -0.1542  0.0465  0.9815
 6143SOL    HW224344   0.066   2.465   5.576 -1.1790 -0.9763  0.3501
 6143SOL    HW324345   0.039   2.505   5.719  1.2601  0.7371  0.3943
 6143SOL    MW424346   0.052   2.444   5.659 -0.1028  0.0027  0.8207
 6144SOL     OW24347   1.931   4.203   2.738  0.0043 -0.1739 -0.0088
 6144SOL    HW224348   1.883   4.236   2.662 -0.9522 -0.1639  0.5941
 6144SOL    HW324349   1.965   4.118   2.710 -1.6664 -0.8852  0.0529
 6144SOL    MW424350   1.929   4.196   2.724 -0.3423 -0.2664  0.0789
 6145SOL     OW24351   0.253   0.356   0.291  0.1529  0.0681  0.1041
 6145SOL    HW224352   0.236   0.357   0.385 -2.5272  0.6431 -0.2973
 6145SOL    HW324353   0.166   0.350   0.251  1.0532  1.9330 -2.3778
 6145SOL    MW424354   0.239   0.355   0.298 -0.0819  0.3900 -0.2763
 6146SOL     OW24355   3.310   3.178   4.721 -0.4989 -0.5052 -0.1118
 6146SOL    HW224356   3.287   3.251   4.780  0.7756  0.1751 -0.4187
 6146SOL    HW324357   3.240   3.178   4.655 -0.0711  1.0312 -0.6164
 6146SOL    MW424358   3.297   3.188   4.720 -0.2743 -0.2128 -0.2189
 6147SOL     OW24359   0.301   5.995   2.085  0.4324  0.2487 -0.4111
 6147SOL    HW224360   0.295   6.079   2.131 -0.1022 -1.0155  2.0263
 6147SOL    HW324361   0.287   5.929   2.154 -0.8766 -1.8168 -2.4929
 6147SOL    MW424362   0.299   5.997   2.100  0.1891 -0.1906 -0.3642
 6148SOL     OW24363   1.274   2.882   5.993 -0.3647  0.6417  0.2083
 6148SOL    HW224364   1.325   2.952   6.034 -0.0103 -0.7972  2.4305
 6148SOL    HW324365   1.295   2.888   5.900  1.6895  1.8421  0.6852
 6148SOL    MW424366   1.283   2.892   5.987 -0.0469  0.6103  0.5644
 6149SOL     OW24367   1.076   4.559   5.231 -0.5308 -0.1708  0.7812
 6149SOL    HW224368   1.148   4.584   5.172 -0.7894 -0.1908  0.4517
 6149SOL    HW324369   1.033   4.642   5.251 -1.6212 -0.3555 -0.6162
 6149SOL    MW424370   1.080   4.574   5.226 -0.7088 -0.1978  0.5534
 6150SOL     OW24371   3.954   0.598   1.808 -0.1327  0.2310  0.3694
 6150SOL    HW224372   4.028   0.655   1.788  1.3834 -1.3244  1.2285
 6150SOL    HW324373   3.900   0.649   1.869  0.6884  1.0832  0.4086
 6150SOL    MW424374   3.957   0.612   1.814  0.1757  0.1383  0.4879
 6151SOL     OW24375   5.526   1.211   2.409 -0.2221 -0.2638 -0.2754
 6151SOL    HW224376   5.534   1.152   2.333  0.3460  0.9263 -1.1722
 6151SOL    HW324377   5.573   1.166   2.479  1.9233 -0.0377 -1.4749
 6151SOL    MW424378   5.533   1.197   2.408  0.1359 -0.0770 -0.5520
 6152SOL     OW24379   0.696   2.721   1.242  0.2998  0.0476  0.5127
 6152SOL    HW224380   0.660   2.668   1.313  0.1546 -0.6720 -0.0933
 6152SOL    HW324381   0.711   2.660   1.170  0.8406  0.6921  0.0558
 6152SOL    MW424382   0.694   2.706   1.242  0.3520  0.0377  0.3725
 6153SOL     OW24383   2.726   2.982   2.421  0.0700 -0.4029  0.1285
 6153SOL    HW224384   2.734   2.916   2.490  0.1192  0.3980  0.9127
 6153SOL    HW324385   2.785   3.052   2.449 -1.9512  1.1586  0.7192
 6153SOL    MW424386   2.735   2.982   2.434 -0.1902 -0.0912  0.3099
 6154SOL     OW24387   4.797   0.153   3.067  0.4530 -0.4478  0.4193
 6154SOL    HW224388   4.809   0.077   3.124  1.9862 -1.6439 -1.3769
 6154SOL    HW324389   4.796   0.117   2.978  0.8778  1.6017 -0.4775
 6154SOL    MW424390   4.798   0.138   3.063  0.7113 -0.3352  0.0640
 6155SOL     OW24391   0.991   5.431   5.664  0.4540  0.2747 -0.2353
 6155SOL    HW224392   0.920   5.441   5.727 -0.4687  4.3166 -1.5902
 6155SOL    HW324393   0.951   5.386   5.589  0.4107 -0.7713  0.3971
 6155SOL    MW424394   0.977   5.426   5.662  0.3265  0.6700 -0.3306
 6156SOL     OW24395   5.311   2.964   0.452 -0.3432  0.0628  0.0689
 6156SOL    HW224396   5.348   2.952   0.540 -1.1164 -1.7287  0.2032
 6156SOL    HW324397   5.345   3.048   0.423 -0.4429  0.9324  2.2724
 6156SOL    MW424398   5.321   2.973   0.460 -0.4584 -0.0588  0.3774
 6157SOL     OW24399   2.339   0.627   0.072  0.3446 -0.4184 -0.0683
 6157SOL    HW224400   2.294   0.545   0.052 -0.1940 -0.3420  0.7520
 6157SOL    HW324401   2.304   0.690   0.008 -1.9571  0.0233  1.4760
 6157SOL    MW424402   2.328   0.625   0.061 -0.0302 -0.3501  0.2436
 6158SOL     OW24403   1.276   6.422   5.059  0.2231 -0.1614  0.5888
 6158SOL    HW224404   1.325   6.503   5.074  2.0607 -0.7718 -1.6346
 6158SOL    HW324405   1.324   6.355   5.108  0.9742 -0.5619 -0.6720
 6158SOL    MW424406   1.289   6.424   5.068  0.5647 -0.2948  0.1291
 6159SOL     OW24407   0.069   0.236   4.146 -0.1976 -0.0179 -0.4808
 6159SOL    HW224408   0.125   0.294   4.095 -0.9577  2.7164  1.5023
 6159SOL    HW324409  -0.018   0.276   4.139 -0.8058 -1.0592  0.7792
 6159SOL    MW424410   0.065   0.249   4.139 -0.3781  0.2055 -0.0529
 6160SOL     OW24411   0.718   5.824   5.204 -0.3484 -0.2132 -0.1075
 6160SOL    HW224412   0.718   5.797   5.113 -0.1490  0.2199 -0.2369
 6160SOL    HW324413   0.640   5.878   5.214 -0.7809 -0.8850  0.1666
 6160SOL    MW424414   0.708   5.828   5.194 -0.3792 -0.2447 -0.0884
 6161SOL     OW24415   5.792   0.439   2.214  0.6254  0.1932 -0.3407
 6161SOL    HW224416   5.710   0.414   2.171  0.0208  1.9271 -0.2631
 6161SOL    HW324417   5.811   0.526   2.181  1.8247  0.2934  0.5496
 6161SOL    MW424418   5.784   0.447   2.204  0.7038  0.4352 -0.2130
 6162SOL     OW24419   5.357   0.788   2.139  0.1306  0.1006  0.1611
 6162SOL    HW224420   5.298   0.714   2.124 -0.3824  0.5959 -0.3085
 6162SOL    HW324421   5.303   0.851   2.187  0.8193 -0.1697  1.3411
 6162SOL    MW424422   5.342   0.786   2.143  0.1538  0.1302  0.2548
 6163SOL     OW24423   2.182   3.175   0.376  0.1822 -0.0686  0.0810
 6163SOL    HW224424   2.166   3.245   0.314  0.3653 -0.1193 -0.0270
 6163SOL    HW324425   2.207   3.219   0.457  2.5421 -0.0015 -0.6017
 6163SOL    MW424426   2.184   3.190   0.378  0.5177 -0.0664 -0.0233
 6164SOL     OW24427   0.757   1.436   5.651  0.2343 -0.2393  0.0058
 6164SOL    HW224428   0.776   1.529   5.665  0.5197 -0.0275 -1.6316
 6164SOL    HW324429   0.800   1.392   5.724  1.4013  0.7899 -0.0309
 6164SOL    MW424430   0.765   1.443   5.663  0.4259 -0.0755 -0.2151
 6165SOL     OW24431   5.962   0.055   4.991  0.2607  0.0538  0.1868
 6165SOL    HW224432   6.033   0.098   4.942 -0.1215  0.5326  0.0487
 6165SOL    HW324433   6.005  -0.017   5.037  0.7029 -0.1463 -0.5246
 6165SOL    MW424434   5.977   0.051   4.990  0.2686  0.0906  0.0747
 6166SOL     OW24435   5.304   2.382   6.184  0.7252 -0.1722 -0.2017
 6166SOL    HW224436   5.333   2.378   6.275  0.0179 -0.7757  0.0096
 6166SOL    HW324437   5.326   2.470   6.155  4.8603 -1.2170 -0.8030
 6166SOL    MW424438   5.311   2.393   6.192  1.1775 -0.3897 -0.2531
 6167SOL     OW24439   2.054   6.245   5.001 -0.1378  0.0959  0.7856
 6167SOL    HW224440   2.011   6.184   4.940  0.7585  1.1473 -0.9791
 6167SOL    HW324441   2.021   6.220   5.087 -1.1549 -1.7212 -0.0750
 6167SOL    MW424442   2.044   6.234   5.004 -0.1537 -0.0051  0.4392
 6168SOL     OW24443   1.099   5.441   2.306  0.4054  0.0510  0.0831
 6168SOL    HW224444   1.163   5.434   2.236  0.3045 -1.5560  0.1190
 6168SOL    HW324445   1.146   5.413   2.385 -0.3930 -1.4566  0.0562
 6168SOL    MW424446   1.113   5.437   2.307  0.2867 -0.3599  0.0843
 6169SOL     OW24447   0.621   1.867   0.129 -0.1270  0.0172 -0.1474
 6169SOL    HW224448   0.682   1.891   0.059  0.3919 -0.5924  0.0843
 6169SOL    HW324449   0.651   1.781   0.159  0.6683  0.9435  1.9246
 6169SOL    MW424450   0.633   1.859   0.124  0.0464  0.0590  0.1565
 6170SOL     OW24451   1.536   0.401   5.125  0.1372 -0.1353 -0.1505
 6170SOL    HW224452   1.584   0.354   5.193  0.8507  1.1078  0.2339
 6170SOL    HW324453   1.497   0.477   5.170  1.1267  1.0549 -1.2098
 6170SOL    MW424454   1.537   0.405   5.140  0.3619  0.1858 -0.2395
 6171SOL     OW24455   1.527   3.982   5.558 -0.2385  0.0397 -0.4885
 6171SOL    HW224456   1.513   4.043   5.631  0.6708  0.9099 -1.0133
 6171SOL    HW324457   1.439   3.951   5.536 -0.7589  1.3308 -0.3395
 6171SOL    MW424458   1.513   3.986   5.565 -0.1872  0.3248 -0.5381
 6172SOL     OW24459   4.138   0.307   3.287  0.1459 -0.1574 -0.0490
 6172SOL    HW224460   4.219   0.308   3.236 -0.3731 -0.9176 -0.9234
 6172SOL    HW324461   4.111   0.215   3.286 -0.0731 -0.1341  1.3154
 6172SOL    MW424462   4.145   0.295   3.281  0.0486 -0.2546  0.0156
 6173SOL     OW24463   3.001   6.098   5.365  0.4554 -0.1642 -0.3026
 6173SOL    HW224464   3.012   6.031   5.298 -0.5976 -0.7332  0.0766
 6173SOL    HW324465   2.983   6.179   5.317  1.3420 -0.2131 -0.7431
 6173SOL    MW424466   3.000   6.100   5.350  0.4334 -0.2457 -0.3107
 6174SOL     OW24467   5.954   6.230   6.065  0.3057 -0.1873 -0.7167
 6174SOL    HW224468   5.928   6.316   6.033  0.4953  0.1711  0.0615
 6174SOL    HW324469   5.932   6.169   5.994 -1.4963  0.2584 -0.5684
 6174SOL    MW424470   5.948   6.233   6.052  0.0930 -0.0812 -0.5945
 6175SOL     OW24471   5.063   2.798   5.001 -0.1255  0.0181 -0.3249
 6175SOL    HW224472   5.059   2.777   5.094  0.9442  2.3679  0.3284
 6175SOL    HW324473   5.149   2.840   4.989 -1.0875  1.7286 -1.8616
 6175SOL    MW424474   5.074   2.801   5.011 -0.1113  0.5538 -0.4415
 6176SOL     OW24475   1.176   0.884   5.807  0.0048 -0.3446 -0.5109
 6176SOL    HW224476   1.171   0.877   5.712  0.8743  0.7252 -0.6573
 6176SOL    HW324477   1.085   0.880   5.837 -0.2962 -0.3788 -1.4051
 6176SOL    MW424478   1.164   0.883   5.798  0.0798 -0.2080 -0.6482
 6177SOL     OW24479   2.886   3.244   0.354 -0.2496 -0.0640  0.3712
 6177SOL    HW224480   2.828   3.295   0.297 -0.6676  1.2881  1.9537
 6177SOL    HW324481   2.868   3.153   0.329 -2.5402  0.3308  0.2938
 6177SOL    MW424482   2.876   3.239   0.343 -0.6069  0.1665  0.5698
 6178SOL     OW24483   5.257   6.356   5.792  0.1464  0.4576 -0.0360
 6178SOL    HW224484   5.280   6.341   5.701  1.3913 -1.0818  0.4985
 6178SOL    HW324485   5.320   6.421   5.823 -0.9661  1.8216 -0.5250
 6178SOL    MW424486   5.268   6.363   5.784  0.1639  0.4345 -0.0300
 6179SOL     OW24487   2.286   1.914   3.527 -0.2099 -0.3862  0.5276
 6179SOL    HW224488   2.332   1.832   3.544  0.9806  0.1389 -0.0189
 6179SOL    HW324489   2.343   1.981   3.566  0.9100  0.5452 -2.4388
 6179SOL    MW424490   2.300   1.912   3.534  0.0949 -0.1940  0.0641
 6180SOL     OW24491   5.199   0.074   0.747 -0.4852  0.3398  0.5698
 6180SOL    HW224492   5.107   0.061   0.769 -0.2884  0.8838  1.8037
 6180SOL    HW324493   5.202   0.074   0.652 -1.5122 -1.3814  0.4941
 6180SOL    MW424494   5.187   0.072   0.738 -0.5947  0.1845  0.7226
 6181SOL     OW24495   4.886   0.597   2.673  0.2702  0.1298 -0.3003
 6181SOL    HW224496   4.954   0.656   2.706  1.7305 -0.6905 -1.7065
 6181SOL    HW324497   4.834   0.575   2.750 -0.3255  3.1495  0.3086
 6181SOL    MW424498   4.888   0.602   2.687  0.3843  0.4200 -0.4055
 6182SOL     OW24499   4.589   5.787   5.001 -0.4355  0.6508 -0.5069
 6182SOL    HW224500   4.578   5.875   4.966  1.4303  0.8814 -0.6545
 6182SOL    HW324501   4.645   5.799   5.078  0.9815 -0.5047 -1.3053
 6182SOL    MW424502   4.595   5.800   5.006 -0.0024  0.5288 -0.6317
 6183SOL     OW24503   5.445   3.632   4.113 -0.1746 -0.2950 -0.4605
 6183SOL    HW224504   5.458   3.616   4.207  0.3246 -2.2680 -0.8314
 6183SOL    HW324505   5.502   3.706   4.093  1.4361 -1.2755  0.3617
 6183SOL    MW424506   5.454   3.640   4.123  0.1038 -0.6847 -0.4009
 6184SOL     OW24507   0.610   2.546   4.310 -0.1524  0.0919  0.2899
 6184SOL    HW224508   0.572   2.627   4.344  0.4304  0.5412 -0.0915
 6184SOL    HW324509   0.704   2.560   4.315 -0.0471 -0.3841 -0.2021
 6184SOL    MW424510   0.617   2.558   4.315 -0.0616  0.0884  0.1747
 6185SOL     OW24511   0.596   5.208   4.283 -0.3194 -0.1095  0.2794
 6185SOL    HW224512   0.585   5.249   4.197 -0.5275 -0.3364  0.1974
 6185SOL    HW324513   0.691   5.196   4.291 -0.2931 -0.0322  0.1071
 6185SOL    MW424514   0.607   5.212   4.273 -0.3434 -0.1292  0.2459
 6186SOL     OW24515   0.622   0.181   3.327 -0.3008  0.3723 -0.3354
 6186SOL    HW224516   0.632   0.214   3.416 -1.1683 -0.1244 -0.0408
 6186SOL    HW324517   0.712   0.166   3.296  0.0424 -3.3399  1.9224
 6186SOL    MW424518   0.635   0.184   3.334 -0.3700 -0.1830  0.0014
 6187SOL     OW24519   2.203   2.372   1.679  0.2760 -0.1104  0.4859
 6187SOL    HW224520   2.144   2.427   1.731 -0.8569 -1.6156  0.8647
 6187SOL    HW324521   2.183   2.394   1.588 -1.2120 -0.8597  0.5888
 6187SOL    MW424522   2.192   2.382   1.674 -0.0698 -0.4079  0.5495
 6188SOL     OW24523   4.004   4.597   1.506 -0.1220 -0.1932 -0.0545
 6188SOL    HW224524   4.075   4.608   1.569  0.9370 -0.0958 -1.2356
 6188SOL    HW324525   4.015   4.507   1.473 -0.5101 -0.1612 -0.2819
 6188SOL    MW424526   4.015   4.586   1.510 -0.0335 -0.1761 -0.2403
 6189SOL     OW24527   1.738   1.881   5.131  0.1442  0.0348  0.1214
 6189SOL    HW224528   1.774   1.812   5.187  0.4111  0.1731  0.1213
 6189SOL    HW324529   1.695   1.940   5.192 -2.1644 -1.3433 -0.0555
 6189SOL    MW424530   1.737   1.879   5.147 -0.1251 -0.1288  0.0980
 6190SOL     OW24531   0.402   2.088   2.932 -0.2508 -0.0791 -0.3031
 6190SOL    HW224532   0.384   1.995   2.920 -0.0828 -0.1005 -0.3949
 6190SOL    HW324533   0.394   2.125   2.845 -1.5513  0.2113 -0.0744
 6190SOL    MW424534   0.399   2.081   2.919 -0.4003 -0.0436 -0.2851
 6191SOL     OW24535   0.581   0.706   4.245  0.0871  0.2016 -0.4293
 6191SOL    HW224536   0.506   0.728   4.190 -1.1935  0.6821  1.4258
 6191SOL    HW324537   0.605   0.617   4.219 -1.2333 -0.0155 -0.9426
 6191SOL    MW424538   0.575   0.697   4.234 -0.2561  0.2364 -0.2523
 6192SOL     OW24539   0.110   2.922   2.392 -0.0044  0.3348 -0.1040
 6192SOL    HW224540   0.193   2.875   2.386 -0.3140 -0.4770  1.6282
 6192SOL    HW324541   0.043   2.855   2.383 -0.4695  0.7639  0.1016
 6192SOL    MW424542   0.112   2.907   2.390 -0.1066  0.2843  0.1517
 6193SOL     OW24543   2.711   0.382   1.967  0.5063 -0.2047 -0.2699
 6193SOL    HW224544   2.620   0.361   1.944  0.6780 -0.0088 -1.1393
 6193SOL    HW324545   2.758   0.378   1.885  1.2334  0.0178  0.1305
 6193SOL    MW424546   2.705   0.379   1.953  0.6249 -0.1495 -0.3318
 6194SOL     OW24547   5.038   4.751   2.296 -0.4585 -0.0013 -0.0424
 6194SOL    HW224548   4.993   4.739   2.213  0.5823  0.8478 -0.7562
 6194SOL    HW324549   5.130   4.762   2.272 -0.1939  0.6234  1.1887
 6194SOL    MW424550   5.044   4.751   2.282 -0.2863  0.1932  0.0258
 6195SOL     OW24551   2.250   5.337   5.625 -0.2967 -0.3446  0.1166
 6195SOL    HW224552   2.285   5.394   5.693  0.2251 -0.8026  0.2377
 6195SOL    HW324553   2.267   5.248   5.656 -1.8356 -0.6013  0.3173
 6195SOL    MW424554   2.257   5.333   5.638 -0.4309 -0.4389  0.1591
 6196SOL     OW24555   4.340   5.632   1.618 -0.4187  0.2947  0.0877
 6196SOL    HW224556   4.431   5.661   1.632  0.0948 -1.1258 -0.1259
 6196SOL    HW324557   4.314   5.673   1.536  0.2464  0.2480 -0.1582
 6196SOL    MW424558   4.349   5.641   1.609 -0.2632  0.1011  0.0271
 6197SOL     OW24559   2.103   2.146   3.919 -0.5288 -0.4306 -0.0916
 6197SOL    HW224560   2.110   2.213   3.851 -0.8082  0.4659  0.7454
 6197SOL    HW324561   2.010   2.143   3.941 -0.3639 -0.3092  0.6491
 6197SOL    MW424562   2.092   2.154   3.913 -0.5439 -0.2963  0.1165
 6198SOL     OW24563   0.749   1.732   3.537 -0.3695  0.1372  0.4921
 6198SOL    HW224564   0.729   1.712   3.445 -0.7055 -0.0724  0.6076
 6198SOL    HW324565   0.739   1.827   3.544 -2.2767 -0.0342  0.7543
 6198SOL    MW424566   0.745   1.742   3.525 -0.6654  0.0869  0.5419
 6199SOL     OW24567   6.181   0.472   1.208 -0.3381  0.6144  0.2274
 6199SOL    HW224568   6.271   0.473   1.174  0.3772 -1.0687  1.8874
 6199SOL    HW324569   6.190   0.487   1.302 -1.9100  1.3340  0.2960
 6199SOL    MW424570   6.194   0.474   1.216 -0.4511  0.4873  0.4555
 6200SOL     OW24571   5.246   1.083   0.682  0.4561 -0.4704 -0.3280
 6200SOL    HW224572   5.232   1.175   0.659 -0.5935 -0.8473 -1.3030
 6200SOL    HW324573   5.224   1.079   0.775  1.7185  0.4823  0.0432
 6200SOL    MW424574   5.241   1.095   0.691  0.4842 -0.3944 -0.4076
 6201SOL     OW24575   2.539   1.505   6.056 -0.0610 -0.2231  0.1152
 6201SOL    HW224576   2.590   1.579   6.022 -2.6011  1.0844 -1.1547
 6201SOL    HW324577   2.543   1.440   5.986  1.1512 -0.8098  0.7083
 6201SOL    MW424578   2.546   1.506   6.042 -0.2362 -0.1280  0.0259
 6202SOL     OW24579   5.082   0.958   3.165 -0.3600  0.2107 -0.2329
 6202SOL    HW224580   5.123   0.871   3.161  1.7113  0.9988  1.4886
 6202SOL    HW324581   5.004   0.946   3.218  0.7887 -0.3854  1.4163
 6202SOL    MW424582   5.077   0.945   3.172  0.0648  0.2361  0.2118
 6203SOL     OW24583   1.023   0.239   0.320  0.4900 -0.0975  0.5438
 6203SOL    HW224584   1.055   0.244   0.410  0.9151  1.5839  0.3262
 6203SOL    HW324585   0.984   0.325   0.303 -0.7164 -0.8082 -0.4807
 6203SOL    MW424586   1.022   0.251   0.330  0.3869  0.0306  0.3800
 6204SOL     OW24587   3.697   4.398   4.560  0.3263  0.0616  0.2681
 6204SOL    HW224588   3.617   4.444   4.535  0.5222 -0.4559 -1.4823
 6204SOL    HW324589   3.719   4.345   4.483  1.3429 -1.2250  1.3800
 6204SOL    MW424590   3.689   4.397   4.547  0.4863 -0.1764  0.1838
 6205SOL     OW24591   6.011   1.196   1.705 -0.6923  0.0153  0.5606
 6205SOL    HW224592   6.054   1.163   1.784  1.4994  1.4132  0.0439
 6205SOL    HW324593   6.055   1.151   1.633 -1.7080 -0.2111  0.0589
 6205SOL    MW424594   6.022   1.186   1.706 -0.5372  0.1698  0.4262
 6206SOL     OW24595   1.280   2.130   0.764 -0.2802  0.1190 -0.0824
 6206SOL    HW224596   1.246   2.200   0.708 -0.3546  0.4319  0.3491
 6206SOL    HW324597   1.238   2.145   0.849 -0.4869 -0.5947 -0.0492
 6206SOL    MW424598   1.270   2.141   0.767 -0.3173  0.0661 -0.0211
 6207SOL     OW24599   5.928   1.786   1.012 -0.7034 -0.9424 -0.2255
 6207SOL    HW224600   5.931   1.750   1.101  1.2441 -2.2385 -0.7517
 6207SOL    HW324601   5.951   1.713   0.956 -0.5623  0.1868 -1.7009
 6207SOL    MW424602   5.931   1.772   1.017 -0.4278 -0.9644 -0.4896
 6208SOL     OW24603   4.541   4.118   3.073 -0.0682  0.1700 -0.2081
 6208SOL    HW224604   4.483   4.090   3.143  1.0700  0.8970  1.0674
 6208SOL    HW324605   4.596   4.041   3.055 -0.1314  0.0921 -0.0690
 6208SOL    MW424606   4.540   4.104   3.080  0.0737  0.2556 -0.0215
 6209SOL     OW24607   0.073   5.267   6.303 -0.2634 -0.4542  0.4192
 6209SOL    HW224608   0.120   5.189   6.272 -0.3890 -0.3958  0.0784
 6209SOL    HW324609   0.060   5.251   6.396  0.8142 -0.2824  0.6169
 6209SOL    MW424610   0.077   5.255   6.311 -0.1378 -0.4238  0.4003
 6210SOL     OW24611   0.839   2.004   3.962 -0.1410 -0.7732  0.2698
 6210SOL    HW224612   0.886   2.084   3.938  1.4041 -1.9260 -0.7099
 6210SOL    HW324613   0.852   1.995   4.056  1.4264 -0.9205  0.0611
 6210SOL    MW424614   0.847   2.013   3.971  0.2697 -0.9447  0.1130
 6211SOL     OW24615   5.813   4.436   4.079  0.3201  0.8680  0.3962
 6211SOL    HW224616   5.776   4.458   3.993  1.6946  0.2602 -0.3858
 6211SOL    HW324617   5.747   4.381   4.121 -0.1796  0.8010 -0.4634
 6211SOL    MW424618   5.800   4.432   4.073  0.4355  0.7790  0.1796
 6212SOL     OW24619   0.063   6.199   5.881  0.3001  0.1054  0.2745
 6212SOL    HW224620   0.031   6.282   5.916 -0.3562  0.3004 -0.7303
 6212SOL    HW324621  -0.016   6.151   5.858  0.6100 -1.4259  2.1614
 6212SOL    MW424622   0.048   6.203   5.883  0.2544 -0.0709  0.3909
 6213SOL     OW24623   4.008   1.948   4.120 -0.1840  0.0028 -0.0826
 6213SOL    HW224624   3.938   1.967   4.182 -0.0310 -0.2567  0.1700
 6213SOL    HW324625   3.963   1.929   4.038 -0.4251 -0.4588  0.1542
 6213SOL    MW424626   3.993   1.948   4.117 -0.1956 -0.0923 -0.0180
 6214SOL     OW24627   4.913   0.693   2.990  0.0746 -0.1181 -0.1850
 6214SOL    HW224628   4.978   0.662   3.053 -0.9011 -1.3233  0.2627
 6214SOL    HW324629   4.965   0.740   2.924  1.5723 -2.1541 -0.5548
 6214SOL    MW424630   4.929   0.695   2.990  0.1435 -0.5458 -0.1747
 6215SOL     OW24631   0.954   2.008   1.816 -0.3214 -0.6839  0.4041
 6215SOL    HW224632   0.880   2.045   1.864 -1.5238 -0.6317 -1.4236
 6215SOL    HW324633   0.949   2.049   1.730  1.8693 -0.6701  0.2343
 6215SOL    MW424634   0.944   2.019   1.811 -0.1910 -0.6752  0.1405
 6216SOL     OW24635   2.430   3.509   3.774  0.5515  0.5325 -0.0059
 6216SOL    HW224636   2.363   3.564   3.815  0.9774  0.5038  0.7598
 6216SOL    HW324637   2.498   3.570   3.746 -0.8530  0.8626 -3.0733
 6216SOL    MW424638   2.430   3.524   3.776  0.4224  0.5723 -0.3096
 6217SOL     OW24639   4.382   5.721   2.393  0.0433  0.2615  0.0501
 6217SOL    HW224640   4.392   5.814   2.370 -1.0259  0.3078 -0.2993
 6217SOL    HW324641   4.465   5.681   2.369 -0.7354  0.4053 -3.3986
 6217SOL    MW424642   4.394   5.728   2.387 -0.2005  0.2866 -0.4510
 6218SOL     OW24643   3.427   2.550   2.772 -0.4636 -0.1117  0.1024
 6218SOL    HW224644   3.397   2.566   2.861 -3.0320 -0.0385 -0.7100
 6218SOL    HW324645   3.389   2.466   2.748 -0.5028  0.2492 -1.2037
 6218SOL    MW424646   3.418   2.541   2.780 -0.8076 -0.0544 -0.1771
 6219SOL     OW24647   1.874   5.174   5.322 -0.0251  0.7782 -0.1710
 6219SOL    HW224648   1.858   5.264   5.351 -0.2858  1.1113 -1.2834
 6219SOL    HW324649   1.796   5.126   5.349  0.7631  0.5191  1.7752
 6219SOL    MW424650   1.862   5.180   5.329  0.0445  0.7880 -0.0610
 6220SOL     OW24651   0.578   4.971   0.384 -0.0107  0.7121 -0.3563
 6220SOL    HW224652   0.544   4.888   0.418  0.1664  1.4453  1.7848
 6220SOL    HW324653   0.575   5.031   0.459  1.3651  2.1895 -1.4029
 6220SOL    MW424654   0.573   4.968   0.399  0.1942  1.0037 -0.2119
 6221SOL     OW24655   2.400   3.815   5.921 -0.4190 -0.3124  0.1023
 6221SOL    HW224656   2.320   3.851   5.883  0.0803  0.1518 -0.5443
 6221SOL    HW324657   2.371   3.765   5.997 -1.1720  1.2700  0.8924
 6221SOL    MW424658   2.386   3.813   5.926 -0.4525 -0.0424  0.1212
 6222SOL     OW24659   2.216   2.046   0.095  0.4304  0.0642 -0.1657
 6222SOL    HW224660   2.177   2.007   0.016 -1.1920 -1.4555  1.2867
 6222SOL    HW324661   2.308   2.024   0.089  0.3401 -0.0545 -1.6041
 6222SOL    MW424662   2.223   2.038   0.084  0.2045 -0.1520 -0.1638
 6223SOL     OW24663   4.184   5.406   3.522  0.4075 -0.7356  0.4777
 6223SOL    HW224664   4.132   5.448   3.590  1.8869 -0.7476  1.6576
 6223SOL    HW324665   4.162   5.454   3.442 -0.7152 -0.1709  1.1013
 6223SOL    MW424666   4.174   5.417   3.520  0.4545 -0.6627  0.7157
 6224SOL     OW24667   3.999   3.121   4.487  0.2901 -0.3682 -0.0288
 6224SOL    HW224668   3.907   3.121   4.460 -0.2087 -1.3457  1.5433
 6224SOL    HW324669   4.040   3.054   4.431  0.2815  0.7201 -1.3783
 6224SOL    MW424670   3.992   3.112   4.476  0.2231 -0.3536  0.0006
 6225SOL     OW24671   4.633   2.713   2.984 -0.7048 -0.1642  0.0629
 6225SOL    HW224672   4.657   2.626   2.952  1.3301  0.4671 -0.2871
 6225SOL    HW324673   4.602   2.759   2.906 -0.8249 -0.2750  0.0458
 6225SOL    MW424674   4.632   2.708   2.969 -0.4522 -0.0955  0.0145
 6226SOL     OW24675   1.338   4.018   4.406 -0.1062 -0.1748 -0.0167
 6226SOL    HW224676   1.246   4.015   4.378 -0.7855  1.2802  1.8406
 6226SOL    HW324677   1.362   3.927   4.419 -0.2614 -0.8228 -3.4750
 6226SOL    MW424678   1.329   4.006   4.404 -0.2163 -0.0683 -0.2279
 6227SOL     OW24679   2.457   2.424   3.547  0.2901  0.5534 -0.1883
 6227SOL    HW224680   2.486   2.376   3.469 -1.6272 -0.6558 -0.2141
 6227SOL    HW324681   2.394   2.488   3.514  1.0074  1.4685  0.1576
 6227SOL    MW424682   2.453   2.426   3.532  0.1317  0.5146 -0.1461
 6228SOL     OW24683   6.119   1.846   3.076 -0.5435  0.0686  0.0094
 6228SOL    HW224684   6.055   1.794   3.124 -0.2238  1.6417  2.3297
 6228SOL    HW324685   6.067   1.896   3.013 -1.3150 -0.3198  0.3279
 6228SOL    MW424686   6.104   1.846   3.074 -0.6031  0.2249  0.3575
 6229SOL     OW24687   2.634   3.987   4.274  0.2768  0.3276 -0.3471
 6229SOL    HW224688   2.616   3.976   4.367  0.7922 -1.4875 -0.4251
 6229SOL    HW324689   2.575   3.926   4.230  1.3895 -0.2790 -1.0612
 6229SOL    MW424690   2.624   3.977   4.280  0.4916  0.0081 -0.4516
 6230SOL     OW24691   4.804   2.860   4.685  0.1619  0.3688 -0.0281
 6230SOL    HW224692   4.714   2.867   4.653  0.1835  1.8060  0.1511
 6230SOL    HW324693   4.856   2.902   4.616  0.9011 -1.6584 -0.8058
 6230SOL    MW424694   4.799   2.866   4.671  0.2623  0.2910 -0.1071
 6231SOL     OW24695   6.159   2.269   4.911  0.2483 -0.0660 -0.4029
 6231SOL    HW224696   6.137   2.359   4.937  1.3045 -0.1688  0.9093
 6231SOL    HW324697   6.079   2.237   4.867 -0.9555  0.7502  1.1002
 6231SOL    MW424698   6.145   2.277   4.908  0.2288  0.0281 -0.0315
 6232SOL     OW24699   4.057   1.324   3.599 -0.3346  0.4522 -0.7753
 6232SOL    HW224700   3.975   1.328   3.549 -0.6562  1.5032 -0.1998
 6232SOL    HW324701   4.105   1.403   3.573  0.2039  0.1834 -0.6088
 6232SOL    MW424702   4.052   1.335   3.589 -0.3059  0.5554 -0.6774
 6233SOL     OW24703   1.213   5.532   5.820 -0.3635  0.6659  0.2345
 6233SOL    HW224704   1.133   5.521   5.769 -0.1977  1.1980 -0.1446
 6233SOL    HW324705   1.233   5.444   5.853 -0.8181  0.4376 -0.0968
 6233SOL    MW424706   1.205   5.519   5.818 -0.4016  0.7060  0.1408
 6234SOL     OW24707   4.754   1.023   4.503  0.7913  0.3144  0.2626
 6234SOL    HW224708   4.832   1.025   4.558 -0.2584 -0.1088  1.8307
 6234SOL    HW324709   4.687   1.070   4.552 -0.4565 -0.8770 -0.1918
 6234SOL    MW424710   4.755   1.029   4.516  0.4882  0.1014  0.4096
 6235SOL     OW24711   5.642   2.611   3.420  0.3131 -0.0895  0.7486
 6235SOL    HW224712   5.604   2.530   3.387 -1.3358  2.0417 -3.2651
 6235SOL    HW324713   5.573   2.649   3.476 -0.0010 -0.2011  0.4354
 6235SOL    MW424714   5.628   2.606   3.423  0.0541  0.1769  0.1777
 6236SOL     OW24715   5.455   4.173   1.593 -0.3714 -0.4918  0.3279
 6236SOL    HW224716   5.480   4.137   1.678 -2.3430 -3.2174 -0.1162
 6236SOL    HW324717   5.536   4.170   1.542  1.0219  1.8596  2.1911
 6236SOL    MW424718   5.469   4.168   1.597 -0.4477 -0.5411  0.5151
 6237SOL     OW24719   3.420   1.858   0.662 -0.6645 -0.5805  0.7151
 6237SOL    HW224720   3.450   1.777   0.621 -1.5430 -0.8942  0.6655
 6237SOL    HW324721   3.441   1.847   0.754 -1.0556 -1.0075  0.7591
 6237SOL    MW424722   3.426   1.846   0.669 -0.8320 -0.6782  0.7143
 6238SOL     OW24723   4.264   5.472   1.977  0.2209  0.0659 -0.2426
 6238SOL    HW224724   4.358   5.458   1.963  0.0110 -0.5356 -1.1191
 6238SOL    HW324725   4.258   5.502   2.068  1.0391 -2.3443  0.6875
 6238SOL    MW424726   4.276   5.474   1.987  0.3012 -0.3315 -0.2355
 6239SOL     OW24727   0.585   1.239   2.710 -0.2147 -0.0648 -0.0420
 6239SOL    HW224728   0.583   1.198   2.624  0.4047 -0.4809  0.1371
 6239SOL    HW324729   0.609   1.168   2.770  0.7099  0.5245  0.2934
 6239SOL    MW424730   0.588   1.224   2.707 -0.0110 -0.0420  0.0259
 6240SOL     OW24731   4.126   6.097   3.753  0.1159  0.2414 -0.4411
 6240SOL    HW224732   4.112   6.191   3.744  0.9410  0.4211  0.0960
 6240SOL    HW324733   4.164   6.086   3.840  0.4445 -0.5391 -0.6700
 6240SOL    MW424734   4.129   6.108   3.763  0.2681  0.1621 -0.4004
 6241SOL     OW24735   0.593   1.313   0.109  0.5706 -0.1089 -0.2691
 6241SOL    HW224736   0.513   1.284   0.152  1.0882 -1.7130 -0.3505
 6241SOL    HW324737   0.580   1.292   0.017 -0.0292  2.2090 -0.7993
 6241SOL    MW424738   0.581   1.307   0.103  0.5597 -0.0147 -0.3498
 6242SOL     OW24739   5.590   1.161   5.052  0.1276  0.6085  0.5773
 6242SOL    HW224740   5.683   1.138   5.052  0.1674  0.7545  1.1279
 6242SOL    HW324741   5.574   1.194   5.140 -0.3525  0.9743  0.3560
 6242SOL    MW424742   5.601   1.163   5.064  0.0695  0.6760  0.6207
 6243SOL     OW24743   1.753   3.547   0.916  0.0680 -0.4161 -0.2720
 6243SOL    HW224744   1.763   3.641   0.928  1.8709 -0.5532 -0.5276
 6243SOL    HW324745   1.733   3.536   0.823  1.1583 -0.3564 -0.5232
 6243SOL    MW424746   1.751   3.558   0.905  0.4498 -0.4263 -0.3388
 6244SOL     OW24747   6.011   3.400   5.408  0.2207  0.2363 -0.0971
 6244SOL    HW224748   6.049   3.357   5.485 -0.5228 -0.6622 -0.2163
 6244SOL    HW324749   6.068   3.374   5.336 -0.4850 -0.9657 -0.2471
 6244SOL    MW424750   6.024   3.391   5.409  0.0295 -0.0408 -0.1326
 6245SOL     OW24751   0.058   5.743   4.608  0.3387 -0.0763 -0.0605
 6245SOL    HW224752   0.102   5.800   4.671 -0.3284  0.6707 -0.2497
 6245SOL    HW324753   0.071   5.787   4.524 -0.3503 -0.0970 -0.1843
 6245SOL    MW424754   0.065   5.756   4.605  0.1598  0.0195 -0.1018
 6246SOL     OW24755   5.712   4.244   2.200  0.1156  0.4426 -0.0695
 6246SOL    HW224756   5.646   4.299   2.158 -0.6805 -0.2402  0.2670
 6246SOL    HW324757   5.679   4.155   2.189  1.5919 -0.0310 -0.9780
 6246SOL    MW424758   5.699   4.240   2.193  0.2054  0.2900 -0.1450
 6247SOL     OW24759   4.972   5.442   5.235  0.6734  0.1541  0.6961
 6247SOL    HW224760   4.999   5.425   5.325  1.4516 -1.8430  0.1445
 6247SOL    HW324761   4.885   5.404   5.229  0.8549 -0.2290  0.4632
 6247SOL    MW424762   4.964   5.435   5.246  0.8000 -0.1600  0.5926
 6248SOL     OW24763   2.520   2.762   3.517 -0.0727 -0.4874  0.2664
 6248SOL    HW224764   2.611   2.741   3.537 -0.1081  0.2083  1.2239
 6248SOL    HW324765   2.472   2.739   3.596 -0.2579  2.1418  1.0066
 6248SOL    MW424766   2.525   2.756   3.530 -0.1018 -0.0487  0.4904
 6249SOL     OW24767   4.700   1.637   0.854 -0.6029  0.7581  0.4749
 6249SOL    HW224768   4.643   1.713   0.845 -1.9746 -0.3431 -0.8463
 6249SOL    HW324769   4.661   1.571   0.795  0.2662 -1.0971  1.8594
 6249SOL    MW424770   4.687   1.638   0.845 -0.6692  0.3681  0.4833
 6250SOL     OW24771   5.305   4.729   2.174  0.2725 -0.1631 -0.2928
 6250SOL    HW224772   5.366   4.685   2.233 -0.6509 -1.4506 -0.2487
 6250SOL    HW324773   5.287   4.664   2.106  0.2887  0.8286 -1.2640
 6250SOL    MW424774   5.311   4.714   2.173  0.1528 -0.2021 -0.4151
 6251SOL     OW24775   5.960   6.288   4.775  0.5481  0.1502 -0.2470
 6251SOL    HW224776   5.884   6.336   4.744 -1.0542 -2.8650 -1.4054
 6251SOL    HW324777   5.976   6.323   4.863 -0.8828  2.2517 -0.7540
 6251SOL    MW424778   5.952   6.299   4.783  0.1479  0.0296 -0.4667
 6252SOL     OW24779   4.191   1.198   5.070 -0.1558 -0.5373 -0.0508
 6252SOL    HW224780   4.187   1.157   5.157  0.1001 -1.4076 -0.4408
 6252SOL    HW324781   4.279   1.180   5.039  0.1840  0.8837  0.0264
 6252SOL    MW424782   4.202   1.191   5.078 -0.0772 -0.4646 -0.0921
 6253SOL     OW24783   5.505   3.258   5.127  0.0986  0.2199  0.1526
 6253SOL    HW224784   5.557   3.238   5.205 -0.7485  0.8633  0.9112
 6253SOL    HW324785   5.419   3.281   5.161  0.4737  3.3997 -0.7054
 6253SOL    MW424786   5.501   3.258   5.142  0.0363  0.7243  0.1395
 6254SOL     OW24787   0.017   2.219   1.563 -1.2068  0.2521  0.7430
 6254SOL    HW224788  -0.076   2.200   1.556 -1.1762  0.7123 -2.0434
 6254SOL    HW324789   0.059   2.160   1.500 -0.2162  3.3682 -1.7766
 6254SOL    MW424790   0.010   2.208   1.554 -1.0721  0.7239  0.0429
 6255SOL     OW24791   3.963   1.048   2.349 -0.7456 -0.0226 -0.1853
 6255SOL    HW224792   3.927   1.046   2.438  0.5322 -1.3083  0.3466
 6255SOL    HW324793   3.997   1.137   2.339  0.5231 -0.3161  1.2329
 6255SOL    MW424794   3.963   1.059   2.360 -0.4096 -0.2310  0.0720
 6256SOL     OW24795   5.810   5.628   4.477  0.0120  0.5877  0.2353
 6256SOL    HW224796   5.798   5.613   4.383 -0.8018 -0.1985  0.4459
 6256SOL    HW324797   5.835   5.720   4.484 -0.5759  0.8330 -0.7019
 6256SOL    MW424798   5.812   5.638   4.466 -0.1729  0.5163  0.1394
 6257SOL     OW24799   5.590   5.059   4.755 -0.6001 -0.3841  0.0091
 6257SOL    HW224800   5.664   5.103   4.711 -0.4520 -1.9022 -1.3467
 6257SOL    HW324801   5.554   5.002   4.688 -0.8783 -2.2169  1.6570
 6257SOL    MW424802   5.595   5.057   4.740 -0.6173 -0.8262  0.0476
 6258SOL     OW24803   3.261   2.881   4.323 -0.2588 -0.3208 -0.0022
 6258SOL    HW224804   3.166   2.884   4.334 -0.3035 -3.4453  1.4736
 6258SOL    HW324805   3.274   2.887   4.228 -1.7028  2.0949 -0.1386
 6258SOL    MW424806   3.251   2.882   4.312 -0.4552 -0.4143  0.1745
 6259SOL     OW24807   6.177   0.622   1.781 -0.4970 -0.1252  0.1515
 6259SOL    HW224808   6.120   0.647   1.853  2.0844  0.7906  2.0477
 6259SOL    HW324809   6.144   0.672   1.706 -2.3405  0.0834  1.0473
 6259SOL    MW424810   6.165   0.632   1.780 -0.3996  0.0232  0.5198
 6260SOL     OW24811   5.976   6.078   3.848 -0.2696 -0.1438  0.0857
 6260SOL    HW224812   6.029   6.092   3.770  0.2099 -0.5048  0.3441
 6260SOL    HW324813   5.889   6.058   3.814 -0.2378  0.3938 -0.3404
 6260SOL    MW424814   5.971   6.078   3.833 -0.2021 -0.1205  0.0636
 6261SOL     OW24815   0.659   2.977   1.456  0.1076  0.2658 -0.6637
 6261SOL    HW224816   0.743   2.980   1.501  1.1611  2.8125 -2.5700
 6261SOL    HW324817   0.681   2.956   1.365 -1.4599 -0.0866 -0.9924
 6261SOL    MW424818   0.673   2.974   1.450  0.0398  0.5553 -0.9586
 6262SOL     OW24819   4.162   2.390   4.816 -0.1579  0.2278 -0.1562
 6262SOL    HW224820   4.194   2.300   4.822 -0.3560  0.1572 -0.1213
 6262SOL    HW324821   4.205   2.426   4.739 -1.8870 -0.6505 -1.6113
 6262SOL    MW424822   4.172   2.383   4.807 -0.4121  0.1026 -0.3436
 6263SOL     OW24823   1.168   1.497   1.365 -0.6180  0.6079 -0.2922
 6263SOL    HW224824   1.179   1.544   1.448 -1.5517  1.2719 -0.5238
 6263SOL    HW324825   1.236   1.533   1.308  0.4702 -0.3433  0.3803
 6263SOL    MW424826   1.178   1.508   1.368 -0.5976  0.5700 -0.2340
 6264SOL     OW24827   4.820   6.125   2.908  0.0368 -0.1780  0.6820
 6264SOL    HW224828   4.859   6.052   2.956 -1.6358 -0.3714  1.8576
 6264SOL    HW324829   4.730   6.095   2.890  0.1043  0.5924 -1.0942
 6264SOL    MW424830   4.813   6.111   2.912 -0.1750 -0.1018  0.6028
 6265SOL     OW24831   4.022   0.387   0.132  0.0915  0.0354  0.0870
 6265SOL    HW224832   3.935   0.427   0.125 -0.2418 -0.7906 -0.7227
 6265SOL    HW324833   4.073   0.449   0.185 -0.6282  1.1434 -0.4691
 6265SOL    MW424834   4.017   0.401   0.138 -0.0475  0.0726 -0.0932
 6266SOL     OW24835   3.898   1.734   5.044  0.0524 -0.7695 -0.0193
 6266SOL    HW224836   3.891   1.816   4.994  0.3175 -2.0989 -2.4014
 6266SOL    HW324837   3.896   1.762   5.136  0.7279  1.9390 -0.7215
 6266SOL    MW424838   3.897   1.749   5.049  0.1765 -0.5875 -0.4263
 6267SOL     OW24839   0.339   2.402   6.403 -0.3734 -0.0311  0.4312
 6267SOL    HW224840   0.360   2.476   6.460 -0.1142 -0.5038  0.9664
 6267SOL    HW324841   0.308   2.442   6.322  1.5941  0.6916 -0.0209
 6267SOL    MW424842   0.338   2.417   6.400 -0.0796  0.0019  0.4421
 6268SOL     OW24843   0.731   5.785   4.921  0.0975  0.1232 -0.6085
 6268SOL    HW224844   0.652   5.832   4.894  0.8709  1.1846 -1.0985
 6268SOL    HW324845   0.777   5.766   4.839  0.5079 -0.1910 -0.3080
 6268SOL    MW424846   0.726   5.789   4.906  0.2537  0.2218 -0.6335
 6269SOL     OW24847   2.092   5.159   0.022  0.3947  0.0136  0.0580
 6269SOL    HW224848   2.135   5.240  -0.004  0.3775 -0.0360 -0.1329
 6269SOL    HW324849   2.119   5.144   0.112  2.5547 -1.1438 -0.6806
 6269SOL    MW424850   2.101   5.167   0.030  0.6774 -0.1456 -0.0646
 6270SOL     OW24851   0.886   5.814   5.942  0.3089 -0.0399  0.4157
 6270SOL    HW224852   0.872   5.773   5.857  0.8853 -0.2969  0.4462
 6270SOL    HW324853   0.916   5.744   5.999  0.2556  0.2014  0.7474
 6270SOL    MW424854   0.888   5.800   5.938  0.3779 -0.0420  0.4635
 6271SOL     OW24855   5.213   0.951   2.299 -0.5950 -0.7146 -0.0292
 6271SOL    HW224856   5.239   1.015   2.366  0.8359 -1.7637  0.4597
 6271SOL    HW324857   5.118   0.948   2.305 -0.8825  2.3720 -1.0205
 6271SOL    MW424858   5.204   0.959   2.309 -0.4441 -0.4458 -0.0955
 6272SOL     OW24859   5.271   1.521   2.872 -0.6091  0.1694  0.0294
 6272SOL    HW224860   5.313   1.569   2.943 -1.1740  0.6021  0.0806
 6272SOL    HW324861   5.187   1.493   2.908  0.5928 -2.8053  0.7473
 6272SOL    MW424862   5.266   1.524   2.886 -0.5250 -0.1660  0.1309
 6273SOL     OW24863   3.353   4.918   4.608 -0.1603  0.1365  0.0074
 6273SOL    HW224864   3.378   4.885   4.522 -1.4078  2.3656 -1.3227
 6273SOL    HW324865   3.257   4.915   4.608 -0.1713 -0.6834  1.7140
 6273SOL    MW424866   3.343   4.914   4.597 -0.3263  0.3224  0.0571
 6274SOL     OW24867   1.950   6.248   3.765 -0.1589  0.0673 -0.4079
 6274SOL    HW224868   1.867   6.291   3.746  0.5446  1.1025 -1.2113
 6274SOL    HW324869   1.927   6.155   3.774 -1.9395  0.6307  2.6584
 6274SOL    MW424870   1.936   6.241   3.764 -0.3010  0.2782 -0.1094
 6275SOL     OW24871   5.105   4.084   3.034  0.1840 -0.2815 -0.1262
 6275SOL    HW224872   5.104   4.032   2.953  2.0949 -0.3477 -0.1435
 6275SOL    HW324873   5.193   4.120   3.038 -0.1309  0.3682  1.5431
 6275SOL    MW424874   5.116   4.082   3.024  0.3946 -0.2045  0.0918
 6276SOL     OW24875   4.598   6.128   6.044 -0.1556  0.1842  0.1431
 6276SOL    HW224876   4.556   6.100   5.963  1.4398 -0.9476 -0.3406
 6276SOL    HW324877   4.640   6.211   6.021 -2.2501  1.4887  0.7130
 6276SOL    MW424878   4.598   6.135   6.030 -0.2215  0.2069  0.1545
 6277SOL     OW24879   5.080   5.320   2.919  0.6113 -0.3406 -0.2945
 6277SOL    HW224880   5.021   5.267   2.866  1.3960 -1.5656  0.0087
 6277SOL    HW324881   5.050   5.409   2.907  1.1145 -0.4854 -3.2944
 6277SOL    MW424882   5.068   5.324   2.910  0.7812 -0.5213 -0.6503
 6278SOL     OW24883   4.415   2.787   4.046 -0.3546  0.1686  0.1452
 6278SOL    HW224884   4.434   2.700   4.009  0.8488  0.5252 -0.1235
 6278SOL    HW324885   4.332   2.812   4.006 -0.9872 -1.0745  0.6215
 6278SOL    MW424886   4.406   2.779   4.036 -0.2793  0.0517  0.1726
 6279SOL     OW24887   4.660   4.703   6.342  0.4388 -0.2878 -0.0156
 6279SOL    HW224888   4.596   4.708   6.413 -0.6451  2.5806 -1.0367
 6279SOL    HW324889   4.611   4.669   6.267  0.5844  0.1226 -0.3058
 6279SOL    MW424890   4.645   4.699   6.341  0.3150  0.1448 -0.1886
 6280SOL     OW24891   0.403   0.404   5.407 -0.4459  0.5080  0.4044
 6280SOL    HW224892   0.423   0.362   5.324  2.7544  0.7151  0.9675
 6280SOL    HW324893   0.418   0.498   5.391 -0.6007  0.6430  1.0064
 6280SOL    MW424894   0.407   0.411   5.394 -0.0441  0.5532  0.5581
 6281SOL     OW24895   2.439   1.209   1.262 -0.1986  0.4851 -0.3960
 6281SOL    HW224896   2.487   1.171   1.188  0.4279 -0.9794  0.6927
 6281SOL    HW324897   2.350   1.174   1.253  0.0861 -0.3804 -0.0403
 6281SOL    MW424898   2.434   1.199   1.251 -0.0783  0.1777 -0.2054
 6282SOL     OW24899   6.264   3.696   0.891 -0.1491  0.3876  0.2795
 6282SOL    HW224900   6.203   3.674   0.821 -1.3466  2.5745  0.5469
 6282SOL    HW324901   6.239   3.639   0.963 -1.6001  0.9092  0.2277
 6282SOL    MW424902   6.253   3.686   0.891 -0.4986  0.7450  0.3079
 6283SOL     OW24903   5.875   0.512   2.703 -0.5079  0.0540  0.6031
 6283SOL    HW224904   5.928   0.437   2.675 -1.0483 -0.3294  0.5711
 6283SOL    HW324905   5.786   0.490   2.675 -0.4791  1.2926 -0.5242
 6283SOL    MW424906   5.870   0.499   2.696 -0.5754  0.1668  0.4501
 6284SOL     OW24907   2.331   3.562   0.358  0.0135 -0.0581  0.1862
 6284SOL    HW224908   2.277   3.593   0.431 -1.5749 -0.9440 -0.5534
 6284SOL    HW324909   2.268   3.548   0.287  1.4736  0.4492 -1.2566
 6284SOL    MW424910   2.315   3.564   0.358 -0.0034 -0.1080 -0.1018
 6285SOL     OW24911   0.836   6.032   0.581  0.0135  0.8042  0.1671
 6285SOL    HW224912   0.768   6.092   0.614 -1.4852 -0.8120  0.1610
 6285SOL    HW324913   0.901   6.090   0.542 -1.0749  2.4698  0.6728
 6285SOL    MW424914   0.835   6.048   0.580 -0.3278  0.8107  0.2330
 6286SOL     OW24915   0.484   1.817   1.433 -0.0633  0.4977 -0.9744
 6286SOL    HW224916   0.511   1.726   1.427  1.9259  1.1059 -2.0527
 6286SOL    HW324917   0.534   1.852   1.507  0.2599  1.0420 -1.4448
 6286SOL    MW424918   0.494   1.810   1.442  0.2418  0.6498 -1.1787
 6287SOL     OW24919   6.172   1.481   0.508  0.1172 -0.0374  0.3711
 6287SOL    HW224920   6.145   1.415   0.573 -2.4211  0.7281  0.2301
 6287SOL    HW324921   6.260   1.507   0.535  1.1064 -3.2033  0.6133
 6287SOL    MW424922   6.180   1.475   0.520 -0.0872 -0.3541  0.3844
 6288SOL     OW24923   2.173   2.629   1.190 -0.2134 -0.2329 -0.3678
 6288SOL    HW224924   2.096   2.603   1.141  0.4038 -1.2614 -0.8250
 6288SOL    HW324925   2.174   2.572   1.267  0.3442 -0.5704 -0.6140
 6288SOL    MW424926   2.163   2.618   1.194 -0.0584 -0.4131 -0.4606
 6289SOL     OW24927   2.913   4.338   3.571  0.2722 -0.0574 -0.0626
 6289SOL    HW224928   3.008   4.334   3.567  0.2448 -1.5916  0.2442
 6289SOL    HW324929   2.884   4.250   3.549 -1.0481  0.1974  0.5301
 6289SOL    MW424930   2.922   4.326   3.568  0.0944 -0.2262  0.0561
 6290SOL     OW24931   5.428   4.887   2.547  0.0116 -0.3332 -0.0464
 6290SOL    HW224932   5.382   4.949   2.604 -0.8763 -0.1302 -0.9674
 6290SOL    HW324933   5.515   4.927   2.534 -0.4476  0.5720 -0.3943
 6290SOL    MW424934   5.434   4.900   2.553 -0.1662 -0.1870 -0.2138
 6291SOL     OW24935   4.099   3.912   3.669 -0.3310  0.0369  0.7148
 6291SOL    HW224936   4.188   3.917   3.635 -0.8861  1.2868 -0.6623
 6291SOL    HW324937   4.107   3.930   3.762  0.8314  0.2496  0.5839
 6291SOL    MW424938   4.112   3.915   3.677 -0.2509  0.2299  0.5159
 6292SOL     OW24939   4.268   0.036   6.038 -0.5912 -0.1795  0.4120
 6292SOL    HW224940   4.196   0.093   6.012  0.5495  0.8290 -0.6072
 6292SOL    HW324941   4.226  -0.033   6.089 -2.4848 -0.4386 -1.3730
 6292SOL    MW424942   4.253   0.034   6.042 -0.6905 -0.0806  0.0420
 6293SOL     OW24943   1.098   4.847   3.170 -0.4523  0.0285 -0.0223
 6293SOL    HW224944   1.141   4.768   3.203 -3.5173 -2.7928 -2.1134
 6293SOL    HW324945   1.169   4.900   3.133  1.6797 -1.9510  1.0243
 6293SOL    MW424946   1.113   4.844   3.169 -0.5754 -0.6049 -0.1601
 6294SOL     OW24947   2.283   1.584   3.303 -0.3053 -0.0527  0.3376
 6294SOL    HW224948   2.211   1.644   3.325 -0.0715  0.6570 -0.7339
 6294SOL    HW324949   2.248   1.530   3.233 -0.6451 -1.4921  1.5553
 6294SOL    MW424950   2.269   1.585   3.297 -0.3193 -0.1489  0.3569
 6295SOL     OW24951   6.323   3.946   0.451 -0.9876 -0.2431  0.3334
 6295SOL    HW224952   6.288   3.981   0.532 -1.6775 -1.6915  0.6863
 6295SOL    HW324953   6.279   3.862   0.439 -0.2284 -0.4839 -1.0662
 6295SOL    MW424954   6.313   3.940   0.460 -0.9785 -0.4659  0.1953
 6296SOL     OW24955   6.108   5.253   0.864  0.1676  0.2737  0.4632
 6296SOL    HW224956   6.136   5.279   0.776  3.6395  0.1288  1.3797
 6296SOL    HW324957   6.123   5.159   0.867  1.7458  0.5121  1.6557
 6296SOL    MW424958   6.114   5.244   0.853  0.8339  0.2860  0.7415
 6297SOL     OW24959   3.066   1.014   2.424 -0.1751  0.2091 -0.3164
 6297SOL    HW224960   3.016   1.030   2.344 -0.5612 -1.1476 -0.3660
 6297SOL    HW324961   3.032   1.077   2.487 -1.6384 -0.3941 -0.4821
 6297SOL    MW424962   3.055   1.025   2.421 -0.4191 -0.0495 -0.3448
 6298SOL     OW24963   4.963   6.439   0.035  0.2727  0.2034 -0.4243
 6298SOL    HW224964   4.986   6.418   0.126  3.9895  1.0391 -0.9912
 6298SOL    HW324965   4.886   6.496   0.042 -0.2075 -0.6299  2.0966
 6298SOL    MW424966   4.956   6.444   0.048  0.6997  0.2037 -0.1665
 6299SOL     OW24967   1.822   5.048   1.692 -0.2990 -0.4486 -0.5452
 6299SOL    HW224968   1.792   5.054   1.601  1.5209 -2.0716 -1.3114
 6299SOL    HW324969   1.909   5.088   1.692 -0.5062  0.0548  0.6329
 6299SOL    MW424970   1.830   5.054   1.680 -0.0862 -0.5963 -0.4909
 6300SOL     OW24971   2.175   5.737   6.034 -0.1716 -0.1614 -0.3310
 6300SOL    HW224972   2.212   5.671   5.975 -0.6589 -0.1483 -0.6571
 6300SOL    HW324973   2.095   5.766   5.990 -1.5772 -1.5153  1.2612
 6300SOL    MW424974   2.169   5.732   6.020 -0.4213 -0.3383 -0.1640
 6301SOL     OW24975   1.032   2.278   2.011 -0.2889 -0.7055  0.1448
 6301SOL    HW224976   1.035   2.228   1.929 -1.7404 -0.9779  0.2426
 6301SOL    HW324977   0.949   2.325   2.008  0.8545  1.4286  0.2540
 6301SOL    MW424978   1.022   2.278   2.000 -0.3296 -0.4599  0.1721
 6302SOL     OW24979   1.514   1.454   3.077 -0.2043  0.0437 -0.1856
 6302SOL    HW224980   1.466   1.533   3.054 -0.8570  0.1660  1.4883
 6302SOL    HW324981   1.447   1.388   3.093 -0.0064  0.5407  3.4154
 6302SOL    MW424982   1.499   1.456   3.076 -0.2643  0.1254  0.5104
 6303SOL     OW24983   5.734   5.529   1.868  0.0255 -0.3022 -0.7530
 6303SOL    HW224984   5.705   5.606   1.918 -0.0665 -0.5943 -0.3517
 6303SOL    HW324985   5.777   5.474   1.932  0.6842 -0.2858 -1.1765
 6303SOL    MW424986   5.736   5.532   1.883  0.1003 -0.3386 -0.7559
 6304SOL     OW24987   3.314   6.362   5.509  0.9473 -0.0653 -0.3503
 6304SOL    HW224988   3.300   6.388   5.418 -1.0098  0.4959  0.0584
 6304SOL    HW324989   3.307   6.267   5.508  1.2120 -0.0821 -0.8252
 6304SOL    MW424990   3.311   6.353   5.497  0.7240  0.0065 -0.3590
 6305SOL     OW24991   4.184   1.589   3.577  0.7217  0.3831  0.0146
 6305SOL    HW224992   4.180   1.619   3.668  1.3743 -0.2380  0.2564
 6305SOL    HW324993   4.148   1.661   3.526 -2.4695 -0.3861  0.9945
 6305SOL    MW424994   4.179   1.602   3.582  0.3867  0.1996  0.1758
 6306SOL     OW24995   3.005   2.371   2.873  0.1443 -0.0337 -0.2175
 6306SOL    HW224996   3.057   2.395   2.950 -0.0910  0.3281 -0.1690
 6306SOL    HW324997   2.952   2.297   2.902 -0.5372  0.6105  0.2203
 6306SOL    MW424998   3.005   2.364   2.887  0.0234  0.0990 -0.1534
 6307SOL     OW24999   4.277   3.745   5.880 -0.0182 -0.3320  0.3578
 6307SOL    HW225000   4.302   3.705   5.796 -0.7398 -0.3891  0.1661
 6307SOL    HW325001   4.270   3.838   5.860  0.4640 -0.2607  0.5151
 6307SOL    MW425002   4.280   3.752   5.866 -0.0498 -0.3301  0.3533
 6308SOL     OW25003   2.257   1.046   1.650 -0.0751 -0.0256  0.0354
 6308SOL    HW225004   2.245   1.070   1.742 -2.9516 -0.4176 -0.1382
 6308SOL    HW325005   2.336   0.992   1.649  1.4603  2.0355  1.8235
 6308SOL    MW425006   2.266   1.042   1.662 -0.2520  0.1946  0.2484
 6309SOL     OW25007   5.126   2.393   4.833  0.3209 -0.0998 -0.0340
 6309SOL    HW225008   5.068   2.464   4.806  1.3941  0.4975 -0.8333
 6309SOL    HW325009   5.214   2.430   4.828  0.7378 -0.6049  2.3650
 6309SOL    MW425010   5.130   2.407   4.829  0.5175 -0.0877  0.1771
 6310SOL     OW25011   0.017   5.589   0.736  0.0832 -0.1604  1.2290
 6310SOL    HW225012   0.089   5.622   0.682 -2.4728  1.2927 -1.6042
 6310SOL    HW325013   0.016   5.646   0.812  0.2861  1.5943 -0.0144
 6310SOL    MW425014   0.027   5.601   0.739 -0.2273  0.2629  0.6911
 6311SOL     OW25015   2.800   4.899   3.656 -0.2003  0.0740  0.0410
 6311SOL    HW225016   2.762   4.958   3.722  0.8801 -0.5395  1.2668
 6311SOL    HW325017   2.749   4.818   3.665 -1.3843  0.6318 -1.3253
 6311SOL    MW425018   2.788   4.896   3.666 -0.2140  0.0667  0.0225
 6312SOL     OW25019   3.450   5.794   5.134  0.0588  0.2531 -0.1210
 6312SOL    HW225020   3.405   5.841   5.204 -2.2411  0.8888 -1.9303
 6312SOL    HW325021   3.437   5.702   5.155 -0.7410  0.4360  0.2011
 6312SOL    MW425022   3.442   5.788   5.146 -0.3502  0.3611 -0.3172
 6313SOL     OW25023   0.460   2.916   0.155 -0.3588  0.2362  0.0596
 6313SOL    HW225024   0.396   2.920   0.226 -0.9849 -0.4216 -0.4453
 6313SOL    HW325025   0.544   2.935   0.197 -0.8623  0.9686  0.7618
 6313SOL    MW425026   0.463   2.919   0.170 -0.5078  0.2461  0.0856
 6314SOL     OW25027   1.780   5.014   6.235  0.0776  0.1263  0.1988
 6314SOL    HW225028   1.739   4.963   6.304  0.7850  0.1199  0.6318
 6314SOL    HW325029   1.768   4.962   6.155 -1.5891  0.5888  0.1254
 6314SOL    MW425030   1.773   5.001   6.234 -0.0489  0.1865  0.2463
 6315SOL     OW25031   3.827   2.824   5.569 -0.1049 -0.4061 -0.4940
 6315SOL    HW225032   3.738   2.796   5.549 -0.8585 -0.4311  2.4058
 6315SOL    HW325033   3.877   2.742   5.573 -0.0149 -0.4256 -1.7219
 6315SOL    MW425034   3.822   2.809   5.567 -0.1925 -0.4120 -0.2734
 6316SOL     OW25035   4.756   4.618   5.969 -0.4467 -0.5995  0.5066
 6316SOL    HW225036   4.779   4.572   5.889  0.1070  0.3159  0.1257
 6316SOL    HW325037   4.831   4.606   6.027 -0.4429 -0.4651  0.5311
 6316SOL    MW425038   4.769   4.610   5.966 -0.3732 -0.4610  0.4596
 6317SOL     OW25039   3.585   0.049   5.874 -0.2017  0.5815 -0.2596
 6317SOL    HW225040   3.529   0.063   5.950 -0.4327  0.2195 -0.3576
 6317SOL    HW325041   3.527   0.064   5.799 -0.6313 -1.4164 -0.3813
 6317SOL    MW425042   3.570   0.053   5.874 -0.2889  0.2702 -0.2886
 6318SOL     OW25043   3.012   4.535   6.289 -0.0015  1.3109  0.7242
 6318SOL    HW225044   3.012   4.469   6.220 -0.3840  1.8125  0.2365
 6318SOL    HW325045   3.090   4.515   6.341  0.6781  1.3531 -0.2540
 6318SOL    MW425046   3.022   4.523   6.287  0.0377  1.3827  0.5308
 6319SOL     OW25047   3.110   5.212   5.004  0.2210  0.0246 -0.5019
 6319SOL    HW225048   3.143   5.292   5.045 -1.5399  1.3217 -1.4970
 6319SOL    HW325049   3.054   5.172   5.070  1.9229 -1.0155  0.3841
 6319SOL    MW425050   3.107   5.217   5.018  0.2132  0.0585 -0.5163
 6320SOL     OW25051   0.063   6.053   2.899  0.0125 -0.4631  0.0438
 6320SOL    HW225052   0.125   6.121   2.923  1.0673 -1.2152 -0.4605
 6320SOL    HW325053   0.107   5.971   2.922 -1.0296 -0.9959  0.1971
 6320SOL    MW425054   0.077   6.051   2.905  0.0142 -0.6327 -0.0025
 6321SOL     OW25055   0.623   6.032   3.198  0.2418 -0.0837 -0.0637
 6321SOL    HW225056   0.643   5.942   3.224  0.3541 -0.6771 -2.0648
 6321SOL    HW325057   0.707   6.068   3.170  0.9373  1.8548  3.7945
 6321SOL    MW425058   0.637   6.025   3.198  0.3484  0.0938  0.1813
 6322SOL     OW25059   0.192   2.600   3.381  0.4656  0.4166 -0.2932
 6322SOL    HW225060   0.244   2.573   3.306 -0.3337  0.8975 -1.0320
 6322SOL    HW325061   0.226   2.548   3.454 -0.7503 -2.3224 -1.5703
 6322SOL    MW425062   0.204   2.590   3.381  0.1997  0.1187 -0.5592
 6323SOL     OW25063   1.123   1.803   2.872  0.1590 -0.0562 -0.4294
 6323SOL    HW225064   1.144   1.893   2.897 -0.7269  0.3071 -0.9457
 6323SOL    HW325065   1.075   1.768   2.947  1.4875 -0.4856  0.2430
 6323SOL    MW425066   1.120   1.810   2.885  0.2174 -0.0649 -0.4088
 6324SOL     OW25067   3.936   4.712   0.473  0.0678  0.5150  0.4053
 6324SOL    HW225068   3.891   4.726   0.389  1.0636 -0.4042 -0.3026
 6324SOL    HW325069   3.911   4.788   0.526 -0.2939  1.2986 -0.8419
 6324SOL    MW425070   3.926   4.724   0.469  0.1514  0.4971  0.1473
 6325SOL     OW25071   2.465   2.544   1.297  0.0315  0.5966  0.0888
 6325SOL    HW225072   2.420   2.484   1.237 -0.2122  2.1842 -1.3826
 6325SOL    HW325073   2.394   2.594   1.338  0.3103  1.0065  0.0710
 6325SOL    MW425074   2.450   2.543   1.294  0.0362  0.8601 -0.1077
 6326SOL     OW25075   2.175   1.550   4.557  0.0577 -0.2937 -0.0469
 6326SOL    HW225076   2.156   1.642   4.577 -0.2278  0.0372 -1.7050
 6326SOL    HW325077   2.260   1.551   4.513 -0.2062 -0.7538 -0.5794
 6326SOL    MW425078   2.183   1.562   4.554 -0.0148 -0.3107 -0.3359
 6327SOL     OW25079   1.070   0.887   3.174  0.4849  0.1943 -0.6460
 6327SOL    HW225080   1.033   0.957   3.120  0.8349  0.1977 -0.8848
 6327SOL    HW325081   1.003   0.869   3.240  0.4547  0.8581 -0.4898
 6327SOL    MW425082   1.056   0.894   3.176  0.5271  0.2823 -0.6569
 6328SOL     OW25083   3.809   3.209   0.186  0.0203 -0.3967 -0.2603
 6328SOL    HW225084   3.765   3.146   0.243 -1.1761  0.4021 -0.2580
 6328SOL    HW325085   3.809   3.168   0.100 -1.1972 -0.2074 -0.3633
 6328SOL    MW425086   3.804   3.195   0.182 -0.2982 -0.2663 -0.2736
 6329SOL     OW25087   2.713   0.664   0.483  0.2727 -0.3960 -0.1506
 6329SOL    HW225088   2.617   0.660   0.478  0.1632  0.9903  0.2041
 6329SOL    HW325089   2.739   0.581   0.521 -0.8810 -0.4207  0.6259
 6329SOL    MW425090   2.703   0.653   0.487  0.1060 -0.2164 -0.0013
 6330SOL     OW25091   1.728   1.827   1.581 -0.5456 -0.6373  0.4153
 6330SOL    HW225092   1.684   1.744   1.598  0.0155 -0.9627  0.3160
 6330SOL    HW325093   1.808   1.802   1.533 -0.7107  0.0142 -0.2132
 6330SOL    MW425094   1.733   1.812   1.577 -0.4934 -0.5943  0.3193
 6331SOL     OW25095   0.935   2.426   4.982  0.2454  0.2318 -0.3968
 6331SOL    HW225096   0.856   2.427   4.929 -0.4589  1.6463  0.6214
 6331SOL    HW325097   0.909   2.386   5.064  0.2578  1.6966  0.3554
 6331SOL    MW425098   0.921   2.421   4.986  0.1541  0.6117 -0.1632
 6332SOL     OW25099   0.677   2.512   0.439  0.3885 -0.1877  0.1290
 6332SOL    HW225100   0.767   2.542   0.454  0.3310 -0.1686  0.4299
 6332SOL    HW325101   0.679   2.474   0.351  0.5335  0.4210 -0.1363
 6332SOL    MW425102   0.689   2.511   0.429  0.4000 -0.1049  0.1337
 6333SOL     OW25103   1.823   0.019   5.653  0.1581 -0.7557  0.1033
 6333SOL    HW225104   1.909   0.001   5.614 -1.0723 -1.3941 -2.5207
 6333SOL    HW325105   1.834   0.105   5.695  1.8461 -0.4269 -0.9133
 6333SOL    MW425106   1.836   0.028   5.653  0.2185 -0.7965 -0.3770
 6334SOL     OW25107   3.007   5.424   1.988  0.0115  0.2600  0.4584
 6334SOL    HW225108   2.928   5.433   1.934  0.1963 -0.0635  0.1296
 6334SOL    HW325109   3.026   5.512   2.019  0.6716  0.6854 -1.0912
 6334SOL    MW425110   2.999   5.437   1.985  0.1230  0.2735  0.2106
 6335SOL     OW25111   5.421   4.132   4.074 -0.3115  0.3661  0.0292
 6335SOL    HW225112   5.351   4.142   4.010 -0.6261 -2.7347 -0.2801
 6335SOL    HW325113   5.376   4.114   4.157  0.1218  0.8182  0.3702
 6335SOL    MW425114   5.406   4.131   4.076 -0.2959  0.0166  0.0334
 6336SOL     OW25115   6.341   3.364   2.567  0.0967  0.4534 -0.3304
 6336SOL    HW225116   6.394   3.443   2.558  1.0867  0.1845  2.2222
 6336SOL    HW325117   6.379   3.318   2.642 -1.1366 -1.9082 -1.0559
 6336SOL    MW425118   6.353   3.368   2.576  0.0646  0.1063 -0.0894
 6337SOL     OW25119   4.956   4.671   4.922 -0.4067  0.6627  0.5823
 6337SOL    HW225120   5.023   4.689   4.856  0.5844  1.0245  1.6458
 6337SOL    HW325121   4.878   4.648   4.872  0.0638  1.7903 -0.7281
 6337SOL    MW425122   4.954   4.671   4.907 -0.2139  0.8592  0.5497
 6338SOL     OW25123   4.679   5.463   1.120  0.0101 -0.0347 -0.2539
 6338SOL    HW225124   4.680   5.556   1.098  0.0172 -0.3700 -1.7982
 6338SOL    HW325125   4.763   5.448   1.163 -0.8442  1.0668  1.9727
 6338SOL    MW425126   4.691   5.473   1.123 -0.1016  0.0664 -0.1639
 6339SOL     OW25127   2.027   1.876   4.988  0.3321  0.1279 -0.3381
 6339SOL    HW225128   1.961   1.946   4.987 -1.7924 -1.7217  0.7890
 6339SOL    HW325129   1.994   1.812   4.925  0.7441 -1.0712  0.6318
 6339SOL    MW425130   2.014   1.877   4.980  0.1061 -0.2744 -0.0614
 6340SOL     OW25131   5.145   0.597   5.131  0.0361  0.3921 -0.7558
 6340SOL    HW225132   5.184   0.530   5.188 -1.9443 -0.6088 -0.4554
 6340SOL    HW325133   5.081   0.548   5.078 -3.1110  2.2413  0.9904
 6340SOL    MW425134   5.141   0.582   5.131 -0.6404  0.5040 -0.4858
 6341SOL     OW25135   4.436   5.301   1.096 -0.6193  0.0596 -0.1416
 6341SOL    HW225136   4.524   5.337   1.101 -0.7336  0.2714  0.5003
 6341SOL    HW325137   4.388   5.345   1.166 -1.1329 -0.3291 -0.2389
 6341SOL    MW425138   4.441   5.311   1.106 -0.7021  0.0363 -0.0698
 6342SOL     OW25139   1.004   6.156   2.008 -0.0483  0.0042 -0.3675
 6342SOL    HW225140   0.927   6.162   2.065  1.3844  0.4809  1.6254
 6342SOL    HW325141   1.018   6.062   1.998  1.3584 -0.2257  2.6233
 6342SOL    MW425142   0.996   6.144   2.014  0.3264  0.0368  0.2901
 6343SOL     OW25143   5.642   0.617   4.753  0.3566 -0.1755 -0.2734
 6343SOL    HW225144   5.724   0.657   4.783 -1.3615  1.7943  2.2640
 6343SOL    HW325145   5.633   0.645   4.662  1.8744  0.6665 -0.1877
 6343SOL    MW425146   5.651   0.626   4.745  0.3301  0.1955  0.0727
 6344SOL     OW25147   1.771   2.160   0.301  0.2246  0.0165  0.5458
 6344SOL    HW225148   1.753   2.247   0.265  2.6305 -0.1417 -1.2511
 6344SOL    HW325149   1.688   2.135   0.343 -0.2366  3.6153  2.2021
 6344SOL    MW425150   1.757   2.168   0.302  0.4812  0.4705  0.5272
 6345SOL     OW25151   3.254   2.390   0.232  0.3828  0.3646  0.1987
 6345SOL    HW225152   3.314   2.345   0.291 -0.9130 -0.1115  1.1754
 6345SOL    HW325153   3.167   2.370   0.265 -0.2971  2.8149  0.1341
 6345SOL    MW425154   3.251   2.382   0.244  0.1221  0.6250  0.3191
 6346SOL     OW25155   0.932   0.325   2.132 -0.7543  0.3549 -0.0891
 6346SOL    HW225156   0.922   0.263   2.061  1.7573 -0.4105  0.1402
 6346SOL    HW325157   0.907   0.277   2.211 -1.4961  0.5455 -0.1984
 6346SOL    MW425158   0.928   0.311   2.133 -0.5208  0.2791 -0.0733
 6347SOL     OW25159   1.078   5.038   1.169  0.2196  0.0462  0.3341
 6347SOL    HW225160   0.985   5.035   1.147  0.0658  1.9488  0.5365
 6347SOL    HW325161   1.123   5.052   1.086  0.2836 -0.2562  0.3154
 6347SOL    MW425162   1.072   5.039   1.155  0.2078  0.2573  0.3583
 6348SOL     OW25163   0.763   2.643   3.059  0.2215  0.1633 -0.0423
 6348SOL    HW225164   0.809   2.586   2.998  2.2878 -0.5508  2.0194
 6348SOL    HW325165   0.707   2.584   3.110  0.1563  0.4207  0.1854
 6348SOL    MW425166   0.761   2.628   3.058  0.4856  0.1030  0.2597
 6349SOL     OW25167   5.145   2.888   4.093  0.1678  0.4827  0.1178
 6349SOL    HW225168   5.204   2.951   4.134  0.9311 -0.5545  0.6686
 6349SOL    HW325169   5.168   2.891   4.000  1.7659 -0.5169  0.4211
 6349SOL    MW425170   5.156   2.896   4.086  0.4793  0.2139  0.2305
 6350SOL     OW25171   5.730   0.579   3.665 -0.3834 -0.5712 -0.3538
 6350SOL    HW225172   5.685   0.585   3.749 -0.6992  1.0543 -0.5954
 6350SOL    HW325173   5.666   0.611   3.601  0.7500  0.9106 -0.8250
 6350SOL    MW425174   5.716   0.584   3.668 -0.2755 -0.1612 -0.4479
 6351SOL     OW25175   5.814   4.249   1.931  0.5633  0.0971  0.1892
 6351SOL    HW225176   5.788   4.340   1.912 -0.8940 -0.1061  1.0191
 6351SOL    HW325177   5.827   4.248   2.026  3.3077  0.0545 -0.1162
 6351SOL    MW425178   5.812   4.261   1.941  0.7331  0.0647  0.2584
 6352SOL     OW25179   1.422   5.471   3.750  0.0650 -0.3860  0.1689
 6352SOL    HW225180   1.401   5.402   3.813 -0.0374  1.0433  1.7858
 6352SOL    HW325181   1.339   5.516   3.735  0.6811  1.4051  1.7448
 6352SOL    MW425182   1.409   5.468   3.756  0.1328  0.0389  0.5902
 6353SOL     OW25183   6.068   2.914   5.991  0.4832  0.4059  0.3455
 6353SOL    HW225184   5.995   2.865   5.953  0.5873  0.2901  0.2965
 6353SOL    HW325185   6.035   3.004   5.998  0.3370  0.3548  0.3207
 6353SOL    MW425186   6.054   2.919   5.987  0.4777  0.3838  0.3358
 6354SOL     OW25187   2.910   5.307   2.593 -0.4403 -0.1511 -0.0298
 6354SOL    HW225188   2.952   5.221   2.600  0.1601  0.2851  3.1284
 6354SOL    HW325189   2.948   5.359   2.664 -1.3566  2.5211 -1.3360
 6354SOL    MW425190   2.921   5.303   2.603 -0.4820  0.2590  0.2146
 6355SOL     OW25191   4.397   2.920   1.637  0.2506 -0.0854  0.0601
 6355SOL    HW225192   4.426   2.849   1.694  3.2250 -0.2049 -1.3898
 6355SOL    HW325193   4.372   2.877   1.556  0.7612  0.3928 -0.3616
 6355SOL    MW425194   4.398   2.905   1.634  0.7104 -0.0381 -0.1869
 6356SOL     OW25195   5.228   3.219   1.279 -0.1730  0.4239 -0.4619
 6356SOL    HW225196   5.151   3.173   1.246  0.0048  0.5383 -1.0460
 6356SOL    HW325197   5.278   3.242   1.201  0.8754 -0.3622 -0.0503
 6356SOL    MW425198   5.225   3.216   1.265 -0.0112  0.3353 -0.4847
 6357SOL     OW25199   3.666   1.015   5.596 -0.6009 -0.1812  0.4715
 6357SOL    HW225200   3.701   0.956   5.530 -1.3465 -0.5563  0.4054
 6357SOL    HW325201   3.656   0.961   5.674  0.2884  0.2636  0.9066
 6357SOL    MW425202   3.669   1.000   5.597 -0.5819 -0.1720  0.5202
 6358SOL     OW25203   3.406   3.015   3.394 -0.5306  0.2572 -0.2592
 6358SOL    HW225204   3.438   3.095   3.352  1.2285  0.8541  2.0235
 6358SOL    HW325205   3.337   3.045   3.453 -0.7385 -0.0955 -0.3222
 6358SOL    MW425206   3.401   3.029   3.396 -0.3260  0.2894  0.0336
 6359SOL     OW25207   5.176   2.835   0.249  0.4063 -0.6319 -0.6110
 6359SOL    HW225208   5.211   2.871   0.331 -0.3612  0.3741 -0.7001
 6359SOL    HW325209   5.088   2.804   0.272 -0.3142  0.7866 -1.2769
 6359SOL    MW425210   5.169   2.836   0.263  0.2100 -0.3120 -0.7106
 6360SOL     OW25211   3.271   5.359   2.732 -0.1440 -0.2765  0.1797
 6360SOL    HW225212   3.244   5.316   2.651  2.3048 -0.1677 -0.7527
 6360SOL    HW325213   3.335   5.300   2.771  0.7524  0.9419  0.6223
 6360SOL    MW425214   3.276   5.346   2.727  0.2974 -0.1014  0.1151
 6361SOL     OW25215   3.849   5.689   3.452  0.3419 -0.1202  0.0121
 6361SOL    HW225216   3.847   5.771   3.403 -1.8798 -0.2485 -0.2019
 6361SOL    HW325217   3.771   5.691   3.507  0.3402 -2.0099  0.1481
 6361SOL    MW425218   3.839   5.700   3.453  0.0486 -0.3864  0.0018
 6362SOL     OW25219   4.840   4.104   1.477  0.6123  0.0425 -0.6912
 6362SOL    HW225220   4.894   4.154   1.538 -1.5231  1.1386  0.4100
 6362SOL    HW325221   4.879   4.017   1.476  2.6851  0.9053 -0.3885
 6362SOL    MW425222   4.853   4.099   1.485  0.6040  0.3010 -0.5060
 6363SOL     OW25223   3.238   1.204   0.413  0.0425  0.4829  0.1448
 6363SOL    HW225224   3.165   1.146   0.392 -0.3624  1.6549 -1.9361
 6363SOL    HW325225   3.216   1.239   0.500 -0.5786 -1.0769  0.6529
 6363SOL    MW425226   3.225   1.201   0.422 -0.0928  0.4318 -0.0627
 6364SOL     OW25227   5.421   4.625   0.051  0.3493 -0.4169  0.0119
 6364SOL    HW225228   5.515   4.610   0.040  0.3293 -0.0367 -0.7714
 6364SOL    HW325229   5.380   4.554   0.001  0.2245 -0.5310  0.2790
 6364SOL    MW425230   5.428   4.614   0.043  0.3302 -0.3818 -0.0562
 6365SOL     OW25231   2.724   1.973   0.908 -0.0153  0.3117 -0.6018
 6365SOL    HW225232   2.692   1.888   0.877 -0.0913  0.0277  0.2410
 6365SOL    HW325233   2.818   1.971   0.891 -0.0647  0.1844 -0.8693
 6365SOL    MW425234   2.732   1.961   0.901 -0.0319  0.2574 -0.5259
 6366SOL     OW25235   2.819   4.093   1.625 -0.7653 -0.5850  0.2034
 6366SOL    HW225236   2.898   4.147   1.629 -0.8260 -0.5722  2.3552
 6366SOL    HW325237   2.797   4.091   1.532  2.5271 -1.7433 -0.7022
 6366SOL    MW425238   2.827   4.100   1.613 -0.3389 -0.7362  0.3678
 6367SOL     OW25239   6.132   6.273   2.555 -0.1255  0.1455 -0.0406
 6367SOL    HW225240   6.063   6.208   2.570  0.7744 -0.7283  0.4773
 6367SOL    HW325241   6.191   6.262   2.630 -0.0088  1.6532  0.1151
 6367SOL    MW425242   6.131   6.263   2.567  0.0086  0.2291  0.0483
 6368SOL     OW25243   3.981   2.544   6.429 -0.5096 -0.5313  0.3235
 6368SOL    HW225244   4.016   2.568   6.515 -0.9548 -1.2036  0.7012
 6368SOL    HW325245   4.033   2.468   6.402 -2.1648 -2.1074  1.2888
 6368SOL    MW425246   3.993   2.537   6.437 -0.7868 -0.8279  0.5007
 6369SOL     OW25247   5.306   1.896   1.637 -0.1534 -0.0906  0.1304
 6369SOL    HW225248   5.370   1.964   1.657 -0.8570  0.0220  2.1430
 6369SOL    HW325249   5.358   1.824   1.602  0.8280  0.7342 -0.1405
 6369SOL    MW425250   5.321   1.895   1.635 -0.1168  0.0331  0.3602
 6370SOL     OW25251   5.517   4.392   4.132  0.0538 -0.3450  0.5095
 6370SOL    HW225252   5.482   4.409   4.044 -1.2442 -0.5362  0.9758
 6370SOL    HW325253   5.521   4.297   4.138  0.4087 -0.3289  0.5656
 6370SOL    MW425254   5.513   4.382   4.121 -0.0707 -0.3681  0.5785
 6371SOL     OW25255   6.089   5.776   4.892 -0.6354 -0.5959 -0.7783
 6371SOL    HW225256   6.131   5.711   4.836  1.0176  0.0456 -0.3636
 6371SOL    HW325257   6.047   5.837   4.831 -0.6080 -1.0293 -1.2338
 6371SOL    MW425258   6.089   5.776   4.877 -0.4137 -0.5685 -0.7837
 6372SOL     OW25259   4.585   2.482   6.297  0.1132  0.0172 -0.0113
 6372SOL    HW225260   4.584   2.406   6.355  0.3186  0.5220  0.6642
 6372SOL    HW325261   4.500   2.523   6.310 -0.3246 -0.5365 -0.9889
 6372SOL    MW425262   4.574   2.477   6.306  0.0825  0.0107 -0.0511
 6373SOL     OW25263   4.443   5.454   3.791 -0.1287 -0.0191 -0.0856
 6373SOL    HW225264   4.354   5.430   3.818 -0.6238 -0.2984 -1.8336
 6373SOL    HW325265   4.437   5.547   3.770  0.0420  0.0120  0.0071
 6373SOL    MW425266   4.430   5.463   3.791 -0.1715 -0.0518 -0.3040
 6374SOL     OW25267   6.213   3.252   2.313  0.1824  0.2441  0.1042
 6374SOL    HW225268   6.302   3.248   2.350 -0.1987  1.1430  1.1795
 6374SOL    HW325269   6.161   3.297   2.380 -0.9580  0.2869 -0.7730
 6374SOL    MW425270   6.218   3.257   2.327 -0.0183  0.3683  0.1304
 6375SOL     OW25271   6.142   3.005   5.680 -0.1319 -0.3403  0.1764
 6375SOL    HW225272   6.222   3.037   5.722 -0.9937  2.0843  0.1323
 6375SOL    HW325273   6.074   3.016   5.747 -0.6012 -1.6567 -0.0412
 6375SOL    MW425274   6.144   3.011   5.695 -0.3075 -0.1941  0.1418
 6376SOL     OW25275   4.697   3.422   1.358 -0.1423  0.1760  0.0273
 6376SOL    HW225276   4.731   3.337   1.386 -1.2855 -1.0724 -2.2051
 6376SOL    HW325277   4.771   3.464   1.313  1.0982  1.3830  2.9209
 6376SOL    MW425278   4.711   3.417   1.356 -0.1294  0.1705  0.1145
 6377SOL     OW25279   0.136   2.270   0.989  0.3178  0.3197  0.0490
 6377SOL    HW225280   0.091   2.268   0.905  1.7087  0.4954 -0.7453
 6377SOL    HW325281   0.159   2.362   1.002 -1.1125  0.5274  1.3356
 6377SOL    MW425282   0.133   2.282   0.980  0.3126  0.3703  0.1139
 6378SOL     OW25283   4.220   2.647   2.931  0.0566 -0.8808  0.0515
 6378SOL    HW225284   4.271   2.676   3.007  1.4579 -0.2411 -1.0938
 6378SOL    HW325285   4.230   2.552   2.931  1.5027 -0.7528 -0.2999
 6378SOL    MW425286   4.228   2.638   2.941  0.4323 -0.7795 -0.1460
 6379SOL     OW25287   4.238   5.027   1.350  0.1977  0.0222 -0.0810
 6379SOL    HW225288   4.331   5.012   1.335  0.1786  1.1550 -1.5113
 6379SOL    HW325289   4.198   5.025   1.263 -0.8810  1.0085  0.3577
 6379SOL    MW425290   4.245   5.025   1.337  0.0528  0.3018 -0.2118
 6380SOL     OW25291   4.445   2.331   0.297  0.0475 -0.6745 -0.4764
 6380SOL    HW225292   4.364   2.296   0.335  0.1312  0.0221  0.3629
 6380SOL    HW325293   4.423   2.419   0.269  0.2599 -0.8283 -1.1296
 6380SOL    MW425294   4.432   2.338   0.299  0.0866 -0.6029 -0.4519
 6381SOL     OW25295   4.523   0.327   0.987  0.5080  0.0977  0.2449
 6381SOL    HW225296   4.455   0.364   0.930  0.0633 -0.0515  0.6715
 6381SOL    HW325297   4.603   0.329   0.934  0.0895 -0.0935 -0.4037
 6381SOL    MW425298   4.524   0.332   0.973  0.3941  0.0528  0.2156
 6382SOL     OW25299   1.996   6.146   0.923 -0.7422  0.0918  0.4047
 6382SOL    HW225300   2.072   6.101   0.885  1.2245  1.2794  2.6171
 6382SOL    HW325301   1.938   6.164   0.849  2.3421  1.4234 -1.8979
 6382SOL    MW425302   1.999   6.142   0.908 -0.0758  0.4241  0.3928
 6383SOL     OW25303   2.855   1.909   4.170 -0.1661 -0.3837  0.2916
 6383SOL    HW225304   2.843   1.814   4.168  0.8867 -0.6043 -3.6023
 6383SOL    HW325305   2.771   1.945   4.143  0.0128 -0.3510 -0.2352
 6383SOL    MW425306   2.842   1.901   4.166 -0.0036 -0.4085 -0.2916
 6384SOL     OW25307   3.004   2.031   0.372  0.4396  0.4001  0.1960
 6384SOL    HW225308   3.070   2.053   0.306 -0.2301  1.0446 -0.2712
 6384SOL    HW325309   2.923   2.020   0.322 -0.4070  2.3564  1.0506
 6384SOL    MW425310   3.002   2.033   0.357  0.2395  0.7432  0.2471
 6385SOL     OW25311   2.020   3.426   4.960  0.0973 -0.1466  0.1834
 6385SOL    HW225312   2.082   3.406   4.890 -0.9589 -1.4451 -0.4119
 6385SOL    HW325313   1.980   3.342   4.981  0.3354  0.2147  2.3211
 6385SOL    MW425314   2.023   3.412   4.954 -0.0107 -0.2702  0.3869
 6386SOL     OW25315   4.432   1.543   0.078  0.2067  0.6637  0.2457
 6386SOL    HW225316   4.400   1.569   0.164  0.7054 -0.1365  0.6935
 6386SOL    HW325317   4.508   1.488   0.097 -1.8273 -2.7283 -0.4672
 6386SOL    MW425318   4.438   1.539   0.092  0.0041  0.1106  0.2107
 6387SOL     OW25319   1.000   4.004   6.121 -0.3678  1.1053  0.1560
 6387SOL    HW225320   0.983   3.935   6.057 -2.0869  1.2973  0.3569
 6387SOL    HW325321   0.977   3.965   6.205  1.1479  1.1064  0.5938
 6387SOL    MW425322   0.994   3.990   6.124 -0.3946  1.1308  0.2403
 6388SOL     OW25323   5.296   2.900   3.349 -0.2151  0.2309 -0.6223
 6388SOL    HW225324   5.344   2.948   3.280 -1.1632 -0.9993 -2.2141
 6388SOL    HW325325   5.227   2.853   3.302 -0.7388 -0.8907  1.1661
 6388SOL    MW425326   5.293   2.900   3.333 -0.4093 -0.0794 -0.5964
 6389SOL     OW25327   2.390   1.521   1.806 -0.3502 -0.6565 -0.1401
 6389SOL    HW225328   2.352   1.605   1.831  1.6595  0.5182 -0.7711
 6389SOL    HW325329   2.350   1.458   1.865  1.3703  1.3907  3.6035
 6389SOL    MW425330   2.380   1.524   1.817  0.1420 -0.2314  0.2706
 6390SOL     OW25331   0.709   3.906   2.812 -0.3830 -0.3465  0.4230
 6390SOL    HW225332   0.740   3.853   2.885  0.5936  1.4149  1.3512
 6390SOL    HW325333   0.740   3.994   2.831 -1.6434  0.5207 -1.2311
 6390SOL    MW425334   0.717   3.910   2.824 -0.4204  0.0003  0.3273
 6391SOL     OW25335   3.240   0.723   3.559 -0.0854  0.4357 -0.4762
 6391SOL    HW225336   3.162   0.763   3.519 -0.3840 -1.4763 -1.9494
 6391SOL    HW325337   3.236   0.631   3.533  1.1873 -0.3463  1.8200
 6391SOL    MW425338   3.229   0.716   3.550  0.0431  0.0803 -0.3676
 6392SOL     OW25339   6.364   0.635   2.579 -0.3292 -0.2707  0.9273
 6392SOL    HW225340   6.294   0.650   2.643 -0.6111 -0.3610  0.6461
 6392SOL    HW325341   6.318   0.624   2.496  0.1282  2.8687  0.1150
 6392SOL    MW425342   6.349   0.636   2.576 -0.3061  0.1316  0.7830
 6393SOL     OW25343   3.586   1.738   4.708  0.1066  0.3167  0.3490
 6393SOL    HW225344   3.513   1.714   4.651 -0.5588  0.9923  0.8878
 6393SOL    HW325345   3.545   1.791   4.777  1.0331  0.2758  0.9392
 6393SOL    MW425346   3.571   1.742   4.710  0.1411  0.4004  0.4980
 6394SOL     OW25347   6.421   4.396   2.203  0.5352  0.5743  0.1748
 6394SOL    HW225348   6.400   4.410   2.296 -1.1982 -0.5978  0.0242
 6394SOL    HW325349   6.495   4.336   2.204  2.6145  2.9799  0.7492
 6394SOL    MW425350   6.428   4.390   2.216  0.5808  0.7370  0.2307
 6395SOL     OW25351   1.342   5.972   0.919  0.2429 -0.1070  0.4374
 6395SOL    HW225352   1.307   5.982   1.007 -1.2202 -0.2820 -0.0972
 6395SOL    HW325353   1.269   5.995   0.861  0.3735 -2.4197 -0.7633
 6395SOL    MW425354   1.328   5.977   0.923  0.0671 -0.4352  0.2084
 6396SOL     OW25355   5.566   4.868   5.240  0.3112 -1.2914 -0.0343
 6396SOL    HW225356   5.500   4.868   5.171  1.1272 -2.4566 -0.8315
 6396SOL    HW325357   5.527   4.922   5.309 -1.3721 -1.7371 -0.5818
 6396SOL    MW425358   5.552   4.875   5.240  0.1967 -1.5039 -0.2117
 6397SOL     OW25359   5.760   6.282   0.974  0.0013  0.0567  0.0810
 6397SOL    HW225360   5.730   6.371   0.992 -2.3628  0.0801 -3.2487
 6397SOL    HW325361   5.826   6.292   0.905  2.8819 -0.6062  2.5114
 6397SOL    MW425362   5.765   6.295   0.968  0.0695 -0.0277 -0.0377
 6398SOL     OW25363   4.598   0.352   2.436  0.3049 -0.1770  0.3060
 6398SOL    HW225364   4.596   0.302   2.518  0.3375 -1.0280 -0.2007
 6398SOL    HW325365   4.633   0.290   2.371  0.3369  0.5063 -0.3360
 6398SOL    MW425366   4.602   0.337   2.438  0.3134 -0.1991  0.1544
 6399SOL     OW25367   5.176   2.184   3.670 -0.2827  0.2530  1.4101
 6399SOL    HW225368   5.210   2.273   3.658  1.1376 -0.2875  1.2602
 6399SOL    HW325369   5.112   2.174   3.600  0.7308  0.6118  0.3914
 6399SOL    MW425370   5.172   2.194   3.659  0.0384  0.2290  1.2560
 6400SOL     OW25371   5.642   5.787   1.958  0.1912 -0.3523 -0.0978
 6400SOL    HW225372   5.548   5.772   1.948 -0.2037  2.5060 -1.5962
 6400SOL    HW325373   5.648   5.839   2.038  0.4841 -0.2639 -0.1804
 6400SOL    MW425374   5.630   5.792   1.967  0.1777  0.0365 -0.3064
 6401SOL     OW25375   4.945   1.740   5.495  0.1336  0.4240 -0.1141
 6401SOL    HW225376   4.917   1.828   5.470 -0.0088  0.8993  1.5495
 6401SOL    HW325377   4.895   1.681   5.440 -0.7897  1.3639 -0.3039
 6401SOL    MW425378   4.935   1.744   5.485 -0.0070  0.6107  0.0803
 6402SOL     OW25379   1.178   6.297   1.564  0.6579  0.4015 -0.3805
 6402SOL    HW225380   1.111   6.311   1.630  0.7269  1.3417 -0.5018
 6402SOL    HW325381   1.261   6.315   1.609  0.9931 -2.2313  0.2031
 6402SOL    MW425382   1.180   6.301   1.579  0.7112  0.1782 -0.3195
 6403SOL     OW25383   0.789   5.415   3.410  0.3088 -0.4598 -0.3568
 6403SOL    HW225384   0.849   5.382   3.477  1.7109 -0.7666 -1.7058
 6403SOL    HW325385   0.805   5.509   3.408 -2.5622  0.2346  2.3927
 6403SOL    MW425386   0.799   5.423   3.419  0.1150 -0.4087 -0.1720
 6404SOL     OW25387   2.033   1.043   5.086 -0.5367 -0.6360 -0.3179
 6404SOL    HW225388   1.983   0.977   5.038 -3.7579  0.2909  1.4177
 6404SOL    HW325389   2.020   1.020   5.178  0.1646  1.1338  0.2613
 6404SOL    MW425390   2.025   1.031   5.092 -0.8691 -0.2802 -0.0125
 6405SOL     OW25391   1.757   3.056   1.962  0.7181  0.5744  0.1481
 6405SOL    HW225392   1.796   3.105   1.890  1.5677  0.7320  0.6962
 6405SOL    HW325393   1.716   3.122   2.018 -1.2013  0.3309 -0.9046
 6405SOL    MW425394   1.757   3.071   1.960  0.5769  0.5630  0.0815
 6406SOL     OW25395   3.814   2.011   4.947  0.4918  0.1577 -0.5553
 6406SOL    HW225396   3.867   2.031   4.869  0.2392 -0.0197 -0.7736
 6406SOL    HW325397   3.725   2.033   4.921  0.5144  0.9027 -0.0264
 6406SOL    MW425398   3.809   2.016   4.933  0.4615  0.2326 -0.5143
 6407SOL     OW25399   3.650   1.192   3.838 -0.4181  0.5478 -0.4281
 6407SOL    HW225400   3.727   1.135   3.841 -0.3860  0.4370 -2.2235
 6407SOL    HW325401   3.684   1.277   3.810 -0.9377  0.5101 -1.1811
 6407SOL    MW425402   3.665   1.195   3.835 -0.4824  0.5282 -0.7643
 6408SOL     OW25403   6.063   3.566   4.791 -0.0243 -0.9117  0.3750
 6408SOL    HW225404   6.084   3.576   4.698  0.9015 -1.2515  0.5309
 6408SOL    HW325405   6.112   3.637   4.834  0.1763 -1.2277  0.6759
 6408SOL    MW425406   6.072   3.577   4.785  0.1243 -0.9983  0.4353
 6409SOL     OW25407   0.218   6.066   0.039 -0.2809 -0.1414 -0.0078
 6409SOL    HW225408   0.262   6.098   0.118 -0.6986 -0.5279  0.3833
 6409SOL    HW325409   0.268   5.988   0.014  0.8445  0.8637 -1.0602
 6409SOL    MW425410   0.231   6.060   0.046 -0.1875 -0.0598 -0.0950
 6410SOL     OW25411   4.480   4.563   1.554 -0.3952  0.0444 -0.0628
 6410SOL    HW225412   4.559   4.616   1.565 -0.2835  0.2987 -1.8593
 6410SOL    HW325413   4.424   4.616   1.498 -2.4820  0.4973  2.2602
 6410SOL    MW425414   4.483   4.577   1.548 -0.6558  0.1377  0.0067
 6411SOL     OW25415   5.730   2.081   5.580  0.2565  0.2653 -0.0147
 6411SOL    HW225416   5.698   2.100   5.668  0.6687 -0.1944  0.2339
 6411SOL    HW325417   5.814   2.126   5.574  1.0903 -1.1932  0.4675
 6411SOL    MW425418   5.737   2.090   5.591  0.4209  0.0122  0.0817
 6412SOL     OW25419   1.269   4.147   0.450  0.2825  0.0892 -0.4032
 6412SOL    HW225420   1.320   4.106   0.380 -1.6923 -0.6589 -1.4698
 6412SOL    HW325421   1.193   4.089   0.461 -0.3204  1.1271  1.1702
 6412SOL    MW425422   1.266   4.134   0.442 -0.0576  0.1274 -0.3363
 6413SOL     OW25423   2.289   4.263   5.673 -0.0886  0.4020 -0.4227
 6413SOL    HW225424   2.351   4.337   5.675  0.4236 -0.0132  1.7266
 6413SOL    HW325425   2.203   4.304   5.685  0.1451  0.7282  0.2354
 6413SOL    MW425426   2.286   4.278   5.675  0.0098  0.3903 -0.0523
 6414SOL     OW25427   3.162   6.292   1.879 -0.0855  0.1938 -0.5265
 6414SOL    HW225428   3.081   6.242   1.887  1.0252 -1.8219 -1.0557
 6414SOL    HW325429   3.172   6.336   1.964 -1.5775  0.2711 -0.3701
 6414SOL    MW425430   3.153   6.291   1.892 -0.1358 -0.0619 -0.5757
 6415SOL     OW25431   1.448   0.567   6.305  0.5764  0.3211  0.4426
 6415SOL    HW225432   1.409   0.577   6.218  2.5660  1.1235 -0.4229
 6415SOL    HW325433   1.481   0.478   6.306 -0.3714 -0.0420  0.8138
 6415SOL    MW425434   1.447   0.557   6.294  0.7138  0.3791  0.3774
 6416SOL     OW25435   5.105   6.340   4.848 -0.1282  0.5216 -0.2458
 6416SOL    HW225436   5.143   6.419   4.810 -1.0003  1.1490  0.1625
 6416SOL    HW325437   5.118   6.350   4.942 -0.4565  0.2856 -0.1759
 6416SOL    MW425438   5.112   6.351   4.855 -0.2866  0.5732 -0.1827
 6417SOL     OW25439   4.047   0.906   3.681 -0.0351  0.7369 -0.0008
 6417SOL    HW225440   4.115   0.894   3.747 -2.6689 -0.8608  2.7293
 6417SOL    HW325441   4.008   0.819   3.670 -1.6143  1.5519 -1.4318
 6417SOL    MW425442   4.051   0.893   3.688 -0.5910  0.6336  0.1706
 6418SOL     OW25443   4.200   5.540   3.252  0.0479  0.4065  0.2645
 6418SOL    HW225444   4.279   5.498   3.220  0.4314 -0.2597  1.9711
 6418SOL    HW325445   4.128   5.486   3.217  0.4143  0.0778  0.0139
 6418SOL    MW425446   4.201   5.527   3.244  0.1468  0.2752  0.4566
 6419SOL     OW25447   6.184   0.649   6.000  0.1723  0.1210 -0.0046
 6419SOL    HW225448   6.215   0.568   5.959 -0.8621  1.2439 -3.2749
 6419SOL    HW325449   6.200   0.717   5.934  0.2007  2.4919  2.2823
 6419SOL    MW425450   6.191   0.648   5.986  0.0396  0.5820 -0.1343
 6420SOL     OW25451   3.646   2.587   0.062 -0.1426  0.0626 -0.4757
 6420SOL    HW225452   3.604   2.656   0.011  0.6897  1.0665  0.1617
 6420SOL    HW325453   3.739   2.611   0.063  0.1468 -1.0005 -0.1290
 6420SOL    MW425454   3.653   2.599   0.055  0.0054  0.0547 -0.3459
 6421SOL     OW25455   1.065   0.197   2.859  0.3885 -0.1714  0.2269
 6421SOL    HW225456   1.063   0.231   2.770 -1.0169 -0.3032  0.1854
 6421SOL    HW325457   0.973   0.197   2.887  0.9063  1.2246  2.1912
 6421SOL    MW425458   1.052   0.202   2.851  0.2714 -0.0046  0.4806
 6422SOL     OW25459   4.370   0.564   2.738  0.0901 -0.0540 -0.3347
 6422SOL    HW225460   4.332   0.569   2.650  0.3922  0.0333 -0.4615
 6422SOL    HW325461   4.450   0.615   2.732 -0.1345  0.3655  0.1236
 6422SOL    MW425462   4.375   0.571   2.726  0.1004  0.0129 -0.2910
 6423SOL     OW25463   6.005   5.415   4.580 -0.1438  0.1255 -0.0366
 6423SOL    HW225464   6.093   5.395   4.548 -0.9454 -1.4349 -1.3924
 6423SOL    HW325465   5.983   5.497   4.536 -0.0639 -0.4454 -1.1892
 6423SOL    MW425466   6.014   5.423   4.570 -0.2390 -0.1557 -0.3675
 6424SOL     OW25467   5.070   0.739   0.806 -0.4187 -0.1824  0.5697
 6424SOL    HW225468   5.045   0.825   0.771  1.5913  0.0393 -0.4548
 6424SOL    HW325469   5.083   0.754   0.899 -1.4999  0.2687  0.6617
 6424SOL    MW425470   5.068   0.753   0.813 -0.2961 -0.0937  0.4467
 6425SOL     OW25471   1.015   4.167   5.739 -0.0345 -0.8932 -0.5845
 6425SOL    HW225472   0.997   4.253   5.779 -0.3631 -0.1463 -2.2445
 6425SOL    HW325473   1.061   4.188   5.658  0.4545 -2.3458 -0.7082
 6425SOL    MW425474   1.019   4.181   5.734 -0.0133 -0.9863 -0.8199
 6426SOL     OW25475   4.703   3.903   0.749  0.0286 -0.8186  0.1154
 6426SOL    HW225476   4.756   3.981   0.764  0.6922 -0.8513 -1.7102
 6426SOL    HW325477   4.722   3.846   0.823 -1.1943  1.0778  1.9788
 6426SOL    MW425478   4.713   3.906   0.761 -0.0452 -0.5727  0.1204
 6427SOL     OW25479   1.668   4.814   5.559 -0.1853  0.4376  0.1105
 6427SOL    HW225480   1.679   4.890   5.503  1.6257  1.3699  1.5939
 6427SOL    HW325481   1.739   4.822   5.624 -1.7886 -0.8715  2.1520
 6427SOL    MW425482   1.679   4.825   5.560 -0.1579  0.3879  0.5756
 6428SOL     OW25483   2.435   4.992   6.153  0.6404 -0.1651 -0.2353
 6428SOL    HW225484   2.511   4.996   6.094 -0.9507  0.4784 -2.3600
 6428SOL    HW325485   2.378   4.926   6.113 -2.4336  3.2679 -1.9991
 6428SOL    MW425486   2.438   4.984   6.140  0.0249  0.3727 -0.7483
 6429SOL     OW25487   1.067   4.603   4.569  0.3450  0.0683 -0.1070
 6429SOL    HW225488   1.093   4.657   4.644 -0.5093  1.3638 -0.7047
 6429SOL    HW325489   1.007   4.538   4.607  0.8234 -0.0318  0.5056
 6429SOL    MW425490   1.062   4.601   4.584  0.2954  0.2260 -0.1051
 6430SOL     OW25491   6.240   6.235   2.306 -0.2546 -0.0933 -0.1543
 6430SOL    HW225492   6.168   6.186   2.266 -0.1960  0.0238 -0.4120
 6430SOL    HW325493   6.210   6.256   2.394 -1.4157  1.7462 -0.9200
 6430SOL    MW425494   6.226   6.232   2.312 -0.4001  0.1648 -0.2893
 6431SOL     OW25495   0.274   3.138   2.669 -0.6937 -0.6386  0.3925
 6431SOL    HW225496   0.290   3.045   2.653 -0.0464 -0.7153  1.4539
 6431SOL    HW325497   0.327   3.183   2.604 -1.1149 -1.0011 -0.2177
 6431SOL    MW425498   0.283   3.131   2.658 -0.6638 -0.6966  0.4520
 6432SOL     OW25499   4.072   4.672   3.823  0.3886  0.0607  0.2364
 6432SOL    HW225500   4.103   4.745   3.875 -0.4109  1.0742 -0.6717
 6432SOL    HW325501   3.987   4.648   3.861  0.6405 -0.4030  0.5232
 6432SOL    MW425502   4.065   4.678   3.835  0.3164  0.1332  0.1544
 6433SOL     OW25503   4.779   0.328   4.339 -0.1012  0.3823 -0.2371
 6433SOL    HW225504   4.785   0.239   4.305 -0.3761  0.8655 -1.6054
 6433SOL    HW325505   4.727   0.320   4.419  2.7497 -1.1617  1.6576
 6433SOL    MW425506   4.773   0.316   4.345  0.2387  0.2424 -0.1676
 6434SOL     OW25507   1.688   0.445   3.417  0.5249  0.0692  0.7026
 6434SOL    HW225508   1.770   0.400   3.435  1.0948  0.1900 -1.3843
 6434SOL    HW325509   1.676   0.437   3.322 -2.3282 -0.7127  1.0368
 6434SOL    MW425510   1.697   0.438   3.407  0.2236 -0.0181  0.4713
 6435SOL     OW25511   3.011   1.228   5.853 -0.2201  0.3091  0.0896
 6435SOL    HW225512   3.098   1.235   5.814 -0.2132 -0.2752  0.0005
 6435SOL    HW325513   2.951   1.238   5.780 -0.2402  0.9664  0.1860
 6435SOL    MW425514   3.014   1.230   5.839 -0.2218  0.3187  0.0906
 6436SOL     OW25515   3.809   4.629   0.143  0.6659  0.0701 -0.0534
 6436SOL    HW225516   3.899   4.660   0.156  0.9337 -1.5049  2.5597
 6436SOL    HW325517   3.757   4.683   0.202  0.3789 -1.0347  0.7166
 6436SOL    MW425518   3.814   4.641   0.152  0.6633 -0.2835  0.3929
 6437SOL     OW25519   3.431   5.370   1.433 -0.3102 -0.2564  0.2803
 6437SOL    HW225520   3.505   5.427   1.412  1.3184 -2.1088  0.6893
 6437SOL    HW325521   3.421   5.315   1.355 -0.3429 -0.9257  0.7495
 6437SOL    MW425522   3.440   5.370   1.420 -0.0996 -0.5891  0.3962
 6438SOL     OW25523   1.613   1.530   5.901  0.2878 -0.1457 -0.0294
 6438SOL    HW225524   1.624   1.607   5.956  1.1359  0.0904 -0.5136
 6438SOL    HW325525   1.652   1.459   5.951 -0.7333 -0.3320  0.5354
 6438SOL    MW425526   1.620   1.531   5.915  0.2650 -0.1392 -0.0187
 6439SOL     OW25527   1.883   2.835   0.584  0.5678  0.0237  0.2789
 6439SOL    HW225528   1.972   2.804   0.570  0.3907  0.0251 -0.9444
 6439SOL    HW325529   1.886   2.928   0.561  0.3044  0.0720  0.4397
 6439SOL    MW425530   1.895   2.843   0.579  0.5097  0.0303  0.1387
 6440SOL     OW25531   0.595   1.419   3.052 -0.2992  0.2504  0.2544
 6440SOL    HW225532   0.508   1.381   3.041 -0.5836  1.1376 -0.9252
 6440SOL    HW325533   0.634   1.371   3.124 -1.5877 -0.4969  0.4898
 6440SOL    MW425534   0.588   1.408   3.060 -0.5067  0.2688  0.1298
 6441SOL     OW25535   4.025   3.419   0.721  0.7366  0.0524 -0.5435
 6441SOL    HW225536   3.982   3.389   0.640 -1.1247 -0.9976  0.7553
 6441SOL    HW325537   4.112   3.379   0.717  0.4767 -0.4724 -1.7558
 6441SOL    MW425538   4.031   3.410   0.710  0.4567 -0.1554 -0.5321
 6442SOL     OW25539   4.185   0.182   5.380  0.1247 -0.2796 -0.2102
 6442SOL    HW225540   4.149   0.102   5.419  0.4825 -0.5076 -0.3462
 6442SOL    HW325541   4.209   0.236   5.455 -0.1332 -0.2900 -0.1175
 6442SOL    MW425542   4.183   0.178   5.395  0.1379 -0.3111 -0.2159
 6443SOL     OW25543   1.991   4.297   0.708  0.3030 -0.1758 -1.1729
 6443SOL    HW225544   2.022   4.380   0.745 -0.1348  0.7202 -2.7187
 6443SOL    HW325545   2.050   4.281   0.635 -0.2905 -0.6531 -1.5526
 6443SOL    MW425546   2.003   4.306   0.703  0.1669 -0.1206 -1.4270
 6444SOL     OW25547   2.759   1.115   3.920 -0.0407 -0.2845  0.1450
 6444SOL    HW225548   2.762   1.124   3.825 -1.5906 -0.2382  0.0786
 6444SOL    HW325549   2.786   1.025   3.937 -1.3210 -0.8049 -0.4761
 6444SOL    MW425550   2.763   1.105   3.910 -0.4141 -0.3470  0.0543
 6445SOL     OW25551   2.144   0.971   2.528 -0.1292 -0.1477  0.3058
 6445SOL    HW225552   2.210   1.007   2.470 -1.1342  0.4328 -0.5084
 6445SOL    HW325553   2.115   0.891   2.484  1.2720 -1.3921  1.5384
 6445SOL    MW425554   2.149   0.965   2.515 -0.0769 -0.2353  0.3610
 6446SOL     OW25555   0.038   2.380   4.490 -0.5317 -0.2028 -0.0342
 6446SOL    HW225556   0.028   2.284   4.492 -1.7852 -0.0882  0.3875
 6446SOL    HW325557  -0.034   2.412   4.545  2.2487  0.8399  3.4084
 6446SOL    MW425558   0.027   2.371   4.498 -0.3302 -0.0501  0.4756
 6447SOL     OW25559   1.186   4.039   5.089 -0.6367 -0.2681  0.3898
 6447SOL    HW225560   1.188   3.979   5.014  0.0877  0.7593 -0.4417
 6447SOL    HW325561   1.114   4.099   5.070 -0.3341  0.1090  0.4227
 6447SOL    MW425562   1.176   4.039   5.077 -0.5012 -0.0828  0.2845
 6448SOL     OW25563   5.637   0.580   0.292 -0.0385  0.1808  0.6684
 6448SOL    HW225564   5.639   0.515   0.222 -0.0138  0.3712  0.4902
 6448SOL    HW325565   5.606   0.532   0.368 -2.1719  0.4338  0.0287
 6448SOL    MW425566   5.633   0.565   0.292 -0.3167  0.2393  0.5605
 6449SOL     OW25567   4.842   6.423   4.853  0.4329 -0.2869 -0.3936
 6449SOL    HW225568   4.846   6.501   4.797 -0.2172 -0.1056 -0.1879
 6449SOL    HW325569   4.929   6.383   4.843  0.5534  0.1091 -1.0030
 6449SOL    MW425570   4.854   6.428   4.844  0.3631 -0.2107 -0.4469
 6450SOL     OW25571   2.171   5.731   0.979 -0.1426  0.5581  0.3921
 6450SOL    HW225572   2.140   5.752   1.067  1.5668  1.6633  0.7811
 6450SOL    HW325573   2.265   5.719   0.989 -0.2570 -2.1407 -0.8185
 6450SOL    MW425574   2.179   5.732   0.992  0.0679  0.3478  0.2837
 6451SOL     OW25575   4.201   1.493   4.235 -0.6221  0.1115  0.2550
 6451SOL    HW225576   4.163   1.508   4.322 -0.5512  1.7528  0.0359
 6451SOL    HW325577   4.193   1.577   4.191  0.5350 -0.3470 -0.8776
 6451SOL    MW425578   4.195   1.506   4.241 -0.4601  0.2675  0.0767
 6452SOL     OW25579   5.576   5.903   4.191  0.1020  0.1086  0.0075
 6452SOL    HW225580   5.486   5.873   4.205  0.3072 -1.6833 -1.9054
 6452SOL    HW325581   5.630   5.834   4.230  0.5984 -0.4052 -1.5040
 6452SOL    MW425582   5.572   5.890   4.198  0.1946 -0.1956 -0.4443
 6453SOL     OW25583   5.700   3.256   2.053 -0.2932 -0.2991 -0.2665
 6453SOL    HW225584   5.757   3.241   1.978  0.9249 -2.2688  0.9902
 6453SOL    HW325585   5.613   3.227   2.023  0.3197 -1.7542 -0.7165
 6453SOL    MW425586   5.696   3.250   2.039 -0.0516 -0.7509 -0.1600
 6454SOL     OW25587   5.847   4.647   6.020 -0.2128  0.2181  0.1671
 6454SOL    HW225588   5.865   4.646   5.926  0.7823  0.7397  0.3381
 6454SOL    HW325589   5.860   4.739   6.046 -1.1175  0.2047  0.7000
 6454SOL    MW425590   5.851   4.659   6.011 -0.2009  0.2851  0.2600
 6455SOL     OW25591   5.165   5.507   0.874  0.5060 -0.3280  0.3633
 6455SOL    HW225592   5.239   5.514   0.814 -0.2182  0.8018 -0.4215
 6455SOL    HW325593   5.093   5.553   0.830 -0.5946 -1.1462  1.2342
 6455SOL    MW425594   5.165   5.514   0.860  0.2652 -0.2869  0.3746
 6456SOL     OW25595   3.357   5.783   0.895  0.2217  0.2754 -0.6518
 6456SOL    HW225596   3.383   5.784   0.803  1.3949 -1.1656 -0.3711
 6456SOL    HW325597   3.373   5.872   0.926  3.5460 -0.1207 -0.8804
 6456SOL    MW425598   3.362   5.795   0.887  0.8151  0.0330 -0.6449
 6457SOL     OW25599   1.756   4.594   1.000 -0.2335  0.2066 -0.0195
 6457SOL    HW225600   1.668   4.630   1.007 -0.3834 -0.3569  1.3296
 6457SOL    HW325601   1.761   4.530   1.071  0.8191 -0.7256 -0.9012
 6457SOL    MW425602   1.745   4.591   1.011 -0.1144  0.0092  0.0422
 6458SOL     OW25603   2.935   4.386   4.683 -0.2552  0.4536  0.5169
 6458SOL    HW225604   2.869   4.317   4.682  0.6088 -0.4153  1.3339
 6458SOL    HW325605   2.891   4.462   4.645 -1.8058 -0.0216  1.2928
 6458SOL    MW425606   2.921   4.387   4.678 -0.3458  0.2763  0.7270
 6459SOL     OW25607   3.883   2.099   1.469 -0.2597 -0.3281  0.3175
 6459SOL    HW225608   3.898   2.005   1.466 -0.0197 -0.2852  0.0761
 6459SOL    HW325609   3.839   2.119   1.387 -1.2189 -0.3761  0.8053
 6459SOL    MW425610   3.879   2.089   1.458 -0.3546 -0.3288  0.3500
 6460SOL     OW25611   1.001   5.294   6.379  0.1380 -0.4104 -0.3931
 6460SOL    HW225612   0.982   5.208   6.342  0.8133 -1.5052  1.6474
 6460SOL    HW325613   1.019   5.277   6.471  2.6914  1.6064 -0.4141
 6460SOL    MW425614   1.001   5.280   6.386  0.5640 -0.2888 -0.1266
 6461SOL     OW25615   6.094   2.228   3.829 -0.5536 -0.5527  0.0059
 6461SOL    HW225616   6.115   2.226   3.923 -1.5095 -2.8023  0.2495
 6461SOL    HW325617   6.162   2.174   3.789  0.3279  1.0734 -0.7456
 6461SOL    MW425618   6.106   2.221   3.836 -0.5635 -0.6350 -0.0611
 6462SOL     OW25619   3.175   0.033   2.124 -0.0215  0.1147 -0.0315
 6462SOL    HW225620   3.117   0.006   2.195 -0.7930 -1.3119 -1.1663
 6462SOL    HW325621   3.263   0.020   2.159 -0.3741  0.4597  1.0281
 6462SOL    MW425622   3.179   0.028   2.138 -0.1698 -0.0280 -0.0414
 6463SOL     OW25623   4.854   6.277   1.778  0.0811  0.1521  0.3712
 6463SOL    HW225624   4.833   6.210   1.844 -0.4080  1.0197  1.1205
 6463SOL    HW325625   4.903   6.230   1.711 -1.7675 -1.3546 -0.0177
 6463SOL    MW425626   4.858   6.262   1.778 -0.2273  0.0678  0.4187
 6464SOL     OW25627   3.163   4.584   1.968  0.2344  0.2507  0.8606
 6464SOL    HW225628   3.176   4.570   1.874  0.8521 -0.3855  1.0343
 6464SOL    HW325629   3.221   4.656   1.990  1.8699 -1.0897  1.1813
 6464SOL    MW425630   3.172   4.591   1.958  0.5317 -0.0101  0.9259
 6465SOL     OW25631   2.997   0.234   3.395 -0.2894  0.3783 -0.3741
 6465SOL    HW225632   3.026   0.253   3.306  0.1236  2.0581  0.0865
 6465SOL    HW325633   2.908   0.268   3.399 -0.0121  1.0521  0.0936
 6465SOL    MW425634   2.989   0.241   3.384 -0.1983  0.6888 -0.2516
 6466SOL     OW25635   5.840   1.726   0.350  0.5428 -0.1228  0.2462
 6466SOL    HW225636   5.747   1.717   0.371  0.6126 -0.6512  0.3586
 6466SOL    HW325637   5.881   1.745   0.434  0.3673  1.6327 -0.0286
 6466SOL    MW425638   5.833   1.727   0.364  0.5289  0.0391  0.2248
 6467SOL     OW25639   2.334   4.671   5.084 -0.0502  0.1634  0.3165
 6467SOL    HW225640   2.295   4.681   4.998 -0.1709 -0.0524  0.3474
 6467SOL    HW325641   2.300   4.746   5.134  1.0117  1.0153 -0.1866
 6467SOL    MW425642   2.325   4.682   5.080  0.0740  0.2473  0.2542
 6468SOL     OW25643   6.413   4.137   3.624 -0.5414 -0.2907 -0.1386
 6468SOL    HW225644   6.508   4.137   3.627 -0.4774 -0.3470 -1.3656
 6468SOL    HW325645   6.388   4.225   3.654 -0.1711 -0.6182  1.1699
 6468SOL    MW425646   6.422   4.149   3.628 -0.4841 -0.3413 -0.1279
 6469SOL     OW25647   6.198   4.358   6.145 -0.0055  0.6336  0.5412
 6469SOL    HW225648   6.242   4.426   6.196 -0.5745  0.2757  1.5380
 6469SOL    HW325649   6.256   4.341   6.071 -0.5617  3.2990 -0.6070
 6469SOL    MW425650   6.211   4.364   6.142 -0.1539  0.9381  0.5213
 6470SOL     OW25651   3.645   1.124   1.422 -0.2407 -0.4434 -0.2617
 6470SOL    HW225652   3.699   1.187   1.469  2.5182 -2.8764  0.1423
 6470SOL    HW325653   3.667   1.136   1.330  1.0098 -1.3723 -0.1049
 6470SOL    MW425654   3.655   1.134   1.416  0.2883 -0.8870 -0.1877
 6471SOL     OW25655   2.349   1.916   4.845  0.0898 -0.7616 -0.4246
 6471SOL    HW225656   2.328   1.925   4.938 -0.4656  2.8993 -0.7383
 6471SOL    HW325657   2.429   1.864   4.842  0.5704 -0.2711  2.1771
 6471SOL    MW425658   2.357   1.910   4.857  0.0799 -0.2139 -0.1227
 6472SOL     OW25659   0.035   3.029   1.484 -0.5774 -0.2495  0.0250
 6472SOL    HW225660  -0.028   3.007   1.552 -0.1200  0.1614  0.5944
 6472SOL    HW325661   0.111   3.062   1.532 -0.3022  0.1793 -0.6908
 6472SOL    MW425662   0.037   3.031   1.499 -0.4807 -0.1387  0.0057
 6473SOL     OW25663   0.533   3.287   6.037 -0.0368  0.0873  0.2190
 6473SOL    HW225664   0.592   3.352   5.999 -0.1463  0.1336  0.1293
 6473SOL    HW325665   0.512   3.228   5.965  0.4559 -0.3389  0.4179
 6473SOL    MW425666   0.538   3.288   6.023  0.0138  0.0372  0.2334
 6474SOL     OW25667   5.551   4.194   1.068 -0.3023 -0.1097  0.3093
 6474SOL    HW225668   5.563   4.229   0.980  0.6430  1.4040  1.0045
 6474SOL    HW325669   5.606   4.116   1.071  1.3212  0.9853  0.1822
 6474SOL    MW425670   5.560   4.188   1.057  0.0366  0.2345  0.3842
 6475SOL     OW25671   0.240   3.700   1.342  0.1469 -0.3372  0.4594
 6475SOL    HW225672   0.157   3.663   1.373  0.0935 -0.1575  0.5288
 6475SOL    HW325673   0.284   3.626   1.300  0.1715 -0.5601  0.8621
 6475SOL    MW425674   0.235   3.685   1.341  0.1431 -0.3429  0.5217
 6476SOL     OW25675   5.742   3.915   0.781  0.6475 -0.0750 -0.5636
 6476SOL    HW225676   5.734   3.960   0.866 -0.2667  2.2783 -1.8050
 6476SOL    HW325677   5.658   3.873   0.769  0.5978  0.0155 -0.5335
 6476SOL    MW425678   5.730   3.916   0.791  0.5203  0.2474 -0.7234
 6477SOL     OW25679   3.927   4.424   5.155  0.3568  0.0961  0.6018
 6477SOL    HW225680   3.947   4.434   5.062  0.6633  0.9773  0.7586
 6477SOL    HW325681   3.831   4.426   5.159  0.2331 -2.0392  0.0929
 6477SOL    MW425682   3.917   4.426   5.143  0.3809 -0.0694  0.5554
 6478SOL     OW25683   2.626   4.673   2.540 -0.1945 -0.1211  0.1023
 6478SOL    HW225684   2.649   4.649   2.450  0.3939 -1.7340  0.6458
 6478SOL    HW325685   2.682   4.618   2.594  0.3283  1.6846  1.4881
 6478SOL    MW425686   2.636   4.662   2.535 -0.0479 -0.0956  0.3568
 6479SOL     OW25687   5.094   4.807   4.453  0.6045  0.0958  0.1914
 6479SOL    HW225688   5.044   4.888   4.466 -0.3129 -0.1527 -1.6341
 6479SOL    HW325689   5.036   4.750   4.404  1.1387 -1.8296  1.6660
 6479SOL    MW425690   5.080   4.810   4.448  0.5540 -0.1910  0.1451
 6480SOL     OW25691   2.976   0.078   1.049  0.2409  0.4188 -0.2965
 6480SOL    HW225692   3.006  -0.013   1.049  0.5888  0.5277  0.4388
 6480SOL    HW325693   2.881   0.072   1.039  0.1984 -0.0510  0.3674
 6480SOL    MW425694   2.967   0.065   1.048  0.2812  0.3712 -0.1119
 6481SOL     OW25695   4.239   5.720   4.363 -0.8321 -0.0959  0.6545
 6481SOL    HW225696   4.175   5.731   4.433  0.1601  0.0812  1.5704
 6481SOL    HW325697   4.279   5.635   4.380  0.6297  0.6856  1.3801
 6481SOL    MW425698   4.236   5.710   4.374 -0.5083  0.0306  0.8710
 6482SOL     OW25699   4.186   6.073   6.297  0.2073  0.0126  0.3914
 6482SOL    HW225700   4.183   6.040   6.387 -1.0779 -1.9849 -0.3135
 6482SOL    HW325701   4.099   6.110   6.282 -0.1349 -1.0800 -0.4842
 6482SOL    MW425702   4.174   6.073   6.307 -0.0074 -0.3951  0.1829
 6483SOL     OW25703   2.003   5.624   5.686  0.2044 -0.5908 -0.0792
 6483SOL    HW225704   2.048   5.656   5.608  0.5875 -1.0132 -0.0287
 6483SOL    HW325705   2.069   5.574   5.734  0.5022  1.0954  1.4063
 6483SOL    MW425706   2.017   5.622   5.682  0.2942 -0.4241  0.1234
 6484SOL     OW25707   5.577   3.676   2.538 -0.4968 -0.4803  0.5362
 6484SOL    HW225708   5.607   3.739   2.472 -2.2640 -0.7699 -0.6039
 6484SOL    HW325709   5.630   3.598   2.522  1.6110  0.5684  1.8627
 6484SOL    MW425710   5.588   3.674   2.527 -0.4518 -0.3801  0.5608
 6485SOL     OW25711   4.634   2.867   2.266  0.0995  0.0058  0.1306
 6485SOL    HW225712   4.701   2.864   2.334  0.0902 -0.8928  0.1046
 6485SOL    HW325713   4.674   2.825   2.190 -0.1981  0.2226 -0.1506
 6485SOL    MW425714   4.648   2.861   2.265  0.0590 -0.0841  0.0901
 6486SOL     OW25715   1.844   0.702   1.221  0.7943 -0.1606 -0.6242
 6486SOL    HW225716   1.763   0.651   1.226  0.5224  0.2978 -0.2694
 6486SOL    HW325717   1.820   0.788   1.257  1.0017  0.5224 -2.0613
 6486SOL    MW425718   1.830   0.707   1.227  0.7858 -0.0100 -0.7670
 6487SOL     OW25719   4.595   6.359   0.580  0.0332  0.4951  0.5320
 6487SOL    HW225720   4.614   6.299   0.508  1.2153  3.4445 -1.8405
 6487SOL    HW325721   4.506   6.389   0.563 -0.2225  0.1169  1.1807
 6487SOL    MW425722   4.586   6.355   0.568  0.1555  0.8343  0.3046
 6488SOL     OW25723   4.449   2.457   6.005 -0.2652  0.1292 -0.2179
 6488SOL    HW225724   4.513   2.504   6.058 -0.5641  0.2071  0.0813
 6488SOL    HW325725   4.478   2.468   5.915  0.4061 -0.2431 -0.0495
 6488SOL    MW425726   4.461   2.464   6.000 -0.2161  0.0904 -0.1562
 6489SOL     OW25727   4.909   4.274   3.139  0.3277 -0.1406  0.5071
 6489SOL    HW225728   4.988   4.224   3.120  0.6129  0.4973  0.0115
 6489SOL    HW325729   4.852   4.259   3.063  0.6042  0.6523  0.1264
 6489SOL    MW425730   4.912   4.265   3.126  0.4018  0.0482  0.3915
 6490SOL     OW25731   4.700   3.840   3.124  0.2673 -0.3967  0.5970
 6490SOL    HW225732   4.758   3.849   3.048 -1.4767  1.7378 -0.5823
 6490SOL    HW325733   4.759   3.817   3.196  2.8637  2.7981 -0.2405
 6490SOL    MW425734   4.715   3.838   3.123  0.3797  0.3064  0.3309
 6491SOL     OW25735   4.379   1.833   2.971  0.1782 -0.5125  0.1615
 6491SOL    HW225736   4.463   1.799   3.002  0.6278 -0.3163 -0.8093
 6491SOL    HW325737   4.314   1.777   3.013  0.6672  0.6647  2.6410
 6491SOL    MW425738   4.382   1.821   2.980  0.3020 -0.3313  0.3605
 6492SOL     OW25739   3.095   2.189   0.014  0.0027  0.0172 -0.4242
 6492SOL    HW225740   3.135   2.117   0.062 -0.8487  1.6164  3.0180
 6492SOL    HW325741   3.158   2.211  -0.055  2.2636 -1.2720  1.1128
 6492SOL    MW425742   3.108   2.183   0.011  0.1887  0.0581  0.2327
 6493SOL     OW25743   3.305   6.099   1.995  0.1257  0.2660  0.2780
 6493SOL    HW225744   3.262   6.015   1.975  0.1290  0.1786  0.6331
 6493SOL    HW325745   3.249   6.165   1.955 -0.7902  0.2153  1.4324
 6493SOL    MW425746   3.292   6.096   1.987  0.0053  0.2478  0.4771
 6494SOL     OW25747   2.753   3.827   0.094  0.6811  0.4220  0.2427
 6494SOL    HW225748   2.790   3.907   0.130 -0.0244  0.4298  0.9522
 6494SOL    HW325749   2.698   3.857   0.022  0.6504  0.5437  0.3168
 6494SOL    MW425750   2.751   3.841   0.089  0.5840  0.4391  0.3461
 6495SOL     OW25751   2.756   4.372   0.540 -0.4772  0.5937 -0.2218
 6495SOL    HW225752   2.665   4.402   0.539 -1.3982 -1.9526  0.5146
 6495SOL    HW325753   2.803   4.439   0.591 -1.9659  1.8108 -0.3786
 6495SOL    MW425754   2.750   4.385   0.547 -0.7951  0.4183 -0.1454
 6496SOL     OW25755   1.341   1.634   1.169  0.3503  0.4447 -0.2339
 6496SOL    HW225756   1.385   1.631   1.084  1.7245 -0.6061  0.4742
 6496SOL    HW325757   1.358   1.723   1.201  3.1312 -0.2649  0.5518
 6496SOL    MW425758   1.349   1.645   1.162  0.8985  0.2124 -0.0368
 6497SOL     OW25759   1.286   1.170   1.585 -0.4271  0.0729  0.0724
 6497SOL    HW225760   1.354   1.106   1.611  0.0912 -0.3710 -2.1544
 6497SOL    HW325761   1.294   1.240   1.649  0.6769 -0.9669  1.1396
 6497SOL    MW425762   1.296   1.170   1.597 -0.2131 -0.1228 -0.0806
 6498SOL     OW25763   6.198   3.000   1.051 -0.8641 -0.2378 -0.0345
 6498SOL    HW225764   6.275   3.054   1.038 -0.2576 -0.8107  0.9912
 6498SOL    HW325765   6.181   2.960   0.966 -0.2915  0.2316 -0.3713
 6498SOL    MW425766   6.206   3.002   1.038 -0.7086 -0.2514  0.0564
 6499SOL     OW25767   0.331   3.498   0.587  0.6644  0.4010  0.1007
 6499SOL    HW225768   0.338   3.445   0.666  1.3797  1.5297  0.8416
 6499SOL    HW325769   0.411   3.478   0.538 -0.0494 -0.7264 -0.6414
 6499SOL    MW425770   0.342   3.489   0.591  0.6646  0.4012  0.1006
 6500SOL     OW25771   3.253   1.506   3.724  0.0075 -0.2088 -0.3262
 6500SOL    HW225772   3.203   1.586   3.741  1.4985  0.3264  2.1220
 6500SOL    HW325773   3.213   1.440   3.781  0.7352 -0.3163  0.0798
 6500SOL    MW425774   3.241   1.508   3.734  0.3002 -0.1524  0.0504
 6501SOL     OW25775   1.562   6.257   1.339  0.1396 -0.0164  0.6249
 6501SOL    HW225776   1.583   6.164   1.343  0.4768  0.0198 -0.0580
 6501SOL    HW325777   1.647   6.301   1.346  0.1236  0.1911 -0.3459
 6501SOL    MW425778   1.576   6.251   1.340  0.1820  0.0157  0.4067
 6502SOL     OW25779   5.583   4.439   3.562  0.3084  0.3406  0.0756
 6502SOL    HW225780   5.520   4.386   3.513  0.4720  0.7773 -0.6223
 6502SOL    HW325781   5.540   4.457   3.646 -0.9082  1.3954 -0.7301
 6502SOL    MW425782   5.569   4.435   3.567  0.1694  0.5373 -0.1228
 6503SOL     OW25783   3.263   2.903   5.264 -0.0224  0.2892 -0.2480
 6503SOL    HW225784   3.199   2.974   5.266 -1.1928 -0.6963 -1.3465
 6503SOL    HW325785   3.342   2.944   5.228 -0.3577  1.2620  0.0862
 6503SOL    MW425786   3.265   2.918   5.259 -0.2211  0.2875 -0.3489
 6504SOL     OW25787   0.323   5.367   1.808  0.2235  0.2086  0.7980
 6504SOL    HW225788   0.306   5.424   1.882 -0.5467 -0.0317  0.8199
 6504SOL    HW325789   0.289   5.415   1.732  0.8601  0.3833  0.6142
 6504SOL    MW425790   0.316   5.381   1.808  0.2059  0.1999  0.7767
 6505SOL     OW25791   3.537   1.228   3.262 -0.0795 -0.7605  0.3060
 6505SOL    HW225792   3.586   1.161   3.214  0.0499 -1.1404  0.9653
 6505SOL    HW325793   3.503   1.183   3.339  1.0253  0.2234  1.3996
 6505SOL    MW425794   3.539   1.213   3.266  0.0833 -0.6808  0.5372
 6506SOL     OW25795   2.444   0.092   0.799 -0.3309 -0.0477 -0.3510
 6506SOL    HW225796   2.435   0.156   0.728  2.4380  2.2604  1.1453
 6506SOL    HW325797   2.413   0.139   0.877  0.0252 -1.1875  0.5011
 6506SOL    MW425798   2.439   0.107   0.800  0.0814  0.1065 -0.0411
 6507SOL     OW25799   1.196   3.204   4.540  0.1779 -0.1201  0.1850
 6507SOL    HW225800   1.187   3.126   4.595  3.3621 -1.1135 -0.4624
 6507SOL    HW325801   1.194   3.170   4.451 -1.7810  1.0589 -0.2638
 6507SOL    MW425802   1.194   3.189   4.536  0.3396 -0.0956  0.0404
 6508SOL     OW25803   4.263   3.798   0.481  0.3921  0.5748  0.5688
 6508SOL    HW225804   4.311   3.806   0.563 -0.8459  2.5544  1.1601
 6508SOL    HW325805   4.277   3.707   0.454  1.2926  0.0402  2.6519
 6508SOL    MW425806   4.271   3.787   0.488  0.3475  0.7654  0.9217
 6509SOL     OW25807   3.976   5.741   4.490 -0.3773  0.1815 -0.1022
 6509SOL    HW225808   4.008   5.795   4.563 -1.5163  0.2855  0.3535
 6509SOL    HW325809   3.978   5.799   4.414 -0.5974  0.5542  0.1711
 6509SOL    MW425810   3.980   5.756   4.490 -0.5566  0.2444 -0.0060
 6510SOL     OW25811   4.530   0.023   5.772 -0.4129 -0.3795 -0.5710
 6510SOL    HW225812   4.518   0.097   5.713  0.2250  0.3846  0.2183
 6510SOL    HW325813   4.445  -0.021   5.774 -1.0198  0.7630 -0.4990
 6510SOL    MW425814   4.518   0.027   5.765 -0.4088 -0.1280 -0.4573
 6511SOL     OW25815   0.577   6.271   4.297  0.4495 -0.2634  0.1104
 6511SOL    HW225816   0.571   6.214   4.373 -0.5129 -0.2964  0.0145
 6511SOL    HW325817   0.666   6.256   4.263  0.5487 -0.9628  0.6568
 6511SOL    MW425818   0.588   6.262   4.302  0.3356 -0.3600  0.1698
 6512SOL     OW25819   4.713   1.656   4.831 -0.1462  0.0504  0.3493
 6512SOL    HW225820   4.799   1.678   4.795 -0.9326  2.5164 -0.1927
 6512SOL    HW325821   4.731   1.634   4.923  0.9173  2.5298  0.8295
 6512SOL    MW425822   4.727   1.656   4.838 -0.1096  0.7029  0.3411
 6513SOL     OW25823   1.794   6.165   4.575  0.0973 -0.2205 -0.3799
 6513SOL    HW225824   1.785   6.214   4.494 -0.6282 -0.1162 -0.2353
 6513SOL    HW325825   1.724   6.197   4.632  0.1669 -0.7820  0.0359
 6513SOL    MW425826   1.784   6.175   4.572  0.0108 -0.2808 -0.3060
 6514SOL     OW25827   5.505   2.919   2.483 -0.4729  0.3210  0.4422
 6514SOL    HW225828   5.576   2.980   2.500 -0.5683  0.5148  0.1523
 6514SOL    HW325829   5.426   2.965   2.510 -0.5548  0.3717  0.1293
 6514SOL    MW425830   5.504   2.933   2.489 -0.4963  0.3533  0.3627
 6515SOL     OW25831   6.412   4.059   5.917  0.0855  0.3266  0.1665
 6515SOL    HW225832   6.399   4.021   6.004  1.3576 -0.5636 -0.0030
 6515SOL    HW325833   6.330   4.040   5.871  0.2027 -1.1101  0.5039
 6515SOL    MW425834   6.399   4.051   5.922  0.2688  0.0196  0.1886
 6516SOL     OW25835   3.265   6.292   5.989 -0.2898  0.8107  0.2282
 6516SOL    HW225836   3.236   6.243   5.912  2.2291 -1.3915  0.5184
 6516SOL    HW325837   3.241   6.237   6.064  3.1274 -0.5664  0.5356
 6516SOL    MW425838   3.258   6.278   5.989  0.4934  0.3384  0.3071
 6517SOL     OW25839   1.010   3.628   4.379 -0.2275  0.0763 -0.1304
 6517SOL    HW225840   1.030   3.576   4.457 -1.1747 -0.8300 -0.4778
 6517SOL    HW325841   0.930   3.675   4.402  1.5152  2.8524  0.8502
 6517SOL    MW425842   1.002   3.628   4.393 -0.1225  0.3230 -0.0469
 6518SOL     OW25843   4.277   4.308   3.932  0.3226  0.1434 -0.5697
 6518SOL    HW225844   4.286   4.394   3.973  1.5120  0.0745 -0.6497
 6518SOL    HW325845   4.183   4.290   3.935  0.0650  1.3902 -0.4507
 6518SOL    MW425846   4.266   4.317   3.938  0.4455  0.2988 -0.5645
 6519SOL     OW25847   5.556   2.560   1.832  0.0234 -0.0161 -0.0229
 6519SOL    HW225848   5.551   2.643   1.878 -2.6463  0.0429 -0.2560
 6519SOL    HW325849   5.546   2.494   1.901  1.2888 -0.1688  0.0518
 6519SOL    MW425850   5.554   2.562   1.847 -0.1618 -0.0285 -0.0438
 6520SOL     OW25851   1.675   4.232   2.358 -0.4188 -0.1384  0.2202
 6520SOL    HW225852   1.730   4.157   2.333  0.3130 -0.1584  1.7894
 6520SOL    HW325853   1.622   4.200   2.430 -2.4520 -0.0618 -1.1621
 6520SOL    MW425854   1.676   4.218   2.364 -0.5905 -0.1309  0.2449
 6521SOL     OW25855   0.899   3.970   5.430 -0.0234 -0.4856  0.2402
 6521SOL    HW225856   0.982   3.969   5.382 -0.3414  1.9817 -0.5039
 6521SOL    HW325857   0.909   3.901   5.496  1.9221 -1.4093 -0.9076
 6521SOL    MW425858   0.912   3.960   5.432  0.1913 -0.2819 -0.0094
 6522SOL     OW25859   0.998   3.765   1.886  0.3405 -0.0865  0.5111
 6522SOL    HW225860   0.999   3.804   1.799 -2.3196 -1.0712 -0.0592
 6522SOL    HW325861   1.065   3.696   1.883  1.5160  1.0472 -0.1146
 6522SOL    MW425862   1.007   3.761   1.874  0.1447 -0.0668  0.3533
 6523SOL     OW25863   2.855   1.484   0.752 -0.2706 -0.5528 -0.0095
 6523SOL    HW225864   2.869   1.430   0.829  0.6741 -1.1457 -0.5789
 6523SOL    HW325865   2.915   1.558   0.763  0.1194 -0.8160 -0.3307
 6523SOL    MW425866   2.865   1.487   0.763 -0.0945 -0.6658 -0.1270
 6524SOL     OW25867   5.466   0.901   1.009 -0.5087  0.3391 -0.2100
 6524SOL    HW225868   5.376   0.931   0.995 -0.9683 -1.0813 -0.4420
 6524SOL    HW325869   5.494   0.867   0.924  0.3260  0.9160 -0.1828
 6524SOL    MW425870   5.458   0.901   0.996 -0.4592  0.2278 -0.2371
 6525SOL     OW25871   3.793   0.367   4.829  0.0692 -0.2381  0.6991
 6525SOL    HW225872   3.878   0.372   4.785  0.3234 -1.5618  0.9998
 6525SOL    HW325873   3.733   0.336   4.761  0.1525 -0.8042  0.8778
 6525SOL    MW425874   3.796   0.364   4.814  0.1137 -0.4874  0.7623
 6526SOL     OW25875   3.060   3.258   4.079 -0.4089 -0.0724  0.4495
 6526SOL    HW225876   2.976   3.221   4.054 -1.3519  0.7545  2.1894
 6526SOL    HW325877   3.104   3.279   3.997 -1.4316 -1.5035 -0.5015
 6526SOL    MW425878   3.055   3.256   4.065 -0.6682 -0.1521  0.5535
 6527SOL     OW25879   0.210   4.094   3.166 -0.5508  0.1690  0.0591
 6527SOL    HW225880   0.258   4.031   3.221  0.7400  0.3361 -0.8235
 6527SOL    HW325881   0.266   4.171   3.164 -1.1949  0.6311 -0.4460
 6527SOL    MW425882   0.224   4.096   3.173 -0.4655  0.2520 -0.1240
 6528SOL     OW25883   2.089   3.423   0.226 -0.4327  0.1188 -0.1612
 6528SOL    HW225884   2.062   3.426   0.318  1.7524 -0.7766  0.5819
 6528SOL    HW325885   2.023   3.368   0.183 -0.7583 -0.5540  1.1491
 6528SOL    MW425886   2.077   3.416   0.232 -0.1874 -0.0881  0.1097
 6529SOL     OW25887   4.504   6.030   2.086  0.6145 -0.5342 -0.1527
 6529SOL    HW225888   4.437   6.090   2.051  0.1552 -0.3415  1.0111
 6529SOL    HW325889   4.513   5.963   2.019  0.0440  0.0395 -0.8214
 6529SOL    MW425890   4.496   6.029   2.073  0.4786 -0.4331 -0.0874
 6530SOL     OW25891   3.306   2.557   1.493 -0.5697 -0.0024 -0.0815
 6530SOL    HW225892   3.352   2.487   1.540  0.3653 -0.7041 -1.9241
 6530SOL    HW325893   3.329   2.637   1.540  0.2198 -0.6781  0.7091
 6530SOL    MW425894   3.315   2.558   1.505 -0.3421 -0.1841 -0.2203
 6531SOL     OW25895   4.011   5.001   3.874 -0.7578 -0.2391 -0.0168
 6531SOL    HW225896   4.046   5.031   3.958 -0.0573  2.7507 -1.2450
 6531SOL    HW325897   3.920   5.031   3.874 -0.7430 -0.1967 -0.3513
 6531SOL    MW425898   4.003   5.008   3.885 -0.6634  0.1610 -0.2230
 6532SOL     OW25899   1.500   0.915   5.075  0.5967 -0.5559  0.2331
 6532SOL    HW225900   1.550   0.864   5.011  1.6189  1.6382 -0.8404
 6532SOL    HW325901   1.462   0.987   5.025 -0.4836 -0.0415  1.7129
 6532SOL    MW425902   1.502   0.918   5.060  0.5890 -0.1986  0.2867
 6533SOL     OW25903   4.866   2.627   4.474  0.3269  0.4504  0.1889
 6533SOL    HW225904   4.842   2.655   4.563  0.4391  1.3251 -0.0490
 6533SOL    HW325905   4.932   2.559   4.487 -0.1845  0.0569  0.7910
 6533SOL    MW425906   4.871   2.621   4.487  0.2742  0.5139  0.2369
 6534SOL     OW25907   3.233   5.140   2.401  0.1900  0.8518  0.3238
 6534SOL    HW225908   3.234   5.121   2.308 -2.0147 -2.6920  0.8587
 6534SOL    HW325909   3.316   5.107   2.434 -0.0875 -0.2210 -0.0370
 6534SOL    MW425910   3.244   5.133   2.393 -0.1375  0.2427  0.3467
 6535SOL     OW25911   3.521   2.562   0.548 -0.4581 -0.2341  0.0158
 6535SOL    HW225912   3.442   2.530   0.592 -0.7153 -0.9183 -0.8956
 6535SOL    HW325913   3.489   2.593   0.463  0.2853 -0.7247 -0.4486
 6535SOL    MW425914   3.506   2.562   0.543 -0.3940 -0.3891 -0.1657
 6536SOL     OW25915   0.958   1.367   5.116  0.5624 -0.1407 -0.2694
 6536SOL    HW225916   0.932   1.376   5.208 -1.3100 -0.0370 -0.7792
 6536SOL    HW325917   1.014   1.443   5.100  0.2973  0.2469  0.5748
 6536SOL    MW425918   0.962   1.378   5.126  0.2803 -0.0759 -0.2253
 6537SOL     OW25919   4.955   5.763   4.027  0.3910  0.0717  0.0832
 6537SOL    HW225920   5.050   5.762   4.016  0.3985 -1.2534  0.0633
 6537SOL    HW325921   4.920   5.761   3.938  0.3176  1.5699  0.0593
 6537SOL    MW425922   4.963   5.762   4.014  0.3823  0.0946  0.0774
 6538SOL     OW25923   5.809   5.214   4.614 -0.1218 -0.2938  0.0573
 6538SOL    HW225924   5.875   5.280   4.590  0.2652 -0.5988  0.2671
 6538SOL    HW325925   5.822   5.143   4.551 -1.6289  0.5040 -1.2176
 6538SOL    MW425926   5.819   5.214   4.603 -0.2696 -0.2288 -0.0832
 6539SOL     OW25927   2.373   4.462   6.245  0.3531 -0.3181  0.1794
 6539SOL    HW225928   2.297   4.488   6.193  0.2767 -0.5337  0.1843
 6539SOL    HW325929   2.388   4.536   6.303 -0.5753 -0.7504  1.0030
 6539SOL    MW425930   2.365   4.475   6.246  0.2205 -0.4036  0.2888
 6540SOL     OW25931   3.291   1.657   4.973  0.1567 -0.6902 -0.0559
 6540SOL    HW225932   3.240   1.638   4.894  1.6260 -1.1749 -0.9273
 6540SOL    HW325933   3.299   1.573   5.018  0.5707 -0.7188 -0.1751
 6540SOL    MW425934   3.286   1.644   4.969  0.4052 -0.7579 -0.1866
 6541SOL     OW25935   3.360   1.856   4.124  0.4254 -0.5930 -0.0592
 6541SOL    HW225936   3.270   1.888   4.124  0.6262 -0.0102  0.2375
 6541SOL    HW325937   3.402   1.901   4.198 -0.1031 -3.8841  2.4973
 6541SOL    MW425938   3.354   1.866   4.134  0.3822 -0.9503  0.3172
 6542SOL     OW25939   0.326   1.766   2.065  1.2808 -0.2613  0.0760
 6542SOL    HW225940   0.272   1.728   2.134  1.5458 -0.4946  0.1580
 6542SOL    HW325941   0.275   1.840   2.032  1.0392 -0.3071  0.3450
 6542SOL    MW425942   0.312   1.771   2.069  1.2839 -0.2981  0.1223
 6543SOL     OW25943   0.490   4.846   3.616 -0.2806  0.4127 -0.0626
 6543SOL    HW225944   0.430   4.785   3.658 -1.8144  0.7363 -1.6733
 6543SOL    HW325945   0.516   4.803   3.534  1.2317  0.5425  0.3170
 6543SOL    MW425946   0.486   4.833   3.610 -0.2834  0.4725 -0.2250
 6544SOL     OW25947   0.075   5.411   3.123  0.0386  0.3885 -0.3347
 6544SOL    HW225948   0.124   5.409   3.041 -0.1471  0.1766 -0.4408
 6544SOL    HW325949   0.029   5.495   3.121 -0.3352  0.1780 -0.6647
 6544SOL    MW425950   0.075   5.421   3.112 -0.0352  0.3327 -0.3922
 6545SOL     OW25951   2.596   2.789   2.971  0.5751 -0.2436  0.1059
 6545SOL    HW225952   2.541   2.716   3.000  2.7756 -1.3898  1.6838
 6545SOL    HW325953   2.684   2.752   2.962  1.5407  1.9463 -0.2230
 6545SOL    MW425954   2.600   2.774   2.974  0.9928 -0.1059  0.2707
 6546SOL     OW25955   4.722   0.413   1.716  0.3749  0.0134  0.3718
 6546SOL    HW225956   4.647   0.367   1.677  0.5976 -0.0360 -0.0052
 6546SOL    HW325957   4.734   0.372   1.801  0.1955 -0.2211  0.2860
 6546SOL    MW425958   4.713   0.402   1.722  0.3806 -0.0240  0.3107
 6547SOL     OW25959   6.032   2.859   0.209  0.0783  0.6439  0.0039
 6547SOL    HW225960   5.950   2.814   0.227 -0.3092  0.5087 -1.9628
 6547SOL    HW325961   6.100   2.797   0.237 -0.4399  0.6560  1.3968
 6547SOL    MW425962   6.030   2.845   0.215 -0.0412  0.6276 -0.0718
 6548SOL     OW25963   0.140   1.697   2.288 -0.2394 -0.1972  0.2092
 6548SOL    HW225964   0.135   1.768   2.352 -2.6479 -0.3141  0.2452
 6548SOL    HW325965   0.114   1.619   2.337 -1.2894 -0.4315 -0.6730
 6548SOL    MW425966   0.136   1.696   2.303 -0.6957 -0.2436  0.0976
 6549SOL     OW25967   5.884   3.597   1.827 -0.0995  0.1403 -0.1605
 6549SOL    HW225968   5.925   3.558   1.905 -1.0622 -1.5074 -0.4179
 6549SOL    HW325969   5.928   3.681   1.816  1.3343 -0.3916  1.0961
 6549SOL    MW425970   5.895   3.603   1.836 -0.0373 -0.1472 -0.0287
 6550SOL     OW25971   5.320   3.492   0.882 -0.0430  0.4317 -0.2971
 6550SOL    HW225972   5.383   3.495   0.810  1.5574 -1.0260  0.9682
 6550SOL    HW325973   5.321   3.581   0.917  1.9909  0.2582  0.2177
 6550SOL    MW425974   5.329   3.504   0.877  0.4365  0.2165 -0.0623
 6551SOL     OW25975   3.434   0.383   0.918  0.1404 -0.2908  0.1308
 6551SOL    HW225976   3.367   0.321   0.945 -1.1174  1.6116  1.7492
 6551SOL    HW325977   3.490   0.394   0.996  0.4893  0.3855 -0.1978
 6551SOL    MW425978   3.433   0.376   0.932  0.0205  0.0494  0.3010
 6552SOL     OW25979   4.251   2.245   1.241 -0.1836 -0.2249  0.3267
 6552SOL    HW225980   4.168   2.253   1.289 -0.0782 -0.6716  0.5970
 6552SOL    HW325981   4.312   2.301   1.289 -0.6491  1.1888 -0.6636
 6552SOL    MW425982   4.248   2.253   1.254 -0.2311 -0.0973  0.2317
 6553SOL     OW25983   3.941   3.463   5.210  0.7823  0.0699  0.3455
 6553SOL    HW225984   3.918   3.497   5.297  0.6652  1.5488 -0.2251
 6553SOL    HW325985   4.014   3.403   5.226 -0.9359 -1.7800  1.7462
 6553SOL    MW425986   3.948   3.460   5.224  0.5402  0.0210  0.4550
 6554SOL     OW25987   6.428   2.409   6.110 -0.0944 -0.3910  0.3389
 6554SOL    HW225988   6.490   2.458   6.056 -0.0075 -1.5939 -0.7052
 6554SOL    HW325989   6.419   2.325   6.065 -0.0539 -1.4405  2.1776
 6554SOL    MW425990   6.435   2.404   6.097 -0.0776 -0.6882  0.4438
 6555SOL     OW25991   2.945   0.683   4.176 -0.4586  0.6022  0.2717
 6555SOL    HW225992   2.962   0.589   4.165  0.2062  0.8638 -1.1407
 6555SOL    HW325993   2.981   0.703   4.262  0.0711 -0.2949  0.2788
 6555SOL    MW425994   2.952   0.673   4.186 -0.3010  0.5183  0.0863
 6556SOL     OW25995   3.078   5.077   2.643  0.3461  0.5695  0.6360
 6556SOL    HW225996   3.130   5.075   2.563 -1.6664  2.1350 -0.8207
 6556SOL    HW325997   3.067   4.985   2.667  3.1777  0.1594  0.6839
 6556SOL    MW425998   3.083   5.065   2.636  0.4542  0.7220  0.4501
 6557SOL     OW25999   4.604   3.087   1.827  0.0500 -0.9093  0.1835
 6557SOL    HW226000   4.573   2.998   1.810  0.0145 -1.1138  1.2268
 6557SOL    HW326001   4.579   3.137   1.750 -2.1320 -1.2513  0.6167
 6557SOL    MW426002   4.597   3.082   1.815 -0.2426 -0.9814  0.3783
 6558SOL     OW26003   5.273   1.762   2.307  0.2316 -0.6284  0.1080
 6558SOL    HW226004   5.247   1.742   2.217  3.6245  0.5628 -1.3082
 6558SOL    HW326005   5.198   1.809   2.344 -0.9823 -0.4656 -2.3671
 6558SOL    MW426006   5.260   1.766   2.300  0.5191 -0.4498 -0.4054
 6559SOL     OW26007   3.003   2.378   5.731 -0.3686 -0.2343  0.1923
 6559SOL    HW226008   2.923   2.404   5.686 -0.4278  0.6521  0.7600
 6559SOL    HW326009   3.072   2.432   5.691  0.5021 -2.9090 -2.2013
 6559SOL    MW426010   3.002   2.389   5.720 -0.2616 -0.4703 -0.0486
 6560SOL     OW26011   1.102   2.355   4.770 -0.4662 -0.0877  0.3883
 6560SOL    HW226012   1.044   2.381   4.698 -1.1688 -0.6479  0.7334
 6560SOL    HW326013   1.049   2.368   4.849  0.6214  1.4453  0.9078
 6560SOL    MW426014   1.087   2.360   4.771 -0.4154  0.0406  0.5024
 6561SOL     OW26015   4.644   5.803   5.296  0.1047  0.1221 -0.0879
 6561SOL    HW226016   4.689   5.732   5.341 -0.5506  0.3520  0.9452
 6561SOL    HW326017   4.559   5.766   5.272  0.8108 -0.3390 -2.1085
 6561SOL    MW426018   4.638   5.789   5.299  0.1114  0.0916 -0.2182
 6562SOL     OW26019   0.524   3.045   5.854  0.2767 -0.1384  0.2171
 6562SOL    HW226020   0.547   3.017   5.943  2.2658 -1.6573 -0.6962
 6562SOL    HW326021   0.603   3.087   5.820 -0.9630  1.8993 -0.3480
 6562SOL    MW426022   0.537   3.047   5.861  0.3755 -0.0699  0.0220
 6563SOL     OW26023   1.559   2.509   4.639  0.2407 -0.1377 -0.1864
 6563SOL    HW226024   1.600   2.445   4.697 -0.2319 -0.0942  0.2067
 6563SOL    HW326025   1.594   2.593   4.667 -0.9401  0.0252  0.9075
 6563SOL    MW426026   1.569   2.512   4.650  0.0226 -0.1105  0.0098
 6564SOL     OW26027   6.250   1.603   3.251 -0.4129 -0.2202 -0.3512
 6564SOL    HW226028   6.311   1.606   3.324 -0.1745  0.7751 -0.5727
 6564SOL    HW326029   6.295   1.649   3.180 -1.9384  1.8959 -0.0807
 6564SOL    MW426030   6.264   1.610   3.251 -0.5827  0.1903 -0.3447
 6565SOL     OW26031   3.442   5.936   3.553 -0.0748 -0.0821  0.0312
 6565SOL    HW226032   3.510   5.894   3.604 -0.7506 -0.0114  1.0046
 6565SOL    HW326033   3.361   5.894   3.580 -0.3142 -1.0936 -2.0636
 6565SOL    MW426034   3.440   5.925   3.563 -0.1955 -0.2062 -0.1168
 6566SOL     OW26035   5.017   2.450   6.147  0.3187  0.6029  0.3448
 6566SOL    HW226036   5.112   2.438   6.153  0.1545 -2.0994 -1.0843
 6566SOL    HW326037   4.980   2.375   6.193 -1.0226 -0.5767 -2.4140
 6566SOL    MW426038   5.025   2.439   6.154  0.1201  0.0907 -0.2077
 6567SOL     OW26039   2.476   1.891   2.877 -0.0831 -0.1711  0.4086
 6567SOL    HW226040   2.496   1.813   2.826 -0.3823  1.1110 -1.8036
 6567SOL    HW326041   2.393   1.922   2.842  0.2087  1.3436  0.9786
 6567SOL    MW426042   2.468   1.885   2.866 -0.0841  0.1979  0.1919
 6568SOL     OW26043   0.336   0.736   4.111  0.9843 -0.4323 -0.4283
 6568SOL    HW226044   0.356   0.828   4.094  1.4711 -0.5868 -0.7059
 6568SOL    HW326045   0.241   0.734   4.119  0.8230 -0.1261 -1.9085
 6568SOL    MW426046   0.326   0.748   4.110  1.0272 -0.4123 -0.6602
 6569SOL     OW26047   0.601   2.230   0.894 -0.1737  0.3975  0.0198
 6569SOL    HW226048   0.624   2.250   0.804 -0.5544 -1.3708 -0.5208
 6569SOL    HW326049   0.613   2.135   0.901  0.2334  0.5421  1.9436
 6569SOL    MW426050   0.606   2.220   0.883 -0.1702  0.1833  0.2023
 6570SOL     OW26051   2.645   0.855   0.692  0.9075  0.4419 -0.9872
 6570SOL    HW226052   2.615   0.765   0.706  1.2180  0.2203 -1.6976
 6570SOL    HW326053   2.641   0.866   0.597  2.2268  0.7015 -1.0251
 6570SOL    MW426054   2.640   0.844   0.681  1.1226  0.4469 -1.0859
 6571SOL     OW26055   3.082   2.964   1.979 -0.4186  0.2248  0.5169
 6571SOL    HW226056   3.009   2.952   2.039  1.4429 -1.2655  2.6610
 6571SOL    HW326057   3.092   3.058   1.971 -2.6617  0.4604 -0.0157
 6571SOL    MW426058   3.074   2.975   1.986 -0.4689  0.0593  0.7295
 6572SOL     OW26059   5.068   6.352   0.302  0.1078  0.0886 -0.4631
 6572SOL    HW226060   5.101   6.407   0.373 -2.6108  1.0136  0.1879
 6572SOL    HW326061   5.005   6.294   0.345  1.4013 -2.2020 -1.4955
 6572SOL    MW426062   5.064   6.352   0.317 -0.0802 -0.0916 -0.5134
 6573SOL     OW26063   3.202   2.592   0.943 -0.0554 -0.1419  0.0901
 6573SOL    HW226064   3.213   2.642   1.024  0.1383 -1.4313  0.8772
 6573SOL    HW326065   3.135   2.528   0.962 -2.3278  1.4900 -1.7691
 6573SOL    MW426066   3.195   2.590   0.956 -0.3296 -0.0967 -0.0513
 6574SOL     OW26067   6.222   1.581   1.813 -0.1042 -0.1367  0.2035
 6574SOL    HW226068   6.279   1.504   1.827  2.1801  1.0655 -1.7362
 6574SOL    HW326069   6.238   1.636   1.889  2.4217  0.7278 -0.8481
 6574SOL    MW426070   6.232   1.578   1.825  0.5304  0.1360 -0.1912
 6575SOL     OW26071   6.206   6.250   6.201  0.3828  0.0739  0.7758
 6575SOL    HW226072   6.117   6.267   6.168  0.7499  0.9249  0.1742
 6575SOL    HW326073   6.246   6.337   6.207  0.7386 -0.1834  2.3405
 6575SOL    MW426074   6.200   6.264   6.197  0.4781  0.1522  0.9029
 6576SOL     OW26075   2.619   5.866   0.792  0.0448 -0.0246  0.0803
 6576SOL    HW226076   2.568   5.790   0.821  1.5940 -1.1146  0.0916
 6576SOL    HW326077   2.636   5.848   0.699  1.1385 -0.1169  0.2948
 6576SOL    MW426078   2.614   5.853   0.783  0.3935 -0.1806  0.1101
 6577SOL     OW26079   1.141   2.841   5.213 -0.2933  0.0408  0.2073
 6577SOL    HW226080   1.222   2.891   5.203 -0.5429  0.6803  1.1853
 6577SOL    HW326081   1.135   2.788   5.133  1.4129 -0.5194  0.4141
 6577SOL    MW426082   1.151   2.841   5.201 -0.1011  0.0513  0.3637
 6578SOL     OW26083   6.254   1.303   2.568 -0.2139  0.1310  0.1920
 6578SOL    HW226084   6.245   1.349   2.652  1.3555  1.1581 -0.1796
 6578SOL    HW326085   6.307   1.226   2.589 -0.5718 -0.0888  0.3005
 6578SOL    MW426086   6.260   1.299   2.582 -0.0540  0.2376  0.1573
 6579SOL     OW26087   1.203   3.564   0.203 -0.2694  0.0594 -0.4410
 6579SOL    HW226088   1.116   3.579   0.242 -0.1686 -1.3135  0.3882
 6579SOL    HW326089   1.185   3.511   0.125 -0.2327  0.3136 -0.6202
 6579SOL    MW426090   1.189   3.559   0.198 -0.2513 -0.0882 -0.3552
 6580SOL     OW26091   2.994   5.164   1.217  0.2694  0.0615  0.0944
 6580SOL    HW226092   2.907   5.123   1.217 -0.9033  2.2859 -1.6441
 6580SOL    HW326093   3.034   5.136   1.299 -1.5459 -2.1112  0.3310
 6580SOL    MW426094   2.987   5.155   1.228 -0.1248  0.0683 -0.1037
 6581SOL     OW26095   4.164   1.981   0.880 -0.1003  0.2138  0.2460
 6581SOL    HW226096   4.246   1.994   0.929  0.5358 -3.9074  0.5835
 6581SOL    HW326097   4.177   2.031   0.799  0.8554  3.1497  2.0273
 6581SOL    MW426098   4.177   1.989   0.876  0.1097  0.0574  0.5255
 6582SOL     OW26099   4.653   1.184   0.977 -0.4031 -0.1405  0.1529
 6582SOL    HW226100   4.679   1.092   0.982 -0.8977 -0.2395  1.4109
 6582SOL    HW326101   4.711   1.228   1.040  1.6340  0.9006 -2.3008
 6582SOL    MW426102   4.664   1.178   0.986 -0.1995 -0.0162 -0.0049
 6583SOL     OW26103   1.009   3.358   1.178  0.0326 -0.5460 -0.8849
 6583SOL    HW226104   1.044   3.323   1.096 -2.3054 -0.1529 -2.1415
 6583SOL    HW326105   1.043   3.448   1.182 -0.2382 -0.3956 -1.7192
 6583SOL    MW426106   1.018   3.365   1.167 -0.3116 -0.4743 -1.1608
 6584SOL     OW26107   0.940   5.425   1.440 -0.0555  0.2756  0.3463
 6584SOL    HW226108   0.847   5.403   1.433  0.0681 -0.3846  0.7600
 6584SOL    HW326109   0.942   5.506   1.491 -0.3894  0.1314  0.5917
 6584SOL    MW426110   0.928   5.433   1.446 -0.0833  0.1695  0.4332
 6585SOL     OW26111   2.797   3.626   0.273 -0.1651  0.6265  0.2939
 6585SOL    HW226112   2.761   3.688   0.209  0.5869 -0.2450 -1.0317
 6585SOL    HW326113   2.786   3.540   0.231 -0.1221 -0.0342  1.5815
 6585SOL    MW426114   2.790   3.623   0.259 -0.0602  0.4244  0.2889
 6586SOL     OW26115   5.144   4.349   1.449 -0.1310  0.2579  0.0372
 6586SOL    HW226116   5.150   4.254   1.458  1.0328 -0.1102 -3.3646
 6586SOL    HW326117   5.230   4.380   1.479  0.9114 -0.2060 -2.2716
 6586SOL    MW426118   5.156   4.340   1.454  0.1601  0.1481 -0.7162
 6587SOL     OW26119   4.503   3.524   5.070 -0.1130 -0.5421  0.4040
 6587SOL    HW226120   4.446   3.461   5.114  1.2477 -0.3713  2.5168
 6587SOL    HW326121   4.566   3.470   5.023 -0.2862 -0.7390  0.3942
 6587SOL    MW426122   4.504   3.509   5.070  0.0437 -0.5455  0.6815
 6588SOL     OW26123   2.951   5.625   2.966 -0.3057  0.0973 -0.2034
 6588SOL    HW226124   2.863   5.624   3.003 -0.4571  0.4932 -0.5423
 6588SOL    HW326125   3.008   5.598   3.038 -0.6737  0.1208  0.0973
 6588SOL    MW426126   2.947   5.621   2.980 -0.3743  0.1526 -0.2084
 6589SOL     OW26127   2.586   2.929   1.889 -0.1768 -0.0283 -0.0698
 6589SOL    HW226128   2.590   3.023   1.906 -1.8570  0.3992 -1.6746
 6589SOL    HW326129   2.676   2.904   1.866  0.1059  1.3897 -0.5672
 6589SOL    MW426130   2.598   2.938   1.888 -0.3612  0.2152 -0.3472
 6590SOL     OW26131   5.609   6.036   3.243 -0.8851  0.4913 -0.1184
 6590SOL    HW226132   5.681   6.061   3.300  0.0146 -0.8318 -0.6077
 6590SOL    HW326133   5.538   6.097   3.264 -0.9554 -0.5224  3.0942
 6590SOL    MW426134   5.609   6.047   3.253 -0.7757  0.1830  0.2409
 6591SOL     OW26135   5.098   4.405   6.297 -0.5630  0.1842 -0.6995
 6591SOL    HW226136   5.017   4.456   6.294 -0.1340  0.9611  0.2031
 6591SOL    HW326137   5.157   4.450   6.236  0.2333  1.5974  0.9995
 6591SOL    MW426138   5.095   4.418   6.288 -0.4014  0.4732 -0.3562
 6592SOL     OW26139   4.449   3.386   6.075 -0.2110  0.6020  0.3522
 6592SOL    HW226140   4.438   3.436   6.156  0.6647  0.3319  0.6419
 6592SOL    HW326141   4.514   3.319   6.096 -0.8153 -0.1935 -0.2469
 6592SOL    MW426142   4.456   3.384   6.088 -0.1752  0.4614  0.3114
 6593SOL     OW26143   5.674   4.243   3.881  0.4415  0.3396  0.0905
 6593SOL    HW226144   5.599   4.225   3.824  0.8479  0.0269 -0.3540
 6593SOL    HW326145   5.742   4.275   3.822  1.3938 -1.4631  0.1460
 6593SOL    MW426146   5.673   4.245   3.866  0.6208  0.0605  0.0392
 6594SOL     OW26147   1.523   5.126   1.888 -0.3873  0.6566  0.4751
 6594SOL    HW226148   1.446   5.184   1.880 -0.5939  0.4218  0.7400
 6594SOL    HW326149   1.557   5.144   1.976 -0.7436  0.0218  0.7485
 6594SOL    MW426150   1.517   5.136   1.899 -0.4616  0.5419  0.5461
 6595SOL     OW26151   1.165   5.073   5.088 -0.2694  0.0612 -0.5499
 6595SOL    HW226152   1.143   5.161   5.117  0.1578 -0.4351  1.4723
 6595SOL    HW326153   1.101   5.052   5.021 -0.1580  2.0169 -1.3153
 6595SOL    MW426154   1.154   5.082   5.083 -0.1983  0.2537 -0.3841
 6596SOL     OW26155   6.049   0.362   1.889 -0.8735  0.2446 -0.1934
 6596SOL    HW226156   6.048   0.326   1.977  0.5196 -0.8904 -0.5994
 6596SOL    HW326157   6.000   0.300   1.836  0.3388 -0.3925 -0.6289
 6596SOL    MW426158   6.043   0.349   1.893 -0.5298  0.0108 -0.3044
 6597SOL     OW26159   2.266   3.912   3.774 -0.4993  0.6675 -0.7469
 6597SOL    HW226160   2.324   3.959   3.834  1.2603 -1.7149 -0.4328
 6597SOL    HW326161   2.284   3.950   3.688  0.9872  0.5247 -0.5260
 6597SOL    MW426162   2.276   3.923   3.771 -0.0710  0.3343 -0.6763
 6598SOL     OW26163   0.428   3.991   0.390 -0.1502  0.3432 -0.2730
 6598SOL    HW226164   0.479   3.961   0.314 -1.5939 -0.5483 -0.9319
 6598SOL    HW326165   0.441   4.086   0.391 -0.2878  0.4124 -1.7949
 6598SOL    MW426166   0.437   4.000   0.380 -0.3588  0.2347 -0.5607
 6599SOL     OW26167   5.602   0.388   1.099  0.2690 -0.0898  0.0626
 6599SOL    HW226168   5.650   0.448   1.155  1.6759  0.1402 -1.3045
 6599SOL    HW326169   5.536   0.349   1.156 -0.5582  2.5639  1.0460
 6599SOL    MW426170   5.600   0.391   1.114  0.3455  0.2907  0.0120
 6600SOL     OW26171   4.364   3.868   3.580 -0.7771  0.0897 -0.6132
 6600SOL    HW226172   4.425   3.935   3.612  2.5104 -2.5756 -0.7967
 6600SOL    HW326173   4.341   3.897   3.492 -0.5154  1.5900 -0.2123
 6600SOL    MW426174   4.369   3.881   3.573 -0.3088 -0.0640 -0.5845
 6601SOL     OW26175   3.165   3.099   5.797 -0.0556  0.4015  0.2529
 6601SOL    HW226176   3.146   3.006   5.784  0.2967  0.2046  1.1024
 6601SOL    HW326177   3.146   3.115   5.890 -1.5118  1.5181 -0.1911
 6601SOL    MW426178   3.160   3.089   5.808 -0.2012  0.5228  0.3064
 6602SOL     OW26179   1.218   1.111   3.304 -0.3697 -0.1973 -0.1021
 6602SOL    HW226180   1.175   1.033   3.267  0.8611 -2.3638  2.6581
 6602SOL    HW326181   1.166   1.132   3.381  0.2896  0.6844  0.1172
 6602SOL    MW426182   1.205   1.103   3.309 -0.1203 -0.3668  0.2910
 6603SOL     OW26183   4.263   4.560   3.613  0.3119 -0.0363 -0.1026
 6603SOL    HW226184   4.240   4.500   3.543  1.7812 -1.5796  0.6544
 6603SOL    HW326185   4.186   4.563   3.669  0.0983 -0.9888 -0.3329
 6603SOL    MW426186   4.250   4.553   3.611  0.4775 -0.3656 -0.0331
 6604SOL     OW26187   4.280   1.568   1.473 -0.0958 -0.5503 -0.3299
 6604SOL    HW226188   4.216   1.540   1.408 -0.0298 -1.6466  0.0616
 6604SOL    HW326189   4.357   1.593   1.421 -0.2740 -0.7771 -0.7087
 6604SOL    MW426190   4.282   1.567   1.457 -0.1106 -0.7249 -0.3282
 6605SOL     OW26191   3.956   5.659   0.899  0.0930  0.2701 -0.0950
 6605SOL    HW226192   4.042   5.627   0.927 -0.1842  0.2394  0.7616
 6605SOL    HW326193   3.894   5.612   0.955 -0.6630 -1.4255 -2.2316
 6605SOL    MW426194   3.959   5.649   0.910 -0.0433  0.0423 -0.2639
 6606SOL     OW26195   4.730   3.688   4.563  0.0578 -0.3181 -0.1678
 6606SOL    HW226196   4.781   3.722   4.490  2.5263 -4.4096 -0.6941
 6606SOL    HW326197   4.659   3.639   4.521 -1.8126  1.7336  0.4556
 6606SOL    MW426198   4.727   3.686   4.547  0.1367 -0.5872 -0.1550
 6607SOL     OW26199   2.240   1.256   5.746  0.5331 -0.2114  0.4050
 6607SOL    HW226200   2.332   1.269   5.772  1.2411 -1.9529 -1.0575
 6607SOL    HW326201   2.242   1.256   5.650 -1.1355  0.3712  0.3394
 6607SOL    MW426202   2.252   1.258   5.737  0.4064 -0.3643  0.2034
 6608SOL     OW26203   1.442   4.689   0.251  0.0476 -0.1235 -0.4944
 6608SOL    HW226204   1.530   4.666   0.283  0.3529 -0.0253 -1.2473
 6608SOL    HW326205   1.386   4.682   0.329  0.2639 -2.5597 -0.4537
 6608SOL    MW426206   1.447   4.685   0.266  0.1165 -0.4319 -0.5884
 6609SOL     OW26207   3.131   3.683   1.078  0.0068  0.5933  0.2306
 6609SOL    HW226208   3.050   3.723   1.044 -0.1696 -0.2575 -0.3826
 6609SOL    HW326209   3.130   3.594   1.043  1.1773  0.5461  0.2894
 6609SOL    MW426210   3.120   3.676   1.069  0.1379  0.4748  0.1575
 6610SOL     OW26211   5.026   1.090   1.622  0.4675 -0.3730 -0.0609
 6610SOL    HW226212   5.059   1.001   1.620  0.3972 -0.4127  0.4189
 6610SOL    HW326213   4.975   1.095   1.703  3.3703  1.1273  1.8132
 6610SOL    MW426214   5.023   1.079   1.632  0.8412 -0.1803  0.2497
 6611SOL     OW26215   1.612   3.800   3.721  0.2941 -0.5274 -0.2159
 6611SOL    HW226216   1.651   3.819   3.635  3.8757  0.8198  1.5417
 6611SOL    HW326217   1.628   3.879   3.773  0.1730 -2.0890  2.3498
 6611SOL    MW426218   1.619   3.813   3.716  0.7507 -0.5557  0.3545
 6612SOL     OW26219   3.949   1.854   5.294 -0.0969 -0.4341 -0.0625
 6612SOL    HW226220   4.025   1.813   5.335 -0.5931 -0.6076  0.7054
 6612SOL    HW326221   3.874   1.809   5.333 -0.6056  0.0321 -0.4886
 6612SOL    MW426222   3.949   1.842   5.305 -0.2295 -0.3955 -0.0174
 6613SOL     OW26223   3.023   1.976   0.881 -0.6144 -0.3317 -0.2409
 6613SOL    HW226224   2.988   2.029   0.809  0.8220 -0.0590 -0.7810
 6613SOL    HW326225   3.016   1.886   0.850 -3.0523 -0.5257  0.6735
 6613SOL    MW426226   3.017   1.971   0.868 -0.7466 -0.3213 -0.1915
 6614SOL     OW26227   5.557   2.204   0.415  0.3761  0.8263  0.3138
 6614SOL    HW226228   5.504   2.270   0.460  1.1178  1.6233  0.0496
 6614SOL    HW326229   5.635   2.194   0.470  0.7885  1.0175 -0.2228
 6614SOL    MW426230   5.560   2.212   0.428  0.5283  0.9567  0.2081
 6615SOL     OW26231   1.828   2.252   3.991 -0.2530  0.2955 -0.3174
 6615SOL    HW226232   1.802   2.309   4.063 -0.9634 -0.1907 -0.1743
 6615SOL    HW326233   1.768   2.177   3.998  0.3907 -0.2691 -0.7442
 6615SOL    MW426234   1.816   2.249   4.002 -0.2618  0.1569 -0.3548
 6616SOL     OW26235   5.522   3.703   3.054 -0.1456  0.4772 -0.4357
 6616SOL    HW226236   5.473   3.769   3.103 -0.4349 -0.1693  0.1575
 6616SOL    HW326237   5.605   3.695   3.101  0.9145  2.1341 -1.8757
 6616SOL    MW426238   5.527   3.711   3.067 -0.0439  0.6105 -0.5474
 6617SOL     OW26239   5.330   1.021   2.747 -0.0056  0.5921 -0.1572
 6617SOL    HW226240   5.393   1.089   2.772 -0.3242  0.7010  0.3840
 6617SOL    HW326241   5.282   1.058   2.673 -0.0202  0.8708 -0.0112
 6617SOL    MW426242   5.332   1.035   2.741 -0.0496  0.6432 -0.0665
 6618SOL     OW26243   1.688   2.982   0.241 -0.2608  0.3210  0.4344
 6618SOL    HW226244   1.724   2.895   0.258 -0.7012 -0.4098 -2.0179
 6618SOL    HW326245   1.641   3.004   0.322  3.1008  0.0980  2.6933
 6618SOL    MW426246   1.686   2.974   0.254  0.1246  0.1952  0.4089
 6619SOL     OW26247   4.602   2.524   3.232  0.0789 -0.4228 -0.2203
 6619SOL    HW226248   4.557   2.454   3.185 -0.7570 -0.4465  0.5854
 6619SOL    HW326249   4.602   2.598   3.171 -2.4422  0.0697  0.2604
 6619SOL    MW426250   4.596   2.525   3.218 -0.3640 -0.3609 -0.0505
 6620SOL     OW26251   6.329   4.390   2.463  0.3418 -0.0115 -0.2307
 6620SOL    HW226252   6.257   4.430   2.513  0.8404 -1.3901  1.7329
 6620SOL    HW326253   6.408   4.417   2.509  0.8944 -0.6784 -0.7631
 6620SOL    MW426254   6.330   4.399   2.476  0.4805 -0.2813 -0.0419
 6621SOL     OW26255   5.128   1.682   0.468  0.1477 -0.0999  0.0408
 6621SOL    HW226256   5.183   1.688   0.389 -1.5066  1.2107 -1.0853
 6621SOL    HW326257   5.154   1.759   0.520 -0.5326  0.4849 -0.4622
 6621SOL    MW426258   5.139   1.693   0.464 -0.1603  0.1501 -0.1742
 6622SOL     OW26259   0.311   3.910   2.398 -0.5262  0.1699  0.1483
 6622SOL    HW226260   0.407   3.907   2.390 -0.5758  1.5759 -1.8168
 6622SOL    HW326261   0.294   3.885   2.489  1.7745  0.7310  0.8198
 6622SOL    MW426262   0.321   3.907   2.409 -0.2292  0.4294 -0.0224
 6623SOL     OW26263   4.364   6.260   2.655  0.3115  0.9507 -0.1004
 6623SOL    HW226264   4.307   6.336   2.643 -0.3494  1.0453  2.8908
 6623SOL    HW326265   4.443   6.295   2.695  0.3703  0.1847  0.4743
 6623SOL    MW426266   4.367   6.275   2.659  0.2320  0.8621  0.3701
 6624SOL     OW26267   1.703   2.158   1.286 -0.0454  0.6897  0.1278
 6624SOL    HW226268   1.660   2.206   1.215  1.9662  0.8815 -1.0392
 6624SOL    HW326269   1.796   2.181   1.277  0.5509 -1.0424  1.4444
 6624SOL    MW426270   1.710   2.167   1.275  0.2987  0.4865  0.1476
 6625SOL     OW26271   3.602   5.579   4.513  0.1871  0.0789 -0.2917
 6625SOL    HW226272   3.696   5.572   4.529  0.1118  2.0796  1.5308
 6625SOL    HW326273   3.595   5.637   4.437  0.4644  2.1608  1.1988
 6625SOL    MW426274   3.614   5.586   4.505  0.2137  0.6176  0.1454
 6626SOL     OW26275   4.113   2.383   5.106  0.1399  0.1386 -0.2965
 6626SOL    HW226276   4.153   2.383   5.019  0.6233  0.2172 -0.0779
 6626SOL    HW326277   4.171   2.328   5.159 -0.7233 -0.7643 -0.2813
 6626SOL    MW426278   4.126   2.376   5.101  0.0898  0.0298 -0.2657
 6627SOL     OW26279   4.186   5.112   6.210  0.5804  0.0614 -0.1113
 6627SOL    HW226280   4.247   5.096   6.139  0.5629 -0.0452 -0.1024
 6627SOL    HW326281   4.101   5.122   6.168  0.5442 -0.1605 -0.0921
 6627SOL    MW426282   4.183   5.112   6.195  0.5733  0.0180 -0.1076
 6628SOL     OW26283   0.379   0.412   3.696  0.5023  0.7382  0.1450
 6628SOL    HW226284   0.339   0.396   3.611 -2.0348 -1.8113  1.6332
 6628SOL    HW326285   0.341   0.494   3.725  0.2960  0.9138 -0.6001
 6628SOL    MW426286   0.368   0.420   3.689  0.1404  0.4250  0.2430
 6629SOL     OW26287   1.495   0.798   4.640  0.2040  0.1791 -0.0968
 6629SOL    HW226288   1.512   0.891   4.623 -1.1396  0.3681 -0.5184
 6629SOL    HW326289   1.532   0.783   4.727 -0.5267  1.4003  0.4612
 6629SOL    MW426290   1.502   0.808   4.649 -0.0696  0.3652 -0.0788
 6630SOL     OW26291   5.396   5.755   5.485  0.2147  0.0355 -0.2753
 6630SOL    HW226292   5.450   5.754   5.565  1.4560 -1.1289 -1.1002
 6630SOL    HW326293   5.415   5.839   5.445  0.1194  0.3306  0.2755
 6630SOL    MW426294   5.405   5.766   5.491  0.3659 -0.0792 -0.3115
 6631SOL     OW26295   4.786   1.972   2.064  0.0172 -0.1776  1.2897
 6631SOL    HW226296   4.720   2.007   2.004  1.5349  1.5534  0.5506
 6631SOL    HW326297   4.737   1.914   2.122 -1.9689  0.2521  0.1278
 6631SOL    MW426298   4.771   1.969   2.063 -0.0446  0.1075  1.0389
 6632SOL     OW26299   3.279   2.010   5.469 -0.2593  0.2055  0.0334
 6632SOL    HW226300   3.365   2.024   5.430  0.1585  0.6670  1.0710
 6632SOL    HW326301   3.231   2.090   5.448 -0.5484 -0.1827 -0.8117
 6632SOL    MW426302   3.284   2.022   5.461 -0.2423  0.2152  0.0588
 6633SOL     OW26303   5.740   2.866   6.410 -0.2897 -0.3808 -0.2720
 6633SOL    HW226304   5.736   2.829   6.499 -3.1522 -0.2847 -0.2729
 6633SOL    HW326305   5.822   2.915   6.408  0.4677 -1.4355  1.8829
 6633SOL    MW426306   5.750   2.867   6.422 -0.5674 -0.5073  0.0122
 6634SOL     OW26307   1.535   2.921   3.088 -0.6958 -0.5156  0.1282
 6634SOL    HW226308   1.589   2.842   3.084  0.6907  0.3707  0.5960
 6634SOL    HW326309   1.563   2.973   3.013 -0.7175  0.0689  0.5213
 6634SOL    MW426310   1.546   2.917   3.077 -0.5158 -0.3216  0.2418
 6635SOL     OW26311   5.012   2.414   1.878  0.5430 -0.5289 -0.3731
 6635SOL    HW226312   4.917   2.409   1.865  0.3265 -2.3339  1.3978
 6635SOL    HW326313   5.043   2.326   1.856  1.8938  0.1426 -1.2859
 6635SOL    MW426314   5.004   2.402   1.873  0.6926 -0.6785 -0.2599
 6636SOL     OW26315   2.995   5.148   2.097  0.8996 -0.4110 -0.2603
 6636SOL    HW226316   2.977   5.239   2.074 -0.0335 -0.9340 -1.7805
 6636SOL    HW326317   2.946   5.132   2.177 -1.9248 -0.5261 -1.8932
 6636SOL    MW426318   2.987   5.158   2.104  0.4039 -0.4952 -0.6763
 6637SOL     OW26319   5.658   2.796   3.157 -0.3053 -0.0601 -0.0013
 6637SOL    HW226320   5.692   2.708   3.172 -0.3786 -0.0174  0.4425
 6637SOL    HW326321   5.688   2.820   3.070 -1.0700 -0.8957 -0.5147
 6637SOL    MW426322   5.666   2.788   3.147 -0.4158 -0.1647 -0.0105
 6638SOL     OW26323   1.515   1.446   3.361  0.2396  0.1383 -0.0127
 6638SOL    HW226324   1.520   1.352   3.382  2.3672  0.3775  0.8722
 6638SOL    HW326325   1.538   1.451   3.268  0.3060 -0.2200 -0.0171
 6638SOL    MW426326   1.519   1.434   3.352  0.5290  0.1226  0.1035
 6639SOL     OW26327   4.444   3.396   4.786 -0.3405  0.0321  0.2279
 6639SOL    HW226328   4.526   3.397   4.835 -0.2130  2.2839  0.0770
 6639SOL    HW326329   4.424   3.488   4.771 -1.3887 -0.5122 -2.2703
 6639SOL    MW426330   4.452   3.408   4.791 -0.4620  0.2574 -0.1217
 6640SOL     OW26331   2.785   4.042   0.464 -0.1655 -0.5935 -0.5492
 6640SOL    HW226332   2.793   4.050   0.369 -0.9984 -1.0063 -0.6674
 6640SOL    HW326333   2.867   4.076   0.499 -0.4768  1.0569 -1.3321
 6640SOL    MW426334   2.797   4.047   0.456 -0.3165 -0.4303 -0.6681
 6641SOL     OW26335   5.399   3.225   2.250  0.2864  0.0789  0.1468
 6641SOL    HW226336   5.368   3.134   2.257  1.7255 -0.6378 -1.8698
 6641SOL    HW326337   5.408   3.254   2.341 -2.2091 -1.0417  0.8173
 6641SOL    MW426338   5.396   3.217   2.263  0.1470 -0.1635 -0.0308
 6642SOL     OW26339   0.357   2.188   1.159 -0.2430  0.5217  0.0378
 6642SOL    HW226340   0.292   2.204   1.090 -0.8690  0.7941  0.6811
 6642SOL    HW326341   0.359   2.093   1.167 -1.0217  0.5336  0.4398
 6642SOL    MW426342   0.349   2.177   1.151 -0.4283  0.5592  0.1757
 6643SOL     OW26343   3.002   5.157   1.572 -0.3492 -0.1650 -0.0046
 6643SOL    HW226344   3.044   5.194   1.650 -0.1523  0.6952 -0.5055
 6643SOL    HW326345   3.074   5.118   1.522 -0.1074  1.2409 -0.8247
 6643SOL    MW426346   3.017   5.157   1.576 -0.2913  0.1340 -0.1789
 6644SOL     OW26347   4.407   0.862   5.221  0.1751 -0.0424 -0.2454
 6644SOL    HW226348   4.332   0.852   5.162  0.2893  0.5031 -0.4878
 6644SOL    HW326349   4.429   0.773   5.247  0.5419 -0.3482 -1.5392
 6644SOL    MW426350   4.400   0.849   5.217  0.2386 -0.0108 -0.4481
 6645SOL     OW26351   6.168   6.344   3.432 -0.3645 -0.3952 -0.2027
 6645SOL    HW226352   6.212   6.429   3.433 -0.6582 -0.2363  0.6211
 6645SOL    HW326353   6.202   6.299   3.355 -2.0073  1.4225 -2.1305
 6645SOL    MW426354   6.178   6.350   3.422 -0.6200 -0.1344 -0.3484
 6646SOL     OW26355   4.475   5.905   0.661 -0.3738 -0.1876  0.1194
 6646SOL    HW226356   4.509   5.816   0.645  1.3148  0.4346  0.0069
 6646SOL    HW326357   4.418   5.895   0.737  0.5489 -1.2288  0.7164
 6646SOL    MW426358   4.472   5.892   0.669 -0.0293 -0.2429  0.1833
 6647SOL     OW26359   1.821   3.228   1.741 -0.2382  0.4623 -0.1465
 6647SOL    HW226360   1.828   3.320   1.764 -0.8043  0.6624 -0.7232
 6647SOL    HW326361   1.742   3.223   1.687 -1.0863 -0.6272  1.1573
 6647SOL    MW426362   1.812   3.239   1.737 -0.4248  0.3449 -0.0506
 6648SOL     OW26363   6.336   1.639   4.013 -0.7825  0.0376 -0.1241
 6648SOL    HW226364   6.259   1.593   4.044 -0.2293 -0.6763  0.2140
 6648SOL    HW326365   6.387   1.573   3.966 -0.8695  0.7417 -1.2526
 6648SOL    MW426366   6.333   1.624   4.011 -0.7210  0.0363 -0.2284
 6649SOL     OW26367   4.492   4.325   5.300 -0.2238 -0.3290  0.6391
 6649SOL    HW226368   4.411   4.290   5.262  0.0267 -0.6348  0.3719
 6649SOL    HW326369   4.530   4.251   5.348  1.0103 -0.8795 -1.0681
 6649SOL    MW426370   4.487   4.311   5.301 -0.0279 -0.4420  0.3786
 6650SOL     OW26371   0.380   0.396   4.306  0.3577  0.7809 -0.1345
 6650SOL    HW226372   0.365   0.472   4.363 -0.1094  0.4126  0.2374
 6650SOL    HW326373   0.472   0.405   4.280  0.3814  1.3388  0.1077
 6650SOL    MW426374   0.390   0.408   4.310  0.2992  0.8059 -0.0535
 6651SOL     OW26375   1.532   5.151   5.176  0.0826 -0.0791 -0.8206
 6651SOL    HW226376   1.504   5.243   5.180 -1.7554 -0.6226  1.6643
 6651SOL    HW326377   1.493   5.118   5.096 -1.8315  0.6353 -0.2528
 6651SOL    MW426378   1.523   5.159   5.166 -0.4124 -0.0565 -0.4178
 6652SOL     OW26379   0.930   2.634   2.148  0.2417  0.1704  0.1519
 6652SOL    HW226380   0.868   2.668   2.083  0.6920  1.0496  0.1744
 6652SOL    HW326381   1.005   2.604   2.096  0.1146 -0.2033  0.1811
 6652SOL    MW426382   0.932   2.634   2.132  0.2844  0.2371  0.1587
 6653SOL     OW26383   4.302   3.611   5.638  0.5532  0.1066 -0.1000
 6653SOL    HW226384   4.390   3.578   5.620  0.3123 -1.3865  1.2089
 6653SOL    HW326385   4.243   3.543   5.606 -0.1738  1.3031 -1.3946
 6653SOL    MW426386   4.306   3.597   5.632  0.4255  0.0674 -0.0981
 6654SOL     OW26387   3.972   3.660   1.721  0.1492 -0.4355  0.9204
 6654SOL    HW226388   3.908   3.645   1.651  0.0496 -0.3541  0.9925
 6654SOL    HW326389   4.032   3.726   1.687  0.9558 -1.4368  0.3649
 6654SOL    MW426390   3.971   3.666   1.707  0.2424 -0.5568  0.8566
 6655SOL     OW26391   0.202   2.907   3.400  0.3430 -0.5661 -0.2591
 6655SOL    HW226392   0.186   2.917   3.306  0.6112 -0.7355 -0.3231
 6655SOL    HW326393   0.223   2.814   3.412 -1.2286 -0.9042  0.2011
 6655SOL    MW426394   0.202   2.896   3.389  0.1710 -0.6331 -0.2069
 6656SOL     OW26395   3.347   3.862   4.147  0.4933  0.6653 -0.5147
 6656SOL    HW226396   3.383   3.773   4.142  2.1552  1.1928  1.1240
 6656SOL    HW326397   3.373   3.894   4.233 -1.0548  2.3596 -0.6165
 6656SOL    MW426398   3.355   3.854   4.157  0.5083  0.9585 -0.3119
 6657SOL     OW26399   5.523   2.073   4.589  0.3662 -0.1302 -0.2828
 6657SOL    HW226400   5.528   2.007   4.520 -0.0172 -0.3860 -0.0724
 6657SOL    HW326401   5.482   2.027   4.663  0.9290  0.0913  0.1731
 6657SOL    MW426402   5.518   2.058   4.590  0.3899 -0.1347 -0.1949
 6658SOL     OW26403   3.674   4.006   4.254  0.1569  0.1006 -0.2299
 6658SOL    HW226404   3.743   4.058   4.214 -0.1394  0.6092 -0.0875
 6658SOL    HW326405   3.593   4.052   4.233 -0.2231 -0.9097 -1.0511
 6658SOL    MW426406   3.673   4.019   4.246  0.0677  0.0344 -0.3195
 6659SOL     OW26407   2.532   3.417   0.532 -0.2580 -0.0835  0.1011
 6659SOL    HW226408   2.480   3.460   0.464  0.9002  1.0223 -0.1335
 6659SOL    HW326409   2.552   3.487   0.594  0.7970 -0.5153  0.2692
 6659SOL    MW426410   2.528   3.432   0.531  0.0340  0.0055  0.0923
 6660SOL     OW26411   2.928   4.215   2.014  0.9324 -0.1818 -0.1134
 6660SOL    HW226412   2.847   4.262   2.034  0.0249 -1.5415 -0.3847
 6660SOL    HW326413   2.961   4.257   1.935 -0.1999 -0.3636 -0.7217
 6660SOL    MW426414   2.921   4.226   2.006  0.6633 -0.3852 -0.2294
 6661SOL     OW26415   3.336   4.288   1.242  0.0373 -0.3908 -0.1356
 6661SOL    HW226416   3.304   4.334   1.164 -1.1381  0.3215  0.7281
 6661SOL    HW326417   3.353   4.358   1.305 -2.4281 -1.0704  1.4469
 6661SOL    MW426418   3.334   4.304   1.240 -0.4431 -0.3865  0.1872
 6662SOL     OW26419   2.961   1.803   4.747 -0.3505 -0.0280  0.1240
 6662SOL    HW226420   2.907   1.869   4.704 -0.5359 -0.9290 -1.0597
 6662SOL    HW326421   2.905   1.726   4.751  0.5049 -0.6717 -0.1978
 6662SOL    MW426422   2.947   1.802   4.742 -0.2621 -0.2318 -0.0747
 6663SOL     OW26423   3.059   3.425   4.304 -0.0791  0.1189 -0.2162
 6663SOL    HW226424   3.151   3.450   4.299  0.0169 -0.3575 -1.0766
 6663SOL    HW326425   3.050   3.355   4.240 -0.6593 -1.0537  1.1097
 6663SOL    MW426426   3.070   3.419   4.295 -0.1430 -0.0987 -0.1548
 6664SOL     OW26427   1.433   4.277   4.307 -0.0333 -0.3477 -0.3198
 6664SOL    HW226428   1.421   4.192   4.350  1.2202  0.3501  1.5366
 6664SOL    HW326429   1.392   4.340   4.367  0.1199  0.4957 -1.0710
 6664SOL    MW426430   1.426   4.274   4.321  0.1523 -0.1444 -0.1740
 6665SOL     OW26431   0.505   0.722   4.671 -0.0267  0.1808  0.0879
 6665SOL    HW226432   0.446   0.647   4.668  0.9042 -0.5571 -0.6717
 6665SOL    HW326433   0.473   0.775   4.744  0.0131 -1.5547  1.4387
 6665SOL    MW426434   0.493   0.719   4.680  0.1014 -0.1456  0.1659
 6666SOL     OW26435   1.810   6.086   3.407 -0.4459  0.2091  0.0511
 6666SOL    HW226436   1.835   6.083   3.314  0.1227  0.7749  0.1795
 6666SOL    HW326437   1.865   6.155   3.444  0.2657 -0.8741  1.0811
 6666SOL    MW426438   1.821   6.095   3.399 -0.2770  0.1408  0.2040
 6667SOL     OW26439   2.368   1.368   3.452 -0.1491  0.3413  0.1438
 6667SOL    HW226440   2.440   1.397   3.508 -0.4930 -0.3293  0.9489
 6667SOL    HW326441   2.338   1.448   3.408 -0.6962  1.1382  1.8842
 6667SOL    MW426442   2.373   1.383   3.453 -0.2667  0.3580  0.4797
 6668SOL     OW26443   1.117   4.716   1.108  0.0452  0.2291 -0.2998
 6668SOL    HW226444   1.112   4.741   1.016 -1.0740  0.2419 -0.2467
 6668SOL    HW326445   1.056   4.775   1.153  0.9558  0.5701  0.5364
 6668SOL    MW426446   1.109   4.727   1.102  0.0177  0.2758 -0.1824
 6669SOL     OW26447   5.773   3.474   5.141  0.6035  0.4991 -0.0898
 6669SOL    HW226448   5.807   3.552   5.184  0.7955  0.1394  0.4175
 6669SOL    HW326449   5.788   3.403   5.204  0.5872  0.0238 -0.6157
 6669SOL    MW426450   5.779   3.475   5.155  0.6267  0.3889 -0.0923
 6670SOL     OW26451   0.722   6.141   5.898 -0.0738  0.0850  0.2288
 6670SOL    HW226452   0.663   6.068   5.914  0.0931  0.1015  0.9456
 6670SOL    HW326453   0.805   6.101   5.875 -0.6081  0.0587 -1.8150
 6670SOL    MW426454   0.725   6.126   5.897 -0.1222  0.0837  0.0537
 6671SOL     OW26455   1.036   6.425   5.222  0.5922 -0.0189 -0.6248
 6671SOL    HW226456   1.111   6.424   5.162  1.0982  1.2140 -0.0467
 6671SOL    HW326457   1.071   6.389   5.304  0.1078 -0.9662 -0.8206
 6671SOL    MW426458   1.050   6.420   5.225  0.5951  0.0188 -0.5743
 6672SOL     OW26459   5.921   2.235   6.053  0.1297  0.0685  0.3589
 6672SOL    HW226460   5.972   2.224   6.134 -0.4671 -1.9674  0.5123
 6672SOL    HW326461   5.830   2.240   6.083 -0.0067  0.5294 -0.1217
 6672SOL    MW426462   5.916   2.234   6.068  0.0330 -0.1393  0.3157
 6673SOL     OW26463   6.146   3.088   4.212 -0.5886  0.4010 -0.2413
 6673SOL    HW226464   6.069   3.133   4.179 -1.2850  0.8640  1.8661
 6673SOL    HW326465   6.196   3.156   4.257  0.1519 -0.2401 -0.0717
 6673SOL    MW426466   6.143   3.103   4.213 -0.5828  0.3775  0.0591
 6674SOL     OW26467   3.414   6.245   2.824 -0.1761 -0.1120  0.1152
 6674SOL    HW226468   3.476   6.276   2.890  0.4663 -0.1473 -0.4623
 6674SOL    HW326469   3.353   6.318   2.813  0.9530  0.7445 -0.7756
 6674SOL    MW426470   3.414   6.259   2.831  0.0576 -0.0036 -0.0785
 6675SOL     OW26471   1.709   5.057   1.395  0.0815  0.2714 -0.0937
 6675SOL    HW226472   1.717   5.150   1.376 -0.9936  0.0876 -1.5650
 6675SOL    HW326473   1.622   5.033   1.363  0.7215 -1.4473 -0.6519
 6675SOL    MW426474   1.698   5.066   1.389  0.0241  0.0204 -0.3615
 6676SOL     OW26475   5.968   5.348   6.395 -0.0094  0.2872 -1.1526
 6676SOL    HW226476   6.004   5.430   6.362  0.9410 -0.4667 -2.0692
 6676SOL    HW326477   5.894   5.330   6.337  1.2514 -0.6958 -2.5267
 6676SOL    MW426478   5.963   5.357   6.383  0.2823  0.0580 -1.4548
 6677SOL     OW26479   1.725   3.202   2.416 -0.2259  0.4271  0.2178
 6677SOL    HW226480   1.781   3.129   2.390 -2.9410 -1.6924 -0.1204
 6677SOL    HW326481   1.651   3.200   2.355 -2.2090  1.1124  2.4050
 6677SOL    MW426482   1.722   3.193   2.405 -0.8458  0.2379  0.4617
 6678SOL     OW26483   1.973   0.105   0.249 -0.1303 -0.6736  0.5260
 6678SOL    HW226484   2.027   0.033   0.282  0.3103 -0.5413  0.0971
 6678SOL    HW326485   1.933   0.143   0.327  0.1612 -0.9581  0.8157
 6678SOL    MW426486   1.975   0.100   0.264 -0.0337 -0.6937  0.5077
 6679SOL     OW26487   2.402   0.205   0.065 -0.0832 -0.2613 -0.5991
 6679SOL    HW226488   2.452   0.187  -0.015 -1.2788 -1.1235 -1.2011
 6679SOL    HW326489   2.334   0.266   0.037 -0.1158 -0.0672 -0.0938
 6679SOL    MW426490   2.400   0.210   0.051 -0.2453 -0.3494 -0.6118
 6680SOL     OW26491   0.227   4.890   3.432 -0.0249  0.1379 -0.3871
 6680SOL    HW226492   0.272   4.824   3.379  2.3955  0.3426  1.2313
 6680SOL    HW326493   0.290   4.963   3.436 -1.0418  0.9783  0.9795
 6680SOL    MW426494   0.241   4.891   3.425  0.1603  0.2758  0.0067
 6681SOL     OW26495   3.596   3.685   3.294 -0.6399  0.4751  0.0414
 6681SOL    HW226496   3.691   3.697   3.300 -0.4862 -0.5366 -0.1929
 6681SOL    HW326497   3.581   3.665   3.201 -1.3381  2.6445 -0.3542
 6681SOL    MW426498   3.607   3.684   3.282 -0.7117  0.6279 -0.0417
 6682SOL     OW26499   6.234   5.057   5.114  0.0833 -0.1496  0.2117
 6682SOL    HW226500   6.159   5.103   5.153 -0.5168 -1.5757  0.8273
 6682SOL    HW326501   6.202   5.028   5.029  1.1334  2.2610 -1.1139
 6682SOL    MW426502   6.220   5.059   5.108  0.1426 -0.0197  0.1180
 6683SOL     OW26503   3.635   3.983   3.827 -0.1115  0.2004 -0.3655
 6683SOL    HW226504   3.689   3.958   3.752  0.7183 -0.2228  0.3438
 6683SOL    HW326505   3.680   3.944   3.902 -2.8330 -2.4743  0.0562
 6683SOL    MW426506   3.648   3.975   3.827 -0.3611 -0.2084 -0.2162
 6684SOL     OW26507   5.736   3.453   2.464 -0.3263  0.2673 -0.1862
 6684SOL    HW226508   5.770   3.366   2.486  0.6176 -0.0550 -2.5940
 6684SOL    HW326509   5.812   3.511   2.471 -0.3613  0.4223 -0.9910
 6684SOL    MW426510   5.751   3.449   2.468 -0.2064  0.2452 -0.6100
 6685SOL     OW26511   6.003   4.116   0.392  0.2787 -0.1577 -0.1888
 6685SOL    HW226512   6.063   4.049   0.359  1.3729 -0.5413  2.3315
 6685SOL    HW326513   5.954   4.073   0.462 -0.6179  1.0567 -0.0343
 6685SOL    MW426514   6.005   4.102   0.397  0.3048 -0.0481  0.1641
 6686SOL     OW26515   4.218   1.957   1.271 -0.3543  0.1403 -0.0239
 6686SOL    HW226516   4.223   2.052   1.273 -1.5200  0.2472 -0.8043
 6686SOL    HW326517   4.301   1.929   1.231  0.3373  0.7595  0.9468
 6686SOL    MW426518   4.230   1.966   1.266 -0.4168  0.2361  0.0012
 6687SOL     OW26519   3.665   1.778   2.982 -0.0163  0.1155 -0.1756
 6687SOL    HW226520   3.746   1.810   2.942 -1.4609  0.8692 -2.7830
 6687SOL    HW326521   3.656   1.828   3.063  1.9758  0.1897  0.0322
 6687SOL    MW426522   3.674   1.789   2.987  0.0560  0.2247 -0.4922
 6688SOL     OW26523   3.330   2.530   6.301 -0.3359 -0.0489 -0.1462
 6688SOL    HW226524   3.322   2.526   6.205  1.7446  0.5673 -0.4092
 6688SOL    HW326525   3.299   2.617   6.324 -1.3541 -0.3942 -0.1808
 6688SOL    MW426526   3.325   2.541   6.291 -0.1957 -0.0132 -0.1855
 6689SOL     OW26527   4.322   4.679   1.327 -0.0973  0.1416 -0.8239
 6689SOL    HW226528   4.244   4.734   1.329 -0.4094 -0.3001 -0.4478
 6689SOL    HW326529   4.290   4.594   1.297  0.3157  0.0719 -1.0701
 6689SOL    MW426530   4.308   4.675   1.323 -0.0840  0.0741 -0.8067
 6690SOL     OW26531   4.215   5.007   3.691 -0.0896  1.0551  0.2876
 6690SOL    HW226532   4.151   5.015   3.762 -0.3393  1.4323  0.0213
 6690SOL    HW326533   4.179   5.060   3.620 -0.1844  0.1150 -0.3784
 6690SOL    MW426534   4.202   5.015   3.691 -0.1351  0.9808  0.1646
 6691SOL     OW26535   2.797   1.132   0.241  0.3403 -0.1014  0.2735
 6691SOL    HW226536   2.848   1.134   0.160 -0.4395 -1.3547 -0.2828
 6691SOL    HW326537   2.759   1.220   0.248 -2.6234 -0.9221 -2.7697
 6691SOL    MW426538   2.799   1.144   0.231 -0.1536 -0.3750 -0.2014
 6692SOL     OW26539   3.736   1.138   2.176  0.6493  0.4111  0.6522
 6692SOL    HW226540   3.831   1.141   2.167  0.6917 -1.1216  0.3475
 6692SOL    HW326541   3.717   1.051   2.209 -0.7168  0.2963 -0.3075
 6692SOL    MW426542   3.746   1.127   2.179  0.4747  0.1938  0.4854
 6693SOL     OW26543   5.249   1.912   0.628 -0.5284  0.1330  0.5142
 6693SOL    HW226544   5.203   1.985   0.668 -0.6391  0.2309  0.2146
 6693SOL    HW326545   5.289   1.950   0.549  1.5853  0.5020  1.6807
 6693SOL    MW426546   5.249   1.927   0.623 -0.2641  0.1946  0.6286
 6694SOL     OW26547   5.413   1.546   6.049  0.5868  0.1376  0.2680
 6694SOL    HW226548   5.369   1.617   6.002  1.3920 -0.0052 -0.7344
 6694SOL    HW326549   5.501   1.543   6.011  1.1681 -0.1934  1.5853
 6694SOL    MW426550   5.419   1.555   6.038  0.7697  0.0751  0.3096
 6695SOL     OW26551   0.682   6.275   1.887 -0.7506 -0.0139 -0.0502
 6695SOL    HW226552   0.684   6.220   1.965  0.8507  2.7786  2.0887
 6695SOL    HW326553   0.766   6.258   1.843  0.0136  1.0687  0.9406
 6695SOL    MW426554   0.693   6.266   1.891 -0.4385  0.4974  0.3627
 6696SOL     OW26555   4.631   0.216   4.543 -0.1141  0.3448 -0.0831
 6696SOL    HW226556   4.574   0.268   4.599 -0.2260  2.0139 -1.6374
 6696SOL    HW326557   4.571   0.168   4.485  0.0098  0.7304 -0.5425
 6696SOL    MW426558   4.615   0.217   4.542 -0.1125  0.6159 -0.3488
 6697SOL     OW26559   2.611   6.414   3.145  0.6908 -0.2353 -0.1669
 6697SOL    HW226560   2.567   6.346   3.094 -0.8948  0.3760  0.3182
 6697SOL    HW326561   2.607   6.492   3.088  0.3719  0.0381  0.2249
 6697SOL    MW426562   2.604   6.416   3.131  0.4395 -0.1186 -0.0512
 6698SOL     OW26563   3.307   3.413   4.903 -0.0366  0.0284  1.0284
 6698SOL    HW226564   3.400   3.394   4.891 -0.6357 -2.2879 -0.5870
 6698SOL    HW326565   3.290   3.488   4.846  0.6485 -0.1957  0.5236
 6698SOL    MW426566   3.317   3.421   4.894 -0.0252 -0.3068  0.7486
 6699SOL     OW26567   5.492   3.156   4.351 -0.3015 -0.4216  0.5199
 6699SOL    HW226568   5.573   3.181   4.306 -0.0196 -0.2796  1.0891
 6699SOL    HW326569   5.490   3.212   4.429 -1.6833  0.6125 -0.2150
 6699SOL    MW426570   5.502   3.167   4.355 -0.4466 -0.2665  0.4980
 6700SOL     OW26571   4.476   0.444   0.062 -0.4781  0.1883  0.1359
 6700SOL    HW226572   4.446   0.354   0.054  0.2978 -0.0377 -0.3173
 6700SOL    HW326573   4.417   0.494   0.006  0.3447 -0.3367 -1.2357
 6700SOL    MW426574   4.464   0.439   0.054 -0.2672  0.0892 -0.1048
 6701SOL     OW26575   3.644   1.078   4.846  0.1812 -0.3031  0.6041
 6701SOL    HW226576   3.574   1.138   4.822 -1.1122 -0.7258  3.0369
 6701SOL    HW326577   3.703   1.131   4.901  0.9310 -0.3812 -0.1012
 6701SOL    MW426578   3.643   1.093   4.850  0.1095 -0.3692  0.8320
 6702SOL     OW26579   6.162   2.593   1.026 -0.4362  0.4423 -0.1777
 6702SOL    HW226580   6.231   2.654   1.052  1.8102 -1.9912 -0.0200
 6702SOL    HW326581   6.092   2.648   0.993  0.7335  3.1649  1.5732
 6702SOL    MW426582   6.162   2.608   1.025  0.0145  0.4804  0.0741
 6703SOL     OW26583   3.304   3.868   6.070 -0.1996 -0.6356 -0.2473
 6703SOL    HW226584   3.261   3.832   6.148  0.7619 -0.6862  0.2722
 6703SOL    HW326585   3.235   3.869   6.004 -1.2565  0.1321  0.8102
 6703SOL    MW426586   3.289   3.864   6.072 -0.2122 -0.5410 -0.0392
 6704SOL     OW26587   3.747   4.776   2.202 -0.8272 -0.2842  0.0306
 6704SOL    HW226588   3.738   4.708   2.136  0.6431 -1.6809  1.1753
 6704SOL    HW326589   3.660   4.784   2.241 -1.5639  0.1578 -1.6364
 6704SOL    MW426590   3.735   4.768   2.198 -0.7304 -0.4102 -0.0383
 6705SOL     OW26591   1.654   1.552   2.364 -0.7145 -0.3889 -0.4235
 6705SOL    HW226592   1.689   1.463   2.374  0.8394  0.1821 -0.4118
 6705SOL    HW326593   1.731   1.608   2.371 -1.8004  1.0353  0.5633
 6705SOL    MW426594   1.669   1.548   2.366 -0.6528 -0.1257 -0.2917
 6706SOL     OW26595   4.449   0.652   0.286 -0.0315 -0.3962 -0.3443
 6706SOL    HW226596   4.355   0.636   0.291 -0.0452  0.1183  1.9837
 6706SOL    HW326597   4.481   0.585   0.225 -1.8814 -0.5654 -1.1855
 6706SOL    MW426598   4.441   0.641   0.278 -0.2774 -0.3506 -0.1481
 6707SOL     OW26599   2.199   4.417   3.824  0.1813 -0.1008  0.0694
 6707SOL    HW226600   2.116   4.368   3.825  0.2585 -0.2745  2.0467
 6707SOL    HW326601   2.254   4.371   3.761 -1.2454  0.0982 -1.3928
 6707SOL    MW426602   2.195   4.405   3.816  0.0032 -0.0975  0.1374
 6708SOL     OW26603   2.059   2.057   1.508  0.2642  0.0207  0.2100
 6708SOL    HW226604   2.103   2.023   1.586  1.7084  0.7493 -0.2553
 6708SOL    HW326605   1.988   2.111   1.543 -0.0981 -0.9283  0.9894
 6708SOL    MW426606   2.056   2.059   1.523  0.4069 -0.0084  0.2515
 6709SOL     OW26607   6.002   5.487   3.623 -0.3460 -0.0203  0.1427
 6709SOL    HW226608   5.956   5.564   3.590 -2.4446 -0.7762  1.1361
 6709SOL    HW326609   5.944   5.414   3.602  1.0868 -1.2118  0.1992
 6709SOL    MW426610   5.988   5.488   3.616 -0.4339 -0.2772  0.2812
 6710SOL     OW26611   2.923   3.398   3.124 -0.3955  0.4372  0.1033
 6710SOL    HW226612   3.006   3.371   3.164  1.1264  2.0893 -1.7755
 6710SOL    HW326613   2.897   3.475   3.174 -0.2423  0.5612 -0.0105
 6710SOL    MW426614   2.931   3.404   3.136 -0.1745  0.6716 -0.1596
 6711SOL     OW26615   4.275   2.468   2.579  0.1120  0.1809 -0.4028
 6711SOL    HW226616   4.254   2.487   2.488 -2.9727 -0.1163  0.1362
 6711SOL    HW326617   4.196   2.491   2.627 -0.4610 -4.5726  1.5135
 6711SOL    MW426618   4.262   2.473   2.573 -0.3706 -0.4854 -0.0789
 6712SOL     OW26619   0.354   5.078   2.291 -0.7009  0.0864 -0.0231
 6712SOL    HW226620   0.388   5.040   2.210  1.5331  0.0284  0.8661
 6712SOL    HW326621   0.303   5.007   2.331  0.6281 -0.8909  0.0017
 6712SOL    MW426622   0.351   5.064   2.286 -0.2308 -0.0502  0.0975
 6713SOL     OW26623   5.638   1.695   0.762 -1.0820  0.0335  0.3295
 6713SOL    HW226624   5.674   1.607   0.756 -0.4502  0.3685 -0.9362
 6713SOL    HW326625   5.547   1.681   0.790 -1.2698 -1.0865 -0.7544
 6713SOL    MW426626   5.630   1.681   0.765 -1.0234 -0.0701  0.0195
 6714SOL     OW26627   0.269   3.188   0.151 -0.4358  0.2495  0.6410
 6714SOL    HW226628   0.298   3.235   0.228  0.5583  0.1073  0.3654
 6714SOL    HW326629   0.221   3.112   0.186 -1.8452  1.2997  1.0813
 6714SOL    MW426630   0.267   3.184   0.166 -0.4906  0.3693  0.6627
 6715SOL     OW26631   2.775   4.717   1.334  0.1270 -0.0564  0.5961
 6715SOL    HW226632   2.857   4.668   1.334 -1.0998 -2.2767  1.7220
 6715SOL    HW326633   2.742   4.709   1.423 -0.5326  2.2425  0.6209
 6715SOL    MW426634   2.782   4.710   1.345 -0.1219 -0.0461  0.7479
 6716SOL     OW26635   4.968   0.246   0.335 -0.5885 -0.2905 -0.0702
 6716SOL    HW226636   4.890   0.191   0.341 -0.9037  0.0889 -0.7138
 6716SOL    HW326637   4.975   0.269   0.243  0.5983 -0.7695 -0.1265
 6716SOL    MW426638   4.959   0.242   0.324 -0.4735 -0.3037 -0.1625
 6717SOL     OW26639   1.892   2.956   3.599 -0.0534 -0.3440  0.1647
 6717SOL    HW226640   1.964   2.978   3.541  0.0194 -4.1762 -1.4931
 6717SOL    HW326641   1.928   2.892   3.660 -1.6891 -1.4633  0.0421
 6717SOL    MW426642   1.906   2.950   3.599 -0.2596 -0.9973 -0.0702
 6718SOL     OW26643   2.942   0.178   4.690  0.0541 -0.0486 -0.3750
 6718SOL    HW226644   2.884   0.253   4.680 -1.7668 -1.3950 -0.5283
 6718SOL    HW326645   3.015   0.196   4.631 -2.0696  0.0438 -3.1780
 6718SOL    MW426646   2.944   0.190   4.681 -0.4663 -0.2140 -0.7651
 6719SOL     OW26647   3.909   5.511   6.201 -0.6324 -0.1014  0.4261
 6719SOL    HW226648   3.990   5.556   6.225  0.6747 -1.3759 -1.3335
 6719SOL    HW326649   3.901   5.439   6.264  0.5401 -0.9684 -0.3834
 6719SOL    MW426650   3.919   5.507   6.212 -0.3053 -0.3839  0.0871
 6720SOL     OW26651   5.929   1.679   3.160 -0.2934 -0.7884  0.1655
 6720SOL    HW226652   5.894   1.732   3.231 -0.0665  0.1444 -0.4024
 6720SOL    HW326653   5.858   1.674   3.096 -0.0236 -0.4457 -0.1643
 6720SOL    MW426654   5.915   1.685   3.161 -0.2279 -0.6201  0.0471
 6721SOL     OW26655   1.772   2.325   2.568  0.1380 -0.3298 -0.3659
 6721SOL    HW226656   1.733   2.382   2.635 -0.8370 -2.4908  1.0285
 6721SOL    HW326657   1.865   2.324   2.587  0.1772  0.8340 -0.4640
 6721SOL    MW426658   1.779   2.332   2.579  0.0145 -0.4614 -0.1949
 6722SOL     OW26659   2.729   1.391   0.304  0.6146 -0.4898 -0.4987
 6722SOL    HW226660   2.675   1.435   0.368  0.0949 -1.3034 -0.3575
 6722SOL    HW326661   2.808   1.444   0.297  0.2338  0.1486  0.0557
 6722SOL    MW426662   2.732   1.404   0.311  0.4958 -0.5129 -0.4069
 6723SOL     OW26663   0.440   6.255   6.271  0.0229 -0.1934 -0.4295
 6723SOL    HW226664   0.469   6.326   6.214 -0.0140  1.6882  1.7478
 6723SOL    HW326665   0.349   6.277   6.293  0.4591 -0.0677  1.4238
 6723SOL    MW426666   0.431   6.267   6.267  0.0756  0.0715  0.1023
 6724SOL     OW26667   2.422   0.240   1.045  0.2585  0.3939  0.1181
 6724SOL    HW226668   2.473   0.321   1.032 -0.6235  0.8322 -0.7856
 6724SOL    HW326669   2.334   0.270   1.066  0.3128 -0.3599  1.5479
 6724SOL    MW426670   2.417   0.255   1.046  0.1493  0.3523  0.1875
 6725SOL     OW26671   2.623   3.239   3.865 -0.4114  0.2976  0.1568
 6725SOL    HW226672   2.597   3.170   3.803  1.8076 -1.0560  0.6065
 6725SOL    HW326673   2.542   3.261   3.911 -1.5042 -0.8965 -1.0880
 6725SOL    MW426674   2.609   3.233   3.863 -0.2628 -0.0385  0.0519
 6726SOL     OW26675   3.314   5.013   3.677  0.2603 -0.3574  0.2331
 6726SOL    HW226676   3.332   5.081   3.741 -0.8883  0.4878 -0.2932
 6726SOL    HW326677   3.269   5.059   3.605  2.6450 -1.0025 -1.8290
 6726SOL    MW426678   3.310   5.028   3.676  0.4234 -0.3310 -0.1084
 6727SOL     OW26679   3.625   1.284   1.075  0.2094 -0.1586 -0.0822
 6727SOL    HW226680   3.582   1.271   0.991  0.0442 -0.4365  0.0423
 6727SOL    HW326681   3.675   1.203   1.089 -0.5889 -0.5496  0.5669
 6727SOL    MW426682   3.626   1.272   1.066  0.0822 -0.2468  0.0199
 6728SOL     OW26683   0.241   2.814   4.615 -0.1913  0.1682 -0.3160
 6728SOL    HW226684   0.286   2.897   4.603 -0.3045  0.0608 -1.5726
 6728SOL    HW326685   0.246   2.797   4.709  1.4257  0.6998 -0.2797
 6728SOL    MW426686   0.248   2.822   4.626  0.0071  0.2242 -0.4770
 6729SOL     OW26687   5.850   0.423   5.271 -0.6277 -0.5070  0.2300
 6729SOL    HW226688   5.842   0.453   5.181 -2.2422  0.4829  0.6608
 6729SOL    HW326689   5.850   0.328   5.265  0.0829 -0.4484 -0.8614
 6729SOL    MW426690   5.849   0.414   5.259 -0.7470 -0.3687  0.1429
 6730SOL     OW26691   5.445   0.209   1.242 -0.5360 -0.7743  0.0521
 6730SOL    HW226692   5.413   0.239   1.327 -1.4376 -0.0391 -0.5294
 6730SOL    HW326693   5.371   0.160   1.205  0.6686 -3.2752  0.7053
 6730SOL    MW426694   5.431   0.206   1.248 -0.4960 -1.0073  0.0616
 6731SOL     OW26695   2.645   0.220   1.333 -0.8704 -0.0671 -0.2947
 6731SOL    HW226696   2.631   0.299   1.385  0.1329  0.0727 -0.2120
 6731SOL    HW326697   2.670   0.153   1.398 -2.4878 -0.6857 -0.2624
 6731SOL    MW426698   2.647   0.222   1.349 -0.9514 -0.1303 -0.2795
 6732SOL     OW26699   3.356   1.008   4.304 -0.1266  0.1515 -0.3196
 6732SOL    HW226700   3.410   0.989   4.380 -1.8055  2.9769  1.7650
 6732SOL    HW326701   3.301   0.930   4.294  0.3687 -0.4203  1.1727
 6732SOL    MW426702   3.356   0.995   4.313 -0.2828  0.4488  0.1523
 6733SOL     OW26703   0.888   1.409   4.318  0.5314 -0.5642 -0.1962
 6733SOL    HW226704   0.858   1.396   4.228 -0.0939 -0.4551 -0.0098
 6733SOL    HW326705   0.910   1.321   4.349  0.8715 -0.5875 -0.4924
 6733SOL    MW426706   0.887   1.396   4.310  0.4937 -0.5529 -0.2107
 6734SOL     OW26707   0.493   2.387   1.315 -0.1185 -0.1044  0.3939
 6734SOL    HW226708   0.532   2.329   1.380  0.3765  0.6842  0.8272
 6734SOL    HW326709   0.449   2.329   1.253  0.7774 -0.9521  0.5360
 6734SOL    MW426710   0.492   2.372   1.315  0.0650 -0.1122  0.4698
 6735SOL     OW26711   4.700   3.720   5.686  0.1879  0.2239  0.0783
 6735SOL    HW226712   4.741   3.710   5.772  0.9723 -0.0128 -0.3144
 6735SOL    HW326713   4.631   3.654   5.684 -0.5716  0.9615  0.9408
 6735SOL    MW426714   4.696   3.710   5.697  0.1912  0.2900  0.1402
 6736SOL     OW26715   3.719   4.615   6.334 -0.4522 -0.7692  0.3496
 6736SOL    HW226716   3.750   4.595   6.422 -0.9454  1.6294  1.1563
 6736SOL    HW326717   3.791   4.665   6.294 -0.9093 -0.3329  0.0585
 6736SOL    MW426718   3.733   4.619   6.340 -0.5776 -0.3952  0.4177
 6737SOL     OW26719   1.105   3.507   5.854 -0.2501  0.0713 -0.2035
 6737SOL    HW226720   1.178   3.466   5.900 -0.4460  0.6895  0.6872
 6737SOL    HW326721   1.052   3.434   5.823 -0.6662 -0.3697  1.4721
 6737SOL    MW426722   1.108   3.492   5.856 -0.3309  0.0947  0.1351
 6738SOL     OW26723   2.150   5.850   0.014 -0.2729 -0.5570 -0.1145
 6738SOL    HW226724   2.156   5.770  -0.037 -3.0741 -2.0887  1.7098
 6738SOL    HW326725   2.184   5.826   0.100 -0.6759  0.3856  0.3229
 6738SOL    MW426726   2.156   5.836   0.019 -0.6957 -0.6348  0.1839
 6739SOL     OW26727   4.010   1.414   0.938 -0.2685  0.2138  0.2083
 6739SOL    HW226728   4.075   1.474   0.975 -0.5208  1.2994 -1.0372
 6739SOL    HW326729   3.926   1.458   0.952 -0.7896 -1.1627  1.7759
 6739SOL    MW426730   4.007   1.428   0.945 -0.3705  0.1754  0.2508
 6740SOL     OW26731   4.943   4.655   1.759 -0.0962  0.2496 -0.4357
 6740SOL    HW226732   4.853   4.684   1.742 -0.3996 -1.3074 -1.7710
 6740SOL    HW326733   4.959   4.588   1.692  1.7277 -0.1845  0.3864
 6740SOL    MW426734   4.933   4.650   1.748  0.1044 -0.0131 -0.5034
 6741SOL     OW26735   4.312   3.157   1.902  0.0224  0.2254 -0.4626
 6741SOL    HW226736   4.392   3.154   1.848  0.8711  0.1060  0.7556
 6741SOL    HW326737   4.241   3.148   1.839  0.8072  3.0038 -1.9473
 6741SOL    MW426738   4.313   3.156   1.887  0.2379  0.5762 -0.4978
 6742SOL     OW26739   0.043   4.589   2.857 -0.1922  0.4399 -0.1239
 6742SOL    HW226740   0.114   4.546   2.808 -0.4757  0.7294 -0.7935
 6742SOL    HW326741   0.087   4.657   2.909  0.0222  0.6177 -0.5374
 6742SOL    MW426742   0.058   4.592   2.858 -0.2013  0.5016 -0.2668
 6743SOL     OW26743   5.723   4.470   2.842  0.5791  0.0447 -0.3900
 6743SOL    HW226744   5.794   4.535   2.844 -1.5592  2.5704 -0.8469
 6743SOL    HW326745   5.705   4.458   2.749  0.0525 -0.1372 -0.2650
 6743SOL    MW426746   5.730   4.477   2.830  0.2275  0.3539 -0.4338
 6744SOL     OW26747   1.246   5.293   5.953 -0.5871 -0.0903  0.2447
 6744SOL    HW226748   1.239   5.331   6.040 -1.2233  0.6205 -0.1038
 6744SOL    HW326749   1.223   5.201   5.964 -0.9782  0.0687  0.7732
 6744SOL    MW426750   1.242   5.286   5.966 -0.7226  0.0245  0.2685
 6745SOL     OW26751   2.870   5.988   2.201  0.1940 -0.1547 -0.4704
 6745SOL    HW226752   2.804   5.949   2.258  1.5008  1.2609  2.1736
 6745SOL    HW326753   2.942   6.010   2.259  2.1341  0.3273 -2.9069
 6745SOL    MW426754   2.870   5.986   2.216  0.6224  0.0957 -0.4430
 6746SOL     OW26755   4.879   4.643   3.823 -0.0356 -1.0486 -0.2407
 6746SOL    HW226756   4.824   4.702   3.771 -0.8002  0.0689  1.6916
 6746SOL    HW326757   4.965   4.647   3.782 -0.6751 -0.5038 -1.5921
 6746SOL    MW426758   4.883   4.651   3.811 -0.2208 -0.8293 -0.1641
 6747SOL     OW26759   0.025   5.283   5.069 -0.0405 -0.0371  0.3660
 6747SOL    HW226760  -0.040   5.221   5.101  0.1533 -0.5556 -0.2237
 6747SOL    HW326761   0.032   5.348   5.139 -1.6858  0.4097  0.1517
 6747SOL    MW426762   0.017   5.283   5.083 -0.2320 -0.0466  0.2600
 6748SOL     OW26763   3.292   2.978   4.068 -0.0523  0.1168 -0.2755
 6748SOL    HW226764   3.275   3.047   4.005 -0.9485  0.6173  0.5038
 6748SOL    HW326765   3.259   2.898   4.026  1.9794 -0.0913 -1.6522
 6748SOL    MW426766   3.286   2.976   4.054  0.0975  0.1554 -0.3543
 6749SOL     OW26767   5.588   3.757   5.376 -0.0227 -0.0320  0.1547
 6749SOL    HW226768   5.660   3.767   5.313  0.6870 -0.5256  0.8707
 6749SOL    HW326769   5.549   3.672   5.354  0.8903 -0.6995  1.0222
 6749SOL    MW426770   5.592   3.747   5.365  0.1914 -0.1852  0.3636
 6750SOL     OW26771   3.129   3.885   5.840 -0.3383  0.5660 -0.4885
 6750SOL    HW226772   3.038   3.907   5.819 -1.0901 -1.8881 -0.1870
 6750SOL    HW326773   3.130   3.789   5.844  2.0427  0.5573  0.5741
 6750SOL    MW426774   3.117   3.875   5.837 -0.1233  0.2411 -0.3086
 6751SOL     OW26775   1.297   0.681   2.631  0.7502  0.2695  0.1716
 6751SOL    HW226776   1.210   0.687   2.591  1.0226  0.4369 -0.4065
 6751SOL    HW326777   1.358   0.683   2.557  1.2383 -0.1550  0.5540
 6751SOL    MW426778   1.294   0.682   2.616  0.8506  0.2356  0.1458
 6752SOL     OW26779   0.300   3.510   4.068 -0.0790  0.2244  0.7680
 6752SOL    HW226780   0.324   3.599   4.042 -1.7013  0.4654 -0.0738
 6752SOL    HW326781   0.325   3.455   3.994  0.6709  0.0157  1.1727
 6752SOL    MW426782   0.306   3.515   4.055 -0.1941  0.2287  0.7103
 6753SOL     OW26783   5.688   0.122   4.477 -0.0127 -0.4771  0.1565
 6753SOL    HW226784   5.763   0.135   4.419 -0.5478 -0.2555 -0.4948
 6753SOL    HW326785   5.669   0.210   4.511 -1.5353 -0.0225 -1.6514
 6753SOL    MW426786   5.695   0.136   4.474 -0.2842 -0.3879 -0.1679
 6754SOL     OW26787   1.438   4.047   0.220  0.4934  0.1305 -0.5473
 6754SOL    HW226788   1.441   4.022   0.128  1.5069  2.1544 -1.1119
 6754SOL    HW326789   1.529   4.062   0.244  0.1180  1.1216  0.3283
 6754SOL    MW426790   1.450   4.046   0.211  0.5776  0.5283 -0.5063
 6755SOL     OW26791   5.591   5.231   2.557 -0.5399  0.0250 -0.2341
 6755SOL    HW226792   5.586   5.309   2.613  0.5083  1.0947 -1.5803
 6755SOL    HW326793   5.560   5.260   2.472 -0.1047 -1.0368 -0.7709
 6755SOL    MW426794   5.586   5.245   2.553 -0.3442  0.0260 -0.4826
 6756SOL     OW26795   0.057   5.480   3.823  0.4236  0.1911 -0.1778
 6756SOL    HW226796   0.053   5.564   3.777 -0.5180  1.2626  1.7446
 6756SOL    HW326797  -0.032   5.447   3.820  0.7878 -0.7777 -0.9127
 6756SOL    MW426798   0.045   5.487   3.817  0.3474  0.2047 -0.0211
 6757SOL     OW26799   1.761   3.231   6.072  0.4435  0.2320 -0.0486
 6757SOL    HW226800   1.855   3.221   6.057  0.0163 -0.4512 -2.8309
 6757SOL    HW326801   1.750   3.216   6.166  3.4717  3.6993  1.0791
 6757SOL    MW426802   1.772   3.228   6.082  0.7867  0.5993 -0.2669
 6758SOL     OW26803   2.464   2.214   3.913  0.0360  0.1956 -0.3039
 6758SOL    HW226804   2.511   2.144   3.959 -0.2906  0.0179 -0.2317
 6758SOL    HW326805   2.375   2.209   3.948  0.4107  1.8227  1.0688
 6758SOL    MW426806   2.458   2.204   3.924  0.0423  0.3868 -0.1133
 6759SOL     OW26807   5.843   5.230   0.265  0.3668 -0.4530 -0.0028
 6759SOL    HW226808   5.830   5.167   0.194  0.3454 -0.1791 -0.2472
 6759SOL    HW326809   5.794   5.194   0.339 -1.5779  0.3784 -0.7959
 6759SOL    MW426810   5.835   5.217   0.265  0.1074 -0.3072 -0.1397
 6760SOL     OW26811   0.154   0.974   5.130  0.1655 -0.2771 -0.0701
 6760SOL    HW226812   0.238   0.935   5.152  1.0308  0.5271 -1.7295
 6760SOL    HW326813   0.103   0.901   5.094  0.2955 -0.6888  0.5717
 6760SOL    MW426814   0.158   0.959   5.128  0.2968 -0.2253 -0.2044
 6761SOL     OW26815   1.150   0.437   5.834  0.4324 -0.1544  0.9817
 6761SOL    HW226816   1.185   0.503   5.893  2.0538 -1.3080  1.3760
 6761SOL    HW326817   1.100   0.486   5.769 -0.2102  1.2573  2.4794
 6761SOL    MW426818   1.148   0.452   5.833  0.5615 -0.1204  1.2313
 6762SOL     OW26819   0.365   0.549   5.695 -0.3926 -0.0340 -0.1210
 6762SOL    HW226820   0.280   0.562   5.738 -0.9626 -0.1954 -1.1796
 6762SOL    HW326821   0.389   0.458   5.716 -1.2862 -0.5389 -1.1793
 6762SOL    MW426822   0.357   0.539   5.704 -0.5857 -0.1219 -0.4003
 6763SOL     OW26823   5.867   4.202   1.241  0.1797 -0.0433  0.0088
 6763SOL    HW226824   5.850   4.281   1.189  1.3466  1.5528  1.9217
 6763SOL    HW326825   5.787   4.189   1.291 -0.9266 -1.5514 -2.0033
 6763SOL    MW426826   5.854   4.211   1.241  0.1877 -0.0317 -0.0043
 6764SOL     OW26827   5.259   2.257   1.084  0.0634 -0.6058 -0.2434
 6764SOL    HW226828   5.180   2.202   1.089 -0.7643  0.4955 -0.6088
 6764SOL    HW326829   5.280   2.259   0.990 -0.7047  0.7214 -0.4212
 6764SOL    MW426830   5.251   2.250   1.072 -0.1471 -0.2854 -0.3150
 6765SOL     OW26831   3.518   2.861   5.139  0.8018  0.9631  0.2332
 6765SOL    HW226832   3.485   2.808   5.066 -0.9655  2.0721  0.1601
 6765SOL    HW326833   3.604   2.824   5.159 -0.2775 -1.8194  0.0944
 6765SOL    MW426834   3.525   2.849   5.132  0.4262  0.7423  0.2052
 6766SOL     OW26835   4.260   6.165   2.030 -0.1649  0.5167 -0.1297
 6766SOL    HW226836   4.226   6.232   1.971  1.0334 -0.0715 -1.5668
 6766SOL    HW326837   4.189   6.101   2.038 -0.7553  1.1789  0.0067
 6766SOL    MW426838   4.246   6.166   2.023 -0.0847  0.5265 -0.3013
 6767SOL     OW26839   2.228   5.526   5.860  0.4473  0.4251  0.1021
 6767SOL    HW226840   2.168   5.473   5.913 -0.3024  0.1716 -0.9650
 6767SOL    HW326841   2.309   5.475   5.859  0.0270 -0.2457 -0.1464
 6767SOL    MW426842   2.231   5.512   5.867  0.2929  0.3031 -0.0714
 6768SOL     OW26843   1.681   1.956   6.308 -0.0441  0.4876  0.0199
 6768SOL    HW226844   1.729   1.958   6.391 -0.1212 -0.6018  0.1043
 6768SOL    HW326845   1.710   2.034   6.262  0.2329  0.9520  0.9424
 6768SOL    MW426846   1.691   1.967   6.313 -0.0177  0.4052  0.1528
 6769SOL     OW26847   2.384   2.512   6.212  0.5359 -0.3705 -0.1264
 6769SOL    HW226848   2.456   2.466   6.168  0.0365  0.4075 -1.8173
 6769SOL    HW326849   2.306   2.460   6.194  0.1655  0.4790 -1.0252
 6769SOL    MW426850   2.384   2.499   6.204  0.4212 -0.1558 -0.4681
 6770SOL     OW26851   6.335   4.496   0.302 -0.0669 -0.5379  0.2816
 6770SOL    HW226852   6.374   4.570   0.255  0.4671 -2.1399 -1.9800
 6770SOL    HW326853   6.337   4.521   0.394  1.4777  1.6128 -0.2859
 6770SOL    MW426854   6.340   4.509   0.308  0.2073 -0.4655 -0.0917
 6771SOL     OW26855   2.727   5.072   1.236 -0.3769 -0.5514  0.7240
 6771SOL    HW226856   2.671   5.144   1.208  1.2929  0.7575  0.5942
 6771SOL    HW326857   2.727   5.011   1.162 -0.7494 -0.0442  0.2982
 6771SOL    MW426858   2.719   5.073   1.223 -0.2057 -0.3118  0.6507
 6772SOL     OW26859   5.528   2.146   3.001 -0.4947  0.5836 -0.0519
 6772SOL    HW226860   5.453   2.177   3.052 -1.0207 -0.5496 -0.1133
 6772SOL    HW326861   5.500   2.061   2.967 -0.0758  1.1788 -2.0328
 6772SOL    MW426862   5.514   2.139   3.003 -0.5088  0.5126 -0.3214
 6773SOL     OW26863   4.671   5.815   5.821 -0.3131 -0.2861  0.5293
 6773SOL    HW226864   4.759   5.851   5.831  2.1868 -5.2102 -1.0164
 6773SOL    HW326865   4.640   5.804   5.911  0.3546  1.8639  1.0909
 6773SOL    MW426866   4.678   5.818   5.835  0.1048 -0.6521  0.3994
 6774SOL     OW26867   0.831   1.531   1.111 -0.1614 -0.2922 -0.0194
 6774SOL    HW226868   0.924   1.544   1.094 -0.3495  0.0851 -0.7775
 6774SOL    HW326869   0.811   1.593   1.182  0.3729 -1.0766  0.8323
 6774SOL    MW426870   0.840   1.541   1.118 -0.1157 -0.3459 -0.0070
 6775SOL     OW26871   1.868   5.207   3.954 -0.1028 -0.7053 -0.0366
 6775SOL    HW226872   1.830   5.129   3.995  0.6965 -0.5184  1.1269
 6775SOL    HW326873   1.799   5.273   3.960 -1.7352 -1.9184 -3.2784
 6775SOL    MW426874   1.854   5.206   3.960 -0.2127 -0.8407 -0.3108
 6776SOL     OW26875   0.730   2.947   5.426 -0.3014  0.1488  0.7539
 6776SOL    HW226876   0.695   2.915   5.509 -0.5440  0.7553  0.8890
 6776SOL    HW326877   0.821   2.917   5.425 -0.8265 -1.5625  0.3339
 6776SOL    MW426878   0.738   2.939   5.437 -0.4027  0.0031  0.7163
 6777SOL     OW26879   4.703   2.548   5.357 -0.2694 -0.1354  0.1191
 6777SOL    HW226880   4.621   2.502   5.338  1.0794 -1.6193 -2.6757
 6777SOL    HW326881   4.688   2.637   5.325 -0.3468 -0.8100 -1.8716
 6777SOL    MW426882   4.690   2.553   5.350 -0.1017 -0.4202 -0.5123
 6778SOL     OW26883   5.460   2.945   3.768  0.0159 -0.2498  0.1397
 6778SOL    HW226884   5.365   2.941   3.779 -0.0849  0.2566 -0.4876
 6778SOL    HW326885   5.473   3.006   3.695  0.7908 -0.8230 -0.2193
 6778SOL    MW426886   5.449   2.952   3.759  0.1048 -0.2586  0.0096
 6779SOL     OW26887   3.787   4.549   1.688  0.3665 -0.6799  0.3937
 6779SOL    HW226888   3.835   4.541   1.771  0.5227  0.2507  0.3990
 6779SOL    HW326889   3.846   4.597   1.631 -1.0455  1.6719  0.8037
 6779SOL    MW426890   3.801   4.554   1.692  0.2008 -0.2468  0.4485
 6780SOL     OW26891   5.465   1.741   1.372 -0.1945  0.0262 -0.6074
 6780SOL    HW226892   5.530   1.709   1.309  0.1740 -0.0564 -0.1873
 6780SOL    HW326893   5.381   1.725   1.329  0.0916  1.3361 -1.7261
 6780SOL    MW426894   5.462   1.735   1.358 -0.1081  0.1881 -0.6996
 6781SOL     OW26895   1.721   3.794   5.408 -0.1392  1.1063 -0.0058
 6781SOL    HW226896   1.665   3.776   5.483  0.5762 -1.5054  0.0153
 6781SOL    HW326897   1.664   3.838   5.345 -1.9733 -0.5672  0.3909
 6781SOL    MW426898   1.706   3.798   5.410 -0.2868  0.5409  0.0493
 6782SOL     OW26899   0.502   0.324   5.817  0.1563 -0.0563  0.0912
 6782SOL    HW226900   0.537   0.295   5.733 -0.0401 -1.3285  0.4228
 6782SOL    HW326901   0.577   0.326   5.876  0.0033 -0.9776  0.3357
 6782SOL    MW426902   0.516   0.320   5.814  0.1102 -0.3457  0.1672
 6783SOL     OW26903   4.296   2.774   5.263  0.2681  0.0618  0.3289
 6783SOL    HW226904   4.367   2.746   5.206  1.0396  0.9057  0.8567
 6783SOL    HW326905   4.223   2.715   5.241  1.2052 -0.9963 -0.0089
 6783SOL    MW426906   4.296   2.763   5.252  0.4935  0.0335  0.3540
 6784SOL     OW26907   2.144   3.876   1.920  0.5780  0.1657  0.4929
 6784SOL    HW226908   2.199   3.902   1.994 -0.6972  1.2974  1.0900
 6784SOL    HW326909   2.177   3.927   1.846  2.6182 -1.8219 -0.0862
 6784SOL    MW426910   2.155   3.887   1.920  0.6790  0.0527  0.4953
 6785SOL     OW26911   4.623   4.674   1.150  0.4325  0.5006  0.1186
 6785SOL    HW226912   4.568   4.739   1.193 -0.1063  0.6454 -0.7572
 6785SOL    HW326913   4.669   4.722   1.082  0.2159  0.0299 -0.3781
 6785SOL    MW426914   4.621   4.689   1.146  0.3329  0.4576 -0.0625
 6786SOL     OW26915   3.939   5.915   0.550 -0.2102  0.0813  0.2997
 6786SOL    HW226916   3.976   5.943   0.633  0.4125 -0.7998  0.3305
 6786SOL    HW326917   4.012   5.876   0.502 -0.3957  1.1950 -0.9522
 6786SOL    MW426918   3.953   5.913   0.554 -0.1525  0.1120  0.1386
 6787SOL     OW26919   5.232   5.559   4.089 -0.0912 -0.2834 -0.8790
 6787SOL    HW226920   5.212   5.489   4.027  0.0037 -0.2878 -0.9052
 6787SOL    HW326921   5.324   5.545   4.112 -0.2860 -0.6100 -0.3018
 6787SOL    MW426922   5.242   5.548   4.084 -0.1044 -0.3271 -0.8063
 6788SOL     OW26923   2.943   4.034   1.012  0.5854  0.2750  0.0847
 6788SOL    HW226924   2.914   3.944   0.999 -0.8353  0.8374 -0.8460
 6788SOL    HW326925   3.038   4.027   1.020  0.3403 -1.5193  2.2792
 6788SOL    MW426926   2.952   4.021   1.011  0.3656  0.1125  0.2514
 6789SOL     OW26927   1.109   1.209   1.269 -0.5497  0.3202  0.1575
 6789SOL    HW226928   1.147   1.144   1.327 -0.8432  0.4400  0.4859
 6789SOL    HW326929   1.137   1.293   1.305  2.4032  0.4123 -1.9503
 6789SOL    MW426930   1.118   1.212   1.281 -0.1988  0.3482 -0.0773
 6790SOL     OW26931   1.322   2.928   0.895  0.0836 -0.2380 -0.5379
 6790SOL    HW226932   1.262   2.905   0.824  1.6630 -1.0835 -1.6605
 6790SOL    HW326933   1.390   2.980   0.853  0.3543  0.3871  0.6387
 6790SOL    MW426934   1.323   2.932   0.880  0.3277 -0.2670 -0.5308
 6791SOL     OW26935   1.647   5.839   3.834  0.0570  0.4342  0.7003
 6791SOL    HW226936   1.580   5.856   3.768 -1.7495  0.4894  2.4490
 6791SOL    HW326937   1.682   5.753   3.812 -1.0306  0.1363  0.0599
 6791SOL    MW426938   1.643   5.830   3.823 -0.3248  0.4022  0.8466
 6792SOL     OW26939   3.858   5.860   5.559  0.4811 -0.3925 -0.4429
 6792SOL    HW226940   3.897   5.800   5.622 -0.1249 -0.6870 -0.3342
 6792SOL    HW326941   3.910   5.849   5.479  0.5608 -0.8438 -0.3324
 6792SOL    MW426942   3.870   5.851   5.557  0.4117 -0.4909 -0.4140
 6793SOL     OW26943   0.484   3.837   1.171 -0.4363 -0.2426 -0.0793
 6793SOL    HW226944   0.494   3.902   1.241  1.1611 -2.6770  2.1513
 6793SOL    HW326945   0.389   3.826   1.162 -0.6950  0.1411  1.7310
 6793SOL    MW426946   0.473   3.844   1.179 -0.2597 -0.5132  0.4539
 6794SOL     OW26947   2.969   0.296   5.511  0.6709  0.1325  0.4078
 6794SOL    HW226948   3.023   0.272   5.435 -0.2166 -1.0253  0.1175
 6794SOL    HW326949   2.953   0.390   5.500  1.1139  0.1159 -0.4714
 6794SOL    MW426950   2.974   0.306   5.499  0.6122 -0.0224  0.2535
 6795SOL     OW26951   0.144   1.490   4.809 -0.7050 -0.2876 -0.5282
 6795SOL    HW226952   0.227   1.448   4.787 -0.5989  1.3266 -3.8393
 6795SOL    HW326953   0.167   1.581   4.828 -1.7281  0.7271 -3.5318
 6795SOL    MW426954   0.158   1.496   4.809 -0.8260  0.0592 -1.3614
 6796SOL     OW26955   4.828   5.167   1.166 -0.4365 -0.1340  0.1720
 6796SOL    HW226956   4.873   5.243   1.203 -1.3396  0.0995  0.8213
 6796SOL    HW326957   4.758   5.148   1.228 -0.6248 -1.0990 -0.3235
 6796SOL    MW426958   4.825   5.175   1.179 -0.5805 -0.2305  0.1923
 6797SOL     OW26959   5.671   1.909   2.357  0.0118  0.1062 -0.1239
 6797SOL    HW226960   5.642   1.825   2.321  1.8140 -0.4651 -0.3315
 6797SOL    HW326961   5.590   1.958   2.371 -0.9616 -0.8419 -2.0168
 6797SOL    MW426962   5.657   1.904   2.354  0.1212 -0.0943 -0.4010
 6798SOL     OW26963   4.060   4.552   0.672  0.0677  0.3934  0.2849
 6798SOL    HW226964   4.121   4.620   0.701 -0.3006  1.0024 -0.3165
 6798SOL    HW326965   4.015   4.591   0.597  0.8141 -1.0215 -0.9409
 6798SOL    MW426966   4.062   4.566   0.666  0.1176  0.2871  0.0438
 6799SOL     OW26967   3.453   1.400   1.864  0.1734  0.5808  0.1304
 6799SOL    HW226968   3.460   1.453   1.784  0.5686 -0.2291 -0.3790
 6799SOL    HW326969   3.505   1.447   1.929 -0.3887  1.4005  0.0050
 6799SOL    MW426970   3.461   1.413   1.862  0.1514  0.5821  0.0466
 6800SOL     OW26971   2.981   5.451   1.179 -0.1864 -0.4334 -0.1401
 6800SOL    HW226972   2.983   5.355   1.184  1.1251 -0.3580  1.5337
 6800SOL    HW326973   2.901   5.470   1.131 -0.0635 -2.3870 -1.2500
 6800SOL    MW426974   2.971   5.441   1.173  0.0029 -0.6812 -0.0657
 6801SOL     OW26975   3.632   1.864   3.936  0.0665  0.6183 -0.7337
 6801SOL    HW226976   3.613   1.784   3.986 -0.6923  1.0700 -0.2686
 6801SOL    HW326977   3.711   1.844   3.887  0.5342 -0.0392  0.2511
 6801SOL    MW426978   3.640   1.851   3.936  0.0281  0.5912 -0.5424
 6802SOL     OW26979   2.942   6.081   6.076  0.0254  0.0082 -0.1075
 6802SOL    HW226980   2.848   6.096   6.085 -0.2968 -0.5501 -2.0050
 6802SOL    HW326981   2.954   5.989   6.100 -0.3604 -0.6358 -2.1660
 6802SOL    MW426982   2.931   6.071   6.080 -0.0680 -0.1504 -0.6294
 6803SOL     OW26983   5.177   5.773   2.382 -0.0697  0.3927 -0.0799
 6803SOL    HW226984   5.203   5.701   2.324  0.0045 -0.0498  0.4938
 6803SOL    HW326985   5.180   5.735   2.470  0.8768  1.3595  0.3219
 6803SOL    MW426986   5.181   5.758   2.386  0.0650  0.4619  0.0488
 6804SOL     OW26987   6.370   2.501   3.453 -0.0486 -0.0647  0.7009
 6804SOL    HW226988   6.453   2.546   3.436  1.5258 -1.6625  3.4457
 6804SOL    HW326989   6.327   2.556   3.518  1.0969 -1.4906  2.7735
 6804SOL    MW426990   6.376   2.515   3.459  0.3103 -0.4636  1.3365
 6805SOL     OW26991   5.443   4.069   0.469 -0.0411  0.1006 -0.1397
 6805SOL    HW226992   5.377   4.133   0.495  0.9359  0.2748  2.1500
 6805SOL    HW326993   5.393   3.990   0.450 -0.9554 -0.0472  2.4037
 6805SOL    MW426994   5.428   4.067   0.470 -0.0328  0.1041  0.4979
 6806SOL     OW26995   1.183   3.982   5.373 -0.3252 -0.1521  0.0013
 6806SOL    HW226996   1.181   4.006   5.280 -3.0406 -0.8704 -0.2094
 6806SOL    HW326997   1.232   3.899   5.374  0.5447  0.3269 -0.6217
 6806SOL    MW426998   1.189   3.974   5.361 -0.5687 -0.1836 -0.1087
 6807SOL     OW26999   2.268   6.037   1.730 -0.1672 -0.0395  0.6874
 6807SOL    HW227000   2.214   6.034   1.650  1.5234 -1.8467 -0.4893
 6807SOL    HW327001   2.212   6.078   1.795 -1.2331  2.6065 -1.7055
 6807SOL    MW427002   2.253   6.042   1.728 -0.0848  0.0712  0.2164
 6808SOL     OW27003   0.831   0.816   0.533  0.2083 -0.4088 -0.1795
 6808SOL    HW227004   0.924   0.804   0.551 -0.0704 -2.4810  0.1602
 6808SOL    HW327005   0.796   0.855   0.612  0.9702  1.6919 -0.8071
 6808SOL    MW427006   0.839   0.819   0.546  0.2721 -0.4051 -0.2175
 6809SOL     OW27007   2.825   0.287   4.986 -0.2114  0.0661 -0.1179
 6809SOL    HW227008   2.903   0.340   4.969 -0.4426  0.1152 -1.1234
 6809SOL    HW327009   2.857   0.213   5.037  0.2060  0.8966  0.8595
 6809SOL    MW427010   2.839   0.284   4.990 -0.1868  0.1822 -0.1216
 6810SOL     OW27011   3.119   0.177   5.284 -0.1392 -0.2593 -0.3460
 6810SOL    HW227012   3.207   0.163   5.249  0.0841  1.7843 -0.7785
 6810SOL    HW327013   3.060   0.143   5.217  0.3189  0.0785 -0.9258
 6810SOL    MW427014   3.123   0.171   5.271 -0.0493  0.0549 -0.4796
 6811SOL     OW27015   4.699   2.948   1.198 -0.2449 -0.2201  0.0146
 6811SOL    HW227016   4.649   2.971   1.276 -1.4741  3.5226 -1.6618
 6811SOL    HW327017   4.670   2.859   1.176 -3.5475  0.4426  1.1393
 6811SOL    MW427018   4.689   2.939   1.205 -0.8428  0.3611 -0.0582
 6812SOL     OW27019   3.075   4.255   3.847 -0.1137 -0.4424 -0.3448
 6812SOL    HW227020   2.991   4.291   3.819  0.3577  0.1613 -1.0236
 6812SOL    HW327021   3.083   4.173   3.799 -0.5023 -0.7108  0.0432
 6812SOL    MW427022   3.065   4.249   3.837 -0.1028 -0.3982 -0.3832
 6813SOL     OW27023   5.166   0.553   3.438 -0.3037 -0.2831 -0.2140
 6813SOL    HW227024   5.168   0.598   3.523  1.8047 -1.2716  0.3116
 6813SOL    HW327025   5.256   0.528   3.422 -0.8473 -1.1087 -2.2522
 6813SOL    MW427026   5.178   0.556   3.447 -0.0972 -0.5225 -0.4136
 6814SOL     OW27027   4.074   0.223   3.830  0.2591  0.2526  0.0943
 6814SOL    HW227028   3.988   0.253   3.799 -0.2796 -1.5867 -0.2948
 6814SOL    HW327029   4.132   0.237   3.755  0.0161  0.2705 -0.0934
 6814SOL    MW427030   4.070   0.229   3.816  0.1559  0.0123  0.0182
 6815SOL     OW27031   2.426   5.777   2.498 -0.7424 -0.0414  0.0329
 6815SOL    HW227032   2.347   5.726   2.484 -0.2802 -0.4697 -1.0799
 6815SOL    HW327033   2.456   5.751   2.585 -1.1173 -0.8442 -0.0702
 6815SOL    MW427034   2.420   5.767   2.508 -0.7309 -0.2038 -0.1275
 6816SOL     OW27035   5.055   5.451   2.613 -0.0573 -0.1365 -0.3130
 6816SOL    HW227036   5.042   5.357   2.627 -0.5171 -0.0409 -0.0616
 6816SOL    HW327037   4.978   5.478   2.562  0.5716 -0.0830 -1.2495
 6816SOL    MW427038   5.043   5.442   2.609 -0.0350 -0.1168 -0.4034
 6817SOL     OW27039   1.955   3.401   5.724 -0.2601 -0.5220 -0.1256
 6817SOL    HW227040   2.043   3.434   5.708 -0.5900  0.6583  0.4120
 6817SOL    HW327041   1.952   3.317   5.678  1.3157 -0.8383  0.2930
 6817SOL    MW427042   1.966   3.394   5.716 -0.0957 -0.4080  0.0006
 6818SOL     OW27043   2.615   2.385   5.165  0.1419 -0.6759  0.6540
 6818SOL    HW227044   2.532   2.399   5.211 -0.1967 -0.7013  0.0627
 6818SOL    HW327045   2.648   2.473   5.147 -1.0282 -0.5777 -1.3482
 6818SOL    MW427046   2.608   2.399   5.168 -0.0572 -0.6663  0.3119
 6819SOL     OW27047   2.683   4.629   0.824  0.1143  0.3551  0.5935
 6819SOL    HW227048   2.701   4.700   0.762  1.0836  1.4614  2.0521
 6819SOL    HW327049   2.740   4.558   0.797 -1.8358 -0.4548 -1.7140
 6819SOL    MW427050   2.692   4.629   0.812 -0.0151  0.3942  0.4815
 6820SOL     OW27051   2.886   5.880   5.524 -0.2269 -0.0505  0.2246
 6820SOL    HW227052   2.937   5.951   5.486 -0.1469 -0.5119 -0.5604
 6820SOL    HW327053   2.795   5.906   5.509 -0.2001 -0.9062 -1.6421
 6820SOL    MW427054   2.880   5.893   5.517 -0.2128 -0.2243 -0.1253
 6821SOL     OW27055   4.917   1.321   3.193 -0.6736  0.1241 -0.4738
 6821SOL    HW227056   4.938   1.414   3.208 -1.2575  0.2539 -0.4395
 6821SOL    HW327057   4.966   1.274   3.260 -3.1499  0.6824  1.8961
 6821SOL    MW427058   4.926   1.327   3.204 -1.0774  0.2149 -0.1566
 6822SOL     OW27059   5.444   0.975   5.333 -0.1179 -0.0116  0.2209
 6822SOL    HW227060   5.372   0.991   5.395  0.5643  0.2886  0.9504
 6822SOL    HW327061   5.409   1.003   5.249 -1.3643 -1.2122  0.3056
 6822SOL    MW427062   5.430   0.981   5.330 -0.1924 -0.1304  0.3283
 6823SOL     OW27063   5.396   0.155   1.805 -0.1868  0.3829 -0.1728
 6823SOL    HW227064   5.321   0.210   1.786 -1.1697 -1.2537 -1.3146
 6823SOL    HW327065   5.361   0.084   1.859  0.1022 -1.2819 -2.0404
 6823SOL    MW427066   5.382   0.153   1.810 -0.2784 -0.0527 -0.5699
 6824SOL     OW27067   4.132   1.114   5.355  0.7024 -0.0388  0.4067
 6824SOL    HW227068   4.146   1.022   5.375 -1.0429 -0.0652  1.8299
 6824SOL    HW327069   4.199   1.160   5.406  1.7641 -0.5008 -0.5361
 6824SOL    MW427070   4.142   1.108   5.364  0.6122 -0.1032  0.4701
 6825SOL     OW27071   0.268   1.019   0.082  0.2200 -0.3691  0.3907
 6825SOL    HW227072   0.224   1.019  -0.004 -0.0405  2.7424  0.4114
 6825SOL    HW327073   0.198   1.000   0.144  0.2723 -1.9482  0.0127
 6825SOL    MW427074   0.253   1.017   0.079  0.1925 -0.1669  0.3435
 6826SOL     OW27075   3.325   3.480   5.212  0.2796  0.1365  0.1964
 6826SOL    HW227076   3.399   3.430   5.246  0.3289  0.1634  0.1301
 6826SOL    HW327077   3.322   3.458   5.119 -0.1802 -0.3449  0.3170
 6826SOL    MW427078   3.335   3.470   5.204  0.2255  0.0766  0.2035
 6827SOL     OW27079   0.576   5.599   5.991  0.2370 -0.4029 -0.2839
 6827SOL    HW227080   0.486   5.574   5.969  0.1830 -1.4512  0.9854
 6827SOL    HW327081   0.570   5.633   6.080  1.3894 -2.6628  0.7447
 6827SOL    MW427082   0.563   5.600   5.999  0.3819 -0.8394  0.0193
 6828SOL     OW27083   0.089   4.758   0.467  0.5764 -0.1293  0.2055
 6828SOL    HW227084   0.160   4.696   0.484  2.1464  1.2593 -1.0410
 6828SOL    HW327085   0.068   4.745   0.375  1.6741  1.8700 -0.3722
 6828SOL    MW427086   0.096   4.748   0.457  0.9284  0.3177 -0.0352
 6829SOL     OW27087   6.279   5.282   4.076 -0.0360  1.0257 -0.0363
 6829SOL    HW227088   6.224   5.323   4.009  0.6922  0.0359 -1.2840
 6829SOL    HW327089   6.351   5.242   4.027  0.1161 -0.4004  1.2823
 6829SOL    MW427090   6.281   5.282   4.061  0.0801  0.7069 -0.0269
 6830SOL     OW27091   2.778   3.366   3.543 -0.1303  0.2625  0.4714
 6830SOL    HW227092   2.767   3.413   3.626  1.2614 -0.5666  1.1558
 6830SOL    HW327093   2.827   3.287   3.566 -0.9123 -0.6867 -0.9327
 6830SOL    MW427094   2.783   3.362   3.557 -0.0499  0.0279  0.3764
 6831SOL     OW27095   0.861   3.895   0.225 -0.2442 -0.4956  0.3474
 6831SOL    HW227096   0.914   3.899   0.145 -1.3587  0.5632 -0.3727
 6831SOL    HW327097   0.921   3.922   0.294 -0.1879  2.4223 -0.6895
 6831SOL    MW427098   0.876   3.899   0.223 -0.3838  0.0291  0.1156
 6832SOL     OW27099   3.163   3.774   6.297 -0.3620 -0.1939  0.0517
 6832SOL    HW227100   3.078   3.743   6.327  0.5610 -2.3036  0.7168
 6832SOL    HW327101   3.224   3.750   6.367  0.9049  0.4561 -0.7828
 6832SOL    MW427102   3.160   3.766   6.310 -0.0731 -0.3865  0.0293
 6833SOL     OW27103   4.873   5.281   3.230 -0.0703  0.2372  0.2879
 6833SOL    HW227104   4.954   5.238   3.202 -0.5112  0.2989 -1.1888
 6833SOL    HW327105   4.822   5.211   3.271  0.2660 -0.0571  0.2144
 6833SOL    MW427106   4.877   5.266   3.232 -0.0841  0.2065  0.0834
 6834SOL     OW27107   0.871   5.682   3.420  0.3028 -0.1590  0.6526
 6834SOL    HW227108   0.918   5.714   3.497  2.0158  0.5338 -0.5929
 6834SOL    HW327109   0.928   5.706   3.346 -0.6573 -1.9100 -0.7342
 6834SOL    MW427110   0.885   5.690   3.420  0.4022 -0.2986  0.3053
 6835SOL     OW27111   4.270   3.322   2.290  0.3641 -0.6184  0.4538
 6835SOL    HW227112   4.288   3.234   2.256 -0.1664 -0.3073 -0.6778
 6835SOL    HW327113   4.281   3.379   2.214 -0.1155  0.1984  0.9920
 6835SOL    MW427114   4.274   3.318   2.276  0.2309 -0.4696  0.3755
 6836SOL     OW27115   2.618   5.617   3.880 -0.3660  0.3472 -0.4556
 6836SOL    HW227116   2.680   5.684   3.852  0.1667  0.2444  0.4254
 6836SOL    HW327117   2.534   5.662   3.886  0.0204  0.9916  0.2955
 6836SOL    MW427118   2.615   5.632   3.877 -0.2447  0.4187 -0.2403
 6837SOL     OW27119   1.090   2.803   4.381 -0.0633  0.3805 -0.2997
 6837SOL    HW227120   1.163   2.788   4.442 -1.2176 -0.1253  1.0212
 6837SOL    HW327121   1.130   2.844   4.305  1.2618  2.6014  1.4550
 6837SOL    MW427122   1.105   2.807   4.379 -0.0407  0.6068  0.1061
 6838SOL     OW27123   1.660   4.878   0.004  0.9130  0.0386  0.1732
 6838SOL    HW227124   1.611   4.796  -0.010 -1.6657  1.3885  0.6372
 6838SOL    HW327125   1.728   4.854   0.066  0.5226 -1.8491 -0.0439
 6838SOL    MW427126   1.662   4.864   0.010  0.5212 -0.0324  0.2058
 6839SOL     OW27127   1.623   4.050   1.059  0.6295  0.5142  0.1197
 6839SOL    HW227128   1.528   4.039   1.059  0.6968 -0.1480  0.7987
 6839SOL    HW327129   1.656   3.968   1.023  0.9915  0.1730  1.2055
 6839SOL    MW427130   1.615   4.038   1.054  0.6861  0.3818  0.3526
 6840SOL     OW27131   3.609   0.917   2.495  0.3454 -0.5288 -0.5461
 6840SOL    HW227132   3.517   0.891   2.482 -0.2504  0.6741  1.0218
 6840SOL    HW327133   3.615   0.939   2.588  1.4923  2.1192 -1.1455
 6840SOL    MW427134   3.598   0.916   2.505  0.4181 -0.0207 -0.4183
 6841SOL     OW27135   1.317   6.276   1.176 -0.1509 -0.0136  0.4688
 6841SOL    HW227136   1.395   6.259   1.229  0.2616 -3.6992 -1.0259
 6841SOL    HW327137   1.352   6.301   1.090 -0.6522  0.1916  0.3252
 6841SOL    MW427138   1.332   6.277   1.172 -0.1626 -0.4728  0.2526
 6842SOL     OW27139   1.291   5.049   2.540 -0.0271  0.6528  0.1959
 6842SOL    HW227140   1.224   4.981   2.555  1.1503 -0.8683 -1.1017
 6842SOL    HW327141   1.347   5.044   2.618 -0.4460  0.7409  0.5062
 6842SOL    MW427142   1.289   5.039   2.552  0.0730  0.4637  0.0657
 6843SOL     OW27143   0.718   1.470   2.792 -0.0937 -0.5042  0.2270
 6843SOL    HW227144   0.695   1.462   2.885 -0.2713 -1.7123  0.0854
 6843SOL    HW327145   0.681   1.392   2.751 -0.0729  0.0513 -0.8803
 6843SOL    MW427146   0.710   1.459   2.799 -0.1144 -0.5903  0.0622
 6844SOL     OW27147   5.815   4.342   3.468 -0.6129  0.5748 -0.0600
 6844SOL    HW227148   5.895   4.394   3.461  0.6066 -1.1305  0.5860
 6844SOL    HW327149   5.754   4.398   3.516  0.3793  1.6733 -0.0256
 6844SOL    MW427150   5.818   4.357   3.473 -0.3211  0.4948  0.0298
 6845SOL     OW27151   5.012   0.070   3.387 -0.1607  0.3605 -0.2347
 6845SOL    HW227152   4.980   0.159   3.404  0.3924  0.1665  2.1550
 6845SOL    HW327153   5.087   0.083   3.328 -1.2228  1.2817 -1.4252
 6845SOL    MW427154   5.018   0.084   3.382 -0.2278  0.4564 -0.0765
 6846SOL     OW27155   6.077   3.298   6.275 -0.4373 -0.3321  0.0264
 6846SOL    HW227156   6.021   3.229   6.239 -0.2996 -0.6235  0.3755
 6846SOL    HW327157   6.165   3.274   6.248 -0.5378  0.5660 -1.2452
 6846SOL    MW427158   6.081   3.286   6.266 -0.4324 -0.2521 -0.0953
 6847SOL     OW27159   3.202   5.051   2.906  0.7596 -0.0284 -0.4062
 6847SOL    HW227160   3.182   5.106   2.982 -0.2794  0.8782 -1.2982
 6847SOL    HW327161   3.155   5.093   2.833  1.3950 -1.1022 -1.4698
 6847SOL    MW427162   3.193   5.064   2.906  0.7064 -0.0505 -0.6642
 6848SOL     OW27163   1.344   1.640   0.318 -0.5106 -0.2066  0.0216
 6848SOL    HW227164   1.404   1.649   0.391 -0.6247  0.0894  0.0797
 6848SOL    HW327165   1.333   1.546   0.308  1.1918 -0.3466 -0.9899
 6848SOL    MW427166   1.351   1.629   0.326 -0.3010 -0.1860 -0.1042
 6849SOL     OW27167   5.329   3.092   4.150 -0.2141  0.8321 -0.3203
 6849SOL    HW227168   5.371   3.139   4.079  1.2064 -0.8837 -0.6821
 6849SOL    HW327169   5.376   3.119   4.228 -0.6377  1.4053 -0.2567
 6849SOL    MW427170   5.341   3.102   4.151 -0.0826  0.6813 -0.3596
 6850SOL     OW27171   1.736   0.347   4.078 -0.1029  0.1447  0.1261
 6850SOL    HW227172   1.691   0.389   4.152  2.5415  1.7311  1.0013
 6850SOL    HW327173   1.784   0.419   4.036  0.9371 -1.2611 -1.2077
 6850SOL    MW427174   1.737   0.362   4.082  0.3832  0.1686  0.0656
 6851SOL     OW27175   1.900   1.491   1.692 -0.1524  0.0523 -0.1361
 6851SOL    HW227176   1.891   1.507   1.786 -0.3897  0.5947 -0.2464
 6851SOL    HW327177   1.971   1.549   1.665 -2.6912  3.0804 -1.0239
 6851SOL    MW427178   1.908   1.501   1.701 -0.5187  0.5234 -0.2678
 6852SOL     OW27179   3.497   0.788   0.872  0.3549 -0.1682  0.4109
 6852SOL    HW227180   3.530   0.857   0.814  0.8926 -1.0451 -0.3712
 6852SOL    HW327181   3.566   0.722   0.871  0.2397 -0.3312  1.8543
 6852SOL    MW427182   3.511   0.788   0.864  0.4106 -0.3054  0.4982
 6853SOL     OW27183   4.234   1.432   4.843 -0.0799 -0.5344  0.0948
 6853SOL    HW227184   4.216   1.513   4.890 -0.6709 -0.6215  0.0224
 6853SOL    HW327185   4.274   1.460   4.760  1.1365 -0.3880  0.7124
 6853SOL    MW427186   4.237   1.447   4.838  0.0026 -0.5266  0.1667
 6854SOL     OW27187   2.254   5.750   1.430  0.0795  0.1112 -0.6729
 6854SOL    HW227188   2.311   5.802   1.488 -0.1738 -0.1206 -0.2053
 6854SOL    HW327189   2.198   5.701   1.491 -0.7027  0.4273 -1.1243
 6854SOL    MW427190   2.254   5.751   1.446 -0.0571  0.1223 -0.6708
 6855SOL     OW27191   0.670   4.555   4.519  0.5657  0.4656  0.1006
 6855SOL    HW227192   0.733   4.490   4.487 -1.5867 -1.3562 -0.7260
 6855SOL    HW327193   0.638   4.598   4.439 -0.5966  0.0241  0.3122
 6855SOL    MW427194   0.674   4.552   4.504  0.1284  0.1670  0.0195
 6856SOL     OW27195   5.932   2.110   0.722  0.2438 -0.0674  0.5458
 6856SOL    HW227196   5.884   2.129   0.641  1.0535 -0.0796  0.0473
 6856SOL    HW327197   5.876   2.050   0.770 -0.3045  0.0349  0.0482
 6856SOL    MW427198   5.919   2.105   0.717  0.2783 -0.0555  0.4144
 6857SOL     OW27199   3.840   4.611   3.949  1.0722  0.0133  0.2172
 6857SOL    HW227200   3.813   4.697   3.980  1.6338  0.4593 -0.5139
 6857SOL    HW327201   3.758   4.562   3.940  0.4107  1.4199 -2.2286
 6857SOL    MW427202   3.826   4.616   3.952  1.0590  0.2577 -0.2020
 6858SOL     OW27203   1.763   4.918   5.971  0.1608 -0.0331 -0.2404
 6858SOL    HW227204   1.789   4.876   5.889  1.4105  0.2323 -0.0008
 6858SOL    HW327205   1.696   4.981   5.945 -1.3719 -1.7604 -0.6744
 6858SOL    MW427206   1.758   4.921   5.957  0.1235 -0.2260 -0.2660
 6859SOL     OW27207   0.178   4.620   1.164 -0.1120  0.3577 -0.6763
 6859SOL    HW227208   0.212   4.663   1.242 -0.7023  1.8185 -1.1835
 6859SOL    HW327209   0.167   4.529   1.190 -1.2467  0.9828  1.2825
 6859SOL    MW427210   0.181   4.614   1.178 -0.3396  0.6329 -0.4848
 6860SOL     OW27211   5.498   1.894   4.397 -0.0146  0.3742  0.8168
 6860SOL    HW227212   5.510   1.924   4.307  1.9138 -1.2447  0.4503
 6860SOL    HW327213   5.471   1.802   4.388 -2.3799  0.8960  1.9071
 6860SOL    MW427214   5.496   1.886   4.384 -0.0722  0.2295  0.9123
 6861SOL     OW27215   2.298   4.273   1.257  0.0910  0.4545  0.5642
 6861SOL    HW227216   2.348   4.206   1.303  0.3457  1.0931  1.2469
 6861SOL    HW327217   2.210   4.237   1.249  0.3990 -0.2444  0.3004
 6861SOL    MW427218   2.293   4.260   1.262  0.1652  0.4465  0.6195
 6862SOL     OW27219   0.589   1.065   3.101 -0.3000  0.2291  0.2989
 6862SOL    HW227220   0.555   0.995   3.156  1.0348  0.1388  1.0733
 6862SOL    HW327221   0.630   1.020   3.027  0.7089  0.1454  0.8831
 6862SOL    MW427222   0.590   1.050   3.098  0.0093  0.2062  0.4781
 6863SOL     OW27223   1.852   3.764   3.857 -1.1044 -0.3165  0.5402
 6863SOL    HW227224   1.921   3.733   3.799 -0.1725  0.9607  0.9368
 6863SOL    HW327225   1.771   3.751   3.807 -0.3220  0.9038 -1.1229
 6863SOL    MW427226   1.850   3.758   3.843 -0.8782  0.0130  0.3731
 6864SOL     OW27227   2.171   3.182   5.798 -0.0131  0.2149 -0.4165
 6864SOL    HW227228   2.107   3.170   5.727 -0.0340  0.4207 -0.4332
 6864SOL    HW327229   2.127   3.239   5.860 -0.2140 -0.4315  0.0466
 6864SOL    MW427230   2.157   3.188   5.797 -0.0424  0.1568 -0.3576
 6865SOL     OW27231   3.190   1.521   1.288 -0.4209  0.3223 -0.3073
 6865SOL    HW227232   3.139   1.516   1.369 -0.5162  0.6652 -0.3467
 6865SOL    HW327233   3.272   1.562   1.313  0.5231 -1.6490  0.0858
 6865SOL    MW427234   3.194   1.525   1.302 -0.3089  0.1075 -0.2607
 6866SOL     OW27235   4.297   6.290   5.811 -0.3079  0.3005 -0.0922
 6866SOL    HW227236   4.270   6.358   5.874 -0.9962  3.1558 -3.1816
 6866SOL    HW327237   4.218   6.238   5.797 -0.6200  0.6925  0.1798
 6866SOL    MW427238   4.283   6.292   5.818 -0.4399  0.7289 -0.4639
 6867SOL     OW27239   5.992   0.050   6.321  0.2087 -0.0016  0.6338
 6867SOL    HW227240   5.931   0.123   6.308  0.0901  0.1487  1.9390
 6867SOL    HW327241   6.067   0.089   6.365  0.2897 -0.6037  1.0395
 6867SOL    MW427242   5.994   0.065   6.325  0.2038 -0.0612  0.8595
 6868SOL     OW27243   1.679   5.560   0.200  0.0593 -0.6943 -0.8455
 6868SOL    HW227244   1.689   5.609   0.282  0.2192 -1.5932 -0.3223
 6868SOL    HW327245   1.757   5.504   0.197 -0.0635 -0.8293 -1.5034
 6868SOL    MW427246   1.691   5.559   0.211  0.0642 -0.8307 -0.8633
 6869SOL     OW27247   4.079   0.058   0.949 -0.3616  0.0382  0.6511
 6869SOL    HW227248   4.024   0.093   0.878 -1.3131 -1.3253  0.6615
 6869SOL    HW327249   4.157   0.026   0.905  0.3163  1.7075  0.5905
 6869SOL    MW427250   4.082   0.058   0.934 -0.3977  0.0786  0.6445
 6870SOL     OW27251   5.389   5.147   0.888 -0.2266 -0.1804  0.2108
 6870SOL    HW227252   5.370   5.237   0.862 -0.0727  0.1541  1.2073
 6870SOL    HW327253   5.338   5.133   0.968  1.4494 -0.2082  1.3299
 6870SOL    MW427254   5.380   5.157   0.895  0.0148 -0.1399  0.4900
 6871SOL     OW27255   5.519   1.512   0.319  0.8596  0.3553  0.4723
 6871SOL    HW227256   5.544   1.581   0.381  2.2127 -0.7923  1.2467
 6871SOL    HW327257   5.572   1.530   0.241  0.4012  0.8016  0.2514
 6871SOL    MW427258   5.529   1.524   0.317  0.9776  0.2628  0.5453
 6872SOL     OW27259   2.343   2.916   3.348  0.5709  0.2285  0.6430
 6872SOL    HW227260   2.401   2.874   3.412  1.3199 -0.0870 -0.2206
 6872SOL    HW327261   2.402   2.967   3.292 -0.0588  0.4219  0.1509
 6872SOL    MW427262   2.359   2.917   3.349  0.5866  0.2124  0.4641
 6873SOL     OW27263   4.421   2.482   1.275 -0.1703  0.5673  0.4310
 6873SOL    HW227264   4.366   2.546   1.321  1.0174  1.4560  0.6613
 6873SOL    HW327265   4.385   2.480   1.186 -0.9693  0.6527  0.7413
 6873SOL    MW427266   4.409   2.490   1.269 -0.1191  0.6958  0.5023
 6874SOL     OW27267   6.265   5.349   4.470  0.1486 -0.1280  0.7828
 6874SOL    HW227268   6.309   5.364   4.554  1.2924  1.2038 -0.0188
 6874SOL    HW327269   6.325   5.385   4.405 -1.5589  0.5729 -0.4630
 6874SOL    MW427270   6.279   5.356   4.473  0.0743  0.1401  0.5127
 6875SOL     OW27271   0.519   5.197   3.029 -0.3801 -0.3590 -0.3019
 6875SOL    HW227272   0.487   5.284   3.051 -2.7042 -1.8554  2.9889
 6875SOL    HW327273   0.607   5.194   3.067 -0.2846  0.5087 -0.4283
 6875SOL    MW427274   0.527   5.208   3.037 -0.6741 -0.4420  0.1156
 6876SOL     OW27275   1.482   1.149   3.401 -0.4097  0.1318 -0.2621
 6876SOL    HW227276   1.399   1.141   3.353 -0.8361 -0.4922  0.5376
 6876SOL    HW327277   1.491   1.065   3.447  0.2677  0.4911  0.2794
 6876SOL    MW427278   1.472   1.137   3.401 -0.3766  0.0968 -0.0851
 6877SOL     OW27279   3.205   2.067   1.775 -0.0274  0.4652 -0.0455
 6877SOL    HW227280   3.140   2.079   1.707  0.4048 -1.9072 -0.9769
 6877SOL    HW327281   3.283   2.114   1.744 -0.2551  0.5134 -0.5460
 6877SOL    MW427282   3.207   2.075   1.762 -0.0004  0.1586 -0.2344
 6878SOL     OW27283   2.677   2.680   6.211 -0.3373  0.1852 -0.0353
 6878SOL    HW227284   2.598   2.712   6.254 -0.2654  0.0176  0.2316
 6878SOL    HW327285   2.746   2.695   6.276  0.3147  2.6894 -1.2151
 6878SOL    MW427286   2.676   2.686   6.225 -0.2418  0.4935 -0.1558
 6879SOL     OW27287   0.818   0.501   3.992  0.1867  0.2670 -0.6516
 6879SOL    HW227288   0.747   0.480   4.053 -0.4176  2.2269 -0.6202
 6879SOL    HW327289   0.776   0.505   3.906  0.2243  1.4225 -0.6355
 6879SOL    MW427290   0.803   0.499   3.989  0.1119  0.6780 -0.6453
 6880SOL     OW27291   0.382   5.596   0.827 -0.0601  0.0961 -0.3530
 6880SOL    HW227292   0.340   5.630   0.748 -0.4673  0.3563 -0.0270
 6880SOL    HW327293   0.473   5.626   0.821 -0.2423  0.6410 -0.4183
 6880SOL    MW427294   0.389   5.604   0.816 -0.1379  0.2023 -0.3186
 6881SOL     OW27295   0.249   5.850   3.004  0.4345  0.2653 -0.2839
 6881SOL    HW227296   0.324   5.909   2.993  0.2461  0.5243 -0.1702
 6881SOL    HW327297   0.266   5.779   2.942  0.5892  0.5098 -0.5259
 6881SOL    MW427298   0.261   5.848   2.994  0.4301  0.3317 -0.3008
 6882SOL     OW27299   2.343   1.001   2.167  0.3712  0.1018  0.1082
 6882SOL    HW227300   2.421   1.050   2.139 -0.4835  1.5166  0.1061
 6882SOL    HW327301   2.361   0.976   2.257  0.7759  0.5279  0.1462
 6882SOL    MW427302   2.356   1.004   2.175  0.3118  0.3447  0.1130
 6883SOL     OW27303   3.732   6.449   5.405  0.4480  0.2447  0.1143
 6883SOL    HW227304   3.688   6.508   5.467 -2.8746  0.6599 -2.3563
 6883SOL    HW327305   3.754   6.505   5.331  0.3170 -0.9726 -0.8734
 6883SOL    MW427306   3.729   6.464   5.403 -0.0077  0.1389 -0.3420
 6884SOL     OW27307   5.762   4.347   1.605 -0.1597  0.1598 -0.0153
 6884SOL    HW227308   5.852   4.368   1.631  0.2292 -1.2863 -0.0862
 6884SOL    HW327309   5.708   4.377   1.679  0.6499 -1.1904  1.1871
 6884SOL    MW427310   5.767   4.354   1.618 -0.0016 -0.2092  0.1340
 6885SOL     OW27311   5.999   3.008   4.795  0.5022 -0.2999  0.0033
 6885SOL    HW227312   5.931   3.056   4.746  1.3764 -0.4813 -1.4587
 6885SOL    HW327313   5.964   3.001   4.884 -0.8320  0.7041 -0.4016
 6885SOL    MW427314   5.985   3.013   4.800  0.4415 -0.1913 -0.2430
 6886SOL     OW27315   6.350   0.570   4.361 -0.2198  0.2242  0.5752
 6886SOL    HW227316   6.307   0.491   4.327  1.5279  0.4100 -2.3863
 6886SOL    HW327317   6.426   0.538   4.409  0.1173  0.0511 -0.0593
 6886SOL    MW427318   6.354   0.556   4.363  0.0553  0.2259  0.1008
 6887SOL     OW27319   3.850   3.952   3.183 -0.1323 -0.0453 -0.2753
 6887SOL    HW227320   3.759   3.942   3.155 -0.5183  1.8170  0.1822
 6887SOL    HW327321   3.849   4.027   3.243  1.8574  0.6662 -1.0464
 6887SOL    MW427322   3.838   3.961   3.187  0.0793  0.2943 -0.3167
 6888SOL     OW27323   1.354   6.018   0.512 -0.1717  0.2168  0.2529
 6888SOL    HW227324   1.272   6.064   0.494 -0.8820 -0.6483  1.1556
 6888SOL    HW327325   1.327   5.927   0.525  0.9779 -0.1244  0.3059
 6888SOL    MW427326   1.340   6.012   0.511 -0.1137  0.0577  0.3790
 6889SOL     OW27327   1.848   4.785   1.677 -0.5645  0.7805 -0.3911
 6889SOL    HW227328   1.942   4.770   1.672 -0.7379  0.0482 -2.6391
 6889SOL    HW327329   1.840   4.880   1.689  0.4432  0.8749 -0.3477
 6889SOL    MW427330   1.859   4.796   1.678 -0.4545  0.6964 -0.6820
 6890SOL     OW27331   2.525   4.122   0.106  0.3260  0.3721 -0.0543
 6890SOL    HW227332   2.511   4.147   0.015  1.4241 -0.2481 -0.4148
 6890SOL    HW327333   2.458   4.056   0.124 -1.1088  1.8482  0.1958
 6890SOL    MW427334   2.515   4.117   0.096  0.2816  0.4850 -0.0689
 6891SOL     OW27335   2.527   1.208   0.516  0.5731  0.0469  0.0084
 6891SOL    HW227336   2.486   1.215   0.429  0.1903 -2.6771 -0.1240
 6891SOL    HW327337   2.620   1.218   0.500  0.3902  1.0420 -0.4878
 6891SOL    MW427338   2.534   1.210   0.502  0.4985 -0.1812 -0.0746
 6892SOL     OW27339   4.548   2.290   4.749 -0.6576  0.1338  0.1538
 6892SOL    HW227340   4.639   2.321   4.744 -0.1215 -1.4002 -0.2053
 6892SOL    HW327341   4.548   2.228   4.822 -1.2359 -0.4026 -0.2937
 6892SOL    MW427342   4.560   2.286   4.758 -0.6631 -0.1394  0.0474
 6893SOL     OW27343   1.649   4.628   3.073  0.0218 -0.6410  0.4503
 6893SOL    HW227344   1.565   4.630   3.028 -0.1833  4.7084  0.4309
 6893SOL    HW327345   1.627   4.648   3.164  1.0989 -2.7547  1.2258
 6893SOL    MW427346   1.635   4.631   3.079  0.1368 -0.2141  0.5500
 6894SOL     OW27347   5.180   1.127   3.857  0.3609  0.5062  0.0475
 6894SOL    HW227348   5.163   1.204   3.803  1.0705  1.5840  1.2908
 6894SOL    HW327349   5.263   1.092   3.825  0.8729  1.2501  0.5174
 6894SOL    MW427350   5.189   1.132   3.846  0.5221  0.7465  0.2736
 6895SOL     OW27351   1.814   6.330   5.357 -0.0613 -0.3429 -0.3508
 6895SOL    HW227352   1.788   6.422   5.353 -2.5627 -0.9498 -0.0390
 6895SOL    HW327353   1.753   6.290   5.420  1.4492 -2.0739  0.1093
 6895SOL    MW427354   1.802   6.337   5.365 -0.1920 -0.6514 -0.2489
 6896SOL     OW27355   2.781   5.815   3.338  0.0283 -0.3262 -0.1673
 6896SOL    HW227356   2.797   5.727   3.371 -0.0095  0.0117  0.7689
 6896SOL    HW327357   2.848   5.870   3.379  1.0309 -0.1601 -1.9398
 6896SOL    MW427358   2.792   5.811   3.348  0.1556 -0.2597 -0.2776
 6897SOL     OW27359   3.856   3.544   5.461  0.0979  0.2610 -0.4144
 6897SOL    HW227360   3.826   3.462   5.501 -0.0020  0.2848 -0.4384
 6897SOL    HW327361   3.776   3.582   5.424  0.1441  0.3716 -0.3983
 6897SOL    MW427362   3.841   3.538   5.461  0.0908  0.2787 -0.4155
 6898SOL     OW27363   1.121   4.204   3.052  0.6383  0.5414  0.3275
 6898SOL    HW227364   1.213   4.210   3.028  0.3284 -2.8162 -2.6188
 6898SOL    HW327365   1.122   4.177   3.144  2.3673  3.3539  1.2491
 6898SOL    MW427366   1.133   4.201   3.061  0.8255  0.4695  0.0604
 6899SOL     OW27367   3.509   4.275   3.448  0.2254 -0.1798 -0.4756
 6899SOL    HW227368   3.433   4.268   3.392  0.4156 -0.2699 -0.7235
 6899SOL    HW327369   3.518   4.369   3.465 -0.6566 -0.2583  0.5526
 6899SOL    MW427370   3.500   4.287   3.443  0.1341 -0.2021 -0.3726
 6900SOL     OW27371   3.596   5.763   5.562  0.4101  0.2463  0.0435
 6900SOL    HW227372   3.680   5.806   5.579  1.0905 -0.3667 -1.5722
 6900SOL    HW327373   3.582   5.707   5.638  0.1219  2.3150  1.5893
 6900SOL    MW427374   3.605   5.761   5.574  0.4618  0.4384  0.0343
 6901SOL     OW27375   2.629   0.089   4.021  0.0084  0.3652  0.0838
 6901SOL    HW227376   2.572   0.140   3.964 -0.1258  1.0005  0.7693
 6901SOL    HW327377   2.572   0.058   4.091  0.4610  0.8331  0.6657
 6901SOL    MW427378   2.614   0.091   4.023  0.0504  0.5107  0.2510
 6902SOL     OW27379   5.590   6.412   2.230 -0.3342 -0.4262 -0.2255
 6902SOL    HW227380   5.607   6.456   2.314 -0.3515 -0.7544 -0.0507
 6902SOL    HW327381   5.494   6.408   2.225 -0.3307 -0.7771 -0.0647
 6902SOL    MW427382   5.579   6.417   2.241 -0.3360 -0.5158 -0.1812
 6903SOL     OW27383   1.462   2.905   2.353  0.0325 -0.1677  0.3134
 6903SOL    HW227384   1.453   2.999   2.336 -0.6116  0.1237  2.0596
 6903SOL    HW327385   1.386   2.883   2.406 -0.0719 -1.8091 -0.4560
 6903SOL    MW427386   1.451   2.915   2.358 -0.0663 -0.3458  0.4423
 6904SOL     OW27387   0.319   2.331   2.020 -0.9051 -0.0556 -0.0174
 6904SOL    HW227388   0.390   2.273   1.995  1.0044  0.6892  3.1429
 6904SOL    HW327389   0.258   2.276   2.069 -0.3415  0.0894  0.8645
 6904SOL    MW427390   0.320   2.316   2.023 -0.5788  0.0618  0.5159
 6905SOL     OW27391   5.288   5.925   4.308 -0.1613  0.1286  0.1342
 6905SOL    HW227392   5.298   5.836   4.343 -0.6387  0.4413  1.1175
 6905SOL    HW327393   5.232   5.969   4.372  0.7774  1.4030  0.1100
 6905SOL    MW427394   5.282   5.919   4.321 -0.1004  0.3380  0.2608
 6906SOL     OW27395   4.208   4.375   4.658 -0.4830 -0.3240 -0.0282
 6906SOL    HW227396   4.136   4.313   4.675 -0.3964 -0.2957  0.4736
 6906SOL    HW327397   4.285   4.320   4.649 -0.3612 -0.2838  0.6788
 6906SOL    MW427398   4.208   4.359   4.659 -0.4555 -0.3149  0.1313
 6907SOL     OW27399   4.823   1.110   4.970 -0.0890  0.5102 -0.3771
 6907SOL    HW227400   4.876   1.034   4.947 -0.4684  0.1393 -0.0316
 6907SOL    HW327401   4.763   1.078   5.037 -0.6621  0.9539 -0.6712
 6907SOL    MW427402   4.822   1.096   4.976 -0.2147  0.5198 -0.3703
 6908SOL     OW27403   1.357   1.353   0.663 -0.2091  0.0803  0.1271
 6908SOL    HW227404   1.322   1.358   0.574  1.2902 -2.4211 -0.7123
 6908SOL    HW327405   1.283   1.322   0.716 -0.7005  0.1168 -0.5256
 6908SOL    MW427406   1.342   1.350   0.658 -0.0761 -0.2449 -0.0698
 6909SOL     OW27407   2.622   0.448   5.582  0.2604 -0.2414 -0.2965
 6909SOL    HW227408   2.586   0.360   5.580 -2.8847  0.8543  1.4494
 6909SOL    HW327409   2.655   0.458   5.671 -0.0776  0.5531 -0.2530
 6909SOL    MW427410   2.622   0.438   5.593 -0.1992  0.0080 -0.0604
 6910SOL     OW27411   0.667   4.090   1.954 -0.1277  0.1503 -0.4400
 6910SOL    HW227412   0.607   4.101   1.881 -1.5695 -0.1869  0.6410
 6910SOL    HW327413   0.640   4.007   1.994  2.0811 -0.8043 -0.8189
 6910SOL    MW427414   0.655   4.081   1.950 -0.0265 -0.0201 -0.3474
 6911SOL     OW27415   4.609   4.646   1.889 -0.0296  0.6908 -0.2830
 6911SOL    HW227416   4.548   4.708   1.927  0.4701  0.0469  1.6608
 6911SOL    HW327417   4.561   4.563   1.884  0.2673  0.4984  0.0020
 6911SOL    MW427418   4.595   4.643   1.893  0.0755  0.5804  0.0110
 6912SOL     OW27419   2.796   0.972   5.590 -0.0249  0.4087 -0.6235
 6912SOL    HW227420   2.866   0.937   5.535  1.0857  1.9469 -0.2717
 6912SOL    HW327421   2.810   0.930   5.675  0.2127  0.3889 -0.6707
 6912SOL    MW427422   2.807   0.962   5.594  0.1530  0.6090 -0.5833
 6913SOL     OW27423   1.682   1.814   5.610  0.1587  0.4934 -0.0018
 6913SOL    HW227424   1.721   1.819   5.698 -0.1223  0.1346  0.1454
 6913SOL    HW327425   1.592   1.785   5.625  0.4888 -0.8676 -0.4875
 6913SOL    MW427426   1.675   1.811   5.624  0.1652  0.2665 -0.0465
 6914SOL     OW27427   1.594   2.392   5.966  0.1893  0.0042 -0.2086
 6914SOL    HW227428   1.499   2.397   5.968  0.1532 -0.3376 -0.7436
 6914SOL    HW327429   1.613   2.319   5.907  0.7741 -0.4018  0.4575
 6914SOL    MW427430   1.584   2.383   5.958  0.2617 -0.0944 -0.1913
 6915SOL     OW27431   3.779   2.091   1.202  0.3266 -0.1965 -0.1779
 6915SOL    HW227432   3.817   2.008   1.175 -1.7998 -1.4738  0.4994
 6915SOL    HW327433   3.692   2.091   1.161 -0.1318  1.1791  0.7485
 6915SOL    MW427434   3.772   2.080   1.193 -0.0144 -0.1836  0.0337
 6916SOL     OW27435   1.662   0.424   3.142 -0.1764 -0.8229 -0.4102
 6916SOL    HW227436   1.741   0.465   3.107  1.0119 -0.2393  2.5830
 6916SOL    HW327437   1.597   0.494   3.142 -0.1173 -0.7633 -1.1549
 6916SOL    MW427438   1.664   0.439   3.138 -0.0118 -0.7380 -0.1135
 6917SOL     OW27439   2.904   4.285   6.047  0.2951 -0.2049 -0.2102
 6917SOL    HW227440   2.842   4.271   6.119 -0.3491 -1.3607 -0.9643
 6917SOL    HW327441   2.876   4.367   6.007  1.6141  1.2962  1.7752
 6917SOL    MW427442   2.892   4.294   6.051  0.3841 -0.1593 -0.0478
 6918SOL     OW27443   4.245   6.133   0.453 -0.1287 -0.6239  0.4030
 6918SOL    HW227444   4.219   6.041   0.447  0.2514 -0.7425  0.4768
 6918SOL    HW327445   4.325   6.138   0.401  0.3630 -0.5430  1.1491
 6918SOL    MW427446   4.252   6.121   0.446 -0.0136 -0.6289  0.5112
 6919SOL     OW27447   2.039   3.876   1.480 -0.7853 -0.2258 -0.1641
 6919SOL    HW227448   2.023   3.782   1.487 -1.2918 -0.1378 -0.1577
 6919SOL    HW327449   2.050   3.891   1.386  0.2567 -0.4425 -0.0958
 6919SOL    MW427450   2.039   3.865   1.468 -0.7146 -0.2428 -0.1542
 6920SOL     OW27451   4.824   1.561   5.336  0.4157 -0.5452  0.0055
 6920SOL    HW227452   4.789   1.580   5.249  0.1158 -3.6828 -0.6731
 6920SOL    HW327453   4.747   1.558   5.393  0.3248 -0.9883 -0.1404
 6920SOL    MW427454   4.810   1.563   5.332  0.3641 -1.0176 -0.1033
 6921SOL     OW27455   2.067   5.024   5.979 -0.2823 -0.0580  0.0112
 6921SOL    HW227456   1.979   5.027   5.943 -1.3409  1.6947  2.5034
 6921SOL    HW327457   2.124   5.013   5.902 -2.5959 -1.0217 -1.6753
 6921SOL    MW427458   2.063   5.023   5.964 -0.7272  0.0461  0.1175
 6922SOL     OW27459   0.687   3.312   3.172 -0.1204  0.0393 -0.0077
 6922SOL    HW227460   0.694   3.396   3.217  0.0450  0.0550 -0.0637
 6922SOL    HW327461   0.630   3.260   3.228 -1.7157  0.7960 -0.8728
 6922SOL    MW427462   0.681   3.316   3.185 -0.3091  0.1412 -0.1293
 6923SOL     OW27463   1.310   4.485   3.877  0.5491 -0.0898  0.1150
 6923SOL    HW227464   1.366   4.421   3.920  0.7461  0.4571  0.6883
 6923SOL    HW327465   1.228   4.481   3.926  0.0741 -0.8715 -0.7055
 6923SOL    MW427466   1.306   4.476   3.889  0.5124 -0.1207  0.0824
 6924SOL     OW27467   5.489   4.198   6.329 -0.1251  0.1900 -0.4397
 6924SOL    HW227468   5.553   4.202   6.400 -2.0389  0.5308  1.3721
 6924SOL    HW327469   5.541   4.208   6.249  1.9413  1.5962  0.9817
 6924SOL    MW427470   5.505   4.200   6.328 -0.1050  0.4205 -0.0131
 6925SOL     OW27471   3.720   0.728   4.416 -0.0101  0.8164  0.2796
 6925SOL    HW227472   3.690   0.658   4.358 -0.6217  0.5792  0.8741
 6925SOL    HW327473   3.684   0.808   4.377 -1.4500  0.5359  0.9745
 6925SOL    MW427474   3.711   0.730   4.403 -0.2807  0.7481  0.4497
 6926SOL     OW27475   1.708   1.340   6.388 -0.6591 -0.2834 -0.0272
 6926SOL    HW227476   1.792   1.384   6.373 -0.5013 -1.2116 -2.3283
 6926SOL    HW327477   1.729   1.265   6.443  0.6493 -2.0792 -2.7324
 6926SOL    MW427478   1.722   1.336   6.393 -0.4657 -0.6428 -0.6877
 6927SOL     OW27479   1.500   1.618   2.691  0.4123 -0.3906 -0.7165
 6927SOL    HW227480   1.581   1.669   2.698 -0.1197  0.2481  1.6683
 6927SOL    HW327481   1.473   1.629   2.600  0.5593  3.2960 -0.4558
 6927SOL    MW427482   1.507   1.626   2.680  0.3615  0.1801 -0.3675
 6928SOL     OW27483   1.384   4.288   1.335 -0.0588 -0.1477 -0.7438
 6928SOL    HW227484   1.327   4.287   1.258 -0.6449  1.7991 -0.3769
 6928SOL    HW327485   1.351   4.360   1.389  1.3218 -0.4611  0.5912
 6928SOL    MW427486   1.372   4.297   1.332  0.0460  0.0678 -0.5193
 6929SOL     OW27487   5.548   2.718   5.269 -0.2431  0.3496 -0.4025
 6929SOL    HW227488   5.454   2.700   5.269 -0.0106 -0.9773 -0.7372
 6929SOL    HW327489   5.576   2.692   5.181  0.7368 -1.0543  0.2883
 6929SOL    MW427490   5.539   2.712   5.257 -0.0831 -0.0107 -0.3556
 6930SOL     OW27491   5.120   0.078   2.819  0.1992  0.4400 -0.3371
 6930SOL    HW227492   5.144   0.055   2.729  1.0587  1.2791 -0.3322
 6930SOL    HW327493   5.194   0.130   2.851 -0.5051  0.9104  0.5531
 6930SOL    MW427494   5.133   0.082   2.811  0.2196  0.6128 -0.2190
 6931SOL     OW27495   2.858   2.288   3.310 -0.1363  0.4006 -0.6103
 6931SOL    HW227496   2.798   2.345   3.261 -2.4772 -2.4033 -1.2700
 6931SOL    HW327497   2.812   2.269   3.391  0.8570 -0.1176 -0.1519
 6931SOL    MW427498   2.844   2.293   3.314 -0.3141 -0.0377 -0.6369
 6932SOL     OW27499   2.269   3.306   1.849 -0.0957 -0.4426 -0.1816
 6932SOL    HW227500   2.265   3.226   1.797  0.0120 -0.7982  0.3484
 6932SOL    HW327501   2.351   3.348   1.823 -0.3702 -0.2728 -0.7880
 6932SOL    MW427502   2.279   3.301   1.839 -0.1177 -0.4671 -0.1917
 6933SOL     OW27503   2.160   3.912   6.127  0.7582  0.2056 -0.0341
 6933SOL    HW227504   2.159   3.982   6.192 -0.0347  0.7721 -0.6372
 6933SOL    HW327505   2.173   3.957   6.043  0.4486 -0.3824 -0.4048
 6933SOL    MW427506   2.162   3.927   6.124  0.6127  0.2028 -0.1626
 6934SOL     OW27507   2.000   2.566   2.328 -0.2881 -0.2990  0.0069
 6934SOL    HW227508   2.093   2.584   2.319 -0.1712  0.1461  1.8760
 6934SOL    HW327509   1.968   2.629   2.392 -1.9896 -0.1465 -0.9094
 6934SOL    MW427510   2.008   2.577   2.335 -0.4971 -0.2202  0.1327
 6935SOL     OW27511   5.709   2.450   2.125 -0.1031  0.0873  0.0629
 6935SOL    HW227512   5.679   2.405   2.205 -0.4434 -1.1915 -0.7474
 6935SOL    HW327513   5.745   2.533   2.156  0.0679 -0.5186  1.5790
 6935SOL    MW427514   5.710   2.455   2.140 -0.1254 -0.1614  0.1560
 6936SOL     OW27515   6.038   0.305   4.714 -0.2458  0.3448  0.0700
 6936SOL    HW227516   6.070   0.222   4.678  0.1725  1.1438 -1.4551
 6936SOL    HW327517   6.117   0.354   4.736 -0.4897  0.4032  0.8554
 6936SOL    MW427518   6.052   0.300   4.712 -0.2228  0.4579 -0.0276
 6937SOL     OW27519   0.377   4.690   1.963  0.1208 -0.3535  0.1985
 6937SOL    HW227520   0.450   4.668   1.906  0.1657  0.9864 -0.2900
 6937SOL    HW327521   0.300   4.687   1.906 -0.2859 -2.0377  0.7689
 6937SOL    MW427522   0.376   4.687   1.948  0.0730 -0.3989  0.2093
 6938SOL     OW27523   0.430   0.882   4.434  0.8194 -0.0917  0.6877
 6938SOL    HW227524   0.479   0.828   4.372 -0.4635 -2.0969  1.3559
 6938SOL    HW327525   0.438   0.837   4.517 -1.0685  0.2299  1.0844
 6938SOL    MW427526   0.438   0.869   4.436  0.4010 -0.3138  0.8282
 6939SOL     OW27527   5.789   1.009   3.793  0.0081  0.1373 -0.4934
 6939SOL    HW227528   5.722   1.022   3.861 -0.4844  1.4167 -1.1960
 6939SOL    HW327529   5.845   0.940   3.828 -1.7837 -1.1316  0.0479
 6939SOL    MW427530   5.787   1.002   3.806 -0.2933  0.1387 -0.5147
 6940SOL     OW27531   4.337   4.430   2.998  0.1169  0.0408  0.0256
 6940SOL    HW227532   4.416   4.390   2.963  0.1315  1.4214 -1.5918
 6940SOL    HW327533   4.268   4.366   2.980  0.4721 -0.1405 -0.7124
 6940SOL    MW427534   4.338   4.416   2.991  0.1657  0.1991 -0.2852
 6941SOL     OW27535   1.056   0.923   2.327 -0.0575 -0.3401 -0.0748
 6941SOL    HW227536   1.140   0.918   2.372  1.1600  1.4624 -1.9303
 6941SOL    HW327537   1.015   1.004   2.359  0.0974  0.1121 -0.9648
 6941SOL    MW427538   1.061   0.933   2.337  0.1236 -0.0426 -0.4370
 6942SOL     OW27539   6.317   2.133   1.867 -0.2137 -0.1864  0.0374
 6942SOL    HW227540   6.368   2.212   1.884 -2.0440  1.0263  0.1553
 6942SOL    HW327541   6.324   2.120   1.772  2.7381 -1.8411  0.3581
 6942SOL    MW427542   6.324   2.142   1.857 -0.0657 -0.2447  0.0953
 6943SOL     OW27543   4.817   2.685   4.983  0.3999 -0.1215  0.1930
 6943SOL    HW227544   4.909   2.711   4.977  0.1738  0.4612 -0.8652
 6943SOL    HW327545   4.819   2.590   4.984  0.9300 -0.1623 -1.6915
 6943SOL    MW427546   4.830   2.676   4.983  0.4401 -0.0500 -0.1953
 6944SOL     OW27547   2.997   2.655   6.053  0.1163  0.0833  0.5193
 6944SOL    HW227548   3.088   2.684   6.063 -0.4503  1.9091  0.7946
 6944SOL    HW327549   2.974   2.620   6.139  0.1225  1.0045  0.9092
 6944SOL    MW427550   3.006   2.654   6.066  0.0424  0.4458  0.6071
 6945SOL     OW27551   2.017   3.924   4.765 -0.0514  0.1545 -0.5139
 6945SOL    HW227552   2.009   3.853   4.702 -1.2419  0.4744 -0.7492
 6945SOL    HW327553   1.976   3.891   4.845  3.0421 -0.9484  0.7962
 6945SOL    MW427554   2.011   3.910   4.768  0.1996  0.0512 -0.3721
 6946SOL     OW27555   5.589   2.911   1.165 -0.0680 -0.0633 -0.3040
 6946SOL    HW227556   5.587   2.819   1.139  1.3693 -0.0847 -0.4474
 6946SOL    HW327557   5.566   2.959   1.085  2.0434 -0.2224 -1.0768
 6946SOL    MW427558   5.586   2.906   1.151  0.4002 -0.0871 -0.4249
 6947SOL     OW27559   3.507   2.595   5.834  0.9893  0.1600 -0.0823
 6947SOL    HW227560   3.578   2.587   5.899  0.1101 -0.9870  0.7735
 6947SOL    HW327561   3.429   2.613   5.886 -0.0045 -2.2140 -0.6508
 6947SOL    MW427562   3.506   2.596   5.850  0.7422 -0.3045 -0.0444
 6948SOL     OW27563   3.461   2.194   1.345  0.1509  0.0922  0.3878
 6948SOL    HW227564   3.392   2.128   1.339 -0.7258  1.0679 -0.7046
 6948SOL    HW327565   3.436   2.261   1.281  1.8439  0.7222  0.3271
 6948SOL    MW427566   3.448   2.194   1.336  0.2586  0.3041  0.2357
 6949SOL     OW27567   4.011   0.296   2.572 -0.1315 -0.7481  0.0393
 6949SOL    HW227568   4.052   0.210   2.588 -0.7921 -0.8490  1.3542
 6949SOL    HW327569   3.947   0.279   2.503 -0.1302 -1.2760  0.1591
 6949SOL    MW427570   4.008   0.282   2.565 -0.2185 -0.8310  0.2286
 6950SOL     OW27571   2.846   0.389   0.140 -0.2902  0.0477 -0.7315
 6950SOL    HW227572   2.835   0.482   0.158 -1.1441  0.1543 -1.7529
 6950SOL    HW327573   2.855   0.349   0.227  0.1021  1.0707 -0.2858
 6950SOL    MW427574   2.846   0.396   0.154 -0.3511  0.1967 -0.8075
 6951SOL     OW27575   5.755   3.745   3.810  0.4339 -0.2634  0.3809
 6951SOL    HW227576   5.665   3.728   3.783  0.4703  2.0034 -1.4327
 6951SOL    HW327577   5.759   3.840   3.824  2.7183 -0.1737 -0.3937
 6951SOL    MW427578   5.744   3.755   3.809  0.7401  0.0475  0.0394
 6952SOL     OW27579   2.564   3.306   1.546 -0.2674  0.5392  0.3211
 6952SOL    HW227580   2.557   3.214   1.524 -0.7433  0.6967 -0.1980
 6952SOL    HW327581   2.524   3.352   1.472 -1.2044  1.1004  1.1516
 6952SOL    MW427582   2.558   3.300   1.534 -0.4538  0.6340  0.3622
 6953SOL     OW27583   3.646   4.559   0.926 -0.5488  0.1979 -0.8441
 6953SOL    HW227584   3.679   4.481   0.970 -0.2979 -0.3929 -2.0419
 6953SOL    HW327585   3.557   4.570   0.959 -0.1307  0.1901  0.3314
 6953SOL    MW427586   3.639   4.550   0.936 -0.4605  0.1190 -0.8470
 6954SOL     OW27587   3.839   5.588   0.654 -0.4707  1.1385 -0.5081
 6954SOL    HW227588   3.820   5.497   0.674  1.6799  0.8017  0.3235
 6954SOL    HW327589   3.868   5.626   0.737 -0.2409  2.2661 -1.0709
 6954SOL    MW427590   3.840   5.581   0.667 -0.1566  1.2429 -0.4727
 6955SOL     OW27591   4.246   2.093   0.622 -0.0786 -0.2462 -0.7306
 6955SOL    HW227592   4.199   2.154   0.565 -1.1584 -1.0481 -0.7520
 6955SOL    HW327593   4.273   2.022   0.563 -0.9908 -0.9616 -0.3116
 6955SOL    MW427594   4.243   2.091   0.606 -0.3415 -0.4464 -0.6782
 6956SOL     OW27595   3.893   5.652   5.240 -0.3683 -0.0223 -0.4427
 6956SOL    HW227596   3.856   5.735   5.211  0.3288  0.6626  0.5678
 6956SOL    HW327597   3.836   5.624   5.311 -0.8067 -0.6090 -1.0055
 6956SOL    MW427598   3.881   5.659   5.245 -0.3342 -0.0093 -0.3836
 6957SOL     OW27599   3.299   5.597   2.994  0.2500 -0.3683 -0.1610
 6957SOL    HW227600   3.244   5.543   3.050 -0.9150  0.0941 -0.8319
 6957SOL    HW327601   3.318   5.675   3.047 -0.6285 -0.0532 -0.2914
 6957SOL    MW427602   3.295   5.600   3.008 -0.0196 -0.2657 -0.2667
 6958SOL     OW27603   4.013   0.059   4.311  0.3839 -0.6091 -0.8642
 6958SOL    HW227604   4.045   0.075   4.223  0.2683  0.2172 -0.7699
 6958SOL    HW327605   4.038   0.138   4.360 -1.9782  0.2303 -0.8538
 6958SOL    MW427606   4.020   0.072   4.306  0.0570 -0.3893 -0.8503
 6959SOL     OW27607   2.988   4.473   3.230  0.6262  0.2742  0.0690
 6959SOL    HW227608   2.964   4.444   3.318  0.5537  1.4614  0.4685
 6959SOL    HW327609   3.081   4.495   3.237  0.5241  0.7452 -0.0393
 6959SOL    MW427610   2.997   4.472   3.243  0.6032  0.4930  0.1074
 6960SOL     OW27611   1.656   3.277   0.448 -0.4039  0.0529 -0.2887
 6960SOL    HW227612   1.653   3.346   0.515 -3.1213  0.9622 -1.1668
 6960SOL    HW327613   1.603   3.207   0.485 -0.7653 -0.0030 -0.9075
 6960SOL    MW427614   1.648   3.277   0.462 -0.8101  0.1655 -0.4862
 6961SOL     OW27615   6.046   2.034   3.522 -0.0225  0.2057  0.7521
 6961SOL    HW227616   5.991   1.958   3.539 -0.0057  0.1766  0.6787
 6961SOL    HW327617   6.068   2.026   3.429  0.1374  0.1967  0.7917
 6961SOL    MW427618   6.041   2.023   3.512  0.0008  0.2006  0.7476
 6962SOL     OW27619   4.824   4.297   2.860  0.0731 -0.1394 -0.2027
 6962SOL    HW227620   4.729   4.293   2.869  0.0017 -1.1601 -1.1662
 6962SOL    HW327621   4.840   4.287   2.766  1.0553  2.2541 -0.3585
 6962SOL    MW427622   4.814   4.295   2.849  0.1933  0.0417 -0.3504
 6963SOL     OW27623   3.625   4.724   2.829  0.1968  0.5899  0.6955
 6963SOL    HW227624   3.651   4.811   2.796  0.5091  0.0136 -0.6210
 6963SOL    HW327625   3.552   4.742   2.888 -0.7042  1.6408 -0.6635
 6963SOL    MW427626   3.619   4.738   2.832  0.1191  0.6525  0.3425
 6964SOL     OW27627   2.512   4.564   2.896  0.1041 -0.2365  0.3118
 6964SOL    HW227628   2.606   4.559   2.882  0.0790 -1.4003  0.4118
 6964SOL    HW327629   2.496   4.507   2.972 -0.6765 -0.0549  0.2976
 6964SOL    MW427630   2.522   4.556   2.904 -0.0022 -0.3661  0.3231
 6965SOL     OW27631   3.130   0.066   1.654  0.2527  0.3977  0.1575
 6965SOL    HW227632   3.123   0.030   1.566  0.2851 -0.9601  0.6801
 6965SOL    HW327633   3.061   0.022   1.703 -1.4492  2.9677  0.2758
 6965SOL    MW427634   3.120   0.056   1.649  0.0324  0.5576  0.2420
 6966SOL     OW27635   4.001   5.171   5.332  0.5388 -0.0601  0.1472
 6966SOL    HW227636   3.955   5.132   5.406 -1.1241 -1.1486 -1.3825
 6966SOL    HW327637   4.011   5.263   5.356  0.7238 -0.5340  2.0253
 6966SOL    MW427638   3.996   5.178   5.345  0.3438 -0.2663  0.1931
 6967SOL     OW27639   6.160   0.636   4.573  0.1973 -0.2861  0.4583
 6967SOL    HW227640   6.171   0.666   4.663 -0.8924  2.3284 -0.1637
 6967SOL    HW327641   6.249   0.623   4.541  0.7004  0.7621  1.3477
 6967SOL    MW427642   6.173   0.639   4.580  0.1199  0.1971  0.4936
 6968SOL     OW27643   2.360   4.334   0.781 -0.4272  0.0003  0.5393
 6968SOL    HW227644   2.418   4.294   0.846  1.1794  0.7475 -0.3655
 6968SOL    HW327645   2.390   4.298   0.697 -0.8578  0.8843 -0.0130
 6968SOL    MW427646   2.371   4.324   0.778 -0.2720  0.2155  0.3471
 6969SOL     OW27647   2.862   6.015   1.133 -0.0059 -0.5058  0.1341
 6969SOL    HW227648   2.806   5.939   1.150 -0.3284  0.0053  1.4589
 6969SOL    HW327649   2.922   6.018   1.207  0.6104  0.0022 -0.3756
 6969SOL    MW427650   2.862   6.005   1.145  0.0329 -0.3713  0.2416
 6970SOL     OW27651   2.602   5.122   1.706  0.1339  0.1891 -0.3426
 6970SOL    HW227652   2.662   5.145   1.636  0.1526 -1.2376 -0.8133
 6970SOL    HW327653   2.658   5.087   1.775  0.1853  2.1171  0.6802
 6970SOL    MW427654   2.617   5.120   1.706  0.1431  0.2552 -0.2698
 6971SOL     OW27655   3.571   2.843   6.401  0.0505  0.6246  0.2050
 6971SOL    HW227656   3.478   2.864   6.387 -0.0918  1.7140  2.3625
 6971SOL    HW327657   3.617   2.921   6.371  0.3160  0.0449 -0.9575
 6971SOL    MW427658   3.565   2.856   6.395  0.0668  0.6918  0.3363
 6972SOL     OW27659   3.478   1.483   5.182 -0.3940 -0.6476  0.6588
 6972SOL    HW227660   3.539   1.509   5.113 -0.8991  0.1453  0.5013
 6972SOL    HW327661   3.487   1.550   5.250 -0.2139 -1.1875  1.1842
 6972SOL    MW427662   3.487   1.495   5.182 -0.4369 -0.6142  0.7073
 6973SOL     OW27663   3.299   0.860   2.526  0.0436  0.1054 -0.3272
 6973SOL    HW227664   3.293   0.806   2.447  0.5409  0.6478 -0.7554
 6973SOL    HW327665   3.231   0.926   2.515 -0.3125 -0.2036  0.0114
 6973SOL    MW427666   3.290   0.862   2.514  0.0622  0.1362 -0.3390
 6974SOL     OW27667   2.293   5.762   0.247 -0.1123 -0.2853 -0.0082
 6974SOL    HW227668   2.264   5.770   0.338 -0.9557  0.8449 -0.3558
 6974SOL    HW327669   2.385   5.788   0.249  0.4291 -2.1091  0.8109
 6974SOL    MW427670   2.301   5.767   0.260 -0.1522 -0.3768  0.0540
 6975SOL     OW27671   2.834   2.813   2.641 -0.1163  0.0672  0.0839
 6975SOL    HW227672   2.824   2.889   2.698  0.8577  0.3848 -0.1453
 6975SOL    HW327673   2.927   2.793   2.645 -0.0636 -0.0330 -1.2246
 6975SOL    MW427674   2.845   2.821   2.649  0.0191  0.0959 -0.1190
 6976SOL     OW27675   1.205   1.400   0.420 -0.2849  0.8170  0.1943
 6976SOL    HW227676   1.111   1.397   0.434 -0.1550 -2.9807  1.3416
 6976SOL    HW327677   1.217   1.369   0.330 -0.1481 -0.9820  0.7821
 6976SOL    MW427678   1.194   1.396   0.410 -0.2497  0.0786  0.4232
 6977SOL     OW27679   0.276   2.517   4.583  0.0599  0.6508 -0.0821
 6977SOL    HW227680   0.260   2.612   4.586  0.2514  0.6772  0.0458
 6977SOL    HW327681   0.194   2.481   4.548 -1.4198  0.5071  3.1587
 6977SOL    MW427682   0.263   2.525   4.579 -0.1101  0.6353  0.3624
 6978SOL     OW27683   2.275   0.555   0.696 -0.2957  0.5480 -0.3162
 6978SOL    HW227684   2.220   0.605   0.635 -0.8730  1.3812  0.8528
 6978SOL    HW327685   2.271   0.465   0.662  0.4772  1.1856 -2.2592
 6978SOL    MW427686   2.267   0.550   0.683 -0.2699  0.7420 -0.4183
 6979SOL     OW27687   1.248   4.849   4.129 -0.2330 -0.0808  0.1157
 6979SOL    HW227688   1.202   4.784   4.076 -0.0191  0.8360 -1.2477
 6979SOL    HW327689   1.186   4.921   4.138 -0.3034 -0.2592  1.2350
 6979SOL    MW427690   1.234   4.850   4.123 -0.2141  0.0166  0.0835
 6980SOL     OW27691   5.588   2.041   1.835  0.2476  0.9237 -0.4551
 6980SOL    HW227692   5.648   1.997   1.776  1.6873  1.9731  0.1669
 6980SOL    HW327693   5.559   2.119   1.786  0.9661  1.4680 -0.0363
 6980SOL    MW427694   5.592   2.046   1.821  0.5323  1.1339 -0.3178
 6981SOL     OW27695   5.544   4.116   2.602  0.4605 -0.2604 -0.1410
 6981SOL    HW227696   5.627   4.162   2.617  0.9358 -1.7197  2.4145
 6981SOL    HW327697   5.563   4.054   2.531  1.7663 -0.9235  0.7429
 6981SOL    MW427698   5.557   4.114   2.595  0.6955 -0.5404  0.3128
 6982SOL     OW27699   1.966   2.930   2.098 -0.2971  0.0512  0.5715
 6982SOL    HW227700   1.959   2.838   2.071 -0.4785  0.4524 -0.8349
 6982SOL    HW327701   1.906   2.977   2.040 -0.7925  0.9753  1.7884
 6982SOL    MW427702   1.957   2.924   2.087 -0.3864  0.2260  0.5465
 6983SOL     OW27703   3.713   5.312   1.627 -0.0826 -0.2720 -0.4354
 6983SOL    HW227704   3.797   5.357   1.631 -0.5397  0.5422  0.5997
 6983SOL    HW327705   3.684   5.323   1.537  0.7975 -0.3460 -0.7380
 6983SOL    MW427706   3.720   5.319   1.616 -0.0268 -0.1744 -0.3387
 6984SOL     OW27707   2.833   5.794   0.196  0.0677  0.3926  0.2452
 6984SOL    HW227708   2.854   5.868   0.138  1.5926  0.0046  0.2544
 6984SOL    HW327709   2.856   5.825   0.283 -0.9964  0.5239  0.4799
 6984SOL    MW427710   2.839   5.808   0.200  0.1285  0.3587  0.2774
 6985SOL     OW27711   1.689   2.796   2.477 -0.0527  0.3434 -0.0682
 6985SOL    HW227712   1.676   2.708   2.444 -0.9926  0.2161  0.6190
 6985SOL    HW327713   1.606   2.841   2.461 -0.1878  0.5734  1.2070
 6985SOL    MW427714   1.677   2.791   2.470 -0.1945  0.3569  0.1907
 6986SOL     OW27715   0.296   1.326   3.348 -0.5395 -0.2578 -0.1207
 6986SOL    HW227716   0.305   1.295   3.258 -1.3528 -0.6431 -0.0810
 6986SOL    HW327717   0.230   1.269   3.386 -0.6230  0.2749  0.5471
 6986SOL    MW427718   0.288   1.315   3.341 -0.6578 -0.2384 -0.0274
 6987SOL     OW27719   1.784   4.850   5.117 -0.3961  0.3243  0.5543
 6987SOL    HW227720   1.826   4.840   5.202  0.8421 -0.4624 -0.1204
 6987SOL    HW327721   1.811   4.772   5.068 -1.5169  0.5063 -0.3787
 6987SOL    MW427722   1.793   4.839   5.122 -0.3806  0.2445  0.3422
 6988SOL     OW27723   1.609   5.125   5.860 -0.1589 -0.3561  0.0045
 6988SOL    HW227724   1.592   5.206   5.908  0.7659 -0.5129  0.6183
 6988SOL    HW327725   1.652   5.153   5.780 -0.9015 -0.1624 -0.3376
 6988SOL    MW427726   1.612   5.139   5.856 -0.1348 -0.3513  0.0403
 6989SOL     OW27727   1.408   1.771   3.955  0.2773  0.0432 -0.4938
 6989SOL    HW227728   1.344   1.781   4.026 -0.1683 -0.8255 -0.7571
 6989SOL    HW327729   1.484   1.731   3.996  0.9673  1.7639 -0.0229
 6989SOL    MW427730   1.409   1.767   3.969  0.3095  0.1556 -0.4664
 6990SOL     OW27731   5.773   6.341   4.119  0.8305  0.2392  0.4723
 6990SOL    HW227732   5.698   6.308   4.169 -0.2451  2.1987  0.2609
 6990SOL    HW327733   5.802   6.419   4.168  0.4350  1.5857 -1.3396
 6990SOL    MW427734   5.767   6.347   4.132  0.6364  0.6754  0.2054
 6991SOL     OW27735   4.833   4.234   0.084  0.0301  0.6298 -0.1121
 6991SOL    HW227736   4.859   4.321   0.053  0.1540  0.2603 -1.0800
 6991SOL    HW327737   4.908   4.178   0.066  0.8402  0.7392  2.5766
 6991SOL    MW427738   4.846   4.238   0.078  0.1533  0.5955  0.1149
 6992SOL     OW27739   2.203   5.032   0.505  0.0490  0.3460  0.1365
 6992SOL    HW227740   2.239   5.080   0.430  0.1109 -0.0859 -0.1175
 6992SOL    HW327741   2.280   5.001   0.553  0.0442  2.3139  1.5266
 6992SOL    MW427742   2.218   5.034   0.501  0.0565  0.5486  0.2864
 6993SOL     OW27743   5.946   6.093   4.280  0.6499 -0.0833  0.2426
 6993SOL    HW227744   5.852   6.105   4.292  0.7210 -0.7554  1.6424
 6993SOL    HW327745   5.962   6.122   4.190 -0.9121 -0.0806 -0.0732
 6993SOL    MW427746   5.935   6.098   4.270  0.4532 -0.1716  0.3856
 6994SOL     OW27747   2.708   0.359   3.128 -0.4414  0.0625  0.4736
 6994SOL    HW227748   2.765   0.319   3.062 -0.4115  0.9668 -0.0714
 6994SOL    HW327749   2.626   0.309   3.122 -0.9424  1.0091 -1.2639
 6994SOL    MW427750   2.704   0.347   3.118 -0.5036  0.3067  0.1725
 6995SOL     OW27751   2.364   3.258   4.756  0.4792 -0.0096  0.3747
 6995SOL    HW227752   2.372   3.305   4.838  2.9635  0.7752 -0.2114
 6995SOL    HW327753   2.394   3.169   4.776 -0.1493 -0.1844  0.5671
 6995SOL    MW427754   2.369   3.253   4.769  0.7241  0.0709  0.3228
 6996SOL     OW27755   3.065   0.828   3.377  0.4851 -0.1781 -0.3494
 6996SOL    HW227756   3.081   0.768   3.303  0.6626 -0.3216 -0.1954
 6996SOL    HW327757   2.980   0.802   3.410  0.5103 -0.2702 -0.3558
 6996SOL    MW427758   3.056   0.816   3.371  0.5118 -0.2092 -0.3300
 6997SOL     OW27759   1.685   4.326   0.021 -0.1781  0.6317 -0.5666
 6997SOL    HW227760   1.638   4.325   0.105  0.1780  0.6626 -0.3652
 6997SOL    HW327761   1.706   4.418   0.007  1.9750  0.3613  0.5613
 6997SOL    MW427762   1.681   4.338   0.030  0.1530  0.6001 -0.3912
 6998SOL     OW27763   2.643   1.236   4.650 -0.1152  0.4208 -0.2194
 6998SOL    HW227764   2.561   1.285   4.647  0.4123  1.3943  0.6209
 6998SOL    HW327765   2.639   1.179   4.574 -1.7205  0.1930 -0.0146
 6998SOL    MW427766   2.632   1.235   4.640 -0.2574  0.5192 -0.0815
 6999SOL     OW27767   2.614   4.179   5.011 -0.2904 -0.0234 -0.1433
 6999SOL    HW227768   2.592   4.269   4.987 -0.5679  0.1821  0.8546
 6999SOL    HW327769   2.539   4.148   5.062  0.1800 -0.5187  0.2597
 6999SOL    MW427770   2.601   4.187   5.014 -0.2650 -0.0616  0.0415
 7000SOL     OW27771   2.061   2.724   5.870 -0.4473 -0.2418  0.4567
 7000SOL    HW227772   1.989   2.787   5.882 -0.7539 -0.2548 -1.1087
 7000SOL    HW327773   2.017   2.640   5.855 -0.0754 -0.4194  0.3615
 7000SOL    MW427774   2.045   2.721   5.870 -0.4387 -0.2670  0.2376
 7001SOL     OW27775   2.641   2.300   1.979  0.2931  0.1635  0.2161
 7001SOL    HW227776   2.591   2.333   2.054  1.3331  1.2036  0.4666
 7001SOL    HW327777   2.618   2.359   1.907 -0.5959 -0.7509 -0.2886
 7001SOL    MW427778   2.631   2.312   1.979  0.3130  0.1801  0.1825
 7002SOL     OW27779   1.897   5.060   4.940  0.0955  0.0602 -0.0319
 7002SOL    HW227780   1.854   5.024   4.863  0.1886 -0.3512  0.1061
 7002SOL    HW327781   1.865   5.008   5.013  0.6327 -0.0948  0.1040
 7002SOL    MW427782   1.887   5.049   4.939  0.1786 -0.0145  0.0042
 7003SOL     OW27783   2.476   3.460   1.734  0.0916 -0.2767 -0.6267
 7003SOL    HW227784   2.385   3.480   1.715  0.2221 -0.4469 -1.4556
 7003SOL    HW327785   2.500   3.390   1.673  0.3759 -1.2310  0.5452
 7003SOL    MW427786   2.467   3.454   1.723  0.1463 -0.4251 -0.5814
 7004SOL     OW27787   4.019   2.639   2.619 -0.2522 -0.1843 -0.0163
 7004SOL    HW227788   4.040   2.705   2.686  1.2579  0.3618 -0.9606
 7004SOL    HW327789   4.033   2.685   2.536  0.4302 -1.5747 -0.6963
 7004SOL    MW427790   4.024   2.654   2.617  0.0371 -0.2957 -0.2306
 7005SOL     OW27791   2.216   4.713   4.837 -0.4126 -0.4154 -0.0596
 7005SOL    HW227792   2.135   4.669   4.812 -0.7022 -0.3634  0.7730
 7005SOL    HW327793   2.205   4.803   4.805 -1.9205  0.4106  2.4442
 7005SOL    MW427794   2.204   4.719   4.829 -0.6497 -0.2996  0.3806
 7006SOL     OW27795   5.470   0.968   0.524 -0.1770  0.2387 -0.0829
 7006SOL    HW227796   5.395   1.004   0.571 -0.0725  3.3897 -2.0613
 7006SOL    HW327797   5.497   1.038   0.464  1.7918 -2.2805 -2.3926
 7006SOL    MW427798   5.464   0.982   0.522  0.0965  0.3221 -0.6487
 7007SOL     OW27799   2.204   4.532   6.042 -0.0458  0.1791 -0.4490
 7007SOL    HW227800   2.277   4.520   5.981 -0.2868  0.4225 -0.7881
 7007SOL    HW327801   2.199   4.626   6.055 -0.2619  0.1568 -0.3728
 7007SOL    MW427802   2.213   4.542   6.036 -0.1061  0.2082 -0.4837
 7008SOL     OW27803   6.351   0.374   4.733  0.2361 -0.0229  0.3873
 7008SOL    HW227804   6.343   0.281   4.752 -1.3975 -0.2943 -1.3641
 7008SOL    HW327805   6.385   0.412   4.814 -0.0537 -1.9760  1.4818
 7008SOL    MW427806   6.354   0.367   4.746 -0.0177 -0.3164  0.3006
 7009SOL     OW27807   3.684   2.265   0.495  0.2316  0.9543  0.1279
 7009SOL    HW227808   3.658   2.221   0.576  3.9171  0.5156  1.2681
 7009SOL    HW327809   3.602   2.288   0.453 -1.8643 -0.6085  2.9936
 7009SOL    MW427810   3.670   2.262   0.500  0.4414  0.6903  0.6564
 7010SOL     OW27811   2.296   5.392   6.412  0.3316  0.4288  0.3180
 7010SOL    HW227812   2.281   5.486   6.404  0.2298  0.3878  0.0114
 7010SOL    HW327813   2.291   5.359   6.323  0.9843  0.2199  0.3499
 7010SOL    MW427814   2.293   5.400   6.400  0.4043  0.3959  0.2818
 7011SOL     OW27815   5.923   0.708   4.791  0.1258 -0.3864  0.3154
 7011SOL    HW227816   5.924   0.692   4.885  1.4382 -2.1728  0.0545
 7011SOL    HW327817   5.912   0.803   4.783 -0.1278 -0.2139  2.2549
 7011SOL    MW427818   5.922   0.719   4.802  0.2655 -0.5993  0.5369
 7012SOL     OW27819   3.315   4.965   4.990  0.1449 -0.3415 -0.1167
 7012SOL    HW227820   3.224   4.934   4.993 -0.3442  0.9525 -0.8314
 7012SOL    HW327821   3.362   4.905   5.048 -1.2169 -0.8357  0.5332
 7012SOL    MW427822   3.309   4.953   4.998 -0.0993 -0.2360 -0.1252
 7013SOL     OW27823   3.921   4.706   4.389  0.1997  0.6210 -0.4826
 7013SOL    HW227824   3.892   4.797   4.398  2.6553  1.3340  1.3542
 7013SOL    HW327825   3.932   4.676   4.480  0.7674 -1.0365 -1.0691
 7013SOL    MW427826   3.919   4.714   4.402  0.5986  0.4964 -0.3176
 7014SOL     OW27827   5.712   2.064   2.106 -0.0314 -0.7601 -0.3724
 7014SOL    HW227828   5.709   2.009   2.184  0.1954  0.5421  0.5829
 7014SOL    HW327829   5.651   2.022   2.045  1.0748 -2.7657 -0.1776
 7014SOL    MW427830   5.703   2.051   2.108  0.1445 -0.8529 -0.2206
 7015SOL     OW27831   2.163   0.460   5.332  0.4467 -0.1804  0.4666
 7015SOL    HW227832   2.255   0.437   5.325  0.0838 -1.0278 -3.5278
 7015SOL    HW327833   2.122   0.384   5.372  1.1800 -0.5943  0.4479
 7015SOL    MW427834   2.170   0.447   5.337  0.4956 -0.3468 -0.0628
 7016SOL     OW27835   5.874   0.592   1.806 -0.3035  0.4400 -0.1060
 7016SOL    HW227836   5.879   0.682   1.839 -2.8333  0.0872  1.5120
 7016SOL    HW327837   5.929   0.542   1.866  0.1759  0.7351 -0.2966
 7016SOL    MW427838   5.882   0.598   1.819 -0.5740  0.4324  0.0823
 7017SOL     OW27839   2.659   5.284   3.012  0.4852  0.0784 -0.0647
 7017SOL    HW227840   2.675   5.226   2.938  1.3653  0.0265  0.1607
 7017SOL    HW327841   2.742   5.287   3.059 -0.3148 -0.7344  1.5208
 7017SOL    MW427842   2.672   5.277   3.008  0.4957 -0.0357  0.1742
 7018SOL     OW27843   2.722   0.085   2.614 -0.1949 -0.1352 -0.0129
 7018SOL    HW227844   2.736   0.169   2.571  0.1363  0.3435  0.9997
 7018SOL    HW327845   2.636   0.057   2.584 -1.1271  1.4509  1.0040
 7018SOL    MW427846   2.712   0.092   2.605 -0.2742  0.1372  0.2549
 7019SOL     OW27847   2.009   1.379   2.439 -0.1944  0.3139  0.3461
 7019SOL    HW227848   1.982   1.386   2.530 -1.4440  1.0122 -0.0568
 7019SOL    HW327849   2.085   1.321   2.441 -0.5184 -0.0958  1.7613
 7019SOL    MW427850   2.015   1.372   2.451 -0.4020  0.3519  0.4797
 7020SOL     OW27851   5.184   2.387   2.538  0.5602  0.5271 -0.4667
 7020SOL    HW227852   5.216   2.422   2.621 -0.3646  2.0117 -0.7044
 7020SOL    HW327853   5.228   2.440   2.471 -1.6620  2.0193 -0.8160
 7020SOL    MW427854   5.194   2.398   2.540  0.1450  0.9199 -0.5442
 7021SOL     OW27855   1.784   6.441   2.581  0.2048 -0.0208 -0.4694
 7021SOL    HW227856   1.772   6.431   2.675 -0.4754 -0.4719 -0.5962
 7021SOL    HW327857   1.791   6.536   2.568 -2.9114  0.3506 -0.2758
 7021SOL    MW427858   1.783   6.452   2.592 -0.2961 -0.0313 -0.4606
 7022SOL     OW27859   3.212   0.601   1.639 -0.4706  0.5584  0.1358
 7022SOL    HW227860   3.167   0.520   1.664  1.4997 -1.2502 -1.7267
 7022SOL    HW327861   3.185   0.617   1.549  2.5004 -0.6601 -1.0924
 7022SOL    MW427862   3.203   0.592   1.631  0.1813  0.1590 -0.2720
 7023SOL     OW27863   2.213   1.219   4.824  0.1239  0.0035 -0.1726
 7023SOL    HW227864   2.251   1.237   4.738 -1.1645 -1.4088 -1.0910
 7023SOL    HW327865   2.264   1.273   4.884  1.1510  0.9323 -1.7923
 7023SOL    MW427866   2.225   1.228   4.820  0.0895 -0.0603 -0.5074
 7024SOL     OW27867   0.103   6.433   3.612 -0.0211  0.5134  0.0622
 7024SOL    HW227868   0.032   6.390   3.660 -0.3772 -0.7222 -1.5109
 7024SOL    HW327869   0.117   6.515   3.660 -0.5958 -0.4734  2.0405
 7024SOL    MW427870   0.096   6.438   3.625 -0.1439  0.2202  0.1156
 7025SOL     OW27871   0.204   1.902   4.495 -0.2115 -0.0624 -0.4883
 7025SOL    HW227872   0.166   1.818   4.521 -0.6865  0.1536 -0.4738
 7025SOL    HW327873   0.190   1.960   4.569  0.2637 -0.0126 -0.4344
 7025SOL    MW427874   0.197   1.898   4.508 -0.2114 -0.0273 -0.4793
 7026SOL     OW27875   6.364   2.145   3.372 -0.0865  0.2617  0.2238
 7026SOL    HW227876   6.391   2.185   3.455  1.7947 -0.7657  0.1476
 7026SOL    HW327877   6.402   2.058   3.373 -0.7225 -0.0719 -1.3762
 7026SOL    MW427878   6.373   2.139   3.383  0.0778  0.0821  0.0026
 7027SOL     OW27879   2.233   4.032   2.544 -0.5276 -0.3102  0.1747
 7027SOL    HW227880   2.273   4.115   2.573 -1.5095 -0.2251  1.3468
 7027SOL    HW327881   2.301   3.991   2.490  1.1690 -0.1711  2.0930
 7027SOL    MW427882   2.247   4.038   2.540 -0.4333 -0.2806  0.5824
 7028SOL     OW27883   3.125   0.749   6.256 -0.0271 -0.0524 -0.1164
 7028SOL    HW227884   3.035   0.767   6.229 -0.6200 -1.6235  0.6816
 7028SOL    HW327885   3.116   0.695   6.334  1.6279  0.7269  0.6526
 7028SOL    MW427886   3.112   0.744   6.262  0.1130 -0.1569  0.0903
 7029SOL     OW27887   5.885   4.199   4.295 -0.5687  0.3772  0.5331
 7029SOL    HW227888   5.796   4.165   4.306 -0.5122  0.8783  3.1861
 7029SOL    HW327889   5.887   4.280   4.346  0.5312  2.2172 -2.1374
 7029SOL    MW427890   5.874   4.205   4.303 -0.4161  0.6861  0.5308
 7030SOL     OW27891   2.755   1.762   0.265 -0.1756  0.0636  0.1221
 7030SOL    HW227892   2.786   1.844   0.228 -1.3395 -0.6673 -2.7099
 7030SOL    HW327893   2.702   1.788   0.340 -1.3572  2.0231 -1.2977
 7030SOL    MW427894   2.752   1.776   0.270 -0.4851  0.2257 -0.4389
 7031SOL     OW27895   0.389   6.095   0.647  0.2909  0.4452  0.1597
 7031SOL    HW227896   0.423   6.179   0.614  0.1954 -0.5137 -2.6380
 7031SOL    HW327897   0.343   6.057   0.572  0.3282 -2.1305  1.3449
 7031SOL    MW427898   0.388   6.101   0.632  0.2832 -0.0212 -0.0530
 7032SOL     OW27899   4.722   0.868   3.369  1.1336 -0.1340 -0.0135
 7032SOL    HW227900   4.680   0.952   3.387 -0.3454 -0.7827 -0.3074
 7032SOL    HW327901   4.725   0.862   3.274  3.2489  0.5217 -0.0380
 7032SOL    MW427902   4.717   0.878   3.359  1.2176 -0.1331 -0.0555
 7033SOL     OW27903   5.474   4.636   1.306  0.1684  0.6202 -0.0474
 7033SOL    HW227904   5.552   4.581   1.313  0.5326  1.2437  1.3221
 7033SOL    HW327905   5.411   4.583   1.258  1.7376  0.4749 -2.0903
 7033SOL    MW427906   5.476   4.622   1.301  0.4235  0.6833 -0.1362
 7034SOL     OW27907   6.049   0.924   2.388 -0.1666  0.1040 -0.5272
 7034SOL    HW227908   5.997   0.847   2.411  0.5931  0.2903  2.1560
 7034SOL    HW327909   6.030   0.987   2.458  2.0186  0.9660 -0.6471
 7034SOL    MW427910   6.039   0.922   2.400  0.2219  0.2423 -0.1890
 7035SOL     OW27911   4.186   2.170   4.122  0.0079 -0.0968  0.1140
 7035SOL    HW227912   4.211   2.213   4.204  0.1603  1.9513 -0.9591
 7035SOL    HW327913   4.120   2.106   4.148  0.7956 -0.2206  1.9584
 7035SOL    MW427914   4.181   2.167   4.136  0.1319  0.1570  0.2158
 7036SOL     OW27915   0.751   2.887   2.934  0.5889  0.8143  0.3277
 7036SOL    HW227916   0.753   2.808   2.988 -1.0512 -0.2497 -1.0645
 7036SOL    HW327917   0.836   2.888   2.890  1.0845  0.4996  1.2573
 7036SOL    MW427918   0.763   2.877   2.935  0.4379  0.6324  0.2666
 7037SOL     OW27919   5.248   4.148   4.587  0.4515  0.2720 -0.3569
 7037SOL    HW227920   5.220   4.237   4.608 -0.6580 -0.1580  0.0499
 7037SOL    HW327921   5.310   4.126   4.656 -2.3654 -0.7411  2.0802
 7037SOL    MW427922   5.252   4.157   4.599 -0.0665  0.0816  0.0183
 7038SOL     OW27923   5.231   0.088   6.408 -0.5636  0.3346 -0.0501
 7038SOL    HW227924   5.146   0.076   6.452 -0.1731 -0.6172  0.4788
 7038SOL    HW327925   5.293   0.040   6.463  0.5602  2.0888  0.2825
 7038SOL    MW427926   5.228   0.080   6.421 -0.3638  0.4405  0.0636
 7039SOL     OW27927   2.156   2.940   5.191  0.3597  0.0466 -0.1127
 7039SOL    HW227928   2.211   2.864   5.208 -0.1542 -0.1353  0.7917
 7039SOL    HW327929   2.092   2.909   5.127 -0.0473 -0.3944  0.4920
 7039SOL    MW427930   2.154   2.926   5.185  0.2382 -0.0356  0.0864
 7040SOL     OW27931   4.051   0.863   1.915 -0.4456 -0.6887  0.2797
 7040SOL    HW227932   3.980   0.884   1.854  1.0405  0.3207 -1.2108
 7040SOL    HW327933   4.008   0.819   1.988 -2.5817 -0.1479 -0.5714
 7040SOL    MW427934   4.036   0.860   1.917 -0.5313 -0.4842 -0.0292
 7041SOL     OW27935   1.226   0.637   1.032  0.2666 -0.2130  0.5613
 7041SOL    HW227936   1.275   0.718   1.046  1.4507 -0.7739 -0.1655
 7041SOL    HW327937   1.134   0.663   1.038  0.6018  1.3155 -0.3607
 7041SOL    MW427938   1.221   0.651   1.035  0.4671 -0.0853  0.3438
 7042SOL     OW27939   0.793   5.162   5.846 -0.1026  0.2376 -0.5551
 7042SOL    HW227940   0.712   5.119   5.875 -0.4682  1.7122  0.7558
 7042SOL    HW327941   0.763   5.245   5.807  0.7825  1.2001  0.7233
 7042SOL    MW427942   0.778   5.167   5.845 -0.0341  0.5591 -0.2134
 7043SOL     OW27943   4.406   5.235   2.504 -0.3998 -0.1314 -0.5457
 7043SOL    HW227944   4.368   5.235   2.416 -2.6837  1.1119  0.3389
 7043SOL    HW327945   4.441   5.323   2.515 -0.6354 -0.0987 -0.0336
 7043SOL    MW427946   4.405   5.246   2.494 -0.7322  0.0369 -0.3614
 7044SOL     OW27947   2.524   5.200   0.142 -0.1021  0.1714  0.1120
 7044SOL    HW227948   2.531   5.195   0.047 -1.6952  1.0150 -0.0776
 7044SOL    HW327949   2.608   5.167   0.174  0.2578 -0.6090 -1.5612
 7044SOL    MW427950   2.536   5.195   0.133 -0.2648  0.1798 -0.1338
 7045SOL     OW27951   0.638   3.517   0.880  0.3828 -0.2188 -1.1378
 7045SOL    HW227952   0.545   3.516   0.905  0.3210  0.5726 -1.2999
 7045SOL    HW327953   0.682   3.469   0.950 -0.0577  0.0773 -0.6444
 7045SOL    MW427954   0.631   3.510   0.893  0.3166 -0.0753 -1.0941
 7046SOL     OW27955   5.014   2.543   5.869  0.3675  0.2840 -0.3759
 7046SOL    HW227956   5.101   2.514   5.841  0.2716 -0.6737  0.2846
 7046SOL    HW327957   5.007   2.514   5.960 -0.9240 -0.3266 -0.6478
 7046SOL    MW427958   5.025   2.535   5.877  0.1845  0.0771 -0.3246
 7047SOL     OW27959   0.594   6.041   4.042  0.0105  0.4260 -0.3571
 7047SOL    HW227960   0.653   5.968   4.058 -1.1938 -0.6840 -0.7651
 7047SOL    HW327961   0.639   6.117   4.078  1.1927 -0.5499  0.2968
 7047SOL    MW427962   0.608   6.041   4.049  0.0076  0.1508 -0.3247
 7048SOL     OW27963   2.429   0.627   4.103  0.1309  0.4957 -0.5114
 7048SOL    HW227964   2.385   0.546   4.076  0.7926  0.0854 -0.3995
 7048SOL    HW327965   2.407   0.636   4.196  0.4820  0.1549 -0.3919
 7048SOL    MW427966   2.420   0.617   4.112  0.2645  0.3966 -0.4808
 7049SOL     OW27967   0.033   2.990   3.845  0.8244  0.0060  0.3618
 7049SOL    HW227968  -0.034   2.937   3.888  1.6242 -1.6053 -0.3031
 7049SOL    HW327969   0.112   2.937   3.848  1.2157  0.3379 -1.9817
 7049SOL    MW427970   0.034   2.976   3.851  0.9815 -0.1628 -0.0351
 7050SOL     OW27971   6.137   4.805   2.943  0.0529  0.0592  0.2861
 7050SOL    HW227972   6.149   4.893   2.977  2.0300 -0.2135  0.3794
 7050SOL    HW327973   6.148   4.748   3.020  1.8256 -0.4078 -0.2769
 7050SOL    MW427974   6.140   4.809   2.958  0.5476 -0.0384  0.2241
 7051SOL     OW27975   4.620   4.165   5.510 -0.4026 -0.1837  0.2535
 7051SOL    HW227976   4.679   4.099   5.474 -1.2493  0.2573 -2.1441
 7051SOL    HW327977   4.674   4.244   5.516  0.0706 -0.5607  1.2034
 7051SOL    MW427978   4.635   4.167   5.506 -0.4519 -0.1752  0.0625
 7052SOL     OW27979   5.789   5.672   5.456  0.8474  0.0415  0.0559
 7052SOL    HW227980   5.739   5.613   5.400  2.3047 -1.7864  0.6011
 7052SOL    HW327981   5.726   5.703   5.521 -0.4914  0.9825 -1.5746
 7052SOL    MW427982   5.774   5.669   5.457  0.8630 -0.0755 -0.0873
 7053SOL     OW27983   6.112   2.064   3.261 -0.0802 -0.1452  0.2889
 7053SOL    HW227984   6.109   1.995   3.195 -1.0715  0.4544 -0.3274
 7053SOL    HW327985   6.205   2.072   3.283 -0.0191 -2.1916  0.9683
 7053SOL    MW427986   6.124   2.056   3.255 -0.2030 -0.3361  0.2973
 7054SOL     OW27987   4.115   3.070   3.985  0.4108  0.1000  0.2881
 7054SOL    HW227988   4.088   3.152   3.944  0.6077 -0.1508 -0.3538
 7054SOL    HW327989   4.042   3.046   4.043 -0.0570  0.2292 -0.2468
 7054SOL    MW427990   4.102   3.078   3.987  0.3751  0.0840  0.1328
 7055SOL     OW27991   4.500   5.851   1.869  0.7567 -0.3317 -0.6124
 7055SOL    HW227992   4.548   5.827   1.790  4.1019 -0.1068  1.1626
 7055SOL    HW327993   4.424   5.900   1.837  0.6076 -2.3263 -3.7239
 7055SOL    MW427994   4.496   5.855   1.854  1.1784 -0.5652 -0.7888
 7056SOL     OW27995   1.007   3.755   2.158 -0.6514 -1.0182 -0.3479
 7056SOL    HW227996   0.942   3.692   2.188 -2.2779  0.4068 -0.6851
 7056SOL    HW327997   0.998   3.757   2.063 -0.9101 -0.0350 -0.3200
 7056SOL    MW427998   0.997   3.747   2.150 -0.9001 -0.7005 -0.3887
 7057SOL     OW27999   3.272   6.204   0.129 -0.3377 -0.3112 -0.0624
 7057SOL    HW228000   3.233   6.152   0.200  1.2254 -0.7751  0.4958
 7057SOL    HW328001   3.280   6.142   0.056 -0.4064 -0.2796 -0.0972
 7057SOL    MW428002   3.268   6.189   0.129 -0.1405 -0.3682  0.0066
 7058SOL     OW28003   0.020   4.434   4.797 -0.0972 -0.2499  0.1073
 7058SOL    HW228004   0.103   4.448   4.842  0.2424 -0.6745 -0.3816
 7058SOL    HW328005   0.002   4.517   4.753 -0.4010  0.1504  0.9614
 7058SOL    MW428006   0.028   4.447   4.797 -0.0924 -0.2531  0.1555
 7059SOL     OW28007   5.616   1.609   4.805  0.4357  0.3117 -0.0035
 7059SOL    HW228008   5.542   1.669   4.813 -0.3184 -0.5595 -0.3123
 7059SOL    HW328009   5.685   1.661   4.764 -0.1351  1.0237 -0.0820
 7059SOL    MW428010   5.615   1.623   4.801  0.2609  0.2907 -0.0546
 7060SOL     OW28011   5.770   2.531   5.965 -0.6223  0.1335  0.3272
 7060SOL    HW228012   5.804   2.608   5.919 -1.8066  1.2058  1.1997
 7060SOL    HW328013   5.762   2.464   5.896  2.9970 -0.1927  0.0163
 7060SOL    MW428014   5.773   2.532   5.950 -0.3011  0.2319  0.4013
 7061SOL     OW28015   1.189   1.294   4.206  0.3701  0.0548 -0.0156
 7061SOL    HW228016   1.193   1.384   4.238  0.2269  0.2278 -0.4768
 7061SOL    HW328017   1.109   1.258   4.244  1.7870 -0.7629  2.4063
 7061SOL    MW428018   1.179   1.301   4.215  0.5381 -0.0303  0.2431
 7062SOL     OW28019   5.728   3.073   2.486  0.3677 -0.2802 -0.4774
 7062SOL    HW228020   5.764   3.056   2.399  0.2120 -0.9007 -0.4265
 7062SOL    HW328021   5.801   3.110   2.536 -0.3198  3.1220 -1.7277
 7062SOL    MW428022   5.742   3.075   2.481  0.2564  0.0868 -0.6357
 7063SOL     OW28023   6.298   6.029   0.827 -0.3768 -0.1672 -0.1809
 7063SOL    HW228024   6.246   6.018   0.907 -0.3262 -0.3389 -0.1726
 7063SOL    HW328025   6.237   6.069   0.765 -0.8327 -1.3440 -0.5113
 7063SOL    MW428026   6.283   6.033   0.829 -0.4303 -0.3451 -0.2234
 7064SOL     OW28027   2.088   4.057   0.383  0.0798 -0.4896  0.4759
 7064SOL    HW228028   2.104   3.985   0.323  0.0580  0.4970 -0.7416
 7064SOL    HW328029   2.173   4.075   0.423  0.2618 -0.6241  0.1449
 7064SOL    MW428030   2.101   4.050   0.381  0.1009 -0.3772  0.2716
 7065SOL     OW28031   3.823   4.116   0.380 -0.3085  0.0963 -0.1704
 7065SOL    HW228032   3.834   4.206   0.350 -1.4147  0.8188  1.4132
 7065SOL    HW328033   3.873   4.112   0.462 -1.5642 -0.2172  0.6106
 7065SOL    MW428034   3.831   4.127   0.387 -0.6201  0.1503  0.1416
 7066SOL     OW28035   5.571   0.585   3.910  0.6554  0.4050  0.1750
 7066SOL    HW228036   5.572   0.638   3.989 -1.8468  0.6892  0.1127
 7066SOL    HW328037   5.548   0.497   3.940  2.7346 -0.2234  0.0512
 7066SOL    MW428038   5.568   0.580   3.924  0.5996  0.3596  0.1504
 7067SOL     OW28039   4.596   6.375   1.697 -0.4731  0.1637 -0.3752
 7067SOL    HW228040   4.683   6.353   1.730  0.7265  4.2776 -0.2312
 7067SOL    HW328041   4.612   6.412   1.610 -2.1370  0.5164 -0.5547
 7067SOL    MW428042   4.610   6.377   1.690 -0.5343  0.7530 -0.3798
 7068SOL     OW28043   1.054   0.315   2.606 -0.6042  0.1821 -0.0316
 7068SOL    HW228044   1.095   0.400   2.594  2.4041 -1.0991  0.1819
 7068SOL    HW328045   1.073   0.267   2.526 -1.0257 -0.7392  0.3986
 7068SOL    MW428046   1.062   0.320   2.594 -0.2629 -0.1085  0.0534
 7069SOL     OW28047   5.434   6.153   6.191 -0.4368 -0.4926 -0.2967
 7069SOL    HW228048   5.419   6.089   6.261  0.6566 -1.1084 -0.6015
 7069SOL    HW328049   5.501   6.211   6.227 -0.6743 -0.1438 -0.4181
 7069SOL    MW428050   5.441   6.152   6.205 -0.3238 -0.5278 -0.3530
 7070SOL     OW28051   0.817   3.895   1.409 -0.3105 -0.1113  0.1663
 7070SOL    HW228052   0.894   3.885   1.466 -0.0217  0.8092 -0.0440
 7070SOL    HW328053   0.750   3.932   1.466 -0.1318  0.4773 -0.0022
 7070SOL    MW428054   0.819   3.899   1.424 -0.2488  0.0878  0.1163
 7071SOL     OW28055   3.568   4.133   1.899 -0.5337  0.2855 -0.5562
 7071SOL    HW228056   3.571   4.228   1.909 -0.6877  0.4555 -1.9570
 7071SOL    HW328057   3.486   4.107   1.941  1.0563  0.3042  2.9253
 7071SOL    MW428058   3.558   4.142   1.906 -0.3442  0.3104 -0.2817
 7072SOL     OW28059   5.638   3.367   3.730 -0.1655 -0.9895  0.0492
 7072SOL    HW228060   5.677   3.309   3.664  0.5535  1.3312 -1.6782
 7072SOL    HW328061   5.568   3.413   3.683  0.9026  1.3442  0.5959
 7072SOL    MW428062   5.634   3.365   3.715  0.0703 -0.3754 -0.1066
 7073SOL     OW28063   5.481   3.078   0.977 -0.0082  0.3335  0.1099
 7073SOL    HW228064   5.470   3.157   1.030 -1.6329 -0.6618  1.3579
 7073SOL    HW328065   5.401   3.027   0.993  0.1029 -0.6929 -2.1880
 7073SOL    MW428066   5.469   3.082   0.986 -0.2079  0.0668 -0.0286
 7074SOL     OW28067   2.071   1.052   5.841 -0.4462  0.2121 -0.4612
 7074SOL    HW228068   2.070   0.979   5.779  2.7102  0.5294 -1.0333
 7074SOL    HW328069   2.097   1.128   5.789 -0.6215  1.1006  0.7037
 7074SOL    MW428070   2.074   1.053   5.826 -0.0529  0.3712 -0.3830
 7075SOL     OW28071   6.401   2.240   1.221 -0.2198  0.2708  0.2035
 7075SOL    HW228072   6.419   2.334   1.217 -2.8795  0.8469 -0.2411
 7075SOL    HW328073   6.453   2.203   1.151  2.7613  0.9740  1.8674
 7075SOL    MW428074   6.410   2.248   1.211 -0.1774  0.4396  0.3644
 7076SOL     OW28075   4.868   1.992   5.401  0.0016  0.0295 -0.0260
 7076SOL    HW228076   4.791   1.951   5.440  0.7377  1.2216  2.9260
 7076SOL    HW328077   4.858   2.085   5.419  0.6559  0.6439 -2.4170
 7076SOL    MW428078   4.856   1.999   5.409  0.1851  0.2679  0.0480
 7077SOL     OW28079   2.445   1.151   3.269 -0.2850 -0.1019  0.2753
 7077SOL    HW228080   2.408   1.214   3.330 -0.3333  0.3553 -0.2217
 7077SOL    HW328081   2.396   1.164   3.188  1.1659  0.7525 -0.5063
 7077SOL    MW428082   2.434   1.161   3.266 -0.0999  0.0712  0.1066
 7078SOL     OW28083   1.820   1.763   5.850  0.1664 -0.1053  0.2310
 7078SOL    HW228084   1.904   1.754   5.895 -0.2849  1.5658  1.5131
 7078SOL    HW328085   1.803   1.676   5.814  2.5813 -0.4052 -0.3572
 7078SOL    MW428086   1.829   1.750   5.852  0.4255  0.0756  0.3225
 7079SOL     OW28087   0.477   0.760   5.831  0.0398 -0.2554  0.6305
 7079SOL    HW228088   0.436   0.691   5.779  1.1487 -1.8184  1.7159
 7079SOL    HW328089   0.500   0.717   5.913 -0.1428  1.6947  1.7797
 7079SOL    MW428090   0.475   0.745   5.835  0.1620 -0.2043  0.9253
 7080SOL     OW28091   0.838   1.925   4.520 -0.0158 -0.8105 -0.1240
 7080SOL    HW228092   0.836   2.021   4.519 -0.4334 -0.8152  0.0303
 7080SOL    HW328093   0.928   1.903   4.496 -0.0013 -0.3869 -0.4845
 7080SOL    MW428094   0.850   1.935   4.517 -0.0690 -0.7552 -0.1512
 7081SOL     OW28095   3.445   1.628   5.613  0.1737 -0.3394  0.3331
 7081SOL    HW228096   3.507   1.690   5.650  0.5323 -0.0363 -0.7435
 7081SOL    HW328097   3.486   1.542   5.625  0.9668 -0.1117 -0.6655
 7081SOL    MW428098   3.458   1.625   5.620  0.3256 -0.2693  0.0593
 7082SOL     OW28099   4.748   4.976   6.233  0.6005 -0.3082 -0.3152
 7082SOL    HW228100   4.687   4.915   6.274  0.9083 -0.0880  0.4801
 7082SOL    HW328101   4.822   4.982   6.294  1.9493 -1.4012 -1.7514
 7082SOL    MW428102   4.750   4.969   6.246  0.8191 -0.4234 -0.3998
 7083SOL     OW28103   2.186   6.450   3.471  0.3796  0.0963  0.1720
 7083SOL    HW228104   2.256   6.391   3.496  1.0726  0.6218 -0.4781
 7083SOL    HW328105   2.105   6.400   3.485  0.8606 -0.4024  1.2075
 7083SOL    MW428106   2.184   6.436   3.476  0.5345  0.0998  0.2229
 7084SOL     OW28107   0.708   0.775   2.595 -0.1472  0.1834  0.4637
 7084SOL    HW228108   0.690   0.752   2.686 -0.4346  1.1101  0.6480
 7084SOL    HW328109   0.663   0.707   2.544 -1.0449  0.3651  0.9887
 7084SOL    MW428110   0.700   0.763   2.600 -0.3036  0.3297  0.5573
 7085SOL     OW28111   3.944   3.901   5.024  0.3523 -0.3226 -0.2712
 7085SOL    HW228112   3.851   3.884   5.010  0.3980 -1.3709  0.6511
 7085SOL    HW328113   3.973   3.834   5.085  1.8947 -0.4699 -1.0987
 7085SOL    MW428114   3.936   3.890   5.030  0.5618 -0.4804 -0.2587
 7086SOL     OW28115   0.735   2.809   6.350  0.2126  0.3929 -0.2498
 7086SOL    HW228116   0.715   2.760   6.430 -0.6716  0.7526 -0.2412
 7086SOL    HW328117   0.739   2.742   6.282  0.1512  0.1802 -0.0450
 7086SOL    MW428118   0.733   2.794   6.351  0.0878  0.4123 -0.2217
 7087SOL     OW28119   5.438   4.099   4.804 -0.5794  0.1954  0.4370
 7087SOL    HW228120   5.447   4.021   4.859  2.6323  0.7758  0.9450
 7087SOL    HW328121   5.370   4.151   4.847 -0.6586 -0.9747  1.8271
 7087SOL    MW428122   5.430   4.095   4.817 -0.1661  0.1176  0.6875
 7088SOL     OW28123   0.551   5.195   2.754 -0.5454  0.3166 -0.5234
 7088SOL    HW228124   0.500   5.121   2.720 -0.3325  0.1909 -0.5671
 7088SOL    HW328125   0.540   5.189   2.849  1.4236 -1.2142 -0.3211
 7088SOL    MW428126   0.543   5.184   2.762 -0.2575  0.0981 -0.5025
 7089SOL     OW28127   0.915   1.308   0.765 -0.2792  0.0046  0.1113
 7089SOL    HW228128   0.898   1.399   0.741 -1.9937 -0.1019  0.8290
 7089SOL    HW328129   0.955   1.270   0.686 -0.5601  1.0878 -0.5753
 7089SOL    MW428130   0.918   1.315   0.751 -0.5424  0.1334  0.1154
 7090SOL     OW28131   5.951   5.194   5.413 -0.6638  0.1947 -0.4856
 7090SOL    HW228132   6.027   5.143   5.440  0.3251  2.0717  0.5770
 7090SOL    HW328133   5.946   5.183   5.318  1.8915  1.1636 -0.8186
 7090SOL    MW428134   5.960   5.186   5.404 -0.1962  0.5702 -0.3893
 7091SOL     OW28135   5.615   0.334   4.057 -0.1418 -0.7647 -0.0358
 7091SOL    HW228136   5.593   0.268   3.991 -0.5614 -0.7010  0.0354
 7091SOL    HW328137   5.542   0.330   4.119  0.0650 -0.5614  0.2223
 7091SOL    MW428138   5.602   0.325   4.057 -0.1699 -0.7295  0.0076
 7092SOL     OW28139   1.240   6.046   1.496 -0.2195 -0.4318  0.5362
 7092SOL    HW228140   1.234   6.141   1.504 -0.8852 -0.3905 -0.3288
 7092SOL    HW328141   1.193   6.012   1.572 -0.9640 -0.0618  0.2458
 7092SOL    MW428142   1.233   6.054   1.507 -0.4055 -0.3775  0.3838
 7093SOL     OW28143   4.861   4.030   1.025 -0.1101 -0.4740  0.2355
 7093SOL    HW228144   4.915   3.967   1.073 -0.5675 -1.1444 -0.1213
 7093SOL    HW328145   4.846   4.101   1.087 -0.0309 -0.9623  0.8216
 7093SOL    MW428146   4.866   4.031   1.039 -0.1600 -0.6268  0.2657
 7094SOL     OW28147   3.798   1.521   3.034  0.1449  0.2110 -0.5585
 7094SOL    HW228148   3.741   1.587   2.994  1.3391  0.8560 -1.2247
 7094SOL    HW328149   3.749   1.491   3.111 -1.6016 -0.0757 -1.7288
 7094SOL    MW428150   3.784   1.526   3.039  0.0720  0.2583 -0.8008
 7095SOL     OW28151   3.463   1.843   0.919  0.1260  0.1363  0.2627
 7095SOL    HW228152   3.386   1.791   0.943  1.1111 -1.5464 -0.1364
 7095SOL    HW328153   3.532   1.813   0.977  1.3527 -0.7683 -1.5910
 7095SOL    MW428154   3.462   1.832   0.930  0.4178 -0.2051 -0.0346
 7096SOL     OW28155   1.471   5.365   0.152 -0.3178 -0.0716 -0.2821
 7096SOL    HW228156   1.387   5.411   0.152 -0.5472 -0.3926  1.8183
 7096SOL    HW328157   1.535   5.430   0.180 -0.2526 -0.3743  0.3054
 7096SOL    MW428158   1.468   5.380   0.156 -0.3394 -0.1539  0.0725
 7097SOL     OW28159   2.185   4.016   4.997 -0.0664 -0.5055  0.0370
 7097SOL    HW228160   2.183   3.971   4.913 -1.2501  1.3577 -0.9938
 7097SOL    HW328161   2.096   4.009   5.031 -0.5153  1.6375 -0.5351
 7097SOL    MW428162   2.173   4.009   4.991 -0.2818  0.0231 -0.1745
 7098SOL     OW28163   3.745   0.574   2.493 -0.1423 -0.3386  0.8207
 7098SOL    HW228164   3.702   0.534   2.569  1.2497 -0.3479  1.6499
 7098SOL    HW328165   3.838   0.555   2.506 -0.0583 -3.7143 -2.8665
 7098SOL    MW428166   3.751   0.567   2.505  0.0524 -0.7852  0.4437
 7099SOL     OW28167   1.326   5.059   5.768 -0.1623  0.0486 -0.0991
 7099SOL    HW228168   1.413   5.084   5.799 -0.8791  1.6833  0.6911
 7099SOL    HW328169   1.303   5.125   5.704 -0.4346 -0.9502 -1.0624
 7099SOL    MW428170   1.334   5.071   5.764 -0.2928  0.1325 -0.1219
 7100SOL     OW28171   4.800   1.187   2.859  0.7053  0.3186  0.2297
 7100SOL    HW228172   4.859   1.140   2.919  1.5884 -1.3564 -1.8153
 7100SOL    HW328173   4.741   1.235   2.916  0.9257 -1.8816  2.4696
 7100SOL    MW428174   4.800   1.187   2.874  0.8509 -0.1927  0.2554
 7101SOL     OW28175   1.980   3.870   3.413  0.3853  0.4746 -0.3333
 7101SOL    HW228176   2.055   3.892   3.357 -0.5985  0.2123 -1.8231
 7101SOL    HW328177   1.945   3.954   3.441  0.1405  0.6544 -1.1584
 7101SOL    MW428178   1.985   3.884   3.409  0.2232  0.4637 -0.6387
 7102SOL     OW28179   2.585   3.032   3.685  0.1380 -0.2364 -0.0496
 7102SOL    HW228180   2.608   2.939   3.681 -0.0244 -0.3028  0.5075
 7102SOL    HW328181   2.489   3.033   3.688  0.0927 -0.2686  3.7655
 7102SOL    MW428182   2.575   3.020   3.685  0.1106 -0.2494  0.5272
 7103SOL     OW28183   3.888   3.136   5.512 -0.0297  0.1181 -0.6374
 7103SOL    HW228184   3.827   3.202   5.545 -1.2476 -1.3908  0.3160
 7103SOL    HW328185   3.835   3.083   5.452  0.4646 -0.8921 -0.2155
 7103SOL    MW428186   3.873   3.138   5.508 -0.1252 -0.2143 -0.4560
 7104SOL     OW28187   0.288   6.004   0.388  0.0841  0.2384  0.3970
 7104SOL    HW228188   0.364   6.009   0.330  0.5329 -0.6586  0.8913
 7104SOL    HW328189   0.257   5.914   0.379 -0.6639  0.4670  0.5428
 7104SOL    MW428190   0.294   5.993   0.379  0.0446  0.1502  0.4814
 7105SOL     OW28191   4.233   3.453   3.037  0.8216 -0.5017 -0.0570
 7105SOL    HW228192   4.183   3.504   3.101  0.4446 -0.2275 -0.5572
 7105SOL    HW328193   4.259   3.517   2.971  0.6975 -0.8817 -0.4798
 7105SOL    MW428194   4.230   3.468   3.037  0.7555 -0.5156 -0.1788
 7106SOL     OW28195   5.408   0.900   3.268 -0.6900  0.0447  0.0304
 7106SOL    HW228196   5.436   0.844   3.340  1.6782  1.8625  0.6564
 7106SOL    HW328197   5.361   0.972   3.311 -4.0736 -1.4687 -0.7875
 7106SOL    MW428198   5.405   0.902   3.283 -0.8240  0.0848  0.0051
 7107SOL     OW28199   5.289   5.166   5.482 -0.7580  0.7487 -0.0099
 7107SOL    HW228200   5.202   5.126   5.475  0.6644 -2.5287 -0.7564
 7107SOL    HW328201   5.304   5.206   5.396  0.3259 -3.1913 -1.9016
 7107SOL    MW428202   5.279   5.166   5.470 -0.4273 -0.2036 -0.3580
 7108SOL     OW28203   2.017   3.303   5.980 -0.4829  0.2785 -0.0104
 7108SOL    HW228204   2.078   3.368   6.015  0.4707 -1.0139  0.8427
 7108SOL    HW328205   1.980   3.344   5.902 -1.0048  2.3832  1.2769
 7108SOL    MW428206   2.020   3.317   5.974 -0.4259  0.3857  0.2720
 7109SOL     OW28207   3.768   0.259   4.154  0.2812 -0.2078  0.6799
 7109SOL    HW228208   3.735   0.182   4.109  0.0080  0.4470 -0.2531
 7109SOL    HW328209   3.830   0.298   4.093  0.8159  0.0294  1.3605
 7109SOL    MW428210   3.772   0.254   4.140  0.3157 -0.0901  0.6466
 7110SOL     OW28211   4.763   4.173   4.106  0.3039 -0.0813 -0.1216
 7110SOL    HW228212   4.754   4.210   4.194 -0.3545  1.1592 -0.6951
 7110SOL    HW328213   4.674   4.175   4.070 -0.0967 -3.5499  0.2912
 7110SOL    MW428214   4.750   4.178   4.113  0.1642 -0.3752 -0.1428
 7111SOL     OW28215   2.030   4.227   1.197 -0.5475 -0.1698 -0.3271
 7111SOL    HW228216   2.055   4.240   1.105  1.8641  0.5492  0.3723
 7111SOL    HW328217   1.963   4.294   1.212  0.6686  1.2496 -0.9776
 7111SOL    MW428218   2.024   4.238   1.187 -0.0689  0.1123 -0.3206
 7112SOL     OW28219   5.317   5.260   5.205 -0.4066  0.4341 -0.2081
 7112SOL    HW228220   5.386   5.242   5.141 -0.1839  0.1378  0.1107
 7112SOL    HW328221   5.259   5.322   5.161  1.3331  2.5919  0.3575
 7112SOL    MW428222   5.319   5.266   5.190 -0.1477  0.6797 -0.0914
 7113SOL     OW28223   0.762   5.524   3.751  0.2743  0.1865 -0.9201
 7113SOL    HW228224   0.829   5.484   3.697  1.1051 -0.4318  0.5120
 7113SOL    HW328225   0.696   5.456   3.762 -0.6188  0.7821 -2.2990
 7113SOL    MW428226   0.762   5.510   3.745  0.2661  0.1835 -0.9131
 7114SOL     OW28227   2.767   2.969   0.560 -0.4056  0.2133  0.3578
 7114SOL    HW228228   2.713   2.890   0.553 -2.8185  1.6875  1.0601
 7114SOL    HW328229   2.704   3.040   0.561  1.7351  2.3836 -2.4273
 7114SOL    MW428230   2.752   2.968   0.559 -0.4415  0.6942  0.0830
 7115SOL     OW28231   1.531   4.764   5.118  0.2256  0.2017 -0.1136
 7115SOL    HW228232   1.622   4.794   5.123  0.5248 -0.7422  0.6279
 7115SOL    HW328233   1.485   4.833   5.071  1.4112  0.4989 -0.8847
 7115SOL    MW428234   1.537   4.777   5.113  0.4215  0.1163 -0.1175
 7116SOL     OW28235   5.002   2.287   2.375 -0.1000  0.3252  0.4652
 7116SOL    HW228236   4.974   2.378   2.362  0.4226  0.4716  0.3690
 7116SOL    HW328237   5.075   2.293   2.436 -0.6002 -0.1049  1.1141
 7116SOL    MW428238   5.008   2.300   2.381 -0.0970  0.2878  0.5381
 7117SOL     OW28239   5.900   6.335   2.983  0.0624  0.6796 -0.1025
 7117SOL    HW228240   5.871   6.314   2.894 -1.1689 -1.6803  0.7557
 7117SOL    HW328241   5.899   6.250   3.028  3.0325  1.4048  1.5334
 7117SOL    MW428242   5.896   6.321   2.977  0.2918  0.4639  0.2266
 7118SOL     OW28243   5.448   3.389   5.769  0.0230  0.9070  0.3732
 7118SOL    HW228244   5.539   3.418   5.779  0.0437  1.2786 -0.7065
 7118SOL    HW328245   5.443   3.361   5.677 -1.1587  1.6398  0.2044
 7118SOL    MW428246   5.460   3.389   5.758 -0.1302  1.0527  0.2085
 7119SOL     OW28247   5.707   4.110   0.544  0.2622  0.2086  0.4508
 7119SOL    HW228248   5.619   4.128   0.509  0.5389  0.4669 -0.1278
 7119SOL    HW328249   5.691   4.070   0.629 -0.4192  0.3957  0.4197
 7119SOL    MW428250   5.693   4.107   0.550  0.2088  0.2673  0.3704
 7120SOL     OW28251   5.598   0.018   1.372  0.5160 -0.1140 -0.4425
 7120SOL    HW228252   5.528   0.069   1.329  0.3966 -0.7899 -1.0733
 7120SOL    HW328253   5.580  -0.073   1.346  0.5324 -0.5301  0.9389
 7120SOL    MW428254   5.586   0.013   1.363  0.5024 -0.2581 -0.3435
 7121SOL     OW28255   1.877   0.804   2.905  0.0997 -0.3350  0.3518
 7121SOL    HW228256   1.963   0.812   2.864 -0.6065  1.7305 -0.8987
 7121SOL    HW328257   1.819   0.775   2.835 -0.2495 -1.8237  1.2120
 7121SOL    MW428258   1.881   0.802   2.891 -0.0396 -0.2589  0.3003
 7122SOL     OW28259   4.446   1.257   4.954  0.6924  0.2333  0.0082
 7122SOL    HW228260   4.378   1.310   4.912  1.2334  0.6668 -0.3226
 7122SOL    HW328261   4.452   1.179   4.898 -0.4711 -0.4396  0.7861
 7122SOL    MW428262   4.438   1.254   4.941  0.6103  0.2017  0.0672
 7123SOL     OW28263   5.775   5.831   0.354 -0.3211 -0.2329 -0.8420
 7123SOL    HW228264   5.817   5.913   0.381  1.6727 -1.0480 -1.3446
 7123SOL    HW328265   5.819   5.807   0.272 -1.1931 -1.5777 -0.9466
 7123SOL    MW428266   5.786   5.839   0.347 -0.1731 -0.5178 -0.9221
 7124SOL     OW28267   5.609   3.697   4.959  0.1606  0.1071 -0.2334
 7124SOL    HW228268   5.678   3.720   4.897 -1.6984  2.2653 -1.6456
 7124SOL    HW328269   5.598   3.603   4.948  0.6529  0.2577 -2.3627
 7124SOL    MW428270   5.617   3.688   4.949 -0.0197  0.4117 -0.7006
 7125SOL     OW28271   5.565   0.887   4.963  0.0357  0.5099 -0.3032
 7125SOL    HW228272   5.629   0.911   4.896  2.1028  1.6351  1.9163
 7125SOL    HW328273   5.528   0.970   4.991  0.4248  0.2454  1.0620
 7125SOL    MW428274   5.569   0.901   4.958  0.3597  0.6235  0.1697
 7126SOL     OW28275   1.360   1.987   0.395 -0.0580  0.5767 -0.1445
 7126SOL    HW228276   1.337   2.063   0.342  0.3335  1.0661  0.3703
 7126SOL    HW328277   1.387   1.920   0.332 -1.1906  0.5741 -0.6480
 7126SOL    MW428278   1.361   1.988   0.380 -0.1558  0.6409 -0.1430
 7127SOL     OW28279   2.018   1.687   0.600  0.3491 -0.5812 -0.5142
 7127SOL    HW228280   1.998   1.779   0.619  1.5057  0.0887 -2.2555
 7127SOL    HW328281   2.091   1.666   0.659  0.0695 -0.3851 -0.0930
 7127SOL    MW428282   2.025   1.697   0.610  0.4648 -0.4669 -0.6883
 7128SOL     OW28283   2.402   4.048   1.567 -0.0461  0.4334  0.6256
 7128SOL    HW228284   2.445   4.055   1.651 -0.8035  1.2562  0.9662
 7128SOL    HW328285   2.310   4.033   1.588 -0.7175  3.1473  0.0563
 7128SOL    MW428286   2.395   4.047   1.581 -0.2346  0.9000  0.5955
 7129SOL     OW28287   5.428   5.850   2.166 -0.5979 -0.3442 -0.5437
 7129SOL    HW228288   5.512   5.864   2.211  0.8596 -1.7024 -2.6678
 7129SOL    HW328289   5.374   5.924   2.195  1.0687  0.2437  1.4008
 7129SOL    MW428290   5.432   5.862   2.176 -0.1857 -0.4458 -0.5674
 7130SOL     OW28291   6.428   1.739   6.039 -0.1497  0.1803  0.2728
 7130SOL    HW228292   6.376   1.793   5.979  1.3026  1.0412 -0.2702
 7130SOL    HW328293   6.442   1.657   5.991  1.6312  1.1338 -0.9548
 7130SOL    MW428294   6.423   1.735   6.025  0.2769  0.4197  0.0392
 7131SOL     OW28295   4.727   4.799   3.634  0.4248 -0.1187 -0.0244
 7131SOL    HW228296   4.666   4.725   3.628 -1.5057  0.9860  3.4094
 7131SOL    HW328297   4.671   4.876   3.643  2.4013  1.7149 -2.0953
 7131SOL    MW428298   4.711   4.799   3.634  0.4309  0.2689  0.1554
 7132SOL     OW28299   4.593   1.553   5.548 -0.1629 -0.0498  0.7623
 7132SOL    HW228300   4.581   1.581   5.638  1.7398 -1.0548  1.3869
 7132SOL    HW328301   4.504   1.546   5.513 -1.0808 -1.3470  3.1126
 7132SOL    MW428302   4.580   1.556   5.555 -0.0330 -0.3535  1.1548
 7133SOL     OW28303   5.069   1.973   2.346 -0.1055  0.4993 -0.7774
 7133SOL    HW228304   5.129   2.002   2.277  1.8213 -1.3315  0.0169
 7133SOL    HW328305   5.098   2.020   2.424  2.0188 -2.1118  0.1599
 7133SOL    MW428306   5.081   1.983   2.347  0.4290 -0.0868 -0.5490
 7134SOL     OW28307   2.165   1.022   4.389  0.0548 -0.0804  0.0575
 7134SOL    HW228308   2.097   1.079   4.426  0.3674 -0.1468  0.7536
 7134SOL    HW328309   2.174   1.051   4.298 -0.3019  0.5012  0.2043
 7134SOL    MW428310   2.157   1.034   4.382  0.0490 -0.0124  0.1687
 7135SOL     OW28311   4.535   3.519   2.661  0.2910  0.2848 -0.1475
 7135SOL    HW228312   4.558   3.483   2.746 -1.0853  0.1771  0.1991
 7135SOL    HW328313   4.554   3.449   2.599  0.9313  0.2318  0.0988
 7135SOL    MW428314   4.541   3.505   2.664  0.1939  0.2636 -0.0693
 7136SOL     OW28315   4.436   0.527   2.267  0.1930 -0.3124 -0.9062
 7136SOL    HW228316   4.477   0.536   2.181  0.3239 -2.4973 -1.1127
 7136SOL    HW328317   4.501   0.481   2.320 -1.7472 -3.7316 -1.2024
 7136SOL    MW428318   4.450   0.522   2.263 -0.0457 -1.0518 -0.9725
 7137SOL     OW28319   4.551   0.204   5.549  0.2969 -0.1196 -0.0552
 7137SOL    HW228320   4.456   0.213   5.555 -0.1566 -3.9257  1.5176
 7137SOL    HW328321   4.585   0.289   5.575 -2.6962  0.6797  1.6914
 7137SOL    MW428322   4.543   0.216   5.553 -0.1578 -0.5163  0.3828
 7138SOL     OW28323   1.327   5.143   4.705 -0.3877 -0.1478  0.2015
 7138SOL    HW228324   1.414   5.146   4.667  0.4269  0.9237  1.9836
 7138SOL    HW328325   1.290   5.230   4.688 -0.5600 -0.1344  0.6234
 7138SOL    MW428326   1.334   5.155   4.698 -0.3030 -0.0046  0.4923
 7139SOL     OW28327   2.310   0.933   4.847 -0.2881  0.5106 -0.5013
 7139SOL    HW228328   2.275   0.886   4.770 -0.5263 -0.0457 -0.0593
 7139SOL    HW328329   2.258   1.013   4.851 -0.5019  0.3866 -0.7262
 7139SOL    MW428330   2.298   0.938   4.837 -0.3477  0.4208 -0.4726
 7140SOL     OW28331   0.310   5.763   1.310  0.2013  0.3851 -0.5316
 7140SOL    HW228332   0.363   5.814   1.371 -0.1241  0.5469 -0.3830
 7140SOL    HW328333   0.369   5.745   1.237  0.7277 -0.1992  0.0307
 7140SOL    MW428334   0.325   5.767   1.308  0.2278  0.3294 -0.4378
 7141SOL     OW28335   3.046   1.856   2.629  0.6682  0.5732 -0.2233
 7141SOL    HW228336   3.046   1.822   2.719 -0.4523  1.1233  0.0033
 7141SOL    HW328337   2.978   1.805   2.584  0.6393  0.8745 -0.5289
 7141SOL    MW428338   3.037   1.844   2.635  0.5166  0.6855 -0.2337
 7142SOL     OW28339   2.161   5.169   2.925 -0.4937 -0.5253  0.2541
 7142SOL    HW228340   2.154   5.099   2.990  2.3368 -1.2069 -0.0350
 7142SOL    HW328341   2.222   5.232   2.965 -0.1010 -0.0773 -1.0086
 7142SOL    MW428342   2.168   5.168   2.939 -0.0684 -0.5562  0.0493
 7143SOL     OW28343   1.963   2.609   1.485 -0.4493  0.0408 -0.0889
 7143SOL    HW228344   1.896   2.567   1.432 -0.2383 -1.5062  0.8194
 7143SOL    HW328345   2.045   2.566   1.459  0.3433  2.2288 -1.5402
 7143SOL    MW428346   1.965   2.598   1.475 -0.3169  0.1254 -0.1605
 7144SOL     OW28347   5.830   1.990   0.317  0.5522 -0.2037  0.4618
 7144SOL    HW228348   5.819   1.898   0.343  0.0855  0.0449  1.1947
 7144SOL    HW328349   5.801   1.993   0.226 -0.2336 -0.6359  0.6841
 7144SOL    MW428350   5.824   1.978   0.309  0.3870 -0.2279  0.5878
 7145SOL     OW28351   3.265   2.653   5.071  0.6472 -0.3238 -0.0378
 7145SOL    HW228352   3.342   2.658   5.014  0.8555  0.0111  0.2640
 7145SOL    HW328353   3.263   2.738   5.116 -0.1275 -0.1720 -0.3333
 7145SOL    MW428354   3.275   2.665   5.069  0.5724 -0.2596 -0.0369
 7146SOL     OW28355   0.772   6.414   1.190  0.2289  0.0832  0.0582
 7146SOL    HW228356   0.753   6.480   1.123  1.2494  0.2360 -0.0872
 7146SOL    HW328357   0.843   6.361   1.153 -0.2735 -0.8284  0.3611
 7146SOL    MW428358   0.779   6.415   1.176  0.2972 -0.0169  0.0789
 7147SOL     OW28359   3.594   5.692   4.260 -0.3181 -0.0634  0.5021
 7147SOL    HW228360   3.681   5.726   4.279 -0.5822  0.4308  0.8348
 7147SOL    HW328361   3.557   5.754   4.197  1.2234 -2.5808 -3.2350
 7147SOL    MW428362   3.601   5.704   4.254 -0.1496 -0.3304  0.0529
 7148SOL     OW28363   3.077   0.257   2.002  0.1125 -0.0897  0.2257
 7148SOL    HW228364   3.093   0.167   2.031  0.3451 -0.0281  0.2949
 7148SOL    HW328365   3.082   0.309   2.082  0.2227  0.0150  0.1516
 7148SOL    MW428366   3.080   0.252   2.016  0.1577 -0.0677  0.2251
 7149SOL     OW28367   4.517   5.323   1.893  0.7779  0.2480  0.3608
 7149SOL    HW228368   4.582   5.388   1.871  0.4593  0.9925  1.5313
 7149SOL    HW328369   4.489   5.287   1.809  1.0343  1.5424 -0.3011
 7149SOL    MW428370   4.522   5.326   1.879  0.7697  0.5170  0.4279
 7150SOL     OW28371   5.286   2.373   5.224 -0.4976 -0.7911  0.8246
 7150SOL    HW228372   5.281   2.345   5.315 -3.2657 -1.4251  0.5612
 7150SOL    HW328373   5.195   2.374   5.194  0.2969 -0.2218 -1.8300
 7150SOL    MW428374   5.273   2.370   5.232 -0.7580 -0.7996  0.4396
 7151SOL     OW28375   4.853   4.541   2.436  0.2484 -0.0603 -0.0321
 7151SOL    HW228376   4.945   4.563   2.426 -0.1523  1.2727 -1.2005
 7151SOL    HW328377   4.813   4.563   2.352 -1.1831 -0.3669  0.5200
 7151SOL    MW428378   4.860   4.547   2.424  0.0066  0.0751 -0.1134
 7152SOL     OW28379   4.595   2.212   5.470 -0.6228  0.1252  0.0924
 7152SOL    HW228380   4.584   2.190   5.378  1.2615  0.1304 -0.1683
 7152SOL    HW328381   4.553   2.298   5.479 -2.6392 -0.7673 -0.2466
 7152SOL    MW428382   4.588   2.221   5.459 -0.6402  0.0081  0.0133
 7153SOL     OW28383   4.126   2.029   3.234  0.8763  0.0477 -0.2322
 7153SOL    HW228384   4.186   2.074   3.175  1.6471 -1.2300 -0.4667
 7153SOL    HW328385   4.126   2.083   3.313  2.4490  0.0260 -0.1811
 7153SOL    MW428386   4.134   2.042   3.237  1.1855 -0.1237 -0.2564
 7154SOL     OW28387   3.885   3.780   5.656  0.4976 -0.2138 -0.3280
 7154SOL    HW228388   3.841   3.706   5.614 -0.2840  0.8092 -1.3891
 7154SOL    HW328389   3.967   3.788   5.608  0.9376 -0.8589  0.3017
 7154SOL    MW428390   3.890   3.771   5.644  0.4525 -0.1639 -0.3849
 7155SOL     OW28391   6.012   5.618   5.219 -0.9675  0.1304 -0.1237
 7155SOL    HW228392   6.039   5.699   5.175 -1.2668 -0.4801 -1.4732
 7155SOL    HW328393   5.975   5.648   5.302  2.2116  1.1076  1.0883
 7155SOL    MW428394   6.010   5.633   5.224 -0.5875  0.1787 -0.1418
 7156SOL     OW28395   2.246   3.390   6.113 -0.2631  1.2503 -0.4785
 7156SOL    HW228396   2.335   3.423   6.106  0.3577 -0.0943  0.6935
 7156SOL    HW328397   2.253   3.295   6.102 -1.1190  0.7670  2.2500
 7156SOL    MW428398   2.259   3.382   6.110 -0.2941  1.0091  0.0361
 7157SOL     OW28399   4.092   1.628   3.010 -0.2519 -0.2949 -0.2705
 7157SOL    HW228400   4.146   1.622   3.088 -0.4581 -0.4678 -0.1405
 7157SOL    HW328401   4.023   1.563   3.023 -1.5779  1.1514  0.4378
 7157SOL    MW428402   4.090   1.619   3.022 -0.4541 -0.1269 -0.1599
 7158SOL     OW28403   0.908   4.907   4.004  0.7332 -0.1106  0.1728
 7158SOL    HW228404   0.879   4.839   4.065  1.7038  0.1680  0.9690
 7158SOL    HW328405   0.895   4.868   3.917 -1.8091 -0.0747  0.4482
 7158SOL    MW428406   0.902   4.893   4.001  0.5259 -0.0691  0.3142
 7159SOL     OW28407   3.729   1.729   1.709 -0.0886 -0.2794  0.3276
 7159SOL    HW228408   3.795   1.670   1.746  0.5324  0.7884  0.9574
 7159SOL    HW328409   3.715   1.795   1.777 -1.0337  0.1087 -0.2233
 7159SOL    MW428410   3.736   1.730   1.723 -0.1313 -0.0873  0.3380
 7160SOL     OW28411   0.582   2.165   3.387  0.0462 -0.4831 -0.1352
 7160SOL    HW228412   0.646   2.125   3.446 -1.7812  0.0533  2.3870
 7160SOL    HW328413   0.533   2.092   3.350 -0.2797 -0.7740  0.8530
 7160SOL    MW428414   0.584   2.150   3.390 -0.2379 -0.4507  0.3279
 7161SOL     OW28415   4.390   2.519   1.873  0.1320  0.2030  0.0317
 7161SOL    HW228416   4.320   2.552   1.817  0.8757 -0.3211 -1.2568
 7161SOL    HW328417   4.438   2.458   1.817  0.2572 -1.1799  1.5949
 7161SOL    MW428418   4.387   2.515   1.858  0.2466 -0.0486  0.0679
 7162SOL     OW28419   4.123   4.483   0.318  0.0353  0.4240  0.0964
 7162SOL    HW228420   4.134   4.432   0.399  0.6896  0.5664  0.1006
 7162SOL    HW328421   4.187   4.445   0.257  0.7103  1.4127  0.1811
 7162SOL    MW428422   4.133   4.471   0.320  0.2107  0.5732  0.1081
 7163SOL     OW28423   0.007   4.554   5.300 -0.2306  0.2291  0.2428
 7163SOL    HW228424   0.079   4.616   5.305 -1.0449  1.2188 -0.0743
 7163SOL    HW328425  -0.067   4.605   5.267 -0.6449 -1.1490 -1.0801
 7163SOL    MW428426   0.007   4.569   5.296 -0.3927  0.1779  0.0265
 7164SOL     OW28427   4.665   2.349   0.721 -0.1660  0.2818  0.0021
 7164SOL    HW228428   4.742   2.292   0.728  0.5755  1.2997  0.3347
 7164SOL    HW328429   4.696   2.435   0.749 -1.0309  1.0794 -1.3786
 7164SOL    MW428430   4.679   2.353   0.726 -0.1823  0.5213 -0.1362
 7165SOL     OW28431   4.416   3.412   4.011 -0.1675 -0.5753 -0.4676
 7165SOL    HW228432   4.360   3.490   4.010  0.7162  0.0866  0.2704
 7165SOL    HW328433   4.477   3.425   3.938  1.0529  0.2546  0.6627
 7165SOL    MW428434   4.417   3.424   4.001  0.1101 -0.3785 -0.2211
 7166SOL     OW28435   1.718   2.108   3.321 -0.2034 -0.2591 -0.5479
 7166SOL    HW228436   1.780   2.046   3.283  0.9129  0.4402  0.0971
 7166SOL    HW328437   1.723   2.093   3.416 -1.1293 -0.2871 -0.4904
 7166SOL    MW428438   1.727   2.098   3.329 -0.1783 -0.1706 -0.4552
 7167SOL     OW28439   3.172   1.623   4.520  0.3067 -0.3830  0.2520
 7167SOL    HW228440   3.151   1.578   4.603  1.9477 -1.2152  0.2613
 7167SOL    HW328441   3.184   1.715   4.545 -0.1793 -0.4565  0.7734
 7167SOL    MW428442   3.171   1.629   4.534  0.4591 -0.5025  0.3220
 7168SOL     OW28443   2.096   0.855   5.323  0.5063  0.5044 -0.1775
 7168SOL    HW228444   2.153   0.843   5.246  0.1653 -2.5949 -0.0879
 7168SOL    HW328445   2.145   0.816   5.395  0.4327  2.5769  1.0637
 7168SOL    MW428446   2.110   0.848   5.322  0.4516  0.3689 -0.0020
 7169SOL     OW28447   4.560   6.070   2.864 -0.3580 -0.4953 -0.0595
 7169SOL    HW228448   4.483   6.120   2.838  0.2539  0.6745  0.3239
 7169SOL    HW328449   4.527   6.010   2.931 -1.0898 -0.6028 -0.4934
 7169SOL    MW428450   4.545   6.068   2.869 -0.3738 -0.3552 -0.0662
 7170SOL     OW28451   3.466   6.217   3.679  0.3446  0.1244 -0.8870
 7170SOL    HW228452   3.541   6.161   3.699 -1.1353 -1.2735  1.1852
 7170SOL    HW328453   3.395   6.157   3.659 -1.4846  1.0715  2.0371
 7170SOL    MW428454   3.467   6.202   3.679 -0.0920  0.0649 -0.2278
 7171SOL     OW28455   2.730   3.932   6.069 -0.1709  0.2244 -0.8741
 7171SOL    HW228456   2.718   3.862   6.006  0.7862 -1.1514  0.4052
 7171SOL    HW328457   2.673   3.909   6.143 -0.7562  1.4405 -0.9177
 7171SOL    MW428458   2.721   3.920   6.071 -0.1219  0.2034 -0.7111
 7172SOL     OW28459   3.986   1.260   4.251  0.3355  0.1259 -0.4642
 7172SOL    HW228460   4.055   1.268   4.317  0.3241 -0.7076 -0.3435
 7172SOL    HW328461   3.947   1.347   4.247  1.8498  0.8208 -1.0472
 7172SOL    MW428462   3.990   1.272   4.259  0.5338  0.1076 -0.5252
 7173SOL     OW28463   5.073   4.809   1.347  0.2720 -0.4642 -0.2067
 7173SOL    HW228464   5.047   4.741   1.285  0.1885 -1.3376  0.7584
 7173SOL    HW328465   5.002   4.873   1.344 -0.3966 -1.1822 -0.0123
 7173SOL    MW428466   5.060   4.809   1.338  0.1727 -0.6742 -0.0537
 7174SOL     OW28467   0.824   5.729   1.420  0.3394  0.0242  0.2966
 7174SOL    HW228468   0.741   5.773   1.438  0.6130 -0.1363  2.1544
 7174SOL    HW328469   0.887   5.801   1.409 -0.3008  0.2349 -3.1015
 7174SOL    MW428470   0.822   5.744   1.421  0.2910  0.0308  0.0934
 7175SOL     OW28471   1.734   3.511   0.635 -0.6741  0.0479  0.3576
 7175SOL    HW228472   1.718   3.594   0.590  2.3982  1.2436  1.1899
 7175SOL    HW328473   1.810   3.473   0.589 -0.4046 -1.0031  1.6102
 7175SOL    MW428474   1.742   3.517   0.623 -0.2332  0.0670  0.6327
 7176SOL     OW28475   5.635   2.904   5.663  0.0230  0.5353  0.0504
 7176SOL    HW228476   5.601   2.817   5.640 -0.2919  0.5478  0.4537
 7176SOL    HW328477   5.562   2.947   5.709  0.5952  0.5385  0.9931
 7176SOL    MW428478   5.621   2.898   5.666  0.0569  0.5374  0.2280
 7177SOL     OW28479   3.004   5.243   4.715 -0.6500  0.5174 -0.4903
 7177SOL    HW228480   2.921   5.195   4.719 -0.7722  0.7944  0.4585
 7177SOL    HW328481   3.042   5.232   4.802  0.7563 -0.3770 -1.1791
 7177SOL    MW428482   2.998   5.235   4.727 -0.4806  0.4359 -0.4560
 7178SOL     OW28483   0.863   3.544   2.271  0.2246  0.4361  0.6709
 7178SOL    HW228484   0.887   3.543   2.363  1.5419  1.2838  0.3589
 7178SOL    HW328485   0.879   3.454   2.241 -0.0915  0.1923  1.2268
 7178SOL    MW428486   0.868   3.532   2.279  0.3567  0.5158  0.7031
 7179SOL     OW28487   3.721   1.689   0.287  0.4113 -0.5361 -0.1760
 7179SOL    HW228488   3.809   1.654   0.302  0.8514  0.2251 -0.9482
 7179SOL    HW328489   3.734   1.782   0.270 -0.4933 -0.5273 -0.8901
 7179SOL    MW428490   3.734   1.697   0.287  0.3500 -0.4345 -0.3721
 7180SOL     OW28491   5.191   1.893   2.626  0.4671  0.1831 -0.7433
 7180SOL    HW228492   5.215   1.908   2.718 -1.7203  0.1404 -0.0980
 7180SOL    HW328493   5.215   1.802   2.610 -1.6255 -0.7268  0.7378
 7180SOL    MW428494   5.197   1.883   2.636 -0.0976  0.0574 -0.4628
 7181SOL     OW28495   5.621   2.272   4.152 -0.5996  0.3291  0.3341
 7181SOL    HW228496   5.625   2.305   4.242  3.5584 -0.8654  0.7785
 7181SOL    HW328497   5.705   2.295   4.113 -0.3140 -3.2300 -1.6528
 7181SOL    MW428498   5.632   2.279   4.159 -0.0134 -0.2981  0.1306
 7182SOL     OW28499   5.392   3.938   1.927 -0.2538  0.1662 -0.6869
 7182SOL    HW228500   5.318   3.953   1.868 -0.8059  0.4927  0.0701
 7182SOL    HW328501   5.354   3.947   2.015  0.1263 -2.1194 -0.2128
 7182SOL    MW428502   5.377   3.941   1.931 -0.2765 -0.0923 -0.5245
 7183SOL     OW28503   2.112   0.385   0.340 -0.0328 -0.0340 -0.2453
 7183SOL    HW228504   2.192   0.391   0.394 -0.5036 -1.3461  0.6477
 7183SOL    HW328505   2.050   0.337   0.395 -1.3094  0.5828 -1.1020
 7183SOL    MW428506   2.115   0.380   0.355 -0.2634 -0.1257 -0.2405
 7184SOL     OW28507   1.578   3.242   1.603  0.0907 -0.6850  0.1232
 7184SOL    HW228508   1.515   3.284   1.661 -0.1068 -1.3341  0.3969
 7184SOL    HW328509   1.542   3.154   1.589  0.2433 -0.6030 -0.8210
 7184SOL    MW428510   1.565   3.236   1.609  0.0848 -0.7598  0.0348
 7185SOL     OW28511   0.562   3.853   0.604 -0.2894 -0.0936  0.1070
 7185SOL    HW228512   0.522   3.882   0.685 -1.4838 -4.5151  1.3882
 7185SOL    HW328513   0.508   3.891   0.535 -2.3994 -0.2366  1.5914
 7185SOL    MW428514   0.550   3.862   0.605 -0.7253 -0.6958  0.4719
 7186SOL     OW28515   2.129   3.370   4.662 -0.6137 -0.1251  0.0919
 7186SOL    HW228516   2.197   3.312   4.697  0.1624  0.5128 -0.3079
 7186SOL    HW328517   2.104   3.330   4.579 -0.5262 -0.2295  0.1159
 7186SOL    MW428518   2.135   3.357   4.656 -0.4997 -0.0547  0.0423
 7187SOL     OW28519   4.433   0.415   4.612 -0.2772  0.0236 -0.5057
 7187SOL    HW228520   4.511   0.469   4.626  0.1044 -0.3297 -1.2339
 7187SOL    HW328521   4.383   0.463   4.545  1.2193 -1.6425 -2.9921
 7187SOL    MW428522   4.437   0.429   4.605 -0.0294 -0.2428 -0.9299
 7188SOL     OW28523   4.491   5.424   0.040  0.1280 -0.1474 -0.5777
 7188SOL    HW228524   4.526   5.487   0.104 -1.3024 -0.9416  1.0612
 7188SOL    HW328525   4.489   5.472  -0.042 -0.5666  1.8528  0.5385
 7188SOL    MW428526   4.496   5.439   0.038 -0.1524  0.0118 -0.2142
 7189SOL     OW28527   3.226   1.786   3.187 -0.1470  0.2227  0.3065
 7189SOL    HW228528   3.205   1.693   3.175  2.2410 -0.7195  2.4624
 7189SOL    HW328529   3.301   1.801   3.130 -1.2204  1.1827 -0.8903
 7189SOL    MW428530   3.233   1.776   3.178  0.0265  0.2250  0.4330
 7190SOL     OW28531   0.473   4.388   3.797  0.1963  0.4497 -0.0389
 7190SOL    HW228532   0.562   4.404   3.764  0.3518  0.7799  0.5391
 7190SOL    HW328533   0.474   4.423   3.886 -0.9898  1.9308 -0.5758
 7190SOL    MW428534   0.485   4.394   3.804  0.0603  0.6886 -0.0335
 7191SOL     OW28535   3.386   4.507   4.879 -0.5005  0.0852 -0.6018
 7191SOL    HW228536   3.440   4.578   4.843 -1.7165 -0.0099 -2.7960
 7191SOL    HW328537   3.419   4.428   4.835 -1.6839 -0.1143 -1.1731
 7191SOL    MW428538   3.398   4.506   4.868 -0.8171  0.0463 -0.9666
 7192SOL     OW28539   6.097   0.468   6.269  0.2401  0.2585  0.0685
 7192SOL    HW228540   6.153   0.411   6.216 -0.4630  1.2139 -1.7961
 7192SOL    HW328541   6.036   0.507   6.206 -0.7020  1.4022  1.6135
 7192SOL    MW428542   6.096   0.466   6.254  0.0230  0.5354  0.0263
 7193SOL     OW28543   4.574   0.299   6.065  0.3779  0.4616  0.2178
 7193SOL    HW228544   4.651   0.355   6.052  0.8381 -0.6290 -2.6233
 7193SOL    HW328545   4.611   0.211   6.080 -0.0891 -0.5893 -3.7026
 7193SOL    MW428546   4.589   0.294   6.065  0.3770  0.1791 -0.6743
 7194SOL     OW28547   4.096   3.821   1.265  0.2807 -0.2982 -0.4924
 7194SOL    HW228548   4.044   3.890   1.306  0.7212  1.4859 -2.7625
 7194SOL    HW328549   4.150   3.866   1.201  3.2967 -2.3347  0.4157
 7194SOL    MW428550   4.096   3.836   1.262  0.7368 -0.3315 -0.6721
 7195SOL     OW28551   4.385   1.275   0.965 -0.5073 -0.4854  0.6021
 7195SOL    HW228552   4.405   1.369   0.962 -2.9959  0.1149  1.2007
 7195SOL    HW328553   4.471   1.233   0.961  0.7440  1.8205  1.3027
 7195SOL    MW428554   4.399   1.282   0.964 -0.6706 -0.1019  0.7735
 7196SOL     OW28555   6.215   6.371   5.533  0.2811  0.2015  0.0789
 7196SOL    HW228556   6.127   6.378   5.496 -0.8588 -0.0346  2.5487
 7196SOL    HW328557   6.219   6.440   5.599  2.1938  0.5759 -0.3594
 7196SOL    MW428558   6.204   6.381   5.537  0.3830  0.2198  0.3469
 7197SOL     OW28559   0.903   0.770   1.640  0.0671  0.0254  0.0498
 7197SOL    HW228560   0.847   0.709   1.592  0.1606  0.4323 -0.5823
 7197SOL    HW328561   0.878   0.857   1.607  1.9843  0.1346 -1.2353
 7197SOL    MW428562   0.892   0.774   1.630  0.3324  0.0935 -0.2032
 7198SOL     OW28563   0.802   1.795   1.758 -0.6288 -0.1148 -0.4804
 7198SOL    HW228564   0.849   1.753   1.686  0.3110  0.4324 -0.2155
 7198SOL    HW328565   0.865   1.858   1.793 -1.0033 -0.4908  0.9275
 7198SOL    MW428566   0.817   1.798   1.753 -0.5542 -0.0922 -0.2597
 7199SOL     OW28567   5.426   0.241   0.799 -0.4091  0.2169  0.7388
 7199SOL    HW228568   5.407   0.327   0.837 -0.0808  1.4070 -1.6128
 7199SOL    HW328569   5.340   0.201   0.788 -0.5330 -0.0051  2.3131
 7199SOL    MW428570   5.412   0.247   0.803 -0.3821  0.3446  0.6362
 7200SOL     OW28571   4.607   3.862   5.441  0.1398  0.5489 -0.2317
 7200SOL    HW228572   4.643   3.837   5.526 -0.0566 -0.6961 -0.4937
 7200SOL    HW328573   4.648   3.800   5.380 -1.0301  0.3150 -0.7879
 7200SOL    MW428574   4.617   3.850   5.444 -0.0405  0.3538 -0.3396
 7201SOL     OW28575   5.355   1.092   2.072  0.0878  0.0953 -0.2965
 7201SOL    HW228576   5.278   1.121   2.122  0.3464  0.9651 -0.3873
 7201SOL    HW328577   5.388   1.172   2.031  0.9436 -0.3019 -0.3944
 7201SOL    MW428578   5.349   1.106   2.073  0.2348  0.1577 -0.3214
 7202SOL     OW28579   1.906   0.895   0.317  0.9592 -0.0693 -0.1835
 7202SOL    HW228580   1.961   0.970   0.342  0.5795 -0.2928  1.4417
 7202SOL    HW328581   1.963   0.841   0.262  1.5852  0.8703 -0.4967
 7202SOL    MW428582   1.921   0.898   0.313  0.9917  0.0252 -0.0104
 7203SOL     OW28583   1.192   4.849   2.829 -0.1702  0.0990  0.4722
 7203SOL    HW228584   1.226   4.936   2.849 -0.0119 -0.1967  1.5267
 7203SOL    HW328585   1.165   4.854   2.737  0.9658  0.8901  0.1684
 7203SOL    MW428586   1.193   4.861   2.819  0.0006  0.1644  0.5712
 7204SOL     OW28587   1.512   4.777   6.064 -0.1616  0.0139 -0.2744
 7204SOL    HW228588   1.593   4.801   6.020 -0.1745 -0.2914 -0.4703
 7204SOL    HW328589   1.476   4.706   6.010  0.5842 -1.4191  1.0425
 7204SOL    MW428590   1.518   4.771   6.051 -0.0649 -0.2155 -0.1265
 7205SOL     OW28591   4.323   5.174   3.205 -0.1558  0.7112  0.1359
 7205SOL    HW228592   4.296   5.107   3.142  0.1312  0.4044  0.3392
 7205SOL    HW328593   4.338   5.252   3.152 -1.4645  0.9073  0.0100
 7205SOL    MW428594   4.321   5.175   3.190 -0.2906  0.6966  0.1461
 7206SOL     OW28595   5.728   5.190   3.760 -0.2891 -0.4206  0.2007
 7206SOL    HW228596   5.634   5.208   3.765 -0.6497 -2.2266  0.6290
 7206SOL    HW328597   5.756   5.233   3.680 -1.6752 -0.5970 -0.4154
 7206SOL    MW428598   5.719   5.198   3.750 -0.5195 -0.6821  0.1759
 7207SOL     OW28599   2.819   4.597   2.966  0.3053  0.0230 -0.3618
 7207SOL    HW228600   2.823   4.586   3.061 -0.3400  0.8337 -0.2362
 7207SOL    HW328601   2.774   4.680   2.953  1.0524  0.2861 -1.3705
 7207SOL    MW428602   2.813   4.606   2.977  0.3187  0.1646 -0.4783
 7208SOL     OW28603   3.513   0.711   1.672 -0.3520  0.4533 -0.2359
 7208SOL    HW228604   3.492   0.773   1.741 -1.4010  0.7060 -0.7587
 7208SOL    HW328605   3.433   0.660   1.660  0.1752 -0.3405 -0.5019
 7208SOL    MW428606   3.500   0.713   1.679 -0.4208  0.3819 -0.3400
 7209SOL     OW28607   4.070   4.929   2.024 -0.0169  0.3937 -0.5374
 7209SOL    HW228608   4.072   5.007   1.969  0.4663  1.3666  0.8077
 7209SOL    HW328609   4.048   4.961   2.111  2.1200 -0.6717  0.4818
 7209SOL    MW428610   4.068   4.943   2.028  0.3288  0.3815 -0.2255
 7210SOL     OW28611   3.332   4.615   6.247  0.0583 -0.4709 -0.3675
 7210SOL    HW228612   3.318   4.574   6.161 -0.3396  0.2386 -0.6508
 7210SOL    HW328613   3.336   4.542   6.308  0.1107 -0.9748 -0.9616
 7210SOL    MW428614   3.331   4.600   6.244  0.0127 -0.4438 -0.4833
 7211SOL     OW28615   1.452   6.090   3.827 -0.1333 -0.1654 -0.2325
 7211SOL    HW228616   1.519   6.108   3.894 -1.1322 -2.5453  1.5416
 7211SOL    HW328617   1.501   6.086   3.745  1.2261  2.2553  0.3591
 7211SOL    MW428618   1.467   6.092   3.825 -0.0857 -0.1601  0.0797
 7212SOL     OW28619   0.641   4.688   0.137 -0.4308 -0.0249  0.1104
 7212SOL    HW228620   0.633   4.609   0.191  0.4714  0.2878  0.7250
 7212SOL    HW328621   0.567   4.684   0.077 -0.9732 -0.8168  0.8160
 7212SOL    MW428622   0.630   4.677   0.136 -0.3833 -0.0881  0.2846
 7213SOL     OW28623   3.191   5.553   0.041  0.2819 -0.1724  0.0715
 7213SOL    HW228624   3.168   5.625   0.099  0.5369  1.5814 -1.8761
 7213SOL    HW328625   3.118   5.491   0.050 -1.4592  1.6992 -0.2910
 7213SOL    MW428626   3.178   5.554   0.050  0.0858  0.3059 -0.2333
 7214SOL     OW28627   4.862   1.313   2.153 -0.0493  0.2459  0.5261
 7214SOL    HW228628   4.865   1.384   2.217 -2.5211 -1.6723  3.0597
 7214SOL    HW328629   4.775   1.319   2.115 -0.1674 -1.1079  0.5078
 7214SOL    MW428630   4.851   1.323   2.157 -0.3910 -0.1858  0.8579
 7215SOL     OW28631   2.479   5.426   5.828  0.2063  0.0365  0.0912
 7215SOL    HW228632   2.494   5.520   5.840 -1.8797  0.6684 -1.6024
 7215SOL    HW328633   2.498   5.409   5.736 -3.5509 -0.1584 -0.8273
 7215SOL    MW428634   2.484   5.436   5.818 -0.5646  0.0942 -0.2534
 7216SOL     OW28635   2.385   0.416   1.508  0.5332 -0.6993 -0.3422
 7216SOL    HW228636   2.363   0.329   1.476  0.5534 -0.9102  0.2005
 7216SOL    HW328637   2.374   0.474   1.432  0.4099 -1.1556 -0.6732
 7216SOL    MW428638   2.381   0.412   1.494  0.5196 -0.7873 -0.3142
 7217SOL     OW28639   3.294   1.136   2.288  0.5800  0.0404 -0.3054
 7217SOL    HW228640   3.224   1.078   2.318 -0.3256  0.2050 -1.9709
 7217SOL    HW328641   3.366   1.078   2.266  0.4796 -0.2498  0.1215
 7217SOL    MW428642   3.294   1.121   2.289  0.4473  0.0238 -0.4688
 7218SOL     OW28643   6.276   3.360   0.139 -0.4107 -0.2563 -0.3736
 7218SOL    HW228644   6.334   3.286   0.122 -1.5308 -1.7981  1.9692
 7218SOL    HW328645   6.189   3.320   0.148 -1.0527  1.3362  0.9053
 7218SOL    MW428646   6.272   3.345   0.138 -0.6432 -0.2496  0.1043
 7219SOL     OW28647   4.598   3.876   5.018 -0.3948 -0.8162 -0.2193
 7219SOL    HW228648   4.625   3.811   4.953 -2.8520 -0.4319 -1.7273
 7219SOL    HW328649   4.526   3.923   4.977 -1.2084  0.3236  2.3237
 7219SOL    MW428650   4.592   3.874   5.004 -0.8264 -0.6151 -0.0827
 7220SOL     OW28651   2.767   1.383   4.344 -0.2252 -0.4052  0.5378
 7220SOL    HW228652   2.820   1.364   4.421 -0.1283  1.6704  1.0353
 7220SOL    HW328653   2.824   1.361   4.270  0.2545 -0.9440  1.0596
 7220SOL    MW428654   2.782   1.378   4.344 -0.1492 -0.2024  0.6723
 7221SOL     OW28655   6.044   2.642   6.308  0.1226  0.2696  0.0245
 7221SOL    HW228656   5.953   2.618   6.295  0.3390 -0.3534 -0.3561
 7221SOL    HW328657   6.092   2.595   6.240  0.5408  1.9961 -0.9491
 7221SOL    MW428658   6.038   2.633   6.297  0.2063  0.4152 -0.1542
 7222SOL     OW28659   6.248   2.033   3.707 -0.6613 -0.5314 -0.4231
 7222SOL    HW228660   6.316   2.091   3.672 -1.8688  0.3318 -1.3998
 7222SOL    HW328661   6.187   2.021   3.634 -0.5976 -2.8244 -0.1667
 7222SOL    MW428662   6.249   2.039   3.693 -0.8122 -0.7201 -0.5182
 7223SOL     OW28663   4.309   4.313   0.193 -0.2849  0.0391  0.7464
 7223SOL    HW228664   4.381   4.298   0.255  1.6156 -1.9098 -1.7170
 7223SOL    HW328665   4.353   4.329   0.109 -2.6895 -1.1525 -0.8489
 7223SOL    MW428666   4.324   4.313   0.190 -0.3514 -0.3753  0.2109
 7224SOL     OW28667   0.555   4.250   2.735 -0.2223 -0.2374  0.3658
 7224SOL    HW228668   0.589   4.217   2.651  0.5517  1.2032  0.0937
 7224SOL    HW328669   0.482   4.191   2.755 -0.9462 -0.1389 -1.7179
 7224SOL    MW428670   0.550   4.238   2.726 -0.2157 -0.0344  0.0550
 7225SOL     OW28671   6.212   4.044   0.223  0.3281  0.0671  0.0965
 7225SOL    HW228672   6.282   4.018   0.282  0.2919  1.2608  0.6870
 7225SOL    HW328673   6.193   3.965   0.172  3.1692  0.1018 -1.1936
 7225SOL    MW428674   6.219   4.030   0.224  0.6982  0.2292  0.0042
 7226SOL     OW28675   0.557   1.519   5.822  0.2825  0.0852 -0.5938
 7226SOL    HW228676   0.633   1.484   5.776  0.7958  0.5892 -0.1472
 7226SOL    HW328677   0.594   1.576   5.890 -0.4933  1.4210 -1.2321
 7226SOL    MW428678   0.572   1.522   5.825  0.2479  0.3280 -0.6191
 7227SOL     OW28679   4.392   1.936   1.807  0.1505  0.1951  0.0023
 7227SOL    HW228680   4.308   1.978   1.787  0.4313  0.4814 -0.6216
 7227SOL    HW328681   4.429   1.916   1.721  1.2758  1.2081  0.2169
 7227SOL    MW428682   4.386   1.939   1.793  0.3360  0.3665 -0.0517
 7228SOL     OW28683   5.837   1.587   6.316 -0.2040  0.7772 -0.0370
 7228SOL    HW228684   5.863   1.672   6.280 -1.8490  1.0187 -0.7301
 7228SOL    HW328685   5.801   1.540   6.241  1.6839 -1.0148  0.0712
 7228SOL    MW428686   5.836   1.592   6.301 -0.1719  0.5726 -0.1141
 7229SOL     OW28687   0.106   3.533   1.101  0.5266 -0.1161 -0.5372
 7229SOL    HW228688   0.144   3.621   1.102  0.0488  0.0900 -0.5352
 7229SOL    HW328689   0.104   3.509   1.008 -0.9323  0.5692 -0.7017
 7229SOL    MW428690   0.111   3.542   1.089  0.2711  0.0015 -0.5586
 7230SOL     OW28691   3.108   0.427   2.676 -0.0251 -0.9220  0.2112
 7230SOL    HW228692   3.134   0.380   2.596 -0.4081 -0.3501 -0.2535
 7230SOL    HW328693   3.176   0.493   2.688 -1.1097  0.4334 -0.8841
 7230SOL    MW428694   3.121   0.429   2.667 -0.2188 -0.6677  0.0054
 7231SOL     OW28695   4.275   2.832   3.544  0.1785  0.7422  0.4170
 7231SOL    HW228696   4.275   2.861   3.636  0.0284 -0.8839  0.9657
 7231SOL    HW328697   4.364   2.851   3.514 -0.0944  2.3168  0.5309
 7231SOL    MW428698   4.287   2.838   3.552  0.1227  0.7354  0.5044
 7232SOL     OW28699   2.140   2.710   0.514 -0.0355 -0.6741  0.6248
 7232SOL    HW228700   2.137   2.624   0.471 -0.2335 -0.7495  0.7866
 7232SOL    HW328701   2.221   2.709   0.565 -0.3375 -0.9936  1.0986
 7232SOL    MW428702   2.150   2.699   0.515 -0.1014 -0.7262  0.7087
 7233SOL     OW28703   3.981   5.608   0.240 -0.1993  0.2927  0.7112
 7233SOL    HW228704   3.936   5.548   0.180 -0.0264 -0.2531  1.1203
 7233SOL    HW328705   4.070   5.572   0.247 -0.7724 -0.8836  2.9088
 7233SOL    MW428706   3.987   5.595   0.233 -0.2521  0.0655  1.0551
 7234SOL     OW28707   3.048   4.089   2.625  0.0074  0.3359 -0.2581
 7234SOL    HW228708   3.081   4.041   2.701 -1.2170 -0.7770 -0.3893
 7234SOL    HW328709   3.072   4.035   2.550 -1.1909 -0.0129 -0.4232
 7234SOL    MW428710   3.055   4.076   2.625 -0.3123  0.1430 -0.2972
 7235SOL     OW28711   5.322   6.320   5.517 -0.7141 -0.3917 -0.3146
 7235SOL    HW228712   5.310   6.408   5.481 -0.1222  0.1954  0.8481
 7235SOL    HW328713   5.360   6.270   5.445 -0.5146  0.4626 -0.8277
 7235SOL    MW428714   5.326   6.325   5.503 -0.6097 -0.2015 -0.2289
 7236SOL     OW28715   1.847   5.271   6.080 -0.2936 -0.0522  0.1272
 7236SOL    HW228716   1.830   5.180   6.105  0.3107 -0.0041  0.7345
 7236SOL    HW328717   1.816   5.323   6.154 -2.9029  0.4372 -1.1877
 7236SOL    MW428718   1.841   5.266   6.093 -0.5581  0.0187  0.0339
 7237SOL     OW28719   3.198   4.272   4.583  0.1247  0.5840 -0.6217
 7237SOL    HW228720   3.107   4.302   4.587  0.0513  0.2774  0.2948
 7237SOL    HW328721   3.249   4.351   4.561 -0.1541  1.2148  0.8932
 7237SOL    MW428722   3.193   4.286   4.581  0.0783  0.6267 -0.3009
 7238SOL     OW28723   3.454   1.190   5.549 -0.0955  0.2296  0.2891
 7238SOL    HW228724   3.528   1.130   5.554 -0.8837 -0.8741 -0.6397
 7238SOL    HW328725   3.443   1.207   5.455 -0.9538  0.4357  0.4159
 7238SOL    MW428726   3.462   1.184   5.537 -0.3127  0.1112  0.1833
 7239SOL     OW28727   6.102   5.033   4.171  0.1989  0.2506  0.5425
 7239SOL    HW228728   6.149   5.051   4.252 -0.2151 -0.5805  0.9738
 7239SOL    HW328729   6.167   5.049   4.102  1.2543 -1.2343  1.1317
 7239SOL    MW428730   6.117   5.038   4.172  0.2835 -0.0550  0.6771
 7240SOL     OW28731   1.156   4.225   6.060  0.5264 -0.2116 -0.5452
 7240SOL    HW228732   1.094   4.164   6.099  0.2510  1.3300  1.6502
 7240SOL    HW328733   1.215   4.170   6.009 -1.4888 -1.9295 -1.1771
 7240SOL    MW428734   1.156   4.210   6.059  0.2242 -0.2349 -0.3389
 7241SOL     OW28735   1.881   6.182   0.265  0.2582  0.2422  0.2884
 7241SOL    HW228736   1.891   6.093   0.229  0.2003  0.3906 -0.0990
 7241SOL    HW328737   1.835   6.230   0.197 -0.5546  0.3250  0.8898
 7241SOL    MW428738   1.876   6.176   0.251  0.1433  0.2727  0.3166
 7242SOL     OW28739   5.383   5.686   2.891  0.1697 -0.2277  0.1906
 7242SOL    HW228740   5.309   5.661   2.835 -0.2479 -0.8187  0.9931
 7242SOL    HW328741   5.434   5.747   2.837 -1.2041  0.6520 -0.1705
 7242SOL    MW428742   5.380   5.691   2.876 -0.0667 -0.1896  0.2488
 7243SOL     OW28743   1.501   4.935   3.531 -0.2036 -0.2130  0.0334
 7243SOL    HW228744   1.594   4.919   3.544  0.2318  0.1640 -2.2274
 7243SOL    HW328745   1.461   4.849   3.535 -0.1807 -0.1936  3.3391
 7243SOL    MW428746   1.508   4.922   3.533 -0.1431 -0.1607  0.1712
 7244SOL     OW28747   2.767   5.480   1.498 -0.1702  0.2060  0.4487
 7244SOL    HW228748   2.752   5.390   1.470 -1.8214  0.8109 -0.7788
 7244SOL    HW328749   2.680   5.512   1.523  0.6474  0.9431  2.6052
 7244SOL    MW428750   2.754   5.472   1.498 -0.2801  0.3831  0.5713
 7245SOL     OW28751   3.064   4.854   4.581  0.6049  0.3666  0.0866
 7245SOL    HW228752   3.050   4.940   4.543  1.4994  1.0174  1.1364
 7245SOL    HW328753   3.057   4.793   4.508 -2.2059  1.0643 -0.3411
 7245SOL    MW428754   3.061   4.857   4.567  0.3521  0.5445  0.1687
 7246SOL     OW28755   1.964   5.244   3.683 -0.2451  0.0605 -0.2486
 7246SOL    HW228756   2.052   5.280   3.693 -0.2215  0.5643 -1.9287
 7246SOL    HW328757   1.940   5.214   3.770  1.6838 -0.3262  0.1895
 7246SOL    MW428758   1.972   5.245   3.696  0.0125  0.0760 -0.4125
 7247SOL     OW28759   1.234   6.429   2.944  0.2503 -0.4638  0.5349
 7247SOL    HW228760   1.255   6.444   3.037  3.9955  1.1860 -0.4033
 7247SOL    HW328761   1.190   6.509   2.916  0.1820 -0.4740  0.6117
 7247SOL    MW428762   1.231   6.441   2.953  0.7354 -0.2475  0.4213
 7248SOL     OW28763   5.825   4.412   1.056  0.8872 -0.1060  0.0964
 7248SOL    HW228764   5.879   4.481   1.095  0.8125  0.1598 -0.2601
 7248SOL    HW328765   5.736   4.446   1.060  0.8387 -0.2237  0.0078
 7248SOL    MW428766   5.821   4.426   1.061  0.8710 -0.0864  0.0377
 7249SOL     OW28767   5.062   2.504   0.882  0.3008  0.3152 -0.0117
 7249SOL    HW228768   5.128   2.567   0.909  0.9497 -0.3871  0.0535
 7249SOL    HW328769   5.097   2.465   0.802  2.2888 -3.4610  2.4421
 7249SOL    MW428770   5.075   2.507   0.875  0.6487 -0.2757  0.3206
 7250SOL     OW28771   4.743   6.358   3.430 -0.1085  0.0865 -0.0623
 7250SOL    HW228772   4.819   6.322   3.477  0.0596  0.4635 -0.0450
 7250SOL    HW328773   4.671   6.353   3.494 -0.1840 -0.5926 -0.1937
 7250SOL    MW428774   4.744   6.353   3.445 -0.0963  0.0467 -0.0773
 7251SOL     OW28775   4.365   3.050   5.986 -0.3883 -0.2987  0.0738
 7251SOL    HW228776   4.397   3.110   5.919 -0.0975 -1.0679 -0.4910
 7251SOL    HW328777   4.290   3.095   6.025 -1.2025 -0.2494 -1.4669
 7251SOL    MW428778   4.359   3.064   5.982 -0.4573 -0.3937 -0.2040
 7252SOL     OW28779   2.824   3.524   2.158  0.1658  0.0321  0.2959
 7252SOL    HW228780   2.775   3.510   2.076  0.0834  0.9829  0.1751
 7252SOL    HW328781   2.761   3.565   2.217  0.4556  0.0925  0.5661
 7252SOL    MW428782   2.809   3.527   2.155  0.1932  0.1655  0.3156
 7253SOL     OW28783   2.015   6.195   5.728  0.6493  0.4448  0.5278
 7253SOL    HW228784   2.034   6.208   5.821  0.4121  1.9054  0.3943
 7253SOL    HW328785   2.045   6.275   5.685  1.5989 -0.5750 -0.8068
 7253SOL    MW428786   2.021   6.207   5.735  0.7433  0.5030  0.3341
 7254SOL     OW28787   4.631   1.435   1.199 -0.1695 -0.2712 -0.7654
 7254SOL    HW228788   4.720   1.402   1.206 -0.1034  0.0302 -0.0496
 7254SOL    HW328789   4.613   1.439   1.105  0.0583 -1.6619 -0.8778
 7254SOL    MW428790   4.640   1.431   1.188 -0.1307 -0.4149 -0.6858
 7255SOL     OW28791   0.260   5.773   5.634  0.2180 -0.2618 -0.2764
 7255SOL    HW228792   0.346   5.813   5.642  0.6786 -1.0946 -0.9660
 7255SOL    HW328793   0.208   5.813   5.704  0.7985  1.1737 -0.6307
 7255SOL    MW428794   0.264   5.784   5.644  0.3553 -0.1823 -0.4142
 7256SOL     OW28795   6.428   6.155   5.146  0.4467  0.1577  0.2635
 7256SOL    HW228796   6.435   6.215   5.220  2.0370 -1.8196  1.8206
 7256SOL    HW328797   6.496   6.185   5.085  2.5011 -1.0117  1.8402
 7256SOL    MW428798   6.438   6.167   5.148  0.9275 -0.2575  0.6770
 7257SOL     OW28799   2.519   3.089   0.925  0.2184  0.2650  0.2205
 7257SOL    HW228800   2.537   3.123   1.013 -1.0312  2.5305 -0.3004
 7257SOL    HW328801   2.565   3.005   0.921  2.7558  1.4480  2.0024
 7257SOL    MW428802   2.527   3.082   0.936  0.3883  0.7200  0.3869
 7258SOL     OW28803   4.148   3.801   5.516 -0.0530 -0.4425  0.0573
 7258SOL    HW228804   4.118   3.767   5.431  1.1150  0.9449 -0.9741
 7258SOL    HW328805   4.191   3.728   5.558 -0.4540 -1.1000 -0.6451
 7258SOL    MW428806   4.149   3.787   5.510  0.0482 -0.3462 -0.1714
 7259SOL     OW28807   5.879   0.211   1.743 -0.3795  0.2470 -0.3048
 7259SOL    HW228808   5.876   0.124   1.702  1.0111  0.1527 -0.2743
 7259SOL    HW328809   5.791   0.225   1.778 -1.4810  0.0924 -2.8188
 7259SOL    MW428810   5.867   0.201   1.742 -0.3414  0.2141 -0.6324
 7260SOL     OW28811   5.643   5.473   5.323 -0.0368 -0.1796  0.7541
 7260SOL    HW228812   5.692   5.452   5.243 -0.5684  0.3841  0.2705
 7260SOL    HW328813   5.556   5.496   5.292 -0.7845 -1.6957  1.6457
 7260SOL    MW428814   5.638   5.473   5.308 -0.2056 -0.3052  0.8079
 7261SOL     OW28815   5.052   2.772   0.708  0.3503 -0.1017 -0.0096
 7261SOL    HW228816   4.967   2.773   0.751  1.1005 -1.6416  1.6412
 7261SOL    HW328817   5.085   2.862   0.718 -0.6482  0.2577  0.1667
 7261SOL    MW428818   5.045   2.784   0.715  0.3175 -0.2574  0.2315
 7262SOL     OW28819   1.695   0.734   2.708 -0.3854 -0.2369 -0.0522
 7262SOL    HW228820   1.656   0.793   2.644 -1.9560 -0.9532  0.1723
 7262SOL    HW328821   1.693   0.648   2.666 -0.1165 -0.4798  0.4208
 7262SOL    MW428822   1.689   0.730   2.694 -0.5572 -0.3635  0.0399
 7263SOL     OW28823   5.755   2.389   2.781 -0.3131 -0.1431 -0.1576
 7263SOL    HW228824   5.781   2.350   2.864 -0.9790 -0.3715 -0.0519
 7263SOL    HW328825   5.813   2.347   2.716 -1.5093 -1.9050 -0.1515
 7263SOL    MW428826   5.766   2.378   2.783 -0.5588 -0.4057 -0.1428
 7264SOL     OW28827   4.695   3.138   3.076  0.4282 -0.0040  0.0038
 7264SOL    HW228828   4.750   3.090   3.139  1.2450  2.0457  0.9261
 7264SOL    HW328829   4.607   3.133   3.113  0.5613 -0.4728  0.2675
 7264SOL    MW428830   4.691   3.131   3.089  0.5536  0.2046  0.1602
 7265SOL     OW28831   2.485   1.726   3.170 -0.6552 -0.4939 -0.1665
 7265SOL    HW228832   2.459   1.657   3.231 -1.1201 -0.1770 -0.0004
 7265SOL    HW328833   2.410   1.785   3.167 -0.1197  0.2111 -0.0154
 7265SOL    MW428834   2.472   1.725   3.178 -0.6459 -0.3591 -0.1246
 7266SOL     OW28835   4.087   3.756   5.227 -0.0261  0.0803  0.2997
 7266SOL    HW228836   4.071   3.663   5.211  2.9323 -0.3122 -1.0061
 7266SOL    HW328837   4.164   3.777   5.175  1.4311  2.4786  3.0919
 7266SOL    MW428838   4.095   3.747   5.218  0.5565  0.3449  0.4958
 7267SOL     OW28839   4.709   3.000   3.335  0.0847  0.6252  0.8996
 7267SOL    HW228840   4.653   2.923   3.348  1.3472 -0.8398 -1.5296
 7267SOL    HW328841   4.795   2.972   3.366  0.1753  1.7508  1.7095
 7267SOL    MW428842   4.713   2.986   3.340  0.2632  0.5804  0.6860
 7268SOL     OW28843   2.806   3.065   5.032  0.1929  0.3823  0.0660
 7268SOL    HW228844   2.763   3.089   4.949  1.3124 -0.4707 -0.7897
 7268SOL    HW328845   2.857   3.142   5.055 -1.7293  1.4143  1.0988
 7268SOL    MW428846   2.807   3.078   5.024  0.0870  0.4059  0.0893
 7269SOL     OW28847   5.274   4.989   4.788 -0.3451  0.2029 -0.5337
 7269SOL    HW228848   5.193   5.018   4.831 -0.2563 -0.8493  0.4052
 7269SOL    HW328849   5.322   5.069   4.770 -0.9761  0.7645  0.1918
 7269SOL    MW428850   5.269   5.003   4.792 -0.4166  0.1382 -0.3141
 7270SOL     OW28851   0.941   4.248   5.396 -0.1165  0.3917 -0.1238
 7270SOL    HW228852   0.901   4.310   5.457 -0.8170 -2.3752  2.4803
 7270SOL    HW328853   0.908   4.163   5.423  2.5493 -1.4102 -1.9950
 7270SOL    MW428854   0.932   4.245   5.408  0.1428 -0.2111 -0.0271
 7271SOL     OW28855   4.874   5.469   6.223  0.3521 -0.0814  0.4221
 7271SOL    HW228856   4.921   5.534   6.275  0.6759  0.9536 -1.1146
 7271SOL    HW328857   4.941   5.433   6.165 -0.2538 -0.3696 -0.0968
 7271SOL    MW428858   4.889   5.473   6.222  0.3149  0.0172  0.1509
 7272SOL     OW28859   2.228   1.884   3.817  0.3189  0.4188  0.0394
 7272SOL    HW228860   2.176   1.964   3.825  1.3835  1.0852  0.6165
 7272SOL    HW328861   2.202   1.831   3.893  0.3766  0.7020  0.2615
 7272SOL    MW428862   2.218   1.888   3.828  0.4670  0.5441  0.1448
 7273SOL     OW28863   6.063   4.621   0.246 -0.3457 -0.1685  0.0379
 7273SOL    HW228864   6.000   4.552   0.268 -1.6319  1.2509  1.1253
 7273SOL    HW328865   6.138   4.604   0.302 -1.7935  0.8317  2.4610
 7273SOL    MW428866   6.064   4.610   0.257 -0.7064  0.1507  0.5010
 7274SOL     OW28867   6.273   5.819   1.986 -0.0249 -0.0558 -0.3753
 7274SOL    HW228868   6.366   5.819   2.009 -0.0472  2.6594  0.0513
 7274SOL    HW328869   6.272   5.821   1.890  0.3349 -0.7047 -0.3957
 7274SOL    MW428870   6.285   5.819   1.976  0.0196  0.2168 -0.3217
 7275SOL     OW28871   5.697   3.508   5.805  0.2201  0.0311  0.0299
 7275SOL    HW228872   5.638   3.583   5.799 -1.6555 -1.3818 -0.1109
 7275SOL    HW328873   5.732   3.498   5.717 -2.0070 -1.0863 -0.8314
 7275SOL    MW428874   5.693   3.516   5.792 -0.3212 -0.3028 -0.1023
 7276SOL     OW28875   2.409   4.082   2.889  0.0589  0.5280  0.5445
 7276SOL    HW228876   2.504   4.083   2.875  0.6159 -1.0561  3.5140
 7276SOL    HW328877   2.385   3.990   2.883 -1.6418  1.0140 -1.5333
 7276SOL    MW428878   2.418   4.070   2.886 -0.0920  0.3831  0.6621
 7277SOL     OW28879   1.658   3.626   4.228  0.4197 -0.1524  0.3124
 7277SOL    HW228880   1.702   3.711   4.219  0.0408  0.0949  0.7372
 7277SOL    HW328881   1.581   3.633   4.172  1.3843 -0.9310 -1.1877
 7277SOL    MW428882   1.654   3.638   4.220  0.4970 -0.2225  0.1705
 7278SOL     OW28883   0.299   1.840   6.067 -0.5071 -0.0571 -0.6115
 7278SOL    HW228884   0.293   1.746   6.051 -3.0148 -0.6819  2.7995
 7278SOL    HW328885   0.210   1.872   6.049 -0.3146  1.1935  0.5489
 7278SOL    MW428886   0.286   1.832   6.062 -0.8125  0.0255 -0.0084
 7279SOL     OW28887   3.502   1.521   3.812 -0.2750  0.3203  0.1770
 7279SOL    HW228888   3.498   1.561   3.899 -0.1601 -0.4155  0.5292
 7279SOL    HW328889   3.411   1.508   3.787 -0.3076  0.4633  0.2226
 7279SOL    MW428890   3.490   1.524   3.820 -0.2642  0.2421  0.2295
 7280SOL     OW28891   5.836   2.255   0.005 -0.1670 -0.0327 -0.4792
 7280SOL    HW228892   5.771   2.260  -0.065 -0.7567  0.5400  0.0824
 7280SOL    HW328893   5.920   2.251  -0.040 -0.5770 -0.5565 -1.2198
 7280SOL    MW428894   5.838   2.255  -0.010 -0.2989 -0.0263 -0.5028
 7281SOL     OW28895   4.562   6.326   3.663  0.0037 -0.0852  0.3132
 7281SOL    HW228896   4.577   6.239   3.699 -1.1751 -0.3290  0.2493
 7281SOL    HW328897   4.614   6.384   3.719  0.0391 -0.7237  0.9543
 7281SOL    MW428898   4.571   6.322   3.675 -0.1472 -0.2016  0.3894
 7282SOL     OW28899   4.653   1.848   4.539  0.3690 -0.0727 -0.1085
 7282SOL    HW228900   4.622   1.938   4.528  0.4434 -0.1027 -0.5876
 7282SOL    HW328901   4.749   1.857   4.542  0.3830 -0.1541 -0.3269
 7282SOL    MW428902   4.662   1.861   4.538  0.3807 -0.0874 -0.2005
 7283SOL     OW28903   5.048   2.994   2.017  0.2913 -0.1236 -0.2110
 7283SOL    HW228904   5.021   3.035   1.935 -0.8680 -1.4710 -0.5356
 7283SOL    HW328905   5.136   2.961   2.000  0.2688  0.0782 -0.7245
 7283SOL    MW428906   5.056   2.995   2.004  0.1354 -0.2747 -0.3216
 7284SOL     OW28907   0.610   1.142   0.552 -0.7543  0.1953 -0.3493
 7284SOL    HW228908   0.652   1.114   0.471  1.0646  1.5760  0.0518
 7284SOL    HW328909   0.593   1.235   0.539 -0.3630  0.4610  0.8674
 7284SOL    MW428910   0.613   1.151   0.540 -0.4627  0.4125 -0.1359
 7285SOL     OW28911   1.536   3.274   5.739  0.3297 -0.1599  0.4062
 7285SOL    HW228912   1.449   3.246   5.714 -0.3364  1.6317  0.5546
 7285SOL    HW328913   1.522   3.336   5.811  1.5735  1.4099 -0.6349
 7285SOL    MW428914   1.523   3.279   5.745  0.4059  0.2836  0.2884
 7286SOL     OW28915   2.635   4.610   4.340  0.0590  0.0586  0.6848
 7286SOL    HW228916   2.703   4.626   4.275 -1.5149  0.1961 -1.0072
 7286SOL    HW328917   2.594   4.695   4.354 -0.7849 -0.3023  0.4731
 7286SOL    MW428918   2.639   4.623   4.333 -0.2600  0.0291  0.4336
 7287SOL     OW28919   0.356   3.844   4.242 -0.1352  0.1390  0.0631
 7287SOL    HW228920   0.379   3.822   4.152  1.1575  0.3015  0.3279
 7287SOL    HW328921   0.284   3.906   4.234 -0.4811 -0.3638 -0.8312
 7287SOL    MW428922   0.350   3.849   4.229 -0.0103  0.0941 -0.0199
 7288SOL     OW28923   5.897   5.611   0.972  0.0358 -0.0962  0.3086
 7288SOL    HW228924   5.908   5.577   1.061  0.9844 -2.9931 -0.7960
 7288SOL    HW328925   5.981   5.595   0.929 -0.6974  0.3355 -1.3862
 7288SOL    MW428926   5.910   5.604   0.978  0.0642 -0.4214 -0.0608
 7289SOL     OW28927   1.033   1.419   3.106  0.0990  0.5847  0.5902
 7289SOL    HW228928   0.992   1.380   3.028 -0.4961  0.2931  1.0399
 7289SOL    HW328929   1.119   1.378   3.110 -0.1964 -0.0530  0.5720
 7289SOL    MW428930   1.039   1.408   3.096 -0.0185  0.4621  0.6471
 7290SOL     OW28931   5.234   0.090   3.235  0.3622 -0.1983 -0.1052
 7290SOL    HW228932   5.269   0.132   3.157  0.1652  2.4258  1.1279
 7290SOL    HW328933   5.287   0.125   3.307 -0.1898 -1.6844  1.0794
 7290SOL    MW428934   5.246   0.100   3.234  0.2634 -0.0482  0.2138
 7291SOL     OW28935   4.704   4.610   0.632 -0.7243  0.3925 -0.3374
 7291SOL    HW228936   4.709   4.690   0.580 -2.6780  0.3934 -0.6071
 7291SOL    HW328937   4.742   4.542   0.575  1.9111  1.2284  0.2964
 7291SOL    MW428938   4.709   4.611   0.617 -0.6344  0.5029 -0.2894
 7292SOL     OW28939   4.869   2.073   3.636 -0.2612 -0.2967 -0.1759
 7292SOL    HW228940   4.866   2.143   3.701 -0.6420  1.1169 -1.6411
 7292SOL    HW328941   4.916   2.111   3.562  0.2816 -1.8971 -0.7047
 7292SOL    MW428942   4.875   2.087   3.635 -0.2398 -0.3214 -0.4390
 7293SOL     OW28943   3.643   6.254   4.417  0.5137  0.0128  0.3849
 7293SOL    HW228944   3.690   6.235   4.498 -1.0085 -0.2088  1.2483
 7293SOL    HW328945   3.595   6.173   4.398 -0.0015  0.4346 -0.1275
 7293SOL    MW428946   3.643   6.240   4.425  0.2449  0.0392  0.4312
 7294SOL     OW28947   2.638   4.655   4.011 -0.0960  0.5240  0.2082
 7294SOL    HW228948   2.723   4.624   4.042 -1.3974 -3.8600  0.0256
 7294SOL    HW328949   2.649   4.668   3.917 -0.3051 -3.7504 -0.5932
 7294SOL    MW428950   2.651   4.653   4.003 -0.2953 -0.6184  0.0784
 7295SOL     OW28951   4.990   4.737   0.136  0.1021  0.0635 -0.0740
 7295SOL    HW228952   5.079   4.751   0.169  0.3004  1.3729 -1.0803
 7295SOL    HW328953   4.989   4.780   0.050 -0.8598 -1.8462 -1.0774
 7295SOL    MW428954   5.001   4.745   0.129  0.0013 -0.0157 -0.3391
 7296SOL     OW28955   3.677   5.324   4.754 -0.0448 -0.2138  0.4161
 7296SOL    HW228956   3.600   5.273   4.777  0.5030 -0.8725  0.8259
 7296SOL    HW328957   3.733   5.320   4.832  0.3567  0.3457  0.1670
 7296SOL    MW428958   3.674   5.317   4.767  0.0804 -0.2269  0.4373
 7297SOL     OW28959   6.002   5.262   1.148 -0.0215 -0.4471  0.0433
 7297SOL    HW228960   6.042   5.267   1.061 -0.9770 -1.2839 -0.4624
 7297SOL    HW328961   6.075   5.240   1.206  1.1088  2.4234 -0.1223
 7297SOL    MW428962   6.017   5.260   1.144  0.0015 -0.1788 -0.0453
 7298SOL     OW28963   3.750   5.784   1.840 -0.5097 -0.6284 -0.8196
 7298SOL    HW228964   3.677   5.842   1.863 -1.3392 -2.2432  0.8492
 7298SOL    HW328965   3.722   5.743   1.758 -0.2121  0.7496 -1.6518
 7298SOL    MW428966   3.737   5.786   1.832 -0.5799 -0.6597 -0.7092
 7299SOL     OW28967   0.307   0.161   1.611  0.2997 -0.0019  0.2455
 7299SOL    HW228968   0.230   0.109   1.635  0.7296 -1.1117 -0.6620
 7299SOL    HW328969   0.378   0.120   1.660  0.1947  1.6237  1.8377
 7299SOL    MW428970   0.306   0.149   1.620  0.3426  0.0662  0.3359
 7300SOL     OW28971   4.677   5.090   0.149  0.1016  0.0926 -0.4819
 7300SOL    HW228972   4.720   5.168   0.113  0.3694  0.7253  1.1441
 7300SOL    HW328973   4.749   5.031   0.171  0.0209  0.2519  0.2190
 7300SOL    MW428974   4.692   5.093   0.147  0.1263  0.1971 -0.1749
 7301SOL     OW28975   6.284   0.151   0.214 -0.6327  0.2808 -0.1042
 7301SOL    HW228976   6.281   0.059   0.188  2.2495  0.2838 -0.7536
 7301SOL    HW328977   6.217   0.193   0.161  0.8925 -0.7579 -3.0921
 7301SOL    MW428978   6.275   0.144   0.204 -0.0512  0.1441 -0.5841
 7302SOL     OW28979   1.482   4.684   0.924  0.4395  0.0600 -0.0597
 7302SOL    HW228980   1.445   4.596   0.917 -0.7857  0.6722 -3.1003
 7302SOL    HW328981   1.447   4.718   1.007  1.3022 -2.3834  1.4197
 7302SOL    MW428982   1.472   4.677   0.934  0.3917 -0.1816 -0.2657
 7303SOL     OW28983   5.223   1.243   0.228 -0.0981  0.0807 -0.5428
 7303SOL    HW228984   5.222   1.335   0.202 -1.0720  0.0200 -0.7330
 7303SOL    HW328985   5.312   1.229   0.262 -0.4680  1.5564  1.1757
 7303SOL    MW428986   5.235   1.253   0.230 -0.2754  0.2674 -0.3412
 7304SOL     OW28987   0.835   6.008   3.787  0.2104 -0.7951  0.3345
 7304SOL    HW228988   0.758   5.951   3.786  0.6923 -1.4906 -1.5811
 7304SOL    HW328989   0.899   5.961   3.840  0.6028 -2.0839 -1.2301
 7304SOL    MW428990   0.833   5.994   3.794  0.3257 -1.0569 -0.1247
 7305SOL     OW28991   5.309   3.531   4.732 -0.1165 -0.0000 -0.4371
 7305SOL    HW228992   5.290   3.622   4.755 -1.0281 -0.6189  1.4688
 7305SOL    HW328993   5.385   3.508   4.786  0.1361 -0.3626 -0.9367
 7305SOL    MW428994   5.317   3.540   4.742 -0.2035 -0.1295 -0.2515
 7306SOL     OW28995   3.394   5.702   1.664  0.4325  0.0545 -0.0926
 7306SOL    HW228996   3.437   5.726   1.582 -1.1577  1.9360 -0.4695
 7306SOL    HW328997   3.341   5.625   1.641  0.9831 -0.2221 -0.4715
 7306SOL    MW428998   3.392   5.695   1.650  0.2953  0.2662 -0.1923
 7307SOL     OW28999   0.971   2.990   0.331  0.4897 -0.5866  0.0274
 7307SOL    HW229000   0.894   3.025   0.285 -0.3892 -1.5170  0.7307
 7307SOL    HW329001   0.961   3.022   0.421  0.7709 -0.9478  0.1888
 7307SOL    MW429002   0.959   2.999   0.337  0.4108 -0.7570  0.1415
 7308SOL     OW29003   0.604   4.698   3.997 -0.1955  0.0911 -0.4710
 7308SOL    HW229004   0.573   4.778   4.041 -0.2393 -0.0186 -0.2994
 7308SOL    HW329005   0.650   4.730   3.919 -3.2336  0.2018 -2.3971
 7308SOL    MW429006   0.606   4.713   3.993 -0.6021  0.0912 -0.7025
 7309SOL     OW29007   2.252   0.722   3.306 -0.2078  0.3008 -0.7214
 7309SOL    HW229008   2.299   0.784   3.362 -0.0772  0.6035 -1.1564
 7309SOL    HW329009   2.314   0.651   3.291  0.1888  0.7765 -1.4269
 7309SOL    MW429010   2.266   0.721   3.311 -0.1382  0.4035 -0.8719
 7310SOL     OW29011   4.296   3.349   5.141  0.7326 -0.3367 -0.3686
 7310SOL    HW229012   4.238   3.307   5.205  0.2360  1.6728  0.5875
 7310SOL    HW329013   4.256   3.331   5.056 -2.1026  1.9727  0.3133
 7310SOL    MW429014   4.283   3.341   5.139  0.2930  0.2331 -0.1525
 7311SOL     OW29015   3.610   1.847   3.483  0.0707 -0.4060  0.1867
 7311SOL    HW229016   3.558   1.770   3.505 -0.9908 -0.3743 -1.9389
 7311SOL    HW329017   3.696   1.830   3.523 -0.9354 -1.4004  2.0352
 7311SOL    MW429018   3.615   1.835   3.491 -0.2021 -0.5330  0.1501
 7312SOL     OW29019   3.885   2.015   2.392  0.0564  0.2330 -0.1139
 7312SOL    HW229020   3.894   2.007   2.487  0.3898 -0.0326 -0.1616
 7312SOL    HW329021   3.792   2.005   2.375 -0.0477  0.6436  0.2170
 7312SOL    MW429022   3.874   2.012   2.403  0.0867  0.2522 -0.0765
 7313SOL     OW29023   2.666   2.687   5.707 -0.3854  0.8124  0.0267
 7313SOL    HW229024   2.649   2.593   5.708  0.6839  0.5975 -0.7473
 7313SOL    HW329025   2.707   2.704   5.792  0.3015  0.3933 -0.2093
 7313SOL    MW429026   2.669   2.677   5.718 -0.1537  0.7288 -0.1065
 7314SOL     OW29027   2.132   1.860   0.270  0.1963 -0.0028  0.8256
 7314SOL    HW229028   2.131   1.905   0.355 -0.2096  0.9681  0.3263
 7314SOL    HW329029   2.136   1.931   0.206  0.3087 -0.7178  0.0259
 7314SOL    MW429030   2.132   1.875   0.273  0.1576  0.0310  0.6542
 7315SOL     OW29031   6.132   6.031   2.898  0.3465  0.0346  0.2418
 7315SOL    HW229032   6.159   6.119   2.873  1.1789  0.3553  2.1570
 7315SOL    HW329033   6.047   6.043   2.940  0.7132  0.0047  1.0011
 7315SOL    MW429034   6.124   6.044   2.900  0.5047  0.0730  0.5947
 7316SOL     OW29035   4.123   1.805   3.387  0.1426 -0.1586 -0.0670
 7316SOL    HW229036   4.054   1.755   3.344  0.5034 -1.3253  0.6538
 7316SOL    HW329037   4.128   1.887   3.339 -2.3522  0.3318  0.4055
 7316SOL    MW429038   4.115   1.809   3.375 -0.1389 -0.2478  0.0904
 7317SOL     OW29039   0.891   0.894   4.971 -0.3261 -0.2274 -0.7903
 7317SOL    HW229040   0.840   0.891   4.890 -0.6987  0.1316 -0.5743
 7317SOL    HW329041   0.981   0.880   4.943 -0.5512 -0.9639 -1.1697
 7317SOL    MW429042   0.896   0.892   4.957 -0.4050 -0.2772 -0.8118
 7318SOL     OW29043   3.702   2.988   1.572 -0.0034  0.0611  0.3821
 7318SOL    HW229044   3.739   3.028   1.493  0.1655 -0.9657 -0.0827
 7318SOL    HW329045   3.769   3.000   1.639 -0.2857  1.2369  0.4793
 7318SOL    MW429046   3.716   2.995   1.570 -0.0183  0.0807  0.3336
 7319SOL     OW29047   3.459   5.578   5.303 -0.0729  0.1261  0.5095
 7319SOL    HW229048   3.547   5.565   5.338 -0.1787 -1.3639  0.3100
 7319SOL    HW329049   3.404   5.589   5.380  0.1155 -0.2157  0.6965
 7319SOL    MW429050   3.464   5.577   5.318 -0.0620 -0.1156  0.5078
 7320SOL     OW29051   4.490   0.638   0.635 -0.4874 -0.1448 -0.2887
 7320SOL    HW229052   4.477   0.568   0.571  1.4968 -2.0535  1.2561
 7320SOL    HW329053   4.583   0.660   0.627 -0.8108  1.4523  0.1337
 7320SOL    MW429054   4.501   0.632   0.625 -0.2683 -0.1859 -0.0292
 7321SOL     OW29055   0.749   2.558   6.186  0.1594  0.0049 -0.0798
 7321SOL    HW229056   0.714   2.509   6.260  0.4138 -0.1395 -0.0529
 7321SOL    HW329057   0.839   2.526   6.177  0.8118  1.4908  0.8413
 7321SOL    MW429058   0.757   2.547   6.195  0.2790  0.1819  0.0453
 7322SOL     OW29059   2.100   0.096   1.178  0.1469  0.3198 -0.4296
 7322SOL    HW229060   2.110   0.054   1.093  1.1356  1.2745 -0.8082
 7322SOL    HW329061   2.092   0.023   1.240  3.0204 -0.5544 -0.9139
 7322SOL    MW429062   2.101   0.081   1.175  0.6565  0.3304 -0.5434
 7323SOL     OW29063   0.604   4.723   3.326  0.0829  0.0262  0.5548
 7323SOL    HW229064   0.654   4.756   3.250 -0.7913 -0.4611 -0.2541
 7323SOL    HW329065   0.621   4.629   3.327 -0.0316  0.0086  0.8730
 7323SOL    MW429066   0.613   4.715   3.316 -0.0475 -0.0404  0.4900
 7324SOL     OW29067   4.662   5.672   1.379  0.0574  0.7694  0.4096
 7324SOL    HW229068   4.655   5.582   1.410 -0.5595  0.8904  0.6364
 7324SOL    HW329069   4.756   5.692   1.382  0.1852  0.1610  0.4271
 7324SOL    MW429070   4.674   5.663   1.384 -0.0071  0.7051  0.4418
 7325SOL     OW29071   0.880   2.906   0.965  0.2363  0.2389  0.8382
 7325SOL    HW229072   0.891   2.812   0.981 -0.9082  0.1715  1.3017
 7325SOL    HW329073   0.825   2.911   0.887  0.0379  0.5237  0.9954
 7325SOL    MW429074   0.874   2.894   0.957  0.0591  0.2676  0.9201
 7326SOL     OW29075   1.294   0.257   5.091 -0.4756 -0.2180 -0.3279
 7326SOL    HW229076   1.248   0.294   5.015  0.2388  1.6885  0.1056
 7326SOL    HW329077   1.375   0.309   5.098  0.4165 -1.6607  0.5741
 7326SOL    MW429078   1.299   0.269   5.082 -0.2637 -0.1568 -0.1517
 7327SOL     OW29079   5.761   3.474   5.494 -0.2244  0.3072 -0.3249
 7327SOL    HW229080   5.756   3.568   5.511  1.7772  0.2654  0.9381
 7327SOL    HW329081   5.844   3.463   5.447 -0.6355 -0.7770 -0.8094
 7327SOL    MW429082   5.771   3.485   5.490 -0.0145  0.1587 -0.2222
 7328SOL     OW29083   6.002   3.352   4.015  0.5448 -0.3678  0.4081
 7328SOL    HW229084   6.055   3.423   4.050  2.0739 -0.8796 -0.7260
 7328SOL    HW329085   5.917   3.391   3.996  0.3671  0.4114  2.5816
 7328SOL    MW429086   5.998   3.366   4.017  0.7231 -0.3325  0.5452
 7329SOL     OW29087   5.708   3.050   6.042 -0.5022 -0.5971 -0.8637
 7329SOL    HW229088   5.647   3.124   6.040  0.2849  0.2077  1.1522
 7329SOL    HW329089   5.654   2.973   6.025 -1.8748  0.1965 -0.2815
 7329SOL    MW429090   5.693   3.050   6.040 -0.5794 -0.3862 -0.5209
 7330SOL     OW29091   2.066   5.339   4.854 -0.2842 -0.8095  0.1014
 7330SOL    HW229092   1.979   5.359   4.888  0.1806  0.7243  0.4755
 7330SOL    HW329093   2.097   5.266   4.908 -0.8443 -0.5337  0.8122
 7330SOL    MW429094   2.058   5.332   4.865 -0.2968 -0.5707  0.2445
 7331SOL     OW29095   6.257   0.191   3.420 -0.0038 -0.1667  0.0196
 7331SOL    HW229096   6.167   0.180   3.392  0.1844  0.5879 -0.9435
 7331SOL    HW329097   6.265   0.284   3.439  0.5187 -0.2600  0.2717
 7331SOL    MW429098   6.246   0.202   3.419  0.0899 -0.0794 -0.0742
 7332SOL     OW29099   1.158   3.816   0.664  0.7898 -0.0257  0.2363
 7332SOL    HW229100   1.189   3.893   0.712  0.6591  0.1142  0.0964
 7332SOL    HW329101   1.235   3.758   0.661  0.7520 -0.1052  0.7486
 7332SOL    MW429102   1.173   3.819   0.670  0.7676 -0.0177  0.2854
 7333SOL     OW29103   2.879   6.272   1.379 -0.2579  0.7946 -0.1314
 7333SOL    HW229104   2.825   6.240   1.306 -0.8550  0.7330  0.3289
 7333SOL    HW329105   2.898   6.194   1.431 -0.7453  0.9983  0.3629
 7333SOL    MW429106   2.874   6.257   1.376 -0.4010  0.8134 -0.0055
 7334SOL     OW29107   3.706   5.803   5.974 -0.4938  0.4693  0.0280
 7334SOL    HW229108   3.668   5.746   5.908 -1.5907  0.9183  0.2468
 7334SOL    HW329109   3.727   5.744   6.047 -0.0494  0.0982 -0.3976
 7334SOL    MW429110   3.704   5.788   5.975 -0.5799  0.4796  0.0007
 7335SOL     OW29111   6.247   5.624   4.687 -0.5077  0.1814 -0.1559
 7335SOL    HW229112   6.278   5.539   4.718  0.1847  0.8064  0.9390
 7335SOL    HW329113   6.322   5.661   4.640 -0.8348  0.1641 -0.6986
 7335SOL    MW429114   6.261   5.618   4.685 -0.4595  0.2616 -0.0830
 7336SOL     OW29115   5.826   1.378   2.065  0.2201  0.0009 -0.3664
 7336SOL    HW229116   5.796   1.294   2.034 -2.1828  0.7786 -0.3150
 7336SOL    HW329117   5.893   1.405   2.002  3.2445 -3.1052  1.1502
 7336SOL    MW429118   5.831   1.371   2.053  0.3021 -0.3063 -0.1595
 7337SOL     OW29119   4.634   2.950   1.468  0.2468 -0.4166 -0.5029
 7337SOL    HW229120   4.683   2.887   1.520  0.8520  0.5453  0.1447
 7337SOL    HW329121   4.553   2.965   1.516  0.5382  0.0174 -0.1347
 7337SOL    MW429122   4.630   2.944   1.481  0.3651 -0.2324 -0.3689
 7338SOL     OW29123   5.153   3.491   4.482 -0.0798 -0.2223 -0.1380
 7338SOL    HW229124   5.227   3.511   4.539 -0.5784 -0.4625  0.6100
 7338SOL    HW329125   5.193   3.466   4.399  0.6852 -0.5182  0.3067
 7338SOL    MW429126   5.168   3.491   4.479 -0.0447 -0.2930  0.0193
 7339SOL     OW29127   5.251   6.046   2.200  0.0739  0.5290 -0.3211
 7339SOL    HW229128   5.211   5.988   2.134  0.3811  0.4278 -0.4189
 7339SOL    HW329129   5.187   6.048   2.271  0.0609  0.0735 -0.3200
 7339SOL    MW429130   5.237   6.039   2.200  0.1127  0.4556 -0.3339
 7340SOL     OW29131   4.955   2.267   5.488 -0.4947 -0.2933 -0.2960
 7340SOL    HW229132   4.929   2.301   5.403  1.3019  1.1734 -0.3202
 7340SOL    HW329133   4.914   2.326   5.551 -0.1597 -0.1273 -0.2287
 7340SOL    MW429134   4.946   2.279   5.486 -0.2135 -0.0779 -0.2903
 7341SOL     OW29135   2.301   2.184   1.439 -0.5594 -0.1680  0.6047
 7341SOL    HW229136   2.225   2.126   1.444 -0.0520 -0.8682  0.4224
 7341SOL    HW329137   2.376   2.125   1.448 -0.0539  0.6122  1.6604
 7341SOL    MW429138   2.301   2.169   1.441 -0.4258 -0.1574  0.7199
 7342SOL     OW29139   2.982   2.361   0.323  0.1959  0.0650  0.4431
 7342SOL    HW229140   2.916   2.367   0.392 -0.5250 -1.0878 -0.1085
 7342SOL    HW329141   2.931   2.350   0.243  1.0509 -0.9953  0.0186
 7342SOL    MW429142   2.967   2.360   0.321  0.2136 -0.2270  0.3143
 7343SOL     OW29143  -0.001   6.010   3.759  0.3297  0.5285 -0.5483
 7343SOL    HW229144  -0.082   5.976   3.798  0.1230 -2.5716 -3.3158
 7343SOL    HW329145   0.050   6.040   3.834 -1.0478 -2.6578  1.9173
 7343SOL    MW429146  -0.005   6.010   3.774  0.1207 -0.3009 -0.5881
 7344SOL     OW29147   4.159   3.193   1.060  0.1918 -0.2595 -0.2862
 7344SOL    HW229148   4.072   3.177   1.024 -0.4763  0.8493  0.7758
 7344SOL    HW329149   4.211   3.220   0.984 -0.5272 -0.3924 -0.8373
 7344SOL    MW429150   4.155   3.195   1.045  0.0088 -0.1307 -0.2188
 7345SOL     OW29151   4.951   4.207   2.232 -0.1388  0.2951  0.1674
 7345SOL    HW229152   5.022   4.267   2.253  0.2400  0.1415 -0.6330
 7345SOL    HW329153   4.947   4.147   2.307  0.2362  0.6114  0.4447
 7345SOL    MW429154   4.960   4.207   2.245 -0.0394  0.3166  0.0984
 7346SOL     OW29155   3.687   3.609   3.617  0.6930 -0.1463  0.1214
 7346SOL    HW229156   3.685   3.542   3.549 -1.4084 -0.1553  0.1291
 7346SOL    HW329157   3.768   3.658   3.600  1.5853 -1.8126 -0.7032
 7346SOL    MW429158   3.698   3.607   3.606  0.5334 -0.3673  0.0136
 7347SOL     OW29159   0.925   4.742   4.793 -0.0953 -0.3712  0.0819
 7347SOL    HW229160   0.836   4.767   4.769 -0.0602  0.4061  0.6741
 7347SOL    HW329161   0.914   4.688   4.872 -0.1234 -1.6374 -0.7625
 7347SOL    MW429162   0.912   4.738   4.801 -0.0943 -0.4357  0.0487
 7348SOL     OW29163   3.442   0.098   4.415 -0.0772 -0.2583 -0.5610
 7348SOL    HW229164   3.525   0.092   4.463  0.1438 -1.1589 -1.0298
 7348SOL    HW329165   3.423   0.008   4.389 -1.7075 -0.2071  0.3523
 7348SOL    MW429166   3.451   0.085   4.418 -0.2631 -0.3704 -0.5024
 7349SOL     OW29167   5.414   1.261   2.867  0.3385 -0.0628  0.6310
 7349SOL    HW229168   5.349   1.330   2.852  1.6890  1.3022  0.8069
 7349SOL    HW329169   5.377   1.208   2.938 -1.0333  0.0421  0.0338
 7349SOL    MW429170   5.400   1.263   2.875  0.3357  0.1311  0.5754
 7350SOL     OW29171   2.895   2.836   5.617 -0.8819  0.2774 -0.2187
 7350SOL    HW229172   2.823   2.884   5.659  0.3330 -0.1777  2.6279
 7350SOL    HW329173   2.864   2.746   5.613 -0.7721  0.2134  0.3100
 7350SOL    MW429174   2.881   2.831   5.622 -0.7071  0.2089  0.2266
 7351SOL     OW29175   0.300   3.775   3.699  0.6189 -0.0338  0.7443
 7351SOL    HW229176   0.382   3.752   3.656  1.2611  1.4473  1.1389
 7351SOL    HW329177   0.236   3.714   3.662  2.0162 -1.7610  1.0103
 7351SOL    MW429178   0.302   3.764   3.689  0.8880 -0.0663  0.8315
 7352SOL     OW29179   4.044   5.953   5.930  0.0167  0.1443 -0.4412
 7352SOL    HW229180   4.120   5.942   5.987  1.7300 -1.6617 -2.8248
 7352SOL    HW329181   3.979   5.996   5.984  1.2593 -1.9208  3.0290
 7352SOL    MW429182   4.046   5.957   5.945  0.4067 -0.3665 -0.2979
 7353SOL     OW29183   5.339   6.145   1.347 -0.0163 -0.0106  0.1905
 7353SOL    HW229184   5.364   6.208   1.415  0.7082 -0.1182  0.0253
 7353SOL    HW329185   5.397   6.164   1.273 -1.0761  0.3920 -0.5742
 7353SOL    MW429186   5.350   6.156   1.346 -0.0606  0.0283  0.0678
 7354SOL     OW29187   3.927   3.732   3.571 -0.1299 -0.1520  0.1570
 7354SOL    HW229188   3.934   3.724   3.475  0.5094 -0.1408  0.2033
 7354SOL    HW329189   3.987   3.802   3.594  1.8464 -1.9949  0.8640
 7354SOL    MW429190   3.936   3.740   3.561  0.2152 -0.3937  0.2564
 7355SOL     OW29191   1.070   5.871   3.922 -0.1323 -0.0039 -0.2926
 7355SOL    HW229192   1.158   5.877   3.886 -0.0144  1.6957  0.1938
 7355SOL    HW329193   1.065   5.942   3.985 -2.5519  1.3827 -1.8807
 7355SOL    MW429194   1.081   5.881   3.925 -0.4360  0.4033 -0.4379
 7356SOL     OW29195   5.763   5.586   2.887  0.2605 -0.2337 -0.0330
 7356SOL    HW229196   5.792   5.677   2.889 -0.2705 -0.0600 -0.0452
 7356SOL    HW329197   5.677   5.587   2.930 -0.1199 -0.5858 -0.7626
 7356SOL    MW429198   5.756   5.598   2.893  0.1402 -0.2573 -0.1309
 7357SOL     OW29199   3.943   0.669   2.809  0.5282  0.5251 -0.0600
 7357SOL    HW229200   3.963   0.655   2.717  0.5783 -0.7988  0.1397
 7357SOL    HW329201   4.015   0.627   2.856  0.0848  0.4879  0.5967
 7357SOL    MW429202   3.955   0.662   2.803  0.4763  0.3455  0.0530
 7358SOL     OW29203   2.849   2.347   0.034  0.4296  0.3463  0.3263
 7358SOL    HW229204   2.930   2.303   0.007  0.4255 -0.2644  1.2482
 7358SOL    HW329205   2.787   2.329  -0.036  0.2072 -1.7908  1.0012
 7358SOL    MW429206   2.852   2.339   0.021  0.3997 -0.0162  0.5370
 7359SOL     OW29207   1.418   0.349   0.699 -0.1514  0.1388 -0.2613
 7359SOL    HW229208   1.443   0.257   0.693 -0.6228 -0.0132  0.0255
 7359SOL    HW329209   1.370   0.367   0.618 -1.2343 -0.2447  0.2791
 7359SOL    MW429210   1.415   0.340   0.687 -0.3565  0.0682 -0.1522
 7360SOL     OW29211   4.837   1.949   1.268  0.5194 -0.0503  0.3917
 7360SOL    HW229212   4.874   1.956   1.180 -0.1466  0.1165  0.1201
 7360SOL    HW329213   4.865   1.864   1.300  0.4396 -0.2721 -0.1338
 7360SOL    MW429214   4.846   1.939   1.261  0.4210 -0.0576  0.2865
 7361SOL     OW29215   4.263   1.952   2.609 -0.4954  0.0062  0.3015
 7361SOL    HW229216   4.266   2.036   2.562  1.1563 -0.5851 -0.7035
 7361SOL    HW329217   4.169   1.936   2.623 -0.8420  2.1293  0.7601
 7361SOL    MW429218   4.251   1.961   2.605 -0.3232  0.2083  0.2294
 7362SOL     OW29219   3.517   2.084   5.292  0.2862  0.2245  0.4867
 7362SOL    HW229220   3.611   2.095   5.278  0.1908  1.6820  0.8413
 7362SOL    HW329221   3.477   2.121   5.213 -0.0111  0.0261  0.5418
 7362SOL    MW429222   3.524   2.090   5.279  0.2344  0.3906  0.5408
 7363SOL     OW29223   2.856   3.951   1.866  0.2356  0.1713 -0.1270
 7363SOL    HW229224   2.861   3.999   1.784  1.3207  0.4800  0.1013
 7363SOL    HW329225   2.937   3.974   1.913 -0.0626 -0.4862  0.7524
 7363SOL    MW429226   2.867   3.960   1.862  0.3394  0.1253  0.0191
 7364SOL     OW29227   4.659   0.978   5.145  0.2906 -0.1951  0.7082
 7364SOL    HW229228   4.688   1.046   5.206  0.7706  0.2064  0.0527
 7364SOL    HW329229   4.568   0.961   5.169 -0.3164  1.7247 -0.0051
 7364SOL    MW429230   4.651   0.985   5.156  0.2739  0.1112  0.5276
 7365SOL     OW29231   0.106   3.376   4.689  0.2269  0.3166  0.2420
 7365SOL    HW229232   0.100   3.298   4.633  0.8896 -0.2131  0.8724
 7365SOL    HW329233   0.192   3.413   4.667  1.1575 -0.7198  1.8900
 7365SOL    MW429234   0.117   3.370   4.678  0.4371  0.1099  0.5426
 7366SOL     OW29235   3.314   3.171   3.860 -0.1426 -0.2251  0.0091
 7366SOL    HW229236   3.356   3.095   3.821 -0.9388  0.1201 -1.6225
 7366SOL    HW329237   3.268   3.212   3.787 -1.0913  0.8840  1.1942
 7366SOL    MW429238   3.313   3.166   3.845 -0.3728 -0.0332 -0.0498
 7367SOL     OW29239   0.038   4.898   4.195 -0.1461 -0.0206 -0.0882
 7367SOL    HW229240   0.022   4.825   4.254 -1.3570  1.2034  1.1856
 7367SOL    HW329241   0.117   4.940   4.229 -1.2098  1.0725  1.1343
 7367SOL    MW429242   0.046   4.894   4.207 -0.4462  0.2851  0.2411
 7368SOL     OW29243   5.407   1.341   4.466  0.3429  0.1756  0.2302
 7368SOL    HW229244   5.427   1.313   4.377 -0.5248  0.3675 -0.0366
 7368SOL    HW329245   5.358   1.267   4.504 -0.7311  0.7434 -0.0135
 7368SOL    MW429246   5.403   1.327   4.459  0.0867  0.2759  0.1628
 7369SOL     OW29247   6.060   1.085   4.232 -0.0628  0.5064  0.2667
 7369SOL    HW229248   6.087   1.084   4.324 -0.5117 -0.6213  0.4000
 7369SOL    HW329249   6.010   1.167   4.223  0.1609  0.7255  0.9740
 7369SOL    MW429250   6.057   1.096   4.243 -0.0925  0.3865  0.3776
 7370SOL     OW29251   1.668   2.962   2.826 -0.1525 -0.6013 -0.2820
 7370SOL    HW229252   1.604   2.941   2.758  0.1317 -1.6250 -0.2550
 7370SOL    HW329253   1.737   3.010   2.780  1.2696 -3.4259 -1.3115
 7370SOL    MW429254   1.669   2.966   2.811  0.0727 -1.1090 -0.4143
 7371SOL     OW29255   3.747   2.715   2.549  0.1540 -0.1959 -0.1528
 7371SOL    HW229256   3.841   2.704   2.561 -0.1561 -2.0774  0.7903
 7371SOL    HW329257   3.725   2.659   2.475 -0.1655  0.5831 -0.6574
 7371SOL    MW429258   3.757   2.706   2.541  0.0709 -0.3414 -0.0949
 7372SOL     OW29259   5.595   0.779   2.298  0.1421  0.2383 -0.4587
 7372SOL    HW229260   5.510   0.771   2.254  0.7337  0.1634 -1.6324
 7372SOL    HW329261   5.659   0.762   2.229  1.1013 -0.7823  0.6391
 7372SOL    MW429262   5.592   0.776   2.283  0.3467  0.0937 -0.4687
 7373SOL     OW29263   5.868   2.290   0.972 -0.9932  0.1247  0.5442
 7373SOL    HW229264   5.920   2.350   1.025 -0.8477  0.3124  0.1904
 7373SOL    HW329265   5.779   2.325   0.977 -0.9762  0.1535  0.6488
 7373SOL    MW429266   5.863   2.302   0.980 -0.9718  0.1533  0.5114
 7374SOL     OW29267   2.485   5.877   1.516  0.2116 -1.2499  0.0449
 7374SOL    HW229268   2.575   5.845   1.517  0.3298 -1.0156 -1.0029
 7374SOL    HW329269   2.489   5.962   1.559  0.6166 -0.9708 -0.5314
 7374SOL    MW429270   2.497   5.884   1.522  0.2807 -1.1822 -0.1694
 7375SOL     OW29271   1.348   1.766   5.933 -0.3792 -0.2301  0.1356
 7375SOL    HW229272   1.355   1.696   5.998  1.2687 -0.5844 -0.3925
 7375SOL    HW329273   1.384   1.843   5.977 -0.7410 -0.0818  0.1768
 7375SOL    MW429274   1.354   1.767   5.947 -0.2095 -0.2573  0.0713
 7376SOL     OW29275   5.082   4.138   0.384  0.1947  0.3842 -0.1991
 7376SOL    HW229276   5.058   4.132   0.291 -1.9663  0.5097  0.2970
 7376SOL    HW329277   5.048   4.057   0.422 -0.3071  1.0305  0.7510
 7376SOL    MW429278   5.074   4.126   0.377 -0.1566  0.4860 -0.0083
 7377SOL     OW29279   5.445   3.828   4.543  0.5076 -0.2524 -0.4293
 7377SOL    HW229280   5.414   3.828   4.633  0.8723 -1.3906 -0.2836
 7377SOL    HW329281   5.539   3.848   4.550  0.2954  0.9135 -0.6770
 7377SOL    MW429282   5.453   3.830   4.556  0.5277 -0.2488 -0.4427
 7378SOL     OW29283   0.990   1.691   3.067  0.7715 -0.3343  0.0340
 7378SOL    HW229284   1.016   1.600   3.080  1.2472 -0.0934  0.8171
 7378SOL    HW329285   1.002   1.732   3.152  1.0647  0.5953 -0.4411
 7378SOL    MW429286   0.995   1.684   3.080  0.8730 -0.1798  0.0747
 7379SOL     OW29287   3.466   3.655   2.069 -0.9524 -0.0965  0.1974
 7379SOL    HW229288   3.444   3.740   2.107 -1.7943 -0.0138 -0.4719
 7379SOL    HW329289   3.399   3.639   2.003 -1.7037 -1.9585  1.3181
 7379SOL    MW429290   3.455   3.664   2.066 -1.1626 -0.3313  0.2570
 7380SOL     OW29291   4.223   3.496   3.463 -0.3140  0.0141  0.2227
 7380SOL    HW229292   4.224   3.477   3.557 -0.8524 -2.7341 -0.2410
 7380SOL    HW329293   4.275   3.426   3.423 -1.1942  0.3495 -1.6428
 7380SOL    MW429294   4.230   3.485   3.470 -0.5011 -0.3043 -0.0846
 7381SOL     OW29295   4.315   6.353   1.793 -0.0561 -0.2718  0.2081
 7381SOL    HW229296   4.279   6.296   1.724  0.5591  0.4988 -0.7812
 7381SOL    HW329297   4.408   6.359   1.772  0.0989  0.1460  1.0055
 7381SOL    MW429298   4.323   6.346   1.781  0.0455 -0.1150  0.1828
 7382SOL     OW29299   0.554   2.206   4.044  0.0044  0.5641  0.2708
 7382SOL    HW229300   0.556   2.180   3.952  0.8633  1.1557  0.1106
 7382SOL    HW329301   0.589   2.295   4.045  0.5155  0.3677  1.2309
 7382SOL    MW429302   0.559   2.214   4.032  0.1852  0.6162  0.3763
 7383SOL     OW29303   1.196   2.983   4.719 -0.2782 -0.0495  0.0764
 7383SOL    HW229304   1.273   2.997   4.774 -0.1993  1.0739 -0.2935
 7383SOL    HW329305   1.220   2.910   4.662 -0.4297 -1.3558  1.6235
 7383SOL    MW429306   1.210   2.975   4.719 -0.2878 -0.0736  0.2317
 7384SOL     OW29307   4.236   5.274   0.849 -0.5712 -0.9314  0.3474
 7384SOL    HW229308   4.305   5.237   0.904  0.7982  0.5114 -0.3484
 7384SOL    HW329309   4.158   5.272   0.905 -0.3521 -3.7602  0.7331
 7384SOL    MW429310   4.235   5.269   0.864 -0.3616 -1.1143  0.3065
 7385SOL     OW29311   3.098   2.079   5.110  0.1052 -0.3869  0.1920
 7385SOL    HW229312   3.171   2.139   5.098 -0.5733  0.8048  1.7016
 7385SOL    HW329313   3.140   1.993   5.122  1.1586  0.0063 -0.5352
 7385SOL    MW429314   3.114   2.075   5.110  0.1546 -0.1778  0.2952
 7386SOL     OW29315   5.322   2.630   1.384  0.0438  0.1713 -0.2744
 7386SOL    HW229316   5.237   2.603   1.420  0.6305 -1.0479  0.2506
 7386SOL    HW329317   5.347   2.558   1.326  0.8281  0.4233 -0.2523
 7386SOL    MW429318   5.314   2.617   1.381  0.2247  0.0437 -0.2022
 7387SOL     OW29319   3.424   3.961   0.017  0.3979 -0.2085  0.2861
 7387SOL    HW229320   3.428   3.998   0.106 -0.5311 -0.8595  0.6118
 7387SOL    HW329321   3.402   4.036  -0.039  0.3940  0.0898  0.6787
 7387SOL    MW429322   3.422   3.976   0.022  0.2748 -0.2550  0.3809
 7388SOL     OW29323   5.509   2.397   5.654  0.0207  0.2741 -0.0130
 7388SOL    HW229324   5.507   2.376   5.560  0.0688  0.8254 -0.1438
 7388SOL    HW329325   5.417   2.397   5.680  0.0831 -1.3919  0.3025
 7388SOL    MW429326   5.497   2.395   5.645  0.0353  0.1271  0.0114
 7389SOL     OW29327   5.842   5.290   2.004  0.3686  0.7134  0.2987
 7389SOL    HW229328   5.769   5.229   2.004  0.0049  1.1249  0.9301
 7389SOL    HW329329   5.915   5.243   1.964 -0.2583  0.3141 -0.3677
 7389SOL    MW429330   5.842   5.276   1.999  0.2379  0.7150  0.2941
 7390SOL     OW29331   4.336   4.259   3.400 -0.2445  0.4905 -0.6311
 7390SOL    HW229332   4.363   4.177   3.360  0.5315  1.1288 -1.4601
 7390SOL    HW329333   4.332   4.240   3.494  0.7292 -0.2656 -0.7301
 7390SOL    MW429334   4.339   4.246   3.407 -0.0136  0.4749 -0.7535
 7391SOL     OW29335   2.207   5.452   1.781  0.1707  0.3632  0.2777
 7391SOL    HW229336   2.261   5.459   1.860  0.6023 -1.0979  0.1473
 7391SOL    HW329337   2.117   5.448   1.813  0.2593  0.9165  0.6133
 7391SOL    MW429338   2.202   5.452   1.795  0.2394  0.2434  0.3048
 7392SOL     OW29339   0.192   5.016   6.253  0.1338  0.1489 -0.0760
 7392SOL    HW229340   0.195   4.999   6.159 -0.2065 -1.9716  0.2542
 7392SOL    HW329341   0.282   5.038   6.277  0.2774  0.4132 -0.8295
 7392SOL    MW429342   0.204   5.017   6.244  0.1079 -0.0960 -0.1319
 7393SOL     OW29343   2.823   2.675   3.107  0.0553  0.1449 -0.0748
 7393SOL    HW229344   2.769   2.742   3.149  0.3467 -0.5846  1.5360
 7393SOL    HW329345   2.777   2.593   3.126  0.0159 -0.1861 -1.5200
 7393SOL    MW429346   2.809   2.673   3.115  0.0885  0.0049 -0.0529
 7394SOL     OW29347   1.670   2.238   2.186 -0.0892 -0.1176 -0.7067
 7394SOL    HW229348   1.680   2.148   2.155  1.5705 -0.6459  1.1065
 7394SOL    HW329349   1.759   2.264   2.213 -0.4400  2.2626 -1.6279
 7394SOL    MW429350   1.683   2.230   2.186  0.0835  0.1267 -0.5891
 7395SOL     OW29351   2.352   2.443   5.266 -0.3148 -0.1692  0.0989
 7395SOL    HW229352   2.365   2.446   5.361  2.8782  0.1117 -0.2398
 7395SOL    HW329353   2.295   2.518   5.247  0.4810  0.8906  1.6414
 7395SOL    MW429354   2.346   2.453   5.276  0.2115  0.0077  0.2577
 7396SOL     OW29355   2.272   1.383   2.043 -0.0050  0.1057  0.2954
 7396SOL    HW229356   2.231   1.445   2.102  1.5639  2.2078 -0.6738
 7396SOL    HW329357   2.362   1.376   2.074 -0.6355 -3.5926  1.7648
 7396SOL    MW429358   2.279   1.390   2.055  0.1188 -0.1049  0.3614
 7397SOL     OW29359   2.747   1.301   6.216  0.3980 -0.1102  0.1913
 7397SOL    HW229360   2.670   1.349   6.247  0.9781  2.2073 -1.6027
 7397SOL    HW329361   2.809   1.303   6.289 -1.0875 -1.8426  1.5853
 7397SOL    MW429362   2.745   1.308   6.230  0.2785 -0.0330  0.1386
 7398SOL     OW29363   3.141   3.579   3.314 -0.0917  0.1242  0.4193
 7398SOL    HW229364   3.187   3.614   3.391 -0.6713 -1.3263  1.4817
 7398SOL    HW329365   3.056   3.623   3.315 -0.0171  0.2688  0.4897
 7398SOL    MW429366   3.136   3.590   3.324 -0.1583 -0.0481  0.5687
 7399SOL     OW29367   6.342   3.002   2.960  0.3648  0.0304  0.0652
 7399SOL    HW229368   6.350   2.965   3.048  1.6946 -0.4920 -0.2495
 7399SOL    HW329369   6.356   2.928   2.901  1.6357  0.7351 -0.5745
 7399SOL    MW429370   6.345   2.988   2.964  0.7079  0.0545 -0.0608
 7400SOL     OW29371   0.169   3.835   4.798 -0.2853  0.3101 -0.6312
 7400SOL    HW229372   0.243   3.895   4.786 -0.9516  1.3111  0.1058
 7400SOL    HW329373   0.155   3.833   4.893 -1.2460  0.1815 -0.7710
 7400SOL    MW429374   0.177   3.843   4.809 -0.5000  0.4252 -0.5524
 7401SOL     OW29375   0.234   2.436   1.439 -0.2301  0.0223 -0.1369
 7401SOL    HW229376   0.227   2.377   1.514 -0.0129 -0.2700 -0.3472
 7401SOL    HW329377   0.298   2.395   1.381 -0.7738 -0.0211 -0.7257
 7401SOL    MW429378   0.241   2.423   1.441 -0.2732 -0.0220 -0.2423
 7402SOL     OW29379   4.281   3.657   1.546  0.2300  0.1881  0.1052
 7402SOL    HW229380   4.334   3.628   1.620  3.1149  2.1361 -1.0099
 7402SOL    HW329381   4.250   3.744   1.571  1.2130  0.8535 -0.8907
 7402SOL    MW429382   4.284   3.664   1.559  0.7404  0.5329 -0.1734
 7403SOL     OW29383   6.075   3.655   2.234  0.0590  0.1059  0.1166
 7403SOL    HW229384   6.016   3.634   2.306  0.5866  0.0577  0.5435
 7403SOL    HW329385   6.151   3.695   2.276 -0.2046  1.3431 -0.5435
 7403SOL    MW429386   6.078   3.657   2.249  0.0938  0.2628  0.0858
 7404SOL     OW29387   0.027   1.357   3.637 -0.2066 -0.1170 -0.0510
 7404SOL    HW229388  -0.046   1.300   3.612 -0.3272  0.9364 -2.3339
 7404SOL    HW329389   0.023   1.429   3.575  0.2274  2.1959  2.4238
 7404SOL    MW429390   0.017   1.359   3.625 -0.1653  0.3271 -0.0257
 7405SOL     OW29391   3.659   3.206   1.082 -0.4295  0.5017 -0.0758
 7405SOL    HW229392   3.625   3.257   1.008  0.7638 -0.4069 -1.2880
 7405SOL    HW329393   3.727   3.262   1.121 -2.1145  1.6530  1.3825
 7405SOL    MW429394   3.664   3.220   1.078 -0.4944  0.5337 -0.0433
 7406SOL     OW29395   2.293   3.577   0.926  0.2758 -0.2275 -0.4618
 7406SOL    HW229396   2.342   3.494   0.926 -0.0844 -0.4440 -0.2719
 7406SOL    HW329397   2.315   3.618   1.009  1.5301  0.5216 -1.1370
 7406SOL    MW429398   2.302   3.571   0.937  0.3938 -0.1572 -0.5259
 7407SOL     OW29399   6.046   0.407   1.577  0.4825 -0.5451  0.4777
 7407SOL    HW229400   6.075   0.317   1.563  3.1699  0.5427 -1.9023
 7407SOL    HW329401   6.056   0.421   1.671  2.0625 -2.1140  0.5980
 7407SOL    MW429402   6.051   0.397   1.588  1.0455 -0.6085  0.1796
 7408SOL     OW29403   0.982   3.287   2.693  0.1519  0.0007  0.0228
 7408SOL    HW229404   1.010   3.332   2.773  1.2462  0.7841 -0.7641
 7408SOL    HW329405   0.967   3.357   2.630  0.2768 -0.6463 -0.7496
 7408SOL    MW429406   0.984   3.302   2.695  0.3128  0.0187 -0.1829
 7409SOL     OW29407   4.436   4.643   0.094  0.1946 -0.6715  0.1824
 7409SOL    HW229408   4.431   4.556   0.056  0.2201 -0.8821  0.6560
 7409SOL    HW329409   4.355   4.686   0.068 -0.3212 -1.2130  0.8636
 7409SOL    MW429410   4.425   4.637   0.085  0.1299 -0.7707  0.3347
 7410SOL     OW29411   1.403   3.045   4.482  0.2914 -0.5142  0.2026
 7410SOL    HW229412   1.362   3.124   4.517  0.1287  0.4793 -2.0536
 7410SOL    HW329413   1.489   3.074   4.451  1.2522 -1.7866  1.4949
 7410SOL    MW429414   1.409   3.059   4.482  0.3967 -0.5510  0.0754
 7411SOL     OW29415   3.001   1.720   0.739  0.1556 -0.1423 -0.5012
 7411SOL    HW229416   3.013   1.736   0.645  1.1072 -0.0114 -0.3643
 7411SOL    HW329417   3.090   1.706   0.773 -0.1751 -0.1688  0.3820
 7411SOL    MW429418   3.014   1.721   0.731  0.2376 -0.1285 -0.3666
 7412SOL     OW29419   1.287   0.776   5.153 -0.5457  0.4689 -0.0650
 7412SOL    HW229420   1.307   0.699   5.207 -1.5925  0.5735  0.4977
 7412SOL    HW329421   1.372   0.817   5.138  0.1138 -1.1008 -0.8494
 7412SOL    MW429422   1.301   0.771   5.158 -0.5968  0.2756 -0.0942
 7413SOL     OW29423   0.858   1.191   1.159 -0.2155 -0.2549 -0.3483
 7413SOL    HW229424   0.938   1.177   1.209 -0.6593  0.2829  0.5421
 7413SOL    HW329425   0.873   1.274   1.113  0.0150 -0.5188 -0.7539
 7413SOL    MW429426   0.871   1.200   1.159 -0.2436 -0.2187 -0.2843
 7414SOL     OW29427   0.491   1.529   5.116 -0.3153 -0.2543  0.1321
 7414SOL    HW229428   0.399   1.551   5.127 -0.2711 -0.6452  1.4243
 7414SOL    HW329429   0.534   1.571   5.191  0.2666 -1.7685  0.6681
 7414SOL    MW429430   0.485   1.538   5.128 -0.2327 -0.5056  0.3733
 7415SOL     OW29431   1.408   0.519   0.475 -0.2554  0.5113 -0.0393
 7415SOL    HW229432   1.421   0.549   0.565 -0.5138  1.8366 -0.4230
 7415SOL    HW329433   1.403   0.600   0.424 -1.1681 -0.1964 -1.0989
 7415SOL    MW429434   1.409   0.534   0.480 -0.4099  0.5928 -0.2297
 7416SOL     OW29435   2.620   1.620   3.886 -0.7856  0.3992 -0.2662
 7416SOL    HW229436   2.582   1.553   3.829 -2.2585  1.3620 -0.4796
 7416SOL    HW329437   2.715   1.606   3.880 -1.0323 -1.2596 -0.7712
 7416SOL    MW429438   2.628   1.610   3.878 -1.0124  0.3073 -0.3610
 7417SOL     OW29439   1.220   5.403   2.826 -0.1730  0.2243  0.7748
 7417SOL    HW229440   1.128   5.426   2.812  0.4636  1.4593 -2.0022
 7417SOL    HW329441   1.248   5.458   2.899 -1.5439  0.0509  1.4475
 7417SOL    MW429442   1.212   5.413   2.834 -0.2698  0.3644  0.4972
 7418SOL     OW29443   5.368   3.437   0.185  0.0869  0.1106 -0.2737
 7418SOL    HW229444   5.370   3.510   0.247 -1.1834  1.3132 -1.5478
 7418SOL    HW329445   5.414   3.470   0.108  0.1613 -0.7219 -0.5919
 7418SOL    MW429446   5.374   3.451   0.183 -0.0709  0.1594 -0.4838
 7419SOL     OW29447   2.537   0.454   4.438  0.2038  0.0351  0.1149
 7419SOL    HW229448   2.482   0.387   4.396  0.1697  1.0327 -1.5111
 7419SOL    HW329449   2.484   0.533   4.436  0.6839  0.3930  0.9861
 7419SOL    MW429450   2.523   0.456   4.433  0.2627  0.2140  0.0153
 7420SOL     OW29451   1.973   0.618   3.662 -0.0599 -0.3175 -0.7114
 7420SOL    HW229452   2.025   0.641   3.739 -0.3553 -0.1384 -0.5664
 7420SOL    HW329453   1.922   0.541   3.690 -0.1461 -0.2695 -0.7359
 7420SOL    MW429454   1.973   0.611   3.676 -0.1102 -0.2875 -0.6955
 7421SOL     OW29455   2.615   3.322   3.339  0.2561  0.4137  0.2716
 7421SOL    HW229456   2.656   3.352   3.421  0.9543  1.0311 -0.2828
 7421SOL    HW329457   2.614   3.400   3.283 -0.3179  0.0267 -0.2694
 7421SOL    MW429458   2.620   3.336   3.343  0.2725  0.4441  0.1271
 7422SOL     OW29459   2.001   5.463   6.327  0.1195  0.2507  0.1115
 7422SOL    HW229460   1.938   5.531   6.304  1.3397  1.5574  0.5258
 7422SOL    HW329461   2.003   5.463   6.423  1.0787  0.5445  0.0973
 7422SOL    MW429462   1.993   5.472   6.337  0.4070  0.4618  0.1643
 7423SOL     OW29463   4.761   3.086   5.868 -0.1134 -0.1171 -0.0729
 7423SOL    HW229464   4.744   3.050   5.955 -0.0550 -0.8606 -0.3577
 7423SOL    HW329465   4.752   3.011   5.810 -0.3387  0.4173 -0.7296
 7423SOL    MW429466   4.758   3.071   5.872 -0.1354 -0.1447 -0.1971
 7424SOL     OW29467   3.275   5.640   2.109  0.0391 -0.2257 -0.3411
 7424SOL    HW229468   3.292   5.683   2.193  2.0892 -0.4799 -0.5693
 7424SOL    HW329469   3.293   5.547   2.125  0.7018 -0.2421 -1.1070
 7424SOL    MW429470   3.280   5.633   2.122  0.3970 -0.2614 -0.4723
 7425SOL     OW29471   5.551   3.693   0.750  0.7076  0.2712 -0.3814
 7425SOL    HW229472   5.558   3.668   0.843  1.0657 -1.1626 -0.7619
 7425SOL    HW329473   5.632   3.661   0.711  0.1726  0.0667 -1.3483
 7425SOL    MW429474   5.562   3.685   0.757  0.6843  0.0551 -0.5592
 7426SOL     OW29475   2.259   4.701   3.960 -0.3316  0.0075 -0.0019
 7426SOL    HW229476   2.206   4.623   3.943 -0.5834  0.3117 -0.6352
 7426SOL    HW329477   2.265   4.704   4.056  0.8864 -1.5746  0.0090
 7426SOL    MW429478   2.253   4.691   3.970 -0.2042 -0.1611 -0.0840
 7427SOL     OW29479   3.156   2.477   4.229 -0.5943  0.4469 -0.3281
 7427SOL    HW229480   3.091   2.504   4.163  0.9627  0.0748 -2.1092
 7427SOL    HW329481   3.213   2.416   4.182 -0.1260 -0.8026  1.7488
 7427SOL    MW429482   3.155   2.473   4.214 -0.3271  0.2330 -0.2891
 7428SOL     OW29483   6.108   3.502   1.991  0.0008  0.1829 -0.5066
 7428SOL    HW229484   6.111   3.411   2.019 -0.3632  0.4955  0.5921
 7428SOL    HW329485   6.088   3.552   2.071  3.2912  1.5294 -0.3607
 7428SOL    MW429486   6.106   3.497   2.006  0.3869  0.4018 -0.3424
 7429SOL     OW29487   5.570   4.543   1.011  0.1252 -0.3799 -0.0913
 7429SOL    HW229488   5.592   4.635   1.025 -0.3052 -0.4062  0.8301
 7429SOL    HW329489   5.491   4.529   1.063  1.0692 -1.6606  1.0710
 7429SOL    MW429490   5.563   4.553   1.019  0.1929 -0.5523  0.1836
 7430SOL     OW29491   0.588   3.425   0.467  0.1677  0.2753  0.2072
 7430SOL    HW229492   0.647   3.501   0.460  1.2962 -0.6761 -1.3019
 7430SOL    HW329493   0.627   3.371   0.536 -0.7457  1.1231  1.4199
 7430SOL    MW429494   0.601   3.428   0.475  0.1961  0.2616  0.1681
 7431SOL     OW29495   2.734   5.217   0.459  0.1760  0.2820 -0.3207
 7431SOL    HW229496   2.692   5.293   0.419 -0.4024 -0.6138 -1.5068
 7431SOL    HW329497   2.756   5.160   0.384  0.8507 -0.5832  0.5070
 7431SOL    MW429498   2.732   5.219   0.444  0.1887  0.0497 -0.3680
 7432SOL     OW29499   2.542   5.742   0.530 -0.0659  0.3550  0.6463
 7432SOL    HW229500   2.446   5.739   0.529 -0.1243  1.4074 -1.1957
 7432SOL    HW329501   2.568   5.718   0.441  1.5484 -2.3717  1.7367
 7432SOL    MW429502   2.533   5.738   0.518  0.1394  0.1341  0.5471
 7433SOL     OW29503   0.359   1.475   1.169 -0.2035  0.2896  0.1285
 7433SOL    HW229504   0.397   1.506   1.251 -0.4612 -0.8184  0.6889
 7433SOL    HW329505   0.269   1.450   1.192 -0.1465 -0.4358 -0.3817
 7433SOL    MW429506   0.352   1.475   1.183 -0.2299  0.0477  0.1352
 7434SOL     OW29507   3.335   1.983   2.401  0.0794  0.2342  0.8709
 7434SOL    HW229508   3.326   1.906   2.458  0.1873 -0.1213  0.4130
 7434SOL    HW329509   3.306   2.056   2.455  0.7585 -0.0145  1.5939
 7434SOL    MW429510   3.330   1.982   2.416  0.1833  0.1545  0.9059
 7435SOL     OW29511   6.170   6.337   0.155 -0.4056  0.3911  0.3808
 7435SOL    HW229512   6.160   6.266   0.092  0.1316  1.4736 -0.9647
 7435SOL    HW329513   6.197   6.293   0.236 -0.2513 -0.9497 -0.3670
 7435SOL    MW429514   6.172   6.322   0.158 -0.3144  0.3571  0.1046
 7436SOL     OW29515   3.969   2.751   6.231  0.2987 -0.2573  0.4122
 7436SOL    HW229516   3.975   2.678   6.292  0.9795 -0.3155  0.2854
 7436SOL    HW329517   3.896   2.727   6.173 -1.5735  0.6565  2.2874
 7436SOL    MW429518   3.960   2.738   6.231  0.1415 -0.1444  0.6429
 7437SOL     OW29519   3.399   3.683   2.436 -0.7247 -0.5968 -0.2025
 7437SOL    HW229520   3.459   3.711   2.367 -0.4064 -0.1352  0.2586
 7437SOL    HW329521   3.422   3.592   2.452  0.1876 -0.2804  0.3139
 7437SOL    MW429522   3.410   3.675   2.429 -0.5623 -0.4942 -0.0735
 7438SOL     OW29523   6.349   3.842   6.396 -0.4995  0.5111  0.3870
 7438SOL    HW229524   6.357   3.846   6.301  0.5537 -1.4669  0.3289
 7438SOL    HW329525   6.437   3.860   6.429 -0.6366  0.2486  0.9184
 7438SOL    MW429526   6.362   3.845   6.388 -0.3786  0.2155  0.4494
 7439SOL     OW29527   0.660   5.836   0.439 -0.0911 -0.6698 -0.9271
 7439SOL    HW229528   0.601   5.846   0.514 -1.9364  1.1590 -2.4850
 7439SOL    HW329529   0.736   5.888   0.462 -1.2447  1.0694 -0.8212
 7439SOL    MW429530   0.662   5.844   0.452 -0.4868 -0.1991 -1.1187
 7440SOL     OW29531   1.299   3.475   2.653 -0.0883 -0.0396  0.1144
 7440SOL    HW229532   1.262   3.417   2.586  0.3478 -0.4597  0.2328
 7440SOL    HW329533   1.384   3.500   2.618 -0.1741  0.3338  0.1767
 7440SOL    MW429534   1.306   3.470   2.639 -0.0421 -0.0458  0.1382
 7441SOL     OW29535   0.080   2.587   0.610  0.2568 -0.3394 -0.4930
 7441SOL    HW229536   0.002   2.642   0.619 -0.0495 -1.0343  1.6846
 7441SOL    HW329537   0.135   2.633   0.546 -1.3725  0.8050 -1.1351
 7441SOL    MW429538   0.077   2.600   0.603  0.0014 -0.2801 -0.2904
 7442SOL     OW29539   5.218   3.899   2.168  0.2944  0.8573  0.0551
 7442SOL    HW229540   5.260   3.815   2.189  1.4982  1.4639  0.1504
 7442SOL    HW329541   5.242   3.957   2.240  1.1782  1.8484 -0.9906
 7442SOL    MW429542   5.227   3.895   2.180  0.5699  1.0681 -0.0703
 7443SOL     OW29543   5.827   0.567   1.534  0.3724 -0.3726  0.3988
 7443SOL    HW229544   5.808   0.577   1.627 -2.7739 -1.0473 -0.0670
 7443SOL    HW329545   5.908   0.516   1.532  1.1809  0.6568  2.7105
 7443SOL    MW429546   5.835   0.561   1.546  0.0639 -0.3258  0.6424
 7444SOL     OW29547   2.913   0.726   1.192 -0.1350 -0.4166  0.0856
 7444SOL    HW229548   2.923   0.670   1.116 -0.2698  1.2887 -1.2593
 7444SOL    HW329549   2.820   0.719   1.215 -0.1294 -0.8123 -0.0077
 7444SOL    MW429550   2.902   0.718   1.185 -0.1521 -0.2438 -0.1042
 7445SOL     OW29551   5.394   0.427   4.916 -0.1019 -0.0072 -0.0452
 7445SOL    HW229552   5.403   0.503   4.974  3.2204  0.1829 -0.6035
 7445SOL    HW329553   5.465   0.436   4.853 -1.0164 -2.4064 -1.5673
 7445SOL    MW429554   5.405   0.438   4.915  0.2158 -0.2987 -0.3197
 7446SOL     OW29555   5.626   1.676   4.030 -0.8051 -0.5338  0.1507
 7446SOL    HW229556   5.618   1.610   3.961 -1.5537 -1.2793  0.9142
 7446SOL    HW329557   5.606   1.759   3.988  2.2911 -0.4013 -1.3725
 7446SOL    MW429558   5.623   1.678   4.016 -0.4953 -0.6147  0.0505
 7447SOL     OW29559   4.756   0.731   0.562 -0.5170 -0.1980 -0.2594
 7447SOL    HW229560   4.800   0.677   0.496 -1.3118 -0.6785 -0.4055
 7447SOL    HW329561   4.753   0.818   0.524 -2.2329 -0.7432 -1.5131
 7447SOL    MW429562   4.762   0.735   0.548 -0.8483 -0.3334 -0.4441
 7448SOL     OW29563   4.493   4.357   1.845  0.3801 -0.3804  0.1632
 7448SOL    HW229564   4.447   4.342   1.762  0.9340 -1.1629 -0.0156
 7448SOL    HW329565   4.586   4.355   1.822  0.5725 -1.5245  0.9184
 7448SOL    MW429566   4.499   4.355   1.831  0.4786 -0.6346  0.2392
 7449SOL     OW29567   3.687   2.114   4.077  0.6481  0.0664 -0.0004
 7449SOL    HW229568   3.642   2.030   4.072 -1.4925  1.1654 -0.2924
 7449SOL    HW329569   3.714   2.121   4.169  1.5261 -1.2397 -0.1353
 7449SOL    MW429570   3.685   2.104   4.089  0.4815  0.0390 -0.0567
 7450SOL     OW29571   6.249   5.775   2.824  0.2824 -0.3797 -0.5615
 7450SOL    HW229572   6.261   5.728   2.906 -1.4217  0.1558  0.0370
 7450SOL    HW329573   6.210   5.859   2.850 -0.7028 -0.3797 -1.9220
 7450SOL    MW429574   6.245   5.780   2.838 -0.0724 -0.3090 -0.6620
 7451SOL     OW29575   5.175   4.052   5.216 -0.1310 -0.2438  0.1583
 7451SOL    HW229576   5.160   3.984   5.281 -0.3622 -0.6350 -0.2998
 7451SOL    HW329577   5.266   4.078   5.229 -0.1210 -0.4490  0.5106
 7451SOL    MW429578   5.185   4.046   5.226 -0.1602 -0.3224  0.1443
 7452SOL     OW29579   6.109   2.262   6.305  0.3473  0.4193 -0.4581
 7452SOL    HW229580   6.189   2.210   6.310 -0.8045 -1.5007 -0.8520
 7452SOL    HW329581   6.128   2.331   6.241  1.7449  0.1523 -0.3411
 7452SOL    MW429582   6.122   2.264   6.297  0.3797  0.1308 -0.4947
 7453SOL     OW29583   3.588   3.125   5.761  0.4904 -0.2254  0.2255
 7453SOL    HW229584   3.517   3.181   5.794 -1.0608 -0.7448 -1.9672
 7453SOL    HW329585   3.571   3.119   5.667  3.4939 -0.3944 -0.3962
 7453SOL    MW429586   3.576   3.132   5.753  0.6820 -0.3163 -0.1458
 7454SOL     OW29587   0.183   0.019   2.866  0.4619 -0.1927  0.2699
 7454SOL    HW229588   0.224   0.093   2.911  1.2655 -0.6858  0.3857
 7454SOL    HW329589   0.100   0.006   2.911  0.5416  0.3211  0.5739
 7454SOL    MW429590   0.178   0.027   2.878  0.5785 -0.1900  0.3253
 7455SOL     OW29591   0.673   5.156   5.429  1.0799 -0.6671 -0.6508
 7455SOL    HW229592   0.610   5.169   5.358  2.0487 -2.1982 -1.8609
 7455SOL    HW329593   0.681   5.061   5.436  0.0547 -0.6301  2.4314
 7455SOL    MW429594   0.666   5.145   5.420  1.0725 -0.8642 -0.4038
 7456SOL     OW29595   4.223   4.624   5.460 -0.0807 -0.4128 -0.1330
 7456SOL    HW229596   4.237   4.608   5.367  2.7384  0.8946 -0.0400
 7456SOL    HW329597   4.187   4.713   5.464 -0.3155 -0.5133  0.0412
 7456SOL    MW429598   4.220   4.634   5.448  0.2602 -0.2536 -0.0977
 7457SOL     OW29599   2.173   2.191   4.872  0.2007  0.3653  0.1308
 7457SOL    HW229600   2.238   2.187   4.802  0.6939 -0.9203  0.6350
 7457SOL    HW329601   2.116   2.116   4.858 -0.2087  0.5735  0.6209
 7457SOL    MW429602   2.174   2.181   4.861  0.2118  0.2231  0.2620
 7458SOL     OW29603   4.481   0.568   1.449 -0.0781  0.6542  0.0759
 7458SOL    HW229604   4.473   0.523   1.365 -1.8015  0.8185  0.1226
 7458SOL    HW329605   4.488   0.498   1.514 -0.3083  0.4985 -0.0681
 7458SOL    MW429606   4.481   0.553   1.447 -0.3358  0.6553  0.0630
 7459SOL     OW29607   4.717   5.126   5.418  0.3353  0.4532 -0.1602
 7459SOL    HW229608   4.728   5.203   5.364  2.2173  0.7384  0.5564
 7459SOL    HW329609   4.780   5.137   5.489  0.0028 -1.3012  0.4665
 7459SOL    MW429610   4.727   5.138   5.420  0.5398  0.2593  0.0171
 7460SOL     OW29611   5.449   3.462   6.321  0.4420  0.2518 -0.6030
 7460SOL    HW229612   5.372   3.425   6.277  1.1292  0.0503 -1.6961
 7460SOL    HW329613   5.519   3.400   6.300  1.1445  1.0337 -0.5911
 7460SOL    MW429614   5.448   3.449   6.312  0.6254  0.3284 -0.7457
 7461SOL     OW29615   3.297   2.047   2.044 -0.1058  0.8799  0.4448
 7461SOL    HW229616   3.269   2.036   1.953  0.4680  0.1815  0.3415
 7461SOL    HW329617   3.241   2.116   2.078 -0.2299  1.2553 -0.4832
 7461SOL    MW429618   3.286   2.055   2.036 -0.0465  0.8373  0.3087
 7462SOL     OW29619   5.861   4.284   4.599  0.1183 -0.1510  0.3825
 7462SOL    HW229620   5.953   4.273   4.622  0.0537 -0.8702  0.3161
 7462SOL    HW329621   5.816   4.213   4.646 -0.4600  0.4680  0.7740
 7462SOL    MW429622   5.867   4.273   4.608  0.0335 -0.1642  0.4254
 7463SOL     OW29623   6.353   2.741   5.726  0.2826  0.1932 -0.0709
 7463SOL    HW229624   6.387   2.830   5.714  1.4615 -0.4141 -1.4030
 7463SOL    HW329625   6.265   2.744   5.690  0.0067  0.9992  0.6156
 7463SOL    MW429626   6.346   2.753   5.720  0.4017  0.2194 -0.1561
 7464SOL     OW29627   5.849   2.591   5.517  0.0379 -0.3253  0.3185
 7464SOL    HW229628   5.764   2.635   5.524  0.5560  0.8067 -0.2114
 7464SOL    HW329629   5.864   2.582   5.423  0.9394  0.3971  0.3766
 7464SOL    MW429630   5.840   2.596   5.506  0.2252 -0.0806  0.2562
 7465SOL     OW29631   0.732   2.713   1.960  0.6604 -0.4317  0.2736
 7465SOL    HW229632   0.714   2.770   2.034 -0.4733 -0.1140 -0.2266
 7465SOL    HW329633   0.663   2.646   1.963 -0.0652  0.2051 -1.0961
 7465SOL    MW429634   0.721   2.711   1.970  0.4151 -0.3058  0.0269
 7466SOL     OW29635   0.495   3.389   3.866  0.6872 -0.1455 -0.5879
 7466SOL    HW229636   0.508   3.314   3.809 -0.8787 -0.2331 -0.8861
 7466SOL    HW329637   0.555   3.456   3.833  1.5246 -0.9933 -0.8070
 7466SOL    MW429638   0.505   3.388   3.854  0.5911 -0.2689 -0.6561
 7467SOL     OW29639   4.759   0.161   1.329 -0.5777 -0.1032 -0.0196
 7467SOL    HW229640   4.777   0.134   1.239 -1.2153  1.0661 -0.5117
 7467SOL    HW329641   4.843   0.152   1.374  0.2897  1.3396 -1.2587
 7467SOL    MW429642   4.772   0.156   1.323 -0.5474  0.2415 -0.2480
 7468SOL     OW29643   0.321   2.791   5.281  0.1649  0.4653 -0.0035
 7468SOL    HW229644   0.368   2.830   5.207  0.7340 -1.0298 -0.4665
 7468SOL    HW329645   0.390   2.767   5.343 -0.2411  0.9003  0.6303
 7468SOL    MW429646   0.336   2.793   5.280  0.1864  0.3254  0.0191
 7469SOL     OW29647   0.007   1.010   0.668 -0.4589 -0.0265 -0.0002
 7469SOL    HW229648   0.060   1.089   0.659  1.6211 -1.1792  1.2391
 7469SOL    HW329649  -0.055   1.031   0.738 -1.0597  1.0407 -0.8304
 7469SOL    MW429650   0.006   1.023   0.676 -0.2637 -0.0378  0.0538
 7470SOL     OW29651   0.076   0.756   5.997  0.2945 -0.2973 -0.1223
 7470SOL    HW229652   0.006   0.780   5.936  0.6481  1.5219  0.1304
 7470SOL    HW329653   0.043   0.679   6.043 -0.3312 -1.2183 -2.0100
 7470SOL    MW429654   0.062   0.749   5.995  0.2586 -0.1788 -0.3380
 7471SOL     OW29655   3.516   3.346   0.884 -0.1680 -0.6196 -0.2906
 7471SOL    HW229656   3.447   3.285   0.910 -0.4279 -0.3125 -0.2589
 7471SOL    HW329657   3.472   3.430   0.874  0.5382  0.0325  1.6468
 7471SOL    MW429658   3.501   3.349   0.886 -0.1091 -0.4930 -0.0308
 7472SOL     OW29659   5.021   5.961   3.062  0.1674 -0.1440 -0.3301
 7472SOL    HW229660   5.043   6.052   3.083 -0.4051  0.0955 -0.7169
 7472SOL    HW329661   5.105   5.918   3.049  0.4481  0.3144 -0.0727
 7472SOL    MW429662   5.035   5.967   3.063  0.1289 -0.0520 -0.3472
 7473SOL     OW29663   1.011   5.463   0.400  0.3404  0.2362 -0.1209
 7473SOL    HW229664   0.943   5.397   0.414 -0.3654  1.0080  0.1716
 7473SOL    HW329665   1.078   5.418   0.350 -1.1978 -0.0815 -2.0267
 7473SOL    MW429666   1.010   5.449   0.395  0.0444  0.2961 -0.3338
 7474SOL     OW29667   3.604   5.593   5.809  0.1199 -0.2412 -0.0812
 7474SOL    HW229668   3.545   5.552   5.873  1.6847 -0.0612  1.5510
 7474SOL    HW329669   3.650   5.520   5.768 -0.4833 -0.3275 -0.6208
 7474SOL    MW429670   3.602   5.578   5.812  0.2468 -0.2289  0.0629
 7475SOL     OW29671   0.725   1.617   2.013  0.0325 -0.7210  0.3253
 7475SOL    HW229672   0.755   1.686   1.953  0.7169 -2.0134 -0.8880
 7475SOL    HW329673   0.725   1.538   1.959 -0.0197 -1.8021  1.8721
 7475SOL    MW429674   0.729   1.616   1.998  0.1159 -1.0342  0.3693
 7476SOL     OW29675   5.619   1.033   5.882  0.5891 -0.3188  0.1992
 7476SOL    HW229676   5.595   1.034   5.789 -0.9228  0.4689  0.5731
 7476SOL    HW329677   5.581   0.953   5.916 -1.9927  1.0959  0.8672
 7476SOL    MW429678   5.611   1.023   5.874  0.0490 -0.0282  0.3367
 7477SOL     OW29679   2.291   1.785   1.897 -0.3130  0.0196  0.2138
 7477SOL    HW229680   2.203   1.769   1.930 -0.3116 -0.4458 -0.0141
 7477SOL    HW329681   2.279   1.812   1.806 -0.0921 -2.2835 -0.5530
 7477SOL    MW429682   2.278   1.787   1.889 -0.2837 -0.3457  0.0826
 7478SOL     OW29683   0.796   0.558   6.419 -0.1571  0.0154 -0.2088
 7478SOL    HW229684   0.784   0.468   6.390 -0.2141  0.0433 -0.2715
 7478SOL    HW329685   0.854   0.551   6.495  1.4747  0.0728 -1.3977
 7478SOL    MW429686   0.802   0.545   6.426  0.0507  0.0266 -0.3740
 7479SOL     OW29687   3.245   2.999   4.898  0.0831  0.0685 -0.5221
 7479SOL    HW229688   3.287   3.025   4.980  1.9090 -2.2843 -0.5789
 7479SOL    HW329689   3.260   3.072   4.839  0.8536  0.8314  0.5719
 7479SOL    MW429690   3.253   3.012   4.901  0.4256 -0.1413 -0.3852
 7480SOL     OW29691   3.477   6.290   2.458  0.8471 -0.6150 -0.5295
 7480SOL    HW229692   3.501   6.320   2.546 -1.0913 -0.4682  0.0006
 7480SOL    HW329693   3.457   6.370   2.410 -4.9370 -0.6354  1.0656
 7480SOL    MW429694   3.477   6.304   2.463 -0.1718 -0.5983 -0.2491
 7481SOL     OW29695   0.757   3.028   4.884  0.0392 -0.1076 -0.4606
 7481SOL    HW229696   0.712   3.037   4.968  0.9832 -1.9115  0.2870
 7481SOL    HW329697   0.841   3.071   4.897 -1.0028  2.4839 -1.5816
 7481SOL    MW429698   0.762   3.035   4.897  0.0263 -0.0037 -0.5098
 7482SOL     OW29699   2.816   3.324   0.928  0.7095 -0.0990  0.5771
 7482SOL    HW229700   2.755   3.398   0.925 -0.3129 -0.8659  1.8224
 7482SOL    HW329701   2.827   3.299   0.836 -1.7395 -0.6438  0.3681
 7482SOL    MW429702   2.809   3.330   0.915  0.2515 -0.2720  0.7139
 7483SOL     OW29703   5.714   1.405   4.162  0.1528 -0.3595 -0.0526
 7483SOL    HW229704   5.810   1.395   4.168  0.5235  1.9250 -1.2470
 7483SOL    HW329705   5.696   1.410   4.069 -1.3915 -2.2592  0.0671
 7483SOL    MW429706   5.725   1.404   4.151 -0.0021 -0.3087 -0.1944
 7484SOL     OW29707   3.552   6.260   5.442  0.8719  0.2503 -0.6510
 7484SOL    HW229708   3.614   6.321   5.401 -0.5447  0.6808 -2.2649
 7484SOL    HW329709   3.484   6.315   5.478  0.2190 -0.3066 -1.0055
 7484SOL    MW429710   3.551   6.275   5.441  0.5989  0.2336 -0.9107
 7485SOL     OW29711   1.133   4.630   5.948 -0.0115  0.2944  0.0905
 7485SOL    HW229712   1.130   4.646   6.042  0.3572  0.5671  0.0583
 7485SOL    HW329713   1.047   4.660   5.916 -1.4624 -2.7455  0.7578
 7485SOL    MW429714   1.121   4.636   5.956 -0.1543 -0.0707  0.1743
 7486SOL     OW29715   3.468   0.909   5.347 -0.0859  0.5295 -0.1476
 7486SOL    HW229716   3.542   0.968   5.362 -0.2719  0.8387 -0.4299
 7486SOL    HW329717   3.454   0.911   5.252  0.4174 -0.5921 -0.2639
 7486SOL    MW429718   3.476   0.917   5.336 -0.0441  0.4223 -0.2002
 7487SOL     OW29719   3.073   1.726   0.475  0.4557 -0.0698  0.2644
 7487SOL    HW229720   3.048   1.815   0.448 -1.2528 -1.0442 -1.6369
 7487SOL    HW329721   3.149   1.705   0.421 -1.3560 -1.0324 -2.0831
 7487SOL    MW429722   3.080   1.735   0.464 -0.0087 -0.3254 -0.2962
 7488SOL     OW29723   5.814   2.188   0.503  0.4469  0.3168  0.5934
 7488SOL    HW229724   5.799   2.122   0.434 -0.1453  0.7454  0.3110
 7488SOL    HW329725   5.892   2.235   0.473 -0.2749  1.0416 -0.2188
 7488SOL    MW429726   5.822   2.185   0.490  0.2736  0.4690  0.4490
 7489SOL     OW29727   0.767   1.658   4.269 -0.0131 -0.1334 -0.4847
 7489SOL    HW229728   0.731   1.682   4.354  2.7807  1.8622  0.2633
 7489SOL    HW329729   0.816   1.577   4.285 -0.5546 -0.4710 -0.5151
 7489SOL    MW429730   0.769   1.650   4.282  0.2841  0.0853 -0.3900
 7490SOL     OW29731   1.872   3.971   1.962 -0.3768 -0.2244 -0.3161
 7490SOL    HW229732   1.895   4.061   1.983 -1.4699  0.0376 -0.1816
 7490SOL    HW329733   1.948   3.937   1.917 -0.1871  0.9695 -0.9423
 7490SOL    MW429734   1.885   3.978   1.959 -0.4960 -0.0323 -0.3810
 7491SOL     OW29735   5.847   0.609   3.168  0.3492 -0.5463 -0.2743
 7491SOL    HW229736   5.829   0.700   3.190 -0.5760 -0.7317 -0.2623
 7491SOL    HW329737   5.943   0.605   3.162  0.4210  0.3129  0.1798
 7491SOL    MW429738   5.858   0.620   3.170  0.2366 -0.4574 -0.2128
 7492SOL     OW29739   3.150   1.114   6.260 -0.2319  0.2422  0.0555
 7492SOL    HW229740   3.216   1.179   6.237 -0.6536  0.1532 -1.5103
 7492SOL    HW329741   3.129   1.070   6.177 -3.1166  1.1151  0.1992
 7492SOL    MW429742   3.156   1.117   6.246 -0.6682  0.3456 -0.1322
 7493SOL     OW29743   2.176   3.170   1.362 -0.5994 -0.5427  0.0179
 7493SOL    HW229744   2.150   3.087   1.322  0.8714 -0.6265 -0.7942
 7493SOL    HW329745   2.268   3.180   1.341 -0.8977  1.6560 -0.5199
 7493SOL    MW429746   2.185   3.160   1.354 -0.4447 -0.2637 -0.1602
 7494SOL     OW29747   1.067   3.440   4.629  0.4117 -0.4574  0.3413
 7494SOL    HW229748   1.131   3.376   4.597  1.0781 -0.6687  2.0094
 7494SOL    HW329749   1.120   3.514   4.658  0.0794 -1.1299  2.8982
 7494SOL    MW429750   1.082   3.441   4.628  0.4558 -0.5740  0.8988
 7495SOL     OW29751   1.851   4.790   5.757  0.0774 -0.8199  1.0389
 7495SOL    HW229752   1.935   4.824   5.726  0.7085  0.5174  3.8752
 7495SOL    HW329753   1.871   4.700   5.784  0.1566 -1.0867  0.1175
 7495SOL    MW429754   1.865   4.783   5.756  0.1711 -0.6786  1.2915
 7496SOL     OW29755   0.355   1.261   3.089  0.6514 -0.3916  0.1118
 7496SOL    HW229756   0.341   1.271   2.995  0.1131  0.9592  0.3137
 7496SOL    HW329757   0.340   1.168   3.105 -0.6259 -0.3966 -0.9237
 7496SOL    MW429758   0.351   1.250   3.078  0.4119 -0.2141  0.0018
 7497SOL     OW29759   1.240   2.330   4.089 -0.8469 -0.0304  0.2998
 7497SOL    HW229760   1.256   2.340   3.995 -1.5104  0.2576  0.2067
 7497SOL    HW329761   1.314   2.372   4.132  0.0590 -1.1769 -0.0829
 7497SOL    MW429762   1.252   2.336   4.082 -0.8149 -0.1436  0.2370
 7498SOL     OW29763   2.286   4.467   1.825  0.7623 -0.0884  0.2551
 7498SOL    HW229764   2.338   4.484   1.747  0.5786 -1.3611 -0.1763
 7498SOL    HW329765   2.351   4.460   1.895  0.9970  0.2947  0.0810
 7498SOL    MW429766   2.302   4.468   1.824  0.7690 -0.2058  0.1752
 7499SOL     OW29767   1.082   3.715   2.898  0.5412 -0.0248 -0.7274
 7499SOL    HW229768   1.148   3.729   2.966  0.5963 -0.7328 -0.6266
 7499SOL    HW329769   1.109   3.771   2.826 -0.3733  1.9432  0.3843
 7499SOL    MW429770   1.094   3.724   2.898  0.4278  0.1414 -0.5674
 7500SOL     OW29771   6.147   5.562   5.968  0.5102 -0.3495 -0.4419
 7500SOL    HW229772   6.129   5.469   5.966  0.4808 -0.3769  0.5010
 7500SOL    HW329773   6.164   5.581   6.061  0.1360  0.6470 -0.5635
 7500SOL    MW429774   6.147   5.553   5.980  0.4570 -0.2216 -0.3336
 7501SOL     OW29775   5.863   2.633   3.677 -0.0717 -0.3889 -0.7987
 7501SOL    HW229776   5.910   2.692   3.735 -0.3954 -0.3225 -0.6057
 7501SOL    HW329777   5.776   2.671   3.668 -0.4134 -1.0472 -0.3480
 7501SOL    MW429778   5.858   2.646   3.683 -0.1595 -0.4670 -0.7138
 7502SOL     OW29779   4.816   2.308   4.626 -0.4383 -0.0718  0.1773
 7502SOL    HW229780   4.867   2.242   4.580 -0.6135  0.9631 -1.5674
 7502SOL    HW329781   4.881   2.361   4.672 -0.2396 -0.9060  0.8979
 7502SOL    MW429782   4.831   2.306   4.626 -0.4352 -0.0453  0.0422
 7503SOL     OW29783   3.233   4.993   6.126  0.3514  0.0669 -0.1976
 7503SOL    HW229784   3.176   4.917   6.140  0.3359  0.1439  0.1760
 7503SOL    HW329785   3.258   4.988   6.034 -2.1522  1.3395 -1.0301
 7503SOL    MW429786   3.229   4.983   6.116  0.0190  0.2449 -0.2581
 7504SOL     OW29787   5.762   5.020   1.731  0.0698  0.2817 -0.2294
 7504SOL    HW229788   5.753   4.992   1.640  0.7200 -1.4936  0.1998
 7504SOL    HW329789   5.730   5.110   1.733 -1.8686 -0.3116 -1.8161
 7504SOL    MW429790   5.757   5.028   1.720 -0.1002 -0.0308 -0.3821
 7505SOL     OW29791   0.520   2.624   6.019 -0.0263 -0.3020 -0.3324
 7505SOL    HW229792   0.614   2.604   6.017 -0.0167 -0.3017 -0.0295
 7505SOL    HW329793   0.514   2.709   6.061 -0.3950 -2.1539  3.9037
 7505SOL    MW429794   0.531   2.632   6.024 -0.0737 -0.5463  0.2665
 7506SOL     OW29795   3.032   3.479   1.966  0.9976 -0.3258 -0.2548
 7506SOL    HW229796   2.965   3.484   2.033  0.5617 -1.3579 -0.6000
 7506SOL    HW329797   2.995   3.527   1.891  1.2482  0.3287  0.0293
 7506SOL    MW429798   3.019   3.486   1.965  0.9731 -0.3756 -0.2629
 7507SOL     OW29799   6.329   1.691   2.592 -0.0660 -0.2023 -0.2551
 7507SOL    HW229800   6.262   1.639   2.637  0.1090 -1.1836 -1.0991
 7507SOL    HW329801   6.300   1.695   2.501  0.0234  1.0411 -0.2525
 7507SOL    MW429802   6.316   1.685   2.586 -0.0311 -0.1677 -0.3661
 7508SOL     OW29803   5.196   0.924   1.919  0.5345 -0.2606  0.5132
 7508SOL    HW229804   5.257   0.947   1.989 -1.1009  1.4611  1.4938
 7508SOL    HW329805   5.215   0.986   1.849 -0.6274  0.9470  1.2039
 7508SOL    MW429806   5.206   0.935   1.919  0.1655  0.1259  0.7337
 7509SOL     OW29807   4.201   2.491   2.295 -0.1620 -0.0477 -0.7191
 7509SOL    HW229808   4.146   2.412   2.292 -0.3536 -0.0006  0.8197
 7509SOL    HW329809   4.265   2.477   2.224  0.9287 -2.4554  0.5971
 7509SOL    MW429810   4.202   2.478   2.285 -0.0433 -0.3591 -0.3424
 7510SOL     OW29811   0.569   1.403   0.382  0.2486 -0.5703  0.0332
 7510SOL    HW229812   0.603   1.376   0.297 -0.6207  0.6189 -0.7264
 7510SOL    HW329813   0.477   1.422   0.366  0.1014 -0.2129  1.2159
 7510SOL    MW429814   0.561   1.402   0.369  0.1145 -0.3662  0.0890
 7511SOL     OW29815   1.009   2.333   5.276  0.0752  0.5391 -0.1867
 7511SOL    HW229816   0.941   2.309   5.338 -1.0118 -0.6898 -1.7739
 7511SOL    HW329817   1.016   2.428   5.282 -0.2558  0.4789  1.5058
 7511SOL    MW429818   1.001   2.342   5.285 -0.1119  0.3690 -0.1728
 7512SOL     OW29819   0.881   4.557   5.022 -0.2432  0.1547 -0.0596
 7512SOL    HW229820   0.806   4.508   4.986 -1.8335  1.6471  1.0290
 7512SOL    HW329821   0.917   4.501   5.090  0.6839 -1.2681 -1.6632
 7512SOL    MW429822   0.876   4.543   5.026 -0.3307  0.1639 -0.1275
 7513SOL     OW29823   0.518   3.081   0.613  0.0541 -0.6724  0.8717
 7513SOL    HW229824   0.561   3.146   0.668  1.2875 -1.7264  1.2020
 7513SOL    HW329825   0.553   3.095   0.525 -1.6158  0.7490  0.3805
 7513SOL    MW429826   0.528   3.091   0.609 -0.0035 -0.6239  0.8504
 7514SOL     OW29827   2.770   5.052   5.030  0.4305  0.0223  0.4373
 7514SOL    HW229828   2.690   4.999   5.035  0.6389 -0.4963 -1.2270
 7514SOL    HW329829   2.752   5.127   5.087 -1.3538  0.0217 -0.0521
 7514SOL    MW429830   2.757   5.055   5.038  0.2226 -0.0462  0.1532
 7515SOL     OW29831   5.012   3.846   0.125  0.0813 -0.1786  0.2602
 7515SOL    HW229832   4.995   3.907   0.053 -1.2500 -0.6026  0.1855
 7515SOL    HW329833   5.092   3.801   0.099  1.7930  2.2908  0.8695
 7515SOL    MW429834   5.021   3.848   0.112  0.1315  0.0913  0.3308
 7516SOL     OW29835   5.183   0.489   0.566 -0.0647 -0.5366 -0.2053
 7516SOL    HW229836   5.230   0.566   0.598  0.0843 -0.5402 -0.4092
 7516SOL    HW329837   5.097   0.521   0.541 -0.5136 -0.6994  1.0633
 7516SOL    MW429838   5.178   0.503   0.567 -0.1043 -0.5585 -0.0648
 7517SOL     OW29839   4.755   5.336   0.034  0.0883  0.3272  0.3556
 7517SOL    HW229840   4.662   5.358   0.029  0.3477  1.1982 -2.5920
 7517SOL    HW329841   4.792   5.368  -0.048  1.8724 -5.2077 -1.4532
 7517SOL    MW429842   4.748   5.343   0.022  0.3579 -0.2882 -0.2720
 7518SOL     OW29843   5.642   2.989   0.398 -0.2003 -0.6110  0.4532
 7518SOL    HW229844   5.707   2.993   0.468  1.5643  2.0205 -1.1122
 7518SOL    HW329845   5.573   3.050   0.425  0.5954  0.5872 -0.0928
 7518SOL    MW429846   5.642   2.998   0.411  0.1375 -0.1057  0.1746
 7519SOL     OW29847   0.746   1.102   0.291 -0.0649 -0.0869 -0.3490
 7519SOL    HW229848   0.677   1.075   0.231 -0.7366  0.6846  0.0552
 7519SOL    HW329849   0.823   1.112   0.236 -0.9500  1.7581 -1.3277
 7519SOL    MW429850   0.747   1.100   0.276 -0.2703  0.2583 -0.4248
 7520SOL     OW29851   5.580   2.205   4.926  0.3289 -0.3163  0.2683
 7520SOL    HW229852   5.642   2.144   4.886  0.0055 -0.8267  0.5225
 7520SOL    HW329853   5.512   2.148   4.964 -1.1403  0.2803 -1.3596
 7520SOL    MW429854   5.579   2.189   4.926  0.0924 -0.3049  0.0871
 7521SOL     OW29855   1.435   2.345   4.935  0.4831  0.7522 -0.3215
 7521SOL    HW229856   1.364   2.314   4.991  1.0854 -1.8324 -0.8902
 7521SOL    HW329857   1.432   2.441   4.945 -0.7293  0.5401  2.4954
 7521SOL    MW429858   1.425   2.354   4.944  0.4026  0.3832 -0.0249
 7522SOL     OW29859   0.002   2.246   3.621 -0.4812  0.0159  0.5693
 7522SOL    HW229860  -0.037   2.327   3.589  0.4492  0.3322  0.1954
 7522SOL    HW329861   0.096   2.260   3.613 -0.2841 -0.7440  1.3948
 7522SOL    MW429862   0.009   2.259   3.615 -0.3324 -0.0426  0.6289
 7523SOL     OW29863   2.915   4.060   5.892  0.3193  0.6155 -0.2608
 7523SOL    HW229864   2.841   4.041   5.950  0.2311  0.9757 -0.2571
 7523SOL    HW329865   2.961   4.132   5.935  1.7777 -0.8426  0.7392
 7523SOL    MW429866   2.911   4.067   5.906  0.5001  0.4706 -0.1284
 7524SOL     OW29867   5.989   5.790   6.215 -0.4899  0.5595 -0.0976
 7524SOL    HW229868   6.059   5.849   6.186 -0.1409 -0.2176 -0.8827
 7524SOL    HW329869   5.921   5.797   6.148  0.6989 -1.9173 -1.7218
 7524SOL    MW429870   5.989   5.799   6.203 -0.2870  0.1302 -0.4155
 7525SOL     OW29871   1.032   1.885   2.113  0.6271 -0.2595  0.7770
 7525SOL    HW229872   0.952   1.911   2.068  1.0875 -0.7819 -0.3873
 7525SOL    HW329873   1.030   1.789   2.113 -0.9602 -0.4287  4.8488
 7525SOL    MW429874   1.021   1.876   2.107  0.4785 -0.3507  1.1606
 7526SOL     OW29875   0.076   2.589   2.197  0.1371  0.0708 -0.4639
 7526SOL    HW229876   0.019   2.640   2.255  2.1272  0.5075  1.2015
 7526SOL    HW329877   0.048   2.499   2.209  0.0119  0.2408  0.5870
 7526SOL    MW429878   0.065   2.584   2.206  0.3832  0.1508 -0.1056
 7527SOL     OW29879   4.794   3.380   0.547  0.0135 -0.2988  0.0835
 7527SOL    HW229880   4.862   3.327   0.505 -0.4652  0.6429 -2.0483
 7527SOL    HW329881   4.841   3.456   0.581  0.1401 -0.0243 -0.6896
 7527SOL    MW429882   4.809   3.383   0.546 -0.0330 -0.1383 -0.2998
 7528SOL     OW29883   6.165   5.538   0.888 -0.3271 -0.3429  0.4564
 7528SOL    HW229884   6.216   5.561   0.965  1.0010  0.3508 -0.5985
 7528SOL    HW329885   6.175   5.443   0.881  0.6647 -0.2406  0.3801
 7528SOL    MW429886   6.173   5.528   0.897 -0.0211 -0.2379  0.3071
 7529SOL     OW29887   2.786   1.603   1.488  0.2770 -0.2314  0.6202
 7529SOL    HW229888   2.805   1.515   1.522  0.7064  0.1683  1.4641
 7529SOL    HW329889   2.837   1.661   1.545 -2.5206  0.8341  2.2330
 7529SOL    MW429890   2.795   1.599   1.500 -0.0355 -0.0381  0.9444
 7530SOL     OW29891   0.787   0.198   2.518 -0.2939  0.4964 -0.1811
 7530SOL    HW229892   0.706   0.237   2.483 -1.4911 -0.2373  1.6355
 7530SOL    HW329893   0.832   0.270   2.560 -1.0622  0.5170  0.6322
 7530SOL    MW429894   0.782   0.213   2.519 -0.5532  0.4023  0.1659
 7531SOL     OW29895   1.938   4.345   2.480  0.4995 -0.3487  0.1139
 7531SOL    HW229896   1.913   4.434   2.506  1.7150 -0.1880  0.7892
 7531SOL    HW329897   1.859   4.310   2.439 -0.5562  0.4317  1.3752
 7531SOL    MW429898   1.924   4.352   2.478  0.5206 -0.2245  0.3694
 7532SOL     OW29899   0.166   3.533   5.275 -0.4519 -0.2816  0.2503
 7532SOL    HW229900   0.229   3.545   5.346 -0.5122  0.9383  0.1287
 7532SOL    HW329901   0.214   3.559   5.196  0.3169 -3.6259 -0.5390
 7532SOL    MW429902   0.180   3.538   5.274 -0.3584 -0.5619  0.1301
 7533SOL     OW29903   4.653   1.218   1.416  0.0029  0.3486  0.2694
 7533SOL    HW229904   4.561   1.198   1.398 -0.4419 -0.2036  2.7689
 7533SOL    HW329905   4.664   1.309   1.389 -0.6038 -0.2248 -2.1790
 7533SOL    MW429906   4.642   1.227   1.410 -0.1358  0.2001  0.2762
 7534SOL     OW29907   6.360   3.822   3.307  0.3797  0.0170 -0.1018
 7534SOL    HW229908   6.390   3.911   3.326 -0.1873  0.3273 -0.6083
 7534SOL    HW329909   6.308   3.832   3.226  1.3059 -0.9585 -0.8386
 7534SOL    MW429910   6.357   3.835   3.299  0.4271 -0.0708 -0.2658
 7535SOL     OW29911   1.350   2.725   0.045  0.4333 -0.3987 -0.0934
 7535SOL    HW229912   1.302   2.808   0.043  0.3465 -0.4571 -1.2562
 7535SOL    HW329913   1.286   2.662   0.081 -0.5420 -0.5557 -1.9910
 7535SOL    MW429914   1.335   2.727   0.050  0.2932 -0.4271 -0.4972
 7536SOL     OW29915   0.185   0.123   4.754 -0.0899  0.0742 -0.4932
 7536SOL    HW229916   0.196   0.029   4.772 -0.4378  0.3519  1.3526
 7536SOL    HW329917   0.090   0.137   4.761  0.1593  0.9681  1.5498
 7536SOL    MW429918   0.174   0.112   4.757 -0.1029  0.2288  0.0199
 7537SOL     OW29919   6.424   0.890   3.896 -0.4881 -0.2870 -0.2358
 7537SOL    HW229920   6.432   0.841   3.978  0.4624 -0.6226 -0.5171
 7537SOL    HW329921   6.363   0.961   3.917 -0.9147 -0.8495  0.5245
 7537SOL    MW429922   6.417   0.893   3.910 -0.4190 -0.4055 -0.1726
 7538SOL     OW29923   4.538   0.824   2.150 -0.6332 -0.0347 -0.1534
 7538SOL    HW229924   4.530   0.729   2.154 -1.3222  0.0075 -0.4839
 7538SOL    HW329925   4.461   0.853   2.101 -0.5384  0.7117  0.1301
 7538SOL    MW429926   4.527   0.816   2.144 -0.7116  0.0693 -0.1596
 7539SOL     OW29927   4.251   4.397   5.041 -0.0951  0.6557  0.7906
 7539SOL    HW229928   4.306   4.444   4.978 -2.2839  3.0187  0.4891
 7539SOL    HW329929   4.275   4.305   5.029 -1.1021  0.7611 -4.3735
 7539SOL    MW429930   4.261   4.391   5.031 -0.5167  0.9814  0.0695
 7540SOL     OW29931   2.706   5.469   5.412 -0.1825  0.1024  0.1912
 7540SOL    HW229932   2.719   5.548   5.358  1.0444  0.1899  0.5957
 7540SOL    HW329933   2.612   5.450   5.404 -0.2316  0.7790 -1.0503
 7540SOL    MW429934   2.695   5.477   5.404 -0.0271  0.2032  0.0807
 7541SOL     OW29935   5.902   4.587   2.033  0.1573 -0.3711  0.3100
 7541SOL    HW229936   5.860   4.640   1.965  1.3573  1.8820  1.2318
 7541SOL    HW329937   5.957   4.525   1.984 -0.7708 -0.3571 -0.7950
 7541SOL    MW429938   5.904   4.586   2.018  0.1932 -0.0720  0.2858
 7542SOL     OW29939   2.612   2.151   0.676 -0.0654  0.3854  0.4898
 7542SOL    HW229940   2.684   2.088   0.667  0.4300  0.8903  0.8856
 7542SOL    HW329941   2.565   2.145   0.592  0.8879  0.5895 -0.0798
 7542SOL    MW429942   2.616   2.142   0.663  0.1257  0.4790  0.4668
 7543SOL     OW29943   0.715   2.334   1.486  0.1339 -0.3915 -0.3416
 7543SOL    HW229944   0.667   2.260   1.522 -0.6062  0.3301  0.2060
 7543SOL    HW329945   0.722   2.396   1.559  1.9118 -0.4607 -0.3980
 7543SOL    MW429946   0.710   2.333   1.501  0.2708 -0.3055 -0.2768
 7544SOL     OW29947   3.964   4.054   1.327  0.6687  0.3515  0.2348
 7544SOL    HW229948   3.986   4.147   1.337 -1.9229  1.1458 -0.6825
 7544SOL    HW329949   3.897   4.038   1.392  0.9257 -0.8428  0.2251
 7544SOL    MW429950   3.958   4.064   1.337  0.3606  0.2987  0.1125
 7545SOL     OW29951   1.296   1.567   2.844  0.4533  0.4646  0.0873
 7545SOL    HW229952   1.241   1.644   2.860  1.2294  0.6568  2.2664
 7545SOL    HW329953   1.369   1.600   2.792 -0.2345  0.7566 -0.7008
 7545SOL    MW429954   1.299   1.582   2.839  0.4650  0.5285  0.2708
 7546SOL     OW29955   3.235   1.506   2.108 -0.7496  0.8499 -0.4084
 7546SOL    HW229956   3.230   1.580   2.047 -0.4715  0.3150 -1.1022
 7546SOL    HW329957   3.163   1.449   2.082 -0.2028  0.2848 -0.6981
 7546SOL    MW429958   3.225   1.508   2.096 -0.6407  0.7048 -0.5382
 7547SOL     OW29959   0.349   4.608   3.683 -0.4700 -0.5470 -0.5234
 7547SOL    HW229960   0.391   4.538   3.732 -0.4591 -0.4858 -0.4465
 7547SOL    HW329961   0.263   4.619   3.724 -0.2888 -0.1909 -0.2308
 7547SOL    MW429962   0.343   4.600   3.695 -0.4446 -0.4919 -0.4747
 7548SOL     OW29963   4.718   3.947   6.034 -0.2369 -0.0619  0.0372
 7548SOL    HW229964   4.651   3.884   6.061  0.7815 -0.9934  0.4646
 7548SOL    HW329965   4.790   3.894   6.000  0.8321  0.8231  0.8148
 7548SOL    MW429966   4.719   3.932   6.033  0.0385 -0.0681  0.1962
 7549SOL     OW29967   4.028   5.318   1.091 -0.2025  0.2972  0.0397
 7549SOL    HW229968   4.079   5.246   1.130 -2.0039 -1.1625 -0.1378
 7549SOL    HW329969   4.060   5.396   1.135  0.1429 -0.9060  2.0838
 7549SOL    MW429970   4.039   5.319   1.102 -0.3946 -0.0541  0.2860
 7550SOL     OW29971   0.265   3.788   2.117  0.1900  0.1006  0.8205
 7550SOL    HW229972   0.219   3.717   2.162  0.4859 -0.4083  0.3248
 7550SOL    HW329973   0.282   3.853   2.186 -1.3001  0.3221  1.0139
 7550SOL    MW429974   0.261   3.787   2.132  0.0324  0.0627  0.7806
 7551SOL     OW29975   2.644   2.048   3.094  0.6644  0.0653 -0.5506
 7551SOL    HW229976   2.629   1.996   3.173  1.5402 -0.8710 -0.9721
 7551SOL    HW329977   2.597   2.002   3.025  2.3011 -0.8271 -1.1391
 7551SOL    MW429978   2.636   2.035   3.095  0.9959 -0.1760 -0.6839
 7552SOL     OW29979   2.681   4.076   2.851 -0.4395 -0.0405 -0.5347
 7552SOL    HW229980   2.767   4.113   2.869 -0.6970  0.2289  0.1865
 7552SOL    HW329981   2.689   3.984   2.874 -0.9554  0.4308  1.7791
 7552SOL    MW429982   2.693   4.069   2.857 -0.5415  0.0572 -0.1343
 7553SOL     OW29983   3.900   3.897   0.827 -0.3619  0.1643  0.2675
 7553SOL    HW229984   3.983   3.850   0.824  0.3240  1.2257  1.5942
 7553SOL    HW329985   3.840   3.844   0.774  1.0404 -0.8336 -0.3615
 7553SOL    MW429986   3.903   3.884   0.819 -0.0864  0.1726  0.3596
 7554SOL     OW29987   5.054   1.129   0.034 -0.5990  0.4957 -0.1435
 7554SOL    HW229988   5.044   1.195  -0.035 -0.3560 -0.1815 -0.8352
 7554SOL    HW329989   5.116   1.168   0.095 -1.6183  1.5514  0.2600
 7554SOL    MW429990   5.061   1.143   0.033 -0.7015  0.5456 -0.1815
 7555SOL     OW29991   5.562   4.558   6.084 -0.4531  0.6325 -0.6647
 7555SOL    HW229992   5.624   4.487   6.066 -0.8942  0.3161 -0.9759
 7555SOL    HW329993   5.616   4.632   6.111 -0.0305 -0.0811  0.5275
 7555SOL    MW429994   5.577   4.558   6.085 -0.4555  0.4966 -0.5485
 7556SOL     OW29995   5.408   3.221   0.356 -0.4823  0.3503 -0.1743
 7556SOL    HW229996   5.349   3.247   0.427 -1.5559 -1.2316 -0.4385
 7556SOL    HW329997   5.395   3.288   0.288 -1.6307  0.2935 -0.0285
 7556SOL    MW429998   5.399   3.233   0.356 -0.7755  0.1341 -0.1899
 7557SOL     OW29999   4.340   5.170   3.477  0.1579  0.2078  0.1248
 7557SOL    HW230000   4.317   5.148   3.386  1.1243  0.6546 -0.2467
 7557SOL    HW330001   4.286   5.246   3.498  0.4590  0.5618 -0.3466
 7557SOL    MW430002   4.330   5.177   3.467  0.3251  0.3134  0.0136
 7558SOL     OW30003   5.102   4.179   1.976 -0.3157  0.1574  0.0521
 7558SOL    HW230004   5.151   4.260   1.964 -1.3419  0.6366 -1.2776
 7558SOL    HW330005   5.048   4.195   2.054  0.6224  0.1473  0.7101
 7558SOL    MW430006   5.101   4.192   1.985 -0.3273  0.2193 -0.0366
 7559SOL     OW30007   1.146   4.315   4.690  0.5595 -0.4736  0.0504
 7559SOL    HW230008   1.161   4.348   4.779 -0.5241  3.0392 -0.8848
 7559SOL    HW330009   1.200   4.371   4.634  0.7835 -2.2301 -1.5850
 7559SOL    MW430010   1.155   4.327   4.694  0.4461 -0.2418 -0.2887
 7560SOL     OW30011   4.090   0.865   0.507  0.0063 -0.1174  0.1025
 7560SOL    HW230012   4.178   0.898   0.492 -0.2777 -0.2770 -2.3249
 7560SOL    HW330013   4.033   0.935   0.474 -0.6796 -1.2025 -1.0973
 7560SOL    MW430014   4.094   0.879   0.500 -0.1217 -0.2816 -0.3761
 7561SOL     OW30015   0.680   4.552   5.800  0.1976 -0.6739 -0.4427
 7561SOL    HW230016   0.691   4.568   5.893 -2.0568 -0.6323 -0.1264
 7561SOL    HW330017   0.667   4.638   5.761  2.3785 -0.5671 -1.0384
 7561SOL    MW430018   0.680   4.565   5.807  0.1879 -0.6543 -0.4796
 7562SOL     OW30019   3.542   2.723   0.788 -0.0314  0.4296  0.1076
 7562SOL    HW230020   3.469   2.783   0.779 -0.2429  0.0584 -0.6739
 7562SOL    HW330021   3.563   2.696   0.699  1.3372  0.8577  0.2757
 7562SOL    MW430022   3.535   2.728   0.775  0.1213  0.4371  0.0267
 7563SOL     OW30023   5.546   0.864   6.344 -0.4792 -0.2250 -0.7717
 7563SOL    HW230024   5.548   0.921   6.421 -0.7795 -0.0365 -0.9037
 7563SOL    HW330025   5.521   0.778   6.379  0.5661 -0.4310 -0.4816
 7563SOL    MW430026   5.543   0.860   6.359 -0.3809 -0.2273 -0.7508
 7564SOL     OW30027   5.383   5.351   2.892  0.3003  0.3975 -0.7576
 7564SOL    HW230028   5.291   5.334   2.911  0.4860  0.1251 -0.0488
 7564SOL    HW330029   5.404   5.429   2.943  0.3268  0.7709 -1.3351
 7564SOL    MW430030   5.374   5.359   2.902  0.3283  0.4108 -0.7403
 7565SOL     OW30031   4.988   5.013   1.630 -0.3566  0.2478  0.4617
 7565SOL    HW230032   5.033   5.040   1.551 -0.7571  1.4644  0.6265
 7565SOL    HW330033   4.918   5.078   1.642 -3.5851 -2.6534 -0.9418
 7565SOL    MW430034   4.985   5.025   1.621 -0.8354  0.0256  0.2983
 7566SOL     OW30035   4.263   5.232   2.266 -0.2954 -0.9812 -0.3993
 7566SOL    HW230036   4.240   5.178   2.191  0.8624 -0.0470 -1.4720
 7566SOL    HW330037   4.240   5.322   2.239 -1.7539 -0.8321  1.1638
 7566SOL    MW430038   4.257   5.237   2.252 -0.3351 -0.8383 -0.3346
 7567SOL     OW30039   2.768   2.181   1.293  0.6816 -0.7595  0.3308
 7567SOL    HW230040   2.781   2.087   1.283  1.4124 -0.7470  1.1034
 7567SOL    HW330041   2.760   2.213   1.203  1.3853 -1.4257  0.0157
 7567SOL    MW430042   2.768   2.173   1.280  0.8708 -0.8458  0.3911
 7568SOL     OW30043   0.607   5.164   4.827 -0.2358  1.3608 -0.1440
 7568SOL    HW230044   0.603   5.254   4.795  1.9178  1.8451  0.7357
 7568SOL    HW330045   0.691   5.159   4.873 -0.0740 -1.2351 -0.5640
 7568SOL    MW430046   0.618   5.175   4.829  0.0697  1.0822 -0.0834
 7569SOL     OW30047   0.393   5.777   3.438  0.2659  0.1514 -0.2778
 7569SOL    HW230048   0.346   5.854   3.468  0.5638  1.0461 -1.9574
 7569SOL    HW330049   0.343   5.747   3.362  1.5580  0.2524 -1.1955
 7569SOL    MW430050   0.380   5.783   3.432  0.4757  0.2828 -0.6204
 7570SOL     OW30051   0.532   3.850   5.707 -0.5368  0.7200  0.8494
 7570SOL    HW230052   0.567   3.936   5.732 -0.0012  0.0529  2.4926
 7570SOL    HW330053   0.472   3.869   5.634 -0.1984  2.4404  0.9810
 7570SOL    MW430054   0.529   3.864   5.701 -0.4215  0.8589  1.0836
 7571SOL     OW30055   2.264   0.125   5.826 -0.1866  0.6486 -0.4141
 7571SOL    HW230056   2.184   0.129   5.878 -1.4680  0.7186 -2.2771
 7571SOL    HW330057   2.243   0.173   5.746  1.6483  0.4590 -1.0620
 7571SOL    MW430058   2.251   0.132   5.822 -0.1136  0.6328 -0.7454
 7572SOL     OW30059   4.756   1.319   2.531 -0.2062 -0.0281 -0.6305
 7572SOL    HW230060   4.785   1.259   2.463  1.0761  0.4747 -0.5568
 7572SOL    HW330061   4.734   1.400   2.485 -1.2935 -0.3177 -0.6545
 7572SOL    MW430062   4.757   1.322   2.516 -0.1805  0.0000 -0.6239
 7573SOL     OW30063   0.311   5.503   5.964  0.4086  0.3051 -0.3770
 7573SOL    HW230064   0.262   5.485   5.884  0.7733  2.4925 -1.1526
 7573SOL    HW330065   0.251   5.557   6.016 -0.9204 -3.2276  2.1479
 7573SOL    MW430066   0.296   5.508   5.961  0.2814  0.1276 -0.1462
 7574SOL     OW30067   2.741   3.261   2.152 -0.1684  0.0332 -0.1151
 7574SOL    HW230068   2.667   3.285   2.207 -0.3602  2.5631 -1.3422
 7574SOL    HW330069   2.795   3.340   2.147  1.5664 -1.1396 -0.8670
 7574SOL    MW430070   2.738   3.275   2.158  0.0352  0.2122 -0.3762
 7575SOL     OW30071   0.931   6.305   2.470  0.0701 -0.0919 -0.3966
 7575SOL    HW230072   0.987   6.381   2.457  0.2453  0.1135  1.3880
 7575SOL    HW330073   0.877   6.327   2.546 -1.5038 -0.8368 -1.2506
 7575SOL    MW430074   0.932   6.318   2.478 -0.1145 -0.1631 -0.2738
 7576SOL     OW30075   4.718   3.796   1.225 -0.4432  0.1515 -0.0605
 7576SOL    HW230076   4.630   3.758   1.220  0.1660 -1.5031  1.0342
 7576SOL    HW330077   4.734   3.806   1.318  0.5831  0.2888 -0.2426
 7576SOL    MW430078   4.708   3.792   1.236 -0.2274 -0.0487  0.0599
 7577SOL     OW30079   0.978   2.922   2.454  0.3566 -0.1584 -0.7849
 7577SOL    HW230080   1.022   2.903   2.371  1.3246 -0.0505 -0.3219
 7577SOL    HW330081   1.035   2.987   2.497 -1.2082  1.3619 -0.9296
 7577SOL    MW430082   0.992   2.928   2.449  0.2778  0.0564 -0.7429
 7578SOL     OW30083   5.617   6.268   5.793  0.5829  0.1321 -0.0769
 7578SOL    HW230084   5.554   6.225   5.851  1.6507  0.9884  1.7883
 7578SOL    HW330085   5.587   6.246   5.704 -2.3118  0.5014  0.7234
 7578SOL    MW430086   5.605   6.259   5.789  0.3418  0.2938  0.2747
 7579SOL     OW30087   3.892   4.513   3.125 -0.2096 -0.3961  0.1505
 7579SOL    HW230088   3.854   4.508   3.037  0.8878 -1.9690 -0.2722
 7579SOL    HW330089   3.947   4.592   3.123 -0.8508  0.0541 -0.2762
 7579SOL    MW430090   3.894   4.523   3.113 -0.1494 -0.5442  0.0385
 7580SOL     OW30091   4.353   0.089   3.375  0.0008 -0.3014 -0.1955
 7580SOL    HW230092   4.441   0.125   3.390 -0.3721  0.9566 -0.8517
 7580SOL    HW330093   4.339   0.097   3.281 -0.6887 -0.8047 -0.1419
 7580SOL    MW430094   4.363   0.095   3.365 -0.1394 -0.2018 -0.2750
 7581SOL     OW30095   6.371   1.742   2.027 -0.6504 -0.0545 -0.1920
 7581SOL    HW230096   6.409   1.655   2.036 -2.0350 -0.6323  0.3990
 7581SOL    HW330097   6.438   1.793   1.981 -0.0974 -1.6105 -1.1905
 7581SOL    MW430098   6.385   1.737   2.022 -0.7601 -0.3360 -0.2458
 7582SOL     OW30099   1.391   4.962   3.905  0.4364  0.1800 -0.1367
 7582SOL    HW230100   1.326   4.922   3.962  0.0449  1.3505  0.2751
 7582SOL    HW330101   1.444   4.889   3.873  2.4957 -0.4082  3.9179
 7582SOL    MW430102   1.390   4.947   3.909  0.6564  0.2568  0.4526
 7583SOL     OW30103   1.129   1.951   1.175  0.4345 -0.1073 -0.1309
 7583SOL    HW230104   1.219   1.978   1.190  0.5972 -0.4005 -0.5559
 7583SOL    HW330105   1.134   1.888   1.103 -0.2749  1.1010 -1.2923
 7583SOL    MW430106   1.142   1.947   1.167  0.3624  0.0135 -0.3402
 7584SOL     OW30107   3.385   3.857   4.785  0.2701  0.0503 -0.5527
 7584SOL    HW230108   3.345   3.896   4.862 -0.2122  0.0836 -0.8180
 7584SOL    HW330109   3.385   3.926   4.719  0.8864  0.0918 -0.5162
 7584SOL    MW430110   3.380   3.871   4.786  0.2878  0.0602 -0.5829
 7585SOL     OW30111   3.742   2.296   3.264 -0.3128 -0.0866  0.1369
 7585SOL    HW230112   3.834   2.315   3.282  0.0538 -1.0061 -0.6664
 7585SOL    HW330113   3.694   2.368   3.305  0.7139  0.0416  1.1608
 7585SOL    MW430114   3.748   2.308   3.272 -0.1290 -0.1910  0.1660
 7586SOL     OW30115   3.869   1.240   5.285  0.7938 -0.5148  0.6852
 7586SOL    HW230116   3.948   1.190   5.304  1.7597  0.0325 -1.5725
 7586SOL    HW330117   3.867   1.247   5.189 -0.4986  1.8402  0.8010
 7586SOL    MW430118   3.879   1.234   5.275  0.7507 -0.1319  0.4026
 7587SOL     OW30119   4.562   1.276   5.876  0.4023  0.1738 -0.7394
 7587SOL    HW230120   4.520   1.192   5.895  2.4508 -0.9548 -0.8894
 7587SOL    HW330121   4.502   1.341   5.912 -0.5239 -1.4241  0.7753
 7587SOL    MW430122   4.548   1.273   5.883  0.5504 -0.1860 -0.5593
 7588SOL     OW30123   5.628   0.458   2.581 -0.4203  0.4758  0.4848
 7588SOL    HW230124   5.676   0.382   2.549  0.2338  0.4848  1.4232
 7588SOL    HW330125   5.536   0.433   2.570 -0.2519 -0.9789  1.8924
 7588SOL    MW430126   5.622   0.444   2.575 -0.3118  0.2851  0.7944
 7589SOL     OW30127   5.624   1.364   0.636  0.1365 -0.0856  0.4468
 7589SOL    HW230128   5.707   1.349   0.591  0.0340 -1.5463  0.6834
 7589SOL    HW330129   5.560   1.315   0.584 -0.3450 -0.0152  0.9654
 7589SOL    MW430130   5.627   1.355   0.623  0.0594 -0.2691  0.5465
 7590SOL     OW30131   0.391   6.054   1.781 -0.4785 -0.5400  0.2669
 7590SOL    HW230132   0.377   5.983   1.844  1.9215 -2.4780 -1.1796
 7590SOL    HW330133   0.360   6.019   1.698  1.4694 -0.2731 -0.6329
 7590SOL    MW430134   0.385   6.040   1.778  0.0952 -0.7605 -0.0426
 7591SOL     OW30135   4.680   4.570   2.892 -0.1050  0.0217  0.7291
 7591SOL    HW230136   4.759   4.520   2.871 -1.5536 -1.8004 -0.7437
 7591SOL    HW330137   4.615   4.504   2.914 -0.9726  1.5286  3.0887
 7591SOL    MW430138   4.682   4.555   2.892 -0.4106 -0.0199  0.8461
 7592SOL     OW30139   4.767   2.380   5.097  0.1319  0.3664  0.4625
 7592SOL    HW230140   4.751   2.434   5.174 -2.3707  1.4545 -0.6912
 7592SOL    HW330141   4.724   2.297   5.116 -1.0300  0.8527  0.0507
 7592SOL    MW430142   4.759   2.376   5.109 -0.3516  0.5741  0.2559
 7593SOL     OW30143   5.833   5.304   3.522 -0.1789  0.0424  0.2028
 7593SOL    HW230144   5.760   5.280   3.465  0.0826 -0.4836  0.0846
 7593SOL    HW330145   5.906   5.252   3.490  0.4214  1.0355 -0.0941
 7593SOL    MW430146   5.833   5.294   3.510 -0.0652  0.1040  0.1480
 7594SOL     OW30147   4.042   2.679   4.698 -0.3870 -0.0826 -0.0085
 7594SOL    HW230148   4.095   2.626   4.639  0.0729 -0.3949  0.6685
 7594SOL    HW330149   4.101   2.750   4.726 -0.4136 -0.2605  0.5167
 7594SOL    MW430150   4.057   2.682   4.694 -0.3298 -0.1472  0.1501
 7595SOL     OW30151   5.891   1.164   6.231  0.0430 -0.4411  0.4735
 7595SOL    HW230152   5.869   1.095   6.168 -0.6342 -1.4722  1.7789
 7595SOL    HW330153   5.845   1.241   6.200  1.2804 -0.3786 -1.3472
 7595SOL    MW430154   5.882   1.165   6.219  0.1169 -0.5689  0.4056
 7596SOL     OW30155   5.593   1.864   6.028  0.7281 -0.0746 -0.2171
 7596SOL    HW230156   5.591   1.777   5.989 -2.1846  0.2054 -0.9347
 7596SOL    HW330157   5.556   1.852   6.116  0.6889  0.3685 -0.1694
 7596SOL    MW430158   5.588   1.851   6.035  0.3386  0.0208 -0.3055
 7597SOL     OW30159   3.989   1.031   6.283 -0.4398 -0.0375  0.1451
 7597SOL    HW230160   4.041   0.951   6.271  0.5506  0.7111 -0.7835
 7597SOL    HW330161   3.901   1.007   6.256  0.1751 -0.4200 -1.6590
 7597SOL    MW430162   3.985   1.017   6.278 -0.2280  0.0108 -0.2155
 7598SOL     OW30163   4.041   1.495   0.658  0.0535  0.2243  0.5883
 7598SOL    HW230164   4.131   1.473   0.633 -0.8613 -1.9082 -1.1533
 7598SOL    HW330165   4.031   1.460   0.746  0.8799  0.3720  0.7455
 7598SOL    MW430166   4.052   1.488   0.666  0.0418 -0.0375  0.3793
 7599SOL     OW30167   5.451   3.343   5.489  0.4563 -0.5880 -0.0044
 7599SOL    HW230168   5.358   3.321   5.491  0.2769  0.1971  1.9112
 7599SOL    HW330169   5.460   3.397   5.410 -0.7124 -0.6148 -0.1841
 7599SOL    MW430170   5.440   3.348   5.479  0.2784 -0.4880  0.2246
 7600SOL     OW30171   0.936   0.335   5.992  0.2624  0.1965 -0.0852
 7600SOL    HW230172   0.957   0.385   6.071  1.4594 -1.2230  0.5453
 7600SOL    HW330173   1.007   0.356   5.931 -0.0545  0.4249 -0.3777
 7600SOL    MW430174   0.949   0.345   5.995  0.3785  0.0393 -0.0406
 7601SOL     OW30175   5.223   4.146   5.745  0.5337 -0.4450 -0.4266
 7601SOL    HW230176   5.274   4.176   5.820 -1.3022 -0.3173  0.8357
 7601SOL    HW330177   5.215   4.223   5.689  0.6855 -0.1447 -0.0385
 7601SOL    MW430178   5.229   4.160   5.748  0.3115 -0.3886 -0.2088
 7602SOL     OW30179   2.820   1.821   5.374  0.1909  0.1944  0.0690
 7602SOL    HW230180   2.744   1.845   5.426  0.0538 -0.1222  0.0149
 7602SOL    HW330181   2.813   1.727   5.362  0.5808  0.1642  0.0473
 7602SOL    MW430182   2.809   1.812   5.379  0.2243  0.1486  0.0590
 7603SOL     OW30183   3.925   4.805   3.624 -0.5465 -0.7278 -0.2175
 7603SOL    HW230184   3.991   4.793   3.692  0.2486 -0.3292 -0.8983
 7603SOL    HW330185   3.913   4.717   3.586  1.6234 -0.3911 -1.8947
 7603SOL    MW430186   3.932   4.791   3.628 -0.1553 -0.6308 -0.5286
 7604SOL     OW30187   2.706   5.859   1.911 -0.4161  0.4207 -0.3889
 7604SOL    HW230188   2.664   5.787   1.864  0.7118 -1.2874  1.0722
 7604SOL    HW330189   2.768   5.816   1.970 -0.7280  2.5078  1.6229
 7604SOL    MW430190   2.709   5.844   1.913 -0.3084  0.4707  0.0693
 7605SOL     OW30191   1.770   3.465   2.482 -0.1061  0.0243 -0.2762
 7605SOL    HW230192   1.679   3.478   2.510  0.1909  1.9673 -0.0604
 7605SOL    HW330193   1.774   3.374   2.453 -1.4849 -0.8541  2.0721
 7605SOL    MW430194   1.759   3.455   2.482 -0.2488  0.1647  0.0621
 7606SOL     OW30195   0.975   0.561   2.796  0.4097  0.2102  0.2290
 7606SOL    HW230196   1.063   0.542   2.829  0.4199  1.2113  0.8396
 7606SOL    HW330197   0.990   0.603   2.711  0.4426 -1.0718 -0.4162
 7606SOL    MW430198   0.989   0.564   2.789  0.4153  0.1731  0.2244
 7607SOL     OW30199   0.632   0.026   5.444 -0.4598  0.5375 -0.0397
 7607SOL    HW230200   0.601   0.091   5.508 -1.7210  1.3530 -1.4183
 7607SOL    HW330201   0.654  -0.051   5.497 -1.1975  1.2747  1.4013
 7607SOL    MW430202   0.631   0.025   5.459 -0.7235  0.7424 -0.0315
 7608SOL     OW30203   5.680   3.320   6.275  0.1625 -0.0143  0.3435
 7608SOL    HW230204   5.718   3.366   6.201  0.3492  0.1940  0.5669
 7608SOL    HW330205   5.728   3.238   6.280 -0.3381 -0.3500 -0.2099
 7608SOL    MW430206   5.691   3.315   6.266  0.1211 -0.0311  0.3000
 7609SOL     OW30207   3.586   4.840   0.024 -0.7167 -0.5980  0.0273
 7609SOL    HW230208   3.634   4.763  -0.005  0.1082  0.3716 -1.3681
 7609SOL    HW330209   3.555   4.881  -0.058  3.1471  3.2153  0.1108
 7609SOL    MW430210   3.588   4.835   0.009 -0.0981  0.0330 -0.1458
 7610SOL     OW30211   0.266   6.122   5.695  0.4259  0.0557 -0.4788
 7610SOL    HW230212   0.214   6.145   5.771  1.3982  1.2431 -0.1481
 7610SOL    HW330213   0.246   6.190   5.631  0.7925 -0.0614 -0.7202
 7610SOL    MW430214   0.256   6.134   5.696  0.6025  0.1969 -0.4670
 7611SOL     OW30215   6.371   6.240   1.533 -0.3516 -0.3300  0.7273
 7611SOL    HW230216   6.352   6.159   1.579 -0.0314  0.1881  1.8039
 7611SOL    HW330217   6.303   6.247   1.466 -0.1837 -1.6416  0.4041
 7611SOL    MW430218   6.360   6.230   1.530 -0.2872 -0.4347  0.8267
 7612SOL     OW30219   0.594   2.849   5.672  0.1918 -0.4633 -0.0672
 7612SOL    HW230220   0.550   2.911   5.730  0.0955 -0.0676 -0.5585
 7612SOL    HW330221   0.641   2.790   5.732 -2.0378 -1.7291  0.5360
 7612SOL    MW430222   0.595   2.849   5.688 -0.1151 -0.5781 -0.0524
 7613SOL     OW30223   0.839   5.199   0.162  0.0960  0.0984 -0.3056
 7613SOL    HW230224   0.830   5.242   0.246  0.2966  0.2017 -0.3380
 7613SOL    HW330225   0.806   5.263   0.098  0.6373  0.3041 -0.3796
 7613SOL    MW430226   0.833   5.213   0.164  0.1939  0.1392 -0.3197
 7614SOL     OW30227   4.463   4.483   1.046 -0.6405  0.5494 -0.2214
 7614SOL    HW230228   4.466   4.502   0.952  1.1154 -1.2317 -0.5654
 7614SOL    HW330229   4.524   4.546   1.085 -1.0186  0.9807 -0.3173
 7614SOL    MW430230   4.471   4.494   1.039 -0.4587  0.3713 -0.2794
 7615SOL     OW30231   5.216   3.736   5.099  0.4281 -0.7283  0.1547
 7615SOL    HW230232   5.124   3.740   5.125  0.4048  0.6031 -0.0520
 7615SOL    HW330233   5.238   3.643   5.100 -0.7163 -1.0036  0.9106
 7615SOL    MW430234   5.207   3.724   5.102  0.2740 -0.5889  0.2271
 7616SOL     OW30235   5.900   0.363   0.298  0.4837 -0.2650  0.0042
 7616SOL    HW230236   5.948   0.310   0.362 -0.1329  0.9757  1.5906
 7616SOL    HW330237   5.926   0.453   0.318 -0.5441  0.2353 -0.8065
 7616SOL    MW430238   5.910   0.368   0.309  0.2667 -0.0353  0.1066
 7617SOL     OW30239   1.746   3.888   5.737 -0.1226  0.1005 -0.1941
 7617SOL    HW230240   1.669   3.909   5.684  0.8536  0.5722 -1.4474
 7617SOL    HW330241   1.749   3.792   5.737 -2.1414 -0.0604  2.0162
 7617SOL    MW430242   1.736   3.878   5.730 -0.2601  0.1415 -0.0678
 7618SOL     OW30243   2.069   5.252   4.260 -0.7683  0.2312  0.3946
 7618SOL    HW230244   2.138   5.241   4.326  1.9010 -0.8445 -2.3121
 7618SOL    HW330245   2.090   5.335   4.218  0.5651 -1.2516 -2.1037
 7618SOL    MW430246   2.081   5.261   4.263 -0.2402 -0.1064 -0.2921
 7619SOL     OW30247   5.286   1.180   4.885 -0.7284  0.4691 -0.2309
 7619SOL    HW230248   5.222   1.250   4.889  0.3317  1.6139 -1.8854
 7619SOL    HW330249   5.370   1.224   4.871  0.0052 -1.0964 -1.1045
 7619SOL    MW430250   5.289   1.195   4.884 -0.4918  0.4136 -0.5645
 7620SOL     OW30251   5.943   4.588   5.171  0.2149 -0.7070 -0.0830
 7620SOL    HW230252   5.863   4.573   5.221  0.6167  0.6248  1.0103
 7620SOL    HW330253   5.937   4.526   5.098 -1.1087 -1.6473  0.7688
 7620SOL    MW430254   5.932   4.578   5.168  0.0933 -0.6553  0.1736
 7621SOL     OW30255   5.338   6.042   3.595 -0.1890  0.1653  0.4679
 7621SOL    HW230256   5.255   6.021   3.551  0.6896 -0.9399 -0.7710
 7621SOL    HW330257   5.360   5.963   3.644 -0.2188  0.7257  1.4116
 7621SOL    MW430258   5.330   6.029   3.595 -0.0770  0.0934  0.4289
 7622SOL     OW30259   2.415   4.845   3.776 -0.0695  0.2826 -0.4667
 7622SOL    HW230260   2.365   4.926   3.764  0.0387  0.4672  0.2792
 7622SOL    HW330261   2.368   4.798   3.844  1.0205  0.6886  0.6179
 7622SOL    MW430262   2.402   4.850   3.784  0.0885  0.3605 -0.2252
 7623SOL     OW30263   0.455   3.256   1.799  0.0304 -0.0072 -0.0549
 7623SOL    HW230264   0.383   3.222   1.745 -0.4434 -0.3676  0.7835
 7623SOL    HW330265   0.533   3.244   1.745 -0.6043  0.9650 -1.2414
 7623SOL    MW430266   0.456   3.250   1.785 -0.1159  0.0735 -0.1008
 7624SOL     OW30267   1.266   0.029   0.664  0.6269  0.2462  0.2136
 7624SOL    HW230268   1.200   0.004   0.729 -0.4092 -0.3126 -1.0058
 7624SOL    HW330269   1.337   0.066   0.716 -0.1711 -0.1444  1.6621
 7624SOL    MW430270   1.266   0.031   0.680  0.3849  0.1209  0.2438
 7625SOL     OW30271   2.610   3.466   5.376  0.6619  0.0584  0.0829
 7625SOL    HW230272   2.662   3.396   5.414  2.2635  1.0742 -0.1608
 7625SOL    HW330273   2.539   3.479   5.439  0.7774 -1.2363  0.5113
 7625SOL    MW430274   2.607   3.459   5.389  0.8884  0.0216  0.1072
 7626SOL     OW30275   4.424   4.010   3.337 -0.2990  0.2706  0.1677
 7626SOL    HW230276   4.420   3.939   3.273  1.2342  0.7885 -0.5614
 7626SOL    HW330277   4.507   3.995   3.383 -0.3752  1.1058  0.5938
 7626SOL    MW430278   4.435   3.998   3.335 -0.1068  0.4492  0.1278
 7627SOL     OW30279   1.551   4.751   4.726 -0.1462  0.4782 -0.4250
 7627SOL    HW230280   1.566   4.669   4.774  0.3971  0.3220 -0.8480
 7627SOL    HW330281   1.638   4.791   4.720 -0.3807  0.9990 -0.3845
 7627SOL    MW430282   1.565   4.745   4.732 -0.1055  0.5263 -0.4755
 7628SOL     OW30283   4.078   1.139   1.665 -0.2746 -0.3631 -0.1168
 7628SOL    HW230284   4.040   1.141   1.578 -0.7472 -2.2703  0.0131
 7628SOL    HW330285   4.024   1.199   1.717 -1.2861 -0.8138 -0.6375
 7628SOL    MW430286   4.066   1.147   1.661 -0.4704 -0.6742 -0.1683
 7629SOL     OW30287   1.433   5.468   1.624 -0.3875 -0.5010 -0.1359
 7629SOL    HW230288   1.442   5.554   1.584 -1.7591  0.0761  0.7246
 7629SOL    HW330289   1.349   5.436   1.592 -0.7897 -0.6805  1.0597
 7629SOL    MW430290   1.423   5.475   1.614 -0.6215 -0.4485  0.1354
 7630SOL     OW30291   2.195   2.656   0.137 -0.2011 -0.1323  0.2076
 7630SOL    HW230292   2.269   2.701   0.178  2.4780 -2.6230 -1.4702
 7630SOL    HW330293   2.187   2.697   0.051  1.5224 -1.8996 -0.8898
 7630SOL    MW430294   2.204   2.667   0.131  0.3798 -0.6941 -0.1585
 7631SOL     OW30295   6.006   0.606   5.434  0.0213 -0.3011 -0.2935
 7631SOL    HW230296   5.961   0.541   5.380 -0.7773 -0.5300  0.6188
 7631SOL    HW330297   6.044   0.556   5.506  0.6738  0.0651 -0.3689
 7631SOL    MW430298   6.005   0.591   5.437  0.0020 -0.2830 -0.1831
 7632SOL     OW30299   2.937   4.334   1.432 -0.7988 -0.2488 -0.2122
 7632SOL    HW230300   2.929   4.265   1.366 -0.6204 -0.1771 -0.3118
 7632SOL    HW330301   3.027   4.325   1.465 -0.9187 -0.3430  0.0871
 7632SOL    MW430302   2.948   4.324   1.428 -0.7910 -0.2517 -0.1858
 7633SOL     OW30303   5.227   2.861   1.226  0.1620  0.0414 -0.8053
 7633SOL    HW230304   5.135   2.839   1.217 -0.0046  0.9255 -1.3782
 7633SOL    HW330305   5.264   2.789   1.278 -1.0332  0.1697  0.2732
 7633SOL    MW430306   5.220   2.848   1.232 -0.0177  0.1750 -0.7386
 7634SOL     OW30307   3.467   4.336   0.097 -0.0458 -0.2436 -0.0389
 7634SOL    HW230308   3.498   4.406   0.155  0.5220 -0.2534 -0.3210
 7634SOL    HW330309   3.487   4.255   0.144  0.3177 -0.2481 -0.1971
 7634SOL    MW430310   3.474   4.334   0.110  0.0771 -0.2455 -0.0970
 7635SOL     OW30311   3.918   1.675   3.257 -0.2444  0.1365 -0.4100
 7635SOL    HW230312   3.847   1.616   3.280  1.6759 -2.1895 -0.0507
 7635SOL    HW330313   3.907   1.691   3.163  0.4645 -2.8016 -1.0859
 7635SOL    MW430314   3.907   1.669   3.248  0.1025 -0.5581 -0.4518
 7636SOL     OW30315   5.403   6.267   1.606  0.2793  0.4687 -0.0665
 7636SOL    HW230316   5.478   6.321   1.630  0.4548  0.6582 -1.0174
 7636SOL    HW330317   5.327   6.322   1.628  0.4537  1.8214 -2.4564
 7636SOL    MW430318   5.403   6.282   1.612  0.3255  0.6722 -0.5073
 7637SOL     OW30319   5.508   1.474   2.531 -0.0187 -0.1072 -0.2101
 7637SOL    HW230320   5.571   1.535   2.495  0.9643 -0.8708  0.1504
 7637SOL    HW330321   5.513   1.397   2.474  0.7058 -0.8699  0.8350
 7637SOL    MW430322   5.517   1.472   2.519  0.2066 -0.3086 -0.0246
 7638SOL     OW30323   1.549   5.494   5.647 -1.1914  0.8140 -0.3740
 7638SOL    HW230324   1.533   5.534   5.732 -2.4876  0.1103 -0.2755
 7638SOL    HW330325   1.467   5.503   5.599 -1.8413 -2.3185 -0.0875
 7638SOL    MW430326   1.536   5.500   5.652 -1.4482  0.3079 -0.3232
 7639SOL     OW30327   1.510   0.977   6.362 -0.0882 -0.0172 -0.7152
 7639SOL    HW230328   1.522   0.899   6.417  1.1052  1.1816  0.8222
 7639SOL    HW330329   1.417   0.975   6.338 -0.0780 -1.9105 -0.7615
 7639SOL    MW430330   1.500   0.967   6.366  0.0706 -0.1088 -0.5185
 7640SOL     OW30331   3.565   1.555   2.495 -0.1379 -0.1056  0.0642
 7640SOL    HW230332   3.520   1.476   2.526  0.6612  0.1725  2.0675
 7640SOL    HW330333   3.515   1.583   2.418 -1.7204 -1.3380  0.6044
 7640SOL    MW430334   3.553   1.548   2.489 -0.2412 -0.2315  0.3998
 7641SOL     OW30335   5.131   6.070   1.777  0.2734  0.0190  0.5123
 7641SOL    HW230336   5.140   6.164   1.793 -3.5966  0.4628  1.0181
 7641SOL    HW330337   5.089   6.065   1.691 -0.2161 -1.1943  0.8114
 7641SOL    MW430338   5.127   6.082   1.768 -0.3018 -0.0825  0.6185
 7642SOL     OW30339   4.177   0.878   5.033 -0.0830 -0.0531 -0.3703
 7642SOL    HW230340   4.160   0.928   4.953  0.9212  0.0039 -0.5601
 7642SOL    HW330341   4.108   0.907   5.093 -0.0119  0.9652 -0.7425
 7642SOL    MW430342   4.166   0.889   5.030  0.0589  0.0887 -0.4444
 7643SOL     OW30343   0.797   2.230   5.433  0.3082  0.2891  0.5173
 7643SOL    HW230344   0.745   2.285   5.491  1.6301  1.1693  0.9317
 7643SOL    HW330345   0.734   2.188   5.375 -0.9420  0.3276  1.8102
 7643SOL    MW430346   0.782   2.231   5.433  0.3177  0.4103  0.7425
 7644SOL     OW30347   2.456   3.806   0.347  0.0830 -0.4634  0.2454
 7644SOL    HW230348   2.542   3.809   0.388  0.8954  0.8374 -1.3821
 7644SOL    HW330349   2.435   3.713   0.341  0.9207 -0.7610  1.5324
 7644SOL    MW430350   2.465   3.794   0.351  0.3007 -0.3310  0.2004
 7645SOL     OW30351   5.776   2.602   6.379  0.2560 -0.4801 -0.1169
 7645SOL    HW230352   5.726   2.566   6.305 -0.9590 -0.9691  0.9203
 7645SOL    HW330353   5.766   2.696   6.372  1.1690 -0.4368 -1.2587
 7645SOL    MW430354   5.768   2.609   6.368  0.2162 -0.5389 -0.1307
 7646SOL     OW30355   1.946   1.022   3.309 -0.0537  0.1152 -0.2883
 7646SOL    HW230356   1.853   1.041   3.301 -0.1475  0.5309  1.4719
 7646SOL    HW330357   1.954   0.973   3.391  1.2878  0.1261 -0.3848
 7646SOL    MW430358   1.935   1.018   3.319  0.1109  0.1715 -0.0688
 7647SOL     OW30359   1.215   5.101   1.387 -0.4619 -0.1439 -0.1114
 7647SOL    HW230360   1.161   5.055   1.450 -0.8418  1.1360  0.5153
 7647SOL    HW330361   1.168   5.093   1.304 -1.2474  0.3401  0.2836
 7647SOL    MW430362   1.202   5.094   1.384 -0.6157  0.0888  0.0234
 7648SOL     OW30363   4.993   4.299   4.825  0.6593 -0.6042  0.3706
 7648SOL    HW230364   5.024   4.375   4.776  1.4613  0.1393  1.9416
 7648SOL    HW330365   5.072   4.263   4.866 -0.0975 -0.5055  2.0028
 7648SOL    MW430366   5.007   4.304   4.824  0.6653 -0.4931  0.7932
 7649SOL     OW30367   5.185   5.871   1.967 -0.2397 -0.6012  0.0137
 7649SOL    HW230368   5.263   5.819   1.950  0.5575  0.0625  1.4418
 7649SOL    HW330369   5.161   5.908   1.882  0.9189 -0.9361 -0.4763
 7649SOL    MW430370   5.192   5.869   1.954  0.0183 -0.5579  0.1374
 7650SOL     OW30371   4.491   4.564   5.749 -0.1393 -0.0642  0.1569
 7650SOL    HW230372   4.495   4.469   5.755 -0.4077 -0.0544  0.5438
 7650SOL    HW330373   4.532   4.585   5.665 -1.5410 -0.6333 -0.6989
 7650SOL    MW430374   4.497   4.554   5.739 -0.3596 -0.1380  0.0950
 7651SOL     OW30375   4.321   3.747   5.032 -0.9188 -0.3781 -0.0717
 7651SOL    HW230376   4.361   3.661   5.044 -2.0305 -1.0733 -1.1867
 7651SOL    HW330377   4.393   3.809   5.048  0.4557 -1.5644 -1.3258
 7651SOL    MW430378   4.336   3.744   5.036 -0.8841 -0.6264 -0.3843
 7652SOL     OW30379   5.740   5.498   0.171  0.3269 -0.0588 -0.4149
 7652SOL    HW230380   5.786   5.435   0.115  1.3445  1.1677 -1.0089
 7652SOL    HW330381   5.744   5.460   0.259  1.8415 -0.3514 -0.5821
 7652SOL    MW430382   5.747   5.485   0.175  0.6610  0.0644 -0.5153
 7653SOL     OW30383   5.475   0.695   5.336  0.3886  0.2334 -0.6862
 7653SOL    HW230384   5.401   0.689   5.396  1.9579 -1.4164  1.2212
 7653SOL    HW330385   5.485   0.788   5.319  0.1715  0.8255  2.0571
 7653SOL    MW430386   5.467   0.706   5.341  0.5670  0.0938 -0.0726
 7654SOL     OW30387   6.155   4.124   2.364 -0.2211 -0.1047  0.0075
 7654SOL    HW230388   6.068   4.087   2.379  1.1193 -2.4695  3.2232
 7654SOL    HW330389   6.174   4.174   2.443  1.7156 -0.5448 -0.1223
 7654SOL    MW430390   6.146   4.126   2.377  0.2113 -0.4748  0.4147
 7655SOL     OW30391   3.049   1.004   6.001 -0.3303  0.3609  0.2869
 7655SOL    HW230392   3.123   0.964   5.956  0.0548  1.2124  0.1476
 7655SOL    HW330393   3.033   1.085   5.953 -0.8921  0.5323  0.7560
 7655SOL    MW430394   3.056   1.010   5.989 -0.3536  0.4959  0.3304
 7656SOL     OW30395   3.131   1.341   0.194 -0.4950 -0.3685 -0.4133
 7656SOL    HW230396   3.148   1.307   0.282 -1.3819 -1.7278 -0.7327
 7656SOL    HW330397   3.217   1.364   0.160 -0.0984 -0.2422  0.6477
 7656SOL    MW430398   3.145   1.339   0.201 -0.5597 -0.5312 -0.3155
 7657SOL     OW30399   4.904   3.126   6.131  0.1524 -0.1059  0.5829
 7657SOL    HW230400   4.941   3.163   6.051 -1.3659  1.4392  0.5503
 7657SOL    HW330401   4.979   3.119   6.191  0.8351  1.1629 -0.0840
 7657SOL    MW430402   4.919   3.130   6.129  0.0421  0.2654  0.4906
 7658SOL     OW30403   0.726   3.426   1.128 -0.4164  0.3618 -0.1608
 7658SOL    HW230404   0.818   3.405   1.142  0.6828  3.1506 -2.1699
 7658SOL    HW330405   0.712   3.507   1.178 -1.4730  0.5292 -0.6871
 7658SOL    MW430406   0.736   3.434   1.137 -0.4108  0.7518 -0.4953
 7659SOL     OW30407   4.117   3.067   0.596 -0.1974 -0.0278  0.4142
 7659SOL    HW230408   4.169   3.114   0.530 -0.7581  1.7262  1.1498
 7659SOL    HW330409   4.038   3.120   0.606 -1.2259 -1.5577  0.7784
 7659SOL    MW430410   4.113   3.080   0.588 -0.4071  0.0018  0.5593
 7660SOL     OW30411   1.589   4.373   0.294  0.5453  0.2354  0.4817
 7660SOL    HW230412   1.631   4.305   0.346  1.5111  1.1144  0.8770
 7660SOL    HW330413   1.496   4.367   0.316  0.8444  0.1212  1.7460
 7660SOL    MW430414   1.582   4.363   0.304  0.7122  0.3363  0.7007
 7661SOL     OW30415   3.480   6.043   3.038 -0.5092 -0.0537  0.0008
 7661SOL    HW230416   3.463   6.074   2.949  0.8853  1.9153  0.3494
 7661SOL    HW330417   3.480   6.122   3.091  1.6779 -0.8062  1.2479
 7661SOL    MW430418   3.478   6.057   3.033 -0.0366  0.1068  0.2113
 7662SOL     OW30419   0.999   4.733   1.397 -0.4156  0.0260 -0.2542
 7662SOL    HW230420   1.010   4.657   1.455  1.3939 -0.1426 -0.7643
 7662SOL    HW330421   1.034   4.806   1.448  0.5039 -0.0001 -0.8240
 7662SOL    MW430422   1.005   4.732   1.412 -0.0555  0.0003 -0.3967
 7663SOL     OW30423   1.144   3.906   5.754 -0.9393  0.5559  0.5165
 7663SOL    HW230424   1.208   3.919   5.825 -0.3358  0.6447 -0.0303
 7663SOL    HW330425   1.105   3.992   5.740 -2.3159  0.2030  1.8827
 7663SOL    MW430426   1.148   3.919   5.762 -1.0413  0.5211  0.6246
 7664SOL     OW30427   1.014   6.192   4.352 -0.0241 -0.2422 -0.0241
 7664SOL    HW230428   0.986   6.127   4.417 -2.7871  0.0603 -0.7832
 7664SOL    HW330429   1.041   6.140   4.276 -1.3689 -0.5554 -0.3075
 7664SOL    MW430430   1.014   6.176   4.350 -0.5661 -0.2436 -0.1616
 7665SOL     OW30431   3.543   5.418   1.023  0.3406  0.2279  0.3612
 7665SOL    HW230432   3.587   5.333   1.016 -0.5138 -0.1102 -1.5147
 7665SOL    HW330433   3.453   5.396   1.048  0.6474  0.7846  2.1559
 7665SOL    MW430434   3.537   5.404   1.026  0.2683  0.2568  0.3505
 7666SOL     OW30435   6.149   4.602   3.968 -0.2128 -0.5516  0.0767
 7666SOL    HW230436   6.091   4.668   4.005 -0.9022 -0.1014 -1.6914
 7666SOL    HW330437   6.207   4.651   3.909 -0.4151 -1.4221 -0.8852
 7666SOL    MW430438   6.149   4.617   3.965 -0.3304 -0.6070 -0.2835
 7667SOL     OW30439   2.644   0.605   2.565 -0.3585  0.3152 -0.7512
 7667SOL    HW230440   2.586   0.647   2.501 -0.2304 -1.3685 -2.0502
 7667SOL    HW330441   2.731   0.634   2.541 -0.4584  1.0268 -0.2600
 7667SOL    MW430442   2.648   0.614   2.553 -0.3548  0.1870 -0.8578
 7668SOL     OW30443   5.507   5.132   6.389 -0.9140 -0.1252  0.3496
 7668SOL    HW230444   5.478   5.078   6.316 -1.6436 -0.0446  0.5736
 7668SOL    HW330445   5.575   5.189   6.352 -0.3847 -0.9468  0.0340
 7668SOL    MW430446   5.512   5.132   6.375 -0.9404 -0.2230  0.3375
 7669SOL     OW30447   3.782   5.401   5.683 -0.0520  0.2813  0.4495
 7669SOL    HW230448   3.818   5.389   5.770  0.5943 -1.4808 -0.0128
 7669SOL    HW330449   3.720   5.328   5.673 -1.2897  1.3428 -0.0167
 7669SOL    MW430450   3.778   5.389   5.693 -0.1300  0.1889  0.3270
 7670SOL     OW30451   3.922   1.627   1.287  0.0378  0.2661  0.3363
 7670SOL    HW230452   3.977   1.554   1.259 -0.8132 -0.6347  0.9442
 7670SOL    HW330453   3.838   1.587   1.311 -0.6047  1.4968  0.2620
 7670SOL    MW430454   3.918   1.612   1.287 -0.1592  0.3096  0.4067
 7671SOL     OW30455   3.859   1.325   2.579 -0.6517 -0.0693 -0.0947
 7671SOL    HW230456   3.879   1.231   2.586 -0.9514 -0.2630 -1.4461
 7671SOL    HW330457   3.829   1.350   2.666  0.6056 -0.9466  0.6108
 7671SOL    MW430458   3.857   1.316   2.591 -0.5253 -0.2106 -0.1799
 7672SOL     OW30459   3.852   2.791   0.295  0.5523  0.5009 -0.5982
 7672SOL    HW230460   3.889   2.853   0.232  0.0723 -0.2127 -1.6069
 7672SOL    HW330461   3.911   2.716   0.292  0.9273  0.7354  0.3543
 7672SOL    MW430462   3.865   2.789   0.286  0.5385  0.4377 -0.6056
 7673SOL     OW30463   1.371   2.693   4.854  0.0012  0.0375  0.4626
 7673SOL    HW230464   1.425   2.763   4.816  1.2729 -1.1522  0.0146
 7673SOL    HW330465   1.343   2.640   4.779 -0.4512 -0.2921  0.8539
 7673SOL    MW430466   1.374   2.695   4.839  0.1093 -0.1630  0.4551
 7674SOL     OW30467   5.797   2.215   1.266 -0.3255  0.1462 -0.6137
 7674SOL    HW230468   5.724   2.248   1.319  0.4107  0.2234  0.3991
 7674SOL    HW330469   5.842   2.293   1.234  1.7890  0.2976  2.3027
 7674SOL    MW430470   5.793   2.230   1.269  0.0506  0.1764 -0.0953
 7675SOL     OW30471   5.286   1.632   2.597  0.5013 -0.3035 -0.3020
 7675SOL    HW230472   5.366   1.582   2.581  1.2941  0.7169  0.3500
 7675SOL    HW330473   5.265   1.615   2.689 -0.3453 -0.9940 -0.6139
 7675SOL    MW430474   5.293   1.623   2.607  0.4942 -0.2600 -0.2571
 7676SOL     OW30475   5.341   2.116   6.411  0.3694 -0.7350 -0.0830
 7676SOL    HW230476   5.362   2.209   6.425 -2.0671 -0.2110  0.5720
 7676SOL    HW330477   5.298   2.114   6.326  1.8061 -1.5766 -0.8397
 7676SOL    MW430478   5.339   2.128   6.402  0.2375 -0.7769 -0.0964
 7677SOL     OW30479   1.647   5.436   3.025  0.0713  0.0842  0.4247
 7677SOL    HW230480   1.734   5.395   3.028 -0.6370 -1.6421 -0.6377
 7677SOL    HW330481   1.658   5.511   2.966  0.6452 -0.7077 -0.5114
 7677SOL    MW430482   1.660   5.440   3.018  0.0535 -0.2480  0.1610
 7678SOL     OW30483   1.153   2.239   4.457 -0.2960 -0.1512 -0.1853
 7678SOL    HW230484   1.156   2.179   4.382 -1.1797  2.1624 -2.2169
 7678SOL    HW330485   1.062   2.235   4.487 -0.1043 -0.5565  0.3704
 7678SOL    MW430486   1.142   2.230   4.451 -0.3873  0.1006 -0.3800
 7679SOL     OW30487   5.998   4.935   0.628  0.0983 -0.0301  0.1895
 7679SOL    HW230488   5.945   4.869   0.585 -0.0500  0.7869 -0.9433
 7679SOL    HW330489   6.025   4.994   0.557 -0.0364  1.2927  1.1953
 7679SOL    MW430490   5.995   4.934   0.613  0.0610  0.2522  0.1727
 7680SOL     OW30491   1.366   3.603   1.721 -0.3214  0.3868 -0.2143
 7680SOL    HW230492   1.375   3.677   1.661  0.6058 -0.8746 -1.6846
 7680SOL    HW330493   1.272   3.585   1.722 -0.2783 -0.1284 -2.0341
 7680SOL    MW430494   1.354   3.610   1.713 -0.1934  0.1524 -0.6484
 7681SOL     OW30495   4.885   5.592   3.503  0.1849 -0.2774  0.5860
 7681SOL    HW230496   4.900   5.609   3.410 -1.5978 -1.3932  0.0548
 7681SOL    HW330497   4.868   5.498   3.508 -0.3296 -0.1287  1.9692
 7681SOL    MW430498   4.885   5.582   3.491 -0.1182 -0.4050  0.6984
 7682SOL     OW30499   3.126   1.493   1.570 -0.5831  0.9116  0.4211
 7682SOL    HW230500   3.173   1.418   1.607 -0.8209  0.9070  0.7198
 7682SOL    HW330501   3.056   1.510   1.633 -0.6339  1.2777  0.2652
 7682SOL    MW430502   3.123   1.485   1.583 -0.6212  0.9593  0.4399
 7683SOL     OW30503   2.413   4.907   0.639 -0.2129  0.0023 -0.4585
 7683SOL    HW230504   2.502   4.873   0.626 -0.3463 -0.4244 -0.2760
 7683SOL    HW330505   2.409   4.930   0.732  0.6777  2.8649 -1.0202
 7683SOL    MW430506   2.424   4.906   0.650 -0.1130  0.3237 -0.5085
 7684SOL     OW30507   4.282   1.739   0.237 -0.1934  0.0751 -0.0449
 7684SOL    HW230508   4.250   1.806   0.177 -0.3087  0.5515  0.5507
 7684SOL    HW330509   4.209   1.677   0.245 -0.2932  0.1812 -0.1333
 7684SOL    MW430510   4.268   1.740   0.230 -0.2217  0.1519  0.0220
 7685SOL     OW30511   4.715   5.574   5.692  0.3187  1.0540 -0.2572
 7685SOL    HW230512   4.739   5.611   5.607  0.6151  1.7798  0.1393
 7685SOL    HW330513   4.671   5.645   5.738 -1.5974  0.1081 -0.5167
 7685SOL    MW430514   4.712   5.588   5.687  0.1050  1.0250 -0.2391
 7686SOL     OW30515   2.680   2.469   4.161 -0.0061 -0.1625  0.3587
 7686SOL    HW230516   2.631   2.411   4.219 -0.3120  0.3314  0.6110
 7686SOL    HW330517   2.716   2.412   4.093  1.1769 -0.9092  1.5675
 7686SOL    MW430518   2.679   2.454   4.160  0.1096 -0.1958  0.5515
 7687SOL     OW30519   4.463   2.052   2.784 -0.4085 -0.2661  0.4739
 7687SOL    HW230520   4.397   2.024   2.721 -0.1632 -0.8725  0.4764
 7687SOL    HW330521   4.450   1.994   2.860 -1.5289  1.2596  1.5131
 7687SOL    MW430522   4.453   2.040   2.786 -0.5240 -0.1448  0.6113
 7688SOL     OW30523   3.145   4.023   3.702  0.3279  0.1796  0.7641
 7688SOL    HW230524   3.061   3.980   3.717 -0.1158  0.3603 -1.0605
 7688SOL    HW330525   3.209   3.965   3.742 -0.4358 -1.2800 -0.0614
 7688SOL    MW430526   3.142   4.010   3.709  0.1686  0.0108  0.4145
 7689SOL     OW30527   5.712   5.434   0.477  0.7675 -0.6785  0.2503
 7689SOL    HW230528   5.761   5.355   0.501  1.8359 -0.3693 -0.7937
 7689SOL    HW330529   5.763   5.505   0.515 -0.0460 -0.4537  0.9524
 7689SOL    MW430530   5.726   5.433   0.486  0.8011 -0.6081  0.2052
 7690SOL     OW30531   5.670   3.672   2.006 -0.5825  0.1684 -0.0693
 7690SOL    HW230532   5.662   3.593   2.060 -2.1025  0.2597 -0.1201
 7690SOL    HW330533   5.740   3.650   1.943  0.3876 -0.3713  1.1468
 7690SOL    MW430534   5.678   3.658   2.005 -0.6551  0.1092  0.0845
 7691SOL     OW30535   0.994   6.293   2.870 -0.6487 -0.3589 -0.3090
 7691SOL    HW230536   1.074   6.345   2.882 -0.5481 -0.6410  0.2646
 7691SOL    HW330537   0.945   6.341   2.803 -0.4594  0.3682  0.0527
 7691SOL    MW430538   0.998   6.306   2.863 -0.6105 -0.3002 -0.1856
 7692SOL     OW30539   3.802   2.751   2.959  0.0182  0.2090  0.3848
 7692SOL    HW230540   3.735   2.810   2.923  0.8858  1.4064  0.6478
 7692SOL    HW330541   3.770   2.663   2.939 -1.9776  0.7151  1.1202
 7692SOL    MW430542   3.789   2.747   2.951 -0.1307  0.4337  0.5165
 7693SOL     OW30543   4.698   5.725   2.700  0.0556  0.2400  0.1524
 7693SOL    HW230544   4.623   5.717   2.759  0.1215 -0.2833  0.1620
 7693SOL    HW330545   4.676   5.801   2.645  0.2623  1.1163  1.2282
 7693SOL    MW430546   4.685   5.734   2.700  0.0916  0.2866  0.2956
 7694SOL     OW30547   3.732   1.308   4.614 -0.3961 -0.6310  0.2447
 7694SOL    HW230548   3.710   1.221   4.583  1.4702 -1.2927  0.6976
 7694SOL    HW330549   3.824   1.303   4.639 -0.1531  1.5415  0.0187
 7694SOL    MW430550   3.741   1.296   4.613 -0.1178 -0.4316  0.2746
 7695SOL     OW30551   5.583   0.276   1.610  0.0357  0.1139  0.0194
 7695SOL    HW230552   5.545   0.206   1.663 -0.5395  0.2372 -0.2274
 7695SOL    HW330553   5.566   0.356   1.660  0.4034  0.1154  0.1436
 7695SOL    MW430554   5.576   0.278   1.624  0.0083  0.1304  0.0032
 7696SOL     OW30555   1.075   1.159   6.068 -0.0518  0.0353 -0.2091
 7696SOL    HW230556   1.068   1.253   6.080 -2.0108  0.1277 -1.6737
 7696SOL    HW330557   1.154   1.147   6.015 -0.6295  0.9875 -1.3003
 7696SOL    MW430558   1.085   1.170   6.063 -0.3865  0.1731 -0.5463
 7697SOL     OW30559   1.697   2.482   2.032 -0.2022  0.6428 -0.0175
 7697SOL    HW230560   1.688   2.408   2.092  2.2374  0.5645  0.3188
 7697SOL    HW330561   1.708   2.442   1.945 -0.2217  0.6699 -0.0327
 7697SOL    MW430562   1.697   2.467   2.028  0.1171  0.6361  0.0248
 7698SOL     OW30563   6.179   1.262   0.687 -0.0897 -0.6656 -0.0090
 7698SOL    HW230564   6.250   1.257   0.751 -0.5265  0.3118  0.5549
 7698SOL    HW330565   6.131   1.180   0.698 -0.8994 -0.0012  1.8031
 7698SOL    MW430566   6.182   1.250   0.697 -0.2542 -0.4490  0.3045
 7699SOL     OW30567   3.004   2.130   1.590  0.4043 -0.1288  0.1577
 7699SOL    HW230568   3.035   2.146   1.501  0.1060  1.6010  0.3333
 7699SOL    HW330569   2.908   2.129   1.583  0.3831 -1.4789  0.2530
 7699SOL    MW430570   2.995   2.132   1.578  0.3621 -0.0787  0.1935
 7700SOL     OW30571   3.091   2.887   0.860  0.0111  0.1055  0.3233
 7700SOL    HW230572   3.037   2.815   0.828  0.2353 -0.1906  0.6099
 7700SOL    HW330573   3.043   2.920   0.937 -1.1625  1.5979 -0.9648
 7700SOL    MW430574   3.077   2.882   0.866 -0.1141  0.2634  0.1912
 7701SOL     OW30575   6.413   4.394   1.732 -0.3679  0.1912  0.0265
 7701SOL    HW230576   6.423   4.439   1.648  3.0741 -1.6072 -0.6856
 7701SOL    HW330577   6.353   4.322   1.714  0.9689 -0.6744 -1.2062
 7701SOL    MW430578   6.406   4.391   1.718  0.2626 -0.1603 -0.2301
 7702SOL     OW30579   0.637   2.636   3.421  0.5565 -0.6294 -0.3566
 7702SOL    HW230580   0.657   2.547   3.394  0.3475 -0.8756  0.2804
 7702SOL    HW330581   0.722   2.674   3.444  0.5157 -1.1093  0.6666
 7702SOL    MW430582   0.651   2.630   3.421  0.5236 -0.7252 -0.1376
 7703SOL     OW30583   1.585   3.588   2.875 -0.2066 -0.1452  0.6086
 7703SOL    HW230584   1.525   3.518   2.901  0.7283 -1.4243 -0.5559
 7703SOL    HW330585   1.603   3.635   2.957 -4.3532  1.6535  0.7173
 7703SOL    MW430586   1.579   3.585   2.889 -0.6304 -0.0767  0.4693
 7704SOL     OW30587   0.600   3.598   3.734 -0.2850  0.0769  0.7112
 7704SOL    HW230588   0.626   3.529   3.672 -0.5031 -0.1996  0.9281
 7704SOL    HW330589   0.653   3.674   3.708 -0.9051  0.1859 -0.2739
 7704SOL    MW430590   0.611   3.599   3.722 -0.3956  0.0548  0.6098
 7705SOL     OW30591   4.047   0.887   0.977  0.1839  0.0352  0.0399
 7705SOL    HW230592   4.088   0.972   0.993  1.9706 -0.2895 -2.2288
 7705SOL    HW330593   3.956   0.908   0.955 -0.0999  1.0857  1.9868
 7705SOL    MW430594   4.040   0.901   0.976  0.3822  0.1310 -0.0025
 7706SOL     OW30595   3.513   4.757   4.815 -0.3769  0.1699  0.3518
 7706SOL    HW230596   3.454   4.823   4.778 -1.5873 -1.8032 -1.4140
 7706SOL    HW330597   3.598   4.776   4.775 -0.1844  1.8875  1.4788
 7706SOL    MW430598   3.517   4.769   4.805 -0.5112  0.1362  0.2675
 7707SOL     OW30599   3.599   4.485   3.951  0.2551 -0.3230 -0.3242
 7707SOL    HW230600   3.614   4.408   3.896  2.7846  0.9108 -1.5193
 7707SOL    HW330601   3.544   4.542   3.897  2.4975  0.7626 -1.5737
 7707SOL    MW430602   3.594   4.482   3.937  0.8847 -0.0170 -0.6467
 7708SOL     OW30603   0.848   0.374   1.383 -0.4627 -0.5892  0.0488
 7708SOL    HW230604   0.907   0.386   1.458  0.6057 -1.1342 -0.6779
 7708SOL    HW330605   0.886   0.427   1.314 -0.7333 -1.0768 -0.4822
 7708SOL    MW430606   0.861   0.383   1.384 -0.3575 -0.7254 -0.1171
 7709SOL     OW30607   3.997   1.892   2.656  0.0866  0.0650  0.1261
 7709SOL    HW230608   3.970   1.811   2.612 -1.4525  0.7898 -0.3120
 7709SOL    HW330609   3.960   1.885   2.743 -0.2900  0.4191 -0.0039
 7709SOL    MW430610   3.988   1.880   2.661 -0.1662  0.2073  0.0511
 7710SOL     OW30611   4.526   2.789   3.394 -0.3097 -0.6050 -0.3907
 7710SOL    HW230612   4.479   2.750   3.321 -1.2015 -0.2899  0.0091
 7710SOL    HW330613   4.549   2.715   3.451 -1.2729 -0.6551 -0.0487
 7710SOL    MW430614   4.523   2.774   3.392 -0.5545 -0.5700 -0.2929
 7711SOL     OW30615   2.095   2.588   2.858  0.4704  0.0845 -0.2164
 7711SOL    HW230616   2.054   2.640   2.928 -0.3856 -0.9489  0.0813
 7711SOL    HW330617   2.122   2.653   2.793 -1.4495  0.8667 -0.3111
 7711SOL    MW430618   2.093   2.604   2.859  0.1041  0.0513 -0.1896
 7712SOL     OW30619   1.770   6.383   1.097 -0.1924 -1.0940 -0.0187
 7712SOL    HW230620   1.709   6.327   1.049 -3.1866  1.4407  0.4934
 7712SOL    HW330621   1.783   6.459   1.039 -1.3485  0.5498  1.7580
 7712SOL    MW430622   1.763   6.386   1.083 -0.7400 -0.5427  0.2833
 7713SOL     OW30623   0.062   6.441   4.015 -0.6195 -0.1090 -0.0538
 7713SOL    HW230624   0.151   6.406   4.011 -0.9234 -1.1162  1.3906
 7713SOL    HW330625   0.073   6.530   4.047  0.1275  1.1899 -3.4224
 7713SOL    MW430626   0.075   6.448   4.018 -0.5611 -0.0705 -0.3077
 7714SOL     OW30627   2.845   3.311   5.487  0.0184  0.2419 -0.6033
 7714SOL    HW230628   2.862   3.218   5.471  0.3035  0.3151 -0.7149
 7714SOL    HW330629   2.927   3.355   5.468 -0.0625  0.4983 -0.3663
 7714SOL    MW430630   2.858   3.304   5.482  0.0453  0.2854 -0.5868
 7715SOL     OW30631   5.529   2.723   4.229  0.2077 -0.0552 -0.0268
 7715SOL    HW230632   5.557   2.674   4.306  0.8574 -0.9892 -0.8300
 7715SOL    HW330633   5.435   2.706   4.224 -0.7143  3.1444  2.7081
 7715SOL    MW430634   5.520   2.714   4.238  0.1718  0.2437  0.2281
 7716SOL     OW30635   0.550   3.209   1.147  0.0761 -0.1640 -0.4462
 7716SOL    HW230636   0.599   3.133   1.180  0.5837  0.7127  0.9339
 7716SOL    HW330637   0.617   3.276   1.133 -0.6065  0.8105  0.7530
 7716SOL    MW430638   0.566   3.207   1.150  0.0530  0.0802 -0.1059
 7717SOL     OW30639   1.160   0.651   4.151 -0.1809  0.0677  0.1595
 7717SOL    HW230640   1.249   0.631   4.180 -0.1910  0.9272  0.8122
 7717SOL    HW330641   1.121   0.566   4.133  1.2037 -0.2858 -1.4663
 7717SOL    MW430642   1.167   0.638   4.152  0.0004  0.1345  0.0311
 7718SOL     OW30643   0.990   4.275   2.631 -0.5434 -0.2038 -0.2479
 7718SOL    HW230644   0.961   4.250   2.542  0.9958 -3.6659  0.0417
 7718SOL    HW330645   0.917   4.248   2.687 -0.6092 -0.0782 -0.2724
 7718SOL    MW430646   0.976   4.268   2.626 -0.3490 -0.6440 -0.2129
 7719SOL     OW30647   0.619   3.195   2.049  0.2162  0.2862 -0.7607
 7719SOL    HW230648   0.566   3.217   1.972  0.3974  1.3333 -0.6027
 7719SOL    HW330649   0.685   3.134   2.015 -0.1016  0.2252 -1.2920
 7719SOL    MW430650   0.621   3.190   2.034  0.1982  0.4163 -0.8099
 7720SOL     OW30651   0.690   0.166   1.949 -0.3766 -0.8811  0.0921
 7720SOL    HW230652   0.694   0.256   1.917 -0.0425 -0.9811 -0.1575
 7720SOL    HW330653   0.779   0.132   1.938 -0.5488 -1.3107 -0.0215
 7720SOL    MW430654   0.702   0.173   1.943 -0.3552 -0.9510  0.0442
 7721SOL     OW30655   6.334   1.161   0.050  0.4436  0.3154 -0.5137
 7721SOL    HW230656   6.317   1.080   0.000 -0.6502  0.7207 -0.8263
 7721SOL    HW330657   6.247   1.194   0.072  0.8898  1.2660 -0.1414
 7721SOL    MW430658   6.320   1.154   0.046  0.3582  0.4943 -0.5059
 7722SOL     OW30659   5.394   3.579   1.546 -0.0769 -0.7185 -0.1998
 7722SOL    HW230660   5.423   3.611   1.631 -2.1416  0.0651  0.2612
 7722SOL    HW330661   5.408   3.484   1.550 -0.8923 -0.7863  1.3227
 7722SOL    MW430662   5.400   3.570   1.558 -0.4569 -0.6240  0.0619
 7723SOL     OW30663   4.072   1.862   5.663 -0.2424  0.8162 -0.4193
 7723SOL    HW230664   4.000   1.799   5.662  1.6073 -1.4924 -2.1117
 7723SOL    HW330665   4.118   1.844   5.745  0.5109 -0.4210 -1.0787
 7723SOL    MW430666   4.069   1.851   5.674  0.1011  0.3484 -0.7296
 7724SOL     OW30667   1.725   4.590   0.577  0.2317 -0.2594  0.3068
 7724SOL    HW230668   1.650   4.631   0.620  0.5461 -0.1777  0.7856
 7724SOL    HW330669   1.800   4.641   0.607  0.6525 -1.2965  1.0765
 7724SOL    MW430670   1.725   4.602   0.587  0.3287 -0.3854  0.4715
 7725SOL     OW30671   0.361   5.768   1.693 -0.3356 -0.4567  0.3033
 7725SOL    HW230672   0.394   5.743   1.779  0.8471 -1.1665 -0.3195
 7725SOL    HW330673   0.273   5.730   1.689  0.4456 -2.3731  0.3722
 7725SOL    MW430674   0.354   5.760   1.704 -0.0765 -0.8032  0.2302
 7726SOL     OW30675   0.593   0.058   3.855 -0.5677 -0.1227 -0.3038
 7726SOL    HW230676   0.515   0.004   3.854 -0.4093 -0.3524 -0.3415
 7726SOL    HW330677   0.660   0.004   3.897 -0.2138 -0.2327 -0.9945
 7726SOL    MW430678   0.592   0.044   3.860 -0.5001 -0.1675 -0.3999
 7727SOL     OW30679   2.036   4.717   2.907 -0.2767 -0.0786 -0.5422
 7727SOL    HW230680   1.978   4.759   2.844 -0.7249  0.1793  0.0233
 7727SOL    HW330681   2.089   4.789   2.942 -1.2768  0.1029  0.6746
 7727SOL    MW430682   2.035   4.732   2.904 -0.4678 -0.0206 -0.3070
 7728SOL     OW30683   1.477   6.263   2.419  0.3898  0.1891  0.5200
 7728SOL    HW230684   1.451   6.291   2.506 -0.5742 -2.0762  1.0252
 7728SOL    HW330685   1.573   6.270   2.419  0.2850  1.9455  1.0789
 7728SOL    MW430686   1.486   6.268   2.430  0.2488  0.1220  0.6604
 7729SOL     OW30687  -0.003   3.864   3.926 -0.0392  0.2637 -0.4088
 7729SOL    HW230688  -0.032   3.823   3.845  1.2188 -0.0206 -0.7380
 7729SOL    HW330689   0.066   3.925   3.899  1.2575 -0.7186  0.5396
 7729SOL    MW430690   0.002   3.867   3.912  0.2978  0.0966 -0.3271
 7730SOL     OW30691   3.082   6.056   0.286  0.3341  0.0200 -0.0901
 7730SOL    HW230692   3.046   5.973   0.317 -0.3982  0.0236 -0.8691
 7730SOL    HW330693   3.028   6.123   0.328 -0.8367  0.0195 -1.4904
 7730SOL    MW430694   3.070   6.054   0.295  0.0830  0.0204 -0.3776
 7731SOL     OW30695   6.195   5.613   5.538  0.3294  0.1047 -0.2854
 7731SOL    HW230696   6.174   5.520   5.530  0.9263  0.0169 -0.9333
 7731SOL    HW330697   6.256   5.630   5.466 -0.5644  1.2360 -0.8175
 7731SOL    MW430698   6.200   5.603   5.527  0.2902  0.2424 -0.4411
 7732SOL     OW30699   0.848   0.772   3.922 -0.4504 -0.3545  0.4812
 7732SOL    HW230700   0.937   0.775   3.887  0.5403 -1.7807  2.6645
 7732SOL    HW330701   0.839   0.683   3.956 -3.1023 -0.5789 -0.5226
 7732SOL    MW430702   0.858   0.760   3.922 -0.6696 -0.5723  0.6368
 7733SOL     OW30703   0.329   4.199   4.824  0.1151 -0.3886 -0.1943
 7733SOL    HW230704   0.292   4.180   4.738  0.7729  2.6765 -1.2757
 7733SOL    HW330705   0.284   4.279   4.852  0.3117 -1.0107  2.1056
 7733SOL    MW430706   0.318   4.207   4.817  0.2279 -0.0663 -0.0335
 7734SOL     OW30707   6.131   2.821   4.662  0.1118 -0.0143 -0.3791
 7734SOL    HW230708   6.131   2.858   4.574 -2.7615 -0.4167 -0.6517
 7734SOL    HW330709   6.084   2.885   4.716  0.3084 -0.5668  0.4806
 7734SOL    MW430710   6.125   2.834   4.658 -0.2413 -0.1403 -0.3017
 7735SOL     OW30711   1.225   0.999   5.305  0.6255 -0.1657  0.2454
 7735SOL    HW230712   1.131   1.014   5.289  0.5959  0.5188  0.9956
 7735SOL    HW330713   1.243   0.915   5.264 -0.8351 -1.4029  2.0070
 7735SOL    MW430714   1.215   0.990   5.297  0.4289 -0.2386  0.5768
 7736SOL     OW30715   2.322   0.769   1.054  0.1690  0.2502  0.8138
 7736SOL    HW230716   2.228   0.788   1.060 -0.1219 -0.4821 -0.8989
 7736SOL    HW330717   2.333   0.688   1.103 -0.6137 -1.0997 -1.1280
 7736SOL    MW430718   2.311   0.761   1.062  0.0273 -0.0245  0.3317
 7737SOL     OW30719   4.728   4.569   2.142  0.2178  0.2177 -0.0532
 7737SOL    HW230720   4.713   4.476   2.158 -0.1530 -0.2801 -2.7632
 7737SOL    HW330721   4.672   4.590   2.067 -0.5404  2.9354  1.1539
 7737SOL    MW430722   4.719   4.560   2.134  0.0688  0.5106 -0.2515
 7738SOL     OW30723   2.509   2.299   1.658 -0.0292  0.2023  0.6782
 7738SOL    HW230724   2.422   2.335   1.642 -0.3927 -1.5080 -1.8857
 7738SOL    HW330725   2.563   2.334   1.587  0.9068 -0.1806  1.1815
 7738SOL    MW430726   2.504   2.308   1.646  0.0463 -0.0739  0.4063
 7739SOL     OW30727   2.850   4.164   1.220 -0.0464  0.0127 -0.0083
 7739SOL    HW230728   2.756   4.173   1.202 -0.0957  0.5249  0.4798
 7739SOL    HW330729   2.883   4.114   1.146 -1.1795 -2.6923  1.1655
 7739SOL    MW430730   2.842   4.159   1.208 -0.2024 -0.2766  0.2109
 7740SOL     OW30731   3.703   0.428   5.088  0.0118 -0.4963 -0.8196
 7740SOL    HW230732   3.723   0.414   4.996  0.7754 -1.7511 -0.4889
 7740SOL    HW330733   3.747   0.356   5.134  0.9796  0.9575  0.6770
 7740SOL    MW430734   3.712   0.416   5.082  0.2403 -0.4701 -0.5785
 7741SOL     OW30735   3.187   1.192   2.010 -0.0848  0.3287 -0.4351
 7741SOL    HW230736   3.234   1.174   2.092 -1.9318 -2.2362  0.1732
 7741SOL    HW330737   3.256   1.210   1.946  1.8240 -3.1796  0.4286
 7741SOL    MW430738   3.202   1.192   2.012 -0.0766 -0.4726 -0.2409
 7742SOL     OW30739   5.966   2.418   4.545  1.0612  0.0080  0.1316
 7742SOL    HW230740   6.033   2.445   4.482 -0.3663  0.9789 -1.0319
 7742SOL    HW330741   5.934   2.501   4.582 -2.9298  0.1085 -2.9766
 7742SOL    MW430742   5.971   2.433   4.542  0.3463  0.1494 -0.4320
 7743SOL     OW30743   2.001   1.146   2.816  0.4521 -0.0825  0.2816
 7743SOL    HW230744   1.963   1.155   2.729 -0.5225  2.9043  0.9109
 7743SOL    HW330745   1.927   1.158   2.876  1.3011 -0.9263  1.5565
 7743SOL    MW430746   1.986   1.149   2.813  0.4356  0.2003  0.5328
 7744SOL     OW30747   4.970   4.940   2.783  0.6037  0.3042  0.0179
 7744SOL    HW230748   5.013   5.019   2.752 -4.0016  3.1767  0.0584
 7744SOL    HW330749   4.963   4.952   2.878  1.6001 -1.2079  0.3147
 7744SOL    MW430750   4.975   4.952   2.792  0.1275  0.4837  0.0624
 7745SOL     OW30751   5.075   5.670   4.848 -0.0412  0.0201 -0.8264
 7745SOL    HW230752   5.135   5.632   4.913 -0.7008  1.6158  0.7985
 7745SOL    HW330753   4.998   5.613   4.850 -0.0983  0.1165 -0.1271
 7745SOL    MW430754   5.073   5.657   4.857 -0.1358  0.2433 -0.5197
 7746SOL     OW30755   2.586   2.764   3.877  0.1907  0.2714 -0.2355
 7746SOL    HW230756   2.574   2.671   3.858  1.7545  0.2196 -1.1481
 7746SOL    HW330757   2.574   2.772   3.971 -2.6403 -0.3686 -0.4567
 7746SOL    MW430758   2.583   2.753   3.887  0.0235  0.1802 -0.3851
 7747SOL     OW30759   0.533   6.409   0.081  0.3661 -0.2319 -0.3204
 7747SOL    HW230760   0.514   6.502   0.090  0.8635 -0.1393 -0.1927
 7747SOL    HW330761   0.517   6.389  -0.011  0.3164 -0.0064 -0.3606
 7747SOL    MW430762   0.529   6.419   0.070  0.4251 -0.1899 -0.3088
 7748SOL     OW30763   0.187   1.466   2.432 -0.0243  0.2157  0.0732
 7748SOL    HW230764   0.254   1.508   2.378 -1.0022 -0.2954 -1.6133
 7748SOL    HW330765   0.178   1.378   2.394 -2.3154  0.5935 -0.3704
 7748SOL    MW430766   0.195   1.460   2.420 -0.4556  0.1981 -0.2079
 7749SOL     OW30767   3.726   0.806   0.128  0.3091  0.3630 -0.0467
 7749SOL    HW230768   3.745   0.885   0.179 -0.6976 -0.5472  1.8592
 7749SOL    HW330769   3.648   0.829   0.077  0.1871  0.7050  0.2840
 7749SOL    MW430770   3.718   0.820   0.128  0.1602  0.2880  0.2484
 7750SOL     OW30771   3.179   2.745   3.268 -0.2259  0.1403 -0.7855
 7750SOL    HW230772   3.126   2.825   3.275 -0.9280 -0.3975  0.5044
 7750SOL    HW330773   3.135   2.683   3.327  1.3775 -0.5867 -0.3104
 7750SOL    MW430774   3.166   2.747   3.277 -0.1070 -0.0266 -0.5526
 7751SOL     OW30775   0.697   3.444   3.515  0.1208 -0.6400  0.1945
 7751SOL    HW230776   0.671   3.355   3.490 -2.5080  0.2971 -0.7933
 7751SOL    HW330777   0.710   3.489   3.431  1.0907  0.0281  0.6849
 7751SOL    MW430778   0.695   3.438   3.500 -0.0981 -0.4282  0.1289
 7752SOL     OW30779   5.406   6.231   5.239  0.3053 -0.3275  0.1966
 7752SOL    HW230780   5.440   6.144   5.261 -0.0286 -0.6762 -0.6352
 7752SOL    HW330781   5.450   6.254   5.158  0.0850  0.1038  0.1973
 7752SOL    MW430782   5.416   6.222   5.231  0.2322 -0.3166  0.0870
 7753SOL     OW30783   0.398   2.634   0.715 -0.1674  0.0281 -0.2014
 7753SOL    HW230784   0.379   2.543   0.691  2.0533 -0.4376 -0.3949
 7753SOL    HW330785   0.409   2.679   0.631 -0.8159  0.3844 -0.1001
 7753SOL    MW430786   0.397   2.628   0.701  0.0400  0.0137 -0.2136
 7754SOL     OW30787   1.867   5.429   4.550 -0.6100 -0.3139 -0.3488
 7754SOL    HW230788   1.935   5.371   4.584 -1.0907 -0.6024  0.1175
 7754SOL    HW330789   1.841   5.483   4.624 -1.1787 -0.4809 -0.4200
 7754SOL    MW430790   1.873   5.429   4.564 -0.7485 -0.3740 -0.2967
 7755SOL     OW30791   0.097   3.944   5.569 -0.1817  0.0903  0.3270
 7755SOL    HW230792   0.061   3.862   5.537 -3.4310  1.2376  0.6765
 7755SOL    HW330793   0.026   4.007   5.559  1.8428  2.6575  0.9940
 7755SOL    MW430794   0.083   3.942   5.564 -0.3433  0.5803  0.4611
 7756SOL     OW30795   4.089   5.492   5.790  0.1623 -0.1115  0.1772
 7756SOL    HW230796   4.037   5.562   5.751 -0.8951 -0.2199  1.3058
 7756SOL    HW330797   4.149   5.537   5.850 -0.2329 -0.1259  0.5921
 7756SOL    MW430798   4.090   5.507   5.793 -0.0294 -0.1277  0.3808
 7757SOL     OW30799   1.026   2.451   6.158  0.3646  0.5809 -0.2394
 7757SOL    HW230800   1.058   2.521   6.101  0.4817  1.1726  0.5377
 7757SOL    HW330801   1.097   2.438   6.222  0.3570 -0.2683 -0.3872
 7757SOL    MW430802   1.040   2.458   6.159  0.3791  0.5469 -0.1563
 7758SOL     OW30803   3.876   0.960   1.731  0.0925 -0.3241 -0.1910
 7758SOL    HW230804   3.802   0.993   1.782 -0.9878 -1.2367 -1.0810
 7758SOL    HW330805   3.939   1.031   1.730 -1.0947  0.7697 -0.0059
 7758SOL    MW430806   3.874   0.973   1.738 -0.2066 -0.3002 -0.2840
 7759SOL     OW30807   4.435   6.058   4.484 -0.5611 -0.0411 -0.0022
 7759SOL    HW230808   4.390   6.039   4.402  0.5029 -2.9710 -0.0177
 7759SOL    HW330809   4.436   5.975   4.531  0.9222  0.9983  1.9608
 7759SOL    MW430810   4.429   6.045   4.479 -0.2250 -0.2905  0.2548
 7760SOL     OW30811   6.374   3.231   4.029  0.0109  0.2197 -0.0654
 7760SOL    HW230812   6.422   3.271   3.956 -3.0758  0.3469 -2.1972
 7760SOL    HW330813   6.324   3.160   3.989 -1.3180 -0.1118  2.0371
 7760SOL    MW430814   6.374   3.227   4.014 -0.5717  0.1927 -0.0692
 7761SOL     OW30815   2.378   3.195   5.486 -0.4115  0.6652  0.4987
 7761SOL    HW230816   2.310   3.129   5.471 -0.3440  0.3868  1.3600
 7761SOL    HW330817   2.337   3.278   5.462 -0.4725  0.3168 -0.6774
 7761SOL    MW430818   2.363   3.197   5.480 -0.4106  0.5825  0.4572
 7762SOL     OW30819   6.410   2.765   1.036 -0.7578  0.4383  0.6582
 7762SOL    HW230820   6.428   2.832   0.969 -0.4220  0.1806  0.4895
 7762SOL    HW330821   6.453   2.799   1.114  3.4253 -1.6209 -0.4418
 7762SOL    MW430822   6.418   2.779   1.037 -0.1616  0.1326  0.4908
 7763SOL     OW30823   4.374   4.200   0.552  0.1116  0.1796 -0.1145
 7763SOL    HW230824   4.288   4.230   0.524  0.0122 -0.5674 -0.6400
 7763SOL    HW330825   4.377   4.219   0.645  0.3312  2.4528 -0.5234
 7763SOL    MW430826   4.363   4.207   0.560  0.1275  0.3809 -0.2378
 7764SOL     OW30827   2.067   3.955   5.259 -0.5974  0.0813  0.2134
 7764SOL    HW230828   2.116   4.008   5.321  2.6380  1.9076 -3.4512
 7764SOL    HW330829   1.985   4.002   5.246 -0.2574  0.9888  1.2196
 7764SOL    MW430830   2.063   3.968   5.265 -0.1257  0.4420 -0.1373
 7765SOL     OW30831   5.376   4.109   3.050 -0.6636 -0.0470 -0.3494
 7765SOL    HW230832   5.433   4.089   2.975 -0.2510 -1.1291  0.2455
 7765SOL    HW330833   5.365   4.026   3.096  1.8850  1.1275  2.7588
 7765SOL    MW430834   5.382   4.096   3.046 -0.2729 -0.0348  0.1392
 7766SOL     OW30835   4.326   0.621   1.823  0.4976  0.3159  0.0850
 7766SOL    HW230836   4.329   0.712   1.853 -0.4202 -0.6721  3.6073
 7766SOL    HW330837   4.294   0.627   1.733  0.3425  3.4678  0.2315
 7766SOL    MW430838   4.322   0.634   1.815  0.3560  0.6014  0.5691
 7767SOL     OW30839   3.150   4.210   2.280  0.4310 -0.2558 -0.1077
 7767SOL    HW230840   3.067   4.168   2.260 -0.3794  1.4997 -0.6132
 7767SOL    HW330841   3.193   4.151   2.342 -0.9911 -1.4063 -0.1868
 7767SOL    MW430842   3.145   4.197   2.286  0.1365 -0.1760 -0.1849
 7768SOL     OW30843   4.903   0.244   2.786 -0.0078  0.0676 -0.4345
 7768SOL    HW230844   4.970   0.192   2.829 -1.3761  0.3946  2.3239
 7768SOL    HW330845   4.880   0.312   2.850 -1.2401  1.4595 -2.2460
 7768SOL    MW430846   4.909   0.246   2.800 -0.3509  0.2944 -0.3096
 7769SOL     OW30847   6.134   0.134   1.510  0.3612 -0.2421  0.6245
 7769SOL    HW230848   6.220   0.171   1.532  1.0653 -0.4616 -1.5122
 7769SOL    HW330849   6.155   0.050   1.468 -0.9175 -0.4800  0.4396
 7769SOL    MW430850   6.148   0.128   1.507  0.2854 -0.3024  0.3182
 7770SOL     OW30851   1.304   4.092   4.695 -0.3096  0.3265  0.0927
 7770SOL    HW230852   1.257   4.173   4.677 -1.1907 -0.1674  0.0940
 7770SOL    HW330853   1.326   4.057   4.608 -2.1456 -0.6758 -0.0183
 7770SOL    MW430854   1.301   4.098   4.681 -0.6681  0.1291  0.0783
 7771SOL     OW30855   2.277   5.642   0.552  0.1458  0.2645  0.0281
 7771SOL    HW230856   2.262   5.591   0.472  0.2511  2.2656 -1.3466
 7771SOL    HW330857   2.331   5.585   0.606  0.6751 -0.8926 -1.6219
 7771SOL    MW430858   2.282   5.628   0.548  0.2295  0.3759 -0.3710
 7772SOL     OW30859   0.278   2.782   5.734 -0.1431 -0.1170 -0.5724
 7772SOL    HW230860   0.362   2.739   5.719  1.5419  3.1179 -1.4575
 7772SOL    HW330861   0.253   2.816   5.648 -0.4536  2.0312  0.2899
 7772SOL    MW430862   0.286   2.781   5.721  0.0383  0.5932 -0.5754
 7773SOL     OW30863   3.764   5.119   3.849  0.3432  0.3297  0.1893
 7773SOL    HW230864   3.749   5.090   3.759  2.0940 -1.1428  0.3023
 7773SOL    HW330865   3.792   5.210   3.840  0.6992  0.1437 -0.7994
 7773SOL    MW430866   3.766   5.127   3.836  0.6212  0.1109  0.0737
 7774SOL     OW30867   4.042   1.842   1.971 -0.4171 -0.2438 -0.0155
 7774SOL    HW230868   3.950   1.824   1.990 -0.0667 -0.0173  2.1680
 7774SOL    HW330869   4.064   1.916   2.027  1.3516 -0.9718  0.3346
 7774SOL    MW430870   4.033   1.849   1.981 -0.1375 -0.3099  0.3188
 7775SOL     OW30871   2.475   6.383   5.379 -0.1385  0.4899  0.5153
 7775SOL    HW230872   2.534   6.367   5.306  1.7726 -0.1626  2.0953
 7775SOL    HW330873   2.513   6.459   5.424 -0.3389 -0.0686  1.6760
 7775SOL    MW430874   2.488   6.391   5.375  0.0872  0.3301  0.8769
 7776SOL     OW30875   4.837   4.558   0.870 -0.2212  0.0143  0.3513
 7776SOL    HW230876   4.815   4.645   0.904 -0.7089 -0.3549  1.0154
 7776SOL    HW330877   4.801   4.556   0.782 -0.3449  0.4287  0.3918
 7776SOL    MW430878   4.830   4.569   0.863 -0.3019  0.0203  0.4442
 7777SOL     OW30879   4.168   6.338   3.462  0.1306  0.1958  0.0961
 7777SOL    HW230880   4.236   6.401   3.441  1.9830 -1.9948 -0.8961
 7777SOL    HW330881   4.209   6.253   3.449 -2.7326 -1.2566 -0.2710
 7777SOL    MW430882   4.182   6.335   3.458 -0.0028 -0.2848 -0.0833
 7778SOL     OW30883   3.246   4.079   0.993 -0.5746  0.1904  0.4334
 7778SOL    HW230884   3.238   4.013   0.924 -0.7834 -1.1531  1.7039
 7778SOL    HW330885   3.337   4.074   1.020 -0.5854  0.4383  0.5162
 7778SOL    MW430886   3.257   4.070   0.987 -0.6035  0.0458  0.6120
 7779SOL     OW30887   6.109   1.442   3.025 -0.5190  0.2477  0.0321
 7779SOL    HW230888   6.197   1.404   3.032 -1.1153 -1.1486  0.3799
 7779SOL    HW330889   6.052   1.366   3.009 -1.6689  1.1251 -0.1492
 7779SOL    MW430890   6.113   1.427   3.024 -0.7494  0.1792  0.0541
 7780SOL     OW30891   0.626   5.047   0.011  0.4186  0.0858  0.2471
 7780SOL    HW230892   0.558   5.101  -0.029  0.9269  0.4248 -0.1689
 7780SOL    HW330893   0.673   5.107   0.070 -2.1197 -1.0215  3.6698
 7780SOL    MW430894   0.624   5.062   0.014  0.1508 -0.0155  0.6438
 7781SOL     OW30895   3.291   2.547   0.681  0.3085  0.2586 -0.2312
 7781SOL    HW230896   3.258   2.574   0.766  0.6114  0.8255 -0.2888
 7781SOL    HW330897   3.223   2.573   0.619 -1.2802 -2.7203  0.0725
 7781SOL    MW430898   3.278   2.554   0.684  0.1388 -0.0596 -0.1987
 7782SOL     OW30899   2.027   4.331   5.668 -0.0932  0.1432 -0.1826
 7782SOL    HW230900   1.992   4.290   5.747 -1.4460  2.6909  0.6566
 7782SOL    HW330901   2.018   4.263   5.600 -0.9880 -1.3651  1.3513
 7782SOL    MW430902   2.021   4.317   5.670 -0.3898  0.2804  0.1305
 7783SOL     OW30903   2.677   2.397   1.435 -0.6414  0.0466  0.5615
 7783SOL    HW230904   2.705   2.321   1.384  0.6925  0.3100  0.8458
 7783SOL    HW330905   2.615   2.442   1.378 -1.5054 -1.2711  0.4147
 7783SOL    MW430906   2.673   2.393   1.420 -0.5794 -0.0925  0.5796
 7784SOL     OW30907   3.862   1.706   0.620  0.4156  0.1512 -0.7507
 7784SOL    HW230908   3.868   1.738   0.710  0.5001 -0.1660 -0.6408
 7784SOL    HW330909   3.925   1.634   0.616 -0.5880 -0.7587 -0.6574
 7784SOL    MW430910   3.871   1.700   0.631  0.2943 -0.0107 -0.7239
 7785SOL     OW30911   2.601   4.142   1.388 -0.4653 -0.0918  0.0343
 7785SOL    HW230912   2.603   4.237   1.388 -1.2550 -0.0655 -0.6257
 7785SOL    HW330913   2.536   4.119   1.454 -0.3218 -0.1685  0.1483
 7785SOL    MW430914   2.593   4.151   1.397 -0.5506 -0.0984 -0.0378
 7786SOL     OW30915   5.010   0.439   1.291  0.2404 -0.2582 -0.0436
 7786SOL    HW230916   5.059   0.476   1.365 -0.6479 -1.9438  1.4904
 7786SOL    HW330917   4.924   0.480   1.297  0.5327  0.4912 -0.8996
 7786SOL    MW430918   5.006   0.449   1.302  0.1617 -0.3817  0.0458
 7787SOL     OW30919   3.314   3.039   2.703  0.2856 -0.0259 -0.5260
 7787SOL    HW230920   3.404   3.012   2.689  0.8994  1.4733  0.3215
 7787SOL    HW330921   3.300   3.031   2.797 -0.2542  0.3777 -0.5639
 7787SOL    MW430922   3.324   3.034   2.713  0.2954  0.2251 -0.4191
 7788SOL     OW30923   1.751   5.772   2.244  0.5125  0.0444  0.0081
 7788SOL    HW230924   1.828   5.716   2.259  0.5303  0.1486  0.3239
 7788SOL    HW330925   1.766   5.847   2.301  0.4566  0.3388 -0.3667
 7788SOL    MW430926   1.763   5.774   2.253  0.5075  0.0970  0.0003
 7789SOL     OW30927   5.680   0.862   1.492 -0.5423  0.4781  0.4028
 7789SOL    HW230928   5.680   0.946   1.446 -0.7652  1.2254  1.7156
 7789SOL    HW330929   5.772   0.842   1.507 -0.4196 -0.2075 -1.0826
 7789SOL    MW430930   5.692   0.871   1.488 -0.5555  0.4862  0.3801
 7790SOL     OW30931   2.475   0.687   5.925  0.0162 -0.2924 -0.1596
 7790SOL    HW230932   2.474   0.690   5.829 -1.7736 -0.5762 -0.1867
 7790SOL    HW330933   2.418   0.759   5.952 -0.3145 -0.8379  0.6458
 7790SOL    MW430934   2.467   0.697   5.916 -0.2635 -0.4018 -0.0569
 7791SOL     OW30935   2.350   2.124   4.640  0.4519 -0.0367  0.5069
 7791SOL    HW230936   2.286   2.100   4.573  1.5764 -0.3092 -0.5162
 7791SOL    HW330937   2.368   2.043   4.687  1.3073 -0.3629 -0.3482
 7791SOL    MW430938   2.344   2.110   4.637  0.7131 -0.1157  0.2591
 7792SOL     OW30939   5.708   3.933   1.062 -0.6505 -0.2470  0.3051
 7792SOL    HW230940   5.804   3.935   1.070 -0.5548 -0.9925 -0.4753
 7792SOL    HW330941   5.688   3.842   1.039 -1.6275 -0.2875  1.2870
 7792SOL    MW430942   5.718   3.921   1.060 -0.7668 -0.3507  0.3317
 7793SOL     OW30943   3.119   0.426   2.238  0.3014 -0.5687 -0.2330
 7793SOL    HW230944   3.145   0.377   2.316  1.1198 -1.1391 -0.8467
 7793SOL    HW330945   3.028   0.450   2.254  0.0580 -1.7974  0.3436
 7793SOL    MW430946   3.110   0.423   2.251  0.3773 -0.8061 -0.2379
 7794SOL     OW30947   5.457   4.572   2.358 -0.0147 -0.2233 -0.5695
 7794SOL    HW230948   5.551   4.560   2.347  0.4326  0.6729  1.7352
 7794SOL    HW330949   5.443   4.568   2.453 -2.5383 -1.8106 -0.8966
 7794SOL    MW430950   5.467   4.570   2.369 -0.2887 -0.3145 -0.3086
 7795SOL     OW30951   1.776   2.920   3.341 -0.0745  0.0151 -0.1926
 7795SOL    HW230952   1.811   2.928   3.429 -0.2561  1.5374 -0.2381
 7795SOL    HW330953   1.806   2.834   3.311  0.2239 -0.4045  1.2323
 7795SOL    MW430954   1.785   2.910   3.348 -0.0591  0.1606 -0.0106
 7796SOL     OW30955   5.917   1.081   5.878 -0.1473  0.0645 -0.4451
 7796SOL    HW230956   5.829   1.055   5.850 -0.0026  0.2714 -1.1155
 7796SOL    HW330957   5.921   1.175   5.858  0.2379  0.0491 -0.4399
 7796SOL    MW430958   5.906   1.090   5.872 -0.0774  0.0898 -0.5329
 7797SOL     OW30959   1.968   3.487   5.319 -0.4223  0.5676 -1.2137
 7797SOL    HW230960   1.909   3.510   5.247  0.6450 -0.4325 -2.4456
 7797SOL    HW330961   1.985   3.570   5.364 -1.6990  1.0805 -1.6400
 7797SOL    MW430962   1.962   3.501   5.316 -0.4499  0.5033 -1.4325
 7798SOL     OW30963   3.029   3.800   1.424  0.1990 -0.1746 -0.3511
 7798SOL    HW230964   3.040   3.706   1.439  0.1209  0.0029  0.8823
 7798SOL    HW330965   3.049   3.841   1.508 -0.4365  0.8689 -0.6844
 7798SOL    MW430966   3.033   3.793   1.437  0.1048 -0.0135 -0.2323
 7799SOL     OW30967   6.082   4.466   4.198  0.1788  0.5426  0.2061
 7799SOL    HW230968   5.992   4.440   4.175 -0.9104  2.6977  1.7110
 7799SOL    HW330969   6.118   4.503   4.118 -0.5191  0.3339 -0.2136
 7799SOL    MW430970   6.075   4.467   4.184 -0.0570  0.7994  0.3493
 7800SOL     OW30971   0.550   0.268   6.177 -0.1694 -0.1926 -1.0331
 7800SOL    HW230972   0.584   0.191   6.132  1.2477 -0.9190  1.1165
 7800SOL    HW330973   0.486   0.233   6.240 -2.1739  0.7966 -2.4418
 7800SOL    MW430974   0.546   0.253   6.180 -0.2469 -0.1579 -0.9353
 7801SOL     OW30975   1.961   5.103   1.327 -0.2790  0.1942  0.0313
 7801SOL    HW230976   1.970   5.179   1.384  0.2853 -1.2505  1.9938
 7801SOL    HW330977   1.878   5.063   1.352  0.1155 -0.6249  0.0842
 7801SOL    MW430978   1.952   5.108   1.338 -0.1525 -0.1045  0.2972
 7802SOL     OW30979   3.456   2.370   4.672 -0.2939  0.2381 -0.0802
 7802SOL    HW230980   3.521   2.303   4.692 -1.3280 -0.3994  1.2981
 7802SOL    HW330981   3.415   2.340   4.591 -0.0386 -0.2492 -0.0327
 7802SOL    MW430982   3.459   2.357   4.664 -0.3966  0.0897  0.1079
 7803SOL     OW30983   1.919   3.103   0.504  0.2697  0.2698 -0.1184
 7803SOL    HW230984   1.868   3.177   0.537  1.3382 -0.2655  3.0354
 7803SOL    HW330985   1.963   3.138   0.426 -3.1697  1.3130 -1.8556
 7803SOL    MW430986   1.918   3.117   0.498 -0.0431  0.3368  0.0685
 7804SOL     OW30987   2.478   0.639   5.393  0.3954  0.2887 -0.4981
 7804SOL    HW230988   2.505   0.579   5.463 -0.8562 -0.4668 -0.6507
 7804SOL    HW330989   2.536   0.618   5.320  0.2581 -0.4240 -0.4041
 7804SOL    MW430990   2.489   0.629   5.393  0.2122  0.0950 -0.5058
 7805SOL     OW30991   3.869   5.794   2.209 -0.0310  0.2973 -0.5822
 7805SOL    HW230992   3.785   5.752   2.187  0.3236 -1.3863  1.0162
 7805SOL    HW330993   3.871   5.794   2.305  1.4069  1.1387 -0.5963
 7805SOL    MW430994   3.858   5.788   2.219  0.2055  0.1862 -0.3732
 7806SOL     OW30995   2.267   2.203   5.889  0.4248  0.4539 -0.2694
 7806SOL    HW230996   2.352   2.170   5.860  1.5137  0.6874  2.3897
 7806SOL    HW330997   2.210   2.126   5.889  0.9074  0.0785 -1.0071
 7806SOL    MW430998   2.270   2.189   5.885  0.6322  0.4351 -0.0159
 7807SOL     OW30999   5.219   1.009   6.153 -0.3848  0.3466  0.1905
 7807SOL    HW231000   5.304   1.034   6.190 -0.2812  0.4835 -0.1424
 7807SOL    HW331001   5.186   0.944   6.215  0.2098 -0.1177  0.0320
 7807SOL    MW431002   5.226   1.004   6.166 -0.2927  0.3034  0.1257
 7808SOL     OW31003   6.261   2.618   1.436 -0.2274 -0.5496  0.0812
 7808SOL    HW231004   6.333   2.584   1.383  1.2658  3.0278 -0.4791
 7808SOL    HW331005   6.303   2.653   1.514 -1.2070  1.8947 -0.3878
 7808SOL    MW431006   6.276   2.618   1.439 -0.1596  0.2449 -0.0546
 7809SOL     OW31007   3.786   4.962   0.324 -0.3728 -0.0326 -0.1003
 7809SOL    HW231008   3.801   4.999   0.237  0.1139 -0.3934 -0.1725
 7809SOL    HW331009   3.740   5.031   0.372 -0.6675  0.1622 -0.6487
 7809SOL    MW431010   3.782   4.976   0.319 -0.3475 -0.0545 -0.1822
 7810SOL     OW31011   5.560   6.305   0.703  0.6177 -0.1484 -0.2889
 7810SOL    HW231012   5.551   6.359   0.782 -0.0528  1.0345 -1.1365
 7810SOL    HW331013   5.471   6.281   0.680  0.9155 -1.7278  0.1133
 7810SOL    MW431014   5.547   6.309   0.711  0.5685 -0.2007 -0.3477
 7811SOL     OW31015   3.185   6.090   4.842  0.0658 -0.1530  0.1181
 7811SOL    HW231016   3.138   6.023   4.792  1.8351 -1.3908  0.0474
 7811SOL    HW331017   3.272   6.054   4.855  1.0592  2.0960  0.1868
 7811SOL    MW431018   3.190   6.076   4.837  0.4303 -0.0196  0.1178
 7812SOL     OW31019   2.606   3.860   1.532  0.1270 -0.1290 -0.1210
 7812SOL    HW231020   2.539   3.928   1.541  1.6414  1.2550  1.3716
 7812SOL    HW331021   2.650   3.881   1.450 -0.5835 -0.4483 -0.5991
 7812SOL    MW431022   2.603   3.872   1.522  0.2330  0.0115  0.0128
 7813SOL     OW31023   0.438   3.124   0.897 -0.3216 -0.2797  0.0712
 7813SOL    HW231024   0.451   3.030   0.886 -1.2806 -0.5883  1.3722
 7813SOL    HW331025   0.491   3.147   0.974 -0.2479  0.2109 -0.1216
 7813SOL    MW431026   0.447   3.115   0.906 -0.4384 -0.2557  0.2174
 7814SOL     OW31027   2.161   4.639   4.518  0.1403  0.0585 -0.4480
 7814SOL    HW231028   2.237   4.618   4.573  0.1150  2.7668  0.8399
 7814SOL    HW331029   2.191   4.625   4.428  1.9521  0.3631  0.0705
 7814SOL    MW431030   2.175   4.635   4.513  0.3760  0.4560 -0.2097
 7815SOL     OW31031   1.733   5.195   0.950  0.3494 -0.0944  0.7017
 7815SOL    HW231032   1.825   5.221   0.942  0.2945 -0.3085 -1.0088
 7815SOL    HW331033   1.736   5.100   0.960  0.2865 -0.2134 -0.3616
 7815SOL    MW431034   1.746   5.186   0.950  0.3338 -0.1383  0.3357
 7816SOL     OW31035   2.388   5.365   2.972 -0.1009 -0.6629 -0.0582
 7816SOL    HW231036   2.375   5.345   2.879  0.2924  1.2683 -0.5716
 7816SOL    HW331037   2.478   5.338   2.990  0.0127 -0.5158 -0.3974
 7816SOL    MW431038   2.398   5.359   2.962 -0.0340 -0.3887 -0.1707
 7817SOL     OW31039   4.539   3.443   3.780 -0.7631 -0.0287  0.5762
 7817SOL    HW231040   4.520   3.536   3.764 -0.9795 -0.2342 -0.4414
 7817SOL    HW331041   4.599   3.419   3.710 -1.7415 -0.9853  0.0338
 7817SOL    MW431042   4.544   3.452   3.768 -0.9207 -0.1820  0.3704
 7818SOL     OW31043   0.103   0.589   5.473  0.1708 -0.2164 -0.6746
 7818SOL    HW231044   0.074   0.555   5.388 -2.4090  0.2490 -0.0447
 7818SOL    HW331045   0.038   0.655   5.496  1.8075  0.9522  0.8765
 7818SOL    MW431046   0.091   0.593   5.465  0.0464 -0.0008 -0.3869
 7819SOL     OW31047   1.255   2.428   6.314 -0.1454 -0.1356  0.2771
 7819SOL    HW231048   1.314   2.359   6.283 -2.3362 -1.0926 -2.1439
 7819SOL    HW331049   1.297   2.510   6.287  1.4923 -0.5784  1.3493
 7819SOL    MW431050   1.268   2.430   6.306 -0.2184 -0.3203  0.0991
 7820SOL     OW31051   4.202   5.463   2.858 -0.6080 -0.4586 -0.7086
 7820SOL    HW231052   4.230   5.498   2.774 -0.3026 -1.2578 -0.9473
 7820SOL    HW331053   4.126   5.516   2.882 -1.8497 -1.4008 -2.3822
 7820SOL    MW431054   4.195   5.475   2.850 -0.7315 -0.6884 -0.9609
 7821SOL     OW31055   2.502   1.984   2.495  0.6853 -0.0754  0.8267
 7821SOL    HW231056   2.540   1.967   2.409 -1.9956  1.0729 -0.7233
 7821SOL    HW331057   2.511   2.079   2.506  2.1018 -0.3419  2.4678
 7821SOL    MW431058   2.508   1.995   2.485  0.5185  0.0410  0.8387
 7822SOL     OW31059   4.887   3.965   6.322  0.0602 -0.1361 -0.4097
 7822SOL    HW231060   4.940   4.041   6.297  0.8792  0.2121  2.0987
 7822SOL    HW331061   4.826   3.953   6.250  2.2470  0.6792 -2.5250
 7822SOL    MW431062   4.886   3.973   6.309  0.4568  0.0174 -0.3579
 7823SOL     OW31063   0.944   6.315   3.353 -0.2373 -0.3825 -0.0282
 7823SOL    HW231064   0.941   6.237   3.409 -3.3238  0.3453  1.0119
 7823SOL    HW331065   0.928   6.281   3.265 -0.9380 -0.9963  0.3218
 7823SOL    MW431066   0.942   6.300   3.349 -0.7370 -0.3674  0.1552
 7824SOL     OW31067   5.037   4.525   3.100  0.4087  0.1740 -0.4383
 7824SOL    HW231068   4.979   4.450   3.113 -2.2080  1.9443 -1.0518
 7824SOL    HW331069   5.031   4.545   3.007  0.9502  1.2139 -0.2687
 7824SOL    MW431070   5.028   4.518   3.089  0.1349  0.5448 -0.4969
 7825SOL     OW31071   5.499   1.411   1.394 -0.4582 -0.2474 -0.0239
 7825SOL    HW231072   5.410   1.428   1.362 -0.4881  0.1000  0.2418
 7825SOL    HW331073   5.520   1.486   1.449  0.7592  0.6665 -1.6424
 7825SOL    MW431074   5.490   1.423   1.397 -0.3015 -0.0810 -0.2024
 7826SOL     OW31075   0.688   3.045   5.154  0.1679 -0.3028 -0.3825
 7826SOL    HW231076   0.593   3.057   5.156  0.3148  1.1393 -0.4874
 7826SOL    HW331077   0.710   3.008   5.240 -0.5086 -0.8265 -0.4369
 7826SOL    MW431078   0.679   3.042   5.166  0.0980 -0.1817 -0.4035
 7827SOL     OW31079   2.056   2.017   5.898  0.4747  0.1097  0.3621
 7827SOL    HW231080   2.036   1.977   5.813  0.0064  0.9314  0.0637
 7827SOL    HW331081   2.064   1.943   5.959  0.0794 -0.4516 -0.2516
 7827SOL    MW431082   2.054   2.002   5.895  0.3608  0.1440  0.2417
 7828SOL     OW31083   1.474   3.028   1.292  0.3572 -0.2923  0.1814
 7828SOL    HW231084   1.407   2.998   1.352 -0.8125  0.6555 -0.5964
 7828SOL    HW331085   1.464   3.123   1.290  2.7263  0.0663  1.1733
 7828SOL    MW431086   1.464   3.037   1.299  0.5155 -0.1199  0.2097
 7829SOL     OW31087   0.675   5.583   0.519  0.1268  0.2496 -0.1012
 7829SOL    HW231088   0.592   5.538   0.532  0.3237  0.1028  0.6881
 7829SOL    HW331089   0.651   5.674   0.502 -0.1904  0.2503  0.3313
 7829SOL    MW431090   0.661   5.589   0.518  0.1109  0.2304  0.0600
 7830SOL     OW31091   5.580   4.060   5.498  0.0512 -0.6580 -0.2617
 7830SOL    HW231092   5.534   4.049   5.414  0.4219 -1.9398 -0.3336
 7830SOL    HW331093   5.524   4.017   5.562 -1.5094  2.5224  0.6843
 7830SOL    MW431094   5.567   4.053   5.495 -0.1058 -0.4075 -0.1464
 7831SOL     OW31095   5.007   4.086   4.437  0.3002  0.8161 -0.2548
 7831SOL    HW231096   4.938   4.046   4.489  0.6691 -0.8109 -0.9403
 7831SOL    HW331097   5.085   4.081   4.491  0.4500  0.1378 -0.5269
 7831SOL    MW431098   5.008   4.080   4.451  0.3686  0.5120 -0.3812
 7832SOL     OW31099   4.503   2.690   0.884  0.6130 -0.1299 -0.5902
 7832SOL    HW231100   4.439   2.727   0.824  1.0579 -0.1295 -1.0797
 7832SOL    HW331101   4.588   2.707   0.842  0.8882 -0.7481 -0.3013
 7832SOL    MW431102   4.506   2.697   0.871  0.7080 -0.2114 -0.6167
 7833SOL     OW31103   3.789   6.031   4.148 -0.3171  0.8841 -0.0091
 7833SOL    HW231104   3.755   6.005   4.063 -1.0761 -0.4050  0.6627
 7833SOL    HW331105   3.744   6.113   4.168 -2.6936 -0.5029  0.6119
 7833SOL    MW431106   3.779   6.039   4.139 -0.7308  0.5310  0.1614
 7834SOL     OW31107   1.017   5.932   1.342 -0.5878 -0.1123 -0.2398
 7834SOL    HW231108   1.098   5.932   1.392 -1.8033 -2.3590  1.9451
 7834SOL    HW331109   1.026   5.860   1.280 -0.7993 -0.2109 -0.1588
 7834SOL    MW431110   1.029   5.923   1.340 -0.7761 -0.4217  0.0592
 7835SOL     OW31111   4.751   1.709   5.096 -0.3954  0.5255 -0.1077
 7835SOL    HW231112   4.773   1.800   5.077 -0.6345  0.7845  0.7741
 7835SOL    HW331113   4.657   1.711   5.118 -1.3258 -0.4817 -3.3999
 7835SOL    MW431114   4.741   1.721   5.097 -0.5497  0.4268 -0.4257
 7836SOL     OW31115   1.342   2.175   1.178 -0.1092 -0.1685 -0.1821
 7836SOL    HW231116   1.285   2.200   1.106 -0.1713 -2.0096 -0.8126
 7836SOL    HW331117   1.318   2.235   1.249 -2.1471 -0.2619 -0.7334
 7836SOL    MW431118   1.332   2.186   1.178 -0.3863 -0.4237 -0.3380
 7837SOL     OW31119   1.141   0.780   3.868  0.8408 -0.0614  0.2695
 7837SOL    HW231120   1.183   0.753   3.949  1.6701  0.4461  0.0272
 7837SOL    HW331121   1.211   0.825   3.819 -0.3897  2.3137  0.5667
 7837SOL    MW431122   1.156   0.782   3.872  0.7879  0.3189  0.2767
 7838SOL     OW31123   4.252   3.556   1.039  0.1343  0.0644 -0.2151
 7838SOL    HW231124   4.253   3.474   0.990 -4.1110 -0.0751 -0.3707
 7838SOL    HW331125   4.226   3.532   1.128  1.1796  1.0570  0.4002
 7838SOL    MW431126   4.249   3.542   1.044 -0.2879  0.1769 -0.1544
 7839SOL     OW31127   1.224   2.020   4.607  0.8398 -0.2893 -0.0085
 7839SOL    HW231128   1.308   2.043   4.647  2.0388 -1.9238 -1.4742
 7839SOL    HW331129   1.188   2.104   4.578  0.3496  0.8793  3.4674
 7839SOL    MW431130   1.230   2.034   4.609  0.9333 -0.3508  0.2567
 7840SOL     OW31131   0.120   1.941   1.048  0.1406  0.1274  0.4433
 7840SOL    HW231132   0.030   1.916   1.027  0.1767  0.7033 -0.4561
 7840SOL    HW331133   0.160   1.859   1.078 -0.9481  0.0837  1.8741
 7840SOL    MW431134   0.114   1.927   1.049  0.0017  0.1977  0.5134
 7841SOL     OW31135   2.741   5.921   3.941  0.1683 -0.3097  0.4446
 7841SOL    HW231136   2.711   5.995   3.994 -1.4450 -1.2796  0.9340
 7841SOL    HW331137   2.820   5.890   3.985 -0.7371 -0.6382  1.8824
 7841SOL    MW431138   2.747   5.927   3.954 -0.1640 -0.4810  0.6989
 7842SOL     OW31139   2.739   6.121   4.138 -0.1061 -0.2204 -0.0734
 7842SOL    HW231140   2.671   6.185   4.157 -0.2622 -0.9383  2.0118
 7842SOL    HW331141   2.784   6.108   4.221  2.9863  0.6079 -1.4400
 7842SOL    MW431142   2.736   6.128   4.151  0.2813 -0.2058  0.0214
 7843SOL     OW31143   5.698   1.273   1.658 -0.1824 -0.1434  0.0005
 7843SOL    HW231144   5.712   1.241   1.569  1.2934 -1.9647  0.8174
 7843SOL    HW331145   5.772   1.238   1.708 -1.0119  0.7600  1.9619
 7843SOL    MW431146   5.709   1.264   1.653 -0.0972 -0.2645  0.3671
 7844SOL     OW31147   1.755   5.931   4.160 -0.2155  0.5404  0.3439
 7844SOL    HW231148   1.698   6.004   4.134 -0.3101  0.1075 -0.7460
 7844SOL    HW331149   1.710   5.891   4.234 -0.4304  1.2734  0.6193
 7844SOL    MW431150   1.741   5.936   4.166 -0.2563  0.5800  0.2364
 7845SOL     OW31151   3.161   0.620   5.597 -0.2926  0.4925 -0.0352
 7845SOL    HW231152   3.077   0.610   5.552  0.3054  0.6588 -1.2218
 7845SOL    HW331153   3.171   0.714   5.610 -0.4261  0.4510  0.3864
 7845SOL    MW431154   3.151   0.631   5.593 -0.2313  0.5090 -0.1362
 7846SOL     OW31155   0.851   6.359   3.700 -0.4211  0.3001  0.1481
 7846SOL    HW231156   0.877   6.450   3.685 -0.5853  0.4647  0.8219
 7846SOL    HW331157   0.898   6.333   3.779  0.5397 -0.5887 -0.6853
 7846SOL    MW431158   0.860   6.368   3.708 -0.3160  0.2045  0.1270
 7847SOL     OW31159   5.244   3.753   1.268  0.0993  0.5211 -0.1779
 7847SOL    HW231160   5.218   3.698   1.341 -1.6428  0.3666 -0.8475
 7847SOL    HW331161   5.161   3.782   1.230  0.9576  1.0305 -1.7598
 7847SOL    MW431162   5.229   3.750   1.272 -0.0173  0.5679 -0.4749
 7848SOL     OW31163   3.595   0.417   2.670 -0.1253 -0.4569  0.5599
 7848SOL    HW231164   3.524   0.482   2.660  1.1780  0.8038 -1.1412
 7848SOL    HW331165   3.551   0.333   2.659 -1.2131  0.3293 -2.1367
 7848SOL    MW431166   3.580   0.415   2.667 -0.0969 -0.1868 -0.0203
 7849SOL     OW31167   1.669   2.758   1.472 -0.5443  0.2263  0.4890
 7849SOL    HW231168   1.743   2.810   1.440 -0.2534 -0.4306  0.0660
 7849SOL    HW331169   1.613   2.822   1.516 -1.5914  1.4930 -2.3764
 7849SOL    MW431170   1.671   2.774   1.473 -0.6441  0.3067  0.0551
 7850SOL     OW31171   1.489   2.347   5.349 -0.3668  0.0240  0.3004
 7850SOL    HW231172   1.401   2.324   5.381  0.1352  0.5581  2.1965
 7850SOL    HW331173   1.485   2.441   5.333 -0.4703 -0.1594 -0.8089
 7850SOL    MW431174   1.477   2.356   5.351 -0.3142  0.0703  0.4042
 7851SOL     OW31175   1.641   1.636   5.004  0.0706  0.8325 -0.5342
 7851SOL    HW231176   1.716   1.578   5.014  0.5570  1.0906 -2.2829
 7851SOL    HW331177   1.676   1.723   5.025  0.1053  0.8691 -0.7402
 7851SOL    MW431178   1.656   1.640   5.008  0.1394  0.8714 -0.7921
 7852SOL     OW31179   5.709   5.002   0.129 -0.3675  0.2041  0.4505
 7852SOL    HW231180   5.676   4.920   0.167  0.1363 -0.3681 -0.3165
 7852SOL    HW331181   5.630   5.048   0.099 -0.5196 -1.0963 -1.2687
 7852SOL    MW431182   5.694   4.997   0.130 -0.3211 -0.0430  0.1225
 7853SOL     OW31183   0.201   0.715   2.516  0.6790  0.0007  0.2837
 7853SOL    HW231184   0.115   0.679   2.536  1.1589 -1.8329 -0.7551
 7853SOL    HW331185   0.185   0.807   2.496 -1.0165 -0.2838  0.2351
 7853SOL    MW431186   0.188   0.723   2.516  0.5186 -0.2788  0.1402
 7854SOL     OW31187   1.492   5.584   4.403 -0.3483  0.1464 -0.2356
 7854SOL    HW231188   1.584   5.591   4.380  0.1227 -0.9706  1.1361
 7854SOL    HW331189   1.454   5.525   4.338 -0.3826  1.4764 -1.4639
 7854SOL    MW431190   1.499   5.577   4.391 -0.2907  0.1745 -0.2167
 7855SOL     OW31191   2.382   5.364   1.380  0.5535  0.0991 -0.2199
 7855SOL    HW231192   2.290   5.376   1.357  0.1045  1.3527  1.9554
 7855SOL    HW331193   2.381   5.297   1.449  1.1321  0.9629  0.6421
 7855SOL    MW431194   2.370   5.356   1.386  0.5706  0.3785  0.1809
 7856SOL     OW31195   0.965   3.932   0.943  0.1691 -0.1771  0.1133
 7856SOL    HW231196   0.886   3.896   0.902 -1.4163  1.6056  1.3734
 7856SOL    HW331197   0.935   3.961   1.029  2.6897 -1.1364  1.4105
 7856SOL    MW431198   0.950   3.931   0.949  0.2925 -0.0684  0.4507
 7857SOL     OW31199   5.676   3.259   1.436 -0.0903  0.0988 -0.1956
 7857SOL    HW231200   5.662   3.304   1.519 -2.4551  1.6108 -1.2918
 7857SOL    HW331201   5.602   3.198   1.428  0.5685 -0.6568 -0.8232
 7857SOL    MW431202   5.665   3.257   1.446 -0.3154  0.1986 -0.4230
 7858SOL     OW31203   4.929   0.517   0.403 -0.1302 -0.3881 -0.6931
 7858SOL    HW231204   4.958   0.429   0.380 -0.4821 -0.2867 -1.5912
 7858SOL    HW331205   4.911   0.558   0.318 -3.0828 -0.4974 -0.1986
 7858SOL    MW431206   4.931   0.511   0.389 -0.5662 -0.3892 -0.7464
 7859SOL     OW31207   1.184   2.108   3.688 -0.1883 -0.7412  0.0841
 7859SOL    HW231208   1.208   2.016   3.699  1.8494 -0.4669 -1.4426
 7859SOL    HW331209   1.255   2.157   3.731  0.7157  0.1082 -2.2205
 7859SOL    MW431210   1.197   2.103   3.695  0.1998 -0.5929 -0.4214
 7860SOL     OW31211   5.013   0.470   3.805  0.3021  0.2038  0.0225
 7860SOL    HW231212   5.000   0.472   3.900  1.4825  0.7291  0.1891
 7860SOL    HW331213   4.936   0.515   3.770  0.3616  0.9293  0.7988
 7860SOL    MW431214   5.001   0.476   3.813  0.4657  0.3688  0.1469
 7861SOL     OW31215   4.003   6.431   5.514  0.4384  0.1555 -0.3866
 7861SOL    HW231216   4.016   6.336   5.525  0.0067  0.3478  2.7755
 7861SOL    HW331217   3.916   6.439   5.475 -0.5894 -0.7674  1.6072
 7861SOL    MW431218   3.993   6.419   5.510  0.2458  0.0591  0.2936
 7862SOL     OW31219   3.852   5.375   3.889 -0.0949  0.8884  0.4538
 7862SOL    HW231220   3.791   5.430   3.937 -1.1403  1.1691 -1.0998
 7862SOL    HW331221   3.883   5.430   3.817  3.2165  1.2778  1.9755
 7862SOL    MW431222   3.848   5.389   3.885  0.2041  0.9768  0.4496
 7863SOL     OW31223   1.095   4.477   1.261  0.0334 -0.0761 -0.2406
 7863SOL    HW231224   1.016   4.428   1.283  1.2141 -2.4478 -0.9625
 7863SOL    HW331225   1.065   4.549   1.205 -1.5832 -0.9892 -0.5826
 7863SOL    MW431226   1.081   4.480   1.257 -0.0241 -0.5095 -0.3810
 7864SOL     OW31227   0.869   2.930   5.903 -0.5335 -0.3752  0.2130
 7864SOL    HW231228   0.826   3.011   5.875  0.2254  0.1390  0.5215
 7864SOL    HW331229   0.937   2.914   5.838  0.2466  0.0078  0.9176
 7864SOL    MW431230   0.872   2.938   5.891 -0.3304 -0.2568  0.3467
 7865SOL     OW31231   1.141   6.154   2.607 -0.3933  0.6344 -0.6746
 7865SOL    HW231232   1.059   6.197   2.583 -0.1006  1.4913 -0.1941
 7865SOL    HW331233   1.114   6.081   2.662 -0.9185  0.0230 -1.7210
 7865SOL    MW431234   1.127   6.150   2.611 -0.4240  0.6668 -0.7493
 7866SOL     OW31235   0.084   0.431   2.260  0.2760  0.5747 -0.3206
 7866SOL    HW231236   0.128   0.361   2.308 -1.4318 -0.1891  0.1708
 7866SOL    HW331237   0.001   0.393   2.231 -0.6494  2.3465 -0.1376
 7866SOL    MW431238   0.079   0.417   2.262 -0.0714  0.7077 -0.2316
 7867SOL     OW31239   5.783   1.685   1.863  0.0979 -0.0584 -0.3959
 7867SOL    HW231240   5.703   1.682   1.915  0.4804  1.6212  0.3573
 7867SOL    HW331241   5.827   1.602   1.882 -0.7333 -0.3378  0.3974
 7867SOL    MW431242   5.778   1.674   1.873  0.0387  0.1263 -0.1918
 7868SOL     OW31243   1.011   6.263   1.075  0.4111 -0.4486  0.0387
 7868SOL    HW231244   1.065   6.313   1.137 -0.4893 -0.7970  1.1291
 7868SOL    HW331245   1.032   6.301   0.989  1.4277  0.2694  0.5836
 7868SOL    MW431246   1.021   6.275   1.072  0.4264 -0.3998  0.2545
 7869SOL     OW31247   0.105   4.622   3.872  0.4901 -0.0570 -0.3866
 7869SOL    HW231248   0.024   4.673   3.865 -0.3368 -1.4124 -1.0644
 7869SOL    HW331249   0.119   4.611   3.966 -0.3797 -0.2118 -0.2684
 7869SOL    MW431250   0.096   4.627   3.883  0.2662 -0.2563 -0.4605
 7870SOL     OW31251   2.912   4.539   5.487  0.4684 -0.0546 -0.1203
 7870SOL    HW231252   2.912   4.495   5.402  0.7279 -0.6085  0.1625
 7870SOL    HW331253   2.933   4.630   5.466  1.9317 -0.4565 -0.5172
 7870SOL    MW431254   2.915   4.545   5.473  0.6957 -0.1807 -0.1354
 7871SOL     OW31255   1.170   0.805   5.539  0.5614  0.2725  0.4902
 7871SOL    HW231256   1.169   0.878   5.477 -0.1412  0.9524  1.2746
 7871SOL    HW331257   1.259   0.771   5.534  0.6995  0.7240 -0.4140
 7871SOL    MW431258   1.181   0.810   5.530  0.4869  0.4218  0.4744
 7872SOL     OW31259   5.258   5.539   0.034 -0.0391 -0.0736 -0.9026
 7872SOL    HW231260   5.230   5.516   0.122  2.5567 -0.1551 -0.0079
 7872SOL    HW331261   5.180   5.576  -0.007 -1.3715 -0.1772  1.3628
 7872SOL    MW431262   5.244   5.541   0.040  0.1276 -0.0980 -0.4857
 7873SOL     OW31263   0.612   1.599   6.346 -0.2305  0.3685  0.2567
 7873SOL    HW231264   0.609   1.680   6.296  1.3679  0.4461  0.2237
 7873SOL    HW331265   0.701   1.596   6.380 -0.6705 -0.7132  1.3789
 7873SOL    MW431266   0.623   1.609   6.344 -0.0776  0.2360  0.4004
 7874SOL     OW31267   3.132   5.190   3.120  0.2376 -0.2350 -0.0867
 7874SOL    HW231268   3.038   5.201   3.137  0.0823  0.6912 -1.3729
 7874SOL    HW331269   3.159   5.120   3.179 -1.4552 -1.1639 -0.3539
 7874SOL    MW431270   3.123   5.182   3.130 -0.0062 -0.2353 -0.2916
 7875SOL     OW31271   4.979   5.003   2.434  0.6724 -0.4470 -0.0301
 7875SOL    HW231272   4.910   4.955   2.480 -1.7351  1.2137 -1.6023
 7875SOL    HW331273   5.014   4.941   2.370  0.0362 -1.1107  0.2591
 7875SOL    MW431274   4.974   4.989   2.432  0.2709 -0.3155 -0.1993
 7876SOL     OW31275   1.107   2.732   3.555  0.6689  0.3904  0.2789
 7876SOL    HW231276   1.069   2.653   3.593  0.0403  0.1167 -0.8789
 7876SOL    HW331277   1.141   2.780   3.630 -0.0185 -0.4069  1.1302
 7876SOL    MW431278   1.106   2.728   3.570  0.4953  0.2491  0.2384
 7877SOL     OW31279   6.164   1.199   5.157 -0.3552  0.0362 -0.4106
 7877SOL    HW231280   6.242   1.192   5.213 -1.1968 -0.8918  0.7167
 7877SOL    HW331281   6.140   1.291   5.160  0.0278  0.1211  0.2082
 7877SOL    MW431282   6.171   1.210   5.165 -0.4157 -0.0751 -0.1802
 7878SOL     OW31283   0.564   3.248   1.421 -0.0199 -0.1764 -0.2257
 7878SOL    HW231284   0.589   3.160   1.449  1.0185 -0.2118 -1.1853
 7878SOL    HW331285   0.538   3.238   1.329  2.0079  0.8088 -0.9623
 7878SOL    MW431286   0.563   3.235   1.413  0.3846 -0.0511 -0.4495
 7879SOL     OW31287   0.258   0.293   5.961 -0.1715  0.1905 -0.1230
 7879SOL    HW231288   0.347   0.314   5.933  0.6841 -0.7440  1.7835
 7879SOL    HW331289   0.234   0.217   5.909 -0.0952  0.7583 -1.0203
 7879SOL    MW431290   0.267   0.286   5.950 -0.0486  0.1421  0.0101
 7880SOL     OW31291   1.111   2.627   5.030 -0.5667 -0.2298 -0.2365
 7880SOL    HW231292   1.054   2.551   5.016 -0.6341 -0.4445  1.0932
 7880SOL    HW331293   1.186   2.612   4.972  0.0668 -2.0216  0.9361
 7880SOL    MW431294   1.114   2.615   5.021 -0.4920 -0.4945  0.0937
 7881SOL     OW31295   1.704   1.610   0.275 -0.4957  0.1069 -0.0585
 7881SOL    HW231296   1.705   1.620   0.370 -1.8565  1.1573 -0.1243
 7881SOL    HW331297   1.785   1.652   0.246 -0.2019  0.0137  0.6092
 7881SOL    MW431298   1.715   1.617   0.284 -0.6364  0.2332  0.0209
 7882SOL     OW31299   5.315   4.388   3.046 -0.1418 -0.0516  0.2172
 7882SOL    HW231300   5.245   4.386   2.981  0.5995  0.3050 -0.6044
 7882SOL    HW331301   5.353   4.300   3.043  0.5387  0.2606 -0.5605
 7882SOL    MW431302   5.311   4.376   3.037  0.0458  0.0367  0.0062
 7883SOL     OW31303   5.573   2.386   5.134 -0.3255 -0.5038 -0.1019
 7883SOL    HW231304   5.488   2.388   5.177  0.7231 -1.2203  2.1634
 7883SOL    HW331305   5.560   2.328   5.059 -1.9559 -0.0984 -0.1792
 7883SOL    MW431306   5.560   2.379   5.130 -0.4022 -0.5448  0.1868
 7884SOL     OW31307   0.322   4.256   4.421 -0.1460  0.1530 -0.1660
 7884SOL    HW231308   0.390   4.190   4.411  0.4483  0.6926  0.1918
 7884SOL    HW331309   0.274   4.229   4.500  2.0038  1.7228  1.8309
 7884SOL    MW431310   0.325   4.244   4.430  0.2160  0.4313  0.1447
 7885SOL     OW31311   5.275   1.993   5.900  0.6655  0.8557 -0.1943
 7885SOL    HW231312   5.342   2.006   5.833  0.6065  1.8824 -0.0639
 7885SOL    HW331313   5.198   2.039   5.866  1.0310  2.5659  1.1620
 7885SOL    MW431314   5.274   2.001   5.886  0.7059  1.2168  0.0019
 7886SOL     OW31315   3.373   0.136   5.674  0.4929 -0.0084  0.4508
 7886SOL    HW231316   3.325   0.144   5.756  1.1587 -0.7035  0.9254
 7886SOL    HW331317   3.331   0.063   5.628  0.3493  0.1480  0.3323
 7886SOL    MW431318   3.361   0.128   5.678  0.5618 -0.0795  0.4977
 7887SOL     OW31319   1.311   0.781   3.294  0.6477 -0.1563 -0.0705
 7887SOL    HW231320   1.377   0.741   3.237 -0.0026 -1.4829  0.0513
 7887SOL    HW331321   1.231   0.783   3.241  0.0564 -1.3206  0.6987
 7887SOL    MW431322   1.309   0.776   3.280  0.4839 -0.4849  0.0471
 7888SOL     OW31323   2.564   1.034   1.688 -0.5948 -0.3707 -0.5702
 7888SOL    HW231324   2.560   1.075   1.774 -2.2697 -1.1352 -0.2509
 7888SOL    HW331325   2.549   1.106   1.627 -1.4127 -0.1416 -0.1144
 7888SOL    MW431326   2.561   1.049   1.691 -0.9237 -0.4413 -0.4679
 7889SOL     OW31327   5.505   4.134   3.686 -0.2750  0.5454 -1.1126
 7889SOL    HW231328   5.501   4.040   3.707 -0.2624  0.5425 -1.1228
 7889SOL    HW331329   5.481   4.139   3.594  0.5264  0.4653 -1.3344
 7889SOL    MW431330   5.502   4.122   3.677 -0.1676  0.5344 -1.1432
 7890SOL     OW31331   0.880   5.352   5.355 -0.1713 -0.1187 -0.0637
 7890SOL    HW231332   0.823   5.276   5.369  0.7453 -1.4243 -2.8183
 7890SOL    HW331333   0.821   5.420   5.323 -0.6754 -0.3627  0.3257
 7890SOL    MW431334   0.865   5.351   5.353 -0.1168 -0.3231 -0.3758
 7891SOL     OW31335   3.158   3.010   6.253 -0.1359  0.3625  0.0498
 7891SOL    HW231336   3.097   3.047   6.189 -0.8829  0.0746  0.5863
 7891SOL    HW331337   3.245   3.036   6.221 -0.4777  0.0150 -1.2130
 7891SOL    MW431338   3.162   3.018   6.240 -0.2796  0.2787 -0.0460
 7892SOL     OW31339   0.916   1.927   4.246 -0.4050 -0.4004 -0.1060
 7892SOL    HW231340   0.856   1.983   4.295  1.0533  0.4075  0.8345
 7892SOL    HW331341   0.863   1.852   4.219 -1.6645 -0.0626  1.3207
 7892SOL    MW431342   0.901   1.924   4.249 -0.3788 -0.2492  0.2063
 7893SOL     OW31343   3.067   3.767   2.078 -0.7679  0.0098 -0.0142
 7893SOL    HW231344   3.104   3.723   2.154 -0.4735  0.1530 -0.0720
 7893SOL    HW331345   3.020   3.698   2.031  1.8269 -0.9106 -1.4946
 7893SOL    MW431346   3.065   3.752   2.081 -0.3867 -0.0927 -0.2172
 7894SOL     OW31347   1.328   3.168   2.798 -1.0615  0.0395  0.1179
 7894SOL    HW231348   1.366   3.248   2.835  0.1123 -0.5989  0.3508
 7894SOL    HW331349   1.255   3.147   2.856 -1.3485  0.8992  0.0896
 7894SOL    MW431350   1.323   3.176   2.811 -0.9445  0.0687  0.1449
 7895SOL     OW31351   3.265   4.848   5.490 -0.4250  1.0571  0.0536
 7895SOL    HW231352   3.250   4.765   5.444 -1.0698 -0.0572  2.1197
 7895SOL    HW331353   3.185   4.862   5.540 -0.1782  2.7814  0.0167
 7895SOL    MW431354   3.253   4.839   5.490 -0.4775  1.1376  0.3213
 7896SOL     OW31355   4.654   5.281   3.794 -0.2501  0.1237  0.7732
 7896SOL    HW231356   4.717   5.312   3.729 -0.4268 -0.2728  0.4019
 7896SOL    HW331357   4.574   5.330   3.776 -0.8409 -1.2187 -0.4734
 7896SOL    MW431358   4.652   5.291   3.783 -0.3514 -0.1058  0.5597
 7897SOL     OW31359   3.177   4.136   2.877  0.5984 -0.1995  0.0328
 7897SOL    HW231360   3.218   4.186   2.948 -1.1647  0.4203  0.6715
 7897SOL    HW331361   3.251   4.100   2.828  1.8979  1.1269  0.9144
 7897SOL    MW431362   3.192   4.138   2.880  0.5372  0.0572  0.2334
 7898SOL     OW31363   3.927   0.719   4.587  0.0163 -0.0932  0.2937
 7898SOL    HW231364   3.911   0.798   4.639 -0.1645  0.7432 -0.9841
 7898SOL    HW331365   3.861   0.722   4.518 -0.0514 -1.4244  0.2861
 7898SOL    MW431366   3.916   0.730   4.584 -0.0165 -0.1585  0.1241
 7899SOL     OW31367   6.022   3.641   3.193  0.3714 -0.7216  0.1747
 7899SOL    HW231368   6.013   3.682   3.279 -1.4893 -1.3072  0.2845
 7899SOL    HW331369   6.080   3.566   3.209  1.6228  0.2655  0.4943
 7899SOL    MW431370   6.029   3.636   3.207  0.2910 -0.6686  0.2314
 7900SOL     OW31371   0.336   1.635   4.394  0.4372 -0.7649 -0.2585
 7900SOL    HW231372   0.254   1.614   4.350 -1.4212  2.3057  1.4099
 7900SOL    HW331373   0.364   1.551   4.432  0.0401 -2.6366 -3.7235
 7900SOL    MW431374   0.329   1.621   4.394  0.1397 -0.6067 -0.4955
 7901SOL     OW31375   1.758   5.966   5.738 -0.6305  0.3635  0.0005
 7901SOL    HW231376   1.727   6.049   5.776  0.2310 -0.3122  2.3246
 7901SOL    HW331377   1.817   5.993   5.667 -1.0406  1.7170  0.1439
 7901SOL    MW431378   1.762   5.981   5.734 -0.5709  0.4529  0.3260
 7902SOL     OW31379   2.574   0.591   0.763 -0.2688  0.5627  0.0869
 7902SOL    HW231380   2.635   0.530   0.721  0.7520  1.3294  0.4331
 7902SOL    HW331381   2.493   0.581   0.714  0.5876  0.6641 -1.3883
 7902SOL    MW431382   2.571   0.581   0.751 -0.0211  0.6772 -0.0620
 7903SOL     OW31383   4.049   6.248   0.191  0.2745  0.2783 -0.5722
 7903SOL    HW231384   4.000   6.287   0.264  0.9355  0.7241 -0.3649
 7903SOL    HW331385   4.025   6.301   0.115  0.5678  0.6015 -0.4382
 7903SOL    MW431386   4.039   6.260   0.190  0.4004  0.3798 -0.5272
 7904SOL     OW31387   2.186   2.438   1.412 -0.3914  0.3881 -0.3095
 7904SOL    HW231388   2.111   2.385   1.382 -0.5694 -0.3195  1.2621
 7904SOL    HW331389   2.258   2.375   1.418 -0.1340  0.6978 -0.1575
 7904SOL    MW431390   2.185   2.422   1.409 -0.3809  0.3356 -0.0821
 7905SOL     OW31391   4.301   4.111   2.429  0.3637  0.3674 -0.1905
 7905SOL    HW231392   4.330   4.075   2.346 -2.1809 -0.9178 -0.6130
 7905SOL    HW331393   4.307   4.038   2.491  1.7243  1.1657  0.6714
 7905SOL    MW431394   4.305   4.097   2.427  0.2074  0.3032 -0.1325
 7906SOL     OW31395   5.725   6.325   3.852 -0.4985 -0.1131  0.2239
 7906SOL    HW231396   5.757   6.305   3.940  1.0322 -0.3351 -0.3568
 7906SOL    HW331397   5.719   6.421   3.851  0.9180  0.0049  0.1283
 7906SOL    MW431398   5.729   6.335   3.864 -0.1097 -0.1268  0.1347
 7907SOL     OW31399   2.789   1.531   5.334  0.4799  0.5365 -0.9740
 7907SOL    HW231400   2.811   1.524   5.241  1.1976 -1.9233 -0.7003
 7907SOL    HW331401   2.701   1.495   5.341  0.5778  0.3506 -0.6682
 7907SOL    MW431402   2.780   1.525   5.322  0.5875  0.1874 -0.8975
 7908SOL     OW31403   6.115   4.215   3.244 -0.2286 -0.1847 -0.2851
 7908SOL    HW231404   6.130   4.205   3.150  1.5964 -2.9750  0.1808
 7908SOL    HW331405   6.197   4.188   3.285 -1.0571  0.6693  2.1425
 7908SOL    MW431406   6.128   4.210   3.237 -0.0971 -0.4402  0.0966
 7909SOL     OW31407   1.260   4.629   5.047 -0.7838 -0.1357 -0.1131
 7909SOL    HW231408   1.319   4.677   5.105 -0.3933 -0.0745 -0.5585
 7909SOL    HW331409   1.256   4.681   4.967 -0.8270 -0.5354 -0.3755
 7909SOL    MW431410   1.267   4.642   5.044 -0.7380 -0.1804 -0.2065
 7910SOL     OW31411   0.354   0.595   3.354  0.4064  0.1626 -0.0161
 7910SOL    HW231412   0.379   0.507   3.327 -0.9961 -0.7577  1.4638
 7910SOL    HW331413   0.406   0.612   3.432  2.0277  1.4557 -1.3084
 7910SOL    MW431414   0.364   0.586   3.361  0.4353  0.2118  0.0087
 7911SOL     OW31415   2.424   5.502   6.163  0.4977 -0.0205  0.4258
 7911SOL    HW231416   2.353   5.563   6.184  0.5890  0.3357 -0.2626
 7911SOL    HW331417   2.384   5.416   6.166 -0.4829  0.2805 -1.8609
 7911SOL    MW431418   2.410   5.499   6.166  0.3804  0.0662  0.0333
 7912SOL     OW31419   3.787   4.129   2.085  0.3167  0.3007  0.5993
 7912SOL    HW231420   3.719   4.148   2.020  1.1077  0.6705 -0.1419
 7912SOL    HW331421   3.830   4.213   2.100  0.6475  0.0587  1.0338
 7912SOL    MW431422   3.784   4.142   2.078  0.4647  0.3176  0.5589
 7913SOL     OW31423   4.819   2.176   1.398  0.2710  0.1924 -0.6455
 7913SOL    HW231424   4.899   2.180   1.450  0.6153  0.6967 -1.2025
 7913SOL    HW331425   4.826   2.094   1.349  0.0991 -0.1225 -0.1554
 7913SOL    MW431426   4.830   2.166   1.398  0.2938  0.2174 -0.6543
 7914SOL     OW31427   5.229   3.277   0.626 -0.3012 -0.2445 -0.2219
 7914SOL    HW231428   5.195   3.355   0.582  0.1757  2.7085  3.9967
 7914SOL    HW331429   5.318   3.301   0.652  1.0501 -3.5022 -1.3088
 7914SOL    MW431430   5.236   3.291   0.624 -0.0600 -0.2847  0.1913
 7915SOL     OW31431   5.303   3.405   3.959  0.9072  0.0223 -0.3590
 7915SOL    HW231432   5.367   3.337   3.937  0.1568 -0.9589  0.4206
 7915SOL    HW331433   5.349   3.463   4.019  1.6642  0.4237 -1.2946
 7915SOL    MW431434   5.317   3.404   3.964  0.9081 -0.0542 -0.3796
 7916SOL     OW31435   4.958   3.941   2.023  0.0760  0.3409 -0.5079
 7916SOL    HW231436   5.022   3.899   2.080  0.7807  1.1742 -0.6709
 7916SOL    HW331437   5.007   4.008   1.976 -0.8192  0.6928 -0.9715
 7916SOL    MW431438   4.973   3.944   2.024  0.0509  0.4973 -0.5906
 7917SOL     OW31439   2.013   3.385   2.101  0.3541  0.3955  0.1381
 7917SOL    HW231440   1.920   3.390   2.123 -0.1763 -3.4829 -0.4914
 7917SOL    HW331441   2.028   3.461   2.044 -2.5844  0.8460 -0.2019
 7917SOL    MW431442   2.002   3.396   2.096 -0.1036 -0.0568  0.0102
 7918SOL     OW31443   1.968   0.268   5.419 -0.5111 -0.7798  0.1123
 7918SOL    HW231444   1.979   0.248   5.326 -0.5078 -0.0395 -0.0545
 7918SOL    HW331445   1.984   0.185   5.463 -1.0735 -1.2735 -0.5831
 7918SOL    MW431446   1.971   0.254   5.412 -0.5849 -0.7472 -0.0015
 7919SOL     OW31447   5.438   0.785   3.759 -0.2748  1.0850 -0.3099
 7919SOL    HW231448   5.358   0.739   3.735  2.2836 -2.6799 -2.8171
 7919SOL    HW331449   5.467   0.743   3.840 -0.8794  2.6788  0.7918
 7919SOL    MW431450   5.431   0.774   3.767 -0.0170  0.7986 -0.4953
 7920SOL     OW31451   5.222   3.545   0.493 -0.1641 -0.3672  0.1234
 7920SOL    HW231452   5.172   3.541   0.412  0.9336  0.2437 -0.6236
 7920SOL    HW331453   5.314   3.545   0.464  0.2486 -0.1672  1.3594
 7920SOL    MW431454   5.228   3.545   0.479  0.0352 -0.2602  0.1880
 7921SOL     OW31455   3.184   3.820   3.492 -0.0719  0.7170 -0.7865
 7921SOL    HW231456   3.172   3.878   3.566  0.4804 -0.5176  0.3141
 7921SOL    HW331457   3.133   3.860   3.421 -1.3403  1.4643  0.4983
 7921SOL    MW431458   3.175   3.833   3.492 -0.1664  0.6527 -0.4717
 7922SOL     OW31459   4.959   2.505   0.227  0.0634 -0.0165  0.1071
 7922SOL    HW231460   4.966   2.561   0.149 -1.0247  0.6306  0.4586
 7922SOL    HW331461   4.891   2.546   0.280 -0.1862 -1.2370  0.7547
 7922SOL    MW431462   4.951   2.518   0.224 -0.1131 -0.0922  0.2389
 7923SOL     OW31463   0.838   1.349   2.436 -0.1990 -0.1013 -0.4574
 7923SOL    HW231464   0.860   1.378   2.348  0.5664 -0.3808 -0.3657
 7923SOL    HW331465   0.857   1.424   2.492 -1.7592  0.4764 -0.6354
 7923SOL    MW431466   0.843   1.363   2.432 -0.3039 -0.0619 -0.4688
 7924SOL     OW31467   5.361   2.389   3.614 -0.4465 -0.2390  0.0226
 7924SOL    HW231468   5.316   2.467   3.581 -1.5832 -0.5284  0.8216
 7924SOL    HW331469   5.405   2.353   3.537 -0.0709  1.0594 -0.4107
 7924SOL    MW431470   5.361   2.395   3.599 -0.5469 -0.1059  0.0708
 7925SOL     OW31471   1.044   1.170   2.147  0.2082 -0.3496  0.0573
 7925SOL    HW231472   1.070   1.085   2.183 -1.5809 -0.9123  0.1552
 7925SOL    HW331473   0.951   1.159   2.126  0.3948  0.9960 -1.7134
 7925SOL    MW431474   1.035   1.157   2.149 -0.0032 -0.2463 -0.1634
 7926SOL     OW31475   2.625   5.280   3.302 -0.5012  0.0188  0.3841
 7926SOL    HW231476   2.651   5.367   3.333 -0.4200 -0.0118  0.3999
 7926SOL    HW331477   2.632   5.223   3.378 -2.1881  0.3341  0.8202
 7926SOL    MW431478   2.629   5.284   3.316 -0.7131  0.0564  0.4437
 7927SOL     OW31479   3.823   0.185   5.138  0.1216  0.0008  0.1052
 7927SOL    HW231480   3.910   0.163   5.106 -0.6427 -2.4696 -0.4239
 7927SOL    HW331481   3.767   0.182   5.060 -0.4728  1.6255  0.4247
 7927SOL    MW431482   3.827   0.182   5.123 -0.0577 -0.1108  0.0775
 7928SOL     OW31483   2.236   2.574   3.456  0.3097  0.4579 -0.4820
 7928SOL    HW231484   2.205   2.587   3.545 -0.6134  1.0241 -0.8697
 7928SOL    HW331485   2.218   2.482   3.437  1.4209  0.0719  0.2379
 7928SOL    MW431486   2.230   2.563   3.465  0.3345  0.4817 -0.4382
 7929SOL     OW31487   2.972   3.737   4.597 -0.2148 -0.1930 -0.0586
 7929SOL    HW231488   2.999   3.782   4.517  1.0029  0.4530  0.6788
 7929SOL    HW331489   2.893   3.783   4.625  1.7220  2.5378  1.4093
 7929SOL    MW431490   2.965   3.749   4.590  0.2014  0.2525  0.2323
 7930SOL     OW31491   6.202   4.031   0.698  0.2382 -0.2515  0.2006
 7930SOL    HW231492   6.171   4.108   0.650 -2.1114 -0.1917  1.6143
 7930SOL    HW331493   6.214   4.062   0.788 -0.5669 -1.4579  0.7551
 7930SOL    MW431494   6.199   4.045   0.703 -0.1780 -0.4028  0.4603
 7931SOL     OW31495   6.426   3.323   3.028 -0.0405 -0.2370 -0.1150
 7931SOL    HW231496   6.489   3.394   3.023 -1.5633  1.2299  0.5911
 7931SOL    HW331497   6.414   3.295   2.938 -0.1839  1.1170 -0.5356
 7931SOL    MW431498   6.433   3.328   3.016 -0.2603  0.1352 -0.0773
 7932SOL     OW31499   2.215   1.470   1.383 -0.3464  0.0733  0.5459
 7932SOL    HW231500   2.159   1.397   1.411 -1.3790  1.1742  1.4550
 7932SOL    HW331501   2.296   1.458   1.433 -1.0270  0.2944  1.7351
 7932SOL    MW431502   2.218   1.458   1.394 -0.5724  0.2477  0.8228
 7933SOL     OW31503   1.938   3.180   5.120  0.1756 -0.2328 -0.3552
 7933SOL    HW231504   2.030   3.201   5.139 -0.2881  1.8771 -0.2767
 7933SOL    HW331505   1.888   3.236   5.179 -1.2027 -1.4622 -0.2926
 7933SOL    MW431506   1.944   3.190   5.131 -0.0674 -0.1166 -0.3366
 7934SOL     OW31507   0.336   6.278   0.264 -0.5715  0.2981 -0.4442
 7934SOL    HW231508   0.255   6.320   0.237  0.2652  1.5143 -1.1997
 7934SOL    HW331509   0.400   6.307   0.199  0.1694 -1.7634 -0.6837
 7934SOL    MW431510   0.334   6.288   0.252 -0.3633  0.1866 -0.5755
 7935SOL     OW31511   2.631   5.951   5.474  0.2129 -0.0951 -0.1117
 7935SOL    HW231512   2.587   5.982   5.554  1.8538  1.0146  0.4236
 7935SOL    HW331513   2.624   6.025   5.413 -3.6043 -1.9227 -2.2245
 7935SOL    MW431514   2.624   5.965   5.477 -0.0742 -0.1898 -0.3198
 7936SOL     OW31515   2.413   4.855   3.046 -0.0499  0.9462 -0.3096
 7936SOL    HW231516   2.455   4.788   2.992  0.5090  0.5178  0.6317
 7936SOL    HW331517   2.485   4.897   3.093 -0.6489 -0.3689  1.9829
 7936SOL    MW431518   2.428   4.852   3.045 -0.0552  0.7162  0.1170
 7937SOL     OW31519   3.434   0.202   2.596 -0.5135 -0.1811  0.4568
 7937SOL    HW231520   3.389   0.153   2.665 -0.2166 -0.8391  0.1922
 7937SOL    HW331521   3.486   0.136   2.550  1.6257  0.6964  1.4567
 7937SOL    MW431522   3.435   0.187   2.599 -0.1921 -0.1522  0.5538
 7938SOL     OW31523   3.310   2.116   6.244  0.0167 -0.2828 -0.1282
 7938SOL    HW231524   3.365   2.148   6.315  3.1947 -2.7041 -1.2294
 7938SOL    HW331525   3.338   2.167   6.168 -0.0478 -0.7740 -0.4883
 7938SOL    MW431526   3.321   2.127   6.243  0.4275 -0.6671 -0.3210
 7939SOL     OW31527   2.913   3.807   2.960 -0.0011 -0.2356 -0.5637
 7939SOL    HW231528   2.925   3.791   2.866 -1.8737 -3.0553 -0.4378
 7939SOL    HW331529   3.001   3.796   2.997  0.8538  1.3644 -1.9605
 7939SOL    MW431530   2.926   3.803   2.953 -0.1354 -0.3965 -0.7314
 7940SOL     OW31531   2.715   3.952   2.296  0.4559 -0.1942 -0.3105
 7940SOL    HW231532   2.806   3.964   2.267  0.4871 -0.2032 -0.2164
 7940SOL    HW331533   2.710   3.998   2.380  0.0793  0.7380 -0.8388
 7940SOL    MW431534   2.726   3.960   2.303  0.4103 -0.0724 -0.3678
 7941SOL     OW31535   4.748   4.805   0.949 -0.2905  0.1587  0.1321
 7941SOL    HW231536   4.823   4.860   0.971 -0.8563  0.6854  0.8083
 7941SOL    HW331537   4.705   4.852   0.877  1.2364 -1.2710 -1.8336
 7941SOL    MW431538   4.752   4.819   0.942 -0.1637  0.0395 -0.0380
 7942SOL     OW31539   6.370   5.349   4.723  0.1526 -0.0414 -0.3674
 7942SOL    HW231540   6.459   5.376   4.703  0.6709 -1.3404  0.1149
 7942SOL    HW331541   6.377   5.257   4.748 -1.5284 -0.6210 -1.8198
 7942SOL    MW431542   6.383   5.341   4.724 -0.0008 -0.2893 -0.4954
 7943SOL     OW31543   2.238   2.723   5.602 -0.3184  0.0084 -0.0222
 7943SOL    HW231544   2.273   2.636   5.582  0.1146  0.3866 -0.9625
 7943SOL    HW331545   2.152   2.706   5.640  0.5351 -0.9134  1.6353
 7943SOL    MW431546   2.231   2.709   5.605 -0.1487 -0.0633  0.0724
 7944SOL     OW31547   5.314   0.299   2.272 -0.1070  0.1676 -0.1202
 7944SOL    HW231548   5.346   0.300   2.363 -3.1986  3.1508  1.1521
 7944SOL    HW331549   5.393   0.300   2.219  1.8485  0.5905  2.5805
 7944SOL    MW431550   5.328   0.299   2.277 -0.2569  0.6170  0.4040
 7945SOL     OW31551   0.575   2.394   3.206  0.0721 -0.2109 -0.0868
 7945SOL    HW231552   0.557   2.333   3.277 -1.3039  1.6252  1.2438
 7945SOL    HW331553   0.598   2.339   3.132 -1.0942 -2.3260  1.0386
 7945SOL    MW431554   0.576   2.379   3.206 -0.2633 -0.2477  0.2372
 7946SOL     OW31555   4.659   6.416   5.441 -0.6887  0.2250 -0.0181
 7946SOL    HW231556   4.749   6.446   5.432  0.0104 -1.1874  1.7454
 7946SOL    HW331557   4.616   6.486   5.491 -0.1426  0.1701  0.5407
 7946SOL    MW431558   4.665   6.429   5.446 -0.5244  0.0314  0.2883
 7947SOL     OW31559   2.136   5.291   3.350 -0.1458  0.5625  0.0862
 7947SOL    HW231560   2.218   5.327   3.317 -1.7126  1.9644 -2.5961
 7947SOL    HW331561   2.082   5.368   3.369 -1.4707 -0.3321  0.0571
 7947SOL    MW431562   2.140   5.306   3.348 -0.5273  0.6295 -0.2715
 7948SOL     OW31563   3.614   0.216   0.512 -0.7391  0.1081  0.0598
 7948SOL    HW231564   3.709   0.227   0.517 -0.5822 -1.0845 -0.0781
 7948SOL    HW331565   3.579   0.293   0.557  0.2643  1.0389 -0.6794
 7948SOL    MW431566   3.622   0.228   0.519 -0.5860  0.0736 -0.0559
 7949SOL     OW31567   0.855   3.562   3.255  0.7687  0.2218  0.0718
 7949SOL    HW231568   0.939   3.562   3.301  1.9969 -0.2099 -2.0373
 7949SOL    HW331569   0.869   3.621   3.180 -1.1210  0.8468  0.1564
 7949SOL    MW431570   0.868   3.570   3.251  0.6814  0.2473 -0.1953
 7950SOL     OW31571   5.616   0.324   3.620 -0.3934  0.3412  0.1354
 7950SOL    HW231572   5.654   0.405   3.586 -0.9166  0.7724  0.5559
 7950SOL    HW331573   5.643   0.257   3.557 -0.8523  1.0201 -0.8179
 7950SOL    MW431574   5.625   0.326   3.607 -0.5230  0.4877  0.0651
 7951SOL     OW31575   5.049   5.348   6.024 -0.0789 -0.4301  0.2605
 7951SOL    HW231576   5.049   5.400   5.944 -2.4121  1.2748  1.2723
 7951SOL    HW331577   5.140   5.351   6.054  0.5425  0.0980 -1.5284
 7951SOL    MW431578   5.061   5.355   6.018 -0.3048 -0.1355  0.1579
 7952SOL     OW31579   5.879   3.544   2.953  0.1577  0.0363  0.2377
 7952SOL    HW231580   5.933   3.583   3.021  1.0476  0.1866 -0.5399
 7952SOL    HW331581   5.825   3.616   2.921 -0.1284  0.0078  0.6448
 7952SOL    MW431582   5.879   3.558   2.958  0.2374  0.0524  0.1888
 7953SOL     OW31583   0.082   4.308   5.198 -0.1828 -0.3191 -0.9527
 7953SOL    HW231584   0.044   4.385   5.239 -0.3662 -0.0164 -1.6785
 7953SOL    HW331585   0.153   4.282   5.256 -1.0822 -0.5125  0.0861
 7953SOL    MW431586   0.086   4.315   5.211 -0.3257 -0.3046 -0.9114
 7954SOL     OW31587   1.805   1.515   1.229  0.0786  0.0127 -0.1734
 7954SOL    HW231588   1.850   1.431   1.222 -1.0305 -0.7308  0.9154
 7954SOL    HW331589   1.713   1.491   1.245 -0.0939  1.3996  1.1955
 7954SOL    MW431590   1.799   1.501   1.230 -0.0905  0.0976  0.1509
 7955SOL     OW31591   4.420   0.619   5.848  0.0331 -0.0043 -0.4985
 7955SOL    HW231592   4.482   0.656   5.786  0.4869  1.4277  0.7441
 7955SOL    HW331593   4.336   0.660   5.826 -0.2237 -0.9387 -1.3366
 7955SOL    MW431594   4.417   0.629   5.837  0.0591  0.0614 -0.4451
 7956SOL     OW31595   2.692   5.661   3.032  0.0905 -0.3990  0.0591
 7956SOL    HW231596   2.650   5.589   3.080 -1.6728  1.3512  1.3284
 7956SOL    HW331597   2.706   5.728   3.099 -1.4774  1.7447 -1.6270
 7956SOL    MW431598   2.689   5.660   3.047 -0.3490  0.1147  0.0041
 7957SOL     OW31599   5.865   5.612   2.613 -0.1552  0.2523 -0.1723
 7957SOL    HW231600   5.813   5.566   2.679  2.9754 -2.1234  0.8435
 7957SOL    HW331601   5.843   5.568   2.531 -0.1462 -0.3460  0.1419
 7957SOL    MW431602   5.855   5.600   2.611  0.2591 -0.1401  0.0032
 7958SOL     OW31603   2.814   0.346   6.014  0.0777 -0.4775 -0.2379
 7958SOL    HW231604   2.817   0.364   6.108 -0.7433  0.7457 -0.4081
 7958SOL    HW331605   2.853   0.260   6.004  1.5254 -0.0195  1.0555
 7958SOL    MW431606   2.819   0.337   6.025  0.1604 -0.2557 -0.0897
 7959SOL     OW31607   0.909   2.647   0.505  0.1816  0.3273  0.0912
 7959SOL    HW231608   0.987   2.637   0.451  0.1259  1.4172 -0.2157
 7959SOL    HW331609   0.927   2.596   0.583  1.6721  1.4277  0.5147
 7959SOL    MW431610   0.922   2.639   0.508  0.3709  0.6163  0.1066
 7960SOL     OW31611   4.808   6.015   3.419  0.0715  0.0567  0.4299
 7960SOL    HW231612   4.810   5.929   3.377 -1.3159  0.0321  0.3628
 7960SOL    HW331613   4.756   6.070   3.361 -1.2784  0.2120  1.6992
 7960SOL    MW431614   4.801   6.011   3.406 -0.2897  0.0739  0.5885
 7961SOL     OW31615   5.794   3.125   3.281 -0.0036  0.5847  0.6535
 7961SOL    HW231616   5.886   3.105   3.264  0.3264  2.0200  0.6927
 7961SOL    HW331617   5.764   3.051   3.335  1.0697  0.0258  0.5180
 7961SOL    MW431618   5.802   3.112   3.286  0.1815  0.7004  0.6408
 7962SOL     OW31619   3.529   1.118   0.101  0.5480 -0.3914  0.3630
 7962SOL    HW231620   3.616   1.152   0.079  0.2509 -0.0238 -0.2596
 7962SOL    HW331621   3.520   1.038   0.050  0.1138  0.1226 -0.3829
 7962SOL    MW431622   3.539   1.112   0.092  0.4515 -0.2751  0.1824
 7963SOL     OW31623   0.855   2.812   3.475 -0.4065  0.4648  0.4285
 7963SOL    HW231624   0.941   2.784   3.506  0.1356  1.5004 -0.0918
 7963SOL    HW331625   0.864   2.818   3.380 -1.3144 -0.2422  0.2824
 7963SOL    MW431626   0.868   2.809   3.466 -0.4547  0.5082  0.3406
 7964SOL     OW31627   4.670   3.964   3.475 -0.3293  0.5921 -0.1911
 7964SOL    HW231628   4.725   4.035   3.443  1.4005 -1.1422 -1.3537
 7964SOL    HW331629   4.721   3.885   3.457 -2.3703 -0.9872  0.5586
 7964SOL    MW431630   4.684   3.963   3.468 -0.3704  0.1549 -0.2456
 7965SOL     OW31631   2.600   6.120   6.201  0.5532 -0.7885 -0.5061
 7965SOL    HW231632   2.623   6.157   6.286 -4.2852  0.0667  0.7767
 7965SOL    HW331633   2.614   6.026   6.212 -0.5092 -0.7715  1.5637
 7965SOL    MW431634   2.605   6.112   6.214 -0.2253 -0.6735 -0.0638
 7966SOL     OW31635   4.676   4.115   2.453 -0.1396 -0.4888 -0.2366
 7966SOL    HW231636   4.669   4.177   2.381 -3.9084  0.4613  0.7615
 7966SOL    HW331637   4.666   4.029   2.411  2.3916 -0.3750 -1.2760
 7966SOL    MW431638   4.674   4.112   2.438 -0.3029 -0.3484 -0.2421
 7967SOL     OW31639   4.173   1.781   5.421 -0.1837  0.5315 -0.1809
 7967SOL    HW231640   4.121   1.799   5.499 -0.6830  0.8014 -0.5779
 7967SOL    HW331641   4.236   1.853   5.417  0.2188  0.2166  0.2834
 7967SOL    MW431642   4.175   1.793   5.431 -0.1965  0.5255 -0.1720
 7968SOL     OW31643   3.922   2.198   0.342 -0.1997  0.3405 -0.4052
 7968SOL    HW231644   3.931   2.122   0.400 -0.5883 -0.6548 -1.6011
 7968SOL    HW331645   3.856   2.253   0.385  1.0081  0.6535  1.1267
 7968SOL    MW431646   3.914   2.195   0.355 -0.0916  0.2505 -0.3608
 7969SOL     OW31647   0.676   2.345   4.909 -0.3766 -0.3038 -0.6833
 7969SOL    HW231648   0.633   2.357   4.994 -1.2548 -1.5270 -0.9210
 7969SOL    HW331649   0.649   2.258   4.881 -0.8189  0.4112 -2.6335
 7969SOL    MW431650   0.667   2.335   4.916 -0.5508 -0.3709 -0.9720
 7970SOL     OW31651   1.567   1.217   4.812 -0.2814 -0.1494 -0.0513
 7970SOL    HW231652   1.512   1.188   4.884  0.8861  0.7510  1.2528
 7970SOL    HW331653   1.651   1.238   4.852 -0.1561  2.2227 -1.3391
 7970SOL    MW431654   1.571   1.216   4.827 -0.1108  0.2823 -0.0492
 7971SOL     OW31655   4.076   0.970   3.214 -0.6872  0.1580  0.1755
 7971SOL    HW231656   4.043   1.038   3.155  1.0231  2.1891  1.4156
 7971SOL    HW331657   4.097   1.017   3.295  0.7529 -1.8128  1.0181
 7971SOL    MW431658   4.074   0.985   3.217 -0.2715  0.1659  0.4503
 7972SOL     OW31659   4.981   1.738   6.063  0.1564  0.4144 -0.0773
 7972SOL    HW231660   4.932   1.657   6.055 -0.2572  0.4347  1.8246
 7972SOL    HW331661   5.057   1.726   6.006 -0.5658 -0.7759 -0.8224
 7972SOL    MW431662   4.985   1.726   6.055  0.0065  0.2600  0.0753
 7973SOL     OW31663   2.581   3.009   6.119  0.4723  0.2987 -0.4120
 7973SOL    HW231664   2.558   3.028   6.028  1.5655 -0.0386 -0.7690
 7973SOL    HW331665   2.520   2.940   6.145  0.4584  0.0636 -1.0442
 7973SOL    MW431666   2.570   3.002   6.110  0.6147  0.2232 -0.5425
 7974SOL     OW31667   2.234   1.355   4.114  0.5136 -0.1875  0.2338
 7974SOL    HW231668   2.213   1.265   4.139 -0.2569  0.1147  0.7096
 7974SOL    HW331669   2.176   1.374   4.041  0.0625  0.1988  0.6814
 7974SOL    MW431670   2.223   1.345   4.108  0.3524 -0.0967  0.3556
 7975SOL     OW31671   2.856   3.962   3.686  0.2306  0.0167 -0.4966
 7975SOL    HW231672   2.822   4.015   3.614 -1.8718 -2.0537 -1.1554
 7975SOL    HW331673   2.852   3.872   3.654  0.6785 -0.8280  1.6600
 7975SOL    MW431674   2.851   3.957   3.673  0.0123 -0.3679 -0.2990
 7976SOL     OW31675   0.814   2.661   5.878  0.4406  0.1224  0.8681
 7976SOL    HW231676   0.874   2.656   5.804 -0.0405  3.0385  0.1639
 7976SOL    HW331677   0.825   2.749   5.912 -0.5986 -0.5799  3.2475
 7976SOL    MW431678   0.823   2.672   5.873  0.2400  0.4145  1.0891
 7977SOL     OW31679   3.870   4.406   0.314  0.3171 -0.6493 -0.4513
 7977SOL    HW231680   3.963   4.427   0.314  0.1881 -0.0466 -0.9719
 7977SOL    HW331681   3.833   4.462   0.246 -0.8158  0.9143  1.3422
 7977SOL    MW431682   3.877   4.416   0.305  0.1506 -0.3635 -0.2833
 7978SOL     OW31683   6.065   2.563   2.112 -0.0011  0.3944  0.5617
 7978SOL    HW231684   6.143   2.582   2.060 -1.5866  0.3544 -1.9878
 7978SOL    HW331685   6.054   2.468   2.104 -1.6430  0.6876 -1.2216
 7978SOL    MW431686   6.074   2.553   2.104 -0.4269  0.4278 -0.0099
 7979SOL     OW31687   5.206   5.865   4.595 -0.1033  0.4959  0.0661
 7979SOL    HW231688   5.174   5.923   4.665 -1.2126 -0.5180  0.4325
 7979SOL    HW331689   5.287   5.828   4.630 -0.7783 -0.1939  0.9464
 7979SOL    MW431690   5.212   5.868   4.609 -0.3387  0.2711  0.2306
 7980SOL     OW31691   2.492   1.428   2.882  0.6916  0.2058 -0.0204
 7980SOL    HW231692   2.553   1.466   2.819 -0.2189 -0.1879 -1.1808
 7980SOL    HW331693   2.423   1.494   2.891  0.6381  0.1073  0.2838
 7980SOL    MW431694   2.491   1.442   2.875  0.5644  0.1409 -0.1334
 7981SOL     OW31695   1.078   5.859   1.967  0.6568  0.0421 -0.1488
 7981SOL    HW231696   1.164   5.866   1.924 -0.3449 -1.3717 -2.6017
 7981SOL    HW331697   1.066   5.765   1.980 -1.0180  0.0966 -1.0506
 7981SOL    MW431698   1.088   5.848   1.963  0.3037 -0.1372 -0.5914
 7982SOL     OW31699   4.601   5.205   4.602 -0.0693 -0.1207 -0.5312
 7982SOL    HW231700   4.548   5.182   4.525 -0.6690  0.1303 -0.2005
 7982SOL    HW331701   4.537   5.235   4.666  0.3206 -1.2186  0.4014
 7982SOL    MW431702   4.586   5.206   4.600 -0.0970 -0.2325 -0.3645
 7983SOL     OW31703   4.655   3.439   4.140  0.0170 -0.6722  0.0290
 7983SOL    HW231704   4.565   3.432   4.109  0.1848  0.6779 -0.8426
 7983SOL    HW331705   4.702   3.484   4.070  1.3309 -1.1473  0.5640
 7983SOL    MW431706   4.650   3.444   4.127  0.2125 -0.5567 -0.0154
 7984SOL     OW31707   3.977   5.922   3.017 -0.3720  0.0797 -0.3878
 7984SOL    HW231708   4.038   5.918   3.091 -2.1393  0.3241  1.1488
 7984SOL    HW331709   3.992   5.840   2.970  0.4205 -0.3459  0.5567
 7984SOL    MW431710   3.987   5.911   3.021 -0.5006  0.0558 -0.0605
 7985SOL     OW31711   0.448   6.125   5.402  0.1938  0.1871 -0.6781
 7985SOL    HW231712   0.500   6.051   5.433  2.5118  1.9071 -0.1862
 7985SOL    HW331713   0.357   6.098   5.415  0.9568 -1.2535  2.7793
 7985SOL    MW431714   0.443   6.112   5.408  0.6003  0.2240 -0.1570
 7986SOL     OW31715   5.526   5.427   2.227  0.3184  0.2735  0.1468
 7986SOL    HW231716   5.557   5.337   2.228  0.5404  0.3498  0.3144
 7986SOL    HW331717   5.598   5.477   2.266 -0.2803  0.3658  1.1692
 7986SOL    MW431718   5.540   5.422   2.232  0.2687  0.2957  0.3038
 7987SOL     OW31719   0.018   3.611   4.050 -0.6953  0.1441 -0.4539
 7987SOL    HW231720   0.024   3.693   4.002  1.7309  0.7269  0.7221
 7987SOL    HW331721   0.100   3.565   4.031 -2.1956 -2.3427 -1.5392
 7987SOL    MW431722   0.030   3.616   4.041 -0.5732 -0.1071 -0.4420
 7988SOL     OW31723   4.932   3.777   5.190 -0.3553  0.0447  0.3308
 7988SOL    HW231724   4.864   3.737   5.137 -0.8187  2.3369 -0.9339
 7988SOL    HW331725   4.902   3.765   5.280 -1.5688 -0.4405 -0.1117
 7988SOL    MW431726   4.919   3.770   5.195 -0.5765  0.2831  0.1056
 7989SOL     OW31727   3.195   5.764   3.899  0.7940 -0.1234  0.0963
 7989SOL    HW231728   3.197   5.851   3.940 -0.0009 -0.3022  0.5233
 7989SOL    HW331729   3.206   5.704   3.973  2.3476 -0.3756 -0.3040
 7989SOL    MW431730   3.197   5.768   3.914  0.8941 -0.1803  0.0999
 7990SOL     OW31731   1.554   6.170   0.678 -0.6174 -0.6815 -0.3243
 7990SOL    HW231732   1.468   6.141   0.648 -1.0882  0.6355 -0.3363
 7990SOL    HW331733   1.616   6.113   0.634 -1.4413 -0.9123 -1.2137
 7990SOL    MW431734   1.551   6.159   0.668 -0.7883 -0.5382 -0.4433
 7991SOL     OW31735   0.946   3.037   0.598  0.2163  0.1494  0.1522
 7991SOL    HW231736   1.001   3.111   0.573  0.1831 -0.1513 -0.8736
 7991SOL    HW331737   1.007   2.973   0.635  0.2421  0.6819  1.0560
 7991SOL    MW431738   0.961   3.038   0.600  0.2153  0.1800  0.1361
 7992SOL     OW31739   1.829   3.566   2.746 -1.0841  0.6259 -0.0666
 7992SOL    HW231740   1.750   3.542   2.794 -0.4338 -1.6602 -0.0395
 7992SOL    HW331741   1.810   3.543   2.655 -1.2777  2.3105 -0.4887
 7992SOL    MW431742   1.816   3.560   2.740 -1.0239  0.5465 -0.1188
 7993SOL     OW31743   5.749   3.149   4.226  0.0484  0.5769 -0.0242
 7993SOL    HW231744   5.770   3.123   4.136 -0.2541 -0.7254  0.2564
 7993SOL    HW331745   5.811   3.219   4.245 -0.2655  1.2920 -1.4382
 7993SOL    MW431746   5.760   3.155   4.216 -0.0329  0.4994 -0.1737
 7994SOL     OW31747   1.022   2.777   6.359  0.3917  0.0736 -0.3666
 7994SOL    HW231748   0.932   2.809   6.364  1.2047  2.3322  1.8973
 7994SOL    HW331749   1.055   2.810   6.275 -0.7561 -0.5857 -1.1118
 7994SOL    MW431750   1.015   2.786   6.348  0.3475  0.2846 -0.1662
 7995SOL     OW31751   5.405   6.134   5.920 -0.2375  0.3434 -0.5919
 7995SOL    HW231752   5.391   6.107   6.011 -2.1579 -2.1635 -1.5021
 7995SOL    HW331753   5.325   6.182   5.897  0.6543  1.8178 -0.7388
 7995SOL    MW431754   5.393   6.137   5.929 -0.3732  0.2072 -0.7314
 7996SOL     OW31755   1.713   1.242   3.698  0.0647  0.5825 -0.6735
 7996SOL    HW231756   1.779   1.253   3.629 -1.1788  0.8430 -1.8680
 7996SOL    HW331757   1.709   1.148   3.711  1.1835  0.6032 -0.0534
 7996SOL    MW431758   1.721   1.231   3.691  0.0483  0.6196 -0.7493
 7997SOL     OW31759   5.416   0.506   3.346 -0.5908 -0.0196  1.1797
 7997SOL    HW231760   5.475   0.434   3.324 -1.1855 -1.0921  2.9405
 7997SOL    HW331761   5.474   0.581   3.361  0.0542 -0.1872 -0.3477
 7997SOL    MW431762   5.431   0.507   3.345 -0.5841 -0.1832  1.2105
 7998SOL     OW31763   3.951   5.430   1.659 -0.0119 -0.1767  0.2184
 7998SOL    HW231764   4.021   5.365   1.670 -0.2883 -0.2390  1.9697
 7998SOL    HW331765   3.931   5.458   1.748 -2.0287  0.0687 -0.2750
 7998SOL    MW431766   3.958   5.425   1.672 -0.3144 -0.1525  0.3844
 7999SOL     OW31767   0.119   4.369   1.250 -0.2371  0.4088 -0.0623
 7999SOL    HW231768   0.111   4.363   1.345  1.0563 -0.1351  0.0322
 7999SOL    HW331769   0.185   4.304   1.227 -1.2942 -0.2367 -1.4594
 7999SOL    MW431770   0.126   4.360   1.259 -0.2059  0.2518 -0.2342
 8000SOL     OW31771   2.158   3.171   3.982 -0.0812 -0.0368  0.2147
 8000SOL    HW231772   2.070   3.147   3.953  0.8747 -3.5154 -0.2443
 8000SOL    HW331773   2.191   3.093   4.026  2.5860  1.3510  0.8968
 8000SOL    MW431774   2.151   3.157   3.984  0.3968 -0.3126  0.2441
 8001SOL     OW31775   5.465   5.603   2.494  0.1041  0.5997  0.3763
 8001SOL    HW231776   5.416   5.666   2.546  1.3659  2.0389 -0.1004
 8001SOL    HW331777   5.399   5.544   2.458 -1.4113  2.9795 -0.9794
 8001SOL    MW431778   5.450   5.604   2.496  0.0707  1.1036  0.1345
 8002SOL     OW31779   1.636   2.699   4.040 -0.0625 -0.2209  0.3408
 8002SOL    HW231780   1.674   2.698   3.952  0.9552  2.3892  0.6555
 8002SOL    HW331781   1.675   2.776   4.081 -0.0291 -1.7044  3.3164
 8002SOL    MW431782   1.646   2.709   4.034  0.0762 -0.0722  0.7749
 8003SOL     OW31783   0.956   6.005   6.259  0.4740  0.2077 -0.6173
 8003SOL    HW231784   1.016   6.071   6.293 -0.3342  0.6216  0.0511
 8003SOL    HW331785   0.877   6.055   6.234  0.0411 -0.4393 -0.5699
 8003SOL    MW431786   0.953   6.020   6.260  0.3102  0.1769 -0.5229
 8004SOL     OW31787   4.796   1.943   6.058 -0.2524 -0.4568 -0.8088
 8004SOL    HW231788   4.881   1.901   6.071  0.2663  0.9483  0.5291
 8004SOL    HW331789   4.735   1.889   6.108  0.2041 -0.3413 -0.1139
 8004SOL    MW431790   4.799   1.930   6.066 -0.1237 -0.2562 -0.5406
 8005SOL     OW31791   4.700   4.926   5.192  0.4846  0.2152 -0.6918
 8005SOL    HW231792   4.687   4.961   5.280 -1.5336  2.5997 -1.8090
 8005SOL    HW331793   4.622   4.873   5.176  1.0488 -0.5579 -0.9065
 8005SOL    MW431794   4.688   4.924   5.202  0.2928  0.4278 -0.8675
 8006SOL     OW31795   4.351   2.079   5.477  0.5568 -0.8412  0.2556
 8006SOL    HW231796   4.290   2.123   5.536  0.1277 -2.0804  0.7523
 8006SOL    HW331797   4.430   2.134   5.481 -0.3619  0.5755 -0.1132
 8006SOL    MW431798   4.354   2.092   5.485  0.3790 -0.8178  0.2725
 8007SOL     OW31799   1.349   5.830   1.899  0.7184 -0.3303  0.3599
 8007SOL    HW231800   1.387   5.893   1.837 -1.0030  1.0096  0.6025
 8007SOL    HW331801   1.415   5.761   1.905  3.5196  2.2269  1.4137
 8007SOL    MW431802   1.363   5.829   1.891  0.8608  0.1839  0.5309
 8008SOL     OW31803   5.122   2.827   2.268 -0.0864 -0.6517  0.3065
 8008SOL    HW231804   5.052   2.855   2.328 -1.9072 -2.8732 -0.5860
 8008SOL    HW331805   5.088   2.847   2.181  1.1231 -0.3186 -0.1023
 8008SOL    MW431806   5.108   2.833   2.264 -0.1671 -0.9009  0.1348
 8009SOL     OW31807   3.466   2.259   3.991  0.0579 -0.1673 -0.0145
 8009SOL    HW231808   3.546   2.226   4.033  1.4031  1.9728 -0.7091
 8009SOL    HW331809   3.444   2.192   3.926  1.4105 -0.7197  0.0595
 8009SOL    MW431810   3.474   2.246   3.988  0.4139  0.0422 -0.0964
 8010SOL     OW31811   3.386   4.880   0.506 -0.3881 -0.2249 -0.0146
 8010SOL    HW231812   3.453   4.853   0.442 -0.1414 -0.7559  0.4624
 8010SOL    HW331813   3.436   4.898   0.586 -0.4244  2.3758 -0.4772
 8010SOL    MW431814   3.402   4.879   0.508 -0.3603  0.0482 -0.0127
 8011SOL     OW31815   2.026   1.661   1.986 -0.0585 -0.0712  0.1389
 8011SOL    HW231816   1.935   1.632   1.998 -0.9785  2.5786  0.2634
 8011SOL    HW331817   2.076   1.608   2.048 -1.5511 -1.3716  0.3087
 8011SOL    MW431818   2.021   1.650   1.996 -0.3768  0.1068  0.1777
 8012SOL     OW31819   4.401   0.888   0.509  0.5550  0.3693 -0.4670
 8012SOL    HW231820   4.414   0.804   0.552  2.9784  0.9699  0.0937
 8012SOL    HW331821   4.377   0.948   0.580 -0.9957  0.2272 -0.8389
 8012SOL    MW431822   4.399   0.885   0.524  0.6701  0.4298 -0.4421
 8013SOL     OW31823   0.025   2.513   6.388 -0.1688 -0.1560  0.5579
 8013SOL    HW231824   0.015   2.464   6.306  0.8530  1.3437 -0.5102
 8013SOL    HW331825  -0.063   2.512   6.427 -1.0742  0.4361 -1.3475
 8013SOL    MW431826   0.012   2.506   6.382 -0.1535  0.1200  0.1656
 8014SOL     OW31827   4.001   0.329   4.647 -0.0333 -0.1806  0.5056
 8014SOL    HW231828   4.024   0.270   4.719  1.6918  0.4444  0.5245
 8014SOL    HW331829   4.053   0.407   4.664 -0.0476  0.2000 -1.1187
 8014SOL    MW431830   4.011   0.331   4.659  0.1924 -0.0479  0.2938
 8015SOL     OW31831   0.334   3.012   3.964  0.1753 -0.7096 -0.0893
 8015SOL    HW231832   0.344   3.069   3.888 -1.4833 -0.1861  0.0432
 8015SOL    HW331833   0.291   3.067   4.030 -1.0484 -1.9435  0.2010
 8015SOL    MW431834   0.329   3.027   3.963 -0.2050 -0.8033 -0.0335
 8016SOL     OW31835   6.143   4.223   5.080 -0.1708 -1.1249  0.1171
 8016SOL    HW231836   6.142   4.305   5.030  0.1521 -0.8064  0.6147
 8016SOL    HW331837   6.223   4.178   5.051  0.0701 -0.8938  0.4132
 8016SOL    MW431838   6.154   4.228   5.070 -0.0964 -1.0524  0.2218
 8017SOL     OW31839   4.104   4.535   2.405  0.5560 -1.2221 -0.1211
 8017SOL    HW231840   4.038   4.511   2.470  0.2678 -1.2289 -0.4107
 8017SOL    HW331841   4.173   4.578   2.455  1.5208 -3.4029  0.5402
 8017SOL    MW431842   4.104   4.538   2.420  0.6453 -1.5107 -0.0721
 8018SOL     OW31843   4.891   3.036   4.970 -0.4874  0.0856 -0.2921
 8018SOL    HW231844   4.944   3.079   4.902  0.0805 -0.8257 -0.4533
 8018SOL    HW331845   4.924   2.946   4.972 -1.6311 -0.3433  0.0412
 8018SOL    MW431846   4.903   3.029   4.961 -0.5634 -0.0912 -0.2694
 8019SOL     OW31847   0.450   2.144   5.989 -0.0045  0.0834 -0.1868
 8019SOL    HW231848   0.369   2.177   6.029  0.4212 -0.1148  0.8683
 8019SOL    HW331849   0.520   2.177   6.046  0.5273 -1.3085 -0.0028
 8019SOL    MW431850   0.448   2.153   6.002  0.1219 -0.1264 -0.0233
 8020SOL     OW31851   0.056   4.238   0.370 -0.0463 -0.2299 -0.5010
 8020SOL    HW231852   0.085   4.192   0.292 -1.3309 -1.1372 -0.4845
 8020SOL    HW331853   0.016   4.319   0.337  0.2993 -0.1398 -0.7014
 8020SOL    MW431854   0.055   4.243   0.356 -0.1702 -0.3377 -0.5253
 8021SOL     OW31855   4.880   0.988   2.666  0.3420 -0.0391  0.0455
 8021SOL    HW231856   4.880   1.039   2.585 -0.9063 -1.1247 -0.6861
 8021SOL    HW331857   4.854   1.051   2.734  0.7841  0.7403 -0.4974
 8021SOL    MW431858   4.876   1.003   2.664  0.2356 -0.0795 -0.1227
 8022SOL     OW31859   1.173   5.902   4.355 -0.0202 -0.0439  0.2872
 8022SOL    HW231860   1.266   5.890   4.376  0.3245 -0.2849 -1.2541
 8022SOL    HW331861   1.146   5.819   4.318 -1.1819 -0.3449  1.7133
 8022SOL    MW431862   1.182   5.890   4.353 -0.1280 -0.1154  0.2720
 8023SOL     OW31863   2.679   5.532   5.022 -0.1194 -0.4673 -0.0318
 8023SOL    HW231864   2.633   5.501   4.944  1.5830 -1.3092 -0.7602
 8023SOL    HW331865   2.754   5.581   4.987  0.8044 -1.0508  1.0598
 8023SOL    MW431866   2.683   5.535   5.007  0.2271 -0.6554  0.0161
 8024SOL     OW31867   1.355   6.278   1.961  0.1786  0.1627  0.0423
 8024SOL    HW231868   1.388   6.199   2.005 -0.1411 -0.4222 -0.7331
 8024SOL    HW331869   1.290   6.313   2.021 -1.8105 -1.8128 -0.8193
 8024SOL    MW431870   1.351   6.272   1.975 -0.1260 -0.1751 -0.1737
 8025SOL     OW31871   5.353   0.999   4.197 -0.3609 -0.2427 -0.5944
 8025SOL    HW231872   5.294   0.934   4.160 -1.0637 -0.3361  0.6248
 8025SOL    HW331873   5.297   1.052   4.254  0.4082  0.7387 -0.7247
 8025SOL    MW431874   5.338   0.998   4.200 -0.3521 -0.1255 -0.4507
 8026SOL     OW31875   0.461   3.027   3.421  0.8480  0.0675  0.2653
 8026SOL    HW231876   0.368   3.003   3.431  0.7900 -0.2275 -0.8806
 8026SOL    HW331877   0.461   3.094   3.353  1.5388 -0.3693 -0.1736
 8026SOL    MW431878   0.448   3.033   3.414  0.9315 -0.0290  0.0562
 8027SOL     OW31879   5.686   2.779   2.194 -0.2780  0.1939  0.1556
 8027SOL    HW231880   5.726   2.866   2.192  1.8731 -0.7295 -0.0229
 8027SOL    HW331881   5.691   2.752   2.286 -1.8850  0.6303  0.3979
 8027SOL    MW431882   5.692   2.787   2.206 -0.2062  0.1296  0.1641
 8028SOL     OW31883   6.070   0.983   2.819 -0.1745  0.1531 -0.2361
 8028SOL    HW231884   6.079   0.953   2.910 -0.7345 -1.7551 -0.7715
 8028SOL    HW331885   6.159   0.984   2.785 -0.0075  0.4421  0.2056
 8028SOL    MW431886   6.083   0.979   2.827 -0.2263 -0.0605 -0.2484
 8029SOL     OW31887   1.551   0.734   0.084 -0.0315  0.0899 -0.3612
 8029SOL    HW231888   1.642   0.725   0.057  0.0833  0.3278 -0.0467
 8029SOL    HW331889   1.504   0.671   0.028  0.3376 -0.1210 -0.4378
 8029SOL    MW431890   1.557   0.724   0.073  0.0323  0.0934 -0.3298
 8030SOL     OW31891   6.005   4.867   4.781  0.7065  0.1261  0.5208
 8030SOL    HW231892   6.016   4.961   4.797 -1.9419  0.8277 -1.1578
 8030SOL    HW331893   5.934   4.840   4.839 -2.3057  0.5298 -2.6740
 8030SOL    MW431894   5.997   4.876   4.791 -0.0404  0.2719 -0.1222
 8031SOL     OW31895   2.681   4.671   2.275  0.4668  0.1896 -0.1265
 8031SOL    HW231896   2.589   4.682   2.251 -0.5186 -0.3995  2.9264
 8031SOL    HW331897   2.712   4.600   2.219 -1.1008  0.0097 -0.8230
 8031SOL    MW431898   2.673   4.663   2.265  0.1299  0.0882  0.1844
 8032SOL     OW31899   0.519   3.299   2.510  0.6444  0.1842 -0.5956
 8032SOL    HW231900   0.497   3.311   2.417  1.2200 -1.1894 -0.9302
 8032SOL    HW331901   0.613   3.282   2.511  0.6789  0.3620  0.2750
 8032SOL    MW431902   0.528   3.298   2.498  0.7249  0.0265 -0.5249
 8033SOL     OW31903   0.024   3.713   5.435 -0.4072  0.2275 -0.1727
 8033SOL    HW231904   0.086   3.666   5.379 -0.4615  0.4448 -0.4141
 8033SOL    HW331905  -0.024   3.771   5.376 -0.0347  0.9162  0.1795
 8033SOL    MW431906   0.026   3.714   5.420 -0.3652  0.3470 -0.1581
 8034SOL     OW31907   1.544   3.330   3.143  0.4051 -0.1279  0.3572
 8034SOL    HW231908   1.486   3.353   3.070 -1.1475 -0.4756  1.4261
 8034SOL    HW331909   1.623   3.296   3.101 -0.1134  0.4452 -1.1605
 8034SOL    MW431910   1.547   3.329   3.127  0.1318 -0.0982  0.2980
 8035SOL     OW31911   0.860   1.936   4.809 -0.3487  0.2914 -0.1149
 8035SOL    HW231912   0.927   1.997   4.837 -0.8012  0.3507  0.8664
 8035SOL    HW331913   0.876   1.923   4.716 -0.0040  1.5866 -0.2448
 8035SOL    MW431914   0.871   1.942   4.800 -0.3629  0.4701 -0.0026
 8036SOL     OW31915   4.668   5.088   3.341 -0.6730  0.4891 -0.7018
 8036SOL    HW231916   4.631   5.163   3.389 -0.4060 -1.2569  2.4506
 8036SOL    HW331917   4.613   5.014   3.366  2.2894 -1.3850  0.7320
 8036SOL    MW431918   4.656   5.088   3.350 -0.2470  0.0115 -0.0967
 8037SOL     OW31919   3.366   5.987   2.691  0.3389 -0.7427  0.0768
 8037SOL    HW231920   3.272   5.973   2.687  0.4446 -2.1464  1.3529
 8037SOL    HW331921   3.376   6.080   2.711 -0.7822 -0.6159  0.1213
 8037SOL    MW431922   3.355   5.997   2.693  0.2050 -0.9112  0.2511
 8038SOL     OW31923   5.270   1.326   4.034  0.0053  0.5369  0.0875
 8038SOL    HW231924   5.231   1.331   4.122  0.1412 -0.7436  0.2360
 8038SOL    HW331925   5.218   1.260   3.989  0.4550  0.6050 -0.5343
 8038SOL    MW431926   5.258   1.318   4.040  0.0826  0.3769  0.0251
 8039SOL     OW31927   1.586   6.179   4.803  0.7988 -0.3638 -0.3861
 8039SOL    HW231928   1.514   6.137   4.755  1.2011 -1.2349 -0.2441
 8039SOL    HW331929   1.601   6.122   4.879  0.1326  1.0312  0.8322
 8039SOL    MW431930   1.578   6.166   4.807  0.7640 -0.2947 -0.2066
 8040SOL     OW31931   4.153   3.656   3.258  0.0152  0.1244  0.4266
 8040SOL    HW231932   4.226   3.712   3.233  0.0825  0.0533  0.4656
 8040SOL    HW331933   4.187   3.601   3.328 -0.5471  1.2198  1.6159
 8040SOL    MW431934   4.167   3.657   3.264 -0.0501  0.2596  0.5886
 8041SOL     OW31935   4.262   1.583   2.768 -0.0614 -0.1196  0.4587
 8041SOL    HW231936   4.204   1.582   2.844 -1.7173  0.2925 -0.7330
 8041SOL    HW331937   4.302   1.497   2.767  0.4721  0.0873  2.1362
 8041SOL    MW431938   4.259   1.572   2.778 -0.2095 -0.0379  0.5228
 8042SOL     OW31939   2.658   5.801   2.310  0.3840 -0.0721  0.3199
 8042SOL    HW231940   2.578   5.789   2.361  0.9443 -0.1821  1.2029
 8042SOL    HW331941   2.664   5.722   2.256 -0.4021  0.2078 -0.1780
 8042SOL    MW431942   2.649   5.789   2.310  0.3542 -0.0497  0.3707
 8043SOL     OW31943   1.725   3.600   0.220 -0.2538  0.1449 -0.4108
 8043SOL    HW231944   1.777   3.583   0.141 -0.8169 -0.8746 -0.5922
 8043SOL    HW331945   1.704   3.693   0.216  1.6443  0.6007 -0.2579
 8043SOL    MW431946   1.729   3.610   0.209 -0.0777  0.0705 -0.4145
 8044SOL     OW31947   6.395   4.835   3.522  0.0223  0.3333  0.1882
 8044SOL    HW231948   6.491   4.839   3.520  0.0122  1.0449  0.6572
 8044SOL    HW331949   6.373   4.755   3.476  0.7916  0.9173 -1.2419
 8044SOL    MW431950   6.405   4.825   3.516  0.1224  0.5042  0.0614
 8045SOL     OW31951   0.618   3.918   1.615 -0.4007 -0.3079 -0.5958
 8045SOL    HW231952   0.552   3.856   1.585 -1.0490  0.2624 -0.3656
 8045SOL    HW331953   0.673   3.868   1.676 -2.1047 -0.1678  1.1342
 8045SOL    MW431954   0.617   3.903   1.619 -0.7111 -0.2141 -0.3372
 8046SOL     OW31955   1.689   4.089   0.334 -0.0704 -0.2894 -0.1072
 8046SOL    HW231956   1.765   4.142   0.313 -0.1978 -0.1085 -0.1116
 8046SOL    HW331957   1.683   4.092   0.430 -1.5768  1.8290 -0.1949
 8046SOL    MW431958   1.698   4.096   0.344 -0.2859  0.0140 -0.1194
 8047SOL     OW31959   1.208   6.238   3.828  0.0666 -0.0368 -0.2588
 8047SOL    HW231960   1.231   6.325   3.860 -1.7927 -0.0800  1.4360
 8047SOL    HW331961   1.291   6.190   3.825  0.6727  0.5858  2.8239
 8047SOL    MW431962   1.222   6.243   3.832 -0.0988  0.0397  0.3715
 8048SOL     OW31963   6.248   0.812   4.792 -0.5162 -0.6648 -0.1777
 8048SOL    HW231964   6.301   0.842   4.719 -0.2813  0.4699  0.4323
 8048SOL    HW331965   6.208   0.892   4.827 -0.5550 -1.1638  0.9743
 8048SOL    MW431966   6.250   0.827   4.787 -0.4903 -0.5809  0.0547
 8049SOL     OW31967   2.237   2.032   2.382 -0.4207 -0.0241  0.3444
 8049SOL    HW231968   2.312   2.016   2.439 -0.8615 -2.6112  0.3152
 8049SOL    HW331969   2.266   2.006   2.295 -1.4266 -1.5073  0.4121
 8049SOL    MW431970   2.250   2.027   2.378 -0.6116 -0.5611  0.3495
 8050SOL     OW31971   3.292   5.192   3.894  0.1816  0.6082  0.3088
 8050SOL    HW231972   3.227   5.168   3.959  0.7811  0.4460  0.8594
 8050SOL    HW331973   3.251   5.262   3.843 -0.9584 -0.4353 -0.2650
 8050SOL    MW431974   3.278   5.198   3.896  0.1102  0.4492  0.3058
 8051SOL     OW31975   3.667   2.057   5.984  0.1749  0.1491  0.4742
 8051SOL    HW231976   3.650   1.963   5.986 -2.6570  0.6072  1.8447
 8051SOL    HW331977   3.656   2.081   5.892 -0.9670 -0.5905  0.3991
 8051SOL    MW431978   3.664   2.048   5.972 -0.3494  0.1119  0.6451
 8052SOL     OW31979   0.320   4.211   5.402 -0.0147 -0.0217  0.0702
 8052SOL    HW231980   0.278   4.222   5.487 -2.4473  0.3991 -1.1032
 8052SOL    HW331981   0.371   4.291   5.390 -1.0963  0.7361  0.3817
 8052SOL    MW431982   0.322   4.223   5.412 -0.4784  0.1338 -0.0435
 8053SOL     OW31983   2.710   1.212   5.328  0.2756 -0.4613 -0.1855
 8053SOL    HW231984   2.672   1.152   5.392 -0.1779 -1.2628 -1.1887
 8053SOL    HW331985   2.656   1.202   5.250  0.9355  0.3590 -0.7664
 8053SOL    MW431986   2.698   1.203   5.326  0.3028 -0.4588 -0.3945
 8054SOL     OW31987   1.430   0.691   4.198  0.2930  0.1712 -0.6237
 8054SOL    HW231988   1.450   0.771   4.149  0.2146  0.0334 -0.8849
 8054SOL    HW331989   1.516   0.658   4.226  0.5790 -0.9516 -2.5910
 8054SOL    MW431990   1.444   0.697   4.195  0.3204  0.0049 -0.9177
 8055SOL     OW31991   4.003   0.166   2.278 -0.2947 -0.4547 -0.6268
 8055SOL    HW231992   4.040   0.120   2.203  2.4573 -0.5176  0.6398
 8055SOL    HW331993   4.074   0.221   2.310 -2.0115  1.1241  0.7556
 8055SOL    MW431994   4.017   0.167   2.272 -0.1581 -0.2547 -0.2773
 8056SOL     OW31995   6.286   4.309   4.025  0.5626  0.3041  0.6757
 8056SOL    HW231996   6.204   4.273   4.058  0.7025 -0.3870  0.2930
 8056SOL    HW331997   6.320   4.362   4.097  1.1197 -1.5771  1.8609
 8056SOL    MW431998   6.280   4.312   4.039  0.6546 -0.0353  0.7816
 8057SOL     OW31999   6.366   0.076   6.222 -0.3044  0.2545  0.4728
 8057SOL    HW232000   6.410   0.158   6.243  1.1303 -0.2844 -0.2877
 8057SOL    HW332001   6.390   0.059   6.131 -1.7556 -0.2995  0.1660
 8057SOL    MW432002   6.375   0.085   6.213 -0.3066  0.1103  0.3320
 8058SOL     OW32003   6.173   6.202   1.339 -0.3684  0.2269 -0.5182
 8058SOL    HW232004   6.113   6.251   1.283 -0.2802 -0.4029 -1.1888
 8058SOL    HW332005   6.118   6.165   1.408 -0.7159 -0.0937 -0.9542
 8058SOL    MW432006   6.158   6.203   1.341 -0.4026  0.1015 -0.6642
 8059SOL     OW32007   0.692   0.634   0.671  0.1535 -1.0212 -0.0424
 8059SOL    HW232008   0.627   0.688   0.715  1.1976 -0.7037  1.1788
 8059SOL    HW332009   0.745   0.695   0.621  0.6745 -1.0235  0.4904
 8059SOL    MW432010   0.691   0.649   0.670  0.3600 -0.9796  0.1890
 8060SOL     OW32011   0.601   0.873   3.842 -0.4600  0.2952  0.1522
 8060SOL    HW232012   0.681   0.831   3.874  0.8303  0.7586 -2.2374
 8060SOL    HW332013   0.624   0.965   3.834 -2.2164  1.0035  2.1620
 8060SOL    MW432014   0.615   0.879   3.845 -0.5215  0.4498  0.1021
 8061SOL     OW32015   1.046   4.171   1.633 -0.2368 -0.2390  0.6843
 8061SOL    HW232016   1.037   4.176   1.728  0.0200  0.2673  0.6856
 8061SOL    HW332017   1.137   4.145   1.618 -0.7433 -2.1024  0.6041
 8061SOL    MW432018   1.057   4.168   1.643 -0.2697 -0.4180  0.6739
 8062SOL     OW32019   3.163   5.884   1.940 -0.2514 -0.5925  0.2517
 8062SOL    HW232020   3.229   5.819   1.965 -0.3195 -0.3766  1.0304
 8062SOL    HW332021   3.159   5.880   1.844  1.3867 -0.1260  0.1351
 8062SOL    MW432022   3.171   5.875   1.931 -0.0443 -0.5025  0.3391
 8063SOL     OW32023   1.921   1.937   3.228 -0.0902 -0.4999  0.6492
 8063SOL    HW232024   1.989   1.999   3.201 -0.1259 -0.8973 -0.3932
 8063SOL    HW332025   1.961   1.888   3.300  0.0955  0.4215  1.1959
 8063SOL    MW432026   1.935   1.939   3.234 -0.0704 -0.4308  0.5838
 8064SOL     OW32027   4.313   1.004   0.774 -0.4126 -0.0537 -0.2913
 8064SOL    HW232028   4.356   1.083   0.808 -1.0735  0.4850 -0.6827
 8064SOL    HW332029   4.324   0.939   0.844  0.3050  0.3217 -0.0436
 8064SOL    MW432030   4.321   1.006   0.788 -0.4051  0.0669 -0.3102
 8065SOL     OW32031   2.824   4.371   0.949 -0.1480  0.1783 -0.2178
 8065SOL    HW232032   2.815   4.292   0.896  0.0809 -0.0032  0.0110
 8065SOL    HW332033   2.743   4.377   0.999  0.9278 -1.4752  1.8807
 8065SOL    MW432034   2.812   4.361   0.949  0.0242 -0.0638  0.0893
 8066SOL     OW32035   5.989   1.186   3.901  0.0032  0.4631 -0.1324
 8066SOL    HW232036   5.994   1.266   3.848  0.0823  0.1898 -0.5393
 8066SOL    HW332037   5.906   1.146   3.876 -0.0800  0.4620  0.1411
 8066SOL    MW432038   5.978   1.191   3.891  0.0027  0.4269 -0.1500
 8067SOL     OW32039   1.245   2.948   0.405  0.2533 -0.1985 -0.0598
 8067SOL    HW232040   1.286   2.993   0.331 -2.0101  2.7098  0.2780
 8067SOL    HW332041   1.164   2.911   0.369  0.7176 -1.6692  0.3205
 8067SOL    MW432042   1.240   2.949   0.390  0.0159 -0.0088  0.0350
 8068SOL     OW32043   3.092   2.249   2.119 -0.4749  0.3407 -0.1243
 8068SOL    HW232044   3.111   2.340   2.094  1.0954  0.1609  0.3053
 8068SOL    HW332045   3.072   2.255   2.213 -1.9646  0.4226 -0.4156
 8068SOL    MW432046   3.092   2.262   2.128 -0.4642  0.3278 -0.1061
 8069SOL     OW32047   1.786   1.695   5.347 -0.3307  0.2418 -0.0533
 8069SOL    HW232048   1.875   1.728   5.331 -0.2981  0.6968  0.9775
 8069SOL    HW332049   1.763   1.730   5.433 -1.1625 -0.6289  0.0923
 8069SOL    MW432050   1.795   1.704   5.357 -0.4361  0.1870  0.1019
 8070SOL     OW32051   0.719   4.656   6.053  0.6848 -0.0013 -0.0190
 8070SOL    HW232052   0.719   4.584   6.116  0.4353 -0.2025 -0.2431
 8070SOL    HW332053   0.810   4.682   6.046  0.5520  0.9568  1.4727
 8070SOL    MW432054   0.731   4.650   6.060  0.6344  0.0986  0.1482
 8071SOL     OW32055   4.434   1.015   5.961  0.3950  0.3719  0.3232
 8071SOL    HW232056   4.384   0.998   5.881  3.5550  0.9193 -1.9791
 8071SOL    HW332057   4.503   0.948   5.960  0.1119 -0.0582  3.0556
 8071SOL    MW432058   4.437   1.004   5.950  0.7746  0.3874  0.3799
 8072SOL     OW32059   2.608   0.438   2.788 -0.1996  0.3185  0.2816
 8072SOL    HW232060   2.529   0.471   2.831 -0.0350 -1.4068  2.0723
 8072SOL    HW332061   2.607   0.477   2.701 -2.6573  0.8858  0.5004
 8072SOL    MW432062   2.598   0.447   2.782 -0.5021  0.1657  0.5468
 8073SOL     OW32063   3.177   4.163   0.301  0.1364 -0.0962 -0.0571
 8073SOL    HW232064   3.213   4.250   0.286  1.9021 -0.4023  1.8812
 8073SOL    HW332065   3.145   4.135   0.215  0.3811  2.0633 -0.9172
 8073SOL    MW432066   3.178   4.171   0.288  0.4016  0.1483  0.0852
 8074SOL     OW32067   0.158   1.043   1.692  0.2921  0.3296  0.1510
 8074SOL    HW232068   0.216   1.059   1.767  1.0037 -1.2686 -0.0180
 8074SOL    HW332069   0.212   1.064   1.616 -0.2743  1.4817  0.0480
 8074SOL    MW432070   0.173   1.048   1.692  0.3112  0.2707  0.1151
 8075SOL     OW32071   0.277   2.595   6.170 -0.6662 -0.1173 -0.4251
 8075SOL    HW232072   0.359   2.594   6.123  0.6802  0.8042  1.7543
 8075SOL    HW332073   0.212   2.624   6.106  0.9041  0.3780 -1.8523
 8075SOL    MW432074   0.279   2.598   6.156 -0.2814  0.0696 -0.3259
 8076SOL     OW32075   4.976   5.348   4.227 -0.6051  0.0169 -0.2449
 8076SOL    HW232076   4.915   5.371   4.157  0.9268  2.2293 -0.9360
 8076SOL    HW332077   4.922   5.345   4.306 -2.1559 -1.3956 -1.2760
 8076SOL    MW432078   4.961   5.350   4.228 -0.6076  0.1224 -0.4722
 8077SOL     OW32079   5.418   3.513   3.226 -0.4806 -0.1388 -0.0759
 8077SOL    HW232080   5.476   3.437   3.233 -0.4757 -0.0834  0.5730
 8077SOL    HW332081   5.468   3.577   3.176 -0.1559 -0.2578  0.0908
 8077SOL    MW432082   5.432   3.512   3.221 -0.4371 -0.1472  0.0317
 8078SOL     OW32083   5.146   3.595   5.468 -0.2141  0.0512  0.1516
 8078SOL    HW232084   5.052   3.613   5.478 -0.0911  0.2793  1.0484
 8078SOL    HW332085   5.171   3.554   5.551  0.8541  1.7073  0.6942
 8078SOL    MW432086   5.137   3.592   5.481 -0.0569  0.2998  0.3415
 8079SOL     OW32087   3.868   5.331   2.007 -0.5126 -0.5065  0.1417
 8079SOL    HW232088   3.884   5.409   1.954  1.1802 -0.3087  0.8798
 8079SOL    HW332089   3.825   5.364   2.085 -1.2353 -0.5420 -0.2314
 8079SOL    MW432090   3.865   5.345   2.010 -0.3846 -0.4851  0.1899
 8080SOL     OW32091   0.817   1.076   4.593 -0.5300 -0.1725  0.1330
 8080SOL    HW232092   0.743   1.103   4.540  0.1482 -0.4428 -0.9901
 8080SOL    HW332093   0.862   1.157   4.616 -1.3302  0.0169  1.0846
 8080SOL    MW432094   0.814   1.090   4.589 -0.5461 -0.1832  0.1104
 8081SOL     OW32095   3.920   0.506   4.162  0.0606  0.6227 -0.0595
 8081SOL    HW232096   3.986   0.468   4.103 -1.4777 -0.5276 -1.0895
 8081SOL    HW332097   3.966   0.579   4.204  1.9252  0.0032 -0.9133
 8081SOL    MW432098   3.935   0.511   4.160  0.1036  0.3892 -0.3080
 8082SOL     OW32099   1.153   3.500   6.226  0.0702 -0.2859  0.0468
 8082SOL    HW232100   1.176   3.569   6.165  1.8765 -0.4398  0.4797
 8082SOL    HW332101   1.097   3.542   6.291 -1.7336 -0.0818 -1.5605
 8082SOL    MW432102   1.149   3.514   6.227  0.0706 -0.2793 -0.1082
 8083SOL     OW32103   4.806   3.229   4.534 -0.2795  0.4430 -0.3465
 8083SOL    HW232104   4.873   3.295   4.551  1.5050 -0.8707 -1.8852
 8083SOL    HW332105   4.728   3.279   4.509  0.6898  1.9581 -0.4092
 8083SOL    MW432106   4.804   3.244   4.533  0.0839  0.4695 -0.5578
 8084SOL     OW32107   4.981   5.586   2.936  0.3183  0.1100  0.6100
 8084SOL    HW232108   4.903   5.563   2.987 -0.1327 -0.7272 -0.4031
 8084SOL    HW332109   5.037   5.634   2.997  0.1816 -1.5593  2.1438
 8084SOL    MW432110   4.978   5.589   2.951  0.2408 -0.2207  0.6787
 8085SOL     OW32111   1.108   6.059   4.133  0.5089 -0.6762  0.0506
 8085SOL    HW232112   1.168   6.127   4.101 -0.9647 -0.2213 -1.9535
 8085SOL    HW332113   1.158   6.012   4.199  2.7802  0.2078 -0.9336
 8085SOL    MW432114   1.123   6.062   4.137  0.6141 -0.4995 -0.3437
 8086SOL     OW32115   4.183   3.003   5.134  0.0718 -0.0610 -0.0536
 8086SOL    HW232116   4.225   2.931   5.182 -0.1836 -1.9168 -2.3825
 8086SOL    HW332117   4.256   3.054   5.099  0.2714  0.3127  0.8874
 8086SOL    MW432118   4.198   3.000   5.135  0.0645 -0.2566 -0.2367
 8087SOL     OW32119   4.425   4.841   1.935  0.1489 -0.4175  0.5627
 8087SOL    HW232120   4.454   4.912   1.992  0.4580 -0.6068  0.6457
 8087SOL    HW332121   4.337   4.818   1.966 -0.0639  0.1139  0.3577
 8087SOL    MW432122   4.417   4.847   1.946  0.1616 -0.3724  0.5466
 8088SOL     OW32123   5.216   5.362   3.863  0.1933 -0.2293 -0.0387
 8088SOL    HW232124   5.194   5.385   3.772  1.9039 -0.7634 -0.6308
 8088SOL    HW332125   5.302   5.321   3.857 -0.0942 -1.1920  1.7260
 8088SOL    MW432126   5.225   5.359   3.850  0.3810 -0.4268  0.1160
 8089SOL     OW32127   0.039   0.327   6.303  0.0566  0.1158 -0.1827
 8089SOL    HW232128   0.024   0.407   6.252 -3.5183 -0.0570  0.3672
 8089SOL    HW332129   0.017   0.351   6.393 -1.0478 -1.4514 -0.0057
 8089SOL    MW432130   0.034   0.341   6.308 -0.5608 -0.1138 -0.0868
 8090SOL     OW32131   0.729   0.491   2.188  0.3797  0.4061 -0.5522
 8090SOL    HW232132   0.774   0.567   2.224 -0.8155  0.1281  1.6903
 8090SOL    HW332133   0.800   0.432   2.162  1.4944 -0.3494  3.5642
 8090SOL    MW432134   0.744   0.493   2.189  0.3691  0.2698  0.2868
 8091SOL     OW32135   5.962   3.859   2.636  0.5958 -0.1397 -0.6570
 8091SOL    HW232136   5.899   3.847   2.707 -0.6658  0.0644 -1.6942
 8091SOL    HW332137   6.046   3.833   2.673 -0.3988 -2.3742  0.1926
 8091SOL    MW432138   5.965   3.854   2.650  0.2981 -0.4076 -0.6818
 8092SOL     OW32139   4.532   2.832   4.544 -0.6457  0.0101 -0.0608
 8092SOL    HW232140   4.479   2.764   4.501  0.2622 -1.3291  0.8350
 8092SOL    HW332141   4.540   2.901   4.479 -0.0574 -1.5483 -1.7377
 8092SOL    MW432142   4.526   2.832   4.529 -0.4483 -0.3722 -0.1638
 8093SOL     OW32143   0.312   2.580   0.398  0.2732  0.3164  0.4453
 8093SOL    HW232144   0.241   2.553   0.340  2.5583 -0.3716 -2.2625
 8093SOL    HW332145   0.332   2.502   0.450 -0.3975  0.2888  0.6757
 8093SOL    MW432146   0.305   2.566   0.398  0.4862  0.2219  0.1184
 8094SOL     OW32147   5.904   2.326   1.738  0.2389  0.0681  0.0606
 8094SOL    HW232148   5.886   2.419   1.748  2.2380  0.3970  1.1984
 8094SOL    HW332149   5.979   2.322   1.679  1.1157 -0.6842  1.1666
 8094SOL    MW432150   5.912   2.337   1.732  0.6183  0.0122  0.3567
 8095SOL     OW32151   3.423   3.414   3.715 -0.5363  0.1224 -0.5240
 8095SOL    HW232152   3.435   3.502   3.750 -0.7858  0.4956 -1.3388
 8095SOL    HW332153   3.506   3.369   3.733 -0.4275  0.5023 -0.0617
 8095SOL    MW432154   3.436   3.419   3.722 -0.5548  0.2217 -0.5705
 8096SOL     OW32155   4.229   2.324   1.689 -0.1262  0.3537  0.2015
 8096SOL    HW232156   4.238   2.228   1.695 -0.5739  0.2216 -1.0565
 8096SOL    HW332157   4.317   2.354   1.665 -0.2913  0.1217 -0.7309
 8096SOL    MW432158   4.242   2.315   1.687 -0.2070  0.3056 -0.0875
 8097SOL     OW32159   5.754   1.929   1.663  0.2907  0.1979  0.0770
 8097SOL    HW232160   5.800   1.845   1.672 -1.3206 -0.7796 -0.2372
 8097SOL    HW332161   5.713   1.924   1.576 -0.2917  1.0643  0.2903
 8097SOL    MW432162   5.754   1.917   1.652  0.0013  0.1832  0.0637
 8098SOL     OW32163   5.821   3.248   2.862  0.6630 -0.2261 -0.3074
 8098SOL    HW232164   5.855   3.334   2.888  1.1093 -0.7378  0.9013
 8098SOL    HW332165   5.745   3.268   2.809  1.4897  0.9306 -1.1186
 8098SOL    MW432166   5.816   3.262   2.859  0.8309 -0.1410 -0.2550
 8099SOL     OW32167   3.334   5.929   5.876 -0.1432  0.6634 -0.3786
 8099SOL    HW232168   3.334   5.880   5.794 -0.7052 -0.3804  0.2249
 8099SOL    HW332169   3.422   5.965   5.882  0.7235 -1.3235 -0.2552
 8099SOL    MW432170   3.345   5.927   5.866 -0.1030  0.2635 -0.2827
 8100SOL     OW32171   5.226   0.257   3.011 -0.4533  0.3055 -0.4820
 8100SOL    HW232172   5.140   0.268   3.052  0.2962 -0.2857  1.3902
 8100SOL    HW332173   5.262   0.346   3.006  0.0010  0.2991  1.5940
 8100SOL    MW432174   5.220   0.270   3.016 -0.2944  0.2267  0.0389
 8101SOL     OW32175   1.625   3.075   5.314 -0.4994  0.1223 -0.0806
 8101SOL    HW232176   1.674   3.011   5.366  1.2661  1.7240  0.3488
 8101SOL    HW332177   1.676   3.156   5.321 -1.1397  0.8787 -2.8890
 8101SOL    MW432178   1.638   3.078   5.322 -0.3510  0.4334 -0.3945
 8102SOL     OW32179   6.200   6.134   1.885 -0.1092  0.1403 -0.5355
 8102SOL    HW232180   6.220   6.048   1.922 -0.0859 -0.4625 -1.8900
 8102SOL    HW332181   6.283   6.181   1.888  0.0084 -0.0777 -0.2860
 8102SOL    MW432182   6.213   6.129   1.890 -0.0906  0.0320 -0.6813
 8103SOL     OW32183   3.981   0.359   1.201 -0.5007  0.0363 -0.5709
 8103SOL    HW232184   4.025   0.275   1.193  0.0982  0.4548 -2.0609
 8103SOL    HW332185   4.051   0.421   1.219 -0.9160  0.2512  0.3544
 8103SOL    MW432186   3.996   0.356   1.202 -0.4765  0.1198 -0.6454
 8104SOL     OW32187   5.283   4.008   6.367 -0.4639 -0.7794  0.2469
 8104SOL    HW232188   5.286   3.962   6.283 -0.3534 -0.3616  0.0205
 8104SOL    HW332189   5.350   4.076   6.359 -0.2036 -0.9682  0.8082
 8104SOL    MW432190   5.292   4.011   6.355 -0.4150 -0.7492  0.2911
 8105SOL     OW32191   4.153   3.948   4.805  0.1052  0.0950 -0.1305
 8105SOL    HW232192   4.106   3.889   4.864 -0.7118  1.9934  1.2194
 8105SOL    HW332193   4.155   3.901   4.722 -3.0179 -0.6999  0.0897
 8105SOL    MW432194   4.147   3.934   4.802 -0.4146  0.2406  0.0767
 8106SOL     OW32195   4.697   6.252   0.170 -0.1476 -0.0594 -0.4272
 8106SOL    HW232196   4.717   6.336   0.130 -0.6265  1.7486  2.7754
 8106SOL    HW332197   4.612   6.226   0.133 -1.0365  1.9849  0.0593
 8106SOL    MW432198   4.688   6.259   0.160 -0.3281  0.4489  0.0595
 8107SOL     OW32199   6.190   4.257   0.570  0.3616 -0.5211 -0.0689
 8107SOL    HW232200   6.100   4.278   0.596  0.7656  1.5022 -0.1290
 8107SOL    HW332201   6.181   4.195   0.498 -0.9274 -1.4948  0.8914
 8107SOL    MW432202   6.177   4.251   0.564  0.2448 -0.3826  0.0499
 8108SOL     OW32203   5.144   1.506   1.704  0.0418 -0.3015  0.4149
 8108SOL    HW232204   5.125   1.451   1.780  0.3827 -0.6116  0.2772
 8108SOL    HW332205   5.094   1.466   1.633  0.5573 -0.6337  0.2375
 8108SOL    MW432206   5.135   1.494   1.705  0.1548 -0.3862  0.3734
 8109SOL     OW32207   1.990   3.059   1.022  0.2334 -0.0149 -0.3731
 8109SOL    HW232208   1.915   3.048   1.081  0.0323  0.6253 -0.5044
 8109SOL    HW332209   2.027   3.143   1.047 -1.0369  1.2332 -2.4788
 8109SOL    MW432210   1.985   3.068   1.033  0.0392  0.2343 -0.6683
 8110SOL     OW32211   4.832   6.243   0.413 -0.7840 -0.0449 -0.3572
 8110SOL    HW232212   4.814   6.171   0.473 -2.7534  0.1901 -0.5835
 8110SOL    HW332213   4.768   6.231   0.342 -0.3631  1.2546 -0.9847
 8110SOL    MW432214   4.821   6.232   0.412 -0.9883  0.1576 -0.4698
 8111SOL     OW32215   0.160   3.109   4.185  0.1087  0.8166  0.2443
 8111SOL    HW232216   0.109   3.144   4.113 -1.2690 -2.2717 -0.4325
 8111SOL    HW332217   0.112   3.134   4.264  0.0660  1.7739 -0.0828
 8111SOL    MW432218   0.147   3.117   4.186 -0.0787  0.5354  0.1118
 8112SOL     OW32219   3.628   4.562   5.868 -0.0800 -0.1546 -0.3672
 8112SOL    HW232220   3.578   4.642   5.885  0.7069  0.4983 -1.0061
 8112SOL    HW332221   3.633   4.518   5.953  0.2476  0.9304  0.1901
 8112SOL    MW432222   3.622   4.567   5.881  0.0671  0.0747 -0.3780
 8113SOL     OW32223   3.501   4.875   1.498 -0.0201 -0.2320  0.2246
 8113SOL    HW232224   3.456   4.877   1.413 -2.1768  0.8637  1.3227
 8113SOL    HW332225   3.593   4.888   1.476 -0.7618  2.4434 -1.8255
 8113SOL    MW432226   3.507   4.877   1.484 -0.4025  0.2656  0.0990
 8114SOL     OW32227   0.682   5.531   1.789  0.0749 -0.2128 -0.0468
 8114SOL    HW232228   0.636   5.507   1.709  1.1542 -1.1407 -0.4187
 8114SOL    HW332229   0.764   5.482   1.785  1.1178  1.3823  0.5739
 8114SOL    MW432230   0.687   5.521   1.778  0.3549 -0.1248 -0.0139
 8115SOL     OW32231   2.217   2.292   3.355 -0.5292 -0.5609  0.1509
 8115SOL    HW232232   2.183   2.219   3.407  0.1170 -0.1484  1.2021
 8115SOL    HW332233   2.309   2.270   3.341 -0.3656 -0.0259  0.3493
 8115SOL    MW432234   2.225   2.279   3.360 -0.4223 -0.4359  0.3158
 8116SOL     OW32235   5.336   1.204   5.548 -0.3204  0.2193  0.2925
 8116SOL    HW232236   5.360   1.223   5.457 -1.4377  1.9317  0.3053
 8116SOL    HW332237   5.282   1.125   5.542  0.9427 -0.6347 -0.3092
 8116SOL    MW432238   5.332   1.196   5.535 -0.3012  0.3325  0.2148
 8117SOL     OW32239   0.521   0.556   6.113  0.4141 -0.2885 -0.2971
 8117SOL    HW232240   0.490   0.466   6.120 -0.5269  0.1158  1.1628
 8117SOL    HW332241   0.512   0.592   6.202  2.9389  0.5636 -0.3054
 8117SOL    MW432242   0.516   0.549   6.126  0.6231 -0.1227 -0.1056
 8118SOL     OW32243   2.300   3.286   0.903  0.4060 -0.2808  0.3160
 8118SOL    HW232244   2.246   3.259   0.977 -2.2647  1.7452 -0.7323
 8118SOL    HW332245   2.362   3.213   0.891 -1.5300 -2.3949  2.1433
 8118SOL    MW432246   2.301   3.273   0.911 -0.2018 -0.2924  0.4188
 8119SOL     OW32247   2.084   1.734   4.025 -0.0765  0.1465 -0.2122
 8119SOL    HW232248   2.069   1.651   3.979  0.7251  0.1171 -0.4441
 8119SOL    HW332249   2.002   1.782   4.016 -0.5541 -0.6216 -0.0676
 8119SOL    MW432250   2.072   1.729   4.018 -0.0337  0.0413 -0.2237
 8120SOL     OW32251   5.758   1.609   2.955  0.2717  0.5122 -0.1271
 8120SOL    HW232252   5.803   1.636   2.875 -0.1633  1.8238  0.0478
 8120SOL    HW332253   5.692   1.546   2.925  1.9223 -1.2091 -0.4258
 8120SOL    MW432254   5.755   1.604   2.940  0.4321  0.4581 -0.1435
 8121SOL     OW32255   3.194   1.389   5.089 -0.3284 -0.0996  0.5726
 8121SOL    HW232256   3.250   1.360   5.161  0.4073 -1.9269 -0.6525
 8121SOL    HW332257   3.138   1.314   5.070 -0.9231  0.5590 -0.3623
 8121SOL    MW432258   3.194   1.375   5.096 -0.3098 -0.2538  0.2876
 8122SOL     OW32259   3.434   3.951   3.238 -0.3168  0.2232  0.7049
 8122SOL    HW232260   3.465   3.902   3.314  0.2819  0.7681  0.8142
 8122SOL    HW332261   3.414   3.884   3.173 -0.1017 -0.2001  1.0731
 8122SOL    MW432262   3.435   3.936   3.239 -0.2094  0.2393  0.7679
 8123SOL     OW32263   6.098   1.781   4.427 -0.5663 -0.1063  0.1302
 8123SOL    HW232264   6.003   1.791   4.425 -0.7177 -1.1050  0.9675
 8123SOL    HW332265   6.127   1.806   4.340 -1.7448 -1.0709 -0.5699
 8123SOL    MW432266   6.089   1.785   4.415 -0.7417 -0.3653  0.1483
 8124SOL     OW32267   5.131   3.321   2.313 -0.0136 -0.3342  0.2124
 8124SOL    HW232268   5.208   3.278   2.276  0.0278 -0.7374  0.7517
 8124SOL    HW332269   5.058   3.289   2.259  0.2066  0.1362 -0.3687
 8124SOL    MW432270   5.132   3.311   2.301  0.0209 -0.3253  0.2069
 8125SOL     OW32271   2.703   3.713   4.058  0.3277  0.1586 -0.2640
 8125SOL    HW232272   2.741   3.798   4.034 -0.9922  0.3643 -1.7806
 8125SOL    HW332273   2.754   3.685   4.134  0.4044  2.6024  0.6833
 8125SOL    MW432274   2.715   3.721   4.065  0.1636  0.5082 -0.3391
 8126SOL     OW32275   3.646   4.391   5.277 -0.5124 -0.4637 -0.4213
 8126SOL    HW232276   3.622   4.300   5.261 -0.7249 -0.2152 -1.5854
 8126SOL    HW332277   3.607   4.412   5.362 -0.1623 -1.5527  0.0252
 8126SOL    MW432278   3.638   4.382   5.286 -0.4942 -0.5746 -0.5160
 8127SOL     OW32279   6.076   3.711   3.786  0.2848 -0.2011  0.1314
 8127SOL    HW232280   6.040   3.704   3.874 -1.4163  0.4261 -0.4610
 8127SOL    HW332281   6.015   3.661   3.731  0.7878  0.1764 -0.8074
 8127SOL    MW432282   6.063   3.703   3.790  0.1267 -0.0685 -0.0706
 8128SOL     OW32283   3.821   0.462   0.731 -0.1078  0.0131 -0.0201
 8128SOL    HW232284   3.838   0.399   0.801 -0.7259  2.1978  2.2166
 8128SOL    HW332285   3.892   0.446   0.668  0.6196 -1.8751  1.1764
 8128SOL    MW432286   3.833   0.451   0.732 -0.0933  0.0522  0.4329
 8129SOL     OW32287   0.000   0.381   1.078 -0.0864 -0.1441 -0.1356
 8129SOL    HW232288   0.002   0.290   1.049  1.4340 -0.9251  2.1621
 8129SOL    HW332289   0.068   0.387   1.144 -0.1883  2.6818 -0.1520
 8129SOL    MW432290   0.009   0.370   1.083  0.1008  0.1257  0.1654
 8130SOL     OW32291   5.269   5.825   3.322 -0.0310  0.4318  0.5458
 8130SOL    HW232292   5.345   5.849   3.268  0.1310  1.6710  1.2851
 8130SOL    HW332293   5.215   5.905   3.323 -3.1635 -1.2932 -2.7974
 8130SOL    MW432294   5.272   5.839   3.315 -0.4229  0.3677  0.2023
 8131SOL     OW32295   1.472   0.649   3.117  0.2045  0.5782  0.5963
 8131SOL    HW232296   1.419   0.689   3.049 -0.8662 -1.3552  0.2002
 8131SOL    HW332297   1.555   0.696   3.115 -0.5261  1.8677 -0.6658
 8131SOL    MW432298   1.476   0.660   3.108 -0.0331  0.4932  0.3775
 8132SOL     OW32299   3.466   0.754   3.834  0.3846 -0.6449  0.5615
 8132SOL    HW232300   3.451   0.844   3.865  0.9462  0.0888 -1.1578
 8132SOL    HW332301   3.496   0.707   3.912 -2.2000  0.0031  2.0628
 8132SOL    MW432302   3.468   0.760   3.849  0.1177 -0.4626  0.5327
 8133SOL     OW32303   4.935   2.578   4.764  0.1955 -0.0194  0.6111
 8133SOL    HW232304   4.989   2.635   4.710 -0.3488 -1.4012 -1.4950
 8133SOL    HW332305   4.870   2.636   4.803  0.3390  0.9677 -0.5691
 8133SOL    MW432306   4.934   2.593   4.762  0.1426 -0.0715  0.1775
 8134SOL     OW32307   2.288   3.112   6.104  0.3159 -0.1776  0.4236
 8134SOL    HW232308   2.205   3.064   6.103  0.9545 -1.2849  0.1362
 8134SOL    HW332309   2.333   3.085   6.025 -0.2618  2.6568 -0.9955
 8134SOL    MW432310   2.283   3.102   6.094  0.3240  0.0503  0.1984
 8135SOL     OW32311   0.992   4.648   2.855 -0.1632  0.1120  0.2617
 8135SOL    HW232312   1.035   4.570   2.890  0.5669  0.4773  0.1911
 8135SOL    HW332313   1.054   4.719   2.872 -1.2280  0.8583  1.2292
 8135SOL    MW432314   1.006   4.648   2.862 -0.2073  0.2586  0.3800
 8136SOL     OW32315   6.202   2.261   4.079 -0.0443  0.1580  0.3169
 8136SOL    HW232316   6.229   2.350   4.100  0.5335  0.5457 -1.8329
 8136SOL    HW332317   6.284   2.217   4.052 -0.8689  0.3521 -2.9922
 8136SOL    MW432318   6.217   2.267   4.078 -0.0768  0.2348 -0.4033
 8137SOL     OW32319   0.125   4.188   0.118 -0.6833  0.0514 -0.4507
 8137SOL    HW232320   0.043   4.173   0.071 -0.2931 -1.7453 -0.6188
 8137SOL    HW332321   0.166   4.102   0.123  2.8704  1.3161 -3.4379
 8137SOL    MW432322   0.120   4.174   0.112 -0.1630 -0.0188 -0.8670
 8138SOL     OW32323   4.367   6.268   4.667  0.5652 -0.1916 -0.0917
 8138SOL    HW232324   4.452   6.291   4.705  0.3004  0.7732 -0.0720
 8138SOL    HW332325   4.387   6.196   4.607  1.0842 -1.3754  1.4291
 8138SOL    MW432326   4.381   6.262   4.664  0.5987 -0.2205  0.1116
 8139SOL     OW32327   5.429   0.353   4.592  0.4956  0.0961  0.3191
 8139SOL    HW232328   5.521   0.364   4.569  0.5788 -0.9255  0.1100
 8139SOL    HW332329   5.405   0.269   4.553 -0.5085  0.3260  0.4231
 8139SOL    MW432330   5.438   0.343   4.584  0.3741 -0.0084  0.3053
 8140SOL     OW32331   1.966   5.740   1.869 -0.1787  0.4615  0.2251
 8140SOL    HW232332   1.886   5.753   1.920  0.3617  1.2057  0.9156
 8140SOL    HW332333   1.948   5.781   1.784 -1.1673 -0.9890 -0.3005
 8140SOL    MW432334   1.953   5.748   1.864 -0.2378  0.3683  0.2468
 8141SOL     OW32335   0.242   6.222   3.004 -0.2701 -0.2891  0.5854
 8141SOL    HW232336   0.236   6.264   3.090 -0.5497  1.0151 -0.0427
 8141SOL    HW332337   0.255   6.295   2.943 -2.1266 -0.9900 -0.7232
 8141SOL    MW432338   0.243   6.237   3.008 -0.5519 -0.2095  0.3299
 8142SOL     OW32339   2.194   4.949   1.368  0.6002  0.2448 -0.4787
 8142SOL    HW232340   2.129   5.019   1.383  0.8899  0.3467  0.3798
 8142SOL    HW332341   2.187   4.894   1.446  2.0201  0.6507 -0.0348
 8142SOL    MW432342   2.184   4.951   1.380  0.8258  0.3118 -0.3069
 8143SOL     OW32343   4.877   2.786   4.046 -0.0877  0.2581  0.1574
 8143SOL    HW232344   4.868   2.795   4.141 -0.3065  0.9412  0.0757
 8143SOL    HW332345   4.954   2.838   4.023 -0.4227  0.6431 -0.1190
 8143SOL    MW432346   4.886   2.794   4.055 -0.1607  0.3990  0.1101
 8144SOL     OW32347   0.010   1.603   3.467  0.4785 -0.4242  0.6761
 8144SOL    HW232348   0.091   1.615   3.418  2.1226 -0.6516  3.1564
 8144SOL    HW332349   0.017   1.664   3.540 -2.8017  1.3982 -0.3269
 8144SOL    MW432350   0.022   1.613   3.470  0.2626 -0.2138  0.8710
 8145SOL     OW32351   4.848   5.821   3.219 -0.1289  0.7232  0.3053
 8145SOL    HW232352   4.903   5.874   3.162 -1.2931  0.5109 -1.0770
 8145SOL    HW332353   4.887   5.733   3.214  0.2040  0.8625  0.4307
 8145SOL    MW432354   4.860   5.816   3.211 -0.2386  0.7136  0.1395
 8146SOL     OW32355   1.643   0.284   1.106 -0.0323 -0.3979  0.4156
 8146SOL    HW232356   1.588   0.361   1.091  0.7668 -0.0177 -0.6964
 8146SOL    HW332357   1.582   0.217   1.138 -0.8372  0.5099  0.8424
 8146SOL    MW432358   1.628   0.285   1.109 -0.0331 -0.2280  0.3252
 8147SOL     OW32359   0.157   5.021   5.045 -0.0813  0.0859 -0.2410
 8147SOL    HW232360   0.238   5.052   5.005  0.2889  0.6273  0.8834
 8147SOL    HW332361   0.111   5.101   5.073 -0.3187 -0.2621  0.4037
 8147SOL    MW432362   0.161   5.036   5.044 -0.0638  0.1114 -0.0076
 8148SOL     OW32363   3.678   3.323   3.745  0.0864 -0.1581  0.0220
 8148SOL    HW232364   3.735   3.286   3.813  0.0418 -0.2065  0.0329
 8148SOL    HW332365   3.711   3.412   3.731 -0.8000  0.3665  1.1278
 8148SOL    MW432366   3.690   3.330   3.752 -0.0364 -0.0953  0.1693
 8149SOL     OW32367   2.561   6.022   3.368  0.1966  0.1046 -0.1897
 8149SOL    HW232368   2.556   5.950   3.432 -2.7701  0.8187  0.5244
 8149SOL    HW332369   2.591   5.980   3.287  2.0739 -1.2006  1.0871
 8149SOL    MW432370   2.564   6.007   3.366  0.0529  0.0266  0.0730
 8150SOL     OW32371   1.717   1.595   3.460  0.1399  0.1894 -0.3805
 8150SOL    HW232372   1.803   1.556   3.443  0.4410 -0.7409  2.5931
 8150SOL    HW332373   1.655   1.531   3.425  0.6377  0.2519 -1.4082
 8150SOL    MW432374   1.720   1.581   3.453  0.2453  0.0749 -0.1238
 8151SOL     OW32375   0.534   3.627   0.105 -0.2715 -0.5122  0.6457
 8151SOL    HW232376   0.550   3.717   0.134 -0.6627 -0.4531  0.6964
 8151SOL    HW332377   0.458   3.634   0.047 -2.0183 -1.1302  2.7208
 8151SOL    MW432378   0.526   3.640   0.102 -0.5536 -0.5859  0.9262
 8152SOL     OW32379   1.015   2.125   6.102 -0.5229  0.1035  0.0673
 8152SOL    HW232380   1.038   2.133   6.009 -0.4265 -1.6906 -0.1048
 8152SOL    HW332381   1.032   2.211   6.139  2.3026  0.1049 -0.9781
 8152SOL    MW432382   1.020   2.137   6.095 -0.1374 -0.1331 -0.0933
 8153SOL     OW32383   2.385   5.300   2.683  0.2263 -0.0814  0.5843
 8153SOL    HW232384   2.311   5.356   2.658  0.8381  0.8959  0.9518
 8153SOL    HW332385   2.462   5.346   2.652  0.6490 -1.7122 -0.9502
 8153SOL    MW432386   2.385   5.313   2.676  0.3627 -0.1676  0.4304
 8154SOL     OW32387   0.117   1.872   2.735  0.6073 -0.0593 -0.0602
 8154SOL    HW232388   0.195   1.851   2.787  0.6817 -0.2175 -0.2333
 8154SOL    HW332389   0.099   1.791   2.686 -0.2063 -0.3288  0.6657
 8154SOL    MW432390   0.125   1.858   2.735  0.5098 -0.1158  0.0128
 8155SOL     OW32391   2.081   4.380   2.905  0.2874  0.1701 -0.6977
 8155SOL    HW232392   2.020   4.413   2.971  0.8994  0.2317 -0.1513
 8155SOL    HW332393   2.027   4.327   2.847 -0.1374 -0.5125  0.2925
 8155SOL    MW432394   2.065   4.378   2.906  0.3121  0.0882 -0.4950
 8156SOL     OW32395   0.125   6.108   4.028 -0.2658  0.0786  0.7142
 8156SOL    HW232396   0.211   6.106   3.986  0.1902  1.7415  1.4567
 8156SOL    HW332397   0.142   6.087   4.119 -0.9113 -1.2446  0.5425
 8156SOL    MW432398   0.138   6.105   4.034 -0.2908  0.1234  0.7895
 8157SOL     OW32399   1.367   3.421   2.940 -0.0533  0.1159 -0.1595
 8157SOL    HW232400   1.340   3.459   2.856  1.9150  0.4044 -0.7204
 8157SOL    HW332401   1.286   3.410   2.989 -1.1788  0.5906 -1.8361
 8157SOL    MW432402   1.353   3.424   2.936  0.0579  0.2166 -0.4547
 8158SOL     OW32403   2.377   4.969   1.154  0.2549 -0.1762 -0.0790
 8158SOL    HW232404   2.325   4.946   1.232 -0.4647  1.6466  0.0120
 8158SOL    HW332405   2.340   4.914   1.084  0.4735 -1.3540  0.6898
 8158SOL    MW432406   2.365   4.958   1.155  0.1888 -0.0911  0.0345
 8159SOL     OW32407   3.734   0.929   6.155  0.2793  0.2296  0.1022
 8159SOL    HW232408   3.704   0.840   6.176  0.6748  0.3713  1.3451
 8159SOL    HW332409   3.776   0.921   6.070  2.0539 -1.2093  1.0320
 8159SOL    MW432410   3.735   0.916   6.147  0.5656  0.0584  0.3889
 8160SOL     OW32411   5.064   3.334   6.413 -0.5122 -0.0162  0.1679
 8160SOL    HW232412   5.100   3.275   6.479  0.7693  0.0799 -0.4221
 8160SOL    HW332413   5.107   3.309   6.332  1.6178  2.9523  0.2042
 8160SOL    MW432414   5.074   3.323   6.411 -0.0621  0.3881  0.0949
 8161SOL     OW32415   1.352   3.299   3.674  0.1717  0.1201  0.0215
 8161SOL    HW232416   1.371   3.318   3.583  2.5564  0.6319  0.5582
 8161SOL    HW332417   1.265   3.259   3.673 -0.2007  0.8788 -2.3514
 8161SOL    MW432418   1.343   3.296   3.662  0.4372  0.2877 -0.2208
 8162SOL     OW32419   5.054   1.415   4.576  0.1445 -0.4516 -0.0551
 8162SOL    HW232420   5.071   1.415   4.481  0.2735 -1.0785 -0.0368
 8162SOL    HW332421   4.999   1.492   4.590 -1.9453 -1.6964 -1.0100
 8162SOL    MW432422   5.049   1.425   4.565 -0.1142 -0.6985 -0.1787
 8163SOL     OW32423   1.349   6.048   3.191 -0.4118  0.0469  0.5260
 8163SOL    HW232424   1.353   6.141   3.213  3.0564  0.0337  0.5412
 8163SOL    HW332425   1.307   6.007   3.267  0.5468  1.3415  1.8224
 8163SOL    MW432426   1.344   6.054   3.204  0.1722  0.2159  0.6991
 8164SOL     OW32427   3.443   6.403   6.370 -0.6976 -0.1593 -0.4824
 8164SOL    HW232428   3.442   6.472   6.436 -0.7035 -1.7266  1.2231
 8164SOL    HW332429   3.439   6.322   6.420  1.0687 -1.4723 -2.3187
 8164SOL    MW432430   3.443   6.401   6.385 -0.4654 -0.5393 -0.4997
 8165SOL     OW32431   4.619   5.728   1.104 -0.2484 -0.2843  0.1827
 8165SOL    HW232432   4.624   5.720   1.199  1.3149 -1.4380  0.0460
 8165SOL    HW332433   4.617   5.823   1.088 -0.2904 -0.0746  1.3540
 8165SOL    MW432434   4.619   5.740   1.114 -0.0477 -0.4089  0.3192
 8166SOL     OW32435   2.919   5.864   0.876 -0.5171 -0.0017  0.5102
 8166SOL    HW232436   2.831   5.842   0.847 -0.5748  0.3026  0.4606
 8166SOL    HW332437   2.906   5.917   0.955 -0.4078  1.0994 -0.1948
 8166SOL    MW432438   2.906   5.868   0.883 -0.5103  0.1837  0.4106
 8167SOL     OW32439   3.232   0.750   4.164  0.6185  0.4236 -0.0745
 8167SOL    HW232440   3.232   0.830   4.111  0.7777  0.1705 -0.4564
 8167SOL    HW332441   3.144   0.714   4.152  0.9099 -0.0507 -0.7974
 8167SOL    MW432442   3.220   0.756   4.156  0.6780  0.3276 -0.2203
 8168SOL     OW32443   3.334   4.678   0.713 -0.3650  0.1263  0.5014
 8168SOL    HW232444   3.342   4.720   0.627 -1.7157  0.9500  0.7433
 8168SOL    HW332445   3.322   4.585   0.693  1.1310  0.0338 -0.1024
 8168SOL    MW432446   3.333   4.671   0.699 -0.3458  0.2228  0.4537
 8169SOL     OW32447   3.991   3.030   6.274  0.3323 -0.0782  0.1023
 8169SOL    HW232448   4.013   2.940   6.249  1.6103  0.2622 -0.1206
 8169SOL    HW332449   4.013   3.036   6.367  1.8747  0.4334 -0.2610
 8169SOL    MW432450   3.997   3.019   6.283  0.7044  0.0342  0.0250
 8170SOL     OW32451   2.588   5.974   3.085 -0.1796 -0.0797 -0.1392
 8170SOL    HW232452   2.565   6.061   3.052 -0.6303 -0.1961 -0.1468
 8170SOL    HW332453   2.683   5.969   3.077  0.0340  1.0335  1.3927
 8170SOL    MW432454   2.598   5.985   3.080 -0.2109  0.0518  0.0619
 8171SOL     OW32455   3.188   5.281   4.288  0.2003  0.2965  0.7054
 8171SOL    HW232456   3.221   5.332   4.361  0.6205 -1.7423  2.0026
 8171SOL    HW332457   3.095   5.303   4.283  0.2798  0.8446  1.5075
 8171SOL    MW432458   3.181   5.291   4.297  0.2663  0.0998  0.9824
 8172SOL     OW32459   2.503   1.016   2.732  0.1880  0.3499 -0.5982
 8172SOL    HW232460   2.448   0.938   2.720  0.3703  0.4046 -1.9865
 8172SOL    HW332461   2.441   1.086   2.750 -0.1239  0.1981 -1.0517
 8172SOL    MW432462   2.488   1.015   2.732  0.1709  0.3371 -0.8412
 8173SOL     OW32463   5.925   0.586   6.065  0.6239 -0.2775  0.4218
 8173SOL    HW232464   5.879   0.667   6.088 -0.5535 -1.3234  1.9752
 8173SOL    HW332465   6.006   0.616   6.023  0.0593  1.6846  0.5967
 8173SOL    MW432466   5.930   0.601   6.062  0.3941 -0.1566  0.6498
 8174SOL     OW32467   3.076   4.758   0.814 -0.2404 -0.2791  0.0289
 8174SOL    HW232468   3.164   4.738   0.782  0.9440  4.1601 -0.1475
 8174SOL    HW332469   3.038   4.812   0.745 -1.5601  1.1074  1.7736
 8174SOL    MW432470   3.083   4.762   0.801 -0.2583  0.4895  0.2358
 8175SOL     OW32471   0.168   0.212   2.663  0.3340 -0.1460 -0.0149
 8175SOL    HW232472   0.108   0.276   2.700  0.2398 -0.2158 -0.0475
 8175SOL    HW332473   0.156   0.133   2.716  0.0720 -0.3014 -0.3049
 8175SOL    MW432474   0.159   0.210   2.675  0.2870 -0.1757 -0.0574
 8176SOL     OW32475   1.976   2.088   2.738 -0.5747 -0.1662 -0.0315
 8176SOL    HW232476   1.935   2.069   2.822 -3.2404  2.9475 -0.4063
 8176SOL    HW332477   1.911   2.059   2.673  0.2015 -0.0222 -0.8950
 8176SOL    MW432478   1.962   2.082   2.740 -0.8240  0.2636 -0.1949
 8177SOL     OW32479   5.378   0.332   2.540 -0.2710 -0.0065 -0.3072
 8177SOL    HW232480   5.413   0.268   2.602 -1.0021  0.9960  1.1772
 8177SOL    HW332481   5.316   0.384   2.591 -1.6223  0.2503 -2.1094
 8177SOL    MW432482   5.374   0.330   2.555 -0.5458  0.1597 -0.3492
 8178SOL     OW32483   0.770   0.840   4.715  0.1654  0.0826 -0.1483
 8178SOL    HW232484   0.785   0.926   4.678  0.0300  1.2914  2.3838
 8178SOL    HW332485   0.688   0.810   4.676  0.5552  0.7638 -1.5492
 8178SOL    MW432486   0.761   0.847   4.705  0.1990  0.3320  0.0009
 8179SOL     OW32487   0.416   0.204   1.350 -0.6128  0.3171  0.1225
 8179SOL    HW232488   0.377   0.172   1.431 -0.8303 -0.1552 -0.1635
 8179SOL    HW332489   0.390   0.139   1.284 -0.9639  1.0311 -0.4463
 8179SOL    MW432490   0.408   0.191   1.352 -0.6878  0.3490  0.0097
 8180SOL     OW32491   1.381   4.254   3.020 -0.5041 -0.1964  0.5479
 8180SOL    HW232492   1.455   4.272   2.963 -0.2653  1.6824  1.3836
 8180SOL    HW332493   1.420   4.217   3.099 -0.2401  2.0698  1.5477
 8180SOL    MW432494   1.396   4.251   3.023 -0.4377  0.3505  0.7900
 8181SOL     OW32495   4.580   0.481   3.143 -0.0343  0.5054 -0.1757
 8181SOL    HW232496   4.523   0.407   3.121  1.2469 -0.0764 -1.7786
 8181SOL    HW332497   4.528   0.559   3.123 -0.6106 -0.0011 -0.6895
 8181SOL    MW432498   4.565   0.482   3.137  0.0587  0.3618 -0.4550
 8182SOL     OW32499   6.355   4.382   3.762 -0.2880 -0.3798 -0.4987
 8182SOL    HW232500   6.315   4.358   3.846  2.1585  1.0191  1.2141
 8182SOL    HW332501   6.371   4.477   3.770 -1.1369  0.0516 -3.1027
 8182SOL    MW432502   6.352   4.392   3.774 -0.0772 -0.1383 -0.6163
 8183SOL     OW32503   5.432   2.670   2.641 -0.0445 -0.0499  0.1248
 8183SOL    HW232504   5.480   2.651   2.721 -0.5812  0.9751  0.7216
 8183SOL    HW332505   5.481   2.741   2.600 -0.4833  0.3305  0.2393
 8183SOL    MW432506   5.445   2.677   2.646 -0.1732  0.1355  0.2187
 8184SOL     OW32507   1.212   0.352   3.234 -0.7039  0.2437 -0.1744
 8184SOL    HW232508   1.145   0.319   3.295  0.3108 -1.2173  0.2006
 8184SOL    HW332509   1.272   0.279   3.223  1.0931  1.6514 -0.1556
 8184SOL    MW432510   1.211   0.338   3.241 -0.3329  0.2367 -0.1225
 8185SOL     OW32511   3.777   5.126   4.209  0.5266 -0.1479 -0.5528
 8185SOL    HW232512   3.718   5.149   4.137 -0.9611 -1.4436  0.1972
 8185SOL    HW332513   3.753   5.185   4.280 -0.4953 -1.2289  0.0320
 8185SOL    MW432514   3.766   5.137   4.209  0.1955 -0.4615 -0.3767
 8186SOL     OW32515   0.286   0.203   6.228  0.8349 -0.1723  0.6988
 8186SOL    HW232516   0.200   0.234   6.258  0.2875 -0.2665 -0.6789
 8186SOL    HW332517   0.293   0.236   6.138  1.4008 -1.7761  0.1174
 8186SOL    MW432518   0.275   0.212   6.220  0.8373 -0.3963  0.4403
 8187SOL     OW32519   0.337   4.162   0.942 -0.7599  0.2450 -0.2095
 8187SOL    HW232520   0.324   4.160   1.037 -1.4280  1.9146 -0.2412
 8187SOL    HW332521   0.262   4.209   0.907  0.8447  2.1778 -1.2786
 8187SOL    MW432522   0.325   4.168   0.950 -0.6363  0.7203 -0.3548
 8188SOL     OW32523   2.601   0.464   1.009 -0.0948  0.6948  0.3882
 8188SOL    HW232524   2.593   0.525   0.936  0.5819 -1.1656 -1.3173
 8188SOL    HW332525   2.636   0.518   1.081  1.0590  2.1902 -1.2104
 8188SOL    MW432526   2.605   0.479   1.009  0.1467  0.6467 -0.0477
 8189SOL     OW32527   1.505   1.776   0.118  0.2632  0.1744  0.4625
 8189SOL    HW232528   1.460   1.714   0.175 -1.1341 -1.4217 -2.2035
 8189SOL    HW332529   1.593   1.740   0.107 -1.1439 -2.7579 -2.7594
 8189SOL    MW432530   1.511   1.763   0.124 -0.1068 -0.4231 -0.3143
 8190SOL     OW32531   4.573   4.410   1.327  0.2073 -0.6233  0.7484
 8190SOL    HW232532   4.664   4.386   1.345 -0.4909 -2.2086  2.4628
 8190SOL    HW332533   4.544   4.455   1.406  0.0242  1.6826 -0.5470
 8190SOL    MW432534   4.581   4.413   1.340  0.0910 -0.5282  0.8037
 8191SOL     OW32535   5.793   1.782   4.686  0.7648 -0.1432 -0.0297
 8191SOL    HW232536   5.787   1.863   4.738  0.5928  0.2451 -0.6497
 8191SOL    HW332537   5.794   1.812   4.595  0.9941 -0.8260 -0.2557
 8191SOL    MW432538   5.793   1.797   4.681  0.7724 -0.1820 -0.1413
 8192SOL     OW32539   1.051   0.840   2.026 -0.1337  0.5640  0.2886
 8192SOL    HW232540   1.086   0.809   2.109 -0.8297  1.7274  1.0494
 8192SOL    HW332541   1.122   0.891   1.988 -0.0588  0.6369  0.5239
 8192SOL    MW432542   1.065   0.843   2.032 -0.2157  0.7271  0.4200
 8193SOL     OW32543   4.682   2.174   6.136 -0.3781 -0.0250  0.8035
 8193SOL    HW232544   4.722   2.090   6.113  1.0821  0.4134  1.6391
 8193SOL    HW332545   4.693   2.229   6.059 -0.1880 -0.2057  0.7011
 8193SOL    MW432546   4.689   2.170   6.123 -0.1604  0.0090  0.9002
 8194SOL     OW32547   5.854   2.095   3.851 -0.0487  0.3419  0.0975
 8194SOL    HW232548   5.842   2.077   3.944  1.4200 -0.3831  0.1634
 8194SOL    HW332549   5.940   2.136   3.844  0.4399 -0.8014 -1.0663
 8194SOL    MW432550   5.864   2.098   3.862  0.2095  0.0954 -0.0474
 8195SOL     OW32551   3.406   1.332   2.532  0.6003 -0.0754  0.2069
 8195SOL    HW232552   3.321   1.348   2.574  1.0882 -0.1186  1.2188
 8195SOL    HW332553   3.383   1.303   2.444 -0.4411 -0.1630  0.4922
 8195SOL    MW432554   3.391   1.331   2.526  0.5273 -0.0927  0.3780
 8196SOL     OW32555   4.073   3.538   4.452 -0.4312 -0.3975 -0.4783
 8196SOL    HW232556   3.982   3.553   4.427 -0.6877 -1.6804 -0.4187
 8196SOL    HW332557   4.095   3.453   4.412  1.1332  0.4400 -1.5041
 8196SOL    MW432558   4.064   3.529   4.443 -0.2587 -0.4562 -0.6058
 8197SOL     OW32559   0.156   0.234   3.756  0.4060  0.0286  0.5105
 8197SOL    HW232560   0.158   0.207   3.847 -1.4138 -0.6397  0.3896
 8197SOL    HW332561   0.228   0.297   3.748 -0.7353  1.7931  2.9299
 8197SOL    MW432562   0.166   0.239   3.767  0.0153  0.1733  0.8137
 8198SOL     OW32563   3.811   6.025   2.060  0.2803 -0.3838  0.2130
 8198SOL    HW232564   3.834   6.075   2.139 -0.0709 -0.3626  0.3024
 8198SOL    HW332565   3.806   5.934   2.089  1.9711 -0.6350 -0.1631
 8198SOL    MW432566   3.813   6.020   2.074  0.4571 -0.4141  0.1752
 8199SOL     OW32567   2.541   2.047   5.819  0.3085  0.2547  0.1255
 8199SOL    HW232568   2.635   2.066   5.819 -0.1151  2.8580 -1.4220
 8199SOL    HW332569   2.528   1.992   5.741  0.4314  0.5395 -0.0950
 8199SOL    MW432570   2.551   2.042   5.809  0.2688  0.6358 -0.1078
 8200SOL     OW32571   3.446   2.226   6.042 -0.2716 -0.0721 -0.4167
 8200SOL    HW232572   3.519   2.164   6.038 -0.7334 -0.6753  0.1164
 8200SOL    HW332573   3.481   2.303   6.086  0.0470 -0.3689 -0.1446
 8200SOL    MW432574   3.460   2.228   6.048 -0.2905 -0.1909 -0.3104
 8201SOL     OW32575   5.737   3.320   4.697 -0.0486  0.0234 -0.5151
 8201SOL    HW232576   5.766   3.242   4.650 -0.1858 -1.6082  1.9281
 8201SOL    HW332577   5.801   3.332   4.767 -2.9530 -1.5649  2.7998
 8201SOL    MW432578   5.749   3.311   4.700 -0.4499 -0.4014  0.2446
 8202SOL     OW32579   2.150   6.193   1.955 -0.4926 -0.2353 -0.2550
 8202SOL    HW232580   2.152   6.282   1.989 -2.4939  0.1974 -1.1188
 8202SOL    HW332581   2.132   6.138   2.032  1.5294 -0.0597  0.4233
 8202SOL    MW432582   2.148   6.197   1.970 -0.4899 -0.1551 -0.2795
 8203SOL     OW32583   5.131   4.102   1.203  0.2673 -0.2798 -0.1759
 8203SOL    HW232584   5.188   4.073   1.132 -0.4112 -2.8006  0.1994
 8203SOL    HW332585   5.168   4.061   1.281 -0.2750  0.6243  0.5706
 8203SOL    MW432586   5.143   4.093   1.204  0.1062 -0.4931 -0.0279
 8204SOL     OW32587   4.730   3.907   2.256 -0.5777  0.0738 -0.1361
 8204SOL    HW232588   4.822   3.893   2.234 -0.0294  0.6852  1.6071
 8204SOL    HW332589   4.698   3.966   2.188 -0.1450 -1.3691 -1.6637
 8204SOL    MW432590   4.738   3.913   2.244 -0.4483 -0.0359 -0.1077
 8205SOL     OW32591   5.912   2.510   0.177  0.1975  0.2870 -0.2819
 8205SOL    HW232592   5.932   2.417   0.178  1.1419  0.4792  0.5442
 8205SOL    HW332593   5.870   2.525   0.092  0.6899 -0.7566 -0.7244
 8205SOL    MW432594   5.909   2.500   0.166  0.3871  0.1747 -0.2313
 8206SOL     OW32595   2.398   0.214   4.296 -0.5503  0.3369  0.3708
 8206SOL    HW232596   2.376   0.217   4.389 -0.3496 -0.2618  0.4407
 8206SOL    HW332597   2.436   0.127   4.283  1.5599  1.2138  0.2087
 8206SOL    MW432598   2.400   0.203   4.307 -0.2454  0.3736  0.3586
 8207SOL     OW32599   3.767   1.370   6.102 -0.1313 -0.5636 -0.3393
 8207SOL    HW232600   3.860   1.372   6.121 -0.6887 -0.1491  2.8453
 8207SOL    HW332601   3.743   1.277   6.105  0.0860 -0.6359 -0.7538
 8207SOL    MW432602   3.776   1.358   6.105 -0.1762 -0.5184  0.0261
 8208SOL     OW32603   2.427   0.425   2.226 -0.0170 -0.1135  0.5182
 8208SOL    HW232604   2.430   0.334   2.255 -1.2257 -0.2352  0.2928
 8208SOL    HW332605   2.390   0.421   2.138 -1.9260  0.7476  1.2468
 8208SOL    MW432606   2.423   0.412   2.218 -0.4283 -0.0159  0.5846
 8209SOL     OW32607   3.778   2.099   2.089 -0.1854  0.5555  1.0456
 8209SOL    HW232608   3.802   2.050   2.168  0.1805  0.8948  1.1531
 8209SOL    HW332609   3.720   2.168   2.121 -1.1579 -0.1442  0.8130
 8209SOL    MW432610   3.774   2.102   2.104 -0.2654  0.5080  1.0291
 8210SOL     OW32611   5.995   1.437   3.765 -0.1382 -0.6588 -0.0636
 8210SOL    HW232612   5.900   1.446   3.764 -0.2109 -0.8841  1.6827
 8210SOL    HW332613   6.024   1.495   3.834  0.7010 -2.7419  1.4365
 8210SOL    MW432614   5.987   1.445   3.774 -0.0371 -0.9633  0.3647
 8211SOL     OW32615   1.474   1.978   1.535 -0.7973  0.0360 -0.1711
 8211SOL    HW232616   1.555   1.932   1.515 -0.6316 -0.8464  2.1942
 8211SOL    HW332617   1.413   1.950   1.466 -0.0624 -2.0403 -0.0658
 8211SOL    MW432618   1.477   1.968   1.523 -0.6785 -0.3544  0.1548
 8212SOL     OW32619   4.256   4.148   4.419  0.1522 -0.2990  0.5556
 8212SOL    HW232620   4.194   4.219   4.405  1.1641  0.6418  0.7424
 8212SOL    HW332621   4.334   4.173   4.370  0.3569 -1.5375  0.1972
 8212SOL    MW432622   4.258   4.160   4.411  0.3127 -0.3383  0.5330
 8213SOL     OW32623   1.583   4.248   0.861 -0.4207 -0.5381 -0.7193
 8213SOL    HW232624   1.654   4.279   0.805 -0.8727  3.0733  0.4515
 8213SOL    HW332625   1.625   4.185   0.920  1.5145  0.4768 -0.9377
 8213SOL    MW432626   1.598   4.244   0.861 -0.2250  0.0723 -0.5936
 8214SOL     OW32627   3.405   1.182   0.812 -0.3113 -0.0772 -0.3881
 8214SOL    HW232628   3.342   1.254   0.814  0.4829  0.6169 -0.0792
 8214SOL    HW332629   3.384   1.130   0.890 -0.2809  0.3386 -0.1015
 8214SOL    MW432630   3.394   1.185   0.823 -0.2025  0.0693 -0.3095
 8215SOL     OW32631   1.114   5.613   3.945 -0.5541 -0.2813 -0.4581
 8215SOL    HW232632   1.078   5.701   3.940  0.6104  0.2275 -0.1834
 8215SOL    HW332633   1.123   5.585   3.854  1.7242  1.0208 -0.6988
 8215SOL    MW432634   1.110   5.621   3.933 -0.0999 -0.0424 -0.4536
 8216SOL     OW32635   4.675   6.191   4.450  0.8477 -0.4094  0.0071
 8216SOL    HW232636   4.590   6.147   4.461  1.2141 -1.2165 -0.2792
 8216SOL    HW332637   4.733   6.122   4.418  1.1792  0.5455 -1.5498
 8216SOL    MW432638   4.671   6.176   4.447  0.9398 -0.3899 -0.2361
 8217SOL     OW32639   5.951   2.313   2.110 -0.5351  0.1263 -0.1038
 8217SOL    HW232640   5.940   2.248   2.040 -0.0550  0.1793 -0.2329
 8217SOL    HW332641   5.872   2.367   2.105  0.1262  1.0216 -1.5525
 8217SOL    MW432642   5.939   2.312   2.100 -0.3845  0.2514 -0.3120
 8218SOL     OW32643   5.945   3.916   0.584  0.3906 -0.0185 -0.0395
 8218SOL    HW232644   5.872   3.902   0.644  0.5616 -2.1512 -0.2312
 8218SOL    HW332645   6.019   3.937   0.641 -0.0330  0.6458  0.2732
 8218SOL    MW432646   5.946   3.917   0.600  0.3573 -0.2123 -0.0235
 8219SOL     OW32647   0.093   3.148   4.482 -0.2101 -1.0693 -0.3380
 8219SOL    HW232648   0.180   3.109   4.476 -0.3308 -1.4278  0.1954
 8219SOL    HW332649   0.036   3.076   4.508 -0.5723 -0.7197 -0.1475
 8219SOL    MW432650   0.097   3.134   4.485 -0.2738 -1.0704 -0.2425
 8220SOL     OW32651   5.799   0.273   2.456 -0.8073 -0.8938  0.4598
 8220SOL    HW232652   5.819   0.322   2.376 -0.0404  0.0148  1.1800
 8220SOL    HW332653   5.877   0.220   2.471  0.8393  1.8727  2.7005
 8220SOL    MW432654   5.812   0.272   2.447 -0.4889 -0.4090  0.8504
 8221SOL     OW32655   4.793   0.652   1.595 -0.2751 -0.2599  0.6914
 8221SOL    HW232656   4.723   0.701   1.637 -1.8320 -1.1631 -0.7398
 8221SOL    HW332657   4.786   0.563   1.631  0.0924 -0.3791  0.4842
 8221SOL    MW432658   4.783   0.647   1.605 -0.4320 -0.3948  0.4753
 8222SOL     OW32659   6.131   1.864   1.286  0.2635 -0.3897 -0.0261
 8222SOL    HW232660   6.064   1.895   1.347  0.1753 -2.0567  0.7969
 8222SOL    HW332661   6.109   1.904   1.203 -0.3859  0.9221  0.7494
 8222SOL    MW432662   6.119   1.873   1.283  0.1662 -0.4366  0.1848
 8223SOL     OW32663   1.580   0.409   3.794  0.2221  0.2419  0.4419
 8223SOL    HW232664   1.541   0.466   3.727  2.1421  0.7581 -0.3141
 8223SOL    HW332665   1.523   0.418   3.870 -1.7482  0.0336 -0.9529
 8223SOL    MW432666   1.568   0.418   3.795  0.2155  0.2826  0.1581
 8224SOL     OW32667   1.539   2.624   5.346  0.2883 -0.2825 -0.4802
 8224SOL    HW232668   1.472   2.681   5.385  2.5227  1.9761  0.3829
 8224SOL    HW332669   1.508   2.609   5.256 -1.9628 -0.4533  0.2473
 8224SOL    MW432670   1.526   2.630   5.339  0.2861 -0.0071 -0.2703
 8225SOL     OW32671   6.197   5.640   1.387  0.0315 -0.3228 -0.0761
 8225SOL    HW232672   6.107   5.661   1.413 -0.2206  1.2630 -1.9772
 8225SOL    HW332673   6.235   5.598   1.464 -1.5306  1.3408  1.7129
 8225SOL    MW432674   6.190   5.637   1.400 -0.2079  0.1059 -0.0909
 8226SOL     OW32675   3.954   5.911   1.691 -0.3671  0.5815  0.1329
 8226SOL    HW232676   3.993   5.993   1.723 -0.6472  0.8743 -0.2610
 8226SOL    HW332677   3.896   5.884   1.762  1.7977 -0.7935  1.4950
 8226SOL    MW432678   3.951   5.919   1.704 -0.1184  0.4387  0.2606
 8227SOL     OW32679   0.387   2.529   2.672 -0.1843  0.1796 -0.2288
 8227SOL    HW232680   0.469   2.564   2.637 -1.2617  2.1817 -0.8519
 8227SOL    HW332681   0.331   2.518   2.595  0.1002 -3.2227 -0.1296
 8227SOL    MW432682   0.390   2.532   2.657 -0.2889 -0.0052 -0.2979
 8228SOL     OW32683   3.191   5.230   3.501  0.5375  0.3482  0.1993
 8228SOL    HW232684   3.106   5.251   3.540  0.7040  0.8822  0.2802
 8228SOL    HW332685   3.171   5.167   3.432  0.0467  0.6538  0.0577
 8228SOL    MW432686   3.178   5.224   3.497  0.4947  0.4590  0.1913
 8229SOL     OW32687   3.896   2.333   6.208 -0.2764  0.3292 -0.2558
 8229SOL    HW232688   3.884   2.253   6.157 -1.6344  1.3591 -1.6518
 8229SOL    HW332689   3.822   2.335   6.269 -0.6856  0.8721 -0.7535
 8229SOL    MW432690   3.885   2.323   6.209 -0.5095  0.5367 -0.5057
 8230SOL     OW32691   1.281   2.826   3.307 -0.8410 -0.5636 -0.4019
 8230SOL    HW232692   1.331   2.744   3.298 -1.3239 -0.8105 -0.8530
 8230SOL    HW332693   1.236   2.817   3.391  0.0039 -0.2612  0.1001
 8230SOL    MW432694   1.282   2.814   3.317 -0.7932 -0.5563 -0.3952
 8231SOL     OW32695   4.794   1.812   1.699 -0.1730 -0.2835  0.0427
 8231SOL    HW232696   4.885   1.792   1.677  0.6273  1.4558  1.4758
 8231SOL    HW332697   4.782   1.775   1.787 -0.8331 -0.4236 -0.1005
 8231SOL    MW432698   4.805   1.804   1.708 -0.1545 -0.0725  0.2129
 8232SOL     OW32699   1.280   0.130   1.447  0.2182  0.6289  0.1190
 8232SOL    HW232700   1.274   0.034   1.456  1.1651  0.7360  2.9042
 8232SOL    HW332701   1.193   0.156   1.418 -0.4268 -0.9885  0.4686
 8232SOL    MW432702   1.268   0.121   1.444  0.2581  0.4296  0.5326
 8233SOL     OW32703   0.855   5.664   0.297 -0.4307 -0.1288 -0.5610
 8233SOL    HW232704   0.927   5.606   0.324  1.3526  1.5860 -1.4145
 8233SOL    HW332705   0.790   5.654   0.367  0.6194 -1.7278  0.2664
 8233SOL    MW432706   0.856   5.655   0.310 -0.0569 -0.1135 -0.5644
 8234SOL     OW32707   0.847   5.701   5.674  0.9014  0.0708  0.4728
 8234SOL    HW232708   0.898   5.652   5.609  0.0502 -1.1540  0.6890
 8234SOL    HW332709   0.797   5.764   5.623 -0.5422 -1.5667 -0.2296
 8234SOL    MW432710   0.847   5.703   5.659  0.5986 -0.3069  0.4086
 8235SOL     OW32711   5.781   0.798   5.476 -0.6407  0.1068  0.0168
 8235SOL    HW232712   5.763   0.836   5.389  1.5514  0.6565 -0.2472
 8235SOL    HW332713   5.862   0.750   5.464 -1.2148 -1.2541  1.3865
 8235SOL    MW432714   5.789   0.797   5.463 -0.4272 -0.0002  0.1627
 8236SOL     OW32715   2.070   1.786   6.066  0.0442 -0.5579 -0.2368
 8236SOL    HW232716   2.119   1.717   6.020  0.2552 -0.4238 -0.2135
 8236SOL    HW332717   2.132   1.819   6.131 -0.0697 -0.3683 -0.2267
 8236SOL    MW432718   2.085   1.781   6.069  0.0570 -0.5152 -0.2324
 8237SOL     OW32719   6.126   5.473   2.676 -0.0724 -0.2399  0.0458
 8237SOL    HW232720   6.036   5.501   2.662  0.8868  1.7420 -3.1748
 8237SOL    HW332721   6.123   5.378   2.666 -1.7635 -0.2045 -0.0637
 8237SOL    MW432722   6.114   5.464   2.673 -0.1690  0.0262 -0.3935
 8238SOL     OW32723   0.221   5.306   3.558  0.0707  0.0220  0.4547
 8238SOL    HW232724   0.211   5.215   3.589  1.4261 -0.0535  0.7281
 8238SOL    HW332725   0.283   5.345   3.620 -0.1954  1.0227  0.0980
 8238SOL    MW432726   0.228   5.299   3.570  0.2145  0.1440  0.4437
 8239SOL     OW32727   2.524   5.991   2.112 -0.3844 -0.4321  0.1903
 8239SOL    HW232728   2.516   5.929   2.184 -0.4078 -0.8853 -0.1991
 8239SOL    HW332729   2.575   5.945   2.045  0.3368  0.2707  0.2328
 8239SOL    MW432730   2.529   5.977   2.112 -0.2923 -0.3992  0.1445
 8240SOL     OW32731   1.963   2.445   3.597  0.1189  0.1904 -0.5528
 8240SOL    HW232732   1.919   2.409   3.521  0.4708  0.8929 -1.1070
 8240SOL    HW332733   1.980   2.537   3.573 -0.8036  0.7509  0.8189
 8240SOL    MW432734   1.960   2.453   3.584  0.0436  0.3571 -0.4450
 8241SOL     OW32735   6.183   0.375   0.757 -0.4968 -0.4811 -0.1025
 8241SOL    HW232736   6.260   0.329   0.723 -0.1256  0.9013 -1.2128
 8241SOL    HW332737   6.114   0.356   0.694 -0.9340 -1.2284  0.5768
 8241SOL    MW432738   6.184   0.366   0.745 -0.5055 -0.3973 -0.1593
 8242SOL     OW32739   5.455   2.109   3.721  0.7400 -0.4318 -0.0051
 8242SOL    HW232740   5.519   2.180   3.710  2.1963 -1.2688  2.3554
 8242SOL    HW332741   5.371   2.153   3.712  1.5958  1.5194  0.7197
 8242SOL    MW432742   5.453   2.124   3.719  1.0451 -0.2848  0.4019
 8243SOL     OW32743   5.885   2.406   4.836  0.0722  0.4397  0.0940
 8243SOL    HW232744   5.856   2.418   4.927 -0.4402  1.1660 -0.1567
 8243SOL    HW332745   5.964   2.460   4.829  2.6212 -2.7901  1.2424
 8243SOL    MW432746   5.892   2.415   4.847  0.3409  0.1094  0.2125
 8244SOL     OW32747   0.210   6.357   5.557 -0.0031  0.1153  0.2981
 8244SOL    HW232748   0.279   6.389   5.498 -1.5714  2.1743 -0.5338
 8244SOL    HW332749   0.134   6.345   5.500 -1.0433  0.3520  1.6104
 8244SOL    MW432750   0.209   6.360   5.542 -0.3472  0.4182  0.3615
 8245SOL     OW32751   3.253   1.820   5.868 -0.1304  0.3060 -0.1543
 8245SOL    HW232752   3.199   1.867   5.932 -1.9719  1.5257 -2.4228
 8245SOL    HW332753   3.192   1.759   5.826  0.8537 -0.0289 -1.1565
 8245SOL    MW432754   3.238   1.818   5.871 -0.2436  0.4227 -0.5859
 8246SOL     OW32755   5.109   1.557   3.239 -0.2618 -0.0167  0.2123
 8246SOL    HW232756   5.035   1.568   3.298  0.2295 -0.6517  0.9639
 8246SOL    HW332757   5.083   1.604   3.159 -1.6275 -0.5398  0.3170
 8246SOL    MW432758   5.095   1.565   3.236 -0.3772 -0.1695  0.3253
 8247SOL     OW32759   2.203   3.225   5.166  0.1808  0.1587  0.1375
 8247SOL    HW232760   2.206   3.131   5.186 -0.9234  0.4288  1.8113
 8247SOL    HW332761   2.219   3.267   5.251  2.5809  1.5505 -0.8894
 8247SOL    MW432762   2.206   3.218   5.180  0.3518  0.3780  0.2228
 8248SOL     OW32763   1.966   6.308   1.745 -0.4475  0.1507 -0.1845
 8248SOL    HW232764   2.007   6.259   1.816  0.3349  0.4891 -0.3990
 8248SOL    HW332765   1.919   6.379   1.789 -0.8513 -0.2646  0.0629
 8248SOL    MW432766   1.965   6.311   1.760 -0.3975  0.1405 -0.1801
 8249SOL     OW32767   1.413   2.518   1.649 -0.2952  0.6247 -0.2979
 8249SOL    HW232768   1.397   2.508   1.743  2.0781  3.5048  0.5335
 8249SOL    HW332769   1.436   2.430   1.620 -2.9381 -0.7582  1.3000
 8249SOL    MW432770   1.414   2.505   1.658 -0.3308  0.8222  0.0226
 8250SOL     OW32771   3.956   5.320   0.345 -0.2375 -0.9587  0.1738
 8250SOL    HW232772   4.023   5.281   0.290 -0.7739 -1.4468 -0.1366
 8250SOL    HW332773   4.000   5.393   0.389  0.1671 -0.4655 -1.0077
 8250SOL    MW432774   3.970   5.325   0.344 -0.2549 -0.9580 -0.0230
 8251SOL     OW32775   1.810   0.603   3.983 -0.0097  0.1207  0.3954
 8251SOL    HW232776   1.880   0.607   3.918 -0.3867 -0.2441 -0.0416
 8251SOL    HW332777   1.733   0.636   3.938  0.0873  1.4930  1.1872
 8251SOL    MW432778   1.809   0.608   3.969 -0.0467  0.2536  0.4422
 8252SOL     OW32779   1.482   5.771   0.299 -0.2432 -0.5520 -0.0329
 8252SOL    HW232780   1.471   5.803   0.389  0.1446  0.2192 -0.2513
 8252SOL    HW332781   1.455   5.844   0.244 -2.1855 -1.6117 -0.5767
 8252SOL    MW432782   1.477   5.785   0.304 -0.4483 -0.5900 -0.1334
 8253SOL     OW32783   1.015   1.076   3.522 -0.4197  0.6016 -0.3979
 8253SOL    HW232784   1.059   1.087   3.606 -0.9505 -1.1289  0.1472
 8253SOL    HW332785   0.926   1.107   3.538 -0.2629  1.1777 -0.6131
 8253SOL    MW432786   1.009   1.082   3.535 -0.4690  0.4493 -0.3544
 8254SOL     OW32787   1.969   1.435   2.700  0.4752  0.0834 -0.1020
 8254SOL    HW232788   1.874   1.424   2.709  0.0445  0.9179 -2.7250
 8254SOL    HW332789   2.007   1.363   2.751 -1.6436 -2.0154 -1.2867
 8254SOL    MW432790   1.961   1.424   2.708  0.1388 -0.0834 -0.6044
 8255SOL     OW32791   2.338   2.413   0.567 -0.0182 -0.1569 -0.4806
 8255SOL    HW232792   2.372   2.498   0.539  2.1464  0.0233  2.3288
 8255SOL    HW332793   2.308   2.427   0.656  1.6432 -2.5923  0.5723
 8255SOL    MW432794   2.338   2.426   0.575  0.4866 -0.4545  0.0290
 8256SOL     OW32795   0.106   3.506   6.129 -0.1304 -0.1762  0.2001
 8256SOL    HW232796   0.199   3.488   6.133 -0.2252 -0.5645  0.8318
 8256SOL    HW332797   0.077   3.504   6.220 -0.6942  0.2689  0.0399
 8256SOL    MW432798   0.114   3.504   6.142 -0.2173 -0.1687  0.2623
 8257SOL     OW32799   2.967   6.213   3.982  0.0684 -0.1256 -0.2543
 8257SOL    HW232800   2.887   6.180   4.024  1.1063 -1.4161  0.7992
 8257SOL    HW332801   2.995   6.284   4.040  0.3022 -0.4428  0.0266
 8257SOL    MW432802   2.960   6.218   3.995  0.2362 -0.3377 -0.0783
 8258SOL     OW32803   3.654   0.340   1.658  0.1187  0.0365 -0.0588
 8258SOL    HW232804   3.691   0.427   1.643 -1.0501  0.9533  1.8711
 8258SOL    HW332805   3.695   0.311   1.740 -1.7325  0.1487  0.9592
 8258SOL    MW432806   3.665   0.347   1.667 -0.2798  0.1722  0.3301
 8259SOL     OW32807   4.017   0.312   2.931  0.1163  0.0671 -0.1983
 8259SOL    HW232808   4.041   0.221   2.913  1.3659  0.8855 -3.3378
 8259SOL    HW332809   4.059   0.332   3.015 -0.1779 -2.1981  0.5520
 8259SOL    MW432810   4.025   0.303   2.939  0.2424 -0.1238 -0.5135
 8260SOL     OW32811   6.154   2.407   1.637  0.1004 -0.2115 -0.2327
 8260SOL    HW232812   6.176   2.461   1.561  1.7247  0.8995  0.9442
 8260SOL    HW332813   6.158   2.317   1.605  2.4616  0.1277 -1.1255
 8260SOL    MW432814   6.158   2.402   1.623  0.6263 -0.0201 -0.1952
 8261SOL     OW32815   5.968   3.973   3.271  0.6051  0.0511  0.9282
 8261SOL    HW232816   5.893   3.972   3.330  0.2965 -0.4847  0.5380
 8261SOL    HW332817   5.997   4.064   3.271 -0.2251  0.3249  0.8645
 8261SOL    MW432818   5.962   3.985   3.279  0.4548  0.0165  0.8683
 8262SOL     OW32819   4.750   6.031   6.251  0.1635 -0.0723  0.4790
 8262SOL    HW232820   4.818   6.097   6.264  0.6280 -0.1667 -1.2141
 8262SOL    HW332821   4.707   6.056   6.169 -0.3473 -1.2640  0.3516
 8262SOL    MW432822   4.753   6.043   6.241  0.1574 -0.2420  0.2388
 8263SOL     OW32823   4.444   0.549   4.211  0.3414  0.6675  0.1387
 8263SOL    HW232824   4.534   0.552   4.245  0.2125 -2.0630  0.9586
 8263SOL    HW332825   4.391   0.586   4.281  0.5175 -1.0163  1.2189
 8263SOL    MW432826   4.449   0.554   4.224  0.3476  0.0851  0.3894
 8264SOL     OW32827   3.082   1.708   2.904 -0.2245  0.2417  0.1725
 8264SOL    HW232828   3.174   1.718   2.878 -0.0912  0.8910  0.8600
 8264SOL    HW332829   3.083   1.645   2.976 -0.2821  0.4518  0.3596
 8264SOL    MW432830   3.094   1.701   2.910 -0.2145  0.3551  0.2879
 8265SOL     OW32831   1.059   0.583   0.420 -0.0838 -0.8730 -0.6918
 8265SOL    HW232832   1.153   0.576   0.438  0.0747 -1.0956 -1.5610
 8265SOL    HW332833   1.018   0.585   0.506  0.7294 -0.6393 -0.3055
 8265SOL    MW432834   1.066   0.582   0.434  0.0444 -0.8715 -0.7555
 8266SOL     OW32835   1.592   5.702   6.419 -0.0059  0.1159 -0.2856
 8266SOL    HW232836   1.573   5.788   6.457  2.1631  0.3132  0.4486
 8266SOL    HW332837   1.605   5.644   6.494  0.5767 -0.3679 -0.7511
 8266SOL    MW432838   1.591   5.706   6.434  0.3571  0.0781 -0.2501
 8267SOL     OW32839   2.296   0.984   0.522  0.0904 -0.4913 -0.2738
 8267SOL    HW232840   2.303   0.955   0.614  2.0999  2.3118  0.5748
 8267SOL    HW332841   2.384   0.970   0.486  0.1951  1.3304 -0.7898
 8267SOL    MW432842   2.308   0.978   0.530  0.3693  0.1189 -0.2299
 8268SOL     OW32843   5.058   6.248   5.449  0.0355 -0.4009  0.0551
 8268SOL    HW232844   5.139   6.277   5.491 -0.1115  1.6060 -0.9242
 8268SOL    HW332845   5.076   6.157   5.424  2.7542  0.4997 -1.8257
 8268SOL    MW432846   5.071   6.240   5.451  0.3748 -0.0173 -0.3223
 8269SOL     OW32847   2.457   5.672   0.919 -0.1394 -0.7396  0.8531
 8269SOL    HW232848   2.500   5.623   0.990  0.1461 -2.0343 -0.1699
 8269SOL    HW332849   2.439   5.606   0.852  0.6136  0.6353 -0.7823
 8269SOL    MW432850   2.460   5.657   0.920 -0.0024 -0.7291  0.5023
 8270SOL     OW32851   0.464   2.157   1.553 -0.1091  0.3045  0.2066
 8270SOL    HW232852   0.388   2.104   1.576 -0.7600  0.9051 -0.5356
 8270SOL    HW332853   0.466   2.226   1.620 -0.2773  0.3497  0.1643
 8270SOL    MW432854   0.454   2.159   1.565 -0.2172  0.3897  0.1031
 8271SOL     OW32855   3.650   0.414   3.385 -0.6029  0.3072  0.3789
 8271SOL    HW232856   3.672   0.496   3.342 -0.2737  0.5830  1.0513
 8271SOL    HW332857   3.666   0.346   3.319 -0.9072  0.7849 -0.1879
 8271SOL    MW432858   3.655   0.416   3.371 -0.5996  0.4066  0.3928
 8272SOL     OW32859   5.823   1.288   2.990 -0.3520 -0.1770  0.4054
 8272SOL    HW232860   5.799   1.196   2.978 -1.5249  0.1901 -0.1887
 8272SOL    HW332861   5.785   1.332   2.914  1.2506  0.6315  0.0312
 8272SOL    MW432862   5.815   1.281   2.978 -0.2953 -0.0219  0.2777
 8273SOL     OW32863   2.117   2.903   1.266 -0.3460  0.2138 -0.4933
 8273SOL    HW232864   2.069   2.890   1.348  0.0798 -0.2078 -0.3037
 8273SOL    HW332865   2.131   2.814   1.233  2.0244  0.1581  0.4702
 8273SOL    MW432866   2.113   2.889   1.272  0.0229  0.1508 -0.3412
 8274SOL     OW32867   5.706   1.061   2.868 -0.3936  0.0876  0.3095
 8274SOL    HW232868   5.623   1.017   2.885 -0.5125  0.5391  0.9476
 8274SOL    HW332869   5.773   0.995   2.885 -0.6334 -0.5590 -1.1093
 8274SOL    MW432870   5.704   1.047   2.872 -0.4409  0.0619  0.2065
 8275SOL     OW32871   0.913   4.964   0.467  0.1602  0.4926  0.0126
 8275SOL    HW232872   0.997   4.919   0.456 -0.1352 -0.0309 -0.1463
 8275SOL    HW332873   0.871   4.956   0.381 -0.7835 -0.7665  0.5598
 8275SOL    MW432874   0.919   4.957   0.454 -0.0033  0.2574  0.0638
 8276SOL     OW32875   2.808   3.112   3.237  0.2002 -0.0146  0.3281
 8276SOL    HW232876   2.766   3.194   3.265 -0.4311  0.1538 -1.0480
 8276SOL    HW332877   2.739   3.047   3.242 -0.0219  0.0849 -1.1077
 8276SOL    MW432878   2.794   3.114   3.242  0.0876  0.0207 -0.0429
 8277SOL     OW32879   5.166   2.697   4.299 -0.4358  0.1950  0.2282
 8277SOL    HW232880   5.157   2.750   4.219  0.1335  1.7190  1.1330
 8277SOL    HW332881   5.131   2.753   4.368 -0.0633 -0.7399  1.1917
 8277SOL    MW432882   5.160   2.711   4.297 -0.3116  0.2728  0.4747
 8278SOL     OW32883   0.313   4.652   0.644 -0.0619 -0.2240  0.4345
 8278SOL    HW232884   0.281   4.715   0.708  0.0348 -0.0652  0.3258
 8278SOL    HW332885   0.367   4.591   0.694  2.2735  1.4563  0.1024
 8278SOL    MW432886   0.316   4.652   0.659  0.2590  0.0186  0.3763
 8279SOL     OW32887   5.503   5.552   1.423 -0.0081 -0.5672 -0.1233
 8279SOL    HW232888   5.421   5.582   1.384 -0.2417  0.7337  1.2440
 8279SOL    HW332889   5.535   5.629   1.471  2.8436 -0.5268 -1.8967
 8279SOL    MW432890   5.496   5.566   1.424  0.3373 -0.3902 -0.1769
 8280SOL     OW32891   1.352   2.373   0.376 -0.4343  1.0777 -0.4043
 8280SOL    HW232892   1.416   2.385   0.446 -0.2620 -0.1638 -0.3366
 8280SOL    HW332893   1.391   2.308   0.318 -2.0616 -0.5225  0.1942
 8280SOL    MW432894   1.365   2.366   0.377 -0.6263  0.7028 -0.3164
 8281SOL     OW32895   4.037   0.566   2.563  0.2155 -0.0644  0.6624
 8281SOL    HW232896   4.054   0.478   2.596 -0.7082 -0.9584 -1.0754
 8281SOL    HW332897   4.118   0.591   2.519 -0.2752 -1.0902 -0.9147
 8281SOL    MW432898   4.050   0.558   2.562  0.0289 -0.3177  0.2250
 8282SOL     OW32899   1.751   2.036   1.780 -0.7088 -0.2986 -0.2708
 8282SOL    HW232900   1.752   1.956   1.727  0.3953 -1.0741  0.8520
 8282SOL    HW332901   1.844   2.053   1.799 -1.0502  0.1698  1.0659
 8282SOL    MW432902   1.764   2.027   1.775 -0.6082 -0.3391  0.0537
 8283SOL     OW32903   3.365   1.099   5.009  0.4831  0.4845 -0.3685
 8283SOL    HW232904   3.272   1.080   5.026  0.1038  1.6396 -1.0554
 8283SOL    HW332905   3.399   1.018   4.972 -0.5704  0.4372 -1.2834
 8283SOL    MW432906   3.357   1.086   5.007  0.2941  0.6307 -0.5798
 8284SOL     OW32907   1.397   1.592   5.121 -0.2824  0.0881 -0.4055
 8284SOL    HW232908   1.483   1.613   5.084 -0.5725  0.1082 -1.0861
 8284SOL    HW332909   1.415   1.574   5.214  0.3138  1.0353 -0.3134
 8284SOL    MW432910   1.411   1.592   5.129 -0.2420  0.2157 -0.4831
 8285SOL     OW32911   2.028   4.832   1.187 -0.4437 -0.0698 -0.2666
 8285SOL    HW232912   2.058   4.742   1.173 -0.7813 -0.3461  0.6941
 8285SOL    HW332913   2.088   4.867   1.253 -0.3216  0.4131 -0.6287
 8285SOL    MW432914   2.040   4.825   1.194 -0.4721 -0.0425 -0.1877
 8286SOL     OW32915   1.998   5.071   2.654 -0.1347 -0.7793 -0.0666
 8286SOL    HW232916   2.002   5.165   2.670 -0.5139 -0.9002  0.7470
 8286SOL    HW332917   2.059   5.057   2.582  2.3592 -0.3579  1.8422
 8286SOL    MW432918   2.006   5.082   2.646  0.1443 -0.7397  0.2926
 8287SOL     OW32919   4.243   5.508   0.223 -0.0648 -0.3778  0.4214
 8287SOL    HW232920   4.293   5.468   0.294 -0.4154 -0.4712  0.6165
 8287SOL    HW332921   4.229   5.437   0.160 -1.2131 -0.7294  1.0506
 8287SOL    MW432922   4.248   5.493   0.224 -0.2626 -0.4365  0.5302
 8288SOL     OW32923   1.769   0.143   0.899  0.2881 -0.0930  0.2447
 8288SOL    HW232924   1.713   0.202   0.949  0.0683  0.3437 -0.5084
 8288SOL    HW332925   1.842   0.197   0.870  0.9677 -0.5917  0.9682
 8288SOL    MW432926   1.771   0.158   0.902  0.3488 -0.1012  0.2408
 8289SOL     OW32927   0.637   3.705   4.649  0.1347  0.6896  0.0428
 8289SOL    HW232928   0.668   3.749   4.728  2.5447  0.2384 -0.5733
 8289SOL    HW332929   0.651   3.612   4.666 -0.2352  0.5141 -0.5708
 8289SOL    MW432930   0.643   3.698   4.662  0.4038  0.6069 -0.1195
 8290SOL     OW32931   3.157   1.532   3.143  0.1143  0.0241  0.4536
 8290SOL    HW232932   3.086   1.492   3.193 -0.6796  1.1361  0.2490
 8290SOL    HW332933   3.214   1.459   3.118  0.0231 -0.6564  2.1689
 8290SOL    MW432934   3.155   1.517   3.146 -0.0025  0.0810  0.6529
 8291SOL     OW32935   4.652   1.435   4.654 -0.6789 -0.0530  0.0895
 8291SOL    HW232936   4.698   1.456   4.573  0.4373 -0.1635  0.6744
 8291SOL    HW332937   4.682   1.501   4.716 -1.1253 -0.2813  0.5501
 8291SOL    MW432938   4.662   1.446   4.651 -0.5905 -0.0977  0.2275
 8292SOL     OW32939   3.088   6.117   2.404 -1.0077  0.5923  0.0675
 8292SOL    HW232940   3.064   6.208   2.387 -2.4055  0.4567  1.1234
 8292SOL    HW332941   3.177   6.108   2.369 -0.6488  2.4994  0.4157
 8292SOL    MW432942   3.097   6.127   2.397 -1.1448  0.8260  0.2528
 8293SOL     OW32943   4.677   6.346   4.194  0.0654 -0.0749 -0.0952
 8293SOL    HW232944   4.657   6.318   4.284 -0.9075 -1.1087 -0.6140
 8293SOL    HW332945   4.604   6.403   4.170 -0.3847 -0.9102 -0.7144
 8293SOL    MW432946   4.665   6.350   4.203 -0.1223 -0.3215 -0.2453
 8294SOL     OW32947   3.649   4.318   5.731 -0.4784 -0.1962  0.0433
 8294SOL    HW232948   3.618   4.406   5.752 -0.7474 -0.1873 -0.3910
 8294SOL    HW332949   3.622   4.265   5.807 -1.1075 -0.0853 -0.1017
 8294SOL    MW432950   3.641   4.323   5.744 -0.5969 -0.1804 -0.0332
 8295SOL     OW32951   4.278   0.831   4.100 -0.3955 -0.4385  0.3206
 8295SOL    HW232952   4.207   0.788   4.148 -0.4676  0.7727  1.3472
 8295SOL    HW332953   4.327   0.878   4.167  0.5830 -0.1516 -0.5710
 8295SOL    MW432954   4.275   0.831   4.116 -0.2759 -0.2408  0.3384
 8296SOL     OW32955   6.081   1.468   6.369 -0.8215  0.1143 -0.4632
 8296SOL    HW232956   6.120   1.522   6.438 -0.5881 -0.3463 -0.2315
 8296SOL    HW332957   6.002   1.515   6.344  0.1076  1.3227 -1.2657
 8296SOL    MW432958   6.076   1.482   6.375 -0.6681  0.2130 -0.5385
 8297SOL     OW32959   1.702   1.394   2.713  0.8874  0.5317  0.0257
 8297SOL    HW232960   1.677   1.338   2.639  0.2156 -0.0352  0.6699
 8297SOL    HW332961   1.642   1.469   2.708  1.5958  1.0722 -0.6647
 8297SOL    MW432962   1.691   1.397   2.702  0.8923  0.5282  0.0196
 8298SOL     OW32963   0.710   1.694   2.285 -0.3500  0.4568  0.3127
 8298SOL    HW232964   0.652   1.624   2.315  0.1915  0.0801  0.4986
 8298SOL    HW332965   0.706   1.689   2.190 -1.4154  1.1069  0.3000
 8298SOL    MW432966   0.702   1.684   2.277 -0.4191  0.4928  0.3356
 8299SOL     OW32967   2.052   0.159   6.426  0.0136  0.3710  0.5746
 8299SOL    HW232968   2.095   0.090   6.376 -2.1381  0.0077 -0.9424
 8299SOL    HW332969   2.034   0.118   6.511  0.0533 -0.4460  0.2005
 8299SOL    MW432970   2.055   0.144   6.431 -0.2650  0.2153  0.3251
 8300SOL     OW32971   5.230   2.125   4.279 -0.7727  0.2020  0.3122
 8300SOL    HW232972   5.304   2.172   4.318 -0.2700  0.5725 -1.0170
 8300SOL    HW332973   5.233   2.148   4.186  0.4409 -3.6079 -0.7903
 8300SOL    MW432974   5.240   2.134   4.272 -0.5462 -0.2518 -0.0086
 8301SOL     OW32975   2.849   0.872   5.842 -0.3044 -0.5646  0.4601
 8301SOL    HW232976   2.878   0.781   5.845  0.0354 -0.4352  1.2266
 8301SOL    HW332977   2.906   0.918   5.904 -0.5091  0.1610  0.1264
 8301SOL    MW432978   2.861   0.866   5.850 -0.2866 -0.4518  0.5172
 8302SOL     OW32979   6.054   4.141   4.053 -0.3689 -0.1966  0.3452
 8302SOL    HW232980   6.112   4.071   4.086  0.6562  0.4385 -0.0497
 8302SOL    HW332981   5.986   4.149   4.119  0.7617 -0.0378  1.5331
 8302SOL    MW432982   6.053   4.133   4.066 -0.0845 -0.0918  0.4498
 8303SOL     OW32983   3.126   3.608   5.901  0.1742  0.2507 -0.0755
 8303SOL    HW232984   3.039   3.575   5.921  1.0012 -0.9986  1.7131
 8303SOL    HW332985   3.152   3.562   5.821 -1.0414  1.1854 -1.0538
 8303SOL    MW432986   3.118   3.598   5.893  0.1229  0.2092  0.0314
 8304SOL     OW32987   5.980   1.603   4.823 -0.0800  0.5952 -0.5013
 8304SOL    HW232988   6.052   1.641   4.873  1.7380 -0.5549 -2.1096
 8304SOL    HW332989   5.937   1.678   4.783  1.0489  1.2283 -0.5647
 8304SOL    MW432990   5.984   1.618   4.825  0.3088  0.5270 -0.7218
 8305SOL     OW32991   4.242   2.482   0.657  0.5927 -0.4058 -0.1234
 8305SOL    HW232992   4.160   2.477   0.707  1.4571  0.2415  1.4126
 8305SOL    HW332993   4.300   2.420   0.699  0.8169 -1.1156 -1.4284
 8305SOL    MW432994   4.239   2.474   0.669  0.7363 -0.4141 -0.0930
 8306SOL     OW32995   4.750   1.971   0.979  0.2526 -0.2839 -0.2351
 8306SOL    HW232996   4.706   1.998   1.059  0.8049 -0.8753  0.2763
 8306SOL    HW332997   4.775   2.053   0.936  0.3629  0.0297  0.4203
 8306SOL    MW432998   4.748   1.985   0.984  0.3400 -0.3205 -0.0812
 8307SOL     OW32999   3.375   3.223   0.482 -0.4373  0.2064 -0.1739
 8307SOL    HW233000   3.320   3.231   0.560 -1.7066  1.4192 -1.1496
 8307SOL    HW333001   3.314   3.210   0.410  0.4776  1.8300 -1.3318
 8307SOL    MW433002   3.360   3.223   0.483 -0.4840  0.5806 -0.4554
 8308SOL     OW33003   1.382   4.435   1.759  0.0990 -0.1121  0.1425
 8308SOL    HW233004   1.455   4.494   1.777  0.0750  0.3647 -1.1976
 8308SOL    HW333005   1.359   4.452   1.668 -3.2146  1.4787  1.0913
 8308SOL    MW433006   1.388   4.445   1.750 -0.3414  0.1607  0.0909
 8309SOL     OW33007   0.583   4.650   2.478  0.4375  0.2989  0.7966
 8309SOL    HW233008   0.672   4.616   2.473  0.3693  0.0076  1.4744
 8309SOL    HW333009   0.545   4.631   2.392  1.0186  0.4135  0.5058
 8309SOL    MW433010   0.590   4.643   2.466  0.5051  0.2756  0.8476
 8310SOL     OW33011   4.897   6.025   5.919 -0.1776  0.0454  0.4217
 8310SOL    HW233012   4.847   6.103   5.896 -1.2581 -0.3685  1.3030
 8310SOL    HW333013   4.970   6.025   5.857 -1.2198  0.6966 -0.8597
 8310SOL    MW433014   4.900   6.035   5.907 -0.4576  0.0767  0.3689
 8311SOL     OW33015   0.704   3.120   6.216 -0.1992 -0.2349  0.5608
 8311SOL    HW233016   0.791   3.152   6.240  0.0778 -1.7239  1.7627
 8311SOL    HW333017   0.665   3.191   6.165  1.5077  0.6835  0.4529
 8311SOL    MW433018   0.710   3.134   6.213  0.0625 -0.3102  0.7052
 8312SOL     OW33019   2.587   1.743   4.878  0.4963 -0.3388  0.0493
 8312SOL    HW233020   2.655   1.770   4.941  0.6331 -1.1438  0.2594
 8312SOL    HW333021   2.635   1.724   4.798  0.2528  1.3073 -0.5219
 8312SOL    MW433022   2.602   1.744   4.876  0.4822 -0.2278  0.0017
 8313SOL     OW33023   6.001   2.790   3.866  0.0732  0.3545 -0.2465
 8313SOL    HW233024   5.952   2.857   3.913 -1.5775  0.2437 -1.7081
 8313SOL    HW333025   6.085   2.831   3.848  0.0605  1.0615  1.1413
 8313SOL    MW433026   6.005   2.804   3.870 -0.1463  0.4332 -0.2563
 8314SOL     OW33027   2.889   3.759   0.954  0.1791  0.3917  0.4626
 8314SOL    HW233028   2.893   3.801   0.868  1.9136  0.4687  0.5448
 8314SOL    HW333029   2.836   3.681   0.941  0.2423  0.5180 -0.6347
 8314SOL    MW433030   2.883   3.755   0.941  0.4163  0.4185  0.3287
 8315SOL     OW33031   5.583   0.723   0.776  0.3060  0.4171  0.2293
 8315SOL    HW233032   5.621   0.705   0.691 -1.1194 -1.2858 -0.1263
 8315SOL    HW333033   5.488   0.721   0.761 -0.0519 -1.7899  2.1077
 8315SOL    MW433034   5.575   0.720   0.763  0.0707 -0.0988  0.4302
 8316SOL     OW33035   5.930   0.807   3.938 -0.4342 -0.3434  0.1174
 8316SOL    HW233036   5.914   0.867   4.012 -0.5354  0.4913 -0.5620
 8316SOL    HW333037   5.880   0.729   3.960 -3.1077  1.0476 -0.5094
 8316SOL    MW433038   5.921   0.805   3.951 -0.8003 -0.0498 -0.0550
 8317SOL     OW33039   0.349   2.340   5.521  0.0149  0.2890  0.3706
 8317SOL    HW233040   0.322   2.346   5.613  0.5200  1.0202  0.4754
 8317SOL    HW333041   0.443   2.322   5.525  0.4316  2.2351 -0.0011
 8317SOL    MW433042   0.358   2.338   5.534  0.1365  0.6422  0.3354
 8318SOL     OW33043   0.298   1.711   0.766 -0.4346 -0.0159  0.9367
 8318SOL    HW233044   0.360   1.703   0.694  1.8049 -0.2497  2.7824
 8318SOL    HW333045   0.254   1.626   0.769 -0.2815 -0.1376  0.1090
 8318SOL    MW433046   0.300   1.699   0.757 -0.1189 -0.0628  1.0710
 8319SOL     OW33047   1.315   1.840   3.341  0.3619 -0.1963  0.2351
 8319SOL    HW233048   1.221   1.856   3.340  0.1710 -1.2449 -0.8560
 8319SOL    HW333049   1.324   1.752   3.377  0.9367 -0.0339  0.5007
 8319SOL    MW433050   1.304   1.831   3.345  0.4126 -0.3132  0.1262
 8320SOL     OW33051   4.841   5.906   0.805  0.2907 -0.2201  0.4514
 8320SOL    HW233052   4.757   5.927   0.847  0.5171  1.5322  0.1132
 8320SOL    HW333053   4.827   5.927   0.713  1.2144  0.5171  0.4671
 8320SOL    MW433054   4.828   5.911   0.798  0.4425  0.1084  0.4088
 8321SOL     OW33055   0.766   5.473   5.820  0.4516  0.0059 -0.4403
 8321SOL    HW233056   0.720   5.503   5.899  4.0574 -0.8498  2.2535
 8321SOL    HW333057   0.775   5.552   5.766  1.6971  1.7592  2.1491
 8321SOL    MW433058   0.761   5.488   5.823  1.0917  0.1243  0.2567
 8322SOL     OW33059   4.321   6.371   0.234 -0.5375  0.3834 -0.1732
 8322SOL    HW233060   4.232   6.337   0.222 -0.4642  0.1392 -0.0171
 8322SOL    HW333061   4.321   6.408   0.323 -0.2456 -0.3472  0.1376
 8322SOL    MW433062   4.309   6.372   0.244 -0.4893  0.2548 -0.1116
 8323SOL     OW33063   3.735   3.074   6.391  0.0961 -0.2113  0.3017
 8323SOL    HW233064   3.681   3.149   6.366  0.9150  0.8361  1.5386
 8323SOL    HW333065   3.814   3.082   6.337  0.8976  0.7813  1.5833
 8323SOL    MW433066   3.739   3.085   6.380  0.3099  0.0579  0.6340
 8324SOL     OW33067   4.546   5.362   4.287 -0.3840  0.4118  0.1763
 8324SOL    HW233068   4.628   5.326   4.320 -1.9751 -1.9646  1.8975
 8324SOL    HW333069   4.538   5.328   4.198  0.1240 -0.0025  0.2843
 8324SOL    MW433070   4.556   5.353   4.280 -0.5269  0.0436  0.4176
 8325SOL     OW33071   4.895   0.350   5.809 -0.5267  0.5923 -0.0484
 8325SOL    HW233072   4.967   0.412   5.822 -0.1576 -0.2045  2.0241
 8325SOL    HW333073   4.938   0.265   5.803 -1.1693  0.3243 -0.9651
 8325SOL    MW433074   4.911   0.347   5.810 -0.5628  0.4518  0.1041
 8326SOL     OW33075   5.187   4.443   3.900  0.0005 -0.7748  0.0466
 8326SOL    HW233076   5.243   4.503   3.949 -0.7999 -0.0389  0.0812
 8326SOL    HW333077   5.147   4.388   3.967 -0.7453 -0.0663  0.2018
 8326SOL    MW433078   5.189   4.444   3.915 -0.2035 -0.5842  0.0716
 8327SOL     OW33079   2.451   4.672   1.116  0.0834 -0.0097 -0.2920
 8327SOL    HW233080   2.490   4.740   1.062  0.0669  0.6833  0.5498
 8327SOL    HW333081   2.380   4.636   1.062 -0.7024  1.4827 -0.2876
 8327SOL    MW433082   2.447   4.676   1.101 -0.0224  0.2786 -0.1804
 8328SOL     OW33083   5.963   0.858   4.496 -0.1428  0.3125 -0.1099
 8328SOL    HW233084   6.036   0.920   4.496 -0.0302  0.3448  3.0445
 8328SOL    HW333085   5.997   0.781   4.541 -1.8774  0.1195  0.9454
 8328SOL    MW433086   5.977   0.856   4.502 -0.3568  0.2913  0.4455
 8329SOL     OW33087   4.907   6.204   0.778 -0.0537 -0.1653  0.2429
 8329SOL    HW233088   4.860   6.130   0.740  1.9162 -1.5693  0.3478
 8329SOL    HW333089   4.992   6.204   0.732  1.4051 -0.3226  2.7418
 8329SOL    MW433090   4.912   6.194   0.767  0.3986 -0.3713  0.5865
 8330SOL     OW33091   1.323   1.404   5.852  0.5061  0.6730  0.3346
 8330SOL    HW233092   1.415   1.415   5.876  1.1464  0.8227 -1.9998
 8330SOL    HW333093   1.310   1.310   5.845  0.0991  0.5804  1.8481
 8330SOL    MW433094   1.333   1.393   5.854  0.5368  0.6805  0.2263
 8331SOL     OW33095   2.845   0.273   0.402  0.0915  0.1387 -0.2400
 8331SOL    HW233096   2.857   0.330   0.478  1.1023 -0.1272 -0.1949
 8331SOL    HW333097   2.861   0.185   0.435 -0.0474 -0.0369 -0.6333
 8331SOL    MW433098   2.848   0.269   0.416  0.2065  0.0804 -0.2860
 8332SOL     OW33099   6.366   5.878   2.532  0.4661  0.0963 -0.1128
 8332SOL    HW233100   6.391   5.971   2.529  1.0660 -0.0287  0.8685
 8332SOL    HW333101   6.358   5.858   2.625  0.2032 -0.8095 -0.3206
 8332SOL    MW433102   6.368   5.888   2.544  0.5106 -0.0397 -0.0108
 8333SOL     OW33103   4.764   0.587   1.324  0.2249 -0.2293 -0.3259
 8333SOL    HW233104   4.751   0.631   1.408 -1.3616  2.0013 -1.6320
 8333SOL    HW333105   4.699   0.518   1.323 -0.0481  0.0150  0.1081
 8333SOL    MW433106   4.754   0.584   1.335 -0.0204  0.0973 -0.4410
 8334SOL     OW33107   0.767   3.077   2.409 -0.0918 -0.6879 -0.1171
 8334SOL    HW233108   0.702   3.069   2.479 -1.5383 -0.5839 -1.3918
 8334SOL    HW333109   0.832   3.010   2.429 -1.0377 -1.3801  0.7486
 8334SOL    MW433110   0.767   3.067   2.421 -0.4075 -0.7655 -0.1710
 8335SOL     OW33111   3.131   3.974   4.950  0.1261  0.2962  0.0082
 8335SOL    HW233112   3.136   4.062   4.913 -0.5881  0.3284 -0.0098
 8335SOL    HW333113   3.049   3.938   4.917  1.0442 -0.8931 -1.1164
 8335SOL    MW433114   3.121   3.981   4.940  0.1530  0.1436 -0.1426
 8336SOL     OW33115   5.548   5.903   2.749  0.4286 -0.4101 -0.5607
 8336SOL    HW233116   5.504   5.903   2.664 -0.7231 -3.5287 -0.1230
 8336SOL    HW333117   5.484   5.940   2.810  1.3408  2.0404 -1.0187
 8336SOL    MW433118   5.534   5.908   2.746  0.3970 -0.4982 -0.5634
 8337SOL     OW33119   4.331   2.551   6.381  0.0752  0.9899  0.5452
 8337SOL    HW233120   4.291   2.471   6.347 -0.3312  0.4332  2.2380
 8337SOL    HW333121   4.288   2.622   6.332  0.2163  0.2173 -0.7435
 8337SOL    MW433122   4.320   2.550   6.370  0.0402  0.8145  0.5985
 8338SOL     OW33123   1.538   6.327   6.385 -0.1001  0.0924 -0.7617
 8338SOL    HW233124   1.487   6.405   6.365  0.9886  1.0210 -0.0498
 8338SOL    HW333125   1.617   6.360   6.427 -0.3498 -1.4722  1.1175
 8338SOL    MW433126   1.542   6.342   6.388  0.0106  0.0085 -0.4198
 8339SOL     OW33127   3.992   3.360   2.598  0.1611  0.3135  0.3341
 8339SOL    HW233128   4.017   3.327   2.684  1.1387  0.6962  0.2093
 8339SOL    HW333129   4.038   3.444   2.589  0.4478  0.0598 -0.7500
 8339SOL    MW433130   4.001   3.367   2.608  0.3279  0.3305  0.1746
 8340SOL     OW33131   3.068   1.488   4.287 -0.0148  0.2099 -0.4324
 8340SOL    HW233132   3.101   1.399   4.303 -1.0533 -0.2569 -0.7720
 8340SOL    HW333133   3.105   1.540   4.358  1.0406 -0.3807 -0.5294
 8340SOL    MW433134   3.077   1.483   4.298 -0.0126  0.0704 -0.4900
 8341SOL     OW33135   2.128   1.819   4.459  0.0588 -0.0305  0.3576
 8341SOL    HW233136   2.040   1.785   4.474  0.6459 -1.6752  0.2729
 8341SOL    HW333137   2.115   1.913   4.446 -1.5344 -0.0444  1.5387
 8341SOL    MW433138   2.115   1.827   4.459 -0.0739 -0.2493  0.5023
 8342SOL     OW33139   0.236   6.298   5.022  0.9734 -0.1421  0.0764
 8342SOL    HW233140   0.252   6.258   4.937  1.8089 -1.6501  0.9053
 8342SOL    HW333141   0.322   6.300   5.064  1.3851  4.0869 -0.4896
 8342SOL    MW433142   0.250   6.293   5.017  1.1380  0.2169  0.1111
 8343SOL     OW33143   0.833   4.342   4.421 -0.1671 -0.4640 -0.1310
 8343SOL    HW233144   0.770   4.313   4.355  0.5057  0.7978 -1.3823
 8343SOL    HW333145   0.831   4.273   4.487 -1.6037 -1.2872 -0.9649
 8343SOL    MW433146   0.825   4.329   4.421 -0.2679 -0.4061 -0.4061
 8344SOL     OW33147   0.545   1.693   3.053  0.3629 -0.3003  0.3228
 8344SOL    HW233148   0.622   1.729   3.010 -0.0259 -0.3368 -0.4195
 8344SOL    HW333149   0.566   1.601   3.068 -0.5020 -1.0167 -2.2927
 8344SOL    MW433150   0.558   1.686   3.049  0.1975 -0.3997 -0.1202
 8345SOL     OW33151   1.061   3.293   0.493  0.3459 -0.2660 -0.2324
 8345SOL    HW233152   1.144   3.336   0.471  0.4307 -0.2320  0.1439
 8345SOL    HW333153   1.024   3.266   0.409  0.7299 -0.2651 -0.4007
 8345SOL    MW433154   1.067   3.295   0.479  0.4078 -0.2614 -0.2050
 8346SOL     OW33155   5.475   2.291   2.023  0.1628  0.8099 -0.2757
 8346SOL    HW233156   5.402   2.315   2.081  0.2651  1.1021 -0.2625
 8346SOL    HW333157   5.553   2.323   2.068  0.3232  0.2903 -0.1814
 8346SOL    MW433158   5.475   2.299   2.036  0.1975  0.7799 -0.2615
 8347SOL     OW33159   1.994   0.188   4.746 -0.6397 -0.3269  0.3048
 8347SOL    HW233160   1.930   0.249   4.709 -0.0969  1.1989  1.7644
 8347SOL    HW333161   2.036   0.148   4.670  0.4403  2.6558 -0.7845
 8347SOL    MW433162   1.991   0.191   4.731 -0.4256  0.2679  0.3537
 8348SOL     OW33163   3.179   1.715   0.066  0.5999 -0.8478 -0.8246
 8348SOL    HW233164   3.184   1.678  -0.022 -0.2913  1.1260 -1.7660
 8348SOL    HW333165   3.103   1.673   0.105 -0.0413 -0.4778 -1.6482
 8348SOL    MW433166   3.170   1.704   0.060  0.3977 -0.5385 -1.0575
 8349SOL     OW33167   3.521   1.572   3.523 -0.6531 -0.3205 -0.1036
 8349SOL    HW233168   3.453   1.518   3.483  0.3164 -2.9116  1.4857
 8349SOL    HW333169   3.527   1.540   3.613  1.3938  1.1101  0.3394
 8349SOL    MW433170   3.512   1.561   3.530 -0.2551 -0.4736  0.1645
 8350SOL     OW33171   5.120   4.882   0.550  0.3689 -0.1056  0.1724
 8350SOL    HW233172   5.107   4.789   0.567 -0.2736 -0.0779 -0.1356
 8350SOL    HW333173   5.203   4.903   0.592  2.3063 -1.5669 -2.5971
 8350SOL    MW433174   5.129   4.873   0.558  0.5398 -0.2947 -0.2336
 8351SOL     OW33175   0.233   6.353   3.251  0.2151 -0.0806 -0.2010
 8351SOL    HW233176   0.195   6.434   3.216  1.3700 -0.0491 -1.4863
 8351SOL    HW333177   0.327   6.370   3.253  0.5744 -1.7145 -1.4603
 8351SOL    MW433178   0.240   6.366   3.247  0.4149 -0.2920 -0.5367
 8352SOL     OW33179   5.975   1.325   1.108  0.3085 -0.6839  0.0902
 8352SOL    HW233180   6.070   1.318   1.114  0.3501 -0.7584 -0.5729
 8352SOL    HW333181   5.953   1.286   1.023 -0.0522  1.6806 -1.0078
 8352SOL    MW433182   5.984   1.319   1.097  0.2664 -0.3817 -0.1422
 8353SOL     OW33183   4.473   2.230   2.325 -0.4754  0.6206  0.2206
 8353SOL    HW233184   4.442   2.269   2.243 -1.2447 -0.4541 -0.0191
 8353SOL    HW333185   4.396   2.229   2.382 -0.7044 -1.1709 -0.0406
 8353SOL    MW433186   4.459   2.235   2.322 -0.6071  0.2424  0.1545
 8354SOL     OW33187   4.161   3.898   2.616  0.3257 -0.3288  0.0338
 8354SOL    HW233188   4.071   3.933   2.615  0.2266 -0.5266 -1.6540
 8354SOL    HW333189   4.151   3.806   2.592  0.9752 -0.3353 -0.2302
 8354SOL    MW433190   4.147   3.891   2.613  0.3983 -0.3558 -0.2237
 8355SOL     OW33191   3.417   0.925   2.160  0.1609  0.1298  0.2722
 8355SOL    HW233192   3.464   0.846   2.188 -0.6109 -0.5485 -0.2807
 8355SOL    HW333193   3.431   0.929   2.065 -2.4005 -1.1941 -0.2623
 8355SOL    MW433194   3.425   0.915   2.151 -0.2789 -0.1343  0.1287
 8356SOL     OW33195   1.771   1.452   4.193  0.0915  0.1331  0.0391
 8356SOL    HW233196   1.781   1.423   4.103 -0.5430 -0.9818  0.3143
 8356SOL    HW333197   1.860   1.454   4.228  0.4761  1.7206 -0.9273
 8356SOL    MW433198   1.784   1.449   4.186  0.0585  0.1955 -0.0521
 8357SOL     OW33199   0.028   4.445   3.102 -0.2087  0.5345 -0.2854
 8357SOL    HW233200   0.031   4.462   3.008 -2.4867  1.8139 -0.2187
 8357SOL    HW333201  -0.022   4.364   3.110  0.6391  0.0135 -0.1838
 8357SOL    MW433202   0.021   4.437   3.091 -0.3974  0.6345 -0.2632
 8358SOL     OW33203   3.881   0.667   3.674  0.3262  0.1115  0.3152
 8358SOL    HW233204   3.867   0.649   3.767  1.3532 -1.1981  0.2497
 8358SOL    HW333205   3.896   0.581   3.635  0.8532  0.7266 -0.8942
 8358SOL    MW433206   3.881   0.653   3.681  0.5313  0.0199  0.1470
 8359SOL     OW33207   2.545   5.114   3.547 -0.4146  0.1727 -0.5400
 8359SOL    HW233208   2.580   5.103   3.636  1.6366 -0.1798 -1.3410
 8359SOL    HW333209   2.452   5.135   3.561  0.1546  1.5367  1.7262
 8359SOL    MW433210   2.537   5.115   3.561 -0.0689  0.3061 -0.3467
 8360SOL     OW33211   2.130   4.151   6.266 -0.0369 -0.1653  0.2264
 8360SOL    HW233212   2.131   4.203   6.186 -0.7950 -0.3164  0.1191
 8360SOL    HW333213   2.212   4.175   6.310 -0.1339  0.7482 -0.0574
 8360SOL    MW433214   2.141   4.161   6.261 -0.1497 -0.0647  0.1748
 8361SOL     OW33215   5.461   5.205   3.791  0.7089  0.4880  0.3903
 8361SOL    HW233216   5.412   5.185   3.711  0.4399  0.8040  0.4729
 8361SOL    HW333217   5.454   5.126   3.844  0.5684  0.4125  0.2609
 8361SOL    MW433218   5.454   5.192   3.788  0.6549  0.5197  0.3841
 8362SOL     OW33219   2.584   4.918   6.376 -0.2879  0.0346 -0.0046
 8362SOL    HW233220   2.540   4.956   6.299  0.9336  0.6782 -0.4057
 8362SOL    HW333221   2.673   4.903   6.347 -0.1648 -1.0250  0.8809
 8362SOL    MW433222   2.590   4.921   6.362 -0.1105 -0.0203  0.0593
 8363SOL     OW33223   1.017   2.917   2.804 -0.2768  0.4022 -1.0427
 8363SOL    HW233224   1.087   2.878   2.857 -1.6284 -1.2931 -0.3954
 8363SOL    HW333225   1.062   2.977   2.744  1.5330  0.6745  0.4936
 8363SOL    MW433226   1.032   2.920   2.803 -0.2163  0.2144 -0.7546
 8364SOL     OW33227   5.149   3.136   0.169  0.2431 -0.4246  0.4627
 8364SOL    HW233228   5.143   3.042   0.186  0.0151 -0.6493 -0.7985
 8364SOL    HW333229   5.112   3.177   0.247 -0.0878 -1.3932  0.8243
 8364SOL    MW433230   5.143   3.129   0.182  0.1694 -0.5821  0.3440
 8365SOL     OW33231   0.265   1.180   4.005 -0.3120  0.0709  0.6264
 8365SOL    HW233232   0.209   1.236   3.950 -0.3512 -0.2139  0.3754
 8365SOL    HW333233   0.220   1.176   4.089  0.0541  1.0080  0.8796
 8365SOL    MW433234   0.252   1.187   4.009 -0.2689  0.1570  0.6267
 8366SOL     OW33235   0.496   4.141   1.736 -0.1767 -0.4778  0.1319
 8366SOL    HW233236   0.546   4.071   1.695 -0.0216 -0.3786  0.1505
 8366SOL    HW333237   0.425   4.096   1.783  0.4910 -0.6947  0.9580
 8366SOL    MW433238   0.493   4.126   1.737 -0.0681 -0.4933  0.2433
 8367SOL     OW33239   5.565   4.797   0.732  0.5634  0.4287 -0.3677
 8367SOL    HW233240   5.636   4.804   0.668  0.4789 -0.6525 -0.5997
 8367SOL    HW333241   5.610   4.788   0.816  0.7851 -1.8367 -0.6645
 8367SOL    MW433242   5.580   4.797   0.734  0.5815 -0.0129 -0.4374
 8368SOL     OW33243   1.932   5.810   5.092 -0.1105  0.0524  0.0605
 8368SOL    HW233244   2.016   5.839   5.126  0.0647  1.3041 -1.3225
 8368SOL    HW333245   1.879   5.794   5.170  0.5672  1.8669  0.9668
 8368SOL    MW433246   1.936   5.812   5.107  0.0021  0.4570 -0.0024
 8369SOL     OW33247   2.380   0.851   1.421  0.0231  0.4491  0.0853
 8369SOL    HW233248   2.303   0.907   1.413 -1.3454 -1.5790 -1.6917
 8369SOL    HW333249   2.451   0.902   1.381 -1.1665  0.9601 -1.4306
 8369SOL    MW433250   2.379   0.865   1.415 -0.3144  0.2489 -0.3491
 8370SOL     OW33251   1.565   2.547   3.280  0.1739  0.0816  0.2892
 8370SOL    HW233252   1.553   2.601   3.358  1.0306  0.4317  0.1886
 8370SOL    HW333253   1.630   2.482   3.306 -0.2699 -0.4140  0.1661
 8370SOL    MW433254   1.572   2.546   3.294  0.2284  0.0624  0.2597
 8371SOL     OW33255   3.246   0.822   0.611 -0.1411 -0.5959 -0.2078
 8371SOL    HW233256   3.256   0.762   0.684 -0.2828 -0.6102 -0.1996
 8371SOL    HW333257   3.177   0.883   0.638 -0.6506 -0.9954 -0.5870
 8371SOL    MW433258   3.238   0.822   0.624 -0.2270 -0.6505 -0.2567
 8372SOL     OW33259   0.454   0.265   5.163 -0.0519 -0.0599  0.1106
 8372SOL    HW233260   0.525   0.215   5.123 -0.6154 -2.0877  1.4842
 8372SOL    HW333261   0.374   0.220   5.134 -0.6726  0.9380  0.2278
 8372SOL    MW433262   0.453   0.253   5.154 -0.2081 -0.1958  0.3073
 8373SOL     OW33263   2.667   2.764   2.133  0.6157 -0.8459 -0.0620
 8373SOL    HW233264   2.612   2.687   2.117  1.4336 -1.1019 -1.8528
 8373SOL    HW333265   2.633   2.831   2.074  1.0705 -0.4260  0.1482
 8373SOL    MW433266   2.655   2.762   2.123  0.7836 -0.8243 -0.2705
 8374SOL     OW33267   3.380   0.341   2.180  0.3636  0.1714 -0.3345
 8374SOL    HW233268   3.310   0.402   2.201 -0.1958 -0.2606 -0.8712
 8374SOL    HW333269   3.458   0.378   2.219 -0.1522  0.7175  0.1871
 8374SOL    MW433270   3.381   0.354   2.188  0.2218  0.1865 -0.3365
 8375SOL     OW33271   5.881   5.009   4.444  0.7169  0.1810 -0.5149
 8375SOL    HW233272   5.855   4.922   4.477 -0.8066  1.4445  1.9191
 8375SOL    HW333273   5.966   5.025   4.483  0.8454 -0.0548 -0.6915
 8375SOL    MW433274   5.889   4.999   4.453  0.5329  0.3166 -0.2171
 8376SOL     OW33275   3.125   5.663   5.014 -0.7733  0.3343  0.1210
 8376SOL    HW233276   3.142   5.606   5.089 -0.1890  1.7590  1.1137
 8376SOL    HW333277   3.204   5.658   4.961 -0.8040  0.0731  0.0983
 8376SOL    MW433278   3.137   5.655   5.017 -0.7002  0.4878  0.2490
 8377SOL     OW33279   0.594   4.123   2.472 -0.4333  0.3461 -0.2304
 8377SOL    HW233280   0.586   4.028   2.463 -0.1150  0.5083 -3.0082
 8377SOL    HW333281   0.680   4.144   2.436 -0.3177  1.6712  0.7250
 8377SOL    MW433282   0.604   4.113   2.466 -0.3761  0.5424 -0.4708
 8378SOL     OW33283   1.821   4.067   5.124  0.3538 -0.4557 -0.2489
 8378SOL    HW233284   1.765   4.075   5.201 -1.1520  0.5269 -1.3776
 8378SOL    HW333285   1.867   4.151   5.118  0.2552 -0.4234 -0.5721
 8378SOL    MW433286   1.820   4.079   5.133  0.1421 -0.3218 -0.4404
 8379SOL     OW33287   3.267   0.634   1.989 -0.2897 -0.2607  0.4571
 8379SOL    HW233288   3.273   0.729   1.981  0.4169 -0.1961  1.5083
 8379SOL    HW333289   3.346   0.602   1.946 -0.9777 -0.4452 -0.7100
 8379SOL    MW433290   3.279   0.643   1.983 -0.2873 -0.2765  0.4418
 8380SOL     OW33291   3.394   5.435   4.182  0.4037 -0.1918 -0.0494
 8380SOL    HW233292   3.411   5.454   4.275  2.8691 -1.4769 -0.1541
 8380SOL    HW333293   3.321   5.373   4.184  1.8223 -1.9378  1.2504
 8380SOL    MW433294   3.387   5.429   4.195  0.9161 -0.5917  0.1083
 8381SOL     OW33295   0.042   1.560   2.871 -0.3752 -0.5100  0.0469
 8381SOL    HW233296   0.015   1.650   2.890 -2.6598 -1.0246 -0.3961
 8381SOL    HW333297   0.094   1.567   2.791 -2.1034  0.2954 -1.0770
 8381SOL    MW433298   0.045   1.573   2.863 -0.9046 -0.4717 -0.1598
 8382SOL     OW33299   4.192   2.657   1.719 -0.2463  0.3185 -0.4957
 8382SOL    HW233300   4.100   2.637   1.709  0.0417 -0.4007 -1.9156
 8382SOL    HW333301   4.197   2.706   1.801 -1.8255  0.0694 -0.2227
 8382SOL    MW433302   4.181   2.661   1.729 -0.4167  0.1907 -0.6470
 8383SOL     OW33303   5.030   1.398   1.931 -0.6274  0.9284  0.3610
 8383SOL    HW233304   5.026   1.321   1.988 -0.6384  0.9599  0.4027
 8383SOL    HW333305   4.949   1.446   1.950 -0.5351  1.0428  0.4648
 8383SOL    MW433306   5.019   1.394   1.941 -0.6167  0.9477  0.3802
 8384SOL     OW33307   6.380   1.065   2.075 -0.1162  0.3726 -0.4175
 8384SOL    HW233308   6.370   1.147   2.123  3.6112  0.8595 -0.1587
 8384SOL    HW333309   6.475   1.051   2.072 -0.5589 -3.5786 -1.0844
 8384SOL    MW433310   6.391   1.074   2.081  0.3172 -0.0845 -0.4713
 8385SOL     OW33311   5.515   4.953   4.497  0.1921 -0.1175  0.3584
 8385SOL    HW233312   5.482   5.042   4.480 -0.5410 -0.6443 -1.2235
 8385SOL    HW333313   5.536   4.919   4.410  0.3577 -1.5262  0.9321
 8385SOL    MW433314   5.513   4.960   4.483  0.1172 -0.3728  0.2254
 8386SOL     OW33315   3.819   0.343   2.139 -0.5622 -0.0456 -0.1983
 8386SOL    HW233316   3.854   0.271   2.192  0.1255  0.4628  0.0432
 8386SOL    HW333317   3.834   0.315   2.049  1.6498  0.6888 -0.1259
 8386SOL    MW433318   3.826   0.329   2.134 -0.1796  0.1184 -0.1569
 8387SOL     OW33319   5.335   2.944   5.705  0.6350  0.0688  0.8680
 8387SOL    HW233320   5.273   2.872   5.712 -1.0661  1.5091  1.0444
 8387SOL    HW333321   5.338   2.963   5.611  0.3349  0.4305  0.9359
 8387SOL    MW433322   5.327   2.937   5.693  0.3710  0.3065  0.9002
 8388SOL     OW33323   2.546   6.435   5.976 -0.2576  0.5619 -0.6829
 8388SOL    HW233324   2.519   6.402   5.890  0.8285 -0.0673 -0.7934
 8388SOL    HW333325   2.641   6.420   5.979 -0.5007 -0.9408  1.2708
 8388SOL    MW433326   2.555   6.429   5.965 -0.1464  0.2806 -0.4397
 8389SOL     OW33327   3.883   3.121   1.400  0.7348 -0.1374  0.3219
 8389SOL    HW233328   3.960   3.148   1.451  0.1718  0.4448  0.8928
 8389SOL    HW333329   3.918   3.067   1.329  1.6988  0.4392  0.3506
 8389SOL    MW433330   3.898   3.117   1.398  0.7877  0.0155  0.4010
 8390SOL     OW33331   2.192   2.328   3.726  0.0111  0.0468 -0.2026
 8390SOL    HW233332   2.236   2.250   3.692  0.4163 -0.1329  0.7095
 8390SOL    HW333333   2.118   2.342   3.667 -1.0008 -1.9481  0.5214
 8390SOL    MW433334   2.188   2.320   3.714 -0.0690 -0.2401  0.0133
 8391SOL     OW33335   1.096   5.693   5.499 -0.2881 -0.4319 -0.5508
 8391SOL    HW233336   1.134   5.771   5.540 -0.1833  0.4686 -2.2697
 8391SOL    HW333337   1.170   5.633   5.488  0.1320  0.2225 -1.4165
 8391SOL    MW433338   1.110   5.696   5.503 -0.2189 -0.2268 -0.8918
 8392SOL     OW33339   3.398   3.134   6.121  0.2455 -0.8831 -0.0333
 8392SOL    HW233340   3.394   3.192   6.046  0.0714  0.9192  1.3068
 8392SOL    HW333341   3.438   3.186   6.191 -2.8509 -1.1904  2.1881
 8392SOL    MW433342   3.403   3.148   6.120 -0.1860 -0.6859  0.4366
 8393SOL     OW33343   6.418   3.174   1.009  0.8912  0.1285 -0.1043
 8393SOL    HW233344   6.347   3.238   1.017  0.1421 -0.5321 -1.2016
 8393SOL    HW333345   6.448   3.160   1.099 -2.0723 -1.4519  0.7701
 8393SOL    MW433346   6.413   3.181   1.022  0.4014 -0.1672 -0.1337
 8394SOL     OW33347   1.891   5.427   5.434  0.0782  0.6114 -0.1542
 8394SOL    HW233348   1.918   5.404   5.522 -0.8111  0.5950  0.1216
 8394SOL    HW333349   1.838   5.506   5.444 -0.1804  0.5077 -0.6516
 8394SOL    MW433350   1.888   5.434   5.447 -0.0732  0.5956 -0.1834
 8395SOL     OW33351   2.458   5.105   5.283  0.1009  0.2141 -0.1298
 8395SOL    HW233352   2.490   5.107   5.193 -0.6230  1.2296 -0.3840
 8395SOL    HW333353   2.380   5.161   5.283  0.5329  0.8867  1.2923
 8395SOL    MW433354   2.452   5.113   5.271  0.0624  0.4368  0.0243
 8396SOL     OW33355   3.628   3.926   2.659 -0.2412  0.3765  0.2821
 8396SOL    HW233356   3.647   3.937   2.752 -1.3044  0.2936  0.5119
 8396SOL    HW333357   3.634   3.832   2.644  2.3644  0.5309 -0.2964
 8396SOL    MW433358   3.632   3.915   2.669 -0.0377  0.3860  0.2361
 8397SOL     OW33359   0.882   2.588   4.335 -0.2037 -0.6943 -0.2286
 8397SOL    HW233360   0.936   2.547   4.268  0.7469 -2.0732  1.3155
 8397SOL    HW333361   0.941   2.648   4.379  0.2791 -2.5100  1.7404
 8397SOL    MW433362   0.897   2.591   4.332 -0.0146 -1.1158  0.2349
 8398SOL     OW33363   1.431   5.994   1.680  0.0863 -0.1454  0.1053
 8398SOL    HW233364   1.515   6.039   1.694 -0.4590  0.6564  0.9046
 8398SOL    HW333365   1.398   6.032   1.598 -0.5345  1.2151  0.9564
 8398SOL    MW433366   1.438   6.005   1.671 -0.0675  0.1399  0.3230
 8399SOL     OW33367   4.877   4.478   1.519 -0.2713  0.0054  0.7539
 8399SOL    HW233368   4.861   4.538   1.446  0.7541  1.3785  1.6111
 8399SOL    HW333369   4.967   4.449   1.507 -0.0988  0.2272  1.4485
 8399SOL    MW433370   4.887   4.482   1.508 -0.1132  0.2159  0.9586
 8400SOL     OW33371   4.927   2.839   3.341  0.3240 -0.1783 -0.1133
 8400SOL    HW233372   4.926   2.822   3.247  1.1325  1.6846 -0.5022
 8400SOL    HW333373   4.886   2.762   3.380 -2.2095  0.0064 -2.1498
 8400SOL    MW433374   4.921   2.827   3.334  0.0964  0.0918 -0.4333
 8401SOL     OW33375   5.955   5.498   1.689  0.3101  0.6630  0.7258
 8401SOL    HW233376   5.903   5.516   1.767 -0.7505  0.1177  0.1587
 8401SOL    HW333377   5.946   5.404   1.674  0.7776  0.7031  0.1327
 8401SOL    MW433378   5.947   5.488   1.697  0.2318  0.5964  0.5727
 8402SOL     OW33379   5.092   1.263   6.182 -0.6829 -0.0369  0.4674
 8402SOL    HW233380   5.130   1.176   6.181  1.2213  0.7516  0.5443
 8402SOL    HW333381   5.002   1.250   6.152  0.2592 -1.7220 -1.9329
 8402SOL    MW433382   5.085   1.250   6.178 -0.3074 -0.1552  0.1609
 8403SOL     OW33383   3.309   0.760   0.138 -0.4646  0.2376 -0.0057
 8403SOL    HW233384   3.287   0.742   0.230  0.2057  0.4956  0.2157
 8403SOL    HW333385   3.255   0.836   0.115 -2.0214 -0.9451 -0.4169
 8403SOL    MW433386   3.299   0.768   0.147 -0.5816  0.1156 -0.0307
 8404SOL     OW33387   0.708   0.875   2.230 -0.3191  0.7224 -0.4757
 8404SOL    HW233388   0.771   0.803   2.236  0.3120  1.3500  0.7200
 8404SOL    HW333389   0.622   0.831   2.235 -0.0174 -0.1098 -1.8799
 8404SOL    MW433390   0.705   0.860   2.231 -0.1960  0.6954 -0.5032
 8405SOL     OW33391   2.708   4.886   1.568  0.1279 -0.1600 -0.1475
 8405SOL    HW233392   2.677   4.898   1.478 -2.3789 -1.8796  0.3826
 8405SOL    HW333393   2.630   4.861   1.617  1.5788 -0.0718  2.3697
 8405SOL    MW433394   2.694   4.885   1.563 -0.0114 -0.3752  0.2546
 8406SOL     OW33395   2.639   1.716   0.806 -0.0446 -0.0665  0.6045
 8406SOL    HW233396   2.714   1.667   0.773 -0.6945  0.9557 -2.8886
 8406SOL    HW333397   2.568   1.652   0.808  0.1427 -0.2807  0.5028
 8406SOL    MW433398   2.640   1.701   0.802 -0.1056  0.0401  0.1302
 8407SOL     OW33399   2.421   0.595   4.964  0.1636 -0.2448 -0.1246
 8407SOL    HW233400   2.451   0.613   4.875  1.4646  0.6307  0.4456
 8407SOL    HW333401   2.462   0.512   4.987  0.1179 -0.2979 -0.2405
 8407SOL    MW433402   2.431   0.587   4.955  0.3292 -0.1363 -0.0647
 8408SOL     OW33403   0.148   0.527   0.878 -0.0777  0.0357 -0.3578
 8408SOL    HW233404   0.085   0.488   0.939 -3.1426  2.0751 -1.9558
 8408SOL    HW333405   0.146   0.620   0.898  0.7687  0.4135 -1.8878
 8408SOL    MW433406   0.139   0.534   0.888 -0.3704  0.3547 -0.7705
 8409SOL     OW33407   0.658   4.104   1.068 -0.4908 -0.4352 -0.1894
 8409SOL    HW233408   0.625   4.015   1.081 -0.1882 -0.3810  1.1236
 8409SOL    HW333409   0.749   4.100   1.098 -0.2369  0.1373 -0.8581
 8409SOL    MW433410   0.666   4.092   1.074 -0.4174 -0.3525 -0.1044
 8410SOL     OW33411   5.739   0.193   3.830 -0.6742  0.3698  0.4553
 8410SOL    HW233412   5.688   0.229   3.758  0.2119 -0.0748 -0.4170
 8410SOL    HW333413   5.813   0.254   3.840  1.1508 -1.3650 -1.4026
 8410SOL    MW433414   5.742   0.206   3.822 -0.3165  0.0822  0.0951
 8411SOL     OW33415   3.407   3.680   1.122  0.3795 -0.2687 -0.1769
 8411SOL    HW233416   3.312   3.684   1.109  0.4919 -0.2621 -1.0708
 8411SOL    HW333417   3.425   3.588   1.140  0.3350 -0.4900 -1.2034
 8411SOL    MW433418   3.397   3.668   1.123  0.3885 -0.2970 -0.4302
 8412SOL     OW33419   5.169   4.927   3.878 -1.1579 -0.0346  0.1048
 8412SOL    HW233420   5.196   4.872   3.804  0.3911 -0.0645  0.6472
 8412SOL    HW333421   5.128   4.866   3.939  1.0459 -0.7865  0.9502
 8412SOL    MW433422   5.167   4.911   3.876 -0.6628 -0.1377  0.2879
 8413SOL     OW33423   6.320   2.951   6.355  0.1792  0.2423  0.2518
 8413SOL    HW233424   6.323   2.997   6.439  0.3405  1.4801 -0.4004
 8413SOL    HW333425   6.227   2.933   6.341  0.2662 -1.1342  1.2784
 8413SOL    MW433426   6.308   2.955   6.364  0.2120  0.2240  0.3012
 8414SOL     OW33427   2.073   4.913   5.644 -0.1522  0.3481  1.1742
 8414SOL    HW233428   2.009   4.966   5.598 -0.5861 -0.1309  1.2146
 8414SOL    HW333429   2.124   4.871   5.575  0.2032  0.8216  1.1422
 8414SOL    MW433430   2.072   4.914   5.629 -0.1625  0.3473  1.1753
 8415SOL     OW33431   2.443   1.468   0.858 -0.2330 -0.0629 -0.1727
 8415SOL    HW233432   2.471   1.378   0.840 -0.4213  0.0343 -1.0156
 8415SOL    HW333433   2.447   1.476   0.953  2.3747 -0.1239 -0.1900
 8415SOL    MW433434   2.447   1.457   0.868  0.0862 -0.0581 -0.2862
 8416SOL     OW33435   5.389   0.297   4.235  0.1086 -0.0725 -0.3136
 8416SOL    HW233436   5.375   0.391   4.241  0.8968 -0.0597  2.5656
 8416SOL    HW333437   5.360   0.262   4.319 -0.3101 -2.4554 -1.3463
 8416SOL    MW433438   5.383   0.305   4.247  0.1573 -0.3852 -0.0700
 8417SOL     OW33439   5.576   1.944   3.888  0.6681 -0.5375 -0.4293
 8417SOL    HW233440   5.531   2.013   3.839 -0.0285  0.2589  1.2837
 8417SOL    HW333441   5.668   1.970   3.887  0.5259 -0.0406 -0.5026
 8417SOL    MW433442   5.583   1.956   3.881  0.5574 -0.3669 -0.2130
 8418SOL     OW33443   0.844   0.688   3.064 -0.0826 -0.4393  0.2088
 8418SOL    HW233444   0.876   0.680   2.974  0.5680  2.2669  0.0920
 8418SOL    HW333445   0.912   0.739   3.109 -2.3860  2.1993  0.9791
 8418SOL    MW433446   0.857   0.694   3.058 -0.3007  0.2659  0.2950
 8419SOL     OW33447   1.634   6.425   5.089 -0.4545 -0.1435 -0.4468
 8419SOL    HW233448   1.716   6.420   5.040  0.2161 -2.0942  0.7770
 8419SOL    HW333449   1.651   6.489   5.158  0.3696 -1.1119  0.2882
 8419SOL    MW433450   1.647   6.433   5.092 -0.2573 -0.5287 -0.1884
 8420SOL     OW33451   3.234   5.521   4.478  0.7599 -0.6304  0.4209
 8420SOL    HW233452   3.153   5.572   4.476  0.1195 -1.6288  0.5704
 8420SOL    HW333453   3.246   5.499   4.571  2.9064  2.1366  0.9429
 8420SOL    MW433454   3.225   5.525   4.490  0.9586 -0.3971  0.5095
 8421SOL     OW33455   4.935   4.107   0.773  0.1650  0.3108  0.3732
 8421SOL    HW233456   4.938   4.072   0.862 -0.0770 -2.1372 -0.4991
 8421SOL    HW333457   5.009   4.065   0.728 -1.9699 -1.7119 -1.5517
 8421SOL    MW433458   4.945   4.097   0.778 -0.1486 -0.2791  0.0041
 8422SOL     OW33459   3.942   4.964   2.271 -0.4919  0.0129 -0.3263
 8422SOL    HW233460   3.930   4.976   2.365 -1.2709  1.4410 -0.5802
 8422SOL    HW333461   3.881   4.895   2.247  0.6224 -1.2840  0.3953
 8422SOL    MW433462   3.933   4.956   2.280 -0.4477  0.0302 -0.2646
 8423SOL     OW33463   2.452   4.238   1.021 -0.0672 -0.4716  0.0034
 8423SOL    HW233464   2.489   4.150   1.010  2.1811  0.0972  2.0694
 8423SOL    HW333465   2.385   4.228   1.087 -0.7911 -0.8311 -0.7677
 8423SOL    MW433466   2.448   4.225   1.028  0.1340 -0.4440  0.1743
 8424SOL     OW33467   5.339   5.564   5.288  0.0008 -0.0997 -0.7012
 8424SOL    HW233468   5.370   5.642   5.334 -2.2802  0.5593 -0.1505
 8424SOL    HW333469   5.318   5.502   5.357 -0.2839 -0.3709 -1.0283
 8424SOL    MW433470   5.341   5.566   5.303 -0.3377 -0.0485 -0.6717
 8425SOL     OW33471   3.655   5.621   0.166 -0.3942 -0.3296  0.7233
 8425SOL    HW233472   3.630   5.629   0.074 -0.5434  2.2462  0.9083
 8425SOL    HW333473   3.664   5.711   0.196 -2.8709 -0.9707  3.9421
 8425SOL    MW433474   3.653   5.634   0.157 -0.7406 -0.0744  1.1724
 8426SOL     OW33475   6.377   1.228   0.896 -0.3481 -0.1329  0.2893
 8426SOL    HW233476   6.466   1.201   0.921 -0.1150 -0.2547 -0.6204
 8426SOL    HW333477   6.346   1.279   0.970  0.8273  0.6529  0.2847
 8426SOL    MW433478   6.385   1.231   0.909 -0.1623 -0.0453  0.1687
 8427SOL     OW33479   4.054   6.136   5.721 -0.2163 -0.7486 -0.2097
 8427SOL    HW233480   4.057   6.074   5.794  1.0015 -0.3216  0.1412
 8427SOL    HW333481   3.999   6.208   5.753  0.5712 -0.4087  0.4512
 8427SOL    MW433482   4.047   6.137   5.735  0.0483 -0.6474 -0.0762
 8428SOL     OW33483   3.478   3.466   0.380 -0.0132 -0.0564 -0.6298
 8428SOL    HW233484   3.399   3.518   0.360 -0.3529 -1.2342 -2.7034
 8428SOL    HW333485   3.444   3.379   0.402  0.6615 -0.1086  0.2620
 8428SOL    MW433486   3.463   3.462   0.380  0.0310 -0.2187 -0.7857
 8429SOL     OW33487   5.186   5.377   4.581 -0.0246 -0.0047  0.0264
 8429SOL    HW233488   5.148   5.464   4.571  1.3336  0.6626  0.3312
 8429SOL    HW333489   5.194   5.343   4.492 -1.4424 -0.2437 -0.0339
 8429SOL    MW433490   5.182   5.384   4.568 -0.0325  0.0518  0.0586
 8430SOL     OW33491   5.637   3.434   1.205  0.3324 -0.0987 -0.5043
 8430SOL    HW233492   5.647   3.385   1.287 -1.6962 -2.0701 -1.3265
 8430SOL    HW333493   5.578   3.506   1.228  0.0741 -0.4195 -0.1233
 8430SOL    MW433494   5.630   3.437   1.219  0.0307 -0.4011 -0.5625
 8431SOL     OW33495   3.165   4.183   6.107 -0.0294  0.1056  0.1514
 8431SOL    HW233496   3.117   4.102   6.124  0.3788  0.3865  3.2207
 8431SOL    HW333497   3.101   4.253   6.121  0.4639  0.3860  1.0896
 8431SOL    MW433498   3.150   4.182   6.111  0.0896  0.1796  0.6802
 8432SOL     OW33499   0.661   5.780   3.799 -0.2753  0.1215  0.3159
 8432SOL    HW233500   0.570   5.756   3.817 -0.2086 -0.6711 -0.3852
 8432SOL    HW333501   0.701   5.702   3.762 -0.0281  1.2352 -1.9395
 8432SOL    MW433502   0.654   5.767   3.797 -0.2339  0.1638 -0.0742
 8433SOL     OW33503   2.515   4.203   0.541 -0.7551 -0.0008  0.1370
 8433SOL    HW233504   2.479   4.270   0.483 -0.3870  0.9153  0.9378
 8433SOL    HW333505   2.606   4.193   0.512 -1.1690 -1.1471 -0.8445
 8433SOL    MW433506   2.522   4.211   0.530 -0.7612 -0.0311  0.1131
 8434SOL     OW33507   1.578   0.315   6.291  0.1892 -0.1902 -0.0281
 8434SOL    HW233508   1.513   0.246   6.300 -0.7298  0.7453  0.8475
 8434SOL    HW333509   1.625   0.315   6.375  0.1136  0.2947  0.0177
 8434SOL    MW433510   1.576   0.306   6.303  0.0580 -0.0028  0.0934
 8435SOL     OW33511   5.178   3.380   4.234 -0.1726  0.1531 -0.3980
 8435SOL    HW233512   5.100   3.326   4.242 -0.5432  0.4253 -1.9331
 8435SOL    HW333513   5.205   3.370   4.143 -0.3014  2.6035 -0.7654
 8435SOL    MW433514   5.171   3.371   4.223 -0.2385  0.5123 -0.6490
 8436SOL     OW33515   3.451   0.100   0.342  0.2339  0.2057 -0.6845
 8436SOL    HW233516   3.469   0.006   0.351 -1.1195 -0.1084 -0.9715
 8436SOL    HW333517   3.518   0.142   0.396  0.5494 -0.9491 -0.1331
 8436SOL    MW433518   3.462   0.093   0.350  0.0970  0.0119 -0.6496
 8437SOL     OW33519   2.230   0.840   3.656 -0.4022 -0.4833  0.0221
 8437SOL    HW233520   2.237   0.919   3.709 -0.4620 -0.9101  0.6680
 8437SOL    HW333521   2.275   0.863   3.574  2.8824 -0.9462  1.5280
 8437SOL    MW433522   2.237   0.854   3.652  0.0233 -0.6007  0.3060
 8438SOL     OW33523   3.726   3.271   5.138  0.0400 -0.5477  0.2235
 8438SOL    HW233524   3.811   3.315   5.150 -1.6173  2.7684  0.8759
 8438SOL    HW333525   3.711   3.275   5.043 -0.9074  2.3057  0.3812
 8438SOL    MW433526   3.735   3.277   5.127 -0.3037  0.2663  0.3304
 8439SOL     OW33527   4.300   3.187   5.578 -0.3596 -0.5281  0.6810
 8439SOL    HW233528   4.240   3.116   5.597  1.0417 -1.3079  2.4309
 8439SOL    HW333529   4.342   3.207   5.661  0.7547  0.9852 -0.1809
 8439SOL    MW433530   4.298   3.181   5.591 -0.0277 -0.4313  0.7982
 8440SOL     OW33531   0.662   2.294   0.625 -0.0737 -0.7852 -0.4295
 8440SOL    HW233532   0.632   2.214   0.582 -1.9650 -0.7350  0.6939
 8440SOL    HW333533   0.685   2.353   0.553 -0.2402 -1.7451 -1.2942
 8440SOL    MW433534   0.661   2.291   0.610 -0.3452 -0.9052 -0.3954
 8441SOL     OW33535   3.344   5.039   0.962 -0.7914  0.8172  0.2427
 8441SOL    HW233536   3.290   4.965   0.989  0.2340 -0.1675 -0.2817
 8441SOL    HW333537   3.412   4.999   0.906 -0.9599  2.3223 -1.1016
 8441SOL    MW433538   3.346   5.024   0.958 -0.6783  0.8858 -0.0038
 8442SOL     OW33539   3.640   3.983   2.945 -0.1212 -0.1635 -0.0960
 8442SOL    HW233540   3.648   4.078   2.939  0.4575 -0.2144 -0.2371
 8442SOL    HW333541   3.550   3.968   2.974  0.0345  0.4655  0.7825
 8442SOL    MW433542   3.629   3.994   2.948 -0.0243 -0.0872  0.0013
 8443SOL     OW33543   3.012   5.388   0.180  0.2570 -0.3611  0.3163
 8443SOL    HW233544   2.923   5.412   0.155 -0.2948  0.3859  2.6995
 8443SOL    HW333545   3.017   5.409   0.274  3.2457  0.5348  0.0635
 8443SOL    MW433546   3.001   5.394   0.189  0.5785 -0.1443  0.5973
 8444SOL     OW33547   4.500   4.180   4.055 -0.1826  0.1932 -0.5352
 8444SOL    HW233548   4.483   4.171   4.149  1.5497  1.6946 -0.0356
 8444SOL    HW333549   4.424   4.227   4.021 -0.6735 -0.0836  0.1631
 8444SOL    MW433550   4.487   4.185   4.063 -0.0188  0.3547 -0.3771
 8445SOL     OW33551   3.123   2.834   5.760  0.6562  0.8426  0.3485
 8445SOL    HW233552   3.172   2.823   5.678  1.5944  1.3962  0.8262
 8445SOL    HW333553   3.038   2.869   5.733  1.1592  1.5433 -0.3403
 8445SOL    MW433554   3.118   2.837   5.746  0.8463  1.0081  0.3206
 8446SOL     OW33555   3.061   5.555   0.426  0.3098 -0.0384  0.1689
 8446SOL    HW233556   3.008   5.585   0.500  0.9296 -0.5821  0.8460
 8446SOL    HW333557   3.143   5.525   0.466  0.9396  0.3349 -0.8124
 8446SOL    MW433558   3.065   5.555   0.441  0.4747 -0.0609  0.1288
 8447SOL     OW33559   3.070   1.007   0.704 -0.1636  0.5576  0.1015
 8447SOL    HW233560   3.011   0.975   0.636 -0.0876  0.6504 -0.0095
 8447SOL    HW333561   3.046   0.958   0.783 -1.4010  1.6617  0.4388
 8447SOL    MW433562   3.059   0.996   0.706 -0.3168  0.7155  0.1314
 8448SOL     OW33563   2.987   4.294   1.739  0.3232  0.1024  0.4082
 8448SOL    HW233564   3.046   4.330   1.674 -0.0733  1.0851  0.5671
 8448SOL    HW333565   2.901   4.332   1.717  0.0113 -0.2736  0.9473
 8448SOL    MW433566   2.983   4.304   1.728  0.2297  0.1825  0.5003
 8449SOL     OW33567   5.453   5.747   4.653  0.0287  0.1251 -0.1190
 8449SOL    HW233568   5.472   5.683   4.584  1.7136 -0.4495  0.7923
 8449SOL    HW333569   5.437   5.693   4.731 -0.3207  0.7773  0.2652
 8449SOL    MW433570   5.454   5.731   4.654  0.2049  0.1353  0.0519
 8450SOL     OW33571   3.036   4.044   0.576 -0.0386  0.1881 -0.1036
 8450SOL    HW233572   3.122   4.049   0.534 -2.0996 -0.3123 -5.0688
 8450SOL    HW333573   3.021   3.951   0.590  0.6271  0.3535  1.9130
 8450SOL    MW433574   3.046   4.033   0.572 -0.2227  0.1439 -0.4927
 8451SOL     OW33575   1.324   2.433   5.906 -0.8645  0.1398 -0.2593
 8451SOL    HW233576   1.295   2.342   5.895 -2.8455  0.4417  1.7452
 8451SOL    HW333577   1.303   2.475   5.823  0.8602 -1.3494 -1.5446
 8451SOL    MW433578   1.317   2.426   5.894 -0.8983 -0.0168 -0.1644
 8452SOL     OW33579   0.557   0.070   4.180 -0.6504 -0.1582  0.1829
 8452SOL    HW233580   0.629   0.121   4.217 -2.7370  2.3099  1.1575
 8452SOL    HW333581   0.552  -0.008   4.236  1.9243 -1.0452 -0.6619
 8452SOL    MW433582   0.566   0.067   4.192 -0.5860  0.0504  0.2000
 8453SOL     OW33583   4.512   3.951   0.118  0.2328  0.5759 -0.0488
 8453SOL    HW233584   4.586   3.891   0.109 -1.0423 -1.0560 -0.1071
 8453SOL    HW333585   4.508   3.971   0.211  0.0503 -0.3080  0.1476
 8453SOL    MW433586   4.521   3.945   0.129  0.0405  0.2440 -0.0305
 8454SOL     OW33587   5.098   3.569   1.420 -0.0626  0.0753  0.4596
 8454SOL    HW233588   5.133   3.484   1.450  0.1101  0.2238  0.6846
 8454SOL    HW333589   5.040   3.546   1.347 -0.3630 -0.2808  0.8013
 8454SOL    MW433590   5.095   3.554   1.415 -0.0794  0.0479  0.5344
 8455SOL     OW33591   2.326   2.665   0.964 -0.3192  0.7560  0.5885
 8455SOL    HW233592   2.284   2.744   0.930 -0.4481  0.4078 -0.0916
 8455SOL    HW333593   2.288   2.653   1.051 -0.9598  0.9480  0.3397
 8455SOL    MW433594   2.315   2.674   0.971 -0.4207  0.7354  0.4659
 8456SOL     OW33595   4.375   1.910   3.733 -0.5251 -0.2061  0.0931
 8456SOL    HW233596   4.325   1.844   3.782 -1.3236  1.3765  1.5329
 8456SOL    HW333597   4.466   1.895   3.759 -0.6740 -0.8206  0.2870
 8456SOL    MW433598   4.380   1.899   3.743 -0.6501 -0.0784  0.3086
 8457SOL     OW33599   1.362   5.729   0.583 -0.0466  0.3630 -0.2633
 8457SOL    HW233600   1.372   5.708   0.676 -0.2956  0.2868 -0.2531
 8457SOL    HW333601   1.381   5.647   0.538 -3.3158 -0.5902 -0.1229
 8457SOL    MW433602   1.366   5.716   0.590 -0.5108  0.2272 -0.2434
 8458SOL     OW33603   5.812   3.019   1.302 -0.2333 -0.0734  0.2131
 8458SOL    HW233604   5.779   3.090   1.357 -1.3591 -0.6123  0.2788
 8458SOL    HW333605   5.735   2.989   1.253  0.5423 -0.2724 -0.9075
 8458SOL    MW433606   5.797   3.024   1.303 -0.2795 -0.1708  0.0739
 8459SOL     OW33607   1.155   2.644   0.380 -0.0238 -0.4900  0.4510
 8459SOL    HW233608   1.225   2.604   0.433  0.2708 -0.0284  0.4140
 8459SOL    HW333609   1.159   2.597   0.297 -0.6081 -1.3449  0.8969
 8459SOL    MW433610   1.165   2.632   0.376 -0.0620 -0.5419  0.5050
 8460SOL     OW33611   4.880   4.270   2.567 -0.4146 -0.0583 -0.0140
 8460SOL    HW233612   4.876   4.358   2.528  0.4021  0.5791  1.2553
 8460SOL    HW333613   4.801   4.226   2.535 -1.7302  1.7132  0.6435
 8460SOL    MW433614   4.869   4.276   2.558 -0.4804  0.2595  0.2402
 8461SOL     OW33615   2.361   1.697   6.399  0.0382  0.0162 -0.1752
 8461SOL    HW233616   2.449   1.666   6.378  0.3038  0.0699  0.8149
 8461SOL    HW333617   2.374   1.765   6.464 -0.7488 -0.1639  0.1861
 8461SOL    MW433618   2.374   1.702   6.404 -0.0306 -0.0004  0.0031
 8462SOL     OW33619   3.663   2.887   3.965 -0.4425  0.2146 -0.3838
 8462SOL    HW233620   3.617   2.889   4.049 -1.1649  3.2503 -0.7328
 8462SOL    HW333621   3.595   2.900   3.899  0.4897  1.6884 -1.1268
 8462SOL    MW433622   3.648   2.889   3.967 -0.4148  0.8096 -0.5279
 8463SOL     OW33623   0.179   5.187   3.257 -0.2605  0.3204 -0.1802
 8463SOL    HW233624   0.108   5.174   3.320  0.7189 -0.0436  0.8903
 8463SOL    HW333625   0.163   5.273   3.220 -0.9559  0.4773  0.4553
 8463SOL    MW433626   0.168   5.196   3.261 -0.2230  0.2931  0.0449
 8464SOL     OW33627   3.821   1.293   1.723 -0.1651  0.0085  0.1557
 8464SOL    HW233628   3.741   1.261   1.765 -0.1390 -0.1439  0.0874
 8464SOL    HW333629   3.847   1.369   1.776  0.2174 -0.5536  0.7904
 8464SOL    MW433630   3.814   1.299   1.736 -0.1112 -0.0857  0.2304
 8465SOL     OW33631   3.628   4.955   5.277 -0.2072  0.4014  0.2324
 8465SOL    HW233632   3.577   5.002   5.344 -0.2555 -1.9902  2.0193
 8465SOL    HW333633   3.674   5.024   5.229 -2.9765  2.4973  0.2940
 8465SOL    MW433634   3.627   4.971   5.280 -0.5790  0.3624  0.4763
 8466SOL     OW33635   4.178   3.748   0.857 -0.4080 -0.2560  0.3621
 8466SOL    HW233636   4.269   3.753   0.829 -1.2469  0.5641 -2.5989
 8466SOL    HW333637   4.176   3.674   0.918  2.1088 -0.6815  0.0603
 8466SOL    MW433638   4.190   3.739   0.862 -0.1866 -0.2039 -0.0684
 8467SOL     OW33639   3.074   4.938   0.435  0.0803  0.3888 -0.4019
 8467SOL    HW233640   3.009   4.928   0.506 -0.2151  0.9852 -0.5826
 8467SOL    HW333641   3.148   4.981   0.477  0.2860 -0.1136 -0.2408
 8467SOL    MW433642   3.075   4.942   0.450  0.0684  0.4012 -0.4045
 8468SOL     OW33643   6.342   1.295   2.278 -0.0713  0.1847 -0.2405
 8468SOL    HW233644   6.302   1.320   2.362  1.5982  3.1841 -0.2349
 8468SOL    HW333645   6.427   1.257   2.303 -0.5261 -1.0739 -0.5226
 8468SOL    MW433646   6.348   1.293   2.293  0.0890  0.4144 -0.2769
 8469SOL     OW33647   4.199   0.502   1.593 -0.1072 -0.4004  0.0510
 8469SOL    HW233648   4.170   0.411   1.591 -0.1109 -0.4952  2.0500
 8469SOL    HW333649   4.119   0.553   1.588 -0.3386 -0.5885  1.3305
 8469SOL    MW433650   4.185   0.497   1.592 -0.1382 -0.4377  0.4835
 8470SOL     OW33651   2.287   4.913   4.306 -0.0326 -0.0960  0.4828
 8470SOL    HW233652   2.297   4.822   4.277 -3.5905 -0.2774 -0.5618
 8470SOL    HW333653   2.299   4.965   4.227 -2.0876 -0.0229  0.1760
 8470SOL    MW433654   2.290   4.908   4.292 -0.7732 -0.1103  0.3045
 8471SOL     OW33655   1.167   2.581   0.698 -0.1254 -0.1623  0.0921
 8471SOL    HW233656   1.178   2.488   0.678  1.6185  0.3108 -1.4556
 8471SOL    HW333657   1.255   2.610   0.723 -0.6866  1.0373  0.7496
 8471SOL    MW433658   1.180   2.573   0.699  0.0307  0.0584 -0.0253
 8472SOL     OW33659   1.223   2.290   5.469  0.6427  0.4387  1.0010
 8472SOL    HW233660   1.184   2.206   5.495  0.9777 -0.8338 -2.1097
 8472SOL    HW333661   1.160   2.329   5.409  1.0289  1.8728  1.4846
 8472SOL    MW433662   1.210   2.284   5.465  0.7379  0.4600  0.6544
 8473SOL     OW33663   0.840   1.945   5.905  0.2142  0.3642  0.2677
 8473SOL    HW233664   0.931   1.966   5.882  0.6245 -2.1342 -0.7734
 8473SOL    HW333665   0.789   2.017   5.871  1.7450  1.4820  0.2349
 8473SOL    MW433666   0.846   1.957   5.898  0.4703  0.1821  0.1260
 8474SOL     OW33667   6.243   3.949   4.111 -0.2121  0.7930  0.2053
 8474SOL    HW233668   6.302   3.922   4.041 -0.9150  2.3855 -1.0471
 8474SOL    HW333669   6.170   3.887   4.107 -0.0612  0.6417 -0.2003
 8474SOL    MW433670   6.242   3.937   4.101 -0.2849  0.9832 -0.0134
 8475SOL     OW33671   6.294   2.738   6.027  0.2055 -0.6203 -0.0598
 8475SOL    HW233672   6.297   2.757   5.933  1.5713  1.2594  0.3133
 8475SOL    HW333673   6.220   2.789   6.060 -1.8794 -3.2123 -0.4283
 8475SOL    MW433674   6.284   2.747   6.019  0.1107 -0.7142 -0.0592
 8476SOL     OW33675   3.151   5.842   1.668  0.5610  0.3384 -0.3662
 8476SOL    HW233676   3.234   5.803   1.642  0.2321 -0.7743  0.1901
 8476SOL    HW333677   3.085   5.777   1.643 -0.1178  1.0473 -0.4694
 8476SOL    MW433678   3.153   5.828   1.661  0.4280  0.2851 -0.3064
 8477SOL     OW33679   3.339   2.223   2.637 -0.0776  0.5645  0.4314
 8477SOL    HW233680   3.381   2.271   2.566  0.2782  0.6547  0.7013
 8477SOL    HW333681   3.245   2.232   2.619  0.0089 -1.4217 -1.3557
 8477SOL    MW433682   3.332   2.231   2.625 -0.0192  0.3143  0.2312
 8478SOL     OW33683   4.951   2.692   0.044  0.5225 -0.1491  0.2978
 8478SOL    HW233684   4.900   2.672  -0.035  2.4001  1.8759 -1.5838
 8478SOL    HW333685   4.915   2.775   0.075  0.3768 -0.4945  1.0640
 8478SOL    MW433686   4.940   2.701   0.037  0.7510  0.0725  0.1506
 8479SOL     OW33687   2.708   4.717   0.420 -0.0769 -0.4602  0.5257
 8479SOL    HW233688   2.770   4.661   0.373  0.9253  0.4592  0.7070
 8479SOL    HW333689   2.648   4.656   0.462  0.9956 -1.4127  0.7265
 8479SOL    MW433690   2.708   4.702   0.420  0.1969 -0.4646  0.5761
 8480SOL     OW33691   3.718   2.700   6.014 -0.0557  0.2580 -0.8150
 8480SOL    HW233692   3.670   2.778   6.041 -0.3245 -0.3466  0.5403
 8480SOL    HW333693   3.769   2.729   5.939 -0.0520  1.7749 -0.2743
 8480SOL    MW433694   3.718   2.714   6.008 -0.0907  0.3784 -0.5649
 8481SOL     OW33695   1.987   0.300   1.940 -0.2117 -0.3722 -0.1922
 8481SOL    HW233696   2.029   0.243   2.005  0.0512  2.2976  2.2198
 8481SOL    HW333697   1.911   0.337   1.986  0.1253  1.8304 -1.2613
 8481SOL    MW433698   1.983   0.298   1.955 -0.1326  0.2707 -0.0150
 8482SOL     OW33699   2.668   4.490   3.519  0.3891  0.3648 -0.2636
 8482SOL    HW233700   2.700   4.554   3.455  0.9936 -0.0192 -0.3584
 8482SOL    HW333701   2.744   4.435   3.537 -0.3137 -0.8028 -0.7607
 8482SOL    MW433702   2.683   4.491   3.513  0.3762  0.1600 -0.3417
 8483SOL     OW33703   6.117   2.279   0.198 -0.0217  0.0640  0.2447
 8483SOL    HW233704   6.208   2.251   0.209  0.0022  0.8480  2.5119
 8483SOL    HW333705   6.124   2.366   0.158  0.1085 -0.7101 -1.4926
 8483SOL    MW433706   6.130   2.287   0.194 -0.0014  0.0653  0.3146
 8484SOL     OW33707   0.728   2.447   4.066  0.2454  0.3466  0.2112
 8484SOL    HW233708   0.677   2.471   4.144 -1.4885  0.8524 -1.0141
 8484SOL    HW333709   0.709   2.517   4.004  1.6987  0.0113 -0.6297
 8484SOL    MW433710   0.718   2.460   4.068  0.2084  0.3691 -0.0614
 8485SOL     OW33711   1.610   6.192   5.489 -0.0186 -0.3126 -0.8961
 8485SOL    HW233712   1.540   6.255   5.506  1.6764  1.9497 -1.6994
 8485SOL    HW333713   1.590   6.118   5.546 -2.2102  0.8856  0.0195
 8485SOL    MW433714   1.598   6.191   5.499 -0.0841  0.1439 -0.8813
 8486SOL     OW33715   1.008   0.504   0.168  0.0146  0.3649  0.3992
 8486SOL    HW233716   1.007   0.537   0.257 -1.7799  1.4358  0.0344
 8486SOL    HW333717   1.100   0.503   0.143  0.7794 -1.7879  2.8748
 8486SOL    MW433718   1.020   0.508   0.176 -0.1213  0.2221  0.6777
 8487SOL     OW33719   0.389   2.628   0.114 -0.1925 -0.1063 -0.4205
 8487SOL    HW233720   0.426   2.715   0.123 -0.8760  0.1110  0.3602
 8487SOL    HW333721   0.384   2.594   0.203 -0.0008 -0.9211 -0.7080
 8487SOL    MW433722   0.394   2.635   0.127 -0.2574 -0.1851 -0.3554
 8488SOL     OW33723   1.229   2.624   2.938 -0.1686  0.3215 -0.1510
 8488SOL    HW233724   1.154   2.569   2.913 -2.5017  1.4646  3.4860
 8488SOL    HW333725   1.279   2.569   2.998  0.9533  0.1819 -1.1867
 8488SOL    MW433726   1.225   2.609   2.942 -0.3284  0.4539  0.1922
 8489SOL     OW33727   2.341   0.624   2.422 -0.2143  0.3545 -0.1085
 8489SOL    HW233728   2.398   0.553   2.392 -1.4394 -0.3423 -0.8620
 8489SOL    HW333729   2.297   0.589   2.499 -1.0071  0.1790 -0.6257
 8489SOL    MW433730   2.343   0.610   2.428 -0.4805  0.2394 -0.2762
 8490SOL     OW33731   2.152   3.653   4.625 -0.3013  0.6363 -0.2706
 8490SOL    HW233732   2.149   3.559   4.643 -1.1283  0.7549  0.2551
 8490SOL    HW333733   2.060   3.679   4.618 -0.2185  1.8780  2.1740
 8490SOL    MW433734   2.140   3.644   4.626 -0.3995  0.8158  0.1213
 8491SOL     OW33735   3.413   1.232   5.276  0.1823  0.5806 -0.0274
 8491SOL    HW233736   3.457   1.309   5.243  1.6527 -0.9127 -1.7537
 8491SOL    HW333737   3.406   1.173   5.201 -4.4367  0.4802  0.1805
 8491SOL    MW433738   3.418   1.234   5.262 -0.2332  0.3703 -0.2278
 8492SOL     OW33739   3.433   5.288   2.952 -0.0773  0.2402 -0.1883
 8492SOL    HW233740   3.437   5.258   3.043 -1.8793  1.2342  0.2646
 8492SOL    HW333741   3.421   5.383   2.959 -0.1099  0.3506 -1.4820
 8492SOL    MW433742   3.432   5.297   2.965 -0.3194  0.3859 -0.2992
 8493SOL     OW33743   1.967   4.216   2.001  0.5534 -0.0263  0.1825
 8493SOL    HW233744   2.041   4.227   2.061 -0.3927  0.2559  1.3310
 8493SOL    HW333745   1.904   4.284   2.027 -0.5758 -0.9506 -0.0474
 8493SOL    MW433746   1.968   4.227   2.012  0.2796 -0.1110  0.3037
 8494SOL     OW33747   4.735   4.997   5.690  0.1395  0.1984 -0.1317
 8494SOL    HW233748   4.738   4.976   5.783 -1.5013 -0.5937 -0.2230
 8494SOL    HW333749   4.802   4.940   5.650 -0.5569 -0.9586  0.3150
 8494SOL    MW433750   4.745   4.987   5.697 -0.1689 -0.0587 -0.0848
 8495SOL     OW33751   5.263   5.824   0.903 -0.6290  0.2050  0.0444
 8495SOL    HW233752   5.291   5.770   0.977  1.7882  2.1168  0.6615
 8495SOL    HW333753   5.322   5.799   0.831 -3.4798 -2.2460 -1.6964
 8495SOL    MW433754   5.274   5.814   0.903 -0.6862  0.1339 -0.1038
 8496SOL     OW33755   4.386   3.140   4.134  0.2694  0.0656  0.5221
 8496SOL    HW233756   4.382   3.232   4.107  1.0791 -0.0524 -0.0518
 8496SOL    HW333757   4.303   3.103   4.104 -0.7016  0.9136  2.0311
 8496SOL    MW433758   4.374   3.147   4.126  0.2481  0.1619  0.6455
 8497SOL     OW33759   2.913   0.822   0.553  0.5468 -0.0461 -0.3755
 8497SOL    HW233760   2.826   0.788   0.532 -0.1906 -0.0715  2.3682
 8497SOL    HW333761   2.963   0.745   0.580  1.1584  0.1057 -1.0346
 8497SOL    MW433762   2.908   0.807   0.554  0.5302 -0.0295 -0.1004
 8498SOL     OW33763   5.450   1.624   4.260  0.1530 -0.5636 -0.3595
 8498SOL    HW233764   5.522   1.589   4.312 -0.2570 -0.8160  0.0451
 8498SOL    HW333765   5.490   1.645   4.176  0.6572 -0.8898 -0.2103
 8498SOL    MW433766   5.465   1.622   4.256  0.1655 -0.6399 -0.2864
 8499SOL     OW33767   2.637   0.753   3.136 -0.1527  0.0649  0.7282
 8499SOL    HW233768   2.719   0.710   3.113 -0.7295 -1.2584  1.0430
 8499SOL    HW333769   2.570   0.685   3.125 -1.1351  0.9516  1.0220
 8499SOL    MW433770   2.639   0.738   3.132 -0.3584  0.0073  0.8085
 8500SOL     OW33771   3.004   4.553   1.290  0.1697  0.6037 -0.1622
 8500SOL    HW233772   2.998   4.530   1.197 -1.5916  0.0286  0.0527
 8500SOL    HW333773   2.976   4.473   1.336 -0.8446  1.4717  0.7855
 8500SOL    MW433774   3.000   4.539   1.284 -0.1965  0.6423 -0.0088
 8501SOL     OW33775   6.428   0.380   0.156 -0.2625 -0.4154 -0.5450
 8501SOL    HW233776   6.370   0.453   0.178 -0.5382 -0.5261 -0.8759
 8501SOL    HW333777   6.373   0.302   0.168 -0.2448 -0.5111 -1.0376
 8501SOL    MW433778   6.413   0.379   0.160 -0.2966 -0.4426 -0.6536
 8502SOL     OW33779   0.525   5.321   0.910 -0.4840 -0.6849  0.6941
 8502SOL    HW233780   0.442   5.362   0.937 -0.4238  0.8395 -1.2409
 8502SOL    HW333781   0.538   5.350   0.820  1.7678 -1.5731  0.6743
 8502SOL    MW433782   0.516   5.330   0.902 -0.1789 -0.6010  0.4362
 8503SOL     OW33783   3.337   2.222   4.461 -0.2402 -0.1082  0.2096
 8503SOL    HW233784   3.315   2.209   4.369 -0.3660 -1.0924  0.3633
 8503SOL    HW333785   3.258   2.196   4.508 -0.0887  0.1492  0.6055
 8503SOL    MW433786   3.324   2.217   4.455 -0.2368 -0.2041  0.2821
 8504SOL     OW33787   5.259   0.544   4.522 -0.3366 -0.1284  0.1084
 8504SOL    HW233788   5.286   0.455   4.543 -1.3726 -0.6047 -0.5381
 8504SOL    HW333789   5.295   0.561   4.435  0.6730  0.4486  0.6189
 8504SOL    MW433790   5.267   0.535   4.513 -0.3401 -0.1151  0.0905
 8505SOL     OW33791   5.936   3.455   1.398 -0.3771 -0.0131 -0.0882
 8505SOL    HW233792   5.973   3.472   1.484 -1.2765  1.4023  0.0463
 8505SOL    HW333793   5.874   3.383   1.412 -0.4976  0.1903  0.4555
 8505SOL    MW433794   5.932   3.448   1.411 -0.5116  0.2004  0.0013
 8506SOL     OW33795   4.898   3.523   1.184 -0.2024  0.2627 -0.6568
 8506SOL    HW233796   4.940   3.461   1.125 -2.7955 -0.7628 -1.5694
 8506SOL    HW333797   4.851   3.583   1.126 -1.6593  0.0919  0.2952
 8506SOL    MW433798   4.897   3.523   1.168 -0.7368  0.1049 -0.6516
 8507SOL     OW33799   6.188   3.698   0.401 -0.0654 -0.2111  0.3056
 8507SOL    HW233800   6.164   3.736   0.316 -0.1097  0.5748  0.6623
 8507SOL    HW333801   6.252   3.630   0.379  0.0735  0.1148 -0.3477
 8507SOL    MW433802   6.193   3.694   0.387 -0.0529 -0.0644  0.2665
 8508SOL     OW33803   4.689   5.377   4.871  0.7750 -0.2071  0.5222
 8508SOL    HW233804   4.597   5.371   4.846  0.7526 -1.3404  0.8375
 8508SOL    HW333805   4.708   5.295   4.916  1.9107  0.0577  0.5729
 8508SOL    MW433806   4.680   5.365   4.874  0.9219 -0.3217  0.5705
 8509SOL     OW33807   2.199   4.402   5.416 -0.2151  0.0481  0.2830
 8509SOL    HW233808   2.232   4.366   5.498  0.0547 -2.2160 -0.7402
 8509SOL    HW333809   2.273   4.397   5.356 -0.6069  1.0276 -0.2999
 8509SOL    MW433810   2.213   4.397   5.419 -0.2312 -0.1214  0.0711
 8510SOL     OW33811   3.837   3.686   4.680  0.1489 -0.5817 -0.3295
 8510SOL    HW233812   3.880   3.628   4.743  2.5332  0.5422 -0.8120
 8510SOL    HW333813   3.909   3.734   4.638 -1.4622 -0.0826 -2.7237
 8510SOL    MW433814   3.852   3.685   4.683  0.2509 -0.3676 -0.7090
 8511SOL     OW33815   5.538   0.617   1.736 -0.3582  0.1647  0.7349
 8511SOL    HW233816   5.568   0.688   1.792  2.2087 -0.0779 -0.1929
 8511SOL    HW333817   5.488   0.661   1.667  0.4470  0.9971  0.6576
 8511SOL    MW433818   5.535   0.632   1.734  0.0867  0.2425  0.6023
 8512SOL     OW33819   2.439   3.020   4.882  0.3094  0.0472  0.1064
 8512SOL    HW233820   2.437   2.974   4.966 -0.4776 -0.0931  0.0235
 8512SOL    HW333821   2.376   2.972   4.827 -0.2455  0.9896 -0.1016
 8512SOL    MW433822   2.430   3.007   4.886  0.1323  0.1531  0.0680
 8513SOL     OW33823   6.264   2.068   5.089 -0.2506  0.1377  0.0554
 8513SOL    HW233824   6.229   2.137   5.033 -1.3354 -0.9052 -0.5992
 8513SOL    HW333825   6.352   2.052   5.056 -0.0570  1.0691  0.0986
 8513SOL    MW433826   6.271   2.075   5.077 -0.3682  0.1230 -0.0253
 8514SOL     OW33827   5.331   0.694   0.686 -0.0808 -0.1852 -0.3036
 8514SOL    HW233828   5.255   0.725   0.737  0.6179  0.6951  0.2245
 8514SOL    HW333829   5.332   0.749   0.608 -1.0883 -1.4653 -1.2657
 8514SOL    MW433830   5.321   0.705   0.683 -0.1216 -0.2379 -0.3609
 8515SOL     OW33831   5.325   1.293   1.628 -0.6043  0.6723  0.2791
 8515SOL    HW233832   5.254   1.355   1.640 -0.7639  1.0984 -2.2608
 8515SOL    HW333833   5.370   1.322   1.548  0.4951 -1.3505  0.0746
 8515SOL    MW433834   5.321   1.305   1.619 -0.4803  0.4616 -0.0830
 8516SOL     OW33835   0.286   4.789   4.842 -0.1991  0.0382 -0.4446
 8516SOL    HW233836   0.214   4.794   4.905 -1.9179  3.0131 -2.3552
 8516SOL    HW333837   0.361   4.828   4.887  0.0291 -2.1665  1.2366
 8516SOL    MW433838   0.286   4.795   4.856 -0.3958  0.1398 -0.4749
 8517SOL     OW33839   4.054   6.243   5.158 -0.4268  0.0025  0.5325
 8517SOL    HW233840   4.141   6.236   5.197 -0.9096 -3.9047  1.3743
 8517SOL    HW333841   3.995   6.203   5.223 -2.5178  0.5891 -0.8892
 8517SOL    MW433842   4.058   6.237   5.172 -0.7664 -0.4356  0.4559
 8518SOL     OW33843   5.362   6.002   2.922 -0.1006  0.2292  0.5834
 8518SOL    HW233844   5.297   6.034   2.858  0.8099 -0.5307 -0.7685
 8518SOL    HW333845   5.337   6.044   3.004 -2.7623 -0.5851  0.2940
 8518SOL    MW433846   5.350   6.012   2.924 -0.3316  0.0215  0.3669
 8519SOL     OW33847   3.082   5.983   2.642  0.3797  0.1520 -0.2331
 8519SOL    HW233848   3.093   6.027   2.557  0.7298  1.4884  0.4704
 8519SOL    HW333849   2.991   5.999   2.665 -0.0278 -1.1708 -0.8479
 8519SOL    MW433850   3.072   5.991   2.634  0.3721  0.1538 -0.2214
 8520SOL     OW33851   4.367   3.855   6.302 -0.4209  0.3040 -0.9146
 8520SOL    HW233852   4.302   3.914   6.264 -0.0056  0.7961 -0.8619
 8520SOL    HW333853   4.400   3.901   6.379  0.5559  0.4080 -1.3726
 8520SOL    MW433854   4.363   3.869   6.307 -0.2372  0.3826 -0.9681
 8521SOL     OW33855   0.948   3.480   2.938  0.3455 -0.4875 -0.2644
 8521SOL    HW233856   0.991   3.559   2.906 -0.3302 -0.4516 -1.1537
 8521SOL    HW333857   0.854   3.500   2.931  0.1785 -0.9303  0.6417
 8521SOL    MW433858   0.941   3.493   2.933  0.2343 -0.5412 -0.2622
 8522SOL     OW33859   1.388   5.588   4.993  0.0396  0.5920 -0.5311
 8522SOL    HW233860   1.451   5.641   5.042  0.5146  0.8448 -1.3763
 8522SOL    HW333861   1.423   5.587   4.904  1.2433 -2.9752 -0.1651
 8522SOL    MW433862   1.401   5.595   4.987  0.2611  0.1547 -0.5943
 8523SOL     OW33863   3.312   5.516   3.361  0.4518  0.5276  0.0919
 8523SOL    HW233864   3.359   5.454   3.418  1.0043  2.4167  1.8548
 8523SOL    HW333865   3.369   5.593   3.359 -1.7674  2.3008  0.9352
 8523SOL    MW433866   3.326   5.518   3.369  0.2319  1.0108  0.4357
 8524SOL     OW33867   0.231   5.673   2.756  0.4903  0.6285 -0.0693
 8524SOL    HW233868   0.292   5.723   2.702  1.7027  0.1221  0.7954
 8524SOL    HW333869   0.167   5.638   2.693  0.5536  1.9001 -0.8735
 8524SOL    MW433870   0.230   5.675   2.740  0.6586  0.7294 -0.0613
 8525SOL     OW33871   5.927   1.606   1.219  0.1485 -0.1068 -0.1722
 8525SOL    HW233872   5.936   1.525   1.169 -0.8549 -0.0657 -0.4452
 8525SOL    HW333873   5.984   1.593   1.296  0.7002 -0.6887 -0.6683
 8525SOL    MW433874   5.936   1.594   1.223  0.0889 -0.1781 -0.2736
 8526SOL     OW33875   4.288   2.119   3.040  0.0687  0.7499 -0.2427
 8526SOL    HW233876   4.373   2.162   3.044 -0.3654  1.9694 -2.2751
 8526SOL    HW333877   4.299   2.050   2.975 -0.5082  1.0433 -0.6683
 8526SOL    MW433878   4.301   2.116   3.032 -0.0647  0.9495 -0.5670
 8527SOL     OW33879   4.484   6.299   2.338 -0.1771 -0.4516 -0.1936
 8527SOL    HW233880   4.436   6.216   2.338 -1.7553  0.3995  0.3036
 8527SOL    HW333881   4.416   6.365   2.354  1.3009  0.7697  1.4395
 8527SOL    MW433882   4.468   6.297   2.340 -0.1903 -0.1782  0.0875
 8528SOL     OW33883   0.428   2.308   2.329  0.3869 -0.4727  0.2446
 8528SOL    HW233884   0.445   2.263   2.412  0.6704 -2.4025 -0.7961
 8528SOL    HW333885   0.506   2.363   2.316  0.7362 -0.8109  0.8414
 8528SOL    MW433886   0.441   2.309   2.338  0.4704 -0.7719  0.1860
 8529SOL     OW33887   2.482   4.166   4.611 -0.0797 -0.0746  0.3265
 8529SOL    HW233888   2.396   4.127   4.597 -0.4124  0.7589 -0.0077
 8529SOL    HW333889   2.504   4.207   4.527 -0.2059  1.3347  0.9396
 8529SOL    MW433890   2.474   4.167   4.598 -0.1402  0.2213  0.3633
 8530SOL     OW33891   6.262   4.843   4.866  0.4531 -0.3899  0.3204
 8530SOL    HW233892   6.167   4.854   4.860  0.5604 -0.0748 -0.9554
 8530SOL    HW333893   6.273   4.772   4.929 -0.6401 -0.5795  0.3271
 8530SOL    MW433894   6.251   4.835   4.874  0.3230 -0.3733  0.1530
 8531SOL     OW33895   4.292   4.901   0.081 -0.0168  0.2292 -0.2622
 8531SOL    HW233896   4.293   4.899   0.176  0.3853 -0.2150 -0.2711
 8531SOL    HW333897   4.201   4.885   0.057  0.2613 -2.1054  0.0145
 8531SOL    MW433898   4.280   4.898   0.090  0.0729 -0.1374 -0.2268
 8532SOL     OW33899   3.128   6.171   4.239 -0.2831  0.1325 -0.0725
 8532SOL    HW233900   3.148   6.079   4.256  0.5135  0.2333 -0.4382
 8532SOL    HW333901   3.038   6.182   4.270  0.1109 -0.4119  1.3374
 8532SOL    MW433902   3.119   6.160   4.246 -0.1260  0.0740  0.0653
 8533SOL     OW33903   1.367   2.691   4.027  0.0616  0.4163 -0.2829
 8533SOL    HW233904   1.462   2.686   4.033 -0.0413 -1.5281  0.5647
 8533SOL    HW333905   1.343   2.764   4.084  1.0222  0.6671 -0.1883
 8533SOL    MW433906   1.376   2.700   4.035  0.1747  0.1928 -0.1586
 8534SOL     OW33907   6.256   2.314   5.815 -0.1077 -0.1580  0.0146
 8534SOL    HW233908   6.340   2.338   5.776  0.1716  0.6070  1.0485
 8534SOL    HW333909   6.277   2.242   5.874 -0.0975  0.3243  0.6033
 8534SOL    MW433910   6.270   2.307   5.817 -0.0695  0.0066  0.2287
 8535SOL     OW33911   6.100   3.395   0.521 -0.1785  0.0328 -0.6056
 8535SOL    HW233912   6.186   3.396   0.477  0.0245 -0.1352 -0.2133
 8535SOL    HW333913   6.039   3.425   0.453  0.0409 -0.8053 -1.1897
 8535SOL    MW433914   6.104   3.399   0.506 -0.1228 -0.0999 -0.6309
 8536SOL     OW33915   0.420   2.831   0.448  0.1620 -0.1106  0.1548
 8536SOL    HW233916   0.384   2.752   0.408 -0.5792  1.4162 -2.3954
 8536SOL    HW333917   0.515   2.822   0.439  0.0968 -0.8023  0.1285
 8536SOL    MW433918   0.428   2.820   0.442  0.0556 -0.0004 -0.1851
 8537SOL     OW33919   5.349   5.136   2.688  0.7004 -0.0286 -0.2482
 8537SOL    HW233920   5.350   5.189   2.768 -1.5622  1.0040 -0.8224
 8537SOL    HW333921   5.421   5.170   2.636  1.0622  0.5351  0.5937
 8537SOL    MW433922   5.358   5.148   2.692  0.4496  0.1820 -0.2129
 8538SOL     OW33923   0.796   3.800   3.654  0.2630 -0.1896  0.1051
 8538SOL    HW233924   0.752   3.885   3.662  0.6120  0.1555 -1.3306
 8538SOL    HW333925   0.886   3.817   3.682  0.0749 -0.3522  0.8336
 8538SOL    MW433926   0.802   3.814   3.659  0.2842 -0.1655  0.0118
 8539SOL     OW33927   3.176   2.295   5.374  0.6294 -0.5093 -0.3394
 8539SOL    HW233928   3.165   2.355   5.448  0.6657 -0.9678  0.0407
 8539SOL    HW333929   3.088   2.283   5.339  0.6597 -0.0139 -0.5946
 8539SOL    MW433930   3.163   2.301   5.379  0.6382 -0.5045 -0.3229
 8540SOL     OW33931   1.300   3.752   6.343  0.1099  0.5481  0.7437
 8540SOL    HW233932   1.356   3.829   6.346  1.7981 -0.4878 -1.2759
 8540SOL    HW333933   1.330   3.696   6.414 -0.9728  1.5750  2.0733
 8540SOL    MW433934   1.311   3.754   6.352  0.1898  0.5469  0.6526
 8541SOL     OW33935   0.962   4.481   3.322 -0.2137  0.1097 -0.0091
 8541SOL    HW233936   0.943   4.554   3.381  0.2871 -0.0024  0.2904
 8541SOL    HW333937   1.023   4.426   3.370  0.1602 -0.0104 -0.6125
 8541SOL    MW433938   0.967   4.483   3.336 -0.0983  0.0790 -0.0492
 8542SOL     OW33939   5.048   1.753   1.626  0.2028 -0.7700 -0.4104
 8542SOL    HW233940   5.083   1.669   1.654 -0.1108 -0.2684  1.6707
 8542SOL    HW333941   5.126   1.807   1.608  0.4012 -1.3388 -1.3214
 8542SOL    MW433942   5.063   1.749   1.627  0.1876 -0.7789 -0.2560
 8543SOL     OW33943   0.402   5.801   3.872  0.0556 -0.2785 -0.4120
 8543SOL    HW233944   0.408   5.896   3.859 -0.8791  0.2726  2.4130
 8543SOL    HW333945   0.364   5.768   3.790 -2.4392  2.2264 -0.4513
 8543SOL    MW433946   0.397   5.809   3.859 -0.3969  0.1247 -0.0445
 8544SOL     OW33947   2.708   4.605   5.651 -0.1026 -0.2183 -0.3468
 8544SOL    HW233948   2.639   4.542   5.627  0.7812 -0.8555 -1.3213
 8544SOL    HW333949   2.782   4.581   5.595  0.7817  0.7068  0.4008
 8544SOL    MW433950   2.709   4.594   5.640  0.1307 -0.1803 -0.3767
 8545SOL     OW33951   2.648   5.093   3.805  0.2814 -0.1025  0.2498
 8545SOL    HW233952   2.638   5.030   3.876 -0.8545  1.2118  1.3170
 8545SOL    HW333953   2.597   5.169   3.833  1.5840  1.2959 -0.9910
 8545SOL    MW433954   2.640   5.095   3.818  0.3034  0.2554  0.2269
 8546SOL     OW33955   2.895   0.793   2.780 -0.2499 -0.1221 -0.2099
 8546SOL    HW233956   2.808   0.814   2.814 -0.3222  0.4267 -0.7110
 8546SOL    HW333957   2.907   0.700   2.801 -0.5080  0.0602  0.8040
 8546SOL    MW433958   2.885   0.783   2.787 -0.2935 -0.0256 -0.1423
 8547SOL     OW33959   1.909   2.697   6.433 -0.4822  0.2377  0.3605
 8547SOL    HW233960   2.000   2.720   6.417 -0.2591 -0.2819  0.8688
 8547SOL    HW333961   1.894   2.721   6.524 -0.4095 -1.0579  0.7353
 8547SOL    MW433962   1.919   2.703   6.443 -0.4432 -0.0018  0.4770
 8548SOL     OW33963   2.230   1.022   0.240  0.3202  0.0153  0.0880
 8548SOL    HW233964   2.200   1.063   0.321  1.3842  0.4853  0.2564
 8548SOL    HW333965   2.177   1.064   0.172 -0.4822 -0.2819  0.5077
 8548SOL    MW433966   2.219   1.033   0.242  0.3547  0.0381  0.1656
 8549SOL     OW33967   4.150   1.148   0.599  0.3896 -0.2765 -0.0454
 8549SOL    HW233968   4.056   1.133   0.594  0.2394  0.0024  1.4774
 8549SOL    HW333969   4.180   1.089   0.668  1.4647 -0.8290 -0.9343
 8549SOL    MW433970   4.142   1.138   0.607  0.5116 -0.3126  0.0382
 8550SOL     OW33971   0.350   3.546   1.694 -0.2134 -0.0706  0.2971
 8550SOL    HW233972   0.283   3.482   1.670 -0.5030  0.4457 -0.2967
 8550SOL    HW333973   0.403   3.502   1.760 -1.1074 -0.4971  0.7365
 8550SOL    MW433974   0.348   3.532   1.699 -0.3696 -0.0587  0.2767
 8551SOL     OW33975   5.523   0.022   4.282  0.1226 -0.2247 -0.8007
 8551SOL    HW233976   5.493   0.111   4.261 -1.7983 -0.3836  0.9917
 8551SOL    HW333977   5.580   0.034   4.358 -0.7374 -0.5588 -0.0843
 8551SOL    MW433978   5.527   0.036   4.289 -0.2443 -0.2897 -0.4697
 8552SOL     OW33979   5.956   0.451   5.699 -0.1236 -0.1374  0.6188
 8552SOL    HW233980   5.939   0.394   5.624 -0.0410 -0.3426  0.7534
 8552SOL    HW333981   5.881   0.510   5.702  0.6162  0.8827 -0.5398
 8552SOL    MW433982   5.944   0.451   5.690 -0.0151 -0.0299  0.4837
 8553SOL     OW33983   0.490   3.849   1.958 -0.5055  0.7751 -0.1551
 8553SOL    HW233984   0.448   3.799   2.028  0.0301  0.6384  0.0743
 8553SOL    HW333985   0.555   3.789   1.921  0.3617  1.3916  0.3310
 8553SOL    MW433986   0.493   3.835   1.963 -0.3204  0.8384 -0.0607
 8554SOL     OW33987   6.203   4.064   4.370 -0.2935 -0.1930  0.1384
 8554SOL    HW233988   6.229   4.022   4.288 -0.6631 -2.0141  0.8991
 8554SOL    HW333989   6.220   4.157   4.356  1.6888 -0.7076 -1.2240
 8554SOL    MW433990   6.208   4.071   4.357 -0.0807 -0.5012  0.0590
 8555SOL     OW33991   4.586   5.136   1.445  0.2161  0.4251 -0.3780
 8555SOL    HW233992   4.534   5.099   1.374  0.4930 -1.3951  0.3211
 8555SOL    HW333993   4.658   5.075   1.456  0.2141  0.7006  1.4221
 8555SOL    MW433994   4.588   5.123   1.437  0.2523  0.2213 -0.0482
 8556SOL     OW33995   0.130   1.996   4.238  0.6066  0.2596 -0.9540
 8556SOL    HW233996   0.196   2.066   4.233 -1.4407  2.4012 -0.1187
 8556SOL    HW333997   0.155   1.945   4.315  1.8309  0.4190 -1.2212
 8556SOL    MW433998   0.142   1.999   4.247  0.4980  0.5632 -0.8791
 8557SOL     OW33999   5.618   3.852   0.327  0.8966  0.2859  0.0904
 8557SOL    HW234000   5.551   3.833   0.261 -1.0325 -1.5455  2.3945
 8557SOL    HW334001   5.585   3.929   0.373  0.5314 -0.3462  0.9284
 8557SOL    MW434002   5.605   3.859   0.325  0.5939 -0.0391  0.5050
 8558SOL     OW34003   2.601   1.918   3.337  0.2697  0.0939  0.4441
 8558SOL    HW234004   2.666   1.874   3.391 -0.2855 -1.1342  0.1454
 8558SOL    HW334005   2.547   1.847   3.302 -0.9510  1.0495  0.3259
 8558SOL    MW434006   2.603   1.903   3.339  0.0354  0.0579  0.3891
 8559SOL     OW34007   1.699   2.499   2.802  0.0508  0.0942  0.7325
 8559SOL    HW234008   1.735   2.565   2.861 -0.3085  1.2973 -0.3298
 8559SOL    HW334009   1.622   2.541   2.764  0.5612 -0.4217 -0.9644
 8559SOL    MW434010   1.694   2.513   2.804  0.0707  0.1849  0.3684
 8560SOL     OW34011   1.938   4.538   5.805  0.2150 -0.2519 -0.6888
 8560SOL    HW234012   1.955   4.465   5.745  0.8680 -1.3865  0.8155
 8560SOL    HW334013   1.926   4.497   5.890  1.0527  1.4144  0.2877
 8560SOL    MW434014   1.939   4.523   5.808  0.4116 -0.1817 -0.3615
 8561SOL     OW34015   5.186   0.463   2.671 -0.7279  0.5405 -0.1896
 8561SOL    HW234016   5.211   0.535   2.613  0.6348 -1.1142 -1.7841
 8561SOL    HW334017   5.124   0.412   2.620  0.6524 -1.0662 -0.3499
 8561SOL    MW434018   5.181   0.466   2.656 -0.3660  0.1102 -0.4212
 8562SOL     OW34019   3.251   4.713   0.084 -0.3365  0.1307  0.0136
 8562SOL    HW234020   3.235   4.807   0.099  0.4481  0.0586  1.4506
 8562SOL    HW334021   3.272   4.707  -0.009 -0.2428  1.4006 -0.0629
 8562SOL    MW434022   3.251   4.725   0.074 -0.2206  0.2887  0.1931
 8563SOL     OW34023   2.992   1.447   0.431 -0.4615  0.4980  0.2360
 8563SOL    HW234024   2.974   1.540   0.441 -0.7516  0.4778 -0.1066
 8563SOL    HW334025   3.029   1.439   0.343  1.0525  0.5149  0.8336
 8563SOL    MW434026   2.995   1.458   0.420 -0.3000  0.4976  0.2696
 8564SOL     OW34027   3.725   3.053   2.138 -0.0208  0.2334  0.7499
 8564SOL    HW234028   3.699   3.109   2.211 -2.5308  1.5823 -1.0234
 8564SOL    HW334029   3.781   3.109   2.084  1.8909 -0.7822  1.5796
 8564SOL    MW434030   3.729   3.068   2.141 -0.0997  0.2773  0.6254
 8565SOL     OW34031   4.141   2.894   3.276 -0.0317  0.0767 -0.1254
 8565SOL    HW234032   4.075   2.824   3.279  0.9460 -0.8552  0.5529
 8565SOL    HW334033   4.191   2.883   3.357  1.5605  0.1456 -1.0577
 8565SOL    MW434034   4.139   2.883   3.287  0.3073 -0.0372 -0.1590
 8566SOL     OW34035   3.353   1.750   2.817  0.1484 -0.3831  0.2303
 8566SOL    HW234036   3.404   1.679   2.856  1.5483  1.1513  1.3730
 8566SOL    HW334037   3.417   1.819   2.801 -1.1646  0.6389 -0.8076
 8566SOL    MW434038   3.368   1.750   2.820  0.1598 -0.0458  0.2441
 8567SOL     OW34039   1.760   5.672   5.563 -0.0563  0.7558  0.1342
 8567SOL    HW234040   1.702   5.608   5.605  1.1239 -0.0481  0.5880
 8567SOL    HW334041   1.843   5.664   5.610  1.5420 -0.6191 -2.6731
 8567SOL    MW434042   1.763   5.663   5.575  0.3103  0.4683 -0.1763
 8568SOL     OW34043   3.401   2.630   2.191 -0.2993 -0.0563  0.3415
 8568SOL    HW234044   3.397   2.706   2.133  1.0709 -0.0583  0.2193
 8568SOL    HW334045   3.332   2.646   2.256 -0.4575  0.9680 -0.0594
 8568SOL    MW434046   3.392   2.642   2.192 -0.1394  0.0786  0.2725
 8569SOL     OW34047   0.343   3.378   4.556 -0.0176  0.5027 -0.0425
 8569SOL    HW234048   0.390   3.461   4.561  2.6737 -0.9548  0.7276
 8569SOL    HW334049   0.318   3.369   4.464 -1.0831  2.4992  0.0175
 8569SOL    MW434050   0.346   3.387   4.545  0.1969  0.5738  0.0670
 8570SOL     OW34051   3.806   2.102   5.280  0.1249  0.1485  0.5465
 8570SOL    HW234052   3.854   2.020   5.283  1.9967  1.1437 -0.3486
 8570SOL    HW334053   3.822   2.143   5.365  0.1258  0.0902  0.5741
 8570SOL    MW434054   3.815   2.097   5.292  0.3720  0.2721  0.4321
 8571SOL     OW34055   2.289   2.649   2.269 -0.1659  0.1932 -0.2862
 8571SOL    HW234056   2.300   2.733   2.314 -0.6768  0.5736 -0.8516
 8571SOL    HW334057   2.315   2.666   2.179  1.1043 -0.6356 -0.1056
 8571SOL    MW434058   2.294   2.662   2.263 -0.0657  0.1340 -0.3370
 8572SOL     OW34059   5.613   0.086   2.487  0.1707  0.1920  0.2071
 8572SOL    HW234060   5.683   0.150   2.501  0.0856 -0.2412  3.2239
 8572SOL    HW334061   5.555   0.096   2.563 -1.8542 -0.9923 -1.0766
 8572SOL    MW434062   5.614   0.096   2.499 -0.1077 -0.0214  0.4358
 8573SOL     OW34063   3.424   4.365   1.666  0.1361  0.2900 -0.2175
 8573SOL    HW234064   3.443   4.456   1.640  0.4187  0.4042  0.3748
 8573SOL    HW334065   3.491   4.313   1.622 -1.7647 -0.0136 -3.0236
 8573SOL    MW434066   3.435   4.370   1.657 -0.0774  0.2650 -0.5096
 8574SOL     OW34067   3.117   1.523   4.773 -0.1481  0.2692 -0.5975
 8574SOL    HW234068   3.034   1.528   4.820  1.3459  0.2270  2.2440
 8574SOL    HW334069   3.146   1.433   4.785  0.8649  0.5951 -0.5486
 8574SOL    MW434070   3.110   1.512   4.781  0.1827  0.3066 -0.2162
 8575SOL     OW34071   2.538   1.903   3.826 -0.3031  0.1415  0.6256
 8575SOL    HW234072   2.584   1.822   3.848  0.4519  1.1365  3.0377
 8575SOL    HW334073   2.449   1.874   3.804  0.1637 -1.3945  0.6306
 8575SOL    MW434074   2.532   1.888   3.826 -0.1419  0.0701  0.9445
 8576SOL     OW34075   5.501   0.369   0.094 -0.5151 -0.2103 -0.2428
 8576SOL    HW234076   5.421   0.356   0.146 -0.4561 -0.6561 -0.2640
 8576SOL    HW334077   5.567   0.315   0.138  0.2090  1.3972  0.7502
 8576SOL    MW434078   5.499   0.360   0.107 -0.4118 -0.0570 -0.1146
 8577SOL     OW34079   6.311   0.413   5.841 -0.0043  0.3638 -0.3041
 8577SOL    HW234080   6.298   0.383   5.931  0.4760 -1.8812 -0.9372
 8577SOL    HW334081   6.398   0.453   5.841  0.3554 -0.4205  0.0323
 8577SOL    MW434082   6.321   0.415   5.853  0.1065 -0.0359 -0.3432
 8578SOL     OW34083   6.408   5.271   1.608  0.4164  0.2745 -0.1476
 8578SOL    HW234084   6.425   5.223   1.689  2.3390 -0.6917 -1.0558
 8578SOL    HW334085   6.325   5.237   1.577 -0.2087  0.4437  1.2486
 8578SOL    MW434086   6.400   5.260   1.615  0.5876  0.1693 -0.0832
 8579SOL     OW34087   3.121   6.236   0.555  0.2593 -0.2532  0.2429
 8579SOL    HW234088   3.183   6.250   0.626  0.8083 -2.2697  0.2183
 8579SOL    HW334089   3.051   6.299   0.571  3.0325  3.3993 -0.6913
 8579SOL    MW434090   3.120   6.246   0.566  0.6976 -0.0373  0.1164
 8580SOL     OW34091   5.708   1.659   2.503 -0.5634 -0.2907  0.0595
 8580SOL    HW234092   5.748   1.666   2.416 -0.0391  1.3746  0.4103
 8580SOL    HW334093   5.777   1.625   2.559 -0.0058  1.2834  0.3770
 8580SOL    MW434094   5.722   1.655   2.499 -0.4207  0.1367  0.1477
 8581SOL     OW34095   3.922   2.302   2.939  0.7567 -1.0955  0.0046
 8581SOL    HW234096   3.895   2.305   2.847 -0.4726 -0.8814  0.3516
 8581SOL    HW334097   3.889   2.218   2.971  0.3340 -0.7529  0.4852
 8581SOL    MW434098   3.914   2.291   2.931  0.5387 -1.0220  0.1138
 8582SOL     OW34099   5.738   2.007   5.134 -0.2152 -0.0043 -0.0540
 8582SOL    HW234100   5.684   2.028   5.210 -0.5210  1.3112 -0.6097
 8582SOL    HW334101   5.764   2.092   5.098  1.3842 -0.6041 -0.4071
 8582SOL    MW434102   5.734   2.021   5.139 -0.0445  0.0901 -0.1739
 8583SOL     OW34103   0.456   3.925   4.744 -0.3762  0.3197  0.7465
 8583SOL    HW234104   0.480   3.989   4.811  1.7052 -0.1686  0.5250
 8583SOL    HW334105   0.513   3.944   4.671 -1.3158 -0.3645 -0.1993
 8583SOL    MW434106   0.466   3.936   4.743 -0.2256  0.1650  0.5925
 8584SOL     OW34107   2.001   0.642   4.659  0.0838 -0.3799  0.0020
 8584SOL    HW234108   2.042   0.574   4.605 -1.1336 -1.0139 -0.1620
 8584SOL    HW334109   1.967   0.595   4.735  0.8410  0.3490  0.8192
 8584SOL    MW434110   2.002   0.626   4.662  0.0231 -0.3674  0.0882
 8585SOL     OW34111   0.602   2.045   4.269 -0.1463 -0.5618  0.2451
 8585SOL    HW234112   0.591   2.094   4.188 -1.7056 -0.0651  0.7211
 8585SOL    HW334113   0.573   1.956   4.249  0.0850 -0.6021  0.0920
 8585SOL    MW434114   0.597   2.040   4.256 -0.3215 -0.5016  0.2877
 8586SOL     OW34115   3.018   1.662   5.859  0.0972 -0.3887 -0.2133
 8586SOL    HW234116   3.051   1.606   5.789  1.3866 -0.5685  0.4984
 8586SOL    HW334117   2.983   1.602   5.924  0.8318 -0.3655  0.2264
 8586SOL    MW434118   3.018   1.647   5.858  0.3642 -0.4093 -0.0614
 8587SOL     OW34119   3.304   4.038   2.424  0.6033  0.1772  0.2270
 8587SOL    HW234120   3.368   4.094   2.379  0.3764  1.4433  1.4130
 8587SOL    HW334121   3.338   4.030   2.513  0.8451 -1.9688 -0.0172
 8587SOL    MW434122   3.317   4.044   2.429  0.6053  0.0611  0.3512
 8588SOL     OW34123   6.093   2.836   4.362  0.7465  0.3918  0.3711
 8588SOL    HW234124   6.004   2.868   4.376 -0.6031 -2.0775 -1.6230
 8588SOL    HW334125   6.132   2.900   4.303  0.0126  1.1097  0.6447
 8588SOL    MW434126   6.086   2.848   4.356  0.4716  0.1607  0.1441
 8589SOL     OW34127   6.368   5.736   4.063  0.2126  0.5405  0.6766
 8589SOL    HW234128   6.356   5.665   4.126  2.3151 -0.1178  0.4142
 8589SOL    HW334129   6.463   5.752   4.062  0.1100  1.3663 -1.4178
 8589SOL    MW434130   6.379   5.729   4.071  0.4764  0.5626  0.3656
 8590SOL     OW34131   5.733   1.420   3.608  0.2390  0.1953  0.2385
 8590SOL    HW234132   5.657   1.362   3.594  1.2782 -1.0594 -0.3737
 8590SOL    HW334133   5.697   1.508   3.601 -1.4321 -0.3403  1.3735
 8590SOL    MW434134   5.718   1.424   3.605  0.1556 -0.0409  0.3075
 8591SOL     OW34135   1.564   3.628   6.171 -0.8199 -0.4050 -0.4247
 8591SOL    HW234136   1.655   3.642   6.195 -0.8450 -0.0333 -0.5308
 8591SOL    HW334137   1.529   3.571   6.240 -0.1084 -1.8328 -1.2138
 8591SOL    MW434138   1.571   3.623   6.183 -0.7293 -0.5443 -0.5428
 8592SOL     OW34139   4.486   5.551   4.671  0.0602 -0.2648 -0.3716
 8592SOL    HW234140   4.581   5.551   4.681  0.2145  3.2068 -0.5353
 8592SOL    HW334141   4.451   5.548   4.760  0.4545  0.9027 -0.1596
 8592SOL    MW434142   4.494   5.550   4.684  0.1325  0.3473 -0.3652
 8593SOL     OW34143   6.098   4.229   2.672 -0.6707 -0.1979  0.2390
 8593SOL    HW234144   6.140   4.314   2.682 -1.3923  0.4274 -1.6024
 8593SOL    HW334145   6.167   4.166   2.691 -0.1513  0.7761  1.7606
 8593SOL    MW434146   6.113   4.232   2.676 -0.6974  0.0131  0.1968
 8594SOL     OW34147   5.486   3.074   2.831  0.6015 -0.0615 -0.0461
 8594SOL    HW234148   5.446   3.120   2.904 -0.8098 -0.5049 -0.4973
 8594SOL    HW334149   5.412   3.033   2.786  1.2198  1.4062 -2.5946
 8594SOL    MW434150   5.471   3.074   2.835  0.4969  0.0736 -0.4418
 8595SOL     OW34151   2.788   1.543   2.557  1.0401  0.7439  0.1641
 8595SOL    HW234152   2.828   1.520   2.640 -0.8666  1.0283  1.2278
 8595SOL    HW334153   2.712   1.597   2.581  0.4283  0.8290 -1.7563
 8595SOL    MW434154   2.783   1.547   2.571  0.7078  0.7927  0.0510
 8596SOL     OW34155   3.375   2.266   5.078 -0.2119  1.0518 -0.0193
 8596SOL    HW234156   3.448   2.323   5.054 -0.3107  0.7011 -1.2044
 8596SOL    HW334157   3.303   2.326   5.097  0.3689  1.4023  1.2014
 8596SOL    MW434158   3.375   2.281   5.077 -0.1483  1.0518 -0.0146
 8597SOL     OW34159   0.177   5.571   5.105 -0.3624  0.0026 -0.1611
 8597SOL    HW234160   0.199   5.512   5.034 -2.7626  0.8290 -1.7239
 8597SOL    HW334161   0.241   5.642   5.099 -1.2444  0.6727 -2.3353
 8597SOL    MW434162   0.188   5.573   5.095 -0.7954  0.2000 -0.6542
 8598SOL     OW34163   3.298   3.878   0.783  0.6786 -0.0904 -0.1259
 8598SOL    HW234164   3.366   3.812   0.766  1.4772  0.9274 -0.9798
 8598SOL    HW334165   3.283   3.919   0.698 -1.0733 -0.3360  0.0335
 8598SOL    MW434166   3.305   3.874   0.769  0.5529  0.0115 -0.2175
 8599SOL     OW34167   3.243   0.454   3.529 -0.7482 -0.3932 -0.1524
 8599SOL    HW234168   3.191   0.421   3.455 -1.6815  0.3044  0.1737
 8599SOL    HW334169   3.183   0.449   3.604 -1.7868  3.9611 -0.4221
 8599SOL    MW434170   3.228   0.449   3.529 -1.0084  0.2733 -0.1449
 8600SOL     OW34171   3.766   0.046   2.900  0.1203  0.0941  0.5606
 8600SOL    HW234172   3.738   0.137   2.911 -0.9388 -0.0144 -0.9314
 8600SOL    HW334173   3.862   0.049   2.909  0.1524  1.4545  0.0282
 8600SOL    MW434174   3.775   0.059   2.903 -0.0152  0.2593  0.2935
 8601SOL     OW34175   1.069   5.254   2.057 -0.2888  0.3006  0.0665
 8601SOL    HW234176   1.037   5.192   2.123  1.1957 -0.2619  0.2972
 8601SOL    HW334177   1.002   5.254   1.990 -0.5428 -1.2246  0.2918
 8601SOL    MW434178   1.056   5.246   2.057 -0.1264  0.0251  0.1267
 8602SOL     OW34179   2.510   4.207   3.176 -0.4348 -0.4507 -0.2014
 8602SOL    HW234180   2.524   4.301   3.169 -2.3314 -0.0394  0.6578
 8602SOL    HW334181   2.417   4.196   3.156 -0.7220 -1.8771  1.6748
 8602SOL    MW434182   2.499   4.218   3.172 -0.7229 -0.5847  0.1595
 8603SOL     OW34183   3.900   1.834   0.862  0.1413  0.3900  0.1512
 8603SOL    HW234184   3.955   1.906   0.833 -0.8109  0.5965 -1.3103
 8603SOL    HW334185   3.887   1.849   0.956  0.3277  1.8673 -0.0337
 8603SOL    MW434186   3.905   1.846   0.870  0.0402  0.6122 -0.0660
 8604SOL     OW34187   0.161   2.211   0.026  0.2187 -0.0078  0.5349
 8604SOL    HW234188   0.198   2.158   0.096  2.0364  1.3930  0.7006
 8604SOL    HW334189   0.225   2.281   0.012 -1.2155  1.0873 -0.9288
 8604SOL    MW434190   0.174   2.213   0.033  0.2693  0.3215  0.3636
 8605SOL     OW34191   0.963   3.631   6.396  0.0689 -0.6214  0.5727
 8605SOL    HW234192   0.920   3.711   6.366  1.8648  0.5812  1.0783
 8605SOL    HW334193   0.943   3.625   6.489  1.3589  0.2209  0.9240
 8605SOL    MW434194   0.954   3.641   6.404  0.4760 -0.3516  0.6858
 8606SOL     OW34195   2.371   2.463   5.554 -0.0221 -0.2907 -0.4856
 8606SOL    HW234196   2.446   2.433   5.605  0.3393 -0.2648 -0.9865
 8606SOL    HW334197   2.307   2.393   5.561  0.5355 -0.8785 -1.0591
 8606SOL    MW434198   2.373   2.450   5.561  0.0991 -0.3648 -0.6273
 8607SOL     OW34199   5.732   5.876   1.400  0.1994  0.0702  0.0339
 8607SOL    HW234200   5.797   5.816   1.436 -0.5139 -1.7088 -1.4734
 8607SOL    HW334201   5.657   5.868   1.460 -0.2040 -1.2606 -0.5976
 8607SOL    MW434202   5.730   5.867   1.412  0.0521 -0.3401 -0.2483
 8608SOL     OW34203   5.400   2.802   4.515  0.1292  0.0149 -0.4756
 8608SOL    HW234204   5.388   2.831   4.424 -1.0380  0.4565 -0.2010
 8608SOL    HW334205   5.475   2.742   4.511 -0.3547 -0.5507 -1.8578
 8608SOL    MW434206   5.408   2.798   4.502 -0.0887 -0.0014 -0.6217
 8609SOL     OW34207   3.853   1.080   0.558 -0.0602  0.1000 -0.5195
 8609SOL    HW234208   3.808   1.163   0.544  0.1326  0.4753  0.9439
 8609SOL    HW334209   3.799   1.033   0.622  0.8721 -0.0339  0.1987
 8609SOL    MW434210   3.840   1.085   0.564  0.0882  0.1318 -0.2317
 8610SOL     OW34211   1.830   4.693   4.517 -0.4253 -0.5999  0.1777
 8610SOL    HW234212   1.861   4.661   4.602  0.4911 -0.7916 -0.2195
 8610SOL    HW334213   1.849   4.787   4.518 -0.6594 -0.5515  0.2824
 8610SOL    MW434214   1.836   4.701   4.528 -0.3353 -0.6188  0.1391
 8611SOL     OW34215   1.532   5.372   6.010 -0.5793 -0.3591  0.2809
 8611SOL    HW234216   1.447   5.328   6.005 -0.7924  0.1433 -0.8948
 8611SOL    HW334217   1.542   5.393   6.103 -0.7407 -2.3127  0.8007
 8611SOL    MW434218   1.522   5.369   6.022 -0.6287 -0.5506  0.1944
 8612SOL     OW34219   1.957   1.394   0.116 -0.0366 -0.0456  0.5454
 8612SOL    HW234220   2.012   1.439   0.051  0.1906 -0.3204  0.5442
 8612SOL    HW334221   1.972   1.442   0.197 -3.0588  2.5987 -0.2874
 8612SOL    MW434222   1.967   1.406   0.118 -0.4054  0.2670  0.4354
 8613SOL     OW34223   6.316   1.013   3.522 -0.1532  0.0086  0.4229
 8613SOL    HW234224   6.258   1.070   3.574  2.2095  0.4213  2.8120
 8613SOL    HW334225   6.325   0.934   3.575 -0.5073 -1.1421 -1.1577
 8613SOL    MW434226   6.309   1.011   3.536  0.1118 -0.0888  0.5296
 8614SOL     OW34227   0.092   5.435   0.230  0.0949  0.3149 -0.7655
 8614SOL    HW234228   0.073   5.347   0.198 -2.3977  0.7986 -0.8295
 8614SOL    HW334229   0.034   5.446   0.305  0.4063  1.9001 -0.7305
 8614SOL    MW434230   0.082   5.425   0.236 -0.1929  0.5879 -0.7693
 8615SOL     OW34231   0.585   2.008   3.833  0.1360  0.3301 -0.0757
 8615SOL    HW234232   0.522   1.951   3.878  1.1283  0.6708  1.8359
 8615SOL    HW334233   0.665   2.000   3.884  1.4944  0.3831 -2.1080
 8615SOL    MW434234   0.587   2.000   3.846  0.4461  0.3821 -0.0917
 8616SOL     OW34235   1.802   2.043   2.548 -0.0190  0.2756  0.3354
 8616SOL    HW234236   1.757   2.128   2.552  0.2721  0.5693 -1.8481
 8616SOL    HW334237   1.859   2.049   2.472  1.7649 -1.0743  1.4708
 8616SOL    MW434238   1.804   2.055   2.539  0.2548  0.1362  0.1971
 8617SOL     OW34239   4.202   0.492   1.294 -0.5129  0.7940  0.6335
 8617SOL    HW234240   4.224   0.513   1.384  1.9057  1.9452 -0.1413
 8617SOL    HW334241   4.175   0.576   1.255 -2.6550  0.1142  0.5054
 8617SOL    MW434242   4.201   0.506   1.300 -0.4764  0.8562  0.5144
 8618SOL     OW34243   3.827   0.502   0.420 -0.4357 -0.5086  0.5426
 8618SOL    HW234244   3.835   0.502   0.325  0.3725  1.9125  0.5297
 8618SOL    HW334245   3.746   0.550   0.438 -0.9096 -1.4828  1.0971
 8618SOL    MW434246   3.818   0.508   0.410 -0.3916 -0.3177  0.6141
 8619SOL     OW34247   2.675   2.727   0.389 -0.3491  0.1460  0.1485
 8619SOL    HW234248   2.602   2.746   0.331  0.9401  1.1667 -1.2191
 8619SOL    HW334249   2.670   2.633   0.405 -1.5541  0.0987 -0.4655
 8619SOL    MW434250   2.665   2.717   0.384 -0.3380  0.2744 -0.1129
 8620SOL     OW34251   0.371   0.397   2.654 -0.2031  0.3249 -0.1901
 8620SOL    HW234252   0.301   0.332   2.664 -2.5230  2.5037 -1.0346
 8620SOL    HW334253   0.351   0.441   2.570  1.5491  1.7494  0.0771
 8620SOL    MW434254   0.359   0.394   2.644 -0.2780  0.8003 -0.2663
 8621SOL     OW34255   0.681   4.117   5.755  0.1384 -1.3372 -0.1064
 8621SOL    HW234256   0.774   4.137   5.747 -0.1625  0.3173  0.1654
 8621SOL    HW334257   0.641   4.201   5.779 -1.3615 -2.1232  0.2153
 8621SOL    MW434258   0.688   4.131   5.757 -0.0992 -1.2226 -0.0281
 8622SOL     OW34259   1.914   3.746   4.536 -0.2246  0.5564 -0.1473
 8622SOL    HW234260   1.972   3.778   4.467  0.4389  0.1558  0.2086
 8622SOL    HW334261   1.895   3.656   4.512  0.0619  0.3927  0.2073
 8622SOL    MW434262   1.919   3.738   4.524 -0.0992  0.4819 -0.0535
 8623SOL     OW34263   4.764   2.597   0.405  0.2492 -0.5128  0.5623
 8623SOL    HW234264   4.739   2.508   0.427  0.8678 -1.2491 -1.5295
 8623SOL    HW334265   4.715   2.618   0.325  1.9614  0.0692 -0.3931
 8623SOL    MW434266   4.755   2.588   0.397  0.5567 -0.5332  0.1603
 8624SOL     OW34267   5.183   2.379   0.661  0.3840  0.6193  0.7061
 8624SOL    HW234268   5.267   2.365   0.619  0.7341 -1.0992  1.8834
 8624SOL    HW334269   5.119   2.379   0.589  1.2481  0.7155 -0.0720
 8624SOL    MW434270   5.185   2.377   0.646  0.5442  0.4053  0.7587
 8625SOL     OW34271   0.008   4.926   5.739  0.1611  0.2173 -0.5595
 8625SOL    HW234272   0.058   4.987   5.794  1.2607 -1.8123  0.8152
 8625SOL    HW334273   0.005   4.845   5.790 -3.0901 -0.3135 -1.3691
 8625SOL    MW434274   0.014   4.924   5.753 -0.1228 -0.1205 -0.4849
 8626SOL     OW34275   0.998   5.711   1.125  0.3985  0.1701 -0.1954
 8626SOL    HW234276   0.960   5.780   1.071 -0.1450  0.0487  0.0253
 8626SOL    HW334277   0.923   5.657   1.151  1.0062 -1.7600 -2.0995
 8626SOL    MW434278   0.983   5.713   1.121  0.4069 -0.1006 -0.4175
 8627SOL     OW34279   3.170   5.292   1.792  0.4303  0.0684 -0.3505
 8627SOL    HW234280   3.119   5.353   1.845 -1.0413 -0.7979 -0.7168
 8627SOL    HW334281   3.202   5.345   1.719  0.9578  0.8572  0.4263
 8627SOL    MW434282   3.168   5.307   1.789  0.3058  0.0581 -0.2963
 8628SOL     OW34283   6.415   5.694   5.346 -0.3742  0.0591  0.5608
 8628SOL    HW234284   6.399   5.788   5.345  2.2799  0.6473  2.2717
 8628SOL    HW334285   6.394   5.665   5.258 -1.4705  2.2100  0.0572
 8628SOL    MW434286   6.410   5.703   5.335 -0.1686  0.4205  0.7201
 8629SOL     OW34287   3.345   2.988   1.135  0.0916  0.0954  0.8249
 8629SOL    HW234288   3.430   2.978   1.177  0.1338  0.2202  0.7702
 8629SOL    HW334289   3.333   2.908   1.085  1.0607  0.8835 -0.7606
 8629SOL    MW434290   3.355   2.976   1.134  0.2250  0.2159  0.6085
 8630SOL     OW34291   1.303   5.854   2.352 -0.1414 -0.8308 -0.5470
 8630SOL    HW234292   1.357   5.836   2.429 -0.2006 -0.6075 -0.4516
 8630SOL    HW334293   1.290   5.949   2.354  0.3284 -0.7431 -1.1424
 8630SOL    MW434294   1.308   5.864   2.362 -0.0873 -0.7898 -0.6130
 8631SOL     OW34295   6.129   2.559   4.893 -0.7447 -0.9700  0.0017
 8631SOL    HW234296   6.203   2.548   4.952 -0.6421  0.9154  0.2945
 8631SOL    HW334297   6.167   2.581   4.808 -0.9363 -1.1461 -0.1313
 8631SOL    MW434298   6.144   2.561   4.890 -0.7564 -0.7445  0.0228
 8632SOL     OW34299   4.611   0.832   1.242 -0.3568 -0.2399  0.1925
 8632SOL    HW234300   4.617   0.737   1.252 -0.1232 -0.3412 -0.7802
 8632SOL    HW334301   4.688   0.865   1.288  0.8547 -0.7029 -1.3744
 8632SOL    MW434302   4.622   0.824   1.249 -0.1662 -0.3144 -0.1425
 8633SOL     OW34303   4.620   0.670   3.538 -0.1973  0.4560  0.2625
 8633SOL    HW234304   4.671   0.734   3.488  0.1718  0.5707  0.7801
 8633SOL    HW334305   4.533   0.672   3.497  0.5682 -0.7817 -1.5753
 8633SOL    MW434306   4.615   0.679   3.526 -0.0476  0.3078  0.0884
 8634SOL     OW34307   1.573   1.355   0.857  0.1994  0.2148 -0.2691
 8634SOL    HW234308   1.542   1.340   0.768  0.8230  0.3124 -0.5059
 8634SOL    HW334309   1.533   1.438   0.883  2.3162  1.7371 -1.5469
 8634SOL    MW434310   1.564   1.364   0.849  0.5610  0.4285 -0.4689
 8635SOL     OW34311   2.022   2.434   4.871 -0.2170 -0.0561 -0.1669
 8635SOL    HW234312   1.975   2.443   4.788 -1.5327  1.3300  0.6732
 8635SOL    HW334313   2.073   2.354   4.861 -0.2709  0.1169 -2.3377
 8635SOL    MW434314   2.022   2.425   4.859 -0.3977  0.1496 -0.3424
 8636SOL     OW34315   2.455   0.754   5.644 -0.0006  0.3191 -0.0736
 8636SOL    HW234316   2.472   0.756   5.550  0.2956 -0.1369 -0.0337
 8636SOL    HW334317   2.434   0.845   5.667  1.8850  0.8381 -0.2302
 8636SOL    MW434318   2.455   0.766   5.635  0.2873  0.3274 -0.0890
 8637SOL     OW34319   5.535   1.405   1.020  0.4416 -0.0809 -1.0748
 8637SOL    HW234320   5.475   1.447   0.958  0.3430 -0.3942 -1.1933
 8637SOL    HW334321   5.574   1.478   1.069 -0.3400  0.1111 -0.7215
 8637SOL    MW434322   5.532   1.420   1.019  0.3255 -0.0969 -1.0438
 8638SOL     OW34323   0.667   5.856   5.501 -0.6154 -0.1168 -0.5133
 8638SOL    HW234324   0.625   5.783   5.457 -1.6340  1.6279 -2.6401
 8638SOL    HW334325   0.607   5.880   5.572 -0.8082 -0.6615 -0.4928
 8638SOL    MW434326   0.654   5.850   5.505 -0.7753  0.0415 -0.7912
 8639SOL     OW34327   2.048   4.459   2.245  0.3191 -0.0596 -0.6081
 8639SOL    HW234328   2.133   4.423   2.219  2.7552  2.7602  2.5468
 8639SOL    HW334329   2.027   4.415   2.328 -0.1058  0.8942 -0.1989
 8639SOL    MW434330   2.056   4.448   2.252  0.5845  0.4383 -0.1378
 8640SOL     OW34331   1.762   6.385   4.368 -1.0895 -0.2933  0.2661
 8640SOL    HW234332   1.850   6.424   4.361 -1.4280  0.2980 -1.0422
 8640SOL    HW334333   1.703   6.461   4.369 -1.6014 -0.6779  1.3226
 8640SOL    MW434334   1.766   6.400   4.367 -1.2017 -0.2660  0.2329
 8641SOL     OW34335   1.769   4.699   2.252  0.3458  0.0928  0.4339
 8641SOL    HW234336   1.825   4.712   2.175  1.1982 -0.3824  0.9516
 8641SOL    HW334337   1.770   4.784   2.297  1.0236 -0.0309  0.6676
 8641SOL    MW434338   1.777   4.712   2.248  0.5477  0.0138  0.5331
 8642SOL     OW34339   4.136   5.688   6.228 -0.8213  0.4449  0.2083
 8642SOL    HW234340   4.146   5.653   6.139  0.4680 -0.8745  0.8362
 8642SOL    HW334341   4.092   5.772   6.216 -2.0804 -0.4076 -1.5482
 8642SOL    MW434342   4.131   5.695   6.215 -0.8173  0.1583  0.0594
 8643SOL     OW34343   3.590   4.774   0.280  0.2442  0.0459  0.1553
 8643SOL    HW234344   3.564   4.812   0.196  2.8592  1.1827 -0.2491
 8643SOL    HW334345   3.661   4.830   0.311  0.3508 -1.2056  2.4346
 8643SOL    MW434346   3.596   4.786   0.273  0.6033  0.0308  0.4026
 8644SOL     OW34347   0.268   2.523   5.203 -0.3551 -0.1098 -0.0897
 8644SOL    HW234348   0.291   2.616   5.210 -0.6257  0.4176 -3.8692
 8644SOL    HW334349   0.351   2.479   5.182 -0.7517 -0.0288 -2.0738
 8644SOL    MW434350   0.282   2.530   5.201 -0.4431 -0.0295 -0.8501
 8645SOL     OW34351   1.897   4.877   4.207 -0.4085 -0.1380 -0.0412
 8645SOL    HW234352   1.868   4.919   4.288 -0.7207 -1.2151  0.4358
 8645SOL    HW334353   1.831   4.901   4.142 -0.1737  0.7104  0.0244
 8645SOL    MW434354   1.884   4.885   4.209 -0.4187 -0.1682  0.0304
 8646SOL     OW34355   1.499   5.614   4.713 -0.5269 -0.3969 -0.2190
 8646SOL    HW234356   1.592   5.614   4.736 -0.7566 -2.3487  0.9118
 8646SOL    HW334357   1.490   5.542   4.650 -1.1423  0.4019 -1.0872
 8646SOL    MW434358   1.510   5.604   4.708 -0.6384 -0.5490 -0.1843
 8647SOL     OW34359   1.757   5.064   3.176 -0.1091  0.0640  0.0555
 8647SOL    HW234360   1.704   5.131   3.219  0.4261  0.5923 -0.1043
 8647SOL    HW334361   1.821   5.038   3.242  0.2105  0.3074 -0.1582
 8647SOL    MW434362   1.758   5.069   3.190  0.0037  0.1658  0.0062
 8648SOL     OW34363   2.302   0.279   0.614 -0.0943 -0.0762  0.2509
 8648SOL    HW234364   2.361   0.301   0.542 -0.7944  0.4686 -0.1743
 8648SOL    HW334365   2.268   0.192   0.592  2.3811 -1.5458  1.7375
 8648SOL    MW434366   2.305   0.270   0.602  0.1399 -0.1982  0.3910
 8649SOL     OW34367   0.041   5.809   5.825  0.2234 -0.1917 -0.7805
 8649SOL    HW234368   0.067   5.772   5.909  2.2244 -1.3499 -1.8428
 8649SOL    HW334369  -0.024   5.748   5.791 -2.4212  1.5083  0.8649
 8649SOL    MW434370   0.036   5.796   5.832  0.1385 -0.1202 -0.7036
 8650SOL     OW34371   0.693   1.006   6.321 -0.2369  0.3892  0.1720
 8650SOL    HW234372   0.648   1.023   6.238  0.3758 -1.3986 -0.5660
 8650SOL    HW334373   0.758   1.076   6.328 -0.5955  0.8127 -0.6114
 8650SOL    MW434374   0.695   1.018   6.311 -0.2034  0.2092 -0.0287
 8651SOL     OW34375   2.492   1.322   5.836 -0.6658  0.2911  0.2610
 8651SOL    HW234376   2.545   1.243   5.847 -3.0852 -1.4565  0.2929
 8651SOL    HW334377   2.547   1.382   5.785  1.9149 -0.6789  1.7305
 8651SOL    MW434378   2.506   1.320   5.831 -0.6446 -0.0675  0.4591
 8652SOL     OW34379   3.615   6.310   5.149 -0.1271 -0.5651  0.4925
 8652SOL    HW234380   3.661   6.242   5.197 -1.0027 -0.7743  1.0608
 8652SOL    HW334381   3.681   6.350   5.093  1.3387  0.6908  2.9474
 8652SOL    MW434382   3.629   6.307   5.148 -0.0493 -0.4270  0.8913
 8653SOL     OW34383   6.123   3.730   3.449 -0.2453 -0.0556  0.1946
 8653SOL    HW234384   6.106   3.818   3.481 -1.2586 -1.1331  2.9517
 8653SOL    HW334385   6.205   3.738   3.400 -0.4076  2.4244  0.2106
 8653SOL    MW434386   6.132   3.742   3.447 -0.4004  0.1295  0.5605
 8654SOL     OW34387   3.552   3.797   1.818 -0.1527 -0.1344  0.1249
 8654SOL    HW234388   3.541   3.703   1.829 -0.0624 -0.1748 -0.1243
 8654SOL    HW334389   3.470   3.827   1.779 -0.6445  0.0774  1.2958
 8654SOL    MW434390   3.540   3.789   1.814 -0.2056 -0.1118  0.2465
 8655SOL     OW34391   2.522   2.676   4.677  0.1389 -0.4688  0.0614
 8655SOL    HW234392   2.608   2.657   4.713  0.4984 -1.3722 -1.1966
 8655SOL    HW334393   2.479   2.591   4.671 -1.7478  0.1599  2.7042
 8655SOL    MW434394   2.528   2.662   4.681 -0.0626 -0.5050  0.2441
 8656SOL     OW34395   4.216   4.470   6.025 -0.2632 -0.5071 -0.2513
 8656SOL    HW234396   4.155   4.398   6.043 -1.3862  0.5380  0.2364
 8656SOL    HW334397   4.216   4.479   5.930  0.0203 -1.2459 -0.3296
 8656SOL    MW434398   4.208   4.461   6.015 -0.3739 -0.4667 -0.1973
 8657SOL     OW34399   5.778   2.044   3.076 -0.6433 -0.0302  0.1962
 8657SOL    HW234400   5.693   2.080   3.050  0.9361  1.9892 -2.7534
 8657SOL    HW334401   5.813   2.006   2.995  1.9674  0.7931  0.8417
 8657SOL    MW434402   5.771   2.043   3.062 -0.0905  0.3449 -0.1078
 8658SOL     OW34403   5.488   3.679   6.174 -0.1080  0.2762  0.2866
 8658SOL    HW234404   5.485   3.597   6.224  0.2811  0.0040 -0.1356
 8658SOL    HW334405   5.579   3.686   6.144 -0.6925 -0.3960 -1.7733
 8658SOL    MW434406   5.500   3.669   6.177 -0.1338  0.1516 -0.0409
 8659SOL     OW34407   3.669   0.985   4.226 -0.1991  0.1552 -0.3569
 8659SOL    HW234408   3.757   1.001   4.191  0.5456  0.1913  1.4426
 8659SOL    HW334409   3.623   1.067   4.210  0.0967  0.1656 -1.2503
 8659SOL    MW434410   3.675   0.998   4.219 -0.0618  0.1614 -0.2374
 8660SOL     OW34411   2.963   2.583   3.517  0.8784 -0.2366 -0.1645
 8660SOL    HW234412   3.039   2.575   3.575  0.8653 -2.4104 -0.3796
 8660SOL    HW334413   2.987   2.535   3.438 -0.0127  0.6659 -1.0194
 8660SOL    MW434414   2.976   2.576   3.514  0.7591 -0.4043 -0.3057
 8661SOL     OW34415   0.811   0.438   5.119 -0.4364 -0.6372  0.0379
 8661SOL    HW234416   0.796   0.481   5.035 -0.1271  0.7341  0.6544
 8661SOL    HW334417   0.886   0.381   5.105 -1.5715 -1.9218 -1.1118
 8661SOL    MW434418   0.819   0.436   5.106 -0.5454 -0.6258 -0.0325
 8662SOL     OW34419   5.177   3.916   1.743 -0.4928 -0.2100  0.5041
 8662SOL    HW234420   5.101   3.975   1.751 -1.1035 -1.0797  1.2699
 8662SOL    HW334421   5.149   3.836   1.786  0.6524 -0.7643  0.2285
 8662SOL    MW434422   5.163   3.913   1.750 -0.4223 -0.3979  0.5688
 8663SOL     OW34423   2.220   4.525   1.021  0.9594 -0.5509  0.2916
 8663SOL    HW234424   2.158   4.520   1.094 -0.1636  1.7055 -0.4229
 8663SOL    HW334425   2.165   4.537   0.944  2.2142  2.5442 -0.2613
 8663SOL    MW434426   2.204   4.526   1.020  0.9768  0.1552  0.1244
 8664SOL     OW34427   4.625   2.546   1.445 -0.0263 -0.2922  0.8622
 8664SOL    HW234428   4.577   2.510   1.371  0.4409  1.9851 -0.6578
 8664SOL    HW334429   4.717   2.541   1.418  0.0096  3.9774 -0.6008
 8664SOL    MW434430   4.631   2.541   1.432  0.0401  0.5716  0.4687
 8665SOL     OW34431   0.149   4.271   1.495  0.1431 -0.3885  0.2120
 8665SOL    HW234432   0.197   4.306   1.570  1.6482 -0.3382 -0.7234
 8665SOL    HW334433   0.191   4.187   1.477 -1.7457 -1.5338  0.8418
 8665SOL    MW434434   0.161   4.264   1.502  0.0924 -0.5329  0.1717
 8666SOL     OW34435   5.361   6.320   0.936  0.3373  0.4641 -0.1949
 8666SOL    HW234436   5.322   6.237   0.910  0.5248  0.3848 -0.2172
 8666SOL    HW334437   5.313   6.385   0.884  1.7009  0.1911 -1.8742
 8666SOL    MW434438   5.349   6.318   0.925  0.5420  0.4176 -0.4194
 8667SOL     OW34439   1.279   3.227   5.604 -0.3838 -0.3053 -0.3127
 8667SOL    HW234440   1.286   3.297   5.539 -0.8780  0.7486  0.7203
 8667SOL    HW334441   1.186   3.228   5.630  0.1478  0.5641  1.7231
 8667SOL    MW434442   1.267   3.236   5.599 -0.3789 -0.0516  0.0922
 8668SOL     OW34443   0.334   1.874   4.006  0.0135 -0.0670 -0.1822
 8668SOL    HW234444   0.302   1.797   3.960 -0.0110 -0.6509  0.7702
 8668SOL    HW334445   0.384   1.838   4.080  0.7434  0.8315 -0.2237
 8668SOL    MW434446   0.336   1.859   4.010  0.1066 -0.0255 -0.0620
 8669SOL     OW34447   4.797   4.953   1.410 -0.5980  0.4599  0.1165
 8669SOL    HW234448   4.849   4.957   1.490 -0.7984  0.9045  0.2252
 8669SOL    HW334449   4.752   4.869   1.416  0.3295 -0.0665 -0.1233
 8669SOL    MW434450   4.798   4.942   1.421 -0.5020  0.4491  0.0992
 8670SOL     OW34451   0.243   4.583   4.139  0.1239 -0.5661  0.1544
 8670SOL    HW234452   0.317   4.545   4.093  1.0814  2.9263 -1.5245
 8670SOL    HW334453   0.270   4.585   4.230  1.6765 -0.2672 -0.2845
 8670SOL    MW434454   0.256   4.578   4.145  0.4551 -0.0659 -0.1251
 8671SOL     OW34455   4.009   6.305   4.035 -0.1089 -0.1184 -0.4667
 8671SOL    HW234456   4.069   6.374   4.005  1.6776 -1.9458 -1.3921
 8671SOL    HW334457   4.053   6.224   4.010 -1.3705 -1.6597  1.9672
 8671SOL    MW434458   4.023   6.304   4.028 -0.0396 -0.5628 -0.2677
 8672SOL     OW34459   0.236   5.373   5.291  0.5443  0.2340 -0.5189
 8672SOL    HW234460   0.235   5.427   5.212 -0.4967  0.6288 -0.2597
 8672SOL    HW334461   0.222   5.435   5.363 -1.9404 -0.4608 -0.3116
 8672SOL    MW434462   0.234   5.388   5.290  0.0791  0.1944 -0.4574
 8673SOL     OW34463   1.429   1.874   2.330  0.2565  0.0774  0.3822
 8673SOL    HW234464   1.483   1.868   2.251  1.8310 -2.1687  1.5169
 8673SOL    HW334465   1.424   1.784   2.363  0.1740  0.9927  3.1648
 8673SOL    MW434466   1.436   1.861   2.324  0.4533 -0.0982  0.8990
 8674SOL     OW34467   2.596   1.357   3.134 -0.0171  0.1578 -0.0830
 8674SOL    HW234468   2.535   1.287   3.158 -0.4115  0.6535  0.3603
 8674SOL    HW334469   2.556   1.399   3.058  0.8205 -0.8689 -1.1347
 8674SOL    MW434470   2.583   1.353   3.127  0.0414  0.0877 -0.1633
 8675SOL     OW34471   4.296   1.310   4.039  0.2001 -0.1231 -0.0294
 8675SOL    HW234472   4.232   1.274   3.977 -0.6616 -0.1044  0.8240
 8675SOL    HW334473   4.244   1.365   4.097  1.1552  0.6675  0.0909
 8675SOL    MW434474   4.280   1.312   4.038  0.2124 -0.0163  0.0990
 8676SOL     OW34475   2.735   2.563   2.614  0.1531 -0.3573  0.1033
 8676SOL    HW234476   2.778   2.644   2.639 -1.6010  0.4100  0.7651
 8676SOL    HW334477   2.680   2.586   2.539 -0.0500 -1.0179  0.0350
 8676SOL    MW434478   2.733   2.576   2.607 -0.1051 -0.3432  0.1816
 8677SOL     OW34479   3.994   1.063   4.561 -0.3329  0.2876  0.2486
 8677SOL    HW234480   4.062   1.125   4.534  1.1857 -1.2110  0.4853
 8677SOL    HW334481   4.005   1.055   4.655  0.8841 -1.8588 -0.0208
 8677SOL    MW434482   4.004   1.071   4.570  0.0281 -0.1933  0.2443
 8678SOL     OW34483   6.312   2.961   3.242 -0.1470  0.6858  0.1734
 8678SOL    HW234484   6.242   3.026   3.251 -0.3587  1.0181 -2.8333
 8678SOL    HW334485   6.266   2.877   3.247 -0.5648  0.8762 -0.3058
 8678SOL    MW434486   6.296   2.958   3.244 -0.2300  0.7548 -0.2865
 8679SOL     OW34487   1.935   2.194   0.562  0.6003  0.4611 -0.7262
 8679SOL    HW234488   1.884   2.205   0.482 -0.1354  1.6312 -0.1272
 8679SOL    HW334489   1.918   2.274   0.612  2.0511  0.3226  0.0415
 8679SOL    MW434490   1.926   2.206   0.558  0.6947  0.5972 -0.5459
 8680SOL     OW34491   4.796   0.981   1.411  0.0004 -0.4586  0.1976
 8680SOL    HW234492   4.867   1.015   1.465  0.3463  0.2243 -0.6691
 8680SOL    HW334493   4.731   1.050   1.410 -0.6723 -1.0615  0.9450
 8680SOL    MW434494   4.797   0.994   1.418 -0.0427 -0.4480  0.1819
 8681SOL     OW34495   6.409   0.725   1.427 -0.2295 -0.1245  0.7081
 8681SOL    HW234496   6.356   0.647   1.440  1.0500 -1.3565 -1.0206
 8681SOL    HW334497   6.347   0.794   1.405 -1.2516 -1.0708  0.5872
 8681SOL    MW434498   6.394   0.724   1.426 -0.1956 -0.4119  0.4641
 8682SOL     OW34499   3.685   6.066   3.736 -0.0040  0.2988 -0.1408
 8682SOL    HW234500   3.722   6.140   3.785 -1.0576  1.7376 -1.4298
 8682SOL    HW334501   3.758   6.035   3.681  0.1819  1.0394 -0.3244
 8682SOL    MW434502   3.700   6.072   3.735 -0.1185  0.5864 -0.3351
 8683SOL     OW34503   4.433   3.047   3.180  0.5913 -0.0390 -0.8685
 8683SOL    HW234504   4.398   3.059   3.268  2.0932 -0.0200 -0.2393
 8683SOL    HW334505   4.371   3.091   3.122 -0.0625  0.5328  0.2489
 8683SOL    MW434506   4.420   3.054   3.184  0.7032  0.0389 -0.6380
 8684SOL     OW34507   0.959   5.747   6.308 -0.2519  0.1848  0.0925
 8684SOL    HW234508   1.025   5.725   6.373  0.9227 -0.8303 -1.3746
 8684SOL    HW334509   0.955   5.843   6.310 -1.2669  0.1592  2.5736
 8684SOL    MW434510   0.967   5.757   6.317 -0.2308  0.0475  0.2263
 8685SOL     OW34511   0.893   1.370   1.485  0.1748  0.3830 -0.1843
 8685SOL    HW234512   0.812   1.319   1.481  0.6636 -0.5241  0.8587
 8685SOL    HW334513   0.934   1.357   1.400 -0.9994  1.2785 -0.9233
 8685SOL    MW434514   0.888   1.362   1.474  0.0843  0.3814 -0.1442
 8686SOL     OW34515   0.857   3.926   4.209 -0.6326 -0.0890 -0.0990
 8686SOL    HW234516   0.780   3.959   4.162 -1.3906 -1.3695  0.1749
 8686SOL    HW334517   0.820   3.869   4.277  0.5159  0.3305  0.9086
 8686SOL    MW434518   0.842   3.923   4.212 -0.5811 -0.2026  0.0701
 8687SOL     OW34519   0.237   5.529   2.055 -0.1137  0.0029  0.2414
 8687SOL    HW234520   0.177   5.500   2.124  0.8035 -0.5192  0.8438
 8687SOL    HW334521   0.318   5.550   2.102  1.3734 -2.7355 -0.9076
 8687SOL    MW434522   0.240   5.528   2.070  0.2035 -0.4273  0.1693
 8688SOL     OW34523   4.574   4.429   3.354 -0.6267 -0.2043 -0.6564
 8688SOL    HW234524   4.491   4.383   3.363 -2.2219  2.6297  0.6726
 8688SOL    HW334525   4.549   4.517   3.323  2.1464  0.0139 -2.6100
 8688SOL    MW434526   4.560   4.435   3.351 -0.4713  0.1984 -0.7388
 8689SOL     OW34527   4.324   6.395   0.549  0.4379 -0.5654  0.0460
 8689SOL    HW234528   4.298   6.303   0.550 -1.3516 -0.1401 -1.6005
 8689SOL    HW334529   4.253   6.441   0.592  0.4199  0.2224 -0.7870
 8689SOL    MW434530   4.311   6.389   0.555  0.1994 -0.4053 -0.2811
 8690SOL     OW34531   0.872   4.740   4.432  0.5746  0.2630  0.0419
 8690SOL    HW234532   0.948   4.707   4.481 -0.8625 -0.2150  2.0729
 8690SOL    HW334533   0.798   4.727   4.491 -0.5350  4.7673  0.0466
 8690SOL    MW434534   0.872   4.734   4.446  0.2386  0.7942  0.3105
 8691SOL     OW34535   3.436   0.061   6.100 -0.2430 -0.0640  0.2653
 8691SOL    HW234536   3.362   0.004   6.079 -0.2527 -0.6868  1.9119
 8691SOL    HW334537   3.464   0.034   6.187  0.1469  2.0484  0.8458
 8691SOL    MW434538   3.430   0.050   6.109 -0.1929  0.1326  0.5592
 8692SOL     OW34539   6.293   4.357   1.148  0.1390  0.1815  0.5016
 8692SOL    HW234540   6.283   4.309   1.066  1.4465  0.5569  0.0962
 8692SOL    HW334541   6.387   4.360   1.164 -0.1126 -0.5130  2.4235
 8692SOL    MW434542   6.304   4.351   1.139  0.2783  0.1394  0.7017
 8693SOL     OW34543   5.782   0.437   0.854  0.9458 -0.2573 -0.2762
 8693SOL    HW234544   5.837   0.488   0.914 -1.3795  1.6834  0.3717
 8693SOL    HW334545   5.706   0.413   0.907 -0.8202  0.8309 -2.1732
 8693SOL    MW434546   5.779   0.441   0.869  0.4060  0.1423 -0.4410
 8694SOL     OW34547   6.210   1.423   6.123  0.1447  0.0867  0.4309
 8694SOL    HW234548   6.175   1.425   6.212  1.7908 -1.1899  1.1520
 8694SOL    HW334549   6.211   1.331   6.099 -0.0468  0.3966 -0.8375
 8694SOL    MW434550   6.206   1.411   6.131  0.3366 -0.0408  0.3587
 8695SOL     OW34551   0.784   5.230   3.187 -0.1023  0.5524  0.0690
 8695SOL    HW234552   0.775   5.302   3.250 -0.3964  0.8554 -0.3158
 8695SOL    HW334553   0.757   5.152   3.236 -0.6472  0.8314  0.2194
 8695SOL    MW434554   0.779   5.230   3.202 -0.2130  0.6292  0.0381
 8696SOL     OW34555   2.560   1.799   1.844 -0.1402 -0.0332 -0.2903
 8696SOL    HW234556   2.479   1.764   1.882  0.5671  0.4808  1.8438
 8696SOL    HW334557   2.552   1.894   1.853  1.1304 -0.0124  0.9842
 8696SOL    MW434558   2.548   1.807   1.850  0.1208  0.0374  0.1595
 8697SOL     OW34559   3.062   1.310   1.031 -0.1677 -0.2823 -0.1014
 8697SOL    HW234560   3.030   1.292   1.120 -0.0578  0.0205  0.0006
 8697SOL    HW334561   2.997   1.271   0.974 -0.5333  0.0149  0.1077
 8697SOL    MW434562   3.049   1.303   1.035 -0.2014 -0.2032 -0.0603
 8698SOL     OW34563   2.172   6.396   5.247 -0.2227 -0.3231  0.6962
 8698SOL    HW234564   2.172   6.473   5.190 -0.9071  0.1347  1.3016
 8698SOL    HW334565   2.265   6.378   5.263  0.0539 -1.1308 -1.4162
 8698SOL    MW434566   2.184   6.403   5.241 -0.2765 -0.3692  0.4974
 8699SOL     OW34567   3.313   3.940   0.508 -0.3133 -0.0027  0.3879
 8699SOL    HW234568   3.295   3.849   0.483 -0.3960  0.5713 -1.7643
 8699SOL    HW334569   3.408   3.946   0.507 -0.3286  0.1520 -0.3187
 8699SOL    MW434570   3.323   3.929   0.505 -0.3262  0.0934  0.0107
 8700SOL     OW34571   4.010   0.196   6.055 -0.0676 -0.5816  0.6031
 8700SOL    HW234572   3.991   0.261   5.988 -0.5108 -0.9331  0.3811
 8700SOL    HW334573   3.934   0.199   6.114 -0.6252 -1.6561 -0.0193
 8700SOL    MW434574   3.997   0.205   6.054 -0.1996 -0.7697  0.4917
 8701SOL     OW34575   5.633   5.375   1.229  0.1468 -0.5698  0.5254
 8701SOL    HW234576   5.595   5.432   1.296  1.5897  0.5452  0.4533
 8701SOL    HW334577   5.594   5.289   1.244 -0.6362  0.0044  1.8695
 8701SOL    MW434578   5.623   5.371   1.239  0.2339 -0.3469  0.6933
 8702SOL     OW34579   1.019   3.167   0.951 -0.1959 -0.2081  0.5107
 8702SOL    HW234580   1.004   3.076   0.925  0.0292 -0.2291  0.4499
 8702SOL    HW334581   0.995   3.219   0.874  0.6576 -0.2823  0.1847
 8702SOL    MW434582   1.014   3.162   0.937 -0.0536 -0.2206  0.4597
 8703SOL     OW34583   0.092   4.632   1.924  0.2669 -0.4251  0.1013
 8703SOL    HW234584   0.033   4.577   1.872  0.9583 -0.9760 -0.1192
 8703SOL    HW334585   0.054   4.719   1.920 -0.9573 -0.9153  0.6119
 8703SOL    MW434586   0.079   4.636   1.917  0.1966 -0.5625  0.1396
 8704SOL     OW34587   5.467   0.151   2.732 -0.1499 -0.0876 -0.1257
 8704SOL    HW234588   5.464   0.219   2.800 -3.2063  0.4608 -0.6497
 8704SOL    HW334589   5.470   0.069   2.780  0.8464  0.3308  0.5679
 8704SOL    MW434590   5.467   0.149   2.747 -0.4217  0.0400 -0.1034
 8705SOL     OW34591   1.061   2.940   6.136  0.6886 -0.1725 -0.2585
 8705SOL    HW234592   1.145   2.929   6.090  1.0419 -3.7491  0.8740
 8705SOL    HW334593   0.995   2.934   6.067  1.2954  0.3912 -0.9111
 8705SOL    MW434594   1.064   2.937   6.121  0.8153 -0.5700 -0.1952
 8706SOL     OW34595   6.085   2.225   2.782  0.5236  0.3142 -0.0027
 8706SOL    HW234596   6.078   2.132   2.759 -0.3791  0.7039 -1.4383
 8706SOL    HW334597   6.007   2.244   2.833 -0.1606  0.6421 -1.1330
 8706SOL    MW434598   6.074   2.215   2.786  0.3142  0.4089 -0.3412
 8707SOL     OW34599   1.523   3.953   4.053  0.9388 -0.0676  0.9013
 8707SOL    HW234600   1.450   4.008   4.081 -0.6508 -1.1868 -0.7765
 8707SOL    HW334601   1.487   3.864   4.056  1.1171 -0.4141 -2.9329
 8707SOL    MW434602   1.509   3.948   4.057  0.7526 -0.2610  0.1741
 8708SOL     OW34603   2.477   3.604   2.807 -1.0623  0.2947 -0.3837
 8708SOL    HW234604   2.556   3.560   2.775 -0.2593 -0.0822  1.8740
 8708SOL    HW334605   2.408   3.539   2.798 -0.5650 -0.2906 -0.0951
 8708SOL    MW434606   2.479   3.590   2.802 -0.8908  0.1678 -0.0477
 8709SOL     OW34607   0.604   4.388   1.058 -0.5301  0.2620  0.2468
 8709SOL    HW234608   0.608   4.429   1.145  1.3335 -0.6529  0.6462
 8709SOL    HW334609   0.592   4.295   1.076  1.4068 -0.1409 -0.3937
 8709SOL    MW434610   0.603   4.381   1.072 -0.0286  0.0881  0.2150
 8710SOL     OW34611   6.145   1.160   6.137  0.2260 -0.0959 -0.3711
 8710SOL    HW234612   6.052   1.179   6.152  0.0772 -1.1934  0.2523
 8710SOL    HW334613   6.152   1.154   6.041 -0.1694  0.7694 -0.4666
 8710SOL    MW434614   6.134   1.162   6.126  0.1542 -0.1266 -0.3014
 8711SOL     OW34615   5.202   0.214   4.446 -0.2316  0.5924 -0.1162
 8711SOL    HW234616   5.173   0.123   4.444  0.3064  0.4130  0.0928
 8711SOL    HW334617   5.126   0.264   4.417 -0.7603  0.1347  0.4683
 8711SOL    MW434618   5.188   0.208   4.442 -0.2303  0.5083 -0.0115
 8712SOL     OW34619   6.057   2.049   1.038  0.0330  1.1582  0.1963
 8712SOL    HW234620   5.985   2.111   1.026  0.3078  1.2287 -1.1691
 8712SOL    HW334621   6.022   1.965   1.007  0.5529  1.2063 -0.5371
 8712SOL    MW434622   6.043   2.046   1.033  0.1378  1.1738 -0.0806
 8713SOL     OW34623   3.383   4.186   5.060 -0.3313 -0.8300  0.2128
 8713SOL    HW234624   3.369   4.267   5.108 -0.3237  0.7015 -2.2184
 8713SOL    HW334625   3.330   4.195   4.981  1.7997 -1.9386 -1.4481
 8713SOL    MW434626   3.374   4.198   5.056 -0.0492 -0.7742 -0.3271
 8714SOL     OW34627   1.907   0.753   0.730 -0.4582  0.1414 -0.3928
 8714SOL    HW234628   1.858   0.732   0.650  0.9034 -0.1265 -1.1842
 8714SOL    HW334629   1.951   0.836   0.711  1.6674 -1.0121 -0.8231
 8714SOL    MW434630   1.906   0.761   0.717  0.0019 -0.0462 -0.5540
 8715SOL     OW34631   0.504   1.773   4.203  0.5107  0.0896  0.2948
 8715SOL    HW234632   0.569   1.704   4.187 -0.5139 -0.6080 -1.1107
 8715SOL    HW334633   0.448   1.738   4.273 -0.0377 -0.5706 -0.4500
 8715SOL    MW434634   0.505   1.759   4.210  0.3031 -0.0896  0.0111
 8716SOL     OW34635   3.923   4.026   1.635  0.4403  0.4804  0.1228
 8716SOL    HW234636   3.908   4.001   1.726  0.2282 -0.5945 -0.1968
 8716SOL    HW334637   3.864   4.099   1.620 -0.3217 -0.0351  0.5442
 8716SOL    MW434638   3.913   4.032   1.645  0.3118  0.2705  0.1362
 8717SOL     OW34639   4.859   5.618   2.475 -0.2812  0.5073 -0.0632
 8717SOL    HW234640   4.797   5.590   2.408 -0.1911  1.5188 -0.5862
 8717SOL    HW334641   4.806   5.663   2.540 -0.1525  1.1154 -0.3659
 8717SOL    MW434642   4.844   5.620   2.475 -0.2524  0.7210 -0.1721
 8718SOL     OW34643   0.412   4.999   1.415 -0.0280  0.0829  0.2989
 8718SOL    HW234644   0.499   5.030   1.390 -0.2226  0.1332 -0.3318
 8718SOL    HW334645   0.353   5.070   1.389 -0.3900 -0.4626 -0.4065
 8718SOL    MW434646   0.416   5.013   1.408 -0.1014  0.0175  0.1226
 8719SOL     OW34647   2.507   3.022   1.486 -0.0241 -0.1244  0.4241
 8719SOL    HW234648   2.569   2.952   1.506 -0.9851 -1.2245 -0.3388
 8719SOL    HW334649   2.499   3.020   1.391 -1.3767 -0.1244  0.5282
 8719SOL    MW434650   2.514   3.013   1.476 -0.3293 -0.2696  0.3372
 8720SOL     OW34651   0.235   3.060   3.647 -0.8569  0.4919 -0.1832
 8720SOL    HW234652   0.206   2.996   3.581  0.2675 -1.6785  1.2919
 8720SOL    HW334653   0.162   3.063   3.709 -1.8378  2.3968 -1.3398
 8720SOL    MW434654   0.221   3.052   3.647 -0.8380  0.4569 -0.1412
 8721SOL     OW34655   0.205   4.604   2.189 -0.5885  0.0521  0.1143
 8721SOL    HW234656   0.244   4.636   2.108  0.6438 -0.7452  0.3805
 8721SOL    HW334657   0.120   4.569   2.162 -1.0579  1.5720 -0.5038
 8721SOL    MW434658   0.199   4.604   2.175 -0.4879  0.1474  0.0679
 8722SOL     OW34659   0.466   0.763   1.602 -0.2086 -0.2247 -0.3522
 8722SOL    HW234660   0.380   0.750   1.643 -0.3164 -1.9714 -1.0649
 8722SOL    HW334661   0.511   0.679   1.614  0.0228 -0.5951 -3.1394
 8722SOL    MW434662   0.461   0.750   1.609 -0.1923 -0.5040 -0.8140
 8723SOL     OW34663   4.992   6.322   5.891 -0.0338 -0.4459 -0.3623
 8723SOL    HW234664   4.969   6.373   5.969  0.3243 -0.7770 -0.0332
 8723SOL    HW334665   5.087   6.329   5.885  0.1222 -1.7823  0.1949
 8723SOL    MW434666   5.002   6.330   5.901  0.0341 -0.6659 -0.2454
 8724SOL     OW34667   0.726   1.093   5.315  0.3269 -0.1910  0.0561
 8724SOL    HW234668   0.800   1.117   5.259  0.2085 -0.7935 -0.3625
 8724SOL    HW334669   0.654   1.148   5.284  0.2126 -0.6530 -0.5081
 8724SOL    MW434670   0.726   1.103   5.303  0.2962 -0.3314 -0.0735
 8725SOL     OW34671   4.854   6.084   2.640  1.0994 -0.2770 -0.3129
 8725SOL    HW234672   4.845   6.175   2.612  0.0906 -0.3091 -0.1296
 8725SOL    HW334673   4.835   6.086   2.734  1.8949 -0.5639 -0.1306
 8725SOL    MW434674   4.851   6.096   2.649  1.0713 -0.3191 -0.2646
 8726SOL     OW34675   4.846   3.251   0.129  0.2075  0.6358  0.7808
 8726SOL    HW234676   4.904   3.272   0.056  0.2856  2.5730  1.3435
 8726SOL    HW334677   4.758   3.255   0.092  0.2764  0.9927  0.6585
 8726SOL    MW434678   4.842   3.254   0.115  0.2269  0.9385  0.8389
 8727SOL     OW34679   2.084   0.727   4.211  0.5119 -0.0735  0.1285
 8727SOL    HW234680   2.048   0.772   4.134  1.0707 -1.5391 -1.0343
 8727SOL    HW334681   2.087   0.635   4.186  0.9367 -0.5569  1.8397
 8727SOL    MW434682   2.080   0.721   4.197  0.6417 -0.3307  0.2009
 8728SOL     OW34683   4.006   4.799   1.348 -0.2908  0.3442  0.0706
 8728SOL    HW234684   4.014   4.717   1.396 -1.0026  0.5427  0.5547
 8728SOL    HW334685   4.004   4.773   1.256  0.0792 -0.1295  0.1961
 8728SOL    MW434686   4.007   4.784   1.342 -0.3359  0.3079  0.1511
 8729SOL     OW34687   0.434   0.795   2.279 -0.1008 -0.1430 -0.1901
 8729SOL    HW234688   0.438   0.780   2.184  0.2338 -2.7167  0.1634
 8729SOL    HW334689   0.449   0.709   2.317  0.3105  0.9409  2.2388
 8729SOL    MW434690   0.436   0.782   2.271 -0.0024 -0.3395  0.1770
 8730SOL     OW34691   4.271   6.203   5.370  0.4714  0.4403 -0.4420
 8730SOL    HW234692   4.320   6.172   5.446 -0.2731  1.2020  0.3824
 8730SOL    HW334693   4.179   6.188   5.394  0.2472  0.0910 -1.4764
 8730SOL    MW434694   4.265   6.197   5.383  0.3436  0.4947 -0.4697
 8731SOL     OW34695   0.896   0.952   1.423 -0.3209 -0.3573  0.4468
 8731SOL    HW234696   0.984   0.982   1.402 -0.9500  1.7774  0.6703
 8731SOL    HW334697   0.890   0.865   1.383  2.0167 -0.7578  0.8265
 8731SOL    MW434698   0.907   0.944   1.415 -0.0955 -0.1285  0.5263
 8732SOL     OW34699   1.342   2.250   3.356  0.2953 -0.0132  0.2720
 8732SOL    HW234700   1.303   2.306   3.288  0.4361  0.9392  0.9585
 8732SOL    HW334701   1.370   2.172   3.309 -1.4752 -0.2831 -0.4279
 8732SOL    MW434702   1.340   2.247   3.341  0.0803  0.0768  0.2702
 8733SOL     OW34703   2.073   6.404   2.517 -0.3019 -0.4690 -0.7629
 8733SOL    HW234704   2.125   6.338   2.564  0.3205  0.3543 -0.2707
 8733SOL    HW334705   1.984   6.391   2.549  0.3250  1.1233  2.0020
 8733SOL    MW434706   2.068   6.393   2.527 -0.1371 -0.1503 -0.3332
 8734SOL     OW34707   1.033   0.481   6.204  0.3043 -0.7274 -0.2567
 8734SOL    HW234708   0.988   0.451   6.282 -0.9855 -1.8914 -1.3879
 8734SOL    HW334709   1.039   0.576   6.214 -0.8434 -0.7382  0.7451
 8734SOL    MW434710   1.028   0.490   6.215 -0.0173 -0.8824 -0.2738
 8735SOL     OW34711   2.783   3.885   1.321  0.2675 -0.3926  0.1222
 8735SOL    HW234712   2.850   3.844   1.377  1.2344  1.7149  0.6025
 8735SOL    HW334713   2.829   3.956   1.277 -1.7344  1.4453  0.8270
 8735SOL    MW434714   2.798   3.889   1.322  0.1310  0.1279  0.2786
 8736SOL     OW34715   0.358   3.851   5.505  0.6183  0.3155  0.3862
 8736SOL    HW234716   0.376   3.860   5.412 -1.1973 -0.7061 -0.1325
 8736SOL    HW334717   0.276   3.899   5.518  0.5624 -0.0188  1.3427
 8736SOL    MW434718   0.349   3.859   5.494  0.3714  0.1366  0.4440
 8737SOL     OW34719   1.990   3.970   5.649  0.4229  0.2280  0.6282
 8737SOL    HW234720   2.003   3.899   5.586 -0.6827 -0.7679  1.4573
 8737SOL    HW334721   1.904   3.951   5.688  0.8259  1.1248  2.0154
 8737SOL    MW434722   1.980   3.958   5.646  0.3302  0.2149  0.9206
 8738SOL     OW34723   6.272   2.578   4.660  0.1166 -0.1435  0.3089
 8738SOL    HW234724   6.224   2.552   4.581  0.4205 -1.7399  0.6261
 8738SOL    HW334725   6.269   2.674   4.658 -1.8774 -0.1653 -0.4080
 8738SOL    MW434726   6.265   2.587   4.649 -0.1064 -0.3570  0.2561
 8739SOL     OW34727   0.004   4.084   1.840 -0.1996  0.1796 -0.0926
 8739SOL    HW234728  -0.001   4.166   1.890  2.2100 -0.6272  1.6609
 8739SOL    HW334729   0.098   4.066   1.834 -0.6525 -3.2010  0.9175
 8739SOL    MW434730   0.016   4.093   1.846  0.0585 -0.3729  0.2720
 8740SOL     OW34731   3.246   5.014   3.321  0.3246  0.2763  0.1424
 8740SOL    HW234732   3.333   4.977   3.307  0.2855  0.2928 -0.1425
 8740SOL    HW334733   3.193   4.942   3.353  0.8657  0.6361  1.9574
 8740SOL    MW434734   3.251   5.000   3.323  0.3908  0.3259  0.3443
 8741SOL     OW34735   3.365   5.368   2.148  0.4034  0.3903 -0.6642
 8741SOL    HW234736   3.331   5.282   2.124  1.6545 -0.7033  1.2061
 8741SOL    HW334737   3.328   5.385   2.235 -0.3248  2.0653 -1.2634
 8741SOL    MW434738   3.356   5.359   2.156  0.4724  0.4670 -0.4965
 8742SOL     OW34739   5.015   6.074   2.378  0.4258 -0.4499  0.8484
 8742SOL    HW234740   4.963   6.001   2.343  0.5916 -0.0742 -0.2198
 8742SOL    HW334741   4.997   6.073   2.472 -0.9027 -0.8208  0.6136
 8742SOL    MW434742   5.006   6.064   2.385  0.2724 -0.4492  0.6765
 8743SOL     OW34743   5.185   1.598   5.063  1.0298 -0.2607  0.3249
 8743SOL    HW234744   5.099   1.589   5.104  0.4330 -0.5516 -0.9443
 8743SOL    HW334745   5.195   1.519   5.009  1.8423  0.0401  0.0169
 8743SOL    MW434746   5.175   1.587   5.061  1.0583 -0.2594  0.1168
 8744SOL     OW34747   1.491   4.945   2.760  0.0403 -0.3579 -0.2672
 8744SOL    HW234748   1.470   5.025   2.809  2.0202 -0.2338  0.4571
 8744SOL    HW334749   1.538   4.891   2.823 -1.4177 -2.2166 -0.6914
 8744SOL    MW434750   1.494   4.949   2.775  0.1092 -0.5868 -0.2276
 8745SOL     OW34751   5.886   0.092   4.294  0.1310 -0.1968  0.1738
 8745SOL    HW234752   5.919   0.173   4.256  0.2031 -0.3264 -0.0439
 8745SOL    HW334753   5.964   0.048   4.328 -0.1505  0.8609  2.3368
 8745SOL    MW434754   5.900   0.097   4.293  0.1034 -0.0744  0.4305
 8746SOL     OW34755   2.822   4.091   3.440  0.1759  0.2084 -0.5484
 8746SOL    HW234756   2.898   4.056   3.394  0.5149  1.2812 -0.8367
 8746SOL    HW334757   2.748   4.073   3.381  0.1158 -1.2694 -0.0448
 8746SOL    MW434758   2.822   4.084   3.426  0.2127  0.1550 -0.5200
 8747SOL     OW34759   4.329   4.161   6.052 -0.0049  0.4149  0.0227
 8747SOL    HW234760   4.267   4.127   6.117 -0.9107 -0.1517 -1.1008
 8747SOL    HW334761   4.332   4.093   5.984  1.1025  0.8842 -0.4270
 8747SOL    MW434762   4.321   4.147   6.052  0.0217  0.4020 -0.1848
 8748SOL     OW34763   2.145   2.029   5.300  0.1028 -0.0981 -0.1184
 8748SOL    HW234764   2.068   2.077   5.329  0.4606  0.5295 -0.2049
 8748SOL    HW334765   2.203   2.095   5.264 -0.3621 -0.8449 -2.3951
 8748SOL    MW434766   2.142   2.044   5.299  0.0887 -0.1138 -0.4302
 8749SOL     OW34767   3.560   5.359   2.461 -0.6091 -0.3552 -0.2819
 8749SOL    HW234768   3.584   5.389   2.373  0.2492 -0.1441  0.0128
 8749SOL    HW334769   3.634   5.386   2.516 -1.7509  0.7554  0.7663
 8749SOL    MW434770   3.573   5.367   2.457 -0.6465 -0.1808 -0.1047
 8750SOL     OW34771   0.310   1.596   5.681  0.5753 -0.2626 -0.0132
 8750SOL    HW234772   0.307   1.595   5.585 -0.1836 -1.1277  0.0112
 8750SOL    HW334773   0.388   1.546   5.703 -0.5579 -2.2224 -0.1672
 8750SOL    MW434774   0.320   1.589   5.671  0.3256 -0.6353 -0.0303
 8751SOL     OW34775   5.205   1.686   1.258 -0.5432 -0.2161  0.7736
 8751SOL    HW234776   5.187   1.724   1.172  0.2738 -2.7967 -0.6682
 8751SOL    HW334777   5.124   1.696   1.307 -1.7854 -0.6350 -1.1164
 8751SOL    MW434778   5.192   1.692   1.253 -0.5993 -0.6119  0.3340
 8752SOL     OW34779   4.059   4.797   5.725 -0.2456 -0.6981  0.4840
 8752SOL    HW234780   4.094   4.839   5.804  0.5106 -1.8894  0.8000
 8752SOL    HW334781   4.085   4.855   5.653 -0.2345 -0.0255  1.0221
 8752SOL    MW434782   4.067   4.810   5.726 -0.1444 -0.7666  0.5967
 8753SOL     OW34783   2.093   3.843   0.163 -0.5634 -0.0342  0.6349
 8753SOL    HW234784   2.029   3.875   0.099  0.5069  0.4456 -0.2514
 8753SOL    HW334785   2.045   3.782   0.218 -1.6597 -0.0474 -0.3034
 8753SOL    MW434786   2.078   3.839   0.162 -0.5668  0.0274  0.3941
 8754SOL     OW34787   1.485   6.068   2.076 -0.3966  0.0587  0.4552
 8754SOL    HW234788   1.504   6.059   2.170  1.5150 -0.4532  0.0522
 8754SOL    HW334789   1.444   5.985   2.052  0.4992 -0.4205  0.5421
 8754SOL    MW434790   1.482   6.056   2.085 -0.0262 -0.0720  0.4135
 8755SOL     OW34791   1.849   2.981   2.346  0.4632 -0.1721 -0.2795
 8755SOL    HW234792   1.787   2.911   2.363  0.7551 -0.6808 -1.2845
 8755SOL    HW334793   1.876   2.969   2.255  1.1956  0.7022 -0.1960
 8755SOL    MW434794   1.844   2.970   2.336  0.5983 -0.1238 -0.4011
 8756SOL     OW34795   4.544   6.031   3.998  0.4294 -0.3576  0.2835
 8756SOL    HW234796   4.512   6.120   4.012  0.0375 -0.4225 -0.1460
 8756SOL    HW334797   4.637   6.034   4.019 -0.0864 -0.4725  2.9483
 8756SOL    MW434798   4.552   6.043   4.002  0.3096 -0.3813  0.5784
 8757SOL     OW34799   2.719   2.255   1.005  1.1523 -0.1714 -0.0542
 8757SOL    HW234800   2.690   2.184   0.949 -0.8165  0.8001 -0.3593
 8757SOL    HW334801   2.661   2.329   0.983  1.1866  0.6418  2.2794
 8757SOL    MW434802   2.708   2.256   0.995  0.8971  0.0641  0.2134
 8758SOL     OW34803   1.941   5.280   5.659 -0.1508 -0.2959  0.2866
 8758SOL    HW234804   1.923   5.344   5.728 -1.6632  0.9031 -1.1158
 8758SOL    HW334805   2.030   5.251   5.675 -0.1982  0.5255  2.2775
 8758SOL    MW434806   1.950   5.285   5.670 -0.3566 -0.0293  0.3643
 8759SOL     OW34807   2.349   0.101   2.804  0.0208  0.4983 -0.4380
 8759SOL    HW234808   2.266   0.144   2.824  0.5098  0.8354  1.0054
 8759SOL    HW334809   2.332   0.008   2.818 -0.1624  0.5554 -0.2741
 8759SOL    MW434810   2.336   0.095   2.809  0.0611  0.5503 -0.2259
 8760SOL     OW34811   2.153   3.017   5.470  0.1114  0.5254 -0.0821
 8760SOL    HW234812   2.180   2.944   5.525  0.3657  0.9779  0.4077
 8760SOL    HW334813   2.119   2.977   5.390 -0.4785 -0.1506  0.4999
 8760SOL    MW434814   2.152   3.002   5.466  0.0671  0.4959  0.0593
 8761SOL     OW34815   1.361   3.289   4.894  0.1628 -0.3986 -0.8719
 8761SOL    HW234816   1.395   3.286   4.983 -0.4245  1.2867 -0.5655
 8761SOL    HW334817   1.394   3.371   4.858 -1.4088  0.0299 -1.4364
 8761SOL    MW434818   1.370   3.299   4.901 -0.1220 -0.1197 -0.9059
 8762SOL     OW34819   4.791   4.323   5.032  0.0470  0.5340  0.0022
 8762SOL    HW234820   4.825   4.329   4.943 -0.5844 -2.0881 -0.4862
 8762SOL    HW334821   4.813   4.235   5.061  1.2265  1.6321  2.9310
 8762SOL    MW434822   4.798   4.312   5.024  0.1193  0.3329  0.3242
 8763SOL     OW34823   3.876   3.702   3.299  0.4884  0.0452 -0.1877
 8763SOL    HW234824   3.958   3.670   3.262 -0.3048 -0.6801 -1.3789
 8763SOL    HW334825   3.873   3.794   3.276  1.4850  0.3618  0.8551
 8763SOL    MW434826   3.886   3.710   3.291  0.5153 -0.0087 -0.2073
 8764SOL     OW34827   3.853   0.238   0.896 -0.5853  0.0980  0.8230
 8764SOL    HW234828   3.776   0.192   0.863 -1.0578  1.2829  0.2205
 8764SOL    HW334829   3.841   0.238   0.991 -1.6526  0.7704  0.7126
 8764SOL    MW434830   3.841   0.232   0.904 -0.7885  0.3431  0.7290
 8765SOL     OW34831   2.339   5.952   6.111  0.1254  0.2973  0.0043
 8765SOL    HW234832   2.283   5.878   6.089  0.6168  0.1313 -0.7360
 8765SOL    HW334833   2.302   5.987   6.192 -1.2812  0.4496 -0.6894
 8765SOL    MW434834   2.327   5.947   6.119  0.0047  0.2955 -0.1849
 8766SOL     OW34835   3.318   3.981   5.301  0.2518 -0.5864  0.2832
 8766SOL    HW234836   3.318   4.044   5.229  0.9288 -0.5034  0.3532
 8766SOL    HW334837   3.340   3.897   5.261 -1.9025 -1.0547 -0.0268
 8766SOL    MW434838   3.321   3.978   5.286  0.0569 -0.6372  0.2515
 8767SOL     OW34839   4.061   1.449   5.652 -0.1622  0.6948 -0.0170
 8767SOL    HW234840   3.993   1.388   5.621 -1.1526  1.7227  0.0773
 8767SOL    HW334841   4.021   1.535   5.644  0.9897  1.2924  0.4757
 8767SOL    MW434842   4.047   1.452   5.647 -0.1409  0.9092  0.0605
 8768SOL     OW34843   1.906   6.251   0.658  0.3632  0.2931 -0.3093
 8768SOL    HW234844   1.896   6.161   0.626  0.6163  1.1843 -3.1113
 8768SOL    HW334845   1.995   6.276   0.631  0.9066  0.9200  1.8492
 8768SOL    MW434846   1.917   6.242   0.650  0.4683  0.4934 -0.3942
 8769SOL     OW34847   4.863   6.011   0.165  0.4800  0.2220  0.8189
 8769SOL    HW234848   4.951   6.038   0.139  1.1186 -0.3417  2.3104
 8769SOL    HW334849   4.813   6.093   0.168  1.8535  1.0875  3.2529
 8769SOL    MW434850   4.868   6.025   0.162  0.7455  0.2618  1.3368
 8770SOL     OW34851   5.522   3.673   1.318 -0.4827 -0.0653 -0.3614
 8770SOL    HW234852   5.485   3.645   1.402  2.1175  1.0403  1.2906
 8770SOL    HW334853   5.457   3.734   1.283 -0.8853  0.8181  1.7408
 8770SOL    MW434854   5.508   3.677   1.325 -0.1927  0.1972  0.1339
 8771SOL     OW34855   5.948   3.135   1.115 -0.5775 -0.0477 -0.0725
 8771SOL    HW234856   5.891   3.087   1.175  1.2168 -0.2029  1.6110
 8771SOL    HW334857   6.015   3.072   1.090 -1.7126 -0.2554 -3.0243
 8771SOL    MW434858   5.949   3.120   1.120 -0.4905 -0.0956 -0.2399
 8772SOL     OW34859   3.849   3.356   6.266  0.0679 -0.2367  0.7561
 8772SOL    HW234860   3.820   3.310   6.188  1.3213  0.4142 -0.1356
 8772SOL    HW334861   3.936   3.391   6.242 -0.0370  0.9819  2.0257
 8772SOL    MW434862   3.857   3.355   6.253  0.2194  0.0100  0.8059
 8773SOL     OW34863   5.322   1.007   1.660 -0.3416 -0.4117  0.0804
 8773SOL    HW234864   5.266   1.081   1.635 -0.0333  0.1639  1.0637
 8773SOL    HW334865   5.398   1.047   1.701  0.0081 -1.2674  0.2836
 8773SOL    MW434866   5.325   1.022   1.662 -0.2548 -0.4487  0.2369
 8774SOL     OW34867   5.894   6.105   5.644 -0.0851 -0.2226 -0.1785
 8774SOL    HW234868   5.884   6.036   5.709 -0.5143 -1.0477 -1.0763
 8774SOL    HW334869   5.978   6.087   5.602  0.5968  0.8107  0.6878
 8774SOL    MW434870   5.903   6.094   5.647 -0.0518 -0.1951 -0.1826
 8775SOL     OW34871   1.905   0.355   0.772 -0.4199 -0.7113  0.2954
 8775SOL    HW234872   1.825   0.407   0.767  0.1475  0.1878  0.3901
 8775SOL    HW334873   1.964   0.407   0.827  0.2844 -1.2960  0.1026
 8775SOL    MW434874   1.902   0.369   0.779 -0.2521 -0.6698  0.2824
 8776SOL     OW34875   2.479   5.424   4.235  0.1736  0.0942 -0.1581
 8776SOL    HW234876   2.398   5.421   4.184 -0.0934 -0.6345  0.2830
 8776SOL    HW334877   2.452   5.396   4.323  0.3818  2.4436  0.7222
 8776SOL    MW434878   2.465   5.420   4.240  0.1659  0.3080  0.0162
 8777SOL     OW34879   5.371   3.752   0.994  0.2845 -0.1680  0.4887
 8777SOL    HW234880   5.315   3.738   1.070 -0.3546 -0.0113  0.0512
 8777SOL    HW334881   5.363   3.845   0.974  2.1531  0.2728  1.5372
 8777SOL    MW434882   5.362   3.762   1.001  0.4467 -0.0891  0.5693
 8778SOL     OW34883   4.596   4.006   5.778 -0.1366 -0.0929 -0.4061
 8778SOL    HW234884   4.628   3.937   5.720 -1.4385 -0.6012 -0.5583
 8778SOL    HW334885   4.642   3.992   5.860 -0.7134 -1.4482 -0.2886
 8778SOL    MW434886   4.606   3.995   5.781 -0.3845 -0.3388 -0.4107
 8779SOL     OW34887   3.244   5.810   6.140 -0.2113  0.7331 -0.1511
 8779SOL    HW234888   3.240   5.794   6.046 -0.7224  0.5079 -0.0938
 8779SOL    HW334889   3.153   5.824   6.167 -0.1150  0.4148  0.3699
 8779SOL    MW434890   3.231   5.810   6.131 -0.2661  0.6614 -0.0748
 8780SOL     OW34891   5.066   2.434   4.520 -0.5436 -0.0443 -0.0740
 8780SOL    HW234892   5.050   2.343   4.494 -2.1829  0.2092 -0.0387
 8780SOL    HW334893   5.160   2.447   4.505 -0.0757 -2.0127  0.8067
 8780SOL    MW434894   5.076   2.423   4.515 -0.6981 -0.2705  0.0469
 8781SOL     OW34895   1.264   5.320   6.244  0.5306  0.1992 -0.4665
 8781SOL    HW234896   1.270   5.408   6.282 -0.0634  0.9905 -2.0989
 8781SOL    HW334897   1.185   5.282   6.284  1.2925  0.0145  0.9428
 8781SOL    MW434898   1.254   5.327   6.254  0.5528  0.2792 -0.4959
 8782SOL     OW34899   0.962   6.259   4.847 -0.1541  0.3717  0.2419
 8782SOL    HW234900   0.872   6.249   4.879  0.1458  0.7828  1.2313
 8782SOL    HW334901   0.955   6.324   4.778 -0.7213 -0.1134 -0.1771
 8782SOL    MW434902   0.949   6.266   4.842 -0.1893  0.3619  0.3172
 8783SOL     OW34903   4.996   0.367   3.412  0.4000  0.4257 -0.5495
 8783SOL    HW234904   5.058   0.439   3.425 -0.7074  1.7694 -2.3246
 8783SOL    HW334905   4.910   0.408   3.417 -0.3482 -1.1961  0.6239
 8783SOL    MW434906   4.993   0.382   3.414  0.1552  0.3890 -0.6289
 8784SOL     OW34907   3.231   6.016   3.361 -0.0909  0.2370 -0.2674
 8784SOL    HW234908   3.147   6.057   3.340  1.1988  3.2826  0.0995
 8784SOL    HW334909   3.228   6.000   3.455  0.1591  1.4250 -0.0511
 8784SOL    MW434910   3.220   6.019   3.370  0.1123  0.7955 -0.1904
 8785SOL     OW34911   0.693   2.599   5.256  0.4426 -0.1643 -0.1666
 8785SOL    HW234912   0.734   2.653   5.189 -0.2763 -0.8030 -1.1400
 8785SOL    HW334913   0.637   2.659   5.305  2.5014  0.7466  1.2385
 8785SOL    MW434914   0.691   2.614   5.254  0.6194 -0.1284 -0.1096
 8786SOL     OW34915   0.636   6.215   0.796  0.6055 -0.2876  0.4412
 8786SOL    HW234916   0.661   6.173   0.879  0.8724 -0.8902  0.0639
 8786SOL    HW334917   0.543   6.233   0.805  0.7974  0.3847  1.1856
 8786SOL    MW434918   0.627   6.212   0.808  0.6660 -0.2784  0.4897
 8787SOL     OW34919   1.974   1.087   5.397  0.0132 -0.3510  0.5675
 8787SOL    HW234920   2.005   0.998   5.382 -0.1360 -0.3177  0.0250
 8787SOL    HW334921   1.900   1.077   5.457  0.7681 -0.4705  1.4992
 8787SOL    MW434922   1.968   1.074   5.403  0.0931 -0.3624  0.6188
 8788SOL     OW34923   2.398   2.801   5.807 -0.1087  0.1991 -0.0983
 8788SOL    HW234924   2.474   2.758   5.767 -0.5470  0.3070 -1.0695
 8788SOL    HW334925   2.328   2.791   5.743 -0.7643  0.6021  0.5426
 8788SOL    MW434926   2.399   2.794   5.793 -0.2530  0.2665 -0.1419
 8789SOL     OW34927   2.702   5.277   5.187 -0.4320  0.3694 -0.5924
 8789SOL    HW234928   2.715   5.313   5.275  1.8975  1.6623 -1.3957
 8789SOL    HW334929   2.679   5.352   5.133 -0.0171 -0.0976 -1.4397
 8789SOL    MW434930   2.700   5.291   5.191 -0.0699  0.4784 -0.8101
 8790SOL     OW34931   1.983   5.801   4.810 -0.3281  0.1498 -0.0321
 8790SOL    HW234932   1.971   5.802   4.905  0.7459  3.3441  0.2086
 8790SOL    HW334933   2.077   5.789   4.799 -0.6483 -1.9458 -0.8321
 8790SOL    MW434934   1.994   5.800   4.821 -0.2286  0.2947 -0.1059
 8791SOL     OW34935   1.408   2.024   5.216  0.2357 -0.2436  0.3414
 8791SOL    HW234936   1.398   1.947   5.272  0.9033 -1.5179 -1.2190
 8791SOL    HW334937   1.319   2.055   5.202  0.0541  0.1456  2.1141
 8791SOL    MW434938   1.395   2.018   5.222  0.2998 -0.3604  0.3694
 8792SOL     OW34939   1.895   0.175   3.950  0.2104 -0.6389 -0.0185
 8792SOL    HW234940   1.819   0.225   3.981 -0.5383 -0.0276 -2.5972
 8792SOL    HW334941   1.888   0.091   3.996 -1.0574  0.0043  1.0452
 8792SOL    MW434942   1.884   0.170   3.960 -0.0556 -0.4734 -0.2184
 8793SOL     OW34943   3.263   2.350   3.084  0.3005  0.2867 -0.4681
 8793SOL    HW234944   3.298   2.292   3.016  0.6643  0.0451 -0.0830
 8793SOL    HW334945   3.314   2.431   3.076 -0.2945  0.6057 -1.0893
 8793SOL    MW434946   3.275   2.353   3.074  0.2700  0.2969 -0.4993
 8794SOL     OW34947   2.034   4.942   0.924  0.7654  0.4855  0.4270
 8794SOL    HW234948   1.968   4.911   0.861  0.4182  3.0913 -0.6121
 8794SOL    HW334949   2.026   4.881   0.998 -1.0334 -0.7968 -0.7230
 8794SOL    MW434950   2.024   4.929   0.926  0.4823  0.6601  0.1382
 8795SOL     OW34951   4.529   2.382   1.648  0.1141  0.4518 -0.2435
 8795SOL    HW234952   4.523   2.450   1.582 -0.2410  0.5258 -0.1361
 8795SOL    HW334953   4.557   2.304   1.600 -1.3096  0.1927 -0.7086
 8795SOL    MW434954   4.532   2.381   1.633 -0.1206  0.4274 -0.2907
 8796SOL     OW34955   3.804   6.395   3.264  0.2661 -0.3131  0.2998
 8796SOL    HW234956   3.859   6.318   3.254  1.3457  0.5545 -0.6203
 8796SOL    HW334957   3.777   6.393   3.356  0.8668 -1.3706  0.4725
 8796SOL    MW434958   3.807   6.384   3.275  0.4878 -0.3381  0.2012
 8797SOL     OW34959   4.887   0.869   2.290  0.1947 -0.1412  0.4377
 8797SOL    HW234960   4.802   0.854   2.331  0.0973  0.1347  0.3349
 8797SOL    HW334961   4.867   0.885   2.198  0.4242 -0.9168  0.2406
 8797SOL    MW434962   4.873   0.869   2.283  0.2121 -0.2071  0.3981
 8798SOL     OW34963   3.852   5.151   5.561  0.0066 -0.1037 -0.1591
 8798SOL    HW234964   3.867   5.240   5.594  0.0329 -0.3215  0.4286
 8798SOL    HW334965   3.772   5.123   5.604  1.2569 -1.2539  1.5687
 8798SOL    MW434966   3.844   5.159   5.571  0.1750 -0.2842  0.1464
 8799SOL     OW34967   2.559   5.806   3.559  0.0625  0.2816 -0.1529
 8799SOL    HW234968   2.515   5.741   3.504 -0.0770  1.1553 -1.1102
 8799SOL    HW334969   2.511   5.803   3.641  0.4408 -1.2392  0.0414
 8799SOL    MW434970   2.547   5.797   3.562  0.0940  0.1963 -0.2536
 8800SOL     OW34971   0.876   5.987   2.653 -0.1952 -0.5933  0.1921
 8800SOL    HW234972   0.879   6.000   2.558 -0.1069  0.9201  0.3732
 8800SOL    HW334973   0.902   5.896   2.666  1.9953 -0.2339 -1.1026
 8800SOL    MW434974   0.880   5.977   2.642  0.1055 -0.3462  0.0452
 8801SOL     OW34975   0.626   5.782   3.290  0.2369 -0.3525  0.8566
 8801SOL    HW234976   0.685   5.732   3.346 -0.2753 -1.7015  0.2273
 8801SOL    HW334977   0.540   5.774   3.331  0.2261  0.4422  1.0121
 8801SOL    MW434978   0.623   5.774   3.302  0.1679 -0.4257  0.7941
 8802SOL     OW34979   1.768   5.061   0.286  0.0396  0.4005  0.0405
 8802SOL    HW234980   1.798   5.137   0.236  0.2312  0.9262  0.9225
 8802SOL    HW334981   1.809   4.986   0.243 -0.2167  0.7905 -0.8873
 8802SOL    MW434982   1.778   5.061   0.274  0.0310  0.5213  0.0345
 8803SOL     OW34983   4.216   4.724   6.155  0.1012 -0.5991 -0.1434
 8803SOL    HW234984   4.220   4.637   6.115 -2.5740 -1.1154  0.4694
 8803SOL    HW334985   4.231   4.785   6.083 -0.6338 -1.5620 -1.1466
 8803SOL    MW434986   4.218   4.721   6.141 -0.3487 -0.7943 -0.1949
 8804SOL     OW34987   5.977   0.265   1.240 -0.0752 -0.3805 -0.4812
 8804SOL    HW234988   6.014   0.353   1.234 -0.0936 -0.2008  1.3766
 8804SOL    HW334989   5.948   0.258   1.331  2.0305 -3.1185  0.1278
 8804SOL    MW434990   5.978   0.276   1.251  0.2002 -0.7181 -0.1557
 8805SOL     OW34991   4.168   1.657   4.998  0.0394  0.0869  0.2323
 8805SOL    HW234992   4.083   1.696   5.019 -0.5017 -0.3285 -1.0849
 8805SOL    HW334993   4.178   1.587   5.062 -1.1037 -0.5276 -0.2274
 8805SOL    MW434994   4.158   1.653   5.009 -0.1828 -0.0490 -0.0021
 8806SOL     OW34995   0.308   5.073   5.964  0.6687 -0.4128 -0.3138
 8806SOL    HW234996   0.385   5.113   6.006  0.4004  0.2055 -0.4035
 8806SOL    HW334997   0.345   5.011   5.901  1.1171  0.3680 -0.8387
 8806SOL    MW434998   0.323   5.070   5.961  0.6924 -0.2282 -0.3949
 8807SOL     OW34999   3.453   2.598   0.259  0.3459 -0.2629 -0.4488
 8807SOL    HW235000   3.526   2.600   0.197  0.5635  0.4523 -0.1738
 8807SOL    HW335001   3.386   2.545   0.215 -0.4552  2.1384 -2.3698
 8807SOL    MW435002   3.453   2.591   0.245  0.2689  0.1483 -0.6660
 8808SOL     OW35003   3.947   0.533   5.662  0.2067  0.3275 -0.0640
 8808SOL    HW235004   3.907   0.476   5.729  1.5890  0.0363  0.5606
 8808SOL    HW335005   3.934   0.485   5.580 -2.6888  1.2960 -0.2970
 8808SOL    MW435006   3.940   0.519   5.660  0.0070  0.4168 -0.0123
 8809SOL     OW35007   1.365   4.916   0.088  0.2162 -0.1580 -0.0163
 8809SOL    HW235008   1.404   4.999   0.061  0.9943  0.3299  2.3434
 8809SOL    HW335009   1.434   4.872   0.138 -0.8505 -1.2734  0.5272
 8809SOL    MW435010   1.379   4.921   0.091  0.1781 -0.2408  0.3667
 8810SOL     OW35011   4.702   3.951   0.468  0.4169  0.2831 -0.3536
 8810SOL    HW235012   4.609   3.973   0.458  0.6146  1.1481 -0.3927
 8810SOL    HW335013   4.715   3.949   0.563  0.2201 -0.4775 -0.3375
 8810SOL    MW435014   4.691   3.954   0.480  0.4170  0.2969 -0.3566
 8811SOL     OW35015   4.771   2.942   3.633 -0.2469  0.0026 -0.6743
 8811SOL    HW235016   4.704   2.961   3.567 -2.2184 -1.1012  0.9063
 8811SOL    HW335017   4.730   2.877   3.690  1.5878  0.5054  1.3259
 8811SOL    MW435018   4.757   2.936   3.632 -0.2649 -0.0767 -0.2018
 8812SOL     OW35019   0.344   6.079   3.811 -0.6519  0.5224  0.4638
 8812SOL    HW235020   0.370   6.171   3.815 -1.7393  0.8269  0.8004
 8812SOL    HW335021   0.305   6.068   3.725 -0.7943  0.4464  0.5375
 8812SOL    MW435022   0.343   6.089   3.800 -0.8142  0.5525  0.5179
 8813SOL     OW35023   5.946   2.396   3.266  0.4983  0.5101  0.3258
 8813SOL    HW235024   6.041   2.383   3.263  0.3524 -0.4053 -1.2218
 8813SOL    HW335025   5.915   2.330   3.328  0.7749  0.1544  0.0877
 8813SOL    MW435026   5.955   2.385   3.274  0.5156  0.3424  0.0902
 8814SOL     OW35027   2.595   3.039   5.419  0.0545  0.0584 -0.2271
 8814SOL    HW235028   2.517   3.092   5.436 -1.8634 -1.2344 -3.8071
 8814SOL    HW335029   2.566   2.949   5.432  2.1328 -0.3863  1.9737
 8814SOL    MW435030   2.581   3.034   5.423  0.0756 -0.1708 -0.4090
 8815SOL     OW35031   4.486   0.182   2.076  0.0806 -0.5498  0.6100
 8815SOL    HW235032   4.502   0.087   2.074  1.2598 -0.3749 -0.9364
 8815SOL    HW335033   4.570   0.219   2.103  1.0966  0.1764 -2.9048
 8815SOL    MW435034   4.499   0.174   2.079  0.3702 -0.4309 -0.0577
 8816SOL     OW35035   4.338   1.531   5.910  0.3134  0.5317 -0.0970
 8816SOL    HW235036   4.272   1.601   5.908  0.8291  1.0547  0.7033
 8816SOL    HW335037   4.331   1.494   5.998  0.7445  0.2510 -0.1795
 8816SOL    MW435038   4.328   1.536   5.922  0.4383  0.5637 -0.0023
 8817SOL     OW35039   0.234   6.034   1.527  0.0532  0.0208 -0.3830
 8817SOL    HW235040   0.317   6.081   1.520 -0.5805  1.2897  0.2549
 8817SOL    HW335041   0.189   6.054   1.445 -0.1781  0.4675 -0.1507
 8817SOL    MW435042   0.239   6.043   1.515 -0.0610  0.2472 -0.2682
 8818SOL     OW35043   4.589   2.932   4.222 -0.7957 -0.3590 -0.4651
 8818SOL    HW235044   4.596   3.012   4.170 -1.6767  0.3685  0.4951
 8818SOL    HW335045   4.542   2.871   4.166 -0.3534 -0.1298 -1.1033
 8818SOL    MW435046   4.584   2.935   4.208 -0.8536 -0.2328 -0.4226
 8819SOL     OW35047   1.423   3.021   4.866 -0.6082 -0.2942  0.4710
 8819SOL    HW235048   1.427   2.986   4.955  1.0097  2.1102  1.4451
 8819SOL    HW335049   1.412   3.115   4.877 -0.0968  0.1195 -1.8572
 8819SOL    MW435050   1.422   3.029   4.879 -0.3273  0.0776  0.2924
 8820SOL     OW35051   2.791   6.175   3.414  0.3072  0.3403 -0.0127
 8820SOL    HW235052   2.712   6.124   3.399  0.4878 -0.0774  0.4181
 8820SOL    HW335053   2.851   6.148   3.344  0.7339 -0.7377  0.7538
 8820SOL    MW435054   2.789   6.165   3.403  0.3873  0.1430  0.1452
 8821SOL     OW35055   4.327   1.081   6.383  0.0905 -0.3613 -0.4752
 8821SOL    HW235056   4.411   1.042   6.408 -0.8182 -1.6303  0.7396
 8821SOL    HW335057   4.308   1.044   6.296  0.1182 -1.2220 -0.1276
 8821SOL    MW435058   4.336   1.071   6.375 -0.0258 -0.6423 -0.2690
 8822SOL     OW35059   1.437   2.940   2.674 -0.1439  0.1022 -1.2707
 8822SOL    HW235060   1.396   3.006   2.730 -2.1933 -1.3147 -1.0041
 8822SOL    HW335061   1.364   2.894   2.633  0.9661 -4.1056  0.9211
 8822SOL    MW435062   1.422   2.943   2.676 -0.2678 -0.6399 -0.9464
 8823SOL     OW35063   1.375   1.220   5.197  0.1428  0.0200 -0.3803
 8823SOL    HW235064   1.348   1.143   5.247  1.7392 -1.2255 -1.3379
 8823SOL    HW335065   1.301   1.281   5.205 -1.4672 -1.8635 -0.1482
 8823SOL    MW435066   1.362   1.218   5.205  0.1410 -0.3928 -0.4760
 8824SOL     OW35067   2.129   5.813   0.712 -0.7889  0.6083 -0.7277
 8824SOL    HW235068   2.162   5.822   0.801  1.5895  1.6323 -1.6263
 8824SOL    HW335069   2.183   5.744   0.673  0.3234  2.2005 -2.1949
 8824SOL    MW435070   2.141   5.805   0.718 -0.3284  0.9535 -1.0398
 8825SOL     OW35071   4.895   2.786   3.069  0.2084 -0.7936 -0.2130
 8825SOL    HW235072   4.812   2.756   3.032  0.7653 -2.3008 -0.3127
 8825SOL    HW335073   4.912   2.869   3.024 -2.0784  0.4904  1.0902
 8825SOL    MW435074   4.886   2.793   3.058 -0.0198 -0.8230 -0.0542
 8826SOL     OW35075   4.599   5.301   5.697  0.4375 -0.0271  0.1695
 8826SOL    HW235076   4.633   5.383   5.661  1.0179 -0.1146  0.5129
 8826SOL    HW335077   4.649   5.287   5.777  0.0291 -0.4886  0.3534
 8826SOL    MW435078   4.610   5.310   5.703  0.4602 -0.0996  0.2391
 8827SOL     OW35079   5.518   0.941   4.432  0.2972 -0.4795 -0.5573
 8827SOL    HW235080   5.457   0.967   4.363 -0.0630  0.5229  0.1280
 8827SOL    HW335081   5.474   0.965   4.513  1.0025 -1.0555  0.0090
 8827SOL    MW435082   5.504   0.947   4.433  0.3427 -0.4233 -0.3921
 8828SOL     OW35083   1.920   4.263   0.338  0.5735  0.3678 -0.1282
 8828SOL    HW235084   1.946   4.341   0.387 -0.1180  0.7770 -0.3983
 8828SOL    HW335085   1.994   4.204   0.346  1.2956  1.2289 -0.2866
 8828SOL    MW435086   1.933   4.266   0.346  0.5775  0.5354 -0.1847
 8829SOL     OW35087   3.037   3.427   4.891 -0.4206  0.5346  0.2852
 8829SOL    HW235088   3.003   3.366   4.957  0.4133 -1.2631 -0.8689
 8829SOL    HW335089   3.131   3.430   4.909  0.0627 -1.1241 -1.6315
 8829SOL    MW435090   3.045   3.419   4.902 -0.2468  0.0786 -0.1199
 8830SOL     OW35091   6.347   1.342   4.417 -0.0982 -0.0631 -0.4172
 8830SOL    HW235092   6.360   1.302   4.503 -2.3146 -0.7002 -0.3169
 8830SOL    HW335093   6.253   1.363   4.414  0.2744  1.6390 -1.9800
 8830SOL    MW435094   6.336   1.340   4.428 -0.3415  0.0774 -0.6102
 8831SOL     OW35095   2.075   3.478   0.789 -0.1567 -0.0725  0.3207
 8831SOL    HW235096   1.993   3.491   0.836 -0.5577 -0.7046 -0.1791
 8831SOL    HW335097   2.142   3.516   0.846 -0.9274  1.6058  0.1446
 8831SOL    MW435098   2.073   3.484   0.803 -0.3113  0.0655  0.2315
 8832SOL     OW35099   2.993   2.909   3.746 -0.2930  0.7698  0.3026
 8832SOL    HW235100   2.981   3.000   3.776  0.9222  0.9014  0.4436
 8832SOL    HW335101   3.074   2.911   3.695  0.5401 -0.5000  1.4961
 8832SOL    MW435102   3.003   2.922   3.743 -0.0228  0.6196  0.4787
 8833SOL     OW35103   4.252   0.307   2.193 -0.0106  0.5740  0.1907
 8833SOL    HW235104   4.325   0.261   2.152 -1.1381 -1.4152  0.2783
 8833SOL    HW335105   4.292   0.382   2.237  1.9599 -0.4523  0.2353
 8833SOL    MW435106   4.267   0.311   2.193  0.1006  0.1761  0.2081
 8834SOL     OW35107   0.055   3.530   0.819 -0.5752  0.6731  0.2740
 8834SOL    HW235108   0.119   3.586   0.775  0.2126 -0.6487 -0.3064
 8834SOL    HW335109  -0.021   3.587   0.832  0.0475  1.7645 -0.6522
 8834SOL    MW435110   0.053   3.545   0.815 -0.3891  0.6427  0.0752
 8835SOL     OW35111   6.033   4.664   1.439  0.2273  0.2595 -0.0630
 8835SOL    HW235112   6.121   4.698   1.420  0.5432 -0.8416 -0.6943
 8835SOL    HW335113   6.050   4.577   1.475 -0.6366 -1.0962 -2.6649
 8835SOL    MW435114   6.047   4.657   1.441  0.1550 -0.0646 -0.4896
 8836SOL     OW35115   1.446   6.140   4.364  0.1590  0.1878 -0.0095
 8836SOL    HW235116   1.429   6.157   4.457  0.3102  0.5762 -0.0502
 8836SOL    HW335117   1.460   6.046   4.359 -0.1063  0.1303  0.3232
 8836SOL    MW435118   1.446   6.130   4.376  0.1440  0.2314  0.0290
 8837SOL     OW35119   5.149   2.105   6.196  0.2459 -0.8631  0.2152
 8837SOL    HW235120   5.162   2.128   6.104 -0.0643 -1.0802  0.1143
 8837SOL    HW335121   5.082   2.166   6.227  2.5193  1.3282  1.1651
 8837SOL    MW435122   5.142   2.116   6.188  0.5049 -0.6026  0.3272
 8838SOL     OW35123   4.464   5.905   0.161 -0.2402 -0.2078  0.5869
 8838SOL    HW235124   4.462   5.989   0.115  2.5350 -0.8264 -0.8309
 8838SOL    HW335125   4.378   5.867   0.144 -0.1145  0.5502 -2.3076
 8838SOL    MW435126   4.452   5.911   0.153  0.1425 -0.1894  0.0180
 8839SOL     OW35127   1.830   4.805   0.725  0.3676  0.3446 -0.9921
 8839SOL    HW235128   1.819   4.876   0.662 -0.5854  0.4468 -0.7159
 8839SOL    HW335129   1.765   4.822   0.793  1.5749  0.3936  0.1891
 8839SOL    MW435130   1.820   4.816   0.726  0.4011  0.3645 -0.7998
 8840SOL     OW35131   6.353   3.209   6.236 -0.1289  0.6276  0.0350
 8840SOL    HW235132   6.423   3.235   6.297 -0.0293  0.7729 -0.1413
 8840SOL    HW335133   6.339   3.116   6.255 -0.5740  0.8316  0.7533
 8840SOL    MW435134   6.361   3.200   6.247 -0.1745  0.6737  0.1065
 8841SOL     OW35135   2.490   4.444   5.563  1.0607 -0.6340 -0.4450
 8841SOL    HW235136   2.480   4.520   5.506 -0.3089 -1.3099 -1.1290
 8841SOL    HW335137   2.546   4.384   5.514  0.8584 -0.7224 -0.5660
 8841SOL    MW435138   2.496   4.446   5.549  0.8533 -0.7348 -0.5512
 8842SOL     OW35139   4.685   4.304   0.862  0.0361 -0.2219  0.0762
 8842SOL    HW235140   4.668   4.256   0.943 -3.6913  1.8782  0.7480
 8842SOL    HW335141   4.715   4.390   0.891  2.5965 -0.6315 -1.0183
 8842SOL    MW435142   4.687   4.309   0.876 -0.1179  0.0012  0.0204
 8843SOL     OW35143   0.210   1.002   5.941  0.4392  0.5099 -0.1046
 8843SOL    HW235144   0.174   0.924   5.984  1.3270 -0.0574 -0.3648
 8843SOL    HW335145   0.253   0.968   5.862 -0.0736  1.3898 -0.7776
 8843SOL    MW435146   0.211   0.987   5.936  0.4887  0.5511 -0.2277
 8844SOL     OW35147   5.710   1.693   3.547 -0.1404 -0.2836  0.9020
 8844SOL    HW235148   5.621   1.718   3.572  0.4115  3.4061 -0.2448
 8844SOL    HW335149   5.767   1.738   3.610  0.9584  1.6293 -1.3085
 8844SOL    MW435150   5.706   1.702   3.559  0.0774  0.4556  0.4590
 8845SOL     OW35151   1.639   2.095   3.605 -0.0628 -0.3893 -0.2708
 8845SOL    HW235152   1.610   2.055   3.687  0.3187  0.8717  0.5197
 8845SOL    HW335153   1.580   2.170   3.595 -1.5363 -1.7245 -2.3206
 8845SOL    MW435154   1.627   2.100   3.615 -0.2069 -0.3991 -0.4370
 8846SOL     OW35155   1.013   2.983   5.425 -0.5367 -0.3014 -0.1689
 8846SOL    HW235156   1.028   3.073   5.397  0.4936 -0.4750 -0.2315
 8846SOL    HW335157   1.048   2.929   5.353  2.8438 -0.7719  1.6180
 8846SOL    MW435158   1.020   2.987   5.412  0.0452 -0.3864  0.0586
 8847SOL     OW35159   4.452   1.143   2.069 -0.6469  0.0507 -0.5121
 8847SOL    HW235160   4.381   1.203   2.045 -0.3278  1.5357  1.9529
 8847SOL    HW335161   4.437   1.123   2.161  2.4614  0.9692  0.3054
 8847SOL    MW435162   4.441   1.148   2.078 -0.1947  0.3678 -0.0790
 8848SOL     OW35163   3.468   2.832   3.140  0.2495  0.2129 -0.1686
 8848SOL    HW235164   3.408   2.837   3.215  1.2085 -0.6604  0.6884
 8848SOL    HW335165   3.435   2.898   3.079 -0.6953  0.7871  0.9160
 8848SOL    MW435166   3.456   2.841   3.142  0.2513  0.1735  0.0876
 8849SOL     OW35167   3.647   5.970   2.714  0.0168  0.5949  0.7103
 8849SOL    HW235168   3.556   5.946   2.698  0.7560 -0.7626 -1.9722
 8849SOL    HW335169   3.667   5.932   2.800 -1.1316 -1.7123  0.0423
 8849SOL    MW435170   3.637   5.962   2.723 -0.0372  0.1114  0.2683
 8850SOL     OW35171   6.326   5.968   5.366  0.5281  0.1990  0.2130
 8850SOL    HW235172   6.304   6.004   5.280  0.9773 -0.0247 -0.0001
 8850SOL    HW335173   6.267   6.013   5.427  0.8864  1.1006 -0.0866
 8850SOL    MW435174   6.316   5.979   5.363  0.6347  0.2884  0.1454
 8851SOL     OW35175   3.011   0.673   2.062 -0.2413  0.2081  0.0041
 8851SOL    HW235176   3.096   0.633   2.045 -0.8204 -0.8304 -0.5681
 8851SOL    HW335177   2.980   0.630   2.143  0.0606  1.0767  0.5965
 8851SOL    MW435178   3.018   0.662   2.071 -0.2779  0.1857  0.0067
 8852SOL     OW35179   2.383   2.507   4.320 -0.3555 -0.4886 -0.1502
 8852SOL    HW235180   2.454   2.450   4.349 -1.2356 -0.6004  1.8765
 8852SOL    HW335181   2.308   2.482   4.373 -1.0117  1.9321  0.1806
 8852SOL    MW435182   2.383   2.496   4.331 -0.5582 -0.1840  0.1609
 8853SOL     OW35183   2.046   4.932   6.309 -0.1078  0.6916  0.2915
 8853SOL    HW235184   1.975   4.966   6.254  0.2612 -0.0792 -0.6783
 8853SOL    HW335185   2.065   5.003   6.370 -1.0962  1.2498 -0.0292
 8853SOL    MW435186   2.039   4.946   6.310 -0.1895  0.6635  0.1212
 8854SOL     OW35187   4.857   2.945   0.088 -0.5256 -0.3183  0.3777
 8854SOL    HW235188   4.773   2.942   0.043 -0.1074  0.2341 -0.4541
 8854SOL    HW335189   4.886   3.036   0.082  0.2911 -0.5659  0.3506
 8854SOL    MW435190   4.850   2.956   0.082 -0.3626 -0.2781  0.2644
 8855SOL     OW35191   1.398   0.664   0.725  0.4870 -0.0569 -0.0088
 8855SOL    HW235192   1.370   0.755   0.715  1.8488  0.6048  1.6623
 8855SOL    HW335193   1.448   0.663   0.806 -1.3119 -2.7492  1.2369
 8855SOL    MW435194   1.401   0.676   0.734  0.4293 -0.3248  0.3761
 8856SOL     OW35195   1.238   4.270   0.698  0.0777  0.1971 -0.4343
 8856SOL    HW235196   1.209   4.195   0.749  2.3057 -0.5216 -0.1153
 8856SOL    HW335197   1.273   4.232   0.617  3.7327  0.4771  0.8301
 8856SOL    MW435198   1.239   4.255   0.694  0.8539  0.1392 -0.2254
 8857SOL     OW35199   4.953   3.842   1.427  0.3051  0.4013  0.0910
 8857SOL    HW235200   5.039   3.839   1.468  0.3784 -0.1743 -0.0937
 8857SOL    HW335201   4.895   3.799   1.490  0.3569 -0.1894 -0.2609
 8857SOL    MW435202   4.956   3.836   1.440  0.3216  0.2474  0.0202
 8858SOL     OW35203   1.100   5.312   3.306 -0.3313 -0.8239 -0.8299
 8858SOL    HW235204   1.094   5.216   3.304 -0.2667 -0.8085 -2.0581
 8858SOL    HW335205   1.013   5.341   3.279 -0.4625 -0.5206 -0.1080
 8858SOL    MW435206   1.088   5.303   3.302 -0.3401 -0.7819 -0.8967
 8859SOL     OW35207   2.941   0.973   1.315 -0.0212 -0.4783 -0.2337
 8859SOL    HW235208   3.006   0.952   1.381  2.8943  1.1828 -2.3440
 8859SOL    HW335209   2.938   0.896   1.258  1.1277 -0.0759 -0.8581
 8859SOL    MW435210   2.949   0.960   1.316  0.5151 -0.2061 -0.5945
 8860SOL     OW35211   3.288   1.951   1.404  0.2795 -0.6154 -0.1076
 8860SOL    HW235212   3.262   1.906   1.484 -0.4746  0.8906  0.5354
 8860SOL    HW335213   3.207   1.958   1.353  0.6313 -1.0185 -0.7383
 8860SOL    MW435214   3.274   1.946   1.408  0.2264 -0.4699 -0.1060
 8861SOL     OW35215   0.708   3.248   2.763 -0.1047 -0.3046  0.2641
 8861SOL    HW235216   0.796   3.247   2.725  0.5651 -0.4423  1.7156
 8861SOL    HW335217   0.671   3.163   2.738 -0.5062  0.4337 -1.7820
 8861SOL    MW435218   0.715   3.236   2.755 -0.0693 -0.2253  0.1856
 8862SOL     OW35219   2.417   5.602   3.427  0.0907  0.0208  0.5825
 8862SOL    HW235220   2.381   5.572   3.510 -0.2561 -1.5577 -0.0948
 8862SOL    HW335221   2.392   5.534   3.364  2.0897  0.1123 -0.4132
 8862SOL    MW435222   2.409   5.589   3.430  0.3087 -0.1754  0.3618
 8863SOL     OW35223   4.871   1.507   4.099 -0.1903  0.2439 -0.0065
 8863SOL    HW235224   4.781   1.495   4.130 -0.1600 -0.9763 -0.3293
 8863SOL    HW335225   4.862   1.559   4.019 -0.7916 -1.2918 -0.9808
 8863SOL    MW435226   4.858   1.512   4.093 -0.2657 -0.1197 -0.1776
 8864SOL     OW35227   1.379   0.079   0.383 -0.3418  0.2401  0.4173
 8864SOL    HW235228   1.346   0.102   0.470 -1.5257 -0.8262  0.2766
 8864SOL    HW335229   1.413  -0.010   0.392  1.9405  1.0399  0.3740
 8864SOL    MW435230   1.379   0.071   0.396 -0.1969  0.2050  0.3930
 8865SOL     OW35231   4.912   3.035   0.515  0.0136 -0.1853  0.6244
 8865SOL    HW235232   4.874   3.048   0.602  0.6148 -1.2869  1.0634
 8865SOL    HW335233   4.943   2.945   0.515  0.9596  0.1135 -0.3687
 8865SOL    MW435234   4.911   3.025   0.527  0.2178 -0.2912  0.5513
 8866SOL     OW35235   5.612   1.017   1.729 -0.5508  0.4396 -0.2477
 8866SOL    HW235236   5.615   0.973   1.644  1.6661  0.0737 -0.0397
 8866SOL    HW335237   5.613   1.111   1.707  0.5058  0.3494 -0.6317
 8866SOL    MW435238   5.612   1.024   1.715 -0.1189  0.3794 -0.2709
 8867SOL     OW35239   4.895   4.974   3.047 -0.7831  0.0427 -0.3513
 8867SOL    HW235240   4.870   4.885   3.070 -0.2833 -0.3639 -1.3267
 8867SOL    HW335241   4.816   5.026   3.059 -1.1369 -0.5708 -0.0033
 8867SOL    MW435242   4.881   4.969   3.052 -0.7638 -0.0919 -0.4341
 8868SOL     OW35243   1.839   4.600   2.509 -0.1913  0.3077 -0.3891
 8868SOL    HW235244   1.843   4.647   2.426 -2.1237  0.0394 -0.6762
 8868SOL    HW335245   1.837   4.669   2.576 -1.8055  0.6584 -0.7510
 8868SOL    MW435246   1.839   4.615   2.507 -0.6592  0.3186 -0.4747
 8869SOL     OW35247   4.842   6.011   4.096  0.0376  0.2348  0.5950
 8869SOL    HW235248   4.881   6.071   4.032 -1.2166  0.3608 -0.0750
 8869SOL    HW335249   4.875   5.925   4.070 -2.9137 -0.2193 -2.3312
 8869SOL    MW435250   4.851   6.008   4.084 -0.5173  0.1915  0.1205
 8870SOL     OW35251   0.776   2.475   1.710  0.4313 -0.0141  0.3726
 8870SOL    HW235252   0.863   2.444   1.687  0.3432  1.2077 -1.8757
 8870SOL    HW335253   0.784   2.570   1.712 -0.7526  0.0972  0.5783
 8870SOL    MW435254   0.789   2.483   1.707  0.2635  0.1618  0.1031
 8871SOL     OW35255   1.246   4.238   2.694  0.1201  0.2949  0.1093
 8871SOL    HW235256   1.252   4.196   2.780  2.8532  0.4766  0.0866
 8871SOL    HW335257   1.152   4.247   2.679 -0.5299 -2.6244  1.6382
 8871SOL    MW435258   1.234   4.234   2.704  0.3950 -0.0663  0.3081
 8872SOL     OW35259   5.487   1.736   3.715 -0.4975  0.0955 -0.1395
 8872SOL    HW235260   5.434   1.681   3.772  0.8201 -0.7624  0.2901
 8872SOL    HW335261   5.495   1.819   3.762 -1.8332  0.4228 -0.4361
 8872SOL    MW435262   5.481   1.740   3.729 -0.4999  0.0255 -0.1220
 8873SOL     OW35263   1.758   3.462   3.799 -0.4441 -0.3386  0.2344
 8873SOL    HW235264   1.677   3.424   3.833 -0.2763 -1.8954 -1.0067
 8873SOL    HW335265   1.817   3.388   3.788  0.2478  0.4020 -1.3682
 8873SOL    MW435266   1.755   3.447   3.802 -0.3307 -0.4463 -0.1408
 8874SOL     OW35267   1.663   0.485   0.756 -0.8634  0.3300 -0.0473
 8874SOL    HW235268   1.574   0.451   0.743 -1.3116  0.3205  2.4678
 8874SOL    HW335269   1.650   0.564   0.809  0.4439  2.2202 -2.3959
 8874SOL    MW435270   1.649   0.491   0.762 -0.7501  0.5781 -0.0253
 8875SOL     OW35271   5.215   5.674   2.652  0.5408  0.5189  0.1044
 8875SOL    HW235272   5.147   5.729   2.692  0.8896  1.7790 -0.9751
 8875SOL    HW335273   5.174   5.588   2.644 -0.1167  0.6589  1.5744
 8875SOL    MW435274   5.200   5.670   2.656  0.5001  0.7037  0.1559
 8876SOL     OW35275   0.565   4.333   2.051 -0.0156  0.9758  0.0160
 8876SOL    HW235276   0.629   4.350   2.119 -0.3630 -1.5698  1.0931
 8876SOL    HW335277   0.585   4.244   2.019 -2.8460  0.0970  0.3327
 8876SOL    MW435278   0.576   4.323   2.055 -0.4349  0.5240  0.1999
 8877SOL     OW35279   0.658   3.684   2.639  0.3850  0.3279 -0.3068
 8877SOL    HW235280   0.587   3.630   2.673  1.2477 -0.6580 -0.0178
 8877SOL    HW335281   0.680   3.743   2.711 -0.2925  0.8049 -0.4825
 8877SOL    MW435282   0.651   3.685   2.653  0.4095  0.2607 -0.2918
 8878SOL     OW35283   2.524   2.489   3.829 -0.5512  0.5347 -0.3168
 8878SOL    HW235284   2.477   2.474   3.747  0.2148  0.1983 -0.7109
 8878SOL    HW335285   2.531   2.402   3.869  1.1007  0.2694 -1.0511
 8878SOL    MW435286   2.519   2.475   3.823 -0.2322  0.4553 -0.4656
 8879SOL     OW35287   0.244   0.970   5.625 -0.2812 -0.1117  0.2596
 8879SOL    HW235288   0.286   0.888   5.601  0.9426  0.6985 -0.4947
 8879SOL    HW335289   0.197   0.997   5.545  2.2683  1.6621 -0.7741
 8879SOL    MW435290   0.243   0.963   5.611  0.2167  0.2293  0.0237
 8880SOL     OW35291   1.236   0.467   2.350 -0.0607  0.0752  0.2910
 8880SOL    HW235292   1.269   0.379   2.334  0.4303  0.2359  0.3999
 8880SOL    HW335293   1.311   0.515   2.385 -0.3141  0.5461  0.2022
 8880SOL    MW435294   1.250   0.462   2.353 -0.0293  0.1585  0.2936
 8881NA      NA35295   6.041   1.501   3.259  0.0591  0.2686 -0.0533
 8882NA      NA35296   4.523   5.112   5.596 -0.1827 -0.3263 -0.8178
 8883NA      NA35297   5.760   5.814   0.935 -0.0259 -0.1781  0.7962
 8884NA      NA35298   4.139   4.422   5.565 -0.5786 -0.5716 -0.0213
 8885NA      NA35299   3.658   4.198   6.184  0.0267  0.2360 -0.2565
 8886NA      NA35300   0.502   6.269   1.743  0.5440 -0.0970  0.0758
 8887NA      NA35301   3.345   5.139   1.852 -0.1909  0.1738  0.2221
   6.42842   6.42842   6.42842
