A-SYNC WITH FASUDIL
35315
  121NASP     N    1   5.611   2.330   0.949 -0.2075 -0.7870  0.0151
  121NASP    H1    2   5.645   2.237   0.932 -0.4028 -1.1736  1.5920
  121NASP    H2    3   5.514   2.319   0.971 -0.4685  1.6991  0.4818
  121NASP    H3    4   5.657   2.365   1.033 -0.8942  1.9893 -0.6593
  121NASP    CA    5   5.624   2.419   0.829  0.7976  0.8897 -0.5487
  121NASP    HA    6   5.731   2.424   0.809  1.0732 -2.5305 -0.4951
  121NASP    CB    7   5.548   2.353   0.705  0.1025  0.5424  0.1243
  121NASP   HB1    8   5.617   2.275   0.672  0.7712  1.5325 -0.8802
  121NASP   HB2    9   5.543   2.428   0.627  0.4553 -0.8654 -1.3062
  121NASP    CG   10   5.412   2.296   0.730 -0.4472  0.2807  0.5375
  121NASP   OD1   11   5.350   2.262   0.627 -0.6985  0.3676 -0.0200
  121NASP   OD2   12   5.372   2.281   0.844  0.3747 -0.4625 -0.2413
  121NASP     C   13   5.575   2.559   0.864  0.3430 -0.1754 -0.4315
  121NASP     O   14   5.488   2.577   0.957 -0.4022 -0.0794 -0.0121
  122ASN      N   15   5.615   2.662   0.797 -0.2784 -0.1285  0.2265
  122ASN      H   16   5.666   2.641   0.713 -0.1530 -0.7389  0.4515
  122ASN     CA   17   5.585   2.805   0.831  0.0430  0.3103  0.3603
  122ASN     HA   18   5.588   2.810   0.939 -1.0010 -1.1035  0.4862
  122ASN     CB   19   5.701   2.897   0.779 -0.2395 -0.4092 -0.0109
  122ASN    HB1   20   5.683   3.001   0.804 -1.3509 -0.5664 -0.1005
  122ASN    HB2   21   5.698   2.899   0.670 -1.3955 -0.4797  0.0023
  122ASN     CG   22   5.839   2.868   0.832 -0.3227  0.3889 -0.1743
  122ASN    OD1   23   5.885   2.922   0.930  0.0990 -0.1425 -0.2234
  122ASN    ND2   24   5.904   2.780   0.762 -0.1063  0.4148  0.1559
  122ASN   HD21   25   5.994   2.747   0.795 -0.9972 -1.3417  0.9270
  122ASN   HD22   26   5.868   2.748   0.674  0.4966  0.5418 -0.1412
  122ASN      C   27   5.444   2.852   0.792 -0.0491  0.4165  0.0266
  122ASN      O   28   5.423   2.968   0.761 -0.0661  0.0701  0.7148
  123GLU      N   29   5.342   2.765   0.793  0.4754 -0.2709 -0.0118
  123GLU      H   30   5.338   2.675   0.839 -1.3866 -0.7284 -0.9632
  123GLU     CA   31   5.202   2.807   0.761  0.3456 -0.4183  0.5932
  123GLU     HA   32   5.193   2.911   0.792  1.6664 -0.2812  0.5467
  123GLU     CB   33   5.178   2.802   0.607 -0.2199  0.2130 -1.1897
  123GLU    HB1   34   5.256   2.868   0.569  0.3392 -0.6464 -1.5611
  123GLU    HB2   35   5.079   2.843   0.588 -0.2549  0.3576 -0.7200
  123GLU     CG   36   5.203   2.660   0.542 -0.0151  0.1479 -0.2824
  123GLU    HG1   37   5.119   2.595   0.564  1.0495 -0.1385  3.5995
  123GLU    HG2   38   5.287   2.605   0.583  0.8439  1.2639 -0.4766
  123GLU     CD   39   5.216   2.672   0.390  0.4474 -0.4954 -0.2366
  123GLU    OE1   40   5.156   2.763   0.328 -0.2302 -0.5190 -0.6525
  123GLU    OE2   41   5.280   2.583   0.328  0.4773  0.6857  0.7533
  123GLU      C   42   5.086   2.736   0.827  1.1988  0.8464  0.5105
  123GLU      O   43   5.094   2.613   0.846  0.2579  0.5003 -0.1855
  124ALA      N   44   4.983   2.803   0.861 -0.9464 -0.2212 -0.8666
  124ALA      H   45   4.969   2.899   0.835 -0.0926  0.8384  2.2195
  124ALA     CA   46   4.885   2.753   0.965  0.4544 -0.1559  0.4227
  124ALA     HA   47   4.944   2.713   1.047  0.1584  0.7942  1.1145
  124ALA     CB   48   4.808   2.878   1.011  0.5571  0.0403  0.5262
  124ALA    HB1   49   4.771   2.931   0.923  1.8575  1.2571  0.6791
  124ALA    HB2   50   4.878   2.940   1.067  0.7120  0.5222 -0.1916
  124ALA    HB3   51   4.717   2.852   1.065  0.3420  0.9446  0.6060
  124ALA      C   52   4.796   2.643   0.906  0.1344  0.2386 -0.1137
  124ALA      O   53   4.792   2.623   0.784  0.1480  0.5716 -0.2415
  125TYR      N   54   4.732   2.561   0.995  0.1294  0.1189  0.2241
  125TYR      H   55   4.736   2.594   1.091  1.4305 -0.4505  0.3840
  125TYR     CA   56   4.633   2.460   0.972 -0.8047 -0.2401 -0.1982
  125TYR     HA   57   4.589   2.457   0.873 -0.4206 -1.5904 -0.3407
  125TYR     CB   58   4.700   2.319   0.984  0.0199  0.4006 -0.3295
  125TYR    HB1   59   4.738   2.301   1.085 -1.1453 -2.0260 -0.2585
  125TYR    HB2   60   4.789   2.311   0.922  0.7408 -3.3244  0.9383
  125TYR     CG   61   4.611   2.196   0.943  0.3471  0.8091 -0.1325
  125TYR    CD1   62   4.619   2.156   0.805 -0.1921  0.8666 -0.5295
  125TYR    HD1   63   4.689   2.208   0.741  1.5475 -0.7280 -0.0207
  125TYR    CE1   64   4.531   2.047   0.764  0.2306  0.2365 -0.2352
  125TYR    HE1   65   4.528   2.009   0.664 -0.0661  1.1687 -0.5965
  125TYR     CZ   66   4.443   1.983   0.863  0.3958 -1.0615 -0.5812
  125TYR     OH   67   4.359   1.875   0.831  0.5097 -0.0314  0.5469
  125TYR     HH   68   4.382   1.854   0.741 -0.4556  0.7877  0.0854
  125TYR    CE2   69   4.444   2.028   0.999 -0.0329  0.1462 -0.0524
  125TYR    HE2   70   4.389   1.972   1.072 -1.9996  0.7706 -0.9920
  125TYR    CD2   71   4.522   2.137   1.036  0.4242 -0.7322 -0.9664
  125TYR    HD2   72   4.518   2.174   1.137 -0.0848  1.6877 -1.8189
  125TYR      C   73   4.513   2.471   1.066  0.7767  0.1322  0.5763
  125TYR      O   74   4.532   2.449   1.184  0.1220  0.6772  0.0460
  126GLU      N   75   4.391   2.503   1.012 -0.0839 -0.2192 -0.0359
  126GLU      H   76   4.405   2.531   0.916  0.4268  0.6080  0.2690
  126GLU     CA   77   4.269   2.536   1.081 -0.0395 -0.4405  0.0688
  126GLU     HA   78   4.284   2.600   1.168 -0.1210 -0.5219  0.1426
  126GLU     CB   79   4.184   2.634   0.997 -0.3052  0.4611 -0.3433
  126GLU    HB1   80   4.094   2.652   1.055  0.4443  0.6544  0.7960
  126GLU    HB2   81   4.158   2.592   0.900  2.8382 -0.4337 -0.9262
  126GLU     CG   82   4.258   2.770   0.999 -0.0394  0.4584  0.1778
  126GLU    HG1   83   4.355   2.757   0.952  0.6514 -1.4302  1.9804
  126GLU    HG2   84   4.266   2.811   1.100  0.0077 -0.3827  0.5253
  126GLU     CD   85   4.178   2.868   0.913 -0.5407 -0.7531  0.0950
  126GLU    OE1   86   4.060   2.843   0.879 -0.8731 -0.4890  0.4932
  126GLU    OE2   87   4.231   2.975   0.876  0.0747 -0.4698 -0.4182
  126GLU      C   88   4.202   2.409   1.140  0.2350  0.3883  0.4081
  126GLU      O   89   4.188   2.319   1.060  0.0911 -0.3871  0.3585
  127MET      N   90   4.176   2.404   1.270  0.4330 -0.4552  0.1325
  127MET      H   91   4.200   2.482   1.330  0.3068 -0.7710  0.5936
  127MET     CA   92   4.129   2.290   1.345  0.0269  0.2721 -0.3961
  127MET     HA   93   4.210   2.217   1.340 -1.1492 -1.0396 -1.5678
  127MET     CB   94   4.101   2.324   1.494  0.0640  0.1059 -0.3377
  127MET    HB1   95   4.028   2.405   1.498 -0.5155 -0.4648  1.6763
  127MET    HB2   96   4.201   2.352   1.527  0.2654 -0.8492 -0.1005
  127MET     CG   97   4.062   2.194   1.578  0.7323 -0.1018 -0.3490
  127MET    HG1   98   4.105   2.106   1.531  1.8059 -0.7713  1.7659
  127MET    HG2   99   3.955   2.174   1.581  0.4338  0.5795 -3.2304
  127MET     SD  100   4.117   2.200   1.754 -0.0401  0.1132 -0.0263
  127MET     CE  101   4.012   2.075   1.817 -0.1451  0.6788 -0.0879
  127MET    HE1  102   4.033   1.977   1.773 -2.7281  0.2270 -0.5054
  127MET    HE2  103   3.909   2.104   1.795 -0.2246  3.5637  3.1528
  127MET    HE3  104   4.015   2.083   1.926 -1.7348  0.2627  0.0164
  127MET      C  105   3.995   2.231   1.283  0.0333 -0.9778  0.3736
  127MET      O  106   3.891   2.300   1.282 -0.0619  1.0687 -0.5761
  128PRO      N  107   3.993   2.108   1.227 -0.4456  0.0699  0.4131
  128PRO     CD  108   4.114   2.029   1.196  0.1578 -0.0928  0.5877
  128PRO    HD1  109   4.140   1.967   1.282 -0.6953  1.7298  2.2395
  128PRO    HD2  110   4.196   2.095   1.168 -0.3688  0.2400 -0.2151
  128PRO     CG  111   4.070   1.938   1.078  0.2084  0.3446 -0.4747
  128PRO    HG1  112   4.121   1.843   1.095 -1.2791 -0.5100 -0.5123
  128PRO    HG2  113   4.098   1.979   0.981  1.8393  0.5400  0.0548
  128PRO     CB  114   3.917   1.915   1.092 -0.3143 -0.3929  0.1166
  128PRO    HB1  115   3.868   1.904   0.995  1.2228 -0.3990 -0.7052
  128PRO    HB2  116   3.900   1.829   1.157  0.7694 -0.4769  0.3094
  128PRO     CA  117   3.876   2.039   1.168 -0.6326 -0.6408 -0.3187
  128PRO     HA  118   3.837   2.097   1.084 -0.6471  0.4777  0.4407
  128PRO      C  119   3.757   2.017   1.268 -0.7085 -1.0289 -0.5508
  128PRO      O  120   3.776   2.024   1.391 -0.3229  0.2547  0.0182
  129SER      N  121   3.644   2.006   1.210  0.3613  0.3560  0.5417
  129SER      H  122   3.640   1.976   1.114  0.9204  1.1973  0.2463
  129SER     CA  123   3.509   2.014   1.276 -0.5230  0.1440 -0.1606
  129SER     HA  124   3.510   2.099   1.344 -3.1585  1.8688 -2.1220
  129SER     CB  125   3.396   2.040   1.178  0.2895 -0.2587 -0.2264
  129SER    HB1  126   3.305   2.067   1.232  1.6087  1.4481  1.2521
  129SER    HB2  127   3.379   1.952   1.115  0.4416  0.9285 -1.9931
  129SER     OG  128   3.427   2.147   1.093  0.2871  0.3085  0.3960
  129SER    HG1  129   3.353   2.151   1.032 -0.4647 -0.8968  1.1913
  129SER      C  130   3.492   1.888   1.362  0.1799 -0.1952  0.8730
  129SER      O  131   3.503   1.769   1.315 -0.0651 -0.7087 -0.3290
  130GLU      N  132   3.444   1.910   1.487 -0.6592 -0.8580 -0.0825
  130GLU      H  133   3.428   2.004   1.518 -0.9688 -0.7618 -0.5275
  130GLU     CA  134   3.414   1.803   1.582  0.3710  0.4374 -0.3557
  130GLU     HA  135   3.497   1.733   1.573  0.8502  1.0821 -1.0565
  130GLU     CB  136   3.400   1.842   1.735  0.6105 -0.2414 -0.2173
  130GLU    HB1  137   3.384   1.753   1.795 -1.2852 -0.0263 -0.3409
  130GLU    HB2  138   3.310   1.896   1.766 -0.1045 -0.8227 -1.2515
  130GLU     CG  139   3.528   1.912   1.786 -0.2334  0.3869  0.2020
  130GLU    HG1  140   3.533   2.012   1.743 -0.7051 -1.2382 -4.0712
  130GLU    HG2  141   3.614   1.852   1.758  0.0089 -0.2928  2.2094
  130GLU     CD  142   3.528   1.912   1.935  0.0263 -0.1748 -0.7882
  130GLU    OE1  143   3.519   1.800   1.994  0.6579 -0.5482 -0.3192
  130GLU    OE2  144   3.541   2.023   1.995  0.6557 -0.2295 -0.6149
  130GLU      C  145   3.305   1.715   1.531 -0.1471  0.4766 -0.5233
  130GLU      O  146   3.308   1.596   1.542 -0.3089 -0.2917  0.0475
  131GLU      N  147   3.200   1.778   1.467 -0.1913 -0.1706  0.3469
  131GLU      H  148   3.188   1.875   1.490 -1.6939 -0.3255  0.3200
  131GLU     CA  149   3.097   1.717   1.388 -0.0006  0.0370  0.1733
  131GLU     HA  150   3.063   1.627   1.440 -3.9679  2.5755  2.5104
  131GLU     CB  151   2.973   1.811   1.393 -0.3492  0.3194  1.1849
  131GLU    HB1  152   2.893   1.766   1.335  0.7275 -0.6805  0.4330
  131GLU    HB2  153   2.986   1.910   1.350 -0.5179  0.6746  1.9308
  131GLU     CG  154   2.932   1.821   1.536 -0.0850 -0.3025  0.4172
  131GLU    HG1  155   3.002   1.884   1.591 -1.0597  2.1410 -0.9857
  131GLU    HG2  156   2.918   1.724   1.583 -0.8204 -0.5014 -0.1922
  131GLU     CD  157   2.799   1.894   1.547  0.4420  0.6261 -0.4401
  131GLU    OE1  158   2.772   1.986   1.468  0.0248 -0.6255 -0.0462
  131GLU    OE2  159   2.719   1.870   1.640  0.3914  0.5170  0.2511
  131GLU      C  160   3.128   1.654   1.251  0.3355 -0.0685  0.7836
  131GLU      O  161   3.033   1.650   1.173 -0.0598 -0.1175  0.0630
  132GLY      N  162   3.253   1.612   1.219 -0.0990 -0.0668  0.0595
  132GLY      H  163   3.329   1.608   1.285  0.8783  0.3908 -1.0108
  132GLY     CA  164   3.302   1.549   1.090 -0.5903  0.1848  0.4076
  132GLY    HA1  165   3.409   1.536   1.103 -0.6599 -0.5479  0.2636
  132GLY    HA2  166   3.279   1.625   1.015 -2.9880 -0.9015 -0.0694
  132GLY      C  167   3.233   1.418   1.041  0.9856 -0.2169  0.6859
  132GLY      O  168   3.218   1.395   0.921 -0.0000  1.0235 -0.3670
  133TYR      N  169   3.172   1.351   1.136  0.0920 -0.2956  0.1748
  133TYR      H  170   3.201   1.362   1.232  0.5918 -1.8086  0.2302
  133TYR     CA  171   3.101   1.228   1.103  0.0363 -0.2218 -0.0507
  133TYR     HA  172   3.166   1.170   1.038  0.2814 -1.2111  1.0494
  133TYR     CB  173   3.057   1.157   1.230  0.6600  0.0858 -0.0457
  133TYR    HB1  174   3.137   1.153   1.303  0.6444 -1.4032 -0.0777
  133TYR    HB2  175   3.038   1.055   1.197  1.0369  0.5742 -1.8396
  133TYR     CG  176   2.929   1.214   1.305 -0.4832 -0.1132  0.1984
  133TYR    CD1  177   2.799   1.167   1.276  0.6536 -0.2275  0.1314
  133TYR    HD1  178   2.777   1.084   1.211 -0.6272 -1.1031  1.6315
  133TYR    CE1  179   2.690   1.235   1.340  0.6805 -0.0695  0.0382
  133TYR    HE1  180   2.588   1.200   1.326  1.4674 -2.8834  0.6806
  133TYR     CZ  181   2.708   1.338   1.435 -0.3508  0.4301 -0.3774
  133TYR     OH  182   2.601   1.396   1.497 -0.3906 -0.2730  0.0660
  133TYR     HH  183   2.626   1.455   1.568 -5.3459  1.0173  1.1258
  133TYR    CE2  184   2.840   1.375   1.468  0.3585  0.6256 -0.0840
  133TYR    HE2  185   2.850   1.446   1.549 -1.0431  2.3099 -1.3095
  133TYR    CD2  186   2.947   1.315   1.406 -0.1683 -0.1103 -0.4312
  133TYR    HD2  187   3.049   1.338   1.432  0.1938 -3.7371  2.0974
  133TYR      C  188   2.976   1.257   1.020 -0.0890  0.3141 -0.4048
  133TYR      O  189   2.935   1.172   0.941  0.0637  0.0187 -0.2487
  134GLN      N  190   2.915   1.375   1.023  0.6641  0.3047  0.1602
  134GLN      H  191   2.930   1.448   1.092 -0.7155  2.3395 -1.5662
  134GLN     CA  192   2.801   1.409   0.939  0.6575  0.1332 -0.0740
  134GLN     HA  193   2.740   1.319   0.929 -0.5030  1.0120 -1.3518
  134GLN     CB  194   2.707   1.516   1.000 -0.1165  0.1859 -0.4187
  134GLN    HB1  195   2.608   1.503   0.957 -0.5667 -2.4838  1.2094
  134GLN    HB2  196   2.752   1.611   0.971  0.4765 -0.5296 -1.9266
  134GLN     CG  197   2.683   1.506   1.147 -0.0410  0.0261  0.5374
  134GLN    HG1  198   2.773   1.496   1.207 -0.1517 -0.1879  0.6682
  134GLN    HG2  199   2.642   1.407   1.164  0.6742 -0.2925  0.4529
  134GLN     CD  200   2.592   1.614   1.203 -0.4578 -0.6420 -0.2336
  134GLN    OE1  201   2.607   1.736   1.178  0.2255  0.7052 -0.1048
  134GLN    NE2  202   2.510   1.581   1.291  0.3182 -0.0718  0.0395
  134GLN   HE21  203   2.487   1.649   1.361 -1.2217 -1.4911  0.9658
  134GLN   HE22  204   2.492   1.484   1.312  1.8848 -0.2788  0.5600
  134GLN      C  205   2.831   1.445   0.792 -0.2208  0.0746  0.5678
  134GLN      O  206   2.927   1.515   0.769 -0.1080 -0.5553 -0.3594
  135ASP      N  207   2.747   1.416   0.691 -0.0201 -0.0089 -0.1227
  135ASP      H  208   2.664   1.361   0.709  0.4331 -0.7243 -0.1751
  135ASP     CA  209   2.779   1.468   0.555 -0.2585 -0.5334  0.0811
  135ASP     HA  210   2.881   1.438   0.532 -0.2059 -0.1656 -0.1689
  135ASP     CB  211   2.703   1.383   0.461  0.9660 -0.1539  0.0313
  135ASP    HB1  212   2.749   1.285   0.473 -0.0837 -0.4607  1.8332
  135ASP    HB2  213   2.719   1.422   0.360 -3.1528 -0.9590 -1.0977
  135ASP     CG  214   2.555   1.371   0.481  0.2562 -0.0053  0.1160
  135ASP    OD1  215   2.516   1.280   0.559  0.1287 -0.2548  0.3979
  135ASP    OD2  216   2.471   1.440   0.419 -0.0239 -0.1885  0.4828
  135ASP      C  217   2.749   1.612   0.526  0.0911  0.6012 -0.0046
  135ASP      O  218   2.678   1.673   0.604  0.5432  0.5496  0.2350
  136TYR      N  219   2.802   1.670   0.418 -0.0675 -0.1466 -0.2072
  136TYR      H  220   2.849   1.617   0.345  0.5580 -1.1842  0.9157
  136TYR     CA  221   2.811   1.811   0.389  0.2810  0.7109 -0.1377
  136TYR     HA  222   2.719   1.850   0.432  0.3439 -0.7152  1.3941
  136TYR     CB  223   2.930   1.878   0.460 -0.2261 -0.2645 -0.3753
  136TYR    HB1  224   2.917   1.860   0.567  0.2618 -1.1462 -0.4603
  136TYR    HB2  225   2.920   1.985   0.441  0.0593 -0.2057 -0.1987
  136TYR     CG  226   3.065   1.823   0.415 -0.3144 -0.0805 -0.2911
  136TYR    CD1  227   3.141   1.883   0.305  0.7331  0.5383  0.1945
  136TYR    HD1  228   3.106   1.970   0.251  0.9125 -0.7069 -2.0867
  136TYR    CE1  229   3.272   1.830   0.272  0.0450 -0.1348  0.3107
  136TYR    HE1  230   3.326   1.880   0.193 -0.2491  1.0788  0.8556
  136TYR     CZ  231   3.323   1.714   0.332 -0.4090 -0.0110 -0.2349
  136TYR     OH  232   3.436   1.654   0.288 -0.4997  0.4243  0.2320
  136TYR     HH  233   3.462   1.682   0.200  0.2855 -0.9539  0.0080
  136TYR    CE2  234   3.251   1.656   0.436 -0.2597 -0.3535  0.4250
  136TYR    HE2  235   3.294   1.577   0.496 -1.2629 -0.5901  0.8708
  136TYR    CD2  236   3.126   1.712   0.473  0.3238 -0.4368 -0.2509
  136TYR    HD2  237   3.071   1.665   0.553 -0.8254  0.2803 -0.6022
  136TYR      C  238   2.816   1.844   0.240  0.0031  0.1955 -0.2643
  136TYR      O  239   2.867   1.763   0.165 -0.2619 -0.5826  0.0815
  137GLU      N  240   2.767   1.959   0.199 -0.5534  0.1586 -0.5399
  137GLU      H  241   2.721   2.020   0.265 -1.1078 -0.8713  0.0582
  137GLU     CA  242   2.777   1.999   0.059  0.6491 -0.4455 -0.5053
  137GLU     HA  243   2.782   1.905   0.003 -0.3749 -1.3491  0.8279
  137GLU     CB  244   2.652   2.079   0.027  0.0029  0.0460  0.1590
  137GLU    HB1  245   2.661   2.127  -0.070 -1.0638 -0.7324 -0.3490
  137GLU    HB2  246   2.637   2.159   0.099 -0.2822  0.4603 -0.3575
  137GLU     CG  247   2.524   1.991   0.012 -0.3382 -0.5334  0.5385
  137GLU    HG1  248   2.507   1.933   0.103 -3.2437 -0.3887  0.1954
  137GLU    HG2  249   2.529   1.919  -0.070  0.0253  1.5617 -1.3817
  137GLU     CD  250   2.394   2.077  -0.001  0.6123 -0.0903 -0.1819
  137GLU    OE1  251   2.286   2.012  -0.002  0.1057  0.2255  0.3385
  137GLU    OE2  252   2.398   2.201  -0.010  0.0692 -0.6714  0.2925
  137GLU      C  253   2.908   2.079   0.033 -0.4912  0.2969 -1.0224
  137GLU      O  254   2.934   2.167   0.115 -0.4696  0.2872 -0.0638
  138PRO      N  255   2.984   2.053  -0.072 -0.1337 -0.6821 -0.0055
  138PRO     CD  256   2.953   1.958  -0.173 -0.0267 -0.0436  0.7599
  138PRO    HD1  257   2.848   1.965  -0.202 -0.0356 -0.2988  0.7297
  138PRO    HD2  258   2.976   1.859  -0.133  0.4569  0.0701  0.7633
  138PRO     CG  259   3.048   1.984  -0.290  0.2158  0.2432  0.6566
  138PRO    HG1  260   2.997   2.063  -0.346 -0.8835  0.8294  2.3848
  138PRO    HG2  261   3.076   1.901  -0.355  1.0263 -2.1729  3.8352
  138PRO     CB  262   3.173   2.037  -0.215 -0.8294 -0.3323  0.5866
  138PRO    HB1  263   3.245   1.959  -0.191 -1.5558 -1.1179  0.2718
  138PRO    HB2  264   3.229   2.106  -0.277  2.4623 -0.9301  2.6229
  138PRO     CA  265   3.122   2.102  -0.094 -0.4649 -0.6738 -0.6162
  138PRO     HA  266   3.183   2.065  -0.011  0.2525  0.2109 -0.7293
  138PRO      C  267   3.137   2.253  -0.085  0.0130 -0.6030  0.5978
  138PRO      O  268   3.048   2.323  -0.138 -0.4841 -0.0453  0.3324
  139GLU      N  269   3.234   2.302  -0.005  0.1435 -0.1326  0.8940
  139GLU      H  270   3.299   2.230   0.026  1.3117 -0.6388 -2.2837
  139GLU     CA  271   3.270   2.441   0.012  0.5737  0.1910 -0.8247
  139GLU     HA  272   3.174   2.488   0.035  0.7041 -0.2067  0.6712
  139GLU     CB  273   3.346   2.474   0.143 -0.3387 -0.2671 -0.3166
  139GLU    HB1  274   3.314   2.404   0.219 -2.2345 -0.5267 -1.3048
  139GLU    HB2  275   3.333   2.580   0.167  2.5456  0.3134 -0.8714
  139GLU     CG  276   3.496   2.466   0.127  0.1816  0.1516  0.4805
  139GLU    HG1  277   3.527   2.550   0.066  2.1355  2.3971  4.2007
  139GLU    HG2  278   3.521   2.372   0.077  0.9244  1.2071 -1.2038
  139GLU     CD  279   3.586   2.484   0.245 -0.0554  0.2893 -0.2621
  139GLU    OE1  280   3.550   2.564   0.336  0.9121  0.0929  0.2446
  139GLU    OE2  281   3.698   2.423   0.243 -0.0485 -0.3253 -0.1511
  139GLU      C  282   3.329   2.508  -0.111  1.0674 -0.0039 -0.7028
  139GLU      O  283   3.390   2.443  -0.200  0.2428 -0.0351 -0.1285
  140CALA     N  284   3.307   2.642  -0.098 -0.1138 -0.1274  0.0448
  140CALA     H  285   3.257   2.670  -0.015 -3.6236  0.1454 -1.9789
  140CALA    CA  286   3.350   2.737  -0.207  0.2073  0.6567  0.4264
  140CALA    HA  287   3.386   2.676  -0.290 -2.1589  0.6146 -0.6346
  140CALA    CB  288   3.228   2.808  -0.269  0.9111 -0.4063  0.1388
  140CALA   HB1  289   3.197   2.887  -0.201  0.4938 -0.0426 -0.4665
  140CALA   HB2  290   3.153   2.735  -0.298 -0.4700 -0.6440  3.7699
  140CALA   HB3  291   3.261   2.864  -0.356  1.8435  0.1133  0.7987
  140CALA     C  292   3.467   2.828  -0.168  0.0479 -0.9769 -0.2056
  140CALA   OC1  293   3.493   2.868  -0.055  0.6870 -0.5717 -0.5764
  140CALA   OC2  294   3.541   2.866  -0.258 -0.1398 -0.6573 -0.2554
  141FAS      C  295   5.003   1.909   2.022  0.0441  0.7043  0.6659
  141FAS     C1  296   4.908   1.859   2.139  0.7102  0.1068 -0.1119
  141FAS      N  297   4.788   1.778   2.105 -0.1367  0.2838  0.4984
  141FAS     C2  298   4.682   1.839   2.012 -0.9030  0.1593  0.8437
  141FAS     C3  299   4.721   1.835   1.860 -0.6158 -0.4221 -0.7101
  141FAS     N1  300   4.861   1.857   1.834 -0.4490  0.2313  0.2492
  141FAS     C4  301   4.923   1.969   1.906  0.3970  0.0110 -0.5729
  141FAS      S  302   4.893   1.857   1.669  0.3254  0.1382 -0.0818
  141FAS      O  303   4.843   1.724   1.622  0.7870  0.1352  0.1789
  141FAS     O1  304   4.848   1.986   1.623  0.4876 -0.3942  0.1988
  141FAS     C5  305   5.072   1.834   1.682  0.7269 -0.0089  0.5897
  141FAS     C6  306   5.110   1.719   1.735 -0.1973  0.8015 -0.6214
  141FAS     C7  307   5.247   1.696   1.758  0.6345  0.2426  0.1625
  141FAS     C8  308   5.345   1.787   1.720  0.0756  0.5592 -0.5519
  141FAS     C9  309   5.303   1.904   1.657 -0.4135  0.0246 -1.2620
  141FAS    C10  310   5.168   1.924   1.625 -0.3299 -0.5705  0.1286
  141FAS    C11  311   5.142   2.044   1.563 -0.0518 -0.2539  0.5904
  141FAS    C12  312   5.246   2.125   1.528  0.2822 -0.3583  0.0228
  141FAS     N2  313   5.373   2.113   1.564  0.6177  0.1565  0.1157
  141FAS    C13  314   5.400   1.996   1.623 -0.4500  0.5190 -0.1435
  141FAS      H  315   5.057   1.825   1.978  1.7285  1.0543  1.9708
  141FAS     H1  316   5.081   1.980   2.052  0.5668  0.3964  0.0550
  141FAS     H2  317   4.872   1.948   2.191  4.9719  0.8968  1.8479
  141FAS     H3  318   4.968   1.805   2.212  2.3131  1.6925 -0.1940
  141FAS     H4  319   4.827   1.696   2.057  0.5116  0.5773  0.5126
  141FAS     H5  320   4.675   1.942   2.046  0.9411  1.4610 -2.2643
  141FAS     H6  321   4.583   1.795   2.020 -1.4829  0.4205 -2.8695
  141FAS     H7  322   4.654   1.909   1.816 -1.1022  1.2140  2.4950
  141FAS     H8  323   4.695   1.734   1.825 -0.9472 -1.0172  1.1462
  141FAS     H9  324   4.856   2.047   1.945  0.5314 -0.5601  0.8729
  141FAS    H10  325   4.988   2.025   1.838  1.3608  0.0503  0.3452
  141FAS    H11  326   5.035   1.647   1.766  1.0935  0.2028  1.3629
  141FAS    H12  327   5.284   1.605   1.804 -1.5892 -0.3050  0.9897
  141FAS    H13  328   5.447   1.775   1.756 -0.4880 -1.2914  0.5599
  141FAS    H14  329   5.039   2.074   1.550  0.3687  1.3919  0.7925
  141FAS    H15  330   5.218   2.218   1.479 -1.6318 -0.7966  0.2302
  141FAS    H16  331   5.506   1.990   1.648 -0.3366 -2.4046 -1.0521
  141FAS    H17  332   4.743   1.750   2.194  1.9923 -0.4209  1.4396
  142SOL     OW  333   0.678   2.528   0.123 -0.3075  0.3396  0.2099
  142SOL    HW2  334   0.596   2.530   0.173  0.6944  1.1091  1.9026
  142SOL    HW3  335   0.714   2.616   0.132  1.4723 -0.4032  0.8554
  142SOL    MW4  336   0.672   2.540   0.131  0.0595  0.3431  0.5184
  143SOL     OW  337   3.115   3.270   1.177 -0.1887 -0.6078  0.6498
  143SOL    HW2  338   3.190   3.213   1.194  0.5038  0.1516  0.2307
  143SOL    HW3  339   3.042   3.210   1.161  0.4736 -1.3722  0.4419
  143SOL    MW4  340   3.115   3.255   1.177 -0.0100 -0.6085  0.5671
  144SOL     OW  341   2.777   1.752   2.050 -0.5767 -0.7144  0.5052
  144SOL    HW2  342   2.804   1.831   2.003 -0.7494 -1.4687 -0.8991
  144SOL    HW3  343   2.817   1.762   2.137  0.6255  0.2253 -0.1157
  144SOL    MW4  344   2.786   1.764   2.055 -0.4409 -0.6899  0.2380
  145SOL     OW  345   4.653   5.281   2.569 -0.1726  0.4020  0.2002
  145SOL    HW2  346   4.745   5.266   2.592  0.7517 -0.2448 -3.3519
  145SOL    HW3  347   4.644   5.376   2.568  0.1918  0.4684  1.2939
  145SOL    MW4  348   4.664   5.291   2.572 -0.0026  0.3254 -0.1242
  146SOL     OW  349   2.687   3.715   0.368  0.0491  0.3798  0.1279
  146SOL    HW2  350   2.614   3.685   0.315  1.3624 -0.1229 -1.5156
  146SOL    HW3  351   2.724   3.636   0.406  0.8368  0.3739 -0.5977
  146SOL    MW4  352   2.683   3.701   0.366  0.3263  0.3127 -0.1847
  147SOL     OW  353   1.497   3.338   0.175 -0.3374 -0.3775 -0.2005
  147SOL    HW2  354   1.537   3.355   0.260 -1.1097 -2.0210  0.5453
  147SOL    HW3  355   1.569   3.348   0.112  0.2560  0.7951  0.6430
  147SOL    MW4  356   1.512   3.341   0.178 -0.3610 -0.4396  0.0092
  148SOL     OW  357   2.109   1.218   6.077  0.1300  0.3693  0.1286
  148SOL    HW2  358   2.067   1.146   6.125  0.1235  0.8515  0.8640
  148SOL    HW3  359   2.111   1.188   5.986  1.3450 -1.1266  0.6133
  148SOL    MW4  360   2.104   1.204   6.071  0.2895  0.2356  0.2895
  149SOL     OW  361   4.606   1.274   5.514  0.1430 -0.2236  0.5457
  149SOL    HW2  362   4.511   1.271   5.526  0.1805  1.1546  1.3903
  149SOL    HW3  363   4.618   1.287   5.420 -0.4030 -2.6793  0.0653
  149SOL    MW4  364   4.595   1.275   5.503  0.0759 -0.3657  0.5938
  150SOL     OW  365   5.285   3.117   5.020  0.2221 -0.2066 -0.7382
  150SOL    HW2  366   5.333   3.038   5.046 -1.0269 -0.4584  1.0507
  150SOL    HW3  367   5.226   3.086   4.951  0.2360 -0.6867 -0.5445
  150SOL    MW4  368   5.283   3.102   5.014  0.0592 -0.3032 -0.4767
  151SOL     OW  369   4.570   1.887   4.454 -0.3275  1.0828 -0.1223
  151SOL    HW2  370   4.619   1.806   4.436 -0.9755  0.6600 -0.0061
  151SOL    HW3  371   4.636   1.956   4.448  0.1923  0.5701 -0.4440
  151SOL    MW4  372   4.585   1.886   4.451 -0.3444  0.9594 -0.1494
  152SOL     OW  373   0.497   2.584   2.858 -0.2317  0.5818 -0.4403
  152SOL    HW2  374   0.480   2.590   2.764 -3.2743  0.2413  0.0121
  152SOL    HW3  375   0.520   2.674   2.883 -1.4862  1.1280 -1.1739
  152SOL    MW4  376   0.498   2.597   2.849 -0.7987  0.6090 -0.4774
  153SOL     OW  377   1.269   5.195   5.517 -0.5471  0.1860  0.0116
  153SOL    HW2  378   1.236   5.238   5.596 -0.5590 -0.9863  0.6751
  153SOL    HW3  379   1.190   5.158   5.476 -0.2472 -1.8045  1.0956
  153SOL    MW4  380   1.254   5.196   5.522 -0.5091 -0.2313  0.2421
  154SOL     OW  381   1.945   6.029   5.886 -0.4373  0.1306  0.5726
  154SOL    HW2  382   1.967   5.988   5.969  1.8932  1.1386  0.5215
  154SOL    HW3  383   1.979   5.968   5.820 -1.6633 -0.3280  0.3289
  154SOL    MW4  384   1.952   6.015   5.888 -0.2916  0.2031  0.5337
  155SOL     OW  385   5.550   0.212   2.694 -0.1561 -0.0372 -0.0233
  155SOL    HW2  386   5.590   0.275   2.634  1.3711 -2.1515 -1.3858
  155SOL    HW3  387   5.456   0.227   2.686  0.1501  2.2242 -0.0376
  155SOL    MW4  388   5.543   0.222   2.685  0.0858 -0.0178 -0.2049
  156SOL     OW  389   6.103   4.616   1.600  0.8212 -0.3198  0.2552
  156SOL    HW2  390   6.076   4.610   1.508  1.4914  2.0473 -0.1632
  156SOL    HW3  391   6.027   4.583   1.649 -0.4551  0.4980 -1.0840
  156SOL    MW4  392   6.089   4.611   1.594  0.7412  0.1004  0.0233
  157SOL     OW  393   2.959   0.784   3.863  0.1896 -0.0696  0.3678
  157SOL    HW2  394   2.998   0.700   3.885  1.1995 -0.0044 -1.0560
  157SOL    HW3  395   3.027   0.831   3.815 -1.5529  0.0643 -2.1590
  157SOL    MW4  396   2.973   0.779   3.860  0.0929 -0.0433 -0.1535
  158SOL     OW  397   5.070   5.519   0.103  0.0812 -0.1645 -0.2963
  158SOL    HW2  398   5.138   5.543   0.166  0.6944  2.8372 -1.9285
  158SOL    HW3  399   4.993   5.568   0.130 -0.1814 -0.2629 -0.8420
  158SOL    MW4  400   5.069   5.528   0.115  0.1275  0.2185 -0.5837
  159SOL     OW  401   4.329   3.184   4.267 -0.1114  0.0564 -0.6404
  159SOL    HW2  402   4.346   3.270   4.306 -0.9819  1.0775 -2.3793
  159SOL    HW3  403   4.400   3.172   4.205 -0.2127 -0.2942 -0.6870
  159SOL    MW4  404   4.340   3.194   4.264 -0.2396  0.1448 -0.8760
  160SOL     OW  405   0.494   3.218   2.000  0.6217  0.2424 -0.6470
  160SOL    HW2  406   0.437   3.251   2.070  0.1146 -1.4857 -0.1976
  160SOL    HW3  407   0.546   3.150   2.042  2.2410  0.9979 -1.3445
  160SOL    MW4  408   0.493   3.213   2.015  0.7684  0.1141 -0.6798
  161SOL     OW  409   3.887   4.146   0.255 -0.7754  0.4737  0.1120
  161SOL    HW2  410   3.855   4.065   0.216 -2.4656  1.1547  0.0095
  161SOL    HW3  411   3.893   4.207   0.182 -1.5214  1.0187  0.4867
  161SOL    MW4  412   3.884   4.143   0.240 -1.0968  0.6354  0.1479
  162SOL     OW  413   6.211   4.089   4.106 -0.4173 -0.4646  0.4288
  162SOL    HW2  414   6.299   4.120   4.085 -0.6423 -0.3880 -0.4571
  162SOL    HW3  415   6.218   4.050   4.193  0.3624  0.0654  0.6065
  162SOL    MW4  416   6.223   4.088   4.115 -0.3441 -0.3846  0.3354
  163SOL     OW  417   2.227   5.852   4.413 -0.3924  0.3781 -0.5852
  163SOL    HW2  418   2.187   5.801   4.343 -2.2442  0.6939  0.1952
  163SOL    HW3  419   2.255   5.933   4.371  1.8728 -0.8477 -1.6710
  163SOL    MW4  420   2.226   5.856   4.399 -0.3379  0.2581 -0.6255
  164SOL     OW  421   1.249   0.951   0.770 -0.4928 -0.3123 -0.4587
  164SOL    HW2  422   1.239   0.992   0.684  0.4783 -0.5607 -0.6925
  164SOL    HW3  423   1.182   0.882   0.771 -0.6485 -0.1715 -0.9310
  164SOL    MW4  424   1.239   0.947   0.759 -0.3852 -0.3265 -0.5519
  165SOL     OW  425   0.186   2.281   2.558  0.1313  0.0263 -0.1863
  165SOL    HW2  426   0.211   2.351   2.618  1.1521  0.6505 -1.2942
  165SOL    HW3  427   0.098   2.305   2.528 -0.6743 -0.6283  1.4858
  165SOL    MW4  428   0.177   2.293   2.562  0.1597  0.0223 -0.1118
  166SOL     OW  429   6.197   3.515   4.818 -0.7770 -0.2280  0.6190
  166SOL    HW2  430   6.212   3.522   4.912  0.0289 -0.4821  0.5176
  166SOL    HW3  431   6.252   3.442   4.790 -2.5730 -1.5335  0.2799
  166SOL    MW4  432   6.206   3.507   4.827 -0.9076 -0.4338  0.5609
  167SOL     OW  433   0.598   3.699   1.722  0.1776 -0.2528 -0.1861
  167SOL    HW2  434   0.621   3.624   1.777  0.7993  1.2565  1.7204
  167SOL    HW3  435   0.677   3.752   1.720 -0.8048  1.2649  0.0381
  167SOL    MW4  436   0.612   3.696   1.729  0.1300  0.1466  0.0950
  168SOL     OW  437   3.225   5.522   4.385  0.0805  0.4283  0.3903
  168SOL    HW2  438   3.172   5.448   4.413 -0.8316  0.7805 -0.3421
  168SOL    HW3  439   3.245   5.570   4.466  0.0690 -0.2195  0.7774
  168SOL    MW4  440   3.221   5.519   4.399 -0.0414  0.3893  0.3448
  169SOL     OW  441   4.592   4.974   3.025 -0.1649  0.1137  0.4096
  169SOL    HW2  442   4.592   4.933   2.939 -1.0050 -0.3843  0.6376
  169SOL    HW3  443   4.639   5.056   3.013 -2.5226  1.3414 -1.1244
  169SOL    MW4  444   4.598   4.979   3.012 -0.5868  0.2100  0.2373
  170SOL     OW  445   5.229   0.242   0.824  0.0365  0.0436  0.1099
  170SOL    HW2  446   5.246   0.330   0.858 -2.7960  0.4871  0.6238
  170SOL    HW3  447   5.314   0.211   0.793  1.6684  1.8560  2.4520
  170SOL    MW4  448   5.243   0.249   0.824 -0.1219  0.3412  0.4867
  171SOL     OW  449   1.871   3.041   2.203 -0.1743 -0.3441  0.0952
  171SOL    HW2  450   1.813   2.965   2.192  2.0917 -2.3232  0.7481
  171SOL    HW3  451   1.820   3.115   2.170 -1.5899 -2.5093 -3.2182
  171SOL    MW4  452   1.856   3.040   2.197 -0.0621 -0.8909 -0.2558
  172SOL     OW  453   4.727   0.795   0.712  0.5461 -0.5450  0.2217
  172SOL    HW2  454   4.701   0.780   0.803 -0.2274  1.8623  0.4662
  172SOL    HW3  455   4.821   0.816   0.717  0.2259  0.9168  0.6917
  172SOL    MW4  456   4.736   0.796   0.725  0.4018 -0.0345  0.3160
  173SOL     OW  457   5.267   0.398   3.835 -0.1560  0.6089 -0.0058
  173SOL    HW2  458   5.223   0.337   3.777 -0.1652 -0.9455  1.5634
  173SOL    HW3  459   5.213   0.400   3.914  0.0419  2.3817  0.1305
  173SOL    MW4  460   5.254   0.391   3.838 -0.1311  0.6377  0.2192
  174SOL     OW  461   3.062   3.397   1.437 -0.0746 -0.1129  0.3340
  174SOL    HW2  462   3.033   3.309   1.463 -1.8039 -0.1477 -1.4434
  174SOL    HW3  463   3.090   3.386   1.346  0.9971  0.9444  0.5094
  174SOL    MW4  464   3.062   3.384   1.428 -0.1613  0.0220  0.1226
  175SOL     OW  465   0.852   4.360   0.017  0.6183 -0.0923 -0.4758
  175SOL    HW2  466   0.849   4.422  -0.055 -2.8554 -0.9007 -1.2289
  175SOL    HW3  467   0.878   4.277  -0.023  1.4955  0.0459 -0.2104
  175SOL    MW4  468   0.855   4.357   0.002  0.2758 -0.1807 -0.5401
  176SOL     OW  469   0.785   4.713   4.673  0.4489  0.2111 -0.1786
  176SOL    HW2  470   0.843   4.730   4.747 -0.0103  1.8663 -0.1522
  176SOL    HW3  471   0.818   4.769   4.603  0.5660 -0.9546 -1.0744
  176SOL    MW4  472   0.797   4.723   4.674  0.4038  0.2757 -0.2933
  177SOL     OW  473   4.625   5.990   4.271  0.1387 -0.5673  0.2175
  177SOL    HW2  474   4.636   5.903   4.310 -0.8421 -0.6451  0.3576
  177SOL    HW3  475   4.714   6.024   4.261  0.6730 -2.2619 -1.4033
  177SOL    MW4  476   4.638   5.983   4.275  0.0798 -0.8011  0.0221
  178SOL     OW  477   0.730   1.611   3.664  0.4011  0.4876  0.2231
  178SOL    HW2  478   0.654   1.554   3.677  0.6344 -0.2084 -1.2069
  178SOL    HW3  479   0.776   1.609   3.748 -0.6342  0.1329  0.8033
  178SOL    MW4  480   0.726   1.603   3.677  0.2953  0.3490  0.1110
  179SOL     OW  481   1.867   4.955   0.082 -0.8022  0.4963 -0.4845
  179SOL    HW2  482   1.821   4.872   0.072 -0.4064  0.2278 -0.1274
  179SOL    HW3  483   1.802   5.015   0.120 -1.7354  0.9757 -2.6563
  179SOL    MW4  484   1.852   4.952   0.086 -0.8731  0.5241 -0.7240
  180SOL     OW  485   3.751   1.544   4.646 -0.7638 -0.0247 -0.1642
  180SOL    HW2  486   3.665   1.518   4.678 -0.3726  0.2240  1.1620
  180SOL    HW3  487   3.735   1.577   4.558 -1.6183 -2.4566 -0.9919
  180SOL    MW4  488   3.738   1.545   4.639 -0.8249 -0.3128 -0.0984
  181SOL     OW  489   5.533   6.046   6.186  0.0517  0.2390 -0.3892
  181SOL    HW2  490   5.460   6.096   6.223  0.1706  0.5286 -0.5496
  181SOL    HW3  491   5.490   5.980   6.130 -0.2310 -1.2515  1.4671
  181SOL    MW4  492   5.517   6.044   6.183  0.0301  0.0806 -0.1654
  182SOL     OW  493   2.345   3.629   4.868  0.2698  0.3387 -0.2468
  182SOL    HW2  494   2.436   3.651   4.848  1.0705 -2.1062  0.3715
  182SOL    HW3  495   2.338   3.637   4.964 -0.3240  0.9692 -0.3305
  182SOL    MW4  496   2.356   3.633   4.878  0.2971  0.0993 -0.1762
  183SOL     OW  497   1.385   2.014   0.194 -0.1413 -0.2233 -0.4414
  183SOL    HW2  498   1.393   1.926   0.159  0.8667  0.4854 -2.1319
  183SOL    HW3  499   1.455   2.063   0.151 -0.8154  1.4530  0.2865
  183SOL    MW4  500   1.395   2.009   0.183 -0.0972  0.0914 -0.5684
  184SOL     OW  501   5.863   3.335   4.811  0.8436 -0.0228 -0.5569
  184SOL    HW2  502   5.903   3.282   4.742  0.0183  1.6461 -2.4233
  184SOL    HW3  503   5.888   3.425   4.790 -0.1629  0.6250  0.8421
  184SOL    MW4  504   5.872   3.340   4.799  0.6019  0.2829 -0.6186
  185SOL     OW  505   4.244   2.314   0.774 -0.1369  0.1621 -0.8645
  185SOL    HW2  506   4.235   2.321   0.869  1.1967 -1.0236 -0.6130
  185SOL    HW3  507   4.161   2.346   0.739 -0.6963  0.4961  0.7002
  185SOL    MW4  508   4.232   2.319   0.782 -0.0347  0.0497 -0.6249
  186SOL     OW  509   3.281   5.727   2.622  0.1601 -0.9614 -0.1899
  186SOL    HW2  510   3.348   5.714   2.555  0.0118 -1.8388 -0.1813
  186SOL    HW3  511   3.314   5.679   2.698 -0.6986 -1.8172 -0.3395
  186SOL    MW4  512   3.295   5.719   2.623  0.0272 -1.1901 -0.2085
  187SOL     OW  513   2.450   4.100   2.421  0.1578 -0.0376 -0.0535
  187SOL    HW2  514   2.370   4.144   2.452 -0.0458 -0.8659  0.6415
  187SOL    HW3  515   2.458   4.127   2.330 -1.2811 -0.4437 -0.3276
  187SOL    MW4  516   2.441   4.109   2.413 -0.0589 -0.2005  0.0020
  188SOL     OW  517   2.962   2.187   1.511 -0.2180 -0.1031  0.0554
  188SOL    HW2  518   3.044   2.145   1.484 -0.6912 -2.0873  1.4583
  188SOL    HW3  519   2.897   2.117   1.505 -1.2363  0.6489  1.6779
  188SOL    MW4  520   2.964   2.172   1.507 -0.4148 -0.2657  0.4546
  189SOL     OW  521   0.065   5.304   6.428  0.2050  0.4331 -0.6692
  189SOL    HW2  522   0.127   5.371   6.401 -0.3248  0.1847 -2.6645
  189SOL    HW3  523  -0.017   5.328   6.385 -0.4207 -0.6116 -0.1067
  189SOL    MW4  524   0.063   5.316   6.419  0.0525  0.2625 -0.8583
  190SOL     OW  525   3.228   0.253   0.654 -0.0768  0.7952 -0.5122
  190SOL    HW2  526   3.232   0.174   0.600 -0.2419 -0.0898  0.7107
  190SOL    HW3  527   3.153   0.238   0.712  0.1762  1.6381  0.0482
  190SOL    MW4  528   3.219   0.240   0.655 -0.0652  0.7896 -0.2769
  191SOL     OW  529   3.936   1.054   1.256  0.7316  0.3251  0.7377
  191SOL    HW2  530   3.930   1.148   1.237  1.6760  0.5348  1.4437
  191SOL    HW3  531   3.984   1.017   1.182  2.0021  0.7072  1.3505
  191SOL    MW4  532   3.941   1.062   1.243  1.0238  0.4032  0.9117
  192SOL     OW  533   0.210   1.418   5.884  0.2567 -0.2067 -0.0730
  192SOL    HW2  534   0.212   1.322   5.874  0.2520 -0.7794  3.8567
  192SOL    HW3  535   0.121   1.437   5.911  0.7623  0.6224  1.0671
  192SOL    MW4  536   0.199   1.408   5.886  0.3228 -0.1728  0.5959
  193SOL     OW  537   2.658   3.367   0.074 -0.4968  0.3957 -0.3505
  193SOL    HW2  538   2.647   3.460   0.053  2.1605  0.5768 -1.2711
  193SOL    HW3  539   2.747   3.360   0.107 -0.1513 -2.0179 -1.5533
  193SOL    MW4  540   2.668   3.379   0.075 -0.1006  0.1011 -0.6307
  194SOL     OW  541   3.062   5.696   6.414 -0.1145 -0.8279 -0.2506
  194SOL    HW2  542   3.134   5.723   6.356 -0.7714  1.2122 -0.2235
  194SOL    HW3  543   3.070   5.754   6.490 -2.9434  0.9596 -1.1550
  194SOL    MW4  544   3.073   5.708   6.416 -0.5744 -0.3229 -0.3663
  195SOL     OW  545   2.319   4.626   2.717 -0.0568  0.2031  0.2060
  195SOL    HW2  546   2.410   4.599   2.726  0.0572  0.8841  1.1495
  195SOL    HW3  547   2.283   4.619   2.805 -0.8298  0.2720 -0.0983
  195SOL    MW4  548   2.326   4.622   2.730 -0.1437  0.3021  0.2903
  196SOL     OW  549   0.685   5.070   3.276  0.6091 -0.5554 -0.0013
  196SOL    HW2  550   0.746   5.023   3.333  0.1787 -1.5002 -0.2947
  196SOL    HW3  551   0.727   5.154   3.260 -0.5264  1.0891  4.1332
  196SOL    MW4  552   0.698   5.074   3.282  0.4025 -0.4631  0.5055
  197SOL     OW  553   1.295   3.165   3.191 -0.1719 -0.1279 -0.2247
  197SOL    HW2  554   1.382   3.192   3.164 -0.6238 -0.8761 -2.6797
  197SOL    HW3  555   1.266   3.105   3.122 -2.3122 -0.5262  0.9334
  197SOL    MW4  556   1.302   3.160   3.178 -0.5139 -0.2791 -0.3958
  198SOL     OW  557   5.605   0.916   3.212 -0.3752  0.5537 -0.0135
  198SOL    HW2  558   5.654   0.970   3.273 -0.9173 -0.1511  1.0735
  198SOL    HW3  559   5.671   0.886   3.149 -0.3286  3.8436 -1.7510
  198SOL    MW4  560   5.620   0.919   3.211 -0.4406  0.8948 -0.0993
  199SOL     OW  561   2.414   1.649   0.010  0.4824  0.6165  0.2453
  199SOL    HW2  562   2.394   1.559  -0.017  0.8844  0.6691 -0.2328
  199SOL    HW3  563   2.328   1.691   0.016  0.3047  0.2496  0.2990
  199SOL    MW4  564   2.400   1.642   0.007  0.5120  0.5751  0.1893
  200SOL     OW  565   5.789   5.898   0.065 -0.1649  0.0113 -0.4969
  200SOL    HW2  566   5.769   5.983   0.105 -0.3903 -0.3443  0.1628
  200SOL    HW3  567   5.856   5.860   0.121 -0.0199 -0.2252 -0.8254
  200SOL    MW4  568   5.795   5.904   0.078 -0.1755 -0.0668 -0.4532
  201SOL     OW  569   3.947   3.383   2.767 -0.3167  0.2491  0.2160
  201SOL    HW2  570   3.963   3.469   2.805 -0.2763  0.2836  0.1206
  201SOL    HW3  571   3.851   3.374   2.769 -0.2675 -0.1760  1.2643
  201SOL    MW4  572   3.936   3.393   2.772 -0.3049  0.1976  0.3418
  202SOL     OW  573   5.862   2.230   5.556 -0.1666 -0.9415  0.1463
  202SOL    HW2  574   5.915   2.157   5.588 -0.5465 -1.4472 -0.3612
  202SOL    HW3  575   5.872   2.227   5.460  2.9562  2.0230  0.1794
  202SOL    MW4  576   5.871   2.220   5.547  0.1953 -0.6171  0.0837
  203SOL     OW  577   0.308   2.830   3.368  0.5072  0.0310 -0.3434
  203SOL    HW2  578   0.217   2.858   3.372  0.0113 -1.6528  1.6819
  203SOL    HW3  579   0.358   2.907   3.395 -0.3895  0.6041 -0.2805
  203SOL    MW4  580   0.303   2.844   3.372  0.3234 -0.1155 -0.0678
  204SOL     OW  581   0.116   4.498   5.717 -0.3780  0.1066  0.2588
  204SOL    HW2  582   0.105   4.523   5.625 -0.5771 -0.7053  0.0471
  204SOL    HW3  583   0.111   4.580   5.765  0.4093  0.6294 -0.5067
  204SOL    MW4  584   0.114   4.512   5.711 -0.3004  0.0685  0.1299
  205SOL     OW  585   2.886   4.675   5.083  0.3824  0.1535  0.6609
  205SOL    HW2  586   2.969   4.716   5.106  0.8519 -0.0590 -0.5936
  205SOL    HW3  587   2.834   4.679   5.163  2.1575 -1.0866  1.9470
  205SOL    MW4  588   2.890   4.681   5.097  0.6785 -0.0381  0.6651
  206SOL     OW  589   0.473   6.284   6.286 -0.0854  1.1703 -0.6276
  206SOL    HW2  590   0.399   6.244   6.240  0.8396  0.0316 -1.1840
  206SOL    HW3  591   0.434   6.327   6.362 -1.3192  0.5985 -0.9131
  206SOL    MW4  592   0.458   6.284   6.290 -0.1262  0.9446 -0.7387
  207SOL     OW  593   4.585   4.723   2.846 -0.4869  0.1094 -0.3346
  207SOL    HW2  594   4.500   4.701   2.885  0.0211  0.1935  0.8706
  207SOL    HW3  595   4.646   4.659   2.883  0.3920  1.4620  0.6541
  207SOL    MW4  596   4.582   4.712   2.856 -0.3040  0.2990 -0.0452
  208SOL     OW  597   5.138   1.986   2.320  0.5409  0.1143 -0.2453
  208SOL    HW2  598   5.202   1.928   2.361  0.7642  0.7609  0.3548
  208SOL    HW3  599   5.059   1.975   2.373  0.4177 -0.0419 -0.4613
  208SOL    MW4  600   5.136   1.977   2.332  0.5541  0.1790 -0.1946
  209SOL     OW  601   0.614   3.757   0.499 -0.1815 -0.3024  0.4538
  209SOL    HW2  602   0.552   3.829   0.494 -1.0458 -1.1093 -1.0704
  209SOL    HW3  603   0.700   3.799   0.498 -0.6667  0.7030 -0.7511
  209SOL    MW4  604   0.617   3.772   0.498 -0.3596 -0.2762  0.0938
  210SOL     OW  605   5.035   1.339   4.593  0.2103 -0.2803  0.6635
  210SOL    HW2  606   5.037   1.432   4.616  0.7646 -0.3194  0.7755
  210SOL    HW3  607   5.034   1.338   4.497  0.9127 -0.1634  0.6471
  210SOL    MW4  608   5.035   1.351   4.583  0.3761 -0.2700  0.6761
  211SOL     OW  609   1.426   4.185   1.869  0.1787 -0.2702 -0.7198
  211SOL    HW2  610   1.496   4.221   1.814  0.3302 -0.2451 -0.5110
  211SOL    HW3  611   1.458   4.197   1.959  0.0072 -0.4692 -0.6329
  211SOL    MW4  612   1.440   4.192   1.874  0.1761 -0.2931 -0.6808
  212SOL     OW  613   4.417   2.648   5.125  0.1406 -0.5104  0.5927
  212SOL    HW2  614   4.372   2.564   5.128 -0.6479 -0.0745  2.7869
  212SOL    HW3  615   4.453   2.652   5.037 -0.8373 -2.5921  0.0199
  212SOL    MW4  616   4.416   2.637   5.114 -0.0925 -0.7275  0.8066
  213SOL     OW  617   2.623   0.910   5.605  0.2351 -0.1059  0.5670
  213SOL    HW2  618   2.668   0.965   5.670  1.3897 -0.6222  0.2324
  213SOL    HW3  619   2.536   0.949   5.596  1.3932  2.4792 -0.5647
  213SOL    MW4  620   2.618   0.923   5.612  0.5402  0.1671  0.3735
  214SOL     OW  621   6.295   3.478   2.901  0.3497 -0.2162  0.5236
  214SOL    HW2  622   6.285   3.444   2.990  0.4796 -0.9111  0.2795
  214SOL    HW3  623   6.299   3.400   2.846 -1.1573  0.2336 -0.2561
  214SOL    MW4  624   6.294   3.463   2.906  0.1680 -0.2485  0.3885
  215SOL     OW  625   4.651   2.978   4.643 -0.3784 -0.2187  0.0005
  215SOL    HW2  626   4.562   2.943   4.636 -0.5981  0.1067  0.9433
  215SOL    HW3  627   4.658   3.042   4.572 -0.4206 -1.2153 -0.9252
  215SOL    MW4  628   4.640   2.982   4.633 -0.4130 -0.3072  0.0028
  216SOL     OW  629   2.123   0.184   1.099 -0.2532 -0.3686 -0.0604
  216SOL    HW2  630   2.147   0.266   1.054  0.4826 -0.0310  0.9145
  216SOL    HW3  631   2.028   0.184   1.098 -0.5361  2.7536  3.6720
  216SOL    MW4  632   2.114   0.195   1.093 -0.1935  0.0879  0.5606
  217SOL     OW  633   4.881   4.759   1.158 -0.2417 -0.4265 -0.3171
  217SOL    HW2  634   4.953   4.705   1.128 -0.2150 -0.4373 -0.2349
  217SOL    HW3  635   4.811   4.696   1.180 -0.1144 -0.4470  0.0382
  217SOL    MW4  636   4.881   4.744   1.157 -0.2214 -0.4306 -0.2594
  218SOL     OW  637   4.432   2.165   5.298  0.1747  0.1969  0.0008
  218SOL    HW2  638   4.409   2.130   5.212 -1.5386 -0.1544  0.5713
  218SOL    HW3  639   4.480   2.094   5.341  1.0719  0.3888 -0.6561
  218SOL    MW4  640   4.435   2.151   5.293  0.0670  0.1758 -0.0106
  219SOL     OW  641   5.159   4.780   5.733 -0.0036  0.0560 -0.3125
  219SOL    HW2  642   5.163   4.853   5.670 -0.0977  1.8900  1.6924
  219SOL    HW3  643   5.132   4.705   5.680 -0.1947  1.5207 -2.4390
  219SOL    MW4  644   5.156   4.780   5.718 -0.0412  0.4912 -0.3285
  220SOL     OW  645   1.101   6.374   5.080  0.0412 -0.1543  0.0698
  220SOL    HW2  646   1.102   6.312   5.153  0.2645 -1.7249 -1.2070
  220SOL    HW3  647   1.072   6.322   5.005  0.5923  1.2107 -1.1412
  220SOL    MW4  648   1.097   6.359   5.080  0.1434 -0.1814 -0.2585
  221SOL     OW  649   0.710   3.104   2.269  0.3532  0.2175  0.5168
  221SOL    HW2  650   0.751   3.133   2.187 -1.0391  3.7291  0.8948
  221SOL    HW3  651   0.652   3.176   2.293 -0.7006 -1.5219  3.6574
  221SOL    MW4  652   0.708   3.117   2.261  0.0305  0.4513  0.9810
  222SOL     OW  653   0.417   3.501   4.322 -0.2919 -0.6736  0.0063
  222SOL    HW2  654   0.423   3.533   4.232  0.9985 -0.6352  0.0923
  222SOL    HW3  655   0.418   3.580   4.376  0.8184 -0.7517  0.1243
  222SOL    MW4  656   0.418   3.516   4.318  0.0248 -0.6789  0.0333
  223SOL     OW  657   4.570   1.398   2.244 -0.4843  0.0825 -0.1671
  223SOL    HW2  658   4.490   1.422   2.198 -2.0250 -0.0643  2.2235
  223SOL    HW3  659   4.625   1.356   2.178 -1.7464  1.4931 -2.2132
  223SOL    MW4  660   4.567   1.395   2.229 -0.8541  0.2493 -0.1216
  224SOL     OW  661   1.197   1.249   2.772 -0.3629 -0.3127  0.5378
  224SOL    HW2  662   1.120   1.195   2.754  0.4295 -1.4582  0.4701
  224SOL    HW3  663   1.182   1.329   2.723 -2.1651  0.0924  1.6271
  224SOL    MW4  664   1.185   1.252   2.763 -0.4961 -0.4104  0.6726
  225SOL     OW  665   4.063   0.615   3.520  0.2456  0.9263 -0.5604
  225SOL    HW2  666   4.055   0.534   3.470 -3.0664  1.7700 -1.6605
  225SOL    HW3  667   4.054   0.588   3.611  0.6168 -0.0498 -0.7973
  225SOL    MW4  668   4.061   0.601   3.525 -0.1424  0.9089 -0.7368
  226SOL     OW  669   4.329   3.684   2.175 -0.3003 -0.2585 -0.2713
  226SOL    HW2  670   4.271   3.608   2.168 -0.2379 -0.3461  0.1424
  226SOL    HW3  671   4.326   3.708   2.267  0.7240 -0.5845 -0.1317
  226SOL    MW4  672   4.321   3.677   2.186 -0.1569 -0.3131 -0.1983
  227SOL     OW  673   4.465   1.402   4.181 -0.4004  0.1195  0.6304
  227SOL    HW2  674   4.483   1.398   4.087 -1.9395 -1.0939  0.3646
  227SOL    HW3  675   4.461   1.496   4.200  1.1623  0.3954 -0.2431
  227SOL    MW4  676   4.467   1.414   4.171 -0.3973 -0.0042  0.4801
  228SOL     OW  677   4.178   4.104   3.038  0.1700 -0.2845 -0.2258
  228SOL    HW2  678   4.121   4.039   2.997 -1.2370  0.8566 -0.1334
  228SOL    HW3  679   4.218   4.058   3.112  0.2853 -1.4274 -0.9615
  228SOL    MW4  680   4.176   4.089   3.042 -0.0004 -0.2847 -0.3107
  229SOL     OW  681   0.236   2.046   4.338  0.3785  0.0843 -0.0040
  229SOL    HW2  682   0.265   2.136   4.355  0.8303 -0.0404 -0.1217
  229SOL    HW3  683   0.163   2.033   4.399  1.0855  0.1209  0.8734
  229SOL    MW4  684   0.230   2.056   4.348  0.5314  0.0727  0.0962
  230SOL     OW  685   5.725   4.831   1.316  0.5416  0.5626  0.0409
  230SOL    HW2  686   5.806   4.849   1.269  1.6304  0.8894  1.9225
  230SOL    HW3  687   5.749   4.765   1.380 -0.4358  1.3053  1.2193
  230SOL    MW4  688   5.739   4.825   1.318  0.5563  0.7037  0.4446
  231SOL     OW  689   3.480   2.358   3.410 -0.1048 -0.0317  0.0610
  231SOL    HW2  690   3.470   2.449   3.439 -0.2490 -0.4358  1.3399
  231SOL    HW3  691   3.395   2.318   3.427 -0.1862 -0.3191 -0.9174
  231SOL    MW4  692   3.468   2.364   3.416 -0.1346 -0.1229  0.1006
  232SOL     OW  693   2.809   1.613   4.926 -0.1319  0.7463  0.3162
  232SOL    HW2  694   2.715   1.608   4.907 -0.4246  1.8165  1.3402
  232SOL    HW3  695   2.851   1.595   4.842 -1.2217 -0.4853 -0.0157
  232SOL    MW4  696   2.802   1.610   4.912 -0.3143  0.7250  0.4075
  233SOL     OW  697   5.522   2.194   2.801  0.2410 -0.1308  0.1336
  233SOL    HW2  698   5.564   2.119   2.844  1.3854  0.9132  0.8984
  233SOL    HW3  699   5.452   2.219   2.861  0.1158 -0.3304  0.0734
  233SOL    MW4  700   5.519   2.187   2.815  0.3754 -0.0194  0.2266
  234SOL     OW  701   0.757   5.925   1.503 -0.2074  0.0249 -0.1939
  234SOL    HW2  702   0.662   5.936   1.515  0.0040  0.7510  0.8606
  234SOL    HW3  703   0.790   6.014   1.495  0.7860  0.0047  2.6642
  234SOL    MW4  704   0.749   5.938   1.503 -0.0484  0.1181  0.3223
  235SOL     OW  705   3.202   0.909   0.622  0.0880  0.4084  0.2663
  235SOL    HW2  706   3.180   0.925   0.531  2.4281 -1.1817 -0.6778
  235SOL    HW3  707   3.133   0.851   0.654 -0.4797  0.5733 -0.6425
  235SOL    MW4  708   3.190   0.903   0.615  0.3218  0.2204  0.0219
  236SOL     OW  709   5.214   2.755   4.956 -0.6400 -0.2562  0.0358
  236SOL    HW2  710   5.294   2.707   4.937  1.5257  1.4717  3.6272
  236SOL    HW3  711   5.218   2.832   4.900  1.1948  0.6292  1.2692
  236SOL    MW4  712   5.225   2.759   4.946 -0.1122  0.0886  0.6724
  237SOL     OW  713   0.238   0.373   0.137  0.3387  0.3697 -0.2775
  237SOL    HW2  714   0.329   0.346   0.151  0.8541  1.1535 -1.9701
  237SOL    HW3  715   0.187   0.295   0.161  1.3573  0.2082  1.5784
  237SOL    MW4  716   0.243   0.359   0.142  0.5411  0.4518 -0.2560
  238SOL     OW  717   3.211   4.517   6.119 -0.2621 -0.3547  0.0779
  238SOL    HW2  718   3.221   4.607   6.152  0.8150 -0.5542  0.3236
  238SOL    HW3  719   3.117   4.509   6.101 -0.3697  0.8414 -0.0124
  238SOL    MW4  720   3.200   4.528   6.121 -0.1342 -0.2232  0.0984
  239SOL     OW  721   0.085   4.834   2.136  0.5575  0.2082 -0.3315
  239SOL    HW2  722   0.149   4.794   2.077  0.2766  1.0430 -1.2182
  239SOL    HW3  723   0.103   4.928   2.132  1.2990  0.1986  1.8389
  239SOL    MW4  724   0.096   4.841   2.128  0.6183  0.3170 -0.1621
  240SOL     OW  725   0.438   2.231   5.537  0.0026 -0.0715  0.2677
  240SOL    HW2  726   0.436   2.208   5.630 -1.1269  0.5486  0.4223
  240SOL    HW3  727   0.446   2.326   5.536  0.0210 -0.0759 -0.2647
  240SOL    MW4  728   0.439   2.240   5.549 -0.1440  0.0098  0.2179
  241SOL     OW  729   2.505   2.062   3.250 -0.4306  0.7002 -0.4135
  241SOL    HW2  730   2.511   2.157   3.239  0.8114  1.0105  2.1748
  241SOL    HW3  731   2.595   2.034   3.266 -1.1814 -0.2966  2.6464
  241SOL    MW4  732   2.518   2.071   3.250 -0.3658  0.6096  0.3317
  242SOL     OW  733   3.909   6.382   1.988  0.0990  0.2649  0.0327
  242SOL    HW2  734   3.936   6.459   2.038  1.6830  0.0401 -0.4049
  242SOL    HW3  735   3.950   6.393   1.902  0.2157 -0.9571 -0.0924
  242SOL    MW4  736   3.918   6.393   1.984  0.3233  0.0740 -0.0415
  243SOL     OW  737   0.852   5.603   6.184  0.0281  0.0974 -0.6361
  243SOL    HW2  738   0.779   5.653   6.149 -0.3476 -1.3705 -2.0432
  243SOL    HW3  739   0.914   5.596   6.112  0.7721 -0.1576  0.0125
  243SOL    MW4  740   0.850   5.609   6.170  0.0767 -0.1299 -0.7362
  244SOL     OW  741   3.515   1.980   3.762 -0.1575 -0.2766 -0.4252
  244SOL    HW2  742   3.588   1.921   3.743  0.3313  0.4855 -0.9415
  244SOL    HW3  743   3.461   1.978   3.684 -0.8669 -1.0723  0.0689
  244SOL    MW4  744   3.517   1.972   3.749 -0.1866 -0.2811 -0.4281
  245SOL     OW  745   2.634   0.435   0.530 -0.1452 -0.0441  0.0565
  245SOL    HW2  746   2.706   0.392   0.484 -0.7254  0.9671 -1.9178
  245SOL    HW3  747   2.674   0.512   0.570 -0.3414  1.5558 -2.5906
  245SOL    MW4  748   2.649   0.440   0.529 -0.2476  0.3004 -0.5533
  246SOL     OW  749   4.850   4.054   6.039 -0.4065  0.2187 -0.5147
  246SOL    HW2  750   4.868   4.138   5.997  1.0643 -0.7989 -2.0815
  246SOL    HW3  751   4.933   4.031   6.082 -1.5954  0.7797  2.2727
  246SOL    MW4  752   4.863   4.062   6.039 -0.3693  0.1584 -0.3537
  247SOL     OW  753   5.990   0.541   1.135  0.2905 -0.6676  0.0200
  247SOL    HW2  754   6.027   0.463   1.095 -1.1614 -1.2354 -0.2646
  247SOL    HW3  755   5.956   0.592   1.061  0.6823 -0.0589  0.2536
  247SOL    MW4  756   5.990   0.538   1.120  0.1506 -0.6622  0.0133
  248SOL     OW  757   2.563   5.618   3.475  0.3987 -0.5317  0.1120
  248SOL    HW2  758   2.585   5.649   3.387 -0.0135 -0.8200 -0.0982
  248SOL    HW3  759   2.601   5.531   3.480 -0.6245 -1.0154 -0.2373
  248SOL    MW4  760   2.571   5.611   3.464  0.2093 -0.6335  0.0382
  249SOL     OW  761   6.264   4.803   5.392 -0.0275 -0.3219  0.8734
  249SOL    HW2  762   6.229   4.886   5.361  1.4415  0.2545  0.6822
  249SOL    HW3  763   6.282   4.753   5.313  0.8180 -0.0750  0.8986
  249SOL    MW4  764   6.262   4.807   5.378  0.2779 -0.2133  0.8515
  250SOL     OW  765   0.904   0.189   2.527 -0.4066 -0.2980 -0.0449
  250SOL    HW2  766   0.871   0.230   2.447 -0.4168  0.5343  0.3753
  250SOL    HW3  767   0.828   0.147   2.566 -0.7497  0.6345  0.3285
  250SOL    MW4  768   0.890   0.189   2.522 -0.4532 -0.0652  0.0598
  251SOL     OW  769   1.804   3.921   3.265  0.2950 -0.2170  0.0842
  251SOL    HW2  770   1.788   3.833   3.230 -0.4022 -1.0136  2.2325
  251SOL    HW3  771   1.857   3.906   3.344 -0.4617  1.2167  0.9053
  251SOL    MW4  772   1.809   3.907   3.271  0.1032 -0.1329  0.4760
  252SOL     OW  773   4.566   3.001   6.424  0.5969 -0.3892 -0.1230
  252SOL    HW2  774   4.474   3.029   6.425  0.7759  0.2962 -0.9922
  252SOL    HW3  775   4.583   2.968   6.512 -0.0413  0.9906  0.5442
  252SOL    MW4  776   4.556   3.001   6.435  0.5363 -0.1167 -0.1497
  253SOL     OW  777   2.979   4.168   6.374 -0.4577  0.2012  0.3980
  253SOL    HW2  778   3.043   4.189   6.307 -0.8381 -0.4606 -0.1861
  253SOL    HW3  779   2.919   4.241   6.374  0.2514  0.8011  0.9072
  253SOL    MW4  780   2.980   4.180   6.365 -0.4143  0.1931  0.3882
  254SOL     OW  781   0.464   5.512   2.292  0.4101  0.2301  0.1710
  254SOL    HW2  782   0.400   5.443   2.311 -0.1629 -0.0985 -2.4709
  254SOL    HW3  783   0.544   5.483   2.334 -0.3941 -0.9297  0.9634
  254SOL    MW4  784   0.466   5.499   2.300  0.2284  0.0337 -0.0730
  255SOL     OW  785   3.818   4.774   0.134 -0.3004  0.1246 -0.0901
  255SOL    HW2  786   3.776   4.781   0.220  1.7884  0.4188  0.9724
  255SOL    HW3  787   3.809   4.682   0.111 -1.4569  0.1657  0.1017
  255SOL    MW4  788   3.811   4.763   0.142 -0.1774  0.1688  0.0754
  256SOL     OW  789   3.402   2.269   1.497 -0.1531  0.5011 -0.2250
  256SOL    HW2  790   3.392   2.300   1.407  0.1701 -0.0719 -0.4661
  256SOL    HW3  791   3.418   2.349   1.548  0.3351  0.7687 -0.7807
  256SOL    MW4  792   3.403   2.284   1.492 -0.0461  0.4608 -0.3301
  257SOL     OW  793   1.667   5.871   5.154 -0.3315  0.3890 -0.1265
  257SOL    HW2  794   1.627   5.954   5.178 -0.4835  0.3698 -0.3073
  257SOL    HW3  795   1.730   5.894   5.086  0.7108  0.5642  0.8599
  257SOL    MW4  796   1.670   5.885   5.148 -0.2141  0.4096 -0.0202
  258SOL     OW  797   0.955   3.391   0.870 -0.3054  0.1804  0.1644
  258SOL    HW2  798   0.966   3.480   0.901  0.8537  0.0500  0.1429
  258SOL    HW3  799   1.042   3.364   0.841 -0.0815 -1.8232  2.4489
  258SOL    MW4  800   0.968   3.399   0.870 -0.1229 -0.1012  0.4630
  259SOL     OW  801   3.698   5.912   4.539 -0.1550  0.5285  0.1426
  259SOL    HW2  802   3.644   5.835   4.521 -0.2229  0.2609  1.3922
  259SOL    HW3  803   3.771   5.906   4.478  0.7732 -1.4914  1.3738
  259SOL    MW4  804   3.701   5.901   4.529 -0.0415  0.2267  0.4699
  260SOL     OW  805   2.286   2.089   2.698  0.6381 -0.2084 -0.3049
  260SOL    HW2  806   2.273   1.994   2.699 -0.4286 -0.0819  1.3943
  260SOL    HW3  807   2.215   2.122   2.641  1.3180 -0.4413 -1.3111
  260SOL    MW4  808   2.275   2.081   2.691  0.5870 -0.2224 -0.2135
  261SOL     OW  809   5.392   2.983   3.785  0.2712  0.6934 -0.0874
  261SOL    HW2  810   5.450   2.964   3.859 -0.4577  2.0592  0.8833
  261SOL    HW3  811   5.346   3.063   3.811 -1.3203  0.1991 -1.2582
  261SOL    MW4  812   5.394   2.991   3.798 -0.0349  0.8084 -0.1138
  262SOL     OW  813   0.245   0.143   4.921  0.5701 -0.1945  0.5850
  262SOL    HW2  814   0.194   0.216   4.956 -0.8978  1.1729 -3.6597
  262SOL    HW3  815   0.185   0.068   4.924 -0.5141  0.5272 -1.0173
  262SOL    MW4  816   0.230   0.143   4.926  0.2334  0.0812 -0.1864
  263SOL     OW  817   3.734   2.533   4.395 -0.0892  0.0087 -0.0396
  263SOL    HW2  818   3.701   2.447   4.421 -2.3050  0.8182  0.0196
  263SOL    HW3  819   3.784   2.517   4.315  0.3352 -1.4446  0.4866
  263SOL    MW4  820   3.736   2.519   4.388 -0.3256 -0.0762  0.0376
  264SOL     OW  821   1.687   1.205   4.277  0.5125 -0.1788 -0.1753
  264SOL    HW2  822   1.646   1.190   4.362  0.0969  1.0839 -0.1448
  264SOL    HW3  823   1.717   1.296   4.280  0.4580 -0.1039 -1.3940
  264SOL    MW4  824   1.686   1.215   4.289  0.4505 -0.0023 -0.3321
  265SOL     OW  825   3.502   0.394   3.152  0.5054 -0.1618  0.3780
  265SOL    HW2  826   3.453   0.476   3.161  0.0085 -0.4420  0.2521
  265SOL    HW3  827   3.524   0.390   3.059 -1.3998 -1.2469 -0.0780
  265SOL    MW4  828   3.498   0.405   3.141  0.1885 -0.3419  0.3012
  266SOL     OW  829   2.265   0.339   6.222 -0.0005  0.4608 -0.0961
  266SOL    HW2  830   2.239   0.430   6.240 -2.5276 -0.4852  1.4844
  266SOL    HW3  831   2.309   0.311   6.302  3.1053  0.9523 -1.4915
  266SOL    MW4  832   2.267   0.347   6.235  0.0759  0.4008 -0.0717
  267SOL     OW  833   3.169   3.262   3.192  0.2877 -0.9053 -0.0485
  267SOL    HW2  834   3.263   3.283   3.197  0.1303 -0.1103 -0.2106
  267SOL    HW3  835   3.153   3.248   3.098 -0.1564  1.0230 -0.3013
  267SOL    MW4  836   3.179   3.263   3.180  0.2083 -0.5460 -0.1032
  268SOL     OW  837   3.283   4.172   2.714 -0.2425  0.0006 -0.1372
  268SOL    HW2  838   3.376   4.164   2.693  0.0853 -0.4630  1.3472
  268SOL    HW3  839   3.280   4.240   2.782 -0.7700 -1.0466  0.9338
  268SOL    MW4  840   3.295   4.180   2.720 -0.2689 -0.1987  0.1999
  269SOL     OW  841   6.405   5.067   5.794 -0.3041 -0.3864  0.3465
  269SOL    HW2  842   6.479   5.074   5.733  0.0804  0.1974  0.8696
  269SOL    HW3  843   6.334   5.030   5.741 -0.4044  1.3535 -0.8273
  269SOL    MW4  844   6.406   5.063   5.779 -0.2666 -0.0798  0.2606
  270SOL     OW  845   2.086   4.054   5.281 -0.2453 -0.0995 -0.1366
  270SOL    HW2  846   2.100   4.143   5.248  1.6292  0.2468  1.4245
  270SOL    HW3  847   2.148   4.045   5.354 -1.0854 -2.3525  0.3846
  270SOL    MW4  848   2.096   4.065   5.286 -0.1088 -0.3510  0.1381
  271SOL     OW  849   2.365   2.589   0.738  0.4565 -0.2974  0.3028
  271SOL    HW2  850   2.346   2.591   0.832  0.7384 -1.7360  0.4114
  271SOL    HW3  851   2.372   2.496   0.717  2.5261  0.0352 -0.7265
  271SOL    MW4  852   2.363   2.577   0.748  0.7668 -0.4433  0.1813
  272SOL     OW  853   5.155   1.534   2.669 -0.7968 -0.2759  0.6065
  272SOL    HW2  854   5.160   1.445   2.704  0.8802 -1.2238 -1.7047
  272SOL    HW3  855   5.245   1.566   2.673 -1.2293  0.9787  0.5939
  272SOL    MW4  856   5.168   1.526   2.674 -0.6326 -0.2354  0.2999
  273SOL     OW  857   2.766   3.193   0.882 -0.2024 -0.2007  0.0241
  273SOL    HW2  858   2.809   3.195   0.796 -0.1244 -0.8713  0.0412
  273SOL    HW3  859   2.837   3.177   0.944 -0.3030 -0.0421  0.1812
  273SOL    MW4  860   2.781   3.191   0.879 -0.2054 -0.2683  0.0471
  274SOL     OW  861   0.187   3.861   0.835 -0.1135 -0.0271  0.0078
  274SOL    HW2  862   0.192   3.889   0.744 -2.5000  0.9431  0.1158
  274SOL    HW3  863   0.232   3.930   0.885 -0.1210  0.2078 -0.3107
  274SOL    MW4  864   0.193   3.874   0.830 -0.4293  0.1319 -0.0200
  275SOL     OW  865   2.117   1.963   2.378  0.8215 -0.0050 -0.4526
  275SOL    HW2  866   2.071   1.918   2.306 -0.8364  1.5949 -0.4787
  275SOL    HW3  867   2.050   1.975   2.445  0.6450  3.7762 -1.0980
  275SOL    MW4  868   2.102   1.958   2.377  0.5795  0.7050 -0.5412
  276SOL     OW  869   3.832   3.919   2.282 -0.1348 -0.2157  0.0700
  276SOL    HW2  870   3.870   3.959   2.204 -0.5890  0.0470 -0.0226
  276SOL    HW3  871   3.850   3.825   2.273  1.4641  0.0077  0.5766
  276SOL    MW4  872   3.839   3.912   2.271  0.0162 -0.1516  0.1246
  277SOL     OW  873   4.026   4.617   5.290  0.0347  0.2866  0.1211
  277SOL    HW2  874   3.986   4.606   5.376 -0.7754 -0.5474 -0.3376
  277SOL    HW3  875   4.029   4.712   5.277 -0.8679  0.3930  0.6034
  277SOL    MW4  876   4.021   4.628   5.299 -0.1913  0.1906  0.1242
  278SOL     OW  877   1.666   2.939   5.830  0.4295 -0.2729 -0.0748
  278SOL    HW2  878   1.608   2.940   5.905 -0.4456  1.0840 -0.7384
  278SOL    HW3  879   1.678   2.846   5.810  1.1054 -0.6913  2.0204
  278SOL    MW4  880   1.660   2.926   5.837  0.4032 -0.1491  0.1141
  279SOL     OW  881   4.869   1.211   5.709  0.2334 -0.2117  0.8408
  279SOL    HW2  882   4.882   1.125   5.750  1.1293  0.2707  1.5987
  279SOL    HW3  883   4.937   1.267   5.748 -1.2552  1.2376  1.4849
  279SOL    MW4  884   4.880   1.207   5.720  0.1552  0.0431  1.0257
  280SOL     OW  885   2.367   0.316   1.669 -0.2111  0.1146  0.1731
  280SOL    HW2  886   2.379   0.372   1.592 -1.1676  0.8692  0.5603
  280SOL    HW3  887   2.447   0.262   1.672  0.8473  1.6003 -0.0680
  280SOL    MW4  888   2.379   0.316   1.659 -0.1977  0.4102  0.1924
  281SOL     OW  889   4.758   0.127   1.358  0.0755 -0.0170 -0.3268
  281SOL    HW2  890   4.815   0.050   1.358  0.4610  0.0779  3.0549
  281SOL    HW3  891   4.689   0.106   1.295  1.4879 -2.0196 -1.3439
  281SOL    MW4  892   4.756   0.114   1.350  0.3127 -0.2687 -0.0148
  282SOL     OW  893   2.845   3.586   1.423  0.9850 -0.3720 -0.2271
  282SOL    HW2  894   2.911   3.520   1.443  2.1525  0.5379 -0.9228
  282SOL    HW3  895   2.868   3.617   1.335 -0.0972  0.3016 -0.2943
  282SOL    MW4  896   2.857   3.581   1.414  0.9963 -0.1631 -0.3277
  283SOL     OW  897   1.451   4.713   1.067  0.5076  0.0707  0.4275
  283SOL    HW2  898   1.439   4.653   1.140  0.1299  0.3337  0.5881
  283SOL    HW3  899   1.539   4.694   1.034  0.6828 -0.0468  0.9533
  283SOL    MW4  900   1.461   4.703   1.072  0.4809  0.0899  0.5180
  284SOL     OW  901   6.349   4.716   5.920 -0.1616 -0.0632 -0.3807
  284SOL    HW2  902   6.378   4.645   5.977 -0.2728 -0.5298 -0.8955
  284SOL    HW3  903   6.416   4.783   5.928  0.7327 -0.8518 -1.0516
  284SOL    MW4  904   6.362   4.716   5.929 -0.0583 -0.2288 -0.5372
  285SOL     OW  905   4.304   4.463   3.178  0.1233  0.0004  0.3161
  285SOL    HW2  906   4.252   4.404   3.232 -0.2512  0.5749  0.5900
  285SOL    HW3  907   4.379   4.410   3.150 -0.2945 -0.6547  0.4123
  285SOL    MW4  908   4.307   4.448   3.181  0.0187 -0.0102  0.3649
  286SOL     OW  909   4.528   5.802   6.268  0.1775  0.2438 -0.1856
  286SOL    HW2  910   4.525   5.741   6.195  0.6783  0.4434 -0.3783
  286SOL    HW3  911   4.470   5.764   6.334  0.4239 -0.4007 -0.3327
  286SOL    MW4  912   4.520   5.789   6.267  0.2761  0.1851 -0.2304
  287SOL     OW  913   0.253   0.934   0.264  0.8862  0.3224  0.2019
  287SOL    HW2  914   0.289   0.875   0.198  0.5363 -0.6711  0.8675
  287SOL    HW3  915   0.300   1.016   0.252 -0.0678  0.5989 -2.1421
  287SOL    MW4  916   0.264   0.937   0.254  0.7141  0.2278 -0.0196
  288SOL     OW  917   5.352   6.129   4.147  0.7113 -0.2924 -0.1476
  288SOL    HW2  918   5.372   6.161   4.059  0.6752 -1.4447 -0.5859
  288SOL    HW3  919   5.333   6.036   4.135  2.8087 -0.9994  1.3441
  288SOL    MW4  920   5.352   6.121   4.134  0.9833 -0.5377 -0.0086
  289SOL     OW  921   3.861   1.316   5.177  0.0264  0.1314  0.3027
  289SOL    HW2  922   3.800   1.350   5.242  0.5311  1.9201 -0.1153
  289SOL    HW3  923   3.875   1.388   5.117  2.6256 -0.1697  0.4339
  289SOL    MW4  924   3.855   1.330   5.178  0.4359  0.3277  0.2649
  290SOL     OW  925   2.257   3.253   4.437  0.1226  0.4049 -0.2703
  290SOL    HW2  926   2.169   3.217   4.433 -0.4947  1.9704 -1.6806
  290SOL    HW3  927   2.305   3.210   4.366  0.6271 -0.6750  0.6881
  290SOL    MW4  928   2.252   3.243   4.427  0.1078  0.4690 -0.3299
  291SOL     OW  929   4.158   6.019   1.911 -0.0201 -0.7307  0.6306
  291SOL    HW2  930   4.137   6.084   1.844 -0.1255 -2.0006 -0.6161
  291SOL    HW3  931   4.108   6.047   1.988 -1.4510 -0.3050 -0.4116
  291SOL    MW4  932   4.149   6.031   1.913 -0.2228 -0.8421  0.3286
  292SOL     OW  933   6.230   5.579   1.815  0.7359  0.0099  0.3134
  292SOL    HW2  934   6.212   5.522   1.890  0.7670 -1.4408 -0.7449
  292SOL    HW3  935   6.278   5.524   1.753 -1.9706  0.1279 -2.1379
  292SOL    MW4  936   6.234   5.564   1.817  0.3829 -0.1659 -0.1497
  293SOL     OW  937   5.017   6.351   2.266 -0.1893 -0.1732  0.5839
  293SOL    HW2  938   4.955   6.280   2.277 -1.7980  1.0273 -0.2669
  293SOL    HW3  939   4.991   6.417   2.331  1.1760 -0.2545  1.2637
  293SOL    MW4  940   5.006   6.350   2.276 -0.2214 -0.0255  0.5613
  294SOL     OW  941   0.980   2.563   5.336  0.4148  0.5432  0.1062
  294SOL    HW2  942   1.060   2.615   5.327  1.3085 -0.8701 -0.4049
  294SOL    HW3  943   0.918   2.622   5.380  1.4356  1.9617 -0.2796
  294SOL    MW4  944   0.982   2.578   5.341  0.6674  0.5439 -0.0121
  295SOL     OW  945   2.746   4.929   0.553 -0.2647 -0.0723  0.3268
  295SOL    HW2  946   2.751   4.922   0.648  0.7905  2.0569  0.5076
  295SOL    HW3  947   2.656   4.959   0.535 -0.3850 -0.2248  0.6826
  295SOL    MW4  948   2.735   4.932   0.563 -0.1414  0.1885  0.3976
  296SOL     OW  949   2.446   0.438   0.940 -0.4665 -0.1204  0.0418
  296SOL    HW2  950   2.358   0.475   0.952 -1.3883 -2.3931  0.7796
  296SOL    HW3  951   2.471   0.408   1.027  0.0919 -1.4585 -0.5550
  296SOL    MW4  952   2.438   0.439   0.953 -0.5144 -0.5968  0.0604
  297SOL     OW  953   4.894   1.235   2.875 -0.6194 -0.3808 -0.2699
  297SOL    HW2  954   4.970   1.270   2.827  0.5175 -1.2456  0.8390
  297SOL    HW3  955   4.858   1.311   2.921  0.4202 -0.2141  0.2888
  297SOL    MW4  956   4.899   1.250   2.875 -0.3322 -0.4729 -0.0499
  298SOL     OW  957   1.295   4.167   2.627  0.2036  0.1501  0.3617
  298SOL    HW2  958   1.224   4.106   2.645  0.5049 -0.8979 -1.7393
  298SOL    HW3  959   1.252   4.251   2.615 -0.3101  0.2194  2.3899
  298SOL    MW4  960   1.280   4.170   2.628  0.1756  0.0210  0.3521
  299SOL     OW  961   1.818   5.625   0.506 -0.1947  0.1437  0.5898
  299SOL    HW2  962   1.836   5.661   0.419  2.2133  3.1628  2.1295
  299SOL    HW3  963   1.762   5.690   0.548 -0.8804 -1.0026  1.5185
  299SOL    MW4  964   1.813   5.638   0.501  0.0325  0.3908  0.9155
  300SOL     OW  965   1.595   0.926   6.040 -0.2867  0.4007  0.2305
  300SOL    HW2  966   1.583   0.912   5.946  1.2511 -0.6507  0.1546
  300SOL    HW3  967   1.586   0.839   6.078  0.1939  0.6540  0.9273
  300SOL    MW4  968   1.592   0.913   6.032 -0.0204  0.2954  0.3124
  301SOL     OW  969   2.803   5.606   1.131 -0.1938 -0.0168 -0.1052
  301SOL    HW2  970   2.788   5.521   1.089 -1.6441  0.8089 -1.3390
  301SOL    HW3  971   2.892   5.630   1.104  0.0981 -0.9638 -0.0292
  301SOL    MW4  972   2.813   5.598   1.122 -0.3466 -0.0328 -0.2580
  302SOL     OW  973   0.419   5.086   3.424 -0.1963  0.0644 -0.4481
  302SOL    HW2  974   0.445   5.082   3.516 -1.2391  0.1531 -0.1427
  302SOL    HW3  975   0.501   5.072   3.375  0.4907  0.7146  0.4822
  302SOL    MW4  976   0.433   5.084   3.429 -0.2433  0.1619 -0.2850
  303SOL     OW  977   0.795   2.149   6.255 -0.7269 -0.5271 -0.4766
  303SOL    HW2  978   0.883   2.109   6.260 -0.1778  0.6610 -0.2890
  303SOL    HW3  979   0.786   2.196   6.337 -0.8349  0.7753 -1.2202
  303SOL    MW4  980   0.806   2.150   6.266 -0.6687 -0.1985 -0.5499
  304SOL     OW  981   4.497   3.156   4.031  0.3872 -0.4024  0.3207
  304SOL    HW2  982   4.455   3.127   3.950 -1.3075  2.6590 -0.0423
  304SOL    HW3  983   4.556   3.084   4.055 -1.3215 -2.7127 -1.9395
  304SOL    MW4  984   4.500   3.143   4.023 -0.0618 -0.3033 -0.0254
  305SOL     OW  985   1.843   4.047   1.631  0.0939  0.1531  0.1421
  305SOL    HW2  986   1.806   3.992   1.562  1.9105 -0.5754 -0.2994
  305SOL    HW3  987   1.818   4.136   1.607  2.3179  0.1565 -2.6322
  305SOL    MW4  988   1.835   4.052   1.619  0.6270  0.0575 -0.2822
  306SOL     OW  989   3.854   1.200   3.429  0.2092 -0.0836 -0.1712
  306SOL    HW2  990   3.919   1.264   3.401  2.9054 -2.0853  1.1234
  306SOL    HW3  991   3.863   1.128   3.366 -2.5343  0.5211 -1.4114
  306SOL    MW4  992   3.864   1.199   3.417  0.2029 -0.2679 -0.1641
  307SOL     OW  993   4.688   0.523   5.011 -0.1181 -0.3327 -0.0081
  307SOL    HW2  994   4.764   0.466   5.009  0.3100  0.2346 -2.6258
  307SOL    HW3  995   4.629   0.482   5.075  2.3610 -0.7155  2.1929
  307SOL    MW4  996   4.690   0.510   5.019  0.2655 -0.3083 -0.0631
  308SOL     OW  997   2.855   4.677   0.016  0.0004  0.2015 -0.2087
  308SOL    HW2  998   2.792   4.737   0.056 -0.0470  0.1169 -0.1545
  308SOL    HW3  999   2.906   4.644   0.090 -0.6159 -0.5734 -0.1076
  308SOL    MW4 1000   2.853   4.680   0.031 -0.0872  0.0881 -0.1882
  309SOL     OW 1001   4.953   4.487   0.236  0.2303 -0.1475  0.1059
  309SOL    HW2 1002   4.974   4.550   0.168  0.9766 -1.1434 -0.6261
  309SOL    HW3 1003   4.858   4.491   0.244  0.1881  0.3865 -0.6104
  309SOL    MW4 1004   4.943   4.496   0.228  0.3232 -0.2085 -0.0852
  310SOL     OW 1005   5.999   3.273   4.075 -0.0856 -0.1718 -0.2811
  310SOL    HW2 1006   5.962   3.274   4.163  0.4589 -2.8441  0.0850
  310SOL    HW3 1007   6.091   3.249   4.088  0.3113  0.5745 -1.5226
  310SOL    MW4 1008   6.006   3.270   4.088  0.0386 -0.4259 -0.3966
  311SOL     OW 1009   3.441   4.263   6.089  0.1830 -0.1403  0.1349
  311SOL    HW2 1010   3.452   4.313   6.170  0.8812 -0.9417  0.5571
  311SOL    HW3 1011   3.430   4.172   6.118  3.0027 -0.8654 -0.6813
  311SOL    MW4 1012   3.441   4.257   6.103  0.6472 -0.3417  0.0829
  312SOL     OW 1013   0.091   3.355   2.100  0.2299 -0.6628  0.2756
  312SOL    HW2 1014   0.019   3.400   2.143  0.1775  0.3557 -0.8109
  312SOL    HW3 1015   0.112   3.410   2.024  0.3533 -2.3175 -0.9526
  312SOL    MW4 1016   0.084   3.368   2.095  0.2393 -0.7468 -0.0298
  313SOL     OW 1017   1.793   5.616   3.995  0.3146  0.2758 -0.1392
  313SOL    HW2 1018   1.721   5.629   4.058 -0.3591 -0.6421 -0.6802
  313SOL    HW3 1019   1.832   5.533   4.022  1.9677  1.3327  0.8672
  313SOL    MW4 1020   1.788   5.607   4.007  0.4438  0.2941 -0.0778
  314SOL     OW 1021   3.887   6.153   6.362 -0.1062  0.4138  0.7820
  314SOL    HW2 1022   3.966   6.104   6.343 -1.8050 -1.9455 -0.7516
  314SOL    HW3 1023   3.878   6.149   6.457  1.7014  0.9616  0.9992
  314SOL    MW4 1024   3.896   6.146   6.372 -0.0918  0.1748  0.6083
  315SOL     OW 1025   5.123   5.852   0.027  0.1569 -0.2688 -0.1053
  315SOL    HW2 1026   5.186   5.919   0.054 -1.1645  0.6786  0.7327
  315SOL    HW3 1027   5.177   5.777   0.001  1.6957  1.2896 -1.6144
  315SOL    MW4 1028   5.138   5.851   0.027  0.1856  0.0618 -0.1939
  316SOL     OW 1029   4.105   4.679   2.389  0.1976  0.3349 -0.1999
  316SOL    HW2 1030   4.079   4.692   2.480  0.7223  0.0091  0.0023
  316SOL    HW3 1031   4.201   4.679   2.392  0.2285 -1.1448 -0.5249
  316SOL    MW4 1032   4.114   4.681   2.402  0.2709  0.0967 -0.2161
  317SOL     OW 1033   3.379   1.438   3.165 -0.0550 -0.2250  0.2455
  317SOL    HW2 1034   3.335   1.500   3.107 -0.8698 -1.8186 -0.9134
  317SOL    HW3 1035   3.309   1.381   3.197  0.7508 -0.9453  0.7720
  317SOL    MW4 1036   3.364   1.438   3.162 -0.0562 -0.5303  0.1620
  318SOL     OW 1037   0.175   3.642   1.409 -0.7652  0.0624 -0.3013
  318SOL    HW2 1038   0.164   3.708   1.476  0.2655 -0.7344  0.6957
  318SOL    HW3 1039   0.088   3.606   1.394 -1.0938  0.6665  0.1620
  318SOL    MW4 1040   0.162   3.646   1.416 -0.6725  0.0370 -0.1086
  319SOL     OW 1041   4.633   2.483   5.956  0.3248  0.3746 -0.1332
  319SOL    HW2 1042   4.718   2.487   6.001  0.3766  2.5061 -0.3033
  319SOL    HW3 1043   4.569   2.486   6.027  0.3948  0.2824 -0.0648
  319SOL    MW4 1044   4.636   2.484   5.972  0.3408  0.6437 -0.1466
  320SOL     OW 1045   6.185   6.065   3.768 -0.5487  0.0356  0.2360
  320SOL    HW2 1046   6.133   6.013   3.707  0.4202  1.1443 -1.5908
  320SOL    HW3 1047   6.240   6.120   3.713  0.9152  0.5535  2.1159
  320SOL    MW4 1048   6.185   6.065   3.753 -0.2277  0.2502  0.2430
  321SOL     OW 1049   1.561   2.780   4.846  0.4736 -0.6285 -0.1974
  321SOL    HW2 1050   1.487   2.811   4.898 -0.4220  0.2145 -1.9146
  321SOL    HW3 1051   1.553   2.684   4.848 -0.7866 -0.5468 -0.5065
  321SOL    MW4 1052   1.551   2.771   4.853  0.1892 -0.5065 -0.4648
  322SOL     OW 1053   3.406   0.839   2.947  0.2997  0.1293  0.2684
  322SOL    HW2 1054   3.346   0.885   2.889 -0.8533 -0.3158  1.0679
  322SOL    HW3 1055   3.426   0.902   3.016 -0.3197 -0.1438  0.7108
  322SOL    MW4 1056   3.401   0.853   2.948  0.0658  0.0345  0.4322
  323SOL     OW 1057   2.688   2.267   2.836 -0.1507 -0.0751  0.1332
  323SOL    HW2 1058   2.601   2.263   2.875 -1.0068  0.6499 -1.5737
  323SOL    HW3 1059   2.693   2.190   2.779 -0.4014  0.7971 -1.1149
  323SOL    MW4 1060   2.678   2.257   2.834 -0.2968  0.1356 -0.2567
  324SOL     OW 1061   5.410   5.192   5.914  0.0112  0.0187  0.2737
  324SOL    HW2 1062   5.442   5.278   5.941  1.9461  0.0978 -1.9204
  324SOL    HW3 1063   5.378   5.152   5.995 -0.2157  2.4720  1.5002
  324SOL    MW4 1064   5.410   5.198   5.928  0.2365  0.3528  0.1461
  325SOL     OW 1065   1.404   1.691   6.025 -0.4922  0.0740 -0.1940
  325SOL    HW2 1066   1.319   1.661   5.993 -0.3732  0.1983 -0.6217
  325SOL    HW3 1067   1.443   1.613   6.066 -0.3384 -0.2722 -0.9893
  325SOL    MW4 1068   1.398   1.676   6.026 -0.4562  0.0447 -0.3554
  326SOL     OW 1069   0.970   6.195   4.926  0.0264  0.5432  0.2214
  326SOL    HW2 1070   0.915   6.138   4.980  0.6244  0.0009  0.2631
  326SOL    HW3 1071   0.908   6.240   4.868 -0.5425  0.5667  0.8415
  326SOL    MW4 1072   0.954   6.193   4.925  0.0303  0.4747  0.3087
  327SOL     OW 1073   0.381   5.984   5.988 -0.1348  0.0771 -0.1473
  327SOL    HW2 1074   0.380   6.042   5.911  0.1456 -0.2235 -0.3780
  327SOL    HW3 1075   0.327   5.910   5.963 -3.4175  1.7364  1.3589
  327SOL    MW4 1076   0.374   5.982   5.974 -0.5309  0.2564  0.0210
  328SOL     OW 1077   3.982   0.265   0.204  0.4422  0.2579  0.1296
  328SOL    HW2 1078   4.054   0.309   0.160 -0.0247  0.2718 -0.6385
  328SOL    HW3 1079   3.912   0.262   0.139  0.4954 -1.7318  0.0827
  328SOL    MW4 1080   3.982   0.270   0.189  0.3876 -0.0027  0.0221
  329SOL     OW 1081   5.025   4.584   2.713  0.7781 -0.5019  0.2312
  329SOL    HW2 1082   4.942   4.553   2.678  0.3427 -1.2740  1.8750
  329SOL    HW3 1083   5.043   4.526   2.788  1.9186  0.7464  0.9664
  329SOL    MW4 1084   5.017   4.572   2.718  0.8712 -0.4390  0.5451
  330SOL     OW 1085   3.136   1.579   2.804  0.3725  0.1880 -0.2714
  330SOL    HW2 1086   3.157   1.632   2.728  0.0230  0.4960 -0.1511
  330SOL    HW3 1087   3.168   1.630   2.879 -1.0380  0.7896 -0.0615
  330SOL    MW4 1088   3.143   1.592   2.804  0.1403  0.3080 -0.2278
  331SOL     OW 1089   4.489   5.342   5.154 -0.5360  0.0808  0.2266
  331SOL    HW2 1090   4.414   5.338   5.095 -0.6602  0.2186  0.3738
  331SOL    HW3 1091   4.549   5.275   5.122 -1.1127 -0.6543  0.6576
  331SOL    MW4 1092   4.487   5.333   5.142 -0.6285  0.0020  0.3029
  332SOL     OW 1093   2.228   6.355   1.875  0.0904 -0.4333 -0.3215
  332SOL    HW2 1094   2.241   6.358   1.970  3.6107 -1.0590 -0.6227
  332SOL    HW3 1095   2.200   6.444   1.852  0.7716  0.2064  1.1495
  332SOL    MW4 1096   2.226   6.367   1.885  0.6448 -0.4315 -0.1672
  333SOL     OW 1097   3.175   1.619   4.611  0.0853  0.4104  0.4069
  333SOL    HW2 1098   3.174   1.566   4.691 -1.1773  0.7137  0.6247
  333SOL    HW3 1099   3.152   1.707   4.641  2.2526  1.1312  0.0606
  333SOL    MW4 1100   3.172   1.624   4.626  0.2047  0.5455  0.3899
  334SOL     OW 1101   5.502   3.059   5.353  0.0683  0.2542  0.2548
  334SOL    HW2 1102   5.424   3.107   5.326  0.5439  1.8968  1.6388
  334SOL    HW3 1103   5.472   3.003   5.425 -0.0739 -0.0224 -0.0180
  334SOL    MW4 1104   5.488   3.058   5.359  0.1123  0.4344  0.4015
  335SOL     OW 1105   0.234   1.282   4.950 -0.0491 -0.3024 -0.1485
  335SOL    HW2 1106   0.151   1.318   4.918 -0.1672 -0.6903 -0.2861
  335SOL    HW3 1107   0.243   1.318   5.039  1.3229  2.5020 -1.3110
  335SOL    MW4 1108   0.224   1.291   4.958  0.1163  0.0164 -0.3200
  336SOL     OW 1109   2.158   5.272   6.154 -0.2380  0.1642  0.2941
  336SOL    HW2 1110   2.164   5.192   6.207 -0.0882  0.7361  1.1693
  336SOL    HW3 1111   2.156   5.241   6.064 -2.4160 -0.9516  0.6491
  336SOL    MW4 1112   2.159   5.257   6.149 -0.5056  0.0925  0.4564
  337SOL     OW 1113   2.510   3.338   0.307 -0.1417  0.2353  0.1305
  337SOL    HW2 1114   2.584   3.341   0.245  0.2271  0.2052  0.5662
  337SOL    HW3 1115   2.475   3.249   0.298 -0.5264  0.4506 -0.5411
  337SOL    MW4 1116   2.515   3.327   0.297 -0.1438  0.2597  0.0994
  338SOL     OW 1117   1.764   5.677   3.722 -0.1830 -0.3556 -0.3070
  338SOL    HW2 1118   1.822   5.752   3.709 -0.8191  0.2948  0.5113
  338SOL    HW3 1119   1.786   5.645   3.810 -1.7716  0.5709  0.4809
  338SOL    MW4 1120   1.775   5.683   3.732 -0.4765 -0.1475 -0.0951
  339SOL     OW 1121   5.306   6.169   5.150 -0.4846  0.7259  0.1629
  339SOL    HW2 1122   5.316   6.265   5.147  0.4350  0.7677  2.5298
  339SOL    HW3 1123   5.281   6.145   5.061  0.3896  3.0429 -0.7859
  339SOL    MW4 1124   5.304   6.179   5.138 -0.2479  1.0371  0.3500
  340SOL     OW 1125   2.378   3.045   3.864  0.1334 -0.2228  0.4020
  340SOL    HW2 1126   2.308   3.024   3.925  0.2757 -0.2541  0.5559
  340SOL    HW3 1127   2.415   3.127   3.896 -1.1858  0.9252 -0.8749
  340SOL    MW4 1128   2.374   3.053   3.876 -0.0218 -0.0754  0.2538
  341SOL     OW 1129   1.340   2.897   2.374 -0.5800 -0.0511  0.3915
  341SOL    HW2 1130   1.314   2.818   2.421 -2.3555 -0.0328 -0.4521
  341SOL    HW3 1131   1.313   2.881   2.283  2.2592  0.1186 -0.5741
  341SOL    MW4 1132   1.333   2.884   2.368 -0.4397 -0.0263  0.1528
  342SOL     OW 1133   2.282   4.527   3.924  0.4325  0.6381 -0.1571
  342SOL    HW2 1134   2.246   4.611   3.953  0.8433  0.4702  0.8787
  342SOL    HW3 1135   2.377   4.537   3.932  0.5032 -1.1909  3.9450
  342SOL    MW4 1136   2.290   4.539   3.929  0.4961  0.3746  0.5208
  343SOL     OW 1137   2.572   1.333   2.350  0.5396 -0.6951 -0.2518
  343SOL    HW2 1138   2.529   1.395   2.292  0.1942 -1.7060 -1.1131
  343SOL    HW3 1139   2.560   1.248   2.308  1.3075 -1.3102  0.7091
  343SOL    MW4 1140   2.565   1.330   2.337  0.5953 -0.9096 -0.2386
  344SOL     OW 1141   1.249   2.325   4.846  0.7520 -0.2465 -0.4728
  344SOL    HW2 1142   1.301   2.406   4.842  1.0763 -0.3883  0.7254
  344SOL    HW3 1143   1.311   2.257   4.872  0.2617 -0.7000 -0.4750
  344SOL    MW4 1144   1.264   2.327   4.849  0.7301 -0.3250 -0.3150
  345SOL     OW 1145   0.528   1.841   3.126  0.0805  0.5887 -0.6816
  345SOL    HW2 1146   0.616   1.878   3.131 -0.2882  1.3400  0.8173
  345SOL    HW3 1147   0.489   1.883   3.049  0.5689  1.3100 -0.5510
  345SOL    MW4 1148   0.535   1.852   3.116  0.0963  0.7830 -0.4666
  346SOL     OW 1149   3.747   2.271   0.459  0.0149 -1.0854  0.3653
  346SOL    HW2 1150   3.729   2.333   0.389  1.4987 -0.4160  0.5628
  346SOL    HW3 1151   3.803   2.204   0.419  2.7615  0.4730  1.3822
  346SOL    MW4 1152   3.752   2.270   0.445  0.5730 -0.7915  0.5255
  347SOL     OW 1153   2.820   5.811   1.493 -0.4648  0.6098  0.3771
  347SOL    HW2 1154   2.906   5.850   1.509  0.9647 -2.6581  1.5912
  347SOL    HW3 1155   2.776   5.816   1.578 -0.1207 -0.6482  0.6447
  347SOL    MW4 1156   2.825   5.817   1.507 -0.2308  0.0126  0.5726
  348SOL     OW 1157   1.878   0.386   0.829  0.2123 -0.2220 -0.5358
  348SOL    HW2 1158   1.818   0.361   0.758 -0.4521  0.1309 -0.1141
  348SOL    HW3 1159   1.904   0.303   0.868 -2.1609 -0.3224  1.0038
  348SOL    MW4 1160   1.873   0.372   0.825 -0.1884 -0.1887 -0.2770
  349SOL     OW 1161   5.496   2.559   0.108  0.0495  0.6218  0.2158
  349SOL    HW2 1162   5.469   2.613   0.033  1.3684  0.0367 -0.7181
  349SOL    HW3 1163   5.426   2.571   0.172 -1.0503  1.2605 -1.0454
  349SOL    MW4 1164   5.483   2.568   0.106  0.0784  0.6289 -0.0738
  350SOL     OW 1165   0.853   1.516   2.764 -0.6984 -0.1970 -0.0063
  350SOL    HW2 1166   0.768   1.559   2.771  0.0064  1.3329 -0.3312
  350SOL    HW3 1167   0.853   1.475   2.678 -1.0996 -0.1973 -0.0049
  350SOL    MW4 1168   0.842   1.516   2.754 -0.6583  0.0048 -0.0490
  351SOL     OW 1169   3.668   0.957   1.188  0.5381  0.2660 -0.2781
  351SOL    HW2 1170   3.693   0.886   1.129  1.3863  0.6930 -0.4498
  351SOL    HW3 1171   3.752   0.996   1.215  0.0738  1.7815 -0.9133
  351SOL    MW4 1172   3.683   0.953   1.184  0.5888  0.5223 -0.3846
  352SOL     OW 1173   6.270   2.575   2.819 -0.1084  0.0026 -0.5472
  352SOL    HW2 1174   6.241   2.487   2.795 -0.2680 -0.0715 -0.0913
  352SOL    HW3 1175   6.359   2.563   2.853 -0.0625  0.0412 -0.6546
  352SOL    MW4 1176   6.278   2.562   2.820 -0.1234 -0.0021 -0.5012
  353SOL     OW 1177   6.361   3.524   1.367  0.0676  0.4785 -0.4431
  353SOL    HW2 1178   6.317   3.467   1.429 -1.2768  1.3668 -0.5388
  353SOL    HW3 1179   6.369   3.472   1.288 -2.0233  0.6971 -0.8491
  353SOL    MW4 1180   6.357   3.510   1.365 -0.3856  0.6246 -0.5093
  354SOL     OW 1181   2.468   1.052   6.360  0.2797  0.1528  0.3998
  354SOL    HW2 1182   2.407   1.032   6.290  0.6910 -1.4711  0.4712
  354SOL    HW3 1183   2.538   0.986   6.352  1.0644  0.8082  1.4519
  354SOL    MW4 1184   2.469   1.041   6.350  0.4375  0.0250  0.5480
  355SOL     OW 1185   6.051   5.287   6.257  0.1356 -0.0294 -0.0314
  355SOL    HW2 1186   6.129   5.340   6.241 -0.6987  1.7989  1.5761
  355SOL    HW3 1187   6.083   5.211   6.306  1.5656 -1.9442 -3.5260
  355SOL    MW4 1188   6.066   5.284   6.261  0.2142 -0.0408 -0.2804
  356SOL     OW 1189   4.736   3.687   3.273 -0.1451 -0.5251 -0.1533
  356SOL    HW2 1190   4.709   3.610   3.322  1.2574 -0.8990  0.0948
  356SOL    HW3 1191   4.827   3.702   3.300 -0.8830  2.2972  1.1868
  356SOL    MW4 1192   4.745   3.679   3.283 -0.0574 -0.2021  0.0563
  357SOL     OW 1193   1.324   0.185   2.113  0.0862 -0.9778 -0.1543
  357SOL    HW2 1194   1.412   0.213   2.138 -0.3813  0.1793  0.2771
  357SOL    HW3 1195   1.321   0.194   2.018  0.3867 -0.8976 -0.1553
  357SOL    MW4 1196   1.335   0.190   2.104  0.0642 -0.8145 -0.0975
  358SOL     OW 1197   2.606   2.670   2.301  0.2935 -0.1020 -0.3104
  358SOL    HW2 1198   2.596   2.764   2.285  0.9885  0.0541  0.1598
  358SOL    HW3 1199   2.700   2.657   2.310  0.0721 -0.4974  1.7223
  358SOL    MW4 1200   2.617   2.681   2.300  0.3560 -0.1336  0.0199
  359SOL     OW 1201   5.341   0.812   6.180  0.3002  0.5061  0.6885
  359SOL    HW2 1202   5.374   0.902   6.170 -0.0714  0.5497 -0.2273
  359SOL    HW3 1203   5.284   0.799   6.104  3.1338 -1.7387 -1.2641
  359SOL    MW4 1204   5.338   0.822   6.169  0.6250  0.2157  0.3101
  360SOL     OW 1205   4.378   5.203   3.376 -0.2293 -0.2070  0.1231
  360SOL    HW2 1206   4.379   5.136   3.444  0.8903 -0.7443 -0.3895
  360SOL    HW3 1207   4.305   5.178   3.319 -0.6190 -0.2519  0.6292
  360SOL    MW4 1208   4.369   5.191   3.377 -0.1330 -0.2838  0.1222
  361SOL     OW 1209   1.820   3.205   0.293 -0.1254  0.0667  0.1631
  361SOL    HW2 1210   1.870   3.250   0.225  0.5567  0.5112  0.9285
  361SOL    HW3 1211   1.775   3.275   0.340 -0.5230 -0.2268  0.2260
  361SOL    MW4 1212   1.821   3.220   0.291 -0.0879  0.0866  0.2724
  362SOL     OW 1213   5.243   4.295   3.909 -0.3473  0.0425 -0.3354
  362SOL    HW2 1214   5.215   4.386   3.913  1.2372  0.5140  1.5869
  362SOL    HW3 1215   5.316   4.289   3.970 -0.3346 -2.5172 -0.4645
  362SOL    MW4 1216   5.249   4.306   3.918 -0.1366 -0.2330 -0.0988
  363SOL     OW 1217   6.058   0.372   5.430  0.1018  0.2705 -0.0273
  363SOL    HW2 1218   5.995   0.418   5.485  0.4108 -0.2033  0.7285
  363SOL    HW3 1219   6.018   0.371   5.343 -0.8394  0.1557  0.4018
  363SOL    MW4 1220   6.045   0.378   5.426  0.0184  0.1928  0.1290
  364SOL     OW 1221   4.302   3.122   4.541  0.3485 -0.3803 -0.8769
  364SOL    HW2 1222   4.368   3.184   4.572  0.6555 -0.2466 -1.7768
  364SOL    HW3 1223   4.301   3.133   4.446 -0.2781 -1.0753 -0.9601
  364SOL    MW4 1224   4.311   3.132   4.533  0.3063 -0.4544 -1.0066
  365SOL     OW 1225   0.557   3.624   1.025  0.1134  0.0268 -0.0139
  365SOL    HW2 1226   0.590   3.676   0.951  0.4358 -0.5144 -0.2495
  365SOL    HW3 1227   0.575   3.533   1.002 -3.4489 -0.5388 -1.1658
  365SOL    MW4 1228   0.564   3.619   1.012 -0.3140 -0.1192 -0.1969
  366SOL     OW 1229   6.331   1.914   3.811  0.0111 -0.1516 -0.0601
  366SOL    HW2 1230   6.358   1.918   3.903 -0.7870 -0.2638  0.1880
  366SOL    HW3 1231   6.272   1.989   3.799  0.2922 -0.0020 -0.5442
  366SOL    MW4 1232   6.326   1.924   3.821 -0.0571 -0.1467 -0.0912
  367SOL     OW 1233   2.073   3.419   4.649 -0.2705 -0.1039  0.1791
  367SOL    HW2 1234   2.086   3.505   4.610 -1.2034  0.3176  0.7492
  367SOL    HW3 1235   2.150   3.406   4.704  0.2406  0.0284 -0.4952
  367SOL    MW4 1236   2.085   3.429   4.651 -0.3261 -0.0308  0.1654
  368SOL     OW 1237   2.636   0.631   0.938 -0.8791 -0.0212 -0.1976
  368SOL    HW2 1238   2.638   0.674   0.852 -1.7512  0.3727 -0.0321
  368SOL    HW3 1239   2.549   0.591   0.942 -0.7216 -0.3100  0.3754
  368SOL    MW4 1240   2.625   0.631   0.927 -0.9734 -0.0073 -0.1002
  369SOL     OW 1241   1.535   3.572   2.975 -0.3591 -0.0685 -0.0580
  369SOL    HW2 1242   1.458   3.575   3.032 -0.2300  0.7169  0.0905
  369SOL    HW3 1243   1.507   3.616   2.895  0.4478  1.9419  0.6747
  369SOL    MW4 1244   1.521   3.578   2.972 -0.2356  0.3004  0.0583
  370SOL     OW 1245   4.175   1.958   5.269  0.7261 -0.4021 -0.1279
  370SOL    HW2 1246   4.245   1.985   5.210  0.0439 -0.7888 -1.1573
  370SOL    HW3 1247   4.203   1.987   5.356  0.1353  3.5468 -1.0527
  370SOL    MW4 1248   4.188   1.965   5.273  0.5581  0.0679 -0.3857
  371SOL     OW 1249   4.898   4.994   6.046 -0.4707 -0.4448  0.0981
  371SOL    HW2 1250   4.885   5.078   6.002  2.2076  1.9041  3.2836
  371SOL    HW3 1251   4.825   4.987   6.107  0.4897  0.9184  1.4991
  371SOL    MW4 1252   4.887   5.004   6.048  0.0093  0.0450  0.7033
  372SOL     OW 1253   4.311   4.744   1.537 -0.1246 -0.3560 -0.0693
  372SOL    HW2 1254   4.311   4.703   1.623  1.5276 -0.7117 -0.2047
  372SOL    HW3 1255   4.247   4.815   1.544 -0.2464 -0.5753  1.3478
  372SOL    MW4 1256   4.303   4.748   1.549  0.0773 -0.4319  0.0998
  373SOL     OW 1257   6.343   3.945   0.874  0.3880  0.2528  0.2637
  373SOL    HW2 1258   6.285   3.928   0.948 -0.6975 -0.6374 -0.7381
  373SOL    HW3 1259   6.427   3.909   0.900 -0.2743 -1.0906  0.6428
  373SOL    MW4 1260   6.346   3.938   0.887  0.1574 -0.0419  0.1815
  374SOL     OW 1261   2.927   1.802   2.266 -0.0878 -0.6341 -0.2323
  374SOL    HW2 1262   2.987   1.732   2.292  0.2463 -0.3154 -0.1277
  374SOL    HW3 1263   2.984   1.869   2.228 -0.4795 -0.7285 -1.0067
  374SOL    MW4 1264   2.942   1.801   2.264 -0.0954 -0.6045 -0.3206
  375SOL     OW 1265   3.368   4.147   1.859 -0.1370 -0.1518 -0.1250
  375SOL    HW2 1266   3.385   4.185   1.772 -2.7005  0.0058 -0.6374
  375SOL    HW3 1267   3.317   4.214   1.905  0.0896 -0.7514  1.0355
  375SOL    MW4 1268   3.363   4.161   1.853 -0.4453 -0.2101 -0.0395
  376SOL     OW 1269   0.959   1.330   5.086 -0.3507  0.4687  0.5662
  376SOL    HW2 1270   0.949   1.317   4.992 -0.4276  0.9220  0.5102
  376SOL    HW3 1271   0.972   1.242   5.121  0.1942  0.3451  0.0684
  376SOL    MW4 1272   0.959   1.317   5.078 -0.2890  0.5122  0.4931
  377SOL     OW 1273   1.564   3.089   0.769 -0.4558  0.3577  0.0952
  377SOL    HW2 1274   1.550   3.115   0.861  0.7991  0.5100  0.2532
  377SOL    HW3 1275   1.563   2.994   0.770 -1.2741  0.3569  0.1208
  377SOL    MW4 1276   1.562   3.080   0.781 -0.3982  0.3777  0.1194
  378SOL     OW 1277   1.154   4.811   4.764  0.2780  0.3219 -0.3166
  378SOL    HW2 1278   1.085   4.746   4.775  0.0480  0.8537  1.8571
  378SOL    HW3 1279   1.108   4.893   4.750  0.5379  0.2892 -1.4223
  378SOL    MW4 1280   1.139   4.813   4.764  0.2820  0.3878 -0.1757
  379SOL     OW 1281   5.937   2.674   4.556 -0.4403 -0.0546 -0.2904
  379SOL    HW2 1282   5.930   2.745   4.619  1.2337  1.0162 -1.2173
  379SOL    HW3 1283   5.914   2.715   4.472 -0.4039 -0.8540 -0.6989
  379SOL    MW4 1284   5.933   2.689   4.553 -0.2146 -0.0188 -0.4666
  380SOL     OW 1285   4.629   3.797   0.616 -0.4659 -0.0530  0.0622
  380SOL    HW2 1286   4.564   3.846   0.665 -1.4581 -1.5448  0.3034
  380SOL    HW3 1287   4.713   3.832   0.646 -1.0954  2.7466 -1.1361
  380SOL    MW4 1288   4.632   3.808   0.626 -0.6798  0.1195 -0.0641
  381SOL     OW 1289   1.967   6.081   4.798 -0.1576  0.1063  0.8562
  381SOL    HW2 1290   1.899   6.074   4.731  0.5086 -0.9150  0.2571
  381SOL    HW3 1291   1.980   6.175   4.809 -0.3815  0.3049 -0.3588
  381SOL    MW4 1292   1.960   6.092   4.790 -0.0992 -0.0022  0.6169
  382SOL     OW 1293   0.349   1.060   4.856 -0.1373  0.0423 -0.2484
  382SOL    HW2 1294   0.288   1.133   4.864 -0.3382 -0.1376 -0.0922
  382SOL    HW3 1295   0.429   1.098   4.823 -0.3672  0.2682 -0.5436
  382SOL    MW4 1296   0.351   1.074   4.853 -0.1941  0.0483 -0.2667
  383SOL     OW 1297   1.583   0.465   3.334 -0.3481  0.2180 -0.1681
  383SOL    HW2 1298   1.493   0.496   3.320  0.5177  2.7617 -0.6649
  383SOL    HW3 1299   1.627   0.539   3.376  1.5488 -0.9487  0.0042
  383SOL    MW4 1300   1.577   0.479   3.338  0.0164  0.3997 -0.2109
  384SOL     OW 1301   2.841   0.372   3.522  0.4049 -0.1541  0.2128
  384SOL    HW2 1302   2.932   0.390   3.501 -0.1732  1.0106 -1.5124
  384SOL    HW3 1303   2.813   0.448   3.574 -0.0118  0.3418 -0.7072
  384SOL    MW4 1304   2.849   0.384   3.526  0.2736  0.0650 -0.1362
  385SOL     OW 1305   5.974   3.468   5.458  0.0555  0.0267 -0.2975
  385SOL    HW2 1306   5.998   3.558   5.436 -0.7766  0.1725 -0.6302
  385SOL    HW3 1307   5.960   3.426   5.373 -0.4609 -0.1629 -0.1213
  385SOL    MW4 1308   5.975   3.474   5.444 -0.1224  0.0209 -0.3181
  386SOL     OW 1309   2.009   1.408   3.045 -0.4215 -0.1573  0.0200
  386SOL    HW2 1310   1.982   1.392   3.135 -0.8642 -2.0125 -0.4078
  386SOL    HW3 1311   2.015   1.321   3.005  1.0693  0.5211 -1.3822
  386SOL    MW4 1312   2.007   1.394   3.051 -0.2833 -0.3125 -0.2215
  387SOL     OW 1313   2.098   3.187   6.189 -0.1490 -0.0666  0.1935
  387SOL    HW2 1314   2.096   3.093   6.207  1.6663 -0.6221 -2.0782
  387SOL    HW3 1315   2.144   3.225   6.263 -1.6152 -0.7968  1.5430
  387SOL    MW4 1316   2.104   3.180   6.201 -0.1030 -0.2362  0.0718
  388SOL     OW 1317   0.483   3.467   3.377  0.0449 -0.6419 -0.1567
  388SOL    HW2 1318   0.476   3.560   3.352  2.3003 -0.5999 -0.8028
  388SOL    HW3 1319   0.504   3.468   3.470 -0.5777 -0.5413 -0.0124
  388SOL    MW4 1320   0.484   3.479   3.386  0.2603 -0.6231 -0.2229
  389SOL     OW 1321   3.434   0.693   0.862  0.0275 -0.2714  0.5536
  389SOL    HW2 1322   3.468   0.780   0.842 -1.8354  0.0484 -1.5471
  389SOL    HW3 1323   3.502   0.634   0.829  0.5698  0.3698  0.4949
  389SOL    MW4 1324   3.448   0.697   0.855 -0.1467 -0.1446  0.2687
  390SOL     OW 1325   1.391   5.114   0.267 -0.3741 -0.3338 -0.3915
  390SOL    HW2 1326   1.475   5.069   0.274 -0.5745 -0.7872 -0.8351
  390SOL    HW3 1327   1.395   5.162   0.185  0.4160  1.7127  0.7567
  390SOL    MW4 1328   1.402   5.115   0.257 -0.2963 -0.1236 -0.2985
  391SOL     OW 1329   6.110   1.999   4.465 -0.0098 -0.1097 -0.3297
  391SOL    HW2 1330   6.061   2.015   4.384 -0.8177 -1.1696 -0.0795
  391SOL    HW3 1331   6.087   1.909   4.488  0.2828  0.1549  1.0378
  391SOL    MW4 1332   6.100   1.989   4.457 -0.0778 -0.2146 -0.1162
  392SOL     OW 1333   4.407   0.719   6.141 -0.0026  0.0812 -0.3931
  392SOL    HW2 1334   4.448   0.672   6.069 -0.4870 -1.7405  0.4350
  392SOL    HW3 1335   4.478   0.735   6.203  0.5846  2.4077 -1.5803
  392SOL    MW4 1336   4.421   0.715   6.140  0.0110  0.1478 -0.4405
  393SOL     OW 1337   5.975   1.818   0.619 -0.1648  0.0853  0.0830
  393SOL    HW2 1338   6.036   1.745   0.609  0.2261  0.4685 -0.4287
  393SOL    HW3 1339   5.935   1.827   0.532  1.3167  1.7894 -0.4905
  393SOL    MW4 1340   5.978   1.809   0.606  0.0823  0.3607 -0.0602
  394SOL     OW 1341   0.799   2.830   0.570 -0.2701  0.0877  0.0040
  394SOL    HW2 1342   0.885   2.790   0.586  0.4056 -0.2586 -3.5982
  394SOL    HW3 1343   0.740   2.755   0.560 -0.6979  0.2873  0.9301
  394SOL    MW4 1344   0.803   2.815   0.570 -0.2374  0.0683 -0.3491
  395SOL     OW 1345   0.955   5.608   3.910  0.4048  0.6007  0.2566
  395SOL    HW2 1346   0.988   5.571   3.992 -2.5621 -3.0123  0.0674
  395SOL    HW3 1347   1.011   5.569   3.843  1.0835  1.3735  0.3521
  395SOL    MW4 1348   0.967   5.598   3.912  0.1029  0.2260  0.2442
  396SOL     OW 1349   0.799   1.193   1.233  0.6198 -0.2301 -0.3388
  396SOL    HW2 1350   0.864   1.211   1.165 -0.2065 -1.1797 -1.4090
  396SOL    HW3 1351   0.793   1.275   1.282  0.5671  0.7765 -1.9766
  396SOL    MW4 1352   0.807   1.206   1.231  0.5038 -0.2226 -0.6961
  397SOL     OW 1353   2.864   2.971   2.960 -0.2886  0.1968 -0.4908
  397SOL    HW2 1354   2.809   3.023   2.902 -2.3553 -1.6232 -0.2942
  397SOL    HW3 1355   2.897   2.900   2.904  2.5147  1.6190 -0.7731
  397SOL    MW4 1356   2.861   2.968   2.945 -0.1914  0.1443 -0.5021
  398SOL     OW 1357   0.178   4.676   3.944  0.3162  0.6940 -0.2266
  398SOL    HW2 1358   0.145   4.762   3.920  0.8742  0.6639 -1.1551
  398SOL    HW3 1359   0.223   4.644   3.866 -1.3783 -1.1959 -0.5234
  398SOL    MW4 1360   0.180   4.683   3.931  0.1662  0.4407 -0.3883
  399SOL     OW 1361   2.514   3.280   4.026 -0.1942  0.4703 -0.2286
  399SOL    HW2 1362   2.544   3.330   4.102 -0.4704 -0.7649  0.7111
  399SOL    HW3 1363   2.593   3.267   3.973  0.3410 -0.0925  0.6842
  399SOL    MW4 1364   2.528   3.285   4.029 -0.1601  0.2331  0.0158
  400SOL     OW 1365   5.148   6.241   6.288 -0.2284  0.6117 -0.2248
  400SOL    HW2 1366   5.085   6.249   6.360  0.1349  0.4952  0.1153
  400SOL    HW3 1367   5.179   6.330   6.273  0.3607  0.5240  0.3839
  400SOL    MW4 1368   5.144   6.254   6.296 -0.1027  0.5848 -0.0996
  401SOL     OW 1369   2.689   2.336   6.150 -0.0701 -0.1735 -0.5952
  401SOL    HW2 1370   2.615   2.388   6.181  0.7957  1.3933 -1.0380
  401SOL    HW3 1371   2.743   2.322   6.228 -0.5555 -0.8525 -0.3775
  401SOL    MW4 1372   2.687   2.341   6.165 -0.0199 -0.0564 -0.6249
  402SOL     OW 1373   5.483   4.309   0.196 -0.1683 -0.1474  0.3867
  402SOL    HW2 1374   5.500   4.396   0.162 -0.0716 -0.1295  0.4825
  402SOL    HW3 1375   5.387   4.300   0.193 -0.2589  0.3583  1.3521
  402SOL    MW4 1376   5.472   4.319   0.191 -0.1675 -0.0783  0.5267
  403SOL     OW 1377   0.890   1.710   2.319 -0.2142  0.2821 -0.3893
  403SOL    HW2 1378   0.899   1.777   2.387  0.5229  0.5041 -0.6982
  403SOL    HW3 1379   0.816   1.739   2.267 -0.2651  0.5515 -0.1733
  403SOL    MW4 1380   0.882   1.723   2.321 -0.1236  0.3469 -0.4015
  404SOL     OW 1381   5.015   3.223   2.116  0.0822 -0.0374 -0.1900
  404SOL    HW2 1382   4.959   3.298   2.132 -1.6363 -0.8476 -2.0008
  404SOL    HW3 1383   5.087   3.258   2.063 -0.1125  0.5348 -0.0821
  404SOL    MW4 1384   5.017   3.237   2.111 -0.1702 -0.0688 -0.4146
  405SOL     OW 1385   1.143   5.132   3.508  0.1787 -0.4547  0.1900
  405SOL    HW2 1386   1.100   5.053   3.475 -0.9608 -1.6975  4.1081
  405SOL    HW3 1387   1.232   5.104   3.529  0.3771 -0.1497 -0.2404
  405SOL    MW4 1388   1.149   5.118   3.506  0.0546 -0.5784  0.6502
  406SOL     OW 1389   3.665   1.912   4.322 -0.5428 -0.5224 -0.1341
  406SOL    HW2 1390   3.659   1.821   4.352  0.9422 -1.2553 -1.9108
  406SOL    HW3 1391   3.574   1.938   4.305 -0.9098 -2.0559 -0.6660
  406SOL    MW4 1392   3.652   1.903   4.324 -0.3953 -0.8214 -0.4387
  407SOL     OW 1393   5.804   0.046   3.793  0.0914  0.4589 -0.2658
  407SOL    HW2 1394   5.768   0.074   3.877 -1.0360  1.4544 -1.0504
  407SOL    HW3 1395   5.895   0.074   3.795 -0.2553  1.5974  0.1336
  407SOL    MW4 1396   5.811   0.053   3.805 -0.1031  0.7405 -0.3167
  408SOL     OW 1397   5.195   4.317   4.678  0.7875  0.2256  0.2504
  408SOL    HW2 1398   5.142   4.281   4.749  0.9357  0.0574  0.2791
  408SOL    HW3 1399   5.266   4.363   4.723  0.4008  0.8596  0.2153
  408SOL    MW4 1400   5.198   4.318   4.693  0.7560  0.2871  0.2496
  409SOL     OW 1401   1.358   4.370   1.062 -0.0343 -0.0457 -0.0428
  409SOL    HW2 1402   1.299   4.297   1.079 -0.0773  0.2603  1.1749
  409SOL    HW3 1403   1.399   4.388   1.146  0.6706  0.7356 -0.5409
  409SOL    MW4 1404   1.355   4.363   1.075  0.0530  0.0977  0.0521
  410SOL     OW 1405   4.188   1.074   3.564 -0.0656  0.7580  0.0570
  410SOL    HW2 1406   4.099   1.097   3.591  0.1316 -0.0986  1.5276
  410SOL    HW3 1407   4.179   0.987   3.524  0.5148 -1.1528  3.6005
  410SOL    MW4 1408   4.175   1.065   3.562  0.0370  0.3929  0.7185
  411SOL     OW 1409   0.120   0.900   2.474  0.7176 -0.4176 -0.2734
  411SOL    HW2 1410   0.180   0.956   2.425  0.3362 -0.8540 -1.2638
  411SOL    HW3 1411   0.062   0.863   2.408 -0.6490 -0.0206  0.6571
  411SOL    MW4 1412   0.121   0.902   2.459  0.4870 -0.4228 -0.2813
  412SOL     OW 1413   1.816   0.552   1.513  0.0372  0.1300  0.3985
  412SOL    HW2 1414   1.729   0.515   1.527 -0.3461  0.6984 -0.3907
  412SOL    HW3 1415   1.839   0.528   1.423  1.2168 -1.0319  0.9825
  412SOL    MW4 1416   1.808   0.544   1.503  0.1423  0.0517  0.3714
  413SOL     OW 1417   0.410   1.012   4.113  0.0755 -0.3663  0.1906
  413SOL    HW2 1418   0.476   0.970   4.056 -1.7603 -2.2453 -0.6814
  413SOL    HW3 1419   0.400   0.951   4.186 -0.5778 -0.0020  0.4082
  413SOL    MW4 1420   0.418   0.998   4.115 -0.2529 -0.5662  0.1042
  414SOL     OW 1421   0.290   2.523   3.998  0.3772 -0.0171 -0.0715
  414SOL    HW2 1422   0.293   2.603   3.946 -0.4817 -0.5659 -0.9975
  414SOL    HW3 1423   0.248   2.549   4.080 -0.3055  0.4043 -0.5425
  414SOL    MW4 1424   0.285   2.537   4.002  0.1738 -0.0339 -0.2558
  415SOL     OW 1425   2.139   2.197   2.166 -0.8495  0.4716  0.0631
  415SOL    HW2 1426   2.059   2.229   2.125 -0.8753 -0.8622 -1.0113
  415SOL    HW3 1427   2.210   2.241   2.118 -0.9121  1.1377  0.5663
  415SOL    MW4 1428   2.138   2.207   2.154 -0.8612  0.3835 -0.0122
  416SOL     OW 1429   0.351   2.492   1.805 -0.4620  0.1443  0.4104
  416SOL    HW2 1430   0.323   2.582   1.823  1.0490  0.5383  0.9460
  416SOL    HW3 1431   0.285   2.437   1.846 -0.2889  1.0334  1.9429
  416SOL    MW4 1432   0.339   2.497   1.813 -0.2398  0.3136  0.6832
  417SOL     OW 1433   5.285   1.725   2.096  0.0738  0.2290  0.4838
  417SOL    HW2 1434   5.340   1.742   2.172  0.9058 -0.4667  0.0589
  417SOL    HW3 1435   5.309   1.792   2.032  0.7014 -0.2953  0.1634
  417SOL    MW4 1436   5.295   1.736   2.097  0.2664  0.0680  0.3855
  418SOL     OW 1437   5.514   3.165   2.005  0.2892  0.2905 -0.4443
  418SOL    HW2 1438   5.585   3.158   1.941  1.1114  0.5327  0.4205
  418SOL    HW3 1439   5.544   3.231   2.067 -1.6427  1.9850 -1.2352
  418SOL    MW4 1440   5.528   3.173   2.004  0.1428  0.5460 -0.4346
  419SOL     OW 1441   1.601   0.217   0.987 -0.3470  0.1985  0.4266
  419SOL    HW2 1442   1.533   0.160   1.023 -0.4603  0.2269  0.2585
  419SOL    HW3 1443   1.561   0.256   0.909 -0.4002  0.8051  0.7562
  419SOL    MW4 1444   1.587   0.215   0.981 -0.3689  0.2822  0.4479
  420SOL     OW 1445   2.649   5.035   5.711  0.5304 -0.0549  0.2347
  420SOL    HW2 1446   2.728   5.002   5.669  0.5774 -1.8083  1.5975
  420SOL    HW3 1447   2.579   5.017   5.648  0.5665 -2.8650  0.8541
  420SOL    MW4 1448   2.650   5.028   5.697  0.5414 -0.6570  0.4963
  421SOL     OW 1449   3.651   4.552   5.167  0.1140  0.1576  0.0533
  421SOL    HW2 1450   3.677   4.479   5.110 -2.3584 -1.6538  1.0870
  421SOL    HW3 1451   3.568   4.583   5.129  1.2737  2.7585 -0.5631
  421SOL    MW4 1452   3.643   4.546   5.154 -0.0592  0.2618  0.1083
  422SOL     OW 1453   4.066   5.898   0.150 -0.4286  0.2714  0.1604
  422SOL    HW2 1454   4.109   5.863   0.228  0.5028 -0.7701 -0.7866
  422SOL    HW3 1455   4.067   5.993   0.163  1.8706  0.2852  0.3654
  422SOL    MW4 1456   4.072   5.906   0.162 -0.0024  0.1358  0.0625
  423SOL     OW 1457   4.649   5.238   3.270 -0.7489 -0.0736  0.3638
  423SOL    HW2 1458   4.559   5.219   3.295 -1.0178  1.1795  0.4383
  423SOL    HW3 1459   4.681   5.298   3.337 -0.6171  1.2616 -0.8390
  423SOL    MW4 1460   4.642   5.244   3.282 -0.7670  0.2679  0.2149
  424SOL     OW 1461   0.933   4.133   1.722  0.7609 -0.3580  0.1339
  424SOL    HW2 1462   0.971   4.175   1.645 -1.0055  1.7505  0.2957
  424SOL    HW3 1463   0.875   4.065   1.686 -0.8094  1.2536 -0.5542
  424SOL    MW4 1464   0.930   4.130   1.707  0.3206  0.1328  0.0645
  425SOL     OW 1465   2.574   1.841   2.859 -0.5378 -0.0006  0.0442
  425SOL    HW2 1466   2.482   1.829   2.883 -1.1303  1.3570 -1.3732
  425SOL    HW3 1467   2.595   1.766   2.804 -0.4662 -0.8261  1.1517
  425SOL    MW4 1468   2.565   1.830   2.855 -0.6065  0.0696  0.0033
  426SOL     OW 1469   3.774   5.705   3.947  0.3833  0.7186  0.1094
  426SOL    HW2 1470   3.842   5.723   4.012  1.0212  0.0773 -0.3736
  426SOL    HW3 1471   3.778   5.610   3.934 -2.0142  0.3235  1.6364
  426SOL    MW4 1472   3.783   5.695   3.954  0.1511  0.5819  0.2471
  427SOL     OW 1473   0.437   1.641   2.093  0.4016  0.0397 -0.2114
  427SOL    HW2 1474   0.467   1.714   2.148  0.7726 -0.3600  0.1173
  427SOL    HW3 1475   0.368   1.680   2.039 -2.7696 -0.3431  3.1434
  427SOL    MW4 1476   0.432   1.656   2.093  0.0321 -0.0635  0.2746
  428SOL     OW 1477   4.678   3.705   6.158  0.0533 -0.2638  0.0005
  428SOL    HW2 1478   4.736   3.631   6.177  0.8885  0.3308 -0.1666
  428SOL    HW3 1479   4.715   3.745   6.079 -0.3293  0.3821  0.1401
  428SOL    MW4 1480   4.690   3.701   6.150  0.1130 -0.1001 -0.0031
  429SOL     OW 1481   4.798   0.119   3.499  0.2980  0.0397  0.1494
  429SOL    HW2 1482   4.732   0.050   3.496  0.3608 -0.0116 -0.1971
  429SOL    HW3 1483   4.877   0.078   3.462  0.6622 -0.0467  0.9958
  429SOL    MW4 1484   4.800   0.105   3.493  0.3543  0.0215  0.2153
  430SOL     OW 1485   0.126   4.664   6.182 -0.4702  0.1559 -0.9129
  430SOL    HW2 1486   0.210   4.630   6.152  1.8584 -0.1361  4.7368
  430SOL    HW3 1487   0.130   4.758   6.165  0.2325 -0.0622 -2.0540
  430SOL    MW4 1488   0.137   4.672   6.176 -0.0702  0.0886 -0.3181
  431SOL     OW 1489   4.513   2.959   0.834  0.3210  0.2113 -0.1944
  431SOL    HW2 1490   4.420   2.953   0.856  0.4947  0.1985  0.5600
  431SOL    HW3 1491   4.514   2.983   0.741 -0.4221 -1.0558 -0.5551
  431SOL    MW4 1492   4.501   2.961   0.825  0.2459  0.0424 -0.1424
  432SOL     OW 1493   1.792   2.843   0.792  0.2642  0.0923 -0.3847
  432SOL    HW2 1494   1.822   2.917   0.844  0.0638 -0.6373  0.8216
  432SOL    HW3 1495   1.804   2.767   0.850 -2.3371 -0.4429 -0.4114
  432SOL    MW4 1496   1.797   2.843   0.807 -0.1054 -0.0746 -0.2291
  433SOL     OW 1497   0.224   1.600   0.010 -0.1932 -0.6646 -0.0146
  433SOL    HW2 1498   0.271   1.534   0.060  1.1175  0.4599  0.3130
  433SOL    HW3 1499   0.289   1.635  -0.051  0.7619  3.5532  2.9048
  433SOL    MW4 1500   0.239   1.596   0.009  0.1057  0.0402  0.4138
  434SOL     OW 1501   2.282   3.321   5.794 -0.4486 -0.5188 -0.2079
  434SOL    HW2 1502   2.352   3.271   5.836 -1.4914 -0.4191  1.7682
  434SOL    HW3 1503   2.250   3.265   5.724  0.5019 -1.2603 -0.0562
  434SOL    MW4 1504   2.287   3.307   5.790 -0.4607 -0.6035  0.0728
  435SOL     OW 1505   6.048   4.507   3.475 -0.4076  0.5649  0.1012
  435SOL    HW2 1506   5.959   4.520   3.440  0.1668  1.1920 -1.1839
  435SOL    HW3 1507   6.037   4.511   3.570 -1.7739  0.5290 -0.0354
  435SOL    MW4 1508   6.034   4.509   3.483 -0.5121  0.6429 -0.0864
  436SOL     OW 1509   2.506   2.401   4.927  0.8566 -0.4552 -0.5962
  436SOL    HW2 1510   2.535   2.422   5.016 -1.7813 -0.7468  0.4175
  436SOL    HW3 1511   2.502   2.306   4.925 -0.6778 -0.4163 -0.4257
  436SOL    MW4 1512   2.510   2.391   4.939  0.3061 -0.4885 -0.4399
  437SOL     OW 1513   2.085   1.129   5.825 -0.1453 -0.1509 -0.3089
  437SOL    HW2 1514   1.999   1.087   5.822  0.6970 -1.9503 -1.1537
  437SOL    HW3 1515   2.086   1.187   5.749 -0.7064  0.1065 -0.1252
  437SOL    MW4 1516   2.074   1.131   5.815 -0.1082 -0.3543 -0.3961
  438SOL     OW 1517   2.881   2.596   0.193 -0.0038 -0.3160  0.7048
  438SOL    HW2 1518   2.915   2.550   0.270  1.8952 -2.4214 -1.2279
  438SOL    HW3 1519   2.854   2.526   0.134  2.6037  0.8819 -2.2269
  438SOL    MW4 1520   2.882   2.581   0.195  0.5908 -0.4358  0.0630
  439SOL     OW 1521   3.672   2.570   1.540  0.5946 -0.2642  0.2521
  439SOL    HW2 1522   3.701   2.558   1.450 -1.3805  0.1850 -0.5024
  439SOL    HW3 1523   3.628   2.656   1.540  0.5218 -0.2771  1.6278
  439SOL    MW4 1524   3.670   2.580   1.528  0.3244 -0.2066  0.3341
  440SOL     OW 1525   3.043   4.739   3.361 -0.3284 -0.4144  0.2981
  440SOL    HW2 1526   3.060   4.798   3.289 -0.2165 -0.7315  0.0650
  440SOL    HW3 1527   3.092   4.776   3.435 -0.7118  0.0923  0.3025
  440SOL    MW4 1528   3.052   4.752   3.362 -0.3643 -0.3894  0.2679
  441SOL     OW 1529   1.317   0.844   5.099  0.0227 -0.0337  0.0356
  441SOL    HW2 1530   1.379   0.818   5.031  1.9403  0.6332  1.4234
  441SOL    HW3 1531   1.254   0.773   5.104  1.8530 -1.7431 -0.0967
  441SOL    MW4 1532   1.317   0.831   5.091  0.5172 -0.1713  0.2013
  442SOL     OW 1533   2.519   2.417   0.170  0.2700 -0.0842 -0.8036
  442SOL    HW2 1534   2.466   2.353   0.121 -2.8600  0.0556  2.0651
  442SOL    HW3 1535   2.518   2.495   0.115 -1.2173 -0.6018 -1.5899
  442SOL    MW4 1536   2.512   2.419   0.156 -0.3392 -0.1341 -0.5289
  443SOL     OW 1537   2.330   3.876   2.288 -0.0536 -0.0330  0.2723
  443SOL    HW2 1538   2.335   3.943   2.356  0.2134  0.1061  0.1144
  443SOL    HW3 1539   2.320   3.794   2.337 -2.7550  0.3146  0.4363
  443SOL    MW4 1540   2.329   3.874   2.304 -0.3747  0.0312  0.2731
  444SOL     OW 1541   1.161   4.035   1.383 -0.4356 -0.6674 -0.2075
  444SOL    HW2 1542   1.200   4.011   1.466 -0.5219 -0.4481 -0.1014
  444SOL    HW3 1543   1.131   3.952   1.345 -0.1230 -0.8013 -0.1615
  444SOL    MW4 1544   1.162   4.021   1.389 -0.4057 -0.6562 -0.1875
  445SOL     OW 1545   4.555   5.736   0.993 -0.0106 -0.2607 -0.8762
  445SOL    HW2 1546   4.497   5.811   0.974 -1.6712 -1.3882 -0.5185
  445SOL    HW3 1547   4.625   5.772   1.047 -0.6316  1.0858 -0.9281
  445SOL    MW4 1548   4.556   5.750   0.997 -0.3116 -0.2318 -0.8358
  446SOL     OW 1549   0.469   5.390   1.333 -0.5107 -0.2417  0.0290
  446SOL    HW2 1550   0.562   5.416   1.335 -0.8421  0.9714  0.4158
  446SOL    HW3 1551   0.446   5.389   1.240 -0.2918  0.1125 -0.0298
  446SOL    MW4 1552   0.479   5.393   1.321 -0.5255 -0.0349  0.0722
  447SOL     OW 1553   4.337   6.223   5.981  0.4271  0.1265  0.6096
  447SOL    HW2 1554   4.320   6.234   6.074 -1.2939 -0.0508  0.3392
  447SOL    HW3 1555   4.298   6.300   5.940  2.1644  0.7960  0.0945
  447SOL    MW4 1556   4.330   6.235   5.988  0.4293  0.1915  0.5059
  448SOL     OW 1557   4.307   2.217   0.087  0.1071 -0.0292 -0.3812
  448SOL    HW2 1558   4.347   2.274   0.022 -0.1858  0.5181 -0.0876
  448SOL    HW3 1559   4.378   2.160   0.117 -0.1872 -1.8127 -2.7647
  448SOL    MW4 1560   4.321   2.217   0.082  0.0296 -0.1923 -0.6569
  449SOL     OW 1561   2.347   2.682   1.443 -0.7935 -0.0236 -0.5282
  449SOL    HW2 1562   2.253   2.676   1.432 -0.7643 -1.6644 -0.0941
  449SOL    HW3 1563   2.383   2.669   1.355 -0.9778  1.9488 -0.9347
  449SOL    MW4 1564   2.340   2.679   1.430 -0.8140  0.0202 -0.5245
  450SOL     OW 1565   3.757   2.780   4.591 -0.0887 -0.2174 -0.6946
  450SOL    HW2 1566   3.679   2.724   4.583 -2.1633  2.1346  1.2131
  450SOL    HW3 1567   3.757   2.831   4.511 -0.4382 -0.3227 -0.7662
  450SOL    MW4 1568   3.747   2.779   4.580 -0.4085  0.0790 -0.4523
  451SOL     OW 1569   0.058   3.074   4.345 -0.1449  0.1403  0.1401
  451SOL    HW2 1570   0.051   3.069   4.250  2.2326  0.8942 -0.1285
  451SOL    HW3 1571   0.121   3.143   4.361  1.2514 -1.4758  2.1791
  451SOL    MW4 1572   0.065   3.082   4.335  0.3530  0.0266  0.3737
  452SOL     OW 1573   4.692   1.814   1.073  0.6481  0.0644  0.1199
  452SOL    HW2 1574   4.755   1.882   1.051 -1.0413  1.5186 -0.5056
  452SOL    HW3 1575   4.709   1.744   1.011  1.0163  0.8659 -0.7163
  452SOL    MW4 1576   4.702   1.814   1.062  0.4738  0.3620 -0.0730
  453SOL     OW 1577   5.009   6.354   3.721 -0.2044  0.4818  0.0171
  453SOL    HW2 1578   4.956   6.294   3.669  0.3082 -0.3583  0.4327
  453SOL    HW3 1579   4.986   6.334   3.812  1.9707 -1.1015  0.3072
  453SOL    MW4 1580   4.999   6.344   3.726  0.1502  0.1620  0.1102
  454SOL     OW 1581   1.461   6.246   2.040 -0.4865  0.3476  0.2166
  454SOL    HW2 1582   1.514   6.291   2.105 -1.5144  0.5118  0.9730
  454SOL    HW3 1583   1.502   6.160   2.032 -0.7383  0.0605  1.6388
  454SOL    MW4 1584   1.473   6.240   2.048 -0.6554  0.3314  0.5041
  455SOL     OW 1585   1.577   2.068   2.358 -0.4511  0.0409 -0.4153
  455SOL    HW2 1586   1.601   2.039   2.270 -1.1007 -0.8851 -0.2984
  455SOL    HW3 1587   1.642   2.136   2.378  0.8785 -1.0310 -0.8601
  455SOL    MW4 1588   1.589   2.073   2.349 -0.3614 -0.2227 -0.4586
  456SOL     OW 1589   3.725   2.066   2.543 -0.2064 -0.5576  0.5167
  456SOL    HW2 1590   3.686   2.065   2.630  1.8107 -2.4169  1.4988
  456SOL    HW3 1591   3.721   1.974   2.514  2.6615 -0.7097  0.3832
  456SOL    MW4 1592   3.719   2.054   2.550  0.4381 -0.8230  0.6287
  457SOL     OW 1593   4.124   1.920   4.149  0.2003  0.2586  0.3533
  457SOL    HW2 1594   4.133   1.853   4.217 -0.7224 -0.6578 -0.4019
  457SOL    HW3 1595   4.182   1.892   4.079 -0.9351 -0.3204 -0.3832
  457SOL    MW4 1596   4.133   1.908   4.149 -0.0713  0.0613  0.1565
  458SOL     OW 1597   5.311   3.267   0.292 -0.1345  0.4311 -0.1023
  458SOL    HW2 1598   5.236   3.312   0.254 -0.0979 -0.0617 -0.7847
  458SOL    HW3 1599   5.282   3.176   0.303  0.2984  0.2747 -0.2146
  458SOL    MW4 1600   5.298   3.261   0.288 -0.0726  0.3454 -0.2072
  459SOL     OW 1601   0.651   3.552   6.116 -0.1911 -0.4551  0.0628
  459SOL    HW2 1602   0.563   3.588   6.102  0.0955  0.3972  0.4057
  459SOL    HW3 1603   0.710   3.627   6.106  0.2913 -0.4519  2.3705
  459SOL    MW4 1604   0.647   3.567   6.113 -0.0896 -0.3422  0.4125
  460SOL     OW 1605   4.018   0.670   0.358  0.0165  0.3610 -0.7290
  460SOL    HW2 1606   3.937   0.635   0.396 -0.2262  3.1866  1.6936
  460SOL    HW3 1607   3.989   0.729   0.289  0.1067  0.1828 -0.9207
  460SOL    MW4 1608   4.004   0.673   0.354 -0.0036  0.7103 -0.4346
  461SOL     OW 1609   1.763   4.255   5.829 -0.7792  1.1579 -0.1673
  461SOL    HW2 1610   1.765   4.342   5.869  0.3289  1.4039 -0.6984
  461SOL    HW3 1611   1.855   4.238   5.806 -0.9137 -0.3109  0.2660
  461SOL    MW4 1612   1.776   4.264   5.831 -0.6508  0.9966 -0.1802
  462SOL     OW 1613   1.778   4.884   1.615  0.2230  0.2023 -0.2191
  462SOL    HW2 1614   1.687   4.894   1.643  0.6806 -1.8675  2.4398
  462SOL    HW3 1615   1.808   4.973   1.597 -2.2370  0.9306 -0.9948
  462SOL    MW4 1616   1.770   4.897   1.617 -0.0412  0.0253  0.0294
  463SOL     OW 1617   5.268   5.831   1.945 -0.5682  0.1158 -0.7120
  463SOL    HW2 1618   5.284   5.921   1.919 -1.2326  0.4639  0.0208
  463SOL    HW3 1619   5.355   5.794   1.959 -0.2976  0.7929 -0.5505
  463SOL    MW4 1620   5.281   5.838   1.944 -0.6202  0.2511 -0.5940
  464SOL     OW 1621   3.998   2.167   4.872  0.0308 -0.0998  0.1225
  464SOL    HW2 1622   3.972   2.173   4.964 -1.8473 -1.9697 -0.1893
  464SOL    HW3 1623   4.065   2.098   4.871  0.1474  0.0143  0.1048
  464SOL    MW4 1624   4.003   2.159   4.884 -0.2016 -0.3315  0.0790
  465SOL     OW 1625   6.328   2.381   4.318  0.3105 -1.0051 -1.2175
  465SOL    HW2 1626   6.368   2.382   4.405  0.0464  1.0572 -1.0692
  465SOL    HW3 1627   6.311   2.289   4.300 -0.8632 -1.3928  1.4915
  465SOL    MW4 1628   6.331   2.369   4.327  0.1208 -0.7842 -0.8405
  466SOL     OW 1629   4.588   0.092   0.863  0.1307  0.3410  0.4161
  466SOL    HW2 1630   4.603   0.072   0.771  0.5779 -0.0065  0.5580
  466SOL    HW3 1631   4.646   0.167   0.881  0.5685 -0.0300  0.5819
  466SOL    MW4 1632   4.598   0.099   0.853  0.2474  0.2462  0.4567
  467SOL     OW 1633   1.549   5.675   1.203  0.4009  0.0988  0.1694
  467SOL    HW2 1634   1.504   5.601   1.243  0.0013  0.1366 -0.1937
  467SOL    HW3 1635   1.483   5.744   1.200  1.0148  0.7548  1.2815
  467SOL    MW4 1636   1.534   5.674   1.208  0.4292  0.1904  0.2682
  468SOL     OW 1637   3.218   0.148   2.309  1.0085  0.5049 -0.2666
  468SOL    HW2 1638   3.226   0.098   2.390 -0.5294  0.6575  0.0032
  468SOL    HW3 1639   3.304   0.187   2.296  0.7500  2.1890  2.4266
  468SOL    MW4 1640   3.230   0.147   2.318  0.7715  0.7472  0.1243
  469SOL     OW 1641   5.683   4.786   3.444  0.7154  0.2014 -0.2351
  469SOL    HW2 1642   5.689   4.820   3.533  1.2273 -1.9204  0.6134
  469SOL    HW3 1643   5.618   4.841   3.401 -1.2938 -0.1217  2.1623
  469SOL    MW4 1644   5.676   4.798   3.450  0.5178 -0.1212  0.1932
  470SOL     OW 1645   5.221   2.029   0.609 -0.2987 -0.0195 -0.3023
  470SOL    HW2 1646   5.271   2.111   0.607 -0.0015 -0.2093 -1.2302
  470SOL    HW3 1647   5.130   2.056   0.621 -0.0709  0.3686  0.6840
  470SOL    MW4 1648   5.216   2.043   0.611 -0.2294  0.0067 -0.2946
  471SOL     OW 1649   0.518   2.474   4.836 -0.4545 -0.7440  0.2524
  471SOL    HW2 1650   0.498   2.562   4.868 -1.4973 -0.5355 -0.8934
  471SOL    HW3 1651   0.486   2.474   4.746  1.2157 -1.7065 -0.3873
  471SOL    MW4 1652   0.511   2.486   4.828 -0.3717 -0.8435  0.0168
  472SOL     OW 1653   5.707   5.571   4.846 -0.1874  0.4174 -0.4996
  472SOL    HW2 1654   5.640   5.633   4.873  0.7413  1.1874  0.1364
  472SOL    HW3 1655   5.769   5.570   4.919 -0.3517 -1.5425 -0.3458
  472SOL    MW4 1656   5.707   5.579   4.859 -0.0866  0.2604 -0.3954
  473SOL     OW 1657   1.036   4.565   3.025  0.2521  0.2029 -0.1169
  473SOL    HW2 1658   1.026   4.606   2.940 -0.9297  2.1415  0.8961
  473SOL    HW3 1659   1.118   4.601   3.060 -0.3385  1.0676  0.4100
  473SOL    MW4 1660   1.046   4.575   3.018  0.0183  0.5727  0.0863
  474SOL     OW 1661   0.493   1.331   6.359 -0.1538  0.4138  0.4145
  474SOL    HW2 1662   0.504   1.416   6.315  0.2592  0.1427 -0.0141
  474SOL    HW3 1663   0.565   1.328   6.422 -0.2593  0.4465  0.5366
  474SOL    MW4 1664   0.504   1.342   6.361 -0.1133  0.3824  0.3740
  475SOL     OW 1665   0.021   5.238   3.424  0.0646 -0.0275  0.3964
  475SOL    HW2 1666  -0.023   5.310   3.377 -0.0688 -1.1685 -1.3270
  475SOL    HW3 1667   0.081   5.201   3.359  1.3457 -0.4528  1.7783
  475SOL    MW4 1668   0.023   5.243   3.409  0.2161 -0.2341  0.3513
  476SOL     OW 1669   4.807   5.047   5.545 -0.8723 -0.4224  0.3209
  476SOL    HW2 1670   4.775   4.972   5.595 -1.4270 -0.1459  0.3891
  476SOL    HW3 1671   4.900   5.031   5.534 -0.9721 -1.0741  0.4187
  476SOL    MW4 1672   4.815   5.035   5.551 -0.9587 -0.4719  0.3428
  477SOL     OW 1673   1.927   6.265   5.697  0.1831 -0.2064 -0.0392
  477SOL    HW2 1674   1.978   6.346   5.700  0.9158 -0.5634 -1.8291
  477SOL    HW3 1675   1.973   6.206   5.757  1.6374 -0.3562 -1.2461
  477SOL    MW4 1676   1.940   6.268   5.706  0.4716 -0.2733 -0.4346
  478SOL     OW 1677   2.287   4.599   5.383 -0.4756 -0.1877 -0.2938
  478SOL    HW2 1678   2.293   4.637   5.470 -2.9185 -0.5706  0.1141
  478SOL    HW3 1679   2.341   4.520   5.386 -2.0138 -1.2358  1.5030
  478SOL    MW4 1680   2.295   4.594   5.395 -1.0008 -0.3765 -0.0029
  479SOL     OW 1681   0.328   3.032   2.356 -0.0552 -0.1130 -0.3857
  479SOL    HW2 1682   0.251   3.028   2.413  0.3523  0.6970  0.2379
  479SOL    HW3 1683   0.330   3.123   2.325  0.3072 -0.2875 -0.8830
  479SOL    MW4 1684   0.318   3.043   2.360  0.0464 -0.0291 -0.3690
  480SOL     OW 1685   0.072   0.606   1.870  0.2266 -0.2952 -0.0273
  480SOL    HW2 1686   0.076   0.609   1.965 -0.8118 -0.0760  0.0143
  480SOL    HW3 1687   0.164   0.608   1.842  0.5146  1.3593  0.9243
  480SOL    MW4 1688   0.085   0.607   1.879  0.1276 -0.0480  0.1037
  481SOL     OW 1689   1.203   1.394   4.815  0.4357 -0.2917 -0.0178
  481SOL    HW2 1690   1.246   1.325   4.866  0.7709  0.5387  0.8496
  481SOL    HW3 1691   1.242   1.475   4.846 -2.5911  0.6613  1.7425
  481SOL    MW4 1692   1.214   1.396   4.826  0.0806 -0.0564  0.3289
  482SOL     OW 1693   2.830   1.153   6.265  0.8464  0.9557 -0.4777
  482SOL    HW2 1694   2.867   1.157   6.353  1.7742  2.3155 -0.9092
  482SOL    HW3 1695   2.748   1.202   6.270  0.5715  0.4883 -0.2438
  482SOL    MW4 1696   2.824   1.160   6.277  0.9325  1.0734 -0.5037
  483SOL     OW 1697   2.776   5.748   2.348  0.4793 -0.7984 -0.0626
  483SOL    HW2 1698   2.756   5.820   2.288  1.9001 -0.8361 -0.5989
  483SOL    HW3 1699   2.807   5.677   2.292  0.9444 -1.1522  0.6296
  483SOL    MW4 1700   2.777   5.749   2.333  0.7281 -0.8501 -0.0420
  484SOL     OW 1701   1.064   0.198   3.680 -0.1396  0.6202  0.0998
  484SOL    HW2 1702   0.984   0.146   3.671 -0.0052  0.1977  1.1529
  484SOL    HW3 1703   1.120   0.168   3.609 -1.1198  1.3294 -1.0094
  484SOL    MW4 1704   1.061   0.187   3.670 -0.2512  0.6580  0.0924
  485SOL     OW 1705   3.296   2.223   4.655 -0.1341 -0.4039  0.5527
  485SOL    HW2 1706   3.296   2.189   4.744  1.1782 -1.1106  0.3057
  485SOL    HW3 1707   3.346   2.305   4.660  1.0491 -1.0872  0.2616
  485SOL    MW4 1708   3.303   2.229   4.668  0.1951 -0.5873  0.4817
  486SOL     OW 1709   4.757   4.577   3.554 -0.0873 -0.2752  0.4044
  486SOL    HW2 1710   4.747   4.482   3.556  1.4448 -0.4500  1.8591
  486SOL    HW3 1711   4.847   4.591   3.524 -0.5073  0.7562 -0.4182
  486SOL    MW4 1712   4.768   4.566   3.550  0.0594 -0.1622  0.4878
  487SOL     OW 1713   5.674   4.485   0.487  0.3634  0.0096  0.0163
  487SOL    HW2 1714   5.690   4.546   0.558 -0.8789  0.6903 -0.2536
  487SOL    HW3 1715   5.720   4.522   0.412 -0.3253  0.5975 -0.1272
  487SOL    MW4 1716   5.682   4.498   0.486  0.1087  0.1770 -0.0383
  488SOL     OW 1717   2.507   5.221   6.045 -0.2271 -0.2905  0.3100
  488SOL    HW2 1718   2.589   5.249   6.006  0.1153  0.7924  1.7270
  488SOL    HW3 1719   2.449   5.296   6.036 -0.1963 -0.0736  1.6495
  488SOL    MW4 1720   2.510   5.234   6.039 -0.1779 -0.1190  0.6737
  489SOL     OW 1721   1.093   2.281   3.561  0.3549 -0.0506 -0.0829
  489SOL    HW2 1722   1.000   2.291   3.584  0.0609 -3.8245  0.9951
  489SOL    HW3 1723   1.092   2.244   3.472  0.8466  0.2160 -0.2036
  489SOL    MW4 1724   1.080   2.278   3.552  0.3809 -0.5133  0.0434
  490SOL     OW 1725   4.900   4.250   1.010  0.1135 -0.1995  0.5237
  490SOL    HW2 1726   4.893   4.326   0.953  0.1427 -1.0167 -0.6175
  490SOL    HW3 1727   4.929   4.285   1.094 -0.3997  1.0993  0.1846
  490SOL    MW4 1728   4.902   4.264   1.013  0.0496 -0.1359  0.3284
  491SOL     OW 1729   5.975   2.717   2.615  0.4695  0.3614 -0.7692
  491SOL    HW2 1730   6.067   2.744   2.620  0.9217 -1.2414  0.0456
  491SOL    HW3 1731   5.974   2.645   2.552 -0.0237 -0.3986  0.0850
  491SOL    MW4 1732   5.987   2.711   2.608  0.4641  0.0496 -0.5490
  492SOL     OW 1733   4.985   0.974   1.930  0.2281 -0.3719 -0.1480
  492SOL    HW2 1734   4.943   1.000   2.012 -0.3027  0.8809 -0.7942
  492SOL    HW3 1735   5.016   1.056   1.891  0.7940 -0.9812 -1.0324
  492SOL    MW4 1736   4.983   0.988   1.935  0.2327 -0.2870 -0.3500
  493SOL     OW 1737   3.226   6.401   3.613 -0.1442  0.3919  0.0704
  493SOL    HW2 1738   3.308   6.399   3.663  0.0818 -0.3986 -0.3165
  493SOL    HW3 1739   3.195   6.310   3.613 -2.1719  0.9928  2.0571
  493SOL    MW4 1740   3.233   6.388   3.619 -0.3819  0.3669  0.2814
  494SOL     OW 1741   1.846   1.317   0.968  0.7443 -0.2237 -0.2166
  494SOL    HW2 1742   1.884   1.388   1.019 -0.1121 -0.9113  1.4290
  494SOL    HW3 1743   1.800   1.361   0.897 -1.6860  1.0956  2.0169
  494SOL    MW4 1744   1.845   1.332   0.965  0.3106 -0.1404  0.2952
  495SOL     OW 1745   5.502   0.138   0.128  0.0358  0.4484 -0.1714
  495SOL    HW2 1746   5.517   0.177   0.041  0.2905  1.4450  0.3034
  495SOL    HW3 1747   5.513   0.044   0.114 -1.6912  0.4067 -1.5901
  495SOL    MW4 1748   5.506   0.131   0.114 -0.1584  0.5744 -0.2959
  496SOL     OW 1749   4.690   3.566   3.943 -0.1357  0.7046  0.0838
  496SOL    HW2 1750   4.749   3.623   3.993 -2.2241  1.3205  2.0492
  496SOL    HW3 1751   4.604   3.609   3.951 -1.5550 -2.0028  0.4873
  496SOL    MW4 1752   4.686   3.579   3.951 -0.5985  0.4286  0.3963
  497SOL     OW 1753   1.442   2.753   3.141 -0.0111  0.7036 -0.1504
  497SOL    HW2 1754   1.359   2.711   3.166  1.5294 -1.1214  2.3938
  497SOL    HW3 1755   1.483   2.692   3.081  0.2025  0.8301 -0.1324
  497SOL    MW4 1756   1.436   2.740   3.137  0.2203  0.4795  0.1877
  498SOL     OW 1757   6.010   0.587   2.874 -0.0911  0.3966 -0.0735
  498SOL    HW2 1758   5.937   0.531   2.848  0.6689 -1.5226  1.6326
  498SOL    HW3 1759   6.020   0.570   2.968  1.2310  2.1972  0.1486
  498SOL    MW4 1760   6.002   0.577   2.883  0.1836  0.3810  0.1809
  499SOL     OW 1761   3.334   1.804   0.814  0.1411 -0.6277 -0.0852
  499SOL    HW2 1762   3.371   1.730   0.766 -1.1780 -1.4271  0.0658
  499SOL    HW3 1763   3.243   1.779   0.830 -0.9142  1.8561 -1.6725
  499SOL    MW4 1764   3.327   1.791   0.810 -0.1722 -0.4054 -0.2747
  500SOL     OW 1765   6.359   4.196   5.203 -0.3050 -0.2779 -0.7351
  500SOL    HW2 1766   6.290   4.145   5.245 -1.4596  1.0639 -0.9209
  500SOL    HW3 1767   6.415   4.131   5.160 -1.7840 -1.3732 -1.0671
  500SOL    MW4 1768   6.358   4.180   5.203 -0.6525 -0.2454 -0.8034
  501SOL     OW 1769   4.565   1.272   6.393  0.6101  0.0544  0.0786
  501SOL    HW2 1770   4.499   1.341   6.400  0.6358  0.1774 -0.7888
  501SOL    HW3 1771   4.556   1.222   6.474 -0.1575  0.4088  0.2176
  501SOL    MW4 1772   4.555   1.275   6.405  0.5122  0.1174 -0.0175
  502SOL     OW 1773   0.537   1.518   4.468  0.6283  0.2696  1.0543
  502SOL    HW2 1774   0.601   1.551   4.405  0.6355 -2.2765 -0.4009
  502SOL    HW3 1775   0.479   1.592   4.484 -0.0346  0.8007 -2.8378
  502SOL    MW4 1776   0.538   1.532   4.462  0.5418  0.0037  0.3488
  503SOL     OW 1777   1.667   0.230   5.050 -0.6563 -0.6118 -0.1423
  503SOL    HW2 1778   1.688   0.313   5.007 -3.6503  2.1970  3.1765
  503SOL    HW3 1779   1.608   0.186   4.990 -1.8325  1.4178 -0.5623
  503SOL    MW4 1780   1.662   0.235   5.036 -1.2065  0.0266  0.2402
  504SOL     OW 1781   3.442   2.380   1.228 -0.3607 -0.5882  0.2877
  504SOL    HW2 1782   3.447   2.301   1.173  2.7547  0.1298 -0.6557
  504SOL    HW3 1783   3.365   2.427   1.195  2.2094  0.7044 -5.0083
  504SOL    MW4 1784   3.432   2.376   1.216  0.3894 -0.3229 -0.5355
  505SOL     OW 1785   3.203   4.062   3.086  0.2569 -0.2055  0.5718
  505SOL    HW2 1786   3.257   4.136   3.056 -0.9851  0.9734  1.1620
  505SOL    HW3 1787   3.170   4.089   3.172 -1.8045 -0.5858 -0.0434
  505SOL    MW4 1788   3.206   4.075   3.093 -0.1789 -0.1001  0.5685
  506SOL     OW 1789   1.249   5.234   3.209  0.6230 -0.0084 -0.4517
  506SOL    HW2 1790   1.307   5.234   3.134  0.5334 -1.3156 -0.5524
  506SOL    HW3 1791   1.229   5.141   3.223  0.4218  0.2371  1.0099
  506SOL    MW4 1792   1.254   5.222   3.201  0.5846 -0.1485 -0.2722
  507SOL     OW 1793   3.429   2.853   4.892 -0.0664 -0.3466 -0.3177
  507SOL    HW2 1794   3.396   2.798   4.964 -1.0247  0.0371 -0.4483
  507SOL    HW3 1795   3.524   2.853   4.903 -0.1869 -0.4794  0.8168
  507SOL    MW4 1796   3.437   2.846   4.903 -0.2088 -0.3135 -0.1853
  508SOL     OW 1797   2.372   2.444   5.971 -0.4331 -0.1468  1.0502
  508SOL    HW2 1798   2.460   2.455   5.935 -0.2642 -1.1800  1.1123
  508SOL    HW3 1799   2.383   2.453   6.066 -0.2083 -1.2377  1.1445
  508SOL    MW4 1800   2.385   2.446   5.979 -0.3812 -0.4271  1.0709
  509SOL     OW 1801   0.329   4.061   5.794  0.1526  0.2288 -0.3400
  509SOL    HW2 1802   0.283   4.107   5.724 -0.6389  0.7860  0.5146
  509SOL    HW3 1803   0.382   4.128   5.836 -0.4449  0.2209  0.4543
  509SOL    MW4 1804   0.330   4.076   5.791 -0.0307  0.3013 -0.1225
  510SOL     OW 1805   2.094   2.973   5.217  0.2777 -0.0536 -0.1691
  510SOL    HW2 1806   2.002   2.981   5.192  0.3539  2.3834  0.0996
  510SOL    HW3 1807   2.091   2.957   5.312  0.0905  2.1875  0.2582
  510SOL    MW4 1808   2.081   2.971   5.227  0.2631  0.5636 -0.0773
  511SOL     OW 1809   6.156   0.385   0.946  0.2105 -0.1354 -0.4513
  511SOL    HW2 1810   6.089   0.328   0.907 -0.1592 -0.1586  0.1975
  511SOL    HW3 1811   6.183   0.339   1.026 -0.8123  1.0364  0.6230
  511SOL    MW4 1812   6.150   0.372   0.952  0.0268  0.0161 -0.2239
  512SOL     OW 1813   4.014   0.664   6.198 -0.3216  0.3668 -0.0617
  512SOL    HW2 1814   4.028   0.698   6.109 -0.3044 -0.2136 -0.2830
  512SOL    HW3 1815   3.985   0.740   6.248 -4.0840 -0.0081 -1.4028
  512SOL    MW4 1816   4.012   0.678   6.193 -0.8157  0.2407 -0.2678
  513SOL     OW 1817   4.674   3.900   1.037 -0.2827  0.3151  0.3245
  513SOL    HW2 1818   4.599   3.908   0.978 -0.5169 -0.2398  0.5411
  513SOL    HW3 1819   4.674   3.808   1.063  1.4960 -0.1233 -1.0182
  513SOL    MW4 1820   4.664   3.889   1.033 -0.0789  0.1840  0.1759
  514SOL     OW 1821   1.775   3.424   5.935  0.0805  0.0577 -0.3592
  514SOL    HW2 1822   1.689   3.466   5.941  0.6413  1.1027  0.9396
  514SOL    HW3 1823   1.756   3.331   5.945 -0.8364  0.3609  1.1166
  514SOL    MW4 1824   1.761   3.417   5.937  0.0335  0.2356  0.0068
  515SOL     OW 1825   2.882   3.066   4.580 -0.1424  0.1298 -0.1942
  515SOL    HW2 1826   2.842   3.140   4.625  1.8472  1.6270 -0.7729
  515SOL    HW3 1827   2.971   3.094   4.562 -0.2816 -1.1086 -3.4293
  515SOL    MW4 1828   2.888   3.079   4.584  0.1017  0.1639 -0.6974
  516SOL     OW 1829   5.339   6.029   1.056 -0.5592  0.3481 -0.1197
  516SOL    HW2 1830   5.336   5.942   1.014 -0.0829 -1.0249  2.5004
  516SOL    HW3 1831   5.255   6.037   1.100 -0.0222  0.5274  0.8992
  516SOL    MW4 1832   5.328   6.018   1.056 -0.4255  0.1906  0.3604
  517SOL     OW 1833   2.739   2.153   5.152  0.0414  0.1765 -0.1950
  517SOL    HW2 1834   2.765   2.128   5.241  0.9792  0.5995 -0.3455
  517SOL    HW3 1835   2.669   2.091   5.130  0.1298 -0.2432  0.6505
  517SOL    MW4 1836   2.733   2.142   5.161  0.1768  0.1770 -0.1033
  518SOL     OW 1837   1.879   2.534   4.097  0.5755 -0.7736  0.3391
  518SOL    HW2 1838   1.906   2.474   4.027  2.4838 -0.3677  0.6674
  518SOL    HW3 1839   1.958   2.585   4.117  0.0946 -0.8733  2.7988
  518SOL    MW4 1840   1.893   2.533   4.090  0.7638 -0.7332  0.7070
  519SOL     OW 1841   4.746   1.853   3.954 -0.2275 -0.4788  0.5129
  519SOL    HW2 1842   4.670   1.845   3.896  0.3068 -0.6315 -0.1801
  519SOL    HW3 1843   4.734   1.784   4.019  0.7699 -2.4853 -1.2929
  519SOL    MW4 1844   4.734   1.843   3.955 -0.0254 -0.7637  0.1833
  520SOL     OW 1845   1.613   1.232   4.018  0.0863 -0.4500  0.2787
  520SOL    HW2 1846   1.558   1.159   3.991 -0.1470  0.0957 -0.7923
  520SOL    HW3 1847   1.619   1.224   4.113 -1.1999 -0.9787  0.3368
  520SOL    MW4 1848   1.606   1.221   4.027 -0.1142 -0.4478  0.1451
  521SOL     OW 1849   2.469   5.310   2.263  0.1629  0.0318 -0.1129
  521SOL    HW2 1850   2.526   5.320   2.187 -0.8100  0.4422 -0.8013
  521SOL    HW3 1851   2.462   5.397   2.301 -1.9857  0.5436 -1.5100
  521SOL    MW4 1852   2.476   5.323   2.258 -0.2490  0.1535 -0.3880
  522SOL     OW 1853   0.341   1.705   0.605 -0.4948 -0.4072 -0.2630
  522SOL    HW2 1854   0.354   1.610   0.611 -0.2159 -0.3251  0.6468
  522SOL    HW3 1855   0.393   1.740   0.677 -1.5608  0.3490  0.1674
  522SOL    MW4 1856   0.350   1.697   0.615 -0.5986 -0.2966 -0.0862
  523SOL     OW 1857   3.622   0.175   3.553  0.2708  0.0656  0.3905
  523SOL    HW2 1858   3.588   0.112   3.490 -0.3846  0.8139 -0.0302
  523SOL    HW3 1859   3.664   0.242   3.499  0.5698  0.2089  0.8000
  523SOL    MW4 1860   3.623   0.176   3.538  0.2238  0.1832  0.3890
  524SOL     OW 1861   5.592   4.337   5.730 -0.2982  0.4546  0.9817
  524SOL    HW2 1862   5.557   4.423   5.752  1.3909  1.2009  0.8807
  524SOL    HW3 1863   5.686   4.351   5.721 -0.2173 -0.9362 -1.2111
  524SOL    MW4 1864   5.600   4.350   5.732 -0.0647  0.3696  0.6790
  525SOL     OW 1865   5.184   5.371   1.964 -0.7101 -0.2887 -0.1230
  525SOL    HW2 1866   5.254   5.394   1.904 -0.2469 -0.6888  0.2603
  525SOL    HW3 1867   5.155   5.284   1.935  0.5664 -1.1939  1.1506
  525SOL    MW4 1868   5.189   5.362   1.952 -0.4805 -0.4609  0.0956
  526SOL     OW 1869   0.920   4.621   3.620  0.1184  0.0974 -0.0867
  526SOL    HW2 1870   0.942   4.528   3.609  1.1059  0.3327 -0.1957
  526SOL    HW3 1871   0.831   4.620   3.654 -0.7216 -0.8155 -2.1509
  526SOL    MW4 1872   0.911   4.609   3.623  0.1379  0.0080 -0.3734
  527SOL     OW 1873   4.744   5.022   3.846 -0.1084  0.1131 -0.6976
  527SOL    HW2 1874   4.758   5.103   3.798 -1.7814  0.4644 -0.6470
  527SOL    HW3 1875   4.714   4.959   3.781 -0.6390  0.0788 -0.4285
  527SOL    MW4 1876   4.742   5.025   3.831 -0.3992  0.1549 -0.6554
  528SOL     OW 1877   6.102   3.225   1.742  0.0972  0.1560 -0.1021
  528SOL    HW2 1878   6.011   3.244   1.765 -0.4826  0.0761 -2.0993
  528SOL    HW3 1879   6.148   3.220   1.826 -1.4278  1.6771  0.8866
  528SOL    MW4 1880   6.096   3.227   1.756 -0.1805  0.3462 -0.2352
  529SOL     OW 1881   4.529   3.177   6.063 -0.6323  0.2464 -0.4073
  529SOL    HW2 1882   4.544   3.085   6.043 -0.9520  0.0017  0.4206
  529SOL    HW3 1883   4.458   3.177   6.128  1.4938  0.8060  2.1328
  529SOL    MW4 1884   4.522   3.165   6.069 -0.3940  0.2880  0.0371
  530SOL     OW 1885   2.817   5.635   0.207 -0.2883 -0.2408 -0.0057
  530SOL    HW2 1886   2.898   5.629   0.258 -0.2403 -1.1116 -0.1609
  530SOL    HW3 1887   2.800   5.729   0.199 -0.3031 -0.0859  1.6217
  530SOL    MW4 1888   2.826   5.646   0.213 -0.2839 -0.3353  0.1886
  531SOL     OW 1889   4.542   0.191   1.508 -0.0541 -0.3397 -0.5208
  531SOL    HW2 1890   4.521   0.274   1.464 -0.6551  0.3344  0.9583
  531SOL    HW3 1891   4.627   0.166   1.472  1.5954  2.4388  1.0198
  531SOL    MW4 1892   4.550   0.199   1.497  0.0842  0.1158 -0.1223
  532SOL     OW 1893   3.226   0.250   1.050  0.3445  0.5256  0.5482
  532SOL    HW2 1894   3.293   0.292   0.995  0.1261  0.2313  0.0546
  532SOL    HW3 1895   3.155   0.230   0.990  0.0944  0.2135  0.9451
  532SOL    MW4 1896   3.226   0.253   1.035  0.2827  0.4456  0.5354
  533SOL     OW 1897   3.403   4.070   0.592  0.0566  0.0124 -0.3276
  533SOL    HW2 1898   3.385   4.141   0.531 -1.4365 -0.4251 -0.4397
  533SOL    HW3 1899   3.360   3.994   0.554  1.2454 -0.8666  0.0157
  533SOL    MW4 1900   3.395   4.069   0.579  0.0164 -0.1613 -0.2971
  534SOL     OW 1901   1.186   3.547   2.606 -0.3161  0.4083  0.0880
  534SOL    HW2 1902   1.195   3.625   2.551 -2.5123  0.5633 -0.1302
  534SOL    HW3 1903   1.161   3.477   2.545  2.3628 -0.7425  0.1552
  534SOL    MW4 1904   1.184   3.548   2.591 -0.2524  0.2769  0.0681
  535SOL     OW 1905   6.315   0.016   0.047  0.1569  0.5397  0.2162
  535SOL    HW2 1906   6.343   0.039  -0.041 -1.0871  1.1678 -0.0447
  535SOL    HW3 1907   6.259   0.089   0.074  1.3682  0.8651  1.9474
  535SOL    MW4 1908   6.311   0.029   0.039  0.1526  0.6655  0.4102
  536SOL     OW 1909   2.342   6.191   3.722 -0.2643  0.2175  0.4387
  536SOL    HW2 1910   2.247   6.197   3.724 -0.2914 -0.2427  0.7454
  536SOL    HW3 1911   2.361   6.124   3.657 -0.2040 -0.6021  1.2838
  536SOL    MW4 1912   2.332   6.183   3.714 -0.2599  0.0486  0.5907
  537SOL     OW 1913   5.607   1.791   3.907  0.5597 -0.0743  0.1791
  537SOL    HW2 1914   5.562   1.866   3.945  0.7157  0.9986 -1.6338
  537SOL    HW3 1915   5.540   1.722   3.906 -0.4123  0.8340 -0.4542
  537SOL    MW4 1916   5.592   1.792   3.912  0.4520  0.1871 -0.1437
  538SOL     OW 1917   3.933   3.766   3.172  0.3263  0.2304  0.4052
  538SOL    HW2 1918   3.854   3.796   3.217  0.6999 -0.1427  1.3327
  538SOL    HW3 1919   3.945   3.829   3.100 -1.3841 -0.3071 -0.3911
  538SOL    MW4 1920   3.924   3.779   3.169  0.1499  0.1103  0.4225
  539SOL     OW 1921   2.861   5.452   4.220  0.2128  0.0327  0.4563
  539SOL    HW2 1922   2.803   5.527   4.226 -0.1989 -0.3469  1.6918
  539SOL    HW3 1923   2.911   5.465   4.139  0.8270  2.1129  1.1141
  539SOL    MW4 1924   2.860   5.463   4.210  0.2395  0.2570  0.7061
  540SOL     OW 1925   4.653   3.208   2.213  0.3447  0.5809 -0.1347
  540SOL    HW2 1926   4.676   3.298   2.233 -1.4500  0.8711  0.8614
  540SOL    HW3 1927   4.557   3.207   2.211  0.2589 -1.5118  1.1255
  540SOL    MW4 1928   4.643   3.220   2.215  0.0966  0.3431  0.1630
  541SOL     OW 1929   6.095   4.683   2.393  0.8812  0.0994  0.0010
  541SOL    HW2 1930   6.060   4.719   2.311 -0.3570  1.1354  0.9536
  541SOL    HW3 1931   6.120   4.760   2.444 -1.9596 -0.2647  2.1639
  541SOL    MW4 1932   6.094   4.698   2.389  0.3430  0.1880  0.4121
  542SOL     OW 1933   0.228   3.381   3.315  0.1343 -0.2808  0.3664
  542SOL    HW2 1934   0.314   3.417   3.337  0.3001 -0.5109  0.0924
  542SOL    HW3 1935   0.212   3.315   3.382 -1.1200  1.7173  2.2137
  542SOL    MW4 1936   0.237   3.377   3.327 -0.0093 -0.0476  0.5740
  543SOL     OW 1937   2.536   0.768   2.728 -0.0841 -0.8422  0.3254
  543SOL    HW2 1938   2.483   0.806   2.799 -1.0912  0.4234 -1.0485
  543SOL    HW3 1939   2.479   0.768   2.652  0.9162 -2.3672 -0.4740
  543SOL    MW4 1940   2.522   0.773   2.728 -0.0850 -0.8764  0.0387
  544SOL     OW 1941   6.402   4.140   1.676  0.0375 -0.1802  0.1139
  544SOL    HW2 1942   6.433   4.141   1.766 -0.1411 -0.7092  0.1825
  544SOL    HW3 1943   6.388   4.232   1.654  0.4965 -0.0209  0.4815
  544SOL    MW4 1944   6.404   4.152   1.685  0.0745 -0.2290  0.1715
  545SOL     OW 1945   1.813   2.246   5.550  0.0368 -1.0242  0.2956
  545SOL    HW2 1946   1.856   2.330   5.565 -2.6119  0.3084  1.0381
  545SOL    HW3 1947   1.854   2.212   5.471 -0.0340  1.8889 -1.1189
  545SOL    MW4 1948   1.824   2.253   5.542 -0.3220 -0.4640  0.2069
  546SOL     OW 1949   4.638   2.982   4.223 -0.3990 -0.5738 -0.2612
  546SOL    HW2 1950   4.644   3.041   4.298 -0.8525  0.1175 -0.7549
  546SOL    HW3 1951   4.723   2.937   4.220  0.2260  0.5880 -0.3116
  546SOL    MW4 1952   4.650   2.984   4.232 -0.3764 -0.3293 -0.3330
  547SOL     OW 1953   6.416   5.409   2.392  0.1025 -0.3666 -0.8713
  547SOL    HW2 1954   6.510   5.396   2.408  0.2423  0.9067 -0.5517
  547SOL    HW3 1955   6.398   5.496   2.428 -1.7656 -1.5825  1.4182
  547SOL    MW4 1956   6.426   5.418   2.399 -0.1255 -0.3591 -0.5271
  548SOL     OW 1957   2.534   2.989   1.234  0.8298 -0.1370 -0.1858
  548SOL    HW2 1958   2.514   2.937   1.312 -1.1923  2.6759  1.3813
  548SOL    HW3 1959   2.598   2.938   1.186 -1.2595 -4.1935  0.9352
  548SOL    MW4 1960   2.539   2.976   1.238  0.2874 -0.3011  0.1688
  549SOL     OW 1961   6.192   5.653   5.506  0.2993  0.5400 -0.2146
  549SOL    HW2 1962   6.278   5.648   5.466  1.2110  0.1878  1.6885
  549SOL    HW3 1963   6.170   5.746   5.503  0.5784  0.5835 -1.0336
  549SOL    MW4 1964   6.200   5.665   5.500  0.4564  0.4992 -0.0716
  550SOL     OW 1965   5.942   5.237   4.845  0.2205  0.9136  0.5504
  550SOL    HW2 1966   6.014   5.185   4.881  1.0669 -0.1531 -2.4001
  550SOL    HW3 1967   5.984   5.318   4.816  0.2042  0.4737 -0.7727
  550SOL    MW4 1968   5.957   5.241   4.846  0.3300  0.7148 -0.0135
  551SOL     OW 1969   1.203   5.310   4.193 -0.0664 -0.0017  0.4054
  551SOL    HW2 1970   1.190   5.220   4.163 -1.0890 -0.2194  1.4051
  551SOL    HW3 1971   1.171   5.309   4.283 -3.1675  2.0691 -0.5147
  551SOL    MW4 1972   1.197   5.298   4.201 -0.6104  0.2428  0.4159
  552SOL     OW 1973   1.051   6.183   2.986 -0.3140 -0.4993 -0.6127
  552SOL    HW2 1974   1.019   6.180   3.076  1.2696  3.1272  0.2614
  552SOL    HW3 1975   1.035   6.095   2.952  1.1584 -2.8563  3.9312
  552SOL    MW4 1976   1.044   6.171   2.993  0.0892 -0.3318  0.1022
  553SOL     OW 1977   5.703   6.220   1.973 -0.3150  0.0852  0.3105
  553SOL    HW2 1978   5.629   6.268   1.937 -0.4249 -0.8773 -0.8063
  553SOL    HW3 1979   5.668   6.133   1.992  0.3635 -0.1772  0.3935
  553SOL    MW4 1980   5.688   6.215   1.971 -0.2400 -0.0764  0.1741
  554SOL     OW 1981   6.326   3.500   2.225  0.0290  0.3208  0.0528
  554SOL    HW2 1982   6.320   3.585   2.181  2.3260  0.6722  0.2667
  554SOL    HW3 1983   6.338   3.522   2.317 -0.6796 -0.2946  0.2997
  554SOL    MW4 1984   6.327   3.514   2.231  0.2386  0.2860  0.1136
  555SOL     OW 1985   6.304   1.686   2.189  0.3134  0.2605 -0.3708
  555SOL    HW2 1986   6.218   1.714   2.157 -0.8614 -3.6383 -1.1427
  555SOL    HW3 1987   6.352   1.661   2.111  0.6528 -1.2914  0.3011
  555SOL    MW4 1988   6.299   1.687   2.175  0.2031 -0.4587 -0.3840
  556SOL     OW 1989   1.739   6.390   2.078  0.6327 -0.2808 -0.2808
  556SOL    HW2 1990   1.789   6.402   2.159  0.3881  1.5942 -0.3482
  556SOL    HW3 1991   1.781   6.317   2.033  0.7642 -1.3757  1.5307
  556SOL    MW4 1992   1.751   6.382   2.083  0.6178 -0.1779 -0.0507
  557SOL     OW 1993   2.318   6.165   1.128 -0.5255 -0.1477 -0.6783
  557SOL    HW2 1994   2.274   6.237   1.083  1.7905  0.8160 -1.6103
  557SOL    HW3 1995   2.359   6.205   1.205 -1.8511 -1.1648  0.6077
  557SOL    MW4 1996   2.318   6.179   1.132 -0.3948 -0.1548 -0.6316
  558SOL     OW 1997   4.067   0.458   3.034 -0.1129  0.3041 -0.5109
  558SOL    HW2 1998   3.995   0.478   3.093 -0.4842 -0.1619 -0.7977
  558SOL    HW3 1999   4.026   0.453   2.947  0.7401  3.2729 -1.2210
  558SOL    MW4 2000   4.052   0.460   3.030 -0.0493  0.6343 -0.6424
  559SOL     OW 2001   2.815   3.468   4.863 -0.6939  0.0816  0.2415
  559SOL    HW2 2002   2.859   3.548   4.833 -0.7233 -0.7959 -2.3965
  559SOL    HW3 2003   2.860   3.446   4.944 -0.9555  2.9497  1.3005
  559SOL    MW4 2004   2.827   3.476   4.870 -0.7323  0.3442  0.0331
  560SOL     OW 2005   1.841   5.273   3.347  0.1088 -0.0102  0.1788
  560SOL    HW2 2006   1.781   5.199   3.334  0.4902 -0.1160 -1.0906
  560SOL    HW3 2007   1.833   5.293   3.440 -3.1660  1.0914 -0.2059
  560SOL    MW4 2008   1.832   5.266   3.358 -0.2729  0.1212 -0.0395
  561SOL     OW 2009   4.358   5.118   6.312 -0.0359  0.2395 -0.5245
  561SOL    HW2 2010   4.384   5.194   6.261  1.0374 -0.1883 -0.6467
  561SOL    HW3 2011   4.437   5.092   6.360  0.1460 -1.8202 -1.8041
  561SOL    MW4 2012   4.372   5.125   6.312  0.1297 -0.0887 -0.7095
  562SOL     OW 2013   5.661   4.881   5.828  0.6090  0.1503  0.4346
  562SOL    HW2 2014   5.568   4.866   5.848  1.2886 -2.6271  2.0439
  562SOL    HW3 2015   5.684   4.959   5.879 -0.1664 -0.9362  2.5582
  562SOL    MW4 2016   5.652   4.890   5.838  0.5964 -0.3595  0.9271
  563SOL     OW 2017   4.799   6.082   0.177 -0.2449 -0.4039 -0.0673
  563SOL    HW2 2018   4.802   5.995   0.217  0.4456 -0.4151 -0.1261
  563SOL    HW3 2019   4.746   6.134   0.237 -0.2553 -0.7408  0.2194
  563SOL    MW4 2020   4.792   6.077   0.190 -0.1551 -0.4499 -0.0372
  564SOL     OW 2021   0.635   4.527   4.980  0.8072 -1.0909 -0.7158
  564SOL    HW2 2022   0.639   4.511   5.074 -0.4477 -0.9426 -0.6284
  564SOL    HW3 2023   0.723   4.558   4.957  0.7665  0.0502  0.6134
  564SOL    MW4 2024   0.647   4.529   4.989  0.6363 -0.9208 -0.5289
  565SOL     OW 2025   0.169   5.539   3.279 -0.1122 -0.7313 -0.1997
  565SOL    HW2 2026   0.100   5.483   3.243  1.7783 -1.0586 -3.7405
  565SOL    HW3 2027   0.151   5.625   3.242  0.7697 -0.5912 -0.3090
  565SOL    MW4 2028   0.157   5.543   3.269  0.2536 -0.7560 -0.6813
  566SOL     OW 2029   4.073   6.298   0.445  0.1228 -0.0749 -0.5022
  566SOL    HW2 2030   4.079   6.393   0.445  0.4631 -0.0923 -0.1873
  566SOL    HW3 2031   3.981   6.279   0.465  0.5329  0.1845  1.9214
  566SOL    MW4 2032   4.061   6.308   0.448  0.2218 -0.0430 -0.1409
  567SOL     OW 2033   3.748   2.200   0.087 -0.3410  0.2342 -0.6550
  567SOL    HW2 2034   3.686   2.131   0.064 -1.7108  0.9086  0.8361
  567SOL    HW3 2035   3.705   2.250   0.156  1.4145  1.4264 -0.3381
  567SOL    MW4 2036   3.734   2.197   0.093 -0.2901  0.4805 -0.4165
  568SOL     OW 2037   4.409   5.550   4.082 -0.2363  0.0658  0.2335
  568SOL    HW2 2038   4.392   5.456   4.090  1.7269 -0.2415  1.4617
  568SOL    HW3 2039   4.412   5.566   3.988 -1.5110 -0.8852 -0.0040
  568SOL    MW4 2040   4.407   5.539   4.071 -0.1455 -0.1002  0.3642
  569SOL     OW 2041   4.649   1.117   3.567  0.8058  0.6972  0.7204
  569SOL    HW2 2042   4.565   1.152   3.537  0.2595  0.5720  2.0338
  569SOL    HW3 2043   4.668   1.046   3.506 -0.9324 -0.4302  1.4323
  569SOL    MW4 2044   4.641   1.113   3.555  0.5044  0.5319  0.9876
  570SOL     OW 2045   3.201   3.359   5.062 -0.1518  0.4134  0.0353
  570SOL    HW2 2046   3.245   3.436   5.026 -2.1069  0.8828 -1.5239
  570SOL    HW3 2047   3.270   3.293   5.069  1.2914  1.8674  0.1348
  570SOL    MW4 2048   3.216   3.360   5.058 -0.2194  0.6672 -0.1573
  571SOL     OW 2049   1.061   6.207   5.290 -0.4117  0.4341 -0.3205
  571SOL    HW2 2050   1.115   6.228   5.367 -1.0777 -0.5136  0.4203
  571SOL    HW3 2051   0.979   6.256   5.304 -0.2194  0.9328 -0.8635
  571SOL    MW4 2052   1.057   6.216   5.302 -0.4742  0.3748 -0.2944
  572SOL     OW 2053   3.337   5.181   6.429 -0.3258 -0.6084 -0.0943
  572SOL    HW2 2054   3.364   5.090   6.419 -1.9136 -1.0868 -0.2709
  572SOL    HW3 2055   3.266   5.192   6.366 -0.1566  0.7559 -0.0767
  572SOL    MW4 2056   3.331   5.171   6.419 -0.5130 -0.4915 -0.1153
  573SOL     OW 2057   3.368   3.960   5.696 -0.2240 -0.1209  0.2742
  573SOL    HW2 2058   3.301   3.928   5.757 -0.7251  1.2604  0.4656
  573SOL    HW3 2059   3.394   4.045   5.731  0.7072 -0.0605 -0.5269
  573SOL    MW4 2060   3.363   3.967   5.709 -0.1672  0.0693  0.1937
  574SOL     OW 2061   1.164   0.581   0.127 -0.2197 -0.0427  0.7887
  574SOL    HW2 2062   1.185   0.490   0.146  0.3427  0.1905  1.3100
  574SOL    HW3 2063   1.235   0.611   0.071 -0.7213 -0.0947  0.1177
  574SOL    MW4 2064   1.176   0.573   0.122 -0.2117 -0.0188  0.7689
  575SOL     OW 2065   3.117   0.406   3.419  0.4749  0.1631  0.0265
  575SOL    HW2 2066   3.087   0.457   3.344 -1.3978 -0.3115  0.3870
  575SOL    HW3 2067   3.134   0.472   3.487  0.3935  0.4786 -0.2558
  575SOL    MW4 2068   3.115   0.422   3.418  0.2171  0.1421  0.0368
  576SOL     OW 2069   4.853   3.983   3.965  0.3958 -0.0938  0.0336
  576SOL    HW2 2070   4.761   4.003   3.950  0.5966 -0.2339 -1.5391
  576SOL    HW3 2071   4.889   4.063   4.002 -0.1601  0.3031 -0.2700
  576SOL    MW4 2072   4.846   3.996   3.968  0.3490 -0.0599 -0.2140
  577SOL     OW 2073   1.881   3.509   2.459 -0.0826  0.1951  0.3802
  577SOL    HW2 2074   1.932   3.513   2.541 -0.3944  1.0286  0.5349
  577SOL    HW3 2075   1.882   3.416   2.436 -0.4464 -0.1302  1.6212
  577SOL    MW4 2076   1.888   3.497   2.467 -0.1717  0.2621  0.5643
  578SOL     OW 2077   2.380   0.887   0.915 -0.5516  0.1101 -0.2311
  578SOL    HW2 2078   2.424   0.953   0.970  0.1651 -1.2040  0.8447
  578SOL    HW3 2079   2.397   0.916   0.826  0.6756  0.8202  0.1977
  578SOL    MW4 2080   2.388   0.900   0.911 -0.2951  0.0304 -0.0326
  579SOL     OW 2081   0.052   4.968   5.241  0.7170 -0.2412  0.8093
  579SOL    HW2 2082   0.010   4.884   5.222 -1.0027  1.1681 -2.5431
  579SOL    HW3 2083  -0.012   5.015   5.294 -0.8645  0.8273 -1.8654
  579SOL    MW4 2084   0.038   4.963   5.245  0.2815  0.0857  0.0141
  580SOL     OW 2085   2.693   2.018   2.689 -0.2376  0.6581 -0.2982
  580SOL    HW2 2086   2.624   1.972   2.736  0.9376 -0.5261  0.3466
  580SOL    HW3 2087   2.656   2.036   2.603 -1.4034  0.2250  0.0945
  580SOL    MW4 2088   2.679   2.014   2.684 -0.2363  0.4447 -0.1613
  581SOL     OW 2089   2.090   5.992   1.586 -1.0144  0.2577  0.9312
  581SOL    HW2 2090   2.006   5.989   1.540 -1.3772  1.5465  1.4940
  581SOL    HW3 2091   2.073   6.044   1.664 -0.2762 -1.4760  2.3112
  581SOL    MW4 2092   2.077   5.998   1.590 -0.9649  0.1990  1.1875
  582SOL     OW 2093   1.441   5.257   5.832 -0.3489 -0.2080 -0.2786
  582SOL    HW2 2094   1.392   5.281   5.911  2.2375  1.3032  1.0042
  582SOL    HW3 2095   1.441   5.337   5.779 -1.6289 -1.0605 -1.6324
  582SOL    MW4 2096   1.434   5.271   5.835 -0.1765 -0.1211 -0.2880
  583SOL     OW 2097   4.137   1.620   3.165  0.3910  0.2659  0.1508
  583SOL    HW2 2098   4.069   1.651   3.105 -0.0256 -0.6016  0.1663
  583SOL    HW3 2099   4.198   1.571   3.110  1.5728  1.8515 -0.0409
  583SOL    MW4 2100   4.136   1.618   3.150  0.4919  0.3607  0.1276
  584SOL     OW 2101   0.429   0.700   1.374  0.2154  0.0150 -0.0899
  584SOL    HW2 2102   0.480   0.780   1.374 -0.6501  0.6666 -2.7154
  584SOL    HW3 2103   0.414   0.680   1.282 -0.1241 -2.8609  0.4649
  584SOL    MW4 2104   0.434   0.708   1.362  0.0564 -0.2785 -0.3631
  585SOL     OW 2105   3.746   2.580   6.383 -0.4494 -0.0114  0.2038
  585SOL    HW2 2106   3.715   2.662   6.422 -1.6946 -0.0785 -0.5662
  585SOL    HW3 2107   3.699   2.575   6.299  1.4071 -0.3493 -0.8669
  585SOL    MW4 2108   3.735   2.590   6.377 -0.3688 -0.0648 -0.0390
  586SOL     OW 2109   2.794   2.051   4.775 -0.6451  0.5631  0.1795
  586SOL    HW2 2110   2.835   2.041   4.861 -3.7473  1.3173  1.8651
  586SOL    HW3 2111   2.798   1.964   4.736 -0.9034 -0.2449  1.9070
  586SOL    MW4 2112   2.800   2.039   4.781 -1.0885  0.5560  0.6298
  587SOL     OW 2113   1.024   5.048   4.712  0.2785  0.0857  0.4379
  587SOL    HW2 2114   1.053   5.134   4.743 -1.1687  1.1042 -0.8665
  587SOL    HW3 2115   0.955   5.068   4.648  0.8525 -1.9949 -0.9272
  587SOL    MW4 2116   1.019   5.062   4.707  0.1633 -0.0544  0.0857
  588SOL     OW 2117   5.609   1.855   3.630  0.2175 -0.0507 -0.1137
  588SOL    HW2 2118   5.603   1.854   3.726 -0.3958  1.1200 -0.1187
  588SOL    HW3 2119   5.525   1.890   3.601  0.1123 -1.0812 -1.1344
  588SOL    MW4 2120   5.597   1.860   3.639  0.1227 -0.0322 -0.2490
  589SOL     OW 2121   3.520   0.800   2.590 -0.5016 -0.0834 -0.0288
  589SOL    HW2 2122   3.503   0.789   2.497  1.9475  0.6308 -0.6392
  589SOL    HW3 2123   3.585   0.870   2.595  1.2906 -1.7202  1.9901
  589SOL    MW4 2124   3.527   0.808   2.579  0.0580 -0.2051  0.1570
  590SOL     OW 2125   5.050   1.130   0.224  0.1863  0.3948  0.2923
  590SOL    HW2 2126   5.076   1.180   0.146  2.4351 -0.0885  0.6538
  590SOL    HW3 2127   5.122   1.144   0.286 -0.7956 -0.5120  1.7009
  590SOL    MW4 2128   5.063   1.139   0.222  0.3535  0.2114  0.5258
  591SOL     OW 2129   2.588   6.100   0.216  0.3665 -0.4640 -0.2937
  591SOL    HW2 2130   2.583   6.114   0.311  0.2676  1.0058 -0.5008
  591SOL    HW3 2131   2.497   6.095   0.188  0.3871 -0.0430 -0.4331
  591SOL    MW4 2132   2.575   6.101   0.225  0.3562 -0.2145 -0.3394
  592SOL     OW 2133   5.323   0.772   3.012 -0.5129 -0.3043  0.0047
  592SOL    HW2 2134   5.244   0.801   3.060 -1.3103  0.9693 -1.9588
  592SOL    HW3 2135   5.375   0.727   3.078 -2.5535 -0.5518  1.5558
  592SOL    MW4 2136   5.319   0.770   3.027 -0.8874 -0.1689 -0.0497
  593SOL     OW 2137   0.998   5.111   1.431 -0.3653 -0.0931  0.2549
  593SOL    HW2 2138   1.075   5.071   1.471 -0.0489 -0.2323 -0.4787
  593SOL    HW3 2139   1.016   5.205   1.434 -0.4602 -0.0862  0.6679
  593SOL    MW4 2140   1.011   5.118   1.437 -0.3361 -0.1106  0.2126
  594SOL     OW 2141   5.728   4.316   4.305  0.3185  0.0504  0.3894
  594SOL    HW2 2142   5.633   4.310   4.321  0.1841  0.0242 -0.3745
  594SOL    HW3 2143   5.764   4.344   4.389 -0.1738 -1.5617  1.1848
  594SOL    MW4 2144   5.720   4.319   4.318  0.2359 -0.1658  0.3936
  595SOL     OW 2145   4.862   3.012   3.919 -0.6373  0.4774 -0.0558
  595SOL    HW2 2146   4.913   3.076   3.868  1.4866 -0.9984  0.0707
  595SOL    HW3 2147   4.889   3.026   4.009  0.0633 -0.7253 -0.0561
  595SOL    MW4 2148   4.872   3.022   3.924 -0.2646  0.1240 -0.0392
  596SOL     OW 2149   3.799   4.210   1.482  0.3037  0.3222  0.5065
  596SOL    HW2 2150   3.874   4.188   1.426 -0.5741 -1.4500 -0.0352
  596SOL    HW3 2151   3.735   4.248   1.421  0.1802  0.4146  0.6946
  596SOL    MW4 2152   3.801   4.212   1.467  0.1716  0.1006  0.4599
  597SOL     OW 2153   0.493   3.100   4.434  0.0398 -0.8686  0.0872
  597SOL    HW2 2154   0.573   3.153   4.441 -0.0233 -0.4743 -1.7041
  597SOL    HW3 2155   0.492   3.070   4.343 -1.6924 -1.1313  0.1639
  597SOL    MW4 2156   0.504   3.103   4.423 -0.1971 -0.8513 -0.1390
  598SOL     OW 2157   1.689   5.323   6.327  0.1605 -0.2779  0.0183
  598SOL    HW2 2158   1.744   5.245   6.316  1.2261  0.4523 -0.0420
  598SOL    HW3 2159   1.749   5.389   6.360 -0.3894  0.9334 -1.3303
  598SOL    MW4 2160   1.704   5.321   6.330  0.2285 -0.0217 -0.1676
  599SOL     OW 2161   2.227   3.701   4.138 -0.2429 -0.5797 -0.4156
  599SOL    HW2 2162   2.251   3.634   4.203 -1.5066  0.1322  0.8484
  599SOL    HW3 2163   2.310   3.727   4.099  0.3711 -2.3234 -0.3948
  599SOL    MW4 2164   2.241   3.695   4.141 -0.3286 -0.7158 -0.2460
  600SOL     OW 2165   3.874   4.534   0.716 -0.0643  0.2677 -0.7977
  600SOL    HW2 2166   3.782   4.521   0.738  0.2878 -1.7963 -0.3257
  600SOL    HW3 2167   3.876   4.536   0.620 -0.4393 -1.4917 -0.8812
  600SOL    MW4 2168   3.862   4.532   0.706 -0.0673 -0.2367 -0.7464
  601SOL     OW 2169   4.073   6.030   4.763 -0.3092 -0.3839 -0.4177
  601SOL    HW2 2170   4.121   5.949   4.780  0.8272  0.8069  2.6059
  601SOL    HW3 2171   3.981   6.007   4.781 -0.0862 -1.1475 -0.2055
  601SOL    MW4 2172   4.067   6.016   4.768 -0.1298 -0.3275  0.0093
  602SOL     OW 2173   0.489   5.776   3.731 -0.2523  0.3833 -0.0922
  602SOL    HW2 2174   0.571   5.732   3.756 -0.6576 -0.6742 -0.5781
  602SOL    HW3 2175   0.427   5.751   3.799 -0.4107  0.4347 -0.2194
  602SOL    MW4 2176   0.492   5.767   3.743 -0.3266  0.2506 -0.1731
  603SOL     OW 2177   4.890   3.831   0.708 -0.1065  0.2046 -0.2998
  603SOL    HW2 2178   4.909   3.902   0.647  0.3103 -0.2909 -0.7563
  603SOL    HW3 2179   4.885   3.874   0.794 -2.2045  1.1592 -0.8343
  603SOL    MW4 2180   4.892   3.846   0.712 -0.3283  0.2651 -0.4305
  604SOL     OW 2181   3.901   1.205   2.086 -0.1553 -0.1526 -0.5823
  604SOL    HW2 2182   3.979   1.221   2.032  0.2506 -0.9557 -0.2579
  604SOL    HW3 2183   3.874   1.116   2.061 -1.2772  0.3095 -1.0622
  604SOL    MW4 2184   3.908   1.195   2.075 -0.2497 -0.1976 -0.6028
  605SOL     OW 2185   0.794   3.338   0.626 -0.1453 -0.4929  0.3895
  605SOL    HW2 2186   0.857   3.305   0.561  0.3830  1.0350  0.0848
  605SOL    HW3 2187   0.844   3.341   0.708  0.4401  1.3702  0.0082
  605SOL    MW4 2188   0.809   3.334   0.628  0.0016 -0.0455  0.2990
  606SOL     OW 2189   2.555   0.070   5.989 -0.1081 -0.0297 -0.0754
  606SOL    HW2 2190   2.548   0.051   6.082  1.6948  1.5770  0.4559
  606SOL    HW3 2191   2.510   0.153   5.978  1.2748  0.7217 -0.2442
  606SOL    MW4 2192   2.548   0.078   6.000  0.3122  0.2814 -0.0275
  607SOL     OW 2193   2.539   1.353   3.279  0.1961 -0.4731 -0.1389
  607SOL    HW2 2194   2.519   1.443   3.256  0.1524 -0.5085 -0.2431
  607SOL    HW3 2195   2.453   1.312   3.293  0.2468 -0.2265  0.9894
  607SOL    MW4 2196   2.525   1.359   3.277  0.1970 -0.4452 -0.0038
  608SOL     OW 2197   5.964   3.983   0.067 -0.0905 -0.4711  0.5345
  608SOL    HW2 2198   5.931   3.915   0.008 -0.1423  1.9303 -2.4580
  608SOL    HW3 2199   6.059   3.977   0.059 -0.0853 -0.4709  0.5991
  608SOL    MW4 2200   5.972   3.974   0.058 -0.0966 -0.1542  0.1482
  609SOL     OW 2201   5.140   6.194   2.553 -0.2768 -0.2106 -0.1396
  609SOL    HW2 2202   5.139   6.202   2.457 -0.8260 -0.9606 -0.2118
  609SOL    HW3 2203   5.130   6.100   2.569  3.3458 -0.6112  0.6291
  609SOL    MW4 2204   5.138   6.183   2.542  0.1287 -0.3624 -0.0477
  610SOL     OW 2205   2.526   4.861   0.962  0.0679  0.1059 -0.6084
  610SOL    HW2 2206   2.509   4.955   0.952  0.1107  0.4091  1.7233
  610SOL    HW3 2207   2.569   4.854   1.047  1.3524 -1.8910 -1.3734
  610SOL    MW4 2208   2.530   4.873   0.972  0.2431 -0.1176 -0.4017
  611SOL     OW 2209   2.377   0.444   4.102  0.6231  0.2080 -0.0031
  611SOL    HW2 2210   2.423   0.396   4.032 -0.2268 -0.2067 -0.2835
  611SOL    HW3 2211   2.328   0.377   4.149 -0.2054  0.7289 -0.1030
  611SOL    MW4 2212   2.377   0.429   4.099  0.4017  0.2220 -0.0532
  612SOL     OW 2213   0.633   0.195   0.616 -0.2609 -0.2039 -0.2686
  612SOL    HW2 2214   0.596   0.277   0.646 -0.9933 -0.3143 -0.8377
  612SOL    HW3 2215   0.612   0.192   0.522 -1.4079 -1.6322 -0.0082
  612SOL    MW4 2216   0.625   0.205   0.607 -0.5089 -0.4069 -0.3094
  613SOL     OW 2217   1.983   3.218   5.765  0.0808 -0.2211  0.2659
  613SOL    HW2 2218   1.964   3.311   5.750 -3.5168 -1.0090 -0.9660
  613SOL    HW3 2219   1.977   3.178   5.678  0.6695 -1.7447  0.9008
  613SOL    MW4 2220   1.980   3.225   5.751 -0.3162 -0.5261  0.1872
  614SOL     OW 2221   0.539   5.662   5.232 -0.3727 -0.3992 -0.1997
  614SOL    HW2 2222   0.620   5.711   5.246 -0.6064 -0.2363  0.6054
  614SOL    HW3 2223   0.470   5.728   5.232 -0.8944 -0.8285  2.6716
  614SOL    MW4 2224   0.541   5.677   5.234 -0.4724 -0.4344  0.2854
  615SOL     OW 2225   6.408   1.195   5.230  0.3059 -0.5651 -0.1892
  615SOL    HW2 2226   6.460   1.168   5.306 -0.3996 -2.1209 -0.2395
  615SOL    HW3 2227   6.424   1.289   5.223  0.0174 -0.2836  2.1659
  615SOL    MW4 2228   6.417   1.204   5.239  0.1747 -0.7332  0.1149
  616SOL     OW 2229   1.334   3.889   2.907  0.1163 -0.1164  0.4470
  616SOL    HW2 2230   1.418   3.912   2.946  1.3843 -1.2856 -1.4338
  616SOL    HW3 2231   1.352   3.811   2.855 -1.9827  0.0166 -0.5917
  616SOL    MW4 2232   1.347   3.881   2.905  0.0067 -0.2531  0.0618
  617SOL     OW 2233   3.711   5.710   6.035  0.5023  0.2813 -0.0370
  617SOL    HW2 2234   3.703   5.738   6.126  0.7993 -1.1495  0.4594
  617SOL    HW3 2235   3.625   5.726   5.997  0.6862  1.8812  0.1856
  617SOL    MW4 2236   3.699   5.716   6.042  0.5658  0.3036  0.0578
  618SOL     OW 2237   1.516   3.383   1.386 -0.4476  0.3911 -0.4922
  618SOL    HW2 2238   1.601   3.349   1.356 -0.4129  0.8556 -0.9136
  618SOL    HW3 2239   1.482   3.433   1.313 -1.5376 -0.5697 -0.6747
  618SOL    MW4 2240   1.523   3.385   1.373 -0.5868  0.3256 -0.5719
  619SOL     OW 2241   1.667   5.860   0.150 -0.3409 -0.3145  0.4237
  619SOL    HW2 2242   1.587   5.890   0.191 -0.7600 -1.6227  0.5978
  619SOL    HW3 2243   1.638   5.801   0.080  0.4506 -0.5088  0.2440
  619SOL    MW4 2244   1.653   5.856   0.146 -0.2918 -0.5128  0.4230
  620SOL     OW 2245   3.776   5.514   3.597  0.2066 -0.2772 -0.4524
  620SOL    HW2 2246   3.816   5.593   3.634  1.0970 -1.3988  1.1019
  620SOL    HW3 2247   3.699   5.499   3.651 -0.2298 -0.2053 -1.0529
  620SOL    MW4 2248   3.771   5.523   3.609  0.2665 -0.4157 -0.3265
  621SOL     OW 2249   6.136   3.791   5.871 -0.0723  0.2850 -0.0050
  621SOL    HW2 2250   6.088   3.722   5.826  1.9086 -0.7389 -0.6923
  621SOL    HW3 2251   6.181   3.746   5.943  0.5855  1.0011  0.0518
  621SOL    MW4 2252   6.136   3.776   5.874  0.2758  0.2444 -0.0882
  622SOL     OW 2253   3.160   2.628   1.422 -0.3923  0.0733 -0.0450
  622SOL    HW2 2254   3.240   2.637   1.371 -0.3212  1.3618  0.2819
  622SOL    HW3 2255   3.188   2.586   1.504 -0.4154 -1.4432 -0.7716
  622SOL    MW4 2256   3.174   2.623   1.426 -0.3860  0.0432 -0.0977
  623SOL     OW 2257   4.488   1.204   4.754 -0.3871  0.2372 -0.4354
  623SOL    HW2 2258   4.416   1.159   4.709  0.0586 -1.7664  0.7550
  623SOL    HW3 2259   4.567   1.160   4.723  0.2078  1.2571 -0.4061
  623SOL    MW4 2260   4.489   1.193   4.744 -0.2498  0.1074 -0.2745
  624SOL     OW 2261   2.122   4.519   6.232 -0.3004 -0.6622  0.4149
  624SOL    HW2 2262   2.143   4.466   6.155 -1.4901 -0.9994  0.3046
  624SOL    HW3 2263   2.107   4.607   6.197  0.2483 -0.5723  0.4064
  624SOL    MW4 2264   2.123   4.524   6.217 -0.3850 -0.6948  0.3992
  625SOL     OW 2265   4.019   4.037   4.967 -0.0175  0.1970 -0.4025
  625SOL    HW2 2266   3.935   4.081   4.980  0.3351  0.3381  1.5915
  625SOL    HW3 2267   3.998   3.959   4.916 -1.0428  1.2412 -1.6518
  625SOL    MW4 2268   4.005   4.033   4.962 -0.1062  0.3534 -0.3042
  626SOL     OW 2269   6.395   1.493   5.961 -0.2050 -0.0077 -0.2817
  626SOL    HW2 2270   6.370   1.551   6.033 -1.9249 -0.0764 -0.7774
  626SOL    HW3 2271   6.312   1.458   5.928  0.4178  0.6263 -2.7787
  626SOL    MW4 2272   6.381   1.496   5.966 -0.3497  0.0669 -0.6765
  627SOL     OW 2273   3.402   1.974   4.351 -0.4548 -0.6107  0.9620
  627SOL    HW2 2274   3.363   1.887   4.363 -1.4626 -0.0985  1.5145
  627SOL    HW3 2275   3.413   2.008   4.440  3.3958 -1.5861  1.0256
  627SOL    MW4 2276   3.398   1.967   4.364 -0.0797 -0.6718  1.0433
  628SOL     OW 2277   3.076   5.197   3.910 -0.6834 -0.2075 -0.4426
  628SOL    HW2 2278   3.053   5.132   3.977  0.0719 -0.9363 -0.8847
  628SOL    HW3 2279   3.044   5.280   3.946  0.1090 -0.5098  1.0519
  628SOL    MW4 2280   3.069   5.200   3.924 -0.4792 -0.3436 -0.3037
  629SOL     OW 2281   1.638   5.309   2.134  0.4516  0.3995  0.1754
  629SOL    HW2 2282   1.663   5.394   2.168  1.1645 -0.4453  1.8876
  629SOL    HW3 2283   1.628   5.254   2.211 -1.5242 -0.6955 -0.7782
  629SOL    MW4 2284   1.640   5.313   2.148  0.2850  0.1436  0.2755
  630SOL     OW 2285   0.998   5.254   3.102  0.4031  0.2947 -0.2702
  630SOL    HW2 2286   1.089   5.259   3.134  0.3790 -0.6457 -0.0090
  630SOL    HW3 2287   0.996   5.175   3.047 -0.1594  0.5347 -0.6019
  630SOL    MW4 2288   1.010   5.244   3.099  0.3257  0.2023 -0.2795
  631SOL     OW 2289   5.412   2.069   5.842 -0.0960 -0.4068 -0.2557
  631SOL    HW2 2290   5.438   2.054   5.932  1.6447 -0.2384 -0.6941
  631SOL    HW3 2291   5.489   2.047   5.790  0.2574  2.9706 -1.4465
  631SOL    MW4 2292   5.426   2.064   5.847  0.1803  0.0610 -0.4706
  632SOL     OW 2293   2.922   4.080   4.626  0.2571  0.0492 -0.1731
  632SOL    HW2 2294   2.914   4.174   4.644  0.2120 -0.1880  1.1007
  632SOL    HW3 2295   3.012   4.058   4.653  0.8822  0.0469 -2.0726
  632SOL    MW4 2296   2.933   4.089   4.632  0.3336  0.0176 -0.2556
  633SOL     OW 2297   2.514   2.528   0.431  1.2156  0.4497  0.0444
  633SOL    HW2 2298   2.501   2.517   0.337  0.7350  1.5788 -0.0380
  633SOL    HW3 2299   2.519   2.623   0.443 -0.9034  0.4461  1.4185
  633SOL    MW4 2300   2.513   2.539   0.420  0.8726  0.5982  0.2148
  634SOL     OW 2301   6.229   2.252   0.843 -0.2238 -0.0891 -0.3522
  634SOL    HW2 2302   6.159   2.291   0.791 -0.9885  0.1849  0.8587
  634SOL    HW3 2303   6.236   2.162   0.809  0.6673  0.6595 -2.2645
  634SOL    MW4 2304   6.221   2.245   0.832 -0.2071  0.0459 -0.4448
  635SOL     OW 2305   3.743   0.211   2.365 -0.1541  0.0850  0.4919
  635SOL    HW2 2306   3.713   0.302   2.356  1.0299  0.4366 -0.0299
  635SOL    HW3 2307   3.753   0.199   2.459  1.2924  1.0544  0.4901
  635SOL    MW4 2308   3.740   0.222   2.376  0.1930  0.2593  0.4228
  636SOL     OW 2309   6.111   5.627   2.805  0.5065  0.2419  0.1228
  636SOL    HW2 2310   6.201   5.605   2.830  0.7213 -1.0302 -1.5659
  636SOL    HW3 2311   6.090   5.565   2.735 -1.9209  0.0897  0.8833
  636SOL    MW4 2312   6.120   5.616   2.799  0.2146  0.0540  0.0003
  637SOL     OW 2313   3.794   5.429   3.939  0.2108 -0.5402  0.0283
  637SOL    HW2 2314   3.754   5.347   3.911 -0.5161 -0.2475  0.2042
  637SOL    HW3 2315   3.884   5.404   3.963 -0.0680 -1.3198  0.2890
  637SOL    MW4 2316   3.801   5.415   3.939  0.0781 -0.6044  0.0859
  638SOL     OW 2317   4.843   3.756   3.652 -0.2407  0.1233 -0.3221
  638SOL    HW2 2318   4.896   3.834   3.671  0.9919 -0.7073 -0.2383
  638SOL    HW3 2319   4.754   3.781   3.677  0.2240  1.3203  0.2222
  638SOL    MW4 2320   4.838   3.770   3.658 -0.0167  0.1717 -0.2393
  639SOL     OW 2321   5.749   1.683   1.652 -0.3602 -0.0514 -0.0119
  639SOL    HW2 2322   5.733   1.670   1.746 -1.3654  0.7758 -0.0575
  639SOL    HW3 2323   5.756   1.777   1.642 -0.3513 -0.1306 -0.7859
  639SOL    MW4 2324   5.748   1.693   1.663 -0.4917  0.0473 -0.1200
  640SOL     OW 2325   6.043   0.807   0.473  0.3692  0.0161  0.4176
  640SOL    HW2 2326   6.109   0.828   0.407  1.0170  1.1564  1.3940
  640SOL    HW3 2327   5.960   0.820   0.428  0.7624 -1.4755 -0.8427
  640SOL    MW4 2328   6.041   0.812   0.458  0.5065 -0.0302  0.3801
  641SOL     OW 2329   3.408   5.368   0.191 -0.0158  0.2826  0.2953
  641SOL    HW2 2330   3.471   5.323   0.248  2.0725  0.8389 -1.4444
  641SOL    HW3 2331   3.383   5.302   0.126  0.1478  0.5589 -0.0503
  641SOL    MW4 2332   3.413   5.353   0.190  0.2813  0.3925  0.0202
  642SOL     OW 2333   3.697   0.371   2.941 -0.0221 -0.0471  0.1929
  642SOL    HW2 2334   3.743   0.295   2.905 -1.3396 -0.7414 -0.1058
  642SOL    HW3 2335   3.694   0.433   2.869  2.6880  1.1321  0.9639
  642SOL    MW4 2336   3.703   0.369   2.927  0.1617  0.0169  0.2552
  643SOL     OW 2337   2.292   6.197   2.700  0.1652 -0.6700 -0.2496
  643SOL    HW2 2338   2.254   6.190   2.787  0.5338  0.9213  0.0834
  643SOL    HW3 2339   2.334   6.284   2.699 -0.1271 -0.4963 -2.1210
  643SOL    MW4 2340   2.293   6.208   2.711  0.1752 -0.4371 -0.4526
  644SOL     OW 2341   4.762   4.748   6.407  0.7264  0.1836  0.8322
  644SOL    HW2 2342   4.840   4.696   6.384  0.7634 -0.8815  3.0737
  644SOL    HW3 2343   4.688   4.692   6.385  0.4697  1.4229 -1.8462
  644SOL    MW4 2344   4.763   4.734   6.401  0.6974  0.2066  0.7746
  645SOL     OW 2345   4.557   3.688   0.098 -0.3823 -0.0044  0.2568
  645SOL    HW2 2346   4.614   3.731   0.162  2.5181 -0.7228 -1.6637
  645SOL    HW3 2347   4.553   3.597   0.126 -1.4413  0.2142  0.8941
  645SOL    MW4 2348   4.564   3.682   0.110 -0.1393 -0.0704  0.0875
  646SOL     OW 2349   2.111   1.972   1.969  0.3938  0.0541 -0.1425
  646SOL    HW2 2350   2.053   2.017   1.907  0.3576  0.7375  0.3803
  646SOL    HW3 2351   2.121   2.033   2.041 -1.1403 -1.4609  1.4688
  646SOL    MW4 2352   2.105   1.986   1.970  0.1866 -0.0557  0.1391
  647SOL     OW 2353   3.042   2.374   0.679  0.0168  0.2236 -0.0033
  647SOL    HW2 2354   3.084   2.397   0.596  0.2326 -1.0720 -0.2628
  647SOL    HW3 2355   2.972   2.313   0.656  0.8071 -1.0577  0.8619
  647SOL    MW4 2356   3.038   2.369   0.665  0.1495 -0.1164  0.0766
  648SOL     OW 2357   0.982   3.015   1.388 -0.0544 -0.0462 -0.6192
  648SOL    HW2 2358   1.072   3.044   1.400  0.4852 -1.1317 -1.8187
  648SOL    HW3 2359   0.930   3.095   1.391  1.2073  0.9142 -2.3350
  648SOL    MW4 2360   0.987   3.029   1.390  0.1832 -0.0627 -1.0039
  649SOL     OW 2361   4.083   2.844   4.920 -0.1560  0.1104  0.3589
  649SOL    HW2 2362   4.039   2.776   4.971  0.4275 -0.1296  0.5499
  649SOL    HW3 2363   4.032   2.923   4.936 -1.6973 -0.5474 -0.9635
  649SOL    MW4 2364   4.070   2.845   4.929 -0.2823 -0.0081  0.2096
  650SOL     OW 2365   5.184   1.606   4.924 -0.2329 -0.0166  0.8466
  650SOL    HW2 2366   5.268   1.563   4.907 -0.8747 -1.5189  1.2719
  650SOL    HW3 2367   5.142   1.611   4.838 -0.2582 -0.5186  0.8238
  650SOL    MW4 2368   5.189   1.601   4.910 -0.3209 -0.2810  0.8997
  651SOL     OW 2369   3.096   2.348   5.581  0.2415 -0.3020 -0.0968
  651SOL    HW2 2370   3.068   2.358   5.672 -2.5171  1.3663 -1.0032
  651SOL    HW3 2371   3.163   2.415   5.568 -0.2632  0.3041  0.3862
  651SOL    MW4 2372   3.101   2.358   5.591 -0.1891 -0.0019 -0.1527
  652SOL     OW 2373   6.411   0.506   0.708 -0.0423  0.0129 -0.1614
  652SOL    HW2 2374   6.336   0.537   0.759  0.1006  0.4854 -0.2333
  652SOL    HW3 2375   6.426   0.574   0.643  0.8869  0.2733  0.2965
  652SOL    MW4 2376   6.403   0.519   0.706  0.0991  0.1096 -0.1105
  653SOL     OW 2377   2.262   4.108   5.477 -0.1784 -0.0785 -0.7793
  653SOL    HW2 2378   2.326   4.055   5.524 -1.1222 -0.2288  0.3948
  653SOL    HW3 2379   2.229   4.170   5.543 -0.5361  0.6318 -1.6063
  653SOL    MW4 2380   2.266   4.109   5.492 -0.3501 -0.0046 -0.7335
  654SOL     OW 2381   1.596   2.108   0.013  0.7594  0.4845  0.1900
  654SOL    HW2 2382   1.558   2.115  -0.074 -0.3121  0.6302  0.6441
  654SOL    HW3 2383   1.677   2.060   0.001 -0.2795 -1.1552 -0.6581
  654SOL    MW4 2384   1.601   2.102   0.000  0.4810  0.2874  0.1380
  655SOL     OW 2385   3.012   4.863   0.308  0.0823 -0.4568  0.0391
  655SOL    HW2 2386   2.921   4.833   0.307  0.1263 -0.5836 -0.2941
  655SOL    HW3 2387   3.058   4.803   0.249  0.1227  0.4350 -0.8692
  655SOL    MW4 2388   3.006   4.851   0.300  0.0934 -0.3559 -0.1247
  656SOL     OW 2389   4.701   5.632   3.799  0.0168  0.4319 -0.0670
  656SOL    HW2 2390   4.739   5.622   3.886 -0.5661  0.7859  0.2397
  656SOL    HW3 2391   4.607   5.617   3.812  0.0105 -0.1717 -0.7571
  656SOL    MW4 2392   4.694   5.629   3.812 -0.0609  0.3989 -0.1176
  657SOL     OW 2393   4.267   0.139   0.154 -0.1971 -0.3601 -0.3909
  657SOL    HW2 2394   4.214   0.075   0.106 -0.4104  0.2336 -0.9659
  657SOL    HW3 2395   4.307   0.193   0.086  0.6517 -0.4002  0.0627
  657SOL    MW4 2396   4.265   0.138   0.138 -0.1133 -0.2871 -0.4069
  658SOL     OW 2397   2.670   1.098   0.269 -0.2876 -0.0564 -0.2122
  658SOL    HW2 2398   2.612   1.168   0.241 -0.5268 -0.7257 -1.4417
  658SOL    HW3 2399   2.755   1.120   0.231 -0.0751  0.1780  0.3913
  658SOL    MW4 2400   2.673   1.110   0.260 -0.2911 -0.1138 -0.2948
  659SOL     OW 2401   0.398   3.594   4.068  0.0569 -0.2878  1.0712
  659SOL    HW2 2402   0.324   3.652   4.048  0.1891  0.0271  1.4771
  659SOL    HW3 2403   0.469   3.654   4.092  0.2285 -0.6161  1.3905
  659SOL    MW4 2404   0.398   3.610   4.069  0.0970 -0.2896  1.1669
  660SOL     OW 2405   2.442   0.799   5.187  0.3215  0.0960 -0.3450
  660SOL    HW2 2406   2.415   0.710   5.210 -0.7394 -0.0024 -1.8198
  660SOL    HW3 2407   2.432   0.848   5.268  1.3903 -1.2028  0.6234
  660SOL    MW4 2408   2.437   0.794   5.201  0.3225 -0.0883 -0.4118
  661SOL     OW 2409   0.077   2.826   2.721  0.0824  0.5511 -0.1483
  661SOL    HW2 2410   0.153   2.850   2.772  0.2263 -0.3661  0.0847
  661SOL    HW3 2411   0.072   2.892   2.652  0.9767  0.7174 -0.0567
  661SOL    MW4 2412   0.086   2.837   2.718  0.2194  0.4520 -0.1055
  662SOL     OW 2413   1.219   2.008   4.867  0.0470 -0.3193  0.0078
  662SOL    HW2 2414   1.167   2.086   4.850 -0.7773 -0.9743 -0.5344
  662SOL    HW3 2415   1.162   1.952   4.920 -0.1967 -1.4641 -1.4238
  662SOL    MW4 2416   1.205   2.011   4.872 -0.0939 -0.5568 -0.2526
  663SOL     OW 2417   0.655   3.771   4.694  0.1283  0.3737 -0.0097
  663SOL    HW2 2418   0.630   3.678   4.693 -0.2583  0.4794 -0.2334
  663SOL    HW3 2419   0.750   3.770   4.699  0.0961 -0.0378  0.7111
  663SOL    MW4 2420   0.664   3.758   4.695  0.0730  0.3334  0.0559
  664SOL     OW 2421   5.615   0.757   4.440  0.2441 -0.0721 -0.2101
  664SOL    HW2 2422   5.605   0.840   4.487  1.6230 -0.0638  0.1097
  664SOL    HW3 2423   5.604   0.781   4.348 -2.1397 -0.0315  0.0348
  664SOL    MW4 2424   5.612   0.771   4.434  0.1115 -0.0656 -0.1356
  665SOL     OW 2425   6.224   6.240   0.193 -0.1112  0.1377 -0.0748
  665SOL    HW2 2426   6.283   6.165   0.188  0.4760  0.5383  0.5576
  665SOL    HW3 2427   6.258   6.302   0.128 -1.1723 -0.5207 -1.2839
  665SOL    MW4 2428   6.237   6.239   0.184 -0.1737  0.1037 -0.1509
  666SOL     OW 2429   1.317   5.562   6.203  0.6385  0.2612 -0.0721
  666SOL    HW2 2430   1.390   5.509   6.170  0.5892  0.9704 -1.3776
  666SOL    HW3 2431   1.257   5.499   6.243  0.2350 -0.7789 -2.2099
  666SOL    MW4 2432   1.319   5.546   6.204  0.5788  0.2175 -0.5264
  667SOL     OW 2433   1.733   0.828   5.624 -0.1262 -0.2240 -0.1886
  667SOL    HW2 2434   1.775   0.751   5.586  1.4964  0.4233  0.2119
  667SOL    HW3 2435   1.754   0.899   5.563 -0.3201  0.1920  0.2223
  667SOL    MW4 2436   1.741   0.827   5.611  0.0623 -0.0837 -0.0816
  668SOL     OW 2437   1.501   3.664   1.902 -0.0940  0.7671 -0.2909
  668SOL    HW2 2438   1.471   3.590   1.955  0.6699  0.3274 -0.4616
  668SOL    HW3 2439   1.587   3.686   1.938  0.2479  0.7333 -1.0740
  668SOL    MW4 2440   1.509   3.657   1.914  0.0519  0.7047 -0.4167
  669SOL     OW 2441   2.886   1.185   0.099  0.9592  0.2458  0.9755
  669SOL    HW2 2442   2.968   1.137   0.103  0.1472 -1.4951 -1.0684
  669SOL    HW3 2443   2.905   1.270   0.139  3.7825 -0.0138  0.3701
  669SOL    MW4 2444   2.899   1.190   0.105  1.2246 -0.0181  0.6259
  670SOL     OW 2445   4.355   0.536   0.284 -0.0880 -0.2162  0.0538
  670SOL    HW2 2446   4.308   0.575   0.211 -0.5996  0.6020  0.8036
  670SOL    HW3 2447   4.296   0.470   0.319 -0.7010  0.7989  0.9841
  670SOL    MW4 2448   4.341   0.532   0.279 -0.2364  0.0257  0.2755
  671SOL     OW 2449   4.699   3.627   1.088 -0.4973 -0.7291  0.1989
  671SOL    HW2 2450   4.791   3.625   1.118 -0.5797 -0.3320  0.4887
  671SOL    HW3 2451   4.648   3.627   1.169 -0.7244  0.5179  0.0695
  671SOL    MW4 2452   4.705   3.627   1.103 -0.5382 -0.5122  0.2201
  672SOL     OW 2453   3.148   5.240   5.927  0.2626 -0.0442 -0.1192
  672SOL    HW2 2454   3.145   5.299   6.002 -0.1188  0.3101 -0.4073
  672SOL    HW3 2455   3.129   5.153   5.963 -1.1885  0.2983  0.0172
  672SOL    MW4 2456   3.145   5.236   5.942  0.0208  0.0477 -0.1392
  673SOL     OW 2457   0.028   4.429   5.304  0.3332  0.2732 -0.1127
  673SOL    HW2 2458   0.109   4.397   5.344  0.2037  0.3269  0.1917
  673SOL    HW3 2459  -0.008   4.352   5.259  0.9876  0.4512 -0.9750
  673SOL    MW4 2460   0.034   4.414   5.303  0.4025  0.3037 -0.1863
  674SOL     OW 2461   1.145   0.960   2.058  0.0825  0.1452  0.2704
  674SOL    HW2 2462   1.195   0.886   2.092  1.0003  0.8116  0.4293
  674SOL    HW3 2463   1.100   0.996   2.134  1.6232  1.2425  0.7183
  674SOL    MW4 2464   1.146   0.955   2.072  0.4069  0.3779  0.3504
  675SOL     OW 2465   0.263   3.790   2.832  0.0824  0.0448  0.3585
  675SOL    HW2 2466   0.339   3.774   2.887 -0.3084  0.8777  1.1734
  675SOL    HW3 2467   0.298   3.804   2.745  0.9336  1.0263  0.8362
  675SOL    MW4 2468   0.277   3.790   2.828  0.1432  0.2842  0.5291
  676SOL     OW 2469   5.245   5.589   1.327 -0.3712  0.6350  0.1440
  676SOL    HW2 2470   5.311   5.520   1.322  0.5375  1.5873 -1.6731
  676SOL    HW3 2471   5.169   5.553   1.281 -0.3284  0.3866  0.2661
  676SOL    MW4 2472   5.243   5.575   1.320 -0.2457  0.7278 -0.0796
  677SOL     OW 2473   0.521   3.560   1.479 -0.1900 -0.0733 -0.0658
  677SOL    HW2 2474   0.535   3.627   1.412 -0.0457  1.3468  1.3238
  677SOL    HW3 2475   0.510   3.610   1.560 -2.1172 -1.6593  0.7057
  677SOL    MW4 2476   0.522   3.576   1.481 -0.4253 -0.0952  0.2194
  678SOL     OW 2477   1.289   5.441   0.905  0.1168 -0.5947 -0.0660
  678SOL    HW2 2478   1.346   5.389   0.961  0.8856 -0.1156 -0.3964
  678SOL    HW3 2479   1.267   5.518   0.958  1.0225 -0.0330 -0.4879
  678SOL    MW4 2480   1.293   5.444   0.920  0.3377 -0.4574 -0.1653
  679SOL     OW 2481   1.042   2.859   3.270  0.7457  0.1107  0.5062
  679SOL    HW2 2482   1.076   2.947   3.287  2.3061 -0.6141  1.3043
  679SOL    HW3 2483   0.969   2.850   3.331  0.1283  1.0691 -0.0471
  679SOL    MW4 2484   1.037   2.870   3.280  0.8701  0.1415  0.5385
  680SOL     OW 2485   3.094   4.806   1.222  0.4230 -0.1518 -0.3716
  680SOL    HW2 2486   3.089   4.886   1.274  1.3128  0.0490 -0.5852
  680SOL    HW3 2487   3.173   4.762   1.253  0.7097 -0.2537 -1.2218
  680SOL    MW4 2488   3.103   4.811   1.233  0.5782 -0.1387 -0.5120
  681SOL     OW 2489   1.431   3.873   5.102  0.0701 -0.5350 -0.9230
  681SOL    HW2 2490   1.397   3.939   5.161  0.9868  0.5361 -1.5577
  681SOL    HW3 2491   1.526   3.872   5.119  0.0692 -1.7165 -0.8940
  681SOL    MW4 2492   1.439   3.881   5.112  0.1909 -0.5495 -1.0029
  682SOL     OW 2493   1.223   0.831   6.167 -0.3592 -0.0536 -0.6134
  682SOL    HW2 2494   1.237   0.814   6.074 -1.5105 -2.3980 -0.4465
  682SOL    HW3 2495   1.241   0.924   6.178 -1.3336  0.5648 -3.4071
  682SOL    MW4 2496   1.227   0.841   6.156 -0.6397 -0.2813 -0.9600
  683SOL     OW 2497   5.033   0.231   0.472  0.5726 -0.3066 -0.1871
  683SOL    HW2 2498   5.005   0.301   0.413  0.2381  1.0277  1.4823
  683SOL    HW3 2499   5.038   0.153   0.416  1.2702  1.0831 -2.1725
  683SOL    MW4 2500   5.030   0.230   0.457  0.6205  0.0528 -0.2288
  684SOL     OW 2501   4.209   2.424   4.413  0.7781 -0.7471 -0.1694
  684SOL    HW2 2502   4.151   2.477   4.468  2.0514  0.0184  0.4981
  684SOL    HW3 2503   4.294   2.468   4.419  1.0978 -0.9835 -2.3208
  684SOL    MW4 2504   4.212   2.437   4.421  0.9883 -0.6773 -0.3652
  685SOL     OW 2505   2.882   1.557   4.632  0.0479  0.0964 -0.1237
  685SOL    HW2 2506   2.971   1.538   4.603 -0.1730 -2.1417  0.5010
  685SOL    HW3 2507   2.832   1.478   4.612 -1.6464  1.0333  0.1830
  685SOL    MW4 2508   2.887   1.544   4.626 -0.2048 -0.0753 -0.0008
  686SOL     OW 2509   0.063   2.689   3.658  0.1090 -0.0016 -0.4425
  686SOL    HW2 2510   0.120   2.725   3.726 -0.2000 -1.8515  0.8623
  686SOL    HW3 2511  -0.026   2.698   3.694 -0.1703  0.1091 -1.1453
  686SOL    MW4 2512   0.059   2.695   3.672  0.0314 -0.2311 -0.3631
  687SOL     OW 2513   0.827   0.068   3.999 -0.0267  0.3891 -0.3266
  687SOL    HW2 2514   0.877   0.134   4.047 -1.5551  2.0120 -0.8562
  687SOL    HW3 2515   0.736   0.095   4.009 -0.6385 -1.1894 -1.2670
  687SOL    MW4 2516   0.822   0.080   4.006 -0.3091  0.3950 -0.5205
  688SOL     OW 2517   6.166   1.609   0.512  0.2801  0.1977 -0.1175
  688SOL    HW2 2518   6.204   1.552   0.580  1.0950  0.4085 -0.3895
  688SOL    HW3 2519   6.093   1.558   0.477 -0.2914  0.1699  1.0579
  688SOL    MW4 2520   6.161   1.594   0.516  0.3122  0.2218  0.0017
  689SOL     OW 2521   6.054   3.438   3.845  0.0116 -0.0177 -0.8641
  689SOL    HW2 2522   6.146   3.413   3.844 -0.1952 -0.7842 -1.4908
  689SOL    HW3 2523   6.025   3.415   3.934  0.3588 -0.0093 -0.7446
  689SOL    MW4 2524   6.062   3.432   3.857  0.0301 -0.1177 -0.9310
  690SOL     OW 2525   4.989   1.678   3.417 -0.2426  0.0491 -0.3971
  690SOL    HW2 2526   5.037   1.595   3.422 -0.0052  0.2514  1.1430
  690SOL    HW3 2527   5.032   1.726   3.347 -0.1707 -0.9926 -1.0897
  690SOL    MW4 2528   5.001   1.673   3.409 -0.2018 -0.0616 -0.2853
  691SOL     OW 2529   2.545   4.343   3.498 -0.2504  0.0256 -0.0451
  691SOL    HW2 2530   2.555   4.409   3.430 -1.0834 -0.0261 -0.2295
  691SOL    HW3 2531   2.565   4.260   3.454  0.8895  0.1452  0.2102
  691SOL    MW4 2532   2.549   4.341   3.484 -0.2099  0.0346 -0.0358
  692SOL     OW 2533   0.085   6.357   5.263  0.1542  0.0311 -0.6024
  692SOL    HW2 2534   0.061   6.445   5.290 -1.1265 -0.4453 -0.1151
  692SOL    HW3 2535   0.048   6.348   5.175 -2.1602 -0.9224  0.3922
  692SOL    MW4 2536   0.077   6.367   5.255 -0.3202 -0.1575 -0.4069
  693SOL     OW 2537   4.121   1.592   3.952 -0.9323 -0.1641  0.4355
  693SOL    HW2 2538   4.149   1.521   4.009  0.0205 -0.4769 -0.3976
  693SOL    HW3 2539   4.025   1.592   3.960 -0.8402 -0.3408  1.8316
  693SOL    MW4 2540   4.112   1.582   3.960 -0.7945 -0.2287  0.5098
  694SOL     OW 2541   5.047   4.837   4.600 -0.1990 -0.1460 -0.2506
  694SOL    HW2 2542   5.103   4.764   4.628 -0.4122 -0.2725 -0.1564
  694SOL    HW3 2543   5.058   4.840   4.505 -0.6016 -0.6410 -0.3163
  694SOL    MW4 2544   5.056   4.828   4.591 -0.2802 -0.2280 -0.2468
  695SOL     OW 2545   0.207   3.081   3.088 -0.2591  0.1554  0.2331
  695SOL    HW2 2546   0.288   3.043   3.123 -1.3517 -1.3202  1.2604
  695SOL    HW3 2547   0.227   3.174   3.076  2.2245 -0.4867 -1.4397
  695SOL    MW4 2548   0.220   3.088   3.091 -0.0756 -0.1240  0.1479
  696SOL     OW 2549   5.352   3.542   2.076 -0.1841  0.3176  0.3516
  696SOL    HW2 2550   5.314   3.455   2.059  1.5593 -0.7494  1.5606
  696SOL    HW3 2551   5.338   3.556   2.169  0.7834  0.7078  0.4417
  696SOL    MW4 2552   5.345   3.532   2.086  0.1736  0.2283  0.5230
  697SOL     OW 2553   4.123   1.966   2.126 -0.0835  0.5671  0.4815
  697SOL    HW2 2554   4.032   1.936   2.134  0.2972 -0.6298  0.4605
  697SOL    HW3 2555   4.142   2.007   2.210  0.2361 -1.7467  1.6305
  697SOL    MW4 2556   4.113   1.967   2.138  0.0089  0.1039  0.6304
  698SOL     OW 2557   1.647   6.212   5.659 -0.0673  0.2556 -0.0074
  698SOL    HW2 2558   1.643   6.140   5.596  1.3095  0.7532 -0.7189
  698SOL    HW3 2559   1.725   6.262   5.633  0.6114  0.4327  2.1393
  698SOL    MW4 2560   1.657   6.209   5.647  0.2039  0.3446  0.1820
  699SOL     OW 2561   5.089   0.039   4.383 -0.0560  0.0870 -0.0253
  699SOL    HW2 2562   5.112  -0.050   4.410 -0.7391 -0.1908 -0.3342
  699SOL    HW3 2563   5.154   0.062   4.317  0.0521 -0.2309 -0.0302
  699SOL    MW4 2564   5.101   0.030   4.378 -0.1318  0.0084 -0.0667
  700SOL     OW 2565   0.256   1.781   5.554  0.4239  0.1863 -0.1048
  700SOL    HW2 2566   0.248   1.685   5.549 -0.6503  0.2243  0.4586
  700SOL    HW3 2567   0.175   1.813   5.513  0.8803  0.8607 -0.4866
  700SOL    MW4 2568   0.244   1.772   5.548  0.3423  0.2803 -0.0808
  701SOL     OW 2569   1.842   1.922   6.424  0.4107 -0.5886  0.1737
  701SOL    HW2 2570   1.784   1.878   6.362  2.4335 -3.4825  0.1037
  701SOL    HW3 2571   1.819   1.884   6.509 -0.0161  0.7817  0.7015
  701SOL    MW4 2572   1.831   1.911   6.427  0.6213 -0.7897  0.2341
  702SOL     OW 2573   5.887   0.692   2.278 -0.5686  0.1856  0.1297
  702SOL    HW2 2574   5.865   0.702   2.371 -2.4397  0.7186 -0.3288
  702SOL    HW3 2575   5.881   0.780   2.242 -0.4990 -0.1073 -0.6147
  702SOL    MW4 2576   5.883   0.705   2.286 -0.8063  0.2173 -0.0290
  703SOL     OW 2577   2.297   0.192   5.082 -0.1092  0.0119 -0.1439
  703SOL    HW2 2578   2.378   0.190   5.133 -0.5746 -0.3359  0.5961
  703SOL    HW3 2579   2.228   0.211   5.146 -0.7767 -0.9571 -0.5358
  703SOL    MW4 2580   2.298   0.194   5.097 -0.2587 -0.1618 -0.0979
  704SOL     OW 2581   6.075   2.939   3.598  0.5739  0.3322 -0.6725
  704SOL    HW2 2582   6.105   2.950   3.508 -0.0035 -0.5753 -0.9894
  704SOL    HW3 2583   5.987   2.903   3.590  0.9567 -0.8984  0.2482
  704SOL    MW4 2584   6.068   2.936   3.585  0.5482  0.0501 -0.5929
  705SOL     OW 2585   2.402   1.156   4.554 -0.8489 -0.1554  0.1005
  705SOL    HW2 2586   2.432   1.204   4.632  0.9678  0.3104 -0.8307
  705SOL    HW3 2587   2.371   1.072   4.588 -1.0072  0.4109  1.4145
  705SOL    MW4 2588   2.402   1.151   4.569 -0.6301 -0.0192  0.1510
  706SOL     OW 2589   3.309   4.915   1.661 -0.0710  0.2499 -0.4161
  706SOL    HW2 2590   3.239   4.971   1.695 -0.9336 -1.8309  1.4750
  706SOL    HW3 2591   3.267   4.829   1.649  2.0005 -0.8886  0.1410
  706SOL    MW4 2592   3.294   4.911   1.664  0.0885 -0.1748 -0.0931
  707SOL     OW 2593   3.253   5.796   5.011  0.0548 -0.2251  0.3365
  707SOL    HW2 2594   3.301   5.803   5.093 -0.9024  1.5522  0.8037
  707SOL    HW3 2595   3.165   5.826   5.032 -0.8271 -1.8460 -0.8699
  707SOL    MW4 2596   3.248   5.801   5.024 -0.1878 -0.2045  0.2390
  708SOL     OW 2597   0.264   3.394   0.113  0.0200  0.2708  0.0061
  708SOL    HW2 2598   0.209   3.458   0.160  1.3346  0.8344  0.8406
  708SOL    HW3 2599   0.259   3.315   0.167 -2.3031 -0.6855 -1.4784
  708SOL    MW4 2600   0.256   3.392   0.127 -0.1130  0.2189 -0.0797
  709SOL     OW 2601   6.389   2.104   5.988  0.0960  0.4319 -0.0175
  709SOL    HW2 2602   6.417   2.089   5.898 -0.9105 -0.5543 -0.1879
  709SOL    HW3 2603   6.457   2.160   6.025  0.3638  1.1164 -1.4751
  709SOL    MW4 2604   6.401   2.110   5.981 -0.0014  0.3921 -0.2323
  710SOL     OW 2605   4.588   0.101   5.872  0.2512  0.0154  0.8043
  710SOL    HW2 2606   4.497   0.086   5.898  0.0356  0.1099  0.1456
  710SOL    HW3 2607   4.584   0.179   5.817  0.8444  0.4418  1.3612
  710SOL    MW4 2608   4.575   0.109   5.868  0.3011  0.0841  0.7909
  711SOL     OW 2609   2.174   1.607   0.846 -0.9683  0.3541 -0.5866
  711SOL    HW2 2610   2.269   1.608   0.836 -0.7758 -0.3908  0.9465
  711SOL    HW3 2611   2.151   1.515   0.856 -2.1400  0.2943 -2.9073
  711SOL    MW4 2612   2.184   1.595   0.846 -1.0975  0.2479 -0.6905
  712SOL     OW 2613   6.095   1.651   5.240  0.2561  0.5501 -0.5013
  712SOL    HW2 2614   6.011   1.626   5.201  1.2573 -1.5171 -1.5068
  712SOL    HW3 2615   6.136   1.708   5.176 -0.3173  1.4952 -0.0450
  712SOL    MW4 2616   6.090   1.655   5.227  0.3125  0.4020 -0.5737
  713SOL     OW 2617   1.568   3.460   4.025 -0.2845  0.7226 -0.6212
  713SOL    HW2 2618   1.503   3.416   4.080  2.4848 -0.9377  1.6031
  713SOL    HW3 2619   1.581   3.545   4.066  0.3488  0.2561  0.1791
  713SOL    MW4 2620   1.561   3.465   4.038  0.1644  0.4420 -0.2222
  714SOL     OW 2621   6.375   2.635   5.339  0.3342 -0.2302  0.0594
  714SOL    HW2 2622   6.328   2.661   5.418  1.1130 -0.5797  0.6575
  714SOL    HW3 2623   6.365   2.540   5.336  2.5819 -0.5836  1.2968
  714SOL    MW4 2624   6.368   2.626   5.349  0.7335 -0.3230  0.3016
  715SOL     OW 2625   2.574   5.405   4.703 -0.4707  0.7277 -0.6012
  715SOL    HW2 2626   2.656   5.394   4.751 -1.1358 -1.3678  0.1508
  715SOL    HW3 2627   2.601   5.417   4.612  0.6880  0.2220 -0.3476
  715SOL    MW4 2628   2.588   5.405   4.698 -0.4056  0.3845 -0.4685
  716SOL     OW 2629   6.380   4.780   4.563 -0.3576  0.0286  0.1944
  716SOL    HW2 2630   6.374   4.684   4.556 -1.6229  0.1647 -1.1916
  716SOL    HW3 2631   6.431   4.806   4.486  2.2037  0.3543  1.8689
  716SOL    MW4 2632   6.386   4.770   4.552 -0.1866  0.0896  0.2325
  717SOL     OW 2633   2.256   5.238   5.670  0.1487  0.5463  0.1682
  717SOL    HW2 2634   2.299   5.323   5.662 -1.1805  1.1286 -1.3573
  717SOL    HW3 2635   2.168   5.251   5.634 -1.0650 -0.8119  2.4087
  717SOL    MW4 2636   2.250   5.251   5.664 -0.1868  0.4439  0.2626
  718SOL     OW 2637   1.899   2.362   2.104  0.2657 -0.2676  0.3834
  718SOL    HW2 2638   1.917   2.444   2.059 -0.6806 -0.7670 -0.9723
  718SOL    HW3 2639   1.826   2.323   2.055  0.1152 -1.5016  1.5229
  718SOL    MW4 2640   1.891   2.368   2.092  0.1210 -0.4963  0.3548
  719SOL     OW 2641   6.399   0.173   5.294  0.1267  0.1703 -0.1277
  719SOL    HW2 2642   6.358   0.209   5.216 -0.2875  1.4321  0.6554
  719SOL    HW3 2643   6.326   0.140   5.347  0.1998  1.1953  0.6487
  719SOL    MW4 2644   6.384   0.173   5.291  0.0817  0.4720  0.0781
  720SOL     OW 2645   0.903   0.191   0.570  0.0866 -0.7166 -0.0207
  720SOL    HW2 2646   0.911   0.121   0.506  0.9434 -1.3964  0.7990
  720SOL    HW3 2647   0.809   0.197   0.588 -0.2737  0.0715 -1.9311
  720SOL    MW4 2648   0.891   0.183   0.564  0.1521 -0.7023 -0.1646
  721SOL     OW 2649   4.332   4.945   3.027 -0.4204  0.7147  0.4436
  721SOL    HW2 2650   4.422   4.961   3.053 -0.8076  1.8873  1.1030
  721SOL    HW3 2651   4.320   4.851   3.038  0.0387  0.8640  2.5731
  721SOL    MW4 2652   4.342   4.935   3.032 -0.4109  0.8891  0.8115
  722SOL     OW 2653   2.166   0.763   1.585 -0.5243  0.0265  0.2452
  722SOL    HW2 2654   2.127   0.679   1.609 -1.5475  0.1204 -1.0133
  722SOL    HW3 2655   2.256   0.756   1.617 -0.8373 -1.1860  0.9671
  722SOL    MW4 2656   2.173   0.751   1.592 -0.7006 -0.1211  0.1744
  723SOL     OW 2657   1.405   2.890   1.019 -0.3464  0.0523 -0.0341
  723SOL    HW2 2658   1.328   2.864   0.969  0.6219  0.2613 -1.6943
  723SOL    HW3 2659   1.408   2.828   1.092 -0.7673 -1.4568 -1.2449
  723SOL    MW4 2660   1.395   2.879   1.022 -0.2742 -0.1192 -0.4129
  724SOL     OW 2661   4.821   0.980   0.277 -0.4933  0.0044  0.0865
  724SOL    HW2 2662   4.776   0.986   0.193 -1.3437  1.4959  0.6022
  724SOL    HW3 2663   4.903   1.028   0.264 -1.8743  2.7588  0.8202
  724SOL    MW4 2664   4.826   0.987   0.264 -0.7877  0.5646  0.2514
  725SOL     OW 2665   3.055   4.280   5.533 -0.0856  0.2924  0.5283
  725SOL    HW2 2666   3.124   4.338   5.567 -0.0330  1.7482 -1.7997
  725SOL    HW3 2667   3.100   4.224   5.470 -0.7770  0.2592  0.0592
  725SOL    MW4 2668   3.070   4.281   5.529 -0.1699  0.4801  0.1593
  726SOL     OW 2669   1.429   4.974   6.139 -0.0566 -0.2342  0.4149
  726SOL    HW2 2670   1.338   4.994   6.118 -0.1092 -1.3757 -0.6042
  726SOL    HW3 2671   1.481   5.038   6.089 -0.2885  0.4262  1.0107
  726SOL    MW4 2672   1.424   4.985   6.129 -0.0941 -0.2977  0.3591
  727SOL     OW 2673   4.969   4.337   1.263  0.4031 -0.5913 -0.0316
  727SOL    HW2 2674   4.945   4.253   1.301 -0.3202 -0.3558  0.0288
  727SOL    HW3 2675   4.901   4.397   1.290  1.5895  0.3369  1.0242
  727SOL    MW4 2676   4.957   4.334   1.271  0.4642 -0.4377  0.1156
  728SOL     OW 2677   1.122   2.758   5.715 -0.5081 -0.0687  0.4309
  728SOL    HW2 2678   1.032   2.791   5.711 -0.9256 -1.2519 -1.9122
  728SOL    HW3 2679   1.170   2.811   5.651  0.3715  0.2069  1.2853
  728SOL    MW4 2680   1.117   2.770   5.706 -0.4471 -0.1884  0.2345
  729SOL     OW 2681   0.802   2.166   2.693 -0.1633 -0.8775 -0.0574
  729SOL    HW2 2682   0.715   2.132   2.714 -0.0360 -2.0128 -1.2041
  729SOL    HW3 2683   0.861   2.120   2.753 -0.1633 -1.5533 -0.5634
  729SOL    MW4 2684   0.798   2.155   2.703 -0.1465 -1.1164 -0.2755
  730SOL     OW 2685   0.037   3.015   2.525 -0.0668  0.3455  0.8304
  730SOL    HW2 2686   0.045   3.004   2.431 -0.1075  0.5305  0.8047
  730SOL    HW3 2687   0.026   3.110   2.538  0.7571  0.4155  1.0828
  730SOL    MW4 2688   0.036   3.026   2.514  0.0365  0.3791  0.8603
  731SOL     OW 2689   3.041   1.776   0.799  0.2450  0.5888  0.3362
  731SOL    HW2 2690   3.001   1.801   0.883 -0.5172 -0.0213  0.1728
  731SOL    HW3 2691   3.011   1.686   0.785  1.2798  0.2874 -0.0529
  731SOL    MW4 2692   3.032   1.767   0.809  0.2810  0.4685  0.2633
  732SOL     OW 2693   5.342   0.435   2.398  0.3802 -0.1843  0.1812
  732SOL    HW2 2694   5.253   0.453   2.429  0.9124 -0.5879  2.0169
  732SOL    HW3 2695   5.342   0.342   2.377  0.8996 -0.6962  2.2213
  732SOL    MW4 2696   5.330   0.425   2.399  0.5189 -0.3051  0.6926
  733SOL     OW 2697   0.602   1.939   1.450 -0.4546 -0.3742  0.0907
  733SOL    HW2 2698   0.584   1.987   1.369 -0.2861  0.9925  0.8451
  733SOL    HW3 2699   0.567   1.851   1.433 -1.2189  0.1342 -1.1363
  733SOL    MW4 2700   0.595   1.933   1.437 -0.5332 -0.1268  0.0283
  734SOL     OW 2701   5.172   2.994   2.890  0.3478 -0.1610  0.7836
  734SOL    HW2 2702   5.090   3.036   2.862 -0.4046 -1.1181  1.4763
  734SOL    HW3 2703   5.145   2.908   2.923  1.2763  0.4400  3.3870
  734SOL    MW4 2704   5.157   2.988   2.891  0.3710 -0.2080  1.2184
  735SOL     OW 2705   0.526   6.388   4.594 -0.2886 -0.4363 -0.2841
  735SOL    HW2 2706   0.433   6.398   4.577 -0.0784 -0.8450 -1.8086
  735SOL    HW3 2707   0.545   6.451   4.664 -1.3811  0.8586 -1.1016
  735SOL    MW4 2708   0.516   6.398   4.601 -0.4050 -0.3194 -0.5931
  736SOL     OW 2709   5.783   2.250   1.839  0.1757 -0.7628 -0.2599
  736SOL    HW2 2710   5.849   2.293   1.893  0.9539  0.8715 -2.3764
  736SOL    HW3 2711   5.699   2.270   1.882  0.7178  0.9585  0.0688
  736SOL    MW4 2712   5.780   2.258   1.851  0.3499 -0.3201 -0.4957
  737SOL     OW 2713   1.949   5.332   0.496 -0.3201  0.1681 -0.3761
  737SOL    HW2 2714   1.916   5.415   0.531  0.9532  0.6860 -0.3671
  737SOL    HW3 2715   2.029   5.316   0.545 -1.2112 -1.7662  0.5564
  737SOL    MW4 2716   1.955   5.341   0.507 -0.2697 -0.0188 -0.2519
  738SOL     OW 2717   1.810   0.206   5.577 -0.0389  0.2818  0.1693
  738SOL    HW2 2718   1.810   0.177   5.486  1.9994  1.4825 -0.2771
  738SOL    HW3 2719   1.887   0.164   5.616  0.6532  1.8679  0.5792
  738SOL    MW4 2720   1.820   0.196   5.570  0.3213  0.6495  0.1645
  739SOL     OW 2721   3.420   5.376   2.154 -0.1418 -0.2749  0.4885
  739SOL    HW2 2722   3.407   5.423   2.072  0.7726 -1.0027 -0.0991
  739SOL    HW3 2723   3.498   5.322   2.138  1.1001  0.8508  2.4015
  739SOL    MW4 2724   3.429   5.375   2.141  0.1427 -0.2224  0.6634
  740SOL     OW 2725   1.182   2.561   6.248 -0.2822  0.2081  0.3877
  740SOL    HW2 2726   1.250   2.541   6.183  0.3067 -2.1943  1.6351
  740SOL    HW3 2727   1.230   2.585   6.327 -0.9928  3.8874 -0.1089
  740SOL    MW4 2728   1.197   2.562   6.250 -0.2983  0.3766  0.4867
  741SOL     OW 2729   5.351   5.378   3.236  0.0643 -0.3363 -0.4379
  741SOL    HW2 2730   5.279   5.382   3.173  0.8380  2.2061 -1.2891
  741SOL    HW3 2731   5.396   5.462   3.226  3.0963 -1.7523  0.1472
  741SOL    MW4 2732   5.347   5.390   3.226  0.5664 -0.1877 -0.4730
  742SOL     OW 2733   6.368   1.153   0.812  0.2033 -0.0596  0.2537
  742SOL    HW2 2734   6.347   1.216   0.744 -1.8313 -0.3795  0.5152
  742SOL    HW3 2735   6.308   1.079   0.796  2.0734 -1.6695  0.3207
  742SOL    MW4 2736   6.357   1.151   0.801  0.1816 -0.3142  0.2971
  743SOL     OW 2737   3.297   6.113   1.682 -0.1924 -0.0154  0.0612
  743SOL    HW2 2738   3.220   6.165   1.660 -1.0978 -1.9762 -1.6053
  743SOL    HW3 2739   3.341   6.098   1.598  1.5890  0.3671  0.8735
  743SOL    MW4 2740   3.293   6.118   1.668 -0.0768 -0.2236 -0.0515
  744SOL     OW 2741   3.686   0.608   0.125  0.3515  0.4421  0.2085
  744SOL    HW2 2742   3.758   0.669   0.145  0.2942  1.5721 -2.4911
  744SOL    HW3 2743   3.608   0.653   0.156  0.5858  0.4035  0.8541
  744SOL    MW4 2744   3.685   0.622   0.132  0.3748  0.5861 -0.0625
  745SOL     OW 2745   3.051   4.071   4.941  0.1022 -0.4008 -0.4371
  745SOL    HW2 2746   2.959   4.093   4.925  0.3885 -1.0146 -3.6188
  745SOL    HW3 2747   3.100   4.146   4.907  0.8414  0.1082  1.6043
  745SOL    MW4 2748   3.045   4.084   4.934  0.2375 -0.4146 -0.5875
  746SOL     OW 2749   1.824   3.010   4.072 -0.0442 -0.0669  0.6524
  746SOL    HW2 2750   1.788   2.932   4.031  1.2535  0.4992 -1.8245
  746SOL    HW3 2751   1.840   3.070   3.998 -1.1817  2.6552  2.4359
  746SOL    MW4 2752   1.821   3.008   4.057 -0.0231  0.3669  0.5609
  747SOL     OW 2753   4.499   1.434   6.047  0.1258  0.1756 -0.3012
  747SOL    HW2 2754   4.459   1.353   6.017 -2.2504  1.5461 -1.1204
  747SOL    HW3 2755   4.579   1.442   5.995  0.0029 -1.2526 -0.7383
  747SOL    MW4 2756   4.504   1.425   6.036 -0.2039  0.1680 -0.4669
  748SOL     OW 2757   5.473   0.892   1.574  0.6214  0.3012  0.1238
  748SOL    HW2 2758   5.456   0.802   1.547 -2.3529 -0.2513  3.2197
  748SOL    HW3 2759   5.432   0.946   1.507  0.2344 -0.7046 -0.4622
  748SOL    MW4 2760   5.466   0.887   1.562  0.1779  0.0956  0.4549
  749SOL     OW 2761   0.719   5.296   1.925  0.1954  0.0411 -0.0197
  749SOL    HW2 2762   0.695   5.360   1.992 -0.0671 -0.0252 -0.0487
  749SOL    HW3 2763   0.674   5.325   1.846  1.3875  0.7499 -0.4631
  749SOL    MW4 2764   0.710   5.308   1.924  0.3180  0.1259 -0.0820
  750SOL     OW 2765   0.580   0.991   1.890  0.2974  0.3230 -0.0916
  750SOL    HW2 2766   0.506   0.941   1.857  0.7503 -1.3772  1.3416
  750SOL    HW3 2767   0.542   1.074   1.919 -0.7429  0.1768 -0.9957
  750SOL    MW4 2768   0.565   0.996   1.890  0.2199  0.0794 -0.0218
  751SOL     OW 2769   5.232   0.173   4.182 -0.4433 -0.6535 -0.4279
  751SOL    HW2 2770   5.186   0.256   4.167  1.4722  0.7045  0.7725
  751SOL    HW3 2771   5.263   0.147   4.095 -1.0446 -0.1131 -0.8192
  751SOL    MW4 2772   5.230   0.181   4.168 -0.2699 -0.4030 -0.3212
  752SOL     OW 2773   2.231   5.283   2.647 -0.5888  0.0437  0.3298
  752SOL    HW2 2774   2.223   5.377   2.663 -1.9088  0.2710 -1.3606
  752SOL    HW3 2775   2.150   5.260   2.602 -0.5561 -2.0442  1.2518
  752SOL    MW4 2776   2.220   5.293   2.643 -0.7587 -0.2018  0.2284
  753SOL     OW 2777   3.525   5.707   0.488  0.2344 -0.3986  0.8348
  753SOL    HW2 2778   3.467   5.659   0.547 -1.1653  1.6085  1.1842
  753SOL    HW3 2779   3.494   5.798   0.492  1.0121  0.0681 -1.9149
  753SOL    MW4 2780   3.514   5.713   0.496  0.1524 -0.0722  0.5181
  754SOL     OW 2781   4.286   3.594   4.804 -0.0435 -0.4198 -0.0828
  754SOL    HW2 2782   4.372   3.580   4.764 -0.4587 -0.5842 -0.9228
  754SOL    HW3 2783   4.228   3.615   4.731 -0.9258 -1.2542  0.3654
  754SOL    MW4 2784   4.290   3.595   4.789 -0.2147 -0.5516 -0.1345
  755SOL     OW 2785   4.264   0.778   0.693 -0.5143  0.2220 -0.2695
  755SOL    HW2 2786   4.350   0.753   0.658  0.4047  1.6686  0.8439
  755SOL    HW3 2787   4.220   0.820   0.619 -0.4164 -0.8320 -0.9471
  755SOL    MW4 2788   4.270   0.781   0.678 -0.3801  0.2738 -0.2120
  756SOL     OW 2789   5.931   2.043   5.749  0.0647 -0.4902  0.2376
  756SOL    HW2 2790   5.840   2.018   5.733 -0.0117  1.2495 -2.8055
  756SOL    HW3 2791   5.925   2.119   5.806 -0.6193  0.8009 -1.4549
  756SOL    MW4 2792   5.918   2.050   5.754 -0.0356 -0.0903 -0.3872
  757SOL     OW 2793   5.712   5.544   5.592  0.2649 -0.2172  0.0995
  757SOL    HW2 2794   5.692   5.618   5.534  0.3715 -0.7130 -0.5787
  757SOL    HW3 2795   5.787   5.501   5.551  1.3355  0.3047  1.4156
  757SOL    MW4 2796   5.719   5.548   5.579  0.4202 -0.2137  0.1837
  758SOL     OW 2797   4.000   4.962   2.836 -0.1115  0.0447 -0.3604
  758SOL    HW2 2798   4.071   4.968   2.772 -1.5601 -0.2285 -2.0971
  758SOL    HW3 2799   4.004   5.045   2.883  1.0511  0.2368 -0.7457
  758SOL    MW4 2800   4.010   4.974   2.834 -0.1492  0.0340 -0.6403
  759SOL     OW 2801   3.329   2.867   3.489 -0.8925  0.3568  0.0158
  759SOL    HW2 2802   3.301   2.914   3.410 -1.1735 -1.2544 -0.8860
  759SOL    HW3 2803   3.270   2.899   3.557 -1.3154  1.0357 -0.6441
  759SOL    MW4 2804   3.317   2.878   3.487 -0.9854  0.2338 -0.1903
  760SOL     OW 2805   0.598   4.083   4.828  0.1490  0.2030  0.4258
  760SOL    HW2 2806   0.687   4.047   4.832  0.2688  0.2932 -0.8532
  760SOL    HW3 2807   0.541   4.008   4.841  0.4191 -0.0148  0.3616
  760SOL    MW4 2808   0.602   4.069   4.830  0.2005  0.1862  0.2486
  761SOL     OW 2809   2.182   4.927   0.154 -0.5757  0.3605 -0.2980
  761SOL    HW2 2810   2.141   4.857   0.205  2.9330 -1.3888  0.4395
  761SOL    HW3 2811   2.185   5.002   0.213 -0.0281 -0.4423  0.7265
  761SOL    MW4 2812   2.177   4.927   0.168 -0.0406  0.0238 -0.0655
  762SOL     OW 2813   2.862   3.742   1.975 -0.2672  0.2335  0.7053
  762SOL    HW2 2814   2.887   3.833   1.992 -1.6761  0.4215  2.0346
  762SOL    HW3 2815   2.873   3.731   1.881 -0.8992  2.0683  0.3722
  762SOL    MW4 2816   2.867   3.753   1.965 -0.5365  0.5004  0.8367
  763SOL     OW 2817   3.085   1.630   0.031 -0.2135  0.0550 -0.4174
  763SOL    HW2 2818   3.012   1.686   0.059 -0.7280 -0.8278  0.0226
  763SOL    HW3 2819   3.098   1.653  -0.061 -0.7201  0.5797 -0.3653
  763SOL    MW4 2820   3.077   1.641   0.023 -0.3482  0.0077 -0.3525
  764SOL     OW 2821   1.837   2.208   4.139  0.2733 -0.0857  0.9486
  764SOL    HW2 2822   1.767   2.151   4.171 -1.2110  0.4447 -1.1146
  764SOL    HW3 2823   1.899   2.148   4.097  0.5769 -0.4718  1.9300
  764SOL    MW4 2824   1.836   2.192   4.137  0.1175 -0.0667  0.8059
  765SOL     OW 2825   3.951   5.642   0.096 -0.1777  0.2103 -0.1644
  765SOL    HW2 2826   3.987   5.730   0.105  0.4154  0.2771 -2.6208
  765SOL    HW3 2827   3.862   5.649   0.131  0.5521  1.1877  1.6842
  765SOL    MW4 2828   3.944   5.654   0.102 -0.0031  0.3480 -0.2445
  766SOL     OW 2829   3.529   3.989   0.073 -0.2448 -0.2328  0.4333
  766SOL    HW2 2830   3.615   3.946   0.064 -1.4392 -2.3818 -1.9365
  766SOL    HW3 2831   3.474   3.923   0.116 -0.7408  1.1805  2.0694
  766SOL    MW4 2832   3.533   3.975   0.077 -0.4678 -0.3298  0.3365
  767SOL     OW 2833   2.871   4.407   1.013  0.1505 -0.7000  0.1624
  767SOL    HW2 2834   2.859   4.383   1.105  1.3309  1.8465  1.0789
  767SOL    HW3 2835   2.784   4.400   0.975 -0.6760 -0.2788  1.8740
  767SOL    MW4 2836   2.858   4.403   1.020  0.1972 -0.3084  0.5092
  768SOL     OW 2837   6.231   3.838   6.423 -0.4516  0.3243  0.2234
  768SOL    HW2 2838   6.303   3.820   6.485  1.6824 -1.8539 -2.6167
  768SOL    HW3 2839   6.262   3.914   6.374 -1.1363  0.7296  0.4180
  768SOL    MW4 2840   6.245   3.846   6.425 -0.2604  0.0904 -0.1257
  769SOL     OW 2841   3.158   2.975   3.697 -0.0042 -0.4604  0.1461
  769SOL    HW2 2842   3.080   2.993   3.645  0.4357 -0.2228 -0.4319
  769SOL    HW3 2843   3.125   2.928   3.774 -0.7344 -0.2140 -0.0136
  769SOL    MW4 2844   3.144   2.971   3.700 -0.0425 -0.3965  0.0488
  770SOL     OW 2845   2.418   5.435   5.008 -0.5913 -0.4959  0.3613
  770SOL    HW2 2846   2.478   5.497   5.049 -2.2796  1.2722  0.2678
  770SOL    HW3 2847   2.392   5.476   4.926 -0.8467 -1.9038 -0.3028
  770SOL    MW4 2848   2.423   5.448   5.003 -0.8478 -0.4484  0.2613
  771SOL     OW 2849   5.068   5.697   5.985 -0.2293  0.6156 -0.1077
  771SOL    HW2 2850   5.123   5.619   5.989 -0.7650  0.2459  0.0893
  771SOL    HW3 2851   5.085   5.743   6.067  0.1592  0.7604 -0.2658
  771SOL    MW4 2852   5.078   5.693   5.996 -0.2487  0.5859 -0.1025
  772SOL     OW 2853   0.966   5.200   0.038 -0.0916 -0.1073 -0.0356
  772SOL    HW2 2854   0.891   5.254   0.012 -0.0932 -1.1605 -2.5527
  772SOL    HW3 2855   0.946   5.173   0.127 -2.2593  0.4059 -0.2974
  772SOL    MW4 2856   0.954   5.204   0.046 -0.3778 -0.1786 -0.4022
  773SOL     OW 2857   1.168   5.102   6.145 -0.1609 -0.1570  0.4476
  773SOL    HW2 2858   1.159   5.049   6.065 -2.1639  0.2263  0.3697
  773SOL    HW3 2859   1.094   5.075   6.200  0.1806  0.8516  1.4354
  773SOL    MW4 2860   1.157   5.091   6.142 -0.3801  0.0267  0.5676
  774SOL     OW 2861   0.659   3.200   1.623  0.3296  0.6200 -0.2975
  774SOL    HW2 2862   0.685   3.204   1.531 -0.5840  1.4639 -0.5358
  774SOL    HW3 2863   0.576   3.153   1.622 -0.1942  1.5187 -0.0317
  774SOL    MW4 2864   0.651   3.194   1.611  0.1400  0.8499 -0.2939
  775SOL     OW 2865   5.652   2.125   3.244 -0.0065 -0.1419  0.0980
  775SOL    HW2 2866   5.663   2.167   3.159 -0.5230  0.0638  0.1275
  775SOL    HW3 2867   5.731   2.147   3.293 -1.0854  2.4204  0.8110
  775SOL    MW4 2868   5.664   2.133   3.239 -0.2170  0.2233  0.1959
  776SOL     OW 2869   5.048   1.397   3.409  0.2461 -0.5349  0.2537
  776SOL    HW2 2870   5.054   1.395   3.505  1.0435  0.0120  0.2271
  776SOL    HW3 2871   4.956   1.377   3.391 -0.4091  1.2620  1.2409
  776SOL    MW4 2872   5.036   1.394   3.419  0.2649 -0.2257  0.3804
  777SOL     OW 2873   2.241   4.288   5.701 -0.4431  0.8992  0.5567
  777SOL    HW2 2874   2.167   4.247   5.745 -0.5678  0.7036  0.1751
  777SOL    HW3 2875   2.201   4.349   5.638 -0.2633  1.5599  1.0675
  777SOL    MW4 2876   2.226   4.291   5.698 -0.4358  0.9606  0.5738
  778SOL     OW 2877   2.732   0.144   4.270 -0.1692  0.5172  0.1530
  778SOL    HW2 2878   2.786   0.065   4.256 -0.8038 -0.1323  1.2069
  778SOL    HW3 2879   2.796   0.213   4.288  0.3700  0.0492  0.0835
  778SOL    MW4 2880   2.748   0.142   4.270 -0.1818  0.3698  0.2829
  779SOL     OW 2881   3.414   3.853   4.168  0.0894 -0.4350 -0.2609
  779SOL    HW2 2882   3.371   3.826   4.086 -1.4511 -0.2612  0.4566
  779SOL    HW3 2883   3.507   3.835   4.153 -0.3592 -2.0741 -1.4072
  779SOL    MW4 2884   3.421   3.847   4.155 -0.1730 -0.6283 -0.3175
  780SOL     OW 2885   5.976   6.007   1.315 -0.1521 -0.1736 -0.3790
  780SOL    HW2 2886   5.955   6.073   1.249 -0.2113 -0.1210 -0.3076
  780SOL    HW3 2887   5.935   6.038   1.395 -1.0554 -0.8175 -0.5818
  780SOL    MW4 2888   5.968   6.020   1.317 -0.2791 -0.2516 -0.3964
  781SOL     OW 2889   1.603   1.826   5.063  0.0748 -0.2294 -0.5369
  781SOL    HW2 2890   1.679   1.839   5.120 -0.2738 -0.1816 -0.0829
  781SOL    HW3 2891   1.640   1.826   4.974  0.4250  1.2570 -0.4223
  781SOL    MW4 2892   1.618   1.828   5.059  0.0750 -0.0270 -0.4619
  782SOL     OW 2893   2.775   0.372   2.316  0.2569 -0.0172 -0.1502
  782SOL    HW2 2894   2.708   0.437   2.337 -1.7924 -2.2513  0.6564
  782SOL    HW3 2895   2.778   0.369   2.221 -0.3144  0.5615 -0.1912
  782SOL    MW4 2896   2.767   0.380   2.306 -0.0889 -0.2356 -0.0492
  783SOL     OW 2897   3.394   4.806   3.410 -0.2845  0.7080  0.2859
  783SOL    HW2 2898   3.477   4.838   3.446 -0.2957  0.3675  0.6184
  783SOL    HW3 2899   3.397   4.712   3.422 -1.2068  0.7901  1.3389
  783SOL    MW4 2900   3.405   4.798   3.417 -0.4076  0.6739  0.4687
  784SOL     OW 2901   4.111   4.871   0.539  0.5150 -0.4210  0.1351
  784SOL    HW2 2902   4.111   4.780   0.512 -2.5001 -1.4050  2.8185
  784SOL    HW3 2903   4.040   4.912   0.489  0.1080 -0.2657  0.8218
  784SOL    MW4 2904   4.102   4.865   0.529  0.0635 -0.5303  0.5798
  785SOL     OW 2905   1.522   3.043   2.057  0.2933 -0.3423  0.2299
  785SOL    HW2 2906   1.564   2.974   2.108 -1.0641 -1.2959  0.1307
  785SOL    HW3 2907   1.520   3.118   2.115  2.0026 -0.2893  0.2660
  785SOL    MW4 2908   1.527   3.044   2.071  0.3397 -0.4611  0.2216
  786SOL     OW 2909   2.540   6.405   1.278  0.0996 -0.5307  0.2589
  786SOL    HW2 2910   2.554   6.379   1.368 -1.7629 -1.9222  0.1964
  786SOL    HW3 2911   2.479   6.479   1.283 -0.9183 -1.3488  0.1096
  786SOL    MW4 2912   2.534   6.412   1.290 -0.2804 -0.8222  0.2309
  787SOL     OW 2913   4.727   5.515   3.017 -0.3537 -0.2568 -0.2870
  787SOL    HW2 2914   4.754   5.579   3.083  0.3850 -2.3825  1.5977
  787SOL    HW3 2915   4.632   5.525   3.012 -0.3332  0.4550  0.5565
  787SOL    MW4 2916   4.718   5.525   3.025 -0.2535 -0.4433  0.0729
  788SOL     OW 2917   3.238   3.440   0.157 -0.3903  0.3408 -0.3639
  788SOL    HW2 2918   3.176   3.380   0.116  0.8032 -2.1278  1.2338
  788SOL    HW3 2919   3.320   3.392   0.161  0.0993  1.1936  2.9239
  788SOL    MW4 2920   3.241   3.426   0.152 -0.1682  0.1276  0.2807
  789SOL     OW 2921   1.234   4.136   3.099  0.0747 -0.1637  0.2226
  789SOL    HW2 2922   1.295   4.200   3.134  1.0057 -1.3454  0.8169
  789SOL    HW3 2923   1.275   4.105   3.019 -1.2228  1.2440 -1.0479
  789SOL    MW4 2924   1.247   4.140   3.093  0.0264 -0.1339  0.1334
  790SOL     OW 2925   2.637   5.671   5.580  0.4930  0.0871 -0.0135
  790SOL    HW2 2926   2.717   5.686   5.630 -0.7004 -1.2410  2.4438
  790SOL    HW3 2927   2.594   5.757   5.579 -0.2395 -0.1621  2.7970
  790SOL    MW4 2928   2.642   5.685   5.586  0.2389 -0.1210  0.6815
  791SOL     OW 2929   0.365   5.882   5.235 -0.6254  0.0609 -0.1317
  791SOL    HW2 2930   0.278   5.878   5.196 -0.6564 -0.2556 -0.0320
  791SOL    HW3 2931   0.356   5.940   5.310 -1.0831 -1.1020  0.7307
  791SOL    MW4 2932   0.353   5.889   5.239 -0.6899 -0.1343 -0.0047
  792SOL     OW 2933   5.410   4.925   5.007  0.3000  0.1675 -0.2889
  792SOL    HW2 2934   5.461   4.903   5.085  2.1774  1.7021 -0.9997
  792SOL    HW3 2935   5.463   4.893   4.934 -0.7803 -0.0533 -1.0002
  792SOL    MW4 2936   5.424   4.918   5.007  0.4051  0.3408 -0.4765
  793SOL     OW 2937   4.917   3.333   2.400 -0.1908  0.2654 -0.0260
  793SOL    HW2 2938   4.932   3.239   2.406  0.7839  0.4364  0.3709
  793SOL    HW3 2939   4.983   3.372   2.457  1.1001  1.3054 -2.0887
  793SOL    MW4 2940   4.928   3.326   2.408  0.1081  0.4252 -0.2458
  794SOL     OW 2941   3.042   0.101   1.364  0.0682 -0.4684 -0.4901
  794SOL    HW2 2942   3.125   0.112   1.410  0.5440 -0.4367 -1.3177
  794SOL    HW3 2943   2.975   0.129   1.426  0.6654 -0.6449  0.2483
  794SOL    MW4 2944   3.044   0.106   1.378  0.2098 -0.4875 -0.5018
  795SOL     OW 2945   1.540   1.307   2.630 -0.1110  0.6760  0.2970
  795SOL    HW2 2946   1.510   1.220   2.606 -0.6641  0.6613  1.0029
  795SOL    HW3 2947   1.460   1.356   2.650  0.1334  1.5985 -0.8755
  795SOL    MW4 2948   1.526   1.302   2.629 -0.1517  0.7958  0.2354
  796SOL     OW 2949   1.747   4.852   1.942  0.0367  0.2318  0.4261
  796SOL    HW2 2950   1.661   4.878   1.907 -0.5023  0.7057  1.9927
  796SOL    HW3 2951   1.810   4.902   1.890 -0.7161  0.8644  0.0849
  796SOL    MW4 2952   1.744   4.862   1.931 -0.1337  0.3778  0.5878
  797SOL     OW 2953   5.691   5.481   3.246 -0.5605  0.2509 -0.2312
  797SOL    HW2 2954   5.679   5.537   3.323  1.1209 -0.2615  0.4430
  797SOL    HW3 2955   5.639   5.524   3.178  2.5039  4.1777 -0.4804
  797SOL    MW4 2956   5.683   5.494   3.247  0.0657  0.7014 -0.1751
  798SOL     OW 2957   4.324   4.517   4.734 -0.1022  0.1598 -0.0635
  798SOL    HW2 2958   4.345   4.508   4.641 -1.3938  0.0628 -0.3686
  798SOL    HW3 2959   4.402   4.555   4.773  0.2314  0.8095 -1.3093
  798SOL    MW4 2960   4.337   4.521   4.727 -0.2286  0.2327 -0.2682
  799SOL     OW 2961   3.506   0.869   4.891 -0.4676  0.1131 -0.1428
  799SOL    HW2 2962   3.576   0.873   4.826 -1.7285  2.1867 -1.4656
  799SOL    HW3 2963   3.495   0.776   4.909  0.5798 -0.4462 -2.1568
  799SOL    MW4 2964   3.514   0.858   4.885 -0.4957  0.3129 -0.5830
  800SOL     OW 2965   3.746   5.890   1.788  0.0460 -0.6752 -0.0521
  800SOL    HW2 2966   3.799   5.816   1.757  0.1448 -0.8729  0.5823
  800SOL    HW3 2967   3.775   5.964   1.735  1.8394 -0.4959  1.1188
  800SOL    MW4 2968   3.756   5.890   1.777  0.2956 -0.6776  0.1861
  801SOL     OW 2969   5.438   1.098   6.261  0.2346 -0.0729 -0.2569
  801SOL    HW2 2970   5.456   1.104   6.167  0.7547  1.3232 -0.0941
  801SOL    HW3 2971   5.524   1.092   6.302 -0.0209 -1.6534  0.0972
  801SOL    MW4 2972   5.451   1.098   6.254  0.2695 -0.0972 -0.1887
  802SOL     OW 2973   2.879   5.690   5.696 -0.3968  0.5256 -0.5632
  802SOL    HW2 2974   2.967   5.727   5.683  0.1132 -0.8237 -1.0851
  802SOL    HW3 2975   2.880   5.658   5.787 -0.4459  0.7521 -0.4817
  802SOL    MW4 2976   2.891   5.691   5.707 -0.3360  0.3774 -0.6213
  803SOL     OW 2977   1.721   1.666   3.160 -0.2059 -0.6430  0.0831
  803SOL    HW2 2978   1.676   1.655   3.244 -1.7343 -0.7533 -0.7234
  803SOL    HW3 2979   1.664   1.625   3.096 -1.9731  4.0910 -1.8590
  803SOL    MW4 2980   1.708   1.659   3.163 -0.6407 -0.0330 -0.2796
  804SOL     OW 2981   4.566   5.170   2.300 -0.1231 -0.2786  0.2011
  804SOL    HW2 2982   4.586   5.213   2.383  0.4588 -0.4200  0.1366
  804SOL    HW3 2983   4.630   5.206   2.238 -0.6366 -0.0706 -0.2214
  804SOL    MW4 2984   4.577   5.181   2.303 -0.1141 -0.2698  0.1368
  805SOL     OW 2985   0.069   4.956   6.022  0.5221 -0.0353 -0.0046
  805SOL    HW2 2986   0.109   5.025   6.075  0.6871 -0.5562  0.5635
  805SOL    HW3 2987   0.017   5.003   5.957  2.3927  0.6909 -1.0633
  805SOL    MW4 2988   0.068   4.971   6.021  0.7907 -0.0082 -0.0693
  806SOL     OW 2989   3.132   0.981   5.464  0.0799 -0.3566 -0.2167
  806SOL    HW2 2990   3.079   0.973   5.384  1.1936 -2.2123 -0.8361
  806SOL    HW3 2991   3.222   0.964   5.435  0.3255 -2.8598  1.6540
  806SOL    MW4 2992   3.137   0.977   5.449  0.2592 -0.9317 -0.0516
  807SOL     OW 2993   2.189   0.852   5.774 -0.2867 -0.0268  0.9618
  807SOL    HW2 2994   2.172   0.796   5.698 -1.2225 -0.1670  1.2623
  807SOL    HW3 2995   2.127   0.925   5.763 -0.1915  0.1234  1.4085
  807SOL    MW4 2996   2.178   0.855   5.762 -0.3976 -0.0255  1.0604
  808SOL     OW 2997   1.172   6.330   4.552 -0.1591  0.3002 -0.2795
  808SOL    HW2 2998   1.178   6.286   4.637  1.3607 -0.2645 -0.6387
  808SOL    HW3 2999   1.240   6.288   4.499  0.5270  2.2497 -1.0339
  808SOL    MW4 3000   1.182   6.318   4.557  0.1319  0.4829 -0.4264
  809SOL     OW 3001   3.940   5.494   0.954  0.6458 -0.4510  0.8170
  809SOL    HW2 3002   4.008   5.559   0.938  0.7124 -0.2641  1.8304
  809SOL    HW3 3003   3.872   5.540   1.002 -0.8440 -0.2890 -1.2883
  809SOL    MW4 3004   3.940   5.508   0.958  0.4581 -0.4050  0.6729
  810SOL     OW 3005   0.238   1.757   3.945 -0.2344 -0.2638  0.4457
  810SOL    HW2 3006   0.221   1.806   3.865  0.2087  0.4458  0.7634
  810SOL    HW3 3007   0.170   1.691   3.949  1.1811 -1.9984 -1.8121
  810SOL    MW4 3008   0.227   1.755   3.935  0.0108 -0.3990  0.1897
  811SOL     OW 3009   3.807   2.100   2.992 -0.6489 -0.0969  0.0784
  811SOL    HW2 3010   3.879   2.161   2.978 -0.4372  0.1189  1.8997
  811SOL    HW3 3011   3.834   2.021   2.945  1.1724 -0.2919  1.3367
  811SOL    MW4 3012   3.820   2.097   2.984 -0.3807 -0.0941  0.4847
  812SOL     OW 3013   1.498   4.678   4.619 -0.5707  0.6736 -0.2771
  812SOL    HW2 3014   1.436   4.621   4.666  0.8790 -1.4275 -0.7619
  812SOL    HW3 3015   1.573   4.686   4.678 -0.2181  1.0019 -0.7645
  812SOL    MW4 3016   1.499   4.671   4.633 -0.3329  0.4397 -0.4054
  813SOL     OW 3017   5.106   5.125   1.834  0.2778  0.4218  0.0214
  813SOL    HW2 3018   5.044   5.184   1.792  0.3711 -1.2930 -2.8649
  813SOL    HW3 3019   5.057   5.083   1.904 -1.2231  0.5693 -0.8983
  813SOL    MW4 3020   5.091   5.127   1.837  0.0921  0.2150 -0.4808
  814SOL     OW 3021   2.191   0.276   3.038  0.2912  0.1533 -0.0018
  814SOL    HW2 3022   2.136   0.211   3.081 -0.4128  0.6008 -0.2222
  814SOL    HW3 3023   2.231   0.326   3.109  1.1277 -0.7402  0.1825
  814SOL    MW4 3024   2.189   0.274   3.053  0.3087  0.0945 -0.0066
  815SOL     OW 3025   1.320   6.343   0.171 -0.1257 -0.3922  0.0782
  815SOL    HW2 3026   1.242   6.293   0.147 -0.7812  1.2356 -1.3464
  815SOL    HW3 3027   1.367   6.356   0.088  0.0872  1.2096  0.4203
  815SOL    MW4 3028   1.316   6.338   0.157 -0.1841  0.0339 -0.0646
  816SOL     OW 3029   5.547   0.767   5.205 -0.5605 -0.3848 -0.3150
  816SOL    HW2 3030   5.455   0.746   5.221 -0.6570 -0.0906 -0.4838
  816SOL    HW3 3031   5.578   0.803   5.288 -0.6857 -0.1741 -0.3599
  816SOL    MW4 3032   5.539   0.769   5.218 -0.5898 -0.3182 -0.3432
  817SOL     OW 3033   6.087   4.523   1.316  0.3717  0.4779  0.1134
  817SOL    HW2 3034   6.154   4.454   1.311 -0.4325 -0.2142 -3.1119
  817SOL    HW3 3035   6.129   4.599   1.276  0.9160  1.7298  2.8044
  817SOL    MW4 3036   6.102   4.524   1.310  0.3374  0.5518  0.0429
  818SOL     OW 3037   3.064   1.866   4.746  0.1205 -0.4390  0.5883
  818SOL    HW2 3038   3.044   1.925   4.673  0.6342 -0.8250  0.1286
  818SOL    HW3 3039   3.014   1.901   4.820 -0.0738  0.2019  0.1581
  818SOL    MW4 3040   3.055   1.878   4.746  0.1626 -0.4054  0.4709
  819SOL     OW 3041   5.142   2.131   5.276  0.3043 -0.1333  0.1253
  819SOL    HW2 3042   5.056   2.089   5.272  1.0995 -1.9503  0.9319
  819SOL    HW3 3043   5.184   2.109   5.192  1.0468 -1.7997  0.8848
  819SOL    MW4 3044   5.136   2.123   5.264  0.5072 -0.5929  0.3319
  820SOL     OW 3045   4.287   0.630   3.121 -0.1479 -0.1294  0.1446
  820SOL    HW2 3046   4.241   0.561   3.073 -1.1018 -0.0399  0.9006
  820SOL    HW3 3047   4.217   0.682   3.160  0.5912 -0.5868  2.1922
  820SOL    MW4 3048   4.272   0.628   3.120 -0.1762 -0.1779  0.5145
  821SOL     OW 3049   6.385   4.857   4.834  0.4033  0.2998  0.1164
  821SOL    HW2 3050   6.444   4.802   4.885 -0.9352 -1.8035 -0.4594
  821SOL    HW3 3051   6.400   4.829   4.743 -2.1344 -1.0927  0.0387
  821SOL    MW4 3052   6.395   4.846   4.829 -0.1081 -0.1614  0.0302
  822SOL     OW 3053   5.535   1.017   4.539 -0.4623  0.7010 -0.1384
  822SOL    HW2 3054   5.570   1.032   4.627 -0.8763  0.4807  0.0681
  822SOL    HW3 3055   5.441   1.001   4.553 -0.1755 -1.4713 -0.3931
  822SOL    MW4 3056   5.527   1.017   4.552 -0.4791  0.3853 -0.1447
  823SOL     OW 3057   3.969   4.591   6.144 -0.1953  0.7635 -0.2008
  823SOL    HW2 3058   3.996   4.640   6.066  0.9867  1.1557  0.4312
  823SOL    HW3 3059   3.979   4.653   6.216 -1.6324  0.5265  0.2479
  823SOL    MW4 3060   3.974   4.606   6.143 -0.2290  0.7840 -0.0582
  824SOL     OW 3061   2.050   0.046   3.839  0.2985  0.1259  0.3807
  824SOL    HW2 3062   2.039   0.116   3.904  3.9955 -0.3752  1.7528
  824SOL    HW3 3063   2.031   0.088   3.755  0.9864  2.3882  1.2831
  824SOL    MW4 3064   2.046   0.061   3.836  0.8771  0.3582  0.6808
  825SOL     OW 3065   1.592   2.626   3.619 -0.6620 -0.7428  0.1932
  825SOL    HW2 3066   1.564   2.551   3.566 -2.0833 -0.2042  0.1328
  825SOL    HW3 3067   1.565   2.702   3.568 -0.4047 -0.1961  0.8603
  825SOL    MW4 3068   1.585   2.626   3.605 -0.8156 -0.5996  0.2733
  826SOL     OW 3069   1.457   6.205   0.854  1.1592  0.1764  0.4938
  826SOL    HW2 3070   1.377   6.248   0.825  1.9850  0.8144 -0.9863
  826SOL    HW3 3071   1.455   6.212   0.950  0.0652  1.3056  0.4122
  826SOL    MW4 3072   1.446   6.212   0.863  1.1238  0.4095  0.2878
  827SOL     OW 3073   3.189   3.690   0.058 -0.2147  0.4615  0.3707
  827SOL    HW2 3074   3.098   3.715   0.042 -0.0175  1.4318  0.6894
  827SOL    HW3 3075   3.183   3.606   0.104 -0.9930  1.0367  1.3707
  827SOL    MW4 3076   3.176   3.682   0.062 -0.2913  0.6654  0.5447
  828SOL     OW 3077   6.219   2.025   5.548  0.1201  0.6379  0.2490
  828SOL    HW2 3078   6.184   2.105   5.587 -0.3620  0.9185 -0.7126
  828SOL    HW3 3079   6.153   1.999   5.483  0.5364 -0.2284  0.1527
  828SOL    MW4 3080   6.206   2.032   5.544  0.1114  0.5607  0.1094
  829SOL     OW 3081   5.921   5.561   5.041 -0.0814  0.1264  0.3343
  829SOL    HW2 3082   5.901   5.631   5.102 -0.1371 -0.1066  0.5865
  829SOL    HW3 3083   5.936   5.484   5.097 -0.3912 -0.1501  0.0431
  829SOL    MW4 3084   5.921   5.560   5.056 -0.1296  0.0592  0.3291
  830SOL     OW 3085   3.561   4.571   5.746  0.1314  0.4962  0.0823
  830SOL    HW2 3086   3.492   4.566   5.813 -1.8806 -1.4582 -1.9293
  830SOL    HW3 3087   3.633   4.520   5.782 -0.6745 -0.0232  1.0157
  830SOL    MW4 3088   3.561   4.563   5.759 -0.2404  0.1698 -0.0600
  831SOL     OW 3089   1.178   1.631   3.908  0.1676 -0.7258 -0.0010
  831SOL    HW2 3090   1.132   1.552   3.936  0.7816 -0.4957  1.7639
  831SOL    HW3 3091   1.188   1.683   3.988 -0.1896  1.1490 -1.1030
  831SOL    MW4 3092   1.173   1.627   3.922  0.2015 -0.4481  0.0865
  832SOL     OW 3093   4.932   0.170   3.985  0.2440  0.3273  0.8139
  832SOL    HW2 3094   4.922   0.096   4.044  0.8013  1.1242  1.9383
  832SOL    HW3 3095   4.886   0.143   3.905  0.9909 -1.4937  0.9362
  832SOL    MW4 3096   4.925   0.156   3.982  0.4160  0.1922  0.9784
  833SOL     OW 3097   0.909   0.507   2.344  0.5701 -0.1999  0.6402
  833SOL    HW2 3098   0.985   0.562   2.363  0.0009  0.4490  1.0928
  833SOL    HW3 3099   0.919   0.482   2.252  0.7286  0.8372  0.3700
  833SOL    MW4 3100   0.920   0.511   2.335  0.5159  0.0226  0.6642
  834SOL     OW 3101   0.255   1.833   5.822 -0.1251 -0.3388  0.4028
  834SOL    HW2 3102   0.230   1.922   5.848  2.4125  0.5251  0.2192
  834SOL    HW3 3103   0.268   1.839   5.727 -0.2616 -1.0017  0.3378
  834SOL    MW4 3104   0.254   1.846   5.813  0.1917 -0.3123  0.3700
  835SOL     OW 3105   0.010   0.038   6.199 -0.3673 -0.0533 -0.4657
  835SOL    HW2 3106   0.103   0.040   6.176 -0.2503 -0.6010 -0.0634
  835SOL    HW3 3107  -0.028   0.112   6.152  0.2392  0.0643 -0.7797
  835SOL    MW4 3108   0.018   0.048   6.190 -0.2718 -0.1100 -0.4540
  836SOL     OW 3109   4.215   1.988   5.977  0.0521  0.3181  0.8339
  836SOL    HW2 3110   4.222   2.061   5.914  1.6069  0.1262  0.7295
  836SOL    HW3 3111   4.252   1.914   5.930 -1.6789 -0.6197  0.8822
  836SOL    MW4 3112   4.221   1.988   5.962  0.0289  0.1691  0.8265
  837SOL     OW 3113   3.777   4.952   5.329  0.2469  0.1725 -0.6159
  837SOL    HW2 3114   3.856   4.962   5.381 -0.6856  1.1270  0.6975
  837SOL    HW3 3115   3.752   4.860   5.338  2.2763 -0.6848 -2.7506
  837SOL    MW4 3116   3.784   4.941   5.337  0.3916  0.1853 -0.7243
  838SOL     OW 3117   3.401   3.131   0.302  0.3929  0.1553  0.3638
  838SOL    HW2 3118   3.467   3.086   0.355 -0.3503  0.8633  1.9632
  838SOL    HW3 3119   3.374   3.066   0.237  0.8544 -0.9984  1.2871
  838SOL    MW4 3120   3.406   3.116   0.301  0.3557  0.0965  0.6966
  839SOL     OW 3121   4.930   4.691   5.468  0.3812  0.6528 -0.9728
  839SOL    HW2 3122   5.025   4.694   5.468  0.4268 -0.2560  0.2155
  839SOL    HW3 3123   4.908   4.600   5.447 -0.2091  0.7255 -0.7032
  839SOL    MW4 3124   4.939   4.680   5.465  0.3093  0.5425 -0.7804
  840SOL     OW 3125   4.034   5.062   4.785  0.3573  0.5900 -0.0880
  840SOL    HW2 3126   4.115   5.013   4.805 -0.3675 -0.9890 -0.8015
  840SOL    HW3 3127   3.982   5.055   4.865 -0.9591 -2.4635 -1.0368
  840SOL    MW4 3128   4.038   5.054   4.799  0.0880 -0.0212 -0.3073
  841SOL     OW 3129   5.138   4.780   0.847 -0.5181 -0.6565  0.1966
  841SOL    HW2 3130   5.146   4.729   0.927 -0.3067 -2.3222 -0.8391
  841SOL    HW3 3131   5.181   4.727   0.780  0.2335  1.1652 -0.8395
  841SOL    MW4 3132   5.145   4.767   0.849 -0.3911 -0.6359 -0.0767
  842SOL     OW 3133   1.244   3.037   1.973  0.6352  0.0498 -0.3570
  842SOL    HW2 3134   1.184   3.025   2.046 -1.3987  1.2815 -1.7126
  842SOL    HW3 3135   1.331   3.030   2.012 -0.3224 -2.2116  1.6381
  842SOL    MW4 3136   1.248   3.035   1.988  0.2405 -0.0861 -0.2727
  843SOL     OW 3137   6.268   3.178   5.849  0.2434 -0.7593 -0.2007
  843SOL    HW2 3138   6.225   3.263   5.864 -1.0695 -1.5261  0.5671
  843SOL    HW3 3139   6.337   3.197   5.785 -0.3864  0.7819 -0.4726
  843SOL    MW4 3140   6.272   3.192   5.842 -0.0129 -0.6571 -0.1353
  844SOL     OW 3141   1.977   5.110   1.311  0.3755  0.3075 -0.0542
  844SOL    HW2 3142   1.930   5.192   1.300 -1.1958 -0.6791 -1.0101
  844SOL    HW3 3143   2.025   5.098   1.229  0.3485  0.1154 -0.0425
  844SOL    MW4 3144   1.977   5.119   1.299  0.1646  0.1519 -0.1787
  845SOL     OW 3145   5.542   1.339   0.289 -0.0396 -0.5508  0.6144
  845SOL    HW2 3146   5.598   1.275   0.332 -0.2826 -1.4468 -0.3802
  845SOL    HW3 3147   5.589   1.362   0.209 -0.3156 -0.0332  0.5935
  845SOL    MW4 3148   5.556   1.334   0.284 -0.1081 -0.6008  0.4804
  846SOL     OW 3149   0.041   3.019   1.970 -0.0456 -0.1990 -0.0891
  846SOL    HW2 3150  -0.025   2.958   1.939  2.0091 -1.8670 -1.4867
  846SOL    HW3 3151   0.036   3.014   2.066 -0.9876 -1.3152 -0.1841
  846SOL    MW4 3152   0.032   3.011   1.979  0.1012 -0.5663 -0.2861
  847SOL     OW 3153   4.593   2.905   3.191  0.2043 -0.3082 -0.0132
  847SOL    HW2 3154   4.499   2.922   3.196 -0.6660 -4.1154  0.0774
  847SOL    HW3 3155   4.611   2.848   3.267  2.5586  0.1635 -0.1380
  847SOL    MW4 3156   4.583   2.900   3.202  0.4001 -0.7483 -0.0177
  848SOL     OW 3157   2.947   5.416   1.617 -0.6201  0.3060  0.5415
  848SOL    HW2 3158   2.924   5.470   1.693 -3.0255 -0.5127  0.4754
  848SOL    HW3 3159   2.898   5.455   1.545  1.6156  1.0506 -0.6471
  848SOL    MW4 3160   2.937   5.429   1.618 -0.6425  0.2962  0.3759
  849SOL     OW 3161   3.165   0.907   0.328 -0.5456  0.3887 -0.3051
  849SOL    HW2 3162   3.106   0.832   0.316 -0.2625 -0.0062  0.6654
  849SOL    HW3 3163   3.152   0.960   0.250 -1.8582  0.0808 -0.3260
  849SOL    MW4 3164   3.155   0.904   0.317 -0.6814  0.2960 -0.1799
  850SOL     OW 3165   0.270   1.784   1.929  0.1731  0.1724  0.3172
  850SOL    HW2 3166   0.234   1.873   1.922 -5.0175 -1.6226  0.1019
  850SOL    HW3 3167   0.291   1.759   1.839  0.2245  0.6918  0.1833
  850SOL    MW4 3168   0.268   1.793   1.916 -0.5050  0.0041  0.2711
  851SOL     OW 3169   6.287   1.391   1.127  0.3990  0.4643  0.1322
  851SOL    HW2 3170   6.259   1.425   1.212  0.0993 -0.6177  0.4763
  851SOL    HW3 3171   6.331   1.309   1.147 -2.1580 -1.2773 -0.9550
  851SOL    MW4 3172   6.289   1.385   1.141  0.0221  0.0917  0.0342
  852SOL     OW 3173   2.619   0.586   2.405  0.6451  0.3709 -0.6779
  852SOL    HW2 3174   2.641   0.679   2.397 -1.5538  0.9206 -0.9859
  852SOL    HW3 3175   2.643   0.563   2.494  2.1560  0.9346 -0.9074
  852SOL    MW4 3176   2.625   0.595   2.416  0.5544  0.5178 -0.7488
  853SOL     OW 3177   5.028   3.330   4.912 -0.6192 -0.3086  0.6908
  853SOL    HW2 3178   5.004   3.323   5.004  0.2552  1.9431  1.1629
  853SOL    HW3 3179   4.945   3.326   4.865 -1.5562  2.4095  1.9126
  853SOL    MW4 3180   5.014   3.329   4.918 -0.6275  0.3471  0.9143
  854SOL     OW 3181   1.152   1.602   1.012 -0.2342 -0.1214  0.7324
  854SOL    HW2 3182   1.092   1.528   1.019 -0.1303 -0.1858  0.9347
  854SOL    HW3 3183   1.173   1.607   0.918 -1.7183  0.8214  0.4132
  854SOL    MW4 3184   1.147   1.593   1.000 -0.4163 -0.0055  0.7170
  855SOL     OW 3185   4.673   3.027   1.319 -0.6980  0.1489  0.8551
  855SOL    HW2 3186   4.762   3.052   1.295  0.1811 -2.4542  1.0380
  855SOL    HW3 3187   4.624   3.031   1.236 -0.5685  2.0724  0.8462
  855SOL    MW4 3188   4.678   3.031   1.305 -0.5649  0.0592  0.8781
  856SOL     OW 3189   5.871   1.720   0.873  0.5837 -0.2108 -0.2452
  856SOL    HW2 3190   5.955   1.673   0.869  1.0320  0.5880 -0.3242
  856SOL    HW3 3191   5.866   1.769   0.792 -0.6684 -1.3910 -0.9322
  856SOL    MW4 3192   5.881   1.720   0.862  0.4776 -0.2611 -0.3463
  857SOL     OW 3193   0.294   3.211   4.644  0.4235 -0.2319 -0.3906
  857SOL    HW2 3194   0.279   3.133   4.699  0.2161 -0.1983 -0.3998
  857SOL    HW3 3195   0.349   3.179   4.572  1.0249 -0.1915  0.0435
  857SOL    MW4 3196   0.299   3.196   4.642  0.4755 -0.2221 -0.3346
  858SOL     OW 3197   5.383   2.191   3.451  0.1928  0.1930  0.6513
  858SOL    HW2 3198   5.446   2.223   3.386  0.4369 -1.9188 -0.2635
  858SOL    HW3 3199   5.307   2.247   3.440  0.4143  0.2017 -1.1687
  858SOL    MW4 3200   5.382   2.202   3.441  0.2542 -0.0845  0.2905
  859SOL     OW 3201   5.706   3.836   0.949  0.3418  0.4412 -0.2423
  859SOL    HW2 3202   5.720   3.879   1.034  0.4899 -0.8428  0.3938
  859SOL    HW3 3203   5.616   3.805   0.952  1.1533 -2.0987  0.6448
  859SOL    MW4 3204   5.696   3.838   0.960  0.4684 -0.0633 -0.0413
  860SOL     OW 3205   3.117   1.771   4.166 -0.4023  0.3673  0.6751
  860SOL    HW2 3206   3.050   1.724   4.116 -0.4602  0.1823  0.9271
  860SOL    HW3 3207   3.156   1.831   4.102 -1.2288  0.9142  0.6638
  860SOL    MW4 3208   3.113   1.773   4.151 -0.5190  0.4150  0.7069
  861SOL     OW 3209   5.623   5.239   3.390  0.4926 -0.3571  0.1114
  861SOL    HW2 3210   5.642   5.325   3.351 -0.7313 -0.0082  0.2586
  861SOL    HW3 3211   5.710   5.200   3.404  1.1182  1.2139  0.8515
  861SOL    MW4 3212   5.637   5.245   3.386  0.4137 -0.1038  0.2285
  862SOL     OW 3213   1.118   0.113   3.156 -0.2313  0.1396  0.4965
  862SOL    HW2 3214   1.167   0.049   3.104 -0.2215 -0.2804  1.0055
  862SOL    HW3 3215   1.033   0.119   3.113 -0.0563  0.1578  0.1533
  862SOL    MW4 3216   1.114   0.105   3.144 -0.2069  0.0866  0.5184
  863SOL     OW 3217   5.556   4.960   4.350  0.2299  0.4516  0.0731
  863SOL    HW2 3218   5.532   4.982   4.260  0.8492  1.9889  0.2605
  863SOL    HW3 3219   5.550   4.864   4.354 -0.1789  0.3937 -1.4840
  863SOL    MW4 3220   5.552   4.950   4.339  0.2577  0.6468 -0.1076
  864SOL     OW 3221   3.241   3.397   3.567 -0.4801  0.3141  0.1080
  864SOL    HW2 3222   3.156   3.398   3.523 -0.3179  0.6136 -0.2084
  864SOL    HW3 3223   3.252   3.487   3.600 -0.1753  0.3455 -0.0734
  864SOL    MW4 3224   3.231   3.409   3.566 -0.4185  0.3577  0.0423
  865SOL     OW 3225   1.575   0.647   4.119 -0.6308  0.2059  0.3928
  865SOL    HW2 3226   1.613   0.700   4.049  0.6453 -0.8832  0.2195
  865SOL    HW3 3227   1.486   0.628   4.090 -0.4569  0.6138 -0.4427
  865SOL    MW4 3228   1.568   0.652   4.106 -0.4395  0.1161  0.2597
  866SOL     OW 3229   1.609   0.449   4.596 -0.4287 -0.4777  0.2687
  866SOL    HW2 3230   1.613   0.542   4.578  0.7392 -0.9422 -2.3201
  866SOL    HW3 3231   1.615   0.442   4.691  0.2228  2.0293  0.4709
  866SOL    MW4 3232   1.610   0.460   4.606 -0.1887 -0.2082 -0.0462
  867SOL     OW 3233   0.090   0.008   2.295  0.3520 -0.1585  0.1931
  867SOL    HW2 3234   0.183  -0.001   2.316  0.4482 -0.1673 -0.2310
  867SOL    HW3 3235   0.050   0.038   2.376  0.4435 -1.8242  0.8822
  867SOL    MW4 3236   0.097   0.011   2.308  0.3768 -0.3794  0.2281
  868SOL     OW 3237   2.630   1.883   5.112 -0.1010  0.6113  0.2206
  868SOL    HW2 3238   2.628   1.838   5.197  0.8010 -0.7306 -0.4289
  868SOL    HW3 3239   2.718   1.866   5.079  0.0059  2.2391 -0.4211
  868SOL    MW4 3240   2.642   1.875   5.119  0.0321  0.6490  0.0502
  869SOL     OW 3241   3.660   4.494   2.390 -0.2361  0.2227  0.2227
  869SOL    HW2 3242   3.701   4.566   2.439  0.3570 -0.7817  1.2565
  869SOL    HW3 3243   3.570   4.492   2.422 -0.4846  0.9955 -0.3952
  869SOL    MW4 3244   3.653   4.504   2.401 -0.1906  0.1922  0.2775
  870SOL     OW 3245   3.694   5.186   3.860 -0.0449  0.3960 -0.2330
  870SOL    HW2 3246   3.660   5.134   3.933  0.4611  0.1103 -0.1996
  870SOL    HW3 3247   3.616   5.206   3.807 -0.3230  0.0834  0.0510
  870SOL    MW4 3248   3.679   5.182   3.863 -0.0148  0.3170 -0.1911
  871SOL     OW 3249   1.395   1.363   3.327 -0.1486 -0.2464 -0.0068
  871SOL    HW2 3250   1.361   1.453   3.321  1.1389  0.3054  0.6868
  871SOL    HW3 3251   1.319   1.308   3.308 -1.0793  0.9763  0.0429
  871SOL    MW4 3252   1.380   1.368   3.324 -0.1015 -0.0123  0.0913
  872SOL     OW 3253   2.532   3.924   1.836  0.2384 -0.3145 -0.1391
  872SOL    HW2 3254   2.546   4.019   1.838 -1.3945 -0.0526  1.7616
  872SOL    HW3 3255   2.537   3.897   1.928 -1.1668 -1.7437 -0.4439
  872SOL    MW4 3256   2.534   3.933   1.848 -0.1624 -0.4685  0.0715
  873SOL     OW 3257   3.909   3.078   0.930  0.2564 -0.3518 -0.1084
  873SOL    HW2 3258   3.876   3.110   0.846 -0.0557  1.2461  0.5785
  873SOL    HW3 3259   3.963   3.002   0.908 -0.2441 -0.2755 -1.6907
  873SOL    MW4 3260   3.912   3.072   0.916  0.1492 -0.1309 -0.2265
  874SOL     OW 3261   5.161   3.421   6.399 -0.0943  0.2326  0.0160
  874SOL    HW2 3262   5.127   3.448   6.484  1.3300  1.1747  0.3222
  874SOL    HW3 3263   5.104   3.349   6.372  0.6815 -1.5772  2.7766
  874SOL    MW4 3264   5.149   3.415   6.406  0.1960  0.1181  0.4206
  875SOL     OW 3265   2.012   6.373   0.085 -0.0142  0.1323  0.0343
  875SOL    HW2 3266   2.023   6.349  -0.007  1.4245  0.6376  0.0379
  875SOL    HW3 3267   2.048   6.462   0.090  1.0950 -0.3514  1.2999
  875SOL    MW4 3268   2.018   6.382   0.074  0.3220  0.1352  0.2018
  876SOL     OW 3269   6.279   6.323   3.122  0.5450 -0.7976 -0.3412
  876SOL    HW2 3270   6.298   6.248   3.179 -0.2165 -0.4852  0.3514
  876SOL    HW3 3271   6.261   6.284   3.037  2.0681 -1.2494 -0.4867
  876SOL    MW4 3272   6.279   6.308   3.119  0.6455 -0.8160 -0.2690
  877SOL     OW 3273   3.102   1.963   5.177  0.1180 -0.2863  0.7917
  877SOL    HW2 3274   3.063   2.043   5.213  0.7282 -0.1639  1.2043
  877SOL    HW3 3275   3.196   1.977   5.186  0.2140 -1.5305  1.9106
  877SOL    MW4 3276   3.109   1.976   5.183  0.2112 -0.4343  0.9937
  878SOL     OW 3277   6.377   3.559   2.493 -0.1042 -0.1156 -0.1698
  878SOL    HW2 3278   6.397   3.468   2.513 -0.0668  0.1759  1.2073
  878SOL    HW3 3279   6.292   3.575   2.532 -0.1996  0.3938 -0.5664
  878SOL    MW4 3280   6.369   3.549   2.500 -0.1119 -0.0099 -0.0404
  879SOL     OW 3281   1.225   4.476   2.241  0.4226 -0.0728 -0.0887
  879SOL    HW2 3282   1.292   4.537   2.271 -0.4407  2.1221 -2.3468
  879SOL    HW3 3283   1.143   4.510   2.277  0.2024 -1.4962  0.8536
  879SOL    MW4 3284   1.223   4.488   2.250  0.2796  0.0290 -0.2623
  880SOL     OW 3285   1.956   3.200   2.433  0.0352 -1.0708  0.3579
  880SOL    HW2 3286   1.936   3.164   2.347  1.6507  0.3586 -0.6811
  880SOL    HW3 3287   2.052   3.201   2.437  0.1037  2.3339  0.5753
  880SOL    MW4 3288   1.966   3.195   2.422  0.2574 -0.4330  0.2495
  881SOL     OW 3289   0.989   3.788   1.850 -0.0729  0.2283  0.1007
  881SOL    HW2 3290   0.921   3.834   1.801 -0.7238  1.5929  2.1508
  881SOL    HW3 3291   1.067   3.793   1.794 -0.7629  1.7547 -0.7766
  881SOL    MW4 3292   0.990   3.795   1.836 -0.2498  0.6098  0.2554
  882SOL     OW 3293   0.514   0.632   3.848 -0.3554 -0.1224 -0.1453
  882SOL    HW2 3294   0.519   0.724   3.822  1.0348 -0.1072  0.0932
  882SOL    HW3 3295   0.498   0.585   3.766  0.7195  0.1969 -0.5584
  882SOL    MW4 3296   0.512   0.638   3.833 -0.0301 -0.0783 -0.1683
  883SOL     OW 3297   3.561   5.328   0.597  0.1353 -0.0743 -0.5100
  883SOL    HW2 3298   3.558   5.329   0.501  0.5220  0.0053 -0.5264
  883SOL    HW3 3299   3.654   5.342   0.617  0.1174 -0.4912 -0.1311
  883SOL    MW4 3300   3.573   5.330   0.587  0.1840 -0.1188 -0.4622
  884SOL     OW 3301   4.274   5.785   4.532 -0.0831 -0.0964 -0.2845
  884SOL    HW2 3302   4.341   5.745   4.476 -0.5884 -3.2409  1.1354
  884SOL    HW3 3303   4.198   5.728   4.524 -0.4031 -0.3438  2.9946
  884SOL    MW4 3304   4.273   5.772   4.524 -0.1920 -0.5439  0.3354
  885SOL     OW 3305   0.709   2.023   5.687  0.0735  0.2661 -0.2628
  885SOL    HW2 3306   0.685   2.087   5.620  0.7286 -1.0514 -1.8207
  885SOL    HW3 3307   0.660   1.944   5.662  0.5612 -0.3382  0.6541
  885SOL    MW4 3308   0.699   2.021   5.675  0.2243  0.0125 -0.3474
  886SOL     OW 3309   0.786   2.604   3.928  0.3226  0.0054 -0.4540
  886SOL    HW2 3310   0.791   2.520   3.974 -2.2318 -0.1497 -0.3536
  886SOL    HW3 3311   0.719   2.653   3.975  0.5902  1.4544 -1.5366
  886SOL    MW4 3312   0.778   2.599   3.940  0.0209  0.1761 -0.5836
  887SOL     OW 3313   1.487   2.701   4.191  0.2565 -0.2546 -0.4344
  887SOL    HW2 3314   1.493   2.781   4.243  0.9502  0.7089 -1.9326
  887SOL    HW3 3315   1.394   2.681   4.188 -0.0456  1.1685 -1.0129
  887SOL    MW4 3316   1.476   2.709   4.198  0.3082  0.0603 -0.7084
  888SOL     OW 3317   1.442   6.425   3.366  0.4876  0.3537  0.0301
  888SOL    HW2 3318   1.491   6.361   3.417 -0.8755 -0.0411  0.8965
  888SOL    HW3 3319   1.479   6.509   3.392 -0.5357  0.2134  2.1698
  888SOL    MW4 3320   1.454   6.428   3.376  0.1727  0.2831  0.4267
  889SOL     OW 3321   5.993   3.603   5.758  0.3877 -0.1952  0.3572
  889SOL    HW2 3322   5.941   3.572   5.832 -0.4405 -1.0295 -0.5491
  889SOL    HW3 3323   5.934   3.661   5.711 -0.1546 -1.9570 -1.2618
  889SOL    MW4 3324   5.979   3.607   5.762  0.2069 -0.5377  0.0240
  890SOL     OW 3325   3.370   5.510   6.371 -0.3162 -0.1418  0.1063
  890SOL    HW2 3326   3.407   5.453   6.303 -0.2244  0.5438 -0.4275
  890SOL    HW3 3327   3.373   5.457   6.450 -0.2422 -0.8874 -0.3816
  890SOL    MW4 3328   3.376   5.495   6.372 -0.2943 -0.1497 -0.0285
  891SOL     OW 3329   0.028   0.626   2.169 -0.1507 -0.3918 -0.6146
  891SOL    HW2 3330  -0.066   0.639   2.184 -0.1243  0.3554 -1.0392
  891SOL    HW3 3331   0.063   0.715   2.156  0.7306 -0.6109  0.1918
  891SOL    MW4 3332   0.020   0.640   2.169 -0.0309 -0.3221 -0.5642
  892SOL     OW 3333   2.104   4.029   4.874 -0.0884  0.1491 -0.7921
  892SOL    HW2 3334   2.106   3.990   4.786  1.1286 -1.1014 -0.2557
  892SOL    HW3 3335   2.082   3.956   4.932  1.8024  0.3066  0.2024
  892SOL    MW4 3336   2.102   4.014   4.870  0.3217  0.0049 -0.5901
  893SOL     OW 3337   1.674   1.147   6.399 -0.3745 -0.4472  0.1694
  893SOL    HW2 3338   1.604   1.118   6.457 -1.1308 -0.4497 -0.7207
  893SOL    HW3 3339   1.634   1.151   6.312  0.6747 -0.2552 -0.3322
  893SOL    MW4 3340   1.660   1.143   6.395 -0.3358 -0.4222 -0.0142
  894SOL     OW 3341   5.818   1.876   1.199 -0.0752  0.8061  0.4580
  894SOL    HW2 3342   5.817   1.965   1.165  1.4814  0.8499  0.4788
  894SOL    HW3 3343   5.751   1.830   1.149 -1.0510  2.0272  0.6054
  894SOL    MW4 3344   5.809   1.882   1.188  0.0014  0.9730  0.4802
  895SOL     OW 3345   0.677   4.446   2.188 -0.4597  0.1559 -0.2078
  895SOL    HW2 3346   0.765   4.459   2.224 -0.4713  1.8025 -0.6836
  895SOL    HW3 3347   0.679   4.358   2.151  0.0470 -1.0177  2.3527
  895SOL    MW4 3348   0.689   4.436   2.188 -0.3944  0.2183  0.0672
  896SOL     OW 3349   2.549   2.874   4.532  0.0714  0.3042  0.2041
  896SOL    HW2 3350   2.521   2.959   4.566  0.9390  0.1800  1.3018
  896SOL    HW3 3351   2.611   2.896   4.462  1.6132  0.6229  1.6138
  896SOL    MW4 3352   2.554   2.888   4.527  0.3893  0.3299  0.5349
  897SOL     OW 3353   4.802   4.290   5.742  0.5645 -0.1926 -1.1436
  897SOL    HW2 3354   4.814   4.221   5.677  1.7872  0.1686 -1.3240
  897SOL    HW3 3355   4.709   4.284   5.767  0.4273 -1.2559 -1.8629
  897SOL    MW4 3356   4.791   4.280   5.736  0.7077 -0.2852 -1.2623
  898SOL     OW 3357   4.831   2.790   3.666  0.1585 -0.3800  0.5544
  898SOL    HW2 3358   4.752   2.818   3.714 -0.3610  0.6547 -0.8148
  898SOL    HW3 3359   4.902   2.841   3.706  0.2721 -1.7411  2.1810
  898SOL    MW4 3360   4.830   2.801   3.678  0.1049 -0.4231  0.5884
  899SOL     OW 3361   3.784   5.888   1.233 -0.4804 -0.1858  0.0670
  899SOL    HW2 3362   3.830   5.894   1.149  0.5881  0.4655  0.6740
  899SOL    HW3 3363   3.708   5.945   1.223 -0.4681 -0.2691 -0.5228
  899SOL    MW4 3364   3.780   5.896   1.220 -0.3378 -0.1108  0.0693
  900SOL     OW 3365   5.305   1.270   4.752  0.5020  0.1712  0.0069
  900SOL    HW2 3366   5.217   1.277   4.790  0.7936 -2.0865  1.2633
  900SOL    HW3 3367   5.290   1.238   4.663  0.0444 -2.7716  1.0373
  900SOL    MW4 3368   5.291   1.266   4.746  0.4801 -0.5149  0.3086
  901SOL     OW 3369   4.150   5.540   5.454  0.3945 -0.0048  0.2274
  901SOL    HW2 3370   4.191   5.454   5.453  1.6192  0.5451  0.6248
  901SOL    HW3 3371   4.107   5.545   5.539  0.1956 -0.2836  0.1420
  901SOL    MW4 3372   4.150   5.529   5.465  0.5299  0.0309  0.2685
  902SOL     OW 3373   1.998   0.348   5.872 -0.0360  0.3172 -0.7275
  902SOL    HW2 3374   1.957   0.389   5.795  0.9400 -1.9935 -2.6132
  902SOL    HW3 3375   1.959   0.261   5.876 -0.7950  0.6899  2.1052
  902SOL    MW4 3376   1.987   0.342   5.862 -0.0074  0.0615 -0.6025
  903SOL     OW 3377   2.743   4.913   4.183 -0.2240  0.3224 -0.6258
  903SOL    HW2 3378   2.723   4.841   4.243 -1.7178 -0.7256 -2.2615
  903SOL    HW3 3379   2.660   4.959   4.172  0.7028  2.3321  0.3560
  903SOL    MW4 3380   2.729   4.909   4.189 -0.2988  0.4493 -0.7121
  904SOL     OW 3381   4.290   3.437   3.946 -0.2692 -0.0690  0.0816
  904SOL    HW2 3382   4.313   3.346   3.963  0.5579  0.2954  0.9736
  904SOL    HW3 3383   4.350   3.464   3.876 -0.7251 -0.2926 -0.4016
  904SOL    MW4 3384   4.301   3.429   3.939 -0.2202 -0.0505  0.1356
  905SOL     OW 3385   4.650   5.486   0.853  0.0040 -0.6606  0.0893
  905SOL    HW2 3386   4.625   5.558   0.912 -0.2634 -1.0289  0.4306
  905SOL    HW3 3387   4.608   5.409   0.891  2.0742 -1.4131  1.0146
  905SOL    MW4 3388   4.641   5.485   0.866  0.2419 -0.8085  0.2564
  906SOL     OW 3389   5.053   2.191   3.108 -0.1889  0.3314  0.2870
  906SOL    HW2 3390   5.039   2.103   3.073  0.3243 -0.3744  1.7657
  906SOL    HW3 3391   4.967   2.234   3.100 -0.4527 -0.2972 -0.4107
  906SOL    MW4 3392   5.040   2.185   3.102 -0.1560  0.1553  0.3901
  907SOL     OW 3393   1.404   5.916   2.232  0.3641 -0.0309  0.3794
  907SOL    HW2 3394   1.402   5.821   2.216 -1.2068  0.1255 -0.5225
  907SOL    HW3 3395   1.478   5.947   2.179  0.2758 -0.6320 -0.1147
  907SOL    MW4 3396   1.414   5.907   2.223  0.1452 -0.0895  0.1952
  908SOL     OW 3397   4.525   2.152   1.687 -0.4264 -0.4626 -0.1490
  908SOL    HW2 3398   4.479   2.069   1.701 -1.4819 -0.2316 -1.8957
  908SOL    HW3 3399   4.534   2.159   1.592  1.2965  0.5790  0.0386
  908SOL    MW4 3400   4.520   2.142   1.676 -0.3384 -0.2947 -0.3547
  909SOL     OW 3401   4.262   4.140   5.643 -0.0995 -0.2908  0.6333
  909SOL    HW2 3402   4.317   4.067   5.617  0.7461  0.2174  0.9368
  909SOL    HW3 3403   4.261   4.137   5.739  0.7362  0.6338  0.6924
  909SOL    MW4 3404   4.270   4.130   5.652  0.1223 -0.1018  0.6812
  910SOL     OW 3405   0.076   0.547   4.319 -0.1289 -0.1469 -0.8483
  910SOL    HW2 3406   0.047   0.617   4.377 -0.5034 -1.3739  0.4884
  910SOL    HW3 3407   0.167   0.569   4.300  0.3585 -0.2930  1.1247
  910SOL    MW4 3408   0.084   0.559   4.324 -0.1140 -0.3281 -0.4116
  911SOL     OW 3409   2.139   4.985   2.174  0.0434  0.2537 -0.1666
  911SOL    HW2 3410   2.103   5.028   2.251 -0.0257  0.1626 -0.1478
  911SOL    HW3 3411   2.170   4.900   2.207 -0.1610  0.1361 -0.2765
  911SOL    MW4 3412   2.139   4.979   2.189  0.0074  0.2261 -0.1786
  912SOL     OW 3413   2.346   3.732   5.132  0.4851 -0.3241  0.0212
  912SOL    HW2 3414   2.287   3.669   5.173  0.6791  0.5060  1.6209
  912SOL    HW3 3415   2.408   3.756   5.201  0.7117  1.2530 -0.6895
  912SOL    MW4 3416   2.346   3.727   5.146  0.5406 -0.0065  0.1385
  913SOL     OW 3417   5.051   4.109   3.317 -0.6994 -0.3133 -0.0911
  913SOL    HW2 3418   5.078   4.194   3.283  0.4948 -0.1755  1.1052
  913SOL    HW3 3419   4.965   4.125   3.357 -0.6700  0.2241 -0.2369
  913SOL    MW4 3420   5.043   4.123   3.318 -0.5380 -0.2242  0.0475
  914SOL     OW 3421   1.891   5.937   3.645  0.0594 -0.0627 -0.4370
  914SOL    HW2 3422   1.816   5.995   3.659 -0.6756 -0.8478 -1.0059
  914SOL    HW3 3423   1.899   5.931   3.550  0.5060 -0.4158 -0.3782
  914SOL    MW4 3424   1.882   5.944   3.634  0.0214 -0.2129 -0.5043
  915SOL     OW 3425   2.344   5.951   1.720 -0.4696 -0.0759 -0.2180
  915SOL    HW2 3426   2.264   5.943   1.668 -0.0881  0.2103 -0.8636
  915SOL    HW3 3427   2.408   5.989   1.660  0.1979 -0.4476  0.2423
  915SOL    MW4 3428   2.342   5.955   1.705 -0.3312 -0.0871 -0.2424
  916SOL     OW 3429   2.991   5.574   2.236  0.8480  0.4318 -0.0210
  916SOL    HW2 3430   3.047   5.568   2.314  1.2201  0.8055 -0.2568
  916SOL    HW3 3431   3.034   5.639   2.181 -0.5659  1.7615  0.3831
  916SOL    MW4 3432   3.004   5.581   2.239  0.7105  0.6565  0.0012
  917SOL     OW 3433   3.682   5.501   5.113  0.1566  0.5263 -0.2990
  917SOL    HW2 3434   3.680   5.550   5.030 -0.7688 -0.3647 -0.8245
  917SOL    HW3 3435   3.775   5.494   5.134  0.3815  1.1880 -1.0028
  917SOL    MW4 3436   3.694   5.507   5.105  0.0642  0.4961 -0.4612
  918SOL     OW 3437   6.171   0.913   5.542 -0.4954  0.4032  0.2899
  918SOL    HW2 3438   6.077   0.898   5.549 -0.5853  1.0643  0.4825
  918SOL    HW3 3439   6.182   0.961   5.460 -0.5253  1.9364  1.1543
  918SOL    MW4 3440   6.160   0.917   5.532 -0.5112  0.6927  0.4293
  919SOL     OW 3441   3.788   2.855   4.328 -0.4535  0.2350  0.1110
  919SOL    HW2 3442   3.701   2.888   4.351 -0.8714  0.6709 -1.8688
  919SOL    HW3 3443   3.843   2.933   4.321 -0.0490  0.0148  0.7083
  919SOL    MW4 3444   3.784   2.870   4.330 -0.4553  0.2635 -0.0714
  920SOL     OW 3445   1.808   3.546   1.378  0.0541 -0.5617 -0.0322
  920SOL    HW2 3446   1.774   3.603   1.309  1.1718  1.1968  0.7909
  920SOL    HW3 3447   1.759   3.570   1.456  0.8701 -0.3516  0.4341
  920SOL    MW4 3448   1.797   3.557   1.379  0.3093 -0.3019  0.1379
  921SOL     OW 3449   1.739   6.174   3.072 -0.4235  0.1118  0.1892
  921SOL    HW2 3450   1.746   6.268   3.093  2.3046  0.3697 -1.3370
  921SOL    HW3 3451   1.733   6.171   2.977  3.6196 -1.2179 -0.2100
  921SOL    MW4 3452   1.739   6.186   3.062  0.4699 -0.0296 -0.0648
  922SOL     OW 3453   3.060   0.202   5.900  0.3162 -0.7764 -0.8250
  922SOL    HW2 3454   3.066   0.262   5.974  0.6289 -1.7297 -0.0619
  922SOL    HW3 3455   3.147   0.205   5.860  0.4383 -0.9981 -0.5735
  922SOL    MW4 3456   3.072   0.211   5.904  0.3736 -0.9314 -0.6912
  923SOL     OW 3457   3.714   0.313   1.935 -0.0884 -0.0285 -0.3603
  923SOL    HW2 3458   3.702   0.383   1.999  0.8146 -2.3199  2.5138
  923SOL    HW3 3459   3.631   0.265   1.936  1.1210 -2.3673  2.2568
  923SOL    MW4 3460   3.701   0.316   1.943  0.1903 -0.6394  0.3642
  924SOL     OW 3461   2.186   1.087   1.011 -0.1493 -0.5577 -0.3071
  924SOL    HW2 3462   2.237   1.023   0.961  1.0489  1.0406 -1.2243
  924SOL    HW3 3463   2.231   1.093   1.096  0.4579 -0.0732 -0.6569
  924SOL    MW4 3464   2.198   1.079   1.016  0.0889 -0.2829 -0.4742
  925SOL     OW 3465   5.889   5.124   4.240  0.1947 -0.2090  0.2653
  925SOL    HW2 3466   5.975   5.121   4.198  0.2031  1.4626  0.1169
  925SOL    HW3 3467   5.908   5.113   4.333  0.7230  1.3066  0.3638
  925SOL    MW4 3468   5.903   5.122   4.247  0.2655  0.2115  0.2587
  926SOL     OW 3469   1.045   4.735   1.004  0.4091 -0.1874 -0.3312
  926SOL    HW2 3470   1.109   4.670   0.974  1.1954  0.9871 -1.2942
  926SOL    HW3 3471   1.099   4.809   1.032 -0.5249  0.9700 -1.4958
  926SOL    MW4 3472   1.061   4.736   1.004  0.3896  0.1203 -0.6119
  927SOL     OW 3473   3.479   5.488   5.464  0.0175  0.2376 -0.4286
  927SOL    HW2 3474   3.406   5.531   5.508 -0.4380  1.9620 -2.7071
  927SOL    HW3 3475   3.542   5.558   5.446  1.1082 -0.7783 -0.7055
  927SOL    MW4 3476   3.478   5.503   5.467  0.1013  0.3310 -0.7658
  928SOL     OW 3477   3.901   3.520   5.443  0.1489  0.0726 -0.5091
  928SOL    HW2 3478   3.979   3.500   5.391  0.7126  2.8396 -0.8992
  928SOL    HW3 3479   3.922   3.487   5.531  1.3152 -0.1729 -0.8610
  928SOL    MW4 3480   3.914   3.513   5.448  0.3772  0.4053 -0.6070
  929SOL     OW 3481   3.325   4.276   3.559  0.2499  0.0277  0.6589
  929SOL    HW2 3482   3.271   4.267   3.638 -1.0903  0.7154 -0.1382
  929SOL    HW3 3483   3.401   4.219   3.575 -0.2465 -0.2494  2.2089
  929SOL    MW4 3484   3.328   4.267   3.571  0.0076  0.0819  0.7582
  930SOL     OW 3485   2.842   1.038   2.518  0.0648 -0.1084 -0.2804
  930SOL    HW2 3486   2.874   0.989   2.593  0.0462  0.5734  0.1843
  930SOL    HW3 3487   2.800   1.115   2.555  0.1294  0.2838 -0.9866
  930SOL    MW4 3488   2.841   1.042   2.533  0.0709  0.0333 -0.3123
  931SOL     OW 3489   3.300   3.803   5.473 -0.2399 -0.4051 -0.3547
  931SOL    HW2 3490   3.212   3.834   5.450  0.7368  1.8414 -1.3985
  931SOL    HW3 3491   3.328   3.861   5.544  0.2659 -1.3478  0.2323
  931SOL    MW4 3492   3.292   3.815   5.479 -0.0443 -0.2331 -0.4150
  932SOL     OW 3493   2.888   2.995   3.251  0.2062  0.3835 -0.4652
  932SOL    HW2 3494   2.892   3.011   3.156 -0.5067 -0.1306 -0.5881
  932SOL    HW3 3495   2.885   2.899   3.259 -0.2386  0.4364  0.0527
  932SOL    MW4 3496   2.888   2.984   3.239  0.0535  0.3227 -0.4131
  933SOL     OW 3497   1.528   4.520   3.695  0.2201 -0.5425  0.1130
  933SOL    HW2 3498   1.560   4.451   3.752 -0.7962 -1.3449 -0.2498
  933SOL    HW3 3499   1.605   4.574   3.677  0.6611 -0.5600  1.8033
  933SOL    MW4 3500   1.542   4.518   3.700  0.1442 -0.6506  0.2882
  934SOL     OW 3501   4.108   2.436   4.866 -0.1920  0.6585 -0.3634
  934SOL    HW2 3502   4.061   2.354   4.853  0.7721  0.1785 -0.9628
  934SOL    HW3 3503   4.045   2.494   4.908 -1.4347  0.1786 -1.4986
  934SOL    MW4 3504   4.094   2.433   4.870 -0.2287  0.5318 -0.5923
  935SOL     OW 3505   0.068   4.914   3.910 -0.2750  0.1388  0.0042
  935SOL    HW2 3506  -0.024   4.894   3.927 -1.1481  1.8630 -2.1890
  935SOL    HW3 3507   0.067   4.960   3.827  2.6172  0.1588 -0.1044
  935SOL    MW4 3508   0.056   4.918   3.902 -0.0086  0.3690 -0.2995
  936SOL     OW 3509   2.584   1.273   6.251  0.9129  0.0999 -0.0436
  936SOL    HW2 3510   2.544   1.191   6.281  2.0249 -0.0203  1.2048
  936SOL    HW3 3511   2.514   1.338   6.257 -0.2698 -0.9007 -1.9872
  936SOL    MW4 3512   2.569   1.271   6.256  0.9036 -0.0480 -0.1353
  937SOL     OW 3513   2.416   0.554   2.223 -0.3373  0.1148 -0.3808
  937SOL    HW2 3514   2.461   0.526   2.143 -0.2848  0.5327 -0.5001
  937SOL    HW3 3515   2.484   0.551   2.291  0.2012  1.8502 -0.7804
  937SOL    MW4 3516   2.431   0.550   2.221 -0.2593  0.3989 -0.4493
  938SOL     OW 3517   1.965   2.241   4.672 -0.4776 -0.1356 -0.3187
  938SOL    HW2 3518   2.037   2.304   4.669 -0.4532 -0.1794 -0.9104
  938SOL    HW3 3519   1.920   2.251   4.588  0.1755 -1.6455 -0.8964
  938SOL    MW4 3520   1.968   2.250   4.660 -0.3882 -0.3406 -0.4730
  939SOL     OW 3521   5.518   0.331   3.151 -0.1314  0.1047 -0.2483
  939SOL    HW2 3522   5.574   0.278   3.209 -1.8300 -0.8604  0.5799
  939SOL    HW3 3523   5.556   0.318   3.064  1.1486 -0.2139  0.3258
  939SOL    MW4 3524   5.531   0.322   3.147 -0.1866 -0.0647 -0.0633
  940SOL     OW 3525   0.031   0.019   5.863  0.9490 -0.0715  0.3242
  940SOL    HW2 3526   0.052  -0.073   5.880  0.1589 -0.3241 -0.0176
  940SOL    HW3 3527  -0.048   0.016   5.809  1.5201  0.7874 -0.5853
  940SOL    MW4 3528   0.023   0.006   5.858  0.9201  0.0085  0.1591
  941SOL     OW 3529   2.347   5.122   3.944 -0.1613 -0.4258  0.3777
  941SOL    HW2 3530   2.410   5.145   3.876  1.1355 -0.2128  1.5921
  941SOL    HW3 3531   2.295   5.201   3.957 -0.7472 -0.6227 -0.6797
  941SOL    MW4 3532   2.349   5.135   3.937 -0.0675 -0.4237  0.3984
  942SOL     OW 3533   2.066   1.227   4.629 -0.0767  0.3456  1.0902
  942SOL    HW2 3534   2.125   1.182   4.689  2.4136 -0.5390 -1.8078
  942SOL    HW3 3535   2.097   1.317   4.628  0.3870  0.1828  0.5657
  942SOL    MW4 3536   2.078   1.233   4.637  0.3130  0.2074  0.6386
  943SOL     OW 3537   5.186   5.119   2.979 -0.4672 -0.0227  0.5060
  943SOL    HW2 3538   5.120   5.088   2.917  0.1833 -0.8255  0.1916
  943SOL    HW3 3539   5.256   5.153   2.924 -0.1145 -0.2496  0.8162
  943SOL    MW4 3540   5.186   5.119   2.963 -0.3348 -0.1586  0.5054
  944SOL     OW 3541   2.732   3.557   5.980 -0.0341 -0.9863  0.6890
  944SOL    HW2 3542   2.647   3.534   6.017  0.0183  0.0370  1.4914
  944SOL    HW3 3543   2.761   3.633   6.031  0.5206 -0.1623 -0.7658
  944SOL    MW4 3544   2.725   3.564   5.992  0.0460 -0.7426  0.6029
  945SOL     OW 3545   2.169   3.675   0.814  0.2139 -0.0557  0.0070
  945SOL    HW2 3546   2.211   3.666   0.728 -0.8054  0.0551 -0.5190
  945SOL    HW3 3547   2.131   3.589   0.831 -1.4475  0.4979 -0.6788
  945SOL    MW4 3548   2.170   3.663   0.805 -0.1398  0.0319 -0.1529
  946SOL     OW 3549   2.885   5.091   6.170 -0.3000 -0.7281 -0.0067
  946SOL    HW2 3550   2.887   4.996   6.173 -1.5169 -0.7502  0.3934
  946SOL    HW3 3551   2.808   5.116   6.221  0.3010  0.4956  0.3557
  946SOL    MW4 3552   2.875   5.082   6.177 -0.3813 -0.5695  0.0939
  947SOL     OW 3553   3.675   5.563   2.828  0.5399 -0.3159 -0.2855
  947SOL    HW2 3554   3.583   5.545   2.808 -0.0367 -1.8417  3.1260
  947SOL    HW3 3555   3.708   5.604   2.748 -2.9576 -0.0447 -1.8053
  947SOL    MW4 3556   3.667   5.566   2.815  0.0024 -0.4814 -0.0359
  948SOL     OW 3557   1.066   4.661   4.105  0.2588  0.1048  0.3616
  948SOL    HW2 3558   1.128   4.727   4.135  1.9812 -1.3229  0.1028
  948SOL    HW3 3559   1.069   4.667   4.009 -0.0994  0.1222  0.3514
  948SOL    MW4 3560   1.075   4.670   4.096  0.4388 -0.0813  0.3261
  949SOL     OW 3561   3.713   1.133   5.016  0.5874 -0.2341  0.5635
  949SOL    HW2 3562   3.637   1.110   5.070  2.2575 -1.0426  2.6846
  949SOL    HW3 3563   3.769   1.184   5.074  1.3452  1.0598 -1.2155
  949SOL    MW4 3564   3.710   1.137   5.030  0.9078 -0.1701  0.6087
  950SOL     OW 3565   2.215   4.627   3.013  0.3366  0.0220 -0.1064
  950SOL    HW2 3566   2.213   4.532   3.005 -0.4553  0.0962 -0.9270
  950SOL    HW3 3567   2.125   4.655   2.996  0.6471  0.9497 -0.3025
  950SOL    MW4 3568   2.203   4.619   3.010  0.2731  0.1542 -0.2405
  951SOL     OW 3569   2.723   0.475   5.798 -0.1485  0.4133  0.2190
  951SOL    HW2 3570   2.775   0.416   5.743  1.3052  0.6204  1.3157
  951SOL    HW3 3571   2.702   0.423   5.876 -0.3315  0.7972  0.4292
  951SOL    MW4 3572   2.727   0.460   5.801  0.0191  0.4913  0.3915
  952SOL     OW 3573   5.170   4.853   4.884 -0.2417  0.0377  0.1083
  952SOL    HW2 3574   5.246   4.868   4.941 -0.5290  0.0108  0.4994
  952SOL    HW3 3575   5.155   4.759   4.888  0.3540 -0.1153 -0.8117
  952SOL    MW4 3576   5.178   4.843   4.892 -0.2010  0.0140  0.0385
  953SOL     OW 3577   1.446   0.129   3.740 -0.0126  0.2177 -0.8168
  953SOL    HW2 3578   1.478   0.150   3.652  0.1808  0.7011 -0.6358
  953SOL    HW3 3579   1.434   0.214   3.782 -0.4833 -0.0002 -0.5064
  953SOL    MW4 3580   1.449   0.143   3.734 -0.0492  0.2528 -0.7519
  954SOL     OW 3581   4.657   5.293   1.946 -0.1253 -0.8072 -0.6962
  954SOL    HW2 3582   4.583   5.350   1.964 -0.0278  0.0858 -2.8100
  954SOL    HW3 3583   4.703   5.286   2.030 -2.8589 -1.8908  0.8302
  954SOL    MW4 3584   4.654   5.300   1.960 -0.4731 -0.8323 -0.7737
  955SOL     OW 3585   2.504   1.311   1.842  0.2258  0.2003 -0.1319
  955SOL    HW2 3586   2.469   1.394   1.809 -0.0128  0.2332  0.1998
  955SOL    HW3 3587   2.555   1.336   1.920 -1.9323 -0.2097  1.5081
  955SOL    MW4 3588   2.506   1.325   1.848 -0.0904  0.1506  0.1283
  956SOL     OW 3589   2.103   2.206   2.523  0.1028 -0.4401 -0.3034
  956SOL    HW2 3590   2.012   2.202   2.549 -0.2081  0.0119 -1.2583
  956SOL    HW3 3591   2.112   2.139   2.455 -0.0553  0.8913 -1.6935
  956SOL    MW4 3592   2.092   2.197   2.517  0.0409 -0.2048 -0.6128
  957SOL     OW 3593   0.914   2.414   5.807  0.2028 -0.5141  0.0185
  957SOL    HW2 3594   0.989   2.430   5.863 -0.5366  0.5245  0.7497
  957SOL    HW3 3595   0.948   2.362   5.735  1.7628  0.5225 -0.0312
  957SOL    MW4 3596   0.928   2.409   5.805  0.3111 -0.2403  0.1085
  958SOL     OW 3597   1.612   0.543   6.426  0.5304 -0.3536 -0.0951
  958SOL    HW2 3598   1.643   0.584   6.345 -1.2650 -0.0097 -0.6490
  958SOL    HW3 3599   1.645   0.599   6.496  1.8452 -0.4838 -0.5851
  958SOL    MW4 3600   1.620   0.556   6.425  0.4670 -0.3254 -0.2328
  959SOL     OW 3601   3.801   1.463   2.700  0.1143 -0.1281 -0.1117
  959SOL    HW2 3602   3.757   1.544   2.674  0.2577 -0.1954 -0.5718
  959SOL    HW3 3603   3.786   1.403   2.627  2.6671  0.4719 -1.2124
  959SOL    MW4 3604   3.793   1.466   2.687  0.4700 -0.0578 -0.3176
  960SOL     OW 3605   2.414   3.881   3.052  0.1629 -0.2066  0.1746
  960SOL    HW2 3606   2.459   3.798   3.039  1.2338  0.6386 -2.0305
  960SOL    HW3 3607   2.326   3.866   3.019 -0.4074 -1.0642  1.9309
  960SOL    MW4 3608   2.408   3.868   3.046  0.2289 -0.2083  0.1154
  961SOL     OW 3609   5.063   6.082   3.033 -0.0271  0.3810 -0.1907
  961SOL    HW2 3610   5.081   6.122   3.118  1.8128 -1.2387  0.2589
  961SOL    HW3 3611   5.042   6.155   2.975  0.0117  1.6429  1.3298
  961SOL    MW4 3612   5.063   6.097   3.037  0.2208  0.3338  0.0692
  962SOL     OW 3613   4.372   4.310   2.298 -0.3227  0.5544  0.1831
  962SOL    HW2 3614   4.374   4.230   2.245 -1.0067  0.4992  0.2343
  962SOL    HW3 3615   4.422   4.288   2.376  0.7434  0.6496 -0.4426
  962SOL    MW4 3616   4.379   4.297   2.301 -0.2723  0.5597  0.1073
  963SOL     OW 3617   4.480   5.562   2.889  0.1490  0.1344 -0.0466
  963SOL    HW2 3618   4.460   5.617   2.814  2.6966  2.8772  1.0738
  963SOL    HW3 3619   4.421   5.593   2.958 -1.2620 -1.4824 -0.4415
  963SOL    MW4 3620   4.470   5.573   2.888  0.2989  0.2830  0.0491
  964SOL     OW 3621   5.165   2.046   4.312  0.1478  0.1978 -0.4938
  964SOL    HW2 3622   5.203   2.016   4.229 -0.9868  0.5081 -1.1442
  964SOL    HW3 3623   5.100   1.980   4.334 -0.2850  0.6517 -0.3921
  964SOL    MW4 3624   5.161   2.033   4.304 -0.0590  0.2986 -0.5662
  965SOL     OW 3625   4.896   3.320   0.861 -0.1778 -0.2337 -0.5151
  965SOL    HW2 3626   4.917   3.358   0.776 -0.7245  1.6692  0.1495
  965SOL    HW3 3627   4.816   3.364   0.888  1.8369  1.9635  2.5693
  965SOL    MW4 3628   4.888   3.331   0.853  0.0159  0.3073 -0.0205
  966SOL     OW 3629   0.816   2.744   5.489  0.4874 -0.2738 -0.3715
  966SOL    HW2 3630   0.738   2.780   5.447  1.1916  0.1587 -1.3557
  966SOL    HW3 3631   0.880   2.816   5.487  0.5073 -0.1721  1.6309
  966SOL    MW4 3632   0.815   2.758   5.483  0.5829 -0.2033 -0.2371
  967SOL     OW 3633   4.377   1.079   5.800 -0.4299  0.5083 -0.3835
  967SOL    HW2 3634   4.454   1.137   5.795 -0.6854  0.7700 -1.5475
  967SOL    HW3 3635   4.390   1.030   5.881  0.5144  1.1899 -0.0982
  967SOL    MW4 3636   4.389   1.080   5.810 -0.3390  0.6328 -0.4994
  968SOL     OW 3637   1.774   0.047   3.446 -0.3058 -0.6544 -0.8771
  968SOL    HW2 3638   1.841   0.065   3.512 -0.8642  0.6312 -0.6253
  968SOL    HW3 3639   1.715  -0.015   3.489 -0.5558  0.0214 -0.2361
  968SOL    MW4 3640   1.775   0.041   3.461 -0.4124 -0.3956 -0.7593
  969SOL     OW 3641   0.148   5.999   3.769 -0.1482  0.4894 -0.0090
  969SOL    HW2 3642   0.182   6.047   3.845 -1.3117 -1.5712  1.9120
  969SOL    HW3 3643   0.057   5.980   3.791 -0.7510  0.4360 -2.2818
  969SOL    MW4 3644   0.141   6.003   3.782 -0.3812  0.2105 -0.0555
  970SOL     OW 3645   0.262   0.024   0.396  0.3889  0.3199 -0.7572
  970SOL    HW2 3646   0.313   0.070   0.462 -1.3061  1.9828 -0.5074
  970SOL    HW3 3647   0.235  -0.057   0.438 -1.0076  1.5323  0.8164
  970SOL    MW4 3648   0.265   0.020   0.410 -0.0190  0.6993 -0.5166
  971SOL     OW 3649   5.863   4.392   6.028  0.7115  0.6516 -0.6903
  971SOL    HW2 3650   5.815   4.319   6.067  2.3049  0.4925  1.1062
  971SOL    HW3 3651   5.799   4.463   6.022 -0.3768 -0.3146 -0.7651
  971SOL    MW4 3652   5.848   4.392   6.032  0.7781  0.5031 -0.4631
  972SOL     OW 3653   2.057   0.503   1.650 -0.1780 -0.2959 -0.2577
  972SOL    HW2 3654   2.107   0.443   1.593 -0.5403 -0.1575 -0.7252
  972SOL    HW3 3655   1.969   0.504   1.612 -0.9269 -1.5896  1.3401
  972SOL    MW4 3656   2.052   0.495   1.637 -0.3246 -0.4483 -0.1085
  973SOL     OW 3657   2.163   5.552   2.691 -0.2823 -0.0811  0.5923
  973SOL    HW2 3658   2.207   5.593   2.766  0.2485 -0.6435  0.5916
  973SOL    HW3 3659   2.209   5.586   2.615 -0.0638 -0.4074  0.5765
  973SOL    MW4 3660   2.175   5.562   2.691 -0.1834 -0.1984  0.5901
  974SOL     OW 3661   0.599   6.214   2.584 -0.0564  0.0237  0.6377
  974SOL    HW2 3662   0.622   6.261   2.504  0.8604  2.1047  2.0377
  974SOL    HW3 3663   0.505   6.197   2.576  0.3453 -1.4569 -1.6404
  974SOL    MW4 3664   0.589   6.218   2.573  0.1176  0.1029  0.5219
  975SOL     OW 3665   5.445   3.262   1.135 -0.0236  0.1421  0.1062
  975SOL    HW2 3666   5.399   3.325   1.190 -1.2280 -0.7055  0.1096
  975SOL    HW3 3667   5.376   3.213   1.091  0.8547 -1.4011  0.3651
  975SOL    MW4 3668   5.430   3.264   1.136 -0.0666 -0.1733  0.1408
  976SOL     OW 3669   2.772   5.534   3.803  0.0057  0.3478 -0.0771
  976SOL    HW2 3670   2.751   5.616   3.849 -1.0028  0.0171  0.0781
  976SOL    HW3 3671   2.689   5.486   3.801  0.2768 -0.0952 -1.3427
  976SOL    MW4 3672   2.758   5.539   3.809 -0.0916  0.2457 -0.2236
  977SOL     OW 3673   0.279   3.474   4.745  0.0077 -0.4776 -0.4140
  977SOL    HW2 3674   0.368   3.501   4.721 -0.2793 -1.2801 -2.6601
  977SOL    HW3 3675   0.281   3.378   4.738 -0.5349 -0.6788  1.5479
  977SOL    MW4 3676   0.291   3.465   4.741 -0.1018 -0.6100 -0.4515
  978SOL     OW 3677   2.219   2.183   3.936  0.2393 -0.3463 -0.8811
  978SOL    HW2 3678   2.168   2.262   3.919 -1.9511 -1.8105 -1.6894
  978SOL    HW3 3679   2.239   2.149   3.849 -0.1978 -1.4452 -0.5720
  978SOL    MW4 3680   2.215   2.189   3.922 -0.1074 -0.6845 -0.9469
  979SOL     OW 3681   3.457   1.222   6.231 -0.0431 -0.3566  0.2454
  979SOL    HW2 3682   3.386   1.278   6.199 -0.3400  0.2474  1.8671
  979SOL    HW3 3683   3.466   1.154   6.164  0.7250  1.9033 -2.0938
  979SOL    MW4 3684   3.449   1.220   6.218  0.0191  0.0212  0.1508
  980SOL     OW 3685   6.257   2.007   2.072  0.3936 -0.4990  0.3225
  980SOL    HW2 3686   6.219   2.044   1.992  0.4821  0.8671  0.8957
  980SOL    HW3 3687   6.197   1.936   2.096  0.8749 -1.5686 -1.4489
  980SOL    MW4 3688   6.244   2.002   2.064  0.4688 -0.4599  0.1644
  981SOL     OW 3689   4.639   3.471   3.679  0.4117 -0.0932  0.1229
  981SOL    HW2 3690   4.686   3.495   3.760  2.1086  1.4956 -1.2387
  981SOL    HW3 3691   4.643   3.376   3.676  0.4633 -0.1789  1.8030
  981SOL    MW4 3692   4.646   3.462   3.689  0.6424  0.1051  0.1649
  982SOL     OW 3693   4.032   0.050   5.774  0.1787  0.3314 -0.4071
  982SOL    HW2 3694   4.035   0.145   5.787 -0.5656  0.3087 -0.0075
  982SOL    HW3 3695   4.040   0.013   5.862  4.2295 -0.1310 -0.7827
  982SOL    MW4 3696   4.034   0.057   5.788  0.6149  0.2674 -0.4039
  983SOL     OW 3697   2.018   4.834   3.684  0.1977 -0.0893  0.3413
  983SOL    HW2 3698   1.957   4.874   3.623 -0.3629  0.7938  1.4646
  983SOL    HW3 3699   1.969   4.763   3.725 -0.1118  0.6696  1.3008
  983SOL    MW4 3700   2.004   4.830   3.681  0.0829  0.1274  0.6161
  984SOL     OW 3701   4.307   1.656   0.994 -0.3255 -0.8880  0.2627
  984SOL    HW2 3702   4.315   1.733   0.938 -1.9019 -0.3825  0.6891
  984SOL    HW3 3703   4.214   1.636   0.995 -0.2748 -1.2722  2.1761
  984SOL    MW4 3704   4.296   1.664   0.987 -0.5268 -0.8720  0.5714
  985SOL     OW 3705   0.754   2.538   2.161 -0.2821  0.1309 -0.2553
  985SOL    HW2 3706   0.811   2.610   2.191 -1.1942  0.6335  0.3221
  985SOL    HW3 3707   0.724   2.566   2.075 -0.3583  0.2774 -0.1818
  985SOL    MW4 3708   0.758   2.551   2.154 -0.4125  0.2165 -0.1694
  986SOL     OW 3709   4.168   5.945   3.670 -0.3407  0.4713 -0.0734
  986SOL    HW2 3710   4.119   5.871   3.707 -0.2078 -0.8872 -2.4014
  986SOL    HW3 3711   4.103   6.015   3.662 -1.1417 -0.2852 -0.3045
  986SOL    MW4 3712   4.153   5.945   3.674 -0.4288  0.1922 -0.4110
  987SOL     OW 3713   0.507   1.894   4.415  0.0915 -0.0727 -0.0844
  987SOL    HW2 3714   0.477   1.985   4.405 -0.5534 -0.4457 -1.8823
  987SOL    HW3 3715   0.445   1.843   4.362  1.0218 -1.4516  0.1241
  987SOL    MW4 3716   0.495   1.900   4.407  0.1292 -0.3038 -0.2941
  988SOL     OW 3717   2.121   0.652   2.965 -0.1914 -0.6814  0.0562
  988SOL    HW2 3718   2.130   0.575   2.909  2.7869 -0.1498 -0.3714
  988SOL    HW3 3719   2.151   0.622   3.051  0.0870 -0.2388  0.1151
  988SOL    MW4 3720   2.127   0.638   2.969  0.2383 -0.5529  0.0075
  989SOL     OW 3721   4.416   2.635   4.385  0.6836  0.0416 -0.1527
  989SOL    HW2 3722   4.410   2.688   4.305  0.5350  1.8267  0.9946
  989SOL    HW3 3723   4.412   2.698   4.456  0.1846 -1.5541  1.3078
  989SOL    MW4 3724   4.415   2.650   4.384  0.5982  0.0666  0.1913
  990SOL     OW 3725   4.531   4.591   4.927  0.2334 -0.0548  0.9279
  990SOL    HW2 3726   4.627   4.594   4.935  0.2664 -0.7113  0.8712
  990SOL    HW3 3727   4.502   4.556   5.011 -0.0522  1.2652  1.4005
  990SOL    MW4 3728   4.540   4.587   4.939  0.2000  0.0327  0.9828
  991SOL     OW 3729   1.859   2.830   5.585  0.5149 -0.6449 -0.0946
  991SOL    HW2 3730   1.893   2.833   5.675  0.5162  0.0574 -0.1094
  991SOL    HW3 3731   1.931   2.794   5.533  1.1504  0.5509 -0.0772
  991SOL    MW4 3732   1.873   2.826   5.590  0.5989 -0.3945 -0.0942
  992SOL     OW 3733   4.307   5.440   4.553  0.7006  0.6423 -0.4272
  992SOL    HW2 3734   4.347   5.480   4.630  0.5810  1.7759 -0.9332
  992SOL    HW3 3735   4.351   5.355   4.544  0.6281  0.4433  0.9464
  992SOL    MW4 3736   4.318   5.434   4.562  0.6753  0.7656 -0.3127
  993SOL     OW 3737   2.031   2.445   5.592  0.4152  0.1428 -0.4073
  993SOL    HW2 3738   2.123   2.429   5.614  0.2610 -0.9042 -0.4880
  993SOL    HW3 3739   2.031   2.533   5.554  1.2083  0.6060  0.6204
  993SOL    MW4 3740   2.043   2.455   5.590  0.4995  0.0658 -0.2824
  994SOL     OW 3741   2.186   3.564   5.274 -0.2467  0.3425  0.4006
  994SOL    HW2 3742   2.097   3.582   5.305 -0.5687 -0.0713 -0.2756
  994SOL    HW3 3743   2.191   3.468   5.270  0.0844  0.3748  0.0284
  994SOL    MW4 3744   2.175   3.554   5.278 -0.2455  0.2922  0.2623
  995SOL     OW 3745   5.636   1.700   1.940  0.0680 -0.2269  0.4580
  995SOL    HW2 3746   5.584   1.621   1.925 -0.0854 -0.1311  0.4799
  995SOL    HW3 3747   5.613   1.727   2.029 -1.6835  1.1684 -0.3458
  995SOL    MW4 3748   5.626   1.693   1.950 -0.1834 -0.0302  0.3548
  996SOL     OW 3749   3.110   4.491   2.437  0.2795 -0.1629 -0.3076
  996SOL    HW2 3750   3.066   4.481   2.521 -0.0953 -1.2537 -0.6154
  996SOL    HW3 3751   3.044   4.469   2.372  0.8972 -0.5090 -0.8341
  996SOL    MW4 3752   3.096   4.487   2.440  0.3116 -0.3525 -0.4176
  997SOL     OW 3753   3.204   5.294   1.510 -0.0180  0.1304 -0.1004
  997SOL    HW2 3754   3.187   5.209   1.468 -1.0556  0.7129 -0.8910
  997SOL    HW3 3755   3.117   5.330   1.528  0.4182  0.9989  0.3100
  997SOL    MW4 3756   3.190   5.287   1.507 -0.0974  0.3218 -0.1506
  998SOL     OW 3757   5.651   3.450   3.467  0.3841  0.4982 -0.1294
  998SOL    HW2 3758   5.674   3.490   3.551 -0.7708 -0.2162  0.5494
  998SOL    HW3 3759   5.735   3.418   3.432  0.7549 -0.0446  1.2000
  998SOL    MW4 3760   5.665   3.451   3.473  0.2807  0.3324  0.1355
  999SOL     OW 3761   0.718   2.379   1.008 -0.2972  0.0489 -0.0313
  999SOL    HW2 3762   0.708   2.287   1.031 -0.6199  0.0078 -0.3237
  999SOL    HW3 3763   0.631   2.406   0.979 -0.4707  0.7320  1.0500
  999SOL    MW4 3764   0.705   2.371   1.007 -0.3627  0.1336  0.0728
 1000SOL     OW 3765   0.980   5.528   5.567 -0.3473 -0.3891 -0.2349
 1000SOL    HW2 3766   0.950   5.485   5.487 -1.1256 -0.8237  0.2743
 1000SOL    HW3 3767   1.018   5.457   5.619 -1.9920 -0.5760  0.7808
 1000SOL    MW4 3768   0.981   5.513   5.563 -0.6670 -0.4711 -0.0337
 1001SOL     OW 3769   3.535   5.726   0.056  0.1291  0.4950  0.0089
 1001SOL    HW2 3770   3.603   5.761  -0.001 -1.3332  0.1578 -2.0772
 1001SOL    HW3 3771   3.500   5.651   0.007 -1.9578  0.8753  0.8403
 1001SOL    MW4 3772   3.539   5.720   0.042 -0.3391  0.5007 -0.1567
 1002SOL     OW 3773   0.055   5.360   6.054  0.1973 -0.3831 -0.4605
 1002SOL    HW2 3774   0.089   5.447   6.032  1.8598 -0.9336 -0.1402
 1002SOL    HW3 3775   0.132   5.309   6.079 -1.0756 -0.8542  3.1000
 1002SOL    MW4 3776   0.069   5.365   6.055  0.2487 -0.5179  0.0515
 1003SOL     OW 3777   3.815   5.584   4.530 -0.1831  0.4060  0.2931
 1003SOL    HW2 3778   3.829   5.562   4.622 -1.2485 -0.5821  0.2418
 1003SOL    HW3 3779   3.722   5.606   4.525 -0.9033 -2.4422 -1.0403
 1003SOL    MW4 3780   3.805   5.584   4.542 -0.4187 -0.1001  0.1104
 1004SOL     OW 3781   1.813   4.993   4.361  0.3141  0.4837  0.1817
 1004SOL    HW2 3782   1.899   4.958   4.339  0.1572 -0.1223  0.5174
 1004SOL    HW3 3783   1.817   5.011   4.455 -0.3766 -0.8813  0.4876
 1004SOL    MW4 3784   1.825   4.991   4.370  0.2023  0.2237  0.2664
 1005SOL     OW 3785   3.142   2.107   3.191 -0.5308 -0.1623 -0.5724
 1005SOL    HW2 3786   3.057   2.129   3.153 -1.3683  3.1948  2.5754
 1005SOL    HW3 3787   3.121   2.061   3.272  0.4791  1.4716  0.6948
 1005SOL    MW4 3788   3.128   2.104   3.197 -0.5081  0.4962  0.0101
 1006SOL     OW 3789   4.668   2.744   3.408 -0.0225 -0.2638  0.0891
 1006SOL    HW2 3790   4.713   2.742   3.492 -0.3008 -2.0449  0.2359
 1006SOL    HW3 3791   4.622   2.660   3.403 -0.7826  0.2016 -1.4271
 1006SOL    MW4 3792   4.668   2.733   3.418 -0.1595 -0.4374 -0.0915
 1007SOL     OW 3793   4.520   6.115   4.849  0.4447 -0.5759 -0.0827
 1007SOL    HW2 3794   4.510   6.080   4.761  1.9895 -0.2835 -0.3945
 1007SOL    HW3 3795   4.610   6.095   4.874  0.7421  1.2778  0.5548
 1007SOL    MW4 3796   4.531   6.108   4.841  0.6878 -0.2927 -0.0398
 1008SOL     OW 3797   1.484   2.504   4.845 -0.1357 -0.0610  0.3092
 1008SOL    HW2 3798   1.513   2.460   4.925  0.1173 -0.5673 -0.0576
 1008SOL    HW3 3799   1.530   2.459   4.774 -1.8086 -0.9089 -0.2933
 1008SOL    MW4 3800   1.494   2.492   4.846 -0.3231 -0.2397  0.1813
 1009SOL     OW 3801   6.413   2.866   0.820  0.1529 -0.6618  0.4324
 1009SOL    HW2 3802   6.393   2.864   0.913 -0.5446 -0.4852  0.2891
 1009SOL    HW3 3803   6.505   2.840   0.815  0.4393  0.1300  1.2444
 1009SOL    MW4 3804   6.423   2.863   0.832  0.0986 -0.5340  0.5206
 1010SOL     OW 3805   3.503   3.501   5.073 -0.1266 -0.4744  0.0141
 1010SOL    HW2 3806   3.570   3.476   5.136 -0.0700 -0.5883 -0.0907
 1010SOL    HW3 3807   3.552   3.521   4.993 -0.1359  0.3477  0.2046
 1010SOL    MW4 3808   3.518   3.500   5.071 -0.1204 -0.3810  0.0254
 1011SOL     OW 3809   5.626   2.908   1.208 -0.4374 -0.0525  0.2958
 1011SOL    HW2 3810   5.706   2.948   1.244 -0.9354  1.6481 -0.4256
 1011SOL    HW3 3811   5.561   2.920   1.277 -0.6403  0.5827 -0.0026
 1011SOL    MW4 3812   5.628   2.915   1.222 -0.5299  0.2557  0.1613
 1012SOL     OW 3813   4.125   4.339   2.392 -0.2449 -0.0174 -0.2567
 1012SOL    HW2 3814   4.101   4.429   2.369  0.6508  0.4746  0.6528
 1012SOL    HW3 3815   4.217   4.331   2.365  0.2486 -0.0406  1.3556
 1012SOL    MW4 3816   4.134   4.350   2.385 -0.0616  0.0444  0.0760
 1013SOL     OW 3817   6.337   1.129   4.681  0.1672  0.3788  0.1552
 1013SOL    HW2 3818   6.286   1.051   4.704  1.4857  0.1339  2.5899
 1013SOL    HW3 3819   6.272   1.190   4.646 -0.8901 -1.7514 -1.9083
 1013SOL    MW4 3820   6.322   1.127   4.679  0.2016  0.0654  0.2042
 1014SOL     OW 3821   0.320   5.442   2.887 -0.1042  0.1080 -0.2268
 1014SOL    HW2 3822   0.365   5.488   2.958  0.4494  0.4391 -0.7736
 1014SOL    HW3 3823   0.238   5.412   2.925 -0.0394  0.7154  0.4114
 1014SOL    MW4 3824   0.315   5.444   2.901 -0.0226  0.2318 -0.2148
 1015SOL     OW 3825   6.129   2.339   0.242  0.9450  0.3453 -0.0406
 1015SOL    HW2 3826   6.047   2.337   0.193 -0.1916 -0.1665  1.7741
 1015SOL    HW3 3827   6.132   2.254   0.287  2.7641  0.1250 -0.4950
 1015SOL    MW4 3828   6.119   2.328   0.242  1.0350  0.2487  0.1389
 1016SOL     OW 3829   3.287   2.576   2.714 -0.1921  0.2327 -0.0789
 1016SOL    HW2 3830   3.211   2.624   2.682 -0.3527 -0.4284 -0.7176
 1016SOL    HW3 3831   3.338   2.641   2.762 -1.6620  0.4742  1.2657
 1016SOL    MW4 3832   3.284   2.591   2.716 -0.4072  0.1774  0.0142
 1017SOL     OW 3833   3.650   2.590   5.873  0.4062 -0.7624 -0.3433
 1017SOL    HW2 3834   3.647   2.567   5.966  0.6615  1.4015  0.2584
 1017SOL    HW3 3835   3.606   2.675   5.868  0.2831 -0.8841 -2.2414
 1017SOL    MW4 3836   3.644   2.598   5.885  0.4236 -0.4929 -0.5144
 1018SOL     OW 3837   2.931   0.227   1.964 -0.5991  0.2470  0.3187
 1018SOL    HW2 3838   3.010   0.277   1.942 -1.2698  0.6373 -1.3071
 1018SOL    HW3 3839   2.959   0.170   2.036  1.6773 -0.9394 -1.3511
 1018SOL    MW4 3840   2.945   0.226   1.971 -0.3873  0.1420 -0.1161
 1019SOL     OW 3841   5.614   2.547   2.853  1.0162  0.2954  0.0703
 1019SOL    HW2 3842   5.549   2.520   2.789  1.8661 -2.2424  0.1549
 1019SOL    HW3 3843   5.565   2.597   2.918 -0.6718 -0.7918 -0.3188
 1019SOL    MW4 3844   5.599   2.550   2.853  0.9056 -0.1829  0.0302
 1020SOL     OW 3845   3.138   3.212   2.918  0.2535 -0.3691  0.4216
 1020SOL    HW2 3846   3.063   3.272   2.919  1.8542  1.7961 -0.1606
 1020SOL    HW3 3847   3.101   3.128   2.891 -1.7798  0.9132 -1.1665
 1020SOL    MW4 3848   3.123   3.209   2.914  0.1964  0.0858  0.1352
 1021SOL     OW 3849   5.889   5.740   1.261  0.4276 -0.7871 -0.2189
 1021SOL    HW2 3850   5.809   5.750   1.210  0.2570 -0.7777  0.0450
 1021SOL    HW3 3851   5.922   5.829   1.273 -0.1749 -0.6645  0.6888
 1021SOL    MW4 3852   5.882   5.753   1.256  0.3256 -0.7696 -0.0643
 1022SOL     OW 3853   1.858   4.082   4.027  0.4932 -0.1468 -0.2823
 1022SOL    HW2 3854   1.913   4.123   3.960 -0.5131 -0.7310 -1.5060
 1022SOL    HW3 3855   1.880   3.989   4.023  0.1464 -0.2384 -0.0751
 1022SOL    MW4 3856   1.868   4.075   4.018  0.3146 -0.2359 -0.4164
 1023SOL     OW 3857   0.569   1.431   5.921 -0.2956 -0.4075  0.5394
 1023SOL    HW2 3858   0.598   1.522   5.932 -0.3228 -0.2175 -0.7370
 1023SOL    HW3 3859   0.536   1.428   5.831 -0.4254 -1.6510  0.6167
 1023SOL    MW4 3860   0.568   1.443   5.911 -0.3163 -0.5465  0.3812
 1024SOL     OW 3861   3.246   0.734   5.148  0.4736  0.1749 -0.0402
 1024SOL    HW2 3862   3.297   0.680   5.087 -0.1148  0.6092 -0.9420
 1024SOL    HW3 3863   3.191   0.671   5.196  0.2927 -0.0967 -0.5939
 1024SOL    MW4 3864   3.245   0.718   5.146  0.3721  0.1964 -0.2322
 1025SOL     OW 3865   1.922   3.503   3.517  0.8388 -0.1883 -0.4047
 1025SOL    HW2 3866   1.883   3.588   3.497 -1.7096 -1.4623 -1.3104
 1025SOL    HW3 3867   1.935   3.462   3.431  2.5313 -0.5805 -0.0098
 1025SOL    MW4 3868   1.919   3.509   3.503  0.7259 -0.4081 -0.4721
 1026SOL     OW 3869   4.669   0.978   5.539  0.0861  0.0605  0.1591
 1026SOL    HW2 3870   4.592   0.964   5.484 -0.8990  0.1518  1.4938
 1026SOL    HW3 3871   4.674   1.073   5.550 -1.0107 -0.0665  1.9995
 1026SOL    MW4 3872   4.660   0.989   5.533 -0.1886  0.0558  0.5780
 1027SOL     OW 3873   0.745   1.809   0.227 -0.8513  0.6824 -0.1311
 1027SOL    HW2 3874   0.745   1.862   0.306  1.4790 -0.6589  0.8717
 1027SOL    HW3 3875   0.686   1.736   0.248 -2.4820  1.7368 -0.7793
 1027SOL    MW4 3876   0.737   1.806   0.240 -0.7590  0.6446 -0.0843
 1028SOL     OW 3877   5.811   0.858   5.333  0.0712 -0.2907  0.0724
 1028SOL    HW2 3878   5.798   0.949   5.307  0.3242 -0.4307 -0.5618
 1028SOL    HW3 3879   5.897   0.835   5.298 -0.0251 -0.8023  0.1560
 1028SOL    MW4 3880   5.821   0.867   5.325  0.0918 -0.3766 -0.0002
 1029SOL     OW 3881   3.365   5.525   0.596  0.2761 -0.1932  0.1245
 1029SOL    HW2 3882   3.437   5.469   0.623 -1.1246 -1.4680  1.3993
 1029SOL    HW3 3883   3.307   5.468   0.546 -0.3445  0.5415 -0.0166
 1029SOL    MW4 3884   3.367   5.510   0.593  0.0094 -0.2644  0.2741
 1030SOL     OW 3885   5.791   1.302   1.315  0.1869  0.1325 -0.4350
 1030SOL    HW2 3886   5.716   1.352   1.286  0.5612  1.3882  0.6567
 1030SOL    HW3 3887   5.776   1.287   1.408  0.2723 -1.4873 -0.6472
 1030SOL    MW4 3888   5.779   1.306   1.324  0.2476  0.0845 -0.3189
 1031SOL     OW 3889   4.547   0.013   6.214  0.2765  0.1360  0.2220
 1031SOL    HW2 3890   4.530   0.098   6.174 -1.4051  1.0181  2.6358
 1031SOL    HW3 3891   4.619   0.029   6.275  1.2210 -0.6668 -0.6235
 1031SOL    MW4 3892   4.554   0.026   6.217  0.1792  0.1464  0.4289
 1032SOL     OW 3893   5.374   0.177   2.297 -0.0436 -0.4724  0.2908
 1032SOL    HW2 3894   5.309   0.157   2.230 -1.0449  0.9028  0.8181
 1032SOL    HW3 3895   5.342   0.132   2.375  0.3717 -0.8919  0.2285
 1032SOL    MW4 3896   5.361   0.168   2.298 -0.1209 -0.3463  0.3522
 1033SOL     OW 3897   4.756   1.512   5.929  0.1798  0.3725  0.1290
 1033SOL    HW2 3898   4.786   1.480   5.844  0.1924  0.1724  0.2096
 1033SOL    HW3 3899   4.752   1.607   5.918  1.1929  0.4335  0.2283
 1033SOL    MW4 3900   4.759   1.521   5.916  0.3151  0.3541  0.1527
 1034SOL     OW 3901   0.615   5.995   0.372  0.0150 -0.2120  1.1868
 1034SOL    HW2 3902   0.690   5.968   0.424  1.4373  1.8669  0.3532
 1034SOL    HW3 3903   0.641   5.979   0.281 -1.4516 -1.4617  0.9334
 1034SOL    MW4 3904   0.628   5.989   0.367  0.0091 -0.1026  1.0434
 1035SOL     OW 3905   0.019   0.748   5.601  0.1791  0.2801  0.7058
 1035SOL    HW2 3906   0.042   0.780   5.514  0.0618 -1.6971 -0.1151
 1035SOL    HW3 3907  -0.048   0.808   5.632 -0.9976  0.1041 -1.3084
 1035SOL    MW4 3908   0.013   0.760   5.594  0.0083 -0.0040  0.3318
 1036SOL     OW 3909   2.362   2.167   4.174  0.2473  0.1886  0.4395
 1036SOL    HW2 3910   2.320   2.165   4.087  0.1497 -0.3543  0.4934
 1036SOL    HW3 3911   2.340   2.082   4.212  1.4360 -0.1185  0.4582
 1036SOL    MW4 3912   2.354   2.155   4.167  0.3912  0.0765  0.4491
 1037SOL     OW 3913   0.405   4.809   3.822  0.0024  0.0136 -0.2877
 1037SOL    HW2 3914   0.363   4.828   3.905  1.4297 -1.0801  0.7229
 1037SOL    HW3 3915   0.404   4.892   3.774 -0.4517  0.7560  0.9913
 1037SOL    MW4 3916   0.399   4.822   3.826  0.1308 -0.0327  0.0144
 1038SOL     OW 3917   3.734   3.318   2.351  0.2143 -0.4308 -0.0849
 1038SOL    HW2 3918   3.757   3.256   2.281 -2.9354 -2.3246  0.3972
 1038SOL    HW3 3919   3.731   3.403   2.306 -0.5959 -1.4167 -2.0437
 1038SOL    MW4 3920   3.737   3.321   2.336 -0.3082 -0.8108 -0.2797
 1039SOL     OW 3921   1.421   0.786   2.999 -0.1634  0.1194 -0.1306
 1039SOL    HW2 3922   1.379   0.833   3.071 -1.1105 -0.0493 -0.5485
 1039SOL    HW3 3923   1.451   0.704   3.037  0.4485  0.5554  0.3407
 1039SOL    MW4 3924   1.419   0.782   3.013 -0.2076  0.1546 -0.1236
 1040SOL     OW 3925   0.911   0.340   0.112  0.0621 -0.7197 -0.3242
 1040SOL    HW2 3926   0.957   0.334   0.028 -0.7250  0.6611 -0.8900
 1040SOL    HW3 3927   0.892   0.433   0.123  1.2429 -0.6730  2.0257
 1040SOL    MW4 3928   0.914   0.351   0.102  0.1141 -0.5314 -0.0888
 1041SOL     OW 3929   0.718   5.969   2.671 -0.0364  0.1116  0.2324
 1041SOL    HW2 3930   0.637   5.919   2.666  0.5187 -0.6838 -1.9578
 1041SOL    HW3 3931   0.694   6.056   2.639  0.1936 -0.5049 -1.7452
 1041SOL    MW4 3932   0.704   5.974   2.666  0.0672 -0.0747 -0.3175
 1042SOL     OW 3933   4.244   3.174   2.567  0.4486  0.3587 -0.3448
 1042SOL    HW2 3934   4.239   3.184   2.662  2.3998  0.0667 -0.1794
 1042SOL    HW3 3935   4.252   3.264   2.534 -2.7975  0.6974 -0.4954
 1042SOL    MW4 3936   4.244   3.187   2.576  0.2777  0.3649 -0.3428
 1043SOL     OW 3937   6.400   6.116   5.312  0.0544  0.3632  0.4204
 1043SOL    HW2 3938   6.453   6.195   5.306 -0.3456  0.7556  1.8578
 1043SOL    HW3 3939   6.321   6.136   5.261  1.1689 -0.2022 -1.6792
 1043SOL    MW4 3940   6.396   6.129   5.304  0.1487  0.3404  0.3330
 1044SOL     OW 3941   5.044   6.409   5.796  0.0564 -0.1422  0.0124
 1044SOL    HW2 3942   4.956   6.373   5.812 -0.1575  0.1018 -0.6016
 1044SOL    HW3 3943   5.031   6.478   5.731  0.6579  0.1334  0.1768
 1044SOL    MW4 3944   5.031   6.413   5.790  0.1076 -0.0736 -0.0469
 1045SOL     OW 3945   3.330   0.019   6.354  0.2141  0.5802  0.3778
 1045SOL    HW2 3946   3.348   0.086   6.420  1.8896  0.6671 -0.1217
 1045SOL    HW3 3947   3.253   0.051   6.307 -0.5817  0.8557  1.8148
 1045SOL    MW4 3948   3.322   0.032   6.356  0.3301  0.6280  0.5015
 1046SOL     OW 3949   1.822   1.056   3.644  0.1570 -0.0480 -0.5079
 1046SOL    HW2 3950   1.838   0.982   3.585 -0.4811 -0.3511 -0.3160
 1046SOL    HW3 3951   1.900   1.059   3.700  0.9177  0.4463 -1.5579
 1046SOL    MW4 3952   1.835   1.047   3.644  0.1732 -0.0228 -0.6212
 1047SOL     OW 3953   6.078   6.334   5.228  0.6376  0.0836  0.9346
 1047SOL    HW2 3954   6.089   6.397   5.300 -1.9143  1.3410  0.3696
 1047SOL    HW3 3955   5.993   6.356   5.190  1.2685 -1.4380 -1.6282
 1047SOL    MW4 3956   6.068   6.345   5.233  0.3841  0.0487  0.5219
 1048SOL     OW 3957   1.932   1.033   6.184  0.0790  0.4470  0.0560
 1048SOL    HW2 3958   1.934   0.941   6.158  1.8468  0.7645 -1.1283
 1048SOL    HW3 3959   1.949   1.032   6.278 -1.0200 -0.4686  0.2677
 1048SOL    MW4 3960   1.935   1.021   6.193  0.1672  0.3681 -0.0723
 1049SOL     OW 3961   5.493   1.150   2.086  0.6401  0.0700  0.0529
 1049SOL    HW2 3962   5.566   1.188   2.135 -0.6413  0.0028  2.1365
 1049SOL    HW3 3963   5.428   1.220   2.081 -0.2045 -0.6554  0.5804
 1049SOL    MW4 3964   5.494   1.164   2.092  0.3596 -0.0346  0.3974
 1050SOL     OW 3965   3.660   3.068   6.369 -0.3825 -0.1577 -0.4709
 1050SOL    HW2 3966   3.598   2.995   6.360 -0.7201  0.2725 -2.1634
 1050SOL    HW3 3967   3.651   3.115   6.286  1.2908  0.6533 -0.2143
 1050SOL    MW4 3968   3.650   3.064   6.357 -0.2063  0.0060 -0.6604
 1051SOL     OW 3969   1.300   2.702   2.818 -0.0883  0.1519 -0.3832
 1051SOL    HW2 3970   1.249   2.687   2.898  0.8594 -1.3575 -0.0148
 1051SOL    HW3 3971   1.373   2.758   2.847 -1.0472  1.6455 -0.7435
 1051SOL    MW4 3972   1.303   2.707   2.833 -0.0897  0.1498 -0.3821
 1052SOL     OW 3973   6.320   0.778   3.841  0.1341  0.0684  0.0875
 1052SOL    HW2 3974   6.359   0.781   3.929 -2.1226 -0.2221  1.1530
 1052SOL    HW3 3975   6.345   0.692   3.807  0.7099  0.0334  0.5733
 1052SOL    MW4 3976   6.329   0.767   3.848 -0.0877  0.0255  0.2921
 1053SOL     OW 3977   3.400   1.769   6.158  0.2890  0.3322 -0.6017
 1053SOL    HW2 3978   3.429   1.784   6.248  0.2907  0.1714 -0.5748
 1053SOL    HW3 3979   3.452   1.695   6.128  1.2648  1.2442 -1.2037
 1053SOL    MW4 3980   3.410   1.761   6.166  0.4180  0.4313 -0.6775
 1054SOL     OW 3981   1.130   3.412   3.161  0.0510 -0.6241  0.0588
 1054SOL    HW2 3982   1.175   3.330   3.137  2.2992  1.1077 -2.2222
 1054SOL    HW3 3983   1.099   3.447   3.077 -1.9416  0.3454  1.1255
 1054SOL    MW4 3984   1.132   3.405   3.147  0.0847 -0.2677 -0.1014
 1055SOL     OW 3985   3.951   4.037   2.070  0.0823  0.1351 -0.2610
 1055SOL    HW2 3986   3.951   3.993   1.985 -1.9283 -0.4851 -0.0015
 1055SOL    HW3 3987   3.906   4.120   2.054  1.0693  0.7266 -0.0852
 1055SOL    MW4 3988   3.945   4.042   2.056 -0.0527  0.1313 -0.2035
 1056SOL     OW 3989   2.536   0.635   5.654 -0.0893  0.1060  0.3241
 1056SOL    HW2 3990   2.590   0.714   5.644 -0.8958  0.8908  1.7456
 1056SOL    HW3 3991   2.597   0.568   5.683  0.2974  0.7500  1.0423
 1056SOL    MW4 3992   2.551   0.637   5.657 -0.1447  0.2945  0.6064
 1057SOL     OW 3993   1.439   5.045   3.581 -0.6879  0.2502  0.0221
 1057SOL    HW2 3994   1.479   5.115   3.529  1.1726 -1.8890 -1.6609
 1057SOL    HW3 3995   1.491   5.043   3.662 -3.0081  2.9883  1.7502
 1057SOL    MW4 3996   1.451   5.054   3.585 -0.7485  0.3292  0.0281
 1058SOL     OW 3997   0.889   1.701   1.989 -0.4756 -0.1340  0.3702
 1058SOL    HW2 3998   0.851   1.755   1.920 -0.5606  0.5666  0.9423
 1058SOL    HW3 3999   0.979   1.734   1.998 -0.0770 -1.0413 -0.2293
 1058SOL    MW4 4000   0.896   1.713   1.981 -0.4342 -0.1612  0.3666
 1059SOL     OW 4001   2.630   2.692   0.026  0.1549  0.2076 -0.2404
 1059SOL    HW2 4002   2.722   2.670   0.012  0.4403 -0.0159  1.7334
 1059SOL    HW3 4003   2.595   2.703  -0.062  1.8146 -0.7082 -1.0702
 1059SOL    MW4 4004   2.638   2.691   0.012  0.4115  0.0573 -0.0895
 1060SOL     OW 4005   2.484   3.945   4.677 -0.0469 -0.2194  0.1171
 1060SOL    HW2 4006   2.564   3.904   4.644  2.0873  2.2206  1.8804
 1060SOL    HW3 4007   2.478   3.917   4.768 -0.5005  0.6239  0.3543
 1060SOL    MW4 4008   2.493   3.936   4.685  0.1748  0.2138  0.3811
 1061SOL     OW 4009   2.942   3.379   5.103  0.5385  0.2841 -0.0386
 1061SOL    HW2 4010   2.940   3.465   5.146  0.4384  0.9296 -1.2848
 1061SOL    HW3 4011   3.031   3.371   5.070  1.3056 -1.1994  2.1428
 1061SOL    MW4 4012   2.953   3.389   5.104  0.6265  0.1735  0.0848
 1062SOL     OW 4013   4.422   1.461   5.197 -0.1784 -0.1473 -0.8665
 1062SOL    HW2 4014   4.415   1.451   5.102 -0.5612 -0.1053 -0.8430
 1062SOL    HW3 4015   4.470   1.382   5.225 -0.1455 -0.2061 -1.0815
 1062SOL    MW4 4016   4.428   1.449   5.188 -0.2245 -0.1495 -0.8918
 1063SOL     OW 4017   2.090   4.459   1.863  0.2126 -0.0507 -0.0719
 1063SOL    HW2 4018   2.100   4.537   1.918  0.4265  0.3022 -0.6030
 1063SOL    HW3 4019   1.998   4.435   1.873  0.3735 -0.3392  0.8909
 1063SOL    MW4 4020   2.079   4.466   1.872  0.2620 -0.0422 -0.0150
 1064SOL     OW 4021   1.948   0.463   1.263 -0.0908  0.2858 -0.2474
 1064SOL    HW2 4022   1.927   0.414   1.184  1.3037 -0.2520 -0.3036
 1064SOL    HW3 4023   1.986   0.545   1.232  0.1403  0.2198 -0.1438
 1064SOL    MW4 4024   1.950   0.467   1.248  0.1236  0.2061 -0.2412
 1065SOL     OW 4025   5.903   1.797   2.587  0.2099 -0.5542 -0.3962
 1065SOL    HW2 4026   5.995   1.810   2.566  1.1869 -0.5354  3.2023
 1065SOL    HW3 4027   5.872   1.884   2.612 -0.0538 -0.9342  0.6718
 1065SOL    MW4 4028   5.911   1.810   2.588  0.3040 -0.6019  0.2195
 1066SOL     OW 4029   0.059   3.515   6.251 -0.6443 -0.2968 -0.1235
 1066SOL    HW2 4030   0.021   3.577   6.189  0.9021  0.2584 -0.5753
 1066SOL    HW3 4031   0.127   3.566   6.296  0.7099 -1.6591 -0.5434
 1066SOL    MW4 4032   0.063   3.530   6.249 -0.2616 -0.4033 -0.2385
 1067SOL     OW 4033   3.398   5.692   3.813  0.3566  0.1877  0.5345
 1067SOL    HW2 4034   3.435   5.749   3.746  0.2017 -0.4606 -0.1238
 1067SOL    HW3 4035   3.423   5.731   3.896  0.9234  0.7684  0.0912
 1067SOL    MW4 4036   3.406   5.704   3.815  0.4110  0.1788  0.3892
 1068SOL     OW 4037   1.606   5.030   6.368  0.1191  0.0401  0.3367
 1068SOL    HW2 4038   1.556   4.999   6.292 -0.2570  0.7820  0.2785
 1068SOL    HW3 4039   1.604   4.956   6.429  0.0399 -0.3984 -0.1846
 1068SOL    MW4 4040   1.599   5.016   6.366  0.0590  0.0801  0.2603
 1069SOL     OW 4041   5.976   6.355   0.629 -0.7220 -0.2040  0.2992
 1069SOL    HW2 4042   6.039   6.298   0.584 -1.5917 -1.5313  0.7113
 1069SOL    HW3 4043   5.891   6.314   0.613 -1.2695  0.4302  1.4491
 1069SOL    MW4 4044   5.973   6.342   0.621 -0.9090 -0.2955  0.5053
 1070SOL     OW 4045   5.745   0.186   2.328  0.7002  0.4422 -0.3570
 1070SOL    HW2 4046   5.839   0.171   2.329  0.2831 -3.1396 -1.0016
 1070SOL    HW3 4047   5.707   0.099   2.319 -2.7761  1.5237  1.7281
 1070SOL    MW4 4048   5.752   0.173   2.327  0.1865  0.1123 -0.1670
 1071SOL     OW 4049   5.429   0.813   5.799  0.5662  0.1140  0.3568
 1071SOL    HW2 4050   5.388   0.808   5.713  0.2089  1.7727  0.3970
 1071SOL    HW3 4051   5.521   0.793   5.783  0.5808  0.8050 -0.4933
 1071SOL    MW4 4052   5.436   0.810   5.786  0.5210  0.4240  0.2500
 1072SOL     OW 4053   0.306   2.613   0.530 -0.7472 -0.5321  0.0767
 1072SOL    HW2 4054   0.287   2.646   0.618 -0.6437 -0.3856  0.0453
 1072SOL    HW3 4055   0.277   2.683   0.472  0.6241  0.0558  0.0592
 1072SOL    MW4 4056   0.300   2.627   0.534 -0.5526 -0.4352  0.0702
 1073SOL     OW 4057   5.559   2.727   2.612 -0.1193  0.1249  0.1818
 1073SOL    HW2 4058   5.614   2.745   2.688 -1.6589 -0.8471  1.5996
 1073SOL    HW3 4059   5.550   2.631   2.612  0.0080  0.0907 -1.3646
 1073SOL    MW4 4060   5.565   2.717   2.622 -0.3056 -0.0078  0.1649
 1074SOL     OW 4061   4.796   3.545   5.037 -0.6396  0.6241 -0.5766
 1074SOL    HW2 4062   4.722   3.484   5.032  1.5614 -2.4949  1.4681
 1074SOL    HW3 4063   4.799   3.572   5.129  1.7293 -0.7713 -0.1679
 1074SOL    MW4 4064   4.786   3.541   5.048 -0.0367  0.0285 -0.2529
 1075SOL     OW 4065   4.713   0.284   4.162  0.3295 -0.6406 -0.2083
 1075SOL    HW2 4066   4.673   0.330   4.088 -0.1810 -1.5151 -0.5060
 1075SOL    HW3 4067   4.785   0.234   4.122  0.2491 -0.8703 -0.0687
 1075SOL    MW4 4068   4.717   0.283   4.147  0.2515 -0.7863 -0.2292
 1076SOL     OW 4069   5.169   1.338   3.169 -0.0549  0.2136 -0.1576
 1076SOL    HW2 4070   5.150   1.408   3.107 -0.2434  0.0014 -0.3410
 1076SOL    HW3 4071   5.126   1.365   3.250 -0.1188  0.3158 -0.2258
 1076SOL    MW4 4072   5.161   1.351   3.171 -0.0882  0.1991 -0.1908
 1077SOL     OW 4073   0.384   3.164   3.806  0.0260 -0.2640 -0.3332
 1077SOL    HW2 4074   0.326   3.238   3.822 -0.5045 -0.6870 -0.2716
 1077SOL    HW3 4075   0.359   3.099   3.871  0.1079 -0.7078 -0.7358
 1077SOL    MW4 4076   0.373   3.165   3.816 -0.0332 -0.3783 -0.3782
 1078SOL     OW 4077   1.518   2.885   5.539  0.2856  0.3825 -0.1891
 1078SOL    HW2 4078   1.429   2.917   5.527 -0.1858  0.0361  1.9173
 1078SOL    HW3 4079   1.546   2.924   5.622  0.8223 -2.1203  0.8947
 1078SOL    MW4 4080   1.510   2.894   5.549  0.2942  0.0066  0.2318
 1079SOL     OW 4081   1.003   0.782   5.900 -0.0204 -0.4814  0.0804
 1079SOL    HW2 4082   1.011   0.707   5.959  1.1551 -0.5830 -0.1814
 1079SOL    HW3 4083   1.092   0.799   5.870 -0.2211  1.2027  0.3343
 1079SOL    MW4 4084   1.016   0.774   5.904  0.1082 -0.2727  0.0794
 1080SOL     OW 4085   0.248   1.870   3.194  0.0777  0.2972 -0.2267
 1080SOL    HW2 4086   0.343   1.862   3.188  0.0232 -0.6922  0.0444
 1080SOL    HW3 4087   0.220   1.790   3.238 -0.9869  0.0731 -1.2617
 1080SOL    MW4 4088   0.257   1.859   3.199 -0.0699  0.1371 -0.3275
 1081SOL     OW 4089   5.006   2.403   5.280 -0.4418  0.0648  0.3014
 1081SOL    HW2 4090   5.068   2.332   5.262  0.9545  0.1864  3.7573
 1081SOL    HW3 4091   5.041   2.479   5.235  1.8316  0.0202  1.8348
 1081SOL    MW4 4092   5.019   2.404   5.272  0.0424  0.0750  0.9597
 1082SOL     OW 4093   1.039   5.940   2.830  0.2124  0.1171 -0.3573
 1082SOL    HW2 4094   0.962   5.910   2.781  0.3464 -1.5094  0.3445
 1082SOL    HW3 4095   1.114   5.907   2.780  0.3521 -1.6503  0.8810
 1082SOL    MW4 4096   1.039   5.932   2.817  0.2485 -0.3307 -0.1013
 1083SOL     OW 4097   0.589   0.500   1.478 -0.6501  0.0499 -0.1469
 1083SOL    HW2 4098   0.547   0.567   1.424 -1.5350 -1.1786 -1.0418
 1083SOL    HW3 4099   0.679   0.498   1.447 -0.1777  1.8349  0.9241
 1083SOL    MW4 4100   0.595   0.509   1.467 -0.7045  0.1233 -0.1236
 1084SOL     OW 4101   5.796   5.730   2.337 -0.2620  1.0450 -0.0613
 1084SOL    HW2 4102   5.809   5.793   2.408 -0.1093  0.4643  0.4385
 1084SOL    HW3 4103   5.854   5.761   2.267  2.9150 -0.6591  1.5828
 1084SOL    MW4 4104   5.805   5.743   2.337  0.1773  0.7436  0.2215
 1085SOL     OW 4105   3.944   4.613   1.066 -0.0831 -0.2008 -0.1539
 1085SOL    HW2 4106   3.965   4.657   0.984  0.1659  1.3351  0.6978
 1085SOL    HW3 4107   4.023   4.565   1.089  0.3171  0.4637 -0.1362
 1085SOL    MW4 4108   3.957   4.613   1.058  0.0026  0.0895 -0.0392
 1086SOL     OW 4109   2.650   1.608   1.654 -0.2326  0.1288 -0.0380
 1086SOL    HW2 4110   2.559   1.606   1.684 -0.4767  0.0031 -0.7506
 1086SOL    HW3 4111   2.669   1.701   1.641  0.3168  0.3006  1.7414
 1086SOL    MW4 4112   2.640   1.620   1.656 -0.1923  0.1349  0.1027
 1087SOL     OW 4113   0.024   2.350   4.577  0.0985  0.0330 -0.3444
 1087SOL    HW2 4114   0.095   2.354   4.640  0.1371  0.0200 -0.3873
 1087SOL    HW3 4115  -0.042   2.410   4.612  0.3501  0.4561 -0.5740
 1087SOL    MW4 4116   0.025   2.359   4.590  0.1368  0.0871 -0.3804
 1088SOL     OW 4117   0.312   4.275   0.374 -0.3321  0.3209  0.5561
 1088SOL    HW2 4118   0.268   4.227   0.445 -0.2501  0.9722  1.0635
 1088SOL    HW3 4119   0.261   4.254   0.296  0.3024 -1.3764  0.5732
 1088SOL    MW4 4120   0.299   4.266   0.373 -0.2376  0.1829  0.6253
 1089SOL     OW 4121   1.893   2.875   4.335  0.3501 -0.1329  0.4232
 1089SOL    HW2 4122   1.953   2.824   4.280  1.2501  0.7219  0.5838
 1089SOL    HW3 4123   1.860   2.944   4.277  1.5097  0.9358  0.9912
 1089SOL    MW4 4124   1.897   2.877   4.320  0.6219  0.1209  0.5193
 1090SOL     OW 4125   4.893   0.335   4.934  0.0517 -0.0095 -0.0870
 1090SOL    HW2 4126   4.982   0.320   4.965 -0.1893  0.9903  1.1678
 1090SOL    HW3 4127   4.903   0.357   4.841  1.1839  0.7217  0.1970
 1090SOL    MW4 4128   4.906   0.336   4.926  0.1693  0.2189  0.1160
 1091SOL     OW 4129   0.301   4.126   2.751  0.3238  0.1247  0.5828
 1091SOL    HW2 4130   0.238   4.057   2.728 -0.6623  0.4302  2.1605
 1091SOL    HW3 4131   0.381   4.079   2.774  0.6031 -0.2958 -1.0899
 1091SOL    MW4 4132   0.303   4.111   2.751  0.2306  0.1095  0.5703
 1092SOL     OW 4133   1.683   0.389   4.094  0.1243  0.1466  0.7145
 1092SOL    HW2 4134   1.683   0.341   4.177  1.4328 -0.8889  0.1700
 1092SOL    HW3 4135   1.634   0.469   4.112  1.3587  0.5122  2.8238
 1092SOL    MW4 4136   1.677   0.393   4.107  0.4598  0.0582  0.9210
 1093SOL     OW 4137   3.954   5.088   2.118  0.0305 -0.3035  0.0076
 1093SOL    HW2 4138   3.918   5.123   2.036  0.1229  1.4247  0.6565
 1093SOL    HW3 4139   3.970   5.166   2.172 -0.6666 -1.4313  1.9383
 1093SOL    MW4 4140   3.951   5.103   2.115 -0.0493 -0.2243  0.3479
 1094SOL     OW 4141   0.471   2.138   6.369  0.4455  0.2185 -0.6599
 1094SOL    HW2 4142   0.480   2.216   6.424  2.0887 -0.5745  0.2779
 1094SOL    HW3 4143   0.494   2.168   6.281 -1.5096  1.3423 -0.8414
 1094SOL    MW4 4144   0.475   2.152   6.365  0.4043  0.2622 -0.5601
 1095SOL     OW 4145   2.760   2.462   0.549  0.0117  0.3902  0.2049
 1095SOL    HW2 4146   2.678   2.450   0.501 -0.4820  1.3468  0.7733
 1095SOL    HW3 4147   2.737   2.523   0.620  1.0729  0.1874  0.7365
 1095SOL    MW4 4148   2.746   2.468   0.552  0.0866  0.4896  0.3500
 1096SOL     OW 4149   1.965   2.530   0.786  0.0224 -0.1545 -0.3827
 1096SOL    HW2 4150   1.992   2.439   0.799  1.3320  0.1128 -1.0285
 1096SOL    HW3 4151   1.951   2.563   0.875 -1.6661 -1.2914 -0.1742
 1096SOL    MW4 4152   1.967   2.522   0.799 -0.0276 -0.2692 -0.4404
 1097SOL     OW 4153   1.358   4.896   0.842 -0.2519 -0.1998 -0.1142
 1097SOL    HW2 4154   1.320   4.809   0.847  0.0994 -0.2757  2.8529
 1097SOL    HW3 4155   1.411   4.905   0.922 -0.6338  2.8712 -0.0535
 1097SOL    MW4 4156   1.360   4.886   0.853 -0.2560  0.1954  0.2853
 1098SOL     OW 4157   1.795   0.334   2.914  0.1809  0.2468 -0.4604
 1098SOL    HW2 4158   1.867   0.280   2.881  0.5887  1.1412 -1.0561
 1098SOL    HW3 4159   1.716   0.286   2.889  0.5427 -0.9959  0.6381
 1098SOL    MW4 4160   1.794   0.320   2.907  0.2824  0.2008 -0.3941
 1099SOL     OW 4161   5.823   4.548   1.451 -0.1669  0.6176  0.0215
 1099SOL    HW2 4162   5.825   4.458   1.485 -0.0545  1.1363  1.4779
 1099SOL    HW3 4163   5.877   4.545   1.372  0.6707 -0.3863  0.6013
 1099SOL    MW4 4164   5.831   4.535   1.445 -0.0416  0.5536  0.2902
 1100SOL     OW 4165   3.878   3.771   0.919  0.5540 -0.8321 -0.0324
 1100SOL    HW2 4166   3.915   3.794   0.834  0.0520 -0.1172 -0.0641
 1100SOL    HW3 4167   3.886   3.851   0.971 -2.6810  0.0375 -0.6331
 1100SOL    MW4 4168   3.884   3.784   0.915  0.0609 -0.6230 -0.1158
 1101SOL     OW 4169   2.879   1.517   3.012 -0.1127 -0.0909 -0.1988
 1101SOL    HW2 4170   2.931   1.540   2.935  0.8868  1.2185  0.8154
 1101SOL    HW3 4171   2.818   1.591   3.023  1.1458  0.7849  1.4028
 1101SOL    MW4 4172   2.878   1.530   3.003  0.1852  0.1974  0.1463
 1102SOL     OW 4173   4.745   0.518   0.774 -0.1244  0.1055 -0.4810
 1102SOL    HW2 4174   4.733   0.601   0.727  0.8449  0.6021  0.1358
 1102SOL    HW3 4175   4.820   0.533   0.831 -1.2547 -0.4835  1.2464
 1102SOL    MW4 4176   4.753   0.531   0.775 -0.1457  0.0933 -0.1717
 1103SOL     OW 4177   1.830   5.842   2.159 -0.0285  0.5893 -0.1120
 1103SOL    HW2 4178   1.877   5.902   2.218 -0.0827  1.7424 -1.2005
 1103SOL    HW3 4179   1.800   5.772   2.216 -0.7856  2.0801  1.4020
 1103SOL    MW4 4180   1.833   5.841   2.174 -0.1355  0.9382 -0.0559
 1104SOL     OW 4181   3.978   4.964   5.518  0.0887  0.1210  0.0361
 1104SOL    HW2 4182   4.001   5.052   5.547 -0.0543  0.3555 -0.5463
 1104SOL    HW3 4183   4.057   4.932   5.474  0.4182 -0.3618  0.9544
 1104SOL    MW4 4184   3.991   4.971   5.516  0.1133  0.0882  0.0804
 1105SOL     OW 4185   4.069   6.385   6.023  0.0570 -0.2218  0.3714
 1105SOL    HW2 4186   4.062   6.295   5.993  1.1430 -0.3300  0.3704
 1105SOL    HW3 4187   4.016   6.388   6.102 -3.0065  0.1294 -1.5625
 1105SOL    MW4 4188   4.061   6.373   6.030 -0.2039 -0.1897  0.1161
 1106SOL     OW 4189   0.250   1.843   1.072 -0.0272  0.1747 -0.4921
 1106SOL    HW2 4190   0.207   1.877   1.151 -0.5889 -1.3676 -0.1028
 1106SOL    HW3 4191   0.328   1.898   1.061 -0.2525  0.7800  0.7993
 1106SOL    MW4 4192   0.255   1.855   1.081 -0.1311  0.0510 -0.2704
 1107SOL     OW 4193   2.204   2.840   1.945 -0.2546 -0.2896  0.1858
 1107SOL    HW2 4194   2.190   2.751   1.914  0.3389 -0.2416 -0.2417
 1107SOL    HW3 4195   2.128   2.889   1.913 -0.6583 -0.6762  0.5569
 1107SOL    MW4 4196   2.193   2.835   1.936 -0.2295 -0.3343  0.1784
 1108SOL     OW 4197   1.875   0.213   1.508 -0.2946 -0.5356  0.2313
 1108SOL    HW2 4198   1.910   0.177   1.589 -0.0304 -0.7558  0.0238
 1108SOL    HW3 4199   1.936   0.283   1.486 -0.7878  0.0252  0.6163
 1108SOL    MW4 4200   1.888   0.218   1.516 -0.3248 -0.4906  0.2547
 1109SOL     OW 4201   0.742   5.335   3.183 -0.4874 -0.1247  0.2410
 1109SOL    HW2 4202   0.747   5.405   3.248 -0.9866  0.4286 -0.3097
 1109SOL    HW3 4203   0.833   5.314   3.163 -0.3302  0.8956 -0.1489
 1109SOL    MW4 4204   0.755   5.341   3.189 -0.5325  0.0829  0.1169
 1110SOL     OW 4205   0.242   1.696   4.488 -0.0431  0.1987 -0.3888
 1110SOL    HW2 4206   0.208   1.613   4.521 -1.6725  1.2175  0.6727
 1110SOL    HW3 4207   0.171   1.731   4.433 -0.2928  1.7977  0.8479
 1110SOL    MW4 4208   0.228   1.690   4.485 -0.2910  0.5441 -0.0856
 1111SOL     OW 4209   4.747   0.035   0.636  0.0359 -1.0310 -0.1111
 1111SOL    HW2 4210   4.810   0.002   0.700  1.8557  0.2424 -1.1585
 1111SOL    HW3 4211   4.799   0.046   0.556 -1.3924  0.6114 -0.8591
 1111SOL    MW4 4212   4.762   0.032   0.634  0.0875 -0.6463 -0.3480
 1112SOL     OW 4213   3.487   4.134   4.212 -0.2139 -0.4905 -0.0364
 1112SOL    HW2 4214   3.465   4.041   4.203 -0.7830 -0.2334 -1.8591
 1112SOL    HW3 4215   3.409   4.180   4.181  0.9250  0.5385 -1.5199
 1112SOL    MW4 4216   3.474   4.128   4.206 -0.1387 -0.3208 -0.4726
 1113SOL     OW 4217   3.003   1.555   3.992 -0.5534 -0.2791 -0.5968
 1113SOL    HW2 4218   3.036   1.575   3.904 -0.6696 -2.2170 -1.1261
 1113SOL    HW3 4219   3.079   1.519   4.038 -0.7562 -0.2497 -0.2381
 1113SOL    MW4 4220   3.018   1.553   3.986 -0.5955 -0.5309 -0.6193
 1114SOL     OW 4221   1.784   5.294   0.934 -0.0924  0.0885 -0.4098
 1114SOL    HW2 4222   1.730   5.259   0.863  0.4641  1.3894 -1.5376
 1114SOL    HW3 4223   1.839   5.360   0.891 -1.0680  2.3133  1.5355
 1114SOL    MW4 4224   1.784   5.298   0.919 -0.1477  0.5537 -0.3020
 1115SOL     OW 4225   4.088   3.602   1.025 -0.7424 -0.3973 -0.3964
 1115SOL    HW2 4226   4.071   3.536   1.091 -1.1175  0.7229  0.6735
 1115SOL    HW3 4227   4.003   3.645   1.012 -0.3513  0.3524 -0.5232
 1115SOL    MW4 4228   4.074   3.599   1.032 -0.7403 -0.1506 -0.2720
 1116SOL     OW 4229   4.129   2.660   3.411 -0.0600 -0.3728  0.7047
 1116SOL    HW2 4230   4.057   2.622   3.461 -0.9686  0.8814  0.3813
 1116SOL    HW3 4231   4.149   2.742   3.455 -2.1942  1.7816 -1.9286
 1116SOL    MW4 4232   4.122   2.666   3.423 -0.4615  0.0769  0.3146
 1117SOL     OW 4233   4.126   3.573   1.448  0.1890 -0.2076  0.2186
 1117SOL    HW2 4234   4.081   3.657   1.455  0.1357 -0.2807  0.7912
 1117SOL    HW3 4235   4.085   3.530   1.373  0.2687  0.3036 -0.1248
 1117SOL    MW4 4236   4.115   3.578   1.439  0.1925 -0.1498  0.2488
 1118SOL     OW 4237   4.245   2.163   4.328  0.0659  0.1509 -0.3256
 1118SOL    HW2 4238   4.211   2.239   4.375  0.3547  0.8008 -1.1469
 1118SOL    HW3 4239   4.178   2.143   4.264 -1.0195 -1.6545  1.2678
 1118SOL    MW4 4240   4.232   2.171   4.326 -0.0392 -0.0016 -0.2237
 1119SOL     OW 4241   5.609   5.383   6.296  0.0466 -0.2008  0.1821
 1119SOL    HW2 4242   5.515   5.389   6.312  0.2283  2.8241  0.7574
 1119SOL    HW3 4243   5.620   5.417   6.207  0.6602  0.4997  0.5167
 1119SOL    MW4 4244   5.598   5.388   6.286  0.1515  0.2907  0.3022
 1120SOL     OW 4245   0.849   2.795   2.239  0.0291 -0.3144 -0.5561
 1120SOL    HW2 4246   0.806   2.869   2.282  2.4076  1.1853 -0.5762
 1120SOL    HW3 4247   0.910   2.761   2.305  0.4790 -0.8920 -1.2529
 1120SOL    MW4 4248   0.852   2.800   2.254  0.4023 -0.1927 -0.6507
 1121SOL     OW 4249   2.314   6.004   2.003 -0.1263  0.1173  0.0810
 1121SOL    HW2 4250   2.345   5.915   2.015 -0.2067  0.1584  0.6228
 1121SOL    HW3 4251   2.336   6.026   1.912  0.0546 -0.3859  0.0037
 1121SOL    MW4 4252   2.321   5.995   1.992 -0.1131  0.0563  0.1423
 1122SOL     OW 4253   0.919   1.329   3.432  0.0769 -0.8149  0.0315
 1122SOL    HW2 4254   0.877   1.407   3.397 -0.5056 -0.8164  0.7230
 1122SOL    HW3 4255   0.849   1.264   3.438  0.2099 -0.8870  0.9742
 1122SOL    MW4 4256   0.904   1.330   3.428  0.0176 -0.8246  0.2471
 1123SOL     OW 4257   1.509   3.100   4.638 -0.3377  0.3696  0.1189
 1123SOL    HW2 4258   1.548   3.012   4.639 -1.9765 -0.3901 -0.0296
 1123SOL    HW3 4259   1.566   3.151   4.695 -0.5104 -1.3217  1.9283
 1123SOL    MW4 4260   1.522   3.095   4.646 -0.5767  0.0462  0.3381
 1124SOL     OW 4261   0.492   3.555   5.598  0.4732  0.0513  0.2925
 1124SOL    HW2 4262   0.438   3.621   5.640  0.3483  1.8279 -2.3915
 1124SOL    HW3 4263   0.445   3.472   5.612 -1.3797  1.0953  0.5602
 1124SOL    MW4 4264   0.479   3.552   5.605  0.2123  0.4234 -0.0263
 1125SOL     OW 4265   5.475   5.545   2.558  0.2571 -0.3377 -0.0732
 1125SOL    HW2 4266   5.495   5.471   2.615  0.3124  1.0258  1.7564
 1125SOL    HW3 4267   5.518   5.523   2.475  2.6963 -1.0880  1.2893
 1125SOL    MW4 4268   5.483   5.532   2.555  0.5862 -0.2568  0.3480
 1126SOL     OW 4269   3.591   2.764   2.066 -0.3027 -0.5767  0.1018
 1126SOL    HW2 4270   3.524   2.779   1.999 -1.2711  0.4807  1.2748
 1126SOL    HW3 4271   3.572   2.827   2.135  0.7148 -1.5769  1.3598
 1126SOL    MW4 4272   3.579   2.774   2.066 -0.2962 -0.5692  0.4226
 1127SOL     OW 4273   0.404   1.275   4.506 -0.2289 -0.1556 -0.1266
 1127SOL    HW2 4274   0.439   1.365   4.503 -1.6175  0.4189  0.0763
 1127SOL    HW3 4275   0.435   1.234   4.426  1.6825  0.0077  0.4765
 1127SOL    MW4 4276   0.413   1.282   4.495 -0.1599 -0.0583 -0.0203
 1128SOL     OW 4277   3.472   5.599   4.271  0.0501  0.4180  0.2633
 1128SOL    HW2 4278   3.528   5.524   4.250  0.7427  0.7438  0.9001
 1128SOL    HW3 4279   3.391   5.559   4.305  0.6744 -0.0503  1.2505
 1128SOL    MW4 4280   3.469   5.584   4.272  0.2238  0.3992  0.4776
 1129SOL     OW 4281   0.745   2.684   4.343  0.3736 -0.5681  0.1411
 1129SOL    HW2 4282   0.800   2.762   4.337 -2.1634  1.2975 -0.5841
 1129SOL    HW3 4283   0.732   2.671   4.437 -1.5657  1.8255  0.3169
 1129SOL    MW4 4284   0.750   2.693   4.355 -0.2170 -0.0062  0.0686
 1130SOL     OW 4285   1.935   6.368   4.290 -0.0746  0.2628 -0.0157
 1130SOL    HW2 4286   1.877   6.331   4.223 -1.0220  0.2991  0.7766
 1130SOL    HW3 4287   1.994   6.425   4.241 -1.2426  0.8774 -0.7385
 1130SOL    MW4 4288   1.935   6.370   4.274 -0.3537  0.3487 -0.0065
 1131SOL     OW 4289   6.139   5.561   0.806 -0.3538 -0.4103  0.0904
 1131SOL    HW2 4290   6.112   5.602   0.724  0.2110 -1.4858 -0.6650
 1131SOL    HW3 4291   6.209   5.616   0.839 -1.0438  0.4107  0.2164
 1131SOL    MW4 4292   6.145   5.574   0.800 -0.3703 -0.4439  0.0074
 1132SOL     OW 4293   0.204   1.607   2.334 -0.2160  0.3172  0.7296
 1132SOL    HW2 4294   0.133   1.552   2.301  1.5535 -2.0191  0.6194
 1132SOL    HW3 4295   0.201   1.596   2.429 -1.7583  2.5814  1.0321
 1132SOL    MW4 4296   0.194   1.599   2.342 -0.1860  0.3077  0.7550
 1133SOL     OW 4297   4.425   0.496   4.324  0.1925 -0.3035  0.1711
 1133SOL    HW2 4298   4.379   0.477   4.406 -0.4605 -1.8824 -0.5280
 1133SOL    HW3 4299   4.517   0.476   4.343  0.1476 -0.0429  0.6916
 1133SOL    MW4 4300   4.431   0.491   4.337  0.1004 -0.4774  0.1475
 1134SOL     OW 4301   0.399   5.939   4.050 -0.1155  0.2991 -0.0944
 1134SOL    HW2 4302   0.359   5.887   3.981 -0.5529  2.6743 -1.7790
 1134SOL    HW3 4303   0.340   6.014   4.061  0.7413  0.7617  1.8011
 1134SOL    MW4 4304   0.386   5.942   4.042 -0.0602  0.6735 -0.0666
 1135SOL     OW 4305   3.438   2.798   2.845 -0.1308 -0.1575 -0.2268
 1135SOL    HW2 4306   3.379   2.810   2.919 -0.5877 -1.3937 -0.3662
 1135SOL    HW3 4307   3.498   2.728   2.872  1.5297  1.2992  0.0479
 1135SOL    MW4 4308   3.438   2.790   2.858  0.0280 -0.1284 -0.2089
 1136SOL     OW 4309   1.411   2.728   1.263 -0.1412 -0.4316  0.3457
 1136SOL    HW2 4310   1.334   2.695   1.309  0.4275 -0.5774  1.2124
 1136SOL    HW3 4311   1.451   2.650   1.224  0.3559 -0.5737  1.1123
 1136SOL    MW4 4312   1.406   2.714   1.264 -0.0006 -0.4696  0.5612
 1137SOL     OW 4313   0.043   1.930   6.381 -0.1219  0.0675  0.2054
 1137SOL    HW2 4314   0.060   1.882   6.300  1.1692  0.6153  0.1299
 1137SOL    HW3 4315   0.092   2.012   6.371 -0.5201  0.4442  1.2460
 1137SOL    MW4 4316   0.052   1.934   6.369 -0.0041  0.1895  0.3328
 1138SOL     OW 4317   4.100   0.733   1.257 -0.4035  0.0338 -0.7647
 1138SOL    HW2 4318   4.121   0.664   1.320  1.7073  0.9450 -0.3741
 1138SOL    HW3 4319   4.127   0.814   1.301 -0.2768  0.8361 -2.2543
 1138SOL    MW4 4320   4.106   0.735   1.271 -0.1082  0.2599 -0.9097
 1139SOL     OW 4321   4.271   0.196   0.850 -0.8120  0.1571  0.2304
 1139SOL    HW2 4322   4.263   0.101   0.845 -0.6578  0.2113 -3.3937
 1139SOL    HW3 4323   4.352   0.216   0.803 -0.9436  2.1387  0.7232
 1139SOL    MW4 4324   4.281   0.186   0.843 -0.8090  0.4257 -0.1827
 1140SOL     OW 4325   3.084   5.906   0.186 -0.2898  0.2720  0.2745
 1140SOL    HW2 4326   3.113   5.997   0.185 -0.2919  0.2820  0.7419
 1140SOL    HW3 4327   3.115   5.872   0.270  1.9253 -0.8917 -0.9332
 1140SOL    MW4 4328   3.092   5.914   0.197  0.0021  0.1198  0.1768
 1141SOL     OW 4329   2.243   5.925   0.298 -0.6563  0.0855 -0.4220
 1141SOL    HW2 4330   2.231   5.837   0.262 -0.2600  0.0403 -0.4493
 1141SOL    HW3 4331   2.217   5.917   0.390 -0.4196 -0.1117 -0.3702
 1141SOL    MW4 4332   2.238   5.912   0.305 -0.5728  0.0535 -0.4187
 1142SOL     OW 4333   5.918   1.995   2.935  0.0279 -0.1466 -0.0975
 1142SOL    HW2 4334   5.997   1.962   2.893  0.6709 -0.5787  1.3774
 1142SOL    HW3 4335   5.946   2.072   2.984 -0.9693  1.1482 -1.4616
 1142SOL    MW4 4336   5.932   2.000   2.936 -0.0188 -0.0327 -0.0829
 1143SOL     OW 4337   4.017   4.395   3.653  0.7248  0.7300 -0.1954
 1143SOL    HW2 4338   3.980   4.323   3.704  0.9275  0.6789 -0.1202
 1143SOL    HW3 4339   4.017   4.469   3.713 -0.0415  0.9509 -0.4583
 1143SOL    MW4 4340   4.012   4.395   3.668  0.6505  0.7524 -0.2202
 1144SOL     OW 4341   3.746   6.144   3.764  0.4652  0.5426 -0.0229
 1144SOL    HW2 4342   3.750   6.053   3.735 -0.8883  0.4657 -0.0284
 1144SOL    HW3 4343   3.741   6.138   3.860  0.9872  0.6504  0.0175
 1144SOL    MW4 4344   3.746   6.131   3.773  0.3555  0.5467 -0.0183
 1145SOL     OW 4345   3.070   1.729   1.857  0.3283  0.0289  0.1975
 1145SOL    HW2 4346   3.019   1.805   1.831 -0.9187 -1.2107 -1.0879
 1145SOL    HW3 4347   3.009   1.656   1.855  1.6737 -1.1676  0.6308
 1145SOL    MW4 4348   3.055   1.730   1.854  0.3413 -0.2925  0.0851
 1146SOL     OW 4349   0.045   2.803   5.694  0.5226  0.0146  0.6184
 1146SOL    HW2 4350   0.047   2.895   5.666 -0.7109  0.3078  1.4298
 1146SOL    HW3 4351   0.135   2.786   5.724  0.4499  1.3849  1.7477
 1146SOL    MW4 4352   0.057   2.813   5.695  0.3503  0.2341  0.8745
 1147SOL     OW 4353   1.588   4.423   0.210 -0.4853 -0.1941 -0.1465
 1147SOL    HW2 4354   1.579   4.491   0.277  0.7555  0.4728 -0.6208
 1147SOL    HW3 4355   1.673   4.440   0.170 -0.5697 -1.4666 -0.9192
 1147SOL    MW4 4356   1.598   4.434   0.213 -0.3327 -0.2740 -0.3110
 1148SOL     OW 4357   4.260   3.913   6.400 -0.2267  0.3442 -0.0182
 1148SOL    HW2 4358   4.325   3.983   6.402 -0.2355  0.3761 -0.6335
 1148SOL    HW3 4359   4.297   3.847   6.342  0.3300 -0.7212  1.4989
 1148SOL    MW4 4360   4.273   3.913   6.393 -0.1544  0.2079  0.1008
 1149SOL     OW 4361   0.880   3.876   0.384 -0.1097  1.0858  0.3880
 1149SOL    HW2 4362   0.920   3.888   0.298  1.6798 -1.3341  0.7715
 1149SOL    HW3 4363   0.952   3.888   0.446 -0.4053 -1.1153  1.2570
 1149SOL    MW4 4364   0.895   3.879   0.381  0.0874  0.4761  0.5532
 1150SOL     OW 4365   3.991   1.273   2.347  0.0482  0.2839  0.5807
 1150SOL    HW2 4366   3.914   1.261   2.403  1.0287 -2.4987  1.4923
 1150SOL    HW3 4367   3.962   1.242   2.261 -0.1841  0.3708  0.6258
 1150SOL    MW4 4368   3.977   1.267   2.343  0.1469 -0.0718  0.7069
 1151SOL     OW 4369   5.847   0.415   4.291 -0.0233 -0.6224  0.1307
 1151SOL    HW2 4370   5.826   0.437   4.200  1.3651  1.6555  0.3001
 1151SOL    HW3 4371   5.932   0.372   4.286  0.1262 -0.3559  0.3473
 1151SOL    MW4 4372   5.855   0.412   4.278  0.1796 -0.2867  0.1817
 1152SOL     OW 4373   5.470   2.701   4.880  0.1718  0.6200 -0.2090
 1152SOL    HW2 4374   5.481   2.715   4.786 -2.2772  1.9949 -0.3756
 1152SOL    HW3 4375   5.478   2.788   4.919 -2.1979  0.6406  0.3915
 1152SOL    MW4 4376   5.472   2.714   4.873 -0.4640  0.8041 -0.1518
 1153SOL     OW 4377   5.145   2.879   3.720  0.1064 -0.3574  0.5517
 1153SOL    HW2 4378   5.233   2.904   3.749 -0.2447  1.3622  0.2573
 1153SOL    HW3 4379   5.143   2.902   3.627 -0.7729  0.0025  0.6524
 1153SOL    MW4 4380   5.156   2.885   3.712 -0.0559 -0.0830  0.5262
 1154SOL     OW 4381   4.149   2.575   1.693  0.6577  0.4961 -0.4292
 1154SOL    HW2 4382   4.213   2.524   1.742 -0.1646  0.9806  1.2336
 1154SOL    HW3 4383   4.194   2.599   1.612  2.7003  1.0452  0.7852
 1154SOL    MW4 4384   4.163   2.572   1.689  0.8187  0.6324 -0.0496
 1155SOL     OW 4385   0.640   4.637   6.027  0.7061  0.4952  0.2211
 1155SOL    HW2 4386   0.708   4.699   6.002 -0.4918  2.0684  0.7517
 1155SOL    HW3 4387   0.671   4.600   6.110  0.8884  1.2403  0.4929
 1155SOL    MW4 4388   0.653   4.640   6.034  0.5721  0.8011  0.3270
 1156SOL     OW 4389   2.591   5.235   4.982  0.4802  0.0533 -0.0583
 1156SOL    HW2 4390   2.640   5.263   4.905  2.8061  1.5386  1.8135
 1156SOL    HW3 4391   2.513   5.290   4.983 -0.2526 -0.8616 -1.9502
 1156SOL    MW4 4392   2.587   5.246   4.972  0.6904  0.1286 -0.0610
 1157SOL     OW 4393   4.811   2.899   2.685  0.3367 -0.5086 -0.1402
 1157SOL    HW2 4394   4.781   2.921   2.773  1.8267  0.5618  0.1555
 1157SOL    HW3 4395   4.760   2.956   2.627  0.6498  0.1322  0.2040
 1157SOL    MW4 4396   4.800   2.910   2.689  0.5746 -0.2828 -0.0558
 1158SOL     OW 4397   6.364   1.817   0.521  0.8812  0.2448 -0.2083
 1158SOL    HW2 4398   6.302   1.745   0.523 -1.8490  2.2395 -2.8646
 1158SOL    HW3 4399   6.391   1.823   0.429  2.1656  1.7013  0.2088
 1158SOL    MW4 4400   6.360   1.808   0.509  0.6904  0.7002 -0.5037
 1159SOL     OW 4401   3.793   1.521   4.197 -0.0331 -0.0550 -0.2000
 1159SOL    HW2 4402   3.882   1.525   4.230 -0.4687  0.5152  0.9519
 1159SOL    HW3 4403   3.801   1.546   4.104  1.0983 -0.8881 -0.3362
 1159SOL    MW4 4404   3.805   1.525   4.189  0.0587 -0.0897 -0.0660
 1160SOL     OW 4405   0.172   2.321   1.934 -0.0347 -0.4801  0.3456
 1160SOL    HW2 4406   0.188   2.340   2.026  0.9581  0.3097  0.0256
 1160SOL    HW3 4407   0.168   2.225   1.929  1.8305 -0.6329  0.9341
 1160SOL    MW4 4408   0.174   2.311   1.945  0.3424 -0.3961  0.3810
 1161SOL     OW 4409   4.437   1.065   0.513 -0.1538 -0.2002  0.0738
 1161SOL    HW2 4410   4.531   1.056   0.528 -0.0796  1.1756  0.5836
 1161SOL    HW3 4411   4.414   0.988   0.461  1.0516 -1.0890  0.7933
 1161SOL    MW4 4412   4.446   1.054   0.508  0.0150 -0.1360  0.2360
 1162SOL     OW 4413   1.852   6.018   6.376 -0.2448  0.2912  0.4443
 1162SOL    HW2 4414   1.902   6.084   6.329 -1.3493  1.7340  1.2046
 1162SOL    HW3 4415   1.911   5.986   6.444 -0.3477  2.0902  1.4441
 1162SOL    MW4 4416   1.866   6.023   6.379 -0.4041  0.7189  0.6765
 1163SOL     OW 4417   2.650   3.379   2.320  0.3094 -0.3613 -0.2546
 1163SOL    HW2 4418   2.735   3.351   2.287 -0.6985 -1.1525 -2.4403
 1163SOL    HW3 4419   2.624   3.311   2.382  0.4533 -1.2012 -1.0839
 1163SOL    MW4 4420   2.658   3.367   2.324  0.1954 -0.5765 -0.6524
 1164SOL     OW 4421   3.270   1.135   1.572 -0.7325  0.2212  0.1261
 1164SOL    HW2 4422   3.269   1.209   1.512  1.3579 -1.0842 -1.6971
 1164SOL    HW3 4423   3.347   1.150   1.628  1.1467 -1.5666 -1.7986
 1164SOL    MW4 4424   3.280   1.147   1.572 -0.2088 -0.1869 -0.3684
 1165SOL     OW 4425   1.817   3.743   5.817  0.2077  0.3317 -0.1660
 1165SOL    HW2 4426   1.872   3.783   5.749  0.4061  1.2716  0.5209
 1165SOL    HW3 4427   1.864   3.759   5.899  0.6443 -1.9629  0.1027
 1165SOL    MW4 4428   1.831   3.751   5.819  0.2914  0.1529 -0.0399
 1166SOL     OW 4429   0.587   6.135   4.211  0.2426  0.1510 -0.1145
 1166SOL    HW2 4430   0.520   6.091   4.263  1.3953  0.2387  1.5010
 1166SOL    HW3 4431   0.576   6.228   4.231  0.7401  0.1818  0.0150
 1166SOL    MW4 4432   0.577   6.142   4.220  0.4603  0.1666  0.1158
 1167SOL     OW 4433   3.368   4.579   5.443 -1.1394  0.3572 -0.2014
 1167SOL    HW2 4434   3.327   4.661   5.418  2.1830  1.3695 -2.9403
 1167SOL    HW3 4435   3.356   4.521   5.368  0.9442  0.1548 -0.4323
 1167SOL    MW4 4436   3.361   4.582   5.430 -0.4261  0.4641 -0.5932
 1168SOL     OW 4437   2.870   1.132   1.626 -0.1299  0.2399  0.0447
 1168SOL    HW2 4438   2.872   1.178   1.543  3.7697 -1.6094 -1.1357
 1168SOL    HW3 4439   2.942   1.171   1.677 -0.6105 -0.5609  1.4107
 1168SOL    MW4 4440   2.880   1.143   1.622  0.3212 -0.1097  0.0691
 1169SOL     OW 4441   2.088   2.708   5.437 -0.0055 -0.1124  0.7214
 1169SOL    HW2 4442   2.167   2.663   5.465 -1.3043 -3.2586 -0.1877
 1169SOL    HW3 4443   2.097   2.714   5.342 -1.0482 -1.0142  0.5484
 1169SOL    MW4 4444   2.099   2.703   5.428 -0.3144 -0.6465  0.5786
 1170SOL     OW 4445   4.274   3.717   0.796  0.0265 -0.0145  0.1035
 1170SOL    HW2 4446   4.247   3.660   0.868  0.3495 -0.0825  0.1724
 1170SOL    HW3 4447   4.216   3.693   0.723  0.8504 -1.1798 -0.1926
 1170SOL    MW4 4448   4.263   3.706   0.795  0.1778 -0.1773  0.0735
 1171SOL     OW 4449   5.361   6.285   2.013 -0.2002 -0.6234 -0.2279
 1171SOL    HW2 4450   5.324   6.373   2.017  0.6101 -0.2383 -0.7742
 1171SOL    HW3 4451   5.336   6.244   2.095  0.5998  0.6200  0.6732
 1171SOL    MW4 4452   5.353   6.291   2.024  0.0122 -0.4085 -0.1811
 1172SOL     OW 4453   0.747   2.810   0.174 -0.4365  0.1061 -0.1987
 1172SOL    HW2 4454   0.842   2.796   0.175 -0.4406  0.1059  0.8633
 1172SOL    HW3 4455   0.732   2.881   0.235 -1.1517 -0.0394 -0.1963
 1172SOL    MW4 4456   0.758   2.817   0.182 -0.5314  0.0869 -0.0582
 1173SOL     OW 4457   0.919   6.241   3.953 -0.1946 -0.7095  0.5803
 1173SOL    HW2 4458   0.955   6.238   3.864  1.1868 -1.5625  1.1130
 1173SOL    HW3 4459   0.897   6.333   3.968 -0.0183 -0.4834 -0.4807
 1173SOL    MW4 4460   0.921   6.253   3.943  0.0109 -0.7922  0.5106
 1174SOL     OW 4461   1.277   1.967   2.191  0.1861 -0.5693  0.1195
 1174SOL    HW2 4462   1.291   1.958   2.285  1.2708  0.1527  0.0472
 1174SOL    HW3 4463   1.221   1.893   2.168  1.1967 -1.6651  1.0605
 1174SOL    MW4 4464   1.271   1.956   2.200  0.4626 -0.6186  0.2341
 1175SOL     OW 4465   1.623   1.011   3.812  0.8341  0.4774 -0.2489
 1175SOL    HW2 4466   1.586   0.930   3.776  0.6465  0.3319  0.2655
 1175SOL    HW3 4467   1.699   1.029   3.756 -0.7146  1.4869 -2.1471
 1175SOL    MW4 4468   1.628   1.003   3.800  0.6050  0.5914 -0.4315
 1176SOL     OW 4469   0.127   4.322   1.911 -0.4906 -0.6770 -1.0863
 1176SOL    HW2 4470   0.033   4.335   1.902 -0.9447 -2.9254 -0.2177
 1176SOL    HW3 4471   0.136   4.260   1.984  1.7720  0.7028 -0.0730
 1176SOL    MW4 4472   0.116   4.316   1.920 -0.2519 -0.7916 -0.8380
 1177SOL     OW 4473   3.724   3.032   1.156  0.0511  0.5092 -0.0286
 1177SOL    HW2 4474   3.747   2.951   1.201 -2.5062 -0.2603  0.0194
 1177SOL    HW3 4475   3.767   3.026   1.071 -0.1400 -0.8993 -0.0370
 1177SOL    MW4 4476   3.733   3.021   1.151 -0.3115  0.2219 -0.0234
 1178SOL     OW 4477   2.993   1.093   0.448  0.0054  0.1160 -0.0458
 1178SOL    HW2 4478   3.025   1.025   0.389 -0.1385 -1.1175  1.2509
 1178SOL    HW3 4479   3.045   1.170   0.426  0.1261 -0.3674 -1.5962
 1178SOL    MW4 4480   3.004   1.094   0.437  0.0023 -0.1105 -0.0792
 1179SOL     OW 4481   3.091   6.264   6.113  0.0751 -1.0901  0.1694
 1179SOL    HW2 4482   3.104   6.263   6.207 -1.0631 -2.2846  0.3465
 1179SOL    HW3 4483   3.019   6.325   6.098  0.1331 -1.0398  0.0925
 1179SOL    MW4 4484   3.083   6.272   6.123 -0.0674 -1.2410  0.1827
 1180SOL     OW 4485   1.299   2.589   0.960  0.6358  0.7884  0.3398
 1180SOL    HW2 4486   1.362   2.570   1.030  1.5338 -1.5430 -0.9803
 1180SOL    HW3 4487   1.343   2.562   0.880 -1.5481  0.2859 -0.7685
 1180SOL    MW4 4488   1.313   2.583   0.959  0.4661  0.4145  0.0194
 1181SOL     OW 4489   0.314   6.050   3.293 -0.0209  0.2136  0.6691
 1181SOL    HW2 4490   0.391   6.106   3.278 -0.7361  1.2843  0.8592
 1181SOL    HW3 4491   0.350   5.962   3.305  1.2242  0.7972  1.3888
 1181SOL    MW4 4492   0.329   6.046   3.292  0.0490  0.4319  0.7891
 1182SOL     OW 4493   0.342   3.951   3.832  0.2428 -0.0838 -0.2127
 1182SOL    HW2 4494   0.434   3.962   3.858  1.4496 -1.8069 -3.2041
 1182SOL    HW3 4495   0.323   4.028   3.779  0.5969 -0.5372 -1.0265
 1182SOL    MW4 4496   0.352   3.962   3.828  0.4488 -0.3710 -0.7148
 1183SOL     OW 4497   4.590   4.893   2.344  0.0799 -0.0110 -0.0676
 1183SOL    HW2 4498   4.495   4.891   2.359 -0.1952  2.1001 -1.0937
 1183SOL    HW3 4499   4.608   4.984   2.321  2.2449 -0.5517 -0.7061
 1183SOL    MW4 4500   4.580   4.905   2.343  0.3293  0.1962 -0.2872
 1184SOL     OW 4501   2.115   5.666   0.463  0.2412  0.2161  0.1145
 1184SOL    HW2 4502   2.041   5.666   0.524  0.4325 -0.4398  0.3487
 1184SOL    HW3 4503   2.088   5.606   0.394  0.3588  0.3479 -0.0459
 1184SOL    MW4 4504   2.102   5.658   0.462  0.2820  0.1469  0.1243
 1185SOL     OW 4505   5.179   4.183   2.155  0.8249 -0.2307 -0.0942
 1185SOL    HW2 4506   5.134   4.251   2.106 -0.8773  0.6634  2.5380
 1185SOL    HW3 4507   5.264   4.221   2.177 -0.1887  1.2418  1.5351
 1185SOL    MW4 4508   5.185   4.197   2.152  0.4666  0.0816  0.4681
 1186SOL     OW 4509   4.532   6.340   5.013  0.2423 -0.3541  0.4724
 1186SOL    HW2 4510   4.592   6.395   4.961  0.9474 -0.3242  1.2862
 1186SOL    HW3 4511   4.516   6.264   4.958  1.7620 -0.7889  0.5671
 1186SOL    MW4 4512   4.538   6.338   4.999  0.5358 -0.4075  0.5922
 1187SOL     OW 4513   5.944   0.938   5.944 -0.4465  0.1775  0.1012
 1187SOL    HW2 4514   5.910   1.022   5.974 -1.7933 -0.4694  0.4314
 1187SOL    HW3 4515   5.999   0.908   6.017  0.7008  1.1117 -0.3386
 1187SOL    MW4 4516   5.947   0.945   5.958 -0.4729  0.2154  0.0867
 1188SOL     OW 4517   0.238   4.309   2.930 -0.2448 -0.0574 -0.3172
 1188SOL    HW2 4518   0.282   4.245   2.875  2.0450  0.9426  0.2440
 1188SOL    HW3 4519   0.214   4.380   2.870 -0.5991 -0.3429 -0.5211
 1188SOL    MW4 4520   0.241   4.310   2.915  0.0106  0.0369 -0.2700
 1189SOL     OW 4521   1.415   3.555   1.167 -0.2529  0.1336  0.6158
 1189SOL    HW2 4522   1.360   3.609   1.224 -0.9306  1.2566 -1.0357
 1189SOL    HW3 4523   1.502   3.594   1.175 -0.2333 -0.0235  1.2383
 1189SOL    MW4 4524   1.419   3.567   1.176 -0.3397  0.2610  0.4801
 1190SOL     OW 4525   1.614   4.480   6.040  0.2991 -0.3629 -0.4480
 1190SOL    HW2 4526   1.607   4.573   6.062  3.3206  0.5770 -2.7540
 1190SOL    HW3 4527   1.597   4.477   5.945  1.4360 -1.9454 -0.6367
 1190SOL    MW4 4528   1.610   4.492   6.030  0.8478 -0.4477 -0.7771
 1191SOL     OW 4529   1.985   5.320   5.561  0.4774 -0.6214  0.1933
 1191SOL    HW2 4530   2.001   5.413   5.544 -0.3673 -0.5874 -0.4259
 1191SOL    HW3 4531   1.912   5.320   5.623 -1.6479 -0.9093 -2.1851
 1191SOL    MW4 4532   1.978   5.333   5.567  0.0855 -0.6549 -0.2022
 1192SOL     OW 4533   5.668   6.014   4.382 -0.0746 -0.2273 -0.5485
 1192SOL    HW2 4534   5.707   5.964   4.311  2.4714 -0.8181  1.1482
 1192SOL    HW3 4535   5.645   5.948   4.448 -0.4403  0.4949  0.0599
 1192SOL    MW4 4536   5.670   5.999   4.381  0.2130 -0.2100 -0.2444
 1193SOL     OW 4537   1.054   0.736   1.681 -0.1660  0.0951  0.7881
 1193SOL    HW2 4538   0.994   0.761   1.752 -0.6688  2.2320 -0.3203
 1193SOL    HW3 4539   1.137   0.779   1.704  1.0490 -2.7696  2.2651
 1193SOL    MW4 4540   1.057   0.745   1.694 -0.0720 -0.0009  0.8367
 1194SOL     OW 4541   5.842   5.741   5.755  0.2742  0.0872  0.5088
 1194SOL    HW2 4542   5.814   5.665   5.704  0.8529 -0.8671  1.5627
 1194SOL    HW3 4543   5.769   5.757   5.815  1.0946 -1.1872  1.9298
 1194SOL    MW4 4544   5.829   5.733   5.756  0.4588 -0.2068  0.8354
 1195SOL     OW 4545   1.254   1.798   4.122 -0.3470  0.0206 -0.2817
 1195SOL    HW2 4546   1.247   1.813   4.216  1.9070  0.6361 -0.1525
 1195SOL    HW3 4547   1.226   1.880   4.083 -0.4224  0.0740 -0.1175
 1195SOL    MW4 4548   1.249   1.811   4.129 -0.0596  0.1088 -0.2430
 1196SOL     OW 4549   4.071   1.517   1.044  0.4966 -0.0920 -0.4650
 1196SOL    HW2 4550   4.013   1.527   0.968 -0.0123 -0.2214 -0.1003
 1196SOL    HW3 4551   4.089   1.423   1.048 -0.0675 -0.1923 -0.0094
 1196SOL    MW4 4552   4.066   1.506   1.034  0.3550 -0.1223 -0.3568
 1197SOL     OW 4553   3.116   4.030   5.202  0.3799 -0.1238 -0.2343
 1197SOL    HW2 4554   3.201   3.995   5.176 -0.3281 -1.3205 -1.0631
 1197SOL    HW3 4555   3.075   4.057   5.120 -0.0837  0.3654  0.1461
 1197SOL    MW4 4556   3.122   4.029   5.188  0.2253 -0.2171 -0.2934
 1198SOL     OW 4557   3.181   0.094   4.175  0.2846  0.2930  0.1857
 1198SOL    HW2 4558   3.210   0.004   4.166  1.7517  0.6792  0.7594
 1198SOL    HW3 4559   3.115   0.105   4.107 -0.6953 -1.5006  0.7924
 1198SOL    MW4 4560   3.176   0.084   4.165  0.3489  0.1073  0.3414
 1199SOL     OW 4561   3.475   0.610   2.795 -0.6429  0.1741 -1.2903
 1199SOL    HW2 4562   3.473   0.664   2.716 -1.6098 -0.2743 -1.5828
 1199SOL    HW3 4563   3.485   0.673   2.867  0.4129  0.5685 -1.7700
 1199SOL    MW4 4564   3.476   0.625   2.794 -0.6312  0.1670 -1.3922
 1200SOL     OW 4565   2.275   3.455   3.542  0.2746  0.1802 -0.1375
 1200SOL    HW2 4566   2.278   3.361   3.561  0.3344 -0.2110 -1.9178
 1200SOL    HW3 4567   2.357   3.489   3.579  0.3189 -0.4973  0.4040
 1200SOL    MW4 4568   2.286   3.447   3.549  0.2884  0.0392 -0.3009
 1201SOL     OW 4569   0.023   3.894   5.059 -0.1465 -0.2694  0.1216
 1201SOL    HW2 4570   0.066   3.808   5.054 -0.8475 -0.5528 -1.4891
 1201SOL    HW3 4571  -0.048   3.889   4.995  1.9822  2.7096 -2.8342
 1201SOL    MW4 4572   0.019   3.882   5.050  0.0419  0.0862 -0.4809
 1202SOL     OW 4573   2.182   4.879   4.009  0.3548  0.2602  0.7984
 1202SOL    HW2 4574   2.127   4.851   3.935 -0.3249 -0.5176  1.5816
 1202SOL    HW3 4575   2.236   4.949   3.972 -0.9357  0.8524 -0.0892
 1202SOL    MW4 4576   2.182   4.885   3.994  0.0948  0.2357  0.7846
 1203SOL     OW 4577   4.129   6.018   2.834  0.0041 -0.0828  0.3611
 1203SOL    HW2 4578   4.081   5.940   2.808 -1.0646 -0.2368  2.5561
 1203SOL    HW3 4579   4.079   6.091   2.797 -0.5898 -0.3514  0.6149
 1203SOL    MW4 4580   4.116   6.017   2.826 -0.2153 -0.1386  0.6842
 1204SOL     OW 4581   0.985   3.214   5.646  0.3672 -0.6201 -0.4384
 1204SOL    HW2 4582   1.067   3.192   5.692 -0.4546 -0.8763  0.9602
 1204SOL    HW3 4583   0.965   3.303   5.675 -1.0960 -1.4240  1.1958
 1204SOL    MW4 4584   0.993   3.223   5.656  0.0657 -0.7600 -0.0383
 1205SOL     OW 4585   3.764   4.122   5.048  0.0022 -0.2430 -0.3857
 1205SOL    HW2 4586   3.791   4.177   5.122  0.8864  0.7681 -1.4348
 1205SOL    HW3 4587   3.683   4.163   5.017  0.3851  0.1728 -0.8459
 1205SOL    MW4 4588   3.757   4.135   5.054  0.1694 -0.0548 -0.5848
 1206SOL     OW 4589   4.221   1.222   5.978 -0.0438 -0.0744  0.6387
 1206SOL    HW2 4590   4.152   1.274   5.937 -0.8308 -1.2060  0.4572
 1206SOL    HW3 4591   4.259   1.172   5.906 -0.0009 -0.5131  0.9628
 1206SOL    MW4 4592   4.217   1.222   5.963 -0.1420 -0.2816  0.6575
 1207SOL     OW 4593   5.380   6.330   3.230 -0.1130  0.8459  0.2581
 1207SOL    HW2 4594   5.430   6.323   3.311  1.0637  1.0150 -0.4308
 1207SOL    HW3 4595   5.428   6.276   3.167 -1.4734  0.0378 -0.1246
 1207SOL    MW4 4596   5.393   6.322   3.232 -0.1372  0.7616  0.1167
 1208SOL     OW 4597   5.678   3.440   1.379 -0.5429  0.0929  0.0393
 1208SOL    HW2 4598   5.646   3.350   1.387  0.2269 -0.1604  0.3166
 1208SOL    HW3 4599   5.632   3.487   1.449 -0.6581 -0.1667  0.1424
 1208SOL    MW4 4600   5.667   3.434   1.390 -0.4566  0.0252  0.0895
 1209SOL     OW 4601   2.924   5.218   5.304  0.2805 -0.2183 -0.4035
 1209SOL    HW2 4602   2.969   5.200   5.387 -1.8315  0.2925  0.9349
 1209SOL    HW3 4603   2.959   5.303   5.276  1.6384 -0.7922 -0.5145
 1209SOL    MW4 4604   2.935   5.227   5.312  0.1810 -0.2266 -0.2416
 1210SOL     OW 4605   5.719   2.376   3.489 -0.4828  0.5411  0.4925
 1210SOL    HW2 4606   5.672   2.318   3.549 -0.2398  1.0646  1.2139
 1210SOL    HW3 4607   5.706   2.463   3.526 -1.2213  1.0122 -0.8166
 1210SOL    MW4 4608   5.711   2.380   3.502 -0.5482  0.6723  0.4149
 1211SOL     OW 4609   3.131   3.883   4.749 -0.4451  0.2474  0.0870
 1211SOL    HW2 4610   3.113   3.937   4.826  3.7932  1.8364  0.2094
 1211SOL    HW3 4611   3.177   3.806   4.784 -0.4189 -0.1000 -0.6958
 1211SOL    MW4 4612   3.134   3.880   4.764  0.1176  0.4112 -0.0001
 1212SOL     OW 4613   2.222   1.016   4.206 -0.0102  0.0533 -0.7018
 1212SOL    HW2 4614   2.318   1.010   4.201  0.1372  0.1078  1.2344
 1212SOL    HW3 4615   2.191   0.975   4.125  1.6237 -1.1063 -0.7969
 1212SOL    MW4 4616   2.231   1.010   4.195  0.2248 -0.0925 -0.4589
 1213SOL     OW 4617   0.701   0.376   4.345 -0.1143  0.3133  0.0394
 1213SOL    HW2 4618   0.685   0.434   4.271  1.0018 -0.5726 -0.9433
 1213SOL    HW3 4619   0.645   0.300   4.328  0.2104  0.0689  0.0476
 1213SOL    MW4 4620   0.692   0.374   4.333  0.0758  0.1642 -0.0892
 1214SOL     OW 4621   3.182   2.932   4.349  0.3508 -0.0428  0.0165
 1214SOL    HW2 4622   3.097   2.889   4.341  0.3766 -0.2389  0.7354
 1214SOL    HW3 4623   3.193   2.978   4.266 -2.3933  3.5501  1.4136
 1214SOL    MW4 4624   3.173   2.932   4.337 -0.0078  0.4053  0.2957
 1215SOL     OW 4625   1.129   1.770   3.122 -0.3791  0.2137 -0.1824
 1215SOL    HW2 4626   1.037   1.744   3.112 -1.2342  2.2192  1.7494
 1215SOL    HW3 4627   1.130   1.863   3.102  1.2300  0.2347 -0.1100
 1215SOL    MW4 4628   1.117   1.779   3.118 -0.2796  0.4811  0.0820
 1216SOL     OW 4629   4.057   0.244   5.193  0.0037  0.2036 -0.1783
 1216SOL    HW2 4630   4.027   0.162   5.231  0.5031 -0.0716 -0.3721
 1216SOL    HW3 4631   4.117   0.218   5.123  1.9052  0.7332  1.1903
 1216SOL    MW4 4632   4.061   0.230   5.189  0.3205  0.2372 -0.0233
 1217SOL     OW 4633   2.609   3.056   3.267  0.0343  0.0027  0.0906
 1217SOL    HW2 4634   2.578   2.970   3.239  0.4684 -1.5028  3.6415
 1217SOL    HW3 4635   2.704   3.050   3.263  0.0607  0.6751 -0.4822
 1217SOL    MW4 4636   2.617   3.044   3.263  0.0950 -0.1072  0.4835
 1218SOL     OW 4637   1.377   0.556   6.058 -0.1900 -0.0040  0.0503
 1218SOL    HW2 4638   1.358   0.569   5.965  0.0544 -2.3395 -0.3795
 1218SOL    HW3 4639   1.336   0.473   6.080  2.1328 -0.9245  1.2797
 1218SOL    MW4 4640   1.369   0.547   6.048  0.1487 -0.4336  0.1558
 1219SOL     OW 4641   3.293   1.745   5.742  0.0913 -0.1316  1.0819
 1219SOL    HW2 4642   3.301   1.659   5.784  0.4530 -0.7281 -0.1568
 1219SOL    HW3 4643   3.295   1.807   5.814 -0.0894 -1.1570  2.0030
 1219SOL    MW4 4644   3.294   1.742   5.757  0.1152 -0.3456  1.0400
 1220SOL     OW 4645   5.024   1.808   6.203  0.0587 -0.0509 -0.2945
 1220SOL    HW2 4646   5.041   1.820   6.296  2.3454 -0.4286 -0.5989
 1220SOL    HW3 4647   5.000   1.715   6.195  1.4241 -0.4348 -0.2274
 1220SOL    MW4 4648   5.023   1.797   6.214  0.5405 -0.1514 -0.3258
 1221SOL     OW 4649   2.674   4.413   2.023  0.1211 -0.6470  0.7356
 1221SOL    HW2 4650   2.697   4.466   2.099  0.8732  3.3861 -1.9400
 1221SOL    HW3 4651   2.605   4.463   1.979  0.6490 -2.0198 -1.8971
 1221SOL    MW4 4652   2.668   4.427   2.027  0.2900 -0.2960  0.0352
 1222SOL     OW 4653   6.376   5.446   1.606  0.3892 -0.3535  0.3419
 1222SOL    HW2 4654   6.343   5.356   1.613 -1.0376  0.0190 -0.8938
 1222SOL    HW3 4655   6.310   5.490   1.552  1.5628  1.1904  0.1314
 1222SOL    MW4 4656   6.363   5.440   1.600  0.3558 -0.1007  0.1511
 1223SOL     OW 4657   5.942   1.012   1.535 -0.3429  0.0975  0.1412
 1223SOL    HW2 4658   5.887   0.937   1.510  0.5632 -1.3136  2.0799
 1223SOL    HW3 4659   5.962   1.056   1.453 -2.7088 -0.5048 -0.8235
 1223SOL    MW4 4660   5.938   1.008   1.521 -0.5355 -0.1682  0.2697
 1224SOL     OW 4661   5.792   1.431   2.737  0.3003 -0.2631 -0.0529
 1224SOL    HW2 4662   5.873   1.420   2.687  0.0404  0.6894 -0.7134
 1224SOL    HW3 4663   5.816   1.487   2.810 -0.0872  1.4904 -1.1997
 1224SOL    MW4 4664   5.806   1.436   2.740  0.2149  0.0939 -0.2914
 1225SOL     OW 4665   2.039   0.947   1.934 -0.0356  0.7304  0.2803
 1225SOL    HW2 4666   2.116   0.961   1.880  0.1246 -0.4672  0.1740
 1225SOL    HW3 4667   1.993   0.875   1.892 -1.9151  2.2346 -0.3823
 1225SOL    MW4 4668   2.043   0.940   1.922 -0.2624  0.7709  0.1789
 1226SOL     OW 4669   4.983   5.406   1.057  0.3847  0.7494 -0.6752
 1226SOL    HW2 4670   5.006   5.378   1.146 -1.1718  2.4247  0.3407
 1226SOL    HW3 4671   4.941   5.329   1.018  2.3496 -0.4644 -0.5124
 1226SOL    MW4 4672   4.980   5.392   1.064  0.4386  0.8103 -0.5197
 1227SOL     OW 4673   0.929   3.040   4.923  0.5422  0.3675  0.3914
 1227SOL    HW2 4674   0.894   3.108   4.980 -0.5700  0.3974 -0.3003
 1227SOL    HW3 4675   0.975   3.087   4.854  0.8976  0.3718  0.6314
 1227SOL    MW4 4676   0.931   3.055   4.921  0.4423  0.3720  0.3318
 1228SOL     OW 4677   2.735   0.874   5.324 -0.3202 -0.6144 -0.3279
 1228SOL    HW2 4678   2.686   0.917   5.395 -0.4398 -0.8541 -0.2632
 1228SOL    HW3 4679   2.813   0.928   5.312  0.2377 -1.1585  0.7142
 1228SOL    MW4 4680   2.739   0.887   5.332 -0.2624 -0.7178 -0.1819
 1229SOL     OW 4681   0.500   3.541   0.113 -0.5070 -0.3044 -0.0144
 1229SOL    HW2 4682   0.561   3.478   0.074 -1.2676 -2.4338  2.0105
 1229SOL    HW3 4683   0.417   3.494   0.117 -1.0762  0.7808  1.7103
 1229SOL    MW4 4684   0.497   3.526   0.108 -0.6824 -0.4422  0.4803
 1230SOL     OW 4685   2.098   2.582   3.154 -0.3720 -0.0356 -0.5772
 1230SOL    HW2 4686   2.129   2.515   3.214 -0.4479 -1.2199 -1.8027
 1230SOL    HW3 4687   2.082   2.535   3.072 -0.0088  1.5598 -1.6119
 1230SOL    MW4 4688   2.100   2.567   3.151 -0.3341  0.0186 -0.8754
 1231SOL     OW 4689   1.486   2.950   4.355 -0.4934 -0.0341 -0.0721
 1231SOL    HW2 4690   1.530   2.902   4.425 -0.5266 -2.0449 -1.3539
 1231SOL    HW3 4691   1.553   3.011   4.322  0.7514 -1.6737 -0.7023
 1231SOL    MW4 4692   1.501   2.952   4.360 -0.3335 -0.5157 -0.3244
 1232SOL     OW 4693   4.160   5.407   6.304 -0.2407  0.3591 -0.7423
 1232SOL    HW2 4694   4.172   5.405   6.209 -1.0531  1.3481 -0.8839
 1232SOL    HW3 4695   4.247   5.426   6.339  0.5106 -2.0758 -1.1420
 1232SOL    MW4 4696   4.173   5.409   6.296 -0.2488  0.1683 -0.8137
 1233SOL     OW 4697   0.623   1.315   3.302 -0.1623  0.4869  0.3619
 1233SOL    HW2 4698   0.589   1.228   3.279 -2.2148  1.9563 -2.7738
 1233SOL    HW3 4699   0.573   1.340   3.379 -0.4718 -0.5530  0.5229
 1233SOL    MW4 4700   0.612   1.307   3.309 -0.4740  0.5436 -0.0306
 1234SOL     OW 4701   4.341   0.072   2.191  0.2994  0.3884 -0.8161
 1234SOL    HW2 4702   4.419   0.122   2.165  0.8869  1.0244  1.9180
 1234SOL    HW3 4703   4.368   0.023   2.268 -2.1092  1.0109  0.5298
 1234SOL    MW4 4704   4.355   0.073   2.197  0.0591  0.5544 -0.2778
 1235SOL     OW 4705   2.557   5.409   3.155  0.1016 -0.2011 -0.0549
 1235SOL    HW2 4706   2.473   5.450   3.174 -1.6683 -3.7115  0.4879
 1235SOL    HW3 4707   2.594   5.460   3.084 -1.9032  2.1729  0.4878
 1235SOL    MW4 4708   2.551   5.421   3.148 -0.3964 -0.3510  0.0883
 1236SOL     OW 4709   2.737   5.995   1.312  0.2583  0.3733  0.1932
 1236SOL    HW2 4710   2.770   5.971   1.226 -2.5291 -1.1120 -0.5935
 1236SOL    HW3 4711   2.782   5.935   1.372 -0.1629 -0.8701 -0.6784
 1236SOL    MW4 4712   2.747   5.984   1.309 -0.1650  0.0133 -0.0256
 1237SOL     OW 4713   2.084   0.937   0.007 -0.5539  0.0547 -0.1782
 1237SOL    HW2 4714   2.150   0.906  -0.054  0.1307  2.9457 -1.0738
 1237SOL    HW3 4715   2.134   0.977   0.078 -1.2133  2.2664 -0.8601
 1237SOL    MW4 4716   2.099   0.939   0.008 -0.5506  0.7279 -0.3863
 1238SOL     OW 4717   1.044   2.429   2.250  0.2105 -0.1981  0.2554
 1238SOL    HW2 4718   0.991   2.350   2.258  0.0799 -0.1452 -0.0449
 1238SOL    HW3 4719   1.074   2.428   2.158  1.1389 -0.4869  0.5462
 1238SOL    MW4 4720   1.041   2.418   2.239  0.3158 -0.2292  0.2541
 1239SOL     OW 4721   0.708   0.075   4.380 -0.3228  0.1182 -0.1450
 1239SOL    HW2 4722   0.788   0.026   4.359 -0.8030 -0.2992 -1.0319
 1239SOL    HW3 4723   0.663   0.021   4.445 -1.2804 -1.0848 -1.7646
 1239SOL    MW4 4724   0.713   0.062   4.386 -0.5125 -0.0956 -0.4757
 1240SOL     OW 4725   5.611   1.366   0.018  0.5999 -0.0247 -0.3151
 1240SOL    HW2 4726   5.541   1.423  -0.014 -0.8987 -0.8603  1.2824
 1240SOL    HW3 4727   5.690   1.419   0.015 -0.3472  1.3979 -0.9131
 1240SOL    MW4 4728   5.612   1.380   0.013  0.2772  0.0528 -0.1832
 1241SOL     OW 4729   5.942   1.118   4.196  0.6639 -0.4166  0.4593
 1241SOL    HW2 4730   6.032   1.143   4.173  0.4039  0.0771 -0.0449
 1241SOL    HW3 4731   5.949   1.083   4.284  1.0634  1.4509  1.2239
 1241SOL    MW4 4732   5.955   1.117   4.204  0.6823 -0.1051  0.4937
 1242SOL     OW 4733   4.361   2.874   4.875  0.5971  0.1885  0.2976
 1242SOL    HW2 4734   4.276   2.857   4.915 -0.0804 -0.3068 -1.2799
 1242SOL    HW3 4735   4.398   2.945   4.928 -1.2703  1.1867  0.3554
 1242SOL    MW4 4736   4.355   2.881   4.888  0.2613  0.2548  0.0971
 1243SOL     OW 4737   5.781   2.037   2.682 -0.3957 -1.0036 -0.7002
 1243SOL    HW2 4738   5.805   2.128   2.666  0.7027 -1.3454 -1.0579
 1243SOL    HW3 4739   5.813   2.019   2.770 -1.3049 -0.8259 -0.3234
 1243SOL    MW4 4740   5.789   2.046   2.691 -0.3707 -1.0252 -0.6977
 1244SOL     OW 4741   2.278   2.614   0.217  0.2361  0.5131  0.0429
 1244SOL    HW2 4742   2.260   2.524   0.188  1.8871 -0.0107  0.5521
 1244SOL    HW3 4743   2.214   2.629   0.287  1.6948 -1.3366  1.9156
 1244SOL    MW4 4744   2.267   2.604   0.222  0.6464  0.1999  0.3572
 1245SOL     OW 4745   1.187   3.206   1.468 -0.6768  0.0102 -0.2841
 1245SOL    HW2 4746   1.160   3.256   1.391  1.1174 -0.7256 -1.4751
 1245SOL    HW3 4747   1.147   3.252   1.542 -2.1170  0.9898 -1.6027
 1245SOL    MW4 4748   1.178   3.219   1.467 -0.6301  0.0424 -0.6152
 1246SOL     OW 4749   1.747   6.007   3.330 -0.0606 -0.3626  0.7618
 1246SOL    HW2 4750   1.796   6.063   3.390  0.1080 -1.0928  1.3129
 1246SOL    HW3 4751   1.738   6.060   3.250  0.5396  0.2464  1.0878
 1246SOL    MW4 4752   1.752   6.022   3.327  0.0408 -0.3786  0.8775
 1247SOL     OW 4753   3.702   1.618   5.085 -0.5657  0.3000 -0.1887
 1247SOL    HW2 4754   3.725   1.697   5.036  1.2520 -0.5257 -0.7511
 1247SOL    HW3 4755   3.639   1.572   5.030  0.1839  0.2099 -0.9865
 1247SOL    MW4 4756   3.696   1.622   5.071 -0.2270  0.1792 -0.3681
 1248SOL     OW 4757   1.400   2.199   4.023  0.6380 -0.5253  0.2625
 1248SOL    HW2 4758   1.321   2.145   4.015 -0.6763  1.2019  1.1112
 1248SOL    HW3 4759   1.395   2.261   3.950  1.7948 -1.0641 -0.3079
 1248SOL    MW4 4760   1.389   2.200   4.012  0.6172 -0.3685  0.2992
 1249SOL     OW 4761   2.000   0.318   4.586 -0.2462  0.0209 -0.0348
 1249SOL    HW2 4762   1.959   0.403   4.569  1.8695  1.3232  0.8512
 1249SOL    HW3 4763   2.050   0.331   4.667 -0.9037 -2.5055  0.8753
 1249SOL    MW4 4764   2.001   0.331   4.594 -0.0538 -0.1406  0.2022
 1250SOL     OW 4765   4.813   0.508   2.376 -0.9197 -0.3700 -0.2416
 1250SOL    HW2 4766   4.788   0.547   2.292 -0.2960 -0.4808 -0.4925
 1250SOL    HW3 4767   4.750   0.438   2.390 -1.1792 -0.1918 -0.4956
 1250SOL    MW4 4768   4.802   0.504   2.366 -0.8716 -0.3611 -0.3082
 1251SOL     OW 4769   3.496   0.252   4.390  0.1398  0.0054  0.0025
 1251SOL    HW2 4770   3.403   0.233   4.401  0.0930  0.6679  0.8531
 1251SOL    HW3 4771   3.528   0.182   4.334 -0.6987 -0.7094  0.3906
 1251SOL    MW4 4772   3.488   0.240   4.384  0.0230 -0.0015  0.1659
 1252SOL     OW 4773   4.572   5.601   3.367 -0.4289 -0.1882  0.7008
 1252SOL    HW2 4774   4.633   5.537   3.403  1.1703  0.2867 -1.0341
 1252SOL    HW3 4775   4.564   5.667   3.436  0.5012 -0.5927  1.2217
 1252SOL    MW4 4776   4.579   5.601   3.381 -0.0952 -0.1789  0.5406
 1253SOL     OW 4777   5.311   4.459   2.285 -1.0232 -0.1646  0.3335
 1253SOL    HW2 4778   5.269   4.457   2.370  1.0122  0.8456  1.4365
 1253SOL    HW3 4779   5.291   4.546   2.250  0.0673  0.3386  0.8829
 1253SOL    MW4 4780   5.303   4.470   2.291 -0.6108  0.0351  0.5515
 1254SOL     OW 4781   0.622   5.600   4.976  0.2967 -0.1647 -0.0889
 1254SOL    HW2 4782   0.598   5.636   5.061  1.1886 -0.8489  0.4690
 1254SOL    HW3 4783   0.603   5.671   4.914 -1.1080  0.0623  0.5629
 1254SOL    MW4 4784   0.616   5.614   4.979  0.2291 -0.2250  0.0707
 1255SOL     OW 4785   2.773   6.012   3.091  0.6350 -0.1642  0.0591
 1255SOL    HW2 4786   2.689   5.969   3.076  0.4564  0.7291 -1.6834
 1255SOL    HW3 4787   2.830   5.978   3.022  1.3533  0.1858  0.4633
 1255SOL    MW4 4788   2.769   6.002   3.080  0.7062 -0.0002 -0.1174
 1256SOL     OW 4789   2.820   3.342   4.374 -0.3960 -0.2600 -0.1669
 1256SOL    HW2 4790   2.822   3.317   4.467  1.0217  2.3159  0.5954
 1256SOL    HW3 4791   2.729   3.362   4.356 -0.5657 -0.0376  0.8906
 1256SOL    MW4 4792   2.808   3.341   4.384 -0.2313  0.1092  0.0732
 1257SOL     OW 4793   0.127   0.991   1.217  0.2531  0.0333 -0.0319
 1257SOL    HW2 4794   0.113   0.916   1.276  0.7830  0.2734  0.3990
 1257SOL    HW3 4795   0.040   1.008   1.181  0.2098 -1.1061 -0.5158
 1257SOL    MW4 4796   0.114   0.983   1.220  0.3173 -0.0854 -0.0389
 1258SOL     OW 4797   1.458   2.398   3.497  0.1944  0.1922 -0.1281
 1258SOL    HW2 4798   1.462   2.330   3.564 -1.2166 -0.1755 -0.3905
 1258SOL    HW3 4799   1.369   2.393   3.463  0.6161  0.9694 -1.4136
 1258SOL    MW4 4800   1.447   2.388   3.501  0.0639  0.2462 -0.3323
 1259SOL     OW 4801   2.102   0.803   0.875  0.4058 -0.3585 -0.2196
 1259SOL    HW2 4802   2.052   0.782   0.955 -0.4698 -0.4327 -0.7728
 1259SOL    HW3 4803   2.185   0.839   0.908 -0.8224  1.7806  0.7824
 1259SOL    MW4 4804   2.106   0.805   0.890  0.1282 -0.0860 -0.1604
 1260SOL     OW 4805   2.831   2.361   5.479  0.4326 -0.1237 -0.2327
 1260SOL    HW2 4806   2.810   2.269   5.488  0.6711 -0.1097  0.5613
 1260SOL    HW3 4807   2.924   2.367   5.502  0.4861  0.2704 -0.5363
 1260SOL    MW4 4808   2.841   2.350   5.483  0.4711 -0.0699 -0.1680
 1261SOL     OW 4809   1.067   5.547   4.171  0.4419 -0.2707 -0.0598
 1261SOL    HW2 4810   1.122   5.474   4.145  1.4011 -0.0199  1.1708
 1261SOL    HW3 4811   1.102   5.575   4.256 -1.0810  0.4170  0.3798
 1261SOL    MW4 4812   1.079   5.541   4.179  0.3676 -0.1469  0.1605
 1262SOL     OW 4813   2.070   5.928   2.758  0.4708 -0.3856  0.0818
 1262SOL    HW2 4814   2.102   5.886   2.837 -1.3934  0.1082  1.1716
 1262SOL    HW3 4815   2.020   5.860   2.713 -0.9314  0.0858  0.8668
 1262SOL    MW4 4816   2.068   5.914   2.762  0.0399 -0.2582  0.3292
 1263SOL     OW 4817   4.666   4.197   0.640  0.5429  0.7755  0.8002
 1263SOL    HW2 4818   4.626   4.180   0.726 -2.4462 -3.3876 -1.0930
 1263SOL    HW3 4819   4.632   4.283   0.615 -0.9583  0.7738  2.5909
 1263SOL    MW4 4820   4.656   4.206   0.648 -0.0495  0.2260  0.7866
 1264SOL     OW 4821   1.732   1.539   5.477 -0.1552  0.0096  0.6365
 1264SOL    HW2 4822   1.651   1.555   5.526 -0.1305  1.9748  0.1254
 1264SOL    HW3 4823   1.773   1.625   5.469  1.2513 -0.7057 -0.4053
 1264SOL    MW4 4824   1.727   1.553   5.482  0.0336  0.1745  0.4316
 1265SOL     OW 4825   2.934   2.245   1.967  0.6550  0.1206  0.1086
 1265SOL    HW2 4826   2.965   2.332   1.992 -1.0087  0.4117  1.2928
 1265SOL    HW3 4827   2.844   2.240   2.000 -0.7561 -0.5656 -3.4073
 1265SOL    MW4 4828   2.926   2.255   1.975  0.2494  0.0685 -0.1990
 1266SOL     OW 4829   5.808   3.216   6.224  0.2687  0.0773  0.0992
 1266SOL    HW2 4830   5.881   3.174   6.178 -0.8130 -1.4046 -0.3423
 1266SOL    HW3 4831   5.820   3.191   6.315  0.8948  0.7151  0.1915
 1266SOL    MW4 4832   5.819   3.207   6.230  0.2086 -0.0341  0.0531
 1267SOL     OW 4833   3.113   5.507   3.008 -0.1196  0.6548  0.4414
 1267SOL    HW2 4834   3.092   5.418   3.036  1.4133  0.4636  1.0867
 1267SOL    HW3 4835   3.061   5.520   2.929 -1.8703 -0.0793  1.4187
 1267SOL    MW4 4836   3.103   5.497   3.001 -0.1483  0.5327  0.6555
 1268SOL     OW 4837   5.415   5.252   0.994  0.4047  0.1797 -0.0953
 1268SOL    HW2 4838   5.488   5.266   0.935 -1.2219 -0.6430 -2.4283
 1268SOL    HW3 4839   5.357   5.327   0.980 -0.3260 -0.3604 -0.0699
 1268SOL    MW4 4840   5.417   5.264   0.985  0.0937 -0.0001 -0.3998
 1269SOL     OW 4841   6.237   2.191   3.750  0.2491 -0.2321 -0.8790
 1269SOL    HW2 4842   6.154   2.227   3.717  0.0650 -0.0368 -0.2326
 1269SOL    HW3 4843   6.258   2.247   3.825  0.7496 -0.5424 -0.7862
 1269SOL    MW4 4844   6.229   2.203   3.756  0.2908 -0.2472 -0.7815
 1270SOL     OW 4845   0.997   2.782   3.900 -0.2565 -0.0074 -0.2395
 1270SOL    HW2 4846   1.058   2.743   3.963 -1.4847  4.4630  4.4224
 1270SOL    HW3 4847   0.918   2.729   3.907 -0.2081  0.0877  1.8806
 1270SOL    MW4 4848   0.995   2.770   3.909 -0.4121  0.5950  0.6553
 1271SOL     OW 4849   2.484   1.788   2.127 -0.4041 -0.1409  0.2947
 1271SOL    HW2 4850   2.570   1.825   2.105 -0.2578  0.0472  1.1331
 1271SOL    HW3 4851   2.430   1.804   2.050  0.6753 -1.4573 -0.8087
 1271SOL    MW4 4852   2.488   1.795   2.114 -0.2424 -0.2897  0.2597
 1272SOL     OW 4853   0.330   4.736   0.359 -0.7894  0.2632  0.2694
 1272SOL    HW2 4854   0.391   4.665   0.379  1.5607  2.4148  1.3897
 1272SOL    HW3 4855   0.247   4.707   0.396  0.2864 -1.5567  1.4099
 1272SOL    MW4 4856   0.327   4.723   0.367 -0.3374  0.3070  0.5677
 1273SOL     OW 4857   2.026   6.367   4.774  0.3834  0.1413  0.7785
 1273SOL    HW2 4858   2.069   6.365   4.688  2.0346  1.4410  1.5185
 1273SOL    HW3 4859   1.961   6.437   4.766  0.9370  0.6580  0.7532
 1273SOL    MW4 4860   2.023   6.376   4.761  0.6743  0.3810  0.8728
 1274SOL     OW 4861   4.933   4.264   3.688  0.0329 -0.1301  0.1536
 1274SOL    HW2 4862   5.003   4.320   3.654  1.4521 -2.2329 -0.6023
 1274SOL    HW3 4863   4.884   4.236   3.611  0.8866 -1.8589  0.1920
 1274SOL    MW4 4864   4.936   4.268   3.674  0.3328 -0.6356  0.0589
 1275SOL     OW 4865   1.059   5.400   0.337 -0.0172 -0.2845 -0.5230
 1275SOL    HW2 4866   1.000   5.434   0.405 -0.0106  0.5370 -0.9195
 1275SOL    HW3 4867   1.037   5.307   0.332  1.4335 -0.8588  2.0786
 1275SOL    MW4 4868   1.048   5.392   0.345  0.1751 -0.2519 -0.2321
 1276SOL     OW 4869   1.110   2.890   5.036  0.2372  0.1111  0.1136
 1276SOL    HW2 4870   1.040   2.947   5.003  0.1783  0.1021  0.2211
 1276SOL    HW3 4871   1.112   2.816   4.976  0.1967  0.1430  0.0735
 1276SOL    MW4 4872   1.101   2.888   5.024  0.2241  0.1141  0.1225
 1277SOL     OW 4873   1.141   5.083   4.050  0.3470  0.5490  0.4438
 1277SOL    HW2 4874   1.056   5.101   4.090  0.3018  1.3817 -0.0073
 1277SOL    HW3 4875   1.127   5.098   3.957  0.9494  0.5437  0.3518
 1277SOL    MW4 4876   1.128   5.087   4.043  0.4205  0.6581  0.3722
 1278SOL     OW 4877   5.487   3.645   5.737  0.7073  0.4202 -0.0547
 1278SOL    HW2 4878   5.574   3.616   5.709  0.8161  0.5820  0.1073
 1278SOL    HW3 4879   5.468   3.593   5.816  1.3697  1.5233  0.8691
 1278SOL    MW4 4880   5.496   3.635   5.744  0.8091  0.5871  0.0886
 1279SOL     OW 4881   3.429   0.723   3.349  0.2148 -0.4073  0.3204
 1279SOL    HW2 4882   3.474   0.781   3.410  0.7803  0.4040 -0.8310
 1279SOL    HW3 4883   3.395   0.781   3.282 -1.4482 -1.1567  0.4754
 1279SOL    MW4 4884   3.431   0.738   3.348  0.0700 -0.3991  0.1889
 1280SOL     OW 4885   2.659   4.748   4.654 -0.0802  0.1317 -0.0705
 1280SOL    HW2 4886   2.707   4.831   4.665 -1.3923  0.8348  0.6704
 1280SOL    HW3 4887   2.685   4.696   4.730 -0.5160  0.5453  0.3765
 1280SOL    MW4 4888   2.669   4.752   4.666 -0.3108  0.2791  0.0862
 1281SOL     OW 4889   1.148   2.798   5.304 -0.0539  0.0041  0.1997
 1281SOL    HW2 4890   1.242   2.779   5.299 -0.5294 -2.5791 -0.4108
 1281SOL    HW3 4891   1.126   2.838   5.220  0.3594 -0.1480  0.0189
 1281SOL    MW4 4892   1.157   2.801   5.293 -0.0621 -0.3568  0.0953
 1282SOL     OW 4893   4.535   4.449   0.589 -0.4137  0.1238 -0.4646
 1282SOL    HW2 4894   4.444   4.417   0.594 -0.4695  0.2809 -0.4836
 1282SOL    HW3 4895   4.532   4.521   0.526 -0.2804  0.1463 -0.4450
 1282SOL    MW4 4896   4.522   4.454   0.582 -0.4035  0.1475 -0.4645
 1283SOL     OW 4897   4.224   5.961   3.093  0.9891 -0.1621  0.2250
 1283SOL    HW2 4898   4.289   6.029   3.112  2.7521 -0.3995 -3.7758
 1283SOL    HW3 4899   4.188   5.987   3.008 -0.2984 -2.8188 -0.1245
 1283SOL    MW4 4900   4.228   5.974   3.084  1.0518 -0.5440 -0.3490
 1284SOL     OW 4901   2.107   1.212   0.613 -0.3362  0.3724  0.2342
 1284SOL    HW2 4902   2.041   1.144   0.599 -0.5720  0.8925 -1.4299
 1284SOL    HW3 4903   2.058   1.294   0.608  0.0542  0.6960  1.5295
 1284SOL    MW4 4904   2.092   1.214   0.610 -0.3158  0.4837  0.1856
 1285SOL     OW 4905   5.250   2.253   2.300 -0.1517 -0.1780  0.0081
 1285SOL    HW2 4906   5.183   2.321   2.307 -0.5494 -0.3634 -1.4928
 1285SOL    HW3 4907   5.203   2.171   2.317 -0.4789 -0.3613 -1.6022
 1285SOL    MW4 4908   5.235   2.251   2.303 -0.2474 -0.2266 -0.4024
 1286SOL     OW 4909   4.971   5.980   5.154  0.0567 -0.3461 -0.6375
 1286SOL    HW2 4910   4.990   6.067   5.189  0.8308 -0.2328 -1.3105
 1286SOL    HW3 4911   4.899   5.994   5.092 -0.1377 -0.2623 -0.3918
 1286SOL    MW4 4912   4.964   5.994   5.150  0.1332 -0.3201 -0.6939
 1287SOL     OW 4913   6.236   2.821   4.654  0.2097 -0.4408  0.0603
 1287SOL    HW2 4914   6.310   2.865   4.611 -0.2662 -0.7155 -1.0807
 1287SOL    HW3 4915   6.265   2.731   4.666  0.1145 -0.5167 -0.2682
 1287SOL    MW4 4916   6.250   2.815   4.650  0.1344 -0.4871 -0.1336
 1288SOL     OW 4917   5.512   2.682   0.465  0.2057  0.7593  0.6536
 1288SOL    HW2 4918   5.438   2.629   0.435  2.0178 -1.3656 -0.3067
 1288SOL    HW3 4919   5.488   2.772   0.442 -1.6710  0.0248 -0.4774
 1288SOL    MW4 4920   5.499   2.687   0.458  0.1972  0.3820  0.3777
 1289SOL     OW 4921   2.577   3.713   3.833 -0.6372 -0.7400  0.0429
 1289SOL    HW2 4922   2.629   3.653   3.887  0.8096  0.8481  0.4920
 1289SOL    HW3 4923   2.518   3.756   3.894 -0.1078 -0.0964  0.1094
 1289SOL    MW4 4924   2.576   3.710   3.848 -0.3765 -0.4456  0.1110
 1290SOL     OW 4925   2.859   2.893   6.120 -0.4366  0.1849  0.3311
 1290SOL    HW2 4926   2.785   2.950   6.103  1.0711  1.6485 -1.9309
 1290SOL    HW3 4927   2.848   2.819   6.060  0.5187  1.0706 -1.0084
 1290SOL    MW4 4928   2.848   2.890   6.110 -0.1116  0.4949 -0.1441
 1291SOL     OW 4929   4.639   4.325   6.317 -0.6344  0.0008  0.2726
 1291SOL    HW2 4930   4.645   4.347   6.224  2.8969 -1.7166 -0.0887
 1291SOL    HW3 4931   4.578   4.251   6.320 -2.0219  1.0883 -0.4081
 1291SOL    MW4 4932   4.632   4.318   6.305 -0.3516 -0.0823  0.1351
 1292SOL     OW 4933   6.263   0.781   0.984  0.1176 -0.3633 -0.0976
 1292SOL    HW2 4934   6.221   0.706   0.942 -1.7088 -0.4242  1.6703
 1292SOL    HW3 4935   6.353   0.780   0.951  0.2279 -3.4593  0.0350
 1292SOL    MW4 4936   6.269   0.771   0.974 -0.1088 -0.7798  0.1532
 1293SOL     OW 4937   3.383   6.333   0.691  0.1121 -0.0619  0.4306
 1293SOL    HW2 4938   3.315   6.378   0.642  0.3966 -0.1616 -0.0733
 1293SOL    HW3 4939   3.456   6.395   0.693  0.1126 -0.0706  0.7074
 1293SOL    MW4 4940   3.384   6.347   0.685  0.1497 -0.0762  0.4006
 1294SOL     OW 4941   2.357   1.868   5.806 -0.3322 -0.1745  0.2921
 1294SOL    HW2 4942   2.366   1.867   5.901 -0.9664  0.5125  0.3747
 1294SOL    HW3 4943   2.431   1.817   5.774 -1.0694 -1.8881  1.2169
 1294SOL    MW4 4944   2.368   1.861   5.814 -0.5132 -0.3100  0.4250
 1295SOL     OW 4945   1.656   2.847   4.604  0.3919  0.0458 -0.2798
 1295SOL    HW2 4946   1.622   2.811   4.686  0.6619  1.6929  0.6167
 1295SOL    HW3 4947   1.709   2.777   4.567 -1.2125 -1.3747  0.0034
 1295SOL    MW4 4948   1.659   2.833   4.610  0.2159  0.0757 -0.1242
 1296SOL     OW 4949   1.787   6.310   5.202  0.0407  0.0724  0.4095
 1296SOL    HW2 4950   1.876   6.292   5.172 -0.7525 -1.6375 -1.0994
 1296SOL    HW3 4951   1.736   6.320   5.122 -1.3462 -0.2012  1.2278
 1296SOL    MW4 4952   1.792   6.309   5.188 -0.2469 -0.1893  0.3184
 1297SOL     OW 4953   3.937   5.890   4.388  0.0096 -0.2429  0.1802
 1297SOL    HW2 4954   3.994   5.956   4.426 -0.1667  0.2289 -0.3549
 1297SOL    HW3 4955   3.983   5.807   4.404 -1.1270 -0.3841  3.4547
 1297SOL    MW4 4956   3.951   5.888   4.395 -0.1636 -0.1993  0.5416
 1298SOL     OW 4957   2.835   2.530   4.255  0.2645 -0.2498  0.2176
 1298SOL    HW2 4958   2.910   2.541   4.197 -1.0443  1.2320 -1.3039
 1298SOL    HW3 4959   2.761   2.515   4.196 -0.7799 -0.8512  1.6202
 1298SOL    MW4 4960   2.835   2.530   4.239 -0.0460 -0.1336  0.2019
 1299SOL     OW 4961   6.144   5.307   3.071 -0.1967 -0.0100 -0.1643
 1299SOL    HW2 4962   6.089   5.253   3.128 -1.2678  1.9233  0.7372
 1299SOL    HW3 4963   6.166   5.250   2.997 -1.2069 -1.6709  0.7580
 1299SOL    MW4 4964   6.140   5.292   3.069 -0.4713  0.0259  0.0763
 1300SOL     OW 4965   0.701   4.277   3.952 -0.2744  0.3345 -0.4306
 1300SOL    HW2 4966   0.783   4.285   4.001  0.9551 -0.1580 -2.2928
 1300SOL    HW3 4967   0.687   4.182   3.944  0.0874  0.3616 -1.7818
 1300SOL    MW4 4968   0.710   4.265   3.957 -0.0645  0.2731 -0.8546
 1301SOL     OW 4969   4.473   2.208   3.895  0.4133  0.1266 -0.1917
 1301SOL    HW2 4970   4.540   2.152   3.934  1.6730  1.6422 -0.0993
 1301SOL    HW3 4971   4.420   2.238   3.969  0.2961 -0.1925 -0.1426
 1301SOL    MW4 4972   4.475   2.205   3.910  0.5640  0.2845 -0.1731
 1302SOL     OW 4973   6.009   0.548   6.078  0.0580  0.0287 -0.0517
 1302SOL    HW2 4974   6.052   0.481   6.131  0.9401  0.2049 -0.5301
 1302SOL    HW3 4975   6.080   0.592   6.032 -0.3979  1.9174  0.9367
 1302SOL    MW4 4976   6.024   0.545   6.079  0.1142  0.3011  0.0156
 1303SOL     OW 4977   5.867   5.304   6.052 -0.4102 -0.1687  0.0277
 1303SOL    HW2 4978   5.865   5.235   6.119 -0.9079  0.3006  0.5097
 1303SOL    HW3 4979   5.954   5.343   6.061 -0.3813 -0.2773  0.2283
 1303SOL    MW4 4980   5.878   5.300   6.062 -0.4721 -0.1211  0.1177
 1304SOL     OW 4981   3.618   4.681   4.103 -0.3530 -0.0753  0.1884
 1304SOL    HW2 4982   3.673   4.732   4.163 -2.0548  1.5961  0.4044
 1304SOL    HW3 4983   3.624   4.728   4.020 -1.4155  0.0893  0.2016
 1304SOL    MW4 4984   3.626   4.694   4.100 -0.7177  0.1669  0.2186
 1305SOL     OW 4985   0.216   4.354   1.222  0.0693 -0.0562  0.0552
 1305SOL    HW2 4986   0.149   4.296   1.185  1.3056 -1.3219 -0.3287
 1305SOL    HW3 4987   0.230   4.420   1.154 -0.8082  0.2464  0.1577
 1305SOL    MW4 4988   0.209   4.355   1.208  0.1167 -0.1833  0.0181
 1306SOL     OW 4989   0.225   4.090   5.119  0.4440 -0.3690  0.4086
 1306SOL    HW2 4990   0.281   4.137   5.057 -0.8376  1.3705  0.4843
 1306SOL    HW3 4991   0.167   4.037   5.064 -0.6360  1.1066  0.0576
 1306SOL    MW4 4992   0.225   4.089   5.104  0.1324  0.0552  0.3723
 1307SOL     OW 4993   5.852   0.606   4.499 -0.5480  0.1644  0.1607
 1307SOL    HW2 4994   5.857   0.539   4.430 -0.5711  1.8978 -1.6174
 1307SOL    HW3 4995   5.764   0.643   4.490 -0.4593  0.5862  0.9827
 1307SOL    MW4 4996   5.841   0.602   4.488 -0.5393  0.4487  0.0345
 1308SOL     OW 4997   1.542   2.440   1.449 -0.0335  0.2921 -0.3578
 1308SOL    HW2 4998   1.546   2.360   1.501 -3.2683 -0.9928 -1.7749
 1308SOL    HW3 4999   1.503   2.505   1.507 -0.9450 -0.3056 -0.2739
 1308SOL    MW4 5000   1.537   2.438   1.463 -0.5806  0.0437 -0.5337
 1309SOL     OW 5001   4.721   5.018   5.286 -0.0536 -0.0169  0.3399
 1309SOL    HW2 5002   4.803   4.982   5.250  0.0573 -0.2522  0.8113
 1309SOL    HW3 5003   4.741   5.032   5.379  0.2307  2.2579 -0.0228
 1309SOL    MW4 5004   4.735   5.015   5.294 -0.0015  0.2522  0.3543
 1310SOL     OW 5005   1.882   0.421   6.419  0.3072  0.0764 -0.8038
 1310SOL    HW2 5006   1.803   0.470   6.444  0.5248  0.4157 -0.7599
 1310SOL    HW3 5007   1.928   0.408   6.502 -0.0163 -0.6890 -0.7418
 1310SOL    MW4 5008   1.877   0.426   6.433  0.2933  0.0202 -0.7898
 1311SOL     OW 5009   0.131   5.881   2.871  0.2191 -0.2610 -0.7734
 1311SOL    HW2 5010   0.049   5.929   2.862 -1.0746 -1.4206  3.0694
 1311SOL    HW3 5011   0.199   5.946   2.855 -1.4539  1.9677  0.6713
 1311SOL    MW4 5012   0.129   5.896   2.868 -0.1723 -0.1199 -0.0758
 1312SOL     OW 5013   3.075   5.920   1.063 -0.0132 -0.4696 -0.0792
 1312SOL    HW2 5014   3.098   5.923   1.155 -1.3519  2.4144  0.2855
 1312SOL    HW3 5015   3.142   5.974   1.020 -1.3834  1.2363 -0.1822
 1312SOL    MW4 5016   3.087   5.928   1.069 -0.3706  0.1360 -0.0447
 1313SOL     OW 5017   0.085   2.256   3.331 -0.0519  0.2731 -0.0881
 1313SOL    HW2 5018   0.100   2.327   3.394  0.8340  0.0377 -0.0217
 1313SOL    HW3 5019   0.108   2.294   3.246  3.2737 -0.6925  0.2190
 1313SOL    MW4 5020   0.090   2.270   3.328  0.5037  0.1147 -0.0388
 1314SOL     OW 5021   5.494   1.533   5.313 -0.0151 -0.0015 -0.0724
 1314SOL    HW2 5022   5.433   1.576   5.373 -0.6470  0.4101 -0.9925
 1314SOL    HW3 5023   5.440   1.507   5.239  0.9075  0.2561 -0.8544
 1314SOL    MW4 5024   5.479   1.535   5.312  0.0233  0.0868 -0.2970
 1315SOL     OW 5025   4.554   5.229   0.162 -0.4173  0.5014  0.3625
 1315SOL    HW2 5026   4.540   5.138   0.135  0.7335  0.6163 -0.6980
 1315SOL    HW3 5027   4.485   5.245   0.226 -1.9905 -0.4468 -0.9988
 1315SOL    MW4 5028   4.543   5.219   0.167 -0.4731  0.3915  0.0429
 1316SOL     OW 5029   0.120   5.458   5.676 -0.6539 -0.1905  0.8536
 1316SOL    HW2 5030   0.215   5.462   5.686 -0.4643 -1.7186 -0.0669
 1316SOL    HW3 5031   0.086   5.475   5.764  0.4873 -0.1961  1.3077
 1316SOL    MW4 5032   0.128   5.461   5.689 -0.4783 -0.3928  0.7920
 1317SOL     OW 5033   4.903   6.362   0.439  0.2605 -0.5008  0.3141
 1317SOL    HW2 5034   4.958   6.291   0.471  3.8817  2.2264  0.6981
 1317SOL    HW3 5035   4.918   6.363   0.344 -1.2167 -1.2670  0.0388
 1317SOL    MW4 5036   4.912   6.353   0.431  0.5434 -0.2421  0.3284
 1318SOL     OW 5037   0.320   3.860   2.553 -0.4361  0.5356  0.5492
 1318SOL    HW2 5038   0.410   3.829   2.540  0.0220  2.0571 -0.1323
 1318SOL    HW3 5039   0.266   3.792   2.514  0.4879  0.1903 -0.1702
 1318SOL    MW4 5040   0.325   3.847   2.546 -0.2537  0.6908  0.3644
 1319SOL     OW 5041   1.333   0.825   4.302 -0.1162  0.3387 -0.6203
 1319SOL    HW2 5042   1.302   0.737   4.282 -1.4700  0.7777 -0.4981
 1319SOL    HW3 5043   1.262   0.883   4.276  0.7251  1.4046 -0.6240
 1319SOL    MW4 5044   1.320   0.821   4.296 -0.1838  0.5373 -0.6047
 1320SOL     OW 5045   5.382   0.164   3.946  0.0255  0.0244 -0.1171
 1320SOL    HW2 5046   5.396   0.085   3.894 -0.8418 -0.8240  0.8829
 1320SOL    HW3 5047   5.335   0.223   3.887  1.7647  0.3153 -1.2797
 1320SOL    MW4 5048   5.377   0.161   3.932  0.1406 -0.0491 -0.1386
 1321SOL     OW 5049   2.825   3.796   5.137 -0.8667  0.2621 -0.1431
 1321SOL    HW2 5050   2.764   3.800   5.064 -0.4073 -2.3110 -0.7381
 1321SOL    HW3 5051   2.791   3.861   5.199 -4.2863 -1.0496 -0.3989
 1321SOL    MW4 5052   2.812   3.805   5.136 -1.2573 -0.2505 -0.2553
 1322SOL     OW 5053   4.756   3.795   4.341 -0.6048  0.6004 -0.4921
 1322SOL    HW2 5054   4.797   3.766   4.260 -0.3322 -0.4813  0.0094
 1322SOL    HW3 5055   4.828   3.830   4.393 -0.1861 -1.5430  0.4957
 1322SOL    MW4 5056   4.771   3.796   4.337 -0.5136  0.1749 -0.2956
 1323SOL     OW 5057   0.348   6.226   2.279 -0.4401  0.7649 -0.1520
 1323SOL    HW2 5058   0.335   6.269   2.363 -2.4767 -0.8058  0.4130
 1323SOL    HW3 5059   0.337   6.133   2.298  0.1803  0.2824 -1.9672
 1323SOL    MW4 5060   0.345   6.219   2.292 -0.6270  0.4940 -0.3169
 1324SOL     OW 5061   3.326   1.459   5.826 -0.2313 -0.2569 -0.1007
 1324SOL    HW2 5062   3.414   1.496   5.830 -0.5852  0.8273 -1.5456
 1324SOL    HW3 5063   3.313   1.435   5.734 -0.9132 -1.7874  0.3626
 1324SOL    MW4 5064   3.336   1.461   5.815 -0.3679 -0.3158 -0.2302
 1325SOL     OW 5065   1.573   0.206   5.740 -0.0468 -0.2125  0.3004
 1325SOL    HW2 5066   1.514   0.272   5.703  0.1390  0.1555  0.6519
 1325SOL    HW3 5067   1.655   0.218   5.693 -0.4883 -1.2885 -0.7866
 1325SOL    MW4 5068   1.576   0.217   5.729 -0.0805 -0.3059  0.2034
 1326SOL     OW 5069   3.709   0.403   3.411 -0.1534 -0.0060  0.0386
 1326SOL    HW2 5070   3.695   0.467   3.481  0.5885 -0.5733  0.7359
 1326SOL    HW3 5071   3.689   0.450   3.331  1.0580  1.3275  0.4674
 1326SOL    MW4 5072   3.705   0.417   3.410  0.1043  0.0951  0.1872
 1327SOL     OW 5073   4.330   2.338   2.301  0.5218 -0.2514  0.0572
 1327SOL    HW2 5074   4.293   2.255   2.331  2.1646 -0.8351  0.5486
 1327SOL    HW3 5075   4.298   2.402   2.365  1.7578 -1.0419  1.5242
 1327SOL    MW4 5076   4.321   2.335   2.314  0.9016 -0.4327  0.3156
 1328SOL     OW 5077   1.107   5.527   1.261  0.6976 -0.0631 -0.0243
 1328SOL    HW2 5078   1.064   5.501   1.179  2.6986  0.7738 -1.4088
 1328SOL    HW3 5079   1.049   5.494   1.329 -1.1433 -0.6421 -1.7589
 1328SOL    MW4 5080   1.094   5.519   1.259  0.7188 -0.0290 -0.4358
 1329SOL     OW 5081   3.300   0.588   3.060  0.3671  0.3500  0.0050
 1329SOL    HW2 5082   3.319   0.671   3.016  1.8407 -0.5418 -1.1121
 1329SOL    HW3 5083   3.246   0.540   2.997  1.3458 -0.3879 -0.2901
 1329SOL    MW4 5084   3.295   0.593   3.046  0.6906  0.1350 -0.1814
 1330SOL     OW 5085   3.163   2.353   4.381  0.0639  0.3998 -0.1233
 1330SOL    HW2 5086   3.144   2.441   4.346 -1.8627  0.4977  1.0142
 1330SOL    HW3 5087   3.087   2.333   4.435  0.6759 -1.8231 -0.0244
 1330SOL    MW4 5088   3.150   2.362   4.383 -0.1096  0.1194  0.0399
 1331SOL     OW 5089   0.735   5.188   2.380  0.2315  0.3920 -0.3678
 1331SOL    HW2 5090   0.807   5.228   2.330  0.4716  0.9959  0.4421
 1331SOL    HW3 5091   0.696   5.261   2.427 -1.6687  0.2809 -1.6692
 1331SOL    MW4 5092   0.739   5.203   2.379  0.0125  0.4570 -0.4326
 1332SOL     OW 5093   5.722   5.118   2.607  0.1471 -0.1973  0.2230
 1332SOL    HW2 5094   5.796   5.085   2.556  1.1954  1.0657  0.8677
 1332SOL    HW3 5095   5.763   5.163   2.681 -1.3035 -0.9186  1.5212
 1332SOL    MW4 5096   5.737   5.119   2.610  0.0940 -0.1258  0.4794
 1333SOL     OW 5097   2.675   1.603   5.305  0.3410 -0.1544 -0.2968
 1333SOL    HW2 5098   2.750   1.628   5.359 -1.0112  1.5358  0.9186
 1333SOL    HW3 5099   2.666   1.508   5.318  0.9767 -0.0269  1.2619
 1333SOL    MW4 5100   2.683   1.593   5.314  0.2465  0.0854  0.0692
 1334SOL     OW 5101   3.851   1.567   3.448 -0.6223  0.5618  0.6038
 1334SOL    HW2 5102   3.763   1.588   3.418 -0.6123 -1.1324 -0.8009
 1334SOL    HW3 5103   3.905   1.571   3.368 -0.5107 -3.6673  0.2565
 1334SOL    MW4 5104   3.847   1.570   3.433 -0.6063 -0.2197  0.3727
 1335SOL     OW 5105   3.901   2.388   3.846 -0.0879 -0.0607 -0.2390
 1335SOL    HW2 5106   3.865   2.299   3.847 -3.2725  1.0946 -1.5339
 1335SOL    HW3 5107   3.866   2.429   3.926  0.0705  0.4839 -0.4454
 1335SOL    MW4 5108   3.892   2.382   3.857 -0.4872  0.1635 -0.4371
 1336SOL     OW 5109   3.306   5.615   0.294 -0.2910  0.1423  0.4131
 1336SOL    HW2 5110   3.386   5.629   0.344 -0.8070 -1.1299  1.6765
 1336SOL    HW3 5111   3.328   5.545   0.232 -0.3600 -0.1044  0.6611
 1336SOL    MW4 5112   3.320   5.607   0.292 -0.3682 -0.0581  0.6125
 1337SOL     OW 5113   2.980   0.361   6.120 -0.1625 -0.2095 -0.5567
 1337SOL    HW2 5114   2.961   0.368   6.213 -3.6382  1.2989 -1.2185
 1337SOL    HW3 5115   2.911   0.305   6.085  0.6046 -0.1093 -2.3514
 1337SOL    MW4 5116   2.968   0.355   6.128 -0.5198  0.0028 -0.8808
 1338SOL     OW 5117   3.473   0.694   6.289  0.3415 -0.1715 -0.9035
 1338SOL    HW2 5118   3.542   0.760   6.296 -0.8098  0.9791  0.0478
 1338SOL    HW3 5119   3.418   0.725   6.217  0.7976 -1.1032 -1.6805
 1338SOL    MW4 5120   3.475   0.707   6.281  0.2498 -0.1426 -0.8805
 1339SOL     OW 5121   5.191   1.261   5.215  0.1416 -0.2565 -0.2203
 1339SOL    HW2 5122   5.105   1.284   5.180  1.0190  1.7440 -1.2269
 1339SOL    HW3 5123   5.181   1.171   5.245 -1.7366 -0.7751 -2.1434
 1339SOL    MW4 5124   5.178   1.252   5.214  0.0095 -0.0610 -0.6069
 1340SOL     OW 5125   3.382   0.556   2.036 -0.7000 -0.0770 -0.0471
 1340SOL    HW2 5126   3.364   0.537   1.944 -1.2465 -0.3987  0.1259
 1340SOL    HW3 5127   3.297   0.581   2.072 -0.7122 -1.0772  0.6456
 1340SOL    MW4 5128   3.369   0.557   2.028 -0.7737 -0.2514  0.0671
 1341SOL     OW 5129   0.971   2.127   4.895  0.7654 -0.0384  0.2868
 1341SOL    HW2 5130   0.894   2.070   4.887  1.9504 -1.7378  0.4114
 1341SOL    HW3 5131   0.976   2.147   4.989  0.6751 -0.2403  0.3367
 1341SOL    MW4 5132   0.961   2.122   4.906  0.9099 -0.2893  0.3099
 1342SOL     OW 5133   1.561   5.482   1.634  0.2090  0.3964 -0.3741
 1342SOL    HW2 5134   1.594   5.531   1.558  0.3437  1.4454  0.3466
 1342SOL    HW3 5135   1.466   5.476   1.619  0.4594 -1.0870 -1.5685
 1342SOL    MW4 5136   1.553   5.488   1.622  0.2598  0.3391 -0.4366
 1343SOL     OW 5137   4.808   2.715   4.936 -0.0322 -0.5231  0.4498
 1343SOL    HW2 5138   4.716   2.695   4.917  0.1570 -1.4217  0.4543
 1343SOL    HW3 5139   4.813   2.710   5.032  0.0440 -0.5718  0.4426
 1343SOL    MW4 5140   4.796   2.712   4.946  0.0028 -0.6481  0.4494
 1344SOL     OW 5141   1.823   2.686   0.258 -0.2046 -0.2189  0.0067
 1344SOL    HW2 5142   1.760   2.666   0.189  0.3183 -0.3020 -0.4529
 1344SOL    HW3 5143   1.769   2.703   0.335 -0.8638  1.2087 -0.7350
 1344SOL    MW4 5144   1.807   2.686   0.259 -0.2226 -0.0415 -0.1518
 1345SOL     OW 5145   0.215   3.632   2.422 -0.3392 -0.1127 -0.0109
 1345SOL    HW2 5146   0.259   3.551   2.396 -1.8256 -0.3056 -2.1478
 1345SOL    HW3 5147   0.137   3.602   2.468  0.2916  0.1975  1.3255
 1345SOL    MW4 5148   0.211   3.617   2.425 -0.4521 -0.0972 -0.1165
 1346SOL     OW 5149   2.011   5.017   1.902 -0.2131 -0.0835 -0.7753
 1346SOL    HW2 5150   1.933   5.069   1.924  0.2187  0.5129 -0.6109
 1346SOL    HW3 5151   2.066   5.021   1.980 -0.7106 -1.8457 -0.3014
 1346SOL    MW4 5152   2.008   5.025   1.915 -0.2217 -0.2373 -0.6911
 1347SOL     OW 5153   5.633   2.837   6.097 -0.3518 -0.6553 -0.1912
 1347SOL    HW2 5154   5.595   2.777   6.034 -0.6580  0.4873 -1.1374
 1347SOL    HW3 5155   5.724   2.848   6.069 -0.6352  0.2918 -0.8286
 1347SOL    MW4 5156   5.640   2.831   6.085 -0.4296 -0.3796 -0.4002
 1348SOL     OW 5157   5.549   4.642   4.884  0.0976 -0.4563 -0.5079
 1348SOL    HW2 5158   5.616   4.666   4.948  0.4385  1.7316 -1.5946
 1348SOL    HW3 5159   5.468   4.634   4.935  0.0748  2.6439  0.1081
 1348SOL    MW4 5160   5.547   4.644   4.899  0.1396  0.2414 -0.5700
 1349SOL     OW 5161   0.516   1.859   0.761 -0.5466 -0.1512  0.1939
 1349SOL    HW2 5162   0.590   1.801   0.782 -1.3450 -1.5327 -0.6885
 1349SOL    HW3 5163   0.557   1.942   0.736  0.6611 -0.6139  0.5664
 1349SOL    MW4 5164   0.531   1.862   0.761 -0.4926 -0.3945  0.1266
 1350SOL     OW 5165   3.040   2.076   4.558  0.5874 -0.5305  0.0370
 1350SOL    HW2 5166   3.064   2.044   4.471 -0.3331  1.7675 -1.1380
 1350SOL    HW3 5167   3.116   2.126   4.587  0.5721 -0.5971  0.1918
 1350SOL    MW4 5168   3.053   2.078   4.550  0.4640 -0.2361 -0.0976
 1351SOL     OW 5169   1.491   5.780   5.434  0.2017 -0.0930  0.2823
 1351SOL    HW2 5170   1.416   5.743   5.481 -0.1765  1.8660  1.3310
 1351SOL    HW3 5171   1.508   5.717   5.364 -2.3632 -0.6522  0.0560
 1351SOL    MW4 5172   1.483   5.767   5.431 -0.1866  0.0917  0.3908
 1352SOL     OW 5173   5.844   0.236   6.011 -0.3583 -0.5520 -0.3133
 1352SOL    HW2 5174   5.890   0.272   5.934  1.2813  0.3832  1.0424
 1352SOL    HW3 5175   5.787   0.308   6.040  2.1758  0.7799  1.7952
 1352SOL    MW4 5176   5.843   0.250   6.004  0.1924 -0.2529  0.1437
 1353SOL     OW 5177   0.211   5.618   4.381 -0.7267 -0.4520 -0.0391
 1353SOL    HW2 5178   0.209   5.523   4.383 -2.1065 -0.4361  1.0913
 1353SOL    HW3 5179   0.276   5.643   4.447  0.1246 -0.5978 -0.8068
 1353SOL    MW4 5180   0.220   5.609   4.390 -0.7964 -0.4691  0.0087
 1354SOL     OW 5181   6.168   2.465   6.228  0.7293 -0.3579 -0.2986
 1354SOL    HW2 5182   6.220   2.528   6.278 -1.0469  1.7986 -1.0334
 1354SOL    HW3 5183   6.078   2.482   6.254  0.0318 -1.2433 -1.9928
 1354SOL    MW4 5184   6.163   2.475   6.238  0.4030 -0.1902 -0.6191
 1355SOL     OW 5185   5.449   5.454   4.062 -0.5032  0.2084  0.6039
 1355SOL    HW2 5186   5.398   5.382   4.099 -1.3937  0.6167  0.1867
 1355SOL    HW3 5187   5.483   5.501   4.138 -0.2052 -0.4310  0.8799
 1355SOL    MW4 5188   5.447   5.450   4.077 -0.5814  0.1779  0.5853
 1356SOL     OW 5189   4.843   0.086   2.421  0.5748 -0.2025  0.3542
 1356SOL    HW2 5190   4.909   0.129   2.475 -1.5820  2.3068  1.1940
 1356SOL    HW3 5191   4.788   0.039   2.483  0.3258 -0.5304 -0.1040
 1356SOL    MW4 5192   4.844   0.086   2.436  0.2574  0.0853  0.4046
 1357SOL     OW 5193   1.379   6.099   3.410  0.2681  0.0770 -0.2854
 1357SOL    HW2 5194   1.302   6.155   3.416  0.7170  0.5718  2.0308
 1357SOL    HW3 5195   1.394   6.088   3.316 -0.7576  2.5675 -0.8307
 1357SOL    MW4 5196   1.371   6.105   3.398  0.1920  0.4709 -0.0518
 1358SOL     OW 5197   6.306   6.203   1.583  0.0786 -0.5083 -0.3484
 1358SOL    HW2 5198   6.262   6.148   1.647  0.1478 -0.1129  0.0461
 1358SOL    HW3 5199   6.280   6.292   1.607  0.7941 -0.2995 -0.3378
 1358SOL    MW4 5200   6.297   6.208   1.594  0.1821 -0.4286 -0.2950
 1359SOL     OW 5201   1.005   1.023   3.174 -0.0135  0.2562 -0.5781
 1359SOL    HW2 5202   1.045   1.094   3.224 -0.3466 -0.3721  0.6136
 1359SOL    HW3 5203   0.945   1.067   3.113 -0.6905  0.9713  0.5701
 1359SOL    MW4 5204   1.002   1.038   3.173 -0.1468  0.2676 -0.2694
 1360SOL     OW 5205   5.169   3.522   5.374  0.4183  0.4204 -0.5055
 1360SOL    HW2 5206   5.215   3.514   5.290 -0.6494 -3.1534 -0.9474
 1360SOL    HW3 5207   5.227   3.477   5.437 -0.5067 -0.3749 -0.1955
 1360SOL    MW4 5208   5.183   3.515   5.371  0.1554 -0.1560 -0.5229
 1361SOL     OW 5209   2.244   5.537   3.852  0.1454 -0.9416  0.5783
 1361SOL    HW2 5210   2.314   5.563   3.912  1.2256 -0.3130 -0.8859
 1361SOL    HW3 5211   2.218   5.618   3.810  0.2472 -1.5300 -0.6494
 1361SOL    MW4 5212   2.250   5.551   3.855  0.3014 -0.9363  0.2231
 1362SOL     OW 5213   6.358   1.187   2.185  0.3553 -0.3170 -0.1865
 1362SOL    HW2 5214   6.433   1.208   2.130  0.9221 -0.3041  0.5672
 1362SOL    HW3 5215   6.285   1.175   2.124  1.0394 -0.6422 -0.9524
 1362SOL    MW4 5216   6.358   1.188   2.170  0.5204 -0.3582 -0.1881
 1363SOL     OW 5217   2.505   0.656   6.329  0.5314  0.1603 -0.2676
 1363SOL    HW2 5218   2.569   0.726   6.326 -0.4951  1.1236 -0.2421
 1363SOL    HW3 5219   2.423   0.696   6.301 -0.7666 -0.2143  2.5786
 1363SOL    MW4 5220   2.503   0.670   6.325  0.2247  0.2380  0.1113
 1364SOL     OW 5221   2.705   2.505   3.372  0.0839  0.3332  0.6061
 1364SOL    HW2 5222   2.683   2.523   3.463 -0.0763 -0.0188  0.6403
 1364SOL    HW3 5223   2.622   2.513   3.325  0.2396  0.9092  0.4259
 1364SOL    MW4 5224   2.691   2.508   3.378  0.0833  0.3628  0.5868
 1365SOL     OW 5225   1.210   1.026   1.591  0.6349 -0.1294 -0.2222
 1365SOL    HW2 5226   1.134   1.053   1.541  0.0187 -2.2673 -0.5555
 1365SOL    HW3 5227   1.179   1.021   1.681  0.5485 -0.4109 -0.2673
 1365SOL    MW4 5228   1.196   1.029   1.596  0.5422 -0.4486 -0.2721
 1366SOL     OW 5229   3.755   3.697   0.291  0.1594  0.0404  0.1691
 1366SOL    HW2 5230   3.746   3.761   0.363 -2.0004  1.0300 -0.8672
 1366SOL    HW3 5231   3.745   3.612   0.334  0.7031  0.5106  1.2784
 1366SOL    MW4 5232   3.752   3.694   0.306 -0.0538  0.2330  0.1787
 1367SOL     OW 5233   0.018   1.581   3.925 -0.1008 -0.0046  0.1929
 1367SOL    HW2 5234   0.082   1.519   3.889  0.1135 -0.2504  0.9700
 1367SOL    HW3 5235  -0.037   1.605   3.851 -2.0369 -3.3247  0.3632
 1367SOL    MW4 5236   0.019   1.576   3.911 -0.3280 -0.4751  0.3179
 1368SOL     OW 5237   1.367   2.359   6.112 -0.0387 -0.1858  0.7315
 1368SOL    HW2 5238   1.428   2.292   6.143 -0.6237 -0.9097  0.3772
 1368SOL    HW3 5239   1.408   2.393   6.032  0.2883 -0.0902  0.9405
 1368SOL    MW4 5240   1.380   2.355   6.105 -0.0727 -0.2687  0.7124
 1369SOL     OW 5241   1.035   0.571   6.091 -0.4801  0.1798 -0.2941
 1369SOL    HW2 5242   0.992   0.521   6.160 -3.2160  1.9397 -0.5496
 1369SOL    HW3 5243   1.105   0.618   6.136 -0.2882 -0.9646  0.6522
 1369SOL    MW4 5244   1.039   0.571   6.106 -0.8157  0.2610 -0.2030
 1370SOL     OW 5245   0.033   3.604   3.980 -0.1756 -0.3060  0.3704
 1370SOL    HW2 5246   0.054   3.545   4.053  0.7990  0.1953  0.5157
 1370SOL    HW3 5247  -0.048   3.647   4.006  0.7578  0.7207  1.7246
 1370SOL    MW4 5248   0.025   3.602   3.993  0.0762 -0.1044  0.5683
 1371SOL     OW 5249   2.159   2.847   3.500 -0.2461  0.4276  0.3365
 1371SOL    HW2 5250   2.142   2.878   3.589 -0.5915 -1.7228  1.0814
 1371SOL    HW3 5251   2.072   2.830   3.463 -0.2311  2.9388 -1.1379
 1371SOL    MW4 5252   2.145   2.849   3.507 -0.2897  0.4752  0.2402
 1372SOL     OW 5253   3.809   2.443   0.880  0.3767 -1.0312  0.3956
 1372SOL    HW2 5254   3.816   2.537   0.889  2.1645 -1.1594  0.5447
 1372SOL    HW3 5255   3.751   2.431   0.805 -1.2637  0.1350  1.4059
 1372SOL    MW4 5256   3.802   2.453   0.871  0.3961 -0.8942  0.5486
 1373SOL     OW 5257   0.569   1.823   3.912  0.3277  0.5933 -0.4676
 1373SOL    HW2 5258   0.645   1.769   3.931 -1.2378 -0.4832  3.6631
 1373SOL    HW3 5259   0.511   1.767   3.861  0.1150 -0.5327  0.9663
 1373SOL    MW4 5260   0.571   1.809   3.908  0.0931  0.3027  0.2666
 1374SOL     OW 5261   6.293   5.780   3.461 -0.0764  0.3408 -0.2868
 1374SOL    HW2 5262   6.277   5.749   3.371 -1.4299 -1.9275  0.6407
 1374SOL    HW3 5263   6.364   5.842   3.452  1.7849 -1.8816 -2.6380
 1374SOL    MW4 5264   6.300   5.784   3.448 -0.0094 -0.2517 -0.4746
 1375SOL     OW 5265   3.693   5.714   3.077 -0.2399 -0.2378 -0.0578
 1375SOL    HW2 5266   3.674   5.680   2.989 -2.2029 -0.1941  0.3017
 1375SOL    HW3 5267   3.747   5.791   3.062  2.3134 -2.0672 -1.0261
 1375SOL    MW4 5268   3.698   5.719   3.063 -0.1620 -0.4734 -0.1381
 1376SOL     OW 5269   3.887   5.494   5.981 -0.2814 -0.1351 -0.0836
 1376SOL    HW2 5270   3.835   5.573   5.965  0.0508  0.1736  0.3459
 1376SOL    HW3 5271   3.942   5.516   6.056  2.0014  0.2741 -1.7887
 1376SOL    MW4 5272   3.887   5.507   5.989  0.0636 -0.0403 -0.2519
 1377SOL     OW 5273   4.621   3.824   0.338 -0.0688 -0.1657 -0.4163
 1377SOL    HW2 5274   4.712   3.839   0.309 -0.3152 -0.9066 -1.6618
 1377SOL    HW3 5275   4.626   3.821   0.433  1.0848  0.6269 -0.4298
 1377SOL    MW4 5276   4.634   3.826   0.346  0.0509 -0.1589 -0.5824
 1378SOL     OW 5277   0.066   1.576   2.015 -0.8767 -0.2431 -0.1493
 1378SOL    HW2 5278   0.044   1.549   1.926  0.8175 -0.9213 -0.3989
 1378SOL    HW3 5279   0.118   1.656   2.004  0.6960 -1.1975  0.0983
 1378SOL    MW4 5280   0.070   1.583   2.002 -0.4457 -0.4585 -0.1495
 1379SOL     OW 5281   0.372   0.926   2.629  0.1277  0.1744  0.4285
 1379SOL    HW2 5282   0.282   0.901   2.609 -0.2248  0.5116  1.4946
 1379SOL    HW3 5283   0.425   0.853   2.599 -0.7169 -1.1128  1.9086
 1379SOL    MW4 5284   0.367   0.913   2.623 -0.0302  0.0491  0.7645
 1380SOL     OW 5285   0.548   4.122   0.704  0.1588  0.6690 -0.2573
 1380SOL    HW2 5286   0.602   4.140   0.781  0.1113  0.5229 -0.1890
 1380SOL    HW3 5287   0.575   4.188   0.640 -0.5928  1.5068  0.2658
 1380SOL    MW4 5288   0.558   4.133   0.706  0.0534  0.7603 -0.1793
 1381SOL     OW 5289   0.863   0.326   5.889 -0.4249 -0.6308 -0.2240
 1381SOL    HW2 5290   0.831   0.415   5.882 -3.3267 -1.4733  0.9552
 1381SOL    HW3 5291   0.836   0.284   5.807 -0.9008 -0.9202  0.0742
 1381SOL    MW4 5292   0.855   0.332   5.878 -0.8705 -0.7801 -0.0291
 1382SOL     OW 5293   6.121   1.516   2.943  0.2868  0.6288  0.7144
 1382SOL    HW2 5294   6.105   1.517   3.038  2.5766 -0.6784  1.2181
 1382SOL    HW3 5295   6.098   1.427   2.916 -0.5538  1.0602 -0.0222
 1382SOL    MW4 5296   6.116   1.504   2.952  0.4780  0.5132  0.6837
 1383SOL     OW 5297   1.862   0.473   5.642 -0.6874 -1.0036  0.2056
 1383SOL    HW2 5298   1.890   0.517   5.562 -1.3353  0.3919  0.7220
 1383SOL    HW3 5299   1.845   0.382   5.614  2.5806 -1.5379 -0.4770
 1383SOL    MW4 5300   1.864   0.467   5.628 -0.3417 -0.8899  0.1837
 1384SOL     OW 5301   5.324   2.696   5.293  0.2791 -0.0353  0.2719
 1384SOL    HW2 5302   5.237   2.676   5.261 -0.1649  0.6327  1.0246
 1384SOL    HW3 5303   5.372   2.613   5.288 -0.0111 -0.1411 -1.2853
 1384SOL    MW4 5304   5.319   2.682   5.288  0.1822  0.0389  0.1658
 1385SOL     OW 5305   4.713   3.887   6.372  0.1094  0.6171  0.0428
 1385SOL    HW2 5306   4.706   3.839   6.290  1.0578 -0.9527  0.8414
 1385SOL    HW3 5307   4.671   3.831   6.437 -0.0128  1.5092  0.7529
 1385SOL    MW4 5308   4.707   3.873   6.370  0.2184  0.5276  0.2418
 1386SOL     OW 5309   1.313   4.593   6.111  0.2697 -0.0373  0.9040
 1386SOL    HW2 5310   1.296   4.500   6.096 -1.1876  0.1237  1.3347
 1386SOL    HW3 5311   1.238   4.638   6.073  2.9276  1.4038 -3.3368
 1386SOL    MW4 5312   1.301   4.587   6.104  0.4281  0.1741  0.4013
 1387SOL     OW 5313   2.560   2.182   3.783  0.3103 -0.2291  0.7543
 1387SOL    HW2 5314   2.504   2.134   3.722  0.6080  0.6045 -0.1940
 1387SOL    HW3 5315   2.559   2.129   3.863 -1.4321 -0.4829  0.6026
 1387SOL    MW4 5316   2.552   2.168   3.786  0.1197 -0.1526  0.6092
 1388SOL     OW 5317   0.945   5.329   2.273 -0.5372  0.5682 -0.0285
 1388SOL    HW2 5318   0.985   5.384   2.341 -0.4637 -0.3597  0.7033
 1388SOL    HW3 5319   1.004   5.254   2.266 -1.5427 -0.2685  0.2608
 1388SOL    MW4 5320   0.958   5.327   2.281 -0.6602  0.3354  0.1062
 1389SOL     OW 5321   4.667   1.236   1.434  0.5080 -0.2583  0.3407
 1389SOL    HW2 5322   4.726   1.291   1.381 -0.6443 -0.4848 -1.2511
 1389SOL    HW3 5323   4.612   1.298   1.482 -0.0396 -0.0036 -0.5920
 1389SOL    MW4 5324   4.668   1.252   1.433  0.2837 -0.2546  0.0076
 1390SOL     OW 5325   5.632   0.510   5.415 -0.3000 -0.5122 -0.1218
 1390SOL    HW2 5326   5.640   0.605   5.407  0.7941 -0.5458  0.4111
 1390SOL    HW3 5327   5.538   0.494   5.420 -0.5245  0.4752 -0.9542
 1390SOL    MW4 5328   5.621   0.521   5.415 -0.1853 -0.3864 -0.1613
 1391SOL     OW 5329   3.596   1.409   2.359 -0.4808  0.1627 -0.0568
 1391SOL    HW2 5330   3.510   1.452   2.357  0.4336  2.0625 -0.3877
 1391SOL    HW3 5331   3.613   1.386   2.268 -0.2765  0.5567 -0.1197
 1391SOL    MW4 5332   3.587   1.412   2.347 -0.3332  0.4653 -0.1088
 1392SOL     OW 5333   1.756   2.508   2.734 -0.2933  0.2298  0.1203
 1392SOL    HW2 5334   1.695   2.523   2.806 -0.3317  1.6326 -0.1781
 1392SOL    HW3 5335   1.703   2.518   2.655  0.0239  0.0369 -0.1197
 1392SOL    MW4 5336   1.741   2.511   2.733 -0.2565  0.3894  0.0493
 1393SOL     OW 5337   6.324   5.465   0.567  0.4956 -0.7186  0.1818
 1393SOL    HW2 5338   6.262   5.492   0.500 -0.9731 -2.0903  0.9407
 1393SOL    HW3 5339   6.287   5.498   0.649  2.5712  1.4680  0.3448
 1393SOL    MW4 5340   6.311   5.473   0.569  0.5757 -0.6111  0.3035
 1394SOL     OW 5341   5.280   3.195   5.299 -0.0423 -0.2172 -0.4750
 1394SOL    HW2 5342   5.196   3.210   5.344  0.2954 -3.7578  1.8209
 1394SOL    HW3 5343   5.256   3.177   5.208 -1.9224 -1.6906  0.2454
 1394SOL    MW4 5344   5.266   3.194   5.293 -0.2458 -0.8787 -0.0770
 1395SOL     OW 5345   1.808   0.156   2.582 -0.3495 -0.2187  0.2501
 1395SOL    HW2 5346   1.769   0.244   2.577  2.1679  0.9471 -0.6258
 1395SOL    HW3 5347   1.871   0.162   2.653  0.2588 -1.1426 -0.1988
 1395SOL    MW4 5348   1.811   0.169   2.591  0.0629 -0.1868  0.0753
 1396SOL     OW 5349   5.992   2.508   0.985  0.5442  0.4558  0.5158
 1396SOL    HW2 5350   5.916   2.480   1.037 -1.0978  1.2085 -1.3472
 1396SOL    HW3 5351   6.011   2.596   1.017 -1.2701  1.4277 -0.8941
 1396SOL    MW4 5352   5.984   2.516   0.996  0.0882  0.6833  0.0840
 1397SOL     OW 5353   6.373   5.053   4.286 -0.1124  0.0272  0.2525
 1397SOL    HW2 5354   6.446   4.994   4.308 -0.7404 -0.4919  1.0209
 1397SOL    HW3 5355   6.330   5.011   4.212  1.2705  1.1408 -1.2567
 1397SOL    MW4 5356   6.377   5.040   4.279 -0.0128  0.1056  0.1547
 1398SOL     OW 5357   5.616   0.806   0.569 -0.9952 -0.5592  0.5103
 1398SOL    HW2 5358   5.595   0.899   0.580  0.4118 -0.1295 -0.1699
 1398SOL    HW3 5359   5.711   0.802   0.577 -1.0989 -2.0537  1.1754
 1398SOL    MW4 5360   5.626   0.818   0.571 -0.8232 -0.6997  0.5083
 1399SOL     OW 5361   3.222   0.178   4.431 -0.1967  0.6672 -0.1846
 1399SOL    HW2 5362   3.187   0.171   4.342 -0.3669  1.6175 -0.1949
 1399SOL    HW3 5363   3.195   0.264   4.461  1.0049  0.8912  0.3087
 1399SOL    MW4 5364   3.214   0.188   4.423 -0.0606  0.8221 -0.1209
 1400SOL     OW 5365   4.686   6.384   2.226  0.1176  0.0044 -0.0734
 1400SOL    HW2 5366   4.701   6.379   2.132 -0.2385 -2.1146 -0.0735
 1400SOL    HW3 5367   4.760   6.436   2.259  0.0941  1.0314 -1.5164
 1400SOL    MW4 5368   4.698   6.390   2.218  0.0675 -0.1397 -0.2638
 1401SOL     OW 5369   5.490   4.685   6.312 -0.0561  0.3974  0.2233
 1401SOL    HW2 5370   5.538   4.647   6.239 -1.6941 -1.0869 -0.1622
 1401SOL    HW3 5371   5.403   4.645   6.307 -0.2329  0.2169  2.9894
 1401SOL    MW4 5372   5.484   4.674   6.301 -0.2955  0.1777  0.5374
 1402SOL     OW 5373   4.313   4.179   4.436 -0.0265  0.0832  0.2483
 1402SOL    HW2 5374   4.346   4.268   4.444 -0.8072  0.3722  0.2844
 1402SOL    HW3 5375   4.299   4.151   4.527 -1.1021  0.4295  0.1996
 1402SOL    MW4 5376   4.315   4.187   4.449 -0.2714  0.1670  0.2466
 1403SOL     OW 5377   4.185   2.881   4.386  0.1538  0.3037  0.1239
 1403SOL    HW2 5378   4.126   2.952   4.363  0.0448  0.8531  1.9181
 1403SOL    HW3 5379   4.150   2.847   4.469  0.7897 -1.1699 -0.1759
 1403SOL    MW4 5380   4.172   2.886   4.394  0.2233  0.1818  0.3211
 1404SOL     OW 5381   1.455   0.364   3.905 -0.4889 -0.2834  0.0448
 1404SOL    HW2 5382   1.369   0.406   3.899 -1.5147 -2.0898  1.2682
 1404SOL    HW3 5383   1.480   0.373   3.997  0.8459  0.5691 -0.3789
 1404SOL    MW4 5384   1.447   0.370   3.916 -0.4481 -0.4092  0.1503
 1405SOL     OW 5385   3.623   1.270   4.231  0.2299 -0.1009 -0.2725
 1405SOL    HW2 5386   3.666   1.250   4.314 -0.1005  1.2794  0.2645
 1405SOL    HW3 5387   3.633   1.365   4.221 -1.1992  0.0118 -0.9596
 1405SOL    MW4 5388   3.630   1.280   4.241 -0.0022  0.0961 -0.2923
 1406SOL     OW 5389   4.056   1.082   0.711  0.3924 -0.6757  0.3080
 1406SOL    HW2 5390   4.061   1.141   0.786 -1.0078  0.1202 -0.1860
 1406SOL    HW3 5391   4.145   1.079   0.676  0.9781 -0.7513  1.7525
 1406SOL    MW4 5392   4.068   1.089   0.716  0.2850 -0.5807  0.4334
 1407SOL     OW 5393   6.273   2.045   0.093 -0.1187  0.9013  0.5269
 1407SOL    HW2 5394   6.339   2.001   0.039 -0.5030 -0.8278  1.3991
 1407SOL    HW3 5395   6.257   2.128   0.048  0.1179 -0.1240 -1.5996
 1407SOL    MW4 5396   6.280   2.050   0.080 -0.1382  0.5378  0.3614
 1408SOL     OW 5397   3.510   2.586   4.232  0.4778  0.0792 -0.3827
 1408SOL    HW2 5398   3.549   2.643   4.166  0.0186  1.3915  0.4250
 1408SOL    HW3 5399   3.582   2.569   4.294  0.6203 -0.2573 -0.6348
 1408SOL    MW4 5400   3.525   2.591   4.232  0.4360  0.2079 -0.3094
 1409SOL     OW 5401   2.345   4.950   2.472  0.2703  0.2553  0.1284
 1409SOL    HW2 5402   2.401   5.006   2.418 -1.3337  0.9779 -0.8796
 1409SOL    HW3 5403   2.261   4.996   2.473 -0.0971 -0.3828  2.2470
 1409SOL    MW4 5404   2.341   4.964   2.465  0.0102  0.2665  0.2749
 1410SOL     OW 5405   4.250   5.246   1.928 -0.1288 -0.1126  0.3444
 1410SOL    HW2 5406   4.239   5.205   2.014  1.4139  0.8041  1.0144
 1410SOL    HW3 5407   4.293   5.180   1.875 -0.1558 -0.3255  0.5833
 1410SOL    MW4 5408   4.254   5.232   1.932  0.0712 -0.0197  0.4643
 1411SOL     OW 5409   4.673   2.787   5.253  0.4025 -0.1248  0.3129
 1411SOL    HW2 5410   4.690   2.730   5.328  0.4830 -0.4217  0.0703
 1411SOL    HW3 5411   4.598   2.747   5.209 -0.2334  0.5545  0.7440
 1411SOL    MW4 5412   4.665   2.774   5.257  0.3292 -0.0744  0.3378
 1412SOL     OW 5413   4.995   4.024   0.466  0.8008  0.8289 -0.0078
 1412SOL    HW2 5414   4.967   3.966   0.396 -1.2368  0.2227  1.2208
 1412SOL    HW3 5415   4.941   4.103   0.455  1.0814  1.0776  0.3535
 1412SOL    MW4 5416   4.984   4.027   0.456  0.5690  0.7817  0.2020
 1413SOL     OW 5417   4.252   0.514   4.751  0.0924  0.4645 -0.0691
 1413SOL    HW2 5418   4.333   0.475   4.719 -1.7064 -1.6419 -2.5119
 1413SOL    HW3 5419   4.218   0.450   4.814 -0.8694  0.0392 -0.9893
 1413SOL    MW4 5420   4.258   0.501   4.755 -0.2718  0.1305 -0.5128
 1414SOL     OW 5421   6.326   5.910   5.889  0.4386  0.3744  0.2833
 1414SOL    HW2 5422   6.268   5.855   5.837 -0.7032  1.0763  0.7586
 1414SOL    HW3 5423   6.268   5.950   5.954  1.8633 -0.8191  2.4117
 1414SOL    MW4 5424   6.311   5.908   5.891  0.4759  0.3095  0.6268
 1415SOL     OW 5425   5.030   4.051   2.587 -0.4421  0.0998  0.7293
 1415SOL    HW2 5426   5.014   3.965   2.549  1.3776  0.1675 -0.2647
 1415SOL    HW3 5427   5.117   4.046   2.625 -0.1647  1.5852  0.3740
 1415SOL    MW4 5428   5.039   4.039   2.587 -0.1654  0.3047  0.5513
 1416SOL     OW 5429   2.475   5.147   3.088  0.4292 -0.1232 -0.2079
 1416SOL    HW2 5430   2.493   5.235   3.119  0.5116 -0.9507  2.3097
 1416SOL    HW3 5431   2.412   5.159   3.017  1.5380  2.0197 -0.9123
 1416SOL    MW4 5432   2.469   5.160   3.083  0.5864  0.0503  0.0313
 1417SOL     OW 5433   3.902   2.678   5.609  0.3614  0.1492  0.6032
 1417SOL    HW2 5434   3.989   2.698   5.645  0.3471 -1.1145  1.3856
 1417SOL    HW3 5435   3.841   2.722   5.668  0.4226 -0.0355  0.8045
 1417SOL    MW4 5436   3.905   2.686   5.622  0.3676 -0.0419  0.7330
 1418SOL     OW 5437   1.507   5.929   4.677 -0.0303 -0.2477 -0.4669
 1418SOL    HW2 5438   1.543   5.847   4.710 -2.1251 -0.9126  0.3159
 1418SOL    HW3 5439   1.474   5.974   4.754 -0.3855  0.5496 -1.0711
 1418SOL    MW4 5440   1.507   5.924   4.691 -0.3536 -0.2302 -0.4433
 1419SOL     OW 5441   3.238   0.797   4.620 -0.3647  0.3885 -0.0039
 1419SOL    HW2 5442   3.241   0.879   4.670 -3.4162  1.0923 -0.7034
 1419SOL    HW3 5443   3.178   0.741   4.669 -0.6355 -0.2636 -1.0449
 1419SOL    MW4 5444   3.230   0.801   4.633 -0.8031  0.3953 -0.2335
 1420SOL     OW 5445   0.219   2.326   4.758  0.5864 -0.0621  0.2190
 1420SOL    HW2 5446   0.290   2.272   4.726  0.0873 -1.7337  1.7872
 1420SOL    HW3 5447   0.262   2.403   4.797  1.4898 -0.7275  0.5530
 1420SOL    MW4 5448   0.234   2.329   4.759  0.6398 -0.3705  0.4700
 1421SOL     OW 5449   0.289   4.769   1.962  0.0994  0.7136  0.0873
 1421SOL    HW2 5450   0.294   4.842   1.900  2.0566  1.1270  0.6673
 1421SOL    HW3 5451   0.264   4.694   1.908 -0.2695  1.4697 -0.8199
 1421SOL    MW4 5452   0.286   4.768   1.947  0.3089  0.8679  0.0441
 1422SOL     OW 5453   2.718   3.172   1.331  0.0001 -0.2582 -0.8482
 1422SOL    HW2 5454   2.669   3.252   1.349  0.1785  0.0179 -1.5703
 1422SOL    HW3 5455   2.653   3.111   1.296 -0.1851 -0.5230 -0.0695
 1422SOL    MW4 5456   2.703   3.174   1.329 -0.0008 -0.2567 -0.8407
 1423SOL     OW 5457   0.594   3.251   0.833 -0.2257  0.3622  0.5498
 1423SOL    HW2 5458   0.632   3.305   0.764  0.4657 -0.1838  0.4859
 1423SOL    HW3 5459   0.643   3.168   0.828 -2.0081 -0.7052 -0.1053
 1423SOL    MW4 5460   0.606   3.247   0.824 -0.3696  0.1493  0.4549
 1424SOL     OW 5461   2.697   3.352   1.101  0.4715  1.0255 -0.1446
 1424SOL    HW2 5462   2.711   3.290   1.030  2.2303  0.5356  0.5718
 1424SOL    HW3 5463   2.730   3.307   1.179  0.4846  2.3183  0.6334
 1424SOL    MW4 5464   2.703   3.338   1.102  0.7053  1.1314  0.0526
 1425SOL     OW 5465   1.622   4.726   2.586 -0.2106  1.0559  0.0027
 1425SOL    HW2 5466   1.555   4.658   2.587  1.3238 -0.5221  1.2734
 1425SOL    HW3 5467   1.688   4.694   2.525  1.1056  0.7789  1.5138
 1425SOL    MW4 5468   1.622   4.713   2.578  0.1655  0.8111  0.3697
 1426SOL     OW 5469   3.681   5.169   2.383  0.0313  0.1491 -0.1054
 1426SOL    HW2 5470   3.679   5.074   2.374 -1.1820  0.1968 -0.4889
 1426SOL    HW3 5471   3.648   5.185   2.472 -1.8176  0.2782 -0.7786
 1426SOL    MW4 5472   3.677   5.159   2.394 -0.3727  0.1724 -0.2448
 1427SOL     OW 5473   2.705   3.814   2.804  0.1462  0.3203 -0.0090
 1427SOL    HW2 5474   2.793   3.779   2.808 -0.4595 -1.3342 -0.3291
 1427SOL    HW3 5475   2.711   3.888   2.744  1.4773  0.8375  0.7164
 1427SOL    MW4 5476   2.717   3.819   2.797  0.2419  0.1703  0.0444
 1428SOL     OW 5477   2.049   1.810   4.139 -0.1545  0.2035 -0.0025
 1428SOL    HW2 5478   2.087   1.723   4.125  0.6702  0.1819  2.0948
 1428SOL    HW3 5479   1.968   1.794   4.188  0.5695  0.6435  1.3900
 1428SOL    MW4 5480   2.043   1.796   4.143  0.0498  0.2587  0.4579
 1429SOL     OW 5481   2.011   2.787   0.009  0.0215  0.0130 -0.4550
 1429SOL    HW2 5482   1.956   2.710  -0.007 -1.3048  0.7072  0.4791
 1429SOL    HW3 5483   2.023   2.788   0.104 -0.0069  0.9672 -0.4553
 1429SOL    MW4 5484   2.005   2.777   0.020 -0.1572  0.2305 -0.3318
 1430SOL     OW 5485   3.437   3.571   0.440 -0.0512 -0.6775 -0.3040
 1430SOL    HW2 5486   3.346   3.544   0.431 -0.3586  0.2352 -0.0319
 1430SOL    HW3 5487   3.470   3.520   0.514 -1.2933  1.2924  1.7184
 1430SOL    MW4 5488   3.429   3.561   0.448 -0.2556 -0.2972 -0.0013
 1431SOL     OW 5489   5.309   2.254   2.995  0.4789  0.1709  0.7509
 1431SOL    HW2 5490   5.217   2.248   3.020 -0.3322 -0.8412 -2.1053
 1431SOL    HW3 5491   5.349   2.308   3.064 -2.6823  2.5783  0.9461
 1431SOL    MW4 5492   5.302   2.260   3.007 -0.0452  0.3550  0.3998
 1432SOL     OW 5493   3.580   3.563   2.597 -0.3353 -0.2828  0.3549
 1432SOL    HW2 5494   3.674   3.571   2.583 -0.3485 -0.4393  0.1812
 1432SOL    HW3 5495   3.555   3.647   2.637 -0.6406  1.0607 -2.3625
 1432SOL    MW4 5496   3.589   3.575   2.600 -0.3773 -0.1262 -0.0266
 1433SOL     OW 5497   0.701   0.733   6.106  0.4740  0.0188  0.2193
 1433SOL    HW2 5498   0.724   0.822   6.079  0.5569  0.3460  1.2991
 1433SOL    HW3 5499   0.610   0.739   6.135  0.3009 -0.3773 -0.2339
 1433SOL    MW4 5500   0.692   0.745   6.106  0.4621  0.0097  0.3020
 1434SOL     OW 5501   1.566   5.824   3.171  0.4491 -0.2552  0.1259
 1434SOL    HW2 5502   1.515   5.748   3.199 -0.5827  1.1676  2.3746
 1434SOL    HW3 5503   1.615   5.850   3.249  2.1707  0.3416 -1.1044
 1434SOL    MW4 5504   1.566   5.817   3.185  0.5401  0.0112  0.2602
 1435SOL     OW 5505   5.902   2.201   3.356  0.4765 -0.2404  0.4885
 1435SOL    HW2 5506   5.943   2.137   3.414 -0.5668 -0.1913  1.2975
 1435SOL    HW3 5507   5.847   2.254   3.413 -1.2149 -0.7006 -0.6315
 1435SOL    MW4 5508   5.900   2.199   3.371  0.1157 -0.2947  0.4475
 1436SOL     OW 5509   3.025   4.884   4.484  0.3457  0.3113  0.0939
 1436SOL    HW2 5510   2.975   4.965   4.475 -0.3308 -0.1409 -0.2736
 1436SOL    HW3 5511   2.993   4.828   4.413  2.5285  0.6128 -1.2137
 1436SOL    MW4 5512   3.014   4.887   4.473  0.5444  0.2914 -0.1271
 1437SOL     OW 5513   2.885   5.880   4.242  0.3002 -0.0252  0.2103
 1437SOL    HW2 5514   2.975   5.855   4.264  0.0788  0.0678  1.2249
 1437SOL    HW3 5515   2.833   5.803   4.262  0.5867 -1.6841 -4.2169
 1437SOL    MW4 5516   2.890   5.867   4.247  0.3088 -0.2318 -0.2399
 1438SOL     OW 5517   4.458   0.937   6.391  0.2414 -0.1726 -0.0260
 1438SOL    HW2 5518   4.428   0.908   6.477  0.9223 -0.2910  0.1824
 1438SOL    HW3 5519   4.388   0.993   6.358  0.0143 -0.0536  0.6437
 1438SOL    MW4 5520   4.445   0.941   6.398  0.3012 -0.1725  0.0898
 1439SOL     OW 5521   0.946   3.142   1.083 -0.0299  0.2870 -0.1980
 1439SOL    HW2 5522   0.973   3.051   1.096 -1.7986  0.0682  2.7320
 1439SOL    HW3 5523   0.937   3.151   0.988  1.1329 -2.2839 -0.6308
 1439SOL    MW4 5524   0.949   3.131   1.072 -0.1098 -0.0811  0.1315
 1440SOL     OW 5525   3.122   3.569   4.025  0.5069  0.0423 -0.1673
 1440SOL    HW2 5526   3.056   3.507   3.993  0.3999  0.2260 -0.3091
 1440SOL    HW3 5527   3.089   3.597   4.111  0.6636 -0.2586 -0.0098
 1440SOL    MW4 5528   3.109   3.564   4.032  0.5134  0.0269 -0.1652
 1441SOL     OW 5529   3.383   3.206   0.943  0.1508  0.5414 -0.1408
 1441SOL    HW2 5530   3.299   3.252   0.933 -0.9481 -1.0617  1.2327
 1441SOL    HW3 5531   3.408   3.184   0.853 -1.6356 -0.1618 -0.5078
 1441SOL    MW4 5532   3.375   3.209   0.930 -0.2299  0.2371 -0.0080
 1442SOL     OW 5533   3.597   5.127   0.939  0.3275 -0.2171  0.2008
 1442SOL    HW2 5534   3.522   5.123   0.879 -1.5310 -1.6558  2.4509
 1442SOL    HW3 5535   3.566   5.084   1.019  3.8667 -1.6852  0.9565
 1442SOL    MW4 5536   3.583   5.121   0.942  0.5492 -0.6006  0.5973
 1443SOL     OW 5537   0.400   2.075   2.493 -0.8602  0.1230  0.0311
 1443SOL    HW2 5538   0.362   2.163   2.492 -1.4438 -0.1252 -0.2170
 1443SOL    HW3 5539   0.387   2.043   2.404  0.0143  0.0571 -0.0830
 1443SOL    MW4 5540   0.393   2.083   2.481 -0.8218  0.0815 -0.0167
 1444SOL     OW 5541   3.356   2.248   5.304 -0.3599  0.1282  0.5099
 1444SOL    HW2 5542   3.380   2.183   5.370  1.0110 -0.3261 -0.3867
 1444SOL    HW3 5543   3.437   2.266   5.257 -1.2440  0.6077 -0.9102
 1444SOL    MW4 5544   3.370   2.242   5.306 -0.2957  0.1315  0.2042
 1445SOL     OW 5545   5.933   1.472   1.515  0.6608  0.2011  0.3718
 1445SOL    HW2 5546   5.966   1.426   1.592  1.7542  0.2045 -0.0758
 1445SOL    HW3 5547   5.889   1.550   1.550 -1.6247 -1.3512  1.1645
 1445SOL    MW4 5548   5.931   1.477   1.529  0.5035 -0.0033  0.4173
 1446SOL     OW 5549   1.894   0.889   0.266 -0.0039  1.0852  0.4004
 1446SOL    HW2 5550   1.928   0.978   0.273 -0.0107  1.0520  0.8852
 1446SOL    HW3 5551   1.971   0.833   0.269 -0.0602  1.0341  0.9993
 1446SOL    MW4 5552   1.909   0.893   0.267 -0.0122  1.0741  0.5434
 1447SOL     OW 5553   3.062   0.099   1.740  0.7498 -0.1855 -0.1997
 1447SOL    HW2 5554   3.146   0.066   1.770 -0.6135 -2.4353  1.4671
 1447SOL    HW3 5555   3.005   0.094   1.817 -0.8726  1.4846 -1.1926
 1447SOL    MW4 5556   3.065   0.094   1.754  0.3558 -0.2619 -0.1108
 1448SOL     OW 5557   0.805   2.285   2.218  0.8545  0.0089  0.3380
 1448SOL    HW2 5558   0.791   2.238   2.136  1.7900 -0.4492  0.4341
 1448SOL    HW3 5559   0.799   2.378   2.193 -1.6499 -0.1023  0.2695
 1448SOL    MW4 5560   0.802   2.291   2.204  0.6475 -0.0662  0.3417
 1449SOL     OW 5561   2.414   5.130   1.301  0.3213 -0.0940  0.0057
 1449SOL    HW2 5562   2.371   5.144   1.385  1.6301  0.5070  0.6209
 1449SOL    HW3 5563   2.467   5.051   1.314  0.5474  0.0145 -0.2450
 1449SOL    MW4 5564   2.416   5.121   1.314  0.5238 -0.0004  0.0538
 1450SOL     OW 5565   1.061   2.700   0.357 -0.3206  0.4309 -0.3952
 1450SOL    HW2 5566   0.999   2.628   0.349 -1.3700  1.2021  0.4737
 1450SOL    HW3 5567   1.130   2.665   0.413  1.9540 -1.6077 -4.0543
 1450SOL    MW4 5568   1.062   2.686   0.363 -0.1589  0.2637 -0.7633
 1451SOL     OW 5569   3.026   5.038   0.586  0.4413 -0.3630  0.6822
 1451SOL    HW2 5570   2.982   4.962   0.549 -1.6756 -0.0421  2.3617
 1451SOL    HW3 5571   3.079   5.003   0.658 -0.8742 -0.2367  1.7352
 1451SOL    MW4 5572   3.027   5.023   0.590 -0.0116 -0.3040  1.0427
 1452SOL     OW 5573   5.888   2.871   1.681  0.5277 -0.2582 -0.3925
 1452SOL    HW2 5574   5.836   2.937   1.727  0.0030 -1.5206  0.8680
 1452SOL    HW3 5575   5.831   2.795   1.674  1.5315 -1.0049 -0.7478
 1452SOL    MW4 5576   5.874   2.870   1.686  0.5909 -0.5233 -0.2731
 1453SOL     OW 5577   6.124   4.083   2.044 -0.3676  0.5423  0.4643
 1453SOL    HW2 5578   6.066   4.052   1.974 -0.8930 -1.7564  1.7888
 1453SOL    HW3 5579   6.171   4.004   2.071  0.2146  1.4899  2.3239
 1453SOL    MW4 5580   6.122   4.068   2.038 -0.3601  0.3641  0.8844
 1454SOL     OW 5581   5.452   6.353   2.529  0.1976 -0.2329  0.4695
 1454SOL    HW2 5582   5.513   6.404   2.583  0.3225 -1.2432  1.3045
 1454SOL    HW3 5583   5.493   6.351   2.442  0.2184  1.0283  0.4311
 1454SOL    MW4 5584   5.466   6.360   2.524  0.2168 -0.1998  0.5746
 1455SOL     OW 5585   2.131   5.430   3.011 -0.3235 -0.4685 -0.3278
 1455SOL    HW2 5586   2.052   5.483   3.016 -0.0499 -0.1569  1.5207
 1455SOL    HW3 5587   2.099   5.340   3.004 -0.7985 -0.2130 -1.7226
 1455SOL    MW4 5588   2.116   5.425   3.011 -0.3500 -0.3937 -0.2680
 1456SOL     OW 5589   4.954   3.387   3.521 -0.3509  0.1231 -0.7651
 1456SOL    HW2 5590   4.906   3.382   3.439  1.4931  2.2304 -2.0959
 1456SOL    HW3 5591   4.984   3.478   3.526  3.4234 -0.9469 -0.1049
 1456SOL    MW4 5592   4.952   3.398   3.511  0.3904  0.2600 -0.8536
 1457SOL     OW 5593   5.799   4.257   5.480  0.0602  0.3284 -0.8651
 1457SOL    HW2 5594   5.834   4.286   5.565 -1.0782  0.9830 -0.5955
 1457SOL    HW3 5595   5.710   4.226   5.500  0.5402 -1.5701 -1.4741
 1457SOL    MW4 5596   5.792   4.257   5.494 -0.0267  0.1643 -0.9099
 1458SOL     OW 5597   0.051   3.880   1.131  0.0414 -0.1586 -0.3092
 1458SOL    HW2 5598  -0.022   3.858   1.187 -0.3806 -0.3253 -0.9136
 1458SOL    HW3 5599   0.095   3.797   1.114 -0.7236 -0.3537 -1.4426
 1458SOL    MW4 5600   0.047   3.866   1.136 -0.1152 -0.2063 -0.5385
 1459SOL     OW 5601   1.693   5.433   3.158  0.1459 -0.1618 -0.4305
 1459SOL    HW2 5602   1.756   5.380   3.208 -2.3092 -2.3504  0.5450
 1459SOL    HW3 5603   1.644   5.481   3.224  0.9217  1.8257 -1.2047
 1459SOL    MW4 5604   1.695   5.433   3.173 -0.0757 -0.1883 -0.4039
 1460SOL     OW 5605   0.126   4.041   1.456 -0.4238  0.1641  0.7800
 1460SOL    HW2 5606   0.104   4.078   1.370 -0.3065 -0.5249  0.4495
 1460SOL    HW3 5607   0.059   4.076   1.515 -0.5071  0.6406  0.4073
 1460SOL    MW4 5608   0.114   4.051   1.453 -0.4193  0.1360  0.6873
 1461SOL     OW 5609   2.849   5.478   0.825 -0.4823  0.6268  0.6752
 1461SOL    HW2 5610   2.920   5.422   0.796 -1.4070 -0.2652  0.0912
 1461SOL    HW3 5611   2.890   5.564   0.836  0.4699  0.3688 -0.6265
 1461SOL    MW4 5612   2.864   5.482   0.823 -0.4786  0.4751  0.4264
 1462SOL     OW 5613   1.307   0.250   0.962  0.2577 -0.1867 -0.0153
 1462SOL    HW2 5614   1.268   0.201   1.034 -0.2389 -1.6930 -1.2623
 1462SOL    HW3 5615   1.234   0.271   0.905  0.6413  1.0406 -0.0947
 1462SOL    MW4 5616   1.292   0.247   0.964  0.2428 -0.2235 -0.1903
 1463SOL     OW 5617   1.774   6.422   3.170 -0.3164 -0.7195 -0.3337
 1463SOL    HW2 5618   1.773   6.425   3.266 -0.5689 -1.5475 -0.3024
 1463SOL    HW3 5619   1.703   6.480   3.143 -0.2702 -0.5153 -0.0107
 1463SOL    MW4 5620   1.765   6.430   3.179 -0.3436 -0.8018 -0.2869
 1464SOL     OW 5621   5.395   2.001   3.241 -0.0379 -0.4092 -0.1179
 1464SOL    HW2 5622   5.364   2.076   3.293 -1.3093 -0.3475 -0.9357
 1464SOL    HW3 5623   5.481   2.028   3.210  0.0210  0.2386  0.5739
 1464SOL    MW4 5624   5.402   2.015   3.244 -0.1979 -0.3156 -0.1345
 1465SOL     OW 5625   3.276   1.083   0.811  0.2012  0.1294  0.6928
 1465SOL    HW2 5626   3.249   1.017   0.747 -0.2435  0.2986  0.7042
 1465SOL    HW3 5627   3.222   1.160   0.791  1.2013  0.7425  0.2233
 1465SOL    MW4 5628   3.265   1.085   0.800  0.2745  0.2326  0.6323
 1466SOL     OW 5629   2.943   4.099   5.706  0.1819 -0.3295  0.2766
 1466SOL    HW2 5630   2.984   4.172   5.660 -0.6124 -0.0134  0.0651
 1466SOL    HW3 5631   2.921   4.135   5.792 -1.2209  0.0354 -0.2035
 1466SOL    MW4 5632   2.946   4.114   5.712 -0.1080 -0.2397  0.1854
 1467SOL     OW 5633   3.536   4.769   1.175  0.1419 -0.0295 -0.5766
 1467SOL    HW2 5634   3.526   4.728   1.089  0.1297  0.4670 -0.8157
 1467SOL    HW3 5635   3.630   4.765   1.193  0.2394  0.5090 -0.9410
 1467SOL    MW4 5636   3.547   4.763   1.166  0.1531  0.1070 -0.6562
 1468SOL     OW 5637   4.385   3.669   6.239 -0.0991 -0.0458 -0.0540
 1468SOL    HW2 5638   4.344   3.663   6.153 -1.2557  1.1842  0.3764
 1468SOL    HW3 5639   4.469   3.712   6.223  0.3358 -1.0985 -0.7272
 1468SOL    MW4 5640   4.391   3.674   6.225 -0.1943 -0.0224 -0.0860
 1469SOL     OW 5641   1.017   4.805   6.287  0.1784 -0.4521  0.2635
 1469SOL    HW2 5642   1.084   4.835   6.348 -0.5570 -0.0191  0.8853
 1469SOL    HW3 5643   0.984   4.885   6.247 -0.6030 -0.5696  0.6539
 1469SOL    MW4 5644   1.021   4.820   6.290 -0.0217 -0.4105  0.3971
 1470SOL     OW 5645   1.360   1.521   2.797  0.1957 -0.3451 -0.3426
 1470SOL    HW2 5646   1.338   1.478   2.880  2.4230 -0.9517  0.0191
 1470SOL    HW3 5647   1.454   1.537   2.803  0.6457 -1.3457 -3.1733
 1470SOL    MW4 5648   1.370   1.517   2.809  0.5489 -0.5572 -0.6683
 1471SOL     OW 5649   0.262   4.084   4.646  0.4841 -0.2393  0.5558
 1471SOL    HW2 5650   0.206   4.119   4.576  0.5426  0.6676  0.9392
 1471SOL    HW3 5651   0.336   4.046   4.600  1.1861  1.5382  0.1348
 1471SOL    MW4 5652   0.264   4.084   4.631  0.5845  0.1149  0.5508
 1472SOL     OW 5653   4.789   5.376   0.246 -0.2918 -0.3248  0.5520
 1472SOL    HW2 5654   4.714   5.317   0.237 -0.5822 -0.1441  1.6427
 1472SOL    HW3 5655   4.836   5.368   0.163 -1.5876 -0.3463 -0.2057
 1472SOL    MW4 5656   4.785   5.367   0.234 -0.5011 -0.3038  0.5960
 1473SOL     OW 5657   4.389   4.792   5.569 -0.4634 -0.0370 -0.0581
 1473SOL    HW2 5658   4.485   4.784   5.566 -0.5566 -1.6085 -2.9939
 1473SOL    HW3 5659   4.358   4.722   5.512 -3.5118 -0.7198  2.1907
 1473SOL    MW4 5660   4.398   4.781   5.561 -0.8779 -0.3344 -0.1487
 1474SOL     OW 5661   5.222   1.753   3.807  0.3511 -0.4068 -0.3771
 1474SOL    HW2 5662   5.139   1.777   3.766  0.7172  1.9794  0.1436
 1474SOL    HW3 5663   5.275   1.719   3.735 -0.5540 -0.5138 -1.0056
 1474SOL    MW4 5664   5.218   1.752   3.792  0.2800 -0.1061 -0.3913
 1475SOL     OW 5665   4.392   3.576   5.818 -0.1187 -0.0155 -0.2676
 1475SOL    HW2 5666   4.464   3.530   5.861  1.1656  1.1378 -1.0811
 1475SOL    HW3 5667   4.315   3.557   5.871  0.6566 -1.8272  0.2547
 1475SOL    MW4 5668   4.392   3.568   5.830  0.1530 -0.1024 -0.3060
 1476SOL     OW 5669   5.202   0.082   4.729 -0.2971 -0.0227  0.2177
 1476SOL    HW2 5670   5.121   0.094   4.679 -0.3105 -2.0329 -0.3367
 1476SOL    HW3 5671   5.200  -0.010   4.755  2.0656 -0.2756 -0.2697
 1476SOL    MW4 5672   5.191   0.072   4.726  0.0128 -0.3213  0.0803
 1477SOL     OW 5673   3.885   1.944   4.015 -0.4575 -0.5788  0.4673
 1477SOL    HW2 5674   3.814   1.993   4.058 -0.1737  1.0487 -0.8047
 1477SOL    HW3 5675   3.956   1.946   4.078 -0.3554  0.9667  0.3471
 1477SOL    MW4 5676   3.885   1.951   4.029 -0.4066 -0.1602  0.2836
 1478SOL     OW 5677   6.109   4.334   3.888 -0.1071 -0.2287 -0.1015
 1478SOL    HW2 5678   6.054   4.388   3.831  0.0928 -0.5569 -0.6162
 1478SOL    HW3 5679   6.053   4.313   3.963  0.6192  2.8924  1.4808
 1478SOL    MW4 5680   6.094   4.338   3.890  0.0151  0.1398  0.0394
 1479SOL     OW 5681   5.008   0.862   2.304 -0.5379  0.3374 -0.1236
 1479SOL    HW2 5682   5.048   0.840   2.220 -3.0386  0.4570 -1.4485
 1479SOL    HW3 5683   4.957   0.942   2.286 -2.4897 -0.5780  1.0143
 1479SOL    MW4 5684   5.007   0.870   2.290 -1.1254  0.2324 -0.1483
 1480SOL     OW 5685   6.187   4.710   3.350 -0.0858  0.1136 -0.1201
 1480SOL    HW2 5686   6.195   4.683   3.258  0.0531  1.4383 -0.5211
 1480SOL    HW3 5687   6.143   4.636   3.393 -1.0830 -0.1119 -1.4536
 1480SOL    MW4 5688   6.183   4.696   3.343 -0.1991  0.2586 -0.3490
 1481SOL     OW 5689   0.467   4.901   5.889  0.5394  0.7259  0.5778
 1481SOL    HW2 5690   0.468   4.906   5.985  0.9395  0.9944  0.5613
 1481SOL    HW3 5691   0.382   4.864   5.868  0.2637  1.0990  1.0181
 1481SOL    MW4 5692   0.456   4.897   5.899  0.5558  0.8106  0.6337
 1482SOL     OW 5693   1.438   1.478   2.394  0.1053  0.3362 -0.6965
 1482SOL    HW2 5694   1.528   1.444   2.393 -0.0361 -0.0868  0.4135
 1482SOL    HW3 5695   1.418   1.492   2.301  1.6879  1.4575 -0.9203
 1482SOL    MW4 5696   1.447   1.475   2.381  0.2954  0.4283 -0.5796
 1483SOL     OW 5697   5.513   3.890   5.882  0.2953  0.0661 -0.8538
 1483SOL    HW2 5698   5.601   3.861   5.908 -0.1105 -1.3406 -0.9697
 1483SOL    HW3 5699   5.481   3.820   5.825 -1.2542  0.1137 -0.0972
 1483SOL    MW4 5700   5.520   3.877   5.878  0.0373 -0.1132 -0.7693
 1484SOL     OW 5701   6.203   4.979   4.503 -0.0221  0.6715  0.2195
 1484SOL    HW2 5702   6.258   5.007   4.430  0.5004  1.0501  0.7553
 1484SOL    HW3 5703   6.259   4.924   4.556 -0.1335  1.1080  0.8041
 1484SOL    MW4 5704   6.217   4.976   4.500  0.0321  0.7791  0.3673
 1485SOL     OW 5705   3.567   6.301   6.299  0.5262 -0.1002 -0.6717
 1485SOL    HW2 5706   3.546   6.222   6.249  1.1380  0.1940 -1.4249
 1485SOL    HW3 5707   3.482   6.344   6.312  0.0846 -1.2097  0.3708
 1485SOL    MW4 5708   3.553   6.296   6.294  0.5487 -0.2078 -0.6335
 1486SOL     OW 5709   1.656   0.659   2.378  0.2696  0.3686  0.4401
 1486SOL    HW2 5710   1.700   0.737   2.412 -0.8830  1.2853 -0.0572
 1486SOL    HW3 5711   1.633   0.609   2.456 -3.6894  3.1609  1.4122
 1486SOL    MW4 5712   1.659   0.663   2.393 -0.4048  0.8579  0.5027
 1487SOL     OW 5713   3.733   1.271   6.322  0.0012  0.2728  0.2406
 1487SOL    HW2 5714   3.745   1.276   6.417  1.0001 -0.1915  0.1569
 1487SOL    HW3 5715   3.638   1.263   6.310 -0.1608  0.7027  1.1765
 1487SOL    MW4 5716   3.722   1.270   6.333  0.1116  0.2683  0.3530
 1488SOL     OW 5717   1.309   4.265   0.427 -0.3427 -0.2342  0.1834
 1488SOL    HW2 5718   1.402   4.247   0.440 -0.1072  0.7741 -0.0236
 1488SOL    HW3 5719   1.268   4.242   0.510  0.0324 -1.0205  0.1584
 1488SOL    MW4 5720   1.316   4.260   0.439 -0.2622 -0.2049  0.1528
 1489SOL     OW 5721   5.804   4.250   3.685 -0.1878 -0.4341 -0.1904
 1489SOL    HW2 5722   5.852   4.168   3.676  1.2287  0.3869 -0.4436
 1489SOL    HW3 5723   5.738   4.247   3.616 -0.3893 -1.5002  0.0323
 1489SOL    MW4 5724   5.801   4.239   3.675 -0.0275 -0.4665 -0.1944
 1490SOL     OW 5725   3.797   4.912   2.307  0.4126  0.7659 -0.0662
 1490SOL    HW2 5726   3.862   4.957   2.252  0.6196  1.3768  0.6525
 1490SOL    HW3 5727   3.755   4.850   2.249  2.1198 -0.1418 -0.4177
 1490SOL    MW4 5728   3.800   4.910   2.292  0.6652  0.7267 -0.0177
 1491SOL     OW 5729   4.024   0.934   5.421  0.3129 -0.3688 -0.0092
 1491SOL    HW2 5730   4.100   0.931   5.480 -1.3357  2.9349  2.6489
 1491SOL    HW3 5731   3.962   0.872   5.460  0.2083 -0.1488  0.1781
 1491SOL    MW4 5732   4.026   0.925   5.434  0.0816  0.0961  0.3662
 1492SOL     OW 5733   2.245   1.058   2.282  0.2997  0.1128  0.1330
 1492SOL    HW2 5734   2.240   1.081   2.374  1.9775 -0.4442  0.3960
 1492SOL    HW3 5735   2.168   1.003   2.266  0.2846 -0.2405  1.3484
 1492SOL    MW4 5736   2.234   1.053   2.292  0.5191 -0.0073  0.3281
 1493SOL     OW 5737   3.636   4.981   0.231  0.1107  0.0666  0.6719
 1493SOL    HW2 5738   3.561   4.931   0.261 -1.0027  0.8205 -0.7466
 1493SOL    HW3 5739   3.634   4.974   0.136  1.5454  0.5178  0.5806
 1493SOL    MW4 5740   3.626   4.974   0.223  0.1531  0.2256  0.4727
 1494SOL     OW 5741   3.178   1.272   3.255 -0.4246 -0.4770  0.5503
 1494SOL    HW2 5742   3.127   1.352   3.271  0.3702 -0.0537  1.0334
 1494SOL    HW3 5743   3.153   1.245   3.167 -0.2013  0.6883  0.1088
 1494SOL    MW4 5744   3.168   1.279   3.246 -0.2903 -0.2674  0.5558
 1495SOL     OW 5745   0.398   0.432   1.944 -0.1394  0.0510  0.3146
 1495SOL    HW2 5746   0.369   0.349   1.980 -0.7200  0.3934  0.6584
 1495SOL    HW3 5747   0.404   0.491   2.020  3.9787 -0.6102  0.7767
 1495SOL    MW4 5748   0.395   0.429   1.958  0.3274  0.0089  0.4210
 1496SOL     OW 5749   1.331   1.966   2.502 -0.0483  0.1630 -0.1637
 1496SOL    HW2 5750   1.331   1.872   2.522  0.6745  0.3099  0.5961
 1496SOL    HW3 5751   1.424   1.991   2.506 -0.3920  1.3175  1.7696
 1496SOL    MW4 5752   1.344   1.957   2.505  0.0017  0.3347  0.1916
 1497SOL     OW 5753   0.716   5.429   2.904 -0.4214  0.8009  0.2064
 1497SOL    HW2 5754   0.760   5.361   2.854 -0.6384  0.7892  0.0283
 1497SOL    HW3 5755   0.728   5.404   2.995 -1.1505  0.1158  0.1224
 1497SOL    MW4 5756   0.723   5.417   2.909 -0.5463  0.7089  0.1718
 1498SOL     OW 5757   5.256   6.143   5.882 -0.2710 -0.5877  0.4671
 1498SOL    HW2 5758   5.162   6.130   5.887 -0.4545 -0.0285 -1.2517
 1498SOL    HW3 5759   5.293   6.056   5.901 -1.1130 -0.8541  0.9237
 1498SOL    MW4 5760   5.249   6.130   5.885 -0.4063 -0.5490  0.3006
 1499SOL     OW 5761   5.771   4.748   5.020  0.1837  0.2637 -0.1530
 1499SOL    HW2 5762   5.731   4.834   5.025  0.8881  0.6288 -0.6462
 1499SOL    HW3 5763   5.824   4.750   4.940 -0.0205 -0.7204 -0.3327
 1499SOL    MW4 5764   5.773   4.759   5.010  0.2497  0.1820 -0.2418
 1500SOL     OW 5765   5.822   5.436   2.406 -0.3176 -0.1850  0.3899
 1500SOL    HW2 5766   5.793   5.525   2.390 -1.5189 -0.4052  1.1575
 1500SOL    HW3 5767   5.766   5.382   2.351 -2.4803 -0.7193  2.8835
 1500SOL    MW4 5768   5.811   5.440   2.397 -0.7615 -0.2845  0.8202
 1501SOL     OW 5769   1.216   2.951   4.254 -0.0933  0.2419 -0.2637
 1501SOL    HW2 5770   1.148   2.913   4.309  0.8950 -0.5364  0.4557
 1501SOL    HW3 5771   1.293   2.958   4.311  0.5248  0.8224 -1.1300
 1501SOL    MW4 5772   1.217   2.947   4.269  0.1186  0.2158 -0.2831
 1502SOL     OW 5773   0.963   1.017   4.775  0.0045  0.0909  0.4810
 1502SOL    HW2 5774   0.961   1.111   4.755 -1.9765 -0.0399 -0.2260
 1502SOL    HW3 5775   1.052   1.000   4.803  0.8547  1.8697 -0.9238
 1502SOL    MW4 5776   0.974   1.027   4.776 -0.1447  0.3083  0.2024
 1503SOL     OW 5777   0.510   5.185   2.946  0.4292 -0.5554 -0.5991
 1503SOL    HW2 5778   0.523   5.188   3.041 -0.7195  0.1621 -0.4505
 1503SOL    HW3 5779   0.461   5.265   2.926  0.3476 -0.8816 -1.7435
 1503SOL    MW4 5780   0.505   5.196   2.956  0.2669 -0.5038 -0.7305
 1504SOL     OW 5781   5.268   3.694   3.428 -0.3541 -0.0888 -0.0580
 1504SOL    HW2 5782   5.272   3.630   3.357 -0.7860  1.7515 -1.8330
 1504SOL    HW3 5783   5.291   3.777   3.387 -2.7164  1.4346  1.4482
 1504SOL    MW4 5784   5.271   3.696   3.413 -0.7227  0.3550 -0.0934
 1505SOL     OW 5785   3.804   1.880   5.746 -0.4116  0.8836  0.5622
 1505SOL    HW2 5786   3.867   1.811   5.728 -2.4098 -0.7260 -0.7279
 1505SOL    HW3 5787   3.788   1.920   5.661 -1.0690  1.3089  0.8798
 1505SOL    MW4 5788   3.810   1.876   5.732 -0.7619  0.7273  0.4339
 1506SOL     OW 5789   4.019   2.347   5.336  0.5665  0.2440 -0.2004
 1506SOL    HW2 5790   4.080   2.379   5.403  0.4652  0.7175 -0.3314
 1506SOL    HW3 5791   3.952   2.415   5.330 -0.1021 -0.3660  0.0968
 1506SOL    MW4 5792   4.018   2.360   5.344  0.4649  0.2260 -0.1785
 1507SOL     OW 5793   6.261   1.982   1.072  0.2940 -0.2299  0.7405
 1507SOL    HW2 5794   6.335   1.951   1.020 -0.3934 -2.1199  0.8029
 1507SOL    HW3 5795   6.257   1.922   1.146 -1.3306 -0.2308  0.7006
 1507SOL    MW4 5796   6.270   1.970   1.075 -0.0111 -0.4794  0.7435
 1508SOL     OW 5797   0.238   3.382   1.030 -0.4964 -0.0319 -0.7428
 1508SOL    HW2 5798   0.333   3.374   1.039 -0.2923 -0.8661 -2.9222
 1508SOL    HW3 5799   0.226   3.462   0.978 -1.0753  0.5733  0.2855
 1508SOL    MW4 5800   0.249   3.392   1.024 -0.5459 -0.0621 -0.8947
 1509SOL     OW 5801   0.123   0.355   1.549  0.2022 -0.9717 -0.4556
 1509SOL    HW2 5802   0.191   0.314   1.603 -0.9724 -1.8384  0.4019
 1509SOL    HW3 5803   0.052   0.375   1.610 -0.7755 -1.1196 -1.5058
 1509SOL    MW4 5804   0.123   0.352   1.564 -0.0817 -1.1056 -0.4810
 1510SOL     OW 5805   3.972   4.175   2.564  0.1830  0.2112  0.0110
 1510SOL    HW2 5806   3.992   4.081   2.559  0.6157  0.2519  0.7977
 1510SOL    HW3 5807   4.022   4.214   2.492 -1.6112 -0.3854 -1.6631
 1510SOL    MW4 5808   3.981   4.168   2.553  0.0034  0.1379 -0.1061
 1511SOL     OW 5809   6.059   2.722   3.068 -0.2625 -0.7572  0.1344
 1511SOL    HW2 5810   6.139   2.676   3.092 -0.5142 -0.4409  1.6839
 1511SOL    HW3 5811   6.061   2.726   2.973  2.0588  0.0914  0.1699
 1511SOL    MW4 5812   6.070   2.717   3.059  0.0106 -0.6035  0.3435
 1512SOL     OW 5813   5.370   1.224   2.945 -0.2353 -0.5771 -0.3140
 1512SOL    HW2 5814   5.428   1.234   2.869  0.1610 -0.3048  0.0220
 1512SOL    HW3 5815   5.361   1.129   2.955 -0.4931 -0.6172 -0.8514
 1512SOL    MW4 5816   5.377   1.213   2.936 -0.2170 -0.5465 -0.3406
 1513SOL     OW 5817   2.894   4.009   4.025 -0.0884 -0.0269  0.4901
 1513SOL    HW2 5818   2.852   3.936   4.071  0.6428 -0.7035  0.1147
 1513SOL    HW3 5819   2.915   4.072   4.094 -1.0635  0.0162  0.7706
 1513SOL    MW4 5820   2.891   4.008   4.040 -0.1206 -0.1105  0.4776
 1514SOL     OW 5821   3.899   4.961   0.353  0.3789 -0.4272 -0.4751
 1514SOL    HW2 5822   3.805   4.976   0.350  0.4564  0.0252 -0.6551
 1514SOL    HW3 5823   3.928   4.969   0.262  0.8891  1.4346 -0.1938
 1514SOL    MW4 5824   3.891   4.964   0.341  0.4565 -0.1218 -0.4617
 1515SOL     OW 5825   1.739   0.028   4.443 -0.1900  0.1137 -0.3863
 1515SOL    HW2 5826   1.811  -0.013   4.395  1.5202 -1.3924  3.0681
 1515SOL    HW3 5827   1.706   0.096   4.385  2.8285 -0.3484 -2.8733
 1515SOL    MW4 5828   1.744   0.032   4.429  0.4339 -0.1460 -0.2587
 1516SOL     OW 5829   0.725   4.389   1.170 -0.1449  0.6193 -0.2555
 1516SOL    HW2 5830   0.642   4.368   1.128  0.8515 -0.0013 -2.0886
 1516SOL    HW3 5831   0.748   4.310   1.219 -0.6463  0.8141  0.3022
 1516SOL    MW4 5832   0.717   4.376   1.171 -0.0796  0.5631 -0.4238
 1517SOL     OW 5833   5.705   1.060   2.895 -0.9150  0.2332 -0.0293
 1517SOL    HW2 5834   5.620   1.020   2.877 -0.4512 -1.6083  1.5645
 1517SOL    HW3 5835   5.690   1.113   2.973 -0.9056  1.0397 -0.5682
 1517SOL    MW4 5836   5.692   1.062   2.903 -0.8525  0.0967  0.1098
 1518SOL     OW 5837   2.414   5.228   4.367  0.3240 -0.5255  0.6981
 1518SOL    HW2 5838   2.471   5.185   4.430 -1.5278 -2.1026  1.3992
 1518SOL    HW3 5839   2.415   5.171   4.290  0.0574 -0.3098  0.5315
 1518SOL    MW4 5840   2.422   5.215   4.365  0.0445 -0.7051  0.7686
 1519SOL     OW 5841   2.734   5.111   3.940 -0.3368  0.0136 -0.1760
 1519SOL    HW2 5842   2.666   5.099   3.874 -1.1448 -0.6161  0.7438
 1519SOL    HW3 5843   2.806   5.055   3.911 -1.0581 -1.0153 -0.0349
 1519SOL    MW4 5844   2.734   5.102   3.928 -0.5386 -0.2053 -0.0361
 1520SOL     OW 5845   3.913   5.934   0.575 -0.6090 -0.1779 -0.2221
 1520SOL    HW2 5846   4.003   5.922   0.545 -0.9633 -0.6742 -1.1084
 1520SOL    HW3 5847   3.886   5.848   0.607 -0.3415  0.2697  1.2850
 1520SOL    MW4 5848   3.921   5.921   0.575 -0.6205 -0.1843 -0.1402
 1521SOL     OW 5849   2.232   2.447   4.954  0.2412 -0.2645 -0.6215
 1521SOL    HW2 5850   2.325   2.427   4.947  0.0773 -0.8779 -1.2244
 1521SOL    HW3 5851   2.201   2.450   4.863 -0.4507 -0.7441 -0.4166
 1521SOL    MW4 5852   2.240   2.444   4.941  0.1283 -0.4087 -0.6740
 1522SOL     OW 5853   4.623   6.241   1.077 -0.0203  0.5830  0.0771
 1522SOL    HW2 5854   4.611   6.218   1.169 -0.8828 -0.4315 -0.2578
 1522SOL    HW3 5855   4.704   6.291   1.074  0.2176  0.2881  1.3326
 1522SOL    MW4 5856   4.632   6.244   1.088 -0.1027  0.4103  0.1986
 1523SOL     OW 5857   0.046   4.972   0.165 -0.0455  0.4875  0.4833
 1523SOL    HW2 5858  -0.014   4.901   0.186  0.8545 -0.3513  0.3145
 1523SOL    HW3 5859   0.063   5.015   0.249 -0.0186  0.0299  0.7164
 1523SOL    MW4 5860   0.041   4.969   0.179  0.0768  0.3164  0.4918
 1524SOL     OW 5861   4.895   2.802   0.332  0.2104 -0.1524  0.1685
 1524SOL    HW2 5862   4.987   2.777   0.336 -0.2276 -1.7920  1.8622
 1524SOL    HW3 5863   4.868   2.806   0.424 -1.9422 -1.9990 -0.2930
 1524SOL    MW4 5864   4.904   2.799   0.345 -0.1314 -0.6124  0.3311
 1525SOL     OW 5865   1.700   0.721   1.127  0.5244  0.4745 -0.3170
 1525SOL    HW2 5866   1.650   0.721   1.208 -0.0145  1.1638 -0.6421
 1525SOL    HW3 5867   1.685   0.635   1.088 -0.4829  0.7039 -0.4515
 1525SOL    MW4 5868   1.692   0.710   1.132  0.3204  0.5957 -0.3776
 1526SOL     OW 5869   5.691   3.328   5.860  0.4344  0.2264 -0.1426
 1526SOL    HW2 5870   5.770   3.282   5.831  0.7729  0.0786  0.9634
 1526SOL    HW3 5871   5.645   3.265   5.915 -1.0151 -0.0528 -1.6268
 1526SOL    MW4 5872   5.695   3.314   5.863  0.2878  0.1701 -0.1925
 1527SOL     OW 5873   3.363   5.503   2.397  0.6767 -0.3181  0.0767
 1527SOL    HW2 5874   3.377   5.477   2.306  2.4602  0.8795 -0.0293
 1527SOL    HW3 5875   3.393   5.593   2.402 -0.8378  0.1699  1.5354
 1527SOL    MW4 5876   3.369   5.511   2.385  0.7122 -0.0957  0.2552
 1528SOL     OW 5877   5.017   1.631   0.204  0.8911 -0.2715 -0.4667
 1528SOL    HW2 5878   4.952   1.590   0.261  0.0747  0.3493 -0.9403
 1528SOL    HW3 5879   5.101   1.616   0.248  0.1569  1.3222  1.5687
 1528SOL    MW4 5880   5.020   1.624   0.217  0.6865  0.0207 -0.2607
 1529SOL     OW 5881   6.177   2.347   2.704  0.2502 -0.5030 -0.2065
 1529SOL    HW2 5882   6.081   2.350   2.697  0.3193 -0.4070 -1.3989
 1529SOL    HW3 5883   6.208   2.378   2.618  1.3611  0.3666  0.4801
 1529SOL    MW4 5884   6.168   2.352   2.691  0.4059 -0.3756 -0.2732
 1530SOL     OW 5885   0.613   1.576   0.279  0.0174 -0.7327 -0.6253
 1530SOL    HW2 5886   0.526   1.542   0.257 -0.8770  1.2462 -0.3696
 1530SOL    HW3 5887   0.670   1.543   0.210 -1.7409  1.1893 -3.1501
 1530SOL    MW4 5888   0.609   1.567   0.267 -0.3326 -0.2181 -0.9247
 1531SOL     OW 5889   0.226   5.978   0.317  0.2532  0.5106 -0.2271
 1531SOL    HW2 5890   0.296   5.921   0.285 -0.5743  0.0445 -1.2942
 1531SOL    HW3 5891   0.270   6.043   0.371  1.5953  0.6209 -1.3942
 1531SOL    MW4 5892   0.241   5.979   0.320  0.3211  0.4637 -0.5219
 1532SOL     OW 5893   5.766   0.808   5.011  0.0638  0.0429  0.3258
 1532SOL    HW2 5894   5.830   0.871   5.042 -0.1320  0.5016 -0.1835
 1532SOL    HW3 5895   5.697   0.809   5.077  0.6813 -0.6309  0.9984
 1532SOL    MW4 5896   5.765   0.816   5.024  0.1195  0.0145  0.3473
 1533SOL     OW 5897   3.639   1.027   0.402 -0.2628 -0.3555 -0.7352
 1533SOL    HW2 5898   3.578   1.066   0.465 -0.9182 -1.8522 -0.3846
 1533SOL    HW3 5899   3.660   0.942   0.440  0.6581 -0.5965 -1.7426
 1533SOL    MW4 5900   3.634   1.021   0.416 -0.2278 -0.5847 -0.8219
 1534SOL     OW 5901   5.569   3.660   3.302  0.9009  0.1214 -0.1931
 1534SOL    HW2 5902   5.649   3.713   3.298  0.0703  1.3409 -1.8194
 1534SOL    HW3 5903   5.591   3.589   3.363  3.1203  0.5566 -0.3766
 1534SOL    MW4 5904   5.583   3.658   3.309  1.0841  0.3397 -0.4319
 1535SOL     OW 5905   1.859   5.868   4.394  0.0187  0.3902  0.4073
 1535SOL    HW2 5906   1.899   5.788   4.427  0.2866  0.6554  0.7503
 1535SOL    HW3 5907   1.828   5.913   4.473  0.2628  0.8229  0.2606
 1535SOL    MW4 5908   1.861   5.864   4.409  0.0863  0.4823  0.4332
 1536SOL     OW 5909   0.879   1.103   0.601  0.4589 -0.2197  0.0191
 1536SOL    HW2 5910   0.914   1.170   0.660 -0.1614 -0.0079  0.1506
 1536SOL    HW3 5911   0.831   1.043   0.658  0.1134 -0.1851 -0.2305
 1536SOL    MW4 5912   0.877   1.104   0.616  0.3315 -0.1872  0.0035
 1537SOL     OW 5913   2.402   1.031   5.848 -0.0618  0.0586  0.2563
 1537SOL    HW2 5914   2.331   0.975   5.817 -0.4265  1.2437 -1.1491
 1537SOL    HW3 5915   2.466   0.970   5.887 -0.4394 -1.3323 -1.1921
 1537SOL    MW4 5916   2.401   1.015   5.849 -0.1597  0.0314 -0.1202
 1538SOL     OW 5917   3.557   2.457   4.879  0.6178  0.1626 -0.0751
 1538SOL    HW2 5918   3.569   2.369   4.842  0.0464 -0.1055  0.3629
 1538SOL    HW3 5919   3.463   2.474   4.870  0.5684  0.3319  0.7185
 1538SOL    MW4 5920   3.546   2.448   4.873  0.5359  0.1496  0.0874
 1539SOL     OW 5921   4.010   0.703   4.099  0.5491 -0.5116  0.0867
 1539SOL    HW2 5922   4.049   0.762   4.164 -0.3456 -1.0218  1.1364
 1539SOL    HW3 5923   4.040   0.616   4.124 -2.1232 -1.1072  1.7583
 1539SOL    MW4 5924   4.019   0.700   4.111  0.0784 -0.6575  0.4457
 1540SOL     OW 5925   0.161   6.236   1.320  0.7780 -0.0350  0.2414
 1540SOL    HW2 5926   0.149   6.145   1.292  1.1105 -0.0362  0.0956
 1540SOL    HW3 5927   0.158   6.286   1.238  0.2349  0.1221  0.3590
 1540SOL    MW4 5928   0.159   6.230   1.305  0.7502 -0.0144  0.2377
 1541SOL     OW 5929   2.640   4.200   1.294  0.3037  0.5097 -0.8041
 1541SOL    HW2 5930   2.624   4.175   1.385  2.4642 -2.6976 -1.1401
 1541SOL    HW3 5931   2.720   4.253   1.297  0.3243  0.4801 -0.8290
 1541SOL    MW4 5932   2.649   4.204   1.306  0.5914  0.0827 -0.8517
 1542SOL     OW 5933   6.243   3.344   1.050 -0.0424 -0.0490  0.0621
 1542SOL    HW2 5934   6.212   3.254   1.056 -1.4530  0.4100 -0.0794
 1542SOL    HW3 5935   6.321   3.345   1.106 -0.8822 -0.9919  1.3342
 1542SOL    MW4 5936   6.249   3.332   1.059 -0.3393 -0.1128  0.2113
 1543SOL     OW 5937   4.460   5.755   1.307  0.1047  0.3688 -0.0604
 1543SOL    HW2 5938   4.487   5.760   1.399  0.9106 -0.8357 -0.2080
 1543SOL    HW3 5939   4.492   5.670   1.277 -1.9451 -0.1569 -0.9047
 1543SOL    MW4 5940   4.468   5.744   1.315 -0.0595  0.1405 -0.1912
 1544SOL     OW 5941   1.923   2.634   1.695 -0.1910  0.3219  0.5464
 1544SOL    HW2 5942   1.879   2.619   1.611  0.6732  0.6592  0.0197
 1544SOL    HW3 5943   2.016   2.619   1.677  0.3497  2.8388  0.7843
 1544SOL    MW4 5944   1.930   2.630   1.682 -0.0056  0.6985  0.5083
 1545SOL     OW 5945   0.208   3.828   4.725  0.5953  0.0753 -0.3752
 1545SOL    HW2 5946   0.213   3.922   4.708  0.8651 -0.3066 -2.6830
 1545SOL    HW3 5947   0.117   3.812   4.750  0.8363  1.0978  1.3132
 1545SOL    MW4 5948   0.197   3.838   4.726  0.6627  0.1598 -0.4569
 1546SOL     OW 5949   2.034   5.529   6.206 -0.3502 -0.6371  0.3107
 1546SOL    HW2 5950   2.115   5.564   6.242 -0.1050 -0.3132 -0.5311
 1546SOL    HW3 5951   2.048   5.434   6.205 -0.2853 -0.6350  0.8748
 1546SOL    MW4 5952   2.047   5.521   6.211 -0.3093 -0.5941  0.2740
 1547SOL     OW 5953   2.835   3.176   0.440 -0.2789 -0.5886 -0.1887
 1547SOL    HW2 5954   2.847   3.162   0.346 -0.8074 -1.2797 -0.1589
 1547SOL    HW3 5955   2.741   3.170   0.454 -0.2530  0.0197  0.3173
 1547SOL    MW4 5956   2.825   3.174   0.430 -0.3452 -0.5995 -0.1180
 1548SOL     OW 5957   2.573   5.081   2.370  0.2964  0.3926  0.4748
 1548SOL    HW2 5958   2.582   5.104   2.462  1.3039  1.7848  0.0512
 1548SOL    HW3 5959   2.528   5.156   2.330  0.3392  0.0322 -0.2721
 1548SOL    MW4 5960   2.568   5.094   2.377  0.4350  0.5287  0.3204
 1549SOL     OW 5961   4.690   1.658   4.165  0.6663  0.3627 -0.7417
 1549SOL    HW2 5962   4.695   1.567   4.137  0.3419  0.0192  0.2615
 1549SOL    HW3 5963   4.598   1.670   4.192  0.5718  1.1460 -1.3601
 1549SOL    MW4 5964   4.678   1.647   4.165  0.6110  0.4207 -0.6909
 1550SOL     OW 5965   6.409   0.694   2.972  0.3211  0.2271  0.2799
 1550SOL    HW2 5966   6.398   0.645   3.054 -0.2049 -1.7004 -0.8752
 1550SOL    HW3 5967   6.356   0.646   2.909  0.8896  1.5482 -1.2489
 1550SOL    MW4 5968   6.401   0.681   2.975  0.3267  0.1471 -0.0742
 1551SOL     OW 5969   4.248   3.929   2.757 -0.1374 -0.2852  0.2203
 1551SOL    HW2 5970   4.303   3.899   2.830  1.1555  0.9623 -0.2017
 1551SOL    HW3 5971   4.160   3.902   2.782  0.3831 -0.6342  1.8475
 1551SOL    MW4 5972   4.244   3.922   2.770  0.1018 -0.1667  0.3793
 1552SOL     OW 5973   1.865   0.846   2.426 -0.2501  0.1078 -0.3039
 1552SOL    HW2 5974   1.843   0.908   2.496  1.0454  1.3258 -0.9169
 1552SOL    HW3 5975   1.925   0.784   2.468 -0.0460  0.4114 -0.1337
 1552SOL    MW4 5976   1.870   0.846   2.441 -0.0523  0.3086 -0.3624
 1553SOL     OW 5977   4.739   2.085   3.219 -0.6578  0.2948  0.4118
 1553SOL    HW2 5978   4.782   2.037   3.147 -1.6336 -0.2464  0.1711
 1553SOL    HW3 5979   4.662   2.125   3.179 -0.2627  1.4577  0.7860
 1553SOL    MW4 5980   4.735   2.084   3.204 -0.7344  0.3768  0.4294
 1554SOL     OW 5981   1.304   0.511   3.274  0.0524 -0.0011 -0.2147
 1554SOL    HW2 5982   1.258   0.547   3.198 -3.4168 -2.4814  0.4733
 1554SOL    HW3 5983   1.336   0.426   3.244  0.3501 -0.1645  0.5403
 1554SOL    MW4 5984   1.302   0.504   3.260 -0.3661 -0.3499 -0.0243
 1555SOL     OW 5985   1.969   5.620   4.435 -0.2176  0.3449  0.2541
 1555SOL    HW2 5986   2.033   5.627   4.364 -0.8072  1.4473 -0.2005
 1555SOL    HW3 5987   1.947   5.526   4.439 -0.3924  0.2961 -1.2374
 1555SOL    MW4 5988   1.974   5.608   4.426 -0.3185  0.4839 -0.0027
 1556SOL     OW 5989   4.809   4.105   3.473  0.0253 -0.5672 -0.1834
 1556SOL    HW2 5990   4.757   4.025   3.480 -0.1180 -1.0872 -4.3756
 1556SOL    HW3 5991   4.747   4.176   3.487 -0.3000 -1.1414  1.4701
 1556SOL    MW4 5992   4.794   4.104   3.475 -0.0365 -0.7115 -0.5183
 1557SOL     OW 5993   3.138   0.715   2.092  0.0392  0.0871 -0.0839
 1557SOL    HW2 5994   3.044   0.717   2.074 -0.6054  4.4990  2.1841
 1557SOL    HW3 5995   3.180   0.734   2.008 -0.9688 -2.2096 -1.1773
 1557SOL    MW4 5996   3.131   0.718   2.079 -0.1788  0.3661  0.0711
 1558SOL     OW 5997   3.510   0.233   5.988  0.1573 -0.3366 -0.0848
 1558SOL    HW2 5998   3.491   0.158   5.932 -3.8560 -1.0165  1.8708
 1558SOL    HW3 5999   3.553   0.195   6.065  1.7060 -0.0032 -0.7528
 1558SOL    MW4 6000   3.513   0.219   5.991 -0.1679 -0.3823  0.0851
 1559SOL     OW 6001   6.355   2.584   4.727 -0.2741 -0.4566  0.0341
 1559SOL    HW2 6002   6.328   2.568   4.818 -0.6212  1.6049  0.3365
 1559SOL    HW3 6003   6.449   2.600   4.733 -0.1045 -1.3347 -0.1356
 1559SOL    MW4 6004   6.364   2.584   4.740 -0.2975 -0.3005  0.0516
 1560SOL     OW 6005   5.836   1.901   6.388 -0.0717 -0.0621 -0.0761
 1560SOL    HW2 6006   5.782   1.921   6.464 -1.1912 -2.2898 -0.1977
 1560SOL    HW3 6007   5.920   1.874   6.424 -0.1732  0.1203  0.2976
 1560SOL    MW4 6008   5.840   1.900   6.403 -0.2328 -0.3319 -0.0428
 1561SOL     OW 6009   1.262   1.389   5.440  0.2836 -0.1843 -0.2119
 1561SOL    HW2 6010   1.234   1.440   5.363  0.5957 -0.5512 -0.5712
 1561SOL    HW3 6011   1.180   1.371   5.487  0.3480  2.3918  1.0386
 1561SOL    MW4 6012   1.247   1.393   5.436  0.3333  0.1071 -0.0943
 1562SOL     OW 6013   4.879   3.732   4.072 -0.1626 -0.0668 -0.2837
 1562SOL    HW2 6014   4.892   3.824   4.052 -0.5611  0.8353  2.9868
 1562SOL    HW3 6015   4.967   3.695   4.074  0.0425  0.3737 -1.0382
 1562SOL    MW4 6016   4.892   3.739   4.070 -0.1881  0.1103  0.0482
 1563SOL     OW 6017   1.002   1.435   2.996 -0.0907  0.7697 -0.2681
 1563SOL    HW2 6018   0.980   1.510   3.052  0.6239  0.2510  0.7361
 1563SOL    HW3 6019   0.967   1.459   2.910 -3.1265  0.7005  0.8222
 1563SOL    MW4 6020   0.994   1.448   2.992 -0.3970  0.6921  0.0082
 1564SOL     OW 6021   0.033   2.908   3.452  0.2637 -0.2552 -0.0424
 1564SOL    HW2 6022   0.044   2.854   3.529  0.0483 -1.4306 -0.8062
 1564SOL    HW3 6023  -0.053   2.883   3.417  0.2784  0.3812 -0.5588
 1564SOL    MW4 6024   0.023   2.898   3.457  0.2372 -0.3263 -0.2113
 1565SOL     OW 6025   5.845   3.106   2.047 -0.0008 -0.2235 -0.1280
 1565SOL    HW2 6026   5.892   3.159   2.111 -2.0032 -0.4676  1.6498
 1565SOL    HW3 6027   5.909   3.043   2.015  0.7970 -0.8860  2.5724
 1565SOL    MW4 6028   5.859   3.104   2.051 -0.1597 -0.3431  0.4629
 1566SOL     OW 6029   2.611   5.932   4.534 -0.4104 -0.1849 -0.9518
 1566SOL    HW2 6030   2.649   6.001   4.480 -0.8975 -0.8463 -2.1588
 1566SOL    HW3 6031   2.683   5.903   4.590 -0.2458  1.4241 -0.2631
 1566SOL    MW4 6032   2.625   5.937   4.535 -0.4530 -0.0599 -1.0201
 1567SOL     OW 6033   6.065   1.804   2.107  0.1132  0.3345  0.3086
 1567SOL    HW2 6034   6.055   1.724   2.056  0.6143  2.0926 -2.8242
 1567SOL    HW3 6035   5.982   1.850   2.098 -1.2826 -0.9227  4.5237
 1567SOL    MW4 6036   6.053   1.800   2.099 -0.0048  0.4006  0.4514
 1568SOL     OW 6037   5.952   4.500   2.023  0.7710  0.5942  0.8285
 1568SOL    HW2 6038   5.987   4.424   2.070 -0.2763  0.2908  1.1326
 1568SOL    HW3 6039   5.868   4.518   2.065 -0.3611  0.1215 -1.1100
 1568SOL    MW4 6040   5.946   4.493   2.035  0.4835  0.4918  0.6128
 1569SOL     OW 6041   5.926   3.397   2.425 -0.1068  0.1997  0.7013
 1569SOL    HW2 6042   5.843   3.353   2.440  0.1130 -0.7890 -0.7915
 1569SOL    HW3 6043   5.990   3.343   2.472 -0.0546 -0.1473  0.2332
 1569SOL    MW4 6044   5.924   3.384   2.433 -0.0709  0.0235  0.4426
 1570SOL     OW 6045   0.130   3.813   1.616 -0.1466  0.2939  0.4847
 1570SOL    HW2 6046   0.210   3.821   1.669  0.2521  0.0615 -0.0749
 1570SOL    HW3 6047   0.124   3.896   1.569 -0.2136  0.2922  0.4904
 1570SOL    MW4 6048   0.140   3.825   1.617 -0.1028  0.2630  0.4116
 1571SOL     OW 6049   5.985   1.809   5.986  0.3853  0.2526 -0.7994
 1571SOL    HW2 6050   6.006   1.807   5.893  2.0771  0.0200 -0.4523
 1571SOL    HW3 6051   6.035   1.884   6.020 -0.1195  0.2643 -0.0486
 1571SOL    MW4 6052   5.995   1.819   5.978  0.5419  0.2235 -0.6545
 1572SOL     OW 6053   6.300   6.167   1.183 -0.3704  0.5662  0.1496
 1572SOL    HW2 6054   6.322   6.105   1.113  0.1929  0.2515  0.5937
 1572SOL    HW3 6055   6.275   6.111   1.257  1.3127  0.7985  0.9518
 1572SOL    MW4 6056   6.300   6.151   1.184 -0.0740  0.5553  0.3140
 1573SOL     OW 6057   6.309   4.506   2.450  0.5219 -0.1107  0.0653
 1573SOL    HW2 6058   6.227   4.537   2.411  0.9235  1.7895  0.6447
 1573SOL    HW3 6059   6.372   4.506   2.378  0.4602  0.2326  0.0104
 1573SOL    MW4 6060   6.307   4.510   2.435  0.5667  0.1853  0.1345
 1574SOL     OW 6061   1.313   2.227   0.377 -0.5671 -0.5219 -0.4620
 1574SOL    HW2 6062   1.336   2.141   0.340 -2.2777 -1.6966  0.9858
 1574SOL    HW3 6063   1.222   2.217   0.404 -0.8768  1.8688 -0.4543
 1574SOL    MW4 6064   1.304   2.214   0.376 -0.8337 -0.3615 -0.2700
 1575SOL     OW 6065   0.527   0.138   6.069  0.4592 -0.5213 -0.2529
 1575SOL    HW2 6066   0.493   0.227   6.073  0.9822 -0.3449  0.6585
 1575SOL    HW3 6067   0.621   0.148   6.088  0.5117 -1.2600 -0.0989
 1575SOL    MW4 6068   0.535   0.151   6.072  0.5351 -0.5955 -0.1123
 1576SOL     OW 6069   5.160   0.220   5.354  0.1824  0.2926  0.3297
 1576SOL    HW2 6070   5.234   0.276   5.374 -0.6363  1.0970  1.1733
 1576SOL    HW3 6071   5.122   0.197   5.439  0.1876 -1.1227 -0.0182
 1576SOL    MW4 6072   5.164   0.224   5.368  0.0751  0.2120  0.3951
 1577SOL     OW 6073   2.442   3.565   6.066 -0.8173 -0.5471  0.0510
 1577SOL    HW2 6074   2.359   3.606   6.088 -1.7492 -1.3109 -1.8068
 1577SOL    HW3 6075   2.427   3.471   6.081  0.0700 -0.5915  0.7356
 1577SOL    MW4 6076   2.429   3.558   6.071 -0.8232 -0.6538 -0.1037
 1578SOL     OW 6077   1.630   3.485   5.118  0.2567 -0.2744 -0.0426
 1578SOL    HW2 6078   1.703   3.431   5.150 -0.1789 -2.0853 -1.8775
 1578SOL    HW3 6079   1.658   3.575   5.134  3.0633 -0.8772 -0.9262
 1578SOL    MW4 6080   1.644   3.490   5.124  0.5695 -0.5929 -0.4013
 1579SOL     OW 6081   1.664   4.114   2.913 -0.0610 -0.2629 -0.2858
 1579SOL    HW2 6082   1.725   4.184   2.938  0.1674 -0.1404 -1.1398
 1579SOL    HW3 6083   1.626   4.084   2.996 -1.4489  2.0306  0.0029
 1579SOL    MW4 6084   1.667   4.119   2.927 -0.2140  0.0559 -0.3604
 1580SOL     OW 6085   1.292   2.268   1.993  0.4645 -0.1730 -0.5297
 1580SOL    HW2 6086   1.368   2.324   1.980  0.8513 -0.6934 -0.5510
 1580SOL    HW3 6087   1.311   2.221   2.074  0.0974 -0.2032 -0.4588
 1580SOL    MW4 6088   1.304   2.269   2.002  0.4671 -0.2457 -0.5232
 1581SOL     OW 6089   2.282   2.198   1.685 -0.5909  0.0905  0.1330
 1581SOL    HW2 6090   2.336   2.252   1.628 -0.4511  1.5469  1.5560
 1581SOL    HW3 6091   2.220   2.154   1.627  1.0254 -0.3046 -1.3454
 1581SOL    MW4 6092   2.281   2.199   1.670 -0.3592  0.2305  0.1257
 1582SOL     OW 6093   5.985   3.775   2.090 -0.3455 -0.0414  0.5084
 1582SOL    HW2 6094   6.024   3.704   2.040 -0.2993  0.1653  0.2536
 1582SOL    HW3 6095   5.945   3.833   2.025 -2.6032 -1.1244  0.8042
 1582SOL    MW4 6096   5.985   3.773   2.075 -0.6373 -0.1571  0.5138
 1583SOL     OW 6097   6.047   0.422   2.383  0.5673 -0.0296  0.1791
 1583SOL    HW2 6098   6.014   0.447   2.296 -0.1708 -0.3134  0.3746
 1583SOL    HW3 6099   6.073   0.505   2.423 -0.2922  0.2450  0.1781
 1583SOL    MW4 6100   6.046   0.437   2.377  0.3565 -0.0308  0.2048
 1584SOL     OW 6101   2.610   3.038   6.048  0.1513  0.4343  0.4683
 1584SOL    HW2 6102   2.582   3.069   5.962  1.8377 -1.6970 -0.9809
 1584SOL    HW3 6103   2.549   2.968   6.070  0.7156 -0.1622  0.1707
 1584SOL    MW4 6104   2.599   3.033   6.039  0.4483  0.0744  0.2378
 1585SOL     OW 6105   1.603   4.047   1.452 -0.5600  0.5232 -0.2768
 1585SOL    HW2 6106   1.536   4.114   1.438 -0.9202  0.4804  1.0722
 1585SOL    HW3 6107   1.676   4.073   1.395 -1.1060  1.4613 -0.5655
 1585SOL    MW4 6108   1.604   4.060   1.443 -0.6796  0.6413 -0.1369
 1586SOL     OW 6109   2.748   1.056   3.002  0.5676  0.0607  0.1517
 1586SOL    HW2 6110   2.698   0.988   3.047 -0.5646 -0.3433 -1.6016
 1586SOL    HW3 6111   2.761   1.124   3.068 -0.9946 -0.5020  1.1037
 1586SOL    MW4 6112   2.743   1.056   3.016  0.2121 -0.0669  0.0460
 1587SOL     OW 6113   6.047   4.138   1.748  0.0932 -0.2291  1.0644
 1587SOL    HW2 6114   6.030   4.176   1.662 -2.3563 -0.9667  1.1559
 1587SOL    HW3 6115   6.134   4.098   1.740  0.6300  1.1621 -0.5156
 1587SOL    MW4 6116   6.056   4.138   1.735 -0.1591 -0.1429  0.8680
 1588SOL     OW 6117   1.680   1.047   2.299 -0.1059 -0.1112  0.4431
 1588SOL    HW2 6118   1.604   1.075   2.248 -0.1319  0.1764  0.6331
 1588SOL    HW3 6119   1.643   1.027   2.386 -0.3532 -2.3151 -0.1338
 1588SOL    MW4 6120   1.665   1.048   2.304 -0.1420 -0.3641  0.3921
 1589SOL     OW 6121   1.731   1.618   1.194 -0.7681  0.3711 -0.2882
 1589SOL    HW2 6122   1.682   1.565   1.257 -1.3478  0.1711 -0.9002
 1589SOL    HW3 6123   1.817   1.576   1.190 -0.5958  0.6233  0.6614
 1589SOL    MW4 6124   1.736   1.605   1.202 -0.8218  0.3780 -0.2437
 1590SOL     OW 6125   2.181   3.068   3.315 -0.3485 -0.1150  0.2016
 1590SOL    HW2 6126   2.193   3.019   3.234 -0.8777  1.6060 -0.9894
 1590SOL    HW3 6127   2.164   3.002   3.382 -0.1289 -1.5714 -1.1316
 1590SOL    MW4 6128   2.181   3.053   3.313 -0.3894 -0.0801 -0.1314
 1591SOL     OW 6129   5.191   0.657   4.464 -0.2992  0.4769  0.9639
 1591SOL    HW2 6130   5.263   0.613   4.508 -0.8735  0.0399  1.4889
 1591SOL    HW3 6131   5.198   0.629   4.373 -0.8757 -1.0575  1.3452
 1591SOL    MW4 6132   5.201   0.647   4.458 -0.4510  0.2168  1.0835
 1592SOL     OW 6133   1.190   2.141   4.406  0.1644  0.5330 -0.1744
 1592SOL    HW2 6134   1.118   2.094   4.364  0.3646  0.0177  0.0444
 1592SOL    HW3 6135   1.208   2.215   4.348 -0.2028  0.3789 -0.4910
 1592SOL    MW4 6136   1.183   2.144   4.393  0.1424  0.4447 -0.1873
 1593SOL     OW 6137   1.770   2.408   1.144 -0.4461 -0.3905 -0.5155
 1593SOL    HW2 6138   1.777   2.348   1.070  0.2710 -0.2863 -0.5379
 1593SOL    HW3 6139   1.680   2.439   1.141 -0.7952 -1.3640 -0.5845
 1593SOL    MW4 6140   1.759   2.404   1.134 -0.3975 -0.5052 -0.5275
 1594SOL     OW 6141   5.099   3.986   6.212 -0.3208  0.0433  0.8263
 1594SOL    HW2 6142   5.166   4.043   6.250 -0.1269  0.5830 -0.2896
 1594SOL    HW3 6143   5.148   3.917   6.168 -0.5161  0.1555  0.4330
 1594SOL    MW4 6144   5.114   3.984   6.212 -0.3210  0.1293  0.6272
 1595SOL     OW 6145   3.219   6.414   5.236  0.2552  0.2889 -0.6924
 1595SOL    HW2 6146   3.191   6.406   5.144  0.6081  1.2067 -0.8953
 1595SOL    HW3 6147   3.176   6.341   5.281 -2.0701  1.3363 -1.0681
 1595SOL    MW4 6148   3.210   6.404   5.229 -0.0050  0.5482 -0.7688
 1596SOL     OW 6149   0.938   0.496   2.024 -0.3059 -0.2735 -0.6101
 1596SOL    HW2 6150   0.848   0.513   1.995 -0.4997 -0.0739  0.0803
 1596SOL    HW3 6151   0.985   0.471   1.944 -0.9901 -0.4455 -0.9660
 1596SOL    MW4 6152   0.932   0.495   2.009 -0.4217 -0.2699 -0.5660
 1597SOL     OW 6153   1.869   1.789   5.502  0.1530 -0.0020  0.3126
 1597SOL    HW2 6154   1.935   1.848   5.540 -0.5212  1.0014 -0.0533
 1597SOL    HW3 6155   1.852   1.824   5.415  0.0608 -1.0093 -0.0881
 1597SOL    MW4 6156   1.875   1.801   5.496  0.0519 -0.0025  0.2115
 1598SOL     OW 6157   5.940   5.514   2.983  0.2129 -0.5053  0.1144
 1598SOL    HW2 6158   6.008   5.469   3.034  0.9191  1.3386  0.8916
 1598SOL    HW3 6159   5.989   5.565   2.918 -0.3560  1.1564  0.9294
 1598SOL    MW4 6160   5.956   5.515   2.981  0.2310 -0.0428  0.3245
 1599SOL     OW 6161   5.224   1.679   4.181  0.5527 -0.1035  0.0938
 1599SOL    HW2 6162   5.222   1.765   4.139  2.0184 -0.2223 -0.2904
 1599SOL    HW3 6163   5.181   1.693   4.265 -0.5123  0.6495 -0.5481
 1599SOL    MW4 6164   5.218   1.692   4.187  0.6056 -0.0198 -0.0416
 1600SOL     OW 6165   1.491   0.865   0.121  0.1705 -0.1019 -0.0934
 1600SOL    HW2 6166   1.442   0.814   0.056  0.3276 -0.6970  0.2404
 1600SOL    HW3 6167   1.577   0.878   0.082  0.1912 -0.2600 -0.1007
 1600SOL    MW4 6168   1.496   0.860   0.107  0.1940 -0.2013 -0.0503
 1601SOL     OW 6169   5.377   5.900   3.470 -0.5735 -0.5130 -0.7402
 1601SOL    HW2 6170   5.456   5.938   3.509 -0.6457 -0.9943 -0.1072
 1601SOL    HW3 6171   5.379   5.808   3.496 -1.4641 -0.4791 -0.5227
 1601SOL    MW4 6172   5.388   5.893   3.478 -0.7005 -0.5721 -0.6280
 1602SOL     OW 6173   1.473   2.128   3.320  0.2244  0.3646 -0.2786
 1602SOL    HW2 6174   1.544   2.103   3.380 -0.3112  1.2846  0.7669
 1602SOL    HW3 6175   1.469   2.223   3.326 -2.8731  0.2391  1.8132
 1602SOL    MW4 6176   1.482   2.137   3.329 -0.2549  0.4694  0.1353
 1603SOL     OW 6177   0.684   0.316   5.289  0.2031 -0.2761  0.6859
 1603SOL    HW2 6178   0.765   0.334   5.337  0.5620 -0.1774  0.0607
 1603SOL    HW3 6179   0.685   0.222   5.273  0.5850 -0.1664  0.0129
 1603SOL    MW4 6180   0.695   0.306   5.293  0.3008 -0.2486  0.5146
 1604SOL     OW 6181   4.703   6.386   1.913 -0.2681 -0.1691  0.1728
 1604SOL    HW2 6182   4.763   6.330   1.864 -1.5456 -0.9164 -0.5773
 1604SOL    HW3 6183   4.617   6.369   1.875 -1.4046 -1.0481  2.8929
 1604SOL    MW4 6184   4.700   6.376   1.902 -0.5866 -0.3837  0.4327
 1605SOL     OW 6185   1.746   4.365   2.997 -0.0702  0.0351 -0.0015
 1605SOL    HW2 6186   1.840   4.380   2.982  0.2029 -2.4362 -1.3706
 1605SOL    HW3 6187   1.706   4.378   2.911 -0.6733 -0.8366  0.1323
 1605SOL    MW4 6188   1.753   4.368   2.983 -0.1137 -0.4059 -0.1644
 1606SOL     OW 6189   5.825   0.851   3.039  0.0435 -0.1616 -0.3981
 1606SOL    HW2 6190   5.833   0.928   2.982 -1.4512  0.9810  0.8602
 1606SOL    HW3 6191   5.879   0.872   3.115 -1.7849  0.5071  0.7809
 1606SOL    MW4 6192   5.833   0.864   3.042 -0.3949  0.0774 -0.0765
 1607SOL     OW 6193   0.330   1.027   2.307 -0.1336  0.3618  0.4598
 1607SOL    HW2 6194   0.288   1.112   2.321 -0.3738  0.0071  2.1155
 1607SOL    HW3 6195   0.421   1.048   2.290 -0.2838  0.9740  0.3845
 1607SOL    MW4 6196   0.336   1.041   2.307 -0.1851  0.3958  0.6683
 1608SOL     OW 6197   0.912   6.183   2.441 -0.4407 -0.2192 -0.3078
 1608SOL    HW2 6198   0.979   6.195   2.374  2.3521 -0.5727  2.1888
 1608SOL    HW3 6199   0.886   6.091   2.433  1.5734 -0.9157  0.4226
 1608SOL    MW4 6200   0.918   6.172   2.431  0.1935 -0.3577  0.1179
 1609SOL     OW 6201   5.184   3.868   5.789 -0.2081 -0.0773 -0.1605
 1609SOL    HW2 6202   5.155   3.958   5.794  4.1772  1.6363 -0.8368
 1609SOL    HW3 6203   5.173   3.834   5.878  1.7010  2.5800  1.2376
 1609SOL    MW4 6204   5.179   3.875   5.801  0.6224  0.4994 -0.0653
 1610SOL     OW 6205   6.289   2.848   1.840  0.0067  0.2367 -0.1585
 1610SOL    HW2 6206   6.313   2.777   1.900  1.1737  0.9358  0.2491
 1610SOL    HW3 6207   6.274   2.804   1.756  3.0502 -0.3212 -0.5330
 1610SOL    MW4 6208   6.291   2.833   1.837  0.5622  0.2554 -0.1541
 1611SOL     OW 6209   4.584   0.841   2.050  0.1917 -0.1279 -0.4919
 1611SOL    HW2 6210   4.622   0.911   1.996 -0.3727  0.9803  0.4899
 1611SOL    HW3 6211   4.498   0.824   2.010 -0.3719  0.9324  0.2150
 1611SOL    MW4 6212   4.577   0.848   2.038  0.0429  0.1582 -0.2691
 1612SOL     OW 6213   3.231   4.372   0.737 -0.3142 -0.4254 -0.4343
 1612SOL    HW2 6214   3.233   4.352   0.644 -1.1370 -0.0981 -0.5349
 1612SOL    HW3 6215   3.161   4.316   0.772 -0.4925 -0.0387 -0.1534
 1612SOL    MW4 6216   3.222   4.362   0.729 -0.4463 -0.3312 -0.4105
 1613SOL     OW 6217   1.801   4.714   6.375  0.3186  0.3811  0.2219
 1613SOL    HW2 6218   1.886   4.708   6.332  0.9448 -0.9284  1.5677
 1613SOL    HW3 6219   1.741   4.740   6.305  1.9563  2.3600 -0.5353
 1613SOL    MW4 6220   1.804   4.717   6.360  0.6173  0.4694  0.2996
 1614SOL     OW 6221   5.043   0.675   6.174  0.2890  0.6762  0.0568
 1614SOL    HW2 6222   5.083   0.598   6.214  1.1811  0.3600 -1.3455
 1614SOL    HW3 6223   5.098   0.693   6.098 -1.5248  1.0008 -1.2507
 1614SOL    MW4 6224   5.056   0.667   6.169  0.1674  0.6773 -0.3007
 1615SOL     OW 6225   4.924   3.140   2.886 -0.1442 -0.1030  0.0682
 1615SOL    HW2 6226   4.838   3.146   2.845 -0.8329 -0.6243  1.3666
 1615SOL    HW3 6227   4.913   3.182   2.971  1.3714  1.3897 -0.4145
 1615SOL    MW4 6228   4.912   3.146   2.892 -0.0351  0.0252  0.1758
 1616SOL     OW 6229   3.776   4.235   1.982 -0.0990 -0.4067 -0.1190
 1616SOL    HW2 6230   3.716   4.160   1.973 -0.6278  0.1573 -1.6583
 1616SOL    HW3 6231   3.803   4.254   1.892  1.3558  0.2005  0.4303
 1616SOL    MW4 6232   3.772   4.227   1.969  0.0232 -0.2522 -0.2496
 1617SOL     OW 6233   2.214   3.250   2.465  0.1610  0.3475 -0.1560
 1617SOL    HW2 6234   2.241   3.245   2.557 -0.1648 -2.1374 -0.1184
 1617SOL    HW3 6235   2.292   3.223   2.416 -0.2423 -0.2895 -0.4592
 1617SOL    MW4 6236   2.228   3.246   2.471  0.0648 -0.0644 -0.1911
 1618SOL     OW 6237   5.538   1.130   4.796  0.0874 -0.2555  0.2293
 1618SOL    HW2 6238   5.451   1.170   4.794 -0.2573 -1.0257 -0.8228
 1618SOL    HW3 6239   5.594   1.190   4.747 -0.3239 -0.7960 -0.9298
 1618SOL    MW4 6240   5.534   1.143   4.789 -0.0124 -0.4285 -0.0624
 1619SOL     OW 6241   1.956   4.746   3.012 -0.7338 -0.3795  0.7417
 1619SOL    HW2 6242   1.972   4.840   3.016  0.2025 -0.5541  1.6410
 1619SOL    HW3 6243   1.900   4.734   2.935  0.5422  0.7098 -0.4087
 1619SOL    MW4 6244   1.951   4.757   3.002 -0.4419 -0.2588  0.7085
 1620SOL     OW 6245   1.847   2.858   6.074 -0.2904  0.1093 -0.0688
 1620SOL    HW2 6246   1.803   2.912   6.139 -0.2809  0.7418 -0.5818
 1620SOL    HW3 6247   1.780   2.795   6.046 -0.4177  0.1073  0.2371
 1620SOL    MW4 6248   1.832   2.857   6.079 -0.3059  0.1925 -0.0961
 1621SOL     OW 6249   3.373   0.229   0.116  0.2866 -0.3523 -0.1561
 1621SOL    HW2 6250   3.286   0.242   0.154  0.1097 -1.3701 -0.1795
 1621SOL    HW3 6251   3.380   0.297   0.049 -0.6888 -0.5372 -0.4739
 1621SOL    MW4 6252   3.362   0.240   0.112  0.1345 -0.5110 -0.2011
 1622SOL     OW 6253   4.512   4.807   5.970  0.0567  0.0701  0.0400
 1622SOL    HW2 6254   4.455   4.796   6.046  0.6734  1.4241  0.7176
 1622SOL    HW3 6255   4.596   4.770   5.997 -0.1215 -0.7865 -0.5214
 1622SOL    MW4 6256   4.515   4.800   5.983  0.1146  0.1357  0.0553
 1623SOL     OW 6257   2.433   4.886   1.609 -0.0337 -0.5807 -0.3020
 1623SOL    HW2 6258   2.527   4.873   1.615  0.3670  1.4355 -1.3423
 1623SOL    HW3 6259   2.407   4.840   1.529  0.3992  0.2645 -0.9496
 1623SOL    MW4 6260   2.442   4.879   1.599  0.0763 -0.2032 -0.5247
 1624SOL     OW 6261   0.681   1.142   1.598  0.5805  0.5232 -0.0699
 1624SOL    HW2 6262   0.636   1.226   1.604 -0.5520  0.0626 -1.4890
 1624SOL    HW3 6263   0.772   1.166   1.580  0.7045  1.4500  1.6021
 1624SOL    MW4 6264   0.687   1.157   1.596  0.4475  0.5847 -0.0365
 1625SOL     OW 6265   1.564   2.180   1.626 -0.0371  0.1576 -0.0791
 1625SOL    HW2 6266   1.591   2.253   1.682  0.1209  0.0765 -0.0497
 1625SOL    HW3 6267   1.470   2.171   1.642 -0.6588  2.0733 -2.0330
 1625SOL    MW4 6268   1.555   2.189   1.635 -0.0983  0.3996 -0.3331
 1626SOL     OW 6269   1.164   3.266   6.355  0.2074  0.5804  0.5437
 1626SOL    HW2 6270   1.135   3.294   6.268  3.6277 -1.2114 -1.3821
 1626SOL    HW3 6271   1.219   3.337   6.386  0.9175  0.2311  0.1134
 1626SOL    MW4 6272   1.167   3.279   6.348  0.7523  0.2979  0.2328
 1627SOL     OW 6273   1.810   4.723   4.154 -0.5466 -0.1139  0.7551
 1627SOL    HW2 6274   1.752   4.795   4.128 -1.4948 -0.4557  1.8561
 1627SOL    HW3 6275   1.757   4.669   4.213 -0.2488 -2.3717 -0.9031
 1627SOL    MW4 6276   1.795   4.725   4.158 -0.6324 -0.4569  0.6816
 1628SOL     OW 6277   1.787   1.521   0.237  0.2755  0.3725  0.7596
 1628SOL    HW2 6278   1.851   1.592   0.226  1.0455 -0.2032  1.4704
 1628SOL    HW3 6279   1.815   1.475   0.316  0.6862 -1.6679 -0.5142
 1628SOL    MW4 6280   1.799   1.525   0.246  0.4313  0.0273  0.6853
 1629SOL     OW 6281   2.975   2.755   1.069 -0.1301 -0.1336  0.8052
 1629SOL    HW2 6282   2.996   2.671   1.027 -1.2290  0.2636 -0.6359
 1629SOL    HW3 6283   3.051   2.810   1.052  0.2110 -0.5442  0.9629
 1629SOL    MW4 6284   2.988   2.751   1.061 -0.2301 -0.1354  0.6358
 1630SOL     OW 6285   1.791   5.832   1.129  0.2426 -0.4821 -0.0032
 1630SOL    HW2 6286   1.736   5.760   1.161  0.8675 -0.8653  0.2397
 1630SOL    HW3 6287   1.879   5.794   1.126  0.6354  0.3694  0.4348
 1630SOL    MW4 6288   1.796   5.817   1.133  0.3769 -0.4203  0.0866
 1631SOL     OW 6289   0.964   4.962   2.368  0.0882 -0.8614 -0.2531
 1631SOL    HW2 6290   1.033   5.018   2.330  0.1140  0.9200  2.1347
 1631SOL    HW3 6291   0.884   5.014   2.360  0.1380 -0.2483  2.1520
 1631SOL    MW4 6292   0.963   4.976   2.362  0.0981 -0.5455  0.3793
 1632SOL     OW 6293   3.939   1.356   5.927  0.1437 -0.5236  0.5673
 1632SOL    HW2 6294   3.975   1.445   5.923 -2.4587  0.5758 -2.4620
 1632SOL    HW3 6295   3.906   1.339   5.839 -2.8348 -3.0215  1.9603
 1632SOL    MW4 6296   3.940   1.366   5.915 -0.5926 -0.7081  0.3514
 1633SOL     OW 6297   4.971   2.537   4.072 -0.3616  0.2720 -0.5263
 1633SOL    HW2 6298   5.005   2.586   3.997  2.2339 -0.5101  0.0514
 1633SOL    HW3 6299   4.897   2.488   4.037 -1.6520  2.8307 -1.6297
 1633SOL    MW4 6300   4.966   2.537   4.058 -0.1894  0.5064 -0.5957
 1634SOL     OW 6301   3.650   3.298   1.052 -0.7220  0.0644  0.2248
 1634SOL    HW2 6302   3.558   3.272   1.038 -1.1048  0.5117  1.6680
 1634SOL    HW3 6303   3.693   3.218   1.081 -0.0714 -0.7093 -2.5875
 1634SOL    MW4 6304   3.643   3.284   1.054 -0.6866  0.0213  0.0442
 1635SOL     OW 6305   0.799   4.841   5.212  0.0805 -0.0926  0.1665
 1635SOL    HW2 6306   0.863   4.885   5.157  1.2814  0.4697  1.9101
 1635SOL    HW3 6307   0.718   4.843   5.161  0.2812  3.2936 -0.2992
 1635SOL    MW4 6308   0.797   4.847   5.198  0.2654  0.4283  0.3351
 1636SOL     OW 6309   1.906   3.111   1.204 -0.4007 -0.3769  0.0810
 1636SOL    HW2 6310   1.966   3.179   1.234 -2.2865  2.7474 -2.5589
 1636SOL    HW3 6311   1.933   3.095   1.113 -1.3671 -1.5687 -0.0178
 1636SOL    MW4 6312   1.917   3.118   1.196 -0.7770 -0.1219 -0.2803
 1637SOL     OW 6313   4.324   4.649   2.959  0.5155 -0.2858 -0.2022
 1637SOL    HW2 6314   4.229   4.656   2.946  0.4170 -0.8655  0.1675
 1637SOL    HW3 6315   4.334   4.580   3.024  1.3062 -2.3601 -2.3458
 1637SOL    MW4 6316   4.312   4.641   2.966  0.6068 -0.6359 -0.4362
 1638SOL     OW 6317   5.150   6.361   1.450 -0.1413 -0.5139  0.5862
 1638SOL    HW2 6318   5.141   6.341   1.543 -1.7363  0.0822  0.5783
 1638SOL    HW3 6319   5.139   6.456   1.444  1.6297 -0.3034 -0.0416
 1638SOL    MW4 6320   5.147   6.371   1.461 -0.1181 -0.4075  0.5023
 1639SOL     OW 6321   3.257   5.750   6.229  0.3507 -0.0498  0.1821
 1639SOL    HW2 6322   3.296   5.671   6.265  0.7037  0.4337  0.8691
 1639SOL    HW3 6323   3.236   5.727   6.138  0.2215 -1.0054  0.4460
 1639SOL    MW4 6324   3.259   5.737   6.222  0.3802 -0.1121  0.3076
 1640SOL     OW 6325   1.195   0.128   5.810  0.3388  0.4733  0.2088
 1640SOL    HW2 6326   1.244   0.051   5.840  0.5400 -0.5531 -2.5107
 1640SOL    HW3 6327   1.123   0.093   5.758 -0.2883  2.1116 -0.1034
 1640SOL    MW4 6328   1.192   0.114   5.807  0.2826  0.5541 -0.1912
 1641SOL     OW 6329   4.181   1.450   0.680  0.2408  0.3743 -0.2258
 1641SOL    HW2 6330   4.236   1.372   0.687  0.9531  1.0051  2.2407
 1641SOL    HW3 6331   4.121   1.442   0.754  0.2613  2.1035  0.0033
 1641SOL    MW4 6332   4.180   1.439   0.691  0.3375  0.6857  0.1298
 1642SOL     OW 6333   0.918   2.036   4.620 -0.0257 -0.2154  0.5398
 1642SOL    HW2 6334   0.840   2.026   4.674 -0.0690  0.3964  0.5950
 1642SOL    HW3 6335   0.982   2.078   4.677 -1.1477  3.6698 -0.7528
 1642SOL    MW4 6336   0.916   2.040   4.634 -0.1794  0.3779  0.3765
 1643SOL     OW 6337   1.274   6.372   2.985 -0.1272  0.3963 -0.4438
 1643SOL    HW2 6338   1.213   6.298   2.980 -2.1169  1.9804 -0.8333
 1643SOL    HW3 6339   1.262   6.418   2.902  1.9817  0.5147 -0.7251
 1643SOL    MW4 6340   1.264   6.368   2.974 -0.1115  0.6209 -0.5323
 1644SOL     OW 6341   2.318   1.759   2.968 -0.0142 -0.2456  1.0483
 1644SOL    HW2 6342   2.300   1.667   2.988 -2.9579 -0.4465 -1.5662
 1644SOL    HW3 6343   2.305   1.805   3.051 -0.6193 -1.9891  1.9714
 1644SOL    MW4 6344   2.314   1.753   2.982 -0.4824 -0.5022  0.8252
 1645SOL     OW 6345   2.607   1.939   4.420  0.2402  0.0185 -0.0875
 1645SOL    HW2 6346   2.521   1.955   4.381 -0.0955  1.4932  1.1534
 1645SOL    HW3 6347   2.589   1.886   4.497  0.2061  1.4854  0.9723
 1645SOL    MW4 6348   2.593   1.934   4.425  0.1914  0.4066  0.2161
 1646SOL     OW 6349   5.706   5.136   2.037 -0.8122  0.6695  0.1664
 1646SOL    HW2 6350   5.655   5.124   1.957  2.2859  0.0968 -1.9065
 1646SOL    HW3 6351   5.792   5.167   2.006  1.4369 -2.1084  3.0080
 1646SOL    MW4 6352   5.711   5.139   2.022 -0.1067  0.2274  0.2678
 1647SOL     OW 6353   4.183   1.726   0.631  0.6905 -0.3465 -0.1644
 1647SOL    HW2 6354   4.270   1.757   0.603  1.3023 -0.8340  1.0803
 1647SOL    HW3 6355   4.196   1.633   0.651  0.0203 -0.3011  0.5279
 1647SOL    MW4 6356   4.196   1.718   0.630  0.6828 -0.4048  0.0912
 1648SOL     OW 6357   2.337   2.657   5.566  0.2214  0.7587 -0.2755
 1648SOL    HW2 6358   2.315   2.749   5.583  0.1587  0.6860  0.0447
 1648SOL    HW3 6359   2.332   2.615   5.652  1.3212  0.6832 -0.2385
 1648SOL    MW4 6360   2.333   2.664   5.579  0.3582  0.7391 -0.2284
 1649SOL     OW 6361   0.564   3.511   4.692 -1.0322 -0.8991  0.2776
 1649SOL    HW2 6362   0.592   3.469   4.774 -0.7063 -1.5802 -0.1765
 1649SOL    HW3 6363   0.594   3.453   4.623 -1.0227 -0.1637 -0.3549
 1649SOL    MW4 6364   0.571   3.498   4.694 -0.9880 -0.8920  0.1343
 1650SOL     OW 6365   0.453   4.786   6.305  0.1667 -0.1456  0.0897
 1650SOL    HW2 6366   0.487   4.697   6.308  1.0192  0.1735  0.1007
 1650SOL    HW3 6367   0.425   4.804   6.395  0.1835 -0.3324  0.1325
 1650SOL    MW4 6368   0.454   4.777   6.317  0.2814 -0.1281  0.0968
 1651SOL     OW 6369   5.660   5.294   4.239 -0.1421  0.3517 -0.3681
 1651SOL    HW2 6370   5.745   5.252   4.251  0.2498  0.3558 -2.6704
 1651SOL    HW3 6371   5.608   5.231   4.189 -0.2194  1.7095 -2.1407
 1651SOL    MW4 6372   5.664   5.280   4.234 -0.1006  0.5314 -0.9057
 1652SOL     OW 6373   5.116   3.094   3.176 -0.5960 -0.3002 -0.2251
 1652SOL    HW2 6374   5.184   3.140   3.224 -0.5265 -0.8588  0.2162
 1652SOL    HW3 6375   5.160   3.059   3.098 -0.3715 -0.6948  0.0801
 1652SOL    MW4 6376   5.131   3.096   3.172 -0.5572 -0.4260 -0.1266
 1653SOL     OW 6377   5.279   0.116   1.065  0.1652 -0.1380 -0.5729
 1653SOL    HW2 6378   5.234   0.155   0.990  0.2349 -0.0813 -0.5850
 1653SOL    HW3 6379   5.221   0.044   1.093 -0.4705  0.6014  0.0720
 1653SOL    MW4 6380   5.265   0.111   1.059  0.0905 -0.0330 -0.4894
 1654SOL     OW 6381   2.449   3.837   4.050  0.2620 -0.9327  0.2433
 1654SOL    HW2 6382   2.379   3.901   4.044 -1.2060 -2.5819 -1.3138
 1654SOL    HW3 6383   2.524   3.886   4.082 -1.4120  1.0343  1.3985
 1654SOL    MW4 6384   2.449   3.852   4.054 -0.1525 -0.8908  0.1903
 1655SOL     OW 6385   0.456   1.187   2.658 -0.3700  0.1289 -0.5522
 1655SOL    HW2 6386   0.485   1.223   2.575 -0.5362 -1.6882 -1.4605
 1655SOL    HW3 6387   0.430   1.097   2.637  0.2042 -0.6032  1.5788
 1655SOL    MW4 6388   0.456   1.180   2.645 -0.3162 -0.2075 -0.3909
 1656SOL     OW 6389   6.056   2.531   5.724  0.2370 -0.1683  0.0018
 1656SOL    HW2 6390   6.121   2.573   5.667  1.2992 -1.8560 -0.0848
 1656SOL    HW3 6391   6.075   2.567   5.811  0.6643  0.0688 -0.1832
 1656SOL    MW4 6392   6.067   2.541   5.728  0.4335 -0.3597 -0.0340
 1657SOL     OW 6393   4.650   5.140   5.064  0.6671 -0.2051  0.4276
 1657SOL    HW2 6394   4.665   5.107   5.152 -0.2493  0.0928  0.7091
 1657SOL    HW3 6395   4.622   5.063   5.014  4.4852 -1.1801 -0.5659
 1657SOL    MW4 6396   4.648   5.125   5.069  1.0499 -0.2945  0.3337
 1658SOL     OW 6397   3.392   0.841   0.098  0.1295 -0.1172  0.3064
 1658SOL    HW2 6398   3.385   0.775   0.166 -0.4349 -0.9033 -0.4987
 1658SOL    HW3 6399   3.417   0.793   0.019  1.4964  0.8718  0.1061
 1658SOL    MW4 6400   3.394   0.826   0.096  0.2354 -0.0905  0.1737
 1659SOL     OW 6401   1.246   0.417   4.753  0.3423 -0.1057  0.6077
 1659SOL    HW2 6402   1.152   0.410   4.772  0.0923 -1.2518 -0.7935
 1659SOL    HW3 6403   1.285   0.343   4.798 -0.0904 -2.1357 -2.0647
 1659SOL    MW4 6404   1.239   0.406   4.761  0.2522 -0.5247  0.0703
 1660SOL     OW 6405   2.870   3.433   3.633 -0.1570  0.0429 -0.0600
 1660SOL    HW2 6406   2.912   3.383   3.563  0.6165 -0.4836  0.7579
 1660SOL    HW3 6407   2.866   3.523   3.599  0.7719 -0.0856 -0.5314
 1660SOL    MW4 6408   2.875   3.438   3.619  0.0676 -0.0435 -0.0143
 1661SOL     OW 6409   3.959   0.245   5.488 -0.5693  0.1399 -0.3409
 1661SOL    HW2 6410   3.865   0.236   5.504 -0.6120  1.8614  0.6877
 1661SOL    HW3 6411   3.977   0.338   5.505  1.7437 -0.6007  1.8210
 1661SOL    MW4 6412   3.949   0.256   5.492 -0.2698  0.2693  0.0800
 1662SOL     OW 6413   4.029   5.212   5.895 -0.1031  0.2911 -0.5523
 1662SOL    HW2 6414   3.946   5.220   5.943 -0.1583 -0.6647 -0.4599
 1662SOL    HW3 6415   4.073   5.138   5.936  1.7570  2.0254  0.7635
 1662SOL    MW4 6416   4.024   5.203   5.906  0.1351  0.3938 -0.3665
 1663SOL     OW 6417   3.097   5.621   3.289 -0.1982  0.0728 -0.5172
 1663SOL    HW2 6418   3.108   5.716   3.300  0.1927  0.0478 -0.6769
 1663SOL    HW3 6419   3.133   5.603   3.202  0.1402 -0.2883 -0.3023
 1663SOL    MW4 6420   3.103   5.631   3.279 -0.1020  0.0219 -0.5099
 1664SOL     OW 6421   5.451   5.646   0.941  0.0550  0.4923 -0.0623
 1664SOL    HW2 6422   5.382   5.580   0.942  0.9822 -0.5106 -0.1763
 1664SOL    HW3 6423   5.414   5.719   0.892 -0.4399 -0.5695 -1.3293
 1664SOL    MW4 6424   5.437   5.647   0.935  0.1120  0.2199 -0.2445
 1665SOL     OW 6425   0.242   3.894   3.339  0.1698 -0.1452  0.1248
 1665SOL    HW2 6426   0.305   3.830   3.305 -0.3462 -0.9679  0.6927
 1665SOL    HW3 6427   0.219   3.861   3.426 -0.8547  0.2893  0.0249
 1665SOL    MW4 6428   0.247   3.881   3.346 -0.0335 -0.1964  0.1865
 1666SOL     OW 6429   4.710   6.209   2.977 -0.3045 -0.7763 -0.0002
 1666SOL    HW2 6430   4.745   6.120   2.981  1.3275 -0.1342  1.0551
 1666SOL    HW3 6431   4.627   6.200   2.931  0.6092 -2.5827 -1.4320
 1666SOL    MW4 6432   4.704   6.196   2.972  0.0314 -0.9299 -0.0499
 1667SOL     OW 6433   4.993   0.903   5.147  0.1189  0.5043  0.1524
 1667SOL    HW2 6434   4.999   0.808   5.136  0.2650  0.4109  1.0076
 1667SOL    HW3 6435   4.902   0.924   5.126  0.1363  0.2089 -0.2379
 1667SOL    MW4 6436   4.982   0.893   5.143  0.1404  0.4530  0.2138
 1668SOL     OW 6437   0.418   6.386   5.811  0.0563 -0.0688  0.4122
 1668SOL    HW2 6438   0.507   6.417   5.824  0.1582  0.9386 -2.1950
 1668SOL    HW3 6439   0.369   6.422   5.885  1.1464  2.3111  0.0662
 1668SOL    MW4 6440   0.423   6.394   5.823  0.2136  0.3781  0.0225
 1669SOL     OW 6441   4.956   3.899   2.976 -0.5815  0.0882  0.2838
 1669SOL    HW2 6442   5.003   3.860   3.050 -0.7982 -2.0173 -0.6492
 1669SOL    HW3 6443   4.982   3.992   2.979 -1.0714  0.2399  3.3567
 1669SOL    MW4 6444   4.966   3.906   2.986 -0.6747 -0.1696  0.5661
 1670SOL     OW 6445   1.906   5.649   1.393  0.0347  0.0534 -0.1252
 1670SOL    HW2 6446   1.961   5.638   1.470 -0.1848 -0.8481 -0.0873
 1670SOL    HW3 6447   1.961   5.698   1.331  0.7666 -0.5518  0.0314
 1670SOL    MW4 6448   1.920   5.654   1.395  0.1023 -0.1454 -0.0995
 1671SOL     OW 6449   1.677   2.663   2.381 -0.7169  0.4006 -0.0452
 1671SOL    HW2 6450   1.659   2.735   2.442  0.5228  0.8537 -0.1765
 1671SOL    HW3 6451   1.769   2.641   2.398 -0.5681  0.0575 -1.2578
 1671SOL    MW4 6452   1.687   2.670   2.391 -0.5337  0.4151 -0.2225
 1672SOL     OW 6453   3.169   0.482   1.642 -0.1649  1.0351 -0.4649
 1672SOL    HW2 6454   3.256   0.521   1.648  0.3874 -0.2194 -0.0446
 1672SOL    HW3 6455   3.163   0.425   1.719 -0.7061 -0.1868 -1.3924
 1672SOL    MW4 6456   3.179   0.480   1.653 -0.1634  0.7084 -0.5318
 1673SOL     OW 6457   3.894   1.520   0.825  0.1810  0.0275  0.3923
 1673SOL    HW2 6458   3.845   1.444   0.795  0.3328  0.4905 -1.1168
 1673SOL    HW3 6459   3.869   1.590   0.764  0.1659  1.1523  1.6423
 1673SOL    MW4 6460   3.884   1.519   0.813  0.1990  0.2370  0.3581
 1674SOL     OW 6461   3.273   4.713   3.997  0.1254 -0.0957  0.4088
 1674SOL    HW2 6462   3.294   4.784   3.937 -0.0320  0.2797  0.7944
 1674SOL    HW3 6463   3.321   4.637   3.962 -1.0370 -0.2385 -0.9870
 1674SOL    MW4 6464   3.282   4.712   3.984 -0.0487 -0.0650  0.2755
 1675SOL     OW 6465   2.900   6.254   5.264  0.2321 -0.4634  0.1394
 1675SOL    HW2 6466   2.898   6.239   5.170 -1.4665 -1.1326  0.2449
 1675SOL    HW3 6467   2.881   6.347   5.275 -0.0576 -0.4871 -0.1598
 1675SOL    MW4 6468   2.897   6.264   5.253 -0.0302 -0.5548  0.1138
 1676SOL     OW 6469   5.866   3.752   6.317 -0.0058  0.1207 -0.0088
 1676SOL    HW2 6470   5.833   3.676   6.365 -1.9655 -0.8476 -2.7130
 1676SOL    HW3 6471   5.951   3.724   6.284 -0.5267 -0.7581 -0.6306
 1676SOL    MW4 6472   5.873   3.739   6.319 -0.3331 -0.1230 -0.4476
 1677SOL     OW 6473   5.571   5.750   5.817  0.3155 -0.1502 -0.1067
 1677SOL    HW2 6474   5.538   5.806   5.746 -2.1292  1.1116  1.8712
 1677SOL    HW3 6475   5.542   5.662   5.793 -2.5751  0.5871  0.3388
 1677SOL    MW4 6476   5.563   5.746   5.804 -0.3884  0.1135  0.2130
 1678SOL     OW 6477   6.013   3.018   4.339 -0.6010 -0.4469 -0.1827
 1678SOL    HW2 6478   6.071   2.958   4.387  0.4812  0.2634 -0.5557
 1678SOL    HW3 6479   6.020   2.989   4.248  1.1415  1.1244 -0.6163
 1678SOL    MW4 6480   6.022   3.006   4.333 -0.2283 -0.1459 -0.2891
 1679SOL     OW 6481   4.741   3.682   2.134  0.1242  0.2737 -0.5268
 1679SOL    HW2 6482   4.771   3.603   2.088 -0.3842  0.5677 -1.3636
 1679SOL    HW3 6483   4.763   3.754   2.075  0.7496  0.7912  0.3169
 1679SOL    MW4 6484   4.748   3.681   2.120  0.1396  0.3808 -0.5259
 1680SOL     OW 6485   2.740   3.022   0.122  0.0435 -0.1760 -0.0404
 1680SOL    HW2 6486   2.695   3.099   0.088 -0.1716  0.1057  0.8853
 1680SOL    HW3 6487   2.809   3.005   0.057 -0.8154 -0.0864 -1.0035
 1680SOL    MW4 6488   2.743   3.030   0.109 -0.0982 -0.1270 -0.0453
 1681SOL     OW 6489   5.093   2.300   0.489  0.4377  0.1454 -0.9664
 1681SOL    HW2 6490   5.033   2.327   0.558 -1.2467  1.1749 -2.7480
 1681SOL    HW3 6491   5.179   2.297   0.533 -0.7324 -0.6256  1.4612
 1681SOL    MW4 6492   5.097   2.303   0.504  0.0611  0.1795 -0.8811
 1682SOL     OW 6493   4.133   4.730   3.700 -0.1103 -0.3079  0.0441
 1682SOL    HW2 6494   4.116   4.824   3.696 -1.0456 -0.4583  0.2389
 1682SOL    HW3 6495   4.116   4.699   3.611  3.6942  0.2158 -1.0476
 1682SOL    MW4 6496   4.128   4.739   3.688  0.2683 -0.2586 -0.0742
 1683SOL     OW 6497   5.958   6.099   3.887  0.3427 -0.2113 -0.0813
 1683SOL    HW2 6498   5.940   6.005   3.897  1.4145 -0.3741  0.5167
 1683SOL    HW3 6499   6.039   6.102   3.836 -1.4656  0.4952 -3.1914
 1683SOL    MW4 6500   5.966   6.087   3.881  0.2455 -0.1396 -0.4127
 1684SOL     OW 6501   6.222   4.755   4.261 -0.0594 -0.7565 -0.0484
 1684SOL    HW2 6502   6.170   4.685   4.300 -1.0198 -0.2691 -0.3945
 1684SOL    HW3 6503   6.158   4.826   4.247  0.6480 -0.2452 -0.7552
 1684SOL    MW4 6504   6.206   4.755   4.265 -0.0928 -0.6248 -0.1873
 1685SOL     OW 6505   5.068   2.453   0.264 -0.0445  0.3147  0.1308
 1685SOL    HW2 6506   5.063   2.398   0.342  0.7822  0.0599  0.0172
 1685SOL    HW3 6507   5.153   2.496   0.271 -1.5368  3.3729  1.3748
 1685SOL    MW4 6508   5.079   2.451   0.275 -0.1323  0.6846  0.2800
 1686SOL     OW 6509   2.587   2.145   5.777 -0.0113  0.1928 -0.0397
 1686SOL    HW2 6510   2.546   2.085   5.714 -1.8631  0.7639  0.5491
 1686SOL    HW3 6511   2.674   2.161   5.741 -0.9897  0.5313 -2.5146
 1686SOL    MW4 6512   2.593   2.139   5.764 -0.3847  0.3128 -0.2886
 1687SOL     OW 6513   5.851   5.150   3.823  0.0731 -0.2434 -0.3040
 1687SOL    HW2 6514   5.871   5.107   3.740 -0.3712  0.7844 -0.9578
 1687SOL    HW3 6515   5.935   5.189   3.850 -0.2820  1.4436 -1.4930
 1687SOL    MW4 6516   5.865   5.150   3.815 -0.0323  0.1148 -0.5471
 1688SOL     OW 6517   6.337   4.389   4.010 -0.4671 -0.1017 -0.2838
 1688SOL    HW2 6518   6.407   4.377   3.946  0.1428 -0.0453  0.3534
 1688SOL    HW3 6519   6.257   4.366   3.963 -0.1380  0.7531 -1.3148
 1688SOL    MW4 6520   6.336   4.384   3.995 -0.3432  0.0185 -0.3358
 1689SOL     OW 6521   3.789   5.355   4.399 -0.0483 -0.3357 -0.6060
 1689SOL    HW2 6522   3.730   5.375   4.327 -2.1095 -1.3382  0.7112
 1689SOL    HW3 6523   3.793   5.436   4.450 -1.8635 -0.7747  0.3104
 1689SOL    MW4 6524   3.782   5.368   4.396 -0.5597 -0.5259 -0.3113
 1690SOL     OW 6525   1.404   2.927   5.081 -0.2650 -0.0909 -0.5067
 1690SOL    HW2 6526   1.408   2.864   5.153  0.7288 -3.1731 -3.0290
 1690SOL    HW3 6527   1.313   2.955   5.078 -0.4327 -0.2327  1.5657
 1690SOL    MW4 6528   1.393   2.923   5.090 -0.1560 -0.5163 -0.5661
 1691SOL     OW 6529   2.535   0.260   5.182 -0.0392 -0.4046 -0.4075
 1691SOL    HW2 6530   2.606   0.277   5.244  0.4906 -0.6851 -0.9335
 1691SOL    HW3 6531   2.492   0.345   5.171  0.9926  0.0521 -1.0380
 1691SOL    MW4 6532   2.539   0.273   5.189  0.1668 -0.3814 -0.5600
 1692SOL     OW 6533   4.148   5.915   1.554 -0.4633  0.0565  0.0478
 1692SOL    HW2 6534   4.220   5.922   1.492 -0.3278  0.0478  0.2040
 1692SOL    HW3 6535   4.082   5.863   1.508 -0.0951 -0.5156  0.1526
 1692SOL    MW4 6536   4.149   5.909   1.540 -0.3968 -0.0202  0.0822
 1693SOL     OW 6537   5.377   6.290   0.250  0.1752 -0.0613  0.6920
 1693SOL    HW2 6538   5.427   6.226   0.300 -2.0962 -3.0760 -0.5985
 1693SOL    HW3 6539   5.369   6.251   0.163 -2.0005  1.6026  0.0730
 1693SOL    MW4 6540   5.383   6.277   0.245 -0.4116 -0.2395  0.4400
 1694SOL     OW 6541   5.236   0.245   0.145 -0.3040 -0.1851  0.4460
 1694SOL    HW2 6542   5.204   0.204   0.065  0.4838 -0.2182  0.1410
 1694SOL    HW3 6543   5.326   0.215   0.153 -0.5697 -0.7159  1.7071
 1694SOL    MW4 6544   5.243   0.235   0.135 -0.2351 -0.2595  0.5721
 1695SOL     OW 6545   5.704   2.769   5.159 -0.3264  0.1071  0.2063
 1695SOL    HW2 6546   5.704   2.674   5.145 -1.1334  0.3048 -1.2338
 1695SOL    HW3 6547   5.616   2.797   5.136  0.1669  1.3352 -0.2639
 1695SOL    MW4 6548   5.693   2.760   5.154 -0.3678  0.2952 -0.0457
 1696SOL     OW 6549   1.461   4.038   2.444 -0.3573  0.1398  0.2039
 1696SOL    HW2 6550   1.417   3.980   2.382 -1.2681  0.8856  0.1478
 1696SOL    HW3 6551   1.393   4.064   2.506  0.0973  0.9599  0.3746
 1696SOL    MW4 6552   1.446   4.034   2.444 -0.4175  0.3464  0.2190
 1697SOL     OW 6553   1.243   4.310   4.578  0.1689 -0.0334 -0.2415
 1697SOL    HW2 6554   1.202   4.240   4.629 -0.7695  0.7914  0.1582
 1697SOL    HW3 6555   1.188   4.318   4.500 -0.0590  0.6328 -0.0156
 1697SOL    MW4 6556   1.230   4.302   4.574  0.0150  0.1633 -0.1590
 1698SOL     OW 6557   2.140   2.710   0.629 -0.5106  0.3884 -0.1896
 1698SOL    HW2 6558   2.217   2.677   0.675 -0.3789 -1.0740 -1.3800
 1698SOL    HW3 6559   2.066   2.668   0.673 -0.3036 -2.3498 -2.2193
 1698SOL    MW4 6560   2.140   2.700   0.641 -0.4659 -0.1658 -0.6145
 1699SOL     OW 6561   5.352   5.219   2.764  0.3380 -0.1329  0.3559
 1699SOL    HW2 6562   5.434   5.267   2.757  0.2617  0.0477  0.7406
 1699SOL    HW3 6563   5.376   5.129   2.741  0.9178 -0.3638  1.7542
 1699SOL    MW4 6564   5.366   5.213   2.760  0.4045 -0.1395  0.5911
 1700SOL     OW 6565   2.521   2.814   5.245 -0.0032  0.6572 -0.6291
 1700SOL    HW2 6566   2.582   2.850   5.309  0.1909  0.6109 -0.7862
 1700SOL    HW3 6567   2.491   2.889   5.194  0.7247  0.5539 -1.2330
 1700SOL    MW4 6568   2.525   2.828   5.246  0.1185  0.6374 -0.7295
 1701SOL     OW 6569   1.889   4.948   5.185 -0.4081  0.3273  0.4396
 1701SOL    HW2 6570   1.810   4.953   5.238 -1.0431  0.7205 -0.5130
 1701SOL    HW3 6571   1.960   4.973   5.245 -1.1531  1.1944  0.9895
 1701SOL    MW4 6572   1.888   4.952   5.200 -0.5901  0.4936  0.3865
 1702SOL     OW 6573   4.087   2.974   3.883  0.5120 -0.8920  0.0195
 1702SOL    HW2 6574   4.101   3.017   3.799  1.7833 -0.3693  0.4767
 1702SOL    HW3 6575   4.163   2.917   3.895 -0.0640 -1.5973  0.4458
 1702SOL    MW4 6576   4.099   2.972   3.873  0.6038 -0.9161  0.1360
 1703SOL     OW 6577   4.604   3.207   3.613 -0.1492  0.0494 -0.2996
 1703SOL    HW2 6578   4.531   3.176   3.666  1.1955 -1.8784  0.5385
 1703SOL    HW3 6579   4.569   3.209   3.523 -1.2668 -0.6991  0.0936
 1703SOL    MW4 6580   4.590   3.203   3.608 -0.1192 -0.3037 -0.1372
 1704SOL     OW 6581   1.791   2.600   1.445 -0.0135 -0.1866 -0.4695
 1704SOL    HW2 6582   1.737   2.521   1.445  1.0299 -0.9692  0.9440
 1704SOL    HW3 6583   1.729   2.672   1.443 -0.9941 -1.0185 -1.9404
 1704SOL    MW4 6584   1.776   2.599   1.445 -0.0052 -0.3996 -0.4771
 1705SOL     OW 6585   3.808   3.776   5.785  0.3232  0.4508 -0.6556
 1705SOL    HW2 6586   3.732   3.799   5.838  1.9710  1.4173  1.4044
 1705SOL    HW3 6587   3.807   3.840   5.713 -0.4546  0.8360 -0.3167
 1705SOL    MW4 6588   3.798   3.787   5.782  0.4380  0.6291 -0.3391
 1706SOL     OW 6589   3.457   6.029   1.470  0.1027  0.4544 -0.2440
 1706SOL    HW2 6590   3.405   6.034   1.390  1.2714  0.2524 -1.0398
 1706SOL    HW3 6591   3.524   6.096   1.459  0.8078 -0.1758  0.1744
 1706SOL    MW4 6592   3.459   6.039   1.458  0.3499  0.3446 -0.2938
 1707SOL     OW 6593   5.997   2.210   3.091 -0.3155 -0.3363 -0.2873
 1707SOL    HW2 6594   5.985   2.203   3.186 -1.1372  1.5217 -0.2052
 1707SOL    HW3 6595   6.086   2.242   3.080 -0.7396  1.0439 -0.0037
 1707SOL    MW4 6596   6.007   2.213   3.102 -0.4799  0.0909 -0.2390
 1708SOL     OW 6597   2.372   5.876   4.869  0.5983  0.0850  0.0456
 1708SOL    HW2 6598   2.376   5.787   4.834  2.2039  0.0485  0.2836
 1708SOL    HW3 6599   2.325   5.926   4.803 -0.4627 -0.9579 -0.0211
 1708SOL    MW4 6600   2.366   5.871   4.856  0.6701 -0.0574  0.0682
 1709SOL     OW 6601   2.572   5.775   0.309  0.0664 -0.4488  0.2210
 1709SOL    HW2 6602   2.601   5.692   0.346  0.0616 -0.3898  0.3559
 1709SOL    HW3 6603   2.617   5.842   0.361  1.8605 -0.3825 -1.3110
 1709SOL    MW4 6604   2.582   5.773   0.320  0.3025 -0.4323  0.0367
 1710SOL     OW 6605   2.575   3.920   4.936  0.3797  0.5561  0.1455
 1710SOL    HW2 6606   2.587   3.825   4.945  0.7450  0.7274  1.8533
 1710SOL    HW3 6607   2.489   3.937   4.972 -0.2298  0.7563 -1.3300
 1710SOL    MW4 6608   2.565   3.910   4.942  0.3475  0.6051  0.1762
 1711SOL     OW 6609   2.494   4.210   2.862 -0.2529  0.5242 -0.1090
 1711SOL    HW2 6610   2.448   4.127   2.846  0.2650  0.5055 -1.5980
 1711SOL    HW3 6611   2.563   4.187   2.923 -0.8520  0.1085  0.4317
 1711SOL    MW4 6612   2.497   4.196   2.868 -0.2636  0.4669 -0.2341
 1712SOL     OW 6613   1.899   1.635   6.298  0.1260  0.4325  0.2120
 1712SOL    HW2 6614   1.925   1.682   6.377  0.7416 -0.2318  0.4119
 1712SOL    HW3 6615   1.940   1.549   6.306 -0.7433 -0.0450 -0.2923
 1712SOL    MW4 6616   1.908   1.630   6.309  0.0926  0.2819  0.1718
 1713SOL     OW 6617   0.931   5.482   4.678 -0.1643  0.3841 -0.4503
 1713SOL    HW2 6618   0.867   5.470   4.749 -0.3994 -2.0070 -0.9870
 1713SOL    HW3 6619   1.008   5.518   4.721 -0.3210 -0.9434  1.0471
 1713SOL    MW4 6620   0.932   5.485   4.693 -0.2160 -0.1065 -0.3235
 1714SOL     OW 6621   3.769   4.384   1.078  0.0272 -0.1175  0.2054
 1714SOL    HW2 6622   3.765   4.318   1.010  1.4880 -1.8887  1.7502
 1714SOL    HW3 6623   3.848   4.434   1.059  0.6813 -0.9019  0.8402
 1714SOL    MW4 6624   3.779   4.382   1.067  0.3062 -0.4547  0.4930
 1715SOL     OW 6625   6.366   1.146   3.921  0.0005  0.4141 -0.2076
 1715SOL    HW2 6626   6.456   1.155   3.951 -0.1336  3.2195 -0.4284
 1715SOL    HW3 6627   6.313   1.164   3.998 -0.4393 -1.8926  0.0906
 1715SOL    MW4 6628   6.371   1.149   3.935 -0.0753  0.4799 -0.1974
 1716SOL     OW 6629   5.515   6.239   3.004  0.3921  0.2492  0.1742
 1716SOL    HW2 6630   5.543   6.323   2.968 -0.3605  0.6539  0.5226
 1716SOL    HW3 6631   5.450   6.206   2.942 -2.0420  1.6504  1.8209
 1716SOL    MW4 6632   5.510   6.246   2.991 -0.0284  0.4875  0.4374
 1717SOL     OW 6633   3.231   3.643   4.863 -0.0754  0.6131 -0.2067
 1717SOL    HW2 6634   3.169   3.680   4.927 -1.2059  0.8946 -1.4099
 1717SOL    HW3 6635   3.309   3.698   4.871 -0.4468  1.0545  0.4842
 1717SOL    MW4 6636   3.233   3.655   4.872 -0.2736  0.7085 -0.2743
 1718SOL     OW 6637   3.151   3.341   2.538 -0.1911 -0.6395  0.3950
 1718SOL    HW2 6638   3.198   3.258   2.531  0.4398 -0.3297  0.8408
 1718SOL    HW3 6639   3.062   3.321   2.508  0.1817 -1.2676 -0.3034
 1718SOL    MW4 6640   3.145   3.328   2.533 -0.0587 -0.6815  0.3616
 1719SOL     OW 6641   2.087   1.433   3.420  0.0527 -0.1863 -0.0696
 1719SOL    HW2 6642   2.008   1.382   3.405 -0.1896 -0.1817  1.1010
 1719SOL    HW3 6643   2.153   1.392   3.364 -0.7781 -0.1511 -1.1063
 1719SOL    MW4 6644   2.086   1.421   3.411 -0.0889 -0.1810 -0.0519
 1720SOL     OW 6645   6.123   3.408   6.376 -0.4346  0.0539 -0.1163
 1720SOL    HW2 6646   6.150   3.444   6.291 -0.0529 -1.2323 -0.5561
 1720SOL    HW3 6647   6.114   3.314   6.361 -0.2329 -0.2147  1.3085
 1720SOL    MW4 6648   6.125   3.401   6.363 -0.3576 -0.1512  0.0137
 1721SOL     OW 6649   1.409   5.176   4.875 -0.6317  0.0948  0.0426
 1721SOL    HW2 6650   1.445   5.264   4.890 -2.9741  0.7560  2.7384
 1721SOL    HW3 6651   1.405   5.168   4.780  2.5003  1.5916 -0.3543
 1721SOL    MW4 6652   1.414   5.187   4.865 -0.5275  0.3795  0.3459
 1722SOL     OW 6653   1.327   3.895   6.235 -0.2861  0.7066 -0.3911
 1722SOL    HW2 6654   1.347   3.869   6.325  0.2364 -1.4914 -1.0766
 1722SOL    HW3 6655   1.412   3.921   6.199 -0.4227  1.1640 -0.3896
 1722SOL    MW4 6656   1.341   3.895   6.242 -0.2352  0.4769 -0.4813
 1723SOL     OW 6657   0.154   3.307   1.686 -0.1964 -0.4631 -0.0516
 1723SOL    HW2 6658   0.209   3.248   1.738 -0.0490 -0.6764 -0.4482
 1723SOL    HW3 6659   0.210   3.334   1.613 -1.1363 -2.0454 -1.4407
 1723SOL    MW4 6660   0.168   3.303   1.683 -0.3010 -0.7000 -0.2872
 1724SOL     OW 6661   3.270   4.728   2.716  0.2640  0.7134  0.0193
 1724SOL    HW2 6662   3.295   4.748   2.806 -0.3763 -0.3511  0.4507
 1724SOL    HW3 6663   3.177   4.747   2.712  0.2974  0.8042 -0.4450
 1724SOL    MW4 6664   3.261   4.733   2.727  0.1840  0.5849  0.0149
 1725SOL     OW 6665   4.465   0.606   2.880  0.1304  0.6018 -0.4796
 1725SOL    HW2 6666   4.551   0.639   2.905  0.1477  0.1754  0.0202
 1725SOL    HW3 6667   4.411   0.619   2.958  0.4907 -1.8552  0.2419
 1725SOL    MW4 6668   4.469   0.612   2.893  0.1802  0.2214 -0.3184
 1726SOL     OW 6669   4.223   4.873   1.045  0.0167  0.3879  0.0747
 1726SOL    HW2 6670   4.284   4.943   1.023  0.9023 -0.2860  0.3264
 1726SOL    HW3 6671   4.267   4.823   1.114 -0.6149 -0.3913 -0.0633
 1726SOL    MW4 6672   4.236   4.876   1.052  0.0502  0.1962  0.0897
 1727SOL     OW 6673   4.898   0.644   1.226 -0.2278  0.1578  0.1078
 1727SOL    HW2 6674   4.908   0.551   1.243 -0.3851 -0.3541 -2.2581
 1727SOL    HW3 6675   4.987   0.679   1.230 -0.2874  0.1648  2.1110
 1727SOL    MW4 6676   4.911   0.637   1.229 -0.2565  0.0912  0.0600
 1728SOL     OW 6677   1.640   0.664   0.461  0.1600  0.3395  0.3401
 1728SOL    HW2 6678   1.590   0.592   0.500  1.8236 -0.0259  1.9213
 1728SOL    HW3 6679   1.575   0.733   0.448 -0.8059 -0.1115  2.3525
 1728SOL    MW4 6680   1.625   0.664   0.465  0.2521  0.2318  0.8143
 1729SOL     OW 6681   3.086   2.013   2.885  0.2900 -0.1745 -0.5039
 1729SOL    HW2 6682   3.033   2.088   2.911  0.5368 -0.8890  2.5159
 1729SOL    HW3 6683   3.029   1.960   2.830 -1.3261  0.2601  0.6971
 1729SOL    MW4 6684   3.072   2.016   2.881  0.1093 -0.2114  0.0530
 1730SOL     OW 6685   5.166   0.235   4.957 -0.0166  0.2640 -0.1480
 1730SOL    HW2 6686   5.163   0.188   4.874  0.3056 -0.4267  0.2329
 1730SOL    HW3 6687   5.227   0.307   4.941 -1.7440  1.5935 -1.2512
 1730SOL    MW4 6688   5.173   0.239   4.944 -0.2020  0.3483 -0.2433
 1731SOL     OW 6689   5.208   3.966   5.171  0.1522 -0.6735  0.3391
 1731SOL    HW2 6690   5.119   3.932   5.182  0.6583 -1.6944  1.5644
 1731SOL    HW3 6691   5.264   3.901   5.213  1.7665 -1.3557 -2.6423
 1731SOL    MW4 6692   5.203   3.953   5.178  0.4320 -0.8982  0.1074
 1732SOL     OW 6693   4.700   4.912   0.957 -0.1745 -0.1173 -0.2660
 1732SOL    HW2 6694   4.721   4.891   1.048  0.9351  1.1317 -0.2021
 1732SOL    HW3 6695   4.765   4.865   0.905  0.0040  0.2043 -0.3356
 1732SOL    MW4 6696   4.711   4.903   0.962 -0.0046  0.0899 -0.2668
 1733SOL     OW 6697   1.237   2.647   0.132 -0.5650 -0.0583 -0.3335
 1733SOL    HW2 6698   1.303   2.689   0.187 -0.7590  1.2946 -1.0956
 1733SOL    HW3 6699   1.154   2.687   0.159 -0.5619  1.2929 -2.1571
 1733SOL    MW4 6700   1.235   2.658   0.143 -0.5902  0.2985 -0.6747
 1734SOL     OW 6701   1.808   5.118   4.965 -0.5144  0.3901 -0.0858
 1734SOL    HW2 6702   1.841   5.054   5.029  0.5171  0.7308 -0.2502
 1734SOL    HW3 6703   1.763   5.065   4.900 -0.6489 -0.0642  0.3705
 1734SOL    MW4 6704   1.807   5.102   4.965 -0.3960  0.3751 -0.0473
 1735SOL     OW 6705   1.656   3.361   6.375  0.0780  0.3150  0.3538
 1735SOL    HW2 6706   1.752   3.371   6.370 -0.0970  2.0040 -0.5415
 1735SOL    HW3 6707   1.640   3.272   6.345  1.3896 -0.1284  0.8731
 1735SOL    MW4 6708   1.667   3.350   6.370  0.2280  0.4793  0.3042
 1736SOL     OW 6709   2.632   3.646   4.965 -0.0888 -0.1679  0.4774
 1736SOL    HW2 6710   2.703   3.590   4.932  0.2293  0.5953 -0.1907
 1736SOL    HW3 6711   2.591   3.595   5.034  0.5444 -0.9955  0.2625
 1736SOL    MW4 6712   2.636   3.632   4.969  0.0367 -0.1764  0.3609
 1737SOL     OW 6713   1.968   4.031   0.189  0.1968 -0.6127  0.4131
 1737SOL    HW2 6714   1.889   4.003   0.234 -1.2908  1.2218 -0.9140
 1737SOL    HW3 6715   1.999   4.106   0.239  0.8083 -0.9680  0.5890
 1737SOL    MW4 6716   1.962   4.037   0.201  0.0812 -0.4176  0.2612
 1738SOL     OW 6717   5.336   0.985   4.994 -0.2618 -0.2447 -0.2402
 1738SOL    HW2 6718   5.310   0.994   5.085  0.5781  0.6715 -0.0736
 1738SOL    HW3 6719   5.384   0.902   4.991 -0.5847 -0.4456  0.0712
 1738SOL    MW4 6720   5.339   0.975   5.005 -0.1936 -0.1503 -0.1771
 1739SOL     OW 6721   0.483   2.178   4.992  0.4024 -0.2263  0.6291
 1739SOL    HW2 6722   0.559   2.237   4.994  1.3512 -1.3188 -0.8827
 1739SOL    HW3 6723   0.419   2.220   5.049  0.9897  2.3121 -0.4178
 1739SOL    MW4 6724   0.485   2.191   5.000  0.6051 -0.0355  0.2915
 1740SOL     OW 6725   4.307   2.549   5.914  0.2560 -0.7483  0.1313
 1740SOL    HW2 6726   4.343   2.536   6.001  1.4800 -0.0540 -0.2503
 1740SOL    HW3 6727   4.218   2.580   5.929 -0.1169 -2.1644  1.0950
 1740SOL    MW4 6728   4.300   2.551   5.927  0.3683 -0.8435  0.2081
 1741SOL     OW 6729   5.829   1.449   1.883 -0.0868 -0.3872  0.2551
 1741SOL    HW2 6730   5.737   1.448   1.856  0.7299  0.2824 -2.9668
 1741SOL    HW3 6731   5.856   1.357   1.882 -0.3378 -0.4572 -0.3093
 1741SOL    MW4 6732   5.820   1.437   1.879 -0.0122 -0.3081 -0.2444
 1742SOL     OW 6733   5.683   5.084   6.001 -0.6730 -0.7889  0.2938
 1742SOL    HW2 6734   5.683   5.154   6.066 -0.7091  0.6456 -1.1871
 1742SOL    HW3 6735   5.601   5.096   5.953 -1.5515 -2.9648  1.1080
 1742SOL    MW4 6736   5.672   5.095   6.003 -0.7937 -0.8867  0.2058
 1743SOL     OW 6737   2.194   6.374   3.300  0.0869  0.0973  0.5320
 1743SOL    HW2 6738   2.289   6.373   3.291  0.0048 -0.2708 -0.3826
 1743SOL    HW3 6739   2.164   6.430   3.228 -0.3216  1.3675  1.6359
 1743SOL    MW4 6740   2.203   6.381   3.289  0.0222  0.2164  0.5570
 1744SOL     OW 6741   1.685   0.703   6.209  0.1120 -0.2742  0.1630
 1744SOL    HW2 6742   1.729   0.742   6.284 -0.9543 -2.2638  1.9355
 1744SOL    HW3 6743   1.754   0.693   6.143  0.7338  3.0087  0.1477
 1744SOL    MW4 6744   1.700   0.706   6.210  0.0533 -0.1036  0.3948
 1745SOL     OW 6745   1.780   2.329   3.888  0.5110 -0.0625 -0.6587
 1745SOL    HW2 6746   1.700   2.382   3.893 -0.6524 -1.7654 -0.1746
 1745SOL    HW3 6747   1.784   2.285   3.973  0.3525 -2.1848 -1.6900
 1745SOL    MW4 6748   1.770   2.330   3.900  0.3366 -0.5672 -0.7309
 1746SOL     OW 6749   2.553   2.617   3.624 -0.0675 -0.3432  0.5211
 1746SOL    HW2 6750   2.519   2.702   3.652  1.0266  0.7813 -1.3403
 1746SOL    HW3 6751   2.500   2.553   3.672 -1.3211  1.3622  1.5316
 1746SOL    MW4 6752   2.541   2.620   3.634 -0.0885  0.0302  0.4089
 1747SOL     OW 6753   0.484   3.729   2.969 -0.5712 -0.3078  0.1155
 1747SOL    HW2 6754   0.556   3.673   2.942 -0.0300  1.2935 -1.9808
 1747SOL    HW3 6755   0.515   3.818   2.952 -2.1250  0.5597  1.5201
 1747SOL    MW4 6756   0.498   3.734   2.963 -0.7048  0.0179  0.0242
 1748SOL     OW 6757   4.577   2.138   0.417 -0.2117  0.4356 -0.2303
 1748SOL    HW2 6758   4.656   2.190   0.402  0.2160 -0.0604  0.2329
 1748SOL    HW3 6759   4.512   2.201   0.448 -0.2442  0.9793 -1.3572
 1748SOL    MW4 6760   4.579   2.153   0.419 -0.1596  0.4419 -0.3179
 1749SOL     OW 6761   3.665   1.443   1.633  0.0133  0.1920  0.0252
 1749SOL    HW2 6762   3.659   1.359   1.679  1.5205 -0.1229 -0.2765
 1749SOL    HW3 6763   3.661   1.509   1.702 -0.1886 -0.1694  0.3626
 1749SOL    MW4 6764   3.664   1.441   1.648  0.1855  0.1028  0.0299
 1750SOL     OW 6765   2.850   1.256   3.956  0.1401  0.1429  0.0311
 1750SOL    HW2 6766   2.855   1.346   3.987  0.2741 -0.0830  0.6908
 1750SOL    HW3 6767   2.760   1.228   3.975  0.5482 -0.3764  1.3528
 1750SOL    MW4 6768   2.839   1.264   3.963  0.2117  0.0446  0.2926
 1751SOL     OW 6769   5.881   3.821   4.366  0.1890 -0.5524  0.3198
 1751SOL    HW2 6770   5.875   3.789   4.456 -1.5916  0.1366  0.4847
 1751SOL    HW3 6771   5.973   3.845   4.355  0.3104 -0.0428  2.1778
 1751SOL    MW4 6772   5.892   3.820   4.376 -0.0299 -0.3942  0.5867
 1752SOL     OW 6773   5.989   1.030   3.766 -0.0975  0.0994 -0.2013
 1752SOL    HW2 6774   5.971   0.946   3.809  0.3646  1.7221  3.5337
 1752SOL    HW3 6775   6.077   1.053   3.795 -0.0665  1.7095 -1.4637
 1752SOL    MW4 6776   5.998   1.022   3.776 -0.0324  0.5260  0.1249
 1753SOL     OW 6777   3.971   3.309   6.309  0.1127 -0.8135 -0.3522
 1753SOL    HW2 6778   4.046   3.364   6.289 -0.9382  0.0623 -2.1911
 1753SOL    HW3 6779   3.915   3.362   6.365 -1.5282  0.6873 -3.1716
 1753SOL    MW4 6780   3.973   3.323   6.313 -0.2425 -0.4999 -0.9668
 1754SOL     OW 6781   3.079   5.245   6.306 -0.2961 -0.3311 -0.2198
 1754SOL    HW2 6782   3.026   5.321   6.326 -0.0905 -0.8731  3.0135
 1754SOL    HW3 6783   3.017   5.180   6.274 -0.8163  0.4848 -0.8937
 1754SOL    MW4 6784   3.064   5.246   6.305 -0.3376 -0.2949  0.1179
 1755SOL     OW 6785   3.539   6.005   2.103 -0.1276  0.0222  0.1089
 1755SOL    HW2 6786   3.521   6.048   2.187 -0.3397 -0.9119  0.5488
 1755SOL    HW3 6787   3.635   6.002   2.098 -0.0772  1.5641 -0.4699
 1755SOL    MW4 6788   3.550   6.011   2.113 -0.1489  0.1024  0.0905
 1756SOL     OW 6789   4.096   4.236   0.483 -0.0775  0.4839  0.1435
 1756SOL    HW2 6790   4.167   4.259   0.424  0.0318  2.0227  0.8173
 1756SOL    HW3 6791   4.030   4.196   0.427 -0.2497  2.4870 -1.1936
 1756SOL    MW4 6792   4.096   4.234   0.468 -0.0858  0.9512  0.0560
 1757SOL     OW 6793   2.994   3.472   0.771 -0.3494  0.0056  0.5117
 1757SOL    HW2 6794   2.976   3.405   0.704 -1.5650  1.5195 -0.7678
 1757SOL    HW3 6795   3.011   3.551   0.721  0.5235  0.7942  2.0015
 1757SOL    MW4 6796   2.994   3.473   0.755 -0.3946  0.3094  0.5395
 1758SOL     OW 6797   4.320   0.071   2.613 -0.1139  0.4288  0.4764
 1758SOL    HW2 6798   4.388   0.035   2.557 -1.7719 -0.4480 -1.0761
 1758SOL    HW3 6799   4.330   0.166   2.604  0.3131  0.3047 -0.4656
 1758SOL    MW4 6800   4.330   0.079   2.605 -0.2763  0.2967  0.1473
 1759SOL     OW 6801   1.444   0.734   5.318  0.2508 -0.0321 -0.2469
 1759SOL    HW2 6802   1.413   0.791   5.247  2.1801  2.3039  0.6639
 1759SOL    HW3 6803   1.439   0.788   5.397 -0.6499 -2.1652  1.2417
 1759SOL    MW4 6804   1.439   0.749   5.319  0.3865 -0.0053  0.0696
 1760SOL     OW 6805   3.640   0.982   5.442 -0.0943  0.2351  0.1262
 1760SOL    HW2 6806   3.562   0.950   5.397 -1.0461  1.8171  0.5660
 1760SOL    HW3 6807   3.652   1.071   5.410  0.7620  0.4698  1.0452
 1760SOL    MW4 6808   3.631   0.989   5.432 -0.1069  0.4748  0.3055
 1761SOL     OW 6809   0.559   2.436   3.228  0.4338  0.0504  0.6061
 1761SOL    HW2 6810   0.636   2.382   3.217 -0.4664 -0.9430 -1.3036
 1761SOL    HW3 6811   0.500   2.384   3.283  0.8644  0.5873  1.6189
 1761SOL    MW4 6812   0.561   2.422   3.234  0.3718 -0.0098  0.4878
 1762SOL     OW 6813   4.591   1.567   3.682  0.0167 -0.4677 -0.0050
 1762SOL    HW2 6814   4.560   1.654   3.705  0.5904 -0.5171  0.9920
 1762SOL    HW3 6815   4.535   1.540   3.609  0.3181  1.0403 -0.8562
 1762SOL    MW4 6816   4.580   1.575   3.675  0.1322 -0.2753  0.0142
 1763SOL     OW 6817   0.090   1.535   0.364  0.0374 -0.0537  0.7079
 1763SOL    HW2 6818   0.074   1.627   0.383  1.3098  0.1608  0.8299
 1763SOL    HW3 6819   0.077   1.490   0.448 -1.9952 -0.2135  0.3492
 1763SOL    MW4 6820   0.086   1.541   0.377 -0.0629 -0.0465  0.6767
 1764SOL     OW 6821   0.137   1.376   4.333  0.0710 -0.0995  0.4614
 1764SOL    HW2 6822   0.161   1.399   4.422  0.9978  0.1104  0.1676
 1764SOL    HW3 6823   0.221   1.371   4.286 -0.1686 -2.4270  0.1266
 1764SOL    MW4 6824   0.151   1.378   4.338  0.1617 -0.3789  0.3785
 1765SOL     OW 6825   2.186   1.411   0.116 -0.7128 -0.3612  0.3426
 1765SOL    HW2 6826   2.169   1.437   0.206 -0.2138 -3.3381  1.4193
 1765SOL    HW3 6827   2.100   1.402   0.077 -0.9694  0.1536  0.7794
 1765SOL    MW4 6828   2.173   1.413   0.123 -0.6808 -0.6860  0.5423
 1766SOL     OW 6829   0.105   1.399   0.621  0.1866 -0.1958  0.1752
 1766SOL    HW2 6830   0.045   1.418   0.693 -0.0513 -2.3350  0.6344
 1766SOL    HW3 6831   0.189   1.383   0.663  0.2062 -0.7815 -0.0672
 1766SOL    MW4 6832   0.108   1.399   0.636  0.1578 -0.5553  0.2038
 1767SOL     OW 6833   5.245   2.469   5.613 -0.0300  0.8966  0.5074
 1767SOL    HW2 6834   5.167   2.420   5.587  1.5362 -0.2610 -2.5800
 1767SOL    HW3 6835   5.302   2.403   5.653  0.4679  1.0762  0.0999
 1767SOL    MW4 6836   5.242   2.454   5.614  0.2424  0.7676  0.0463
 1768SOL     OW 6837   4.170   1.431   3.621 -0.4732 -0.0954 -0.3267
 1768SOL    HW2 6838   4.128   1.507   3.662 -1.7988  0.0959 -1.9394
 1768SOL    HW3 6839   4.257   1.462   3.597 -0.9613  0.9079 -0.8826
 1768SOL    MW4 6840   4.176   1.445   3.624 -0.7125  0.0622 -0.6128
 1769SOL     OW 6841   2.825   3.384   3.176  0.2186 -0.0607 -0.1885
 1769SOL    HW2 6842   2.777   3.458   3.214  0.5199 -0.0090  0.0968
 1769SOL    HW3 6843   2.895   3.366   3.239  0.9628  0.2696 -0.9070
 1769SOL    MW4 6844   2.828   3.391   3.190  0.3565 -0.0103 -0.2457
 1770SOL     OW 6845   5.097   3.782   1.409 -0.0914 -0.7374  0.1834
 1770SOL    HW2 6846   5.154   3.847   1.367 -1.2761 -0.8802 -1.7811
 1770SOL    HW3 6847   5.153   3.739   1.473  0.7933  2.0893  1.4783
 1770SOL    MW4 6848   5.112   3.785   1.412 -0.1310 -0.3833  0.0950
 1771SOL     OW 6849   6.097   0.863   6.186  0.2054  0.2082  0.0652
 1771SOL    HW2 6850   6.120   0.954   6.200 -0.3009  0.3233  0.1956
 1771SOL    HW3 6851   6.180   0.816   6.182  0.5184  0.8492 -1.2340
 1771SOL    MW4 6852   6.111   0.869   6.188  0.1799  0.3079 -0.0890
 1772SOL     OW 6853   4.113   6.094   4.449 -0.2300 -0.2019  0.0303
 1772SOL    HW2 6854   4.188   6.065   4.397  0.7604  1.3992  0.5259
 1772SOL    HW3 6855   4.124   6.050   4.534  1.0799  1.2963  0.6637
 1772SOL    MW4 6856   4.124   6.084   4.453  0.0735  0.2070  0.1792
 1773SOL     OW 6857   3.084   0.564   5.302 -0.1636 -0.7659  0.3371
 1773SOL    HW2 6858   3.170   0.562   5.345 -0.6829  0.5624  1.5216
 1773SOL    HW3 6859   3.026   0.604   5.367 -1.2804  0.0791 -1.1305
 1773SOL    MW4 6860   3.088   0.569   5.317 -0.3795 -0.4792  0.2998
 1774SOL     OW 6861   0.490   5.018   1.677  0.3819 -0.1216 -0.1222
 1774SOL    HW2 6862   0.443   5.046   1.755  1.3822  0.9163  0.1284
 1774SOL    HW3 6863   0.549   4.949   1.708  1.6408  1.1091  0.3092
 1774SOL    MW4 6864   0.491   5.013   1.691  0.6800  0.1777 -0.0323
 1775SOL     OW 6865   3.814   5.040   0.779 -0.1462 -0.2535  0.4598
 1775SOL    HW2 6866   3.731   5.061   0.821  0.7674  0.1837  2.1989
 1775SOL    HW3 6867   3.874   5.023   0.853  1.1760 -1.0355 -0.7366
 1775SOL    MW4 6868   3.811   5.041   0.795  0.1488 -0.2990  0.5314
 1776SOL     OW 6869   4.634   2.422   0.193 -0.0587  0.5923 -0.8207
 1776SOL    HW2 6870   4.677   2.507   0.185 -1.0017  1.2254  0.3812
 1776SOL    HW3 6871   4.541   2.443   0.204  0.0150 -0.2371  3.4838
 1776SOL    MW4 6872   4.627   2.436   0.194 -0.1734  0.5664 -0.0942
 1777SOL     OW 6873   0.520   0.418   0.707 -0.1449  0.0864  0.0562
 1777SOL    HW2 6874   0.428   0.398   0.725 -0.2027  0.2613 -0.0383
 1777SOL    HW3 6875   0.555   0.447   0.791 -0.4799  1.1523 -0.1506
 1777SOL    MW4 6876   0.512   0.420   0.720 -0.1967  0.2501  0.0165
 1778SOL     OW 6877   4.810   3.578   5.572 -0.1698 -0.1736  0.4520
 1778SOL    HW2 6878   4.866   3.502   5.592  1.0178  0.5895  0.1422
 1778SOL    HW3 6879   4.861   3.654   5.599 -1.2127  0.5441  0.4719
 1778SOL    MW4 6880   4.824   3.578   5.578 -0.1507  0.0218  0.4138
 1779SOL     OW 6881   0.179   2.017   1.276  0.3325  0.3647  0.8332
 1779SOL    HW2 6882   0.118   2.083   1.243 -0.1920 -0.1522  0.7419
 1779SOL    HW3 6883   0.226   2.060   1.347 -0.8571  0.4720  1.5925
 1779SOL    MW4 6884   0.177   2.031   1.281  0.1064  0.3106  0.9213
 1780SOL     OW 6885   1.072   3.937   0.609 -0.2344 -0.4660 -0.3266
 1780SOL    HW2 6886   1.021   3.896   0.679  1.0086 -1.6741 -0.0825
 1780SOL    HW3 6887   1.143   3.875   0.591  1.1394  1.1112 -0.6524
 1780SOL    MW4 6888   1.075   3.923   0.616  0.1109 -0.4173 -0.3374
 1781SOL     OW 6889   5.670   0.996   6.069 -0.3457 -0.5742 -0.3142
 1781SOL    HW2 6890   5.624   1.032   5.993 -1.1949 -1.0673 -0.0449
 1781SOL    HW3 6891   5.699   1.074   6.117  0.5994 -0.2508 -1.3541
 1781SOL    MW4 6892   5.668   1.011   6.065 -0.3331 -0.5966 -0.4159
 1782SOL     OW 6893   2.940   2.798   4.267  0.3576 -0.3116  0.0361
 1782SOL    HW2 6894   2.914   2.819   4.178 -1.1678  1.6766  0.8798
 1782SOL    HW3 6895   2.898   2.713   4.285  0.0452 -0.3580 -0.8666
 1782SOL    MW4 6896   2.931   2.789   4.258  0.1151 -0.0554  0.0283
 1783SOL     OW 6897   6.073   1.527   0.826 -1.3254 -0.5864 -0.1675
 1783SOL    HW2 6898   6.165   1.515   0.851 -1.2483  0.2829 -0.0096
 1783SOL    HW3 6899   6.036   1.439   0.829 -0.8379 -0.7629  1.1163
 1783SOL    MW4 6900   6.080   1.513   0.829 -1.2509 -0.4950  0.0227
 1784SOL     OW 6901   2.932   4.660   0.883  0.0914 -0.0255 -0.7413
 1784SOL    HW2 6902   3.027   4.656   0.876  0.1038 -0.0391 -0.5808
 1784SOL    HW3 6903   2.913   4.617   0.967 -0.0855 -0.4130 -0.9789
 1784SOL    MW4 6904   2.942   4.654   0.893  0.0697 -0.0784 -0.7515
 1785SOL     OW 6905   6.064   3.914   3.940 -0.4085 -0.1374  0.0221
 1785SOL    HW2 6906   6.044   3.956   3.856  0.0757 -0.8233 -0.4414
 1785SOL    HW3 6907   6.100   3.985   3.993 -0.1618  0.1741 -0.5472
 1785SOL    MW4 6908   6.066   3.929   3.936 -0.3121 -0.1868 -0.1141
 1786SOL     OW 6909   4.256   5.376   2.828  0.1108  0.4606 -0.0531
 1786SOL    HW2 6910   4.320   5.441   2.859 -0.5496  0.3775  1.5600
 1786SOL    HW3 6911   4.305   5.323   2.765  1.3339  1.0540  0.3525
 1786SOL    MW4 6912   4.271   5.378   2.824  0.1851  0.5280  0.2133
 1787SOL     OW 6913   4.586   3.379   4.992  0.1929 -0.1356  0.0136
 1787SOL    HW2 6914   4.515   3.361   4.930  0.1469  0.0574  0.0097
 1787SOL    HW3 6915   4.605   3.294   5.031  0.8356 -0.4263 -0.9031
 1787SOL    MW4 6916   4.579   3.365   4.989  0.2717 -0.1485 -0.1079
 1788SOL     OW 6917   5.750   5.546   4.135  0.3409  0.2001 -0.0637
 1788SOL    HW2 6918   5.831   5.520   4.092  0.2213  0.1787 -0.2809
 1788SOL    HW3 6919   5.711   5.464   4.165 -0.0975  0.1037 -0.8576
 1788SOL    MW4 6920   5.755   5.531   4.133  0.2672  0.1845 -0.1971
 1789SOL     OW 6921   1.476   1.935   4.701  0.4593 -0.1795 -0.4055
 1789SOL    HW2 6922   1.548   1.962   4.757  0.6883 -0.8497 -0.3614
 1789SOL    HW3 6923   1.398   1.944   4.756  0.2491  2.2652 -1.0151
 1789SOL    MW4 6924   1.475   1.939   4.716  0.4618  0.0546 -0.4801
 1790SOL     OW 6925   5.510   3.506   2.571 -0.7424 -0.0515  0.1298
 1790SOL    HW2 6926   5.550   3.428   2.531  0.5338  1.2528 -1.2845
 1790SOL    HW3 6927   5.585   3.563   2.590 -1.7810  1.6944 -0.8242
 1790SOL    MW4 6928   5.525   3.503   2.569 -0.7110  0.3509 -0.1827
 1791SOL     OW 6929   3.682   4.682   2.184 -0.0331 -0.7769 -0.6435
 1791SOL    HW2 6930   3.665   4.621   2.112 -0.3451 -1.5149  0.0377
 1791SOL    HW3 6931   3.676   4.628   2.263  0.6651 -0.0522 -0.0845
 1791SOL    MW4 6932   3.679   4.667   2.185  0.0179 -0.7787 -0.4799
 1792SOL     OW 6933   1.103   3.610   1.554  0.2370  0.5455 -0.0160
 1792SOL    HW2 6934   1.080   3.528   1.597  0.3957 -0.8648 -2.4170
 1792SOL    HW3 6935   1.019   3.648   1.528  0.1917 -0.6104 -1.7956
 1792SOL    MW4 6936   1.089   3.604   1.556  0.2520  0.2069 -0.5676
 1793SOL     OW 6937   5.910   1.670   3.695 -0.4494 -0.0396 -0.3142
 1793SOL    HW2 6938   5.907   1.725   3.773  0.7958  0.1815 -0.4002
 1793SOL    HW3 6939   5.949   1.588   3.724 -3.2891 -1.3602  0.0501
 1793SOL    MW4 6940   5.915   1.666   3.709 -0.6598 -0.1846 -0.2775
 1794SOL     OW 6941   3.912   6.086   5.523  0.1784  0.0661 -0.0435
 1794SOL    HW2 6942   4.003   6.116   5.521  0.5878 -1.0690  0.5178
 1794SOL    HW3 6943   3.916   6.003   5.570 -0.8249 -1.1748 -2.0623
 1794SOL    MW4 6944   3.925   6.079   5.529  0.1000 -0.2474 -0.2358
 1795SOL     OW 6945   4.643   5.830   4.724 -0.8848  0.2324 -0.4273
 1795SOL    HW2 6946   4.614   5.742   4.748  0.8691 -0.6777 -1.4126
 1795SOL    HW3 6947   4.562   5.880   4.712 -1.9127 -1.1038  0.5681
 1795SOL    MW4 6948   4.629   5.825   4.726 -0.7890 -0.0640 -0.4260
 1796SOL     OW 6949   5.459   4.575   3.775  0.0191  0.2426  0.1221
 1796SOL    HW2 6950   5.430   4.620   3.695 -0.4916  0.6387  0.5236
 1796SOL    HW3 6951   5.457   4.482   3.753 -1.8473  0.2321  0.2160
 1796SOL    MW4 6952   5.455   4.569   3.761 -0.2945  0.2934  0.1875
 1797SOL     OW 6953   3.269   5.063   5.712 -0.1633 -0.8953  0.1257
 1797SOL    HW2 6954   3.248   5.091   5.802  1.2375 -1.2067  0.5684
 1797SOL    HW3 6955   3.287   4.970   5.720 -0.2012 -0.9581 -0.5179
 1797SOL    MW4 6956   3.269   5.055   5.725  0.0165 -0.9447  0.0992
 1798SOL     OW 6957   4.722   0.029   6.420  0.3082 -0.3002  0.3118
 1798SOL    HW2 6958   4.758   0.111   6.388  1.5557 -0.8306  0.3123
 1798SOL    HW3 6959   4.657   0.054   6.486 -0.7316  0.7336 -1.0472
 1798SOL    MW4 6960   4.718   0.043   6.424  0.3356 -0.2338  0.1326
 1799SOL     OW 6961   4.373   0.418   1.842 -0.0484  0.2193  0.1611
 1799SOL    HW2 6962   4.365   0.323   1.842  1.7957  0.0179 -1.1057
 1799SOL    HW3 6963   4.316   0.447   1.771  0.0523 -0.0082 -0.0123
 1799SOL    MW4 6964   4.364   0.409   1.833  0.2082  0.1627 -0.0289
 1800SOL     OW 6965   0.604   2.847   5.327  0.0641  0.3581  0.3279
 1800SOL    HW2 6966   0.636   2.936   5.337  3.2033 -0.7167  0.9930
 1800SOL    HW3 6967   0.653   2.811   5.253 -0.7458 -0.9789  0.3992
 1800SOL    MW4 6968   0.614   2.854   5.319  0.3714  0.0399  0.4250
 1801SOL     OW 6969   6.159   5.065   4.076  0.1069 -0.2816  0.3153
 1801SOL    HW2 6970   6.126   5.140   4.026  0.0079 -0.0396  0.7407
 1801SOL    HW3 6971   6.107   4.991   4.045 -1.0873  0.1546  1.2226
 1801SOL    MW4 6972   6.148   5.065   4.065 -0.0637 -0.1922  0.4911
 1802SOL     OW 6973   3.247   3.214   3.797  0.0316  0.2287 -0.1255
 1802SOL    HW2 6974   3.231   3.129   3.755  0.4196  1.0040 -1.9821
 1802SOL    HW3 6975   3.258   3.275   3.723  1.2266  1.6174  1.1344
 1802SOL    MW4 6976   3.246   3.211   3.781  0.2405  0.5142 -0.2042
 1803SOL     OW 6977   0.513   0.108   4.826 -0.8473  0.1327  0.2714
 1803SOL    HW2 6978   0.555   0.071   4.904 -1.1987 -0.6271  0.1103
 1803SOL    HW3 6979   0.425   0.132   4.855 -0.4651  1.3449  0.5036
 1803SOL    MW4 6980   0.507   0.106   4.840 -0.8433  0.1924  0.2808
 1804SOL     OW 6981   2.003   4.100   4.272 -0.6673  0.4559 -0.0315
 1804SOL    HW2 6982   2.081   4.132   4.228 -0.1814 -0.6727 -0.0254
 1804SOL    HW3 6983   1.937   4.097   4.202 -0.5683  0.9344 -0.1489
 1804SOL    MW4 6984   2.004   4.104   4.257 -0.5902  0.3701 -0.0462
 1805SOL     OW 6985   4.352   6.263   4.559 -0.0421 -0.4327  0.0064
 1805SOL    HW2 6986   4.300   6.267   4.479  0.2052 -0.6257 -0.1648
 1805SOL    HW3 6987   4.289   6.277   4.630 -0.1216  0.6499 -0.2671
 1805SOL    MW4 6988   4.337   6.265   4.558 -0.0200 -0.3153 -0.0523
 1806SOL     OW 6989   0.633   0.340   0.339  0.1820 -0.0414 -0.3148
 1806SOL    HW2 6990   0.716   0.387   0.335 -0.1926  0.5574 -1.6163
 1806SOL    HW3 6991   0.616   0.312   0.249 -0.1666 -1.7113  0.2333
 1806SOL    MW4 6992   0.641   0.343   0.327  0.0866 -0.1827 -0.4142
 1807SOL     OW 6993   0.760   0.578   5.845 -0.0065 -0.4149 -0.1893
 1807SOL    HW2 6994   0.734   0.620   5.927  0.4601 -2.1350  0.9086
 1807SOL    HW3 6995   0.678   0.559   5.801 -0.3095 -0.1791  0.2599
 1807SOL    MW4 6996   0.746   0.581   5.850  0.0151 -0.6108  0.0148
 1808SOL     OW 6997   1.949   2.330   6.420 -0.4384 -0.6337  0.4289
 1808SOL    HW2 6998   1.886   2.309   6.489 -2.3440 -1.1148 -1.3313
 1808SOL    HW3 6999   1.976   2.245   6.385  0.8753 -0.4138  0.8483
 1808SOL    MW4 7000   1.944   2.316   6.424 -0.5165 -0.6682  0.2520
 1809SOL     OW 7001   0.567   5.066   1.966  0.2728  0.3624 -0.1195
 1809SOL    HW2 7002   0.617   5.145   1.948  1.6791 -0.1160  1.4354
 1809SOL    HW3 7003   0.556   5.064   2.061  0.7071 -1.5378 -0.0568
 1809SOL    MW4 7004   0.572   5.076   1.976  0.5156  0.0486  0.0939
 1810SOL     OW 7005   5.848   3.748   3.319 -0.0973  0.0894  0.4112
 1810SOL    HW2 7006   5.910   3.741   3.246 -0.0015 -1.7300  0.6218
 1810SOL    HW3 7007   5.822   3.840   3.320  0.8398  0.4011 -1.1361
 1810SOL    MW4 7008   5.853   3.759   3.310  0.0389 -0.1095  0.2349
 1811SOL     OW 7009   4.613   3.240   0.538  0.2104  0.0997 -0.0884
 1811SOL    HW2 7010   4.580   3.268   0.623 -1.1763  0.0638 -0.5882
 1811SOL    HW3 7011   4.612   3.144   0.543 -2.1589  0.0004 -0.9032
 1811SOL    MW4 7012   4.608   3.231   0.550 -0.2851  0.0818 -0.2618
 1812SOL     OW 7013   4.253   4.425   1.274  0.4534  0.1451 -0.4519
 1812SOL    HW2 7014   4.232   4.365   1.203 -0.0257 -0.8151  0.4686
 1812SOL    HW3 7015   4.324   4.382   1.322  0.7530  0.7654 -0.3351
 1812SOL    MW4 7016   4.260   4.411   1.271  0.4297  0.1003 -0.3150
 1813SOL     OW 7017   3.999   2.203   4.177  0.0179  0.4671 -0.0052
 1813SOL    HW2 7018   4.062   2.192   4.105  0.0365 -0.8371  0.1834
 1813SOL    HW3 7019   3.915   2.215   4.134 -0.1332 -1.3148 -0.2860
 1813SOL    MW4 7020   3.996   2.203   4.162  0.0004  0.0599 -0.0173
 1814SOL     OW 7021   3.010   1.017   4.475 -0.1833  0.0917 -0.1712
 1814SOL    HW2 7022   3.104   1.025   4.485 -0.4258  4.0439  0.6643
 1814SOL    HW3 7023   2.979   0.988   4.560  0.2044  0.1729 -0.0004
 1814SOL    MW4 7024   3.018   1.015   4.487 -0.1641  0.6239 -0.0385
 1815SOL     OW 7025   4.554   3.109   1.082  0.1809  0.2006 -0.5454
 1815SOL    HW2 7026   4.599   3.193   1.081  0.3477  0.1292  0.2268
 1815SOL    HW3 7027   4.542   3.087   0.990  1.7666  0.1972 -0.7737
 1815SOL    MW4 7028   4.558   3.117   1.070  0.4121  0.1908 -0.4736
 1816SOL     OW 7029   5.620   1.756   4.279  0.6942 -0.3979  0.4128
 1816SOL    HW2 7030   5.568   1.688   4.236  0.2894  0.6002 -0.7293
 1816SOL    HW3 7031   5.559   1.828   4.292  1.5843  0.5002 -0.2295
 1816SOL    MW4 7032   5.605   1.756   4.275  0.7583 -0.1478  0.1773
 1817SOL     OW 7033   3.719   6.226   3.491 -0.0728  0.0060 -0.2126
 1817SOL    HW2 7034   3.725   6.207   3.584 -1.0887 -0.6101 -0.2651
 1817SOL    HW3 7035   3.809   6.248   3.466  0.0510  1.1536  1.0988
 1817SOL    MW4 7036   3.732   6.227   3.500 -0.1905  0.0761 -0.0465
 1818SOL     OW 7037   5.360   0.590   1.235  0.2236 -0.0765  0.1111
 1818SOL    HW2 7038   5.355   0.502   1.272 -0.0111  0.4633  1.3976
 1818SOL    HW3 7039   5.290   0.639   1.279 -0.0674  0.5918 -1.0589
 1818SOL    MW4 7040   5.350   0.585   1.246  0.1542  0.0829  0.1264
 1819SOL     OW 7041   2.741   3.959   1.170 -0.2166 -0.0732 -0.1057
 1819SOL    HW2 7042   2.680   3.891   1.198 -1.5594 -0.2159 -3.0316
 1819SOL    HW3 7043   2.702   4.040   1.202  0.0556 -0.4278  1.1978
 1819SOL    MW4 7044   2.728   3.961   1.178 -0.3579 -0.1388 -0.3198
 1820SOL     OW 7045   3.286   3.649   3.652  0.1005 -0.0476  0.2346
 1820SOL    HW2 7046   3.377   3.620   3.657 -0.4745 -1.7890  1.5104
 1820SOL    HW3 7047   3.292   3.743   3.631  2.1694 -0.0583  0.5599
 1820SOL    MW4 7048   3.299   3.658   3.650  0.2976 -0.2788  0.4459
 1821SOL     OW 7049   3.608   5.144   3.361 -0.1602 -0.4597  0.1888
 1821SOL    HW2 7050   3.587   5.068   3.415 -1.3834 -1.1478 -1.1655
 1821SOL    HW3 7051   3.530   5.157   3.307 -0.2197  2.1437  0.7819
 1821SOL    MW4 7052   3.595   5.135   3.361 -0.3294 -0.2070  0.0884
 1822SOL     OW 7053   0.282   0.617   2.617 -0.4378  0.0849  0.1932
 1822SOL    HW2 7054   0.338   0.540   2.608 -1.4448 -0.7284  0.6697
 1822SOL    HW3 7055   0.210   0.602   2.556 -0.9468  0.3497  0.7129
 1822SOL    MW4 7056   0.280   0.605   2.608 -0.6378  0.0125  0.3246
 1823SOL     OW 7057   0.358   2.414   6.427  0.3118 -0.2916 -0.1051
 1823SOL    HW2 7058   0.272   2.419   6.385 -0.5389  0.4841  1.6369
 1823SOL    HW3 7059   0.382   2.506   6.444  1.9656 -0.4238 -1.4291
 1823SOL    MW4 7060   0.350   2.427   6.424  0.4178 -0.2067 -0.0500
 1824SOL     OW 7061   1.129   5.833   0.149  0.0627  0.3516 -0.3380
 1824SOL    HW2 7062   1.068   5.854   0.078  0.8417 -1.4454 -1.6257
 1824SOL    HW3 7063   1.134   5.737   0.149 -0.3437  0.2462  2.5841
 1824SOL    MW4 7064   1.122   5.823   0.140  0.1118  0.1006 -0.1223
 1825SOL     OW 7065   1.104   2.532   2.923  0.5244  0.7471 -0.4185
 1825SOL    HW2 7066   1.139   2.478   2.852  1.2156  1.7482 -0.8491
 1825SOL    HW3 7067   1.021   2.565   2.888  0.6961  0.9586 -0.6299
 1825SOL    MW4 7068   1.097   2.529   2.909  0.6382  0.9071 -0.5032
 1826SOL     OW 7069   2.068   4.611   4.556  0.4170 -0.3645 -0.4917
 1826SOL    HW2 7070   2.156   4.647   4.560  0.3833 -0.1091 -1.6464
 1826SOL    HW3 7071   2.055   4.590   4.463 -0.8041 -0.2165 -0.3701
 1826SOL    MW4 7072   2.078   4.613   4.544  0.2514 -0.3113 -0.6280
 1827SOL     OW 7073   6.281   3.681   3.514  0.2179 -0.0528  0.4117
 1827SOL    HW2 7074   6.243   3.673   3.602  3.2756  0.8018  1.9358
 1827SOL    HW3 7075   6.322   3.595   3.498 -0.1761 -0.1461 -0.1196
 1827SOL    MW4 7076   6.281   3.668   3.523  0.5694  0.0476  0.5427
 1828SOL     OW 7077   0.311   1.563   1.105 -0.3796  0.2043  0.1838
 1828SOL    HW2 7078   0.305   1.658   1.094 -0.2079  0.3404  1.1613
 1828SOL    HW3 7079   0.228   1.530   1.070 -2.0739  1.0530  3.0514
 1828SOL    MW4 7080   0.299   1.571   1.099 -0.5805  0.3342  0.6911
 1829SOL     OW 7081   2.859   3.869   0.644  0.0585  0.3537 -0.6667
 1829SOL    HW2 7082   2.844   3.854   0.551 -0.0892 -1.5930 -0.3623
 1829SOL    HW3 7083   2.938   3.819   0.665 -0.5603 -0.1896  0.4727
 1829SOL    MW4 7084   2.867   3.861   0.635 -0.0427  0.0252 -0.4762
 1830SOL     OW 7085   0.671   1.501   1.991  0.2957  0.0964  0.1585
 1830SOL    HW2 7086   0.751   1.553   1.992  1.7230 -1.9928 -0.2390
 1830SOL    HW3 7087   0.608   1.553   2.041  2.5689  0.7759  2.5148
 1830SOL    MW4 7088   0.673   1.515   1.998  0.7839 -0.0896  0.4170
 1831SOL     OW 7089   3.142   0.631   4.220  0.3922  0.2053  0.2139
 1831SOL    HW2 7090   3.222   0.607   4.268  1.0652  0.2124 -0.8730
 1831SOL    HW3 7091   3.114   0.713   4.260 -1.0328 -1.4356  2.9165
 1831SOL    MW4 7092   3.149   0.639   4.232  0.2930 -0.0103  0.4271
 1832SOL     OW 7093   0.225   1.212   3.653  0.5291  0.6068  0.1903
 1832SOL    HW2 7094   0.129   1.215   3.647  0.5813  1.4841 -0.4275
 1832SOL    HW3 7095   0.253   1.187   3.565  0.8593 -0.0454  0.4766
 1832SOL    MW4 7096   0.216   1.209   3.641  0.5795  0.6365  0.1466
 1833SOL     OW 7097   1.185   4.424   5.261  0.1626 -0.4404  0.2138
 1833SOL    HW2 7098   1.277   4.401   5.258  0.6214  1.3281 -0.2052
 1833SOL    HW3 7099   1.167   4.465   5.176 -0.5506  0.8089  0.9322
 1833SOL    MW4 7100   1.195   4.426   5.249  0.1290 -0.0423  0.2533
 1834SOL     OW 7101   5.928   5.816   3.952 -0.1164  0.0808 -0.0956
 1834SOL    HW2 7102   5.863   5.751   3.924  0.8749 -0.9855 -0.0009
 1834SOL    HW3 7103   6.007   5.765   3.968  1.0721  1.4876 -1.2392
 1834SOL    MW4 7104   5.930   5.801   3.951  0.1712  0.1257 -0.2340
 1835SOL     OW 7105   3.015   1.069   2.303  0.3836  0.0927  0.2996
 1835SOL    HW2 7106   2.958   1.058   2.379 -0.3559  1.6646  0.0170
 1835SOL    HW3 7107   3.078   0.998   2.310 -0.1704 -0.2854  1.9301
 1835SOL    MW4 7108   3.016   1.058   2.314  0.2129  0.2502  0.4774
 1836SOL     OW 7109   4.869   5.969   4.649 -0.2185 -0.2453  0.7612
 1836SOL    HW2 7110   4.867   6.062   4.627  0.6918 -0.3793  0.0592
 1836SOL    HW3 7111   4.778   5.940   4.640 -0.0785 -0.0842 -2.0488
 1836SOL    MW4 7112   4.856   5.978   4.645 -0.0799 -0.2417  0.2979
 1837SOL     OW 7113   5.572   1.447   1.213  0.1074  0.1275  0.1499
 1837SOL    HW2 7114   5.609   1.491   1.136 -1.0955  0.6690 -0.1305
 1837SOL    HW3 7115   5.595   1.505   1.286  1.5186 -0.5398  0.2721
 1837SOL    MW4 7116   5.580   1.461   1.212  0.1349  0.1109  0.1291
 1838SOL     OW 7117   5.119   1.016   3.922  0.2971  0.2370 -0.0662
 1838SOL    HW2 7118   5.124   1.112   3.921  0.3600  0.2477 -1.9525
 1838SOL    HW3 7119   5.028   0.996   3.899  0.3534 -0.1675  0.0458
 1838SOL    MW4 7120   5.107   1.026   3.919  0.3128  0.1850 -0.3003
 1839SOL     OW 7121   5.644   0.990   1.087  0.0820  0.6853  0.5863
 1839SOL    HW2 7122   5.733   1.021   1.106  0.6603  0.0776 -0.9977
 1839SOL    HW3 7123   5.625   0.929   1.158  0.6814  1.2577  1.2644
 1839SOL    MW4 7124   5.653   0.986   1.099  0.2374  0.6807  0.4668
 1840SOL     OW 7125   4.858   6.404   1.052 -0.2536  0.1366  0.2616
 1840SOL    HW2 7126   4.868   6.367   0.965  0.4299 -0.5140  0.5963
 1840SOL    HW3 7127   4.816   6.489   1.039 -3.5655 -1.4519 -0.3994
 1840SOL    MW4 7128   4.854   6.410   1.039 -0.6004 -0.1588  0.2185
 1841SOL     OW 7129   1.682   5.632   4.316  0.2982 -0.6610 -0.3446
 1841SOL    HW2 7130   1.595   5.648   4.352  0.5966 -0.4994  0.3153
 1841SOL    HW3 7131   1.736   5.704   4.350  1.1620 -1.8626  0.9100
 1841SOL    MW4 7132   1.677   5.644   4.325  0.4515 -0.7982 -0.0920
 1842SOL     OW 7133   3.407   5.625   2.907 -0.2988 -0.1228 -0.8360
 1842SOL    HW2 7134   3.314   5.619   2.929 -0.4113 -0.0542 -1.2962
 1842SOL    HW3 7135   3.449   5.559   2.963 -0.5638  0.1467 -0.3077
 1842SOL    MW4 7136   3.401   5.615   2.918 -0.3486 -0.0782 -0.8270
 1843SOL     OW 7137   2.302   5.488   4.437  0.0529 -0.1150 -0.0673
 1843SOL    HW2 7138   2.373   5.547   4.412 -0.5758  0.9467  0.5343
 1843SOL    HW3 7139   2.318   5.408   4.388  1.2637  0.3522 -0.4741
 1843SOL    MW4 7140   2.313   5.485   4.427  0.1297  0.0868 -0.0416
 1844SOL     OW 7141   5.675   1.608   3.353 -0.4091 -0.2189  0.3316
 1844SOL    HW2 7142   5.723   1.691   3.350 -0.5707 -0.1479 -0.5511
 1844SOL    HW3 7143   5.741   1.543   3.379 -0.3450  0.2168  1.2921
 1844SOL    MW4 7144   5.690   1.610   3.356 -0.4220 -0.1520  0.3419
 1845SOL     OW 7145   5.238   5.728   2.785 -0.0244 -0.2396 -0.6063
 1845SOL    HW2 7146   5.179   5.670   2.834  0.7443 -1.2135 -0.8204
 1845SOL    HW3 7147   5.179   5.781   2.731 -0.7411 -0.7909 -0.3824
 1845SOL    MW4 7148   5.222   5.727   2.785 -0.0175 -0.4408 -0.6050
 1846SOL     OW 7149   3.809   3.111   2.169 -0.3468  0.0816 -0.5225
 1846SOL    HW2 7150   3.896   3.101   2.208 -0.1380  1.2424 -0.6427
 1846SOL    HW3 7151   3.761   3.033   2.196  0.0596  0.4293  1.3489
 1846SOL    MW4 7152   3.814   3.099   2.178 -0.2656  0.2806 -0.2915
 1847SOL     OW 7153   0.164   0.880   0.690 -0.2553 -0.0104  0.3100
 1847SOL    HW2 7154   0.178   0.973   0.671 -0.9146  0.2923  1.2678
 1847SOL    HW3 7155   0.222   0.835   0.629  0.8798  1.0574  0.5657
 1847SOL    MW4 7156   0.173   0.887   0.679 -0.1925  0.1704  0.4701
 1848SOL     OW 7157   4.083   3.755   4.337 -0.0763  0.2189 -0.4437
 1848SOL    HW2 7158   4.100   3.682   4.276  0.3629 -0.7963  0.8340
 1848SOL    HW3 7159   4.169   3.796   4.349  0.3159 -0.9338  1.0952
 1848SOL    MW4 7160   4.097   3.750   4.330  0.0334 -0.0671 -0.0721
 1849SOL     OW 7161   4.602   3.006   1.967  0.2906 -0.2746 -0.1511
 1849SOL    HW2 7162   4.616   2.950   1.890  1.4551  0.2623 -0.3468
 1849SOL    HW3 7163   4.601   3.095   1.933 -0.3212 -0.0952  0.3193
 1849SOL    MW4 7164   4.604   3.010   1.952  0.3635 -0.1801 -0.1149
 1850SOL     OW 7165   5.923   1.161   4.526  0.0417  0.4734  0.2811
 1850SOL    HW2 7166   5.846   1.208   4.560 -1.3998 -1.0388 -0.7247
 1850SOL    HW3 7167   5.928   1.083   4.581 -0.6747 -0.6517 -1.1898
 1850SOL    MW4 7168   5.913   1.157   4.538 -0.2430  0.1254 -0.0457
 1851SOL     OW 7169   1.299   5.421   1.553  0.5062  0.0313 -0.4665
 1851SOL    HW2 7170   1.322   5.416   1.460 -1.1269 -0.0939 -0.9005
 1851SOL    HW3 7171   1.256   5.506   1.562 -0.6886 -0.5749 -0.1797
 1851SOL    MW4 7172   1.296   5.431   1.542  0.1331 -0.0652 -0.4859
 1852SOL     OW 7173   5.293   2.851   1.866 -0.1836 -0.5151  0.1910
 1852SOL    HW2 7174   5.236   2.789   1.912 -0.8004 -1.7472 -2.1288
 1852SOL    HW3 7175   5.381   2.829   1.896 -0.6365 -0.5130  1.6118
 1852SOL    MW4 7176   5.297   2.840   1.876 -0.3247 -0.6774  0.0724
 1853SOL     OW 7177   4.201   0.244   3.556  0.6207 -0.4352 -0.0460
 1853SOL    HW2 7178   4.205   0.261   3.650  0.9683 -1.0855  0.0647
 1853SOL    HW3 7179   4.138   0.308   3.522 -0.4637 -0.9912  0.8281
 1853SOL    MW4 7180   4.193   0.254   3.564  0.5235 -0.5944  0.0839
 1854SOL     OW 7181   2.682   0.318   0.072  0.4382  0.6284 -0.1128
 1854SOL    HW2 7182   2.589   0.296   0.070  0.6814 -0.3894 -1.8048
 1854SOL    HW3 7183   2.684   0.409   0.102 -0.8435 -0.2608  3.2360
 1854SOL    MW4 7184   2.670   0.327   0.076  0.3012  0.3768  0.1058
 1855SOL     OW 7185   5.662   3.077   1.762  0.7467 -0.1695  0.1804
 1855SOL    HW2 7186   5.620   3.082   1.676  2.6593 -0.2539 -0.8380
 1855SOL    HW3 7187   5.717   3.156   1.766  0.4241  0.0090  1.4874
 1855SOL    MW4 7188   5.664   3.088   1.751  0.9565 -0.1571  0.2185
 1856SOL     OW 7189   0.227   5.066   1.205 -0.0137  0.0159 -0.0734
 1856SOL    HW2 7190   0.160   4.998   1.194 -1.5499  1.3042  0.9279
 1856SOL    HW3 7191   0.307   5.017   1.223 -1.1246 -1.5532  0.9416
 1856SOL    MW4 7192   0.228   5.051   1.206 -0.3629 -0.0211  0.1926
 1857SOL     OW 7193   0.164   3.728   5.990 -0.4111 -0.0583  0.1827
 1857SOL    HW2 7194   0.159   3.805   6.047 -1.6137 -0.5348  0.7775
 1857SOL    HW3 7195   0.175   3.763   5.902  1.6780  0.6950  0.6991
 1857SOL    MW4 7196   0.165   3.743   5.986 -0.2941 -0.0217  0.3293
 1858SOL     OW 7197   4.049   4.688   2.913  0.7052  0.1095  0.3403
 1858SOL    HW2 7198   4.036   4.781   2.897 -2.1234  0.2538  2.6291
 1858SOL    HW3 7199   4.032   4.646   2.829 -1.2120  1.4909 -0.0221
 1858SOL    MW4 7200   4.045   4.694   2.900  0.0790  0.3108  0.5945
 1859SOL     OW 7201   4.151   5.716   4.077 -0.2751  0.4019  0.5640
 1859SOL    HW2 7202   4.211   5.782   4.043 -0.6645 -0.9707 -3.2698
 1859SOL    HW3 7203   4.207   5.643   4.103 -0.0622  0.6259  0.7332
 1859SOL    MW4 7204   4.166   5.715   4.076 -0.2984  0.2504  0.0805
 1860SOL     OW 7205   5.203   3.696   2.615  0.0097  0.2885 -0.6828
 1860SOL    HW2 7206   5.222   3.786   2.585  0.6820 -0.1039 -1.4828
 1860SOL    HW3 7207   5.272   3.677   2.678 -0.3932  0.4891 -0.1776
 1860SOL    MW4 7208   5.215   3.706   2.619  0.0452  0.2632 -0.7217
 1861SOL     OW 7209   3.819   0.532   4.539 -0.0819 -0.0519  0.4262
 1861SOL    HW2 7210   3.729   0.536   4.571 -0.2264 -1.3067  0.2291
 1861SOL    HW3 7211   3.854   0.621   4.552 -1.0134  0.1739  1.4543
 1861SOL    MW4 7212   3.812   0.545   4.545 -0.2239 -0.1877  0.5358
 1862SOL     OW 7213   6.264   0.139   4.475 -0.2564 -0.3496 -0.1364
 1862SOL    HW2 7214   6.198   0.175   4.415 -0.0976 -2.1123 -1.4661
 1862SOL    HW3 7215   6.336   0.112   4.417  0.4881 -0.8834  1.0082
 1862SOL    MW4 7216   6.265   0.140   4.459 -0.1372 -0.6526 -0.1608
 1863SOL     OW 7217   4.828   4.098   0.055 -0.2322 -0.2028  0.1667
 1863SOL    HW2 7218   4.797   4.024   0.003  2.0931 -0.3197 -1.2022
 1863SOL    HW3 7219   4.895   4.139   0.000 -0.6661  2.2862  1.3346
 1863SOL    MW4 7220   4.833   4.094   0.041  0.0173  0.1102  0.1402
 1864SOL     OW 7221   3.599   2.256   3.697  0.1944 -0.3503 -0.9786
 1864SOL    HW2 7222   3.573   2.165   3.712  0.1222 -0.3364 -1.0208
 1864SOL    HW3 7223   3.653   2.253   3.618 -0.0577 -0.3131 -1.1528
 1864SOL    MW4 7224   3.603   2.243   3.689  0.1516 -0.3435 -1.0071
 1865SOL     OW 7225   0.117   2.651   1.506 -0.1029 -0.0714  0.0235
 1865SOL    HW2 7226   0.051   2.590   1.537  1.4543 -1.9078 -0.0947
 1865SOL    HW3 7227   0.106   2.729   1.561  0.6176 -2.0608  3.2539
 1865SOL    MW4 7228   0.107   2.654   1.517  0.1976 -0.5762  0.4341
 1866SOL     OW 7229   2.425   5.007   5.544 -0.2790 -0.0893  0.1993
 1866SOL    HW2 7230   2.371   5.079   5.575 -0.4086  0.5204 -1.3603
 1866SOL    HW3 7231   2.391   4.987   5.457  1.2258 -0.4847 -0.3405
 1866SOL    MW4 7232   2.414   5.014   5.536 -0.0976 -0.0610 -0.0777
 1867SOL     OW 7233   1.469   5.538   2.765 -0.3622  0.5144  0.2396
 1867SOL    HW2 7234   1.481   5.488   2.845 -0.0554  0.5474  0.2157
 1867SOL    HW3 7235   1.448   5.627   2.794  1.2471  0.8987  0.3026
 1867SOL    MW4 7236   1.467   5.543   2.779 -0.1094  0.5695  0.2448
 1868SOL     OW 7237   3.718   2.195   4.130  0.1442  0.1046  0.0846
 1868SOL    HW2 7238   3.653   2.126   4.120  1.5141 -1.1512 -0.5208
 1868SOL    HW3 7239   3.672   2.275   4.107 -1.1892 -0.7414 -0.2939
 1868SOL    MW4 7240   3.704   2.196   4.126  0.1490 -0.1727 -0.0452
 1869SOL     OW 7241   1.905   0.805   3.529 -0.0412  0.4153  0.1594
 1869SOL    HW2 7242   1.897   0.761   3.614 -0.7519  0.3590  0.0641
 1869SOL    HW3 7243   1.988   0.773   3.494  0.3960  0.6434  0.9472
 1869SOL    MW4 7244   1.915   0.795   3.536 -0.0773  0.4379  0.2508
 1870SOL     OW 7245   2.227   2.066   0.260 -0.6838 -0.7185  0.2845
 1870SOL    HW2 7246   2.228   2.045   0.166 -1.9812 -0.1739  0.1184
 1870SOL    HW3 7247   2.298   2.014   0.297 -2.7228 -4.2454 -0.3003
 1870SOL    MW4 7248   2.236   2.057   0.252 -1.1240 -1.1120  0.1854
 1871SOL     OW 7249   2.715   1.778   3.481 -0.0380 -0.1261  0.0062
 1871SOL    HW2 7250   2.757   1.820   3.557  0.0425  1.1772 -0.7414
 1871SOL    HW3 7251   2.758   1.693   3.475 -1.8044 -1.4033  2.9649
 1871SOL    MW4 7252   2.726   1.772   3.491 -0.2604 -0.1227  0.2979
 1872SOL     OW 7253   3.581   4.816   6.048  0.2556 -0.3698  0.4130
 1872SOL    HW2 7254   3.506   4.757   6.037 -0.0076  0.2455 -1.3570
 1872SOL    HW3 7255   3.603   4.844   5.959  1.4344  0.9017  1.0663
 1872SOL    MW4 7256   3.574   4.812   6.035  0.3764 -0.1209  0.2656
 1873SOL     OW 7257   2.366   3.032   5.102  0.4863  0.0159  0.5954
 1873SOL    HW2 7258   2.379   2.995   5.015 -0.9904  0.2026  0.2652
 1873SOL    HW3 7259   2.279   3.001   5.128  0.0474  1.6220  1.1381
 1873SOL    MW4 7260   2.356   3.023   5.094  0.2336  0.2525  0.6234
 1874SOL     OW 7261   1.466   2.479   1.167  0.3568  0.0058  0.2791
 1874SOL    HW2 7262   1.494   2.455   1.256  1.6745  1.6247  0.3380
 1874SOL    HW3 7263   1.447   2.395   1.125  0.2186 -0.8314  1.9101
 1874SOL    MW4 7264   1.467   2.464   1.173  0.5124  0.1090  0.5021
 1875SOL     OW 7265   6.296   5.046   1.222 -0.0033  0.2682 -0.2693
 1875SOL    HW2 7266   6.298   5.062   1.127  1.3372  0.5522 -0.2124
 1875SOL    HW3 7267   6.266   4.955   1.230 -0.9133  0.4981 -0.9197
 1875SOL    MW4 7268   6.292   5.036   1.210  0.0535  0.3360 -0.3476
 1876SOL     OW 7269   5.367   0.659   1.814 -0.2839 -0.1004 -0.0833
 1876SOL    HW2 7270   5.461   0.665   1.833 -0.5523  0.7867  1.0474
 1876SOL    HW3 7271   5.334   0.597   1.879 -0.4392 -0.6763 -0.6988
 1876SOL    MW4 7272   5.375   0.651   1.825 -0.3398 -0.0594 -0.0153
 1877SOL     OW 7273   4.202   5.946   0.472 -0.1223 -0.5696 -0.0966
 1877SOL    HW2 7274   4.269   5.901   0.422  0.2861  0.6968 -0.7171
 1877SOL    HW3 7275   4.241   6.030   0.497 -1.6821  0.5158 -1.0913
 1877SOL    MW4 7276   4.216   5.951   0.469 -0.2742 -0.2593 -0.3097
 1878SOL     OW 7277   1.366   4.035   5.375  0.4337  0.3590 -0.2246
 1878SOL    HW2 7278   1.343   4.125   5.355  0.3159  0.4701  0.3748
 1878SOL    HW3 7279   1.416   4.040   5.456  0.5816 -0.0958 -0.2820
 1878SOL    MW4 7280   1.369   4.047   5.383  0.4377  0.3136 -0.1531
 1879SOL     OW 7281   0.305   1.881   2.302  0.0132 -0.1582  0.2127
 1879SOL    HW2 7282   0.266   1.800   2.335  1.0233 -0.7444  0.0068
 1879SOL    HW3 7283   0.231   1.934   2.275 -0.6953 -0.7902  0.8615
 1879SOL    MW4 7284   0.290   1.877   2.303  0.0530 -0.3189  0.2711
 1880SOL     OW 7285   3.136   4.001   3.871 -0.3377  0.0767 -0.2644
 1880SOL    HW2 7286   3.060   3.987   3.928 -0.0793 -2.2319 -0.3961
 1880SOL    HW3 7287   3.201   3.938   3.901 -0.5209 -1.9516 -3.5575
 1880SOL    MW4 7288   3.134   3.991   3.882 -0.3278 -0.4955 -0.7162
 1881SOL     OW 7289   2.107   1.485   4.953 -0.4475  0.1853  0.0565
 1881SOL    HW2 7290   2.020   1.495   4.991 -0.4656  0.0782  0.0441
 1881SOL    HW3 7291   2.163   1.541   5.007 -0.3810 -0.3651  0.5682
 1881SOL    MW4 7292   2.103   1.494   4.965 -0.4411  0.0986  0.1224
 1882SOL     OW 7293   0.203   0.965   3.791  0.1615 -0.5452 -0.1471
 1882SOL    HW2 7294   0.123   0.925   3.757 -0.2194  0.2800 -0.2621
 1882SOL    HW3 7295   0.208   1.049   3.746  2.2505 -1.4559 -1.7299
 1882SOL    MW4 7296   0.193   0.971   3.781  0.3868 -0.5565 -0.3711
 1883SOL     OW 7297   2.540   4.122   3.299  0.3954  0.0687  0.1150
 1883SOL    HW2 7298   2.570   4.092   3.213  2.7386 -2.0459  1.5292
 1883SOL    HW3 7299   2.503   4.044   3.340  2.4069  0.1135  2.2198
 1883SOL    MW4 7300   2.539   4.108   3.293  0.9700 -0.2044  0.5793
 1884SOL     OW 7301   6.339   4.967   1.646 -0.2610  0.0714  0.6304
 1884SOL    HW2 7302   6.393   5.044   1.661  1.3165 -0.6505 -0.8916
 1884SOL    HW3 7303   6.348   4.915   1.726  1.8862 -0.3122  0.2204
 1884SOL    MW4 7304   6.348   4.970   1.658  0.2304 -0.0744  0.3755
 1885SOL     OW 7305   3.891   1.371   5.658 -0.2103 -0.5378  0.7654
 1885SOL    HW2 7306   3.806   1.412   5.641  0.0805  0.3059  1.3288
 1885SOL    HW3 7307   3.953   1.422   5.607  0.0121 -0.9586  0.6084
 1885SOL    MW4 7308   3.888   1.383   5.649 -0.1426 -0.4820  0.8190
 1886SOL     OW 7309   6.354   5.594   2.987  0.5587 -0.1401  0.0366
 1886SOL    HW2 7310   6.429   5.611   2.930  0.2328  0.7120 -0.1651
 1886SOL    HW3 7311   6.370   5.507   3.024  2.5887  0.7619  1.4746
 1886SOL    MW4 7312   6.366   5.585   2.985  0.7835  0.0913  0.1997
 1887SOL     OW 7313   0.156   3.783   5.456 -0.0397 -0.0242 -0.8849
 1887SOL    HW2 7314   0.198   3.855   5.409 -1.0956  0.4879 -1.0505
 1887SOL    HW3 7315   0.159   3.810   5.548  0.2168 -0.1155 -0.8632
 1887SOL    MW4 7316   0.162   3.796   5.462 -0.1452  0.0313 -0.9039
 1888SOL     OW 7317   3.894   6.352   3.107  0.0680  0.1573  0.0148
 1888SOL    HW2 7318   3.915   6.333   3.198 -2.3289 -1.2260  0.3616
 1888SOL    HW3 7319   3.853   6.439   3.109 -1.0766 -0.3737  0.4813
 1888SOL    MW4 7320   3.891   6.361   3.119 -0.3993 -0.0953  0.1221
 1889SOL     OW 7321   4.018   5.234   5.592  0.2804 -1.0761  0.2698
 1889SOL    HW2 7322   3.944   5.289   5.567  2.3647  0.8735 -2.2162
 1889SOL    HW3 7323   4.023   5.241   5.688 -1.9231 -0.2610  0.3721
 1889SOL    MW4 7324   4.009   5.242   5.602  0.2647 -0.7113 -0.0447
 1890SOL     OW 7325   4.056   5.423   3.718  0.4328  0.0649  0.1311
 1890SOL    HW2 7326   3.982   5.363   3.712 -0.7063  1.4800 -0.7123
 1890SOL    HW3 7327   4.060   5.465   3.632  0.2196  2.2450  1.1279
 1890SOL    MW4 7328   4.047   5.421   3.706  0.2544  0.5392  0.1513
 1891SOL     OW 7329   1.299   0.007   1.854 -0.1008  0.3288  0.1346
 1891SOL    HW2 7330   1.391  -0.021   1.855  0.1371  1.0936  1.5493
 1891SOL    HW3 7331   1.297   0.078   1.791  0.5092  1.0009  0.8542
 1891SOL    MW4 7332   1.311   0.012   1.846  0.0111  0.5184  0.4162
 1892SOL     OW 7333   1.164   2.033   3.054 -0.2809 -0.1549  0.5932
 1892SOL    HW2 7334   1.154   2.127   3.069 -1.4026 -0.1013 -0.3232
 1892SOL    HW3 7335   1.245   2.025   3.005 -1.1153  0.5500 -0.9629
 1892SOL    MW4 7336   1.173   2.044   3.050 -0.5390 -0.0548  0.2670
 1893SOL     OW 7337   2.213   4.002   2.042  0.0910 -0.3346  0.0330
 1893SOL    HW2 7338   2.231   4.096   2.035 -1.4710  0.0690  0.9136
 1893SOL    HW3 7339   2.250   3.977   2.127 -2.4437  0.2874  1.4023
 1893SOL    MW4 7340   2.220   4.011   2.052 -0.4495 -0.1993  0.3299
 1894SOL     OW 7341   4.130   0.896   0.108 -0.0447 -0.5962  0.8860
 1894SOL    HW2 7342   4.145   0.961   0.039  0.3353  0.4490  1.9346
 1894SOL    HW3 7343   4.184   0.821   0.082  1.3738  0.3946  0.8737
 1894SOL    MW4 7344   4.139   0.895   0.095  0.1926 -0.3276  1.0228
 1895SOL     OW 7345   4.892   3.135   3.615 -0.2959  0.4155  0.0126
 1895SOL    HW2 7346   4.902   3.222   3.576 -0.2779 -0.2831 -1.6090
 1895SOL    HW3 7347   4.798   3.118   3.610 -0.6322  1.2036  2.3633
 1895SOL    MW4 7348   4.881   3.144   3.610 -0.3379  0.4273  0.1088
 1896SOL     OW 7349   0.357   1.980   1.706  0.2100 -0.0963 -0.2456
 1896SOL    HW2 7350   0.436   2.021   1.741 -1.3769  0.2058  3.4197
 1896SOL    HW3 7351   0.382   1.889   1.693  0.8815 -0.3145  2.1500
 1896SOL    MW4 7352   0.371   1.974   1.709  0.0892 -0.0853  0.5541
 1897SOL     OW 7353   5.306   4.617   0.651  0.0000  0.4978 -0.3949
 1897SOL    HW2 7354   5.384   4.670   0.635 -0.2683  0.9066 -0.3629
 1897SOL    HW3 7355   5.329   4.530   0.618  0.2887  0.7388 -0.8423
 1897SOL    MW4 7356   5.319   4.613   0.645  0.0027  0.5835 -0.4497
 1898SOL     OW 7357   4.192   1.599   0.218  0.3849  0.2553 -0.7620
 1898SOL    HW2 7358   4.189   1.678   0.272 -0.3724 -0.3948  0.2099
 1898SOL    HW3 7359   4.100   1.584   0.194  0.5566 -0.1717 -1.1532
 1898SOL    MW4 7360   4.179   1.607   0.222  0.3076  0.1132 -0.6854
 1899SOL     OW 7361   0.273   0.022   6.094  0.1976 -0.1554  0.3496
 1899SOL    HW2 7362   0.273  -0.072   6.115  0.7900 -0.0550  0.8181
 1899SOL    HW3 7363   0.361   0.052   6.118 -0.3527  0.7629  1.3073
 1899SOL    MW4 7364   0.285   0.013   6.100  0.2031 -0.0210  0.5378
 1900SOL     OW 7365   3.264   2.582   2.322  0.1537 -0.3131  0.2624
 1900SOL    HW2 7366   3.314   2.565   2.402  0.1732 -0.4634  0.2189
 1900SOL    HW3 7367   3.246   2.495   2.286 -0.4804 -0.2858  0.4881
 1900SOL    MW4 7368   3.268   2.569   2.328  0.0726 -0.3293  0.2864
 1901SOL     OW 7369   1.045   4.735   2.199 -0.1635  0.3437  0.3758
 1901SOL    HW2 7370   1.025   4.800   2.266 -1.0737 -0.0373  0.4819
 1901SOL    HW3 7371   0.965   4.725   2.149 -0.2640 -1.1678  0.7701
 1901SOL    MW4 7372   1.032   4.742   2.201 -0.2968  0.0940  0.4418
 1902SOL     OW 7373   4.083   2.689   0.673 -0.6721  0.3824  0.0672
 1902SOL    HW2 7374   4.060   2.750   0.742  0.3580 -0.0412  0.8126
 1902SOL    HW3 7375   4.150   2.735   0.622  1.0341 -0.5346  1.3741
 1902SOL    MW4 7376   4.089   2.703   0.675 -0.3110  0.2055  0.3380
 1903SOL     OW 7377   6.184   6.269   2.619  0.1332 -0.2547 -0.5372
 1903SOL    HW2 7378   6.259   6.281   2.678 -0.7921  2.3999  0.1980
 1903SOL    HW3 7379   6.108   6.272   2.676 -0.6427 -1.6052 -1.4456
 1903SOL    MW4 7380   6.184   6.271   2.634 -0.0912 -0.0826 -0.5601
 1904SOL     OW 7381   6.222   5.820   4.845 -0.2423 -0.3420  0.2001
 1904SOL    HW2 7382   6.231   5.891   4.908  0.6474  0.8770 -1.2531
 1904SOL    HW3 7383   6.211   5.741   4.899 -1.7830  0.9266  1.8447
 1904SOL    MW4 7384   6.222   5.819   4.861 -0.3282 -0.0138  0.2253
 1905SOL     OW 7385   1.203   0.670   2.018  0.3720  0.3160 -0.0354
 1905SOL    HW2 7386   1.126   0.614   2.031  0.1879  0.6161  0.1580
 1905SOL    HW3 7387   1.274   0.621   2.059  0.2247  0.1932  0.0779
 1905SOL    MW4 7388   1.202   0.656   2.025  0.3283  0.3394  0.0050
 1906SOL     OW 7389   5.366   4.167   4.952 -0.4010 -0.1627  0.0789
 1906SOL    HW2 7390   5.334   4.077   4.948  2.1103 -1.1316 -0.6857
 1906SOL    HW3 7391   5.415   4.171   5.034 -1.6522  0.9916  0.8097
 1906SOL    MW4 7392   5.369   4.156   4.962 -0.2348 -0.1382  0.0744
 1907SOL     OW 7393   2.341   0.871   2.951 -0.3192 -0.1363  0.3340
 1907SOL    HW2 7394   2.287   0.792   2.947 -0.4890 -0.0208  0.3295
 1907SOL    HW3 7395   2.406   0.851   3.019  1.6316 -1.4945 -1.7838
 1907SOL    MW4 7396   2.343   0.858   2.960 -0.0842 -0.3002  0.0540
 1908SOL     OW 7397   1.705   4.372   4.629 -0.5597  0.3254  0.2308
 1908SOL    HW2 7398   1.630   4.357   4.572 -1.1502  0.2280  1.0306
 1908SOL    HW3 7399   1.672   4.428   4.699 -0.0959 -0.3585  1.0210
 1908SOL    MW4 7400   1.691   4.378   4.630 -0.5764  0.2223  0.4406
 1909SOL     OW 7401   3.050   5.601   0.357 -0.1355 -0.0827 -0.4114
 1909SOL    HW2 7402   3.046   5.512   0.393  1.1705 -0.2772 -0.7053
 1909SOL    HW3 7403   3.141   5.611   0.328 -0.4246  1.1324 -0.9452
 1909SOL    MW4 7404   3.061   5.590   0.358 -0.0013  0.0520 -0.5206
 1910SOL     OW 7405   5.717   5.931   0.475 -0.2110  0.4772  0.5220
 1910SOL    HW2 7406   5.713   5.853   0.530 -1.3460  2.0207  2.7674
 1910SOL    HW3 7407   5.788   5.983   0.513 -1.5003  1.9061  1.0431
 1910SOL    MW4 7408   5.726   5.927   0.487 -0.5309  0.8694  0.8870
 1911SOL     OW 7409   4.671   5.977   3.455  0.1866 -0.2816  0.5389
 1911SOL    HW2 7410   4.631   6.033   3.389  1.1183 -1.5131 -1.1561
 1911SOL    HW3 7411   4.601   5.918   3.482  0.3315 -1.3009 -1.1441
 1911SOL    MW4 7412   4.657   5.976   3.450  0.3287 -0.5786  0.0932
 1912SOL     OW 7413   5.233   2.069   0.282  0.7419  0.0803 -0.0965
 1912SOL    HW2 7414   5.157   2.067   0.340  1.0874  0.3567  0.3730
 1912SOL    HW3 7415   5.207   2.126   0.210  0.0531 -0.8246 -0.5939
 1912SOL    MW4 7416   5.220   2.076   0.280  0.6966 -0.0026 -0.1002
 1913SOL     OW 7417   0.960   2.047   4.318  0.2092  0.3511  0.5595
 1913SOL    HW2 7418   0.938   2.135   4.288 -0.6372 -0.5577 -1.7327
 1913SOL    HW3 7419   0.923   2.041   4.406  1.5563  2.7214  1.3933
 1913SOL    MW4 7420   0.952   2.058   4.326  0.2752  0.5439  0.3671
 1914SOL     OW 7421   4.662   2.659   1.557  1.0391  0.2895 -0.4712
 1914SOL    HW2 7422   4.708   2.650   1.640 -1.0152  0.1294  0.7295
 1914SOL    HW3 7423   4.630   2.749   1.557  1.0117  0.2833 -1.0854
 1914SOL    MW4 7424   4.663   2.670   1.568  0.7644  0.2676 -0.3939
 1915SOL     OW 7425   3.491   4.177   5.070 -0.2953  0.2829  0.2561
 1915SOL    HW2 7426   3.442   4.252   5.106 -0.7098  0.4350 -0.6012
 1915SOL    HW3 7427   3.463   4.103   5.124 -1.0438  0.4759  0.1453
 1915SOL    MW4 7428   3.481   4.177   5.082 -0.4487  0.3284  0.1284
 1916SOL     OW 7429   2.007   3.853   0.526  0.0976  0.2064 -0.1319
 1916SOL    HW2 7430   2.081   3.801   0.559  0.0227 -0.4066 -0.8967
 1916SOL    HW3 7431   2.025   3.942   0.557  1.1539  0.0637 -0.2781
 1916SOL    MW4 7432   2.019   3.858   0.534  0.2271  0.1067 -0.2521
 1917SOL     OW 7433   4.506   2.797   2.611  0.2364  0.4131  0.0749
 1917SOL    HW2 7434   4.569   2.862   2.581 -1.0299  1.0718 -1.2943
 1917SOL    HW3 7435   4.496   2.737   2.537 -1.7981  1.1757 -0.3398
 1917SOL    MW4 7436   4.513   2.797   2.597 -0.1991  0.6006 -0.1605
 1918SOL     OW 7437   5.349   4.249   1.497 -0.1454  0.0007 -0.3974
 1918SOL    HW2 7438   5.387   4.293   1.573  1.1686 -1.3409 -0.2256
 1918SOL    HW3 7439   5.399   4.282   1.422 -1.2696  1.1304 -0.6826
 1918SOL    MW4 7440   5.361   4.259   1.497 -0.1203 -0.0272 -0.4123
 1919SOL     OW 7441   2.741   1.326   4.673 -0.9496 -0.2329  0.3185
 1919SOL    HW2 7442   2.747   1.280   4.589 -1.6403  0.2775 -0.0202
 1919SOL    HW3 7443   2.652   1.309   4.703 -0.4704 -1.0427  1.3299
 1919SOL    MW4 7444   2.730   1.318   4.666 -0.9775 -0.2724  0.4072
 1920SOL     OW 7445   4.643   4.683   5.279  0.2555 -0.1470 -0.5173
 1920SOL    HW2 7446   4.707   4.704   5.212  1.4632  1.3807  1.0337
 1920SOL    HW3 7447   4.580   4.755   5.276  1.2877  0.8720  1.1020
 1920SOL    MW4 7448   4.643   4.695   5.270  0.5510  0.1890 -0.0990
 1921SOL     OW 7449   0.098   5.920   1.465 -0.1358  0.2030  0.1034
 1921SOL    HW2 7450   0.005   5.932   1.447 -0.0378  0.3035 -0.3479
 1921SOL    HW3 7451   0.103   5.835   1.509 -0.5133  0.5134  0.7693
 1921SOL    MW4 7452   0.086   5.910   1.469 -0.1727  0.2572  0.1317
 1922SOL     OW 7453   0.837   0.594   3.854 -0.4650 -0.4003  0.1239
 1922SOL    HW2 7454   0.744   0.617   3.863 -0.5842 -0.7835 -0.1361
 1922SOL    HW3 7455   0.838   0.499   3.845 -0.1802 -0.2705 -1.5441
 1922SOL    MW4 7456   0.825   0.585   3.854 -0.4431 -0.4337 -0.1305
 1923SOL     OW 7457   5.538   4.524   1.972  0.4869 -0.4553 -0.4695
 1923SOL    HW2 7458   5.445   4.510   1.954  0.1120 -0.0767  0.9902
 1923SOL    HW3 7459   5.546   4.618   1.984  0.6655 -0.6458  1.2165
 1923SOL    MW4 7460   5.527   4.534   1.971  0.4610 -0.4304 -0.0545
 1924SOL     OW 7461   1.113   5.925   6.155  0.6722  0.1348 -0.1937
 1924SOL    HW2 7462   1.073   5.975   6.084 -0.4830 -0.7085 -0.1649
 1924SOL    HW3 7463   1.191   5.887   6.115  0.0787 -0.2710 -1.0096
 1924SOL    MW4 7464   1.118   5.927   6.140  0.4415 -0.0300 -0.2976
 1925SOL     OW 7465   6.108   5.286   0.980  0.1280 -0.1157 -0.1677
 1925SOL    HW2 7466   6.111   5.212   0.920 -0.6350  2.0152 -3.0090
 1925SOL    HW3 7467   6.196   5.323   0.977 -0.1589  0.5375 -0.7319
 1925SOL    MW4 7468   6.120   5.281   0.972 -0.0105  0.2517 -0.6170
 1926SOL     OW 7469   1.932   2.373   3.657 -0.1906 -0.3620 -0.3239
 1926SOL    HW2 7470   1.889   2.338   3.735  0.0901 -2.2822 -0.9642
 1926SOL    HW3 7471   1.861   2.396   3.598 -0.4210  1.6215  0.6629
 1926SOL    MW4 7472   1.917   2.371   3.659 -0.1839 -0.3536 -0.2781
 1927SOL     OW 7473   0.204   2.518   5.035  0.1066 -0.2203 -0.1345
 1927SOL    HW2 7474   0.217   2.583   5.104  1.7682 -0.0948 -0.5208
 1927SOL    HW3 7475   0.253   2.441   5.065 -1.2877 -1.0961  0.0037
 1927SOL    MW4 7476   0.212   2.517   5.048  0.1418 -0.3193 -0.1673
 1928SOL     OW 7477   0.309   1.687   6.092  0.4918  0.1059  0.2444
 1928SOL    HW2 7478   0.278   1.596   6.093 -0.3588  0.3175 -1.6395
 1928SOL    HW3 7479   0.335   1.701   6.000  0.0174  1.9489  0.3731
 1928SOL    MW4 7480   0.309   1.677   6.080  0.3170  0.3770  0.0128
 1929SOL     OW 7481   0.324   2.771   5.741  0.2035 -0.0761  0.9992
 1929SOL    HW2 7482   0.292   2.687   5.775 -2.2064  0.6598  0.7371
 1929SOL    HW3 7483   0.417   2.772   5.762  0.4041 -3.0016  0.6337
 1929SOL    MW4 7484   0.332   2.760   5.748 -0.0880 -0.3650  0.9164
 1930SOL     OW 7485   5.071   6.012   4.046 -0.2152  0.3343  0.2970
 1930SOL    HW2 7486   5.151   5.966   4.021  0.9415  1.2635  2.0260
 1930SOL    HW3 7487   5.011   5.998   3.973  0.6837 -2.3796 -0.0209
 1930SOL    MW4 7488   5.074   6.004   4.033  0.0560  0.0988  0.4832
 1931SOL     OW 7489   1.846   1.080   3.223  0.0450 -0.4408  0.4895
 1931SOL    HW2 7490   1.762   1.046   3.253  0.7216  1.0557  4.8006
 1931SOL    HW3 7491   1.905   1.004   3.228 -0.3239 -0.7082  0.9264
 1931SOL    MW4 7492   1.843   1.065   3.228  0.0856 -0.2786  1.1160
 1932SOL     OW 7493   0.276   4.253   6.116 -0.3939 -0.2612  0.0265
 1932SOL    HW2 7494   0.211   4.271   6.049  0.9299 -0.3639 -1.3288
 1932SOL    HW3 7495   0.240   4.293   6.195 -2.0692 -0.2952 -0.6758
 1932SOL    MW4 7496   0.263   4.261   6.118 -0.4403 -0.2793 -0.2449
 1933SOL     OW 7497   2.517   5.423   3.812  0.7816 -0.3779 -0.2409
 1933SOL    HW2 7498   2.526   5.369   3.890 -0.8219 -1.2314 -0.6026
 1933SOL    HW3 7499   2.423   5.439   3.804  1.0074  0.5444 -1.4386
 1933SOL    MW4 7500   2.506   5.418   3.821  0.5998 -0.3688 -0.4466
 1934SOL     OW 7501   3.622   3.412   0.640 -0.5353  0.1314 -0.1350
 1934SOL    HW2 7502   3.615   3.454   0.726 -0.2292  0.0922 -0.0923
 1934SOL    HW3 7503   3.567   3.333   0.647  0.3987 -0.4886  0.3986
 1934SOL    MW4 7504   3.614   3.407   0.652 -0.3717  0.0444 -0.0589
 1935SOL     OW 7505   6.366   1.229   3.653  0.0816  0.3582 -0.0935
 1935SOL    HW2 7506   6.373   1.236   3.748 -1.7136  2.2325 -0.0355
 1935SOL    HW3 7507   6.362   1.134   3.637  0.6747 -0.0107  1.6517
 1935SOL    MW4 7508   6.366   1.217   3.664 -0.0770  0.5568  0.1444
 1936SOL     OW 7509   5.498   1.987   2.567 -0.2167  0.0977  0.1227
 1936SOL    HW2 7510   5.573   2.032   2.528 -0.0437 -0.1099  0.2145
 1936SOL    HW3 7511   5.522   1.978   2.659 -1.3234  2.0858  0.6709
 1936SOL    MW4 7512   5.511   1.992   2.574 -0.3399  0.3326  0.2071
 1937SOL     OW 7513   3.867   0.757   3.844 -0.5465 -0.1796 -0.4494
 1937SOL    HW2 7514   3.913   0.747   3.928 -0.1121  1.4661 -0.4517
 1937SOL    HW3 7515   3.793   0.815   3.865 -1.1020 -0.6813 -0.9908
 1937SOL    MW4 7516   3.863   0.764   3.858 -0.5624 -0.0287 -0.5211
 1938SOL     OW 7517   4.543   1.164   0.218 -0.2109  0.4320 -0.4589
 1938SOL    HW2 7518   4.485   1.228   0.258 -0.3087  0.6694 -0.9633
 1938SOL    HW3 7519   4.626   1.173   0.265 -0.7549 -0.3448  0.6850
 1938SOL    MW4 7520   4.547   1.173   0.229 -0.2956  0.3608 -0.3745
 1939SOL     OW 7521   3.828   0.290   4.727  0.0687  0.1874  0.3660
 1939SOL    HW2 7522   3.818   0.362   4.664  0.3142  0.5455  0.7271
 1939SOL    HW3 7523   3.748   0.293   4.780 -0.6189 -0.7699 -0.5708
 1939SOL    MW4 7524   3.816   0.300   4.726  0.0103  0.1083  0.2900
 1940SOL     OW 7525   3.574   5.004   5.530 -1.1166 -0.4035 -0.1886
 1940SOL    HW2 7526   3.655   5.026   5.485 -0.6672 -0.9407  0.3362
 1940SOL    HW3 7527   3.532   5.088   5.548 -0.0104 -0.0302  0.7528
 1940SOL    MW4 7528   3.579   5.018   5.527 -0.9114 -0.4251  0.0049
 1941SOL     OW 7529   2.456   0.622   5.905  0.6812 -0.4344 -0.1610
 1941SOL    HW2 7530   2.364   0.639   5.926  0.6237 -0.4122 -0.4301
 1941SOL    HW3 7531   2.462   0.635   5.810  0.3373 -3.2256 -0.6317
 1941SOL    MW4 7532   2.445   0.626   5.895  0.6282 -0.7998 -0.2586
 1942SOL     OW 7533   5.987   4.671   6.158  0.1229 -0.1515 -0.4986
 1942SOL    HW2 7534   5.918   4.723   6.200  0.6535  0.1141  0.0727
 1942SOL    HW3 7535   6.002   4.714   6.074 -0.0076  0.1348 -0.3771
 1942SOL    MW4 7536   5.980   4.684   6.153  0.1757 -0.0786 -0.4072
 1943SOL     OW 7537   1.825   2.514   3.319 -0.3298  0.5594 -0.4247
 1943SOL    HW2 7538   1.888   2.538   3.251  0.7627 -0.3682  0.2349
 1943SOL    HW3 7539   1.839   2.577   3.389  0.7235 -0.3560  0.2175
 1943SOL    MW4 7540   1.835   2.525   3.319 -0.0467  0.3162 -0.2530
 1944SOL     OW 7541   1.148   5.541   0.118 -0.4349  0.7074  0.2183
 1944SOL    HW2 7542   1.101   5.496   0.189  2.0334  0.7499  2.0198
 1944SOL    HW3 7543   1.141   5.482   0.044 -3.9265  1.0866  0.0772
 1944SOL    MW4 7544   1.140   5.527   0.118 -0.5699  0.7630  0.4374
 1945SOL     OW 7545   5.952   0.628   4.911  0.1858 -0.5824  0.1779
 1945SOL    HW2 7546   5.933   0.615   4.818  2.1194 -0.1742 -0.3026
 1945SOL    HW3 7547   5.885   0.690   4.940 -0.7676 -1.1146 -0.7818
 1945SOL    MW4 7548   5.940   0.634   4.903  0.3151 -0.5988 -0.0122
 1946SOL     OW 7549   5.211   4.609   3.891 -0.1479  0.2873 -0.7295
 1946SOL    HW2 7550   5.298   4.605   3.850  0.6355  1.2542  0.7411
 1946SOL    HW3 7551   5.154   4.641   3.821  0.7996  0.2704 -1.5452
 1946SOL    MW4 7552   5.215   4.613   3.876  0.0805  0.4127 -0.6431
 1947SOL     OW 7553   5.410   2.471   1.287 -0.3714 -0.1331  0.6565
 1947SOL    HW2 7554   5.483   2.530   1.267 -1.9089  1.2154 -1.3486
 1947SOL    HW3 7555   5.431   2.390   1.240 -0.0913  0.2000  0.1970
 1947SOL    MW4 7556   5.422   2.468   1.278 -0.5373  0.0888  0.3313
 1948SOL     OW 7557   4.671   0.861   3.434  0.0166 -0.0835 -0.0153
 1948SOL    HW2 7558   4.646   0.792   3.372 -0.4634 -1.1743  1.3376
 1948SOL    HW3 7559   4.733   0.819   3.493  0.3084  0.8752  0.3830
 1948SOL    MW4 7560   4.676   0.847   3.433 -0.0082 -0.1009  0.2158
 1949SOL     OW 7561   0.446   2.514   5.561  0.3887 -0.0387 -0.0917
 1949SOL    HW2 7562   0.505   2.512   5.637  0.2072 -0.4194  0.0419
 1949SOL    HW3 7563   0.358   2.501   5.599 -0.0053  2.2381 -0.0810
 1949SOL    MW4 7564   0.442   2.512   5.576  0.3128  0.2115 -0.0727
 1950SOL     OW 7565   3.317   1.870   4.890 -0.0646  0.2699  0.1937
 1950SOL    HW2 7566   3.222   1.871   4.878 -0.2136 -2.5373  0.4462
 1950SOL    HW3 7567   3.353   1.885   4.802 -0.7152  1.2760  0.0881
 1950SOL    MW4 7568   3.309   1.872   4.877 -0.1701  0.0323  0.2131
 1951SOL     OW 7569   3.854   3.720   3.903 -0.3341 -0.0524 -0.2013
 1951SOL    HW2 7570   3.834   3.627   3.890  1.4609 -0.6568  0.9555
 1951SOL    HW3 7571   3.794   3.748   3.972  0.2598 -0.8379  0.6547
 1951SOL    MW4 7572   3.843   3.711   3.910 -0.0189 -0.2358  0.0643
 1952SOL     OW 7573   1.172   0.175   4.437 -0.2648 -0.4487  0.2312
 1952SOL    HW2 7574   1.236   0.232   4.480  1.7064 -1.5006 -1.1750
 1952SOL    HW3 7575   1.175   0.093   4.488 -2.4284  0.2755  1.6923
 1952SOL    MW4 7576   1.181   0.171   4.450 -0.2902 -0.4919  0.2385
 1953SOL     OW 7577   3.917   1.349   1.248  0.3167  0.3462 -0.0620
 1953SOL    HW2 7578   3.932   1.430   1.199 -0.6033 -0.0960 -1.1255
 1953SOL    HW3 7579   3.916   1.377   1.340  1.1148  1.3484 -0.3386
 1953SOL    MW4 7580   3.918   1.364   1.254  0.3007  0.4201 -0.2388
 1954SOL     OW 7581   1.662   0.725   4.561  0.4218  0.0776 -0.0689
 1954SOL    HW2 7582   1.576   0.761   4.582  0.2124 -0.1978 -0.4402
 1954SOL    HW3 7583   1.681   0.758   4.473 -0.8440 -2.5789 -1.4588
 1954SOL    MW4 7584   1.653   0.734   4.552  0.2272 -0.3092 -0.3012
 1955SOL     OW 7585   5.351   1.817   2.419 -0.4154 -0.2910 -0.0706
 1955SOL    HW2 7586   5.358   1.728   2.454 -3.5639 -1.1476 -1.2966
 1955SOL    HW3 7587   5.412   1.868   2.472 -0.8063 -2.5756  2.8565
 1955SOL    MW4 7588   5.360   1.812   2.431 -0.8824 -0.7055  0.1539
 1956SOL     OW 7589   1.145   2.202   6.160 -0.5525  0.5932 -0.5356
 1956SOL    HW2 7590   1.177   2.172   6.245 -0.8103  2.5831  0.3177
 1956SOL    HW3 7591   1.218   2.250   6.122 -0.3772 -0.4299 -1.5608
 1956SOL    MW4 7592   1.159   2.204   6.166 -0.5634  0.7207 -0.5583
 1957SOL     OW 7593   4.373   3.409   1.402 -0.2215  0.0949 -0.2374
 1957SOL    HW2 7594   4.337   3.351   1.335  0.5102 -1.2355  0.4605
 1957SOL    HW3 7595   4.301   3.467   1.425 -1.2642 -1.0984 -0.3745
 1957SOL    MW4 7596   4.359   3.409   1.396 -0.2625 -0.2381 -0.1634
 1958SOL     OW 7597   4.139   3.300   2.282 -0.0935 -0.4176  0.5703
 1958SOL    HW2 7598   4.082   3.302   2.359 -3.0151 -0.8175 -1.3943
 1958SOL    HW3 7599   4.135   3.208   2.253 -0.8800  0.1316 -1.2163
 1958SOL    MW4 7600   4.131   3.288   2.288 -0.5827 -0.3979  0.0754
 1959SOL     OW 7601   1.172   4.286   1.830 -0.6644 -0.5693  0.8075
 1959SOL    HW2 7602   1.117   4.257   1.903 -1.8686 -1.3856 -0.3871
 1959SOL    HW3 7603   1.259   4.252   1.850 -0.8694 -0.3840  2.0820
 1959SOL    MW4 7604   1.177   4.278   1.842 -0.8503 -0.6526  0.8181
 1960SOL     OW 7605   0.064   0.398   6.345  0.1597 -0.0567 -0.0045
 1960SOL    HW2 7606   0.144   0.386   6.398 -0.1215 -1.2322  0.1908
 1960SOL    HW3 7607   0.091   0.374   6.256  0.1742  0.1512 -0.0570
 1960SOL    MW4 7608   0.078   0.393   6.340  0.1245 -0.1843  0.0143
 1961SOL     OW 7609   0.589   1.856   2.218  0.2614 -0.4346 -0.3051
 1961SOL    HW2 7610   0.609   1.880   2.128  1.1475  1.1390  0.2782
 1961SOL    HW3 7611   0.506   1.898   2.238  1.8746  2.5304  0.7580
 1961SOL    MW4 7612   0.581   1.865   2.209  0.5911  0.1642 -0.0879
 1962SOL     OW 7613   0.033   0.323   2.195  0.1565 -0.4467 -1.0012
 1962SOL    HW2 7614  -0.050   0.283   2.220 -0.2478  0.4253 -0.9283
 1962SOL    HW3 7615   0.013   0.416   2.183  0.8799 -0.4175 -2.0960
 1962SOL    MW4 7616   0.020   0.330   2.197  0.1986 -0.3278 -1.1360
 1963SOL     OW 7617   3.067   2.956   5.374 -0.3101 -0.0559 -0.0105
 1963SOL    HW2 7618   3.041   3.048   5.383 -0.0572  0.0683 -0.5137
 1963SOL    HW3 7619   3.155   2.959   5.336  0.0619 -0.4958  0.7986
 1963SOL    MW4 7620   3.075   2.969   5.370 -0.2277 -0.0976  0.0299
 1964SOL     OW 7621   1.182   0.418   3.823  0.2299  0.5326  0.1338
 1964SOL    HW2 7622   1.162   0.495   3.771  1.1845  0.0228 -1.0326
 1964SOL    HW3 7623   1.134   0.346   3.781 -1.3858  0.5924  1.7364
 1964SOL    MW4 7624   1.173   0.418   3.811  0.1427  0.4732  0.1913
 1965SOL     OW 7625   3.631   1.852   0.914  0.2644  0.2688 -0.9610
 1965SOL    HW2 7626   3.684   1.907   0.857 -0.0052 -1.6487 -3.2407
 1965SOL    HW3 7627   3.548   1.844   0.868 -0.6599  0.1525  0.6737
 1965SOL    MW4 7628   3.627   1.858   0.900  0.1069  0.0005 -1.0461
 1966SOL     OW 7629   1.992   3.184   3.571 -0.2677 -0.2774  0.1213
 1966SOL    HW2 7630   1.941   3.174   3.652  0.2960 -1.9483  0.3061
 1966SOL    HW3 7631   1.991   3.278   3.553 -2.2946 -0.1333  0.8320
 1966SOL    MW4 7632   1.985   3.195   3.580 -0.4607 -0.4788  0.2394
 1967SOL     OW 7633   4.063   5.639   4.434 -0.4956 -0.0558  0.3195
 1967SOL    HW2 7634   4.104   5.555   4.413 -2.3921 -0.6179 -1.4570
 1967SOL    HW3 7635   3.978   5.616   4.472 -0.3510  1.0878  1.4298
 1967SOL    MW4 7636   4.057   5.625   4.437 -0.7267  0.0209  0.2316
 1968SOL     OW 7637   0.843   1.029   6.280 -0.1338  0.0015 -0.2674
 1968SOL    HW2 7638   0.761   0.979   6.280 -0.7882  1.0437 -0.0177
 1968SOL    HW3 7639   0.856   1.054   6.189 -1.4749  1.9835  0.0279
 1968SOL    MW4 7640   0.833   1.026   6.268 -0.3971  0.4005 -0.1955
 1969SOL     OW 7641   4.285   0.275   3.852 -0.9477  0.3265  0.4286
 1969SOL    HW2 7642   4.307   0.194   3.897 -2.3723 -0.4711 -0.2226
 1969SOL    HW3 7643   4.227   0.321   3.913 -1.1377  0.2578  0.3022
 1969SOL    MW4 7644   4.280   0.270   3.866 -1.1607  0.2122  0.3260
 1970SOL     OW 7645   5.150   1.483   0.490  0.3679  0.7054  0.4944
 1970SOL    HW2 7646   5.094   1.557   0.465 -1.2936 -0.6857 -0.1422
 1970SOL    HW3 7647   5.145   1.480   0.585 -0.4154  0.8069  0.4668
 1970SOL    MW4 7648   5.142   1.492   0.499  0.0453  0.5352  0.4068
 1971SOL     OW 7649   4.145   5.548   4.881 -0.3887 -0.1394 -0.2646
 1971SOL    HW2 7650   4.088   5.583   4.949 -2.0088  2.0933 -2.5561
 1971SOL    HW3 7651   4.086   5.499   4.823  0.4393  0.1825 -1.4251
 1971SOL    MW4 7652   4.129   5.546   4.882 -0.4932  0.1977 -0.7200
 1972SOL     OW 7653   5.277   1.113   5.698 -0.2613  0.0422 -0.3458
 1972SOL    HW2 7654   5.363   1.109   5.655 -0.4395 -0.0679 -0.7031
 1972SOL    HW3 7655   5.267   1.204   5.723  1.4037 -0.5109  2.7456
 1972SOL    MW4 7656   5.287   1.124   5.695 -0.0652 -0.0453  0.0149
 1973SOL     OW 7657   2.688   2.167   1.756 -0.2219 -0.2656  0.8542
 1973SOL    HW2 7658   2.749   2.241   1.749  0.8015 -1.1528  0.1171
 1973SOL    HW3 7659   2.640   2.167   1.673  0.8456 -1.3188  0.2153
 1973SOL    MW4 7660   2.690   2.177   1.744  0.0540 -0.5216  0.6727
 1974SOL     OW 7661   0.197   5.410   1.976  0.2357  0.1347 -0.4452
 1974SOL    HW2 7662   0.145   5.489   1.968  1.1789  1.3266  3.4179
 1974SOL    HW3 7663   0.281   5.431   1.934 -0.2581  0.3103 -1.3793
 1974SOL    MW4 7664   0.202   5.423   1.969  0.2950  0.3151 -0.0588
 1975SOL     OW 7665   0.611   2.887   5.782 -0.0918 -0.2402  0.2757
 1975SOL    HW2 7666   0.662   2.868   5.703  1.3189 -0.1900  1.1490
 1975SOL    HW3 7667   0.674   2.882   5.854 -1.5646 -1.4390  1.5601
 1975SOL    MW4 7668   0.626   2.884   5.781 -0.1000 -0.3917  0.5604
 1976SOL     OW 7669   5.126   2.746   0.049  0.1596  0.2703 -0.4228
 1976SOL    HW2 7670   5.163   2.708   0.129 -0.9066  1.1498  0.5194
 1976SOL    HW3 7671   5.037   2.713   0.045  0.5615 -0.7755 -1.9733
 1976SOL    MW4 7672   5.119   2.736   0.059  0.0720  0.2483 -0.5030
 1977SOL     OW 7673   1.133   5.169   5.073 -0.0097  0.8315 -0.1726
 1977SOL    HW2 7674   1.182   5.213   5.142  1.2575  0.3798 -0.7433
 1977SOL    HW3 7675   1.083   5.238   5.030  1.3661  1.6084 -0.5756
 1977SOL    MW4 7676   1.133   5.184   5.076  0.3390  0.8744 -0.3011
 1978SOL     OW 7677   5.091   2.208   3.406 -0.3567 -0.2454 -0.2765
 1978SOL    HW2 7678   5.093   2.203   3.310 -1.8971 -1.3764 -0.2815
 1978SOL    HW3 7679   5.014   2.262   3.426 -0.0279  0.0077  0.3403
 1978SOL    MW4 7680   5.081   2.215   3.396 -0.5165 -0.3613 -0.1958
 1979SOL     OW 7681   2.260   0.925   4.592  0.4763  0.0182 -0.0923
 1979SOL    HW2 7682   2.287   0.853   4.535 -0.0250  0.6603 -1.1723
 1979SOL    HW3 7683   2.174   0.950   4.559  0.1887  0.4371  0.9380
 1979SOL    MW4 7684   2.252   0.919   4.580  0.3723  0.1582 -0.0989
 1980SOL     OW 7685   2.393   2.290   0.491  0.1582 -0.2317 -0.3878
 1980SOL    HW2 7686   2.429   2.377   0.476  0.6541 -0.2802  0.4565
 1980SOL    HW3 7687   2.302   2.295   0.459  0.9711 -0.2250 -2.9197
 1980SOL    MW4 7688   2.385   2.302   0.485  0.3309 -0.2372 -0.6105
 1981SOL     OW 7689   5.922   3.748   3.590  0.2687  0.2069 -0.0843
 1981SOL    HW2 7690   6.006   3.703   3.604 -1.4496 -3.1281  0.4975
 1981SOL    HW3 7691   5.911   3.750   3.495  0.4803 -0.4459 -0.1276
 1981SOL    MW4 7692   5.932   3.742   3.580  0.0699 -0.3193 -0.0133
 1982SOL     OW 7693   3.733   1.623   1.229  0.0987  0.0218  0.0572
 1982SOL    HW2 7694   3.720   1.617   1.134  2.1095  0.0515 -0.2550
 1982SOL    HW3 7695   3.659   1.674   1.260  0.7483  2.2742 -1.8572
 1982SOL    MW4 7696   3.722   1.629   1.221  0.4497  0.3229 -0.2365
 1983SOL     OW 7697   4.815   4.052   5.582  0.5142  0.2329 -0.1462
 1983SOL    HW2 7698   4.843   4.081   5.495  0.6498  2.7649  0.6814
 1983SOL    HW3 7699   4.875   3.981   5.604  0.8077 -0.1113 -1.8641
 1983SOL    MW4 7700   4.826   4.046   5.573  0.5708  0.5215 -0.2636
 1984SOL     OW 7701   4.218   6.363   2.973 -0.3434 -0.6891  0.2040
 1984SOL    HW2 7702   4.132   6.382   2.936 -0.0748 -0.9636 -0.5889
 1984SOL    HW3 7703   4.253   6.449   2.998  0.1931 -0.2633 -1.8508
 1984SOL    MW4 7704   4.211   6.377   2.971 -0.2372 -0.6691 -0.1717
 1985SOL     OW 7705   3.540   0.975   0.883 -0.4624  0.0626 -0.3453
 1985SOL    HW2 7706   3.454   1.009   0.858 -0.1839  1.5501  0.6091
 1985SOL    HW3 7707   3.531   0.955   0.977 -0.3795 -1.8259 -0.7029
 1985SOL    MW4 7708   3.527   0.977   0.892 -0.4147  0.0097 -0.2666
 1986SOL     OW 7709   1.363   6.288   1.424 -0.3168 -0.5997  0.1558
 1986SOL    HW2 7710   1.425   6.354   1.393  0.7350 -1.2591  0.8020
 1986SOL    HW3 7711   1.302   6.336   1.480  0.3262 -0.1398  0.4682
 1986SOL    MW4 7712   1.363   6.303   1.428 -0.0932 -0.6261  0.2822
 1987SOL     OW 7713   0.080   3.540   0.229  0.3111  0.5307  0.4822
 1987SOL    HW2 7714   0.002   3.491   0.204 -0.0112  1.3308 -0.1068
 1987SOL    HW3 7715   0.062   3.630   0.202  1.6096  0.6479 -0.0687
 1987SOL    MW4 7716   0.068   3.546   0.222  0.4399  0.6517  0.3318
 1988SOL     OW 7717   4.781   0.606   6.086  1.2010  0.2859 -0.0151
 1988SOL    HW2 7718   4.735   0.595   6.169 -0.6897 -0.3619 -1.0836
 1988SOL    HW3 7719   4.872   0.622   6.111  1.2198 -2.4176  2.1499
 1988SOL    MW4 7720   4.787   0.607   6.100  0.9540 -0.1563  0.1296
 1989SOL     OW 7721   1.016   1.950   6.337  0.3186 -0.4934 -0.5656
 1989SOL    HW2 7722   1.043   2.023   6.394 -2.1438  0.3262 -0.3331
 1989SOL    HW3 7723   1.083   1.948   6.269  0.3933  2.1695 -0.6985
 1989SOL    MW4 7724   1.028   1.960   6.336  0.0036 -0.0339 -0.5525
 1990SOL     OW 7725   3.597   1.388   1.367  0.2913 -0.3611 -0.5413
 1990SOL    HW2 7726   3.618   1.417   1.456 -1.1791  5.0649 -1.5822
 1990SOL    HW3 7727   3.665   1.428   1.313  0.0913 -2.0014 -2.1035
 1990SOL    MW4 7728   3.609   1.397   1.372  0.0709  0.1384 -0.8847
 1991SOL     OW 7729   3.757   6.139   4.070 -0.0912 -0.0327 -0.2676
 1991SOL    HW2 7730   3.813   6.062   4.072  0.5088  0.3905 -0.5924
 1991SOL    HW3 7731   3.814   6.210   4.042 -0.4186  0.7170  0.8692
 1991SOL    MW4 7732   3.772   6.138   4.067 -0.0552  0.1221 -0.1605
 1992SOL     OW 7733   3.646   5.219   2.088  0.4117 -0.1321 -0.2027
 1992SOL    HW2 7734   3.651   5.187   2.177  2.1598  0.3404 -0.0960
 1992SOL    HW3 7735   3.601   5.150   2.039  0.6012 -0.9646  0.7795
 1992SOL    MW4 7736   3.641   5.206   2.093  0.6674 -0.1796 -0.0590
 1993SOL     OW 7737   0.779   5.106   1.189  0.4028 -0.3033  0.0788
 1993SOL    HW2 7738   0.745   5.127   1.276 -0.7870  0.6975 -0.6058
 1993SOL    HW3 7739   0.803   5.013   1.195 -1.3844 -0.7537  0.9617
 1993SOL    MW4 7740   0.778   5.096   1.202  0.0100 -0.2307  0.1049
 1994SOL     OW 7741   5.470   2.353   5.768  0.6233  0.0527 -0.5999
 1994SOL    HW2 7742   5.480   2.390   5.856 -1.7915  1.2330 -0.7359
 1994SOL    HW3 7743   5.447   2.261   5.783 -0.3718  0.3850  0.0790
 1994SOL    MW4 7744   5.468   2.346   5.782  0.1734  0.2523 -0.5283
 1995SOL     OW 7745   1.832   2.658   4.484 -0.5987  0.1466  0.4190
 1995SOL    HW2 7746   1.859   2.733   4.431 -1.3516  0.6530  0.7283
 1995SOL    HW3 7747   1.773   2.608   4.427  0.5713 -0.6874 -0.0840
 1995SOL    MW4 7748   1.828   2.661   4.469 -0.5437  0.1033  0.3934
 1996SOL     OW 7749   3.956   2.820   3.681  0.3100 -0.1889 -0.1258
 1996SOL    HW2 7750   3.992   2.732   3.693  0.6340 -0.0041  0.3049
 1996SOL    HW3 7751   3.985   2.868   3.759 -1.3566 -0.1962  0.5370
 1996SOL    MW4 7752   3.965   2.815   3.693  0.1329 -0.1655  0.0185
 1997SOL     OW 7753   2.438   4.715   3.537  0.3022  0.0879  0.0203
 1997SOL    HW2 7754   2.443   4.697   3.443 -1.1506 -1.6143  0.2025
 1997SOL    HW3 7755   2.514   4.670   3.575  1.2415  1.2990 -0.3695
 1997SOL    MW4 7756   2.449   4.707   3.530  0.2344  0.0231 -0.0071
 1998SOL     OW 7757   4.989   4.211   4.067 -0.3029  0.0100  0.1611
 1998SOL    HW2 7758   4.930   4.274   4.025  0.7314  1.6008  1.0084
 1998SOL    HW3 7759   5.065   4.207   4.010 -0.6334 -1.0354 -0.2410
 1998SOL    MW4 7760   4.991   4.219   4.054 -0.2101  0.0820  0.2198
 1999SOL     OW 7761   4.527   1.768   6.383 -0.1572  0.0069  0.1108
 1999SOL    HW2 7762   4.486   1.688   6.350 -0.0682  0.0677 -0.1432
 1999SOL    HW3 7763   4.603   1.782   6.327  0.1158 -0.0104  0.4751
 1999SOL    MW4 7764   4.532   1.759   6.372 -0.1094  0.0126  0.1253
 2000SOL     OW 7765   0.656   3.664   4.173 -0.3861  0.0218  0.1159
 2000SOL    HW2 7766   0.638   3.694   4.262 -1.3548  0.5488 -0.2535
 2000SOL    HW3 7767   0.750   3.648   4.172 -0.6783 -2.5740  2.0401
 2000SOL    MW4 7768   0.666   3.666   4.185 -0.5525 -0.2511  0.3211
 2001SOL     OW 7769   3.839   1.644   3.958  0.1921  0.3120 -0.3870
 2001SOL    HW2 7770   3.834   1.618   3.866 -1.6173  0.2484 -0.3085
 2001SOL    HW3 7771   3.850   1.739   3.956 -2.3746  0.6753 -0.7374
 2001SOL    MW4 7772   3.840   1.653   3.945 -0.3853  0.3516 -0.4229
 2002SOL     OW 7773   1.686   6.402   0.591  0.4184  0.0848 -0.3162
 2002SOL    HW2 7774   1.667   6.356   0.509  0.4630 -2.4215  0.9896
 2002SOL    HW3 7775   1.780   6.422   0.586  0.1748  1.0480 -1.3607
 2002SOL    MW4 7776   1.696   6.399   0.580  0.3921 -0.1188 -0.2817
 2003SOL     OW 7777   6.368   3.885   2.375  0.0170  0.1210 -0.1827
 2003SOL    HW2 7778   6.378   3.829   2.298  0.2837  0.6100 -0.5062
 2003SOL    HW3 7779   6.358   3.973   2.340 -0.6669  0.2564  0.3138
 2003SOL    MW4 7780   6.368   3.889   2.360 -0.0380  0.2034 -0.1599
 2004SOL     OW 7781   5.919   6.118   4.305 -0.0179  0.2228  0.0071
 2004SOL    HW2 7782   5.831   6.087   4.327 -0.6718 -0.1857 -2.7805
 2004SOL    HW3 7783   5.969   6.037   4.291  1.2832  0.4158  2.9170
 2004SOL    MW4 7784   5.914   6.103   4.306  0.0675  0.1944  0.0232
 2005SOL     OW 7785   3.694   2.905   2.830  0.2891 -0.3076  0.4375
 2005SOL    HW2 7786   3.605   2.885   2.860  1.0511 -0.9309  2.4849
 2005SOL    HW3 7787   3.706   2.997   2.851 -1.1074  0.9287 -3.3847
 2005SOL    MW4 7788   3.684   2.914   2.837  0.2053 -0.2267  0.2033
 2006SOL     OW 7789   5.511   0.482   3.940  0.0342  0.0924 -0.2558
 2006SOL    HW2 7790   5.424   0.457   3.911 -0.1740  0.0667  0.3773
 2006SOL    HW3 7791   5.515   0.577   3.925  0.2505 -0.0566 -1.1777
 2006SOL    MW4 7792   5.500   0.491   3.934  0.0353  0.0694 -0.2939
 2007SOL     OW 7793   2.254   3.328   2.774  0.1698 -0.2075 -0.6380
 2007SOL    HW2 7794   2.329   3.388   2.777 -0.4427  0.5957 -1.2356
 2007SOL    HW3 7795   2.219   3.330   2.863  0.1650  0.3033 -0.6504
 2007SOL    MW4 7796   2.259   3.336   2.787  0.0883 -0.0341 -0.7185
 2008SOL     OW 7797   5.529   1.453   1.876 -0.5859 -0.3442 -0.0598
 2008SOL    HW2 7798   5.484   1.386   1.928 -0.9157 -1.6918 -1.9920
 2008SOL    HW3 7799   5.501   1.437   1.786 -1.5566  3.1139 -0.5087
 2008SOL    MW4 7800   5.519   1.442   1.871 -0.7575 -0.0657 -0.3740
 2009SOL     OW 7801   2.182   5.678   0.149 -0.2426 -0.2911 -0.3467
 2009SOL    HW2 7802   2.209   5.681   0.057  1.1692  1.1404  0.0900
 2009SOL    HW3 7803   2.204   5.589   0.177 -1.4605 -1.0319 -1.5742
 2009SOL    MW4 7804   2.188   5.666   0.140 -0.2170 -0.2000 -0.4511
 2010SOL     OW 7805   0.981   0.888   0.408  0.3711  0.3200  0.1493
 2010SOL    HW2 7806   1.056   0.837   0.439  1.0897  0.5766 -1.0494
 2010SOL    HW3 7807   0.958   0.945   0.481  2.9090  1.9398 -0.1677
 2010SOL    MW4 7808   0.988   0.889   0.421  0.8007  0.5676 -0.0507
 2011SOL     OW 7809   0.069   3.989   1.901  0.3982  0.3615  0.0947
 2011SOL    HW2 7810   0.157   3.970   1.868  0.5524  0.1161  0.6408
 2011SOL    HW3 7811   0.083   4.037   1.983  0.0325 -0.1839  0.4820
 2011SOL    MW4 7812   0.082   3.993   1.907  0.3703  0.2572  0.2178
 2012SOL     OW 7813   1.863   1.288   0.072 -0.0054  0.2647  0.6064
 2012SOL    HW2 7814   1.794   1.240   0.026  0.3714  0.1421  0.1582
 2012SOL    HW3 7815   1.817   1.360   0.116 -0.3992  0.2908  0.1626
 2012SOL    MW4 7816   1.848   1.291   0.071 -0.0076  0.2519  0.4887
 2013SOL     OW 7817   0.438   3.722   6.074  0.2017  0.1292 -0.1696
 2013SOL    HW2 7818   0.477   3.801   6.036  0.0594  0.3005  0.0424
 2013SOL    HW3 7819   0.349   3.720   6.039  0.0306  0.3515  0.2429
 2013SOL    MW4 7820   0.431   3.732   6.064  0.1604  0.1812 -0.0872
 2014SOL     OW 7821   4.623   6.250   0.310  0.3006  0.1303  0.3186
 2014SOL    HW2 7822   4.533   6.216   0.307 -0.2746  1.6163 -0.6806
 2014SOL    HW3 7823   4.645   6.251   0.403 -0.8393  0.0212  0.6092
 2014SOL    MW4 7824   4.614   6.246   0.322  0.0743  0.3120  0.2251
 2015SOL     OW 7825   5.379   3.022   2.188 -0.4954  0.3266 -0.2086
 2015SOL    HW2 7826   5.416   3.063   2.109  0.0478 -1.2870 -0.8323
 2015SOL    HW3 7827   5.395   3.086   2.257 -1.3799  1.9876 -1.4525
 2015SOL    MW4 7828   5.386   3.036   2.186 -0.5404  0.3328 -0.4550
 2016SOL     OW 7829   0.738   3.431   1.755  0.0097 -0.8333  0.8928
 2016SOL    HW2 7830   0.712   3.346   1.719  1.3610 -0.4880 -1.0363
 2016SOL    HW3 7831   0.738   3.490   1.680 -0.0629  0.7060  2.0486
 2016SOL    MW4 7832   0.734   3.428   1.740  0.1784 -0.5846  0.7908
 2017SOL     OW 7833   4.977   5.724   4.748 -0.0814 -0.8882 -0.7426
 2017SOL    HW2 7834   4.921   5.802   4.749  0.7380 -0.2871 -0.8146
 2017SOL    HW3 7835   4.945   5.671   4.821 -0.4315 -0.3243 -0.4777
 2017SOL    MW4 7836   4.966   5.727   4.758 -0.0195 -0.7345 -0.7171
 2018SOL     OW 7837   0.490   3.046   3.151 -0.1974 -0.4444  0.1740
 2018SOL    HW2 7838   0.546   3.103   3.098 -1.1161  0.4956  0.1906
 2018SOL    HW3 7839   0.546   3.020   3.224  0.2900  0.3016  0.0833
 2018SOL    MW4 7840   0.505   3.050   3.154 -0.2543 -0.2219  0.1642
 2019SOL     OW 7841   2.723   4.770   5.983 -0.1414 -0.0829  0.1545
 2019SOL    HW2 7842   2.683   4.683   5.979 -1.4491  0.3973  1.5944
 2019SOL    HW3 7843   2.651   4.830   5.964  0.7251  0.7173 -0.7359
 2019SOL    MW4 7844   2.708   4.766   5.980 -0.1996  0.0860  0.2270
 2020SOL     OW 7845   1.259   2.632   0.545 -0.5933  0.5914  0.1435
 2020SOL    HW2 7846   1.287   2.722   0.532  2.2265 -0.2771 -0.3653
 2020SOL    HW3 7847   1.326   2.594   0.602  0.8157 -2.3121 -3.1340
 2020SOL    MW4 7848   1.271   2.639   0.551 -0.0353  0.0937 -0.3561
 2021SOL     OW 7849   3.018   2.511   0.951  0.2861 -0.5220 -0.4684
 2021SOL    HW2 7850   3.009   2.432   1.005 -0.7793 -0.1381 -0.0673
 2021SOL    HW3 7851   3.010   2.479   0.861 -1.8440 -0.6997 -0.2700
 2021SOL    MW4 7852   3.016   2.496   0.946 -0.1355 -0.4948 -0.3893
 2022SOL     OW 7853   0.089   3.452   5.451 -0.2067 -0.3377 -0.0411
 2022SOL    HW2 7854   0.072   3.479   5.541  0.0063  0.2050 -0.1623
 2022SOL    HW3 7855   0.139   3.524   5.412  0.5004 -0.9636 -0.3291
 2022SOL    MW4 7856   0.093   3.465   5.458 -0.0853 -0.3486 -0.0951
 2023SOL     OW 7857   3.083   2.535   4.129  0.1269 -0.2786  0.0190
 2023SOL    HW2 7858   3.142   2.505   4.061 -0.2065 -1.6266  0.3053
 2023SOL    HW3 7859   3.133   2.600   4.178  0.5167  0.3834 -1.2261
 2023SOL    MW4 7860   3.097   2.540   4.126  0.1343 -0.3691 -0.1075
 2024SOL     OW 7861   4.501   4.862   4.972 -0.0045 -0.0499  0.0566
 2024SOL    HW2 7862   4.420   4.881   4.925  0.9156  1.0965 -1.1329
 2024SOL    HW3 7863   4.511   4.767   4.966 -0.3458 -0.0122 -1.3825
 2024SOL    MW4 7864   4.492   4.852   4.965  0.0719  0.1063 -0.2902
 2025SOL     OW 7865   5.939   2.089   3.750  0.4085  0.0894 -0.0669
 2025SOL    HW2 7866   5.938   2.013   3.809 -0.3185 -0.2699 -0.5240
 2025SOL    HW3 7867   5.860   2.138   3.772  1.7274  1.6470  1.3773
 2025SOL    MW4 7868   5.928   2.085   3.760  0.4866  0.2475  0.0634
 2026SOL     OW 7869   5.731   4.656   3.824  0.2585 -0.4209 -0.1130
 2026SOL    HW2 7870   5.644   4.624   3.799  0.4137 -1.0860  0.1659
 2026SOL    HW3 7871   5.733   4.645   3.919 -0.5966  2.7376  0.3936
 2026SOL    MW4 7872   5.720   4.650   3.834  0.1661 -0.0919 -0.0093
 2027SOL     OW 7873   5.114   6.329   1.136  0.0619  0.5045 -0.5030
 2027SOL    HW2 7874   5.024   6.358   1.120  0.1525  1.3537  0.4433
 2027SOL    HW3 7875   5.104   6.242   1.175 -0.2948  0.1636 -1.3202
 2027SOL    MW4 7876   5.101   6.321   1.139  0.0268  0.5715 -0.4859
 2028SOL     OW 7877   3.898   1.559   2.245  0.2768  0.1333 -0.1232
 2028SOL    HW2 7878   3.817   1.608   2.258  0.2098  0.3398 -1.2089
 2028SOL    HW3 7879   3.874   1.468   2.264 -0.4123  0.0909 -1.0861
 2028SOL    MW4 7880   3.884   1.553   2.249  0.1770  0.1550 -0.3935
 2029SOL     OW 7881   2.477   5.291   0.629  0.0357 -0.5413  0.3201
 2029SOL    HW2 7882   2.437   5.369   0.589 -3.1357 -2.7735 -1.3064
 2029SOL    HW3 7883   2.471   5.307   0.723  0.1155  1.4039  0.0523
 2029SOL    MW4 7884   2.471   5.304   0.636 -0.3722 -0.5792  0.0702
 2030SOL     OW 7885   0.507   0.643   3.131 -0.6703  0.4585 -0.6675
 2030SOL    HW2 7886   0.587   0.597   3.156 -0.7703  0.5668 -0.1367
 2030SOL    HW3 7887   0.504   0.635   3.036 -0.2672  0.0589 -0.6531
 2030SOL    MW4 7888   0.517   0.636   3.122 -0.6303  0.4201 -0.5956
 2031SOL     OW 7889   0.692   6.090   5.868  0.1280 -0.1712 -0.0696
 2031SOL    HW2 7890   0.667   6.058   5.955  0.8436  0.3100  0.3146
 2031SOL    HW3 7891   0.787   6.091   5.869  0.1792 -1.1893 -1.2366
 2031SOL    MW4 7892   0.701   6.086   5.879  0.2291 -0.2420 -0.1729
 2032SOL     OW 7893   4.514   1.410   3.905 -0.4337 -0.1761  0.3208
 2032SOL    HW2 7894   4.513   1.480   3.839 -1.1824  0.9222  1.4541
 2032SOL    HW3 7895   4.439   1.355   3.882 -3.0451  2.2666  2.3006
 2032SOL    MW4 7896   4.504   1.412   3.893 -0.8770  0.2911  0.7315
 2033SOL     OW 7897   2.527   3.106   3.555 -0.0685 -0.0027 -0.6861
 2033SOL    HW2 7898   2.545   3.127   3.464  1.6511 -0.0621 -0.4023
 2033SOL    HW3 7899   2.441   3.143   3.573 -0.3754  0.0992 -2.2935
 2033SOL    MW4 7900   2.518   3.113   3.546  0.1179  0.0029 -0.8607
 2034SOL     OW 7901   1.212   6.203   0.511 -0.6005  0.7400  0.2398
 2034SOL    HW2 7902   1.303   6.211   0.480 -1.1110 -0.9264 -1.9296
 2034SOL    HW3 7903   1.217   6.142   0.585 -0.0067  0.0816 -0.3239
 2034SOL    MW4 7904   1.225   6.196   0.517 -0.5895  0.4333 -0.1208
 2035SOL     OW 7905   3.384   2.729   5.140 -0.1975 -0.3810  0.6101
 2035SOL    HW2 7906   3.346   2.804   5.186 -0.1811 -0.9860  1.6402
 2035SOL    HW3 7907   3.350   2.652   5.186  2.7916 -0.9825  2.1130
 2035SOL    MW4 7908   3.375   2.728   5.152  0.1991 -0.5402  0.9443
 2036SOL     OW 7909   3.558   3.854   5.885 -0.7510 -0.3635  0.2775
 2036SOL    HW2 7910   3.498   3.908   5.833 -0.7915 -0.9422 -0.2949
 2036SOL    HW3 7911   3.534   3.764   5.863  0.8730 -0.6107 -0.6149
 2036SOL    MW4 7912   3.547   3.849   5.875 -0.5420 -0.4725  0.0842
 2037SOL     OW 7913   0.366   5.352   3.228  0.2087  0.2877  0.0493
 2037SOL    HW2 7914   0.449   5.372   3.271 -0.2014 -1.7860  1.9855
 2037SOL    HW3 7915   0.315   5.433   3.237  1.3562  1.0018  0.4416
 2037SOL    MW4 7916   0.370   5.366   3.235  0.3060  0.1083  0.3566
 2038SOL     OW 7917   2.187   5.839   6.339  0.2911  0.0518  0.1926
 2038SOL    HW2 7918   2.256   5.875   6.283  0.8043 -0.2926  0.5975
 2038SOL    HW3 7919   2.181   5.900   6.412  0.5629 -0.2201  0.4439
 2038SOL    MW4 7920   2.195   5.852   6.341  0.3946 -0.0295  0.2792
 2039SOL     OW 7921   3.106   4.634   0.176  0.0634  0.0149  0.5548
 2039SOL    HW2 7922   3.073   4.575   0.244 -1.0897  0.3813  0.3298
 2039SOL    HW3 7923   3.192   4.598   0.154  0.0348 -0.6906  1.4942
 2039SOL    MW4 7924   3.113   4.622   0.182 -0.0925 -0.0298  0.6491
 2040SOL     OW 7925   0.690   2.545   0.517 -0.0971 -0.0709  0.2359
 2040SOL    HW2 7926   0.689   2.461   0.562  0.2044 -0.6936 -0.8872
 2040SOL    HW3 7927   0.624   2.536   0.448 -0.3302  0.7571  0.3398
 2040SOL    MW4 7928   0.681   2.533   0.514 -0.0880 -0.0438  0.1014
 2041SOL     OW 7929   6.290   0.887   3.325  0.0089 -0.0752  0.0228
 2041SOL    HW2 7930   6.269   0.866   3.416  0.1702 -0.7503 -0.0870
 2041SOL    HW3 7931   6.381   0.916   3.328  0.3445 -1.0609 -0.0438
 2041SOL    MW4 7932   6.300   0.888   3.337  0.0744 -0.2943 -0.0005
 2042SOL     OW 7933   1.770   5.876   2.768  0.1333 -0.4685 -0.1541
 2042SOL    HW2 7934   1.689   5.840   2.804  0.3393 -0.7075  0.0683
 2042SOL    HW3 7935   1.775   5.964   2.806 -1.6095  0.7937 -2.5328
 2042SOL    MW4 7936   1.760   5.883   2.778 -0.0694 -0.3335 -0.4386
 2043SOL     OW 7937   3.209   5.847   0.801 -0.4449  0.1244 -0.7190
 2043SOL    HW2 7938   3.270   5.919   0.813  0.8404 -0.8730 -1.0595
 2043SOL    HW3 7939   3.230   5.811   0.715 -2.1005  0.2862 -1.2147
 2043SOL    MW4 7940   3.220   5.852   0.791 -0.4938  0.0142 -0.8293
 2044SOL     OW 7941   6.283   2.608   3.186  0.2841  0.3292 -0.5259
 2044SOL    HW2 7942   6.353   2.661   3.149 -0.6629  2.0526 -0.0098
 2044SOL    HW3 7943   6.283   2.527   3.135  1.8519  0.7957 -1.3029
 2044SOL    MW4 7944   6.292   2.604   3.175  0.3660  0.6181 -0.5603
 2045SOL     OW 7945   3.773   3.442   4.848  0.1415 -0.1136 -0.0293
 2045SOL    HW2 7946   3.707   3.498   4.807  0.3308  0.8108  0.8802
 2045SOL    HW3 7947   3.727   3.360   4.866 -0.8414  0.5797  0.7646
 2045SOL    MW4 7948   3.758   3.439   4.845  0.0368  0.0998  0.1955
 2046SOL     OW 7949   3.140   0.896   1.444  0.5974 -0.5537  0.2036
 2046SOL    HW2 7950   3.219   0.843   1.441  0.6692 -0.4225 -0.2898
 2046SOL    HW3 7951   3.170   0.983   1.471  0.7450 -0.2895 -0.7775
 2046SOL    MW4 7952   3.154   0.901   1.447  0.6264 -0.5015  0.0091
 2047SOL     OW 7953   1.854   2.721   2.924  0.9160 -0.0037  0.0901
 2047SOL    HW2 7954   1.886   2.750   2.838  0.2444  1.3359  0.2744
 2047SOL    HW3 7955   1.905   2.772   2.987  1.2752 -0.8494  0.5105
 2047SOL    MW4 7956   1.865   2.732   2.921  0.8748  0.0615  0.1699
 2048SOL     OW 7957   1.485   6.177   1.718  0.0554 -0.0439  0.5142
 2048SOL    HW2 7958   1.520   6.253   1.670 -1.2992  1.1040  1.2583
 2048SOL    HW3 7959   1.556   6.151   1.777  0.0344  1.6370  1.3433
 2048SOL    MW4 7960   1.499   6.184   1.719 -0.1261  0.3293  0.7218
 2049SOL     OW 7961   6.000   2.459   1.567 -0.5731 -0.2585 -0.2043
 2049SOL    HW2 7962   6.031   2.463   1.476 -3.6763  2.6839 -1.3601
 2049SOL    HW3 7963   6.062   2.513   1.615  0.4646 -0.8887 -0.8039
 2049SOL    MW4 7964   6.012   2.467   1.561 -0.8456  0.0466 -0.4359
 2050SOL     OW 7965   2.580   3.115   0.561  0.3601 -0.5413  0.4243
 2050SOL    HW2 7966   2.491   3.124   0.596  1.4792 -0.3921  3.5477
 2050SOL    HW3 7967   2.592   3.020   0.550  0.6228 -0.8019  2.5511
 2050SOL    MW4 7968   2.570   3.103   0.564  0.5424 -0.5560  1.1170
 2051SOL     OW 7969   0.478   5.597   1.528  0.2461 -0.7204 -0.3104
 2051SOL    HW2 7970   0.455   5.541   1.453  0.3721 -1.6318  0.3145
 2051SOL    HW3 7971   0.397   5.605   1.578 -0.0258  0.4995 -0.9151
 2051SOL    MW4 7972   0.465   5.590   1.525  0.2268 -0.6797 -0.3077
 2052SOL     OW 7973   0.990   0.571   4.639 -0.2342 -0.8062  0.4658
 2052SOL    HW2 7974   0.944   0.490   4.621 -2.3108  0.3889  0.0956
 2052SOL    HW3 7975   0.982   0.584   4.733 -1.2474 -0.2919  0.3198
 2052SOL    MW4 7976   0.983   0.562   4.649 -0.6419 -0.5807  0.3977
 2053SOL     OW 7977   0.089   6.075   4.415  0.4242 -0.4435 -0.0696
 2053SOL    HW2 7978   0.080   6.049   4.323 -0.5977  0.6661 -0.2989
 2053SOL    HW3 7979   0.084   5.992   4.463  1.0803 -1.0539 -1.0040
 2053SOL    MW4 7980   0.087   6.060   4.409  0.3759 -0.3776 -0.2231
 2054SOL     OW 7981   5.877   3.885   1.617 -0.4165 -0.6283 -0.5888
 2054SOL    HW2 7982   5.829   3.959   1.580 -0.5767 -1.3228 -1.8059
 2054SOL    HW3 7983   5.968   3.915   1.622 -0.3952 -0.5208 -1.5393
 2054SOL    MW4 7984   5.882   3.899   1.613 -0.4348 -0.7057 -0.8748
 2055SOL     OW 7985   1.085   4.748   6.011 -0.0264 -0.4880  0.0785
 2055SOL    HW2 7986   1.127   4.820   5.963 -2.0214  1.0480  0.4889
 2055SOL    HW3 7987   1.083   4.778   6.102 -1.2067 -0.8994  0.2035
 2055SOL    MW4 7988   1.090   4.762   6.017 -0.4454 -0.3396  0.1492
 2056SOL     OW 7989   2.712   2.922   0.788 -0.5143 -0.1514  0.2045
 2056SOL    HW2 7990   2.649   2.992   0.770 -0.0249  0.4907  0.9642
 2056SOL    HW3 7991   2.675   2.845   0.743 -1.5485  0.3488  0.1698
 2056SOL    MW4 7992   2.698   2.921   0.779 -0.5862 -0.0007  0.3001
 2057SOL     OW 7993   2.959   3.200   0.674 -0.5817  0.8524  0.6989
 2057SOL    HW2 7994   2.916   3.191   0.590  0.9866 -0.9955  0.0223
 2057SOL    HW3 7995   3.052   3.192   0.655 -0.2264 -0.9073  2.7032
 2057SOL    MW4 7996   2.966   3.198   0.661 -0.3279  0.3764  0.8741
 2058SOL     OW 7997   4.637   4.407   6.056  0.0929  0.1912  0.3956
 2058SOL    HW2 7998   4.561   4.380   6.006 -1.1931  0.2603  2.1942
 2058SOL    HW3 7999   4.669   4.486   6.011  0.3046 -0.9080 -1.4739
 2058SOL    MW4 8000   4.631   4.414   6.044 -0.0488  0.0553  0.3863
 2059SOL     OW 8001   6.048   5.841   4.289  0.3285 -0.3026 -0.3013
 2059SOL    HW2 8002   5.958   5.828   4.262 -0.1041 -1.4725  1.5644
 2059SOL    HW3 8003   6.043   5.877   4.378  1.7028  0.6889 -0.5732
 2059SOL    MW4 8004   6.036   5.844   4.297  0.4528 -0.3262 -0.0910
 2060SOL     OW 8005   5.824   1.438   3.088 -0.0513 -0.1421  0.0449
 2060SOL    HW2 8006   5.889   1.410   3.023  0.3941 -0.0298  0.4377
 2060SOL    HW3 8007   5.872   1.442   3.170 -0.5777 -0.1343  0.3590
 2060SOL    MW4 8008   5.839   1.435   3.090 -0.0620 -0.1262  0.1382
 2061SOL     OW 8009   2.628   3.672   1.727  0.8380 -0.0003  0.2373
 2061SOL    HW2 8010   2.633   3.623   1.810 -0.2864 -0.1595  0.2312
 2061SOL    HW3 8011   2.609   3.762   1.753  0.4311 -0.0606  0.1531
 2061SOL    MW4 8012   2.626   3.677   1.741  0.6359 -0.0292  0.2254
 2062SOL     OW 8013   2.029   1.191   5.033  0.1806  0.4428 -0.2531
 2062SOL    HW2 8014   2.074   1.274   5.015  0.5995 -0.0303 -1.4796
 2062SOL    HW3 8015   2.075   1.155   5.109  1.2933  0.4053 -0.9184
 2062SOL    MW4 8016   2.041   1.197   5.041  0.3827  0.3755 -0.5027
 2063SOL     OW 8017   3.449   5.263   5.626 -0.7166 -0.4730 -0.7415
 2063SOL    HW2 8018   3.388   5.311   5.570 -1.3510  0.0288  0.3327
 2063SOL    HW3 8019   3.393   5.205   5.678 -0.1287 -1.0510 -0.7353
 2063SOL    MW4 8020   3.433   5.262   5.626 -0.7227 -0.4830 -0.5989
 2064SOL     OW 8021   3.137   4.101   0.199 -0.2176 -0.1122  0.0685
 2064SOL    HW2 8022   3.098   4.121   0.114  0.8246  1.4874 -0.0808
 2064SOL    HW3 8023   3.070   4.052   0.246 -1.6367  0.8617 -0.8740
 2064SOL    MW4 8024   3.123   4.097   0.194 -0.2673  0.2274 -0.0756
 2065SOL     OW 8025   3.686   3.693   4.493 -0.1822  0.7830  0.5992
 2065SOL    HW2 8026   3.657   3.770   4.542 -0.7543  0.4803  0.7488
 2065SOL    HW3 8027   3.609   3.637   4.491  0.3486  0.0352  0.8434
 2065SOL    MW4 8028   3.672   3.696   4.499 -0.1877  0.6444  0.6512
 2066SOL     OW 8029   4.533   4.595   6.362 -0.5175 -0.5829  0.7526
 2066SOL    HW2 8030   4.504   4.646   6.286 -0.0749 -0.2730  0.7860
 2066SOL    HW3 8031   4.538   4.505   6.330 -2.7347 -0.8665  1.0944
 2066SOL    MW4 8032   4.530   4.590   6.348 -0.7517 -0.5795  0.8021
 2067SOL     OW 8033   6.034   2.889   1.985 -0.4570 -0.3567 -0.0960
 2067SOL    HW2 8034   6.101   2.911   1.919  0.1744 -0.5433  0.4706
 2067SOL    HW3 8035   5.985   2.816   1.946 -1.1079  0.5420 -1.0222
 2067SOL    MW4 8036   6.036   2.882   1.971 -0.4596 -0.2627 -0.1435
 2068SOL     OW 8037   4.183   2.491   3.994  0.2790  0.1776  0.0719
 2068SOL    HW2 8038   4.136   2.531   4.067 -1.5675 -1.0468 -0.3768
 2068SOL    HW3 8039   4.257   2.446   4.035  0.8757  1.7600  0.8421
 2068SOL    MW4 8040   4.186   2.490   4.009  0.1141  0.2248  0.1143
 2069SOL     OW 8041   3.458   3.812   4.891  0.0775 -0.0869  0.0925
 2069SOL    HW2 8042   3.513   3.805   4.969  0.2506 -0.8115 -0.0842
 2069SOL    HW3 8043   3.461   3.905   4.868 -0.3768  0.2229  1.2282
 2069SOL    MW4 8044   3.466   3.823   4.898  0.0404 -0.1416  0.2190
 2070SOL     OW 8045   6.299   3.176   6.415 -0.2809 -0.0233  0.1152
 2070SOL    HW2 8046   6.288   3.230   6.494 -2.8799 -0.2489 -0.0213
 2070SOL    HW3 8047   6.320   3.239   6.346 -0.2297  0.4298  0.5333
 2070SOL    MW4 8048   6.301   3.191   6.416 -0.6171  0.0067  0.1524
 2071SOL     OW 8049   4.075   3.803   5.347 -0.1417 -0.1615  0.2140
 2071SOL    HW2 8050   4.143   3.756   5.395 -0.9739 -0.4289  1.1538
 2071SOL    HW3 8051   4.102   3.796   5.255  0.9775 -0.4495  0.5463
 2071SOL    MW4 8052   4.087   3.796   5.341 -0.1038 -0.2348  0.3818
 2072SOL     OW 8053   3.617   6.292   1.021  0.0850  0.0039 -0.1282
 2072SOL    HW2 8054   3.600   6.200   1.003  0.8996 -0.1901  0.0636
 2072SOL    HW3 8055   3.683   6.292   1.091 -0.0379  0.7311  0.0047
 2072SOL    MW4 8056   3.623   6.280   1.028  0.1763  0.0742 -0.0854
 2073SOL     OW 8057   2.300   6.059   3.019  0.1060  0.2531 -0.0931
 2073SOL    HW2 8058   2.235   6.097   3.077  0.9551 -0.7694  1.5836
 2073SOL    HW3 8059   2.359   6.132   2.999 -0.2612  0.6438  0.2265
 2073SOL    MW4 8060   2.299   6.074   3.024  0.1696  0.1698  0.1703
 2074SOL     OW 8061   2.194   2.364   0.134  0.9362  0.3027  0.1412
 2074SOL    HW2 8062   2.109   2.351   0.091  0.1538 -0.4328  1.8169
 2074SOL    HW3 8063   2.254   2.306   0.088 -0.1221 -1.2835  0.6913
 2074SOL    MW4 8064   2.191   2.355   0.123  0.6933 -0.0036  0.4348
 2075SOL     OW 8065   2.160   1.570   2.308  0.1003  0.5181 -0.3312
 2075SOL    HW2 8066   2.188   1.492   2.260 -1.3130 -0.9507  1.0997
 2075SOL    HW3 8067   2.240   1.605   2.346  0.7317 -0.3220 -0.8519
 2075SOL    MW4 8068   2.174   1.565   2.306 -0.0029  0.2135 -0.2111
 2076SOL     OW 8069   3.790   2.788   5.234 -0.2552  0.2700 -0.4440
 2076SOL    HW2 8070   3.780   2.804   5.140 -3.3537  0.8151 -0.1138
 2076SOL    HW3 8071   3.774   2.694   5.244  0.5473  0.1225 -0.4886
 2076SOL    MW4 8072   3.787   2.778   5.223 -0.5581  0.3224 -0.4063
 2077SOL     OW 8073   4.676   0.461   3.955  0.3466  0.1689  0.0430
 2077SOL    HW2 8074   4.762   0.454   3.914 -0.5899  0.9075 -2.2441
 2077SOL    HW3 8075   4.684   0.534   4.016  1.5422 -0.3354  0.5263
 2077SOL    MW4 8076   4.688   0.470   3.957  0.3808  0.1998 -0.1950
 2078SOL     OW 8077   5.380   4.231   3.403  0.4585 -0.0930  0.1738
 2078SOL    HW2 8078   5.338   4.146   3.417  0.4980  0.0932  1.6144
 2078SOL    HW3 8079   5.349   4.260   3.317 -1.2760 -0.5836  0.6035
 2078SOL    MW4 8080   5.370   4.224   3.394  0.2348 -0.1331  0.4205
 2079SOL     OW 8081   1.726   0.700   5.218 -0.1840 -0.1384  0.3938
 2079SOL    HW2 8082   1.737   0.775   5.160 -0.7214 -2.6733 -3.3553
 2079SOL    HW3 8083   1.635   0.706   5.248 -0.9921 -0.4248 -1.8191
 2079SOL    MW4 8084   1.715   0.710   5.214 -0.3615 -0.5107 -0.3928
 2080SOL     OW 8085   2.912   5.573   5.942 -0.1627 -0.6640 -0.0089
 2080SOL    HW2 8086   2.850   5.586   6.013 -0.0944 -1.3963  0.1927
 2080SOL    HW3 8087   2.994   5.550   5.986 -0.2485 -1.6273 -0.3385
 2080SOL    MW4 8088   2.915   5.572   5.957 -0.1650 -0.8877 -0.0258
 2081SOL     OW 8089   5.652   2.180   3.663  0.5742 -0.3525 -0.3963
 2081SOL    HW2 8090   5.592   2.105   3.662 -1.1022  0.9240 -0.3606
 2081SOL    HW3 8091   5.621   2.234   3.735  1.2467  0.7676 -0.9309
 2081SOL    MW4 8092   5.640   2.177   3.672  0.4417 -0.0363 -0.4621
 2082SOL     OW 8093   2.583   1.187   4.033  0.1265 -0.9764 -0.3434
 2082SOL    HW2 8094   2.548   1.113   4.083  0.2275 -1.4859 -1.0222
 2082SOL    HW3 8095   2.526   1.195   3.957  0.2369 -0.4769 -0.3833
 2082SOL    MW4 8096   2.571   1.179   4.030  0.1544 -0.9777 -0.4382
 2083SOL     OW 8097   3.027   5.982   6.091 -0.2816 -0.5521 -0.1201
 2083SOL    HW2 8098   2.998   5.955   6.178 -0.5166  0.8778  0.2764
 2083SOL    HW3 8099   3.041   6.077   6.098  1.1361 -0.6348 -1.2476
 2083SOL    MW4 8100   3.025   5.991   6.103 -0.1255 -0.3743 -0.2165
 2084SOL     OW 8101   1.698   4.564   0.988 -0.3190 -0.0028 -0.4384
 2084SOL    HW2 8102   1.660   4.477   0.980 -1.2272  0.3953 -0.6264
 2084SOL    HW3 8103   1.748   4.577   0.907  0.7059 -0.7532  0.0609
 2084SOL    MW4 8104   1.700   4.554   0.976 -0.3036 -0.0493 -0.3973
 2085SOL     OW 8105   0.172   2.338   2.217  0.5218 -0.1740  0.3153
 2085SOL    HW2 8106   0.222   2.418   2.229  0.5801 -0.3458  1.2541
 2085SOL    HW3 8107   0.082   2.362   2.239  0.5640 -0.4000  0.7380
 2085SOL    MW4 8108   0.166   2.352   2.221  0.5351 -0.2265  0.4949
 2086SOL     OW 8109   2.918   0.046   3.336  0.1003 -0.3011 -0.3795
 2086SOL    HW2 8110   3.012   0.059   3.350  0.1226 -1.7704  1.1438
 2086SOL    HW3 8111   2.913  -0.023   3.270  0.0998 -0.2471 -0.4356
 2086SOL    MW4 8112   2.930   0.039   3.329  0.1032 -0.4879 -0.1859
 2087SOL     OW 8113   1.273   3.761   1.737  0.1112  0.1484  0.0637
 2087SOL    HW2 8114   1.234   3.692   1.683  0.2926  0.7072 -0.8083
 2087SOL    HW3 8115   1.328   3.714   1.800 -3.0287 -0.7949  2.3576
 2087SOL    MW4 8116   1.275   3.745   1.738 -0.2792  0.0977  0.2513
 2088SOL     OW 8117   6.284   0.848   5.000 -0.2834 -0.2744  0.0639
 2088SOL    HW2 8118   6.272   0.754   4.985  0.0779 -0.2542 -0.3593
 2088SOL    HW3 8119   6.196   0.880   5.021 -0.3067 -0.8176  0.8596
 2088SOL    MW4 8120   6.271   0.840   5.001 -0.2388 -0.3434  0.1131
 2089SOL     OW 8121   0.336   5.465   3.727  0.8241 -0.8025  0.1844
 2089SOL    HW2 8122   0.265   5.408   3.758  0.0311  0.8891  1.5822
 2089SOL    HW3 8123   0.296   5.518   3.658  1.9219 -2.7539 -2.1398
 2089SOL    MW4 8124   0.321   5.464   3.722  0.8643 -0.8368  0.0622
 2090SOL     OW 8125   6.085   1.766   1.196  0.1218  0.4925  0.2606
 2090SOL    HW2 8126   6.006   1.820   1.203 -0.8955 -1.0952  1.9400
 2090SOL    HW3 8127   6.053   1.676   1.201  2.0773 -0.1976  1.7747
 2090SOL    MW4 8128   6.071   1.761   1.198  0.2456  0.1920  0.6819
 2091SOL     OW 8129   0.850   4.144   5.086 -0.2082 -0.1479 -0.5014
 2091SOL    HW2 8130   0.757   4.147   5.109 -0.3285  0.2638 -1.0182
 2091SOL    HW3 8131   0.853   4.090   5.007  0.1839 -1.4541  0.3803
 2091SOL    MW4 8132   0.838   4.137   5.079 -0.1724 -0.2659 -0.4532
 2092SOL     OW 8133   1.915   1.162   4.010  0.5235  0.4241 -0.2504
 2092SOL    HW2 8134   1.827   1.200   4.002  0.4363  0.2951  0.0826
 2092SOL    HW3 8135   1.907   1.098   4.081  1.0529  0.8848  0.2280
 2092SOL    MW4 8136   1.902   1.158   4.018  0.5819  0.4679 -0.1434
 2093SOL     OW 8137   4.961   4.645   0.501 -0.1858 -0.0022 -0.1741
 2093SOL    HW2 8138   5.027   4.694   0.452 -0.9969  0.1790 -1.1115
 2093SOL    HW3 8139   4.922   4.586   0.436 -0.4454 -0.6387  0.5389
 2093SOL    MW4 8140   4.965   4.643   0.486 -0.3270 -0.0623 -0.2037
 2094SOL     OW 8141   0.684   4.223   3.025 -0.7567 -0.1224  0.4873
 2094SOL    HW2 8142   0.653   4.310   3.052 -2.4025 -0.9824  1.4669
 2094SOL    HW3 8143   0.742   4.195   3.096 -0.9980 -0.2346  0.6393
 2094SOL    MW4 8144   0.688   4.231   3.038 -1.0057 -0.2507  0.6366
 2095SOL     OW 8145   6.180   4.375   5.434 -0.6535 -0.5335  0.2749
 2095SOL    HW2 8146   6.243   4.445   5.449  1.4294 -2.4040  0.9126
 2095SOL    HW3 8147   6.122   4.407   5.365  3.1407  0.0400 -2.9420
 2095SOL    MW4 8148   6.180   4.388   5.427  0.1219 -0.7046 -0.0654
 2096SOL     OW 8149   1.879   4.656   3.875  0.5909  0.0827 -0.5405
 2096SOL    HW2 8150   1.835   4.697   3.950 -0.3602 -1.1541 -0.3973
 2096SOL    HW3 8151   1.917   4.576   3.910 -1.2372 -1.3710 -1.6445
 2096SOL    MW4 8152   1.878   4.651   3.889  0.2242 -0.2723 -0.6672
 2097SOL     OW 8153   0.763   3.165   6.375 -1.0256  0.2886 -0.0634
 2097SOL    HW2 8154   0.816   3.162   6.455 -1.7024  1.2567  0.4447
 2097SOL    HW3 8155   0.675   3.139   6.403 -1.1661  0.1811 -0.5922
 2097SOL    MW4 8156   0.758   3.161   6.389 -1.1334  0.4021 -0.0661
 2098SOL     OW 8157   1.640   6.231   6.179  0.7436 -0.0194 -0.0388
 2098SOL    HW2 8158   1.626   6.140   6.206 -0.1652  0.2524  0.4586
 2098SOL    HW3 8159   1.643   6.228   6.084  2.1523 -0.7564  0.0051
 2098SOL    MW4 8160   1.639   6.218   6.170  0.8096 -0.0808  0.0327
 2099SOL     OW 8161   2.655   3.692   0.726  0.4360 -0.4074  0.4954
 2099SOL    HW2 8162   2.726   3.746   0.693  1.9668 -1.0542  2.5437
 2099SOL    HW3 8163   2.687   3.658   0.809 -3.1543  1.2251  2.8174
 2099SOL    MW4 8164   2.668   3.695   0.733  0.1643 -0.2773  1.0720
 2100SOL     OW 8165   0.830   5.681   2.868  0.2448 -0.1334  0.3197
 2100SOL    HW2 8166   0.801   5.592   2.885  1.6377 -0.7560 -0.3926
 2100SOL    HW3 8167   0.832   5.723   2.954 -0.1434 -0.8706  0.6956
 2100SOL    MW4 8168   0.827   5.675   2.881  0.3773 -0.3128  0.2753
 2101SOL     OW 8169   4.667   2.819   6.205 -0.6459 -0.0424  0.2866
 2101SOL    HW2 8170   4.600   2.751   6.198 -1.9829  1.3554 -1.4458
 2101SOL    HW3 8171   4.628   2.888   6.258 -0.1614  0.3099  0.1968
 2101SOL    MW4 8172   4.653   2.819   6.211 -0.7583  0.1885  0.0462
 2102SOL     OW 8173   4.166   3.948   1.281 -0.5222 -0.2231  0.0170
 2102SOL    HW2 8174   4.210   3.876   1.235 -1.0720 -0.5534  0.0023
 2102SOL    HW3 8175   4.237   3.993   1.327 -0.5624 -3.1476  3.3848
 2102SOL    MW4 8176   4.181   3.944   1.281 -0.6000 -0.6525  0.4594
 2103SOL     OW 8177   4.628   5.896   1.992  0.0638 -0.1332  0.5806
 2103SOL    HW2 8178   4.714   5.934   2.012  0.5533 -0.7082 -0.3516
 2103SOL    HW3 8179   4.647   5.804   1.971 -0.3222  0.3762 -2.5535
 2103SOL    MW4 8180   4.642   5.889   1.992  0.0775 -0.1418  0.0441
 2104SOL     OW 8181   3.883   0.169   1.314 -0.3236  0.8737  0.5430
 2104SOL    HW2 8182   3.886   0.192   1.407  1.6901  1.8123  0.2882
 2104SOL    HW3 8183   3.972   0.182   1.283 -0.7728 -0.2270 -1.3555
 2104SOL    MW4 8184   3.895   0.174   1.322 -0.1172  0.8523  0.2589
 2105SOL     OW 8185   1.826   3.472   4.178 -0.3625  0.2033  0.1764
 2105SOL    HW2 8186   1.742   3.454   4.135 -0.2583 -0.3356  0.1847
 2105SOL    HW3 8187   1.814   3.440   4.267  0.5129 -1.8597 -0.3712
 2105SOL    MW4 8188   1.814   3.465   4.184 -0.2333 -0.1400  0.1052
 2106SOL     OW 8189   1.527   0.697   1.354 -0.5335  0.2193  0.0351
 2106SOL    HW2 8190   1.565   0.760   1.414  0.0694  1.6263 -1.7354
 2106SOL    HW3 8191   1.434   0.720   1.352 -0.6116 -0.0282  0.6349
 2106SOL    MW4 8192   1.519   0.709   1.362 -0.4642  0.3723 -0.1194
 2107SOL     OW 8193   5.338   3.037   6.229 -0.1796 -0.2463  0.1194
 2107SOL    HW2 8194   5.303   2.977   6.164 -1.0948 -1.5064  1.6950
 2107SOL    HW3 8195   5.432   3.037   6.214 -0.5560  2.1472 -3.3262
 2107SOL    MW4 8196   5.346   3.029   6.219 -0.3500 -0.0967 -0.1273
 2108SOL     OW 8197   2.907   6.127   5.615 -0.3976  0.0446 -0.4373
 2108SOL    HW2 8198   2.975   6.110   5.681 -2.1332 -0.7661  1.2504
 2108SOL    HW3 8199   2.893   6.221   5.619 -0.9318 -0.0634  0.8930
 2108SOL    MW4 8200   2.914   6.137   5.624 -0.6971 -0.0766 -0.0391
 2109SOL     OW 8201   0.250   5.671   2.331 -0.8309  0.3860  0.0826
 2109SOL    HW2 8202   0.340   5.640   2.320 -0.4802  1.2058  0.5717
 2109SOL    HW3 8203   0.205   5.638   2.253 -0.1656 -0.2195 -0.0639
 2109SOL    MW4 8204   0.256   5.663   2.319 -0.6969  0.4143  0.1278
 2110SOL     OW 8205   0.287   6.381   2.493 -0.1063 -0.0993  0.5523
 2110SOL    HW2 8206   0.231   6.331   2.553  0.0110 -0.3677  0.4415
 2110SOL    HW3 8207   0.326   6.449   2.548  1.7057 -1.6524  1.3106
 2110SOL    MW4 8208   0.284   6.383   2.508  0.1483 -0.3397  0.6377
 2111SOL     OW 8209   3.690   2.806   0.116  0.0758 -0.2448  0.3944
 2111SOL    HW2 8210   3.639   2.766   0.187 -0.6626  0.9997  0.5960
 2111SOL    HW3 8211   3.625   2.829   0.050  0.4962  0.4958  0.2283
 2111SOL    MW4 8212   3.675   2.804   0.117  0.0339  0.0171  0.3991
 2112SOL     OW 8213   4.194   3.259   1.709  0.1422  0.2296 -0.2373
 2112SOL    HW2 8214   4.238   3.338   1.740  0.7843 -0.2097 -0.0227
 2112SOL    HW3 8215   4.106   3.289   1.686  0.1388  0.8664  0.5447
 2112SOL    MW4 8216   4.188   3.274   1.710  0.2265  0.2557 -0.1058
 2113SOL     OW 8217   4.330   1.347   5.583  0.0254 -0.1756 -0.4808
 2113SOL    HW2 8218   4.290   1.270   5.622 -2.1664  1.2863  0.3942
 2113SOL    HW3 8219   4.256   1.402   5.556  1.3964  2.3033  0.3908
 2113SOL    MW4 8220   4.315   1.344   5.585 -0.0829  0.3443 -0.2504
 2114SOL     OW 8221   6.081   1.734   4.518 -0.2175 -0.2668 -0.1612
 2114SOL    HW2 8222   6.172   1.711   4.537  0.7473  1.3278 -2.3829
 2114SOL    HW3 8223   6.055   1.673   4.449 -0.4968 -0.1196 -0.1885
 2114SOL    MW4 8224   6.089   1.723   4.511 -0.1270 -0.0370 -0.4579
 2115SOL     OW 8225   0.694   0.573   6.355  0.1736  0.6313  0.0236
 2115SOL    HW2 8226   0.738   0.610   6.431  0.5987 -0.8639  0.5419
 2115SOL    HW3 8227   0.695   0.644   6.290  0.1125  1.8135  1.2668
 2115SOL    MW4 8228   0.700   0.587   6.356  0.2216  0.5900  0.2560
 2116SOL     OW 8229   5.616   2.341   0.008 -0.3474  0.6993  0.1132
 2116SOL    HW2 8230   5.707   2.346   0.036 -0.0172 -1.2362 -0.4645
 2116SOL    HW3 8231   5.579   2.426   0.031  1.9814  2.1195 -0.9955
 2116SOL    MW4 8232   5.623   2.353   0.014  0.0034  0.6313 -0.1093
 2117SOL     OW 8233   5.529   3.572   1.566 -0.1707 -0.5738  0.3107
 2117SOL    HW2 8234   5.439   3.604   1.562 -0.5629 -1.5403  0.9886
 2117SOL    HW3 8235   5.527   3.503   1.633  1.8383  1.8741  3.2177
 2117SOL    MW4 8236   5.517   3.568   1.575  0.0426 -0.3784  0.7837
 2118SOL     OW 8237   5.763   5.727   0.649 -0.1199  0.4308  0.3330
 2118SOL    HW2 8238   5.771   5.758   0.739 -0.5811 -1.0446  0.9275
 2118SOL    HW3 8239   5.853   5.718   0.618  0.0417  0.9013  0.6683
 2118SOL    MW4 8240   5.776   5.730   0.657 -0.1595  0.2982  0.4557
 2119SOL     OW 8241   0.229   2.773   0.730  0.1844 -0.5078 -0.1902
 2119SOL    HW2 8242   0.318   2.797   0.755  1.0642 -2.2841 -1.3904
 2119SOL    HW3 8243   0.210   2.829   0.654 -0.0810  0.4665  0.5722
 2119SOL    MW4 8244   0.238   2.784   0.723  0.2655 -0.6136 -0.2479
 2120SOL     OW 8245   1.680   3.170   5.409 -0.1991 -0.1017 -0.2188
 2120SOL    HW2 8246   1.669   3.257   5.447 -1.1854  0.3980 -1.5777
 2120SOL    HW3 8247   1.591   3.135   5.401  0.0082 -0.3997 -1.5332
 2120SOL    MW4 8248   1.667   3.177   5.413 -0.3019 -0.0751 -0.5715
 2121SOL     OW 8249   0.577   3.998   3.971 -0.0227 -0.4754 -0.0514
 2121SOL    HW2 8250   0.614   3.925   3.921 -1.1417 -1.8301  1.0245
 2121SOL    HW3 8251   0.566   3.964   4.059  0.5044  1.3905  0.7955
 2121SOL    MW4 8252   0.580   3.984   3.976 -0.1008 -0.4079  0.2023
 2122SOL     OW 8253   6.248   5.492   0.095  0.4180 -0.5075  0.7492
 2122SOL    HW2 8254   6.292   5.407   0.083 -0.8377 -0.8629 -2.3298
 2122SOL    HW3 8255   6.156   5.470   0.107  0.3047  0.4100  1.6864
 2122SOL    MW4 8256   6.242   5.478   0.095  0.2374 -0.4333  0.4666
 2123SOL     OW 8257   1.229   3.165   4.630 -0.4640  0.6208  0.0158
 2123SOL    HW2 8258   1.312   3.126   4.600 -0.8852 -0.0194 -0.3510
 2123SOL    HW3 8259   1.248   3.196   4.718  0.6707  2.1008 -0.7041
 2123SOL    MW4 8260   1.243   3.164   4.637 -0.3698  0.7316 -0.1276
 2124SOL     OW 8261   5.344   4.819   1.546 -0.4525 -0.2329 -0.5212
 2124SOL    HW2 8262   5.308   4.807   1.458  0.3029 -0.0220 -0.8744
 2124SOL    HW3 8263   5.425   4.868   1.531 -0.0454 -0.6587  0.2428
 2124SOL    MW4 8264   5.350   4.824   1.532 -0.2991 -0.2612 -0.4670
 2125SOL     OW 8265   3.285   6.424   2.535 -0.1198 -0.4671 -0.7297
 2125SOL    HW2 8266   3.248   6.339   2.511  1.3210 -1.2796 -0.1692
 2125SOL    HW3 8267   3.303   6.418   2.629  1.2336 -0.0435 -0.9381
 2125SOL    MW4 8268   3.282   6.412   2.544  0.2489 -0.5184 -0.6832
 2126SOL     OW 8269   3.557   3.269   1.579  0.3138 -0.3430 -0.5892
 2126SOL    HW2 8270   3.543   3.302   1.491  0.3843 -3.0881 -1.7478
 2126SOL    HW3 8271   3.616   3.332   1.620  0.7645  0.6818 -2.7124
 2126SOL    MW4 8272   3.563   3.282   1.573  0.3826 -0.5699 -1.0222
 2127SOL     OW 8273   2.166   6.290   5.441  0.4783  0.1397  0.0508
 2127SOL    HW2 8274   2.235   6.225   5.452 -0.9652 -1.3669  0.5432
 2127SOL    HW3 8275   2.100   6.266   5.506  0.6176  3.1516  1.5024
 2127SOL    MW4 8276   2.166   6.278   5.451  0.3063  0.3383  0.3073
 2128SOL     OW 8277   1.461   3.701   2.383  0.1652 -0.2990  0.4144
 2128SOL    HW2 8278   1.528   3.750   2.335  0.0460  0.4825  1.0084
 2128SOL    HW3 8279   1.504   3.621   2.410  1.1457  0.5660  1.5119
 2128SOL    MW4 8280   1.475   3.697   2.380  0.2788 -0.0818  0.6376
 2129SOL     OW 8281   3.290   4.343   2.982  0.6335 -0.6964 -0.0330
 2129SOL    HW2 8282   3.341   4.388   2.915 -0.1779 -1.8309 -1.4646
 2129SOL    HW3 8283   3.208   4.393   2.987  0.2845 -1.1943 -0.6402
 2129SOL    MW4 8284   3.286   4.356   2.974  0.4804 -0.9118 -0.3020
 2130SOL     OW 8285   1.276   0.827   1.372 -0.0716  0.4805  0.0656
 2130SOL    HW2 8286   1.242   0.883   1.443 -1.0501  0.6682 -0.5293
 2130SOL    HW3 8287   1.281   0.885   1.296  1.8347  0.5098  0.1636
 2130SOL    MW4 8288   1.272   0.842   1.372  0.0508  0.5091  0.0001
 2131SOL     OW 8289   2.173   3.485   1.595  0.1941 -0.0061  0.3790
 2131SOL    HW2 8290   2.263   3.511   1.575  0.4083 -1.5265 -0.8049
 2131SOL    HW3 8291   2.122   3.565   1.583  0.8681  0.0576 -2.7351
 2131SOL    MW4 8292   2.178   3.499   1.591  0.3113 -0.1983 -0.1880
 2132SOL     OW 8293   3.979   5.410   1.865  0.4455  0.5003  0.4659
 2132SOL    HW2 8294   4.070   5.390   1.888  0.7704  2.4419  1.0356
 2132SOL    HW3 8295   3.968   5.373   1.778  2.4494  1.9604 -0.4888
 2132SOL    MW4 8296   3.989   5.402   1.857  0.7527  0.9491  0.4151
 2133SOL     OW 8297   3.667   0.022   6.110 -0.1873 -0.5551  0.6051
 2133SOL    HW2 8298   3.626  -0.039   6.171  0.1617 -0.0098  1.4045
 2133SOL    HW3 8299   3.693  -0.032   6.036 -1.6258 -1.0408  0.4311
 2133SOL    MW4 8300   3.665   0.007   6.108 -0.3310 -0.5472  0.6877
 2134SOL     OW 8301   0.034   2.493   3.859 -0.5806  0.3037  0.0949
 2134SOL    HW2 8302   0.118   2.473   3.901 -0.3718 -0.0885 -0.4939
 2134SOL    HW3 8303   0.057   2.553   3.788 -0.8730  0.5959  0.2416
 2134SOL    MW4 8304   0.048   2.498   3.855 -0.5916  0.2905  0.0366
 2135SOL     OW 8305   1.663   4.060   4.793  0.5598 -0.0585  0.5063
 2135SOL    HW2 8306   1.708   4.075   4.710 -0.4271  0.8781  0.1218
 2135SOL    HW3 8307   1.717   4.104   4.858 -0.6542  2.6624 -0.1909
 2135SOL    MW4 8308   1.676   4.067   4.791  0.2694  0.4240  0.3636
 2136SOL     OW 8309   1.025   4.059   1.063  0.3098 -0.4935  0.2000
 2136SOL    HW2 8310   1.022   4.001   1.140  0.1718 -1.6425 -0.6468
 2136SOL    HW3 8311   0.985   4.008   0.993  1.2067  0.2132 -0.8532
 2136SOL    MW4 8312   1.019   4.044   1.064  0.4099 -0.5519 -0.0507
 2137SOL     OW 8313   3.627   4.114   3.931  0.5237 -0.2328  0.3474
 2137SOL    HW2 8314   3.620   4.023   3.902 -0.2598  0.0221 -0.3116
 2137SOL    HW3 8315   3.583   4.116   4.016  1.4560 -0.6691  0.8537
 2137SOL    MW4 8316   3.620   4.102   3.938  0.5433 -0.2567  0.3273
 2138SOL     OW 8317   4.156   2.538   2.432 -0.2147 -0.3526 -0.1774
 2138SOL    HW2 8318   4.174   2.619   2.479 -0.6340 -0.2603 -0.1695
 2138SOL    HW3 8319   4.132   2.566   2.344 -1.0660 -0.4114  0.0219
 2138SOL    MW4 8320   4.155   2.552   2.427 -0.3823 -0.3482 -0.1501
 2139SOL     OW 8321   4.544   0.083   1.178  0.3221 -0.2686 -0.1542
 2139SOL    HW2 8322   4.473   0.026   1.209 -0.2459 -0.0849 -1.0506
 2139SOL    HW3 8323   4.558   0.056   1.087 -0.0144  1.0418 -0.6264
 2139SOL    MW4 8324   4.536   0.072   1.170  0.2027 -0.0714 -0.3347
 2140SOL     OW 8325   4.448   6.076   1.889  0.0667 -0.4398 -0.3120
 2140SOL    HW2 8326   4.513   6.008   1.905  0.7379  0.0879 -0.7504
 2140SOL    HW3 8327   4.365   6.029   1.881  0.3926 -1.1218  0.2352
 2140SOL    MW4 8328   4.445   6.061   1.890  0.1982 -0.4602 -0.2977
 2141SOL     OW 8329   0.916   2.082   1.705  0.0443  0.4811  0.3110
 2141SOL    HW2 8330   0.933   2.084   1.799 -0.2245 -1.2417  0.4247
 2141SOL    HW3 8331   0.822   2.099   1.696 -0.0931 -0.1706  0.4346
 2141SOL    MW4 8332   0.906   2.084   1.716 -0.0093  0.1678  0.3423
 2142SOL     OW 8333   5.091   0.677   4.830 -0.1647 -0.0269 -0.5266
 2142SOL    HW2 8334   5.180   0.643   4.819  0.5902  1.7786 -0.3590
 2142SOL    HW3 8335   5.097   0.770   4.806 -2.3009 -0.1297 -1.8047
 2142SOL    MW4 8336   5.103   0.685   4.825 -0.3469  0.1977 -0.6731
 2143SOL     OW 8337   5.986   1.677   4.772  0.0334  0.5691  0.1694
 2143SOL    HW2 8338   6.013   1.706   4.685  0.0221  0.6527  0.1936
 2143SOL    HW3 8339   5.904   1.723   4.789 -0.2836  0.0751 -0.0296
 2143SOL    MW4 8340   5.979   1.687   4.763 -0.0099  0.5149  0.1463
 2144SOL     OW 8341   6.007   3.665   4.155  0.0456 -1.3432  0.6156
 2144SOL    HW2 8342   5.949   3.654   4.080 -1.5280 -0.4205  1.6339
 2144SOL    HW3 8343   5.953   3.710   4.220  2.3204  0.9717  1.0815
 2144SOL    MW4 8344   5.992   3.670   4.154  0.1381 -0.9160  0.8115
 2145SOL     OW 8345   3.511   6.035   4.179 -0.7020  0.7943 -0.0814
 2145SOL    HW2 8346   3.520   5.948   4.140 -1.2159  1.2165 -1.1927
 2145SOL    HW3 8347   3.595   6.077   4.163 -0.0648  0.1413  1.4299
 2145SOL    MW4 8348   3.523   6.029   4.172 -0.6858  0.7639 -0.0286
 2146SOL     OW 8349   2.766   5.810   5.063  0.0915 -0.3185 -0.3163
 2146SOL    HW2 8350   2.763   5.722   5.100 -0.9811 -0.4973 -0.7702
 2146SOL    HW3 8351   2.846   5.849   5.098 -1.0102 -0.3211  2.4982
 2146SOL    MW4 8352   2.776   5.804   5.072 -0.1953 -0.3425 -0.0049
 2147SOL     OW 8353   3.982   2.324   2.946 -0.5896 -0.0092  0.6334
 2147SOL    HW2 8354   3.973   2.327   2.851  0.3553 -1.2304  0.4746
 2147SOL    HW3 8355   3.926   2.394   2.978  0.3827  1.5660 -0.9194
 2147SOL    MW4 8356   3.974   2.334   2.938 -0.3367  0.0375  0.4075
 2148SOL     OW 8357   0.284   3.394   1.456  0.2055 -0.5378 -0.3659
 2148SOL    HW2 8358   0.238   3.473   1.429 -0.1607 -0.0082  1.5998
 2148SOL    HW3 8359   0.374   3.423   1.472  0.3980 -0.8181 -0.9418
 2148SOL    MW4 8360   0.290   3.408   1.455  0.1825 -0.5049 -0.1825
 2149SOL     OW 8361   3.909   0.637   1.531 -0.4207  0.2280 -0.4379
 2149SOL    HW2 8362   3.901   0.582   1.609  0.7983  0.5368 -0.0645
 2149SOL    HW3 8363   3.982   0.599   1.483  0.3204  1.3923 -0.2665
 2149SOL    MW4 8364   3.918   0.624   1.535 -0.1621  0.4224 -0.3660
 2150SOL     OW 8365   6.393   0.544   3.724  0.3842  0.1688  0.1128
 2150SOL    HW2 8366   6.429   0.565   3.637 -0.2174  0.1966 -0.1328
 2150SOL    HW3 8367   6.347   0.461   3.711 -2.9156  1.9256 -0.5263
 2150SOL    MW4 8368   6.392   0.536   3.711 -0.1305  0.4043 -0.0039
 2151SOL     OW 8369   0.347   0.833   1.737  0.0769 -1.2040 -0.1938
 2151SOL    HW2 8370   0.288   0.808   1.667  1.4293  0.0466 -1.8663
 2151SOL    HW3 8371   0.423   0.776   1.727  0.1578 -1.2176  0.4418
 2151SOL    MW4 8372   0.349   0.822   1.727  0.2660 -1.0408 -0.3306
 2152SOL     OW 8373   0.636   3.348   4.511 -0.2389 -0.1919  0.1852
 2152SOL    HW2 8374   0.715   3.398   4.491  0.4580 -1.0042  0.8419
 2152SOL    HW3 8375   0.579   3.362   4.435  0.6515  0.1672 -0.4302
 2152SOL    MW4 8376   0.639   3.357   4.498 -0.0294 -0.2517  0.1907
 2153SOL     OW 8377   2.671   0.834   1.169 -0.5103  0.4058 -0.7153
 2153SOL    HW2 8378   2.685   0.740   1.158  1.4929  0.7740 -1.7819
 2153SOL    HW3 8379   2.717   0.874   1.095 -0.7879  2.2528  0.0576
 2153SOL    MW4 8380   2.679   0.827   1.158 -0.2826  0.6981 -0.7540
 2154SOL     OW 8381   0.266   5.258   1.703  0.1666 -0.4167  0.2662
 2154SOL    HW2 8382   0.171   5.247   1.697  0.1804 -0.3363 -0.1427
 2154SOL    HW3 8383   0.285   5.335   1.650  0.0183  1.9848  3.4152
 2154SOL    MW4 8384   0.256   5.266   1.695  0.1489 -0.0893  0.6277
 2155SOL     OW 8385   0.560   4.206   1.546  0.0970  0.1500 -0.3242
 2155SOL    HW2 8386   0.539   4.113   1.546 -0.1825  0.1937  0.6553
 2155SOL    HW3 8387   0.480   4.248   1.579  0.9842  0.5124  1.4701
 2155SOL    MW4 8388   0.546   4.199   1.551  0.1772  0.2036  0.0418
 2156SOL     OW 8389   1.871   1.318   0.433  0.2579  0.0920 -0.5119
 2156SOL    HW2 8390   1.914   1.251   0.381  0.5871  0.7542 -1.1145
 2156SOL    HW3 8391   1.790   1.278   0.463  1.3245 -1.2138  0.7211
 2156SOL    MW4 8392   1.866   1.304   0.430  0.4421  0.0071 -0.4287
 2157SOL     OW 8393   5.304   2.043   1.179 -0.2155 -0.4438 -0.4043
 2157SOL    HW2 8394   5.278   2.010   1.093 -0.3930 -3.3306  0.6465
 2157SOL    HW3 8395   5.364   1.976   1.212  0.8381  1.2332  1.2240
 2157SOL    MW4 8396   5.309   2.029   1.172 -0.0999 -0.6034 -0.0508
 2158SOL     OW 8397   5.907   6.072   5.228  0.4187  0.2750  0.2413
 2158SOL    HW2 8398   5.960   6.088   5.149  0.1017  0.7987  0.1315
 2158SOL    HW3 8399   5.916   5.978   5.243  1.4233  0.3566  0.2538
 2158SOL    MW4 8400   5.915   6.062   5.219  0.5094  0.3549  0.2285
 2159SOL     OW 8401   3.508   3.877   3.146 -0.5549  0.7232 -0.2514
 2159SOL    HW2 8402   3.454   3.956   3.143 -1.6366 -0.0225 -1.4198
 2159SOL    HW3 8403   3.534   3.862   3.055  0.9506  0.5811  0.1687
 2159SOL    MW4 8404   3.505   3.886   3.134 -0.4989  0.6061 -0.3501
 2160SOL     OW 8405   0.584   3.073   4.146  0.2918  0.3094  0.8304
 2160SOL    HW2 8406   0.657   3.036   4.096 -0.2946 -1.6197  1.3275
 2160SOL    HW3 8407   0.586   3.166   4.126  1.1150 -0.1340 -1.4731
 2160SOL    MW4 8408   0.594   3.080   4.137  0.3230 -0.0036  0.5920
 2161SOL     OW 8409   3.985   4.634   2.642  0.1324 -0.0903 -0.2566
 2161SOL    HW2 8410   3.982   4.538   2.639 -1.1507 -0.0985  0.7417
 2161SOL    HW3 8411   3.895   4.661   2.626  0.3063  0.9216  0.4339
 2161SOL    MW4 8412   3.973   4.625   2.639 -0.0140  0.0421 -0.0338
 2162SOL     OW 8413   0.333   2.494   1.227  0.6587 -0.6218  0.0799
 2162SOL    HW2 8414   0.354   2.547   1.303  1.8068  0.7322 -1.1225
 2162SOL    HW3 8415   0.253   2.533   1.192  1.6594  0.5976 -0.9710
 2162SOL    MW4 8416   0.325   2.506   1.232  0.9422 -0.2823 -0.2174
 2163SOL     OW 8417   2.758   3.820   3.148  0.4398  0.1555 -0.0967
 2163SOL    HW2 8418   2.720   3.765   3.216 -0.8469  0.0114 -0.8935
 2163SOL    HW3 8419   2.811   3.760   3.095 -1.3894 -0.5103 -1.2895
 2163SOL    MW4 8420   2.760   3.805   3.150  0.0287  0.0486 -0.3592
 2164SOL     OW 8421   1.597   1.495   3.917 -0.7766 -0.2647 -0.3050
 2164SOL    HW2 8422   1.531   1.532   3.976  0.1384 -0.4668  0.8767
 2164SOL    HW3 8423   1.615   1.408   3.952  0.0861 -0.2253 -0.6150
 2164SOL    MW4 8424   1.591   1.489   3.929 -0.5421 -0.2862 -0.1900
 2165SOL     OW 8425   5.552   1.247   4.354  0.3813 -0.4332 -0.1806
 2165SOL    HW2 8426   5.527   1.202   4.273 -0.7520 -0.9602  0.4319
 2165SOL    HW3 8427   5.566   1.177   4.417 -1.6093  0.0108  0.8466
 2165SOL    MW4 8428   5.550   1.232   4.351 -0.0308 -0.4442  0.0358
 2166SOL     OW 8429   4.727   4.561   5.785  0.2645  0.0345  0.5216
 2166SOL    HW2 8430   4.698   4.619   5.715  0.3482 -0.0867  0.3851
 2166SOL    HW3 8431   4.758   4.483   5.739 -0.7847 -0.5298  0.7492
 2166SOL    MW4 8432   4.727   4.558   5.769  0.1371 -0.0559  0.5336
 2167SOL     OW 8433   4.724   1.014   0.533  0.1046 -0.0773 -0.7544
 2167SOL    HW2 8434   4.764   1.007   0.446 -0.8787 -0.4038 -1.1846
 2167SOL    HW3 8435   4.719   0.924   0.565  1.4714  0.1194  0.1296
 2167SOL    MW4 8436   4.729   1.001   0.526  0.1552 -0.0944 -0.6945
 2168SOL     OW 8437   0.297   6.139   2.880 -0.4259 -0.5366  0.6182
 2168SOL    HW2 8438   0.365   6.206   2.879 -0.7832 -0.0118 -2.8815
 2168SOL    HW3 8439   0.232   6.171   2.942 -0.0559  1.8582 -0.1156
 2168SOL    MW4 8440   0.297   6.152   2.888 -0.4242 -0.1514  0.0596
 2169SOL     OW 8441   3.306   0.265   5.748 -0.1590 -0.7101 -0.1552
 2169SOL    HW2 8442   3.316   0.278   5.654 -0.1413  0.9714  0.0561
 2169SOL    HW3 8443   3.372   0.199   5.770  1.3552  0.4407 -0.9952
 2169SOL    MW4 8444   3.316   0.258   5.739  0.0431 -0.3364 -0.2382
 2170SOL     OW 8445   4.111   4.853   2.036 -0.0894 -0.0550  0.1572
 2170SOL    HW2 8446   4.072   4.786   2.092  0.2838 -0.3862  0.0258
 2170SOL    HW3 8447   4.086   4.936   2.076 -0.4947 -0.2744  0.3639
 2170SOL    MW4 8448   4.102   4.855   2.048 -0.0937 -0.1276  0.1671
 2171SOL     OW 8449   1.958   3.637   4.457  0.3556 -0.0748 -0.2415
 2171SOL    HW2 8450   1.876   3.588   4.455  0.3734 -0.3033  2.0695
 2171SOL    HW3 8451   1.946   3.701   4.527  1.8091  0.5437 -0.5201
 2171SOL    MW4 8452   1.946   3.639   4.466  0.5497 -0.0233  0.0267
 2172SOL     OW 8453   2.882   1.904   5.635  0.3652  0.2714  0.0920
 2172SOL    HW2 8454   2.845   1.881   5.721  0.2064  1.2185  0.2984
 2172SOL    HW3 8455   2.976   1.901   5.648  0.3812 -1.3768 -0.2160
 2172SOL    MW4 8456   2.889   1.901   5.648  0.3464  0.1789  0.0786
 2173SOL     OW 8457   3.173   3.931   4.322 -0.1274  0.4979 -0.1149
 2173SOL    HW2 8458   3.256   3.915   4.278 -0.7669  0.1454 -1.2391
 2173SOL    HW3 8459   3.133   4.003   4.274 -0.7336  0.2736  0.0438
 2173SOL    MW4 8460   3.179   3.938   4.310 -0.2917  0.4218 -0.2423
 2174SOL     OW 8461   6.062   0.068   4.105  0.2236  0.1939 -0.1271
 2174SOL    HW2 8462   6.140   0.031   4.146 -0.5855 -0.0741  1.2438
 2174SOL    HW3 8463   5.992   0.005   4.125 -0.3743  0.4632 -1.2621
 2174SOL    MW4 8464   6.063   0.054   4.113  0.0379  0.1940 -0.0960
 2175SOL     OW 8465   1.012   1.208   5.447  0.9984 -0.1044 -0.0703
 2175SOL    HW2 8466   1.018   1.151   5.370 -0.5323 -0.4091  0.0132
 2175SOL    HW3 8467   1.037   1.152   5.520  0.5982 -0.3658 -0.1272
 2175SOL    MW4 8468   1.016   1.193   5.446  0.7436 -0.1791 -0.0668
 2176SOL     OW 8469   4.888   2.335   1.333  0.2617 -0.4130 -0.0768
 2176SOL    HW2 8470   4.954   2.288   1.282 -0.0424  0.6710 -1.5202
 2176SOL    HW3 8471   4.809   2.281   1.324  0.0146  0.1340 -1.4037
 2176SOL    MW4 8472   4.886   2.322   1.325  0.1890 -0.1978 -0.4423
 2177SOL     OW 8473   0.756   2.869   6.050  0.6268  0.5416  0.2764
 2177SOL    HW2 8474   0.836   2.817   6.051  0.6253  0.3420 -2.4349
 2177SOL    HW3 8475   0.786   2.960   6.059  1.1556  0.4664 -0.6988
 2177SOL    MW4 8476   0.771   2.874   6.052  0.6964  0.5054 -0.2100
 2178SOL     OW 8477   2.144   6.413   1.496  0.1120 -0.7468 -0.3653
 2178SOL    HW2 8478   2.109   6.463   1.569 -1.8360  1.0361 -2.3596
 2178SOL    HW3 8479   2.067   6.385   1.446  1.3536 -1.4824 -1.9934
 2178SOL    MW4 8480   2.129   6.416   1.499  0.0188 -0.6086 -0.8432
 2179SOL     OW 8481   5.637   4.139   1.944  0.3098 -0.0973 -0.0712
 2179SOL    HW2 8482   5.598   4.053   1.956  0.2890  0.0285  0.8800
 2179SOL    HW3 8483   5.631   4.180   2.031 -1.6485  1.6933 -0.9537
 2179SOL    MW4 8484   5.631   4.133   1.957  0.0487  0.1556 -0.0621
 2180SOL     OW 8485   5.121   1.280   3.918  0.2232 -0.2138 -0.3613
 2180SOL    HW2 8486   5.043   1.298   3.971 -0.0561  2.1932 -1.4572
 2180SOL    HW3 8487   5.101   1.320   3.833  1.6579 -1.7931 -1.4831
 2180SOL    MW4 8488   5.108   1.288   3.914  0.3756 -0.1046 -0.6539
 2181SOL     OW 8489   1.484   2.201   3.689  0.1811 -0.3093  0.6123
 2181SOL    HW2 8490   1.532   2.256   3.751  0.7972 -0.1039 -0.0343
 2181SOL    HW3 8491   1.552   2.165   3.632  0.0095 -3.0683  1.9971
 2181SOL    MW4 8492   1.500   2.204   3.690  0.2397 -0.6462  0.7097
 2182SOL     OW 8493   5.394   2.698   2.354 -0.3581  0.4280 -0.6084
 2182SOL    HW2 8494   5.437   2.762   2.411 -0.3917  0.7168 -0.9052
 2182SOL    HW3 8495   5.466   2.661   2.302 -0.0820 -0.9776  0.6955
 2182SOL    MW4 8496   5.410   2.702   2.354 -0.3261  0.2807 -0.4755
 2183SOL     OW 8497   1.622   1.179   2.881  0.5588  0.0198  0.4346
 2183SOL    HW2 8498   1.562   1.214   2.947  0.7422  0.3370  0.4326
 2183SOL    HW3 8499   1.603   1.230   2.802  1.7274  1.0271  0.7719
 2183SOL    MW4 8500   1.612   1.190   2.879  0.7372  0.1945  0.4789
 2184SOL     OW 8501   6.107   3.060   0.781 -0.0744  0.4807 -0.4565
 2184SOL    HW2 8502   6.029   3.104   0.747 -0.2594  0.0766 -0.5753
 2184SOL    HW3 8503   6.077   2.970   0.797 -0.0482  0.7024  0.9592
 2184SOL    MW4 8504   6.093   3.054   0.779 -0.0953  0.4566 -0.2854
 2185SOL     OW 8505   4.309   4.920   2.363 -0.1480  0.0109 -0.3481
 2185SOL    HW2 8506   4.229   4.931   2.413 -0.2052 -0.3575 -0.3612
 2185SOL    HW3 8507   4.321   5.005   2.319  0.7144  0.8884  1.4549
 2185SOL    MW4 8508   4.300   4.933   2.364 -0.0418  0.0781 -0.1120
 2186SOL     OW 8509   0.141   1.777   1.471  0.0916 -0.5553  0.6051
 2186SOL    HW2 8510   0.113   1.699   1.422  1.4264 -0.2964 -0.6283
 2186SOL    HW3 8511   0.135   1.848   1.408 -1.4136  0.4470  1.8091
 2186SOL    MW4 8512   0.136   1.776   1.456  0.0691 -0.3889  0.6012
 2187SOL     OW 8513   5.799   2.964   0.420 -0.0504  0.2077 -0.0284
 2187SOL    HW2 8514   5.796   3.059   0.416  0.8961  0.2597  0.1629
 2187SOL    HW3 8515   5.764   2.935   0.335  1.9831  0.8029 -1.1477
 2187SOL    MW4 8516   5.794   2.972   0.408  0.3428  0.2931 -0.1508
 2188SOL     OW 8517   5.046   5.863   0.882  0.2892  0.3782  0.3384
 2188SOL    HW2 8518   4.996   5.938   0.849 -0.6208 -0.1011  0.6023
 2188SOL    HW3 8519   5.009   5.846   0.969  0.2686 -0.5702  0.1537
 2188SOL    MW4 8520   5.035   5.871   0.890  0.1664  0.1899  0.3488
 2189SOL     OW 8521   3.539   4.145   3.652  0.0668 -0.5782 -0.2400
 2189SOL    HW2 8522   3.564   4.132   3.743 -0.1957 -0.7803 -0.1938
 2189SOL    HW3 8523   3.610   4.197   3.614  0.4620 -0.9888 -0.0707
 2189SOL    MW4 8524   3.552   4.150   3.659  0.0843 -0.6590 -0.2116
 2190SOL     OW 8525   6.198   2.805   1.403 -0.3513  0.0219 -0.0840
 2190SOL    HW2 8526   6.266   2.867   1.431  0.1944  0.0334 -1.3949
 2190SOL    HW3 8527   6.120   2.860   1.388 -0.5880  0.0464  1.1364
 2190SOL    MW4 8528   6.197   2.821   1.405 -0.3106  0.0267 -0.0960
 2191SOL     OW 8529   1.147   6.142   1.332  0.1633  0.4025  0.2820
 2191SOL    HW2 8530   1.231   6.187   1.332 -0.0941  0.9039  1.1986
 2191SOL    HW3 8531   1.168   6.050   1.351  0.4224  0.7110  1.5832
 2191SOL    MW4 8532   1.160   6.136   1.334  0.1635  0.5094  0.5746
 2192SOL     OW 8533   0.068   4.650   0.855 -0.4406  0.4470  0.1452
 2192SOL    HW2 8534   0.044   4.673   0.945 -0.5712 -0.7033  0.4133
 2192SOL    HW3 8535  -0.016   4.638   0.811 -0.4263 -1.7828  0.6186
 2192SOL    MW4 8536   0.054   4.652   0.861 -0.4560  0.0010  0.2430
 2193SOL     OW 8537   3.844   2.797   1.899  0.3554 -0.3637 -0.0759
 2193SOL    HW2 8538   3.856   2.712   1.856  0.1571 -0.6416  0.4088
 2193SOL    HW3 8539   3.766   2.786   1.953  1.7270 -0.7094  1.9882
 2193SOL    MW4 8540   3.836   2.785   1.901  0.5102 -0.4460  0.2604
 2194SOL     OW 8541   2.995   1.510   3.248 -0.0011  0.0523 -0.1968
 2194SOL    HW2 8542   2.916   1.501   3.301 -0.6513  0.0564 -1.1550
 2194SOL    HW3 8543   2.964   1.520   3.158  1.1104 -1.2087 -0.7619
 2194SOL    MW4 8544   2.980   1.510   3.243  0.0597 -0.1135 -0.3978
 2195SOL     OW 8545   4.336   2.932   5.578 -0.3029  0.1802  0.0044
 2195SOL    HW2 8546   4.257   2.982   5.594  1.2612  2.7310  0.3256
 2195SOL    HW3 8547   4.366   2.906   5.665 -0.0235  0.5153  0.0119
 2195SOL    MW4 8548   4.330   2.935   5.592 -0.0597  0.5610  0.0478
 2196SOL     OW 8549   4.037   1.743   5.681 -0.0741  0.2022 -0.0828
 2196SOL    HW2 8550   4.088   1.684   5.625  0.7399  0.2898  0.5500
 2196SOL    HW3 8551   4.057   1.831   5.648 -0.4289  0.1941 -0.3261
 2196SOL    MW4 8552   4.047   1.747   5.669 -0.0135  0.2127 -0.0314
 2197SOL     OW 8553   5.326   3.554   1.163  0.2083  0.0094  0.4984
 2197SOL    HW2 8554   5.287   3.543   1.076 -0.3718  0.7131  0.6592
 2197SOL    HW3 8555   5.411   3.596   1.146  0.5994 -0.8733  0.2005
 2197SOL    MW4 8556   5.332   3.558   1.149  0.1834 -0.0142  0.4803
 2198SOL     OW 8557   4.770   3.950   5.005 -0.3500  0.2059  0.1549
 2198SOL    HW2 8558   4.859   3.916   5.019  0.0006  0.9957 -0.0713
 2198SOL    HW3 8559   4.750   3.927   4.914 -0.0356  0.7653 -0.0598
 2198SOL    MW4 8560   4.779   3.943   4.995 -0.2623  0.3839  0.0967
 2199SOL     OW 8561   3.820   6.115   0.393 -0.1229 -0.1547  0.4238
 2199SOL    HW2 8562   3.861   6.054   0.454 -0.6020 -1.5547 -0.6135
 2199SOL    HW3 8563   3.735   6.136   0.433  0.1831  0.1180  0.9428
 2199SOL    MW4 8564   3.814   6.110   0.406 -0.1457 -0.3034  0.3554
 2200SOL     OW 8565   1.511   1.754   0.728  0.3981 -0.5581 -0.3734
 2200SOL    HW2 8566   1.442   1.693   0.751 -1.1062  0.9486 -0.6672
 2200SOL    HW3 8567   1.568   1.756   0.805  0.0852 -1.7631 -0.0908
 2200SOL    MW4 8568   1.510   1.747   0.742  0.1584 -0.5183 -0.3749
 2201SOL     OW 8569   4.286   0.512   1.594  0.4540 -0.2861  0.3254
 2201SOL    HW2 8570   4.370   0.500   1.550  1.4185 -1.1457  2.2810
 2201SOL    HW3 8571   4.277   0.607   1.603  0.5449 -0.1253 -1.0613
 2201SOL    MW4 8572   4.296   0.523   1.590  0.5932 -0.3783  0.4004
 2202SOL     OW 8573   6.005   5.910   2.798  0.7384  0.2975 -0.4426
 2202SOL    HW2 8574   6.008   5.814   2.791  0.6592  0.3476 -1.2330
 2202SOL    HW3 8575   5.913   5.932   2.784  0.0763  0.2917  2.9518
 2202SOL    MW4 8576   5.993   5.900   2.795  0.6406  0.3033 -0.0990
 2203SOL     OW 8577   1.287   0.194   2.525 -0.4287 -0.2735  0.4991
 2203SOL    HW2 8578   1.257   0.151   2.445  1.6841  0.0510 -0.5198
 2203SOL    HW3 8579   1.329   0.275   2.496  0.9391 -0.4390  1.8639
 2203SOL    MW4 8580   1.288   0.199   2.511  0.0305 -0.2526  0.5448
 2204SOL     OW 8581   2.734   4.762   0.290  0.6788 -0.3290  0.1032
 2204SOL    HW2 8582   2.722   4.790   0.380 -0.0287 -3.0679  0.9744
 2204SOL    HW3 8583   2.698   4.833   0.237 -1.1518  0.3180  2.0753
 2204SOL    MW4 8584   2.727   4.775   0.295  0.3440 -0.6050  0.4784
 2205SOL     OW 8585   4.514   5.595   4.716 -0.1373 -0.5104  0.1186
 2205SOL    HW2 8586   4.596   5.572   4.672 -0.7060 -1.2588 -0.5699
 2205SOL    HW3 8587   4.528   5.567   4.807  1.1619  1.3578  0.5629
 2205SOL    MW4 8588   4.527   5.588   4.722 -0.0409 -0.3626  0.0863
 2206SOL     OW 8589   3.903   4.769   5.698  0.3961  0.1998 -0.0543
 2206SOL    HW2 8590   3.934   4.848   5.653  0.2240  0.0013 -0.5287
 2206SOL    HW3 8591   3.815   4.792   5.727  0.5582  0.3755  0.3090
 2206SOL    MW4 8592   3.895   4.783   5.696  0.3948  0.1968 -0.0690
 2207SOL     OW 8593   4.172   0.443   0.467  0.0022  0.4976  0.1413
 2207SOL    HW2 8594   4.132   0.525   0.439 -3.1287 -0.9761 -0.2004
 2207SOL    HW3 8595   4.126   0.421   0.548 -0.1698 -1.5002 -0.4410
 2207SOL    MW4 8596   4.161   0.451   0.474 -0.4336  0.0396  0.0194
 2208SOL     OW 8597   2.909   5.582   1.380 -0.0234 -0.5321  0.2447
 2208SOL    HW2 8598   2.864   5.653   1.426  1.0558 -0.5021  1.2970
 2208SOL    HW3 8599   2.859   5.570   1.299 -0.2820  1.3616  0.0915
 2208SOL    MW4 8600   2.897   5.590   1.375  0.0849 -0.2783  0.3633
 2209SOL     OW 8601   0.767   2.856   2.684  0.3865  0.1824  0.1945
 2209SOL    HW2 8602   0.686   2.845   2.733  0.8922  1.0723  1.2632
 2209SOL    HW3 8603   0.801   2.767   2.674 -0.7488 -0.2047 -0.3374
 2209SOL    MW4 8604   0.761   2.842   2.689  0.3035  0.2488  0.2654
 2210SOL     OW 8605   2.037   4.043   2.322  0.4510  0.1477  0.5787
 2210SOL    HW2 8606   2.016   4.053   2.230 -0.8204 -0.0428  0.8252
 2210SOL    HW3 8607   2.039   3.948   2.336  1.3119  0.1630  0.6126
 2210SOL    MW4 8608   2.034   4.032   2.312  0.3968  0.1246  0.6157
 2211SOL     OW 8609   3.659   6.275   1.992  0.0030  0.3707  0.6053
 2211SOL    HW2 8610   3.660   6.217   2.068  0.5126  0.1921  0.4696
 2211SOL    HW3 8611   3.746   6.315   1.991 -0.4467  1.3718  0.8626
 2211SOL    MW4 8612   3.671   6.272   2.002  0.0109  0.4792  0.6214
 2212SOL     OW 8613   0.621   3.344   0.398 -0.4022  0.6088  0.5510
 2212SOL    HW2 8614   0.663   3.344   0.484 -1.1960 -0.5805  0.9587
 2212SOL    HW3 8615   0.528   3.356   0.416 -0.5636  0.4909 -0.1482
 2212SOL    MW4 8616   0.614   3.346   0.411 -0.5282  0.4364  0.5125
 2213SOL     OW 8617   0.547   6.082   5.110 -0.1423  0.0905 -0.0248
 2213SOL    HW2 8618   0.482   6.030   5.157  0.5525 -0.8408 -0.0619
 2213SOL    HW3 8619   0.511   6.094   5.023 -0.2473 -0.4433 -0.0546
 2213SOL    MW4 8620   0.534   6.077   5.105 -0.0645 -0.1028 -0.0336
 2214SOL     OW 8621   4.659   0.393   3.175  0.1062 -0.2894  0.3674
 2214SOL    HW2 8622   4.751   0.411   3.155 -0.1266  0.1403 -0.3675
 2214SOL    HW3 8623   4.658   0.374   3.269  0.8072  0.6106  0.5707
 2214SOL    MW4 8624   4.671   0.393   3.185  0.1680 -0.1140  0.2973
 2215SOL     OW 8625   5.125   3.845   1.052  0.0138 -0.6334 -0.0495
 2215SOL    HW2 8626   5.044   3.895   1.042  0.5613  0.0559 -1.1880
 2215SOL    HW3 8627   5.096   3.755   1.063 -0.9057 -0.5502 -1.4902
 2215SOL    MW4 8628   5.111   3.840   1.052 -0.0353 -0.5314 -0.3898
 2216SOL     OW 8629   5.327   1.684   2.859 -0.1123 -0.0535  0.2677
 2216SOL    HW2 8630   5.330   1.775   2.887  1.0353  0.4229 -1.2823
 2216SOL    HW3 8631   5.313   1.635   2.940 -1.2748  1.5003  1.0645
 2216SOL    MW4 8632   5.326   1.689   2.873 -0.1142  0.2144  0.1683
 2217SOL     OW 8633   6.306   5.760   4.228  0.0585 -0.3912  0.1505
 2217SOL    HW2 8634   6.224   5.809   4.229  0.5109  0.4023 -0.1593
 2217SOL    HW3 8635   6.335   5.761   4.319  0.9063  1.4333 -0.0850
 2217SOL    MW4 8636   6.299   5.767   4.240  0.2300 -0.0458  0.0785
 2218SOL     OW 8637   5.059   2.747   2.987 -0.4048 -0.2599  0.0297
 2218SOL    HW2 8638   5.112   2.670   2.967 -0.2103 -0.0379 -0.3218
 2218SOL    HW3 8639   5.076   2.764   3.080 -1.6269 -1.5423  0.5227
 2218SOL    MW4 8640   5.068   2.739   2.997 -0.5404 -0.3998  0.0484
 2219SOL     OW 8641   5.767   2.627   3.587  0.0321  0.1785 -0.4071
 2219SOL    HW2 8642   5.857   2.603   3.565  0.3441  0.9416  0.0129
 2219SOL    HW3 8643   5.740   2.685   3.516 -0.3474 -0.5119 -0.8462
 2219SOL    MW4 8644   5.775   2.631   3.575  0.0232  0.1881 -0.4096
 2220SOL     OW 8645   5.564   0.515   2.868 -0.3251 -0.2226  0.8188
 2220SOL    HW2 8646   5.643   0.471   2.837 -1.4439 -0.8811 -1.2316
 2220SOL    HW3 8647   5.566   0.602   2.827 -0.6855 -0.2434  0.7546
 2220SOL    MW4 8648   5.575   0.521   2.859 -0.5203 -0.3122  0.5398
 2221SOL     OW 8649   6.265   3.549   1.801  0.3083  0.1597 -0.2753
 2221SOL    HW2 8650   6.241   3.496   1.724  0.1778 -0.2095  0.0148
 2221SOL    HW3 8651   6.194   3.534   1.863 -0.3286  1.5904 -0.6165
 2221SOL    MW4 8652   6.252   3.540   1.799  0.2071  0.2998 -0.2821
 2222SOL     OW 8653   6.315   1.206   1.796  0.6080  0.4074 -0.1967
 2222SOL    HW2 8654   6.350   1.153   1.724  0.8945  2.5074 -1.7196
 2222SOL    HW3 8655   6.385   1.207   1.862  0.1037 -2.0501  0.4717
 2222SOL    MW4 8656   6.329   1.199   1.795  0.5793  0.3602 -0.3094
 2223SOL     OW 8657   5.205   4.842   2.492  0.1056  0.2576  0.2177
 2223SOL    HW2 8658   5.118   4.849   2.530 -0.0401 -1.1406  0.2085
 2223SOL    HW3 8659   5.190   4.802   2.406  0.8237 -0.9910  0.6489
 2223SOL    MW4 8660   5.192   4.837   2.486  0.1811 -0.0916  0.2734
 2224SOL     OW 8661   1.620   0.050   0.253  0.5174 -0.0002  0.2563
 2224SOL    HW2 8662   1.566   0.121   0.220  0.2912 -0.3946 -0.2393
 2224SOL    HW3 8663   1.610  -0.020   0.188  0.0687 -0.7839  1.1457
 2224SOL    MW4 8664   1.612   0.050   0.240  0.4284 -0.1556  0.3083
 2225SOL     OW 8665   4.787   2.345   0.418  0.4092 -0.9511  0.3236
 2225SOL    HW2 8666   4.738   2.397   0.481 -0.6691 -3.0834  1.3555
 2225SOL    HW3 8667   4.747   2.366   0.333  0.0176 -0.1275  0.7007
 2225SOL    MW4 8668   4.775   2.355   0.415  0.2152 -1.1238  0.5095
 2226SOL     OW 8669   2.187   0.639   5.967  0.3379 -0.1557 -0.4731
 2226SOL    HW2 8670   2.174   0.568   5.904 -1.3884  0.0012 -0.3291
 2226SOL    HW3 8671   2.185   0.718   5.913 -0.0133 -0.0870 -0.3594
 2226SOL    MW4 8672   2.185   0.640   5.951  0.0638 -0.1259 -0.4391
 2227SOL     OW 8673   3.593   4.844   1.625 -0.3278 -0.1838  0.4263
 2227SOL    HW2 8674   3.632   4.906   1.563 -0.8419 -0.8383 -0.5958
 2227SOL    HW3 8675   3.499   4.864   1.623 -0.3794 -0.3872  0.7822
 2227SOL    MW4 8676   3.585   4.855   1.616 -0.4024 -0.2970  0.3384
 2228SOL     OW 8677   0.441   5.142   0.691 -0.6387  0.0709 -0.2663
 2228SOL    HW2 8678   0.416   5.056   0.656 -0.3859  0.2563 -0.9171
 2228SOL    HW3 8679   0.359   5.191   0.692 -0.3350  0.7631 -2.6417
 2228SOL    MW4 8680   0.427   5.137   0.686 -0.5653  0.1867 -0.6656
 2229SOL     OW 8681   1.418   6.061   4.904  0.0720  0.0289  0.0928
 2229SOL    HW2 8682   1.397   5.990   4.964 -0.6281  0.5451  0.4726
 2229SOL    HW3 8683   1.482   6.114   4.951  0.5765 -0.3317 -0.1807
 2229SOL    MW4 8684   1.424   6.059   4.918  0.0462  0.0494  0.1068
 2230SOL     OW 8685   0.435   0.711   3.541 -0.4086  0.0866 -0.3720
 2230SOL    HW2 8686   0.514   0.665   3.514  0.5676  0.7199  1.2696
 2230SOL    HW3 8687   0.466   0.779   3.600 -2.0919  1.0594 -0.5421
 2230SOL    MW4 8688   0.449   0.714   3.545 -0.5019  0.2985 -0.1778
 2231SOL     OW 8689   0.127   6.417   3.222 -0.2354  0.3142 -0.3156
 2231SOL    HW2 8690   0.059   6.484   3.220  1.2619  1.8991 -1.8435
 2231SOL    HW3 8691   0.139   6.398   3.315 -0.0068  2.9913  0.2958
 2231SOL    MW4 8692   0.120   6.423   3.234 -0.0077  0.8765 -0.4365
 2232SOL     OW 8693   1.355   1.611   1.679 -0.1770 -0.0807  0.4954
 2232SOL    HW2 8694   1.439   1.621   1.635 -0.7655  2.3991 -0.2325
 2232SOL    HW3 8695   1.365   1.658   1.761 -0.5797 -0.5841  0.8435
 2232SOL    MW4 8696   1.367   1.618   1.684 -0.3078  0.1801  0.4453
 2233SOL     OW 8697   5.101   0.615   3.737 -0.3215 -0.1019 -0.1712
 2233SOL    HW2 8698   5.103   0.639   3.644  3.1235  0.1148 -0.1755
 2233SOL    HW3 8699   5.170   0.549   3.746 -0.9718 -0.5396  2.1416
 2233SOL    MW4 8700   5.111   0.610   3.726  0.0472 -0.1311  0.1334
 2234SOL     OW 8701   1.948   3.086   5.498  0.9275  1.0687  0.4191
 2234SOL    HW2 8702   1.873   3.099   5.441  1.4173  1.3607 -0.1703
 2234SOL    HW3 8703   1.933   3.000   5.539 -0.2360  1.5877  1.1163
 2234SOL    MW4 8704   1.936   3.076   5.496  0.8386  1.1757  0.4333
 2235SOL     OW 8705   0.275   4.380   5.441 -0.5659 -0.3112  0.3133
 2235SOL    HW2 8706   0.327   4.380   5.360 -2.5406  1.5192 -1.0761
 2235SOL    HW3 8707   0.322   4.438   5.500 -1.4364  2.2174 -1.3096
 2235SOL    MW4 8708   0.288   4.387   5.438 -0.9413  0.2640 -0.0842
 2236SOL     OW 8709   0.898   3.074   1.741  0.3631 -0.3403 -0.1964
 2236SOL    HW2 8710   0.965   3.130   1.703  0.8652  0.1189  1.2901
 2236SOL    HW3 8711   0.823   3.082   1.683  0.6988  1.2583 -0.4427
 2236SOL    MW4 8712   0.897   3.082   1.729  0.4736 -0.0688 -0.0328
 2237SOL     OW 8713   1.612   3.524   2.533 -0.0494 -0.2028 -0.0724
 2237SOL    HW2 8714   1.593   3.436   2.566  0.3134 -0.0887  0.4449
 2237SOL    HW3 8715   1.700   3.517   2.495 -0.8268 -0.5766 -1.9161
 2237SOL    MW4 8716   1.621   3.511   2.532 -0.1041 -0.2371 -0.2474
 2238SOL     OW 8717   2.528   4.361   5.806  0.2213  0.4287 -0.1040
 2238SOL    HW2 8718   2.556   4.272   5.829 -0.4998  0.4666  1.0021
 2238SOL    HW3 8719   2.437   4.351   5.780 -0.0345  0.9054  0.5706
 2238SOL    MW4 8720   2.520   4.348   5.806  0.0924  0.4966  0.1310
 2239SOL     OW 8721   6.274   4.165   0.517 -0.1090  0.5696  0.3291
 2239SOL    HW2 8722   6.249   4.253   0.487  0.6010  0.9336  0.7807
 2239SOL    HW3 8723   6.196   4.133   0.562 -1.4977 -0.3238 -2.5157
 2239SOL    MW4 8724   6.260   4.173   0.519 -0.1985  0.4997  0.0134
 2240SOL     OW 8725   1.054   1.812   5.000  0.4536  0.2929 -0.0371
 2240SOL    HW2 8726   0.985   1.761   5.043  0.9970 -0.2412  0.2190
 2240SOL    HW3 8727   1.044   1.791   4.907 -0.4831  1.1552 -0.1411
 2240SOL    MW4 8728   1.044   1.802   4.993  0.4017  0.3362 -0.0170
 2241SOL     OW 8729   0.717   1.436   3.059  0.5617 -0.1606  0.1543
 2241SOL    HW2 8730   0.699   1.374   3.130  1.2026 -2.2980 -1.4227
 2241SOL    HW3 8731   0.660   1.406   2.988  1.8898  0.1966 -1.1005
 2241SOL    MW4 8732   0.707   1.424   3.059  0.8215 -0.3955 -0.2193
 2242SOL     OW 8733   5.937   2.946   5.008 -0.0711  0.0760 -0.0330
 2242SOL    HW2 8734   5.866   2.900   5.053  1.9605 -0.2829  3.1155
 2242SOL    HW3 8735   5.955   2.893   4.930 -1.8695 -0.9414  0.1969
 2242SOL    MW4 8736   5.930   2.933   5.004 -0.0403 -0.1056  0.4127
 2243SOL     OW 8737   0.668   4.625   4.234  0.2413 -0.1118  1.1199
 2243SOL    HW2 8738   0.718   4.678   4.172 -0.1766 -0.0438  0.8346
 2243SOL    HW3 8739   0.731   4.564   4.271 -0.0760 -2.4905 -1.8497
 2243SOL    MW4 8740   0.683   4.624   4.230  0.1443 -0.4167  0.6905
 2244SOL     OW 8741   1.858   5.625   3.467  0.1637  0.8089  0.4259
 2244SOL    HW2 8742   1.837   5.629   3.560  0.2442  0.5307  0.4573
 2244SOL    HW3 8743   1.944   5.583   3.464 -0.4259 -0.4415  0.1553
 2244SOL    MW4 8744   1.867   5.620   3.479  0.0965  0.6072  0.3943
 2245SOL     OW 8745   3.709   4.618   6.238  0.1602  0.5205 -0.1378
 2245SOL    HW2 8746   3.672   4.693   6.193  0.4603  0.3779 -0.6328
 2245SOL    HW3 8747   3.798   4.610   6.203 -0.2396 -0.7333 -0.9284
 2245SOL    MW4 8748   3.716   4.627   6.228  0.1470  0.3362 -0.3074
 2246SOL     OW 8749   6.308   4.159   4.589  0.5548  0.0681 -0.4414
 2246SOL    HW2 8750   6.384   4.159   4.531  1.2235 -0.4604  0.4104
 2246SOL    HW3 8751   6.339   4.199   4.670 -0.3330  0.6753 -0.3848
 2246SOL    MW4 8752   6.322   4.164   4.592  0.5259  0.0785 -0.3215
 2247SOL     OW 8753   0.029   0.309   5.537 -0.4780  0.0325 -0.3003
 2247SOL    HW2 8754  -0.043   0.370   5.555  0.0674  0.3903  0.7810
 2247SOL    HW3 8755   0.004   0.264   5.457 -0.7586  1.9132 -1.3146
 2247SOL    MW4 8756   0.016   0.311   5.529 -0.4431  0.3279 -0.2915
 2248SOL     OW 8757   1.791   2.256   0.505  0.2617 -0.8839 -0.5822
 2248SOL    HW2 8758   1.878   2.221   0.526  0.9733  1.0432 -0.1404
 2248SOL    HW3 8759   1.732   2.182   0.518  1.5840 -1.7200  1.0801
 2248SOL    MW4 8760   1.795   2.242   0.509  0.5301 -0.7400 -0.3046
 2249SOL     OW 8761   2.205   6.257   5.814 -0.1928  0.1117 -0.3292
 2249SOL    HW2 8762   2.251   6.178   5.840  1.6143  0.9169 -0.8921
 2249SOL    HW3 8763   2.262   6.297   5.748 -0.5879  2.3319  0.5853
 2249SOL    MW4 8764   2.219   6.252   5.809 -0.0065  0.5109 -0.2828
 2250SOL     OW 8765   0.214   3.367   6.046 -0.1064  0.3115  0.0166
 2250SOL    HW2 8766   0.200   3.454   6.083  1.6600  1.3863 -1.6476
 2250SOL    HW3 8767   0.236   3.312   6.121 -0.6906  1.4236  1.0307
 2250SOL    MW4 8768   0.215   3.371   6.061  0.0496  0.6000 -0.0692
 2251SOL     OW 8769   5.542   3.873   2.023  0.0217 -0.2707 -0.6120
 2251SOL    HW2 8770   5.448   3.856   2.029 -0.2458  1.1313 -0.4954
 2251SOL    HW3 8771   5.571   3.827   1.944 -0.6781 -1.0199 -0.4399
 2251SOL    MW4 8772   5.534   3.865   2.013 -0.1059 -0.1846 -0.5739
 2252SOL     OW 8773   6.262   3.123   4.523 -0.6100  0.2771  0.3676
 2252SOL    HW2 8774   6.212   3.192   4.480 -1.2882  0.0149  0.7234
 2252SOL    HW3 8775   6.330   3.099   4.460 -0.4088  1.2118  0.2127
 2252SOL    MW4 8776   6.265   3.129   4.509 -0.6729  0.3658  0.3941
 2253SOL     OW 8777   3.502   2.271   1.893  0.5549 -0.2557 -0.1755
 2253SOL    HW2 8778   3.498   2.318   1.976  0.1877  0.0044 -0.3368
 2253SOL    HW3 8779   3.515   2.179   1.918 -0.5043 -0.3104  0.2094
 2253SOL    MW4 8780   3.503   2.265   1.907  0.3667 -0.2286 -0.1460
 2254SOL     OW 8781   1.558   5.208   1.775  0.3185  0.0017 -0.5377
 2254SOL    HW2 8782   1.646   5.224   1.808  0.1690 -0.0265 -0.1211
 2254SOL    HW3 8783   1.542   5.281   1.715  0.2295  0.5843  0.1777
 2254SOL    MW4 8784   1.567   5.220   1.771  0.2870  0.0748 -0.3883
 2255SOL     OW 8785   5.782   6.252   0.829 -0.3743  0.3358 -0.3353
 2255SOL    HW2 8786   5.794   6.312   0.903  0.3004  1.6790 -1.5018
 2255SOL    HW3 8787   5.861   6.262   0.776 -1.1796 -0.0263 -1.6563
 2255SOL    MW4 8788   5.794   6.261   0.832 -0.3915  0.4652 -0.6635
 2256SOL     OW 8789   0.285   4.008   5.376 -0.5390 -0.1401  0.4513
 2256SOL    HW2 8790   0.254   4.065   5.305 -0.9215 -1.6004 -0.6112
 2256SOL    HW3 8791   0.240   4.040   5.454 -2.0118 -0.0115 -0.4183
 2256SOL    MW4 8792   0.275   4.020   5.377 -0.7838 -0.3158  0.1964
 2257SOL     OW 8793   4.955   6.033   5.800  0.6446  0.0630 -0.4389
 2257SOL    HW2 8794   4.979   6.079   5.881  0.1970  0.9839 -0.8220
 2257SOL    HW3 8795   4.896   5.963   5.828  1.7161 -0.6155  0.2077
 2257SOL    MW4 8796   4.951   6.030   5.814  0.7269  0.0949 -0.4041
 2258SOL     OW 8797   1.516   5.796   2.878  0.0394  0.9971  0.6734
 2258SOL    HW2 8798   1.534   5.805   2.972  1.3083  0.5984  0.4873
 2258SOL    HW3 8799   1.464   5.874   2.856 -0.2509  1.1026  1.6920
 2258SOL    MW4 8800   1.512   5.808   2.887  0.1685  0.9584  0.7832
 2259SOL     OW 8801   4.778   0.527   5.649  0.5800  0.7951  0.1772
 2259SOL    HW2 8802   4.705   0.525   5.588 -0.5330 -0.4360  1.4714
 2259SOL    HW3 8803   4.761   0.605   5.703 -0.2237  0.1041  0.9532
 2259SOL    MW4 8804   4.766   0.537   5.648  0.3271  0.5415  0.4503
 2260SOL     OW 8805   6.010   1.354   5.182 -0.4518  0.6014  0.0344
 2260SOL    HW2 8806   5.959   1.423   5.140 -1.9523 -0.6873 -0.3301
 2260SOL    HW3 8807   5.946   1.299   5.226  0.5291 -1.3327 -0.7968
 2260SOL    MW4 8808   5.995   1.356   5.182 -0.5203  0.1762 -0.1234
 2261SOL     OW 8809   4.314   4.322   0.339 -0.4504 -0.1180 -0.1448
 2261SOL    HW2 8810   4.289   4.265   0.266 -0.7294 -0.8264  0.4848
 2261SOL    HW3 8811   4.315   4.410   0.302  2.2211 -0.7077 -1.7311
 2261SOL    MW4 8812   4.311   4.326   0.325 -0.1347 -0.2893 -0.2710
 2262SOL     OW 8813   3.759   1.818   3.707 -0.0320 -0.2675  0.1319
 2262SOL    HW2 8814   3.714   1.830   3.623 -1.2013  0.6000  0.8418
 2262SOL    HW3 8815   3.804   1.901   3.722  2.0085 -1.1746 -0.6333
 2262SOL    MW4 8816   3.759   1.831   3.698  0.0829 -0.2727  0.1246
 2263SOL     OW 8817   3.133   2.259   2.492  0.1342 -0.6841 -0.6433
 2263SOL    HW2 8818   3.153   2.283   2.402 -0.7649  1.5376 -0.3128
 2263SOL    HW3 8819   3.071   2.325   2.521  0.6441 -1.1515  1.7208
 2263SOL    MW4 8820   3.128   2.271   2.484  0.0828 -0.4527 -0.2878
 2264SOL     OW 8821   0.797   2.808   1.476  0.1222  0.3306  0.0310
 2264SOL    HW2 8822   0.752   2.757   1.408  2.2564 -0.7475 -0.6605
 2264SOL    HW3 8823   0.864   2.857   1.428 -0.8668  2.6427  0.9005
 2264SOL    MW4 8824   0.800   2.808   1.461  0.2733  0.4934  0.0545
 2265SOL     OW 8825   4.337   5.323   3.636  0.7373 -0.3235  0.0349
 2265SOL    HW2 8826   4.352   5.285   3.550 -0.5905 -0.0664 -0.3233
 2265SOL    HW3 8827   4.243   5.317   3.649  0.9792 -0.8881  1.7275
 2265SOL    MW4 8828   4.327   5.317   3.626  0.5940 -0.3640  0.2110
 2266SOL     OW 8829   5.007   3.326   0.567 -0.3280  0.1916  0.0976
 2266SOL    HW2 8830   4.957   3.301   0.489 -2.1119 -0.6678  1.4306
 2266SOL    HW3 8831   5.000   3.421   0.571  0.9372  0.4016 -1.4665
 2266SOL    MW4 8832   4.999   3.335   0.557 -0.3964  0.1059  0.0671
 2267SOL     OW 8833   1.752   3.925   0.813  0.6746  0.0088 -0.3913
 2267SOL    HW2 8834   1.846   3.913   0.825  0.5515 -1.6666 -0.7315
 2267SOL    HW3 8835   1.742   4.013   0.777  2.1681 -0.0451 -0.9768
 2267SOL    MW4 8836   1.763   3.935   0.810  0.8554 -0.2193 -0.5134
 2268SOL     OW 8837   6.259   4.519   5.729 -0.3429  0.4276 -0.3824
 2268SOL    HW2 8838   6.353   4.513   5.712 -0.3863  2.6094 -1.7243
 2268SOL    HW3 8839   6.251   4.587   5.796 -0.8600 -1.4467  1.5596
 2268SOL    MW4 8840   6.271   4.527   5.736 -0.4168  0.4681 -0.3033
 2269SOL     OW 8841   4.302   4.516   3.805  0.0314 -0.3794  1.0466
 2269SOL    HW2 8842   4.265   4.599   3.776 -1.1037 -0.8940  0.9646
 2269SOL    HW3 8843   4.254   4.495   3.885 -1.6658 -2.2487 -0.3521
 2269SOL    MW4 8844   4.291   4.524   3.812 -0.3423 -0.6939  0.8512
 2270SOL     OW 8845   5.965   3.209   5.797 -0.4900 -0.1019  0.3473
 2270SOL    HW2 8846   6.027   3.281   5.791 -0.4651 -0.1246  0.3308
 2270SOL    HW3 8847   5.992   3.161   5.875  0.1223 -0.6806 -0.2008
 2270SOL    MW4 8848   5.977   3.212   5.807 -0.4059 -0.1812  0.2728
 2271SOL     OW 8849   5.848   0.807   4.060  0.2133 -0.7651  0.2831
 2271SOL    HW2 8850   5.917   0.756   4.017  0.9129  0.5183 -0.1913
 2271SOL    HW3 8851   5.885   0.828   4.146 -0.5453 -1.9940  0.9433
 2271SOL    MW4 8852   5.862   0.803   4.066  0.2055 -0.7579  0.3076
 2272SOL     OW 8853   3.027   5.295   0.682  0.0196 -0.0244  0.0240
 2272SOL    HW2 8854   3.035   5.200   0.675 -0.1632 -0.1193  0.9152
 2272SOL    HW3 8855   2.980   5.321   0.603 -1.0730 -0.8426  0.3776
 2272SOL    MW4 8856   3.022   5.286   0.671 -0.1486 -0.1449  0.1882
 2273SOL     OW 8857   5.278   2.156   2.586  0.9824  0.1663 -0.6244
 2273SOL    HW2 8858   5.270   2.194   2.498  0.1789  0.0489 -0.6060
 2273SOL    HW3 8859   5.349   2.092   2.577 -0.0830 -0.9290 -1.5884
 2273SOL    MW4 8860   5.286   2.152   2.573  0.7358  0.0063 -0.7491
 2274SOL     OW 8861   2.563   3.165   5.792  0.1676 -0.0570  0.1423
 2274SOL    HW2 8862   2.586   3.112   5.716  0.5010  2.9599 -2.0581
 2274SOL    HW3 8863   2.629   3.235   5.792 -1.6974  1.7989  1.2742
 2274SOL    MW4 8864   2.575   3.167   5.782 -0.0345  0.5859  0.0013
 2275SOL     OW 8865   1.529   3.171   5.683 -0.4084  0.2699  0.3334
 2275SOL    HW2 8866   1.600   3.129   5.731  0.4572  0.2290 -0.9237
 2275SOL    HW3 8867   1.572   3.239   5.631 -0.8585 -1.3824 -2.4032
 2275SOL    MW4 8868   1.544   3.175   5.683 -0.3536  0.0465 -0.1935
 2276SOL     OW 8869   1.804   1.273   6.076 -0.2417 -0.0469  0.2317
 2276SOL    HW2 8870   1.827   1.183   6.098  1.0061  0.3932  0.8431
 2276SOL    HW3 8871   1.879   1.305   6.026 -1.0311  0.4097 -0.7008
 2276SOL    MW4 8872   1.817   1.266   6.072 -0.1812  0.0714  0.1893
 2277SOL     OW 8873   0.804   5.616   0.759 -0.1927 -0.2790 -0.0897
 2277SOL    HW2 8874   0.729   5.593   0.813 -0.8859 -0.6198 -1.1588
 2277SOL    HW3 8875   0.767   5.671   0.689 -0.2263 -3.4787 -2.8415
 2277SOL    MW4 8876   0.789   5.621   0.757 -0.2886 -0.7461 -0.5938
 2278SOL     OW 8877   0.904   0.939   5.707 -0.1898  0.1521  0.4099
 2278SOL    HW2 8878   0.942   0.865   5.754  0.2401  0.2513  0.2326
 2278SOL    HW3 8879   0.861   0.901   5.631  1.1520  0.1796 -0.3933
 2278SOL    MW4 8880   0.904   0.925   5.703  0.0439  0.1688  0.2806
 2279SOL     OW 8881   4.532   3.716   4.226  0.0117 -0.2957 -0.5302
 2279SOL    HW2 8882   4.470   3.780   4.260 -0.7757 -1.8505  1.0892
 2279SOL    HW3 8883   4.616   3.741   4.265 -0.0960  0.2560 -0.6371
 2279SOL    MW4 8884   4.535   3.728   4.235 -0.1064 -0.4281 -0.3306
 2280SOL     OW 8885   5.453   2.414   4.981  0.1988 -0.5590 -0.4292
 2280SOL    HW2 8886   5.358   2.402   4.993 -0.0923  0.7461 -1.2172
 2280SOL    HW3 8887   5.485   2.328   4.955 -0.9714 -0.7677 -1.2571
 2280SOL    MW4 8888   5.444   2.401   4.979  0.0060 -0.4143 -0.6424
 2281SOL     OW 8889   1.287   3.487   3.589 -0.1591  0.1461  0.0363
 2281SOL    HW2 8890   1.297   3.465   3.682  0.4608 -1.2299 -0.3345
 2281SOL    HW3 8891   1.372   3.523   3.564 -0.5025  1.0545  0.1104
 2281SOL    MW4 8892   1.300   3.489   3.598 -0.1227  0.0844 -0.0028
 2282SOL     OW 8893   4.921   4.869   2.556 -0.2952  0.2581 -0.0817
 2282SOL    HW2 8894   4.896   4.954   2.593 -2.5295 -0.0891 -0.6672
 2282SOL    HW3 8895   4.846   4.812   2.572  1.2547 -1.7275  0.5193
 2282SOL    MW4 8896   4.908   4.873   2.563 -0.3855 -0.0497 -0.0796
 2283SOL     OW 8897   6.203   6.411   4.997 -0.0172 -0.3977 -0.5011
 2283SOL    HW2 8898   6.147   6.379   4.927 -0.3101 -0.9291 -0.0325
 2283SOL    HW3 8899   6.157   6.389   5.078 -0.6420  1.9090 -0.1416
 2283SOL    MW4 8900   6.190   6.404   4.999 -0.1383 -0.1635 -0.3919
 2284SOL     OW 8901   0.490   4.430   4.778  0.2118  0.2465  0.8191
 2284SOL    HW2 8902   0.541   4.447   4.857  1.8213  0.7131 -0.2668
 2284SOL    HW3 8903   0.531   4.485   4.711  0.1610 -1.5886 -0.8176
 2284SOL    MW4 8904   0.502   4.440   4.780  0.4174  0.0659  0.4599
 2285SOL     OW 8905   2.314   4.950   3.607  0.1532 -0.0671 -0.6100
 2285SOL    HW2 8906   2.229   4.932   3.645  1.4705 -1.2257  2.0716
 2285SOL    HW3 8907   2.345   4.865   3.576  1.3272 -0.1892  0.7867
 2285SOL    MW4 8908   2.307   4.937   3.608  0.4819 -0.2361 -0.0719
 2286SOL     OW 8909   3.650   3.144   3.866 -0.0755  0.4613  0.2580
 2286SOL    HW2 8910   3.713   3.120   3.934 -1.7747  0.0546  1.7489
 2286SOL    HW3 8911   3.568   3.104   3.894 -1.0468  1.0634 -1.5788
 2286SOL    MW4 8912   3.648   3.136   3.879 -0.4279  0.4871  0.2123
 2287SOL     OW 8913   5.991   1.996   0.957  0.2261 -0.3597  0.0307
 2287SOL    HW2 8914   6.082   2.001   0.987  0.5035 -1.0553 -0.6557
 2287SOL    HW3 8915   5.980   1.904   0.930 -0.9556 -0.5157  0.9707
 2287SOL    MW4 8916   6.001   1.984   0.957  0.1068 -0.4721  0.0642
 2288SOL     OW 8917   3.133   4.444   5.101  0.0712 -0.5938 -0.1726
 2288SOL    HW2 8918   3.154   4.531   5.069  1.1937  0.2439  2.5858
 2288SOL    HW3 8919   3.067   4.411   5.040 -1.9555  2.9898 -0.1708
 2288SOL    MW4 8920   3.127   4.451   5.089 -0.0481 -0.0105  0.1916
 2289SOL     OW 8921   4.970   2.649   1.676 -0.0048  0.4077 -0.3378
 2289SOL    HW2 8922   5.032   2.640   1.748 -0.3945 -1.0638 -0.1463
 2289SOL    HW3 8923   4.886   2.664   1.719 -0.0448  0.7179 -0.5266
 2289SOL    MW4 8924   4.967   2.650   1.691 -0.0615  0.2545 -0.3375
 2290SOL     OW 8925   6.300   4.195   3.059  0.0116 -0.2769  0.2557
 2290SOL    HW2 8926   6.391   4.165   3.058  0.9363  2.2394  0.2340
 2290SOL    HW3 8927   6.284   4.226   2.969 -0.3301  0.6644  0.6259
 2290SOL    MW4 8928   6.310   4.195   3.047  0.0885  0.1793  0.3017
 2291SOL     OW 8929   4.309   1.481   2.175  0.5111 -0.1999  0.4712
 2291SOL    HW2 8930   4.309   1.566   2.131 -2.2169 -0.9327 -1.1903
 2291SOL    HW3 8931   4.246   1.492   2.246 -1.0151 -1.1729 -0.6723
 2291SOL    MW4 8932   4.300   1.494   2.178 -0.0502 -0.4250  0.1011
 2292SOL     OW 8933   1.254   1.225   5.039 -0.2241 -0.0371 -0.0402
 2292SOL    HW2 8934   1.316   1.244   5.109  0.7064 -1.9207 -0.2763
 2292SOL    HW3 8935   1.176   1.193   5.084 -0.6195  1.2249  0.2085
 2292SOL    MW4 8936   1.252   1.223   5.054 -0.1535 -0.1191 -0.0385
 2293SOL     OW 8937   5.612   0.205   0.381  0.1537 -0.7359  0.3431
 2293SOL    HW2 8938   5.661   0.285   0.366 -0.0273 -0.4517  1.2260
 2293SOL    HW3 8939   5.583   0.178   0.294 -2.7981  2.0539  0.2729
 2293SOL    MW4 8940   5.615   0.212   0.368 -0.2596 -0.3303  0.4503
 2294SOL     OW 8941   2.024   4.230   5.892 -0.1133 -0.5698  0.8165
 2294SOL    HW2 8942   1.985   4.241   5.978  0.8898 -1.7655  1.4612
 2294SOL    HW3 8943   2.060   4.141   5.893 -0.6299 -0.8513 -1.0628
 2294SOL    MW4 8944   2.024   4.220   5.903 -0.0491 -0.7647  0.6536
 2295SOL     OW 8945   4.861   5.987   1.655  0.1656  0.3965 -0.0784
 2295SOL    HW2 8946   4.866   5.992   1.560 -0.2340  0.3636 -0.1020
 2295SOL    HW3 8947   4.917   5.913   1.678 -1.6081 -1.1449 -0.4833
 2295SOL    MW4 8948   4.869   5.978   1.646 -0.1212  0.1888 -0.1349
 2296SOL     OW 8949   0.408   5.071   3.701  0.3415  0.0574 -0.0016
 2296SOL    HW2 8950   0.440   5.109   3.784  1.1980  2.1169 -1.1820
 2296SOL    HW3 8951   0.314   5.087   3.702  0.2253 -0.5953  0.8710
 2296SOL    MW4 8952   0.400   5.078   3.712  0.4392  0.2430 -0.0422
 2297SOL     OW 8953   2.510   4.204   1.845 -0.5551 -0.2928 -0.7297
 2297SOL    HW2 8954   2.416   4.218   1.857 -0.4063 -1.1522  1.9410
 2297SOL    HW3 8955   2.550   4.252   1.917  1.0508 -0.3030 -1.5889
 2297SOL    MW4 8956   2.503   4.212   1.856 -0.3236 -0.4075 -0.4907
 2298SOL     OW 8957   2.581   1.558   5.953 -0.2646 -0.6342  0.1249
 2298SOL    HW2 8958   2.554   1.613   5.880 -0.1179 -1.0813 -0.2669
 2298SOL    HW3 8959   2.549   1.604   6.031 -0.7849 -0.3702 -0.2429
 2298SOL    MW4 8960   2.573   1.571   5.954 -0.3139 -0.6584  0.0247
 2299SOL     OW 8961   4.971   1.407   4.290  0.3306  0.0835 -0.0105
 2299SOL    HW2 8962   4.880   1.386   4.311  0.7859 -0.4300  1.5902
 2299SOL    HW3 8963   5.008   1.324   4.259  0.6389 -0.0981  0.8197
 2299SOL    MW4 8964   4.964   1.393   4.289  0.4313 -0.0082  0.3103
 2300SOL     OW 8965   2.788   5.941   1.043  0.1450  0.1368 -0.4200
 2300SOL    HW2 8966   2.747   5.887   0.976 -1.8609 -1.0235  1.6182
 2300SOL    HW3 8967   2.881   5.917   1.041 -0.4400 -2.2751 -0.6040
 2300SOL    MW4 8968   2.795   5.931   1.034 -0.1968 -0.3345 -0.1753
 2301SOL     OW 8969   5.224   0.455   5.870 -0.2978  0.2625  0.4274
 2301SOL    HW2 8970   5.274   0.381   5.905 -1.3577 -0.5525  0.2869
 2301SOL    HW3 8971   5.272   0.481   5.792 -0.0494 -0.4589  0.3295
 2301SOL    MW4 8972   5.237   0.449   5.864 -0.4049  0.0598  0.3960
 2302SOL     OW 8973   1.758   2.964   0.019  0.4072 -0.0597  0.4828
 2302SOL    HW2 8974   1.739   3.006  -0.065 -0.4773  0.0952  0.7544
 2302SOL    HW3 8975   1.816   2.892  -0.003  0.2858  0.0624 -0.2504
 2302SOL    MW4 8976   1.763   2.960   0.005  0.2745 -0.0232  0.4219
 2303SOL     OW 8977   3.591   1.693   3.040  0.5471  0.1151 -0.0429
 2303SOL    HW2 8978   3.685   1.709   3.032  0.4031  1.5962  0.9489
 2303SOL    HW3 8979   3.581   1.644   3.121  0.6649 -2.4482 -1.4658
 2303SOL    MW4 8980   3.602   1.688   3.049  0.5436 -0.0277 -0.0998
 2304SOL     OW 8981   5.894   2.297   4.467 -0.4389 -0.1389 -0.7412
 2304SOL    HW2 8982   5.817   2.350   4.486  0.9221  0.8825  2.6863
 2304SOL    HW3 8983   5.962   2.331   4.526  1.5881 -3.3124 -0.9949
 2304SOL    MW4 8984   5.893   2.308   4.478  0.0081 -0.4228 -0.3224
 2305SOL     OW 8985   4.062   0.320   4.838 -0.8468 -0.0997 -0.3722
 2305SOL    HW2 8986   4.111   0.246   4.802  1.1229  1.9095 -2.1486
 2305SOL    HW3 8987   3.977   0.315   4.795 -0.8865 -1.5339 -0.1665
 2305SOL    MW4 8988   4.058   0.309   4.827 -0.5922 -0.0238 -0.5795
 2306SOL     OW 8989   4.197   1.444   4.576  0.1280  0.0941  0.7244
 2306SOL    HW2 8990   4.239   1.361   4.555  0.4435  0.2198  0.8549
 2306SOL    HW3 8991   4.151   1.468   4.495 -0.9660 -0.7898  1.0572
 2306SOL    MW4 8992   4.197   1.436   4.562  0.0253 -0.0060  0.7855
 2307SOL     OW 8993   6.158   0.100   5.428  0.1068 -0.6266  0.1240
 2307SOL    HW2 8994   6.121   0.188   5.439 -0.1064 -0.5343 -1.1293
 2307SOL    HW3 8995   6.170   0.068   5.517 -1.2860  0.0665  0.6040
 2307SOL    MW4 8996   6.154   0.108   5.441 -0.1051 -0.5230  0.0220
 2308SOL     OW 8997   1.334   3.520   0.006  0.4516 -0.3987 -0.2962
 2308SOL    HW2 8998   1.401   3.563  -0.047  0.1067 -0.1808 -0.5526
 2308SOL    HW3 8999   1.384   3.463   0.065  0.9096  0.3017  0.0066
 2308SOL    MW4 9000   1.349   3.518   0.007  0.4665 -0.2776 -0.2901
 2309SOL     OW 9001   0.418   0.007   0.642  0.6688  0.2312 -0.1146
 2309SOL    HW2 9002   0.463  -0.052   0.581 -0.9741 -0.4857 -0.6753
 2309SOL    HW3 9003   0.482   0.076   0.659  1.4142  0.1278 -2.1752
 2309SOL    MW4 9004   0.433   0.009   0.636  0.5504  0.1229 -0.4604
 2310SOL     OW 9005   0.496   4.512   0.924  0.4773 -1.1629  0.1691
 2310SOL    HW2 9006   0.452   4.591   0.891  0.1085 -1.7694 -0.8318
 2310SOL    HW3 9007   0.580   4.512   0.879  1.4978 -0.0675  1.9952
 2310SOL    MW4 9008   0.501   4.522   0.913  0.5633 -1.0984  0.2780
 2311SOL     OW 9009   4.598   4.524   3.319 -0.1766  0.2893  0.5918
 2311SOL    HW2 9010   4.538   4.451   3.330 -1.5364  1.2090 -0.3429
 2311SOL    HW3 9011   4.651   4.524   3.399  0.6596 -2.3662  0.1527
 2311SOL    MW4 9012   4.597   4.514   3.331 -0.2457  0.0603  0.4105
 2312SOL     OW 9013   3.981   2.151   5.152 -0.0269  0.3099 -0.1829
 2312SOL    HW2 9014   3.990   2.221   5.217 -0.2827  2.1030 -1.9614
 2312SOL    HW3 9015   4.042   2.083   5.182 -0.7516  0.6600  2.3372
 2312SOL    MW4 9016   3.991   2.151   5.165 -0.1563  0.5927 -0.0850
 2313SOL     OW 9017   4.691   5.286   3.744 -0.1046 -0.3417  0.1530
 2313SOL    HW2 9018   4.730   5.314   3.827  0.2220  0.2094 -0.1826
 2313SOL    HW3 9019   4.597   5.282   3.762 -0.0707  0.1297  0.4477
 2313SOL    MW4 9020   4.684   5.289   3.758 -0.0571 -0.2068  0.1476
 2314SOL     OW 9021   2.174   0.082   6.133  0.6612 -0.2316 -0.3135
 2314SOL    HW2 9022   2.235   0.153   6.152  1.7830 -1.0777 -0.6731
 2314SOL    HW3 9023   2.087   0.119   6.151  1.3945  0.0021  3.5522
 2314SOL    MW4 9024   2.170   0.096   6.138  0.9060 -0.3124  0.1491
 2315SOL     OW 9025   1.455   4.436   0.672 -0.4243 -0.0039 -0.6283
 2315SOL    HW2 9026   1.382   4.376   0.689 -1.0078  0.8276 -0.1562
 2315SOL    HW3 9027   1.497   4.447   0.757  0.7569 -1.0853 -1.0317
 2315SOL    MW4 9028   1.451   4.429   0.685 -0.3454 -0.0369 -0.6192
 2316SOL     OW 9029   2.176   0.205   0.667 -0.6352 -0.1370  0.1679
 2316SOL    HW2 9030   2.263   0.233   0.694 -0.8457 -0.7193  1.5456
 2316SOL    HW3 9031   2.167   0.238   0.577  0.0699  2.0183  0.8165
 2316SOL    MW4 9032   2.186   0.213   0.658 -0.5699  0.0705  0.4352
 2317SOL     OW 9033   6.185   4.465   4.307 -0.2474 -0.0510  0.4532
 2317SOL    HW2 9034   6.105   4.419   4.333 -1.0346  0.7832 -0.4152
 2317SOL    HW3 9035   6.243   4.396   4.274 -0.8999 -0.5808  0.4029
 2317SOL    MW4 9036   6.182   4.450   4.306 -0.4373 -0.0108  0.3320
 2318SOL     OW 9037   1.802   4.763   4.958 -0.7065 -0.1718  0.3715
 2318SOL    HW2 9038   1.813   4.767   5.053  1.0724 -2.3122  0.3392
 2318SOL    HW3 9039   1.886   4.789   4.922 -0.6378 -1.5026 -0.5214
 2318SOL    MW4 9040   1.814   4.767   4.966 -0.4627 -0.6298  0.2494
 2319SOL     OW 9041   0.641   4.500   5.788 -0.0079 -0.7516 -0.1983
 2319SOL    HW2 9042   0.614   4.414   5.820 -1.5663  0.2556  1.4076
 2319SOL    HW3 9043   0.621   4.559   5.861  0.3745  1.0706 -1.5099
 2319SOL    MW4 9044   0.635   4.496   5.802 -0.1630 -0.3783 -0.1595
 2320SOL     OW 9045   0.767   4.120   0.413  1.2552 -0.2231  0.3060
 2320SOL    HW2 9046   0.700   4.124   0.345 -0.4917 -0.8919  1.8945
 2320SOL    HW3 9047   0.805   4.032   0.405  0.1802 -0.7689  0.9252
 2320SOL    MW4 9048   0.763   4.109   0.403  0.8829 -0.3833  0.5973
 2321SOL     OW 9049   5.900   1.098   2.672  0.5169  0.0191  0.4268
 2321SOL    HW2 9050   5.926   1.006   2.685  0.6071 -0.0697 -0.3246
 2321SOL    HW3 9051   5.835   1.114   2.741 -2.6386 -1.8985 -1.8291
 2321SOL    MW4 9052   5.895   1.088   2.683  0.1125 -0.2456  0.0300
 2322SOL     OW 9053   2.085   6.311   2.438  0.2426 -0.0073  0.4382
 2322SOL    HW2 9054   2.116   6.387   2.487 -0.7366  2.5834 -2.6240
 2322SOL    HW3 9055   2.163   6.255   2.428  1.3802  1.3297  1.4798
 2322SOL    MW4 9056   2.100   6.313   2.443  0.2635  0.5109  0.1716
 2323SOL     OW 9057   1.756   0.877   0.005  0.2473 -0.1459 -0.5233
 2323SOL    HW2 9058   1.753   0.965  -0.033  1.0562  0.2775  0.3514
 2323SOL    HW3 9059   1.803   0.889   0.088 -0.8423 -1.1630  0.2641
 2323SOL    MW4 9060   1.762   0.890   0.011  0.2103 -0.2242 -0.3040
 2324SOL     OW 9061   3.482   4.072   4.815  0.0258 -0.5536  0.5518
 2324SOL    HW2 9062   3.449   4.131   4.748  0.4848 -0.8487  0.0539
 2324SOL    HW3 9063   3.456   4.112   4.898 -2.5896 -1.3426  0.2014
 2324SOL    MW4 9064   3.474   4.085   4.817 -0.2587 -0.6966  0.4399
 2325SOL     OW 9065   2.182   5.451   1.871  0.1705 -0.3847  0.0741
 2325SOL    HW2 9066   2.227   5.388   1.927  0.8418  0.7127  0.7957
 2325SOL    HW3 9067   2.165   5.526   1.928  2.0331  1.3199 -1.4631
 2325SOL    MW4 9068   2.185   5.453   1.886  0.5048 -0.0150 -0.0335
 2326SOL     OW 9069   0.702   3.854   0.019 -0.4689 -0.1307 -0.5414
 2326SOL    HW2 9070   0.694   3.780   0.078 -1.3701  0.9214  0.7212
 2326SOL    HW3 9071   0.774   3.906   0.053  0.0086 -0.2904 -1.2807
 2326SOL    MW4 9072   0.710   3.851   0.031 -0.5248 -0.0130 -0.4723
 2327SOL     OW 9073   3.458   0.085   1.146 -0.2449 -0.0809  0.2296
 2327SOL    HW2 9074   3.469  -0.005   1.115 -1.5573 -0.3641  0.5238
 2327SOL    HW3 9075   3.379   0.115   1.101  0.2450  0.9812  0.0444
 2327SOL    MW4 9076   3.449   0.077   1.136 -0.3534  0.0218  0.2439
 2328SOL     OW 9077   2.456   1.486   2.163 -0.2585  0.7848 -0.4519
 2328SOL    HW2 9078   2.544   1.465   2.131  0.2673  1.1472  0.7018
 2328SOL    HW3 9079   2.449   1.581   2.155 -0.7265  0.7160 -0.9496
 2328SOL    MW4 9080   2.466   1.496   2.157 -0.2509  0.8235 -0.3654
 2329SOL     OW 9081   2.725   2.551   0.987 -0.3961 -0.1259 -0.2991
 2329SOL    HW2 9082   2.821   2.551   0.989 -0.3836  1.2950  0.5868
 2329SOL    HW3 9083   2.702   2.469   0.944  1.2136 -0.5574 -0.4066
 2329SOL    MW4 9084   2.734   2.540   0.981 -0.1821  0.0047 -0.1964
 2330SOL     OW 9085   5.329   0.959   0.629 -0.4752 -0.4236 -0.1150
 2330SOL    HW2 9086   5.248   0.950   0.680 -1.4267  0.5335 -1.3931
 2330SOL    HW3 9087   5.345   0.871   0.594 -1.6752 -0.3688 -0.8510
 2330SOL    MW4 9088   5.320   0.946   0.631 -0.7590 -0.2901 -0.3807
 2331SOL     OW 9089   3.141   5.838   1.785 -0.3952 -0.4248  0.6177
 2331SOL    HW2 9090   3.225   5.880   1.805 -0.6026  0.2558  0.1123
 2331SOL    HW3 9091   3.164   5.750   1.758 -0.0214 -1.0678  2.8001
 2331SOL    MW4 9092   3.155   5.832   1.784 -0.3732 -0.4198  0.8389
 2332SOL     OW 9093   1.310   3.950   3.999  0.7471  0.2563 -0.0420
 2332SOL    HW2 9094   1.291   4.004   3.922  1.1647 -1.7718 -1.6592
 2332SOL    HW3 9095   1.402   3.969   4.018  0.5366  1.0542  0.2019
 2332SOL    MW4 9096   1.320   3.960   3.991  0.7744  0.0940 -0.2232
 2333SOL     OW 9097   0.591   5.756   5.543  0.3165 -0.6280 -0.5380
 2333SOL    HW2 9098   0.551   5.675   5.512 -0.1941  0.0446 -1.6823
 2333SOL    HW3 9099   0.646   5.785   5.471  0.4203  0.0964 -0.1760
 2333SOL    MW4 9100   0.593   5.749   5.530  0.2629 -0.4437 -0.6412
 2334SOL     OW 9101   6.413   1.755   5.848 -0.6050 -0.2758  0.5649
 2334SOL    HW2 9102   6.396   1.665   5.875 -2.4007 -0.8049 -1.9437
 2334SOL    HW3 9103   6.505   1.755   5.821 -0.5340 -1.3196  0.7909
 2334SOL    MW4 9104   6.423   1.743   5.848 -0.8325 -0.4833  0.2638
 2335SOL     OW 9105   5.785   5.430   1.645 -0.2701  0.0032 -0.5974
 2335SOL    HW2 9106   5.845   5.356   1.652 -1.2981 -0.9212 -1.1567
 2335SOL    HW3 9107   5.835   5.497   1.599  0.9551 -0.0222  0.6431
 2335SOL    MW4 9108   5.799   5.429   1.640 -0.2441 -0.1221 -0.5075
 2336SOL     OW 9109   2.842   0.919   4.757  0.2868 -0.2502 -0.1293
 2336SOL    HW2 9110   2.751   0.903   4.732 -0.0468 -0.7616  1.3036
 2336SOL    HW3 9111   2.880   0.832   4.766  0.2279 -0.1328  1.5998
 2336SOL    MW4 9112   2.835   0.906   4.755  0.2350 -0.3022  0.2879
 2337SOL     OW 9113   1.654   5.180   0.708  0.0321 -0.1280 -0.7087
 2337SOL    HW2 9114   1.563   5.156   0.691  0.1142 -0.9747  0.0067
 2337SOL    HW3 9115   1.661   5.270   0.677 -1.5073  0.5501  0.7295
 2337SOL    MW4 9116   1.643   5.189   0.702 -0.1602 -0.1503 -0.4245
 2338SOL     OW 9117   3.312   2.151   4.937  0.7190  0.2854  0.1068
 2338SOL    HW2 9118   3.368   2.147   5.014 -1.4687 -1.9376  1.7730
 2338SOL    HW3 9119   3.325   2.067   4.894 -1.0587 -0.2000  0.4211
 2338SOL    MW4 9120   3.321   2.139   4.942  0.1958 -0.0720  0.3681
 2339SOL     OW 9121   1.782   4.362   3.805  0.2546  0.0069 -0.4042
 2339SOL    HW2 9122   1.846   4.384   3.873 -0.8727  2.3148  0.0169
 2339SOL    HW3 9123   1.715   4.312   3.852  0.4814 -0.2035 -0.2964
 2339SOL    MW4 9124   1.782   4.358   3.820  0.1358  0.2837 -0.3344
 2340SOL     OW 9125   5.229   1.676   5.377 -0.7055 -0.4251  0.2649
 2340SOL    HW2 9126   5.155   1.666   5.436  0.2746  0.0515  1.6452
 2340SOL    HW3 9127   5.190   1.689   5.290 -2.2359  0.4206  1.0413
 2340SOL    MW4 9128   5.214   1.677   5.373 -0.7781 -0.2506  0.5494
 2341SOL     OW 9129   4.476   2.287   4.523  0.3931 -0.1336  0.1015
 2341SOL    HW2 9130   4.418   2.346   4.570 -1.5239 -0.4348 -1.7455
 2341SOL    HW3 9131   4.449   2.199   4.552  1.7285 -0.2355  1.1582
 2341SOL    MW4 9132   4.465   2.283   4.533  0.3163 -0.1868 -0.0027
 2342SOL     OW 9133   2.786   5.021   2.860 -0.6943  0.3853 -0.2126
 2342SOL    HW2 9134   2.842   4.944   2.850  1.6355  1.5504  2.4847
 2342SOL    HW3 9135   2.736   5.003   2.940 -1.5453  0.9263 -0.6060
 2342SOL    MW4 9136   2.786   5.008   2.869 -0.4992  0.6104  0.0914
 2343SOL     OW 9137   4.541   0.077   0.206  0.5154 -0.1924  0.1929
 2343SOL    HW2 9138   4.447   0.077   0.190  0.7858 -0.9277 -1.5719
 2343SOL    HW3 9139   4.554   0.005   0.268 -0.2939  1.2344  2.0991
 2343SOL    MW4 9140   4.530   0.067   0.212  0.4443 -0.1012  0.2115
 2344SOL     OW 9141   1.981   2.242   4.962  0.2259  0.0503  0.1231
 2344SOL    HW2 9142   1.965   2.323   5.011 -2.9908 -0.5065  0.2500
 2344SOL    HW3 9143   1.944   2.259   4.876 -0.4700 -1.2386  0.1438
 2344SOL    MW4 9144   1.974   2.255   4.957 -0.2903 -0.1932  0.1426
 2345SOL     OW 9145   5.865   0.487   0.166 -0.0539  0.3282  0.0463
 2345SOL    HW2 9146   5.846   0.472   0.073 -0.4350  0.1810  0.1430
 2345SOL    HW3 9147   5.931   0.556   0.166  1.4336 -1.0212 -0.3962
 2345SOL    MW4 9148   5.871   0.494   0.153  0.0921  0.1308  0.0007
 2346SOL     OW 9149   2.852   3.693   3.520 -0.2354  0.1936 -0.4365
 2346SOL    HW2 9150   2.933   3.725   3.481  0.0230  0.0061 -0.0553
 2346SOL    HW3 9151   2.847   3.738   3.605 -1.3932  1.5157 -1.1553
 2346SOL    MW4 9152   2.862   3.703   3.526 -0.3541  0.3433 -0.4810
 2347SOL     OW 9153   4.839   1.055   2.180 -0.0693 -0.2433 -0.2199
 2347SOL    HW2 9154   4.758   1.010   2.202  0.0016 -0.7800 -0.9878
 2347SOL    HW3 9155   4.812   1.134   2.134 -0.1669 -0.4296 -0.4882
 2347SOL    MW4 9156   4.825   1.059   2.177 -0.0728 -0.3386 -0.3566
 2348SOL     OW 9157   5.891   2.879   4.721 -0.0459  0.7244  0.1823
 2348SOL    HW2 9158   5.951   2.952   4.704 -0.1947  0.8522  0.2071
 2348SOL    HW3 9159   5.804   2.917   4.708 -0.1567  0.7696  1.0278
 2348SOL    MW4 9160   5.887   2.894   4.717 -0.0801  0.7472  0.2971
 2349SOL     OW 9161   2.967   1.124   5.827  0.0713  0.7116 -0.8181
 2349SOL    HW2 9162   2.998   1.145   5.739  1.3912 -0.7174 -0.7318
 2349SOL    HW3 9163   3.041   1.142   5.884 -0.2096  0.0392 -0.2234
 2349SOL    MW4 9164   2.981   1.129   5.823  0.2084  0.4344 -0.7283
 2350SOL     OW 9165   6.168   2.180   2.276 -0.7259 -0.0728 -1.0013
 2350SOL    HW2 9166   6.215   2.129   2.211  3.2882  0.0091  1.5101
 2350SOL    HW3 9167   6.148   2.118   2.346  0.4363  0.8942  0.2432
 2350SOL    MW4 9168   6.171   2.165   2.277 -0.0430  0.0656 -0.5058
 2351SOL     OW 9169   2.902   2.852   2.413 -0.3007 -0.2574 -0.3204
 2351SOL    HW2 9170   2.967   2.914   2.380  0.8319 -0.9769  0.5150
 2351SOL    HW3 9171   2.844   2.905   2.468  0.4476  0.1341  0.1073
 2351SOL    MW4 9172   2.903   2.867   2.416 -0.0526 -0.3007 -0.1538
 2352SOL     OW 9173   0.510   2.483   5.290 -0.1047  0.2042  0.3447
 2352SOL    HW2 9174   0.605   2.469   5.287 -0.1673 -0.2034  0.2614
 2352SOL    HW3 9175   0.493   2.514   5.379  0.2969  1.6671 -0.0684
 2352SOL    MW4 9176   0.521   2.485   5.301 -0.0600  0.3434  0.2792
 2353SOL     OW 9177   4.705   0.080   4.595  0.6980 -0.3658  0.3214
 2353SOL    HW2 9178   4.672   0.124   4.673  0.1000 -1.2308  0.5796
 2353SOL    HW3 9179   4.796   0.107   4.589  0.3730  0.8411  0.4927
 2353SOL    MW4 9180   4.712   0.089   4.604  0.5762 -0.3207  0.3780
 2354SOL     OW 9181   5.247   1.135   3.514  0.1461  0.1263  0.3807
 2354SOL    HW2 9182   5.328   1.104   3.554  0.8772 -0.7288 -1.6495
 2354SOL    HW3 9183   5.263   1.228   3.497  0.7626 -0.0600 -0.0987
 2354SOL    MW4 9184   5.260   1.143   3.517  0.3239 -0.0111  0.0496
 2355SOL     OW 9185   0.638   6.149   4.686  0.0847 -0.3962 -0.1084
 2355SOL    HW2 9186   0.583   6.222   4.658 -1.0878 -1.6488 -1.2634
 2355SOL    HW3 9187   0.679   6.118   4.604  1.5657 -0.2554  0.5514
 2355SOL    MW4 9188   0.637   6.155   4.671  0.1254 -0.5429 -0.1737
 2356SOL     OW 9189   3.548   6.051   6.178 -0.1211 -0.2436 -0.1141
 2356SOL    HW2 9190   3.466   6.012   6.209  0.9348 -0.4092  2.8546
 2356SOL    HW3 9191   3.614   6.020   6.241  1.5381  2.7866 -0.1748
 2356SOL    MW4 9192   3.546   6.042   6.191  0.2372  0.1344  0.2696
 2357SOL     OW 9193   1.544   3.080   3.421 -0.2156 -0.1840 -0.3472
 2357SOL    HW2 9194   1.637   3.092   3.407 -0.6863  1.1415 -3.0203
 2357SOL    HW3 9195   1.535   2.987   3.442  1.7269 -0.2069  0.5769
 2357SOL    MW4 9196   1.555   3.069   3.422 -0.0214 -0.0121 -0.5779
 2358SOL     OW 9197   5.696   5.456   1.146 -0.2229 -0.0035  0.2606
 2358SOL    HW2 9198   5.688   5.551   1.148 -0.9153 -0.0028 -1.3148
 2358SOL    HW3 9199   5.608   5.424   1.167 -0.4424 -0.2567 -0.9963
 2358SOL    MW4 9200   5.683   5.464   1.149 -0.3432 -0.0368 -0.1131
 2359SOL     OW 9201   0.875   5.850   1.825  0.0254  0.1743 -0.0641
 2359SOL    HW2 9202   0.878   5.900   1.743  1.6861  1.5829  0.7917
 2359SOL    HW3 9203   0.945   5.785   1.817  1.1510  1.2289  0.7267
 2359SOL    MW4 9204   0.885   5.848   1.813  0.3930  0.4993  0.1532
 2360SOL     OW 9205   0.670   0.868   4.012  0.2096 -0.2739 -0.1669
 2360SOL    HW2 9206   0.741   0.918   4.053  0.4335 -1.1745  0.5783
 2360SOL    HW3 9207   0.683   0.882   3.918 -0.4366  1.9918  0.0314
 2360SOL    MW4 9208   0.681   0.877   4.005  0.1539 -0.0938 -0.0424
 2361SOL     OW 9209   3.481   0.050   5.804  0.4972  0.6996 -0.0493
 2361SOL    HW2 9210   3.496   0.003   5.722 -1.1184  1.0142 -0.5737
 2361SOL    HW3 9211   3.408   0.004   5.845 -0.9353  2.4867 -0.4413
 2361SOL    MW4 9212   3.473   0.038   5.799  0.0951  0.9769 -0.1702
 2362SOL     OW 9213   3.502   4.053   1.268  0.6084 -0.2410  0.1612
 2362SOL    HW2 9214   3.463   4.055   1.356  0.1145 -0.8660 -0.0372
 2362SOL    HW3 9215   3.462   4.127   1.223 -0.6429 -1.0727 -0.1478
 2362SOL    MW4 9216   3.492   4.063   1.274  0.3782 -0.4332  0.0943
 2363SOL     OW 9217   3.325   6.362   2.809  0.0643 -0.1806 -0.4856
 2363SOL    HW2 9218   3.252   6.376   2.869  0.6647 -0.9753  0.4668
 2363SOL    HW3 9219   3.396   6.414   2.846  0.2525 -0.1580 -0.8819
 2363SOL    MW4 9220   3.324   6.370   2.822  0.1684 -0.2825 -0.4122
 2364SOL     OW 9221   2.271   5.764   2.883 -0.4564  0.8823  0.2486
 2364SOL    HW2 9222   2.221   5.798   2.957  1.3383  2.1936  0.9391
 2364SOL    HW3 9223   2.345   5.825   2.874  1.1406 -1.0520 -0.5661
 2364SOL    MW4 9224   2.274   5.776   2.892 -0.0089  0.8001  0.2322
 2365SOL     OW 9225   1.892   1.852   3.484  0.1769  0.1797  0.3089
 2365SOL    HW2 9226   1.859   1.887   3.567  0.5720  0.3303  0.4061
 2365SOL    HW3 9227   1.826   1.788   3.457 -0.9304  1.4830 -0.2244
 2365SOL    MW4 9228   1.879   1.848   3.491  0.0830  0.3716  0.2513
 2366SOL     OW 9229   1.643   3.745   4.071 -0.0365 -0.6161  0.1901
 2366SOL    HW2 9230   1.622   3.838   4.078  1.4236 -0.1707 -0.8433
 2366SOL    HW3 9231   1.732   3.737   4.107 -0.1907 -1.6438  0.3959
 2366SOL    MW4 9232   1.652   3.756   4.077  0.1358 -0.6929  0.0810
 2367SOL     OW 9233   1.693   3.684   3.769  0.5492  0.3714 -0.1315
 2367SOL    HW2 9234   1.747   3.605   3.758 -1.3220 -1.2536  1.5217
 2367SOL    HW3 9235   1.693   3.699   3.864  0.4608  2.0985 -0.3787
 2367SOL    MW4 9236   1.700   3.675   3.780  0.2907  0.3849  0.0540
 2368SOL     OW 9237   3.005   0.023   2.167 -0.2683 -0.0011 -0.5373
 2368SOL    HW2 9238   3.041  -0.058   2.133 -0.7512  0.5303 -2.4366
 2368SOL    HW3 9239   3.081   0.074   2.194  0.2002 -0.1106 -1.6284
 2368SOL    MW4 9240   3.020   0.019   2.166 -0.2702  0.0546 -0.9319
 2369SOL     OW 9241   4.521   5.890   3.094  0.0576  0.0822 -0.4185
 2369SOL    HW2 9242   4.527   5.909   3.188 -0.7052 -1.7096  0.0426
 2369SOL    HW3 9243   4.456   5.820   3.088  1.3500 -1.0674 -2.0980
 2369SOL    MW4 9244   4.513   5.883   3.106  0.1275 -0.3059 -0.5792
 2370SOL     OW 9245   2.954   3.583   5.331 -0.0318 -0.5206 -0.4861
 2370SOL    HW2 9246   2.986   3.670   5.355 -0.1730 -0.8114  0.8193
 2370SOL    HW3 9247   2.913   3.549   5.411 -0.2530 -1.6700 -1.0595
 2370SOL    MW4 9248   2.953   3.590   5.345 -0.0797 -0.7106 -0.3895
 2371SOL     OW 9249   5.349   5.352   6.372  0.2684 -0.6435 -0.0470
 2371SOL    HW2 9250   5.289   5.331   6.444 -0.7273  2.4386  0.1757
 2371SOL    HW3 9251   5.313   5.305   6.296 -0.6508 -1.2264  0.7272
 2371SOL    MW4 9252   5.336   5.343   6.371  0.0158 -0.3137  0.0845
 2372SOL     OW 9253   3.829   0.496   3.170 -0.1209 -0.3979  0.1934
 2372SOL    HW2 9254   3.784   0.470   3.090  0.6173  1.2161 -0.8061
 2372SOL    HW3 9255   3.803   0.587   3.184  2.3488  0.4576 -0.1605
 2372SOL    MW4 9256   3.820   0.504   3.161  0.3023 -0.0721  0.0148
 2373SOL     OW 9257   5.196   5.557   0.345 -0.0807 -0.5795  0.3929
 2373SOL    HW2 9258   5.190   5.484   0.407 -1.3889 -1.6644 -0.9536
 2373SOL    HW3 9259   5.124   5.615   0.370  1.0619  0.3908  1.5707
 2373SOL    MW4 9260   5.185   5.555   0.357 -0.1026 -0.5946  0.3706
 2374SOL     OW 9261   0.612   2.735   2.411 -0.1827  0.0008  0.2961
 2374SOL    HW2 9262   0.634   2.702   2.324  0.6546  1.3246 -0.0224
 2374SOL    HW3 9263   0.681   2.701   2.468 -0.3159 -0.2510  0.3094
 2374SOL    MW4 9264   0.624   2.726   2.407 -0.0898  0.1422  0.2559
 2375SOL     OW 9265   3.963   3.228   1.398 -0.7027 -0.1139  0.3366
 2375SOL    HW2 9266   4.044   3.181   1.377 -0.1052  1.2129 -0.4514
 2375SOL    HW3 9267   3.985   3.280   1.475 -0.7136  0.4390 -0.0268
 2375SOL    MW4 9268   3.977   3.228   1.405 -0.6253  0.1341  0.1847
 2376SOL     OW 9269   4.318   3.229   1.179  0.9654  0.3655 -0.5106
 2376SOL    HW2 9270   4.259   3.227   1.104 -0.1372  3.3479  0.1504
 2376SOL    HW3 9271   4.399   3.188   1.147  0.2478  0.7367 -3.0249
 2376SOL    MW4 9272   4.321   3.223   1.165  0.7252  0.8079 -0.7551
 2377SOL     OW 9273   3.813   0.565   5.384  0.3990 -0.3095  0.1712
 2377SOL    HW2 9274   3.776   0.496   5.438  1.2200  0.4530  1.7568
 2377SOL    HW3 9275   3.822   0.640   5.442 -1.2291  1.4589 -1.6824
 2377SOL    MW4 9276   3.809   0.566   5.398  0.2925  0.0245  0.1358
 2378SOL     OW 9277   4.531   1.815   3.788  0.2026  0.2701 -0.1620
 2378SOL    HW2 9278   4.520   1.891   3.731 -2.7749  0.7826  0.9137
 2378SOL    HW3 9279   4.444   1.799   3.824  1.2762 -2.0647  1.6882
 2378SOL    MW4 9280   4.518   1.823   3.785 -0.0486  0.0297  0.2240
 2379SOL     OW 9281   4.262   3.608   5.453 -0.0646  0.3272  0.0496
 2379SOL    HW2 9282   4.239   3.537   5.514 -0.0567  0.7113  0.5067
 2379SOL    HW3 9283   4.356   3.596   5.438 -0.2343 -0.2914 -0.5770
 2379SOL    MW4 9284   4.272   3.597   5.459 -0.0859  0.2962  0.0273
 2380SOL     OW 9285   5.885   4.658   2.594 -0.1461  0.2438 -0.0776
 2380SOL    HW2 9286   5.807   4.658   2.538 -0.0589  0.8272 -0.2108
 2380SOL    HW3 9287   5.957   4.636   2.534 -0.2957 -0.9793  0.1840
 2380SOL    MW4 9288   5.884   4.655   2.578 -0.1544  0.1594 -0.0606
 2381SOL     OW 9289   4.035   3.109   5.054  0.3033  0.5150 -0.4651
 2381SOL    HW2 9290   4.048   3.029   5.107 -0.2073  1.0431  0.4893
 2381SOL    HW3 9291   3.947   3.138   5.078  0.5509  1.4551 -0.6838
 2381SOL    MW4 9292   4.025   3.102   5.064  0.2686  0.7087 -0.3681
 2382SOL     OW 9293   2.626   2.458   2.626  0.7218 -0.1508  0.4729
 2382SOL    HW2 9294   2.538   2.421   2.619  0.8358 -0.2513 -0.6996
 2382SOL    HW3 9295   2.675   2.395   2.679  0.7656 -1.4744 -1.0340
 2382SOL    MW4 9296   2.621   2.445   2.632  0.7426 -0.3387  0.1194
 2383SOL     OW 9297   3.563   6.173   0.507 -0.4875  0.4098 -0.0613
 2383SOL    HW2 9298   3.540   6.251   0.556  0.2073  1.7843 -1.8379
 2383SOL    HW3 9299   3.502   6.106   0.538 -0.0188  1.1228  2.7354
 2383SOL    MW4 9300   3.552   6.174   0.518 -0.3340  0.6852  0.0733
 2384SOL     OW 9301   0.261   0.296   2.833  0.3069 -0.8803  0.4896
 2384SOL    HW2 9302   0.220   0.325   2.752 -0.0445  1.2165  1.3314
 2384SOL    HW3 9303   0.355   0.302   2.817  0.3770 -3.9960 -0.8722
 2384SOL    MW4 9304   0.268   0.301   2.820  0.2698 -1.0147  0.4210
 2385SOL     OW 9305   4.386   2.518   3.498 -0.4264  0.1074 -0.2485
 2385SOL    HW2 9306   4.389   2.540   3.591 -2.9480 -1.1339  0.2174
 2385SOL    HW3 9307   4.311   2.567   3.464 -1.8846 -2.2669 -0.7030
 2385SOL    MW4 9308   4.377   2.527   3.506 -0.9515 -0.3696 -0.2470
 2386SOL     OW 9309   4.026   0.296   0.672  0.1132 -0.2751 -0.0481
 2386SOL    HW2 9310   4.094   0.255   0.726  1.5581 -1.3965 -2.5439
 2386SOL    HW3 9311   4.036   0.256   0.586 -1.6614  1.8647 -1.3658
 2386SOL    MW4 9312   4.036   0.285   0.668  0.0697 -0.1408 -0.5513
 2387SOL     OW 9313   6.232   2.570   0.539  0.7237 -0.0983  0.1692
 2387SOL    HW2 9314   6.238   2.475   0.551 -0.7333  0.0375  2.7435
 2387SOL    HW3 9315   6.164   2.582   0.473 -0.8663 -0.8767  1.5918
 2387SOL    MW4 9316   6.224   2.559   0.532  0.3217 -0.1831  0.6966
 2388SOL     OW 9317   4.792   3.563   4.526 -0.3750 -0.9068 -0.7962
 2388SOL    HW2 9318   4.816   3.478   4.488  0.9848 -0.6235 -0.6253
 2388SOL    HW3 9319   4.785   3.622   4.451  0.2465 -0.8217 -0.7935
 2388SOL    MW4 9320   4.794   3.559   4.511 -0.1136 -0.8582 -0.7733
 2389SOL     OW 9321   1.100   3.337   2.439  0.3275 -0.3261 -0.3918
 2389SOL    HW2 9322   1.189   3.303   2.432  0.4108  0.1202 -1.6592
 2389SOL    HW3 9323   1.044   3.260   2.439  0.7614 -0.7373  2.2606
 2389SOL    MW4 9324   1.105   3.322   2.438  0.3957 -0.3214 -0.2090
 2390SOL     OW 9325   4.465   2.513   6.168  0.0959  0.0815 -0.0812
 2390SOL    HW2 9326   4.439   2.583   6.228  0.1593 -0.1343  0.2020
 2390SOL    HW3 9327   4.500   2.445   6.225  1.2748  0.3529 -0.4472
 2390SOL    MW4 9328   4.466   2.513   6.183  0.2598  0.0888 -0.0921
 2391SOL     OW 9329   4.087   3.999   4.024 -0.0625  0.1349  0.4754
 2391SOL    HW2 9330   4.066   4.054   3.949 -2.1720  1.0991  1.6817
 2391SOL    HW3 9331   4.133   3.924   3.987 -0.5274  0.8562 -1.6871
 2391SOL    MW4 9332   4.090   3.997   4.009 -0.4022  0.3573  0.3492
 2392SOL     OW 9333   3.616   3.284   5.651 -0.0760 -0.1103  0.7532
 2392SOL    HW2 9334   3.552   3.271   5.581  0.7211 -2.2611  0.3614
 2392SOL    HW3 9335   3.571   3.255   5.730 -0.2625  0.3254  0.8103
 2392SOL    MW4 9336   3.602   3.279   5.652  0.0045 -0.3366  0.7090
 2393SOL     OW 9337   3.976   3.317   2.492 -0.1034  0.1156  0.1529
 2393SOL    HW2 9338   3.884   3.312   2.466 -0.0026  0.8520 -0.3792
 2393SOL    HW3 9339   3.973   3.329   2.587 -0.5133 -1.1807  0.3188
 2393SOL    MW4 9340   3.963   3.318   2.501 -0.1442  0.0417  0.1046
 2394SOL     OW 9341   4.146   3.209   0.955 -0.0278 -0.4582  0.1272
 2394SOL    HW2 9342   4.051   3.208   0.942  0.2332  0.9126 -2.7423
 2394SOL    HW3 9343   4.174   3.120   0.930 -0.6148 -1.3727  2.4803
 2394SOL    MW4 9344   4.137   3.197   0.950 -0.0708 -0.3980  0.0591
 2395SOL     OW 9345   4.843   5.041   0.036 -0.2362 -0.1242 -0.2746
 2395SOL    HW2 9346   4.863   5.134   0.028 -1.4559  0.3409  1.4055
 2395SOL    HW3 9347   4.774   5.026  -0.028 -1.2480  0.5640  0.6241
 2395SOL    MW4 9348   4.837   5.052   0.027 -0.5306  0.0280  0.0657
 2396SOL     OW 9349   2.867   1.540   3.501 -0.7168  0.2201 -0.3682
 2396SOL    HW2 9350   2.957   1.521   3.528 -0.7789  0.3672 -0.0526
 2396SOL    HW3 9351   2.815   1.470   3.541 -0.6604 -0.2770 -1.1404
 2396SOL    MW4 9352   2.872   1.528   3.510 -0.7176  0.1739 -0.4284
 2397SOL     OW 9353   0.425   0.393   4.164  0.5668 -0.3935 -0.5925
 2397SOL    HW2 9354   0.439   0.466   4.104 -1.2792 -0.9073 -1.7253
 2397SOL    HW3 9355   0.477   0.322   4.128 -0.3495 -0.6296 -1.4966
 2397SOL    MW4 9356   0.434   0.394   4.152  0.2023 -0.4925 -0.8613
 2398SOL     OW 9357   1.387   2.427   2.792 -0.0640 -0.2819  0.2799
 2398SOL    HW2 9358   1.337   2.509   2.798 -0.7270 -0.7833  3.0218
 2398SOL    HW3 9359   1.323   2.358   2.806  0.3915 -1.4250 -2.5468
 2398SOL    MW4 9360   1.372   2.429   2.795 -0.0914 -0.4989  0.2687
 2399SOL     OW 9361   5.777   6.420   1.559 -0.1560 -0.0901  0.0593
 2399SOL    HW2 9362   5.820   6.382   1.636  1.1041  0.0420 -0.5475
 2399SOL    HW3 9363   5.849   6.451   1.505 -0.9542 -1.3217 -1.7814
 2399SOL    MW4 9364   5.792   6.419   1.562 -0.0950 -0.2351 -0.2636
 2400SOL     OW 9365   3.414   4.061   3.339 -0.4118  0.1513 -0.2423
 2400SOL    HW2 9366   3.510   4.072   3.343 -0.3644 -0.5130  1.8797
 2400SOL    HW3 9367   3.382   4.146   3.309  0.8759  0.0366 -2.1265
 2400SOL    MW4 9368   3.423   4.074   3.336 -0.2356  0.0485 -0.2109
 2401SOL     OW 9369   6.067   1.614   1.874 -0.2924  0.0773  0.0750
 2401SOL    HW2 9370   6.056   1.691   1.819 -1.3415 -0.3442 -0.3379
 2401SOL    HW3 9371   5.984   1.566   1.865 -0.6556  0.1818  2.2931
 2401SOL    MW4 9372   6.054   1.618   1.866 -0.4788  0.0355  0.3132
 2402SOL     OW 9373   5.155   5.558   4.345 -0.1156  0.2180  0.0119
 2402SOL    HW2 9374   5.234   5.508   4.325  0.4976  1.2210 -0.1243
 2402SOL    HW3 9375   5.141   5.544   4.439  0.3542  0.2064  0.0833
 2402SOL    MW4 9376   5.163   5.550   4.355  0.0273  0.3488  0.0034
 2403SOL     OW 9377   5.818   4.302   1.555 -0.3333  0.3179  0.3313
 2403SOL    HW2 9378   5.853   4.354   1.628 -1.2525  1.0338  0.2758
 2403SOL    HW3 9379   5.754   4.244   1.595  1.0157 -1.1359  0.4605
 2403SOL    MW4 9380   5.815   4.302   1.570 -0.2766  0.2206  0.3410
 2404SOL     OW 9381   5.668   3.742   1.766 -0.0154  0.1471 -0.0324
 2404SOL    HW2 9382   5.631   3.691   1.694 -0.5538 -1.0642  1.0703
 2404SOL    HW3 9383   5.724   3.807   1.722 -1.3981  0.3488 -1.6094
 2404SOL    MW4 9384   5.671   3.744   1.750 -0.2689  0.0139 -0.0950
 2405SOL     OW 9385   2.104   6.221   0.570 -0.2096  0.1004  0.0550
 2405SOL    HW2 9386   2.115   6.246   0.479 -0.8000  0.1286 -0.0148
 2405SOL    HW3 9387   2.162   6.146   0.583 -2.0479 -1.6208 -1.0619
 2405SOL    MW4 9388   2.113   6.215   0.560 -0.5300 -0.1230 -0.1016
 2406SOL     OW 9389   5.298   4.291   2.864 -0.3516  0.2927 -0.0274
 2406SOL    HW2 9390   5.299   4.212   2.810  0.0777 -0.5997  1.2483
 2406SOL    HW3 9391   5.343   4.357   2.811  0.6528 -0.7448 -0.4924
 2406SOL    MW4 9392   5.304   4.289   2.850 -0.1624  0.0381  0.0796
 2407SOL     OW 9393   0.022   5.637   5.417 -0.6946 -0.0337  0.1724
 2407SOL    HW2 9394   0.034   5.576   5.490 -0.7536  0.6071  0.7168
 2407SOL    HW3 9395   0.062   5.591   5.342  3.0545  0.9242  1.3667
 2407SOL    MW4 9396   0.029   5.623   5.417 -0.2077  0.1772  0.4018
 2408SOL     OW 9397   2.915   3.090   1.112  0.2710  0.1835 -0.4867
 2408SOL    HW2 9398   2.849   3.021   1.110  0.4230  0.0431 -0.6677
 2408SOL    HW3 9399   2.986   3.058   1.057 -0.7004  1.5404 -2.6437
 2408SOL    MW4 9400   2.915   3.077   1.105  0.1629  0.3440 -0.7952
 2409SOL     OW 9401   0.062   1.297   2.923 -0.1751  0.6672 -0.1657
 2409SOL    HW2 9402   0.130   1.327   2.985 -1.4404  1.2550  0.9935
 2409SOL    HW3 9403  -0.015   1.285   2.977 -1.5046  1.7551 -1.7253
 2409SOL    MW4 9404   0.061   1.300   2.938 -0.5174  0.8883 -0.2185
 2410SOL     OW 9405   3.962   4.625   2.156  0.1685  0.0615 -0.0714
 2410SOL    HW2 9406   3.872   4.657   2.165  0.1384  0.2965 -1.0474
 2410SOL    HW3 9407   3.995   4.620   2.245 -0.7643  0.1205  0.2875
 2410SOL    MW4 9408   3.954   4.629   2.169  0.0414  0.1003 -0.1528
 2411SOL     OW 9409   3.822   3.967   1.600 -0.3685 -0.3929 -0.2500
 2411SOL    HW2 9410   3.881   3.924   1.538  0.3462  1.0633 -0.6065
 2411SOL    HW3 9411   3.796   4.048   1.557 -0.7853  0.0913  0.8834
 2411SOL    MW4 9412   3.826   3.972   1.586 -0.3292 -0.1369 -0.1475
 2412SOL     OW 9413   2.947   0.340   5.674 -0.2266 -0.7286 -0.2244
 2412SOL    HW2 9414   3.003   0.417   5.677 -0.6524 -0.4308  0.3376
 2412SOL    HW3 9415   2.975   0.287   5.749 -0.2589 -0.8883 -0.3252
 2412SOL    MW4 9416   2.958   0.343   5.684 -0.2871 -0.7104 -0.1635
 2413SOL     OW 9417   2.069   2.549   1.988  0.2019 -0.2103  0.5087
 2413SOL    HW2 9418   2.151   2.554   2.037  1.0000  2.3129 -0.9122
 2413SOL    HW3 9419   2.095   2.514   1.903 -0.6070 -1.3912  0.7210
 2413SOL    MW4 9420   2.083   2.545   1.983  0.2005 -0.0332  0.3492
 2414SOL     OW 9421   2.434   4.607   0.177 -0.3385 -0.7923  0.1485
 2414SOL    HW2 9422   2.364   4.560   0.130 -1.4253  1.9321 -1.2298
 2414SOL    HW3 9423   2.412   4.597   0.269 -1.7426 -1.2062 -0.2067
 2414SOL    MW4 9424   2.422   4.600   0.183 -0.6672 -0.4875 -0.0802
 2415SOL     OW 9425   0.612   5.100   5.759 -0.7024 -0.7504  0.4252
 2415SOL    HW2 9426   0.662   5.141   5.829 -0.4118  0.7781 -0.6141
 2415SOL    HW3 9427   0.571   5.024   5.800 -0.6614  0.1632  2.2754
 2415SOL    MW4 9428   0.613   5.095   5.774 -0.6587 -0.4282  0.5322
 2416SOL     OW 9429   0.425   4.331   1.996  0.2554 -0.0368  0.1429
 2416SOL    HW2 9430   0.359   4.334   1.928 -1.8449  3.9034  2.0105
 2416SOL    HW3 9431   0.497   4.384   1.962  0.6873 -0.8647 -0.2607
 2416SOL    MW4 9432   0.426   4.339   1.983  0.0353  0.3739  0.3361
 2417SOL     OW 9433   2.000   1.246   2.013  0.5915 -0.2478 -0.6013
 2417SOL    HW2 9434   2.094   1.235   2.027  0.3704  0.5904  2.1333
 2417SOL    HW3 9435   1.961   1.222   2.097 -1.4158  1.9554 -0.8082
 2417SOL    MW4 9436   2.007   1.241   2.026  0.2975  0.1535 -0.2678
 2418SOL     OW 9437   1.343   5.900   3.593 -0.4899 -0.3447 -0.0815
 2418SOL    HW2 9438   1.372   5.970   3.534  0.6436  0.2782  1.1659
 2418SOL    HW3 9439   1.413   5.893   3.658 -1.1885 -1.7795  0.5568
 2418SOL    MW4 9440   1.356   5.908   3.594 -0.4325 -0.4518  0.1673
 2419SOL     OW 9441   4.490   3.821   5.834 -0.2312 -0.4182  0.3883
 2419SOL    HW2 9442   4.449   3.734   5.836  0.0125 -0.5951 -1.0372
 2419SOL    HW3 9443   4.443   3.868   5.766 -0.4771  0.6484  1.2795
 2419SOL    MW4 9444   4.478   3.815   5.825 -0.2315 -0.3008  0.3178
 2420SOL     OW 9445   4.994   0.185   4.583 -0.5534  0.1104 -0.2544
 2420SOL    HW2 9446   5.042   0.155   4.506  0.5584  2.5517 -0.6259
 2420SOL    HW3 9447   4.999   0.281   4.578 -0.7245  0.3635  2.6517
 2420SOL    MW4 9448   5.001   0.194   4.572 -0.4293  0.4659  0.0800
 2421SOL     OW 9449   0.996   3.706   3.013 -0.3594  0.3514 -0.8552
 2421SOL    HW2 9450   1.035   3.627   2.974  1.8191  0.7317  0.4101
 2421SOL    HW3 9451   0.927   3.672   3.070 -0.8344 -0.4794 -1.8879
 2421SOL    MW4 9452   0.992   3.691   3.015 -0.1346  0.2919 -0.8245
 2422SOL     OW 9453   3.523   2.193   3.017  0.0097 -0.0179 -0.1509
 2422SOL    HW2 9454   3.482   2.272   3.052  1.8958  0.5934  0.8286
 2422SOL    HW3 9455   3.591   2.172   3.081  0.7071 -1.4230 -1.3051
 2422SOL    MW4 9456   3.526   2.201   3.030  0.3505 -0.1227 -0.1739
 2423SOL     OW 9457   6.011   0.153   2.125  0.1432 -0.1177  0.9371
 2423SOL    HW2 9458   6.033   0.244   2.145  0.9536 -0.1483  0.2802
 2423SOL    HW3 9459   5.932   0.158   2.071  0.0142  0.1782  1.1545
 2423SOL    MW4 9460   6.004   0.165   2.121  0.2331 -0.0827  0.8791
 2424SOL     OW 9461   0.539   5.295   0.970 -0.3036 -0.0010  0.4328
 2424SOL    HW2 9462   0.602   5.237   0.928 -1.3117 -2.5343  2.1368
 2424SOL    HW3 9463   0.456   5.246   0.966 -1.2215  1.3491  1.9138
 2424SOL    MW4 9464   0.536   5.281   0.964 -0.5577 -0.1571  0.8531
 2425SOL     OW 9465   1.128   5.286   4.788 -0.4749  0.3169 -0.4809
 2425SOL    HW2 9466   1.196   5.246   4.842  0.2185 -0.6095 -1.9739
 2425SOL    HW3 9467   1.082   5.346   4.847  0.1587 -0.7409  1.1413
 2425SOL    MW4 9468   1.131   5.289   4.803 -0.2998  0.0551 -0.4639
 2426SOL     OW 9469   3.402   0.627   0.278  0.1468 -0.2975 -0.3474
 2426SOL    HW2 9470   3.396   0.640   0.373 -0.4543 -0.9193 -0.2912
 2426SOL    HW3 9471   3.312   0.610   0.250  0.3598 -0.4029 -0.9872
 2426SOL    MW4 9472   3.390   0.627   0.287  0.0956 -0.3934 -0.4244
 2427SOL     OW 9473   2.653   4.475   6.048  0.0030 -0.3595  0.4389
 2427SOL    HW2 9474   2.600   4.432   5.980  0.8365  0.2237 -0.6136
 2427SOL    HW3 9475   2.594   4.483   6.122 -2.3382  2.6632 -1.5231
 2427SOL    MW4 9476   2.638   4.470   6.049 -0.1959  0.1162  0.0412
 2428SOL     OW 9477   0.791   6.365   3.329  0.0364 -0.0345 -1.0833
 2428SOL    HW2 9478   0.725   6.387   3.264  0.2240 -1.2393 -1.7211
 2428SOL    HW3 9479   0.850   6.306   3.283 -0.2740 -1.5683  0.3848
 2428SOL    MW4 9480   0.790   6.360   3.314  0.0202 -0.3958 -0.9738
 2429SOL     OW 9481   0.509   4.880   3.153 -0.3213 -0.1650 -0.4140
 2429SOL    HW2 9482   0.571   4.953   3.162  0.9065 -1.1607 -0.4919
 2429SOL    HW3 9483   0.513   4.835   3.238  0.0506 -0.9699 -0.8425
 2429SOL    MW4 9484   0.518   4.884   3.166 -0.1102 -0.4026 -0.4808
 2430SOL     OW 9485   1.123   0.928   4.566  0.0756 -0.2620  0.1264
 2430SOL    HW2 9486   1.048   0.941   4.624  0.1580 -0.7847  0.3596
 2430SOL    HW3 9487   1.092   0.865   4.500 -0.3085  1.0137 -0.9585
 2430SOL    MW4 9488   1.109   0.921   4.565  0.0358 -0.1626  0.0140
 2431SOL     OW 9489   5.890   1.646   2.856 -0.2269 -0.4471  0.2060
 2431SOL    HW2 9490   5.976   1.618   2.886 -0.5246 -0.1567  1.3730
 2431SOL    HW3 9491   5.905   1.683   2.769  0.5517 -1.9480 -0.3235
 2431SOL    MW4 9492   5.903   1.647   2.849 -0.1635 -0.6068  0.2901
 2432SOL     OW 9493   2.693   5.350   1.044 -0.7976 -0.2396  0.2253
 2432SOL    HW2 9494   2.753   5.329   0.973  1.1431  0.6308  1.5453
 2432SOL    HW3 9495   2.634   5.275   1.048 -0.5491 -0.6072 -1.8352
 2432SOL    MW4 9496   2.693   5.337   1.035 -0.5088 -0.1733  0.1276
 2433SOL     OW 9497   4.318   1.225   5.297 -0.0537 -0.0565  0.1579
 2433SOL    HW2 9498   4.328   1.299   5.236  0.2466 -0.2737 -0.0582
 2433SOL    HW3 9499   4.224   1.222   5.315 -0.0153  0.6464  0.5060
 2433SOL    MW4 9500   4.307   1.235   5.291 -0.0090  0.0075  0.1753
 2434SOL     OW 9501   0.592   1.176   4.759  0.1853  0.1292  0.1297
 2434SOL    HW2 9502   0.536   1.252   4.741 -0.5794 -0.8732 -2.0799
 2434SOL    HW3 9503   0.614   1.184   4.852 -0.6414  2.5178  0.1892
 2434SOL    MW4 9504   0.587   1.187   4.769 -0.0247  0.3121 -0.1540
 2435SOL     OW 9505   2.534   3.521   3.642  0.2422 -0.1090  0.3888
 2435SOL    HW2 9506   2.548   3.598   3.698 -0.7553  0.3343  0.0437
 2435SOL    HW3 9507   2.566   3.448   3.695 -0.6041  0.3081  1.5350
 2435SOL    MW4 9508   2.540   3.521   3.657 -0.0011  0.0045  0.4945
 2436SOL     OW 9509   3.611   1.928   0.496  0.7284 -0.0963  0.5267
 2436SOL    HW2 9510   3.531   1.909   0.545 -0.7388  0.6762 -1.4095
 2436SOL    HW3 9511   3.666   1.976   0.557 -1.2221  1.2769  1.3237
 2436SOL    MW4 9512   3.607   1.932   0.510  0.2774  0.1868  0.3764
 2437SOL     OW 9513   1.221   3.391   0.775 -0.3722 -0.4738 -0.0521
 2437SOL    HW2 9514   1.287   3.460   0.773  0.6423 -1.3511 -3.1929
 2437SOL    HW3 9515   1.196   3.379   0.684 -2.1741 -2.7345  0.6302
 2437SOL    MW4 9516   1.227   3.398   0.763 -0.4761 -0.8878 -0.3765
 2438SOL     OW 9517   3.274   3.880   2.016  0.1370  0.2049  0.1395
 2438SOL    HW2 9518   3.271   3.927   2.099 -0.1773 -1.0053  0.8436
 2438SOL    HW3 9519   3.302   3.945   1.952  1.2704  0.9574  1.3415
 2438SOL    MW4 9520   3.278   3.895   2.018  0.2451  0.1445  0.3910
 2439SOL     OW 9521   3.744   1.550   6.328  0.9963  0.1324  0.1522
 2439SOL    HW2 9522   3.819   1.592   6.285  0.0170  1.2758 -0.5228
 2439SOL    HW3 9523   3.756   1.457   6.312  3.0408  0.1141  1.3501
 2439SOL    MW4 9524   3.756   1.543   6.320  1.1368  0.2808  0.2212
 2440SOL     OW 9525   1.738   6.258   4.127 -0.7748  0.0786  0.2911
 2440SOL    HW2 9526   1.671   6.326   4.126 -1.5491 -0.6632 -1.0457
 2440SOL    HW3 9527   1.697   6.185   4.174 -1.0786 -0.5195 -0.8762
 2440SOL    MW4 9528   1.724   6.258   4.133 -0.9170 -0.0982 -0.0393
 2441SOL     OW 9529   3.475   1.622   0.692 -0.0066 -0.1722 -0.2060
 2441SOL    HW2 9530   3.465   1.536   0.733 -0.6641 -0.9424 -1.8847
 2441SOL    HW3 9531   3.569   1.628   0.673 -0.0193 -0.7163 -0.4664
 2441SOL    MW4 9532   3.486   1.611   0.695 -0.0950 -0.3456 -0.4619
 2442SOL     OW 9533   0.847   3.513   5.169  0.1450  0.4046 -0.0607
 2442SOL    HW2 9534   0.823   3.472   5.252 -2.1220  0.6429 -0.5265
 2442SOL    HW3 9535   0.830   3.606   5.183 -1.0290  0.3539 -0.9928
 2442SOL    MW4 9536   0.841   3.520   5.182 -0.3090  0.4293 -0.2451
 2443SOL     OW 9537   1.424   0.876   2.081 -0.4313 -0.0670 -0.0217
 2443SOL    HW2 9538   1.417   0.876   1.986  0.7150 -2.5831 -0.1962
 2443SOL    HW3 9539   1.428   0.968   2.106 -0.7374  0.6326 -2.3960
 2443SOL    MW4 9540   1.424   0.888   2.072 -0.3204 -0.3067 -0.3580
 2444SOL     OW 9541   4.302   3.042   1.599  1.0738 -0.1225  0.2680
 2444SOL    HW2 9542   4.261   3.124   1.628 -1.3443 -0.5961 -1.5146
 2444SOL    HW3 9543   4.259   2.974   1.651 -0.3081 -0.5968 -1.3970
 2444SOL    MW4 9544   4.291   3.044   1.609  0.5724 -0.2475 -0.1869
 2445SOL     OW 9545   3.893   1.606   5.312  0.3226 -0.2018 -0.0081
 2445SOL    HW2 9546   3.838   1.635   5.239  2.1928  0.8809 -1.0722
 2445SOL    HW3 9547   3.906   1.512   5.296  2.2668  0.3632 -2.2609
 2445SOL    MW4 9548   3.887   1.597   5.300  0.8258  0.0156 -0.4457
 2446SOL     OW 9549   0.778   3.811   6.164 -0.6103  0.2473 -0.1274
 2446SOL    HW2 9550   0.738   3.792   6.249 -0.8034  0.3921 -0.1861
 2446SOL    HW3 9551   0.854   3.753   6.160 -2.1075 -1.7677 -1.0065
 2446SOL    MW4 9552   0.782   3.801   6.175 -0.8333  0.0006 -0.2511
 2447SOL     OW 9553   5.722   1.111   3.383 -0.6205  0.3613  0.5864
 2447SOL    HW2 9554   5.691   1.176   3.447  0.2196 -0.0995  1.4742
 2447SOL    HW3 9555   5.817   1.123   3.380 -0.5113 -0.5061  0.3990
 2447SOL    MW4 9556   5.730   1.121   3.391 -0.4953  0.1860  0.6788
 2448SOL     OW 9557   2.516   3.648   4.581 -0.1129  0.0320 -0.3490
 2448SOL    HW2 9558   2.463   3.719   4.546  0.5170  1.2365  1.0577
 2448SOL    HW3 9559   2.601   3.657   4.538  0.9442  2.0468  1.9688
 2448SOL    MW4 9560   2.520   3.658   4.571  0.1097  0.4568  0.1424
 2449SOL     OW 9561   1.872   5.312   3.616  0.2558 -0.0806  0.0813
 2449SOL    HW2 9562   1.838   5.337   3.702  0.3708  0.2702  0.0275
 2449SOL    HW3 9563   1.965   5.297   3.631  0.3517  0.3507 -0.0520
 2449SOL    MW4 9564   1.880   5.314   3.629  0.2836  0.0226  0.0566
 2450SOL     OW 9565   1.838   0.203   3.704  0.9086  0.3497  0.0342
 2450SOL    HW2 9566   1.866   0.236   3.789 -1.8831  0.8132  0.8785
 2450SOL    HW3 9567   1.859   0.274   3.643 -0.8139  1.8292  1.0671
 2450SOL    MW4 9568   1.845   0.217   3.707  0.3130  0.6061  0.2819
 2451SOL     OW 9569   5.226   0.994   5.254 -0.0036 -0.0611  0.3139
 2451SOL    HW2 9570   5.148   0.966   5.205 -1.0424  1.3924  1.0596
 2451SOL    HW3 9571   5.255   0.915   5.300 -0.0574 -1.0126 -1.2332
 2451SOL    MW4 9572   5.219   0.980   5.254 -0.1478  0.0052  0.2082
 2452SOL     OW 9573   3.633   2.498   6.134  0.4931  0.3002 -0.1644
 2452SOL    HW2 9574   3.668   2.410   6.142  0.5498  0.3830  0.5358
 2452SOL    HW3 9575   3.542   2.491   6.162 -0.0632  0.1043 -1.8966
 2452SOL    MW4 9576   3.626   2.486   6.138  0.4272  0.2853 -0.3006
 2453SOL     OW 9577   6.147   2.459   1.309 -0.0577 -0.4968  0.4580
 2453SOL    HW2 9578   6.177   2.540   1.269 -2.1113  0.4958  0.8248
 2453SOL    HW3 9579   6.219   2.398   1.295  1.0696  1.0420 -0.8610
 2453SOL    MW4 9580   6.160   2.461   1.302 -0.1799 -0.1628  0.3324
 2454SOL     OW 9581   1.945   3.632   0.133 -0.1333  0.4875 -0.1183
 2454SOL    HW2 9582   1.954   3.544   0.097  2.7801  0.7334 -0.1855
 2454SOL    HW3 9583   2.030   3.652   0.172 -1.3577  2.4968  1.7821
 2454SOL    MW4 9584   1.957   3.623   0.133  0.0895  0.7851  0.1236
 2455SOL     OW 9585   5.197   3.772   6.042 -0.4731 -0.3993  0.6518
 2455SOL    HW2 9586   5.287   3.753   6.017 -0.7077 -0.9879  0.2167
 2455SOL    HW3 9587   5.181   3.716   6.118 -0.7261 -0.9410  0.2146
 2455SOL    MW4 9588   5.206   3.762   6.049 -0.5374 -0.5484  0.5367
 2456SOL     OW 9589  -0.006   2.976   2.260 -0.3107 -0.2593  0.2307
 2456SOL    HW2 9590  -0.099   2.957   2.254 -0.0125 -1.4019 -2.8539
 2456SOL    HW3 9591   0.037   2.893   2.237  1.4021  0.6889 -0.1899
 2456SOL    MW4 9592  -0.013   2.963   2.256 -0.0454 -0.2849 -0.2318
 2457SOL     OW 9593   2.330   1.460   5.261  0.6862 -0.4687  0.1455
 2457SOL    HW2 9594   2.365   1.527   5.320  0.7202 -0.2256 -0.1473
 2457SOL    HW3 9595   2.235   1.467   5.271  0.6612  0.1720 -0.4798
 2457SOL    MW4 9596   2.323   1.470   5.270  0.6874 -0.3521  0.0244
 2458SOL     OW 9597   0.564   2.120   4.104 -0.5960  0.5521  0.1766
 2458SOL    HW2 9598   0.524   2.196   4.146 -0.4982  0.8049 -0.1810
 2458SOL    HW3 9599   0.495   2.083   4.049 -0.5726  0.5318  0.1606
 2458SOL    MW4 9600   0.550   2.126   4.102 -0.5800  0.5828  0.1273
 2459SOL     OW 9601   3.298   2.743   0.579 -0.6606 -0.3177 -0.6919
 2459SOL    HW2 9602   3.217   2.775   0.540  0.0244  0.9099 -1.1695
 2459SOL    HW3 9603   3.301   2.650   0.555  0.2942  0.5524 -4.7300
 2459SOL    MW4 9604   3.288   2.735   0.571 -0.4443 -0.0410 -1.2877
 2460SOL     OW 9605   3.915   3.190   0.668 -0.0416 -0.0934  0.0461
 2460SOL    HW2 9606   3.906   3.279   0.633 -0.2838 -0.3692 -0.5951
 2460SOL    HW3 9607   3.881   3.133   0.600 -0.0989 -0.6720  0.5488
 2460SOL    MW4 9608   3.910   3.194   0.654 -0.0811 -0.2061  0.0278
 2461SOL     OW 9609   6.365   4.352   1.016  0.2866 -0.2392 -0.0642
 2461SOL    HW2 9610   6.327   4.440   1.025  0.6507  0.1029 -1.6334
 2461SOL    HW3 9611   6.443   4.365   0.962  0.5546 -1.4761  0.0055
 2461SOL    MW4 9612   6.370   4.366   1.010  0.3700 -0.3573 -0.2620
 2462SOL     OW 9613   0.029   3.957   2.654  0.0149 -1.0134 -0.2130
 2462SOL    HW2 9614  -0.008   4.041   2.629  0.2397 -1.5582 -2.5896
 2462SOL    HW3 9615   0.050   3.914   2.571  1.2017 -2.8405  0.9594
 2462SOL    MW4 9616   0.027   3.962   2.640  0.2011 -1.3263 -0.3719
 2463SOL     OW 9617   5.658   0.478   0.349  0.3859 -0.5191 -0.2994
 2463SOL    HW2 9618   5.712   0.474   0.428  0.5004 -1.0229 -0.4032
 2463SOL    HW3 9619   5.721   0.478   0.277  0.2728 -0.2994 -0.4001
 2463SOL    MW4 9620   5.674   0.477   0.349  0.3861 -0.5566 -0.3264
 2464SOL     OW 9621   3.555   0.046   4.656  0.1066 -0.0007  0.5399
 2464SOL    HW2 9622   3.621  -0.017   4.685  0.7645  0.4524  0.0577
 2464SOL    HW3 9623   3.598   0.097   4.587 -1.0224 -0.2620 -0.4015
 2464SOL    MW4 9624   3.569   0.045   4.650  0.0444  0.0246  0.3521
 2465SOL     OW 9625   0.837   4.346   5.509  0.4311 -0.2500 -0.3030
 2465SOL    HW2 9626   0.796   4.270   5.549  0.4491  0.3397  0.8897
 2465SOL    HW3 9627   0.931   4.327   5.509  0.5718  0.2822  1.2170
 2465SOL    MW4 9628   0.844   4.334   5.515  0.4520 -0.1020  0.0549
 2466SOL     OW 9629   2.380   0.739   4.427  0.3164 -0.0626 -0.2509
 2466SOL    HW2 9630   2.374   0.732   4.332 -0.5718 -0.8278 -0.1504
 2466SOL    HW3 9631   2.393   0.649   4.457  3.2586  0.3900  0.2215
 2466SOL    MW4 9632   2.381   0.726   4.418  0.5874 -0.1039 -0.1753
 2467SOL     OW 9633   1.535   2.290   2.994 -0.3256  0.5672 -0.0673
 2467SOL    HW2 9634   1.491   2.355   2.938 -3.0410  0.6619  1.9604
 2467SOL    HW3 9635   1.526   2.325   3.082  1.0109 -1.0813  0.7722
 2467SOL    MW4 9636   1.528   2.303   2.998 -0.5076  0.3622  0.3110
 2468SOL     OW 9637   4.244   2.938   2.428 -0.6283 -0.3066  0.0080
 2468SOL    HW2 9638   4.328   2.945   2.384  0.6221 -2.9625  1.6728
 2468SOL    HW3 9639   4.244   3.009   2.492 -0.5679  0.8966 -1.2799
 2468SOL    MW4 9640   4.255   2.948   2.431 -0.4554 -0.4983  0.0577
 2469SOL     OW 9641   4.500   1.274   3.346  0.6485  0.3261  0.3092
 2469SOL    HW2 9642   4.421   1.222   3.334  0.9640 -0.6296  2.1554
 2469SOL    HW3 9643   4.549   1.262   3.264  0.2887 -1.5620  0.3349
 2469SOL    MW4 9644   4.496   1.266   3.333  0.6426 -0.0491  0.5562
 2470SOL     OW 9645   0.014   1.785   0.934 -0.7618 -0.3979  0.3453
 2470SOL    HW2 9646   0.095   1.801   0.982 -1.5939  2.8317  0.9719
 2470SOL    HW3 9647   0.032   1.817   0.846 -1.0292 -0.6337  0.2065
 2470SOL    MW4 9648   0.027   1.792   0.929 -0.9069 -0.0029  0.4096
 2471SOL     OW 9649   3.486   3.484   4.466  0.0156 -0.1876 -0.2515
 2471SOL    HW2 9650   3.424   3.413   4.450 -0.9185  0.7960 -1.2026
 2471SOL    HW3 9651   3.432   3.563   4.472  0.9757  0.4230  1.2300
 2471SOL    MW4 9652   3.471   3.485   4.465  0.0190  0.0227 -0.1815
 2472SOL     OW 9653   5.627   6.333   0.016  0.8103 -0.2204 -0.0344
 2472SOL    HW2 9654   5.704   6.330  -0.041 -0.3744  1.3611 -1.8809
 2472SOL    HW3 9655   5.580   6.252  -0.002  0.4306  0.2788 -1.4353
 2472SOL    MW4 9656   5.631   6.322   0.006  0.6039  0.0541 -0.4629
 2473SOL     OW 9657   5.100   2.308   3.994  0.0790  0.4527  0.4221
 2473SOL    HW2 9658   5.043   2.379   4.021 -0.3416  0.3356 -0.1489
 2473SOL    HW3 9659   5.043   2.232   3.989  0.3974  0.2129  0.3785
 2473SOL    MW4 9660   5.085   2.307   3.997  0.0655  0.4056  0.3410
 2474SOL     OW 9661   4.471   4.673   0.967 -0.1917  0.4568  0.3066
 2474SOL    HW2 9662   4.465   4.690   0.873 -0.6993 -1.2377 -0.0047
 2474SOL    HW3 9663   4.457   4.758   1.009 -0.9689  1.0564 -1.1243
 2474SOL    MW4 9664   4.469   4.687   0.960 -0.3612  0.3123  0.0768
 2475SOL     OW 9665   4.032   5.257   2.932  0.1690  0.8904 -0.1201
 2475SOL    HW2 9666   4.053   5.229   3.022 -1.9889  1.5399  0.6674
 2475SOL    HW3 9667   4.115   5.285   2.895  1.5514 -1.6156  0.8309
 2475SOL    MW4 9668   4.045   5.257   2.939  0.0667  0.6455  0.1093
 2476SOL     OW 9669   1.229   6.014   3.834 -0.0743  0.0811  0.2648
 2476SOL    HW2 9670   1.166   5.957   3.878  1.2274 -0.3535  1.6576
 2476SOL    HW3 9671   1.267   5.960   3.766 -0.0565 -0.1669  0.4720
 2476SOL    MW4 9672   1.225   6.000   3.831  0.0998 -0.0089  0.4759
 2477SOL     OW 9673   1.432   3.250   5.071 -0.2234 -0.0497 -0.2588
 2477SOL    HW2 9674   1.486   3.181   5.033 -0.5953  0.9910 -2.8682
 2477SOL    HW3 9675   1.495   3.312   5.109  0.3512  0.1640 -1.5176
 2477SOL    MW4 9676   1.447   3.249   5.071 -0.1967  0.1158 -0.7691
 2478SOL     OW 9677   1.444   2.495   0.708  1.1192  0.2014 -0.1642
 2478SOL    HW2 9678   1.537   2.517   0.700  1.3309 -0.0278  1.2906
 2478SOL    HW3 9679   1.437   2.405   0.679  1.2049  0.4676 -1.0252
 2478SOL    MW4 9680   1.455   2.486   0.703  1.1585  0.2063 -0.0859
 2479SOL     OW 9681   5.835   1.566   5.545 -0.3349 -0.4029  0.3991
 2479SOL    HW2 9682   5.873   1.653   5.533 -1.1663 -0.2924 -2.0135
 2479SOL    HW3 9683   5.900   1.518   5.596  1.1754  0.9815 -0.1383
 2479SOL    MW4 9684   5.849   1.571   5.550 -0.2453 -0.2057  0.0099
 2480SOL     OW 9685   2.473   2.338   5.405 -0.2119  0.3996  0.4815
 2480SOL    HW2 9686   2.503   2.411   5.351 -1.3338 -0.4729 -1.4248
 2480SOL    HW3 9687   2.407   2.376   5.463  0.4684  1.2198  0.7202
 2480SOL    MW4 9688   2.468   2.352   5.406 -0.2702  0.3927  0.2615
 2481SOL     OW 9689   1.103   5.816   3.466 -0.1529 -0.0385 -0.1938
 2481SOL    HW2 9690   1.146   5.732   3.454  0.0652 -0.1002  0.8956
 2481SOL    HW3 9691   1.159   5.863   3.528 -1.8583 -0.3146  1.6714
 2481SOL    MW4 9692   1.116   5.811   3.473 -0.3491 -0.0831  0.1960
 2482SOL     OW 9693   1.224   4.891   2.046 -0.3128  0.0985 -0.0302
 2482SOL    HW2 9694   1.168   4.842   2.106 -1.7620  1.2239 -0.4057
 2482SOL    HW3 9695   1.296   4.922   2.101  0.8550 -2.6268  0.1579
 2482SOL    MW4 9696   1.226   4.889   2.061 -0.3499 -0.1126 -0.0550
 2483SOL     OW 9697   4.522   4.335   2.571  0.0366 -0.4315  0.5590
 2483SOL    HW2 9698   4.469   4.394   2.624  1.1591 -0.2181  1.4714
 2483SOL    HW3 9699   4.609   4.375   2.568  0.1041 -0.6010 -1.1838
 2483SOL    MW4 9700   4.527   4.348   2.577  0.1936 -0.4257  0.4494
 2484SOL     OW 9701   5.077   3.782   0.082  0.0860  0.4223  0.0447
 2484SOL    HW2 9702   5.127   3.863   0.083 -0.1651  0.5782  0.3690
 2484SOL    HW3 9703   5.129   3.721   0.134 -0.0248  0.5644  0.3249
 2484SOL    MW4 9704   5.090   3.784   0.089  0.0383  0.4616  0.1245
 2485SOL     OW 9705   1.827   1.322   3.339  0.2440  0.1133 -0.1578
 2485SOL    HW2 9706   1.852   1.235   3.309  0.2855  0.2383 -0.4917
 2485SOL    HW3 9707   1.752   1.307   3.396  0.5110 -0.1771  0.1150
 2485SOL    MW4 9708   1.820   1.309   3.342  0.2847  0.0915 -0.1658
 2486SOL     OW 9709   1.463   2.037   5.163 -0.3973 -0.0115 -0.1423
 2486SOL    HW2 9710   1.521   1.974   5.121  0.8029  1.4140 -0.7096
 2486SOL    HW3 9711   1.519   2.082   5.227 -0.8744  1.3403 -0.6506
 2486SOL    MW4 9712   1.478   2.034   5.166 -0.3019  0.3550 -0.2842
 2487SOL     OW 9713   2.120   1.731   6.117 -0.0600  0.4969  0.3080
 2487SOL    HW2 9714   2.110   1.827   6.120  0.6406  0.5856 -0.1273
 2487SOL    HW3 9715   2.031   1.698   6.125 -0.2373  1.1665  1.3384
 2487SOL    MW4 9716   2.107   1.740   6.119  0.0090  0.5970  0.3865
 2488SOL     OW 9717   5.233   3.526   3.655  0.0673 -0.3985 -0.1726
 2488SOL    HW2 9718   5.258   3.580   3.580 -0.0016 -0.1443 -0.0121
 2488SOL    HW3 9719   5.312   3.522   3.708  0.2688 -0.9977 -0.5067
 2488SOL    MW4 9720   5.247   3.533   3.652  0.0848 -0.4440 -0.1955
 2489SOL     OW 9721   0.901   5.132   4.154  0.2077 -0.3421  0.2340
 2489SOL    HW2 9722   0.882   5.220   4.185 -0.4786 -0.1094 -0.8003
 2489SOL    HW3 9723   0.830   5.111   4.093 -0.5142 -2.2239  1.6172
 2489SOL    MW4 9724   0.889   5.141   4.150  0.0219 -0.5597  0.2800
 2490SOL     OW 9725   0.677   3.987   0.993  0.0189 -0.0017  0.1323
 2490SOL    HW2 9726   0.621   4.001   1.070 -0.7853  1.1992 -0.6395
 2490SOL    HW3 9727   0.701   4.075   0.965 -0.1160 -0.4043 -1.2908
 2490SOL    MW4 9728   0.673   4.000   1.000 -0.1050  0.1037 -0.1573
 2491SOL     OW 9729   1.644   3.081   5.005 -0.2721  0.6709  0.1354
 2491SOL    HW2 9730   1.714   3.071   5.069  1.2562 -0.0480 -1.5660
 2491SOL    HW3 9731   1.585   3.008   5.022  0.7426 -0.2107  0.0161
 2491SOL    MW4 9732   1.646   3.070   5.015  0.0634  0.4597 -0.1048
 2492SOL     OW 9733   3.378   0.476   5.929 -0.5006 -0.4068 -0.5226
 2492SOL    HW2 9734   3.347   0.394   5.889 -1.0210  0.0453 -1.0544
 2492SOL    HW3 9735   3.440   0.447   5.996 -1.2072 -1.2821 -0.2151
 2492SOL    MW4 9736   3.382   0.461   5.933 -0.6625 -0.4626 -0.5522
 2493SOL     OW 9737   3.135   4.522   3.207  0.2802 -0.1620 -0.5093
 2493SOL    HW2 9738   3.090   4.528   3.123  3.4456  0.9047 -2.2845
 2493SOL    HW3 9739   3.103   4.597   3.257 -1.0195 -0.3311 -1.0572
 2493SOL    MW4 9740   3.125   4.532   3.203  0.5263 -0.0436 -0.8158
 2494SOL     OW 9741   4.411   1.803   3.035 -0.4494  0.3420 -0.2084
 2494SOL    HW2 9742   4.331   1.752   3.024 -0.4720  0.1726  0.6613
 2494SOL    HW3 9743   4.380   1.892   3.051 -0.5213  0.0779  1.2495
 2494SOL    MW4 9744   4.396   1.808   3.036 -0.4618  0.2848  0.0987
 2495SOL     OW 9745   5.253   3.512   5.101  0.4198 -0.6684 -0.3624
 2495SOL    HW2 9746   5.293   3.450   5.040  1.2103  0.2230 -0.7508
 2495SOL    HW3 9747   5.212   3.578   5.046  1.2902  0.2433  0.0698
 2495SOL    MW4 9748   5.253   3.512   5.086  0.6390 -0.4305 -0.3566
 2496SOL     OW 9749   3.544   1.056   5.690 -0.0699  0.5613  0.3443
 2496SOL    HW2 9750   3.492   0.983   5.726 -1.5951  0.6547 -1.5077
 2496SOL    HW3 9751   3.584   1.020   5.611  1.1344  1.0769  0.7016
 2496SOL    MW4 9752   3.542   1.041   5.684 -0.1122  0.6417  0.1471
 2497SOL     OW 9753   4.966   2.078   0.742 -0.0240 -0.0173  0.4300
 2497SOL    HW2 9754   4.905   2.038   0.680 -0.5796 -1.1298  1.6364
 2497SOL    HW3 9755   4.936   2.168   0.750 -1.2770 -0.4311  0.6720
 2497SOL    MW4 9756   4.954   2.084   0.735 -0.2626 -0.2187  0.6211
 2498SOL     OW 9757   0.781   1.903   4.132  0.7009  0.4619  0.0132
 2498SOL    HW2 9758   0.713   1.969   4.138  0.1054 -0.1551  0.2356
 2498SOL    HW3 9759   0.850   1.933   4.192 -0.2399  0.1189  1.3161
 2498SOL    MW4 9760   0.781   1.916   4.141  0.4982  0.3353  0.2144
 2499SOL     OW 9761   2.862   3.629   2.531 -0.7908  0.0370  0.4954
 2499SOL    HW2 9762   2.911   3.687   2.589  1.0697  0.8875 -1.7527
 2499SOL    HW3 9763   2.825   3.562   2.589  0.7978  0.9138  2.6515
 2499SOL    MW4 9764   2.864   3.628   2.546 -0.3358  0.2649  0.4833
 2500SOL     OW 9765   4.010   1.655   6.240 -0.2174 -0.2688 -0.3090
 2500SOL    HW2 9766   4.037   1.732   6.290  0.4869  0.9263 -2.3918
 2500SOL    HW3 9767   4.059   1.583   6.278 -0.5490  0.3696  1.4158
 2500SOL    MW4 9768   4.020   1.656   6.251 -0.1682 -0.0269 -0.3562
 2501SOL     OW 9769   2.931   3.487   0.428 -0.3064  0.0688  0.3420
 2501SOL    HW2 9770   2.859   3.447   0.477 -0.4156 -0.1117  0.0350
 2501SOL    HW3 9771   2.919   3.457   0.338  0.3716 -0.2721  0.3536
 2501SOL    MW4 9772   2.920   3.478   0.422 -0.2314  0.0000  0.3030
 2502SOL     OW 9773   2.491   2.114   4.887  0.1598  0.4412  0.4214
 2502SOL    HW2 9774   2.476   2.110   4.982 -0.8241  2.3732  0.3884
 2502SOL    HW3 9775   2.570   2.061   4.873 -0.4025 -0.9574  2.1239
 2502SOL    MW4 9776   2.499   2.106   4.898 -0.0442  0.5116  0.6417
 2503SOL     OW 9777   2.448   2.640   4.464  0.2159 -0.0403 -0.4825
 2503SOL    HW2 9778   2.405   2.700   4.403  0.0660  0.4589  0.1026
 2503SOL    HW3 9779   2.507   2.695   4.515  1.4625 -0.7030 -1.1782
 2503SOL    MW4 9780   2.450   2.655   4.463  0.3606 -0.0619 -0.4971
 2504SOL     OW 9781   1.511   0.910   5.752 -0.1695  0.1993 -0.7202
 2504SOL    HW2 9782   1.580   0.878   5.693 -0.2910 -0.3669 -0.5559
 2504SOL    HW3 9783   1.446   0.949   5.694 -0.4752 -0.7015 -1.0091
 2504SOL    MW4 9784   1.512   0.911   5.737 -0.2258  0.0058 -0.7366
 2505SOL     OW 9785   2.715   5.740   3.261 -0.0718 -0.2640 -0.3636
 2505SOL    HW2 9786   2.669   5.777   3.186 -1.3170 -0.6999  0.1549
 2505SOL    HW3 9787   2.803   5.777   3.256 -0.4018  0.4124 -1.5227
 2505SOL    MW4 9788   2.721   5.750   3.251 -0.2796 -0.2322 -0.4481
 2506SOL     OW 9789   3.934   4.909   3.261  0.1286 -0.4259 -0.3089
 2506SOL    HW2 9790   3.884   4.838   3.220 -1.3524 -0.6083  1.6564
 2506SOL    HW3 9791   3.885   4.988   3.239  1.1881 -0.1067 -1.6100
 2506SOL    MW4 9792   3.921   4.910   3.253  0.0730 -0.4079 -0.2212
 2507SOL     OW 9793   4.042   0.610   0.722  0.0306  0.9141  0.2268
 2507SOL    HW2 9794   4.051   0.563   0.804  0.6302  1.0538  0.2497
 2507SOL    HW3 9795   4.117   0.670   0.720  0.0101  0.9297 -0.4072
 2507SOL    MW4 9796   4.053   0.612   0.732  0.1070  0.9346  0.1461
 2508SOL     OW 9797   1.317   2.121   1.754  0.5091  1.5490  0.0672
 2508SOL    HW2 9798   1.246   2.150   1.697 -0.5321 -0.2332  0.3683
 2508SOL    HW3 9799   1.311   2.178   1.831 -0.5151  1.5351  0.0175
 2508SOL    MW4 9800   1.307   2.132   1.757  0.2366  1.3120  0.1004
 2509SOL     OW 9801   2.095   0.096   3.512  0.4209 -0.1141  0.0884
 2509SOL    HW2 9802   2.139   0.048   3.442  0.1362  0.2997 -0.3815
 2509SOL    HW3 9803   2.056   0.172   3.468  0.6541  0.4141  0.7767
 2509SOL    MW4 9804   2.096   0.100   3.497  0.4141  0.0102  0.1172
 2510SOL     OW 9805   2.502   3.806   5.342  0.2660 -0.0911 -0.3067
 2510SOL    HW2 9806   2.474   3.836   5.429 -1.5370 -2.0915 -0.1170
 2510SOL    HW3 9807   2.542   3.721   5.357  0.7870 -0.0381 -1.3386
 2510SOL    MW4 9808   2.503   3.799   5.356  0.0969 -0.3480 -0.4178
 2511SOL     OW 9809   4.549   3.508   3.395  0.2198 -0.6354  0.3155
 2511SOL    HW2 9810   4.610   3.486   3.465 -0.5068 -2.1787  0.5040
 2511SOL    HW3 9811   4.525   3.424   3.356  0.2622  0.1343 -1.5107
 2511SOL    MW4 9812   4.554   3.494   3.399  0.1295 -0.7375  0.0995
 2512SOL     OW 9813   5.685   6.210   6.025  0.3772  0.0436  0.1928
 2512SOL    HW2 9814   5.618   6.159   6.070  1.5112 -0.9753  0.7937
 2512SOL    HW3 9815   5.750   6.146   5.998 -0.0414  0.6577 -2.5989
 2512SOL    MW4 9816   5.685   6.195   6.027  0.4716 -0.0098 -0.0962
 2513SOL     OW 9817   5.181   4.309   0.304  0.2250 -0.6648  0.0585
 2513SOL    HW2 9818   5.106   4.365   0.286 -1.1827 -2.8213 -1.2217
 2513SOL    HW3 9819   5.183   4.300   0.399 -0.7980 -0.1134  0.1405
 2513SOL    MW4 9820   5.171   4.315   0.314 -0.0957 -0.8766 -0.0996
 2514SOL     OW 9821   0.357   3.766   3.610 -0.6426  0.1620  0.1092
 2514SOL    HW2 9822   0.352   3.822   3.687  0.9650 -0.5039  0.7234
 2514SOL    HW3 9823   0.284   3.705   3.620 -0.9409  0.5990  0.6623
 2514SOL    MW4 9824   0.347   3.765   3.621 -0.4699  0.1318  0.2632
 2515SOL     OW 9825   0.669   6.131   5.582 -0.7339  0.4305 -0.3909
 2515SOL    HW2 9826   0.676   6.133   5.677  0.8837  0.3156 -0.4712
 2515SOL    HW3 9827   0.593   6.077   5.564 -0.9060  0.2474  0.8330
 2515SOL    MW4 9828   0.660   6.124   5.592 -0.5432  0.3911 -0.2400
 2516SOL     OW 9829   0.913   1.316   4.797  0.5128  0.2471 -0.2071
 2516SOL    HW2 9830   0.862   1.391   4.765  0.1303 -0.4491 -1.2673
 2516SOL    HW3 9831   1.004   1.346   4.793  0.3272  0.8614 -0.0286
 2516SOL    MW4 9832   0.918   1.330   4.792  0.4378  0.2363 -0.3234
 2517SOL     OW 9833   5.281   5.640   6.328  0.0845 -0.4763  0.7531
 2517SOL    HW2 9834   5.375   5.659   6.324  0.0605 -0.6209 -1.0893
 2517SOL    HW3 9835   5.276   5.556   6.374  1.0358 -1.4524 -0.8414
 2517SOL    MW4 9836   5.293   5.631   6.334  0.2069 -0.6242  0.2997
 2518SOL     OW 9837   4.280   6.146   5.239 -0.0325  0.6308 -0.2732
 2518SOL    HW2 9838   4.235   6.149   5.154  0.1438  1.4376 -0.3464
 2518SOL    HW3 9839   4.334   6.225   5.240  1.1012 -0.1343 -0.0260
 2518SOL    MW4 9840   4.281   6.157   5.228  0.1403  0.6363 -0.2502
 2519SOL     OW 9841   3.542   4.113   2.624 -0.0343  0.5930  0.3224
 2519SOL    HW2 9842   3.542   4.025   2.588  0.2890  0.6540  0.1705
 2519SOL    HW3 9843   3.603   4.162   2.568 -0.3597  0.9613  0.2828
 2519SOL    MW4 9844   3.550   4.108   2.612 -0.0346  0.6497  0.2972
 2520SOL     OW 9845   5.219   0.740   2.439 -0.2197 -0.3657  0.3102
 2520SOL    HW2 9846   5.138   0.786   2.418  0.3359 -0.0887 -1.3624
 2520SOL    HW3 9847   5.194   0.648   2.444 -0.8701 -0.1546  1.1347
 2520SOL    MW4 9848   5.205   0.734   2.437 -0.2322 -0.3013  0.1983
 2521SOL     OW 9849   5.673   3.394   3.985 -0.1133 -0.8156  0.6954
 2521SOL    HW2 9850   5.734   3.466   3.966 -0.6191 -0.5197  0.1568
 2521SOL    HW3 9851   5.597   3.412   3.931 -1.3012 -0.3950  2.4208
 2521SOL    MW4 9852   5.671   3.406   3.975 -0.3368 -0.7210  0.8520
 2522SOL     OW 9853   0.351   3.302   5.645 -0.0871 -0.2468 -0.1410
 2522SOL    HW2 9854   0.291   3.311   5.718  0.6219 -0.8977  0.5390
 2522SOL    HW3 9855   0.317   3.229   5.594 -0.0560 -0.4135  0.0739
 2522SOL    MW4 9856   0.339   3.294   5.648  0.0105 -0.3547 -0.0229
 2523SOL     OW 9857   5.764   5.232   3.104 -0.3007  0.2047 -0.5064
 2523SOL    HW2 9858   5.764   5.313   3.155 -0.0106  0.2888 -0.6346
 2523SOL    HW3 9859   5.825   5.174   3.151  0.8299  0.6706 -1.3462
 2523SOL    MW4 9860   5.772   5.235   3.117 -0.1132  0.2773 -0.6342
 2524SOL     OW 9861   2.274   3.360   4.824 -0.3857 -0.2039 -0.5621
 2524SOL    HW2 9862   2.293   3.453   4.833  0.5948 -0.3758 -0.7300
 2524SOL    HW3 9863   2.357   3.317   4.842 -1.2302 -1.1609  1.2773
 2524SOL    MW4 9864   2.287   3.367   4.828 -0.3677 -0.3529 -0.3416
 2525SOL     OW 9865   3.080   4.577   4.839  0.1862  0.4838 -0.2615
 2525SOL    HW2 9866   3.074   4.666   4.804  1.9175  0.8144  0.1826
 2525SOL    HW3 9867   3.090   4.521   4.762  1.5114  0.9454 -0.4472
 2525SOL    MW4 9868   3.080   4.582   4.824  0.5895  0.5883 -0.2274
 2526SOL     OW 9869   2.291   5.813   3.276  0.0078 -0.1999  0.2970
 2526SOL    HW2 9870   2.279   5.786   3.367 -5.3492 -0.4837 -0.1719
 2526SOL    HW3 9871   2.241   5.895   3.269  1.9264  0.8672 -2.0315
 2526SOL    MW4 9872   2.283   5.820   3.287 -0.4459 -0.0966 -0.0721
 2527SOL     OW 9873   5.183   0.850   2.088 -0.2402  0.7433 -0.2540
 2527SOL    HW2 9874   5.128   0.889   2.021  0.3249  1.3359 -0.3826
 2527SOL    HW3 9875   5.182   0.756   2.068 -1.8665  0.6241  0.2518
 2527SOL    MW4 9876   5.176   0.843   2.076 -0.3802  0.8058 -0.2042
 2528SOL     OW 9877   5.059   4.428   2.068  0.3694  0.0506 -0.1809
 2528SOL    HW2 9878   5.141   4.450   2.025  1.2008  0.0668  1.3397
 2528SOL    HW3 9879   5.036   4.506   2.118  0.2256 -0.4461  0.5634
 2528SOL    MW4 9880   5.067   4.441   2.069  0.4601 -0.0128  0.1180
 2529SOL     OW 9881   4.686   0.702   3.693 -0.2108 -0.2117  0.1734
 2529SOL    HW2 9882   4.691   0.661   3.779 -0.3841 -1.5776 -0.4433
 2529SOL    HW3 9883   4.712   0.634   3.632 -0.7950  0.5075 -0.9237
 2529SOL    MW4 9884   4.690   0.688   3.696 -0.3107 -0.2970 -0.0527
 2530SOL     OW 9885   0.589   3.766   4.415  0.3343 -0.6117  0.3138
 2530SOL    HW2 9886   0.630   3.730   4.494  0.7829 -0.7870  0.0012
 2530SOL    HW3 9887   0.502   3.794   4.444 -0.4179 -2.8033  0.3917
 2530SOL    MW4 9888   0.583   3.765   4.429  0.2943 -0.9240  0.2828
 2531SOL     OW 9889   1.366   4.431   1.492  0.6146  0.1362  0.3172
 2531SOL    HW2 9890   1.437   4.408   1.552  1.2776  0.4351 -0.3364
 2531SOL    HW3 9891   1.288   4.437   1.548  0.4264 -3.2997  0.6298
 2531SOL    MW4 9892   1.365   4.429   1.507  0.6772 -0.2777  0.2722
 2532SOL     OW 9893   0.538   1.991   5.196  0.0232 -0.1517 -0.4297
 2532SOL    HW2 9894   0.606   2.026   5.254 -1.9387  0.3012  1.7508
 2532SOL    HW3 9895   0.527   2.059   5.129  2.5999 -0.8477 -1.7071
 2532SOL    MW4 9896   0.546   2.005   5.195  0.1043 -0.1838 -0.3105
 2533SOL     OW 9897   1.178   0.524   2.999  0.1016 -0.0271 -0.1464
 2533SOL    HW2 9898   1.145   0.537   2.910  1.6360  0.9619 -0.6067
 2533SOL    HW3 9899   1.204   0.431   3.001 -0.7431 -0.2819 -0.4286
 2533SOL    MW4 9900   1.177   0.513   2.988  0.1926  0.0697 -0.2444
 2534SOL     OW 9901   2.344   0.163   4.194 -0.2079  0.7447 -0.2527
 2534SOL    HW2 9902   2.415   0.103   4.171 -1.1862 -0.8474  0.7120
 2534SOL    HW3 9903   2.356   0.180   4.287  0.5620  2.8033 -0.6802
 2534SOL    MW4 9904   2.355   0.157   4.203 -0.2354  0.8063 -0.1818
 2535SOL     OW 9905   6.265   5.649   1.439 -0.2745 -0.4979  0.2073
 2535SOL    HW2 9906   6.292   5.712   1.506  0.2485 -0.4888 -0.0016
 2535SOL    HW3 9907   6.346   5.631   1.390 -0.2585 -1.8487  0.6827
 2535SOL    MW4 9908   6.279   5.655   1.441 -0.2034 -0.6749  0.2425
 2536SOL     OW 9909   5.462   1.303   0.603 -0.0764 -0.0427  0.1755
 2536SOL    HW2 9910   5.456   1.209   0.618  0.4100 -0.1859 -0.4705
 2536SOL    HW3 9911   5.533   1.333   0.659 -1.6710  0.3428  2.0770
 2536SOL    MW4 9912   5.470   1.295   0.612 -0.2226 -0.0107  0.3412
 2537SOL     OW 9913   5.220   2.746   4.514  0.2316  0.1695  0.2466
 2537SOL    HW2 9914   5.205   2.687   4.440 -0.5972 -0.9285  1.2469
 2537SOL    HW3 9915   5.199   2.694   4.591  2.5886  0.7721  1.3888
 2537SOL    MW4 9916   5.215   2.732   4.514  0.4332  0.1041  0.5293
 2538SOL     OW 9917   0.936   4.468   2.254  0.1248  0.1694  0.3295
 2538SOL    HW2 9918   0.949   4.442   2.345  1.4058 -1.2718 -0.2189
 2538SOL    HW3 9919   0.937   4.563   2.255 -3.3267  0.3386  2.2563
 2538SOL    MW4 9920   0.938   4.477   2.266 -0.1616  0.0016  0.5114
 2539SOL     OW 9921   0.930   4.774   4.425 -0.1050 -0.1003 -0.2033
 2539SOL    HW2 9922   1.023   4.755   4.431 -0.3478 -1.3447 -0.1910
 2539SOL    HW3 9923   0.892   4.697   4.382 -1.1475  0.3185 -0.0733
 2539SOL    MW4 9924   0.937   4.761   4.420 -0.2746 -0.2092 -0.1846
 2540SOL     OW 9925   2.858   0.711   2.004  0.4254  0.0570 -0.1797
 2540SOL    HW2 9926   2.859   0.698   1.909  1.7862  0.0108 -0.1666
 2540SOL    HW3 9927   2.793   0.781   2.017 -0.6269 -0.7183 -1.0186
 2540SOL    MW4 9928   2.849   0.718   1.993  0.4661 -0.0514 -0.2886
 2541SOL     OW 9929   1.973   3.483   5.681  0.3445 -0.1417 -0.4365
 2541SOL    HW2 9930   2.024   3.542   5.626  0.5702 -0.3763 -0.4782
 2541SOL    HW3 9931   1.949   3.536   5.758  0.4759  0.0266 -0.5130
 2541SOL    MW4 9932   1.976   3.498   5.684  0.3916 -0.1504 -0.4521
 2542SOL     OW 9933   1.225   2.371   0.155  0.2012  0.2667  0.0939
 2542SOL    HW2 9934   1.231   2.310   0.229 -0.5927 -2.7985 -2.1996
 2542SOL    HW3 9935   1.225   2.458   0.196 -1.7833 -1.2670  3.7857
 2542SOL    MW4 9936   1.226   2.375   0.170 -0.1654 -0.3401  0.2784
 2543SOL     OW 9937   2.902   0.296   4.695  0.1864 -0.1679  0.3287
 2543SOL    HW2 9938   2.812   0.309   4.666  0.7993  2.8993 -0.5628
 2543SOL    HW3 9939   2.927   0.211   4.657 -1.1033  0.7479 -2.9623
 2543SOL    MW4 9940   2.894   0.286   4.686  0.0971  0.3576 -0.2231
 2544SOL     OW 9941   4.293   3.091   1.936 -0.5293  0.2473  0.0006
 2544SOL    HW2 9942   4.344   3.018   1.901  1.4568  1.1593  0.8579
 2544SOL    HW3 9943   4.259   3.135   1.858  1.5991  0.6906 -0.7363
 2544SOL    MW4 9944   4.295   3.087   1.921  0.0136  0.4262  0.0165
 2545SOL     OW 9945   4.081   5.588   1.359  0.5753 -0.0369  0.0759
 2545SOL    HW2 9946   4.029   5.509   1.344  0.0502  0.4949 -0.9577
 2545SOL    HW3 9947   4.142   5.591   1.286  0.1919  0.8368 -0.2100
 2545SOL    MW4 9948   4.082   5.578   1.348  0.4555  0.1486 -0.0982
 2546SOL     OW 9949   1.528   4.848   1.438  0.3026  0.0586  0.1567
 2546SOL    HW2 9950   1.584   4.771   1.435  0.6145  0.2822  0.1304
 2546SOL    HW3 9951   1.460   4.827   1.501 -0.8991 -1.0998 -1.4386
 2546SOL    MW4 9952   1.527   4.835   1.446  0.1852 -0.0647 -0.0572
 2547SOL     OW 9953   0.793   0.308   3.512 -0.3868  0.3433 -0.1331
 2547SOL    HW2 9954   0.801   0.214   3.531 -1.6536  0.1585 -0.4096
 2547SOL    HW3 9955   0.876   0.331   3.469  1.2803  0.0886  2.7214
 2547SOL    MW4 9956   0.805   0.298   3.509 -0.3340  0.2853  0.2071
 2548SOL     OW 9957   4.972   3.591   0.569 -0.4662 -0.2293 -0.0870
 2548SOL    HW2 9958   4.915   3.591   0.492  1.1247 -1.9903 -1.3449
 2548SOL    HW3 9959   4.945   3.668   0.619 -0.7266  1.7087 -3.0161
 2548SOL    MW4 9960   4.961   3.601   0.565 -0.2906 -0.2060 -0.6394
 2549SOL     OW 9961   5.373   2.298   4.046 -0.2312  0.4786 -0.1928
 2549SOL    HW2 9962   5.387   2.374   4.103  0.2871  0.7804 -0.7096
 2549SOL    HW3 9963   5.278   2.286   4.044 -0.2214 -0.5092  1.9937
 2549SOL    MW4 9964   5.362   2.306   4.053 -0.1615  0.3881  0.0275
 2550SOL     OW 9965   4.154   0.982   4.793  0.2481 -0.1321 -0.1400
 2550SOL    HW2 9966   4.083   1.029   4.749  0.7676 -0.0941 -0.9618
 2550SOL    HW3 9967   4.130   0.890   4.786  0.1621 -0.1048 -0.2064
 2550SOL    MW4 9968   4.141   0.976   4.786  0.3053 -0.1235 -0.2572
 2551SOL     OW 9969   4.213   5.411   6.027 -0.2755 -0.3641 -0.0601
 2551SOL    HW2 9970   4.158   5.344   5.986  1.0160 -1.8419  0.5115
 2551SOL    HW3 9971   4.295   5.366   6.046 -0.2497  0.6180  2.7199
 2551SOL    MW4 9972   4.216   5.396   6.024 -0.1017 -0.4295  0.3821
 2552SOL     OW 9973   2.335   2.915   4.828 -0.1593 -0.5289  0.4643
 2552SOL    HW2 9974   2.243   2.940   4.838  0.1512  0.4778  0.9876
 2552SOL    HW3 9975   2.363   2.961   4.748 -0.0810 -0.7616  0.3573
 2552SOL    MW4 9976   2.326   2.924   4.818 -0.1080 -0.4268  0.5192
 2553SOL     OW 9977   3.126   0.235   2.757 -0.5827  0.3033  1.0098
 2553SOL    HW2 9978   3.213   0.259   2.724 -1.7615  1.2709 -1.6700
 2553SOL    HW3 9979   3.137   0.146   2.789  1.1721 -0.0108 -0.2866
 2553SOL    MW4 9980   3.139   0.227   2.756 -0.5067  0.3895  0.4852
 2554SOL     OW 9981   3.394   0.572   4.334 -0.2381 -0.8962 -0.2651
 2554SOL    HW2 9982   3.435   0.637   4.391 -1.9480  0.5051 -0.5624
 2554SOL    HW3 9983   3.468   0.522   4.298  1.2152  1.2788 -0.5021
 2554SOL    MW4 9984   3.410   0.574   4.337 -0.2720 -0.4244 -0.3356
 2555SOL     OW 9985   1.598   0.073   5.992  0.4347 -0.2884 -0.2470
 2555SOL    HW2 9986   1.693   0.067   5.983  0.4492  1.0337 -1.3555
 2555SOL    HW3 9987   1.572   0.135   5.923 -0.7709  2.5942  2.5612
 2555SOL    MW4 9988   1.607   0.081   5.982  0.2776  0.2663 -0.0228
 2556SOL     OW 9989   0.121   1.233   1.002  0.0093  1.0643 -0.1940
 2556SOL    HW2 9990   0.162   1.153   1.037 -0.2484  2.3206  3.3675
 2556SOL    HW3 9991   0.060   1.201   0.936  0.1224 -1.7022  0.8947
 2556SOL    MW4 9992   0.118   1.218   0.998 -0.0098  0.8651  0.4195
 2557SOL     OW 9993   3.386   5.376   3.511 -0.8756  0.1521 -0.9790
 2557SOL    HW2 9994   3.296   5.402   3.529 -0.2288  1.8757  0.0081
 2557SOL    HW3 9995   3.415   5.434   3.441 -0.3475  0.0553 -0.8463
 2557SOL    MW4 9996   3.378   5.387   3.504 -0.7206  0.3667 -0.8312
 2558SOL     OW 9997   5.492   4.295   3.752 -0.0842 -0.1054  0.2837
 2558SOL    HW2 9998   5.396   4.289   3.752 -0.0437 -0.8535  0.1388
 2558SOL    HW3 9999   5.521   4.204   3.744  0.6466  0.0084  1.4023
 2558SOL    MW410000   5.483   4.282   3.751  0.0175 -0.1891  0.4122
 2559SOL     OW10001   2.853   4.393   4.604  0.0815 -0.6408  0.1906
 2559SOL    HW210002   2.792   4.389   4.530  0.3619 -0.2279 -0.0714
 2559SOL    HW310003   2.798   4.413   4.679  0.1253  2.2446 -0.4320
 2559SOL    MW410004   2.838   4.395   4.604  0.1243 -0.2056  0.0739
 2560SOL     OW10005   3.001   3.209   5.488  0.5973 -0.5064 -0.1817
 2560SOL    HW210006   2.940   3.259   5.435  1.4093  2.0889  1.1418
 2560SOL    HW310007   3.083   3.260   5.485  1.4974 -1.7837  1.2179
 2560SOL    MW410008   3.004   3.222   5.481  0.8232 -0.3325  0.1776
 2561SOL     OW10009   4.160   3.530   4.191 -0.1634  0.1653  0.3725
 2561SOL    HW210010   4.224   3.469   4.154  0.7329  0.3750  1.5396
 2561SOL    HW310011   4.078   3.480   4.193 -0.9144  0.8011 -3.9264
 2561SOL    MW410012   4.158   3.515   4.186 -0.1442  0.2768 -0.0407
 2562SOL     OW10013   2.436   6.134   4.652  0.0453  0.4482 -0.4486
 2562SOL    HW210014   2.501   6.069   4.624  0.8428  1.3838 -0.8258
 2562SOL    HW310015   2.471   6.170   4.733 -0.2317  0.6300 -0.4080
 2562SOL    MW410016   2.449   6.130   4.659  0.1140  0.5956 -0.4930
 2563SOL     OW10017   0.785   0.971   6.003  0.3531  0.0422  0.3166
 2563SOL    HW210018   0.756   1.026   5.931  0.2352 -0.6339 -0.1647
 2563SOL    HW310019   0.856   0.918   5.966 -1.7239 -2.5732 -0.2838
 2563SOL    MW410020   0.791   0.971   5.989  0.0635 -0.3921  0.1739
 2564SOL     OW10021   3.739   3.668   1.260 -0.1198  1.1615  1.1300
 2564SOL    HW210022   3.678   3.647   1.331  0.0766  0.3449  1.0675
 2564SOL    HW310023   3.687   3.716   1.196 -0.5703  0.8946  1.2990
 2564SOL    MW410024   3.724   3.672   1.261 -0.1533  1.0186  1.1441
 2565SOL     OW10025   3.825   5.410   0.690 -1.0603 -0.1460 -0.2396
 2565SOL    HW210026   3.873   5.336   0.654  0.7159  0.7459  0.2026
 2565SOL    HW310027   3.866   5.427   0.774 -1.1769  1.5623 -0.4872
 2565SOL    MW410028   3.837   5.402   0.696 -0.8413  0.1971 -0.2140
 2566SOL     OW10029   0.580   5.907   2.130 -0.1469  0.3801 -0.1242
 2566SOL    HW210030   0.596   5.823   2.172  2.9535  1.1736  0.5529
 2566SOL    HW310031   0.574   5.887   2.036 -1.7631 -0.7712  0.1711
 2566SOL    MW410032   0.581   5.894   2.123  0.0489  0.3329  0.0041
 2567SOL     OW10033   0.355   0.027   0.087 -0.2872 -0.2599 -0.6732
 2567SOL    HW210034   0.367   0.009   0.180 -1.5719 -0.2587 -0.4931
 2567SOL    HW310035   0.262   0.044   0.077  0.2981  3.3236 -1.3465
 2567SOL    MW410036   0.344   0.027   0.098 -0.3795  0.2130 -0.7383
 2568SOL     OW10037   6.158   3.414   5.656 -0.2017 -0.2997  0.5006
 2568SOL    HW210038   6.119   3.394   5.571 -0.5759 -1.0132  0.8326
 2568SOL    HW310039   6.099   3.479   5.695 -1.4656 -1.8771  1.2867
 2568SOL    MW410040   6.145   3.420   5.650 -0.4179 -0.6019  0.6481
 2569SOL     OW10041   5.695   0.901   3.657  0.1075  0.2989 -0.3912
 2569SOL    HW210042   5.635   0.843   3.704 -0.3410  0.9583 -0.1434
 2569SOL    HW310043   5.694   0.983   3.707 -2.7993  2.1705 -3.1685
 2569SOL    MW410044   5.687   0.904   3.670 -0.3352  0.6328 -0.7250
 2570SOL     OW10045   0.607   5.662   5.817 -0.3283  0.3806 -0.3374
 2570SOL    HW210046   0.534   5.601   5.820  1.0835 -1.4555 -1.2903
 2570SOL    HW310047   0.599   5.706   5.732 -0.4923  0.3964 -0.3133
 2570SOL    MW410048   0.596   5.660   5.806 -0.1637  0.1405 -0.4600
 2571SOL     OW10049   0.926   6.025   2.044  0.4464  0.8071 -0.0358
 2571SOL    HW210050   1.017   6.019   2.018  0.9435  0.4246  1.6791
 2571SOL    HW310051   0.880   5.964   1.986  1.3225  0.7750 -0.7104
 2571SOL    MW410052   0.932   6.016   2.033  0.6276  0.7524  0.1015
 2572SOL     OW10053   0.188   0.329   0.994  0.0719 -0.2075 -0.1761
 2572SOL    HW210054   0.221   0.339   0.904  1.9082  2.4108  0.6458
 2572SOL    HW310055   0.150   0.415   1.015 -1.1734 -1.0659  1.2699
 2572SOL    MW410056   0.187   0.342   0.985  0.1498  0.0247  0.1231
 2573SOL     OW10057   3.611   3.855   2.516  0.4901 -0.1491  0.2223
 2573SOL    HW210058   3.569   3.808   2.444 -0.5388 -1.9251  1.8991
 2573SOL    HW310059   3.687   3.800   2.538  1.5583  1.0673 -0.3162
 2573SOL    MW410060   3.616   3.841   2.509  0.4953 -0.2229  0.3725
 2574SOL     OW10061   5.283   5.497   6.086 -0.3822  0.1510 -0.1576
 2574SOL    HW210062   5.378   5.502   6.074 -0.4656 -0.3058 -1.0730
 2574SOL    HW310063   5.267   5.541   6.169  0.9443 -2.1497  1.4587
 2574SOL    MW410064   5.294   5.503   6.095 -0.2182 -0.2128 -0.0651
 2575SOL     OW10065   5.203   3.331   1.943  0.3468 -0.0074  0.1245
 2575SOL    HW210066   5.265   3.292   1.882  0.0397 -0.0390 -0.1727
 2575SOL    HW310067   5.162   3.402   1.893  0.4012  0.2427  0.4344
 2575SOL    MW410068   5.206   3.335   1.928  0.3135  0.0215  0.1262
 2576SOL     OW10069   3.681   6.306   4.400  0.5207 -0.6222 -0.1763
 2576SOL    HW210070   3.767   6.272   4.377  1.0987  0.3251  0.5038
 2576SOL    HW310071   3.674   6.291   4.495  1.4225  2.3422  0.4644
 2576SOL    MW410072   3.692   6.299   4.410  0.7160 -0.1061 -0.0020
 2577SOL     OW10073   1.632   6.132   2.538  0.3137 -0.7710 -0.4763
 2577SOL    HW210074   1.595   6.219   2.529  1.5003 -0.3577 -1.6997
 2577SOL    HW310075   1.671   6.131   2.626  0.7658  0.1210 -0.6640
 2577SOL    MW410076   1.633   6.143   2.549  0.5299 -0.5988 -0.6625
 2578SOL     OW10077   1.174   6.170   2.644 -0.3373  0.0206 -0.5142
 2578SOL    HW210078   1.080   6.169   2.660 -0.3793 -2.0831 -0.6600
 2578SOL    HW310079   1.186   6.115   2.566  1.1445 -1.2188  0.5302
 2578SOL    MW410080   1.163   6.163   2.636 -0.1473 -0.4205 -0.3957
 2579SOL     OW10081   1.376   5.810   6.123 -0.0284 -0.4544 -0.2851
 2579SOL    HW210082   1.375   5.728   6.172 -0.8197 -0.1694  0.1920
 2579SOL    HW310083   1.431   5.869   6.176 -0.8580 -0.1558  0.2618
 2579SOL    MW410084   1.383   5.807   6.137 -0.2422 -0.3774 -0.1500
 2580SOL     OW10085   1.863   6.332   1.616  0.7854 -0.7330  0.0286
 2580SOL    HW210086   1.922   6.283   1.673 -0.2147 -0.3108  1.4901
 2580SOL    HW310087   1.887   6.306   1.527  2.9938 -0.7605  0.5724
 2580SOL    MW410088   1.874   6.322   1.612  0.9448 -0.6809  0.2932
 2581SOL     OW10089   1.955   2.079   0.263  0.5393  0.6652 -0.4341
 2581SOL    HW210090   1.943   2.174   0.259  0.2947  0.7348  1.3079
 2581SOL    HW310091   2.047   2.067   0.287  0.8009  0.4201 -1.4995
 2581SOL    MW410092   1.965   2.090   0.265  0.5415  0.6421 -0.3448
 2582SOL     OW10093   0.438   1.095   6.164 -0.2294 -0.4855 -0.2670
 2582SOL    HW210094   0.430   1.185   6.195  0.8638 -0.4318 -0.1068
 2582SOL    HW310095   0.451   1.102   6.070 -0.8062 -0.5108 -0.3491
 2582SOL    MW410096   0.439   1.107   6.156 -0.1613 -0.4817 -0.2567
 2583SOL     OW10097   6.239   6.007   1.390 -0.1752 -0.5543  0.8858
 2583SOL    HW210098   6.234   6.076   1.456 -1.7503  0.0699  0.1704
 2583SOL    HW310099   6.148   5.991   1.366  0.3340 -1.0568 -0.8331
 2583SOL    MW410100   6.226   6.014   1.396 -0.3158 -0.5382  0.5646
 2584SOL     OW10101   4.550   2.278   5.781 -0.0909  0.3648  0.1153
 2584SOL    HW210102   4.566   2.349   5.843 -0.0243  0.1283  0.3769
 2584SOL    HW310103   4.460   2.250   5.798  0.8757 -1.8251  2.3912
 2584SOL    MW410104   4.541   2.283   5.791  0.0454  0.0447  0.4501
 2585SOL     OW10105   0.293   4.091   2.345 -0.1692  0.1339 -0.4952
 2585SOL    HW210106   0.295   4.005   2.387  2.8158  0.3038 -0.0772
 2585SOL    HW310107   0.296   4.153   2.417 -0.9892  0.5787 -0.8344
 2585SOL    MW410108   0.294   4.088   2.360  0.1165  0.2150 -0.4848
 2586SOL     OW10109   2.562   2.844   0.455  0.2219  0.4347 -0.1369
 2586SOL    HW210110   2.648   2.853   0.415  0.3519 -0.2033 -0.0240
 2586SOL    HW310111   2.500   2.853   0.383  0.3270  1.8738 -0.0700
 2586SOL    MW410112   2.565   2.846   0.440  0.2529  0.5404 -0.1132
 2587SOL     OW10113   4.355   3.878   5.586 -0.0040 -0.0298  0.0814
 2587SOL    HW210114   4.341   3.784   5.574  0.2480  0.0539 -0.9552
 2587SOL    HW310115   4.446   3.893   5.559  0.1488  0.4277  0.8039
 2587SOL    MW410116   4.365   3.868   5.581  0.0494  0.0416  0.0400
 2588SOL     OW10117   2.071   0.577   6.287 -0.0173  0.7763 -0.3648
 2588SOL    HW210118   1.999   0.552   6.229  0.1836  0.6740 -0.5676
 2588SOL    HW310119   2.032   0.576   6.374 -0.3439  1.0117 -0.5011
 2588SOL    MW410120   2.056   0.574   6.291 -0.0339  0.7938 -0.4095
 2589SOL     OW10121   3.182   2.207   1.786 -0.0485 -0.2403 -0.4199
 2589SOL    HW210122   3.117   2.197   1.856  0.3073 -0.7048 -0.1466
 2589SOL    HW310123   3.265   2.214   1.833  0.5122 -3.1516 -0.8253
 2589SOL    MW410124   3.184   2.207   1.802  0.0725 -0.6857 -0.4373
 2590SOL     OW10125   1.872   1.762   4.897 -0.5058  0.8077  0.3286
 2590SOL    HW210126   1.930   1.821   4.945 -0.9341  1.1761  0.4071
 2590SOL    HW310127   1.882   1.677   4.939 -0.5127  1.0196  0.7616
 2590SOL    MW410128   1.881   1.759   4.908 -0.5632  0.8843  0.3961
 2591SOL     OW10129   2.943   5.941   2.895 -0.3060  0.5142  0.3016
 2591SOL    HW210130   2.910   5.856   2.866 -0.5826  0.2461  1.3772
 2591SOL    HW310131   3.027   5.922   2.937  1.0601  1.1298 -1.9690
 2591SOL    MW410132   2.950   5.928   2.897 -0.1622  0.5601  0.1440
 2592SOL     OW10133   0.427   3.717   3.248  0.7668  0.0512  0.2313
 2592SOL    HW210134   0.480   3.796   3.242 -0.2352  0.6749 -0.6930
 2592SOL    HW310135   0.413   3.690   3.157 -0.4737 -0.0992  0.4468
 2592SOL    MW410136   0.432   3.724   3.235  0.4709  0.1136  0.1378
 2593SOL     OW10137   2.728   4.703   3.031 -0.1096 -0.2646  0.5338
 2593SOL    HW210138   2.645   4.749   3.015  0.0113  0.0260  0.7425
 2593SOL    HW310139   2.745   4.717   3.124  1.0270  1.0945  0.1449
 2593SOL    MW410140   2.719   4.711   3.041  0.0563 -0.0469  0.5100
 2594SOL     OW10141   4.610   1.434   4.601  0.1967 -0.0038 -0.2856
 2594SOL    HW210142   4.659   1.382   4.537  1.2074 -0.5637  0.8927
 2594SOL    HW310143   4.548   1.372   4.640 -0.6896  0.4312 -0.9816
 2594SOL    MW410144   4.608   1.419   4.597  0.2131 -0.0203 -0.2219
 2595SOL     OW10145   3.742   0.717   4.265 -0.4150 -0.0174  0.0491
 2595SOL    HW210146   3.712   0.626   4.260 -1.7121  0.3951  0.1428
 2595SOL    HW310147   3.818   0.719   4.207 -1.4171 -0.7714 -1.3583
 2595SOL    MW410148   3.748   0.705   4.256 -0.7183 -0.0624 -0.1242
 2596SOL     OW10149   2.956   6.251   3.133 -0.0010 -0.2229 -0.1337
 2596SOL    HW210150   2.889   6.190   3.102 -0.2479  0.1728 -0.3889
 2596SOL    HW310151   3.027   6.195   3.164  0.0732 -0.6405 -1.0284
 2596SOL    MW410152   2.956   6.236   3.133 -0.0238 -0.2258 -0.2854
 2597SOL     OW10153   4.857   3.842   1.511  0.1641  0.0863  0.0806
 2597SOL    HW210154   4.935   3.815   1.463 -1.6208 -1.5207 -2.0897
 2597SOL    HW310155   4.844   3.933   1.485 -0.7189 -0.7102 -2.6320
 2597SOL    MW410156   4.866   3.851   1.501 -0.1879 -0.2308 -0.5637
 2598SOL     OW10157   5.072   5.385   0.578 -0.1067  0.4056  0.7243
 2598SOL    HW210158   5.018   5.344   0.510  0.4401  1.5495 -0.4266
 2598SOL    HW310159   5.010   5.438   0.629 -0.2829  0.7054  0.2017
 2598SOL    MW410160   5.057   5.387   0.576 -0.0578  0.5961  0.5035
 2599SOL     OW10161   5.267   3.592   0.226  0.8514  0.0225 -0.2210
 2599SOL    HW210162   5.295   3.603   0.317  1.0970  0.1701 -0.3129
 2599SOL    HW310163   5.349   3.585   0.176  0.7071 -1.0781 -0.3132
 2599SOL    MW410164   5.282   3.593   0.231  0.8647 -0.1033 -0.2453
 2600SOL     OW10165   5.103   5.630   3.372 -0.2398  0.0657 -0.2987
 2600SOL    HW210166   5.070   5.571   3.304 -0.7154  1.0848 -0.9795
 2600SOL    HW310167   5.033   5.694   3.384  0.2401  0.4531  0.4683
 2600SOL    MW410168   5.090   5.631   3.364 -0.2393  0.2513 -0.2873
 2601SOL     OW10169   2.140   1.320   3.915 -0.1543  0.6966  0.4111
 2601SOL    HW210170   2.071   1.276   3.964  0.3965  1.3024  1.7512
 2601SOL    HW310171   2.101   1.402   3.886 -0.4729  0.3465 -0.1741
 2601SOL    MW410172   2.126   1.325   3.917 -0.1237  0.7304  0.5107
 2602SOL     OW10173   0.499   1.384   5.644 -0.0508  0.0133  0.3742
 2602SOL    HW210174   0.588   1.380   5.609 -0.2108  0.3668 -0.0826
 2602SOL    HW310175   0.472   1.293   5.652  1.5253 -0.3108  3.5745
 2602SOL    MW410176   0.507   1.372   5.641  0.1360  0.0172  0.7362
 2603SOL     OW10177   3.879   3.532   4.612 -0.4849 -0.4026  0.1916
 2603SOL    HW210178   3.856   3.487   4.693  0.8674 -1.1827  0.1682
 2603SOL    HW310179   3.802   3.584   4.591 -1.1104 -0.7167  1.6081
 2603SOL    MW410180   3.866   3.533   4.620 -0.3890 -0.5469  0.3754
 2604SOL     OW10181   1.538   1.516   1.380  0.4925 -0.1514  0.8983
 2604SOL    HW210182   1.538   1.583   1.449  0.0438 -0.0914  0.8443
 2604SOL    HW310183   1.445   1.497   1.366  0.6283 -0.9741  1.0909
 2604SOL    MW410184   1.526   1.522   1.387  0.4512 -0.2520  0.9166
 2605SOL     OW10185   1.013   3.701   5.848 -0.3658 -0.7926  0.4433
 2605SOL    HW210186   0.963   3.624   5.821  0.3656 -1.3805  0.7400
 2605SOL    HW310187   1.096   3.666   5.880  0.2092  0.1607  0.0405
 2605SOL    MW410188   1.018   3.686   5.848 -0.1934 -0.7444  0.4293
 2606SOL     OW10189   3.112   4.873   3.121  0.1650  0.3354  0.3326
 2606SOL    HW210190   3.117   4.967   3.141  0.9787  0.0754  1.4560
 2606SOL    HW310191   3.195   4.854   3.077 -1.3545  0.7736 -2.9772
 2606SOL    MW410192   3.124   4.883   3.118  0.0719  0.3589  0.0442
 2607SOL     OW10193   2.439   0.327   5.976 -0.3897 -0.3541  0.1152
 2607SOL    HW210194   2.480   0.412   5.956  1.3105 -1.0916  0.3299
 2607SOL    HW310195   2.384   0.345   6.053  1.9616  0.0730  1.8250
 2607SOL    MW410196   2.437   0.341   5.984  0.1448 -0.3950  0.3691
 2608SOL     OW10197   5.133   4.530   6.018 -0.1462 -0.3115 -0.6581
 2608SOL    HW210198   5.111   4.610   5.970  0.0437  0.0652 -0.1262
 2608SOL    HW310199   5.064   4.468   5.994 -0.7462  0.2645 -0.4500
 2608SOL    MW410200   5.121   4.532   6.008 -0.2003 -0.1858 -0.5604
 2609SOL     OW10201   6.093   4.318   5.891 -0.2145 -0.3082  1.0539
 2609SOL    HW210202   6.031   4.346   5.959  0.6046 -0.0150  1.7003
 2609SOL    HW310203   6.142   4.398   5.870  0.3357 -0.6662  0.9715
 2609SOL    MW410204   6.091   4.332   5.897 -0.0338 -0.3167  1.1283
 2610SOL     OW10205   2.866   1.063   0.700 -0.4694 -0.4137  0.3094
 2610SOL    HW210206   2.928   1.112   0.755 -0.9225 -0.1043  0.5484
 2610SOL    HW310207   2.886   1.092   0.611 -0.7043  0.1852  0.4424
 2610SOL    MW410208   2.877   1.073   0.695 -0.5602 -0.2938  0.3585
 2611SOL     OW10209   0.546   1.359   1.724  0.2878  0.1895 -0.4392
 2611SOL    HW210210   0.471   1.397   1.678 -0.1423 -1.3398 -1.0543
 2611SOL    HW310211   0.598   1.435   1.752 -0.2798  1.2132 -2.0222
 2611SOL    MW410212   0.543   1.374   1.721  0.1562  0.1228 -0.7292
 2612SOL     OW10213   3.647   5.149   5.821 -0.1322  0.1248  0.2943
 2612SOL    HW210214   3.617   5.189   5.739 -0.4427  0.0654  0.3757
 2612SOL    HW310215   3.619   5.058   5.815  0.1484  0.0360  0.3199
 2612SOL    MW410216   3.639   5.143   5.809 -0.1361  0.1052  0.3084
 2613SOL     OW10217   2.058   3.814   3.929 -0.3951 -0.3433 -0.2755
 2613SOL    HW210218   2.068   3.791   4.021 -1.3217  1.8943  0.4361
 2613SOL    HW310219   2.127   3.765   3.885  0.8581 -0.5167  1.7529
 2613SOL    MW410220   2.068   3.804   3.935 -0.3520 -0.0710  0.0860
 2614SOL     OW10221   3.429   3.165   5.070 -0.3669 -0.4946  0.4074
 2614SOL    HW210222   3.458   3.181   4.980 -0.5036  0.6084  0.5488
 2614SOL    HW310223   3.453   3.244   5.117 -0.7904 -0.8437  1.2298
 2614SOL    MW410224   3.436   3.177   5.064 -0.4408 -0.3951  0.5346
 2615SOL     OW10225   3.950   3.446   3.829 -0.3497  0.5115 -0.1794
 2615SOL    HW210226   3.914   3.378   3.772 -0.3333  0.0184  0.3846
 2615SOL    HW310227   4.041   3.421   3.841 -0.2716  0.7870 -0.1849
 2615SOL    MW410228   3.957   3.434   3.823 -0.3372  0.4828 -0.1057
 2616SOL     OW10229   5.236   1.445   0.786 -0.0912 -0.2389  0.5937
 2616SOL    HW210230   5.153   1.475   0.825 -0.3053  0.4642 -0.3628
 2616SOL    HW310231   5.257   1.365   0.834 -1.6394 -0.7558  0.4753
 2616SOL    MW410232   5.228   1.438   0.798 -0.3237 -0.2143  0.4518
 2617SOL     OW10233   5.104   4.963   0.061  0.4164  0.7587 -0.0968
 2617SOL    HW210234   5.134   4.946  -0.028  0.3253 -2.0324  0.3315
 2617SOL    HW310235   5.012   4.988   0.052 -0.3035 -1.8934 -0.6819
 2617SOL    MW410236   5.096   4.964   0.048  0.3094  0.0405 -0.1175
 2618SOL     OW10237   4.337   6.416   3.882 -0.0422  0.6328 -0.4275
 2618SOL    HW210238   4.393   6.371   3.946  0.2209  2.8218  1.0235
 2618SOL    HW310239   4.367   6.384   3.797  1.3805 -0.4771  0.4423
 2618SOL    MW410240   4.349   6.406   3.879  0.1802  0.7752 -0.1213
 2619SOL     OW10241   6.345   1.692   3.649 -0.1893  0.3186  0.4243
 2619SOL    HW210242   6.252   1.689   3.625  0.1608 -0.6032 -0.8803
 2619SOL    HW310243   6.352   1.768   3.707 -1.7092  0.5409  0.3532
 2619SOL    MW410244   6.334   1.701   3.654 -0.3436  0.2263  0.2428
 2620SOL     OW10245   5.029   2.956   4.468  0.0692  0.5430  0.2003
 2620SOL    HW210246   4.951   2.904   4.487 -0.1283  1.3542  1.7688
 2620SOL    HW310247   5.102   2.900   4.492 -0.1585  1.3141  3.0865
 2620SOL    MW410248   5.028   2.942   4.474  0.0131  0.7518  0.7881
 2621SOL     OW10249   4.582   6.082   1.654 -0.3890  0.4565  0.1220
 2621SOL    HW210250   4.541   6.090   1.740  0.1420 -0.2591  0.4513
 2621SOL    HW310251   4.672   6.055   1.672  0.1202  1.5810 -0.6145
 2621SOL    MW410252   4.588   6.080   1.668 -0.2517  0.5104  0.0683
 2622SOL     OW10253   3.126   1.229   2.960  0.0253 -0.0747 -0.3256
 2622SOL    HW210254   3.076   1.280   2.897  2.2286 -1.8752 -3.8900
 2622SOL    HW310255   3.089   1.141   2.955  0.8435 -0.4631  0.1621
 2622SOL    MW410256   3.115   1.224   2.951  0.4239 -0.3635 -0.7316
 2623SOL     OW10257   2.888   6.210   1.406  0.0177  0.4873  0.1259
 2623SOL    HW210258   2.836   6.143   1.361  0.2371 -0.0087  0.6026
 2623SOL    HW310259   2.929   6.260   1.335 -0.2436  0.1936 -0.2351
 2623SOL    MW410260   2.887   6.208   1.390  0.0122  0.3831  0.1412
 2624SOL     OW10261   2.054   4.140   0.639  0.7112 -0.1704  0.3768
 2624SOL    HW210262   2.147   4.157   0.648  0.3492  0.9129  3.1414
 2624SOL    HW310263   2.014   4.182   0.715 -1.3830 -5.4498  2.7320
 2624SOL    MW410264   2.061   4.148   0.650  0.3871 -0.7240  1.0523
 2625SOL     OW10265   0.069   3.529   4.559 -0.3389 -0.6712  0.0810
 2625SOL    HW210266   0.017   3.471   4.614  0.2650 -1.6486 -0.3406
 2625SOL    HW310267   0.153   3.537   4.604  0.3851 -1.9813 -0.9542
 2625SOL    MW410268   0.073   3.522   4.572 -0.1637 -0.9730 -0.1112
 2626SOL     OW10269   0.675   4.920   0.724 -0.0354 -0.0295  0.2918
 2626SOL    HW210270   0.581   4.907   0.709  0.0450 -1.2767  0.7822
 2626SOL    HW310271   0.680   5.003   0.771 -1.0284 -0.7045  1.6599
 2626SOL    MW410272   0.663   4.930   0.728 -0.1558 -0.2831  0.5370
 2627SOL     OW10273   2.578   0.358   3.916  0.0484 -0.0145  0.0723
 2627SOL    HW210274   2.650   0.360   3.978 -1.1890 -1.6546  1.6631
 2627SOL    HW310275   2.559   0.265   3.903 -0.9840  0.3425 -1.2581
 2627SOL    MW410276   2.585   0.346   3.922 -0.2510 -0.1838  0.1067
 2628SOL     OW10277   6.376   2.469   1.654  0.3339 -0.6179  0.0085
 2628SOL    HW210278   6.364   2.395   1.595 -1.3449 -0.5650  0.2323
 2628SOL    HW310279   6.376   2.431   1.741 -0.9041 -0.3268  0.1431
 2628SOL    MW410280   6.375   2.455   1.658 -0.0509 -0.5725  0.0558
 2629SOL     OW10281   4.972   0.337   5.797  0.8604  0.0167 -0.6046
 2629SOL    HW210282   5.053   0.371   5.834  0.3894 -0.2378  0.7378
 2629SOL    HW310283   4.926   0.415   5.765  0.6156  0.4500  0.7468
 2629SOL    MW410284   4.976   0.352   5.798  0.7660  0.0403 -0.2492
 2630SOL     OW10285   6.396   1.135   4.383 -1.0549  0.4306  0.2957
 2630SOL    HW210286   6.402   1.152   4.477  0.1026 -0.1969  0.3568
 2630SOL    HW310287   6.449   1.205   4.343 -0.9170  0.2529  0.1653
 2630SOL    MW410288   6.404   1.147   4.390 -0.8840  0.3244  0.2866
 2631SOL     OW10289   6.312   1.674   5.614 -0.6585 -0.1735 -0.6154
 2631SOL    HW210290   6.350   1.701   5.697 -1.5078  1.9364 -0.8499
 2631SOL    HW310291   6.338   1.742   5.552  0.2516 -1.8689 -2.2030
 2631SOL    MW410292   6.320   1.686   5.617 -0.6505 -0.1188 -0.8558
 2632SOL     OW10293   5.777   4.616   4.495  0.2194  0.6609  0.4801
 2632SOL    HW210294   5.795   4.525   4.520  0.4068  0.6609  0.3533
 2632SOL    HW310295   5.856   4.664   4.519  0.5777  0.5832 -0.4786
 2632SOL    MW410296   5.790   4.610   4.501  0.2914  0.6507  0.3369
 2633SOL     OW10297   1.564   1.987   2.066 -0.1886  0.3308 -0.3230
 2633SOL    HW210298   1.609   1.911   2.104  1.2256  2.1465  1.9416
 2633SOL    HW310299   1.484   1.995   2.117 -0.3125  0.3892 -0.5261
 2633SOL    MW410300   1.559   1.978   2.078 -0.0183  0.5780 -0.0510
 2634SOL     OW10301   0.496   5.151   0.097 -0.0898  0.2799  0.0228
 2634SOL    HW210302   0.508   5.098   0.176 -1.4104  0.3166  0.2743
 2634SOL    HW310303   0.554   5.111   0.033  0.1794 -0.4385  0.6928
 2634SOL    MW410304   0.505   5.139   0.099 -0.2285  0.1900  0.1444
 2635SOL     OW10305   1.114   4.485   4.321 -0.7812  0.0435  0.3667
 2635SOL    HW210306   1.128   4.512   4.230  1.7049 -0.6841  0.4534
 2635SOL    HW310307   1.137   4.562   4.373  0.3114 -0.3192  0.4353
 2635SOL    MW410308   1.119   4.499   4.316 -0.3090 -0.1004  0.3872
 2636SOL     OW10309   1.628   1.121   0.841 -0.1800 -0.1515 -0.5763
 2636SOL    HW210310   1.717   1.112   0.875 -0.6241 -0.1779  0.6326
 2636SOL    HW310311   1.586   1.038   0.865 -0.8971  0.3781  0.0134
 2636SOL    MW410312   1.634   1.109   0.848 -0.3332 -0.0851 -0.3390
 2637SOL     OW10313   3.117   4.008   1.436  0.5543  0.4509  0.2662
 2637SOL    HW210314   3.209   4.007   1.464  0.7191  0.7965 -0.2427
 2637SOL    HW310315   3.077   3.933   1.481  1.4121 -0.5462 -0.5824
 2637SOL    MW410316   3.124   3.998   1.446  0.6892  0.3649  0.0871
 2638SOL     OW10317   2.856   0.208   1.560  0.3162 -0.0430  0.1678
 2638SOL    HW210318   2.913   0.191   1.635 -0.5953  0.9317  1.1240
 2638SOL    HW310319   2.856   0.303   1.551 -0.2376 -0.0989 -0.5437
 2638SOL    MW410320   2.863   0.218   1.569  0.1229  0.0782  0.2001
 2639SOL     OW10321   3.925   5.901   4.121  0.1628  0.2895  0.2262
 2639SOL    HW210322   4.002   5.856   4.088 -2.0885 -2.9730 -1.1276
 2639SOL    HW310323   3.935   5.899   4.217  2.3092  1.1883  0.0627
 2639SOL    MW410324   3.937   5.895   4.130  0.1489 -0.0223  0.0260
 2640SOL     OW10325   5.176   6.015   0.291 -0.0860 -0.2365  0.3924
 2640SOL    HW210326   5.261   5.986   0.261  0.8530  0.3650  2.2772
 2640SOL    HW310327   5.154   6.088   0.234  0.1417 -1.0708 -0.7884
 2640SOL    MW410328   5.184   6.021   0.280  0.0679 -0.2672  0.4853
 2641SOL     OW10329   0.904   0.378   6.259 -0.0180 -0.1626 -0.1804
 2641SOL    HW210330   0.847   0.321   6.208 -0.5121 -0.9098  1.1619
 2641SOL    HW310331   0.844   0.440   6.302  0.3889  0.4725 -0.5178
 2641SOL    MW410332   0.889   0.379   6.258 -0.0295 -0.1774 -0.0478
 2642SOL     OW10333   5.763   3.631   2.211  0.5720 -0.7975  0.3529
 2642SOL    HW210334   5.717   3.707   2.247  1.3744 -0.6533  1.0976
 2642SOL    HW310335   5.825   3.668   2.148  0.1845 -0.9387 -0.1247
 2642SOL    MW410336   5.765   3.646   2.207  0.6268 -0.7971  0.3881
 2643SOL     OW10337   5.488   3.039   5.830  0.2160 -0.1846 -0.0351
 2643SOL    HW210338   5.481   2.950   5.794 -0.2012 -0.3379  0.4135
 2643SOL    HW310339   5.484   3.027   5.925 -0.3998  0.3551  0.0205
 2643SOL    MW410340   5.486   3.026   5.838  0.0797 -0.1336  0.0314
 2644SOL     OW10341   4.342   5.287   4.024  0.1138  0.5030  0.2471
 2644SOL    HW210342   4.397   5.236   3.966  2.6472  1.0846  1.9593
 2644SOL    HW310343   4.299   5.222   4.080 -0.3447  0.0732 -0.5923
 2644SOL    MW410344   4.344   5.272   4.024  0.3875  0.5230  0.3623
 2645SOL     OW10345   3.941   5.925   1.033  0.2175 -0.3324 -0.1756
 2645SOL    HW210346   3.984   5.842   1.015  0.1620 -0.5195  0.5252
 2645SOL    HW310347   3.915   5.958   0.947  0.7831 -0.7412 -0.5121
 2645SOL    MW410348   3.944   5.919   1.019  0.2848 -0.4110 -0.1275
 2646SOL     OW10349   2.335   4.115   0.509  0.2633  0.0132 -0.2723
 2646SOL    HW210350   2.385   4.052   0.561  2.3025  1.7140 -0.0101
 2646SOL    HW310351   2.283   4.062   0.449  0.5001 -1.9193  1.1484
 2646SOL    MW410352   2.335   4.100   0.508  0.5636 -0.0173 -0.0503
 2647SOL     OW10353   1.098   0.358   1.310  1.0836  0.3771  0.9281
 2647SOL    HW210354   1.095   0.264   1.329  0.4844  0.1112 -0.3223
 2647SOL    HW310355   1.019   0.394   1.351 -0.2819 -0.2124 -0.9978
 2647SOL    MW410356   1.087   0.350   1.318  0.8244  0.2642  0.5090
 2648SOL     OW10357   5.125   0.148   1.753 -0.0147 -0.3012  0.3311
 2648SOL    HW210358   5.105   0.059   1.723 -0.5921 -0.8363  2.1713
 2648SOL    HW310359   5.210   0.142   1.795  1.1961  0.6273 -1.8275
 2648SOL    MW410360   5.133   0.136   1.754  0.0688 -0.2493  0.2891
 2649SOL     OW10361   4.533   6.035   5.926 -0.7883 -0.1507 -0.0012
 2649SOL    HW210362   4.460   6.087   5.962  0.6042  1.9663 -0.0698
 2649SOL    HW310363   4.526   6.047   5.832 -0.2734  0.1905  0.0007
 2649SOL    MW410364   4.522   6.043   5.919 -0.5366  0.1736 -0.0100
 2650SOL     OW10365   0.700   6.081   3.419  0.6358  0.3817 -0.1776
 2650SOL    HW210366   0.662   6.088   3.507 -0.1386  0.6322 -0.5275
 2650SOL    HW310367   0.747   6.163   3.407 -0.1063  0.7766 -0.3920
 2650SOL    MW410368   0.701   6.093   3.429  0.4358  0.4668 -0.2521
 2651SOL     OW10369   5.833   0.520   3.329 -1.0424  0.6309 -0.0892
 2651SOL    HW210370   5.842   0.614   3.343 -1.1465  0.4934  1.0378
 2651SOL    HW310371   5.792   0.511   3.243  1.7396  1.5235 -1.6090
 2651SOL    MW410372   5.829   0.531   3.320 -0.6891  0.7305 -0.1410
 2652SOL     OW10373   6.375   3.552   5.751 -0.7728 -0.1308 -0.5304
 2652SOL    HW210374   6.378   3.633   5.700 -0.3278  1.3051  1.5960
 2652SOL    HW310375   6.306   3.500   5.710  0.1774  0.4810 -3.0852
 2652SOL    MW410376   6.366   3.556   5.739 -0.5887  0.1394 -0.5870
 2653SOL     OW10377   2.807   1.254   3.192 -0.4068  0.0527 -0.0399
 2653SOL    HW210378   2.728   1.293   3.229 -0.3626 -0.2851  0.4159
 2653SOL    HW310379   2.851   1.327   3.148 -0.6952  0.3598  0.1738
 2653SOL    MW410380   2.803   1.269   3.191 -0.4390  0.0486  0.0485
 2654SOL     OW10381   0.739   3.400   2.675  0.2714 -0.4699 -0.2606
 2654SOL    HW210382   0.814   3.368   2.725  0.7312 -0.1829 -0.7558
 2654SOL    HW310383   0.777   3.438   2.596 -0.5447 -3.4420 -2.2643
 2654SOL    MW410384   0.754   3.401   2.671  0.2244 -0.8241 -0.5903
 2655SOL     OW10385   2.381   5.502   5.647 -0.9193  0.1222 -0.5200
 2655SOL    HW210386   2.457   5.504   5.706  1.8193  1.1518 -3.7326
 2655SOL    HW310387   2.331   5.579   5.671  0.0680  0.4842  0.5013
 2655SOL    MW410388   2.385   5.512   5.658 -0.4277  0.3058 -0.8091
 2656SOL     OW10389   2.931   5.269   0.194 -0.2809  0.0500  0.2542
 2656SOL    HW210390   3.004   5.209   0.182  1.0801  1.5546  0.6915
 2656SOL    HW310391   2.933   5.325   0.116  0.1189  1.1880  1.0617
 2656SOL    MW410392   2.941   5.269   0.182 -0.0486  0.3986  0.4184
 2657SOL     OW10393   5.056   5.371   5.233  0.0324  0.4638  0.1281
 2657SOL    HW210394   5.087   5.379   5.142 -0.8741 -0.7869 -0.3303
 2657SOL    HW310395   5.117   5.423   5.284 -0.4088  2.5849 -1.3881
 2657SOL    MW410396   5.068   5.379   5.227 -0.1454  0.5786 -0.1324
 2658SOL     OW10397   3.970   3.205   3.365  0.0093 -0.0359 -0.3345
 2658SOL    HW210398   3.911   3.132   3.385 -1.5633  0.2283 -3.5205
 2658SOL    HW310399   4.027   3.171   3.296  0.6543  1.1078 -0.3912
 2658SOL    MW410400   3.970   3.191   3.359 -0.1131  0.1499 -0.7623
 2659SOL     OW10401   1.018   3.849   1.251 -0.2114 -0.1365  0.5679
 2659SOL    HW210402   0.944   3.861   1.311  0.2133 -1.2799  1.3671
 2659SOL    HW310403   1.065   3.773   1.286  0.3645 -0.5079 -0.9153
 2659SOL    MW410404   1.014   3.840   1.264 -0.0794 -0.3363  0.4776
 2660SOL     OW10405   4.518   0.870   3.954 -0.1677 -0.1665 -0.2770
 2660SOL    HW210406   4.531   0.904   3.866  2.6814  1.0827  0.5231
 2660SOL    HW310407   4.580   0.797   3.961 -0.3213 -0.2191  0.7027
 2660SOL    MW410408   4.528   0.865   3.944  0.1879 -0.0086 -0.0422
 2661SOL     OW10409   5.551   1.505   2.323 -0.2336 -0.4421 -0.0673
 2661SOL    HW210410   5.611   1.550   2.382 -1.2928  3.8100 -1.8588
 2661SOL    HW310411   5.489   1.461   2.382  1.0163  0.2984  1.9060
 2661SOL    MW410412   5.551   1.505   2.339 -0.2084  0.2166 -0.0433
 2662SOL     OW10413   0.830   6.064   4.512  0.8010 -0.0240  0.3441
 2662SOL    HW210414   0.909   6.117   4.505  0.0909  1.1481  0.8853
 2662SOL    HW310415   0.843   5.993   4.449  1.5504  1.1047 -0.8317
 2662SOL    MW410416   0.842   6.062   4.503  0.8062  0.2795  0.2604
 2663SOL     OW10417   2.329   4.096   3.963 -0.2166  0.1294 -0.7544
 2663SOL    HW210418   2.393   4.121   4.030 -1.0869 -0.4019  0.3162
 2663SOL    HW310419   2.253   4.150   3.982 -0.9648 -1.0069 -0.4240
 2663SOL    MW410420   2.328   4.106   3.974 -0.4302 -0.0906 -0.5696
 2664SOL     OW10421   6.023   6.284   4.817  0.0951 -0.1955 -0.3841
 2664SOL    HW210422   6.086   6.304   4.748  1.5167  0.1630  0.9601
 2664SOL    HW310423   5.949   6.342   4.800  0.3963 -0.1570 -1.6237
 2664SOL    MW410424   6.021   6.294   4.806  0.3224 -0.1431 -0.3703
 2665SOL     OW10425   2.748   6.284   3.486 -0.1448 -0.2166  0.5250
 2665SOL    HW210426   2.774   6.273   3.578 -2.2341  1.0881  1.3347
 2665SOL    HW310427   2.803   6.355   3.454 -0.0768 -0.0221  1.0641
 2665SOL    MW410428   2.759   6.292   3.494 -0.4115 -0.0188  0.7029
 2666SOL     OW10429   0.635   0.629   5.334 -0.2777  0.1212 -0.3225
 2666SOL    HW210430   0.630   0.535   5.317 -3.5713  0.2505 -0.7410
 2666SOL    HW310431   0.653   0.668   5.249  2.0917 -0.0719  0.0076
 2666SOL    MW410432   0.637   0.621   5.321 -0.3997  0.1128 -0.3342
 2667SOL     OW10433   1.256   1.237   2.390  0.0257  0.0150 -0.5050
 2667SOL    HW210434   1.258   1.172   2.461 -2.2600 -0.0071 -0.3896
 2667SOL    HW310435   1.318   1.304   2.418  2.6469 -2.1257 -0.7286
 2667SOL    MW410436   1.264   1.237   2.403  0.0700 -0.2703 -0.5193
 2668SOL     OW10437   1.890   5.558   3.001 -0.6312  0.3641 -0.1337
 2668SOL    HW210438   1.866   5.556   2.909  0.8816 -0.8219 -0.5572
 2668SOL    HW310439   1.817   5.517   3.047 -1.5337  1.2565 -0.7442
 2668SOL    MW410440   1.877   5.552   2.995 -0.5507  0.3254 -0.2701
 2669SOL     OW10441   6.358   3.310   5.268 -0.0183  0.1843 -0.2606
 2669SOL    HW210442   6.400   3.376   5.323  1.2097 -0.9547  0.2494
 2669SOL    HW310443   6.333   3.240   5.330  0.7641 -0.8114 -1.0294
 2669SOL    MW410444   6.360   3.309   5.284  0.2469 -0.0974 -0.2947
 2670SOL     OW10445   0.496   4.738   5.390 -0.1514  0.2923 -0.5287
 2670SOL    HW210446   0.494   4.729   5.295  2.5168 -3.0017 -0.4829
 2670SOL    HW310447   0.589   4.730   5.412 -0.7355  0.5192  2.3986
 2670SOL    MW410448   0.508   4.736   5.380  0.1236 -0.1124 -0.1365
 2671SOL     OW10449   0.427   0.635   6.127  0.2514 -0.1989 -0.6277
 2671SOL    HW210450   0.432   0.595   6.214  0.9697 -0.7542 -0.9163
 2671SOL    HW310451   0.334   0.657   6.116  0.5075  2.3062  1.3491
 2671SOL    MW410452   0.415   0.633   6.137  0.3799  0.0584 -0.4050
 2672SOL     OW10453   1.141   5.940   5.227  0.1501 -0.1665 -0.2921
 2672SOL    HW210454   1.120   6.033   5.223 -1.3701 -0.5084 -2.1826
 2672SOL    HW310455   1.232   5.934   5.198  0.9313  0.8446  1.7668
 2672SOL    MW410456   1.150   5.951   5.223  0.0526 -0.0782 -0.2699
 2673SOL     OW10457   1.540   2.866   2.871 -0.0409  0.2176  0.1480
 2673SOL    HW210458   1.571   2.864   2.780  0.3851 -0.6234  0.3060
 2673SOL    HW310459   1.592   2.799   2.916  0.3166  1.1710  1.2014
 2673SOL    MW410460   1.551   2.857   2.865  0.0625  0.2325  0.3078
 2674SOL     OW10461   3.205   3.899   2.426  0.3240  0.7158  0.0392
 2674SOL    HW210462   3.262   3.928   2.354  0.6774 -1.5257 -0.6746
 2674SOL    HW310463   3.139   3.845   2.383  2.2175 -3.1789  1.5202
 2674SOL    MW410464   3.204   3.896   2.411  0.6205 -0.0938  0.1404
 2675SOL     OW10465   5.292   0.800   5.451 -0.2516  0.2835 -0.1974
 2675SOL    HW210466   5.235   0.854   5.507 -0.6165 -0.3589  0.0636
 2675SOL    HW310467   5.253   0.713   5.454  0.9235 -0.2614  0.2602
 2675SOL    MW410468   5.280   0.796   5.459 -0.1447  0.1268 -0.1026
 2676SOL     OW10469   6.374   6.088   2.905 -0.2364  0.6115  0.0408
 2676SOL    HW210470   6.431   6.115   2.977 -0.8595  0.5549  0.5594
 2676SOL    HW310471   6.296   6.053   2.947 -0.0396 -0.7195 -0.6427
 2676SOL    MW410472   6.371   6.087   2.920 -0.2926  0.4284  0.0190
 2677SOL     OW10473   5.573   2.613   4.360 -0.2739 -0.1430  0.1404
 2677SOL    HW210474   5.658   2.648   4.337 -0.2495 -0.3563 -0.0941
 2677SOL    HW310475   5.545   2.665   4.436  0.8239 -1.1928  1.3139
 2677SOL    MW410476   5.580   2.624   4.367 -0.1259 -0.3096  0.2643
 2678SOL     OW10477   1.349   1.813   1.102  0.1926  0.1570 -0.3085
 2678SOL    HW210478   1.310   1.866   1.032 -1.7145  1.0915  1.3559
 2678SOL    HW310479   1.299   1.731   1.101  0.3560  0.0536 -0.2097
 2678SOL    MW410480   1.337   1.809   1.092 -0.0374  0.2666 -0.0759
 2679SOL     OW10481   0.282   2.947   2.843 -0.0419 -0.0898  0.3367
 2679SOL    HW210482   0.360   2.912   2.885 -0.1039  0.0108  0.5333
 2679SOL    HW310483   0.229   2.982   2.914  0.0940  0.5562  0.1323
 2679SOL    MW410484   0.285   2.947   2.858 -0.0322  0.0087  0.3357
 2680SOL     OW10485   4.871   3.059   1.916 -0.1157  0.4982  0.4190
 2680SOL    HW210486   4.925   3.122   1.964  1.8090 -1.0929  0.4545
 2680SOL    HW310487   4.782   3.077   1.946  0.5531  2.2228  1.5179
 2680SOL    MW410488   4.866   3.070   1.927  0.2265  0.5158  0.5687
 2681SOL     OW10489   1.518   4.215   3.553 -0.3271  0.3199 -0.0915
 2681SOL    HW210490   1.476   4.213   3.639  0.0806  2.2755  0.2148
 2681SOL    HW310491   1.612   4.213   3.571 -0.2405  0.4263 -0.5094
 2681SOL    MW410492   1.525   4.215   3.567 -0.2619  0.5920 -0.1063
 2682SOL     OW10493   4.303   5.868   5.726 -0.4015 -0.8032 -0.1676
 2682SOL    HW210494   4.370   5.836   5.786  0.9329 -0.2898 -1.3371
 2682SOL    HW310495   4.319   5.822   5.644 -1.7698 -0.9885 -0.3567
 2682SOL    MW410496   4.314   5.858   5.723 -0.4060 -0.7599 -0.3469
 2683SOL     OW10497   3.427   4.673   4.718  0.0676  0.1562 -0.3373
 2683SOL    HW210498   3.484   4.709   4.786 -0.4077  0.7534 -0.2448
 2683SOL    HW310499   3.388   4.595   4.757  0.1354  0.2524 -0.0786
 2683SOL    MW410500   3.429   4.667   4.732  0.0138  0.2477 -0.2909
 2684SOL     OW10501   4.893   4.108   1.394  0.3547  0.0273  0.3093
 2684SOL    HW210502   4.842   4.079   1.319  0.1662  0.4811  0.2593
 2684SOL    HW310503   4.834   4.166   1.442  0.4755 -0.2534  0.8055
 2684SOL    MW410504   4.879   4.112   1.391  0.3458  0.0501  0.3682
 2685SOL     OW10505   3.161   1.387   1.730 -0.4906  0.0353 -0.0041
 2685SOL    HW210506   3.254   1.364   1.735 -0.4825  0.2674  1.2547
 2685SOL    HW310507   3.161   1.474   1.689 -0.2282 -0.3043 -0.7611
 2685SOL    MW410508   3.174   1.396   1.725 -0.4549  0.0211  0.0621
 2686SOL     OW10509   2.613   2.713   2.736 -0.0963  0.1086  0.3909
 2686SOL    HW210510   2.613   2.630   2.689  0.5272 -0.0227  0.6202
 2686SOL    HW310511   2.673   2.700   2.809  1.1740  1.2278 -0.4024
 2686SOL    MW410512   2.621   2.700   2.739  0.1536  0.2390  0.3165
 2687SOL     OW10513   0.871   1.562   1.106 -0.2735  0.0531 -0.2341
 2687SOL    HW210514   0.901   1.651   1.124 -0.3352  0.1009 -0.3669
 2687SOL    HW310515   0.841   1.529   1.191 -0.8980  0.4027 -0.3127
 2687SOL    MW410516   0.871   1.570   1.120 -0.3641  0.1056 -0.2620
 2688SOL     OW10517   2.619   2.395   5.890 -0.5730  0.2385 -0.2949
 2688SOL    HW210518   2.593   2.311   5.853 -1.6832 -0.9197  2.7891
 2688SOL    HW310519   2.685   2.374   5.956  1.0705  2.1433 -1.2101
 2688SOL    MW410520   2.624   2.381   5.893 -0.5026  0.3370 -0.0088
 2689SOL     OW10521   3.145   2.063   5.550 -0.3660  0.3338  0.2369
 2689SOL    HW210522   3.100   2.142   5.580  1.5604  0.8700  1.9930
 2689SOL    HW310523   3.236   2.091   5.538  0.2456 -1.4665  0.3284
 2689SOL    MW410524   3.151   2.077   5.553 -0.0312  0.1670  0.4807
 2690SOL     OW10525   2.527   0.136   2.316 -0.4252 -1.1110 -0.0857
 2690SOL    HW210526   2.541   0.064   2.254 -1.5937 -2.2167  0.8786
 2690SOL    HW310527   2.608   0.139   2.367 -0.0159 -1.1335 -0.7217
 2690SOL    MW410528   2.539   0.126   2.314 -0.5254 -1.2598 -0.0423
 2691SOL     OW10529   5.521   1.103   5.556  0.4504 -0.2226 -0.9104
 2691SOL    HW210530   5.562   1.187   5.576 -0.0621 -0.3156  0.7193
 2691SOL    HW310531   5.515   1.100   5.461  0.6918  1.4859 -0.9980
 2691SOL    MW410532   5.525   1.113   5.546  0.4146 -0.0094 -0.7069
 2692SOL     OW10533   6.356   4.025   6.243  0.3092 -0.1748  0.2714
 2692SOL    HW210534   6.353   4.061   6.332  0.1640 -0.6057  0.4410
 2692SOL    HW310535   6.281   4.065   6.199 -0.5291 -1.1414  0.7978
 2692SOL    MW410536   6.346   4.035   6.249  0.1795 -0.3592  0.3632
 2693SOL     OW10537   1.646   4.643   2.087  1.2048 -0.4822  0.0412
 2693SOL    HW210538   1.700   4.709   2.044  0.4728  0.2912  0.2771
 2693SOL    HW310539   1.577   4.694   2.131  0.2635 -1.4380 -0.2988
 2693SOL    MW410540   1.644   4.659   2.087  0.9840 -0.5063  0.0274
 2694SOL     OW10541   5.776   3.893   2.965 -0.3148  0.3613 -0.3965
 2694SOL    HW210542   5.722   3.897   2.886  0.8654  0.0735 -1.2449
 2694SOL    HW310543   5.864   3.912   2.934  0.6378 -2.4136  0.3753
 2694SOL    MW410544   5.780   3.896   2.951 -0.0334 -0.0428 -0.4066
 2695SOL     OW10545   4.694   4.840   3.622  0.8143 -0.1725 -0.5656
 2695SOL    HW210546   4.696   4.744   3.621  0.7835 -0.1747 -0.4626
 2695SOL    HW310547   4.663   4.864   3.535 -0.5092 -0.2916 -0.1478
 2695SOL    MW410548   4.690   4.830   3.610  0.6356 -0.1885 -0.4969
 2696SOL     OW10549   6.109   4.418   6.228 -0.8871  0.1935  0.3961
 2696SOL    HW210550   6.128   4.428   6.321  1.3063  1.0024 -0.0727
 2696SOL    HW310551   6.049   4.489   6.208  1.6369  2.5329  0.5050
 2696SOL    MW410552   6.104   4.429   6.237 -0.2647  0.6089  0.3486
 2697SOL     OW10553   2.829   2.696   1.967 -0.6554 -0.3050  0.2580
 2697SOL    HW210554   2.837   2.777   2.017  0.3919  0.7157 -1.4724
 2697SOL    HW310555   2.743   2.660   1.992 -0.3900  0.4209  2.3359
 2697SOL    MW410556   2.818   2.702   1.977 -0.4822 -0.0745  0.3038
 2698SOL     OW10557   1.553   6.370   2.845 -0.2127  0.4977 -0.5975
 2698SOL    HW210558   1.539   6.433   2.774 -1.0383  0.6488 -0.3061
 2698SOL    HW310559   1.465   6.345   2.873  0.0913 -0.9666 -0.8539
 2698SOL    MW410560   1.540   6.375   2.839 -0.2815  0.3244 -0.5929
 2699SOL     OW10561   4.938   0.414   3.086 -0.2167 -0.0257  0.5928
 2699SOL    HW210562   4.948   0.385   2.996 -0.9890  1.2871  0.0571
 2699SOL    HW310563   5.025   0.445   3.111 -0.2640  0.6851 -0.1003
 2699SOL    MW410564   4.951   0.414   3.078 -0.3249  0.2413  0.4306
 2700SOL     OW10565   0.297   3.128   1.827 -0.4441 -0.7768 -0.2478
 2700SOL    HW210566   0.359   3.177   1.881  0.5018 -1.1624 -0.9544
 2700SOL    HW310567   0.227   3.102   1.888 -0.1204  0.0164  0.4755
 2700SOL    MW410568   0.296   3.131   1.842 -0.2766 -0.7230 -0.2456
 2701SOL     OW10569   5.271   1.452   1.325 -0.4835  0.2280  0.6190
 2701SOL    HW210570   5.238   1.538   1.298 -1.3646 -0.4665 -0.6209
 2701SOL    HW310571   5.354   1.442   1.278  0.3370  0.9512  1.8480
 2701SOL    MW410572   5.278   1.462   1.315 -0.4915  0.2318  0.6176
 2702SOL     OW10573   0.182   3.897   0.024 -0.5362 -0.1751 -1.0125
 2702SOL    HW210574   0.245   3.825   0.016 -0.9986 -0.7627  0.1650
 2702SOL    HW310575   0.181   3.939  -0.061  1.3301 -0.2410 -1.1004
 2702SOL    MW410576   0.190   3.893   0.012 -0.3510 -0.2613 -0.8687
 2703SOL     OW10577   4.091   5.695   3.786 -0.2599  0.9000  0.0267
 2703SOL    HW210578   4.097   5.676   3.879  0.5752  2.2177  0.2669
 2703SOL    HW310579   4.065   5.612   3.746  0.4251  0.0348  1.3116
 2703SOL    MW410580   4.088   5.681   3.793 -0.0593  0.9597  0.2279
 2704SOL     OW10581   5.688   4.222   0.350  0.4654  0.2310  0.4931
 2704SOL    HW210582   5.618   4.258   0.296  0.4211 -1.1143 -0.3952
 2704SOL    HW310583   5.703   4.287   0.418 -0.2780  1.4388 -0.4754
 2704SOL    MW410584   5.681   4.235   0.352  0.3615  0.2128  0.2481
 2705SOL     OW10585   4.100   5.565   3.471 -0.0179 -0.2027 -0.1427
 2705SOL    HW210586   4.027   5.542   3.414  1.2504 -1.0189 -1.4742
 2705SOL    HW310587   4.176   5.522   3.433  1.3206  1.2181  0.7960
 2705SOL    MW410588   4.100   5.556   3.459  0.3260 -0.1229 -0.1945
 2706SOL     OW10589   2.782   3.923   5.575 -0.4734 -0.1561  0.3211
 2706SOL    HW210590   2.765   3.957   5.487 -0.1301 -1.2934 -0.2100
 2706SOL    HW310591   2.823   3.996   5.622  2.0323 -0.3905 -1.3568
 2706SOL    MW410592   2.785   3.937   5.570 -0.0975 -0.3371  0.0297
 2707SOL     OW10593   5.478   2.023   4.047  0.2479 -0.0054  0.6822
 2707SOL    HW210594   5.451   2.109   4.076  2.2045  0.5811  0.9346
 2707SOL    HW310595   5.522   1.985   4.123 -0.1089 -1.0142  0.4006
 2707SOL    MW410596   5.480   2.029   4.061  0.4590 -0.0611  0.6783
 2708SOL     OW10597   5.607   6.339   5.566 -0.1547  0.0367  0.2626
 2708SOL    HW210598   5.690   6.301   5.537  0.2696  0.8091  0.4364
 2708SOL    HW310599   5.562   6.361   5.484  1.0002  2.1263  0.1169
 2708SOL    MW410600   5.612   6.337   5.551  0.0536  0.4143  0.2663
 2709SOL     OW10601   3.650   1.567   1.884 -0.0832 -0.0124  0.3083
 2709SOL    HW210602   3.602   1.626   1.942 -0.2074 -1.1442  1.4078
 2709SOL    HW310603   3.738   1.604   1.880  0.3327 -0.6486  2.3986
 2709SOL    MW410604   3.655   1.580   1.891 -0.0447 -0.2457  0.7291
 2710SOL     OW10605   1.200   2.354   2.547  0.5728  0.1598  0.1691
 2710SOL    HW210606   1.119   2.327   2.505 -0.3179 -0.3525  2.1188
 2710SOL    HW310607   1.204   2.448   2.532 -1.6550  0.6301  2.0554
 2710SOL    MW410608   1.190   2.363   2.539  0.1613  0.1543  0.6752
 2711SOL     OW10609   4.565   3.612   4.708  0.0523  0.0739 -0.0820
 2711SOL    HW210610   4.636   3.561   4.668  0.1268 -0.9473  1.2707
 2711SOL    HW310611   4.605   3.697   4.727  0.3871  0.1181 -0.9281
 2711SOL    MW410612   4.580   3.617   4.705  0.1063 -0.0550 -0.0151
 2712SOL     OW10613   6.194   5.624   5.076  0.1019  0.3191  0.0100
 2712SOL    HW210614   6.252   5.550   5.098  1.1435  1.1576  0.1787
 2712SOL    HW310615   6.107   5.585   5.067  0.4349 -0.7491  1.2194
 2712SOL    MW410616   6.190   5.609   5.078  0.2833  0.2888  0.1918
 2713SOL     OW10617   4.976   2.943   5.502  0.5567 -0.1336  0.1984
 2713SOL    HW210618   5.053   2.908   5.547 -0.8438 -3.1928  0.5044
 2713SOL    HW310619   4.908   2.949   5.569 -0.2948 -0.3787 -0.6087
 2713SOL    MW410620   4.977   2.939   5.517  0.2596 -0.5696  0.1323
 2714SOL     OW10621   5.682   3.261   2.387  0.1804  0.0464  0.2797
 2714SOL    HW210622   5.653   3.318   2.316 -1.0780  0.5260  1.1357
 2714SOL    HW310623   5.603   3.214   2.414  0.5855  0.0156  1.4736
 2714SOL    MW410624   5.668   3.263   2.381  0.0678  0.1056  0.5501
 2715SOL     OW10625   3.714   3.563   2.206  0.3078 -0.3667 -0.1789
 2715SOL    HW210626   3.721   3.553   2.111  0.1251 -0.5749 -0.1712
 2715SOL    HW310627   3.636   3.617   2.218  0.4446 -0.1749 -0.1566
 2715SOL    MW410628   3.704   3.569   2.195  0.3017 -0.3689 -0.1750
 2716SOL     OW10629   3.092   1.607   2.337 -0.4909  0.6440  0.1364
 2716SOL    HW210630   3.185   1.615   2.361 -0.2565  0.8409 -0.7924
 2716SOL    HW310631   3.087   1.521   2.294 -0.5729  0.9826 -0.5343
 2716SOL    MW410632   3.104   1.596   2.335 -0.4708  0.7147 -0.0746
 2717SOL     OW10633   1.213   0.302   2.787 -0.1102  0.6672 -0.8628
 2717SOL    HW210634   1.161   0.364   2.736 -0.1838 -0.4698 -2.2365
 2717SOL    HW310635   1.237   0.234   2.725  0.5801 -0.3187  0.4299
 2717SOL    MW410636   1.209   0.301   2.772 -0.0289  0.3871 -0.8735
 2718SOL     OW10637   2.951   5.920   5.396 -0.2795 -0.2952 -0.2347
 2718SOL    HW210638   2.983   5.991   5.451 -1.6101 -0.9058  1.4006
 2718SOL    HW310639   2.867   5.952   5.361 -0.3102 -0.6108 -0.4564
 2718SOL    MW410640   2.944   5.933   5.398 -0.4591 -0.4174 -0.0482
 2719SOL     OW10641   1.642   1.629   3.447  0.4054 -0.4603  0.0022
 2719SOL    HW210642   1.556   1.669   3.428  0.0590 -1.6410 -1.0336
 2719SOL    HW310643   1.626   1.574   3.523  0.5942  0.4020  0.6795
 2719SOL    MW410644   1.628   1.627   3.454  0.3846 -0.5023 -0.0451
 2720SOL     OW10645   2.889   2.434   2.503 -0.0793  0.6062  0.2376
 2720SOL    HW210646   2.888   2.476   2.417 -1.9038  1.6589  0.7064
 2720SOL    HW310647   2.800   2.449   2.537  0.6362  0.3387  2.3530
 2720SOL    MW410648   2.877   2.442   2.496 -0.2256  0.7098  0.5786
 2721SOL     OW10649   3.053   1.338   2.698 -0.2876  0.0087 -0.2969
 2721SOL    HW210650   3.084   1.423   2.731 -0.5195  0.6725 -1.7388
 2721SOL    HW310651   3.086   1.333   2.609  1.4131 -2.3228  0.3586
 2721SOL    MW410652   3.062   1.349   2.691 -0.0938 -0.2113 -0.4006
 2722SOL     OW10653   1.000   6.150   0.341  0.4594 -0.0425 -0.2966
 2722SOL    HW210654   0.957   6.236   0.343 -0.1119 -0.1895 -2.8868
 2722SOL    HW310655   1.079   6.162   0.394 -1.0612  1.1710  1.8585
 2722SOL    MW410656   1.005   6.163   0.348  0.1834  0.0982 -0.3540
 2723SOL     OW10657   1.438   5.637   2.135 -0.1245  0.0274  0.0311
 2723SOL    HW210658   1.376   5.602   2.199  1.3367 -0.9131  0.9926
 2723SOL    HW310659   1.390   5.633   2.052 -1.4012 -0.5177  0.7501
 2723SOL    MW410660   1.423   5.632   2.132 -0.1002 -0.1686  0.2528
 2724SOL     OW10661   2.417   0.396   4.813 -0.1685  0.7274  0.1963
 2724SOL    HW210662   2.483   0.372   4.878 -1.0400  0.5204  1.0255
 2724SOL    HW310663   2.401   0.489   4.828 -0.6738  0.5841  0.5670
 2724SOL    MW410664   2.424   0.405   4.823 -0.3502  0.6812  0.3546
 2725SOL     OW10665   0.484   2.923   2.575  0.6319  0.6765  0.3750
 2725SOL    HW210666   0.531   2.864   2.517  0.8002  0.5238  0.6685
 2725SOL    HW310667   0.423   2.970   2.517 -0.2673 -0.5332  0.2901
 2725SOL    MW410668   0.482   2.922   2.559  0.5355  0.4967  0.4025
 2726SOL     OW10669   6.162   5.173   3.497 -0.2825 -0.2830  0.5252
 2726SOL    HW210670   6.246   5.170   3.452 -0.5405  2.2730 -0.2618
 2726SOL    HW310671   6.151   5.085   3.534  2.3129 -0.9173 -0.0640
 2726SOL    MW410672   6.171   5.161   3.496  0.0259 -0.0295  0.3436
 2727SOL     OW10673   4.695   4.834   1.518 -0.3464 -0.3423 -0.1771
 2727SOL    HW210674   4.663   4.828   1.428  0.5682  0.2053 -0.5484
 2727SOL    HW310675   4.771   4.892   1.513  0.3906 -1.1946  0.7582
 2727SOL    MW410676   4.700   4.841   1.505 -0.1285 -0.3825 -0.1027
 2728SOL     OW10677   2.987   4.636   2.015  0.1735 -0.8958  0.0971
 2728SOL    HW210678   2.980   4.732   2.024 -1.9395 -0.9560 -0.4252
 2728SOL    HW310679   2.944   4.617   1.932  1.3630 -2.2427 -0.2308
 2728SOL    MW410680   2.980   4.646   2.005  0.0516 -1.0814 -0.0151
 2729SOL     OW10681   2.009   1.998   4.350  0.2190 -0.5474  0.0607
 2729SOL    HW210682   2.076   2.016   4.416  1.4251  2.7926 -1.8421
 2729SOL    HW310683   2.039   1.917   4.308  0.4013 -1.7331  2.3100
 2729SOL    MW410684   2.022   1.990   4.353  0.4021 -0.2632  0.1064
 2730SOL     OW10685   3.030   1.932   3.388  0.1863  0.5343  0.1192
 2730SOL    HW210686   2.951   1.932   3.334  0.3883  0.1731 -0.1827
 2730SOL    HW310687   2.998   1.922   3.478 -0.0392 -1.5154 -0.1384
 2730SOL    MW410688   3.015   1.930   3.393  0.1832  0.2162  0.0454
 2731SOL     OW10689   6.198   3.417   1.570 -0.0352 -0.3551 -0.5029
 2731SOL    HW210690   6.118   3.437   1.521 -0.3946  1.5957  0.7767
 2731SOL    HW310691   6.171   3.347   1.630 -0.4640 -0.5156 -0.8722
 2731SOL    MW410692   6.184   3.410   1.572 -0.1392 -0.1189 -0.3828
 2732SOL     OW10693  -0.007   3.097   6.061  0.2720  0.2179  0.3146
 2732SOL    HW210694   0.085   3.112   6.039  0.4380 -1.8554 -0.5867
 2732SOL    HW310695  -0.055   3.117   5.981  0.3115 -1.8624 -0.2821
 2732SOL    MW410696  -0.001   3.102   6.048  0.2991 -0.3301  0.1170
 2733SOL     OW10697   5.575   0.405   6.018  0.4970  0.0539 -0.1002
 2733SOL    HW210698   5.570   0.383   5.924 -1.5970 -1.3838  0.2821
 2733SOL    HW310699   5.625   0.486   6.020  0.4693  0.2250 -2.4909
 2733SOL    MW410700   5.581   0.412   6.006  0.2171 -0.1132 -0.3652
 2734SOL     OW10701   6.318   0.370   4.191 -0.5319  0.3732  0.0802
 2734SOL    HW210702   6.387   0.411   4.242 -1.0166  1.3464 -0.0322
 2734SOL    HW310703   6.330   0.403   4.102 -0.3071 -0.5379 -0.2478
 2734SOL    MW410704   6.329   0.380   4.186 -0.5662  0.3814  0.0221
 2735SOL     OW10705   0.778   1.333   6.064 -0.0353 -0.0348  0.2881
 2735SOL    HW210706   0.785   1.405   6.126  2.0289  0.3137 -0.2772
 2735SOL    HW310707   0.708   1.360   6.004  0.4009  1.3114  0.3449
 2735SOL    MW410708   0.770   1.346   6.064  0.2946  0.1888  0.2210
 2736SOL     OW10709   2.879   4.230   5.963  0.2558  0.0983 -0.3209
 2736SOL    HW210710   2.964   4.208   6.000  0.4366 -1.3240 -1.5248
 2736SOL    HW310711   2.816   4.185   6.020  0.4129 -0.3302 -0.4829
 2736SOL    MW410712   2.882   4.221   5.976  0.3003 -0.1459 -0.5011
 2737SOL     OW10713   4.073   6.164   0.187 -0.2113  0.0415  0.5081
 2737SOL    HW210714   4.099   6.241   0.137 -0.9369  0.0048  0.0613
 2737SOL    HW310715   4.060   6.198   0.276  0.8265  0.1551  0.6321
 2737SOL    MW410716   4.075   6.179   0.192 -0.1701  0.0517  0.4655
 2738SOL     OW10717   4.440   5.243   6.061 -0.7996 -0.8362  0.1531
 2738SOL    HW210718   4.494   5.176   6.019 -1.2009 -0.3458 -1.2017
 2738SOL    HW310719   4.503   5.300   6.105 -0.4588 -2.1515  1.4950
 2738SOL    MW410720   4.455   5.242   6.061 -0.8075 -0.9450  0.1514
 2739SOL     OW10721   2.297   5.933   2.593  0.0171  0.3610  0.5151
 2739SOL    HW210722   2.219   5.949   2.647 -1.7489 -1.4516 -1.3502
 2739SOL    HW310723   2.321   6.019   2.559 -2.1408  0.7682 -0.0967
 2739SOL    MW410724   2.290   5.947   2.596 -0.5006  0.1755  0.1883
 2740SOL     OW10725   5.416   2.841   4.204  0.1154 -0.1138  0.3186
 2740SOL    HW210726   5.456   2.759   4.234 -1.0049 -1.2117 -1.0799
 2740SOL    HW310727   5.463   2.862   4.124 -0.8337 -0.4217 -0.3368
 2740SOL    MW410728   5.428   2.833   4.197 -0.1576 -0.2993  0.0476
 2741SOL     OW10729   2.564   4.176   4.399  0.1393 -0.1798  0.0408
 2741SOL    HW210730   2.590   4.184   4.491 -1.6358  0.7121  0.5204
 2741SOL    HW310731   2.468   4.166   4.403 -0.0456  0.6173 -1.7334
 2741SOL    MW410732   2.555   4.175   4.412 -0.1193  0.0430 -0.1300
 2742SOL     OW10733   0.228   2.972   4.779 -0.1116  0.1518 -0.0294
 2742SOL    HW210734   0.298   2.927   4.730 -0.4250  0.7410 -1.0635
 2742SOL    HW310735   0.148   2.948   4.732 -0.6256 -0.5556  1.1760
 2742SOL    MW410736   0.227   2.963   4.766 -0.2207  0.1362 -0.0068
 2743SOL     OW10737   0.526   4.239   5.861  0.6548  0.0371 -0.3607
 2743SOL    HW210738   0.577   4.220   5.782 -0.4633 -0.8525 -0.9134
 2743SOL    HW310739   0.567   4.186   5.930  1.1128  0.1477 -0.5483
 2743SOL    MW410740   0.538   4.230   5.860  0.5677 -0.0657 -0.4584
 2744SOL     OW10741   2.691   5.446   5.432 -0.6364  0.0950 -0.0505
 2744SOL    HW210742   2.649   5.514   5.485 -0.8788 -1.1647  1.4376
 2744SOL    HW310743   2.778   5.437   5.469 -0.3391  0.0981 -0.7267
 2744SOL    MW410744   2.697   5.454   5.444 -0.6292 -0.0708  0.0567
 2745SOL     OW10745   4.741   1.001   5.111 -0.0615 -0.0890  0.4585
 2745SOL    HW210746   4.781   1.085   5.090  0.1540 -0.2582  0.1957
 2745SOL    HW310747   4.664   0.995   5.054  0.0410 -0.1661  0.3295
 2745SOL    MW410748   4.736   1.011   5.101 -0.0195 -0.1215  0.4068
 2746SOL     OW10749   0.690   3.340   5.914  0.1192  0.5414 -0.6574
 2746SOL    HW210750   0.681   3.401   5.987  2.9398  0.6984 -0.2969
 2746SOL    HW310751   0.634   3.266   5.937  0.2898  0.9527  1.2979
 2746SOL    MW410752   0.682   3.338   5.927  0.5139  0.6164 -0.3519
 2747SOL     OW10753   1.139   4.953   0.064 -0.0503  0.3133 -0.5648
 2747SOL    HW210754   1.133   5.046   0.088  1.4233  0.0976  0.8946
 2747SOL    HW310755   1.204   4.918   0.125  0.8631 -1.2672 -2.3405
 2747SOL    MW410756   1.147   4.961   0.075  0.2646  0.0763 -0.6065
 2748SOL     OW10757   0.556   1.048   1.152  0.0263  0.0843 -0.2278
 2748SOL    HW210758   0.583   0.958   1.134  2.4118  0.7992 -0.5966
 2748SOL    HW310759   0.638   1.098   1.150 -0.9252  1.9241  2.2340
 2748SOL    MW410760   0.571   1.043   1.149  0.2155  0.4214  0.0484
 2749SOL     OW10761   2.267   3.301   5.258  0.4001  1.0220 -0.3493
 2749SOL    HW210762   2.240   3.234   5.195 -0.4465  0.2123  0.8406
 2749SOL    HW310763   2.325   3.254   5.319 -0.5015  1.2594  0.7146
 2749SOL    MW410764   2.271   3.286   5.258  0.1695  0.9465 -0.0519
 2750SOL     OW10765   0.179   5.976   1.216 -0.4325  0.2441 -0.0782
 2750SOL    HW210766   0.274   5.980   1.212 -0.3954 -0.0618  0.3918
 2750SOL    HW310767   0.160   5.950   1.306 -0.9494 -0.0576 -0.2709
 2750SOL    MW410768   0.189   5.973   1.228 -0.4958  0.1639 -0.0416
 2751SOL     OW10769   0.918   3.897   0.852  0.1486 -0.3476 -0.0396
 2751SOL    HW210770   0.831   3.930   0.874  0.2446 -0.8375  1.1509
 2751SOL    HW310771   0.917   3.806   0.881  1.0146 -0.4013 -0.1437
 2751SOL    MW410772   0.906   3.889   0.859  0.2756 -0.4193  0.1038
 2752SOL     OW10773   3.412   5.774   2.363  0.3772  0.2109  0.0179
 2752SOL    HW210774   3.502   5.807   2.359  0.1517  0.9653  0.8537
 2752SOL    HW310775   3.382   5.774   2.272  0.2451  2.7800 -0.0084
 2752SOL    MW410776   3.420   5.778   2.350  0.3300  0.6494  0.1247
 2753SOL     OW10777   0.482   3.624   5.329  0.4518 -0.2180 -0.6737
 2753SOL    HW210778   0.430   3.555   5.288 -3.2611  1.2315  1.1196
 2753SOL    HW310779   0.466   3.613   5.423 -1.1566  3.4779 -0.3290
 2753SOL    MW410780   0.473   3.614   5.336 -0.2502  0.4609 -0.3916
 2754SOL     OW10781   5.838   0.777   3.441  0.6055 -0.0444 -0.0219
 2754SOL    HW210782   5.853   0.848   3.379 -0.3035 -0.0451 -0.2484
 2754SOL    HW310783   5.797   0.819   3.517  0.2504 -0.2973 -0.0751
 2754SOL    MW410784   5.835   0.792   3.443  0.4387 -0.0779 -0.0588
 2755SOL     OW10785   3.548   6.314   5.578 -0.2657 -0.3127  0.3449
 2755SOL    HW210786   3.549   6.336   5.485  0.0657 -0.9475  0.1891
 2755SOL    HW310787   3.638   6.328   5.607 -0.3623 -0.1419  0.5644
 2755SOL    MW410788   3.560   6.319   5.570 -0.2347 -0.3739  0.3533
 2756SOL     OW10789   4.138   4.223   1.762 -0.0345 -0.4886  0.5362
 2756SOL    HW210790   4.047   4.248   1.748 -0.5038 -2.0241  0.7674
 2756SOL    HW310791   4.167   4.278   1.835  0.2207  2.2700 -1.4695
 2756SOL    MW410792   4.130   4.234   1.770 -0.0627 -0.3272  0.3021
 2757SOL     OW10793   4.969   0.401   1.630  0.0497  0.3826 -0.2829
 2757SOL    HW210794   4.878   0.406   1.657 -0.2525  0.5584 -1.2791
 2757SOL    HW310795   5.005   0.326   1.677 -0.0294  1.5079  1.7025
 2757SOL    MW410796   4.962   0.392   1.639 -0.0006  0.5543 -0.1524
 2758SOL     OW10797   1.143   0.244   6.314 -0.6303  0.4936 -0.0231
 2758SOL    HW210798   1.084   0.284   6.251  0.1518  0.6788 -0.6506
 2758SOL    HW310799   1.186   0.173   6.267 -1.7630 -0.9321  0.9865
 2758SOL    MW410800   1.141   0.240   6.300 -0.6765  0.3299  0.0273
 2759SOL     OW10801   2.338   5.220   3.554 -0.6018  0.3011  0.6707
 2759SOL    HW210802   2.334   5.129   3.583 -0.5891  0.2645  0.5572
 2759SOL    HW310803   2.319   5.217   3.460  1.8308  0.1369  0.1153
 2759SOL    MW410804   2.335   5.208   3.546 -0.2791  0.2746  0.5824
 2760SOL     OW10805   3.460   6.059   4.466 -0.0193  0.2223  0.9502
 2760SOL    HW210806   3.473   6.039   4.374 -1.2834  0.5469  0.6752
 2760SOL    HW310807   3.532   6.014   4.511  0.9110  0.4882 -0.2212
 2760SOL    MW410808   3.471   6.050   4.460 -0.0634  0.3002  0.7594
 2761SOL     OW10809   5.844   1.407   6.124 -0.0769 -0.1863 -0.0225
 2761SOL    HW210810   5.815   1.354   6.050  1.2949  1.2665 -1.6912
 2761SOL    HW310811   5.820   1.356   6.201  1.0703 -3.1927 -1.4896
 2761SOL    MW410812   5.837   1.393   6.125  0.2554 -0.3913 -0.4362
 2762SOL     OW10813   5.580   0.254   1.313  0.3777 -0.0687  0.2368
 2762SOL    HW210814   5.655   0.279   1.366  1.3471  0.2530 -1.2134
 2762SOL    HW310815   5.602   0.284   1.224 -1.3459 -0.2072 -0.2851
 2762SOL    MW410816   5.592   0.261   1.308  0.2782 -0.0445 -0.0234
 2763SOL     OW10817   3.664   1.924   3.416 -1.0693 -0.6164  0.1882
 2763SOL    HW210818   3.579   1.888   3.388 -0.3630 -0.6849 -2.1269
 2763SOL    HW310819   3.661   2.016   3.390 -1.1018 -0.1364  1.8078
 2763SOL    MW410820   3.652   1.931   3.409 -0.9804 -0.5621  0.0964
 2764SOL     OW10821   3.773   5.240   6.044 -0.1253  0.1392 -0.3267
 2764SOL    HW210822   3.717   5.209   5.973  1.0790  0.9799 -1.6968
 2764SOL    HW310823   3.780   5.335   6.031  0.6715  0.2184  0.5002
 2764SOL    MW410824   3.767   5.249   6.033  0.1388  0.2606 -0.3984
 2765SOL     OW10825   4.497   5.536   5.344  0.1919  0.6577  0.2900
 2765SOL    HW210826   4.541   5.511   5.425 -0.0787 -0.5663  0.0850
 2765SOL    HW310827   4.490   5.454   5.295 -1.3253  1.0303 -0.1572
 2765SOL    MW410828   4.502   5.522   5.348 -0.0440  0.5453  0.2040
 2766SOL     OW10829   2.064   5.884   1.952  0.2195  0.2894 -0.0677
 2766SOL    HW210830   2.152   5.921   1.953  0.8726 -1.1836  1.1360
 2766SOL    HW310831   2.006   5.960   1.950  1.4993  1.3136  0.4307
 2766SOL    MW410832   2.068   5.899   1.952  0.4746  0.2301  0.1569
 2767SOL     OW10833   1.135   6.269   2.282  0.1467 -0.1032  0.3151
 2767SOL    HW210834   1.126   6.364   2.292 -0.2406 -0.0022 -0.8661
 2767SOL    HW310835   1.133   6.255   2.188  0.6820 -1.2493  0.4714
 2767SOL    MW410836   1.133   6.280   2.271  0.1662 -0.2410  0.1799
 2768SOL     OW10837   1.816   3.055   2.604 -0.1322  0.0717 -0.3771
 2768SOL    HW210838   1.802   3.129   2.663  1.3118 -1.1576  1.6157
 2768SOL    HW310839   1.867   3.091   2.532  2.4835  0.6829  1.6287
 2768SOL    MW410840   1.821   3.069   2.602  0.4034 -0.0099  0.1505
 2769SOL     OW10841   5.179   2.313   6.242  0.2624  0.2178  0.0254
 2769SOL    HW210842   5.231   2.335   6.165 -1.1110 -0.0534 -1.0237
 2769SOL    HW310843   5.153   2.222   6.229 -0.4811  0.3477  0.5078
 2769SOL    MW410844   5.183   2.304   6.230 -0.0169  0.1992 -0.0494
 2770SOL     OW10845   3.471   5.345   6.144 -0.0303 -0.5155 -0.3541
 2770SOL    HW210846   3.480   5.255   6.115  0.9902 -0.3380 -0.6616
 2770SOL    HW310847   3.548   5.360   6.199 -1.1282 -0.3717  1.2190
 2770SOL    MW410848   3.483   5.335   6.147 -0.0405 -0.4731 -0.1871
 2771SOL     OW10849   6.056   5.910   3.595  0.1959 -0.0182  0.6539
 2771SOL    HW210850   5.979   5.941   3.549 -0.1380 -0.3745  0.9674
 2771SOL    HW310851   6.118   5.887   3.525 -0.4937 -1.0361  0.3515
 2771SOL    MW410852   6.054   5.911   3.580  0.0609 -0.1995  0.6554
 2772SOL     OW10853   4.743   4.284   2.328 -0.2462 -0.3869 -0.6391
 2772SOL    HW210854   4.837   4.291   2.339 -0.4572  2.7485  0.4103
 2772SOL    HW310855   4.712   4.375   2.326 -3.2497 -1.2775 -0.8698
 2772SOL    MW410856   4.751   4.297   2.329 -0.6703 -0.0907 -0.5311
 2773SOL     OW10857   2.510   1.691   6.191  0.1559 -0.3107  0.2410
 2773SOL    HW210858   2.468   1.682   6.277 -1.3988 -0.0853 -0.4658
 2773SOL    HW310859   2.474   1.773   6.156  0.4684 -0.6097 -0.7916
 2773SOL    MW410860   2.500   1.701   6.198 -0.0080 -0.3204  0.0115
 2774SOL     OW10861   2.459   4.454   2.423  0.2209  0.1039 -0.6741
 2774SOL    HW210862   2.495   4.426   2.507  0.5572  3.0901  0.2980
 2774SOL    HW310863   2.371   4.416   2.420 -0.5227  1.3879  1.9384
 2774SOL    MW410864   2.452   4.445   2.433  0.1671  0.6673 -0.2012
 2775SOL     OW10865   3.811   5.244   3.534 -0.2734 -0.0275 -0.7235
 2775SOL    HW210866   3.722   5.239   3.500 -0.4668 -0.0891 -0.2270
 2775SOL    HW310867   3.821   5.334   3.565 -0.3031 -0.1258 -0.4197
 2775SOL    MW410868   3.801   5.255   3.534 -0.3029 -0.0486 -0.6179
 2776SOL     OW10869   4.170   4.647   4.909  0.1007 -0.3209  0.0444
 2776SOL    HW210870   4.147   4.580   4.974  0.9735  0.9519  1.7487
 2776SOL    HW310871   4.204   4.597   4.835  1.9044 -1.7900  1.7481
 2776SOL    MW410872   4.172   4.631   4.908  0.4538 -0.3468  0.4941
 2777SOL     OW10873   2.775   1.236   5.479 -0.0461  0.2152 -0.4379
 2777SOL    HW210874   2.743   1.202   5.562 -0.1008 -0.9557 -0.9302
 2777SOL    HW310875   2.865   1.263   5.498 -0.3078  0.7078  0.1821
 2777SOL    MW410876   2.783   1.235   5.493 -0.0878  0.1257 -0.4210
 2778SOL     OW10877   5.476   4.953   6.356 -0.3073 -0.3628  1.1396
 2778SOL    HW210878   5.495   4.860   6.343  1.2724 -0.1336  1.5756
 2778SOL    HW310879   5.495   4.968   6.449 -0.9909  0.3096  1.1820
 2778SOL    MW410880   5.481   4.943   6.367 -0.1891 -0.2439  1.2027
 2779SOL     OW10881   6.190   3.957   4.961  0.3357 -0.0777  0.0706
 2779SOL    HW210882   6.147   3.939   4.877 -1.9119 -0.1155  1.1334
 2779SOL    HW310883   6.242   4.035   4.946  0.8616 -0.7173 -1.6244
 2779SOL    MW410884   6.191   3.965   4.948  0.1086 -0.1671 -0.0128
 2780SOL     OW10885   4.742   4.844   0.232  0.5355  0.3711  0.3624
 2780SOL    HW210886   4.775   4.920   0.185 -2.2140  1.7716  0.4954
 2780SOL    HW310887   4.756   4.770   0.173 -1.3199  1.8182 -2.0369
 2780SOL    MW410888   4.748   4.844   0.218 -0.0721  0.7468  0.0634
 2781SOL     OW10889   4.397   0.325   1.182  0.5008 -0.2630 -0.2743
 2781SOL    HW210890   4.448   0.244   1.175  1.2402  0.2258 -0.5829
 2781SOL    HW310891   4.435   0.384   1.117  0.9902  0.8708  0.9945
 2781SOL    MW410892   4.408   0.322   1.173  0.6629 -0.0489 -0.1476
 2782SOL     OW10893   1.572   0.239   2.241  0.0011 -0.0119  0.3304
 2782SOL    HW210894   1.663   0.255   2.217  0.3341 -0.1505  1.4159
 2782SOL    HW310895   1.568   0.146   2.262 -0.5565 -0.1509 -0.3453
 2782SOL    MW410896   1.583   0.229   2.241 -0.0285 -0.0485  0.3845
 2783SOL     OW10897   4.665   0.598   6.315  0.0622  0.0754 -0.1926
 2783SOL    HW210898   4.608   0.544   6.369 -0.0521 -0.7468 -1.1099
 2783SOL    HW310899   4.698   0.665   6.375  1.2450 -1.7650  1.3334
 2783SOL    MW410900   4.662   0.600   6.330  0.2032 -0.2759 -0.1123
 2784SOL     OW10901   0.013   2.913   5.184  0.1773 -0.3610 -0.0323
 2784SOL    HW210902  -0.042   2.835   5.197  0.6398 -0.8065 -0.6697
 2784SOL    HW310903   0.101   2.878   5.171 -0.0321 -0.0284 -3.5252
 2784SOL    MW410904   0.017   2.898   5.184  0.2107 -0.3759 -0.5773
 2785SOL     OW10905   0.562   1.760   2.532  0.1737 -0.2673  0.1248
 2785SOL    HW210906   0.471   1.767   2.564  0.3805  0.2485  0.6360
 2785SOL    HW310907   0.590   1.851   2.523  1.4599 -0.3470  2.4212
 2785SOL    MW410908   0.553   1.773   2.535  0.3707 -0.2098  0.4952
 2786SOL     OW10909   3.698   1.042   0.146  0.0455 -0.1881  0.3405
 2786SOL    HW210910   3.683   1.137   0.146 -0.6706 -0.2700  2.2069
 2786SOL    HW310911   3.647   1.010   0.220  3.0818 -1.5778  1.9986
 2786SOL    MW410912   3.689   1.051   0.156  0.3516 -0.3823  0.8055
 2787SOL     OW10913   3.984   5.414   2.615 -0.3338  0.5483 -0.0723
 2787SOL    HW210914   3.958   5.348   2.680  1.2918  1.1988  1.2879
 2787SOL    HW310915   3.917   5.407   2.547 -0.9491 -1.5796  0.6715
 2787SOL    MW410916   3.971   5.404   2.615 -0.2005  0.3534  0.2053
 2788SOL     OW10917   2.686   4.489   0.405 -0.2848  0.2672 -0.2315
 2788SOL    HW210918   2.778   4.464   0.395  0.3499  2.1505  0.4635
 2788SOL    HW310919   2.680   4.575   0.364 -1.8653 -0.0313 -0.6843
 2788SOL    MW410920   2.697   4.497   0.398 -0.4096  0.4763 -0.1995
 2789SOL     OW10921   3.840   1.976   6.190 -0.0126  0.0087  0.3023
 2789SOL    HW210922   3.888   1.951   6.269  0.6422  2.0873  0.6171
 2789SOL    HW310923   3.748   1.966   6.215  0.1827  0.6352  1.3585
 2789SOL    MW410924   3.834   1.971   6.204  0.0996  0.3656  0.4832
 2790SOL     OW10925   4.795   2.262   1.769  0.7449  0.4435 -0.1177
 2790SOL    HW210926   4.829   2.266   1.680  0.8289 -1.0930 -0.1795
 2790SOL    HW310927   4.712   2.216   1.761 -0.4297  2.3761  0.3056
 2790SOL    MW410928   4.788   2.257   1.756  0.6010  0.4957 -0.0700
 2791SOL     OW10929   5.162   5.483   5.652 -0.2868 -0.0543 -0.4398
 2791SOL    HW210930   5.112   5.563   5.667  0.3447  0.6077 -1.6597
 2791SOL    HW310931   5.203   5.497   5.566 -0.5862 -1.9160 -0.9162
 2791SOL    MW410932   5.161   5.496   5.643 -0.2430 -0.2126 -0.6636
 2792SOL     OW10933   4.893   4.422   4.495 -0.0837 -0.3071  0.2021
 2792SOL    HW210934   4.973   4.466   4.467 -0.5881  0.3077 -0.3142
 2792SOL    HW310935   4.885   4.443   4.588  1.1633 -1.6722  0.6719
 2792SOL    MW410936   4.903   4.430   4.504  0.0142 -0.4061  0.1960
 2793SOL     OW10937   1.263   3.176   5.729  0.4841  0.3860  0.6303
 2793SOL    HW210938   1.344   3.187   5.678 -0.0992  0.4276 -0.3071
 2793SOL    HW310939   1.284   3.106   5.791  0.6030 -1.0857 -0.9898
 2793SOL    MW410940   1.277   3.168   5.731  0.4228  0.1973  0.2929
 2794SOL     OW10941   0.898   2.058   3.961  0.4772  0.1518  0.1805
 2794SOL    HW210942   0.854   1.997   4.019 -0.9956  0.1484 -0.8964
 2794SOL    HW310943   0.926   2.005   3.886 -1.5385  0.8655 -1.1576
 2794SOL    MW410944   0.896   2.043   3.959  0.0170  0.2455 -0.1381
 2795SOL     OW10945   6.241   5.368   5.363  0.0351  0.0223  0.0991
 2795SOL    HW210946   6.295   5.408   5.295  0.6144  0.3182  0.7307
 2795SOL    HW310947   6.303   5.338   5.429 -0.5284 -0.2161  0.5286
 2795SOL    MW410948   6.256   5.369   5.363  0.0372  0.0299  0.2391
 2796SOL     OW10949   3.616   2.552   5.122  0.8174  0.4905 -0.1284
 2796SOL    HW210950   3.550   2.621   5.115 -0.5093 -0.4740  2.0278
 2796SOL    HW310951   3.616   2.511   5.036 -1.3069  0.6306 -0.2425
 2796SOL    MW410952   3.607   2.556   5.110  0.3621  0.3817  0.1410
 2797SOL     OW10953   1.477   6.072   3.130 -0.3334 -0.4679  0.2726
 2797SOL    HW210954   1.563   6.100   3.099 -0.7343  1.6487  0.8611
 2797SOL    HW310955   1.479   5.977   3.125  0.9317 -0.3907 -2.6543
 2797SOL    MW410956   1.489   6.063   3.126 -0.2194 -0.1784 -0.0359
 2798SOL     OW10957   5.253   5.362   3.529 -0.4892 -0.2400  0.0753
 2798SOL    HW210958   5.281   5.352   3.438  0.4337  2.5705 -0.0394
 2798SOL    HW310959   5.327   5.330   3.581 -0.4881 -0.6237 -0.1613
 2798SOL    MW410960   5.267   5.356   3.524 -0.3673  0.0802  0.0290
 2799SOL     OW10961   1.860   4.496   2.205 -0.2483 -0.7187  0.1476
 2799SOL    HW210962   1.811   4.416   2.222  0.6076 -1.3459 -0.3178
 2799SOL    HW310963   1.794   4.557   2.171 -0.6438 -1.6883 -0.8890
 2799SOL    MW410964   1.845   4.494   2.203 -0.1876 -0.9294 -0.0506
 2800SOL     OW10965   0.148   0.321   6.107 -0.4864  0.4876 -0.0085
 2800SOL    HW210966   0.136   0.242   6.055  1.6138 -0.9028  1.4788
 2800SOL    HW310967   0.238   0.348   6.091 -0.3413  1.0274  1.5210
 2800SOL    MW410968   0.158   0.314   6.098 -0.1901  0.3754  0.3895
 2801SOL     OW10969   4.566   5.330   0.541 -0.2270 -0.6508 -0.0286
 2801SOL    HW210970   4.626   5.399   0.512  0.4283 -1.1588  0.0999
 2801SOL    HW310971   4.487   5.377   0.566  0.3282  0.0961  0.3837
 2801SOL    MW410972   4.564   5.345   0.540 -0.0673 -0.6193  0.0428
 2802SOL     OW10973   3.387   1.909   5.158  0.2370 -0.6835  0.6134
 2802SOL    HW210974   3.412   1.830   5.207  0.6747 -1.1210 -0.2874
 2802SOL    HW310975   3.353   1.876   5.075  0.4499  0.0700  0.2141
 2802SOL    MW410976   3.386   1.894   5.153  0.3229 -0.6418  0.4419
 2803SOL     OW10977   4.838   5.039   1.211  0.0360 -0.2426 -0.4118
 2803SOL    HW210978   4.841   4.944   1.203  0.4271 -0.1640 -1.3158
 2803SOL    HW310979   4.846   5.056   1.305 -0.2856 -1.1065 -0.2221
 2803SOL    MW410980   4.839   5.029   1.223  0.0452 -0.3462 -0.5060
 2804SOL     OW10981   5.176   4.433   2.539  0.1952 -0.1136  0.1485
 2804SOL    HW210982   5.118   4.386   2.480  0.5341  1.3433 -1.4155
 2804SOL    HW310983   5.124   4.507   2.570 -0.6723 -1.8852  3.3587
 2804SOL    MW410984   5.162   4.437   2.535  0.1255 -0.1551  0.3657
 2805SOL     OW10985   0.567   3.990   2.870  0.3636 -0.0694 -0.0987
 2805SOL    HW210986   0.590   4.067   2.922  0.1047 -0.3635  0.4577
 2805SOL    HW310987   0.632   3.988   2.800 -0.6680  1.6772 -1.2007
 2805SOL    MW410988   0.578   4.000   2.868  0.1933  0.1222 -0.1707
 2806SOL     OW10989   4.813   1.407   6.390  0.0213 -0.3834  0.1353
 2806SOL    HW210990   4.767   1.451   6.462  0.5933 -0.4589  0.5527
 2806SOL    HW310991   4.750   1.342   6.359 -0.9913  0.9581 -0.7486
 2806SOL    MW410992   4.798   1.405   6.395 -0.0369 -0.2164  0.0737
 2807SOL     OW10993   1.121   5.660   4.814 -0.0456 -0.8062 -0.4440
 2807SOL    HW210994   1.149   5.749   4.796 -1.2569 -0.0639  1.0638
 2807SOL    HW310995   1.190   5.604   4.778  0.7250  0.7232 -1.4147
 2807SOL    MW410996   1.134   5.664   4.807 -0.1038 -0.5064 -0.3731
 2808SOL     OW10997   2.273   2.633   6.348  0.0371  0.0693 -0.4110
 2808SOL    HW210998   2.180   2.645   6.333 -0.2622  0.7560  1.6774
 2808SOL    HW310999   2.285   2.651   6.441  2.5241  1.8743 -0.9708
 2808SOL    MW411000   2.263   2.637   6.358  0.3258  0.3980 -0.2093
 2809SOL     OW11001   4.623   2.522   0.584 -0.5141  0.0687 -0.2377
 2809SOL    HW211002   4.677   2.566   0.650 -1.2510  0.8736 -0.1667
 2809SOL    HW311003   4.542   2.500   0.629 -0.1572 -1.4361 -0.2536
 2809SOL    MW411004   4.620   2.525   0.598 -0.5642 -0.0236 -0.2304
 2810SOL     OW11005   0.249   4.372   6.373  0.0239 -0.0936  0.0474
 2810SOL    HW211006   0.208   4.440   6.428 -1.3143  0.4556 -1.5342
 2810SOL    HW311007   0.212   4.290   6.405  1.7893 -0.1943  2.0998
 2810SOL    MW411008   0.239   4.370   6.385  0.0802 -0.0345  0.1095
 2811SOL     OW11009   2.009   1.582   5.617 -0.1227 -0.0257  0.1845
 2811SOL    HW211010   1.966   1.591   5.702  2.5029 -0.0034  1.6180
 2811SOL    HW311011   1.964   1.645   5.561 -2.9777 -1.1533  1.0474
 2811SOL    MW411012   1.997   1.591   5.621 -0.1530 -0.1715  0.4875
 2812SOL     OW11013   6.107   3.755   5.146 -0.0403  0.0407 -0.4177
 2812SOL    HW211014   6.095   3.776   5.239  1.1798 -1.3127  0.0798
 2812SOL    HW311015   6.138   3.836   5.107 -0.9092  0.7271  0.2612
 2812SOL    MW411016   6.109   3.768   5.153  0.0060 -0.0473 -0.2625
 2813SOL     OW11017   2.898   2.269   4.008 -0.6950 -0.4181  0.0388
 2813SOL    HW211018   2.880   2.242   4.098 -0.6297 -0.4981  0.0281
 2813SOL    HW311019   2.828   2.331   3.987  0.4785  1.2916  0.8953
 2813SOL    MW411020   2.887   2.274   4.017 -0.5315 -0.2031  0.1504
 2814SOL     OW11021   2.762   3.620   4.418 -0.0626  0.1009 -0.0254
 2814SOL    HW211022   2.825   3.652   4.353  0.1156 -0.8276 -0.3172
 2814SOL    HW311023   2.785   3.528   4.431 -0.3205  0.1760  1.0909
 2814SOL    MW411024   2.774   3.612   4.411 -0.0731 -0.0117  0.0834
 2815SOL     OW11025   6.202   0.941   0.760 -0.2108  0.2628 -0.3480
 2815SOL    HW211026   6.241   0.891   0.688 -1.6081 -0.0425 -0.9146
 2815SOL    HW311027   6.218   0.888   0.838 -0.9510 -0.6882 -0.8240
 2815SOL    MW411028   6.209   0.928   0.761 -0.4928  0.0970 -0.4856
 2816SOL     OW11029   4.548   3.450   2.898 -1.0613 -0.4837  0.1554
 2816SOL    HW211030   4.590   3.391   2.836 -1.1841  0.7364 -1.1290
 2816SOL    HW311031   4.611   3.457   2.970 -0.4509 -1.1049 -0.2992
 2816SOL    MW411032   4.562   3.443   2.900 -0.9969 -0.4047 -0.0741
 2817SOL     OW11033   0.683   1.807   5.033 -0.2681  0.0597 -0.3772
 2817SOL    HW211034   0.613   1.776   4.977 -1.0512 -1.0756  1.1547
 2817SOL    HW311035   0.639   1.843   5.110  0.7949  0.2847  0.1573
 2817SOL    MW411036   0.668   1.808   5.036 -0.2311 -0.0604 -0.1046
 2818SOL     OW11037   4.385   3.991   3.238  0.7077 -0.1078 -0.3762
 2818SOL    HW211038   4.322   3.947   3.295 -0.4485  2.4128  0.4270
 2818SOL    HW311039   4.383   3.941   3.156 -2.1345 -0.2582 -0.2867
 2818SOL    MW411040   4.377   3.978   3.235  0.1802  0.2049 -0.2584
 2819SOL     OW11041   1.515   3.257   2.648 -0.4491  0.2493  0.2021
 2819SOL    HW211042   1.470   3.269   2.732 -0.5082 -0.3338  0.2582
 2819SOL    HW311043   1.449   3.219   2.591  0.1455 -1.2865  0.4923
 2819SOL    MW411044   1.501   3.254   2.652 -0.3784 -0.0303  0.2478
 2820SOL     OW11045   4.017   5.647   5.093  0.0882 -0.1705 -0.4484
 2820SOL    HW211046   4.015   5.570   5.149  0.8259 -0.3734 -0.6896
 2820SOL    HW311047   4.074   5.709   5.138 -1.9873  1.0068  0.6910
 2820SOL    MW411048   4.024   5.645   5.106 -0.0883 -0.0420 -0.3299
 2821SOL     OW11049   3.237   0.796   1.787  0.2557 -0.3307  0.1579
 2821SOL    HW211050   3.155   0.779   1.741  0.6707  1.4850 -1.3764
 2821SOL    HW311051   3.302   0.805   1.717  1.7646 -1.5834  1.3347
 2821SOL    MW411052   3.235   0.795   1.771  0.5095 -0.2564  0.1107
 2822SOL     OW11053   0.950   1.237   2.308 -0.2956  0.2115 -0.5121
 2822SOL    HW211054   1.016   1.306   2.303 -1.2944  1.1427 -2.1161
 2822SOL    HW311055   0.914   1.244   2.396  0.0173  1.3819 -0.4611
 2822SOL    MW411056   0.954   1.247   2.319 -0.3861  0.4888 -0.7170
 2823SOL     OW11057   5.415   6.088   4.611 -0.7594 -0.6093  0.1879
 2823SOL    HW211058   5.466   6.050   4.683  1.6360  0.0581 -1.0870
 2823SOL    HW311059   5.386   6.012   4.561  0.9133 -0.9546 -0.3095
 2823SOL    MW411060   5.418   6.073   4.614 -0.2227 -0.5668 -0.0459
 2824SOL     OW11061   2.364   3.575   5.795 -0.6065  0.0957  0.3092
 2824SOL    HW211062   2.302   3.504   5.778  0.0841 -0.4209 -0.1619
 2824SOL    HW311063   2.415   3.545   5.870 -0.4368  0.1699  0.2254
 2824SOL    MW411064   2.363   3.562   5.802 -0.4930  0.0373  0.2360
 2825SOL     OW11065   0.413   3.951   0.459 -0.1458  0.3398 -0.2205
 2825SOL    HW211066   0.453   4.017   0.402 -1.2555  0.5593 -0.7689
 2825SOL    HW311067   0.377   4.000   0.532  0.0628  0.2120 -0.0314
 2825SOL    MW411068   0.414   3.966   0.461 -0.2647  0.3519 -0.2679
 2826SOL     OW11069   2.525   4.885   2.999 -0.3942  0.2352  0.2958
 2826SOL    HW211070   2.496   4.903   2.909  0.5244  1.2034  0.1719
 2826SOL    HW311071   2.464   4.936   3.054 -1.0112 -0.4274  0.2391
 2826SOL    MW411072   2.513   4.894   2.994 -0.3544  0.2755  0.2719
 2827SOL     OW11073   2.329   0.872   4.933 -0.5343 -0.0817 -0.0819
 2827SOL    HW211074   2.321   0.795   4.877 -1.6059  0.9435 -1.3986
 2827SOL    HW311075   2.381   0.842   5.008 -2.1393 -2.4680  0.1816
 2827SOL    MW411076   2.335   0.858   4.936 -0.8875 -0.2613 -0.2209
 2828SOL     OW11077   1.697   1.410   4.765  0.1358  0.8050 -0.8108
 2828SOL    HW211078   1.749   1.460   4.702 -0.8087  1.3878 -1.1439
 2828SOL    HW311079   1.626   1.469   4.790 -0.2730  0.0865 -0.2304
 2828SOL    MW411080   1.694   1.424   4.760 -0.0428  0.7871 -0.7782
 2829SOL     OW11081   5.806   4.989   4.759  0.0086 -0.5836  0.0698
 2829SOL    HW211082   5.712   4.978   4.771  0.2926 -1.2105  2.3065
 2829SOL    HW311083   5.823   5.080   4.782  0.2260 -1.1549  2.4621
 2829SOL    MW411084   5.796   4.999   4.764  0.0747 -0.7417  0.6805
 2830SOL     OW11085   5.876   0.898   0.700 -0.0035 -0.0218  0.0041
 2830SOL    HW211086   5.868   0.840   0.776  1.2874 -2.6707 -1.7234
 2830SOL    HW311087   5.970   0.898   0.680 -0.1393  1.7477 -0.8133
 2830SOL    MW411088   5.887   0.890   0.708  0.1489 -0.1379 -0.3317
 2831SOL     OW11089   1.971   1.803   0.920  0.0772  0.8310 -0.0998
 2831SOL    HW211090   1.901   1.808   0.855 -0.1648 -1.5702 -0.1240
 2831SOL    HW311091   2.041   1.755   0.876  1.2703  2.1416  0.3335
 2831SOL    MW411092   1.971   1.797   0.906  0.2027  0.6871 -0.0458
 2832SOL     OW11093   1.592   2.414   4.605  0.1582 -0.5104  0.2264
 2832SOL    HW211094   1.534   2.339   4.593 -0.2293 -0.1995  0.1188
 2832SOL    HW311095   1.680   2.378   4.599 -0.0094 -0.7228 -1.4862
 2832SOL    MW411096   1.596   2.399   4.602  0.0849 -0.4974 -0.0138
 2833SOL     OW11097   1.356   0.480   2.171  0.3955  0.2419 -0.9794
 2833SOL    HW211098   1.397   0.467   2.256  1.9411  1.7699 -1.4361
 2833SOL    HW311099   1.331   0.393   2.142 -0.0338 -0.3131  0.9650
 2833SOL    MW411100   1.358   0.467   2.178  0.5428  0.3703 -0.7831
 2834SOL     OW11101   5.493   5.157   3.125 -0.2358 -1.0889  0.2192
 2834SOL    HW211102   5.456   5.243   3.144 -1.2276 -1.3234 -0.5678
 2834SOL    HW311103   5.588   5.170   3.129 -0.3631  0.1296 -0.3021
 2834SOL    MW411104   5.501   5.170   3.128 -0.3835 -0.9591  0.0466
 2835SOL     OW11105   4.962   1.351   5.424  0.1079  0.0117  0.3031
 2835SOL    HW211106   5.029   1.305   5.373 -0.2226  1.0874 -1.1686
 2835SOL    HW311107   4.925   1.284   5.482  0.8087 -1.1505 -0.5576
 2835SOL    MW411108   4.966   1.336   5.425  0.1567  0.0003 -0.0046
 2836SOL     OW11109   1.263   5.581   5.040  0.5362 -0.7016 -0.4266
 2836SOL    HW211110   1.196   5.623   4.987  1.4648 -0.4276 -1.4111
 2836SOL    HW311111   1.220   5.565   5.125 -1.1166 -1.5522 -1.3685
 2836SOL    MW411112   1.248   5.585   5.044  0.4407 -0.7777 -0.6808
 2837SOL     OW11113   1.735   0.845   2.129  0.3567  0.6618 -0.5953
 2837SOL    HW211114   1.660   0.787   2.118 -0.3694  1.5564 -0.4352
 2837SOL    HW311115   1.711   0.904   2.200  1.8178  0.0180  0.4797
 2837SOL    MW411116   1.722   0.845   2.137  0.4536  0.6949 -0.4323
 2838SOL     OW11117   2.413   6.302   5.627  0.1269  0.0013  0.6668
 2838SOL    HW211118   2.479   6.248   5.670  1.5622 -2.4386 -3.9556
 2838SOL    HW311119   2.463   6.360   5.570 -1.6539  1.0503  0.1063
 2838SOL    MW411120   2.428   6.303   5.626  0.0813 -0.1822 -0.0170
 2839SOL     OW11121   2.382   2.076   1.317 -0.4671 -0.1444  0.4964
 2839SOL    HW211122   2.321   2.053   1.387 -0.3561 -2.6427 -0.1323
 2839SOL    HW311123   2.463   2.100   1.363 -0.7836 -0.5096  1.2606
 2839SOL    MW411124   2.385   2.076   1.332 -0.4942 -0.5222  0.5143
 2840SOL     OW11125  -0.004   3.549   0.717 -0.1393 -0.0430 -0.3036
 2840SOL    HW211126   0.084   3.576   0.742  0.4207 -1.8397 -0.1686
 2840SOL    HW311127  -0.051   3.631   0.701  1.5132  0.9568 -0.2700
 2840SOL    MW411128   0.002   3.564   0.718  0.1526 -0.1481 -0.2813
 2841SOL     OW11129   5.834   0.362   1.414  0.0004 -0.2874 -0.1956
 2841SOL    HW211130   5.785   0.408   1.482 -1.4006 -0.9813 -0.6825
 2841SOL    HW311131   5.915   0.412   1.404 -0.6435  0.9656  0.6006
 2841SOL    MW411132   5.838   0.375   1.421 -0.2694 -0.2136 -0.1548
 2842SOL     OW11133   6.355   1.470   2.767  0.3085  0.2356  0.4519
 2842SOL    HW211134   6.290   1.497   2.832 -1.3493 -1.1773 -0.5175
 2842SOL    HW311135   6.415   1.413   2.816  0.6827  1.2998  1.2893
 2842SOL    MW411136   6.354   1.466   2.782  0.1392  0.1896  0.4345
 2843SOL     OW11137   4.155   4.293   3.927  0.3663 -0.1585 -0.0921
 2843SOL    HW211138   4.217   4.259   3.862  1.0449 -0.9661  0.9316
 2843SOL    HW311139   4.069   4.267   3.895  0.6695 -0.3458 -0.7723
 2843SOL    MW411140   4.152   4.285   3.914  0.4958 -0.2898 -0.0468
 2844SOL     OW11141   1.433   2.183   4.548  0.0313  0.1150  0.0604
 2844SOL    HW211142   1.440   2.097   4.588 -0.4754  0.1184  0.1698
 2844SOL    HW311143   1.362   2.174   4.484 -0.0733  0.4670  0.1226
 2844SOL    MW411144   1.424   2.171   4.545 -0.0494  0.1619  0.0830
 2845SOL     OW11145   5.754   3.015   3.679  0.4144 -0.2877  0.6906
 2845SOL    HW211146   5.753   3.060   3.764  0.2907 -1.8790  1.5777
 2845SOL    HW311147   5.675   3.045   3.635 -0.8131 -1.2327  2.1582
 2845SOL    MW411148   5.743   3.025   3.685  0.2361 -0.6223  1.0012
 2846SOL     OW11149   2.928   1.873   2.710 -0.3089  0.5170  0.0286
 2846SOL    HW211150   2.970   1.928   2.644 -0.0114  1.4746  0.9794
 2846SOL    HW311151   2.841   1.911   2.722 -1.4670 -1.3841 -1.8358
 2846SOL    MW411152   2.922   1.886   2.703 -0.4225  0.3925 -0.0920
 2847SOL     OW11153   3.377   0.363   2.690 -0.4820 -0.2532  0.2521
 2847SOL    HW211154   3.364   0.405   2.605 -2.6962 -1.5883 -0.1363
 2847SOL    HW311155   3.400   0.435   2.749 -2.2628  1.2306 -0.7655
 2847SOL    MW411156   3.378   0.378   2.686 -1.0091 -0.2336  0.0666
 2848SOL     OW11157   5.193   0.019   5.137  0.3370  0.7784  0.6201
 2848SOL    HW211158   5.203   0.061   5.223  0.2007  1.4771  0.2954
 2848SOL    HW311159   5.195   0.091   5.074 -0.1087  0.3165  0.0702
 2848SOL    MW411160   5.195   0.034   5.140  0.2602  0.8096  0.5047
 2849SOL     OW11161   4.660   2.094   4.053 -0.1938  0.0433  0.8013
 2849SOL    HW211162   4.599   2.048   4.111 -1.8247 -1.3976 -1.8622
 2849SOL    HW311163   4.708   2.024   4.009  0.7994  1.0776  0.2021
 2849SOL    MW411164   4.658   2.079   4.055 -0.2779 -0.0104  0.3708
 2850SOL     OW11165   3.656   2.812   3.721 -0.8765 -0.5662  0.7307
 2850SOL    HW211166   3.638   2.723   3.694  0.4421 -0.0798 -2.0838
 2850SOL    HW311167   3.752   2.816   3.730 -0.7495  0.8796 -0.7223
 2850SOL    MW411168   3.667   2.801   3.719 -0.6858 -0.3113  0.1677
 2851SOL     OW11169   2.107   0.437   3.527 -0.4520  0.1976 -0.1119
 2851SOL    HW211170   2.184   0.387   3.501  0.3491  1.1700  0.3103
 2851SOL    HW311171   2.117   0.450   3.621 -0.4609  1.4072 -0.2569
 2851SOL    MW411172   2.119   0.432   3.536 -0.3474  0.4855 -0.0753
 2852SOL     OW11173   2.983   4.491   5.366  0.7388 -0.3837 -0.0649
 2852SOL    HW211174   3.010   4.427   5.432  1.6594 -1.0600 -1.0621
 2852SOL    HW311175   3.035   4.469   5.289 -1.0064 -0.2257 -1.3342
 2852SOL    MW411176   2.994   4.479   5.365  0.6300 -0.4521 -0.3639
 2853SOL     OW11177   1.307   4.792   3.669 -0.2177 -0.2513 -0.2383
 2853SOL    HW211178   1.332   4.874   3.627  0.0590  0.3212  1.0110
 2853SOL    HW311179   1.333   4.724   3.606  1.3546  0.5086 -0.4420
 2853SOL    MW411180   1.314   4.794   3.655  0.0263 -0.0755 -0.1004
 2854SOL     OW11181   1.912   0.647   5.409 -0.1765  0.2200  0.3588
 2854SOL    HW211182   1.846   0.679   5.347  0.1116  0.0913 -0.0202
 2854SOL    HW311183   1.963   0.584   5.358 -0.8895 -1.0557  1.1643
 2854SOL    MW411184   1.910   0.643   5.394 -0.2325  0.0347  0.4151
 2855SOL     OW11185   4.960   0.608   4.156  0.2140 -0.3767  0.0330
 2855SOL    HW211186   5.049   0.641   4.169 -0.3005  0.8498  0.5213
 2855SOL    HW311187   4.933   0.579   4.243 -0.2932  0.3405  0.1140
 2855SOL    MW411188   4.968   0.608   4.169  0.0792 -0.1202  0.1081
 2856SOL     OW11189   0.507   5.374   3.533  0.1492  0.7519 -0.5453
 2856SOL    HW211190   0.446   5.320   3.482  0.4090  1.3926 -1.5651
 2856SOL    HW311191   0.454   5.409   3.604  0.0138 -0.9571  0.2438
 2856SOL    MW411192   0.492   5.372   3.535  0.1656  0.6109 -0.5757
 2857SOL     OW11193   2.583   0.094   0.509 -0.3907  0.1854  0.1021
 2857SOL    HW211194   2.663   0.056   0.546  1.0748  2.3800 -0.6251
 2857SOL    HW311195   2.550   0.153   0.577 -0.2281  0.8241 -0.3682
 2857SOL    MW411196   2.589   0.097   0.523 -0.1759  0.5592 -0.0559
 2858SOL     OW11197   2.968   6.283   3.942  0.4517 -0.2489  0.3587
 2858SOL    HW211198   2.930   6.289   4.029  0.7989 -1.6482  0.6218
 2858SOL    HW311199   3.030   6.211   3.947  1.2536  0.3312 -0.7687
 2858SOL    MW411200   2.971   6.274   3.954  0.6033 -0.3570  0.2447
 2859SOL     OW11201   0.952   0.647   4.896  0.2339 -0.1341  0.2839
 2859SOL    HW211202   0.908   0.563   4.906  1.5021 -1.0480 -1.3417
 2859SOL    HW311203   0.883   0.712   4.910 -0.9345 -1.4424  0.8243
 2859SOL    MW411204   0.937   0.645   4.900  0.2471 -0.4273  0.1407
 2860SOL     OW11205   3.401   1.104   4.255 -0.3609  0.0964 -0.1747
 2860SOL    HW211206   3.343   1.139   4.187 -1.7133  1.7366  1.7252
 2860SOL    HW311207   3.474   1.166   4.258 -0.8801  0.6786  0.6336
 2860SOL    MW411208   3.403   1.117   4.246 -0.6079  0.3896  0.1826
 2861SOL     OW11209   3.111   0.743   1.213 -0.5831 -0.0850 -0.2123
 2861SOL    HW211210   3.201   0.717   1.194 -0.5969 -1.0616  0.9486
 2861SOL    HW311211   3.119   0.811   1.280 -0.7224 -0.3047  0.0254
 2861SOL    MW411212   3.124   0.749   1.219 -0.6033 -0.2429 -0.0277
 2862SOL     OW11213   3.560   5.656   4.518  0.4476 -0.1703  0.2382
 2862SOL    HW211214   3.492   5.670   4.584  1.0981 -3.5690  1.8674
 2862SOL    HW311215   3.514   5.615   4.445  0.3906 -0.3567  0.3781
 2862SOL    MW411216   3.545   5.652   4.517  0.5259 -0.6433  0.4716
 2863SOL     OW11217   3.545   5.277   4.787  0.0498  0.8096  0.5026
 2863SOL    HW211218   3.466   5.294   4.839 -1.5225  0.0476 -1.5144
 2863SOL    HW311219   3.530   5.323   4.705  1.0976 -0.4436 -0.4383
 2863SOL    MW411220   3.532   5.285   4.783 -0.0194  0.5437  0.1123
 2864SOL     OW11221   3.581   6.018   1.019  0.3239  0.1165 -0.0224
 2864SOL    HW211222   3.660   6.018   0.964  0.2386  1.2737 -0.1732
 2864SOL    HW311223   3.538   5.934   0.999  1.1843 -0.2412 -0.4194
 2864SOL    MW411224   3.586   6.007   1.009  0.4262  0.2220 -0.0947
 2865SOL     OW11225   1.622   3.024   0.386  0.6009  0.2946  0.0147
 2865SOL    HW211226   1.630   2.948   0.328 -0.5298  1.2262 -1.4357
 2865SOL    HW311227   1.689   3.085   0.355  1.2342  0.0838  0.9161
 2865SOL    MW411228   1.632   3.022   0.375  0.5353  0.3897 -0.0577
 2866SOL     OW11229   4.461   0.215   5.306 -0.5825  0.3606 -0.0216
 2866SOL    HW211230   4.437   0.301   5.271 -2.0791 -0.0701 -0.0907
 2866SOL    HW311231   4.432   0.217   5.397  0.0018  0.1651  0.1744
 2866SOL    MW411232   4.454   0.227   5.313 -0.7028  0.2780 -0.0048
 2867SOL     OW11233   6.278   3.810   0.643  0.6158 -0.2321  0.4200
 2867SOL    HW211234   6.186   3.821   0.621 -0.7430 -2.9024  3.8275
 2867SOL    HW311235   6.294   3.875   0.712  1.3236  0.1912 -0.1239
 2867SOL    MW411236   6.268   3.820   0.650  0.5299 -0.5286  0.7978
 2868SOL     OW11237   4.083   1.468   1.770 -0.8828  0.6182  0.4244
 2868SOL    HW211238   4.154   1.517   1.729 -1.9294  3.3092  1.5847
 2868SOL    HW311239   4.029   1.438   1.697  0.9681 -0.8028 -0.4239
 2868SOL    MW411240   4.085   1.471   1.755 -0.7767  0.7858  0.4656
 2869SOL     OW11241   0.088   4.378   3.811  0.3028  0.1087  0.1514
 2869SOL    HW211242   0.073   4.301   3.757 -0.7669  0.3268  0.1318
 2869SOL    HW311243   0.158   4.426   3.766  2.6990 -2.0003  1.3864
 2869SOL    MW411244   0.096   4.374   3.798  0.4778 -0.1407  0.3117
 2870SOL     OW11245   4.618   3.371   0.960  0.0409  0.4236 -0.0473
 2870SOL    HW211246   4.553   3.381   0.890  0.7343  1.3163 -0.5803
 2870SOL    HW311247   4.631   3.459   0.994  1.4712  0.3677 -0.4048
 2870SOL    MW411248   4.611   3.384   0.955  0.3211  0.5340 -0.1648
 2871SOL     OW11249   1.359   5.581   3.181 -0.0115 -0.9073 -0.0590
 2871SOL    HW211250   1.306   5.598   3.103 -0.3291 -0.1145  0.3187
 2871SOL    HW311251   1.417   5.509   3.155 -0.4132 -0.9495 -0.8813
 2871SOL    MW411252   1.360   5.574   3.167 -0.1064 -0.8083 -0.1177
 2872SOL     OW11253   0.873   1.875   1.369  0.2059 -0.2678 -0.4922
 2872SOL    HW211254   0.900   1.855   1.280 -0.6421 -1.2734 -0.5296
 2872SOL    HW311255   0.778   1.885   1.364  0.0523 -1.1519  0.4400
 2872SOL    MW411256   0.864   1.874   1.357  0.0738 -0.5171 -0.3742
 2873SOL     OW11257   3.396   4.882   5.319  0.5408 -0.3876 -0.2011
 2873SOL    HW211258   3.442   4.924   5.393  0.4976  0.2564 -0.5326
 2873SOL    HW311259   3.461   4.821   5.283  2.0059  2.0408 -2.0129
 2873SOL    MW411260   3.411   4.880   5.324  0.7284  0.0178 -0.4839
 2874SOL     OW11261   4.771   4.266   4.896 -0.2452 -0.5352  0.0226
 2874SOL    HW211262   4.850   4.212   4.896  0.8748  1.0307  0.2303
 2874SOL    HW311263   4.699   4.203   4.898  0.9799 -2.0143 -0.3256
 2874SOL    MW411264   4.772   4.250   4.896  0.0642 -0.5238  0.0041
 2875SOL     OW11265   3.627   2.379   2.667 -1.1538 -0.2210 -0.0622
 2875SOL    HW211266   3.635   2.284   2.664 -0.2528 -0.1944  0.8306
 2875SOL    HW311267   3.716   2.410   2.651 -1.1796  0.4287  0.9779
 2875SOL    MW411268   3.640   2.370   2.664 -1.0383 -0.1318  0.1928
 2876SOL     OW11269   3.930   4.082   3.458 -0.1653 -0.0121  0.0764
 2876SOL    HW211270   3.862   4.022   3.425 -1.4257  2.0273 -1.3324
 2876SOL    HW311271   3.994   4.087   3.387  0.0717  0.1078  0.2974
 2876SOL    MW411272   3.929   4.075   3.444 -0.3003  0.2728 -0.0803
 2877SOL     OW11273   2.023   3.022   1.845  0.1269  0.1761  0.4425
 2877SOL    HW211274   2.072   3.071   1.778  0.4042  0.4771  0.8597
 2877SOL    HW311275   1.941   2.999   1.802 -0.0737  1.1363  0.2772
 2877SOL    MW411276   2.019   3.026   1.831  0.1370  0.3425  0.4757
 2878SOL     OW11277   3.805   4.417   5.768 -0.4202  0.2547  0.2663
 2878SOL    HW211278   3.826   4.459   5.685  0.0286 -2.2450 -0.9439
 2878SOL    HW311279   3.748   4.344   5.745 -0.8906 -0.0708  2.2531
 2878SOL    MW411280   3.800   4.413   5.754 -0.4230 -0.1180  0.3688
 2879SOL     OW11281   1.581   3.196   3.189 -0.3610  0.3942  0.4788
 2879SOL    HW211282   1.600   3.115   3.142  0.3365  0.4047  0.7378
 2879SOL    HW311283   1.540   3.167   3.271 -1.1012  0.3575  0.1112
 2879SOL    MW411284   1.578   3.181   3.194 -0.3666  0.3907  0.4645
 2880SOL     OW11285   4.836   6.021   3.875 -0.3517  0.4697 -0.3589
 2880SOL    HW211286   4.753   5.976   3.890  0.0669 -0.0601  0.4583
 2880SOL    HW311287   4.816   6.113   3.892 -0.2003  0.0654  2.6279
 2880SOL    MW411288   4.822   6.027   3.880 -0.2765  0.3465  0.1430
 2881SOL     OW11289   5.663   5.762   5.438 -0.2722 -0.6521 -0.0324
 2881SOL    HW211290   5.623   5.775   5.352 -0.8296 -0.5624  0.2369
 2881SOL    HW311291   5.616   5.822   5.496  2.3833  1.8953 -0.2996
 2881SOL    MW411292   5.651   5.772   5.435  0.0046 -0.3042 -0.0321
 2882SOL     OW11293   6.189   4.956   5.667  0.3092 -0.3248  0.0502
 2882SOL    HW211294   6.191   4.899   5.590 -0.3531  0.7878 -0.8206
 2882SOL    HW311295   6.145   5.035   5.637  0.4254  0.3062  1.4707
 2882SOL    MW411296   6.184   4.959   5.653  0.2372 -0.0948  0.1227
 2883SOL     OW11297   4.854   5.780   6.433  0.2871 -0.0512 -0.8831
 2883SOL    HW211298   4.947   5.802   6.436  0.4259 -0.4681 -1.6408
 2883SOL    HW311299   4.816   5.842   6.371 -0.2756  1.1770  0.6330
 2883SOL    MW411300   4.861   5.791   6.425  0.2311  0.0558 -0.7830
 2884SOL     OW11301   6.004   1.861   3.166 -0.2625  0.1490 -0.3666
 2884SOL    HW211302   5.971   1.875   3.078 -0.6609 -1.2220 -0.4612
 2884SOL    HW311303   5.932   1.887   3.224 -0.1666  0.6081 -0.4456
 2884SOL    MW411304   5.990   1.866   3.162 -0.3024  0.0287 -0.3895
 2885SOL     OW11305   4.386   1.626   4.539  0.1685  0.6557  0.0141
 2885SOL    HW211306   4.311   1.572   4.563 -0.4092  1.9397  1.2768
 2885SOL    HW311307   4.462   1.569   4.549 -0.5873 -0.5928 -1.0356
 2885SOL    MW411308   4.386   1.611   4.544 -0.0074  0.6604  0.0422
 2886SOL     OW11309   5.905   3.648   0.733 -0.6735  0.2763  0.1507
 2886SOL    HW211310   5.836   3.628   0.796 -1.2891  0.3702 -0.4726
 2886SOL    HW311311   5.874   3.726   0.687 -1.0136 -0.6907 -1.3463
 2886SOL    MW411312   5.892   3.656   0.735 -0.7996  0.1611 -0.1290
 2887SOL     OW11313   3.682   1.372   2.085  0.0528  0.9363 -0.7236
 2887SOL    HW211314   3.695   1.438   2.016  1.5978  0.6930 -0.7014
 2887SOL    HW311315   3.758   1.314   2.076 -0.2120  0.3695  0.5991
 2887SOL    MW411316   3.694   1.373   2.075  0.2217  0.8294 -0.5462
 2888SOL     OW11317   3.933   3.222   2.983  0.3342  0.1170  0.1519
 2888SOL    HW211318   3.932   3.266   2.898  0.7606  0.5412  0.3568
 2888SOL    HW311319   3.844   3.189   2.995  0.2124  0.2626 -0.3556
 2888SOL    MW411320   3.921   3.224   2.974  0.3744  0.1922  0.1120
 2889SOL     OW11321   3.609   4.304   5.414 -0.0039 -0.0097 -0.1116
 2889SOL    HW211322   3.534   4.338   5.364  0.4752 -0.7951 -1.4085
 2889SOL    HW311323   3.683   4.315   5.355  0.6839 -0.4303  0.6667
 2889SOL    MW411324   3.609   4.310   5.400  0.1501 -0.1688 -0.1800
 2890SOL     OW11325   4.011   4.286   5.936 -0.1649  0.5540  0.2540
 2890SOL    HW211326   3.947   4.320   5.873 -0.1443  0.0587 -0.0430
 2890SOL    HW311327   4.088   4.342   5.926 -0.5396  1.1369  0.5916
 2890SOL    MW411328   4.012   4.298   5.926 -0.2116  0.5656  0.2593
 2891SOL     OW11329   3.299   2.554   1.918  0.1972  0.1251 -0.2283
 2891SOL    HW211330   3.365   2.533   1.984 -1.0068  1.7862  1.6020
 2891SOL    HW311331   3.344   2.540   1.834  1.6939 -2.3281  0.8739
 2891SOL    MW411332   3.314   2.549   1.915  0.2358  0.0206  0.1586
 2892SOL     OW11333   2.920   4.876   3.681 -0.0727  0.1079 -0.4527
 2892SOL    HW211334   3.014   4.889   3.668  0.0132  0.0301  0.0687
 2892SOL    HW311335   2.880   4.958   3.652  0.2722  0.6530  0.5639
 2892SOL    MW411336   2.927   4.889   3.675 -0.0159  0.1695 -0.2498
 2893SOL     OW11337   6.199   1.498   5.451  0.1606  0.4895 -0.3781
 2893SOL    HW211338   6.220   1.551   5.528 -0.4490  0.3652 -0.1147
 2893SOL    HW311339   6.177   1.561   5.383  1.3859  0.6239 -0.6748
 2893SOL    MW411340   6.199   1.513   5.452  0.2419  0.4908 -0.3825
 2894SOL     OW11341   4.774   3.150   5.026  0.6020 -0.0546  0.6837
 2894SOL    HW211342   4.844   3.114   4.971 -1.0225 -0.2608 -1.3555
 2894SOL    HW311343   4.819   3.175   5.107  2.9718 -0.4558 -0.3991
 2894SOL    MW411344   4.789   3.148   5.030  0.7003 -0.1348  0.2718
 2895SOL     OW11345   0.763   5.106   4.586 -0.9265  0.3382  0.0584
 2895SOL    HW211346   0.766   5.060   4.502 -1.1358  1.1388 -0.3999
 2895SOL    HW311347   0.778   5.198   4.564 -0.4939  0.5016  0.9560
 2895SOL    MW411348   0.765   5.112   4.572 -0.8971  0.4654  0.1163
 2896SOL     OW11349   6.296   1.150   5.645  0.2117  0.1810  0.4550
 2896SOL    HW211350   6.370   1.140   5.585  0.1495  0.0882  0.3932
 2896SOL    HW311351   6.262   1.061   5.655 -0.2794  0.3130 -0.0090
 2896SOL    MW411352   6.301   1.137   5.638  0.1387  0.1862  0.3856
 2897SOL     OW11353   1.336   0.333   5.639  0.2246 -0.6540 -0.3563
 2897SOL    HW211354   1.304   0.308   5.553 -0.4417 -0.1633 -0.2631
 2897SOL    HW311355   1.294   0.271   5.699  1.3436 -1.5385 -0.4401
 2897SOL    MW411356   1.326   0.321   5.636  0.2843 -0.7060 -0.3551
 2898SOL     OW11357   4.369   3.030   5.241  0.2539 -0.6310 -0.2152
 2898SOL    HW211358   4.339   3.109   5.197  0.9102 -0.3451 -0.1634
 2898SOL    HW311359   4.412   3.061   5.321  0.4014 -1.0458 -0.1273
 2898SOL    MW411360   4.371   3.044   5.246  0.3600 -0.6480 -0.1968
 2899SOL     OW11361   2.477   4.717   5.212  0.0833  0.0397  0.2506
 2899SOL    HW211362   2.420   4.699   5.286  0.5062 -0.6950  0.4034
 2899SOL    HW311363   2.562   4.739   5.251 -0.1016  1.2542  0.0288
 2899SOL    MW411364   2.481   4.718   5.227  0.1147  0.1030  0.2415
 2900SOL     OW11365   2.383   6.335   0.398 -0.3202  0.2691  0.5968
 2900SOL    HW211366   2.446   6.394   0.440  0.5841  0.8018 -1.3552
 2900SOL    HW311367   2.413   6.247   0.422 -0.0516  0.5518  1.3285
 2900SOL    MW411368   2.395   6.331   0.406 -0.1655  0.3766  0.4358
 2901SOL     OW11369   5.003   0.031   0.188 -0.4954  0.0449 -0.1386
 2901SOL    HW211370   5.086   0.074   0.207 -0.5850  0.3863 -0.5074
 2901SOL    HW311371   4.972   0.072   0.107  0.2412 -1.8662 -1.4486
 2901SOL    MW411372   5.010   0.042   0.180 -0.4101 -0.1622 -0.3601
 2902SOL     OW11373   5.493   1.493   4.222  0.0797 -0.5593  0.2241
 2902SOL    HW211374   5.545   1.428   4.270  0.4901  1.8725  3.3774
 2902SOL    HW311375   5.418   1.510   4.279 -0.7792  0.6834 -1.2254
 2902SOL    MW411376   5.490   1.486   4.236  0.0205 -0.0745  0.4489
 2903SOL     OW11377   3.774   4.196   0.869  0.3943 -0.0880 -0.0428
 2903SOL    HW211378   3.730   4.171   0.788 -0.8255  2.2484 -0.1963
 2903SOL    HW311379   3.864   4.212   0.843 -0.1955  1.6037 -1.2133
 2903SOL    MW411380   3.780   4.195   0.855  0.1555  0.4435 -0.2175
 2904SOL     OW11381   4.267   2.053   2.363  0.1427  0.8999  0.0095
 2904SOL    HW211382   4.347   2.074   2.411 -1.8602  1.1177  3.6055
 2904SOL    HW311383   4.239   1.969   2.398  0.0632 -0.5602 -3.1628
 2904SOL    MW411384   4.274   2.045   2.374 -0.1320  0.7360  0.0654
 2905SOL     OW11385   2.977   5.514   2.758  0.0881 -0.3853  0.2921
 2905SOL    HW211386   2.937   5.600   2.766 -0.1582 -0.4027 -0.5909
 2905SOL    HW311387   2.906   5.452   2.774 -0.4729 -0.4226 -1.9449
 2905SOL    MW411388   2.963   5.517   2.761 -0.0184 -0.3925 -0.1196
 2906SOL     OW11389   0.169   2.493   3.453  0.0536  0.1112  0.0166
 2906SOL    HW211390   0.181   2.442   3.533  2.0469  0.9576  0.3240
 2906SOL    HW311391   0.093   2.548   3.470  0.8457  0.7650  1.6213
 2906SOL    MW411392   0.161   2.493   3.466  0.4211  0.3091  0.2689
 2907SOL     OW11393   2.271   4.361   2.997 -0.3140 -0.2835  0.4949
 2907SOL    HW211394   2.307   4.295   2.937 -0.3542  0.5293 -0.4392
 2907SOL    HW311395   2.304   4.335   3.083  0.7039 -0.8105 -0.0366
 2907SOL    MW411396   2.280   4.349   3.000 -0.1850 -0.2458  0.3015
 2908SOL     OW11397   5.105   0.192   1.415 -0.0037  0.2220  0.4151
 2908SOL    HW211398   5.169   0.224   1.351 -1.5543  0.1110 -1.2807
 2908SOL    HW311399   5.032   0.254   1.407 -0.0096  0.5482  2.5489
 2908SOL    MW411400   5.104   0.205   1.405 -0.2091  0.2504  0.4729
 2909SOL     OW11401   4.037   5.011   0.108  0.1584 -0.8374  0.6340
 2909SOL    HW211402   4.103   4.948   0.138  1.1592  0.0600  0.3959
 2909SOL    HW311403   4.071   5.096   0.136  0.4940 -0.0877 -1.8091
 2909SOL    MW411404   4.051   5.014   0.115  0.3348 -0.6201  0.2803
 2910SOL     OW11405   2.447   3.445   1.173  0.0525  0.1286  0.4553
 2910SOL    HW211406   2.497   3.472   1.250  0.0252  1.6101 -0.0150
 2910SOL    HW311407   2.513   3.434   1.105 -0.0663  0.2823  0.3143
 2910SOL    MW411408   2.462   3.448   1.175  0.0332  0.3444  0.3746
 2911SOL     OW11409   1.834   5.773   1.818  0.1236  0.7257 -0.2984
 2911SOL    HW211410   1.891   5.738   1.750  0.7735  0.0234  0.5861
 2911SOL    HW311411   1.892   5.791   1.891 -0.5454  1.5946  0.0352
 2911SOL    MW411412   1.849   5.771   1.818  0.1211  0.7477 -0.1377
 2912SOL     OW11413   5.382   1.373   3.416  0.3909 -0.7330  0.1828
 2912SOL    HW211414   5.466   1.337   3.445  1.4352  1.2262 -0.2124
 2912SOL    HW311415   5.369   1.451   3.470 -0.8479 -0.6372 -0.2227
 2912SOL    MW411416   5.392   1.379   3.427  0.3652 -0.4619  0.0772
 2913SOL     OW11417   3.280   4.070   6.334  0.2176 -0.1811  0.4275
 2913SOL    HW211418   3.299   4.164   6.341 -0.6425 -0.1301  3.1603
 2913SOL    HW311419   3.356   4.028   6.374 -0.4791 -0.4802  1.4850
 2913SOL    MW411420   3.292   4.077   6.340  0.0122 -0.2138  0.9276
 2914SOL     OW11421   3.500   5.751   0.903  0.4755 -0.0336 -0.3993
 2914SOL    HW211422   3.573   5.699   0.937  1.1231 -0.2467 -2.0338
 2914SOL    HW311423   3.424   5.718   0.950  1.1407 -1.1958 -0.0908
 2914SOL    MW411424   3.500   5.740   0.914  0.6487 -0.2150 -0.5742
 2915SOL     OW11425   2.100   1.223   2.836  0.0591 -0.6456 -0.2651
 2915SOL    HW211426   2.160   1.179   2.775 -0.6593 -0.1199 -1.3867
 2915SOL    HW311427   2.033   1.159   2.855  0.3917 -0.8780  0.1452
 2915SOL    MW411428   2.099   1.209   2.830  0.0082 -0.6069 -0.3589
 2916SOL     OW11429   5.733   4.180   2.210 -0.0115 -0.5185 -0.8554
 2916SOL    HW211430   5.641   4.164   2.232  0.4517  0.6412  2.6131
 2916SOL    HW311431   5.734   4.268   2.174 -0.1897 -0.1257  0.0691
 2916SOL    MW411432   5.721   4.189   2.209  0.0261 -0.3137 -0.2758
 2917SOL     OW11433   1.765   3.937   1.882 -0.2134 -0.4518  0.4083
 2917SOL    HW211434   1.801   3.986   1.808 -2.6260 -0.1830 -0.6566
 2917SOL    HW311435   1.773   3.845   1.856  0.5625 -0.4545  0.6232
 2917SOL    MW411436   1.771   3.931   1.869 -0.4294 -0.4167  0.2961
 2918SOL     OW11437   5.896   3.959   2.287 -0.2067 -0.6014 -0.0497
 2918SOL    HW211438   5.863   4.040   2.249 -1.2544 -0.5206  0.9876
 2918SOL    HW311439   5.927   3.908   2.212 -2.6296 -0.6394 -1.1003
 2918SOL    MW411440   5.896   3.963   2.272 -0.6646 -0.5957 -0.0514
 2919SOL     OW11441   1.989   5.606   5.547  0.6191 -0.2189 -0.4643
 2919SOL    HW211442   1.907   5.651   5.569 -0.0463 -1.1117 -1.0637
 2919SOL    HW311443   2.049   5.628   5.619 -0.5217 -0.5371  0.6078
 2919SOL    MW411444   1.986   5.615   5.559  0.3808 -0.3787 -0.4019
 2920SOL     OW11445   1.213   3.328   1.844  0.5567 -0.1817 -0.1910
 2920SOL    HW211446   1.243   3.255   1.897 -0.5580 -1.9454 -1.8786
 2920SOL    HW311447   1.275   3.334   1.772  0.9894  0.9647  0.2548
 2920SOL    MW411448   1.225   3.320   1.842  0.4667 -0.2632 -0.3548
 2921SOL     OW11449   0.428   4.410   5.210 -0.3395 -0.4335  0.1054
 2921SOL    HW211450   0.449   4.494   5.170 -1.5195 -0.7383 -1.2479
 2921SOL    HW311451   0.475   4.346   5.157 -1.2545 -0.7787 -0.3073
 2921SOL    MW411452   0.437   4.413   5.198 -0.6159 -0.5193 -0.1276
 2922SOL     OW11453   1.999   0.990   4.486  0.2719  0.4282 -0.8199
 2922SOL    HW211454   1.952   0.942   4.554  0.2622 -2.2841 -2.5618
 2922SOL    HW311455   2.008   1.079   4.520 -1.7178 -0.2227  1.6755
 2922SOL    MW411456   1.994   0.995   4.500  0.0081 -0.0156 -0.7205
 2923SOL     OW11457   5.784   3.130   3.922 -0.1278 -0.0870 -0.2756
 2923SOL    HW211458   5.747   3.218   3.922 -0.6458 -0.2605  1.8562
 2923SOL    HW311459   5.876   3.142   3.948  0.3250 -0.0417 -1.7753
 2923SOL    MW411460   5.792   3.143   3.926 -0.1364 -0.1039 -0.1922
 2924SOL     OW11461   5.389   4.372   0.539 -0.6549 -0.5842  0.2942
 2924SOL    HW211462   5.376   4.279   0.523 -0.7029 -0.4478 -0.5266
 2924SOL    HW311463   5.481   4.388   0.515 -0.5890 -0.4660  0.6280
 2924SOL    MW411464   5.400   4.362   0.533 -0.6525 -0.5506  0.2300
 2925SOL     OW11465   0.660   5.459   2.466 -0.1701 -0.3474 -0.0076
 2925SOL    HW211466   0.713   5.535   2.441  0.7827 -1.1929 -0.6416
 2925SOL    HW311467   0.618   5.485   2.548  1.2694  0.3456  0.5420
 2925SOL    MW411468   0.662   5.473   2.473  0.1455 -0.3675 -0.0188
 2926SOL     OW11469   1.987   3.878   5.625 -0.0056  0.3141 -0.1572
 2926SOL    HW211470   2.041   3.809   5.587  0.6600  0.3812  0.6405
 2926SOL    HW311471   2.041   3.915   5.695 -1.4852 -0.3582  1.4136
 2926SOL    MW411472   2.001   3.874   5.629 -0.1130  0.2342  0.1553
 2927SOL     OW11473   3.328   2.992   5.266 -0.5779  0.1933 -0.4948
 2927SOL    HW211474   3.406   2.984   5.321 -1.4735  0.8200  0.8950
 2927SOL    HW311475   3.351   3.059   5.202 -0.0368  0.5231  0.0309
 2927SOL    MW411476   3.342   3.000   5.265 -0.6247  0.3195 -0.2421
 2928SOL     OW11477   2.698   0.700   0.651 -0.3449 -0.4703 -0.1398
 2928SOL    HW211478   2.784   0.742   0.654 -0.7295  0.2994  0.6528
 2928SOL    HW311479   2.649   0.750   0.586 -0.0274 -1.2587 -1.0006
 2928SOL    MW411480   2.702   0.712   0.643 -0.3537 -0.4728 -0.1488
 2929SOL     OW11481   2.323   2.594   2.116  0.0271  0.0398 -0.4791
 2929SOL    HW211482   2.404   2.543   2.117  1.0627  1.5967 -0.6696
 2929SOL    HW311483   2.298   2.600   2.208 -0.3332 -1.1240 -0.4900
 2929SOL    MW411484   2.330   2.588   2.128  0.1162  0.0917 -0.5056
 2930SOL     OW11485   6.109   0.769   3.549 -0.1041  0.7513 -0.1239
 2930SOL    HW211486   6.105   0.783   3.644 -0.0039 -0.8179  0.1335
 2930SOL    HW311487   6.018   0.776   3.521 -0.0337  2.1010 -0.0659
 2930SOL    MW411488   6.096   0.772   3.558 -0.0816  0.7224 -0.0823
 2931SOL     OW11489   1.104   4.177   3.350  0.6338  0.5695 -0.1853
 2931SOL    HW211490   1.150   4.144   3.427 -0.0744 -0.2939 -0.1108
 2931SOL    HW311491   1.147   4.134   3.276  0.8916  0.8955 -0.2262
 2931SOL    MW411492   1.116   4.167   3.350  0.5743  0.4986 -0.1809
 2932SOL     OW11493   4.943   3.044   0.665 -0.1079  0.1425  0.1244
 2932SOL    HW211494   4.918   3.088   0.584  0.7264  1.1467  0.3985
 2932SOL    HW311495   4.964   3.115   0.726  0.8911 -0.6281  0.6992
 2932SOL    MW411496   4.942   3.059   0.663  0.1340  0.1733  0.2364
 2933SOL     OW11497   4.774   1.899   5.263 -0.8063 -0.1090 -0.3453
 2933SOL    HW211498   4.826   1.972   5.298 -1.2549 -0.0852  0.2900
 2933SOL    HW311499   4.804   1.823   5.314 -0.5509 -0.3177 -0.8018
 2933SOL    MW411500   4.785   1.898   5.274 -0.8318 -0.1334 -0.3217
 2934SOL     OW11501   0.584   0.434   2.319  1.0847  0.3547 -0.4418
 2934SOL    HW211502   0.642   0.468   2.387  0.9623  0.2201 -0.2679
 2934SOL    HW311503   0.544   0.512   2.280  1.4719  0.4509 -0.6415
 2934SOL    MW411504   0.586   0.449   2.323  1.1196  0.3496 -0.4453
 2935SOL     OW11505   3.137   5.488   3.534  0.4025  0.2101  0.2166
 2935SOL    HW211506   3.052   5.450   3.557  0.1542  1.3536  1.2985
 2935SOL    HW311507   3.127   5.517   3.444  1.1456 -3.7091 -1.3511
 2935SOL    MW411508   3.125   5.487   3.525  0.4678 -0.1561  0.1525
 2936SOL     OW11509   0.494   2.855   1.142 -0.2411  0.0744  0.2207
 2936SOL    HW211510   0.504   2.800   1.063 -0.8265 -0.4332  0.4871
 2936SOL    HW311511   0.406   2.891   1.134 -0.0777  0.4992  0.3493
 2936SOL    MW411512   0.484   2.852   1.130 -0.2968  0.0634  0.2728
 2937SOL     OW11513   0.708   5.019   3.991  0.3230  0.1877  0.0623
 2937SOL    HW211514   0.747   5.042   3.906 -1.2840  3.6125  0.0917
 2937SOL    HW311515   0.724   4.925   4.000  2.2778  0.0720 -3.0969
 2937SOL    MW411516   0.715   5.010   3.981  0.3689  0.6243 -0.3507
 2938SOL     OW11517   4.427   1.549   2.571  0.1191 -0.0536 -0.1758
 2938SOL    HW211518   4.450   1.599   2.493 -1.6123  0.9183 -0.1181
 2938SOL    HW311519   4.389   1.468   2.538 -0.9600  0.5167 -0.3933
 2938SOL    MW411520   4.425   1.545   2.556 -0.2517  0.1499 -0.1969
 2939SOL     OW11521   0.596   1.115   2.267  0.3431 -0.2181 -0.1785
 2939SOL    HW211522   0.585   1.185   2.331 -0.4165 -1.5250  1.1937
 2939SOL    HW311523   0.629   1.158   2.189  3.4059  1.2131  1.7120
 2939SOL    MW411524   0.599   1.130   2.265  0.6470 -0.2017  0.2520
 2940SOL     OW11525   4.378   3.607   3.186 -0.5354  0.1923 -0.1512
 2940SOL    HW211526   4.302   3.549   3.187  0.2736 -0.9223  1.3754
 2940SOL    HW311527   4.427   3.584   3.265  1.9142  0.1777 -1.5730
 2940SOL    MW411528   4.375   3.596   3.196 -0.1054  0.0433 -0.1374
 2941SOL     OW11529   2.150   5.672   4.210 -0.6018 -0.4996  0.2257
 2941SOL    HW211530   2.139   5.732   4.136 -0.7424 -0.6885  0.0920
 2941SOL    HW311531   2.209   5.604   4.178 -0.6847 -0.5968  0.2787
 2941SOL    MW411532   2.156   5.671   4.196 -0.6313 -0.5374  0.2151
 2942SOL     OW11533   0.432   6.281   1.385  0.4447 -0.1108 -0.4269
 2942SOL    HW211534   0.431   6.286   1.481 -1.0723  0.5968 -0.4413
 2942SOL    HW311535   0.340   6.263   1.362  1.1358 -2.4647 -1.6722
 2942SOL    MW411536   0.419   6.279   1.395  0.3357 -0.3280 -0.5931
 2943SOL     OW11537   1.224   3.873   4.768 -0.6689 -0.8057 -0.1836
 2943SOL    HW211538   1.201   3.781   4.757 -0.2629 -0.9463  0.1196
 2943SOL    HW311539   1.319   3.873   4.773 -0.6928 -0.4299  0.3585
 2943SOL    MW411540   1.233   3.861   4.767 -0.6185 -0.7747 -0.0721
 2944SOL     OW11541   0.953   0.159   4.661 -0.3326  0.5483  0.1177
 2944SOL    HW211542   1.023   0.142   4.598  2.1436  0.9101  2.5675
 2944SOL    HW311543   0.921   0.072   4.686 -3.0221  0.4045 -3.1462
 2944SOL    MW411544   0.958   0.145   4.656 -0.3607  0.5770  0.0103
 2945SOL     OW11545   0.546   2.256   6.092  0.0939  0.5193  0.2787
 2945SOL    HW211546   0.595   2.237   6.012 -0.8790 -1.2124  0.0280
 2945SOL    HW311547   0.610   2.296   6.151  0.9518  1.3642 -1.1831
 2945SOL    MW411548   0.561   2.259   6.089  0.0787  0.4023  0.0528
 2946SOL     OW11549   2.955   5.483   5.526  0.1781  0.3047  0.0281
 2946SOL    HW211550   2.934   5.572   5.557  1.1363  0.8683 -0.8783
 2946SOL    HW311551   3.020   5.497   5.457 -1.5068 -0.9446 -1.8901
 2946SOL    MW411552   2.961   5.497   5.521  0.0823  0.2142 -0.3446
 2947SOL     OW11553   6.274   1.829   1.396 -0.0367  0.6422 -0.1991
 2947SOL    HW211554   6.244   1.917   1.422 -2.5207  0.0611 -0.7933
 2947SOL    HW311555   6.204   1.797   1.339  0.7321 -1.7929  0.1448
 2947SOL    MW411556   6.261   1.836   1.392 -0.2630  0.2442 -0.2321
 2948SOL     OW11557   4.957   3.777   1.788 -0.2063 -0.4539  0.0434
 2948SOL    HW211558   4.912   3.838   1.847  0.9716  2.3571 -1.7248
 2948SOL    HW311559   4.915   3.790   1.703  0.6384 -1.5433 -0.5683
 2948SOL    MW411560   4.945   3.787   1.785  0.0606 -0.2267 -0.2706
 2949SOL     OW11561   4.479   5.970   5.332 -0.0757  0.6153  0.2723
 2949SOL    HW211562   4.414   6.031   5.296 -2.3455 -1.4174  0.6837
 2949SOL    HW311563   4.485   5.899   5.268  2.0599  0.8693  0.0947
 2949SOL    MW411564   4.471   5.969   5.319 -0.0934  0.3806  0.3031
 2950SOL     OW11565   1.120   5.029   2.700  0.1323 -0.2642 -0.6609
 2950SOL    HW211566   1.187   5.096   2.687  1.2610 -1.2104  0.0836
 2950SOL    HW311567   1.092   5.006   2.611 -0.2193  1.0991 -0.9327
 2950SOL    MW411568   1.125   5.035   2.686  0.2349 -0.2092 -0.5985
 2951SOL     OW11569   0.536   4.762   5.111  0.3760 -0.4266  0.1854
 2951SOL    HW211570   0.544   4.725   5.022 -1.0931  0.4465 -0.3574
 2951SOL    HW311571   0.474   4.834   5.101  2.1387  1.3449  1.4785
 2951SOL    MW411572   0.529   4.766   5.098  0.4148 -0.0776  0.2844
 2952SOL     OW11573   2.247   0.443   5.786 -0.5115 -0.4203  0.2587
 2952SOL    HW211574   2.318   0.421   5.847 -1.2557 -0.8513  1.0013
 2952SOL    HW311575   2.175   0.387   5.814 -0.7872 -0.8329 -1.2217
 2952SOL    MW411576   2.247   0.433   5.798 -0.6461 -0.5316  0.1613
 2953SOL     OW11577   1.437   1.778   1.912  0.2092 -0.4694 -0.0114
 2953SOL    HW211578   1.474   1.861   1.942  0.2754  0.4344 -2.3680
 2953SOL    HW311579   1.512   1.720   1.901  0.5971  0.2827 -1.5758
 2953SOL    MW411580   1.452   1.781   1.915  0.2691 -0.2509 -0.5287
 2954SOL     OW11581   1.864   5.665   5.256 -0.4039  0.5109  0.2836
 2954SOL    HW211582   1.807   5.707   5.192  0.8828 -0.0229 -1.2835
 2954SOL    HW311583   1.938   5.633   5.205 -0.9817 -3.1207  1.4438
 2954SOL    MW411584   1.866   5.666   5.241 -0.3104 -0.0387  0.2299
 2955SOL     OW11585   5.304   2.489   6.022  0.6330 -0.1960 -0.2296
 2955SOL    HW211586   5.399   2.500   6.032  0.5927  1.2809 -1.2368
 2955SOL    HW311587   5.267   2.568   6.061 -0.1927 -0.7550  0.1333
 2955SOL    MW411588   5.312   2.501   6.029  0.5188 -0.0749 -0.3146
 2956SOL     OW11589   0.859   1.638   3.412  0.5557  0.0532 -0.4889
 2956SOL    HW211590   0.821   1.616   3.498  2.2027 -3.4699 -0.4956
 2956SOL    HW311591   0.946   1.673   3.433  2.2357 -3.6276 -0.5704
 2956SOL    MW411592   0.865   1.640   3.426  0.9947 -0.8972 -0.5006
 2957SOL     OW11593   6.129   1.827   2.835 -0.2990 -0.3221  0.2695
 2957SOL    HW211594   6.142   1.756   2.772  0.7677 -0.6656  0.8368
 2957SOL    HW311595   6.163   1.905   2.791  1.7401 -0.8053  0.8801
 2957SOL    MW411596   6.135   1.828   2.821  0.1108 -0.4312  0.4249
 2958SOL     OW11597   5.215   0.515   0.263  0.5930  0.0059 -0.0955
 2958SOL    HW211598   5.127   0.505   0.299  1.1789 -0.8872  1.1890
 2958SOL    HW311599   5.238   0.428   0.232  0.7843  0.3829 -1.0229
 2958SOL    MW411600   5.206   0.502   0.264  0.6956 -0.0622 -0.0484
 2959SOL     OW11601   3.888   6.384   3.941 -0.4577  1.0189  0.2811
 2959SOL    HW211602   3.979   6.413   3.944  0.0210  0.0389 -2.4574
 2959SOL    HW311603   3.848   6.437   3.873 -1.1687 -0.4225 -0.4685
 2959SOL    MW411604   3.895   6.395   3.933 -0.4884  0.6994 -0.1791
 2960SOL     OW11605   4.758   2.651   4.219  0.7567  0.3080 -0.4665
 2960SOL    HW211606   4.778   2.697   4.301  0.2536  1.5448 -0.9985
 2960SOL    HW311607   4.842   2.618   4.189  1.4180  2.1393 -0.7703
 2960SOL    MW411608   4.771   2.653   4.226  0.7776  0.7128 -0.5767
 2961SOL     OW11609   5.845   4.427   2.781  0.1651  0.1335 -0.0226
 2961SOL    HW211610   5.908   4.438   2.711  1.3099 -0.4586  0.8724
 2961SOL    HW311611   5.797   4.510   2.785  0.8876  0.5937 -0.7131
 2961SOL    MW411612   5.847   4.439   2.773  0.4115  0.1161  0.0044
 2962SOL     OW11613   0.701   4.461   5.273  0.3442 -0.0653 -0.0293
 2962SOL    HW211614   0.774   4.422   5.321  0.0615  0.5503  0.9405
 2962SOL    HW311615   0.625   4.407   5.298  0.2916 -0.0897 -0.2392
 2962SOL    MW411616   0.700   4.448   5.283  0.3000  0.0127  0.0710
 2963SOL     OW11617   6.096   6.114   2.249 -0.2996  0.5064 -0.0048
 2963SOL    HW211618   6.164   6.108   2.317 -0.9138  1.2564  0.6927
 2963SOL    HW311619   6.141   6.153   2.174  0.3340 -0.1212  0.0333
 2963SOL    MW411620   6.111   6.118   2.248 -0.2970  0.5225  0.0923
 2964SOL     OW11621   0.970   0.760   4.416  0.2542 -0.4537  0.0508
 2964SOL    HW211622   0.974   0.700   4.490 -0.0326 -0.6848 -0.1179
 2964SOL    HW311623   0.922   0.711   4.348 -1.1711  0.4528  0.3642
 2964SOL    MW411624   0.964   0.745   4.417  0.0283 -0.3646  0.0699
 2965SOL     OW11625   6.288   3.516   5.096 -0.1132  0.0597  0.3947
 2965SOL    HW211626   6.251   3.589   5.146 -1.3193 -0.6965  0.6349
 2965SOL    HW311627   6.282   3.441   5.154  2.9246  0.0905  0.8942
 2965SOL    MW411628   6.282   3.516   5.110  0.1285 -0.0360  0.4923
 2966SOL     OW11629   2.198   5.625   0.817  0.1919 -0.3285  0.2202
 2966SOL    HW211630   2.242   5.617   0.902  3.4713  2.4666 -0.9989
 2966SOL    HW311631   2.169   5.716   0.813  0.3665 -0.3215 -1.7529
 2966SOL    MW411632   2.200   5.636   0.828  0.6476  0.0412 -0.2010
 2967SOL     OW11633   3.919   3.880   4.712  0.2892 -0.2173 -0.5735
 2967SOL    HW211634   3.958   3.810   4.661  3.2435  0.9675 -0.1486
 2967SOL    HW311635   3.842   3.906   4.662 -0.0690 -2.7482 -1.4671
 2967SOL    MW411636   3.914   3.874   4.699  0.6317 -0.3949 -0.6353
 2968SOL     OW11637   3.976   3.030   6.349 -0.3390 -0.2045  0.0678
 2968SOL    HW211638   3.893   2.983   6.345 -0.5278 -0.0065  1.2052
 2968SOL    HW311639   3.954   3.121   6.331 -0.6727  0.1384  1.9623
 2968SOL    MW411640   3.962   3.036   6.346 -0.4080 -0.1332  0.4678
 2969SOL     OW11641   5.932   0.925   4.664 -0.2269  0.0589 -0.9879
 2969SOL    HW211642   6.020   0.900   4.690 -0.9644 -0.6397  1.0338
 2969SOL    HW311643   5.903   0.854   4.608  0.7286  0.6643 -2.3022
 2969SOL    MW411644   5.940   0.912   4.660 -0.1981  0.0466 -0.8946
 2970SOL     OW11645   2.023   0.277   3.309  0.2319 -0.0483  0.1754
 2970SOL    HW211646   2.062   0.360   3.283 -0.0308  0.3868  1.1275
 2970SOL    HW311647   1.938   0.275   3.265  0.7182 -0.3425 -0.7593
 2970SOL    MW411648   2.017   0.287   3.300  0.2614 -0.0297  0.1777
 2971SOL     OW11649   0.924   3.522   1.296  0.4408 -0.3491  0.0479
 2971SOL    HW211650   0.876   3.485   1.222  2.3846 -1.8102 -0.5365
 2971SOL    HW311651   1.011   3.483   1.291  0.5871 -0.6914  3.2610
 2971SOL    MW411652   0.929   3.512   1.285  0.7166 -0.5870  0.3947
 2972SOL     OW11653   2.137   6.387   0.945  0.2830 -0.6504  0.2485
 2972SOL    HW211654   2.077   6.403   0.872  1.2469 -1.2964 -0.7126
 2972SOL    HW311655   2.136   6.468   0.995  0.0670  0.0315 -0.8257
 2972SOL    MW411656   2.129   6.399   0.942  0.3817 -0.6456 -0.0200
 2973SOL     OW11657   5.641   4.128   4.834 -0.4008 -0.2177 -0.5404
 2973SOL    HW211658   5.558   4.127   4.882 -0.4518  0.3271 -0.6207
 2973SOL    HW311659   5.700   4.075   4.888 -0.7390 -0.4371 -0.3806
 2973SOL    MW411660   5.638   4.121   4.848 -0.4521 -0.1748 -0.5299
 2974SOL     OW11661   1.185   3.795   5.431  0.4755 -0.7394 -0.3308
 2974SOL    HW211662   1.220   3.740   5.500 -1.8063  0.0724  1.6391
 2974SOL    HW311663   1.251   3.862   5.417  0.9657 -0.8740  1.1721
 2974SOL    MW411664   1.198   3.797   5.438  0.2391 -0.6500  0.1274
 2975SOL     OW11665   3.044   3.846   5.393  0.0363 -0.5392  0.0699
 2975SOL    HW211666   3.067   3.909   5.324  0.2228 -1.0467 -0.3374
 2975SOL    HW311667   2.964   3.882   5.433 -1.4839 -1.4210 -1.9941
 2975SOL    MW411668   3.036   3.859   5.389 -0.1396 -0.7225 -0.2562
 2976SOL     OW11669   1.950   0.429   2.624 -0.1308  0.4928 -0.0108
 2976SOL    HW211670   2.024   0.425   2.685 -0.6117 -0.0786  0.5472
 2976SOL    HW311671   1.979   0.377   2.548 -0.4944 -0.9616  0.8127
 2976SOL    MW411672   1.964   0.422   2.622 -0.2422  0.2255  0.1715
 2977SOL     OW11673   3.388   2.994   2.420 -0.3070  0.5564 -0.2016
 2977SOL    HW211674   3.392   2.928   2.351  2.0737  0.8520 -0.4077
 2977SOL    HW311675   3.393   3.078   2.374 -2.8015  0.9455  0.0975
 2977SOL    MW411676   3.389   2.996   2.405 -0.3220  0.6467 -0.1894
 2978SOL     OW11677   5.516   4.865   0.423  0.2201  0.5186 -0.0631
 2978SOL    HW211678   5.451   4.886   0.490 -0.3570 -0.6212 -0.2397
 2978SOL    HW311679   5.482   4.786   0.380  1.7220 -0.1240 -0.1469
 2978SOL    MW411680   5.503   4.857   0.426  0.3421  0.2835 -0.0975
 2979SOL     OW11681   5.217   3.316   2.316  0.1377  0.5784 -0.1603
 2979SOL    HW211682   5.138   3.288   2.270 -0.7510  2.0147  0.4356
 2979SOL    HW311683   5.189   3.389   2.371  1.7349  0.6555  0.6244
 2979SOL    MW411684   5.203   3.322   2.317  0.2312  0.7780  0.0219
 2980SOL     OW11685   1.644   6.124   5.920  0.1589  0.1789 -0.4668
 2980SOL    HW211686   1.645   6.168   5.835 -1.7941 -0.1964 -0.7366
 2980SOL    HW311687   1.647   6.031   5.898  2.7101  0.0827  0.0410
 2980SOL    MW411688   1.644   6.117   5.906  0.2378  0.1167 -0.4354
 2981SOL     OW11689   0.852   5.900   4.762  0.0903 -0.0230 -0.0430
 2981SOL    HW211690   0.801   5.948   4.697  2.0005  0.6751 -1.0820
 2981SOL    HW311691   0.838   5.948   4.844 -1.4786 -0.2881 -0.1183
 2981SOL    MW411692   0.843   5.912   4.765  0.1353  0.0341 -0.1900
 2982SOL     OW11693   2.865   4.928   5.559 -0.1004  0.2930  0.6365
 2982SOL    HW211694   2.911   5.012   5.553  2.9601 -1.1760  1.3880
 2982SOL    HW311695   2.898   4.889   5.640 -1.5550 -1.5845  0.3785
 2982SOL    MW411696   2.876   4.934   5.569  0.1115 -0.1486  0.7016
 2983SOL     OW11697   4.412   1.100   1.644 -0.3064  0.2939 -0.1178
 2983SOL    HW211698   4.440   1.181   1.687  0.2860 -0.2659  0.5601
 2983SOL    HW311699   4.339   1.069   1.696 -1.8344  1.4022 -1.5062
 2983SOL    MW411700   4.406   1.107   1.656 -0.4299  0.3663 -0.2115
 2984SOL     OW11701   4.423   1.117   4.065 -0.2972 -0.0202  0.3125
 2984SOL    HW211702   4.329   1.123   4.049 -0.2546  0.2268  0.1555
 2984SOL    HW311703   4.451   1.041   4.014 -0.3183  0.2310 -0.0816
 2984SOL    MW411704   4.414   1.108   4.056 -0.2944  0.0455  0.2398
 2985SOL     OW11705   3.786   1.864   4.954 -0.1160  0.1681 -0.3417
 2985SOL    HW211706   3.759   1.945   4.998 -0.2334 -0.1065  0.1027
 2985SOL    HW311707   3.881   1.865   4.958 -0.0998  0.4956 -0.7296
 2985SOL    MW411708   3.795   1.875   4.961 -0.1293  0.1751 -0.3343
 2986SOL     OW11709   4.093   0.008   3.704  0.1302 -0.0522 -0.0476
 2986SOL    HW211710   4.173   0.020   3.755 -0.3946  1.2609  0.5273
 2986SOL    HW311711   4.111   0.051   3.621 -0.4012  1.4299  0.5700
 2986SOL    MW411712   4.106   0.015   3.700 -0.0091  0.3166  0.1097
 2987SOL     OW11713   6.236   3.342   0.759  0.0084  0.1180  0.3352
 2987SOL    HW211714   6.209   3.329   0.849 -2.1972  1.0279 -0.1440
 2987SOL    HW311715   6.316   3.394   0.765 -1.0379  1.6504  1.7631
 2987SOL    MW411716   6.243   3.347   0.772 -0.4207  0.4403  0.4604
 2988SOL     OW11717   3.775   2.648   0.474 -0.0283 -0.0446  0.4028
 2988SOL    HW211718   3.700   2.611   0.426 -0.4084  0.5555  0.5207
 2988SOL    HW311719   3.736   2.689   0.551  0.4647 -0.0206  0.6433
 2988SOL    MW411720   3.760   2.648   0.477 -0.0134  0.0377  0.4501
 2989SOL     OW11721   6.161   1.559   3.229  0.2543 -0.6431  0.0751
 2989SOL    HW211722   6.197   1.626   3.170 -0.4843  1.7261  2.1316
 2989SOL    HW311723   6.239   1.520   3.270  0.7104  0.7594  0.6376
 2989SOL    MW411724   6.176   1.563   3.227  0.2170 -0.1455  0.4207
 2990SOL     OW11725   0.631   3.354   4.129 -0.0743  0.2957 -0.4542
 2990SOL    HW211726   0.607   3.441   4.162  1.0174  0.7362 -0.7679
 2990SOL    HW311727   0.648   3.368   4.036  2.1691  0.2366 -0.1259
 2990SOL    MW411728   0.630   3.368   4.121  0.3657  0.3460 -0.4523
 2991SOL     OW11729   3.212   3.232   0.580  0.3785 -0.4589 -0.1300
 2991SOL    HW211730   3.257   3.179   0.514  1.4643 -1.3613  1.2795
 2991SOL    HW311731   3.203   3.318   0.539  3.5225 -0.1903 -0.4761
 2991SOL    MW411732   3.217   3.236   0.566  0.9365 -0.5425  0.0103
 2992SOL     OW11733   1.323   0.718   3.942  0.3482 -0.2117  0.3748
 2992SOL    HW211734   1.340   0.801   3.988  0.9098 -0.5500  0.7935
 2992SOL    HW311735   1.229   0.703   3.955  0.1395  0.5855 -0.1044
 2992SOL    MW411736   1.313   0.727   3.950  0.3947 -0.1512  0.3669
 2993SOL     OW11737   5.162   6.056   1.499  0.4113  0.5332 -0.4367
 2993SOL    HW211738   5.181   5.978   1.550  0.6739 -0.0170 -1.3561
 2993SOL    HW311739   5.091   6.100   1.547  0.3653 -0.1891  0.1620
 2993SOL    MW411740   5.155   6.052   1.512  0.4399  0.3653 -0.4790
 2994SOL     OW11741   0.219   5.954   1.972  0.7721  0.6387 -0.0091
 2994SOL    HW211742   0.131   5.989   1.986 -0.5369 -1.9532 -0.9564
 2994SOL    HW311743   0.253   5.937   2.060 -0.2529  0.3783  0.3488
 2994SOL    MW411744   0.212   5.956   1.985  0.4642  0.2624 -0.0868
 2995SOL     OW11745   4.305   1.219   0.693  0.2456  0.8464  0.2292
 2995SOL    HW211746   4.353   1.174   0.624  0.4948  1.2136  0.1610
 2995SOL    HW311747   4.364   1.217   0.769 -0.4106 -0.4315  0.7545
 2995SOL    MW411748   4.319   1.213   0.694  0.1919  0.7263  0.2895
 2996SOL     OW11749   4.174   5.084   3.197 -0.6714  0.5411 -0.1709
 2996SOL    HW211750   4.117   5.019   3.239 -0.9694  1.0350  0.2031
 2996SOL    HW311751   4.228   5.033   3.137  0.9515 -0.4622  1.9945
 2996SOL    MW411752   4.174   5.069   3.194 -0.4966  0.4739  0.1641
 2997SOL     OW11753   2.077   0.111   4.144 -0.1652 -0.8389 -0.1308
 2997SOL    HW211754   2.171   0.124   4.158  0.0252 -1.0141 -1.1521
 2997SOL    HW311755   2.041   0.200   4.138 -0.1862 -0.7603  0.8906
 2997SOL    MW411756   2.084   0.124   4.145 -0.1429 -0.8517 -0.1308
 2998SOL     OW11757   6.391   5.348   1.228 -0.2114  0.8632  0.3973
 2998SOL    HW211758   6.306   5.351   1.272 -0.1303  0.4344  0.5920
 2998SOL    HW311759   6.448   5.300   1.289 -0.1311  0.1480 -0.2304
 2998SOL    MW411760   6.387   5.342   1.242 -0.1901  0.7123  0.3401
 2999SOL     OW11761   0.384   3.082   0.676  0.3628 -0.2386  0.3604
 2999SOL    HW211762   0.473   3.109   0.699  0.6796 -1.4932  0.6585
 2999SOL    HW311763   0.331   3.102   0.753  0.7759 -1.3003  0.9367
 2999SOL    MW411764   0.389   3.088   0.689  0.4591 -0.5442  0.4757
 3000SOL     OW11765   4.927   2.367   0.736  0.0127 -0.4967  0.4766
 3000SOL    HW211766   4.898   2.457   0.723  0.6804 -0.5909 -2.1084
 3000SOL    HW311767   5.001   2.373   0.796 -0.8145  0.4849  1.4415
 3000SOL    MW411768   4.933   2.379   0.743 -0.0083 -0.3796  0.2628
 3001SOL     OW11769   3.710   0.528   2.679  0.3522  0.2108  0.2541
 3001SOL    HW211770   3.630   0.567   2.713  0.9243  0.6757  1.0818
 3001SOL    HW311771   3.746   0.594   2.620  0.3631  0.1925  0.2403
 3001SOL    MW411772   3.704   0.542   2.676  0.4291  0.2697  0.3615
 3002SOL     OW11773   2.595   1.022   4.939 -0.1780 -0.3787  0.2508
 3002SOL    HW211774   2.509   0.991   4.912  0.0043  1.9490 -3.7976
 3002SOL    HW311775   2.649   0.943   4.941 -1.8502 -1.5721  0.4139
 3002SOL    MW411776   2.591   1.008   4.935 -0.3746 -0.2290 -0.2618
 3003SOL     OW11777   1.170   0.660   0.418  0.3126  0.5696 -0.2839
 3003SOL    HW211778   1.151   0.639   0.327  1.4831 -0.2789 -0.3511
 3003SOL    HW311779   1.246   0.718   0.414 -0.4337  1.6066  0.1083
 3003SOL    MW411780   1.177   0.665   0.406  0.3685  0.5945 -0.2410
 3004SOL     OW11781   4.660   1.949   3.468 -0.3122  0.3951 -0.0782
 3004SOL    HW211782   4.701   1.999   3.397  0.8528 -0.2740  0.0925
 3004SOL    HW311783   4.638   2.015   3.534 -0.5575  0.9044 -0.6529
 3004SOL    MW411784   4.662   1.965   3.467 -0.1909  0.3740 -0.1315
 3005SOL     OW11785   5.263   5.947   5.298 -0.0910 -0.0057  0.0075
 3005SOL    HW211786   5.241   5.962   5.390 -0.6183 -0.1111 -0.0936
 3005SOL    HW311787   5.280   6.034   5.263 -1.7177  0.2542 -0.2327
 3005SOL    MW411788   5.262   5.960   5.306 -0.3752  0.0147 -0.0376
 3006SOL     OW11789   6.311   3.907   2.901 -0.4683 -0.1773 -0.6734
 3006SOL    HW211790   6.369   3.940   2.832  1.0073 -2.4785 -0.6601
 3006SOL    HW311791   6.279   3.823   2.867  0.9760 -1.8023  1.6552
 3006SOL    MW411792   6.314   3.900   2.887 -0.0830 -0.6953 -0.3644
 3007SOL     OW11793   1.173   2.707   4.134 -0.1172 -0.1585  0.3443
 3007SOL    HW211794   1.200   2.767   4.203  0.4303 -1.4895  1.3439
 3007SOL    HW311795   1.127   2.637   4.180 -1.2697 -0.2271 -0.8474
 3007SOL    MW411796   1.170   2.705   4.149 -0.1970 -0.3431  0.3189
 3008SOL     OW11797   4.817   3.457   6.174  0.2522 -0.2225  0.0828
 3008SOL    HW211798   4.784   3.379   6.218  0.7562 -0.4067  0.1469
 3008SOL    HW311799   4.899   3.429   6.133  0.0484  0.0809 -0.5446
 3008SOL    MW411800   4.824   3.443   6.174  0.2918 -0.2068  0.0085
 3009SOL     OW11801   4.393   0.899   2.747 -0.3609 -0.0630 -0.3563
 3009SOL    HW211802   4.415   0.871   2.836  0.2950  0.7301 -0.2597
 3009SOL    HW311803   4.365   0.990   2.757 -0.6756 -0.0929 -0.9164
 3009SOL    MW411804   4.392   0.907   2.760 -0.3159  0.0377 -0.4174
 3010SOL     OW11805   4.683   1.704   3.053 -0.0307 -0.4474 -0.2934
 3010SOL    HW211806   4.729   1.770   3.106 -2.5205 -0.8199  2.6004
 3010SOL    HW311807   4.602   1.747   3.026 -0.4340 -1.4436 -0.7179
 3010SOL    MW411808   4.679   1.718   3.057 -0.4124 -0.6280  0.0324
 3011SOL     OW11809   5.401   4.219   1.791  0.2386  0.3496  0.0073
 3011SOL    HW211810   5.349   4.139   1.802  0.5076  0.1700 -0.0487
 3011SOL    HW311811   5.472   4.211   1.854 -0.4139  1.1037  0.8850
 3011SOL    MW411812   5.403   4.208   1.801  0.1880  0.4254  0.1157
 3012SOL     OW11813   0.094   3.321   5.799  0.4356  0.3568  0.2695
 3012SOL    HW211814   0.049   3.406   5.800 -1.7192 -0.6954 -0.5161
 3012SOL    HW311815   0.137   3.315   5.884  0.7140  2.2500  0.3066
 3012SOL    MW411816   0.094   3.332   5.810  0.1880  0.4677  0.1707
 3013SOL     OW11817   1.572   4.026   4.111 -0.1295  0.8718  0.6299
 3013SOL    HW211818   1.650   4.071   4.078 -1.6152  3.5195  0.5143
 3013SOL    HW311819   1.576   4.038   4.206 -0.3503  0.9307  0.6315
 3013SOL    MW411820   1.583   4.033   4.119 -0.3547  1.2289  0.6149
 3014SOL     OW11821   5.139   0.734   1.332  0.3975 -0.0830  0.8199
 3014SOL    HW211822   5.164   0.825   1.346 -1.8024  0.8280 -0.6004
 3014SOL    HW311823   5.096   0.708   1.414  1.6360 -0.0902  1.4801
 3014SOL    MW411824   5.136   0.743   1.345  0.2707  0.0362  0.7196
 3015SOL     OW11825   4.922   1.524   5.043 -0.2700 -0.1727 -0.0286
 3015SOL    HW211826   4.992   1.571   4.997 -1.1002  0.5667 -0.5742
 3015SOL    HW311827   4.856   1.508   4.975 -1.9634  1.7808  1.0512
 3015SOL    MW411828   4.923   1.528   5.028 -0.6030  0.1826  0.0419
 3016SOL     OW11829   1.123   0.694   2.410  0.5756  0.1674 -0.4966
 3016SOL    HW211830   1.090   0.783   2.399 -0.8848 -0.2537  0.2847
 3016SOL    HW311831   1.214   0.699   2.379  0.2214  1.6756 -1.4360
 3016SOL    MW411832   1.131   0.706   2.404  0.3362  0.3108 -0.5175
 3017SOL     OW11833   5.916   0.849   4.360  0.1275  0.4695 -0.0251
 3017SOL    HW211834   5.895   0.764   4.397 -2.1026  0.9853 -0.0035
 3017SOL    HW311835   6.010   0.843   4.339  0.4581 -1.3058  1.6921
 3017SOL    MW411836   5.926   0.837   4.362 -0.1231  0.3033  0.2043
 3018SOL     OW11837   2.816   5.355   4.798  0.5185  0.3061  0.4388
 3018SOL    HW211838   2.857   5.311   4.873  0.2588  1.0280  1.0122
 3018SOL    HW311839   2.828   5.448   4.815  2.7089  0.5076 -1.6826
 3018SOL    MW411840   2.823   5.361   4.810  0.7732  0.4280  0.2345
 3019SOL     OW11841   2.066   0.500   3.815 -0.4852  0.5632  0.5529
 3019SOL    HW211842   2.161   0.490   3.817 -0.6267 -1.2765  0.2942
 3019SOL    HW311843   2.045   0.556   3.890  0.7136  0.1108  1.2413
 3019SOL    MW411844   2.076   0.506   3.825 -0.3457  0.2608  0.6096
 3020SOL     OW11845   1.026   2.039   1.982 -0.0723 -0.3717  0.1584
 3020SOL    HW211846   1.090   1.990   1.930 -0.5050 -0.4259 -0.3311
 3020SOL    HW311847   1.042   2.011   2.072  0.4204 -0.5792  0.0142
 3020SOL    MW411848   1.037   2.029   1.987 -0.0644 -0.4062  0.0748
 3021SOL     OW11849   5.053   5.098   5.005  0.8152  1.1561  0.1365
 3021SOL    HW211850   5.073   5.009   4.976 -0.2979  1.2526 -0.9975
 3021SOL    HW311851   5.138   5.133   5.035  1.6406  0.3783 -1.2078
 3021SOL    MW411852   5.067   5.091   5.005  0.7773  1.0662 -0.1905
 3022SOL     OW11853   2.412   2.439   1.597 -0.4156  0.0595 -0.3621
 3022SOL    HW211854   2.484   2.458   1.657 -2.1139  2.4857  1.0874
 3022SOL    HW311855   2.407   2.516   1.540 -1.1706 -0.5718 -1.1859
 3022SOL    MW411856   2.421   2.452   1.597 -0.7393  0.2963 -0.2796
 3023SOL     OW11857   4.674   2.279   5.540  0.4240  0.1966  0.1776
 3023SOL    HW211858   4.643   2.287   5.630  0.7923 -0.4869  0.3748
 3023SOL    HW311859   4.598   2.303   5.486  0.1950  0.5773  0.6664
 3023SOL    MW411860   4.660   2.283   5.544  0.4423  0.1566  0.2681
 3024SOL     OW11861   0.696   4.995   0.323 -0.0428  0.2175 -0.1336
 3024SOL    HW211862   0.752   4.941   0.380 -0.8514  0.0967  0.5721
 3024SOL    HW311863   0.664   5.064   0.381  1.0167  1.5106 -1.0465
 3024SOL    MW411864   0.699   4.997   0.338 -0.0097  0.3722 -0.1609
 3025SOL     OW11865   1.691   4.576   4.375 -0.2946 -0.0914 -0.2732
 3025SOL    HW211866   1.698   4.481   4.384  2.1844  0.0188 -0.4651
 3025SOL    HW311867   1.706   4.610   4.463 -0.0946  0.1683 -0.4084
 3025SOL    MW411868   1.694   4.568   4.387  0.0588 -0.0426 -0.3164
 3026SOL     OW11869   3.393   3.374   3.345  0.3093  0.0105  0.1881
 3026SOL    HW211870   3.403   3.465   3.318 -1.4469  0.5500  1.1674
 3026SOL    HW311871   3.328   3.377   3.416  1.0950 -1.8713  1.0596
 3026SOL    MW411872   3.385   3.386   3.351  0.1813 -0.1666  0.4323
 3027SOL     OW11873   4.890   1.895   2.743 -0.2795 -0.4141 -0.8198
 3027SOL    HW211874   4.892   1.800   2.756 -0.2852 -0.3092 -0.0032
 3027SOL    HW311875   4.797   1.917   2.743 -0.2432 -0.2288  0.4200
 3027SOL    MW411876   4.878   1.885   2.745 -0.2755 -0.3758 -0.5485
 3028SOL     OW11877   1.171   5.881   4.222 -0.0887  0.5304  0.1320
 3028SOL    HW211878   1.223   5.902   4.300  0.9832  0.3962 -0.5310
 3028SOL    HW311879   1.107   5.951   4.216  1.8511  2.3439 -0.6385
 3028SOL    MW411880   1.170   5.893   4.231  0.3086  0.7519 -0.0571
 3029SOL     OW11881   4.302   6.341   1.161  0.2135 -0.2124 -0.3320
 3029SOL    HW211882   4.365   6.273   1.183  1.3044  1.0982  0.8265
 3029SOL    HW311883   4.300   6.342   1.066  2.0268 -0.2439 -0.4049
 3029SOL    MW411884   4.310   6.332   1.151  0.5967 -0.0436 -0.1888
 3030SOL     OW11885   4.676   3.063   1.593  0.0256  1.1561 -0.1799
 3030SOL    HW211886   4.763   3.096   1.616  0.9277 -1.4481  0.4949
 3030SOL    HW311887   4.685   3.031   1.503  0.3660 -0.7833  0.4939
 3030SOL    MW411888   4.689   3.063   1.584  0.1896  0.5566 -0.0020
 3031SOL     OW11889   0.557   2.803   1.914 -0.7794  0.3179  0.4405
 3031SOL    HW211890   0.547   2.708   1.910 -0.5678  0.3122  0.0449
 3031SOL    HW311891   0.526   2.826   2.002 -0.6514 -0.1360  0.6091
 3031SOL    MW411892   0.552   2.793   1.925 -0.7346  0.2573  0.4105
 3032SOL     OW11893   3.784   3.086   5.561  0.1548 -0.5641 -0.2762
 3032SOL    HW211894   3.728   3.153   5.599 -1.8373 -1.2956 -1.7491
 3032SOL    HW311895   3.857   3.134   5.522 -0.4724  0.6123 -0.0442
 3032SOL    MW411896   3.787   3.101   5.561 -0.1908 -0.5054 -0.4399
 3033SOL     OW11897   2.660   1.120   4.437  0.0733  0.1267 -0.2405
 3033SOL    HW211898   2.571   1.147   4.459 -0.7893 -0.6664 -2.4706
 3033SOL    HW311899   2.671   1.034   4.477 -0.0117  0.3949  0.3637
 3033SOL    MW411900   2.650   1.113   4.445 -0.0517  0.0574 -0.4550
 3034SOL     OW11901   3.477   3.291   5.396  0.0475 -0.2645 -0.7972
 3034SOL    HW211902   3.387   3.325   5.394  0.4294  0.8172 -0.6892
 3034SOL    HW311903   3.467   3.196   5.401 -1.0861 -0.1983 -1.4654
 3034SOL    MW411904   3.464   3.283   5.397 -0.0517 -0.1131 -0.8711
 3035SOL     OW11905   6.227   1.009   5.902 -0.0096 -0.7069 -0.4131
 3035SOL    HW211906   6.133   0.996   5.912 -0.1786 -0.6569 -1.7365
 3035SOL    HW311907   6.263   0.921   5.893 -0.0951 -0.6691 -1.1527
 3035SOL    MW411908   6.219   0.996   5.902 -0.0432 -0.6953 -0.6853
 3036SOL     OW11909   5.663   1.418   0.786  0.2291  0.1921 -0.3545
 3036SOL    HW211910   5.700   1.491   0.735  0.2448 -0.0937 -0.7582
 3036SOL    HW311911   5.698   1.431   0.874  0.5622  0.4419 -0.5186
 3036SOL    MW411912   5.673   1.430   0.791  0.2751  0.1874 -0.4294
 3037SOL     OW11913   5.308   0.307   1.274 -0.0852 -0.0061  0.1527
 3037SOL    HW211914   5.390   0.276   1.310  0.1976  0.3503 -0.1708
 3037SOL    HW311915   5.296   0.257   1.193  0.7317  1.1803 -0.7478
 3037SOL    MW411916   5.317   0.297   1.268  0.0599  0.1974 -0.0088
 3038SOL     OW11917   3.847   4.899   3.904  0.3314  0.3594  0.3688
 3038SOL    HW211918   3.901   4.929   3.977 -2.4583  1.3744  2.1240
 3038SOL    HW311919   3.876   4.808   3.890  0.5221 -0.1144  3.1941
 3038SOL    MW411920   3.858   4.891   3.912 -0.0115  0.4308  0.9731
 3039SOL     OW11921   2.497   2.366   4.471  0.0880 -0.3034  0.1119
 3039SOL    HW211922   2.451   2.320   4.541 -2.7430 -0.0692 -1.4704
 3039SOL    HW311923   2.466   2.456   4.478  1.7797  0.3198  0.0989
 3039SOL    MW411924   2.487   2.372   4.481 -0.0623 -0.1903 -0.0986
 3040SOL     OW11925   1.732   6.185   0.393  0.1951  0.3846 -0.6324
 3040SOL    HW211926   1.790   6.135   0.451 -0.0880  1.4980  0.6387
 3040SOL    HW311927   1.775   6.180   0.307  0.3027 -1.8250 -0.5274
 3040SOL    MW411928   1.745   6.178   0.389  0.1720  0.2399 -0.4509
 3041SOL     OW11929   1.905   0.556   4.491  0.5865 -0.1119 -0.3469
 3041SOL    HW211930   1.812   0.567   4.508  0.0813 -2.0938 -1.5265
 3041SOL    HW311931   1.946   0.629   4.536 -1.3128 -0.5329  2.3401
 3041SOL    MW411932   1.898   0.567   4.499  0.2693 -0.4289 -0.1480
 3042SOL     OW11933   2.982   3.359   3.890 -0.2731  0.0692  0.2438
 3042SOL    HW211934   3.056   3.301   3.873  0.3623  0.6793  0.8493
 3042SOL    HW311935   2.953   3.387   3.804  0.2245 -0.1425  0.0052
 3042SOL    MW411936   2.988   3.355   3.877 -0.1236  0.1218  0.2923
 3043SOL     OW11937   4.798   2.626   3.085  0.0393 -0.0779 -0.0544
 3043SOL    HW211938   4.824   2.624   3.177  1.9053 -0.7443 -0.5434
 3043SOL    HW311939   4.872   2.670   3.041 -0.5703 -0.2587 -1.2988
 3043SOL    MW411940   4.811   2.632   3.092  0.2051 -0.1896 -0.2831
 3044SOL     OW11941   3.921   4.309   6.225  0.0909  0.1639 -0.7710
 3044SOL    HW211942   3.995   4.257   6.194  1.1164  0.3849  1.1829
 3044SOL    HW311943   3.930   4.392   6.178  1.7965  0.6181  0.2730
 3044SOL    MW411944   3.932   4.313   6.214  0.4512  0.2529 -0.3755
 3045SOL     OW11945   0.487   5.629   3.313 -0.3323  0.1259 -0.4652
 3045SOL    HW211946   0.569   5.605   3.356  1.9369  0.8638 -3.9486
 3045SOL    HW311947   0.455   5.704   3.363  0.7548 -0.5355  1.3212
 3045SOL    MW411948   0.494   5.636   3.325  0.1106  0.1360 -0.6891
 3046SOL     OW11949   2.983   0.662   0.935 -0.2204 -0.3168  0.0666
 3046SOL    HW211950   3.035   0.703   1.005 -1.1013  1.0566 -0.0357
 3046SOL    HW311951   2.896   0.651   0.973 -0.3742 -0.7329 -0.4011
 3046SOL    MW411952   2.979   0.666   0.949 -0.3569 -0.1905 -0.0086
 3047SOL     OW11953   0.180   1.265   2.665  0.7344 -0.4583 -0.4111
 3047SOL    HW211954   0.134   1.242   2.746  0.6255 -0.5931 -0.5106
 3047SOL    HW311955   0.267   1.226   2.674  0.9648  0.1143 -0.0590
 3047SOL    MW411956   0.185   1.257   2.677  0.7505 -0.4006 -0.3778
 3048SOL     OW11957   4.289   5.289   1.128  0.0044 -0.0285  0.8755
 3048SOL    HW211958   4.233   5.255   1.059 -1.7568  0.5922  1.9307
 3048SOL    HW311959   4.321   5.212   1.174  2.4361 -0.5612 -1.4218
 3048SOL    MW411960   4.286   5.275   1.125  0.0928 -0.0169  0.7116
 3049SOL     OW11961   1.296   0.560   4.239  0.0910 -0.5539  0.5038
 3049SOL    HW211962   1.239   0.494   4.198 -1.1703  0.7674  0.0475
 3049SOL    HW311963   1.320   0.522   4.323 -2.0945 -0.8688  1.0364
 3049SOL    MW411964   1.292   0.546   4.245 -0.3637 -0.4211  0.5139
 3050SOL     OW11965   3.055   2.675   5.458  0.1658  1.0754  0.3595
 3050SOL    HW211966   3.126   2.632   5.410 -1.5131 -1.2341 -0.2208
 3050SOL    HW311967   3.073   2.769   5.447  1.7844  0.6044 -1.8566
 3050SOL    MW411968   3.067   2.682   5.450  0.1579  0.7086 -0.0094
 3051SOL     OW11969   3.707   4.219   2.458 -0.4377  0.0207  0.4986
 3051SOL    HW211970   3.728   4.309   2.436  0.4051 -0.6358 -1.6689
 3051SOL    HW311971   3.792   4.179   2.477 -0.4015 -0.9629 -1.4382
 3051SOL    MW411972   3.721   4.225   2.458 -0.3217 -0.1957 -0.0429
 3052SOL     OW11973   1.382   6.417   2.305 -0.0594 -0.6764  0.3958
 3052SOL    HW211974   1.334   6.338   2.284  0.5987 -0.9937  0.0599
 3052SOL    HW311975   1.357   6.479   2.237  1.3176 -1.3921 -0.8032
 3052SOL    MW411976   1.372   6.415   2.294  0.2091 -0.8127  0.1933
 3053SOL     OW11977   5.585   0.410   5.757  0.2010  0.0978  0.2344
 3053SOL    HW211978   5.638   0.457   5.692  0.9115 -2.2504 -0.9723
 3053SOL    HW311979   5.580   0.321   5.724 -1.0795 -0.7203  2.4555
 3053SOL    MW411980   5.591   0.405   5.744  0.1258 -0.3200  0.3682
 3054SOL     OW11981   4.378   3.897   4.823 -0.0428  0.0965  0.2747
 3054SOL    HW211982   4.369   3.802   4.826  0.1615  0.0240 -0.9276
 3054SOL    HW311983   4.301   3.927   4.774 -0.4828  0.6266  1.2587
 3054SOL    MW411984   4.367   3.888   4.817 -0.0739  0.1569  0.2459
 3055SOL     OW11985   0.717   3.390   2.217  0.5019 -0.2839  0.0954
 3055SOL    HW211986   0.805   3.386   2.180  0.3920 -1.5952 -0.0425
 3055SOL    HW311987   0.662   3.425   2.146  1.0419  1.4773  0.4868
 3055SOL    MW411988   0.721   3.394   2.203  0.5586 -0.2245  0.1288
 3056SOL     OW11989   2.811   4.869   4.868  0.1878  0.5386 -0.0422
 3056SOL    HW211990   2.801   4.938   4.933 -0.0307 -0.1282  0.6553
 3056SOL    HW311991   2.809   4.788   4.919  1.9912  0.0659 -0.6589
 3056SOL    MW411992   2.809   4.867   4.883  0.3969  0.3883 -0.0315
 3057SOL     OW11993   1.513   3.157   1.026  0.6933 -0.1132 -0.0504
 3057SOL    HW211994   1.433   3.209   1.036 -0.1377 -0.5821 -3.2554
 3057SOL    HW311995   1.485   3.067   1.039  0.2528 -0.4304 -2.6607
 3057SOL    MW411996   1.499   3.152   1.029  0.5255 -0.2169 -0.8176
 3058SOL     OW11997   1.380   4.984   3.020 -0.2489 -0.3356 -0.7057
 3058SOL    HW211998   1.459   4.930   3.025  1.5902  2.2875  0.2878
 3058SOL    HW311999   1.341   4.977   3.107  2.1853  2.8765  0.8172
 3058SOL    MW412000   1.385   4.976   3.032  0.3149  0.4342 -0.3737
 3059SOL     OW12001   1.293   1.584   0.749  0.0335  0.2980 -0.4777
 3059SOL    HW212002   1.295   1.492   0.725 -0.9785 -1.0588  3.6663
 3059SOL    HW312003   1.221   1.621   0.697 -0.5064 -1.6253 -1.1759
 3059SOL    MW412004   1.283   1.577   0.739 -0.1713 -0.1348 -0.0231
 3060SOL     OW12005   2.146   2.109   5.140 -0.2833 -0.6198 -0.0063
 3060SOL    HW212006   2.109   2.178   5.085  0.0934 -0.3898  0.0241
 3060SOL    HW312007   2.122   2.134   5.229 -1.6362 -1.4430 -0.1085
 3060SOL    MW412008   2.138   2.121   5.144 -0.4121 -0.6981 -0.0158
 3061SOL     OW12009   3.089   6.045   4.740  0.0093 -0.2998  0.9911
 3061SOL    HW212010   3.038   6.124   4.722  1.3720  0.2642 -0.5977
 3061SOL    HW312011   3.177   6.077   4.760  0.3461 -1.3682  1.2687
 3061SOL    MW412012   3.094   6.060   4.740  0.2335 -0.3664  0.8181
 3062SOL     OW12013   2.481   6.222   1.790 -0.6148 -0.1670  0.0766
 3062SOL    HW212014   2.544   6.290   1.814  0.0364 -0.4335 -0.8038
 3062SOL    HW312015   2.396   6.258   1.814 -0.1365  0.2048  1.2878
 3062SOL    MW412016   2.478   6.235   1.796 -0.4657 -0.1531  0.1202
 3063SOL     OW12017   4.171   0.703   2.736  0.3001 -0.3501  0.0305
 3063SOL    HW212018   4.166   0.680   2.643 -1.3422  0.8000 -0.2037
 3063SOL    HW312019   4.236   0.773   2.740 -1.0190  0.9670 -0.5988
 3063SOL    MW412020   4.179   0.709   2.724 -0.0906 -0.0246 -0.0835
 3064SOL     OW12021   4.179   4.031   4.691 -0.5460  0.0120  0.3322
 3064SOL    HW212022   4.098   3.981   4.684  0.2294 -1.5130  1.5778
 3064SOL    HW312023   4.159   4.099   4.755 -0.8359 -0.3636  0.6451
 3064SOL    MW412024   4.165   4.034   4.699 -0.4819 -0.2388  0.5378
 3065SOL     OW12025   2.299   5.514   0.573  0.1803  0.3079  0.3673
 3065SOL    HW212026   2.231   5.550   0.517 -0.3563 -0.6693  0.3674
 3065SOL    HW312027   2.282   5.551   0.660  0.5617  1.2359  0.0537
 3065SOL    MW412028   2.288   5.523   0.577  0.1598  0.3014  0.3259
 3066SOL     OW12029   3.875   3.612   1.926  0.6926  0.1202 -0.0477
 3066SOL    HW212030   3.871   3.707   1.910  0.0935 -0.0140 -0.7111
 3066SOL    HW312031   3.807   3.575   1.869  0.7353 -0.6838  0.4139
 3066SOL    MW412032   3.865   3.620   1.916  0.6192 -0.0036 -0.0744
 3067SOL     OW12033   1.555   6.009   3.970 -0.6745 -0.4178  0.1534
 3067SOL    HW212034   1.505   6.091   3.974  1.3913  0.9691 -0.6579
 3067SOL    HW312035   1.618   6.016   4.041  0.9483 -0.2364 -1.2279
 3067SOL    MW412036   1.556   6.021   3.980 -0.1878 -0.2109 -0.1359
 3068SOL     OW12037   5.758   3.199   5.021  0.0819  0.4566  0.0532
 3068SOL    HW212038   5.800   3.113   5.016 -0.4543  0.0908  1.3017
 3068SOL    HW312039   5.796   3.249   4.949  1.4152 -0.3825  0.1453
 3068SOL    MW412040   5.768   3.194   5.011  0.1871  0.2976  0.2301
 3069SOL     OW12041   4.162   6.337   4.785 -0.0448 -0.0657 -0.1187
 3069SOL    HW212042   4.083   6.370   4.742  0.8884  1.7022 -0.5786
 3069SOL    HW312043   4.130   6.268   4.843 -1.8246  0.0852 -0.8476
 3069SOL    MW412044   4.147   6.333   4.787 -0.1565  0.1875 -0.2755
 3070SOL     OW12045   3.278   1.758   2.621 -0.2557 -1.4766 -0.2781
 3070SOL    HW212046   3.356   1.783   2.671 -1.5408 -0.1255  1.2020
 3070SOL    HW312047   3.234   1.842   2.604 -0.5313 -2.0428 -2.5953
 3070SOL    MW412048   3.282   1.773   2.625 -0.4616 -1.3731 -0.3886
 3071SOL     OW12049   2.257   4.296   3.519  0.0401 -0.8306 -0.0304
 3071SOL    HW212050   2.350   4.312   3.537 -0.2795  1.4901 -0.1318
 3071SOL    HW312051   2.248   4.312   3.425 -0.8305  1.3621  0.3701
 3071SOL    MW412052   2.268   4.301   3.509 -0.1170 -0.2351  0.0091
 3072SOL     OW12053   0.662   4.981   6.369  0.1589 -0.4976 -0.1223
 3072SOL    HW212054   0.699   4.936   6.446 -0.1330  1.4210  1.2252
 3072SOL    HW312055   0.588   4.926   6.342  0.1899 -1.1618  1.0664
 3072SOL    MW412056   0.657   4.968   6.376  0.1245 -0.3321  0.2123
 3073SOL     OW12057   1.125   0.051   4.157  0.0713  0.3501  0.2951
 3073SOL    HW212058   1.138   0.047   4.062  1.0884 -0.9822  0.4480
 3073SOL    HW312059   1.213   0.063   4.192  0.0577 -1.5991  1.1305
 3073SOL    MW412060   1.138   0.052   4.149  0.2037 -0.0829  0.4255
 3074SOL     OW12061   3.578   0.811   3.778  0.2635 -0.5872 -0.0689
 3074SOL    HW212062   3.501   0.785   3.829  0.2307 -1.3008 -0.4823
 3074SOL    HW312063   3.614   0.729   3.745  0.2546 -0.1386 -1.2401
 3074SOL    MW412064   3.572   0.797   3.780  0.2580 -0.6222 -0.2780
 3075SOL     OW12065   4.727   5.913   1.119  0.4017 -0.5768 -0.0557
 3075SOL    HW212066   4.693   5.974   1.054  0.6608 -0.8030 -0.4043
 3075SOL    HW312067   4.712   5.957   1.203  1.2188  0.2834 -0.3391
 3075SOL    MW412068   4.721   5.927   1.122  0.5437 -0.4931 -0.1391
 3076SOL     OW12069   2.685   1.375   2.054  0.1671  0.1022 -0.0876
 3076SOL    HW212070   2.744   1.422   1.995  0.6656  1.1743  1.2024
 3076SOL    HW312071   2.740   1.306   2.093  0.3219  0.5075  0.4179
 3076SOL    MW412072   2.700   1.372   2.051  0.2533  0.2971  0.1493
 3077SOL     OW12073   5.372   6.099   0.710 -0.2547 -0.0854  0.0241
 3077SOL    HW212074   5.363   6.194   0.717 -1.1409 -0.2648  2.0851
 3077SOL    HW312075   5.459   6.081   0.745 -0.5813 -0.1113  0.8491
 3077SOL    MW412076   5.382   6.109   0.716 -0.4147 -0.1125  0.4049
 3078SOL     OW12077   1.048   4.204   4.356  0.6225 -0.2526  0.3443
 3078SOL    HW212078   0.965   4.183   4.397 -0.8477  1.3243 -1.6125
 3078SOL    HW312079   1.079   4.120   4.321 -0.9835 -0.6158 -0.3059
 3078SOL    MW412080   1.041   4.190   4.357  0.2166 -0.0925  0.0003
 3079SOL     OW12081   4.116   3.463   5.274 -0.3281  0.2368 -0.0447
 3079SOL    HW212082   4.166   3.534   5.314  0.2984  0.1647 -0.6818
 3079SOL    HW312083   4.065   3.506   5.205 -1.3474  0.3497  0.7568
 3079SOL    MW412084   4.116   3.478   5.270 -0.3799  0.2422 -0.0230
 3080SOL     OW12085   3.017   3.748   2.303 -0.1970  0.1186 -0.2315
 3080SOL    HW212086   2.961   3.706   2.369  0.7841 -1.3832 -0.3093
 3080SOL    HW312087   3.038   3.678   2.242  1.1228  0.8401 -0.6368
 3080SOL    MW412088   3.012   3.733   2.304  0.1066  0.0157 -0.2953
 3081SOL     OW12089   3.984   3.416   1.616  0.2548  0.0936 -0.0033
 3081SOL    HW212090   4.025   3.485   1.565  0.7909  0.5152  0.9697
 3081SOL    HW312091   3.902   3.455   1.647 -0.6855 -0.5824 -1.5401
 3081SOL    MW412092   3.978   3.430   1.613  0.2015  0.0601 -0.0777
 3082SOL     OW12093   1.113   2.897   4.593  0.1185 -0.1482 -0.6207
 3082SOL    HW212094   1.181   2.963   4.609  0.1314  0.0050 -1.2823
 3082SOL    HW312095   1.077   2.879   4.679 -0.1230  0.9772 -0.4692
 3082SOL    MW412096   1.117   2.903   4.606  0.0883  0.0205 -0.6880
 3083SOL     OW12097   2.572   3.980   3.607 -0.2788  0.2903 -0.1527
 3083SOL    HW212098   2.584   3.971   3.512 -2.0879  1.9401 -0.5988
 3083SOL    HW312099   2.653   4.021   3.638  0.4396 -0.5013 -0.9006
 3083SOL    MW412100   2.584   3.984   3.598 -0.4227  0.4036 -0.3102
 3084SOL     OW12101   4.003   3.764   5.970  0.5597  0.6368 -0.0500
 3084SOL    HW212102   3.934   3.757   5.904  0.7790 -1.1720 -0.1330
 3084SOL    HW312103   3.956   3.764   6.054  0.3793  1.1547 -0.1480
 3084SOL    MW412104   3.988   3.763   5.973  0.5648  0.4665 -0.0739
 3085SOL     OW12105   3.435   0.310   0.849 -0.2577  0.1036  0.7266
 3085SOL    HW212106   3.499   0.240   0.861  1.7392  1.1741 -2.4850
 3085SOL    HW312107   3.380   0.281   0.777 -0.9781  0.8132  0.9703
 3085SOL    MW412108   3.436   0.297   0.841 -0.0892  0.3385  0.3350
 3086SOL     OW12109   5.873   6.085   5.845  0.2500  0.1605  0.2426
 3086SOL    HW212110   5.911   6.172   5.834 -1.5351  1.0349  0.6346
 3086SOL    HW312111   5.860   6.053   5.756  0.1553  0.6593  0.0722
 3086SOL    MW412112   5.876   6.092   5.832  0.0020  0.3417  0.2718
 3087SOL     OW12113   1.185   0.266   5.370 -0.2659  0.2616 -0.1915
 3087SOL    HW212114   1.134   0.229   5.298  0.6438 -0.0677 -0.6800
 3087SOL    HW312115   1.223   0.346   5.334  1.0276 -0.4341 -0.4196
 3087SOL    MW412116   1.183   0.272   5.356  0.0247  0.1264 -0.2860
 3088SOL     OW12117   3.556   6.426   3.364  0.3390  0.0369 -0.1157
 3088SOL    HW212118   3.483   6.402   3.307 -0.3288  1.4540  0.1060
 3088SOL    HW312119   3.592   6.343   3.394 -0.3345 -0.7002 -1.2996
 3088SOL    MW412120   3.551   6.412   3.360  0.1620  0.1266 -0.2427
 3089SOL     OW12121   1.130   3.956   4.199  0.4415 -0.1021  0.1620
 3089SOL    HW212122   1.057   3.981   4.142  0.9133 -1.0418 -0.8790
 3089SOL    HW312123   1.201   3.933   4.140  0.0309 -3.9992  0.9073
 3089SOL    MW412124   1.129   3.956   4.184  0.4496 -0.7402  0.1230
 3090SOL     OW12125   1.771   3.922   0.347 -0.1891 -0.4472 -0.7998
 3090SOL    HW212126   1.841   3.885   0.400 -2.0169 -1.5210  1.0059
 3090SOL    HW312127   1.712   3.848   0.330 -1.4078  0.6127 -1.3672
 3090SOL    MW412128   1.773   3.907   0.352 -0.5911 -0.4490 -0.6365
 3091SOL     OW12129   2.176   3.402   1.874  0.0530  0.3869 -0.3260
 3091SOL    HW212130   2.238   3.330   1.871 -0.1506  0.1557  0.7382
 3091SOL    HW312131   2.162   3.426   1.782 -1.4433 -2.2522 -0.8829
 3091SOL    MW412132   2.182   3.396   1.861 -0.1713  0.0082 -0.2591
 3092SOL     OW12133   0.334   3.649   1.947 -0.1377  0.4889 -0.4499
 3092SOL    HW212134   0.404   3.588   1.971  1.1198  1.8586 -0.4662
 3092SOL    HW312135   0.266   3.593   1.909  0.4617 -1.0160  0.5698
 3092SOL    MW412136   0.334   3.633   1.945  0.1073  0.4711 -0.3175
 3093SOL     OW12137   6.332   5.800   1.683 -0.3009  0.1730  0.3989
 3093SOL    HW212138   6.289   5.882   1.708 -0.7543 -0.4040  1.5731
 3093SOL    HW312139   6.308   5.738   1.752 -0.2244 -1.0429 -0.6327
 3093SOL    MW412140   6.323   5.803   1.695 -0.3506 -0.0636  0.4177
 3094SOL     OW12141   5.473   1.859   1.279 -0.1236 -0.1227 -0.1961
 3094SOL    HW212142   5.523   1.821   1.207 -0.4215 -0.0886 -0.4267
 3094SOL    HW312143   5.539   1.900   1.335  0.0341  0.8603 -1.0516
 3094SOL    MW412144   5.488   1.860   1.277 -0.1421  0.0115 -0.3394
 3095SOL     OW12145   5.753   2.264   1.372 -0.3890 -0.0726 -0.2173
 3095SOL    HW212146   5.846   2.254   1.352 -0.3205 -1.8001  0.8054
 3095SOL    HW312147   5.752   2.306   1.458 -0.5506 -0.6495  0.0606
 3095SOL    MW412148   5.765   2.268   1.381 -0.4013 -0.3767 -0.0457
 3096SOL     OW12149   5.691   2.694   1.603  0.3472 -0.1819 -0.7252
 3096SOL    HW212150   5.695   2.600   1.619  0.3549 -0.1792 -0.7113
 3096SOL    HW312151   5.609   2.722   1.645  1.2277  0.1233  0.8732
 3096SOL    MW412152   5.680   2.685   1.611  0.4644 -0.1413 -0.5125
 3097SOL     OW12153   6.005   0.034   6.174  0.0316 -0.7875 -0.4007
 3097SOL    HW212154   5.938  -0.029   6.197 -1.0663  0.6933  0.7117
 3097SOL    HW312155   5.963   0.094   6.113  1.0197 -1.0415 -1.3701
 3097SOL    MW412156   5.991   0.034   6.169  0.0171 -0.6256 -0.3819
 3098SOL     OW12157   3.144   3.312   6.196  0.0477 -0.0869  0.0349
 3098SOL    HW212158   3.215   3.376   6.191 -0.4668  0.6525  1.4001
 3098SOL    HW312159   3.070   3.356   6.155  0.2110 -0.6193 -0.8455
 3098SOL    MW412160   3.143   3.326   6.190  0.0014 -0.0596  0.0989
 3099SOL     OW12161   3.248   1.371   4.429  0.0887 -0.0732 -0.1485
 3099SOL    HW212162   3.162   1.410   4.441 -0.5739 -1.9823  2.0090
 3099SOL    HW312163   3.246   1.338   4.339 -0.6929  1.5253 -0.7545
 3099SOL    MW412164   3.236   1.372   4.419 -0.1018 -0.1141  0.0562
 3100SOL     OW12165   1.480   1.544   5.579  0.5856 -0.0575  0.2758
 3100SOL    HW212166   1.432   1.623   5.604  0.5208  0.3646 -1.1345
 3100SOL    HW312167   1.412   1.479   5.559  0.6350 -0.6133  1.7466
 3100SOL    MW412168   1.465   1.546   5.580  0.5836 -0.0751  0.2838
 3101SOL     OW12169   5.427   1.611   2.614 -0.1696  0.4538  0.4455
 3101SOL    HW212170   5.523   1.605   2.613 -0.0797  1.6366 -1.0474
 3101SOL    HW312171   5.406   1.635   2.704  0.9130  0.0823  0.8192
 3101SOL    MW412172   5.437   1.613   2.626 -0.0149  0.5609  0.2978
 3102SOL     OW12173   4.844   1.210   0.702  0.1826  0.6927 -0.6097
 3102SOL    HW212174   4.813   1.127   0.666 -2.0887  1.0268  0.4443
 3102SOL    HW312175   4.927   1.188   0.745 -0.0214 -0.8728 -0.9711
 3102SOL    MW412176   4.851   1.196   0.703 -0.1440  0.5302 -0.5183
 3103SOL     OW12177   5.050   2.449   2.345  0.7832  0.3835  0.6810
 3103SOL    HW212178   5.016   2.536   2.322 -2.0903 -0.3285  1.7611
 3103SOL    HW312179   5.054   2.450   2.441 -0.1362 -0.8975  0.7634
 3103SOL    MW412180   5.046   2.461   2.355  0.2828  0.1206  0.8344
 3104SOL     OW12181   1.357   0.677   6.364  0.5867  0.5087 -0.2552
 3104SOL    HW212182   1.440   0.628   6.362  0.8560  0.9584 -2.0398
 3104SOL    HW312183   1.345   0.706   6.274 -0.6127  1.9875  0.3441
 3104SOL    MW412184   1.367   0.675   6.352  0.4640  0.7631 -0.4116
 3105SOL     OW12185   3.189   3.751   3.138 -0.0039 -0.2579 -0.2217
 3105SOL    HW212186   3.216   3.830   3.091  1.4120  0.1391  1.1551
 3105SOL    HW312187   3.150   3.784   3.220  0.3587 -0.9611  0.2455
 3105SOL    MW412188   3.187   3.766   3.143  0.2307 -0.2983  0.0216
 3106SOL     OW12189   4.164   2.755   2.627 -0.0331  0.0051 -0.1956
 3106SOL    HW212190   4.069   2.745   2.615 -0.2202  1.9307 -0.5565
 3106SOL    HW312191   4.188   2.826   2.568  0.9846  2.1161  2.5602
 3106SOL    MW412192   4.154   2.763   2.618  0.0765  0.5376  0.1204
 3107SOL     OW12193   6.146   5.144   6.037  0.0174  0.5595  0.5222
 3107SOL    HW212194   6.125   5.194   6.116  0.5907  0.5875  0.6685
 3107SOL    HW312195   6.182   5.209   5.977 -1.4248  0.7352 -0.1863
 3107SOL    MW412196   6.148   5.159   6.040 -0.0972  0.5864  0.4480
 3108SOL     OW12197   6.235   5.755   2.421  0.1958  0.1631  0.1092
 3108SOL    HW212198   6.321   5.748   2.462 -0.2534 -1.7063  0.8651
 3108SOL    HW312199   6.198   5.836   2.457  1.3216  0.5631  0.3959
 3108SOL    MW412200   6.241   5.765   2.431  0.2850 -0.0308  0.2467
 3109SOL     OW12201   6.239   6.321   0.476 -0.2710 -0.3902 -0.2522
 3109SOL    HW212202   6.252   6.295   0.385 -0.5883 -1.8888  0.0936
 3109SOL    HW312203   6.300   6.393   0.490 -0.4278  0.0526 -1.7220
 3109SOL    MW412204   6.249   6.327   0.466 -0.3335 -0.5295 -0.4005
 3110SOL     OW12205   1.190   4.216   2.235 -0.7836 -0.3815 -0.0654
 3110SOL    HW212206   1.124   4.215   2.166 -0.4155  0.8413 -0.4536
 3110SOL    HW312207   1.214   4.308   2.246  0.7074 -0.7601  0.2111
 3110SOL    MW412208   1.185   4.228   2.228 -0.5383 -0.2701 -0.0801
 3111SOL     OW12209   3.829   3.033   0.215 -0.0869 -0.0992 -0.1629
 3111SOL    HW212210   3.805   3.126   0.208  1.3518  0.2926 -0.2131
 3111SOL    HW312211   3.794   2.993   0.135  1.7076  0.9871 -1.5703
 3111SOL    MW412212   3.821   3.040   0.204  0.3396  0.0958 -0.3552
 3112SOL     OW12213   4.612   3.846   5.488 -0.4068 -0.7020  0.2882
 3112SOL    HW212214   4.699   3.863   5.523 -0.2062 -0.1892 -0.4429
 3112SOL    HW312215   4.624   3.844   5.393 -0.5279 -4.2784  0.2129
 3112SOL    MW412216   4.625   3.848   5.480 -0.3963 -1.1062  0.1818
 3113SOL     OW12217   5.022   1.622   4.687  0.0713 -0.1115  0.1706
 3113SOL    HW212218   5.060   1.652   4.604  0.4466  0.1898  0.4444
 3113SOL    HW312219   4.963   1.693   4.713 -0.3241 -0.3688 -0.0183
 3113SOL    MW412220   5.019   1.635   4.679  0.0687 -0.1057  0.1818
 3114SOL     OW12221   4.381   0.887   4.642 -0.1690  0.4833 -0.2030
 3114SOL    HW212222   4.297   0.931   4.654 -1.1416 -1.3285 -0.0161
 3114SOL    HW312223   4.385   0.866   4.549  0.0728  0.5257 -0.2050
 3114SOL    MW412224   4.371   0.890   4.632 -0.2654  0.2499 -0.1786
 3115SOL     OW12225   0.117   1.961   4.104  0.4527 -0.2399 -0.3017
 3115SOL    HW212226   0.182   1.995   4.165 -0.0392  1.6108 -0.7516
 3115SOL    HW312227   0.167   1.904   4.045  1.0887 -1.3085  1.2127
 3115SOL    MW412228   0.132   1.958   4.104  0.4717 -0.1367 -0.1613
 3116SOL     OW12229   6.110   2.858   5.332 -0.4112  0.0616  0.5392
 3116SOL    HW212230   6.040   2.908   5.289  0.1129 -0.2823 -0.7205
 3116SOL    HW312231   6.067   2.778   5.362 -0.1283 -1.3216 -2.4029
 3116SOL    MW412232   6.095   2.854   5.331 -0.3047 -0.1663 -0.0152
 3117SOL     OW12233   3.531   3.259   4.833 -0.1577 -0.6749 -0.2601
 3117SOL    HW212234   3.566   3.221   4.752  2.4110  0.2025  0.3477
 3117SOL    HW312235   3.463   3.320   4.804  0.5309 -0.5737 -1.7340
 3117SOL    MW412236   3.527   3.262   4.818  0.2721 -0.5458 -0.3744
 3118SOL     OW12237   4.416   5.108   1.454  0.3150 -0.5143 -0.4033
 3118SOL    HW212238   4.433   5.201   1.470  2.5567 -0.7395 -1.1491
 3118SOL    HW312239   4.458   5.063   1.527  0.7005 -0.9961 -0.9112
 3118SOL    MW412240   4.424   5.114   1.466  0.6616 -0.6076 -0.5687
 3119SOL     OW12241   3.662   0.897   6.327  0.7309 -0.6240 -0.0993
 3119SOL    HW212242   3.735   0.927   6.274 -0.7721  2.1485 -0.8015
 3119SOL    HW312243   3.668   0.948   6.408  0.9881 -2.2667  0.9726
 3119SOL    MW412244   3.672   0.908   6.331  0.5665 -0.4750 -0.0505
 3120SOL     OW12245   1.003   5.128   0.346 -0.0667  0.5573 -0.5358
 3120SOL    HW212246   0.916   5.090   0.357 -0.0221  0.1312 -1.6145
 3120SOL    HW312247   1.062   5.067   0.391 -0.3634  1.1664  0.7478
 3120SOL    MW412248   1.000   5.115   0.354 -0.1000  0.5815 -0.5088
 3121SOL     OW12249   2.629   3.393   2.990  0.1221 -0.1321  0.1225
 3121SOL    HW212250   2.598   3.483   2.999  0.4235 -0.0734  0.5848
 3121SOL    HW312251   2.689   3.380   3.063 -1.9497 -1.5929  1.6976
 3121SOL    MW412252   2.633   3.403   3.000 -0.1115 -0.3171  0.3913
 3122SOL     OW12253   3.176   4.993   1.028  0.4655 -0.9670 -0.3423
 3122SOL    HW212254   3.266   5.023   1.044  0.3120  0.3119 -1.6371
 3122SOL    HW312255   3.166   4.916   1.084  2.4252 -1.2441 -0.3034
 3122SOL    MW412256   3.187   4.987   1.038  0.7038 -0.8348 -0.5080
 3123SOL     OW12257   0.711   4.766   0.136 -0.4847  0.1178  1.2185
 3123SOL    HW212258   0.803   4.786   0.155 -0.9595  0.6333  3.2897
 3123SOL    HW312259   0.662   4.827   0.191 -2.0860 -0.1819  0.1824
 3123SOL    MW412260   0.717   4.777   0.146 -0.7586  0.1462  1.3551
 3124SOL     OW12261   4.644   4.459   1.064 -0.6408 -0.3550  0.1298
 3124SOL    HW212262   4.704   4.426   0.997  1.3905  1.4877  0.9384
 3124SOL    HW312263   4.589   4.522   1.018 -0.4241 -0.3757 -0.1580
 3124SOL    MW412264   4.645   4.463   1.049 -0.3442 -0.1146  0.1985
 3125SOL     OW12265   3.309   4.169   1.053  0.2178  0.2749 -0.3438
 3125SOL    HW212266   3.220   4.173   1.018  0.2827 -0.6645 -0.6494
 3125SOL    HW312267   3.362   4.216   0.989  0.0747  0.0547 -0.6260
 3125SOL    MW412268   3.304   4.176   1.040  0.2075  0.1219 -0.4213
 3126SOL     OW12269   5.857   3.725   5.017 -0.0606 -0.4499  0.3534
 3126SOL    HW212270   5.784   3.683   5.062  0.7607 -0.1843  2.0225
 3126SOL    HW312271   5.932   3.711   5.075  1.0395 -0.0123 -0.9184
 3126SOL    MW412272   5.857   3.718   5.031  0.1929 -0.3571  0.4058
 3127SOL     OW12273   2.096   1.807   0.398  0.0058 -0.1323 -0.0234
 3127SOL    HW212274   2.139   1.722   0.389 -0.1826 -0.2323  0.0096
 3127SOL    HW312275   2.153   1.856   0.458  0.2073 -0.1717 -0.1826
 3127SOL    MW412276   2.109   1.802   0.405  0.0075 -0.1507 -0.0401
 3128SOL     OW12277   3.843   3.234   6.070  0.3145 -0.0287  0.0335
 3128SOL    HW212278   3.852   3.291   6.146 -1.8525 -0.6065  0.7829
 3128SOL    HW312279   3.765   3.182   6.088  0.1372 -0.6669 -2.2857
 3128SOL    MW412280   3.834   3.235   6.083  0.0052 -0.1891 -0.1736
 3129SOL     OW12281   5.853   0.137   1.112 -0.0015 -0.3222 -0.7745
 3129SOL    HW212282   5.805   0.217   1.130  0.0781 -0.5630  0.6252
 3129SOL    HW312283   5.808   0.099   1.037 -1.6976 -0.2650  0.1404
 3129SOL    MW412284   5.841   0.142   1.105 -0.2148 -0.3464 -0.4691
 3130SOL     OW12285   3.004   3.328   3.398 -0.7847  0.1600 -0.3287
 3130SOL    HW212286   2.970   3.243   3.425  0.6380 -0.2736  0.1903
 3130SOL    HW312287   3.071   3.307   3.334  0.9872  0.7301  1.2576
 3130SOL    MW412288   3.008   3.314   3.393 -0.3632  0.1780 -0.0509
 3131SOL     OW12289   5.826   1.214   5.924 -0.4248  0.1022 -0.0308
 3131SOL    HW212290   5.873   1.264   5.858 -1.1483 -0.8897 -1.3552
 3131SOL    HW312291   5.735   1.243   5.917 -0.7977 -1.1018 -0.6071
 3131SOL    MW412292   5.820   1.224   5.914 -0.5695 -0.1876 -0.2816
 3132SOL     OW12293   3.626   5.711   5.289  0.4727 -0.2575 -0.0568
 3132SOL    HW212294   3.631   5.641   5.225 -0.4569 -1.4592  1.1361
 3132SOL    HW312295   3.710   5.708   5.335  0.5007 -0.4564 -0.1225
 3132SOL    MW412296   3.638   5.702   5.287  0.3538 -0.4423  0.0919
 3133SOL     OW12297   1.632   4.440   2.746  0.0157 -0.4015 -0.0852
 3133SOL    HW212298   1.543   4.474   2.758  0.4923  0.9601 -0.2812
 3133SOL    HW312299   1.620   4.359   2.696 -1.1089 -0.2569 -0.0748
 3133SOL    MW412300   1.618   4.433   2.741 -0.0698 -0.2028 -0.1097
 3134SOL     OW12301   3.096   1.345   0.411  0.2785 -0.2156 -0.1805
 3134SOL    HW212302   3.045   1.393   0.346  1.8650  2.1123  0.1605
 3134SOL    HW312303   3.180   1.326   0.368  1.5084  1.7044  1.1656
 3134SOL    MW412304   3.101   1.349   0.397  0.6501  0.3449  0.0421
 3135SOL     OW12305   4.487   2.029   0.192  0.3991  0.5343 -0.5215
 3135SOL    HW212306   4.527   2.069   0.269  0.3261 -0.2933 -0.0396
 3135SOL    HW312307   4.552   2.040   0.123  0.5682  1.0635 -0.2867
 3135SOL    MW412308   4.501   2.036   0.193  0.4118  0.4949 -0.4269
 3136SOL     OW12309   0.812   2.669   5.744 -0.0580 -0.4154  0.2980
 3136SOL    HW212310   0.863   2.589   5.740 -1.6735 -1.4891  0.1614
 3136SOL    HW312311   0.805   2.698   5.653  1.7711  0.7517  0.4846
 3136SOL    MW412312   0.818   2.663   5.731 -0.0298 -0.4031  0.3046
 3137SOL     OW12313   2.433   1.600   0.780 -0.0255  0.0904  0.0999
 3137SOL    HW212314   2.467   1.512   0.797  0.2495  0.3054  0.6563
 3137SOL    HW312315   2.476   1.626   0.698 -2.4646 -1.5252 -1.8279
 3137SOL    MW412316   2.443   1.592   0.771 -0.3110 -0.0944 -0.0810
 3138SOL     OW12317   5.455   6.379   0.939 -0.7687 -0.3863 -0.1924
 3138SOL    HW212318   5.499   6.327   1.006  0.2014 -1.1619 -1.3734
 3138SOL    HW312319   5.400   6.440   0.987  0.7670 -0.1376  1.3241
 3138SOL    MW412320   5.453   6.380   0.954 -0.4381 -0.4558 -0.1482
 3139SOL     OW12321   1.997   2.861   5.819 -0.2243  0.1632 -0.0026
 3139SOL    HW212322   2.057   2.928   5.850 -0.4137  0.3100  0.0498
 3139SOL    HW312323   1.933   2.850   5.890 -2.3314  2.5022 -1.3503
 3139SOL    MW412324   1.996   2.868   5.832 -0.5273  0.4911 -0.1735
 3140SOL     OW12325   5.417   0.826   0.048  0.4818  0.4473  0.0177
 3140SOL    HW212326   5.331   0.854   0.081 -0.2926 -1.1725 -0.5569
 3140SOL    HW312327   5.474   0.832   0.125 -0.3061  0.8467  0.5967
 3140SOL    MW412328   5.413   0.831   0.063  0.2757  0.2863  0.0182
 3141SOL     OW12329   5.090   0.554   5.457 -0.0310 -0.4103  0.3908
 3141SOL    HW212330   5.024   0.574   5.522  0.8680 -0.5120  1.3645
 3141SOL    HW312331   5.041   0.519   5.383 -1.1692  0.8003  0.5482
 3141SOL    MW412332   5.075   0.552   5.456 -0.0626 -0.2640  0.5401
 3142SOL     OW12333   2.047   4.972   3.294  0.5856  0.2968  0.0441
 3142SOL    HW212334   1.954   4.990   3.311  0.6010  1.4344 -0.9112
 3142SOL    HW312335   2.061   4.884   3.327 -0.6505  0.3986  0.9117
 3142SOL    MW412336   2.037   4.963   3.301  0.4245  0.4603  0.0325
 3143SOL     OW12337   5.924   0.216   3.125  0.0890  0.3463  0.0059
 3143SOL    HW212338   5.964   0.143   3.172 -0.5636  0.6219  1.0326
 3143SOL    HW312339   5.981   0.290   3.142  1.1653 -0.0424 -1.6558
 3143SOL    MW412340   5.936   0.216   3.133  0.1449  0.3314 -0.0779
 3144SOL     OW12341   5.157   3.335   2.814 -0.0423  0.3238 -0.2833
 3144SOL    HW212342   5.078   3.281   2.819 -0.2488  0.6903  0.6505
 3144SOL    HW312343   5.149   3.396   2.888  0.5736  1.1012 -0.8410
 3144SOL    MW412344   5.146   3.336   2.825  0.0117  0.4747 -0.2337
 3145SOL     OW12345   6.379   0.918   2.244  0.3133  0.6100  0.1515
 3145SOL    HW212346   6.293   0.916   2.286 -0.3738  0.7484 -1.2067
 3145SOL    HW312347   6.393   1.010   2.223  1.8651  0.9797  2.4087
 3145SOL    MW412348   6.370   0.930   2.247  0.4274  0.6770  0.2701
 3146SOL     OW12349   3.343   0.100   1.395 -0.4766 -0.6093 -0.3734
 3146SOL    HW212350   3.344   0.188   1.434 -4.0513 -0.5057 -0.1204
 3146SOL    HW312351   3.364   0.115   1.303 -3.3624  1.0451 -0.8940
 3146SOL    MW412352   3.346   0.114   1.388 -1.3290 -0.3773 -0.4087
 3147SOL     OW12353   0.462   4.255   1.275 -0.1306 -0.2792 -0.4519
 3147SOL    HW212354   0.470   4.229   1.366  1.0846 -1.7429 -0.9409
 3147SOL    HW312355   0.377   4.299   1.270 -0.2982 -0.3366  1.3254
 3147SOL    MW412356   0.452   4.257   1.286  0.0076 -0.4799 -0.2819
 3148SOL     OW12357   0.382   4.895   0.610  0.2789  0.1431 -0.2290
 3148SOL    HW212358   0.368   4.847   0.528  0.9530  0.8174 -0.7495
 3148SOL    HW312359   0.362   4.831   0.678 -0.8140 -0.2715 -0.9078
 3148SOL    MW412360   0.378   4.880   0.608  0.2237  0.1774 -0.3873
 3149SOL     OW12361   5.210   5.544   2.457  0.4806 -0.0109  0.0106
 3149SOL    HW212362   5.301   5.545   2.489 -0.0362 -1.8582  1.7827
 3149SOL    HW312363   5.213   5.490   2.378  0.9026 -0.2648  0.1948
 3149SOL    MW412364   5.222   5.537   2.451  0.4681 -0.2881  0.2688
 3150SOL     OW12365   0.795   5.763   1.281 -0.6905  0.0160  0.5054
 3150SOL    HW212366   0.773   5.826   1.350 -0.9045 -0.8264  1.2289
 3150SOL    HW312367   0.773   5.807   1.200  1.6737  1.9316  0.7959
 3150SOL    MW412368   0.789   5.777   1.280 -0.4068  0.1576  0.6392
 3151SOL     OW12369   5.395   4.516   5.847 -0.1195  0.1019 -0.1100
 3151SOL    HW212370   5.371   4.447   5.909  1.5912 -0.0355  0.4380
 3151SOL    HW312371   5.320   4.521   5.787 -2.5825  1.3343  2.8165
 3151SOL    MW412372   5.382   4.507   5.847 -0.2188  0.2463  0.3484
 3152SOL     OW12373   5.783   3.726   0.382  0.0905  0.0149  0.1516
 3152SOL    HW212374   5.715   3.713   0.448 -0.3508 -0.7555 -0.4300
 3152SOL    HW312375   5.787   3.820   0.369  0.3858  0.1976  1.4755
 3152SOL    MW412376   5.775   3.736   0.389  0.0713 -0.0626  0.2496
 3153SOL     OW12377   2.366   5.599   4.776  0.2983 -0.1113 -0.4114
 3153SOL    HW212378   2.277   5.587   4.743  0.3307  1.8271 -1.3157
 3153SOL    HW312379   2.422   5.565   4.707  0.2974 -0.2105 -0.3647
 3153SOL    MW412380   2.362   5.593   4.763  0.3024  0.1314 -0.5245
 3154SOL     OW12381   1.596   1.866   6.232 -0.0586  0.3542  0.3946
 3154SOL    HW212382   1.561   1.950   6.202 -0.1564 -0.0470 -0.6622
 3154SOL    HW312383   1.537   1.840   6.303 -0.8147  0.5761 -0.1272
 3154SOL    MW412384   1.583   1.874   6.237 -0.1712  0.3306  0.1863
 3155SOL     OW12385   2.730   6.381   5.818 -0.7021  0.0100  0.3442
 3155SOL    HW212386   2.669   6.445   5.855 -1.6078  0.9288 -2.5182
 3155SOL    HW312387   2.683   6.298   5.822 -0.6608  0.0218  1.4349
 3155SOL    MW412388   2.716   6.379   5.824 -0.8161  0.1328  0.1104
 3156SOL     OW12389   0.552   3.953   5.955  0.1546 -0.3641 -0.2129
 3156SOL    HW212390   0.632   3.932   5.907  0.6088 -0.2390  0.4759
 3156SOL    HW312391   0.485   3.963   5.887  1.0130  0.8610 -0.9218
 3156SOL    MW412392   0.554   3.952   5.940  0.3278 -0.1860 -0.2156
 3157SOL     OW12393   0.386   4.440   3.362  0.2826  0.6486  0.4639
 3157SOL    HW212394   0.353   4.352   3.342  0.2596  0.6781  0.3727
 3157SOL    HW312395   0.419   4.472   3.278  0.3309  0.7096  0.5071
 3157SOL    MW412396   0.386   4.432   3.348  0.2860  0.6605  0.4576
 3158SOL     OW12397   0.148   0.363   5.059 -0.0843  0.0912  0.0217
 3158SOL    HW212398   0.169   0.438   5.003  0.2648  0.6013  0.8103
 3158SOL    HW312399   0.053   0.360   5.060 -0.1984 -2.0602 -3.3586
 3158SOL    MW412400   0.138   0.373   5.052 -0.0533 -0.1253 -0.3203
 3159SOL     OW12401   0.457   1.631   3.452 -0.4295  0.2110  0.2252
 3159SOL    HW212402   0.470   1.608   3.360  1.0111 -1.8783  0.8855
 3159SOL    HW312403   0.517   1.705   3.467 -0.4206  0.3386 -0.4230
 3159SOL    MW412404   0.467   1.638   3.442 -0.2383 -0.0478  0.2268
 3160SOL     OW12405   4.567   3.855   2.427  0.1596 -0.3667 -0.1504
 3160SOL    HW212406   4.519   3.922   2.476  1.2376  0.1801  0.1908
 3160SOL    HW312407   4.536   3.772   2.463  0.5469  0.0095  1.1213
 3160SOL    MW412408   4.557   3.853   2.438  0.3529 -0.2449  0.0624
 3161SOL     OW12409   2.478   3.441   5.107  0.6292 -0.1393 -0.5852
 3161SOL    HW212410   2.412   3.401   5.164  1.5236 -1.3773 -0.3900
 3161SOL    HW312411   2.544   3.476   5.168  1.5018 -1.3155 -0.8219
 3161SOL    MW412412   2.478   3.440   5.123  0.8624 -0.4579 -0.5906
 3162SOL     OW12413   5.447   0.978   0.905 -0.0467 -0.5928 -0.0106
 3162SOL    HW212414   5.529   0.976   0.956  0.3165 -0.3505 -0.5787
 3162SOL    HW312415   5.476   0.987   0.814 -0.7093 -0.4716 -0.2091
 3162SOL    MW412416   5.462   0.979   0.900 -0.0862 -0.5448 -0.1117
 3163SOL     OW12417   4.568   4.803   2.075 -0.0261 -0.1048  0.3002
 3163SOL    HW212418   4.530   4.715   2.075  0.1299 -0.1779  0.7343
 3163SOL    HW312419   4.588   4.820   2.167 -1.2259  0.9004  0.3990
 3163SOL    MW412420   4.566   4.794   2.087 -0.1638  0.0182  0.3705
 3164SOL     OW12421   1.543   5.136   2.836  0.0691  0.4310  0.3497
 3164SOL    HW212422   1.623   5.088   2.815 -0.5304 -0.0142 -0.9454
 3164SOL    HW312423   1.482   5.070   2.869  0.0214  0.6764  0.7687
 3164SOL    MW412424   1.546   5.121   2.838 -0.0163  0.4047  0.2341
 3165SOL     OW12425   2.263   1.905   0.614 -0.1343 -0.2266 -0.4986
 3165SOL    HW212426   2.346   1.901   0.566 -0.0942  1.1698 -0.5861
 3165SOL    HW312427   2.288   1.906   0.706  0.0892  1.9565 -0.5339
 3165SOL    MW412428   2.278   1.904   0.619 -0.0995  0.2457 -0.5148
 3166SOL     OW12429   4.985   5.824   1.159  0.4184 -0.0796  0.0831
 3166SOL    HW212430   4.891   5.836   1.151  0.5659  1.6788  0.5720
 3166SOL    HW312431   4.996   5.759   1.229 -0.4146  0.3704  0.6440
 3166SOL    MW412432   4.974   5.817   1.167  0.3279  0.2118  0.2216
 3167SOL     OW12433   1.888   0.296   3.947  0.1709  0.4586  0.3409
 3167SOL    HW212434   1.810   0.323   3.996  0.1670  1.0977 -0.0090
 3167SOL    HW312435   1.946   0.372   3.951  1.0491 -0.2267  1.1273
 3167SOL    MW412436   1.886   0.309   3.954  0.2862  0.4525  0.3985
 3168SOL     OW12437   1.099   0.113   2.324  0.1358 -0.0024 -0.3958
 3168SOL    HW212438   1.044   0.108   2.246 -0.7549  4.2691 -0.2533
 3168SOL    HW312439   1.038   0.121   2.397  0.9580 -0.2425  0.3402
 3168SOL    MW412440   1.084   0.113   2.324  0.1268  0.5295 -0.2799
 3169SOL     OW12441   0.347   4.542   6.069 -0.0403 -0.3680  0.0423
 3169SOL    HW212442   0.433   4.581   6.084 -0.6624  0.6068  1.2635
 3169SOL    HW312443   0.361   4.448   6.079  1.1020 -0.3388 -0.9864
 3169SOL    MW412444   0.360   4.535   6.072  0.0284 -0.2355  0.0677
 3170SOL     OW12445   1.925   2.570   5.840  0.5698  1.3034 -0.2098
 3170SOL    HW212446   1.835   2.596   5.820 -0.9195 -2.0526  1.3176
 3170SOL    HW312447   1.954   2.524   5.761  0.8640  2.1231 -0.5885
 3170SOL    MW412448   1.917   2.568   5.827  0.4121  0.9688 -0.0582
 3171SOL     OW12449   2.755   3.567   0.944  0.9412 -0.6584  0.3142
 3171SOL    HW212450   2.720   3.496   0.998 -0.2463 -2.1411 -2.2225
 3171SOL    HW312451   2.828   3.527   0.897  1.2659  0.2730  0.0033
 3171SOL    MW412452   2.760   3.552   0.945  0.8274 -0.7312 -0.0615
 3172SOL     OW12453   2.885   0.429   0.358  0.3780 -0.4169 -0.1760
 3172SOL    HW212454   2.863   0.491   0.289  2.2405  0.2924 -0.1940
 3172SOL    HW312455   2.921   0.483   0.428 -1.6410 -1.0951  1.4865
 3172SOL    MW412456   2.887   0.444   0.358  0.3573 -0.4128  0.0410
 3173SOL     OW12457   4.073   6.205   1.714  0.5779  0.0759  0.4181
 3173SOL    HW212458   3.980   6.192   1.736  0.3787 -0.3372 -0.6088
 3173SOL    HW312459   4.093   6.136   1.651  1.6431  0.0508  0.7654
 3173SOL    MW412460   4.063   6.194   1.709  0.6921  0.0181  0.3284
 3174SOL     OW12461   2.010   0.313   0.251  0.1399  0.2228  0.3352
 3174SOL    HW212462   1.933   0.278   0.296 -0.3224  2.1136  1.1017
 3174SOL    HW312463   2.042   0.383   0.308  1.5715  0.4408 -0.6749
 3174SOL    MW412464   2.004   0.318   0.265  0.2678  0.5010  0.3031
 3175SOL     OW12465   2.424   0.838   2.257 -0.0210 -0.1360  0.6035
 3175SOL    HW212466   2.430   0.745   2.234  1.1530 -0.2278  1.2360
 3175SOL    HW312467   2.342   0.866   2.217  0.8708 -0.7981 -1.9054
 3175SOL    MW412468   2.414   0.829   2.249  0.2516 -0.2355  0.3560
 3176SOL     OW12469   3.870   6.076   0.806  0.2283  0.1934 -0.3279
 3176SOL    HW212470   3.831   6.160   0.782  1.5138  1.0076  0.3168
 3176SOL    HW312471   3.878   6.029   0.724 -0.0987  0.8861 -0.7673
 3176SOL    MW412472   3.866   6.081   0.792  0.3548  0.3923 -0.3008
 3177SOL     OW12473   3.122   5.962   2.543  0.2186 -0.2173 -0.4173
 3177SOL    HW212474   3.036   5.940   2.580  0.0453  1.3597  0.1730
 3177SOL    HW312475   3.178   5.888   2.567 -0.6875 -0.7214  0.2129
 3177SOL    MW412476   3.118   5.949   2.551  0.0762 -0.0758 -0.2563
 3178SOL     OW12477   2.359   1.875   1.131  0.4355 -0.0666 -0.3978
 3178SOL    HW212478   2.441   1.829   1.146  0.1396 -0.1847  1.0140
 3178SOL    HW312479   2.368   1.957   1.180  0.0338  0.2959 -0.9175
 3178SOL    MW412480   2.371   1.880   1.140  0.3435 -0.0344 -0.2801
 3179SOL     OW12481   4.089   0.491   1.393 -0.3233 -0.3821 -0.3848
 3179SOL    HW212482   4.175   0.481   1.434  0.9152  1.0354 -2.4770
 3179SOL    HW312483   4.066   0.403   1.364  1.5625 -0.4614 -1.8382
 3179SOL    MW412484   4.097   0.478   1.394  0.0889 -0.2056 -0.8526
 3180SOL     OW12485   1.882   4.925   6.021 -0.2040  0.1938  0.2135
 3180SOL    HW212486   1.871   4.998   6.082  4.0007  0.2485  1.2272
 3180SOL    HW312487   1.915   4.965   5.941  0.1220 -0.4143  0.0379
 3180SOL    MW412488   1.885   4.940   6.018  0.3938  0.1208  0.3241
 3181SOL     OW12489   4.305   0.085   5.955 -0.0496  0.4690  0.3174
 3181SOL    HW212490   4.228   0.053   6.001  0.7720 -2.4174 -0.1475
 3181SOL    HW312491   4.274   0.103   5.866 -0.2467 -0.5170  0.1773
 3181SOL    MW412492   4.291   0.083   5.949  0.0328 -0.0419  0.2376
 3182SOL     OW12493   5.370   4.235   1.174 -0.3213 -0.3706  0.1155
 3182SOL    HW212494   5.357   4.251   1.080  1.1960 -1.5494 -0.3415
 3182SOL    HW312495   5.461   4.261   1.190 -0.7051  0.2395  1.3751
 3182SOL    MW412496   5.380   4.241   1.163 -0.1718 -0.4456  0.2214
 3183SOL     OW12497   3.914   1.902   3.323 -0.1828 -0.0031  0.6245
 3183SOL    HW212498   3.821   1.918   3.338 -0.1458  0.5686  0.2731
 3183SOL    HW312499   3.955   1.987   3.338 -0.0347  0.3993 -1.7491
 3183SOL    MW412500   3.907   1.916   3.327 -0.1584  0.1254  0.2650
 3184SOL     OW12501   5.493   5.119   4.117 -0.5746 -0.2947  0.7385
 3184SOL    HW212502   5.462   5.121   4.027 -1.3478 -0.8330  0.9810
 3184SOL    HW312503   5.422   5.158   4.168 -0.2627 -0.2512  1.1496
 3184SOL    MW412504   5.480   5.125   4.112 -0.6355 -0.3599  0.8247
 3185SOL     OW12505   4.143   4.313   3.348  0.2881 -0.1050  0.1433
 3185SOL    HW212506   4.068   4.365   3.317  0.3179  1.4852  2.5077
 3185SOL    HW312507   4.137   4.317   3.443  1.7021 -2.5063  0.4064
 3185SOL    MW412508   4.132   4.320   3.356  0.4786 -0.2120  0.4900
 3186SOL     OW12509   0.844   4.887   1.520 -0.2884  0.5834  0.6021
 3186SOL    HW212510   0.793   4.918   1.594 -0.9680  1.4179 -0.1969
 3186SOL    HW312511   0.884   4.966   1.483 -0.3246  0.2481 -0.1814
 3186SOL    MW412512   0.843   4.902   1.525 -0.3829  0.6493  0.3933
 3187SOL     OW12513   4.346   4.083   4.174  0.0025  0.3602 -0.4253
 3187SOL    HW212514   4.336   4.132   4.255  0.1271  0.3335 -0.3930
 3187SOL    HW312515   4.258   4.080   4.136  0.3152  2.3938 -1.4548
 3187SOL    MW412516   4.333   4.089   4.179  0.0602  0.6250 -0.5569
 3188SOL     OW12517   4.508   6.358   5.488  0.2455  0.6468 -0.0009
 3188SOL    HW212518   4.541   6.277   5.527  0.7647  1.2195  0.7601
 3188SOL    HW312519   4.525   6.348   5.394 -0.7214 -0.6044 -0.0870
 3188SOL    MW412520   4.514   6.346   5.481  0.1865  0.5573  0.0881
 3189SOL     OW12521   5.002   3.279   6.034 -0.2843 -0.2804 -0.1861
 3189SOL    HW212522   5.019   3.260   6.126  0.1942 -0.4973 -0.3146
 3189SOL    HW312523   4.953   3.203   6.002  0.9875 -0.9828 -0.5164
 3189SOL    MW412524   4.998   3.266   6.042 -0.0534 -0.4017 -0.2466
 3190SOL     OW12525   5.554   3.156   3.529 -0.4051 -0.2955  0.3458
 3190SOL    HW212526   5.475   3.159   3.583 -1.1804 -0.0186 -0.7573
 3190SOL    HW312527   5.583   3.247   3.524  0.1742 -0.4355  0.9957
 3190SOL    MW412528   5.547   3.168   3.535 -0.4310 -0.2774  0.2860
 3191SOL     OW12529   6.270   2.850   1.079  0.3657 -0.0050 -0.5766
 3191SOL    HW212530   6.313   2.892   1.153 -1.8634  2.0331 -0.3237
 3191SOL    HW312531   6.180   2.835   1.108 -0.7184  1.3096 -2.9242
 3191SOL    MW412532   6.264   2.854   1.092 -0.0714  0.4374 -0.8529
 3192SOL     OW12533   3.819   6.326   0.718  0.6106  0.2324  0.0011
 3192SOL    HW212534   3.874   6.404   0.732  0.1720  0.4279  0.6595
 3192SOL    HW312535   3.755   6.354   0.653  0.7691  0.2587 -0.1461
 3192SOL    MW412536   3.818   6.340   0.711  0.5736  0.2616  0.0685
 3193SOL     OW12537   5.700   0.286   4.751  0.1610  0.0780 -0.0824
 3193SOL    HW212538   5.703   0.381   4.758 -0.2230 -0.0082  1.7296
 3193SOL    HW312539   5.705   0.269   4.657 -2.4194  1.9803 -0.6928
 3193SOL    MW412540   5.701   0.296   4.740 -0.2302  0.3176  0.0761
 3194SOL     OW12541   6.164   0.605   0.788 -0.2631  0.2653 -0.7201
 3194SOL    HW212542   6.166   0.525   0.841  0.7623  0.4021 -0.5310
 3194SOL    HW312543   6.141   0.575   0.700  1.6923 -0.4762 -1.0196
 3194SOL    MW412544   6.161   0.590   0.784  0.1302  0.1855 -0.7347
 3195SOL     OW12545   3.336   2.771   0.879 -0.1739 -0.4289 -1.0023
 3195SOL    HW212546   3.316   2.764   0.785 -0.2245 -1.8655 -0.9158
 3195SOL    HW312547   3.408   2.709   0.892  0.5416  0.5241 -0.2611
 3195SOL    MW412548   3.343   2.762   0.868 -0.0861 -0.4927 -0.8931
 3196SOL     OW12549   3.705   5.892   6.354 -0.5914  0.0185 -0.0906
 3196SOL    HW212550   3.786   5.925   6.317 -0.1420  0.0863  0.9248
 3196SOL    HW312551   3.682   5.955   6.422 -1.4743 -0.0233 -0.3344
 3196SOL    MW412552   3.712   5.905   6.358 -0.6486  0.0219  0.0112
 3197SOL     OW12553   6.021   4.941   0.328  0.1194 -0.6241  0.1991
 3197SOL    HW212554   6.102   4.891   0.314 -0.1878 -1.2945  0.7610
 3197SOL    HW312555   5.958   4.903   0.267  0.1974 -0.1481 -0.1878
 3197SOL    MW412556   6.024   4.930   0.318  0.0892 -0.6498  0.2222
 3198SOL     OW12557   4.814   4.514   4.748 -0.0999 -0.0988  0.6667
 3198SOL    HW212558   4.780   4.437   4.793 -0.1017 -0.5523 -0.0836
 3198SOL    HW312559   4.894   4.537   4.796  1.0269 -1.8176 -0.2927
 3198SOL    MW412560   4.820   4.507   4.760  0.0485 -0.3854  0.4411
 3199SOL     OW12561   2.744   0.290   6.009  0.1322  0.0446 -0.3245
 3199SOL    HW212562   2.705   0.345   6.078 -0.4946 -0.2614 -0.4329
 3199SOL    HW312563   2.700   0.206   6.018  1.5110 -0.6336  0.2152
 3199SOL    MW412564   2.733   0.286   6.020  0.2314 -0.0852 -0.2676
 3200SOL     OW12565   2.835   0.732   5.880  0.5655 -0.0718  0.3359
 3200SOL    HW212566   2.805   0.645   5.856  0.4266 -0.2833  1.2372
 3200SOL    HW312567   2.868   0.770   5.799 -1.3291 -0.1645 -0.5097
 3200SOL    MW412568   2.836   0.726   5.866  0.2972 -0.1119  0.3432
 3201SOL     OW12569   4.161   1.198   4.967 -0.1136 -0.1756  0.1514
 3201SOL    HW212570   4.156   1.147   5.048  4.1133 -0.6908  0.2980
 3201SOL    HW312571   4.175   1.133   4.898  2.7116  0.4645 -0.0080
 3201SOL    MW412572   4.162   1.182   4.969  0.8169 -0.1591  0.1497
 3202SOL     OW12573   4.069   4.770   0.820  0.2826 -0.4283 -0.0142
 3202SOL    HW212574   4.082   4.799   0.729  0.8401 -0.0639  0.1723
 3202SOL    HW312575   4.126   4.828   0.871 -0.9466  0.1877  0.7107
 3202SOL    MW412576   4.079   4.782   0.814  0.1940 -0.2990  0.1061
 3203SOL     OW12577   1.838   5.190   1.571  0.1217 -0.3822 -0.9441
 3203SOL    HW212578   1.805   5.267   1.617 -1.6975 -1.1605 -0.8548
 3203SOL    HW312579   1.773   5.173   1.503 -0.8657 -3.1816  0.5208
 3203SOL    MW412580   1.825   5.198   1.568 -0.2486 -0.8542 -0.7390
 3204SOL     OW12581   3.487   4.311   1.645  0.7607 -0.2893  0.3785
 3204SOL    HW212582   3.455   4.396   1.616  0.8543  0.1224  1.4182
 3204SOL    HW312583   3.573   4.330   1.683 -0.1520 -0.4511  2.6586
 3204SOL    MW412584   3.494   4.325   1.646  0.6526 -0.2563  0.8165
 3205SOL     OW12585   3.313   1.450   6.401  0.6471 -0.3742 -0.1915
 3205SOL    HW212586   3.225   1.482   6.424  1.4646  0.6534  1.7056
 3205SOL    HW312587   3.308   1.434   6.306 -1.2702  0.6904 -0.3260
 3205SOL    MW412588   3.301   1.452   6.391  0.5020 -0.0982  0.0411
 3206SOL     OW12589   5.218   4.640   1.702  0.0015 -0.1699  0.1085
 3206SOL    HW212590   5.154   4.704   1.734  0.3194  0.3857 -0.3512
 3206SOL    HW312591   5.260   4.683   1.628  0.5761 -0.7224  0.1059
 3206SOL    MW412592   5.215   4.654   1.696  0.1192 -0.1695  0.0475
 3207SOL     OW12593   2.060   4.196   3.842  0.4571 -0.0802 -0.2350
 3207SOL    HW212594   2.051   4.124   3.778 -1.1452 -0.2765  0.1833
 3207SOL    HW312595   2.050   4.275   3.790 -0.7010 -0.2374 -0.2721
 3207SOL    MW412596   2.058   4.197   3.826  0.0929 -0.1269 -0.1847
 3208SOL     OW12597   4.882   5.145   1.465  0.2768 -0.8834  0.0788
 3208SOL    HW212598   4.849   5.172   1.550 -1.8483 -1.7054 -0.4341
 3208SOL    HW312599   4.968   5.106   1.484  0.7588  0.7686  1.5279
 3208SOL    MW412600   4.889   5.143   1.479  0.0600 -0.7739  0.2023
 3209SOL     OW12601   4.724   5.560   0.454  0.3328 -0.1896 -0.3705
 3209SOL    HW212602   4.745   5.553   0.361 -2.2658 -0.2344 -1.0399
 3209SOL    HW312603   4.770   5.639   0.484  0.8634  0.0604 -1.7803
 3209SOL    MW412604   4.733   5.569   0.446  0.0599 -0.1625 -0.6448
 3210SOL     OW12605   0.332   0.934   2.907 -0.5201  0.7227  0.3136
 3210SOL    HW212606   0.353   0.951   2.815 -0.5557  1.1968  0.3885
 3210SOL    HW312607   0.285   0.851   2.906 -1.1614  1.0801 -0.1811
 3210SOL    MW412608   0.329   0.925   2.895 -0.6094  0.8324  0.2582
 3211SOL     OW12609   6.120   2.614   5.988 -0.2670  0.2465 -0.2717
 3211SOL    HW212610   6.174   2.690   6.009 -2.5403  1.7906  0.3441
 3211SOL    HW312611   6.141   2.550   6.055  0.3823  1.0393  0.2966
 3211SOL    MW412612   6.130   2.615   6.000 -0.4812  0.5549 -0.1155
 3212SOL     OW12613   0.442   1.342   0.965 -0.4116 -0.1940 -0.1944
 3212SOL    HW212614   0.384   1.265   0.972  0.3359 -0.6034  1.9752
 3212SOL    HW312615   0.394   1.412   1.009  0.5071 -0.4065  1.1683
 3212SOL    MW412616   0.428   1.341   0.972 -0.1918 -0.2760  0.2716
 3213SOL     OW12617   1.846   0.263   2.162  0.2378  0.1256  0.5598
 3213SOL    HW212618   1.922   0.233   2.213 -1.2010 -0.6308  2.3736
 3213SOL    HW312619   1.843   0.357   2.179  1.3742  0.3630 -0.4158
 3213SOL    MW412620   1.856   0.271   2.171  0.1979  0.0571  0.6704
 3214SOL     OW12621   1.820   2.701   1.956 -0.7248 -0.0802 -0.6778
 3214SOL    HW212622   1.893   2.679   2.015 -1.6794 -0.1258  0.5269
 3214SOL    HW312623   1.847   2.666   1.871  1.0911  0.7897 -0.5087
 3214SOL    MW412624   1.834   2.693   1.953 -0.6111  0.0286 -0.4965
 3215SOL     OW12625   3.864   3.629   2.584  0.5518 -0.1460 -0.1219
 3215SOL    HW212626   3.929   3.695   2.559  0.3812 -0.1954 -0.7210
 3215SOL    HW312627   3.914   3.548   2.591  0.6266 -0.1062 -0.1825
 3215SOL    MW412628   3.879   3.627   2.581  0.5392 -0.1473 -0.2090
 3216SOL     OW12629   3.083   0.545   3.933 -0.3577  0.0598 -0.0780
 3216SOL    HW212630   3.113   0.566   4.022 -0.8799  1.9555 -0.2949
 3216SOL    HW312631   3.149   0.485   3.899  0.4153  0.1230  1.2332
 3216SOL    MW412632   3.095   0.540   3.940 -0.3246  0.3182  0.0664
 3217SOL     OW12633   5.121   4.552   4.418  0.4850 -0.2230  0.1727
 3217SOL    HW212634   5.187   4.512   4.362 -1.1095 -1.8440 -0.6637
 3217SOL    HW312635   5.107   4.639   4.381  3.0551  0.7539  1.2132
 3217SOL    MW412636   5.128   4.558   4.406  0.6137 -0.3079  0.1996
 3218SOL     OW12637   4.456   6.288   2.803 -0.2140 -0.1098 -0.1733
 3218SOL    HW212638   4.378   6.318   2.848 -0.1981 -1.1897  0.6046
 3218SOL    HW312639   4.502   6.369   2.779 -0.6849  0.5126  0.9240
 3218SOL    MW412640   4.452   6.303   2.806 -0.2740 -0.1701  0.0741
 3219SOL     OW12641   5.430   4.902   3.021  0.2139 -0.2143 -0.4792
 3219SOL    HW212642   5.427   4.995   3.045 -0.0163 -0.6356  1.2586
 3219SOL    HW312643   5.438   4.902   2.926 -0.9858  1.5806 -0.6335
 3219SOL    MW412644   5.430   4.915   3.012  0.0252 -0.0331 -0.2703
 3220SOL     OW12645   4.298   5.978   1.328 -0.4837  0.1798 -0.4828
 3220SOL    HW212646   4.355   5.904   1.306 -1.9487 -1.4434  0.8972
 3220SOL    HW312647   4.239   5.986   1.253 -0.8005 -0.5601 -0.3176
 3220SOL    MW412648   4.298   5.969   1.315 -0.7188 -0.1320 -0.2790
 3221SOL     OW12649   4.575   5.944   2.825  0.2405  0.1616 -0.4628
 3221SOL    HW212650   4.486   5.967   2.800  0.5110  0.9149 -0.7645
 3221SOL    HW312651   4.568   5.918   2.917 -0.2538  0.4208 -0.4253
 3221SOL    MW412652   4.563   5.944   2.834  0.2110  0.2952 -0.4977
 3222SOL     OW12653   6.347   4.491   6.119  0.1211  0.1179  0.4191
 3222SOL    HW212654   6.389   4.546   6.186 -1.0836  2.5071 -0.6706
 3222SOL    HW312655   6.259   4.477   6.151 -0.7396  1.9705 -0.9010
 3222SOL    MW412656   6.341   4.497   6.132 -0.1514  0.6775  0.1012
 3223SOL     OW12657   3.486   5.775   5.869 -0.3363  0.1089 -0.0978
 3223SOL    HW212658   3.402   5.816   5.892 -0.8315 -0.4482 -0.8657
 3223SOL    HW312659   3.467   5.681   5.868  0.5425 -0.0994  0.6702
 3223SOL    MW412660   3.472   5.768   5.872 -0.2857  0.0079 -0.0978
 3224SOL     OW12661   1.369   6.046   2.841  0.1856  0.0342  0.1995
 3224SOL    HW212662   1.308   6.106   2.797  1.2313  0.0737 -1.2980
 3224SOL    HW312663   1.368   6.074   2.932  0.4070  2.1885 -0.3871
 3224SOL    MW412664   1.361   6.058   2.847  0.3528  0.3236 -0.0755
 3225SOL     OW12665   0.058   2.313   3.662 -0.1813 -0.4289 -0.5975
 3225SOL    HW212666  -0.014   2.250   3.656 -0.0124 -0.7712  0.6321
 3225SOL    HW312667   0.037   2.366   3.739  0.2846  0.2424 -0.9253
 3225SOL    MW412668   0.045   2.312   3.671 -0.0975 -0.3855 -0.4785
 3226SOL     OW12669   1.512   2.816   0.771  0.1739  0.0405  0.0671
 3226SOL    HW212670   1.602   2.788   0.783  0.5083  0.9038 -0.3002
 3226SOL    HW312671   1.483   2.842   0.859 -0.5670 -2.5495  0.6569
 3226SOL    MW412672   1.520   2.816   0.784  0.1203 -0.1873  0.0965
 3227SOL     OW12673   1.723   2.181   1.946 -0.0258 -0.4905 -0.3613
 3227SOL    HW212674   1.676   2.108   1.986  2.8414 -0.7378  3.1135
 3227SOL    HW312675   1.774   2.141   1.875 -0.5979 -1.3114 -0.3260
 3227SOL    MW412676   1.724   2.166   1.942  0.2770 -0.6314  0.1018
 3228SOL     OW12677   5.989   5.423   0.180 -0.2788 -0.3959  0.0960
 3228SOL    HW212678   5.970   5.457   0.092  2.0798 -1.4225 -0.9169
 3228SOL    HW312679   5.934   5.346   0.188 -0.0436 -0.6778 -0.8043
 3228SOL    MW412680   5.980   5.417   0.169  0.0634 -0.5686 -0.1564
 3229SOL     OW12681   3.245   0.422   1.289 -0.5570  0.0793 -0.1890
 3229SOL    HW212682   3.292   0.492   1.245  0.5707 -0.2571  0.4382
 3229SOL    HW312683   3.252   0.347   1.230 -1.4514  0.3794 -0.6932
 3229SOL    MW412684   3.252   0.421   1.275 -0.5262  0.0745 -0.1728
 3230SOL     OW12685   5.296   6.382   0.531  0.2654  0.7140  1.2285
 3230SOL    HW212686   5.337   6.467   0.547 -0.6123  1.2448  0.7689
 3230SOL    HW312687   5.309   6.367   0.437 -0.9985  1.1441  0.9558
 3230SOL    MW412688   5.303   6.391   0.520 -0.0172  0.8407  1.1319
 3231SOL     OW12689   4.860   4.470   0.855  0.1098  0.2483  0.1693
 3231SOL    HW212690   4.895   4.438   0.772  1.5039  0.3436  0.7044
 3231SOL    HW312691   4.859   4.565   0.846 -1.4476  0.2211 -0.3819
 3231SOL    MW412692   4.864   4.479   0.843  0.0882  0.2573  0.1672
 3232SOL     OW12693   4.119   3.130   3.629 -0.0298 -0.1918 -0.4186
 3232SOL    HW212694   4.039   3.182   3.634  0.8626  1.2065 -0.1354
 3232SOL    HW312695   4.168   3.168   3.556  0.7571 -0.4538 -0.0412
 3232SOL    MW412696   4.115   3.142   3.620  0.1918 -0.0419 -0.3314
 3233SOL     OW12697   1.088   5.849   1.278  0.2511 -0.1098 -0.0413
 3233SOL    HW212698   1.136   5.804   1.209 -0.5121 -2.0034  0.5892
 3233SOL    HW312699   1.003   5.805   1.281 -0.9022  1.9778  0.0569
 3233SOL    MW412700   1.083   5.837   1.269 -0.0018 -0.0842  0.0549
 3234SOL     OW12701   0.082   0.065   4.348  0.7531 -0.2064 -0.1683
 3234SOL    HW212702   0.096   0.136   4.286  2.0688 -1.1594 -1.0125
 3234SOL    HW312703   0.024   0.004   4.302 -0.0921  0.1311  0.4218
 3234SOL    MW412704   0.076   0.066   4.334  0.8152 -0.2877 -0.2019
 3235SOL     OW12705   4.432   0.454   0.727 -0.4881  0.5555 -0.1359
 3235SOL    HW212706   4.477   0.527   0.684 -0.0359  0.8400  0.7899
 3235SOL    HW312707   4.471   0.450   0.815 -0.5068 -0.8046 -0.1667
 3235SOL    MW412708   4.443   0.463   0.733 -0.4309  0.4136 -0.0178
 3236SOL     OW12709   5.593   5.054   1.170  0.0322  0.2210  0.2876
 3236SOL    HW212710   5.514   5.107   1.173  1.0927  1.9617 -0.8617
 3236SOL    HW312711   5.656   5.102   1.224  0.3375 -1.1546  1.2151
 3236SOL    MW412712   5.591   5.067   1.178  0.2124  0.2692  0.2584
 3237SOL     OW12713   4.703   4.774   5.608 -0.4716  0.3230 -0.6552
 3237SOL    HW212714   4.753   4.815   5.679 -1.2007  0.8916 -0.4559
 3237SOL    HW312715   4.768   4.754   5.541 -0.1695  2.3764 -1.0210
 3237SOL    MW412716   4.718   4.776   5.609 -0.5279  0.6690 -0.6772
 3238SOL     OW12717   0.095   5.624   1.344  0.4931  0.0497  0.2320
 3238SOL    HW212718   0.157   5.594   1.410 -2.1745 -1.1935  2.3756
 3238SOL    HW312719   0.074   5.546   1.293 -0.2684  0.1352  0.4008
 3238SOL    MW412720   0.100   5.610   1.346  0.0407 -0.1030  0.5371
 3239SOL     OW12721   0.529   1.664   1.366 -0.3629 -0.0136 -0.2278
 3239SOL    HW212722   0.470   1.617   1.425  0.0632 -0.7824 -0.4003
 3239SOL    HW312723   0.509   1.629   1.280  0.7380 -0.7119 -0.2196
 3239SOL    MW412724   0.519   1.653   1.363 -0.1614 -0.2072 -0.2495
 3240SOL     OW12725   1.083   2.303   3.105  0.1380  0.5542 -0.0565
 3240SOL    HW212726   0.991   2.303   3.129 -0.0660  0.4837 -0.8209
 3240SOL    HW312727   1.088   2.354   3.024  0.6927  0.1416 -0.2940
 3240SOL    MW412728   1.072   2.310   3.097  0.1843  0.4905 -0.1887
 3241SOL     OW12729   0.773   4.596   3.400 -0.3449 -0.1587 -0.0907
 3241SOL    HW212730   0.845   4.610   3.462 -0.1599 -2.1379  0.2108
 3241SOL    HW312731   0.709   4.665   3.422  0.2515 -0.0453  1.4734
 3241SOL    MW412732   0.774   4.607   3.411 -0.2418 -0.4049  0.1554
 3242SOL     OW12733   6.282   3.397   0.165 -0.2333 -0.4557  0.4699
 3242SOL    HW212734   6.231   3.398   0.246 -0.2325  2.7395  0.5274
 3242SOL    HW312735   6.216   3.407   0.096  0.0962  1.7274  0.4268
 3242SOL    MW412736   6.266   3.398   0.166 -0.1897  0.2539  0.4718
 3243SOL     OW12737   1.890   5.900   5.007  0.3862 -0.3556 -0.7077
 3243SOL    HW212738   1.923   5.968   4.948 -0.0946  1.0575  0.5895
 3243SOL    HW312739   1.934   5.820   4.978  0.6577  0.3988 -2.5506
 3243SOL    MW412740   1.900   5.898   4.995  0.3586 -0.0697 -0.7797
 3244SOL     OW12741   3.340   4.827   2.973  0.2017  0.5441 -0.1750
 3244SOL    HW212742   3.427   4.816   3.011 -0.8013  0.8412  2.4098
 3244SOL    HW312743   3.335   4.921   2.951  0.7986  0.3642 -1.1358
 3244SOL    MW412744   3.351   4.838   2.975  0.1481  0.5595  0.0393
 3245SOL     OW12745   5.549   3.298   0.883 -0.1597  0.0684  0.3797
 3245SOL    HW212746   5.523   3.259   0.967  2.0330 -1.4925  0.4343
 3245SOL    HW312747   5.528   3.231   0.818 -0.7790  0.8013 -0.1965
 3245SOL    MW412748   5.543   3.284   0.886  0.0479 -0.0409  0.3109
 3246SOL     OW12749   4.357   2.064   6.206  0.6474  0.4963 -0.1110
 3246SOL    HW212750   4.294   2.034   6.140 -0.0887  0.7186  0.4766
 3246SOL    HW312751   4.337   2.013   6.284  2.0736 -0.3683 -0.2790
 3246SOL    MW412752   4.346   2.054   6.207  0.7385  0.4115 -0.0556
 3247SOL     OW12753   2.252   1.691   5.118  0.7296 -0.1304  0.2082
 3247SOL    HW212754   2.312   1.631   5.163 -0.0136 -2.0122 -1.2000
 3247SOL    HW312755   2.309   1.753   5.074  1.5063  1.3040  2.9828
 3247SOL    MW412756   2.267   1.691   5.118  0.7340 -0.1894  0.3884
 3248SOL     OW12757   1.313   3.913   2.185  0.0288  0.0673 -0.2255
 3248SOL    HW212758   1.254   3.963   2.129  0.5895 -0.1657 -1.0379
 3248SOL    HW312759   1.391   3.900   2.132 -0.0301 -1.5329  0.0329
 3248SOL    MW412760   1.315   3.918   2.171  0.0950 -0.1746 -0.2986
 3249SOL     OW12761   0.852   3.513   4.493  0.0553 -0.1645 -0.4982
 3249SOL    HW212762   0.919   3.446   4.481  0.2303 -0.2833  0.9739
 3249SOL    HW312763   0.891   3.577   4.553 -0.7353  0.3610 -0.5175
 3249SOL    MW412764   0.866   3.513   4.499 -0.0259 -0.1108 -0.3065
 3250SOL     OW12765   1.070   5.006   0.765  0.0422 -0.0731  0.1642
 3250SOL    HW212766   1.165   5.021   0.767  0.5709 -2.8579  0.8983
 3250SOL    HW312767   1.041   5.027   0.854  0.0373  0.4086  0.0498
 3250SOL    MW412768   1.079   5.011   0.777  0.1113 -0.3770  0.2460
 3251SOL     OW12769   0.001   1.023   1.618 -0.5889 -0.0596 -0.2567
 3251SOL    HW212770   0.076   1.063   1.661  0.3519 -0.7192 -1.2246
 3251SOL    HW312771  -0.026   0.952   1.676 -0.9297  0.6044  0.4269
 3251SOL    MW412772   0.007   1.019   1.631 -0.5098 -0.0590 -0.2942
 3252SOL     OW12773   1.923   5.484   0.810 -0.1680  0.5021  0.1791
 3252SOL    HW212774   1.856   5.550   0.822 -0.2306  0.5541 -0.4490
 3252SOL    HW312775   2.005   5.528   0.834 -0.4486  0.1512  1.9096
 3252SOL    MW412776   1.925   5.498   0.815 -0.2133  0.4627  0.3246
 3253SOL     OW12777   4.568   0.359   5.755  0.0643  0.2226  0.5858
 3253SOL    HW212778   4.644   0.398   5.713 -0.1238  2.2440  1.9777
 3253SOL    HW312779   4.514   0.326   5.683  1.4986  0.1692 -0.4926
 3253SOL    MW412780   4.571   0.360   5.740  0.2287  0.4823  0.6272
 3254SOL     OW12781   5.395   1.730   4.612 -0.0684 -0.0573 -0.1868
 3254SOL    HW212782   5.475   1.767   4.576  1.4886 -2.4657  0.5461
 3254SOL    HW312783   5.424   1.659   4.669 -2.7288 -1.1653 -0.0170
 3254SOL    MW412784   5.409   1.726   4.615 -0.2139 -0.5212 -0.0677
 3255SOL     OW12785   6.308   0.313   5.085  0.0788 -0.2572 -0.3151
 3255SOL    HW212786   6.255   0.268   5.019  0.2420  0.8003 -1.1934
 3255SOL    HW312787   6.263   0.396   5.099  1.3725  0.5941 -0.9624
 3255SOL    MW412788   6.295   0.318   5.078  0.2710 -0.0054 -0.5164
 3256SOL     OW12789   1.156   3.551   4.752  0.1762  0.3980 -1.0378
 3256SOL    HW212790   1.143   3.521   4.842 -2.1242 -2.3825 -2.1452
 3256SOL    HW312791   1.238   3.511   4.724  0.8336  1.1655 -0.2741
 3256SOL    MW412792   1.165   3.542   4.760 -0.0406  0.1324 -1.0831
 3257SOL     OW12793   2.759   4.774   3.332  0.7446 -0.1631 -0.1191
 3257SOL    HW212794   2.744   4.869   3.334 -1.3916 -0.4301  1.8753
 3257SOL    HW312795   2.852   4.765   3.350  1.1549  1.5493 -1.0899
 3257SOL    MW412796   2.769   4.786   3.335  0.5169  0.0276  0.0160
 3258SOL     OW12797   5.318   5.003   0.587 -0.0510 -0.0723  0.5698
 3258SOL    HW212798   5.327   5.006   0.682 -0.8033 -0.7422  0.6752
 3258SOL    HW312799   5.223   5.006   0.571  0.0699  0.1836 -0.1635
 3258SOL    MW412800   5.307   5.004   0.597 -0.1343 -0.1270  0.4870
 3259SOL     OW12801   0.294   0.151   1.641 -0.5412  0.7144 -0.1390
 3259SOL    HW212802   0.304   0.058   1.663  0.3074  1.0851  1.2207
 3259SOL    HW312803   0.367   0.193   1.687 -0.5541  1.9814 -1.2412
 3259SOL    MW412804   0.305   0.144   1.650 -0.4309  0.9305 -0.1051
 3260SOL     OW12805   4.562   6.167   5.673  0.8685 -0.2040 -0.5748
 3260SOL    HW212806   4.587   6.094   5.616  0.0373 -0.5465 -0.5041
 3260SOL    HW312807   4.646   6.203   5.703  1.2805 -1.5618 -0.0529
 3260SOL    MW412808   4.577   6.162   5.669  0.8132 -0.4284 -0.4966
 3261SOL     OW12809   2.464   5.059   1.952  0.2619  0.6062  0.0110
 3261SOL    HW212810   2.502   5.024   2.033 -0.3278 -0.9629 -0.3455
 3261SOL    HW312811   2.400   5.124   1.982 -0.6288 -0.6264  0.8879
 3261SOL    MW412812   2.461   5.063   1.967  0.0666  0.2366  0.0796
 3262SOL     OW12813   0.712   0.898   4.831 -0.0267 -0.3135 -0.5503
 3262SOL    HW212814   0.799   0.933   4.811 -0.1425 -0.1526 -0.7670
 3262SOL    HW312815   0.652   0.954   4.783 -0.2880 -0.0890  0.0203
 3262SOL    MW412816   0.716   0.910   4.822 -0.0765 -0.2626 -0.5036
 3263SOL     OW12817   2.961   0.800   0.674 -0.0455 -0.1646 -0.4656
 3263SOL    HW212818   2.948   0.771   0.764 -1.9890 -0.6327 -0.8483
 3263SOL    HW312819   2.945   0.894   0.676 -1.6382 -0.4123 -0.5580
 3263SOL    MW412820   2.957   0.808   0.686 -0.5120 -0.2590 -0.5283
 3264SOL     OW12821   3.777   1.804   2.423  0.3664 -0.5823  0.1479
 3264SOL    HW212822   3.693   1.816   2.379  0.3236 -3.4279 -0.7598
 3264SOL    HW312823   3.842   1.818   2.354  0.4271 -1.9586 -0.1111
 3264SOL    MW412824   3.775   1.807   2.408  0.3688 -1.1393 -0.0060
 3265SOL     OW12825   1.284   2.952   6.422 -0.4471 -0.0430  0.0469
 3265SOL    HW212826   1.201   2.910   6.445 -1.7896  2.8720  1.0272
 3265SOL    HW312827   1.315   2.991   6.504  2.2267 -1.4231 -0.1744
 3265SOL    MW412828   1.278   2.952   6.436 -0.2714  0.1595  0.1471
 3266SOL     OW12829   5.926   4.075   4.556  0.2696  0.1944 -0.4933
 3266SOL    HW212830   5.866   4.050   4.486 -0.9987  0.1497  0.5718
 3266SOL    HW312831   5.872   4.125   4.617  1.0462 -0.7424  1.0267
 3266SOL    MW412832   5.911   4.078   4.555  0.2047  0.0649 -0.1522
 3267SOL     OW12833   3.981   6.043   3.226  0.4001 -0.0704  0.0735
 3267SOL    HW212834   3.971   5.973   3.292  1.8425  0.1559  0.5832
 3267SOL    HW312835   4.069   6.028   3.190  0.6520  1.3704  0.0610
 3267SOL    MW412836   3.991   6.032   3.230  0.6237  0.1495  0.1391
 3268SOL     OW12837   5.645   2.395   5.566  0.1618  0.0911  0.3658
 3268SOL    HW212838   5.593   2.366   5.641  0.6713 -1.7990  0.0342
 3268SOL    HW312839   5.724   2.341   5.568  0.3373  0.2087 -1.3623
 3268SOL    MW412840   5.649   2.384   5.576  0.2522 -0.1428  0.0940
 3269SOL     OW12841   0.452   0.108   2.673 -0.1918 -0.3484  0.8419
 3269SOL    HW212842   0.446   0.199   2.644 -0.8649 -0.7203 -0.2379
 3269SOL    HW312843   0.546   0.089   2.674 -0.0465  0.3654  1.1084
 3269SOL    MW412844   0.463   0.117   2.669 -0.2614 -0.3033  0.7346
 3270SOL     OW12845   2.503   1.792   4.121  0.1108  0.1168  0.0245
 3270SOL    HW212846   2.519   1.885   4.104 -0.6047  0.2258 -0.1080
 3270SOL    HW312847   2.583   1.748   4.094 -0.3716  0.4582 -2.1450
 3270SOL    MW412848   2.515   1.799   4.115 -0.0472  0.1762 -0.2792
 3271SOL     OW12849   3.888   2.469   2.686  0.1468 -0.7817 -0.1927
 3271SOL    HW212850   3.885   2.562   2.664  0.4492 -0.8523 -0.5549
 3271SOL    HW312851   3.939   2.429   2.615  1.0538 -1.0439  0.5873
 3271SOL    MW412852   3.894   2.476   2.673  0.3064 -0.8256 -0.1376
 3272SOL     OW12853   0.041   4.368   4.249 -0.3064 -0.0220  0.7482
 3272SOL    HW212854   0.040   4.463   4.247 -1.4127 -0.0368  0.2767
 3272SOL    HW312855   0.004   4.341   4.165  0.5007 -0.8749  0.6419
 3272SOL    MW412856   0.036   4.377   4.238 -0.3459 -0.1365  0.6720
 3273SOL     OW12857   2.541   3.566   5.563  0.0327 -0.0019 -0.2370
 3273SOL    HW212858   2.483   3.559   5.639  0.2891  0.1312 -0.0275
 3273SOL    HW312859   2.551   3.476   5.532  0.1163 -0.0836  0.0268
 3273SOL    MW412860   2.534   3.553   5.569  0.0776  0.0049 -0.1746
 3274SOL     OW12861   3.642   4.356   4.300  0.0805  0.0825 -0.0536
 3274SOL    HW212862   3.570   4.418   4.311 -0.2659 -0.1356 -1.0074
 3274SOL    HW312863   3.611   4.295   4.233  0.9809 -0.2763 -0.1582
 3274SOL    MW412864   3.629   4.356   4.293  0.1536  0.0064 -0.1933
 3275SOL     OW12865   2.721   4.810   5.318  0.6560  0.1045  0.5915
 3275SOL    HW212866   2.757   4.837   5.402 -0.9130  1.5974  0.8282
 3275SOL    HW312867   2.730   4.886   5.261 -1.0203  0.1323  0.3211
 3275SOL    MW412868   2.727   4.823   5.322  0.2278  0.3051  0.5871
 3276SOL     OW12869   6.090   0.529   0.536  0.1649 -0.6578 -0.0668
 3276SOL    HW212870   6.079   0.622   0.516 -0.2555 -1.3001 -3.4287
 3276SOL    HW312871   6.003   0.500   0.567 -0.1205 -0.2264 -0.4572
 3276SOL    MW412872   6.077   0.537   0.538  0.0718 -0.6857 -0.5619
 3277SOL     OW12873   4.609   3.744   1.814 -0.1064 -0.1842  0.2071
 3277SOL    HW212874   4.534   3.737   1.873 -0.2621 -1.0512 -0.0697
 3277SOL    HW312875   4.676   3.790   1.864 -0.9193  0.8696  0.3577
 3277SOL    MW412876   4.608   3.749   1.828 -0.2342 -0.1596  0.1904
 3278SOL     OW12877   3.942   1.226   3.882  0.2973  0.2797  0.2116
 3278SOL    HW212878   3.960   1.298   3.822  0.3790 -1.0026 -1.3689
 3278SOL    HW312879   3.851   1.238   3.908  0.2063  0.7572 -0.3096
 3278SOL    MW412880   3.932   1.237   3.877  0.2961  0.1735 -0.0657
 3279SOL     OW12881   6.369   1.635   0.030 -0.1109  0.6115  0.3243
 3279SOL    HW212882   6.324   1.647  -0.053  0.3217  0.4140  0.0582
 3279SOL    HW312883   6.462   1.641   0.008  0.0179  0.1162  0.7233
 3279SOL    MW412884   6.376   1.638   0.016 -0.0368  0.5201  0.3419
 3280SOL     OW12885   1.270   4.856   4.231  0.3907 -0.8905 -0.4140
 3280SOL    HW212886   1.342   4.814   4.184 -1.2327 -2.2788 -1.7467
 3280SOL    HW312887   1.242   4.927   4.174  0.1370 -0.8990 -0.3008
 3280SOL    MW412888   1.276   4.860   4.218  0.1431 -1.0748 -0.5749
 3281SOL     OW12889   4.021   1.193   4.391  0.4080  0.4419 -0.3749
 3281SOL    HW212890   4.033   1.117   4.334  0.9776  0.9455 -0.9268
 3281SOL    HW312891   3.934   1.180   4.430  0.2331 -0.1666 -0.9527
 3281SOL    MW412892   4.011   1.181   4.389  0.4601  0.4281 -0.5240
 3282SOL     OW12893   1.882   3.811   4.210 -0.1060  0.2739 -0.3147
 3282SOL    HW212894   1.909   3.743   4.272 -0.1060 -1.0017 -1.6612
 3282SOL    HW312895   1.923   3.891   4.244 -1.1449 -0.0909  2.0208
 3282SOL    MW412896   1.891   3.813   4.223 -0.2431  0.0575 -0.1842
 3283SOL     OW12897   5.356   5.414   0.642 -0.2951  0.0297  0.4347
 3283SOL    HW212898   5.401   5.347   0.590 -1.4964  1.5912 -2.8713
 3283SOL    HW312899   5.263   5.397   0.628 -0.9372 -1.4076  4.8636
 3283SOL    MW412900   5.350   5.403   0.633 -0.5383  0.0461  0.5828
 3284SOL     OW12901   5.879   2.027   5.159  0.5341 -0.1232  0.6072
 3284SOL    HW212902   5.851   2.110   5.198 -1.7447 -0.1436 -0.8231
 3284SOL    HW312903   5.936   2.053   5.086 -2.1380  0.4497 -1.4315
 3284SOL    MW412904   5.883   2.041   5.154 -0.1191 -0.0503  0.1495
 3285SOL     OW12905   6.171   0.603   5.098 -0.5047  0.0967 -0.6638
 3285SOL    HW212906   6.094   0.624   5.045 -0.3932  0.9101 -0.5077
 3285SOL    HW312907   6.164   0.661   5.174 -1.2755 -1.8083  0.8236
 3285SOL    MW412908   6.160   0.613   5.101 -0.5917 -0.0473 -0.4470
 3286SOL     OW12909   5.830   4.375   4.571  0.0329  0.5290 -0.5589
 3286SOL    HW212910   5.923   4.393   4.585 -0.0854 -0.1366  1.3517
 3286SOL    HW312911   5.789   4.392   4.656 -2.0141  3.0426 -1.8874
 3286SOL    MW412912   5.837   4.380   4.584 -0.2528  0.7729 -0.4821
 3287SOL     OW12913   1.409   1.848   3.435  0.5803 -0.4174 -0.7911
 3287SOL    HW212914   1.366   1.934   3.425 -0.1048 -0.8878 -2.0549
 3287SOL    HW312915   1.358   1.789   3.379  2.2829 -1.2155 -1.5531
 3287SOL    MW412916   1.396   1.852   3.426  0.7146 -0.5848 -1.0583
 3288SOL     OW12917   2.690   3.996   2.534 -0.5329 -0.4497  0.0378
 3288SOL    HW212918   2.738   3.986   2.451  0.0369  1.1624  0.1388
 3288SOL    HW312919   2.604   4.029   2.507 -0.2635  0.3178  0.0693
 3288SOL    MW412920   2.685   3.999   2.519 -0.4222 -0.1358  0.0553
 3289SOL     OW12921   2.271   1.757   1.518  0.4660  0.5148 -0.3955
 3289SOL    HW212922   2.212   1.717   1.581  1.1129 -1.2566 -0.8446
 3289SOL    HW312923   2.321   1.821   1.568 -1.1244  1.3435  0.1887
 3289SOL    MW412924   2.270   1.761   1.533  0.3415  0.3904 -0.3777
 3290SOL     OW12925   2.590   2.054   4.035 -0.1006  0.0813  0.3633
 3290SOL    HW212926   2.674   2.072   4.078 -0.1834 -1.4224  1.2195
 3290SOL    HW312927   2.533   2.125   4.064  0.9709  1.4330 -0.6525
 3290SOL    MW412928   2.594   2.066   4.044  0.0299  0.0613  0.3422
 3291SOL     OW12929   5.984   3.157   1.295  0.1384  0.3021  0.3822
 3291SOL    HW212930   6.043   3.145   1.221 -1.2474  0.1553 -0.7526
 3291SOL    HW312931   5.972   3.252   1.302  0.6410  0.3450  0.7470
 3291SOL    MW412932   5.990   3.168   1.287  0.0219  0.2884  0.2806
 3292SOL     OW12933   6.172   3.040   0.479  0.5795 -0.2959 -0.7004
 3292SOL    HW212934   6.186   3.048   0.574  0.0191 -0.2977 -0.6190
 3292SOL    HW312935   6.139   2.952   0.467 -1.0379  0.2906 -0.6986
 3292SOL    MW412936   6.170   3.030   0.490  0.2922 -0.2187 -0.6895
 3293SOL     OW12937   5.971   3.260   3.608  0.0470  0.0633  0.3143
 3293SOL    HW212938   6.004   3.317   3.678 -0.8110  1.6994 -0.5662
 3293SOL    HW312939   5.951   3.178   3.652  0.7913  0.6058  1.7351
 3293SOL    MW412940   5.973   3.257   3.623  0.0320  0.3507  0.3856
 3294SOL     OW12941   4.877   2.973   4.837  0.1557  0.3416 -0.0117
 3294SOL    HW212942   4.862   2.886   4.875  0.1957  0.1429 -0.4503
 3294SOL    HW312943   4.793   2.997   4.797  0.3372  0.2163 -0.4713
 3294SOL    MW412944   4.864   2.965   4.837  0.1849  0.2989 -0.1302
 3295SOL     OW12945   1.406   0.822   0.400 -0.5706  0.4035  0.0460
 3295SOL    HW212946   1.351   0.893   0.432 -0.6329  0.6506 -0.5958
 3295SOL    HW312947   1.432   0.850   0.312  0.7021  0.3667  0.3923
 3295SOL    MW412948   1.402   0.835   0.392 -0.4109  0.4312  0.0070
 3296SOL     OW12949   2.237   5.337   0.021 -0.3893 -0.5965 -0.3369
 3296SOL    HW212950   2.240   5.376   0.109 -0.4924 -1.9454  0.2895
 3296SOL    HW312951   2.154   5.289   0.019  0.0470 -1.3576 -0.8109
 3296SOL    MW412952   2.226   5.336   0.033 -0.3453 -0.8749 -0.3168
 3297SOL     OW12953   3.642   3.593   3.032  0.2009 -0.5618 -0.3112
 3297SOL    HW212954   3.659   3.678   2.991  2.2292 -0.4995  0.4981
 3297SOL    HW312955   3.563   3.607   3.083  1.5234  1.5175  1.3835
 3297SOL    MW412956   3.634   3.606   3.033  0.6430 -0.2792  0.0192
 3298SOL     OW12957   5.536   0.231   4.991 -0.0694 -0.2813 -0.0125
 3298SOL    HW212958   5.501   0.142   4.986 -1.1783  0.1557 -0.3578
 3298SOL    HW312959   5.596   0.237   4.916  0.4422 -0.9027  0.3360
 3298SOL    MW412960   5.539   0.220   4.980 -0.1482 -0.3056 -0.0121
 3299SOL     OW12961   5.048   5.259   2.355 -0.0931  0.7050  0.2358
 3299SOL    HW212962   5.028   5.349   2.331 -0.5164  0.5725  0.0751
 3299SOL    HW312963   5.012   5.250   2.444 -0.7753  0.4648 -0.0551
 3299SOL    MW412964   5.041   5.270   2.364 -0.2390  0.6559  0.1762
 3300SOL     OW12965   1.353   3.603   0.461 -0.1000  0.3633  0.4123
 3300SOL    HW212966   1.306   3.684   0.440  0.5093  0.5618 -0.2629
 3300SOL    HW312967   1.285   3.537   0.473 -0.5442  0.5208 -1.0703
 3300SOL    MW412968   1.338   3.605   0.460 -0.0782  0.4102  0.1276
 3301SOL     OW12969   0.676   0.575   3.455 -0.1231 -0.3508  0.3600
 3301SOL    HW212970   0.722   0.499   3.492 -0.3820 -0.3862  0.6080
 3301SOL    HW312971   0.728   0.651   3.484  0.2927 -0.4452 -0.1168
 3301SOL    MW412972   0.689   0.575   3.464 -0.1024 -0.3679  0.3298
 3302SOL     OW12973   1.615   0.570   3.007 -0.1224  0.4570 -0.2110
 3302SOL    HW212974   1.669   0.507   2.958  0.4007  0.9011 -0.2211
 3302SOL    HW312975   1.678   0.616   3.063 -0.4717  1.0767 -0.3247
 3302SOL    MW412976   1.631   0.568   3.008 -0.0995  0.5973 -0.2273
 3303SOL     OW12977   5.036   4.230   2.384 -0.1576  0.0633  0.0121
 3303SOL    HW212978   5.052   4.168   2.455  0.9683 -0.4690 -0.6655
 3303SOL    HW312979   5.100   4.205   2.317 -0.6710  1.0472 -0.8620
 3303SOL    MW412980   5.047   4.218   2.384 -0.0768  0.1229 -0.1926
 3304SOL     OW12981   5.055   5.713   4.117  0.7776 -0.4242  0.1367
 3304SOL    HW212982   5.093   5.672   4.195  0.4706 -1.0376 -0.0286
 3304SOL    HW312983   5.095   5.800   4.114  1.4617 -0.7153  0.4830
 3304SOL    MW412984   5.065   5.719   4.127  0.8274 -0.5435  0.1606
 3305SOL     OW12985   5.834   6.281   6.270  0.4248  0.2563  0.2803
 3305SOL    HW212986   5.752   6.272   6.220  1.9751 -0.5547 -2.2882
 3305SOL    HW312987   5.873   6.194   6.268  1.3671  0.6270  1.4862
 3305SOL    MW412988   5.828   6.268   6.263  0.7537  0.1982  0.1005
 3306SOL     OW12989   3.352   5.777   2.093  0.5620 -0.5812 -0.4263
 3306SOL    HW212990   3.393   5.715   2.032  0.5875  0.3320 -1.3639
 3306SOL    HW312991   3.381   5.863   2.063 -1.2449  0.0325 -0.5226
 3306SOL    MW412992   3.361   5.780   2.081  0.3270 -0.3798 -0.5627
 3307SOL     OW12993   6.196   0.035   1.657 -0.4689  0.4744  0.6191
 3307SOL    HW212994   6.221   0.083   1.735  0.9375  1.8274 -0.6067
 3307SOL    HW312995   6.259   0.063   1.590 -1.4729 -0.8141 -0.9346
 3307SOL    MW412996   6.207   0.045   1.658 -0.4158  0.4829  0.2523
 3308SOL     OW12997   0.065   4.651   4.221  0.1556 -0.9812 -0.0150
 3308SOL    HW212998  -0.026   4.678   4.235 -0.9753 -3.8725 -1.1424
 3308SOL    HW312999   0.079   4.661   4.127  1.3836  0.3199  0.2641
 3308SOL    MW413000   0.055   4.656   4.211  0.1684 -1.1910 -0.1269
 3309SOL     OW13001   4.307   6.289   6.271 -0.7127 -0.0865 -0.3319
 3309SOL    HW213002   4.380   6.349   6.283 -0.4365  0.1086 -2.5899
 3309SOL    HW313003   4.334   6.209   6.318  1.0362 -0.0623 -1.2030
 3309SOL    MW413004   4.321   6.286   6.279 -0.4455 -0.0575 -0.7447
 3310SOL     OW13005   1.087   4.099   4.716  0.1597  0.1180 -0.2154
 3310SOL    HW213006   1.137   4.017   4.719 -0.1983 -0.0849  1.7818
 3310SOL    HW313007   1.030   4.089   4.639  0.3388 -1.3855 -0.1948
 3310SOL    MW413008   1.086   4.087   4.706  0.1361 -0.1071  0.0508
 3311SOL     OW13009   4.361   2.035   1.989  0.0518  0.3219 -0.1394
 3311SOL    HW213010   4.408   2.108   2.030  0.9165  0.3896 -1.2118
 3311SOL    HW313011   4.275   2.036   2.031 -0.2639  2.4885 -0.6718
 3311SOL    MW413012   4.355   2.045   2.000  0.1243  0.6167 -0.3511
 3312SOL     OW13013   2.338   2.860   2.819 -0.5340 -0.5493  0.3568
 3312SOL    HW213014   2.410   2.804   2.790  0.2571 -0.0052  1.2265
 3312SOL    HW313015   2.276   2.859   2.746  0.2588 -1.1895 -0.3242
 3312SOL    MW413016   2.339   2.853   2.805 -0.3251 -0.5619  0.3817
 3313SOL     OW13017   4.464   4.251   3.367 -0.1513  0.0719  0.0809
 3313SOL    HW213018   4.404   4.270   3.439  0.6760 -1.7384  1.2982
 3313SOL    HW313019   4.438   4.165   3.335  0.9199 -0.1189 -0.3110
 3313SOL    MW413020   4.453   4.242   3.372  0.0992 -0.1921  0.1898
 3314SOL     OW13021   6.109   5.447   1.217  0.1480  0.0810  0.1188
 3314SOL    HW213022   6.168   5.521   1.207  1.5197 -0.8382  0.9873
 3314SOL    HW313023   6.101   5.409   1.129  2.8293 -1.1815  0.3257
 3314SOL    MW413024   6.116   5.452   1.204  0.6828 -0.2068  0.2607
 3315SOL     OW13025   1.517   5.499   3.883  1.0576  0.4244  0.7631
 3315SOL    HW213026   1.482   5.584   3.910 -0.3885  0.1467 -0.1003
 3315SOL    HW313027   1.503   5.497   3.788 -0.0588 -1.2364  0.9177
 3315SOL    MW413028   1.510   5.510   3.874  0.7195  0.1686  0.6696
 3316SOL     OW13029   4.297   5.528   2.364 -0.1647 -0.6692 -0.4071
 3316SOL    HW213030   4.284   5.439   2.398 -1.8601 -0.9175 -1.5566
 3316SOL    HW313031   4.232   5.536   2.294 -0.0669  1.5052 -0.3040
 3316SOL    MW413032   4.287   5.517   2.359 -0.3755 -0.4151 -0.5451
 3317SOL     OW13033   2.377   0.780   3.570  0.0679 -0.3512  0.0760
 3317SOL    HW213034   2.343   0.833   3.641  0.9498  0.9883 -0.4702
 3317SOL    HW313035   2.395   0.695   3.610  0.4015  0.3223  1.4183
 3317SOL    MW413036   2.375   0.776   3.584  0.2283 -0.0856  0.1810
 3318SOL     OW13037   4.154   4.961   1.476  0.5362  1.2677 -0.2251
 3318SOL    HW213038   4.239   5.005   1.479  1.8874 -1.2473  1.1233
 3318SOL    HW313039   4.124   4.960   1.567  0.6087 -0.6310 -0.1980
 3318SOL    MW413040   4.161   4.967   1.488  0.7241  0.6854 -0.0436
 3319SOL     OW13041   2.088   3.528   2.657  0.5478 -0.2492  0.4792
 3319SOL    HW213042   2.112   3.450   2.708  1.9848  0.4488  0.9175
 3319SOL    HW313043   2.055   3.590   2.722 -1.1009 -0.6394  0.0668
 3319SOL    MW413044   2.086   3.526   2.672  0.5199 -0.2086  0.4826
 3320SOL     OW13045   0.217   0.383   3.681  0.0494 -0.2274  0.3875
 3320SOL    HW213046   0.172   0.428   3.752  0.4712  0.2442  0.3565
 3320SOL    HW313047   0.268   0.315   3.725  1.8476  1.2919  0.7558
 3320SOL    MW413048   0.218   0.380   3.696  0.3423  0.0353  0.4320
 3321SOL     OW13049   0.010   0.801   1.398  0.4414 -0.8703  0.0298
 3321SOL    HW213050   0.077   0.750   1.442  0.8806  1.6627  2.6134
 3321SOL    HW313051  -0.063   0.805   1.460 -0.8072 -0.9016 -1.3798
 3321SOL    MW413052   0.009   0.795   1.412  0.3346 -0.5403  0.1847
 3322SOL     OW13053   2.590   0.863   5.972  0.5247 -0.0121 -0.1015
 3322SOL    HW213054   2.669   0.840   5.924  0.4101  0.5086 -0.5470
 3322SOL    HW313055   2.542   0.780   5.981  0.2230 -0.0007 -1.4779
 3322SOL    MW413056   2.594   0.849   5.967  0.4698  0.0581 -0.3419
 3323SOL     OW13057   2.767   4.608   4.064  0.3781  0.5146 -0.7396
 3323SOL    HW213058   2.845   4.658   4.041  1.4372  0.0523  1.5331
 3323SOL    HW313059   2.791   4.516   4.048  0.2353  0.3802 -0.1998
 3323SOL    MW413060   2.780   4.602   4.059  0.4990  0.4359 -0.3685
 3324SOL     OW13061   0.085   4.337   4.797  0.3787 -0.1528 -0.3639
 3324SOL    HW213062   0.011   4.309   4.851  0.2248  1.1343  0.1306
 3324SOL    HW313063   0.157   4.280   4.822  0.0216 -0.2643  0.4426
 3324SOL    MW413064   0.084   4.326   4.807  0.3113  0.0023 -0.1922
 3325SOL     OW13065   4.374   4.788   6.214  0.5755  0.1585  0.0555
 3325SOL    HW213066   4.316   4.858   6.244  1.1487  0.5391  0.2980
 3325SOL    HW313067   4.316   4.715   6.194 -0.0231  0.6776 -0.1234
 3325SOL    MW413068   4.359   4.788   6.215  0.5721  0.2772  0.0639
 3326SOL     OW13069   5.384   3.169   2.867  0.0247  0.5421 -0.6012
 3326SOL    HW213070   5.312   3.233   2.867 -0.0406  0.4666 -1.1375
 3326SOL    HW313071   5.341   3.084   2.874  0.1447  0.5794  1.0649
 3326SOL    MW413072   5.369   3.166   2.868  0.0320  0.5371 -0.4522
 3327SOL     OW13073   0.664   1.356   3.867  0.7523 -0.2077 -0.1009
 3327SOL    HW213074   0.723   1.305   3.810  0.3512  0.1030 -0.8028
 3327SOL    HW313075   0.663   1.307   3.949  0.5608 -1.2193 -0.6881
 3327SOL    MW413076   0.672   1.343   3.870  0.6741 -0.3002 -0.2710
 3328SOL     OW13077   4.788   4.874   0.542 -0.0527 -0.1722  0.4227
 3328SOL    HW213078   4.773   4.923   0.461 -0.1265  1.2658  1.2685
 3328SOL    HW313079   4.810   4.785   0.513  2.2457  0.8492 -1.2999
 3328SOL    MW413080   4.789   4.869   0.528  0.2408  0.1523  0.3070
 3329SOL     OW13081   3.504   6.035   5.643  0.0596 -0.2622  1.0761
 3329SOL    HW213082   3.489   6.026   5.737 -1.0830 -1.8566  0.7775
 3329SOL    HW313083   3.516   6.129   5.630  1.6526 -0.1274  2.9934
 3329SOL    MW413084   3.504   6.046   5.654  0.1190 -0.4548  1.2897
 3330SOL     OW13085   2.065   3.501   0.465  0.2819 -0.7053 -0.0929
 3330SOL    HW213086   1.987   3.533   0.511 -0.7412 -0.6414 -1.7767
 3330SOL    HW313087   2.115   3.455   0.532 -1.7650 -1.7164  0.8429
 3330SOL    MW413088   2.061   3.499   0.480 -0.1231 -0.8303 -0.1916
 3331SOL     OW13089   3.699   0.328   5.500  0.4668 -0.7909  0.5458
 3331SOL    HW213090   3.655   0.309   5.583 -1.7446  2.2171  0.2133
 3331SOL    HW313091   3.638   0.299   5.433  0.3581  0.5233  0.0500
 3331SOL    MW413092   3.685   0.322   5.502  0.1607 -0.2206  0.4365
 3332SOL     OW13093   4.417   6.366   1.547  0.1194  0.0137 -0.3916
 3332SOL    HW213094   4.452   6.452   1.524 -0.0319  0.2794  0.3311
 3332SOL    HW313095   4.335   6.358   1.498  0.2233  0.2020 -0.5964
 3332SOL    MW413096   4.411   6.376   1.538  0.1131  0.0736 -0.3233
 3333SOL     OW13097   4.446   3.557   5.144  0.1936 -0.1507 -0.3727
 3333SOL    HW213098   4.476   3.531   5.231  1.0436  0.6050 -0.4218
 3333SOL    HW313099   4.486   3.493   5.085  0.3349 -0.1487 -0.2796
 3333SOL    MW413100   4.455   3.545   5.148  0.3244 -0.0507 -0.3669
 3334SOL     OW13101   5.946   3.138   5.387  0.7996  0.7988  0.4552
 3334SOL    HW213102   5.928   3.198   5.314 -0.1089 -0.6599 -0.5807
 3334SOL    HW313103   5.867   3.140   5.440 -0.5242 -1.6603 -1.2318
 3334SOL    MW413104   5.933   3.146   5.384  0.5051  0.2819  0.0959
 3335SOL     OW13105   1.828   2.546   4.981  0.2026  0.3378 -0.2721
 3335SOL    HW213106   1.879   2.544   4.900  0.5336  0.4415 -0.0654
 3335SOL    HW313107   1.887   2.582   5.047  0.3533 -0.9194  0.3035
 3335SOL    MW413108   1.842   2.550   4.979  0.2661  0.1856 -0.1689
 3336SOL     OW13109   1.446   6.165   0.347  0.3161  0.3175  0.0057
 3336SOL    HW213110   1.539   6.147   0.360  0.2071 -2.1177 -1.9074
 3336SOL    HW313111   1.443   6.218   0.268  0.0548 -0.4787 -0.5304
 3336SOL    MW413112   1.458   6.170   0.338  0.2672 -0.1089 -0.3175
 3337SOL     OW13113   0.943   4.353   3.535 -0.0589 -0.0601 -0.4779
 3337SOL    HW213114   0.905   4.275   3.575 -0.2186  0.3268  0.1444
 3337SOL    HW313115   0.970   4.325   3.448  0.4240 -0.9662 -0.0561
 3337SOL    MW413116   0.942   4.339   3.529 -0.0163 -0.1286 -0.3401
 3338SOL     OW13117   4.429   4.030   6.020  0.2841  0.3073 -0.3769
 3338SOL    HW213118   4.462   3.963   5.961 -0.8327  0.1759 -0.8716
 3338SOL    HW313119   4.334   4.031   6.005  0.2157  1.6185  0.0008
 3338SOL    MW413120   4.421   4.021   6.010  0.1277  0.4629 -0.3924
 3339SOL     OW13121   0.122   1.014   4.137  0.3409  0.3397 -0.1502
 3339SOL    HW213122   0.118   1.004   4.233  0.3093  0.1061 -0.1736
 3339SOL    HW313123   0.214   1.002   4.115  0.1923 -0.7206 -0.2583
 3339SOL    MW413124   0.133   1.011   4.147  0.3171  0.1690 -0.1675
 3340SOL     OW13125   2.725   4.268   0.089 -0.5859 -0.1395  0.0665
 3340SOL    HW213126   2.659   4.314   0.141  1.2150  2.0428  0.5327
 3340SOL    HW313127   2.758   4.334   0.028 -0.8001 -1.9549 -2.1548
 3340SOL    MW413128   2.720   4.283   0.088 -0.3765 -0.0911 -0.1651
 3341SOL     OW13129   1.670   3.073   6.206 -0.5588  0.4343 -0.1071
 3341SOL    HW213130   1.581   3.105   6.191 -0.4927  0.1934 -1.0691
 3341SOL    HW313131   1.717   3.092   6.125 -0.0024 -0.3395  0.0138
 3341SOL    MW413132   1.664   3.080   6.193 -0.4767  0.3004 -0.2181
 3342SOL     OW13133   4.351   4.457   2.758  0.2626  0.6231 -0.5554
 3342SOL    HW213134   4.356   4.369   2.796  1.9407  0.4662 -1.0808
 3342SOL    HW313135   4.363   4.516   2.832  1.4954  0.3527 -0.5194
 3342SOL    MW413136   4.353   4.453   2.773  0.6466  0.5667 -0.6199
 3343SOL     OW13137   3.653   3.782   1.791 -0.2302  0.4089 -0.2189
 3343SOL    HW213138   3.717   3.812   1.726  3.5391 -1.6296  2.1845
 3343SOL    HW313139   3.634   3.859   1.844  0.7196  0.9703 -0.6522
 3343SOL    MW413140   3.659   3.796   1.789  0.3924  0.2140  0.0411
 3344SOL     OW13141   0.683   6.247   5.329 -0.4576  0.2987  0.0945
 3344SOL    HW213142   0.602   6.226   5.282  0.8690 -1.8196 -1.4709
 3344SOL    HW313143   0.669   6.215   5.418 -1.0264 -0.9243 -0.4211
 3344SOL    MW413144   0.670   6.240   5.334 -0.3576 -0.1422 -0.1801
 3345SOL     OW13145   4.551   0.599   5.418 -0.2984  0.1404 -0.1419
 3345SOL    HW213146   4.501   0.653   5.480 -1.1970  2.3536 -2.6088
 3345SOL    HW313147   4.590   0.661   5.358  0.8165 -1.8772 -1.6305
 3345SOL    MW413148   4.549   0.614   5.418 -0.2699  0.1662 -0.6638
 3346SOL     OW13149   0.594   2.907   6.375 -0.2077 -0.3074 -0.4896
 3346SOL    HW213150   0.650   2.868   6.443  1.2579 -0.3861 -1.6824
 3346SOL    HW313151   0.575   2.834   6.316  1.6932  0.4630 -2.1782
 3346SOL    MW413152   0.599   2.892   6.377  0.2365 -0.2161 -0.8698
 3347SOL     OW13153   3.100   2.801   3.895  0.1957  0.4135  0.2717
 3347SOL    HW213154   3.127   2.846   3.975 -2.4619  1.1243  0.8618
 3347SOL    HW313155   3.007   2.785   3.907  0.1337 -1.2573 -1.8722
 3347SOL    MW413156   3.091   2.805   3.907 -0.1631  0.2868  0.0667
 3348SOL     OW13157   0.196   2.153   6.383 -0.0147  0.4218 -0.1346
 3348SOL    HW213158   0.287   2.133   6.363 -0.0519  0.6770 -0.5864
 3348SOL    HW313159   0.191   2.153   6.478  0.3090 -0.2426 -0.1104
 3348SOL    MW413160   0.207   2.150   6.393  0.0231  0.3678 -0.1910
 3349SOL     OW13161   3.856   3.236   3.686  0.0262  0.3682 -0.4515
 3349SOL    HW213162   3.797   3.197   3.751  2.3971 -1.9007  0.4587
 3349SOL    HW313163   3.797   3.267   3.617 -2.2687 -1.8091  0.3671
 3349SOL    MW413164   3.840   3.235   3.685  0.0362 -0.2184 -0.2234
 3350SOL     OW13165   0.947   2.879   4.349 -0.0655 -0.6574 -0.5410
 3350SOL    HW213166   0.896   2.957   4.326  0.2301  0.6341  2.6952
 3350SOL    HW313167   0.973   2.893   4.440  0.4024 -4.3623  0.0506
 3350SOL    MW413168   0.944   2.891   4.358  0.0352 -0.9758 -0.0360
 3351SOL     OW13169   3.746   0.399   3.799  0.4004 -0.9295  0.3636
 3351SOL    HW213170   3.748   0.307   3.772  1.8929 -0.6126 -0.6861
 3351SOL    HW313171   3.732   0.395   3.894 -0.7676 -2.1871  0.1735
 3351SOL    MW413172   3.744   0.386   3.808  0.4432 -1.0536  0.2000
 3352SOL     OW13173   5.067   4.419   2.985  0.2570  0.1069 -0.2809
 3352SOL    HW213174   5.145   4.381   2.944 -0.5075  0.5261 -2.2240
 3352SOL    HW313175   5.017   4.343   3.016  1.9042 -0.1460  2.0755
 3352SOL    MW413176   5.071   4.404   2.984  0.3735  0.1288 -0.2264
 3353SOL     OW13177   2.718   4.690   4.385 -0.3631 -0.1387  0.0616
 3353SOL    HW213178   2.728   4.701   4.480  1.0663  1.5208 -0.2269
 3353SOL    HW313179   2.728   4.596   4.371 -0.4461 -0.3969  1.5401
 3353SOL    MW413180   2.721   4.679   4.396 -0.1854  0.0462  0.2186
 3354SOL     OW13181   6.353   0.556   0.105 -0.4380 -1.0636  0.6635
 3354SOL    HW213182   6.377   0.488   0.042 -1.3766 -1.0894  0.3166
 3354SOL    HW313183   6.406   0.536   0.182  0.4048 -1.2867  0.0397
 3354SOL    MW413184   6.363   0.544   0.107 -0.4506 -1.0964  0.5354
 3355SOL     OW13185   6.159   1.626   0.224  0.0133  0.0219  0.2258
 3355SOL    HW213186   6.181   1.595   0.311 -0.6666 -0.9819  0.0555
 3355SOL    HW313187   6.241   1.618   0.174  0.2517  0.0509  0.6070
 3355SOL    MW413188   6.173   1.621   0.229 -0.0450 -0.1067  0.2536
 3356SOL     OW13189   4.243   0.934   2.287  0.2873  0.4223 -0.1602
 3356SOL    HW213190   4.267   1.026   2.298 -0.0475  0.6385 -1.1802
 3356SOL    HW313191   4.164   0.924   2.341 -0.5453  1.1278 -1.1937
 3356SOL    MW413192   4.236   0.945   2.296  0.1333  0.5439 -0.4311
 3357SOL     OW13193   6.306   3.336   6.157 -0.0447 -0.0451 -0.2637
 3357SOL    HW213194   6.379   3.389   6.189 -0.6556 -0.5305  2.1101
 3357SOL    HW313195   6.348   3.260   6.117  0.7589  0.6434 -0.7834
 3357SOL    MW413196   6.321   3.333   6.156 -0.0192 -0.0183 -0.0191
 3358SOL     OW13197   2.786   2.177   3.578  0.1034 -0.4016  0.2691
 3358SOL    HW213198   2.726   2.196   3.650 -0.7549  2.5338 -1.0844
 3358SOL    HW313199   2.868   2.221   3.603  1.1325 -2.5800  1.0928
 3358SOL    MW413200   2.789   2.185   3.591  0.1259 -0.3017  0.1992
 3359SOL     OW13201   2.747   6.161   4.798 -0.2229  0.1788 -0.0706
 3359SOL    HW213202   2.725   6.067   4.798  0.7867 -0.0789 -0.6100
 3359SOL    HW313203   2.673   6.203   4.841 -0.5354 -0.9081  0.4983
 3359SOL    MW413204   2.734   6.154   4.804 -0.1309  0.0014 -0.0667
 3360SOL     OW13205   0.389   2.099   4.721  0.0270 -0.3568  0.4850
 3360SOL    HW213206   0.452   2.126   4.787  0.5244 -1.1369  0.3440
 3360SOL    HW313207   0.389   2.003   4.725  1.2591 -0.5300 -1.6993
 3360SOL    MW413208   0.397   2.090   4.730  0.2552 -0.4826  0.1782
 3361SOL     OW13209   1.573   2.495   3.868  0.6334  0.0711  0.1549
 3361SOL    HW213210   1.580   2.540   3.784 -0.3016 -0.2784 -0.1194
 3361SOL    HW313211   1.480   2.476   3.878  0.4244  1.8456  2.1977
 3361SOL    MW413212   1.562   2.498   3.858  0.4824  0.2591  0.3882
 3362SOL     OW13213   6.063   2.449   4.612  0.0794  0.1603  0.1984
 3362SOL    HW213214   6.037   2.541   4.622  2.0571  0.7599  0.3099
 3362SOL    HW313215   6.083   2.420   4.701  0.8922  0.0948 -0.0004
 3362SOL    MW413216   6.062   2.458   4.625  0.4476  0.2307  0.1869
 3363SOL     OW13217   3.971   1.000   2.372  0.0485 -0.2454  0.6326
 3363SOL    HW213218   3.891   0.964   2.335  0.6562 -1.2788  0.2811
 3363SOL    HW313219   3.954   1.094   2.379 -1.0597 -0.4038  0.2466
 3363SOL    MW413220   3.958   1.008   2.368 -0.0175 -0.4027  0.5353
 3364SOL     OW13221   0.158   4.935   3.417 -0.2943 -0.5927  0.6545
 3364SOL    HW213222   0.238   4.985   3.398 -1.2382  0.3077 -1.2427
 3364SOL    HW313223   0.190   4.849   3.446  1.3975 -0.5480 -0.8626
 3364SOL    MW413224   0.173   4.930   3.418 -0.1956 -0.4680  0.2040
 3365SOL     OW13225   0.402   0.485   6.383  0.1715 -0.3704  0.3073
 3365SOL    HW213226   0.359   0.511   6.464 -0.6890 -0.3417 -0.1491
 3365SOL    HW313227   0.493   0.514   6.394 -0.4614  1.7934  0.2904
 3365SOL    MW413228   0.408   0.492   6.395 -0.0256 -0.0811  0.2449
 3366SOL     OW13229   6.188   1.677   4.042  0.9730 -0.1254 -0.0627
 3366SOL    HW213230   6.177   1.762   4.083 -1.4922 -0.4162  0.0818
 3366SOL    HW313231   6.270   1.643   4.077  1.0520  1.3879  1.3465
 3366SOL    MW413232   6.197   1.684   4.052  0.6582  0.0359  0.1423
 3367SOL     OW13233   4.899   3.993   0.928  0.3868 -0.0770 -0.6955
 3367SOL    HW213234   4.922   4.080   0.961  2.6384 -0.1853 -1.7564
 3367SOL    HW313235   4.819   3.970   0.975 -0.2470  2.5154 -0.3167
 3367SOL    MW413236   4.892   4.002   0.938  0.6003  0.2507 -0.7855
 3368SOL     OW13237   3.711   0.810   2.979 -0.0213 -0.3549 -0.8822
 3368SOL    HW213238   3.771   0.778   2.912  0.0152  1.4200 -1.7673
 3368SOL    HW313239   3.708   0.905   2.965 -0.5825 -0.0213  1.1849
 3368SOL    MW413240   3.719   0.819   2.969 -0.0905 -0.0767 -0.7263
 3369SOL     OW13241   5.953   4.375   1.098  0.0138 -0.1186  0.1693
 3369SOL    HW213242   6.024   4.318   1.069 -0.7760 -1.0847  0.0545
 3369SOL    HW313243   5.984   4.412   1.180  0.1307 -1.6036  0.8325
 3369SOL    MW413244   5.966   4.372   1.105 -0.0750 -0.4420  0.2416
 3370SOL     OW13245   3.495   0.804   2.062  0.3634 -0.4410  0.1430
 3370SOL    HW213246   3.447   0.730   2.025 -0.0081  0.2795 -0.8561
 3370SOL    HW313247   3.460   0.881   2.017  0.1876  0.4446  1.7013
 3370SOL    MW413248   3.484   0.805   2.051  0.2912 -0.2291  0.2168
 3371SOL     OW13249   5.817   0.183   6.331 -0.0312 -0.5640 -0.5727
 3371SOL    HW213250   5.825   0.274   6.302 -2.3370 -0.5349 -1.4116
 3371SOL    HW313251   5.881   0.136   6.279 -0.1923  0.3301 -1.6379
 3371SOL    MW413252   5.826   0.189   6.320 -0.3567 -0.4422 -0.8239
 3372SOL     OW13253   5.678   2.004   1.402 -0.1535 -0.0338  0.0841
 3372SOL    HW213254   5.696   2.098   1.403 -1.3156  0.2034  0.8956
 3372SOL    HW313255   5.727   1.971   1.327  0.5238  1.1638 -0.0289
 3372SOL    MW413256   5.687   2.012   1.392 -0.2175  0.1555  0.1763
 3373SOL     OW13257   4.701   1.023   4.672 -0.2365 -0.3921 -0.1425
 3373SOL    HW213258   4.682   0.988   4.585  2.1676 -2.0878 -0.0617
 3373SOL    HW313259   4.638   0.979   4.729 -2.6380  1.5924 -1.0293
 3373SOL    MW413260   4.690   1.013   4.668 -0.2362 -0.3540 -0.2488
 3374SOL     OW13261   0.062   0.568   2.448 -0.0279 -0.0463  0.6287
 3374SOL    HW213262   0.080   0.474   2.449 -0.5420 -0.1643  2.2928
 3374SOL    HW313263   0.080   0.595   2.358 -0.5320 -1.8623 -0.0740
 3374SOL    MW413264   0.066   0.559   2.436 -0.1622 -0.3014  0.7555
 3375SOL     OW13265   1.763   3.253   2.799 -0.4398  0.1193  0.4722
 3375SOL    HW213266   1.786   3.334   2.845 -1.0317 -0.0497  1.0692
 3375SOL    HW313267   1.698   3.280   2.734 -0.0757  0.2453  0.1517
 3375SOL    MW413268   1.758   3.268   2.796 -0.4698  0.1136  0.5087
 3376SOL     OW13269   4.790   1.087   1.639  0.1675 -0.3754  0.1107
 3376SOL    HW213270   4.737   1.126   1.570 -2.1622 -2.3023  0.6813
 3376SOL    HW313271   4.852   1.030   1.592 -1.4240 -1.7101 -0.4959
 3376SOL    MW413272   4.791   1.084   1.623 -0.3498 -0.8057  0.1060
 3377SOL     OW13273   2.396   4.717   4.531  0.4402  0.1894 -0.5750
 3377SOL    HW213274   2.492   4.715   4.529  0.4428  0.8725 -2.7325
 3377SOL    HW313275   2.374   4.689   4.620  2.5645 -2.3182 -0.7261
 3377SOL    MW413276   2.406   4.713   4.543  0.7208 -0.0514 -0.8796
 3378SOL     OW13277   4.929   1.946   2.488 -0.0886  0.5146  0.5491
 3378SOL    HW213278   4.919   1.944   2.584  1.1218 -0.2946  0.6814
 3378SOL    HW313279   4.861   2.007   2.459  0.3080  1.7387  2.0204
 3378SOL    MW413280   4.919   1.954   2.497  0.1234  0.5693  0.7607
 3379SOL     OW13281   1.213   1.948   0.438  0.4685 -0.0344  0.0425
 3379SOL    HW213282   1.153   1.914   0.371  0.7054 -2.0754  0.8027
 3379SOL    HW313283   1.298   1.912   0.415  0.9176  0.7416  0.4442
 3379SOL    MW413284   1.216   1.939   0.426  0.5590 -0.2013  0.1958
 3380SOL     OW13285   4.622   1.236   5.846 -0.1682  0.2715 -0.3953
 3380SOL    HW213286   4.643   1.191   5.928  0.7289 -0.2207 -0.8748
 3380SOL    HW313287   4.703   1.230   5.795 -0.7947  0.3648 -1.4107
 3380SOL    MW413288   4.636   1.229   5.850 -0.1325  0.2189 -0.5925
 3381SOL     OW13289   0.239   2.374   4.374  0.4134 -0.0283  0.2338
 3381SOL    HW213290   0.157   2.352   4.417 -0.8510 -1.9444 -2.8104
 3381SOL    HW313291   0.304   2.374   4.445 -1.8650 -0.3902  2.4527
 3381SOL    MW413292   0.237   2.371   4.389 -0.0540 -0.3288  0.1249
 3382SOL     OW13293   0.763   4.662   5.432 -0.5133  0.3219 -0.2819
 3382SOL    HW213294   0.751   4.571   5.404 -1.8214  0.6133 -0.6887
 3382SOL    HW313295   0.789   4.709   5.353 -0.5381  0.4482 -0.2151
 3382SOL    MW413296   0.765   4.656   5.418 -0.6891  0.3770 -0.3268
 3383SOL     OW13297   2.657   5.185   6.284 -0.0538 -0.1366  0.6472
 3383SOL    HW213298   2.592   5.185   6.354  0.6743 -0.4364  1.3408
 3383SOL    HW313299   2.609   5.213   6.206 -0.4919  1.9185  1.5974
 3383SOL    MW413300   2.642   5.188   6.283 -0.0155  0.0950  0.8641
 3384SOL     OW13301   0.416   4.491   3.082 -0.7113  0.0999 -0.2022
 3384SOL    HW213302   0.480   4.530   3.023  0.3585 -1.9273 -0.4854
 3384SOL    HW313303   0.384   4.414   3.035  1.4280 -2.6218  2.3440
 3384SOL    MW413304   0.420   4.486   3.068 -0.2879 -0.5266  0.0964
 3385SOL     OW13305   5.627   6.045   3.544 -0.3655  0.0099  0.5361
 3385SOL    HW213306   5.570   6.101   3.492 -0.8268 -1.7980 -1.0151
 3385SOL    HW313307   5.678   6.105   3.598 -1.0533  1.8707 -0.8121
 3385SOL    MW413308   5.627   6.060   3.545 -0.5171  0.0169  0.1535
 3386SOL     OW13309   1.986   3.469   6.119  0.2457  0.3998  0.3218
 3386SOL    HW213310   1.916   3.461   6.055 -1.5807  0.8607  2.1631
 3386SOL    HW313311   2.014   3.378   6.136  1.1571  0.3019 -1.4618
 3386SOL    MW413312   1.980   3.456   6.113  0.1250  0.4477  0.3294
 3387SOL     OW13313   2.153   5.639   2.077  0.2173  0.0022 -0.3410
 3387SOL    HW213314   2.112   5.623   2.162 -1.4203  1.0251 -0.8861
 3387SOL    HW313315   2.122   5.726   2.051  1.8898  0.3489 -1.3177
 3387SOL    MW413316   2.143   5.648   2.085  0.2219  0.1829 -0.5418
 3388SOL     OW13317   4.219   4.164   0.124  0.2159  0.1245 -0.1157
 3388SOL    HW213318   4.134   4.136   0.155  0.3009 -0.0477 -0.0390
 3388SOL    HW313319   4.280   4.098   0.157  0.1731 -0.7032 -1.6130
 3388SOL    MW413320   4.216   4.152   0.132  0.2215 -0.0074 -0.3032
 3389SOL     OW13321   6.091   5.279   3.919 -0.3848  0.1413  0.7180
 3389SOL    HW213322   6.142   5.307   3.843 -1.0520  0.4809  0.3855
 3389SOL    HW313323   6.053   5.360   3.953 -2.5004 -0.3155 -0.3693
 3389SOL    MW413324   6.092   5.293   3.913 -0.7519  0.1259  0.5307
 3390SOL     OW13325   5.500   0.208   5.257 -0.2343  0.7685  0.3304
 3390SOL    HW213326   5.588   0.198   5.295 -0.6257 -1.0504  0.8875
 3390SOL    HW313327   5.516   0.221   5.164  0.6499  1.6595  0.5811
 3390SOL    MW413328   5.514   0.208   5.250 -0.1693  0.6461  0.4370
 3391SOL     OW13329   0.291   4.678   3.500 -0.1418  0.1752 -0.4452
 3391SOL    HW213330   0.233   4.661   3.574  0.6804  1.6076  0.5929
 3391SOL    HW313331   0.277   4.604   3.441 -2.3795  0.0774  0.1376
 3391SOL    MW413332   0.282   4.666   3.502 -0.3285  0.3513 -0.2313
 3392SOL     OW13333   5.110   1.757   3.166 -0.0141 -0.2184  0.3623
 3392SOL    HW213334   5.085   1.692   3.100 -2.6326  0.5119  0.5222
 3392SOL    HW313335   5.175   1.811   3.122  0.7259 -1.6948 -0.4639
 3392SOL    MW413336   5.115   1.755   3.152 -0.2620 -0.3169  0.2744
 3393SOL     OW13337   3.376   0.400   6.322  0.1652 -0.2241 -0.0784
 3393SOL    HW213338   3.336   0.487   6.324 -0.8128 -0.6668  0.0930
 3393SOL    HW313339   3.449   0.409   6.260  0.4532  0.8693  0.3993
 3393SOL    MW413340   3.380   0.413   6.314  0.0742 -0.1383  0.0072
 3394SOL     OW13341   4.688   4.421   4.301 -0.2694  0.1365  0.4446
 3394SOL    HW213342   4.661   4.336   4.335  1.9679 -0.3805  1.0994
 3394SOL    HW313343   4.759   4.449   4.359  0.4637  1.4577 -1.0037
 3394SOL    MW413344   4.694   4.413   4.313  0.1225  0.2426  0.3399
 3395SOL     OW13345   0.842   6.278   0.670 -0.0354 -0.2309 -0.2985
 3395SOL    HW213346   0.866   6.338   0.599 -2.6995 -0.9430 -1.9642
 3395SOL    HW313347   0.819   6.197   0.625 -2.9290 -0.3587  1.1848
 3395SOL    MW413348   0.842   6.276   0.655 -0.7686 -0.3417 -0.3226
 3396SOL     OW13349   5.575   5.791   1.643  0.2490 -0.9931  0.3529
 3396SOL    HW213350   5.659   5.800   1.598 -0.4539  3.3849 -0.4529
 3396SOL    HW313351   5.511   5.779   1.573 -0.0184 -3.4020  0.9167
 3396SOL    MW413352   5.578   5.790   1.628  0.1210 -0.7333  0.3209
 3397SOL     OW13353   6.130   0.583   4.489  1.1698  0.0599  0.5919
 3397SOL    HW213354   6.036   0.579   4.504  1.1597  0.5624  0.6826
 3397SOL    HW313355   6.166   0.511   4.541  0.6888 -1.1993 -0.7530
 3397SOL    MW413356   6.122   0.573   4.497  1.1050 -0.0400  0.4265
 3398SOL     OW13357   5.110   0.208   3.715 -0.3039 -0.1394  0.4481
 3398SOL    HW213358   5.072   0.121   3.731 -0.4722 -0.4589 -1.4074
 3398SOL    HW313359   5.149   0.201   3.628  1.8185  0.9543  1.2326
 3398SOL    MW413360   5.110   0.195   3.706 -0.0461 -0.0372  0.3068
 3399SOL     OW13361   5.254   3.596   0.537 -0.0508  0.1100  0.3200
 3399SOL    HW213362   5.162   3.568   0.530 -0.3419  1.0700  0.2001
 3399SOL    HW313363   5.257   3.646   0.619  0.0251  1.2961 -0.3809
 3399SOL    MW413364   5.242   3.599   0.547 -0.0792  0.3932  0.2117
 3400SOL     OW13365   4.261   2.771   3.944 -0.4509 -0.0974  0.5481
 3400SOL    HW213366   4.222   2.685   3.956  1.2951 -1.4513 -2.3904
 3400SOL    HW313367   4.322   2.780   4.017 -0.6433 -1.3719  0.8834
 3400SOL    MW413368   4.264   2.761   3.955 -0.2459 -0.4441  0.2047
 3401SOL     OW13369   0.977   3.171   0.496  0.1003 -0.2771 -0.7547
 3401SOL    HW213370   1.052   3.115   0.476  0.1499 -0.5342  0.0860
 3401SOL    HW313371   0.902   3.125   0.458  0.4009  0.1681 -1.9270
 3401SOL    MW413372   0.977   3.157   0.489  0.1465 -0.2523 -0.7984
 3402SOL     OW13373   4.417   2.025   4.636  0.0337 -0.3293 -0.1791
 3402SOL    HW213374   4.327   2.003   4.612  0.1861 -1.7621  0.4364
 3402SOL    HW313375   4.471   1.982   4.570  0.2955 -0.1813 -0.0626
 3402SOL    MW413376   4.412   2.017   4.624  0.0883 -0.4988 -0.0825
 3403SOL     OW13377   6.325   2.362   5.247  0.0732  0.1238  0.1094
 3403SOL    HW213378   6.367   2.277   5.240 -2.0846 -1.0325  0.3633
 3403SOL    HW313379   6.328   2.398   5.158 -1.7472 -1.6484 -0.7376
 3403SOL    MW413380   6.331   2.356   5.234 -0.4516 -0.2626  0.0312
 3404SOL     OW13381   2.423   6.330   5.243  0.4273  0.5027 -0.2396
 3404SOL    HW213382   2.421   6.321   5.148  2.7691  1.5401 -0.4674
 3404SOL    HW313383   2.429   6.240   5.275 -2.0386  0.0358 -0.9284
 3404SOL    MW413384   2.424   6.317   5.235  0.4109  0.5780 -0.3606
 3405SOL     OW13385   3.057   6.252   1.647 -0.0321 -0.0273  0.3713
 3405SOL    HW213386   3.069   6.347   1.643  0.9389 -0.1826 -1.4772
 3405SOL    HW313387   3.014   6.230   1.564  0.7006 -1.3033  0.3098
 3405SOL    MW413388   3.053   6.262   1.635  0.1927 -0.2161  0.1193
 3406SOL     OW13389   4.416   4.188   2.850  0.2772 -0.3629  0.2248
 3406SOL    HW213390   4.485   4.123   2.836  0.4126 -0.0162 -0.8072
 3406SOL    HW313391   4.345   4.140   2.891  0.3352 -1.1968 -0.6206
 3406SOL    MW413392   4.416   4.173   2.853  0.3027 -0.4272 -0.0229
 3407SOL     OW13393   4.990   4.390   0.590  0.6165  0.1430 -0.4311
 3407SOL    HW213394   4.974   4.484   0.577 -1.8480 -0.2000 -0.3074
 3407SOL    HW313395   4.931   4.347   0.528 -1.5021 -1.3248  2.3796
 3407SOL    MW413396   4.980   4.397   0.580  0.0119 -0.0959 -0.0439
 3408SOL     OW13397   6.395   5.893   1.062 -0.0882  0.2170  0.1395
 3408SOL    HW213398   6.336   5.841   1.116 -0.4622 -1.7218 -2.0009
 3408SOL    HW313399   6.471   5.908   1.118  0.1828 -2.9869  0.8070
 3408SOL    MW413400   6.397   5.888   1.076 -0.1018 -0.4615 -0.0548
 3409SOL     OW13401   0.992   4.278   2.045  0.0768  0.2167  0.5200
 3409SOL    HW213402   0.902   4.248   2.029  0.5556 -0.6218 -0.6990
 3409SOL    HW313403   0.981   4.358   2.096 -1.3351 -0.3089  1.0919
 3409SOL    MW413404   0.978   4.285   2.049 -0.0463  0.0367  0.4346
 3410SOL     OW13405   4.173   6.378   1.393 -0.1508  0.0292 -0.0850
 3410SOL    HW213406   4.216   6.375   1.307 -1.6285  0.9622 -0.9004
 3410SOL    HW313407   4.136   6.466   1.398 -0.4909 -0.1759  1.3288
 3410SOL    MW413408   4.174   6.389   1.382 -0.3907  0.1252 -0.0061
 3411SOL     OW13409   1.224   1.106   6.218 -0.1486 -0.6169  0.3718
 3411SOL    HW213410   1.198   1.110   6.310 -0.5649  0.3346  0.2230
 3411SOL    HW313411   1.143   1.121   6.169  0.6079  2.9441 -0.0941
 3411SOL    MW413412   1.210   1.108   6.224 -0.1038 -0.0215  0.2907
 3412SOL     OW13413   5.589   4.733   0.751 -0.4299  0.5259 -0.1490
 3412SOL    HW213414   5.678   4.727   0.716 -0.9716 -0.0262 -1.4871
 3412SOL    HW313415   5.597   4.795   0.824  1.0514  0.4525 -0.2027
 3412SOL    MW413416   5.602   4.740   0.756 -0.3060  0.4434 -0.3326
 3413SOL     OW13417   5.022   6.222   5.291 -0.0142  0.1183 -0.5726
 3413SOL    HW213418   5.117   6.235   5.296  0.1818 -1.3555 -0.0742
 3413SOL    HW313419   4.997   6.192   5.378 -0.7875 -0.4696 -0.9902
 3413SOL    MW413420   5.031   6.220   5.303 -0.0903 -0.1537 -0.5619
 3414SOL     OW13421   2.649   4.244   5.168 -0.0666  0.3065  0.2613
 3414SOL    HW213422   2.557   4.240   5.141 -0.3359  1.8750  0.8833
 3414SOL    HW313423   2.694   4.186   5.106 -1.5343 -0.9793  0.3136
 3414SOL    MW413424   2.642   4.236   5.157 -0.2957  0.3438  0.3503
 3415SOL     OW13425   1.830   0.159   5.273  0.5426  0.1074 -0.5209
 3415SOL    HW213426   1.765   0.189   5.210  1.1131  0.4590 -0.9528
 3415SOL    HW313427   1.825   0.064   5.269 -1.3284  0.0866  0.8992
 3415SOL    MW413428   1.821   0.150   5.264  0.3711  0.1511 -0.3905
 3416SOL     OW13429   0.427   5.879   4.337 -0.4534 -0.4910  0.3138
 3416SOL    HW213430   0.517   5.858   4.314 -0.6364 -1.0025  0.0505
 3416SOL    HW313431   0.380   5.878   4.254 -0.6829 -0.1156  0.4350
 3416SOL    MW413432   0.433   5.876   4.323 -0.5078 -0.5090  0.2951
 3417SOL     OW13433   0.969   0.773   2.777  0.3946 -0.3418 -0.6957
 3417SOL    HW213434   0.958   0.766   2.871 -0.5045 -0.0485 -0.7656
 3417SOL    HW313435   1.010   0.690   2.751 -1.4747 -1.4418 -0.3357
 3417SOL    MW413436   0.973   0.761   2.786  0.0293 -0.4482 -0.6574
 3418SOL     OW13437   0.004   5.254   1.853 -0.2724 -0.4862  0.1515
 3418SOL    HW213438   0.075   5.311   1.882 -0.0783  0.1968 -1.5481
 3418SOL    HW313439  -0.075   5.293   1.889  0.0215 -0.0511  0.3339
 3418SOL    MW413440   0.003   5.267   1.861 -0.2080 -0.3387 -0.0487
 3419SOL     OW13441   1.040   2.722   0.686  0.2265 -0.3999  0.4574
 3419SOL    HW213442   1.076   2.735   0.773  0.8290 -2.2494  0.5202
 3419SOL    HW313443   1.115   2.697   0.632 -0.3400 -0.5052 -0.3019
 3419SOL    MW413444   1.055   2.720   0.690  0.2313 -0.6578  0.3655
 3420SOL     OW13445   1.897   0.583   4.947 -0.8970  0.9731 -0.3890
 3420SOL    HW213446   1.822   0.523   4.951 -0.5574  0.5747  1.9838
 3420SOL    HW313447   1.868   0.660   4.998 -0.6199  1.9916 -1.7232
 3420SOL    MW413448   1.883   0.585   4.954 -0.8157  1.0549 -0.2520
 3421SOL     OW13449   1.237   4.534   0.363  0.3421  0.3370  0.1166
 3421SOL    HW213450   1.200   4.515   0.277  1.7118 -1.8259 -0.0643
 3421SOL    HW313451   1.267   4.449   0.396 -0.9734  0.9252  3.1802
 3421SOL    MW413452   1.236   4.520   0.356  0.3493  0.1293  0.4969
 3422SOL     OW13453   1.278   0.006   6.224 -0.7278 -0.0533 -0.3853
 3422SOL    HW213454   1.315   0.001   6.136  0.5881  0.3709  0.1208
 3422SOL    HW313455   1.350  -0.020   6.282 -1.0616  1.2480  0.6678
 3422SOL    MW413456   1.292   0.002   6.220 -0.5982  0.1743 -0.1796
 3423SOL     OW13457   6.314   4.183   5.827 -0.4142  0.8365 -0.3842
 3423SOL    HW213458   6.235   4.231   5.851 -0.2151  0.8832  0.2052
 3423SOL    HW313459   6.384   4.224   5.878 -0.3341 -0.4294  0.5736
 3423SOL    MW413460   6.313   4.195   5.837 -0.3774  0.6756 -0.1801
 3424SOL     OW13461   0.212   1.403   3.879  0.0727 -0.0976 -0.2952
 3424SOL    HW213462   0.263   1.349   3.818  1.5425 -0.3317  1.0824
 3424SOL    HW313463   0.243   1.376   3.965 -0.8618  1.3217  0.5074
 3424SOL    MW413464   0.223   1.392   3.882  0.1433  0.0588 -0.0076
 3425SOL     OW13465   5.309   4.660   3.521  0.1271 -0.9880  0.0057
 3425SOL    HW213466   5.333   4.642   3.430  1.3587 -1.5051  0.4057
 3425SOL    HW313467   5.352   4.743   3.541  0.9269 -1.5026  0.4809
 3425SOL    MW413468   5.318   4.668   3.512  0.3951 -1.1241  0.1212
 3426SOL     OW13469   0.458   1.185   5.250  0.0148  0.2014  0.2571
 3426SOL    HW213470   0.406   1.113   5.214 -1.0372  0.6390  0.8535
 3426SOL    HW313471   0.513   1.144   5.317  1.8388 -0.5802 -1.6352
 3426SOL    MW413472   0.458   1.170   5.254  0.1167  0.1560  0.0861
 3427SOL     OW13473   5.435   2.441   5.394 -0.4041 -0.2363 -0.3935
 3427SOL    HW213474   5.502   2.403   5.451 -0.5875  0.3498  0.2095
 3427SOL    HW313475   5.372   2.482   5.453 -0.4305  0.6506 -1.0204
 3427SOL    MW413476   5.436   2.441   5.409 -0.4318 -0.0419 -0.3966
 3428SOL     OW13477   1.416   5.571   3.625 -0.5037  0.3505  0.1660
 3428SOL    HW213478   1.339   5.566   3.567 -0.0448  0.1773 -0.4422
 3428SOL    HW313479   1.424   5.663   3.648 -1.0517  0.3300  0.4517
 3428SOL    MW413480   1.407   5.582   3.620 -0.5155  0.3249  0.1234
 3429SOL     OW13481   0.036   1.990   1.663  0.5619 -0.0210 -0.1709
 3429SOL    HW213482  -0.018   1.914   1.643 -0.5530  0.3186  1.3661
 3429SOL    HW313483   0.117   1.954   1.698  1.6783 -0.5584 -3.0494
 3429SOL    MW413484   0.040   1.975   1.665  0.5621 -0.0471 -0.3479
 3430SOL     OW13485   4.181   2.416   5.573 -0.7678  0.0377 -0.2071
 3430SOL    HW213486   4.093   2.429   5.609 -1.2560  0.7390 -1.6091
 3430SOL    HW313487   4.215   2.504   5.558 -0.6124 -0.2160 -1.4987
 3430SOL    MW413488   4.174   2.429   5.576 -0.8117  0.0967 -0.5625
 3431SOL     OW13489   4.177   3.761   1.775  0.0889  0.2786  0.0342
 3431SOL    HW213490   4.212   3.802   1.697 -0.9516  0.6762 -0.2432
 3431SOL    HW313491   4.216   3.674   1.776 -0.1185  0.1563 -1.1002
 3431SOL    MW413492   4.187   3.755   1.765 -0.0758  0.3149 -0.1520
 3432SOL     OW13493   4.344   1.177   2.190 -0.2636 -1.0062 -0.5360
 3432SOL    HW213494   4.330   1.234   2.266  0.1461  1.7971 -2.4037
 3432SOL    HW313495   4.424   1.128   2.212 -1.4240 -2.0707  1.7297
 3432SOL    MW413496   4.353   1.178   2.203 -0.3626 -0.7768 -0.4835
 3433SOL     OW13497   3.182   3.841   5.850 -0.0693 -0.5489  0.2735
 3433SOL    HW213498   3.107   3.832   5.792  0.1330  1.3499 -0.3801
 3433SOL    HW313499   3.209   3.751   5.870 -1.2998 -1.2528 -1.0597
 3433SOL    MW413500   3.176   3.828   5.845 -0.2049 -0.3912  0.0113
 3434SOL     OW13501   2.044   3.515   4.022 -0.3787 -0.2274  0.0788
 3434SOL    HW213502   2.102   3.576   4.068  0.2383 -0.9822  0.3136
 3434SOL    HW313503   1.962   3.520   4.070  0.0987 -0.6099  0.9522
 3434SOL    MW413504   2.041   3.524   4.034 -0.2343 -0.3775  0.2250
 3435SOL     OW13505   3.080   5.049   1.391 -0.1449 -0.5779 -0.4488
 3435SOL    HW213506   3.048   4.984   1.454  0.3788  1.6774  2.3347
 3435SOL    HW313507   3.000   5.088   1.356 -0.7726  2.1443  3.3668
 3435SOL    MW413508   3.065   5.045   1.395 -0.1586  0.0788  0.4219
 3436SOL     OW13509   0.819   2.346   3.591  0.3949 -0.5688 -0.2229
 3436SOL    HW213510   0.804   2.325   3.683 -0.4379  0.0846 -0.1961
 3436SOL    HW313511   0.777   2.431   3.579  3.4620  1.0682 -0.3617
 3436SOL    MW413512   0.811   2.355   3.602  0.6897 -0.2666 -0.2377
 3437SOL     OW13513   6.076   3.191   2.535  0.2211 -0.2439  0.4913
 3437SOL    HW213514   6.049   3.111   2.490  2.0359  0.2645 -1.6874
 3437SOL    HW313515   6.117   3.161   2.616  1.5493 -1.6096 -0.6446
 3437SOL    MW413516   6.078   3.177   2.540  0.6358 -0.3570  0.0540
 3438SOL     OW13517   0.419   0.090   2.260 -0.5883  0.0627  0.2044
 3438SOL    HW213518   0.446  -0.002   2.262 -0.1642  0.1709 -0.2659
 3438SOL    HW313519   0.500   0.139   2.270 -0.9065  0.3949  1.3292
 3438SOL    MW413520   0.433   0.084   2.261 -0.5743  0.1208  0.2907
 3439SOL     OW13521   3.217   3.579   5.913 -0.0869  0.1691  0.0328
 3439SOL    HW213522   3.159   3.561   5.839  1.3227  0.8667 -1.2864
 3439SOL    HW313523   3.305   3.562   5.881  0.5889  0.6838  1.4909
 3439SOL    MW413524   3.221   3.574   5.899  0.1883  0.3291  0.0511
 3440SOL     OW13525   0.187   2.371   0.444 -0.2208  0.1777  0.2813
 3440SOL    HW213526   0.130   2.417   0.383 -1.3488 -1.4219  0.0423
 3440SOL    HW313527   0.236   2.439   0.489  0.1821  1.4374 -1.9503
 3440SOL    MW413528   0.186   2.386   0.442 -0.3165  0.1328 -0.0447
 3441SOL     OW13529   3.509   6.383   4.939 -0.3961  0.4635 -0.8407
 3441SOL    HW213530   3.458   6.440   4.995 -2.0046 -0.5781 -1.1860
 3441SOL    HW313531   3.527   6.306   4.993  1.2310  0.9978 -0.5766
 3441SOL    MW413532   3.505   6.380   4.953 -0.3937  0.3966 -0.8514
 3442SOL     OW13533   2.528   6.179   6.105 -0.0751  0.2571 -0.3759
 3442SOL    HW213534   2.571   6.119   6.165  0.2811  0.5682 -0.3152
 3442SOL    HW313535   2.468   6.229   6.160 -0.0038  0.3011 -0.3373
 3442SOL    MW413536   2.526   6.178   6.120 -0.0187  0.3040 -0.3628
 3443SOL     OW13537   4.579   3.800   3.708  0.3084  0.4847 -0.4844
 3443SOL    HW213538   4.518   3.778   3.638  0.4052 -1.4446 -0.0056
 3443SOL    HW313539   4.546   3.753   3.784  2.0012 -0.0483 -0.0464
 3443SOL    MW413540   4.566   3.791   3.709  0.5445  0.1598 -0.3634
 3444SOL     OW13541   1.384   5.902   1.194 -0.2542 -0.0126  0.5672
 3444SOL    HW213542   1.401   5.946   1.278  0.3400  0.5464  0.1644
 3444SOL    HW313543   1.327   5.963   1.147 -0.3445 -0.1918  0.4426
 3444SOL    MW413544   1.378   5.916   1.199 -0.1877  0.0375  0.4976
 3445SOL     OW13545   3.788   5.192   1.142 -0.5709 -0.4900  0.0107
 3445SOL    HW213546   3.763   5.111   1.187 -0.3657 -1.5112 -1.6421
 3445SOL    HW313547   3.747   5.185   1.056  0.6378  0.4861 -0.6744
 3445SOL    MW413548   3.779   5.180   1.137 -0.3843 -0.4960 -0.2978
 3446SOL     OW13549   1.534   1.166   4.513  0.4857  0.9786 -0.3259
 3446SOL    HW213550   1.475   1.092   4.531  0.2745  1.0761 -0.6109
 3446SOL    HW313551   1.478   1.243   4.518  0.3479  0.9894 -1.6646
 3446SOL    MW413552   1.519   1.166   4.516  0.4396  0.9929 -0.5402
 3447SOL     OW13553   5.869   1.572   5.063  0.0127  0.1754 -0.2049
 3447SOL    HW213554   5.831   1.581   4.975 -0.3159 -0.4117 -0.1251
 3447SOL    HW313555   5.803   1.610   5.121 -0.1107 -0.1287 -0.1429
 3447SOL    MW413556   5.855   1.578   5.059 -0.0470  0.0578 -0.1862
 3448SOL     OW13557   1.379   5.839   5.062  0.0190 -0.2457 -0.6578
 3448SOL    HW213558   1.466   5.827   5.101 -0.1777  0.4707  0.0057
 3448SOL    HW313559   1.352   5.750   5.038  1.5201 -0.3620 -2.1831
 3448SOL    MW413560   1.387   5.826   5.064  0.1911 -0.1665 -0.7715
 3449SOL     OW13561   6.376   6.397   2.048 -0.1104 -0.7219 -0.0646
 3449SOL    HW213562   6.402   6.419   2.137 -0.5732 -1.5714  0.2896
 3449SOL    HW313563   6.457   6.405   1.997 -0.4047  2.9513 -0.2617
 3449SOL    MW413564   6.390   6.401   2.053 -0.2103 -0.3494 -0.0438
 3450SOL     OW13565   0.926   0.159   2.079 -0.4633  0.1607  0.2681
 3450SOL    HW213566   0.953   0.209   2.002  0.3440 -2.1858 -1.0904
 3450SOL    HW313567   0.888   0.078   2.043  1.6845 -1.8866  2.2514
 3450SOL    MW413568   0.925   0.155   2.064 -0.0734 -0.4190  0.3505
 3451SOL     OW13569   5.057   4.996   0.567  0.5149 -0.0997  0.2241
 3451SOL    HW213570   4.975   4.950   0.587  1.2446 -2.7766 -2.3039
 3451SOL    HW313571   5.031   5.066   0.507 -0.1048  0.1367  0.7544
 3451SOL    MW413572   5.042   4.999   0.562  0.5294 -0.4217 -0.0395
 3452SOL     OW13573   1.443   4.689   2.287 -0.1200 -0.1405 -0.4804
 3452SOL    HW213574   1.416   4.761   2.344  0.2964 -0.3591  0.0023
 3452SOL    HW313575   1.470   4.619   2.348  0.2082 -0.4226 -0.9440
 3452SOL    MW413576   1.443   4.689   2.303 -0.0218 -0.2066 -0.4779
 3453SOL     OW13577   0.405   5.639   3.063 -0.6630 -0.2040  0.0588
 3453SOL    HW213578   0.458   5.719   3.052  1.4946 -1.6970 -1.0358
 3453SOL    HW313579   0.411   5.620   3.157 -0.2429  0.2930  0.1397
 3453SOL    MW413580   0.413   5.647   3.074 -0.3229 -0.3354 -0.0749
 3454SOL     OW13581   4.753   4.492   1.322 -0.0333 -0.1218 -0.4093
 3454SOL    HW213582   4.704   4.473   1.242 -0.4207  0.3961 -0.3024
 3454SOL    HW313583   4.687   4.528   1.382  0.0536 -1.3701  0.4843
 3454SOL    MW413584   4.737   4.494   1.319 -0.0729 -0.2181 -0.2773
 3455SOL     OW13585   2.201   4.272   2.375 -0.2479 -0.1372  0.3741
 3455SOL    HW213586   2.162   4.327   2.443 -0.8977  2.4971 -1.9433
 3455SOL    HW313587   2.136   4.204   2.360 -1.8698  1.4276 -0.1259
 3455SOL    MW413588   2.188   4.271   2.382 -0.5476  0.4168  0.0024
 3456SOL     OW13589   2.887   3.330   2.206 -0.0214 -0.2002  0.1411
 3456SOL    HW213590   2.943   3.407   2.193 -0.2095  0.0205  0.6022
 3456SOL    HW313591   2.881   3.290   2.120  0.1675  0.2464 -0.0837
 3456SOL    MW413592   2.893   3.335   2.193 -0.0213 -0.1122  0.1723
 3457SOL     OW13593   5.637   0.047   2.885  0.4814 -0.1580  0.0625
 3457SOL    HW213594   5.732   0.056   2.893  0.7107 -2.0105 -0.2686
 3457SOL    HW313595   5.616   0.089   2.801  0.7499  1.6206  0.8245
 3457SOL    MW413596   5.646   0.054   2.875  0.5471 -0.1678  0.1193
 3458SOL     OW13597   2.151   1.695   4.413  0.6369 -0.5126 -0.0269
 3458SOL    HW213598   2.090   1.677   4.485 -1.0724  1.3264 -0.9281
 3458SOL    HW313599   2.136   1.624   4.351  0.0725 -0.5826  0.1805
 3458SOL    MW413600   2.141   1.683   4.414  0.3369 -0.2792 -0.1184
 3459SOL     OW13601   1.408   4.189   2.877 -0.3342  0.4270  0.4010
 3459SOL    HW213602   1.497   4.153   2.873 -0.9932 -1.2341 -0.1115
 3459SOL    HW313603   1.377   4.187   2.786 -0.7139  1.5128  0.4929
 3459SOL    MW413604   1.416   4.184   2.865 -0.4712  0.3511  0.3455
 3460SOL     OW13605   1.308   4.028   1.666 -0.2406  0.4893  0.0155
 3460SOL    HW213606   1.329   3.944   1.706  1.6408  0.3764 -1.0913
 3460SOL    HW313607   1.350   4.093   1.723 -1.7430  0.7420  0.9046
 3460SOL    MW413608   1.316   4.025   1.679 -0.1906  0.5077 -0.0132
 3461SOL     OW13609   3.255   0.924   3.198  0.6376  0.6101 -0.6842
 3461SOL    HW213610   3.289   1.010   3.172  0.7469  0.8464  0.2179
 3461SOL    HW313611   3.163   0.926   3.173  0.6984  0.8937 -0.8881
 3461SOL    MW413612   3.247   0.935   3.191  0.6600  0.6787 -0.5921
 3462SOL     OW13613   4.529   1.918   5.399 -0.6199  0.1628 -0.3172
 3462SOL    HW213614   4.603   1.923   5.339 -0.8211  1.9306 -0.4559
 3462SOL    HW313615   4.569   1.908   5.486 -0.2949 -0.8195 -0.5662
 3462SOL    MW413616   4.544   1.917   5.403 -0.6036  0.2665 -0.3683
 3463SOL     OW13617   0.806   0.683   1.250 -0.1591  0.1422  0.1694
 3463SOL    HW213618   0.730   0.721   1.207  1.0033  0.1360 -1.9954
 3463SOL    HW313619   0.833   0.612   1.192  1.6286  0.2805  0.7825
 3463SOL    MW413620   0.800   0.678   1.237  0.2302  0.1596 -0.0353
 3464SOL     OW13621   1.700   4.641   0.702  0.5779  0.4428 -0.3320
 3464SOL    HW213622   1.634   4.684   0.647  0.5575 -0.9579 -1.4432
 3464SOL    HW313623   1.770   4.706   0.710  0.2149  0.9742 -1.3118
 3464SOL    MW413624   1.700   4.655   0.696  0.5273  0.3281 -0.6079
 3465SOL     OW13625   5.939   1.273   3.917 -0.2150 -0.0566 -0.2380
 3465SOL    HW213626   5.856   1.319   3.907 -0.4838 -0.4975 -0.0713
 3465SOL    HW313627   5.927   1.192   3.867  0.1546 -0.0729 -0.3035
 3465SOL    MW413628   5.926   1.268   3.909 -0.2017 -0.1170 -0.2247
 3466SOL     OW13629   5.370   1.597   3.615  0.9957 -0.0953 -0.6937
 3466SOL    HW213630   5.453   1.562   3.646  0.7661  0.7874  1.0394
 3466SOL    HW313631   5.393   1.652   3.540  2.0412  0.4215 -0.0102
 3466SOL    MW413632   5.384   1.600   3.609  1.1033  0.0894 -0.3748
 3467SOL     OW13633   1.962   4.242   0.392  0.4617  0.0154  0.1419
 3467SOL    HW213634   1.894   4.306   0.413  0.2372 -0.0792 -0.2770
 3467SOL    HW313635   2.004   4.222   0.475  1.6885  2.0075  0.0592
 3467SOL    MW413636   1.959   4.248   0.405  0.5939  0.2657  0.0757
 3468SOL     OW13637   3.885   4.356   0.080 -0.2753  0.0718  0.0639
 3468SOL    HW213638   3.889   4.339  -0.014  1.7104  1.4270 -0.1618
 3468SOL    HW313639   3.951   4.424   0.095 -1.7830  1.1976  2.1678
 3468SOL    MW413640   3.895   4.362   0.070 -0.2122  0.3991  0.3117
 3469SOL     OW13641   1.017   1.252   1.051  0.6758  0.3198  0.0763
 3469SOL    HW213642   1.079   1.269   1.123  2.2097  0.5190 -1.2233
 3469SOL    HW313643   1.042   1.166   1.019 -0.2704  0.0568  0.0352
 3469SOL    MW413644   1.029   1.243   1.056  0.7533  0.3114 -0.1006
 3470SOL     OW13645   3.820   2.787   4.071 -0.6006  0.9892 -0.2831
 3470SOL    HW213646   3.731   2.764   4.044 -0.3371  1.6428 -1.8138
 3470SOL    HW313647   3.815   2.795   4.166 -1.6470 -1.1775 -0.1004
 3470SOL    MW413648   3.808   2.785   4.080 -0.7039  0.7896 -0.4610
 3471SOL     OW13649   3.444   4.371   3.200 -0.2181  0.3223  0.4612
 3471SOL    HW213650   3.502   4.436   3.161  0.6465  0.5042  1.9665
 3471SOL    HW313651   3.374   4.359   3.136  0.1477  1.9799 -0.2937
 3471SOL    MW413652   3.442   4.378   3.186 -0.0557  0.5650  0.5602
 3472SOL     OW13653   2.317   4.913   4.377 -0.6900  0.2949  0.1385
 3472SOL    HW213654   2.344   4.842   4.435 -1.0531 -0.4185 -0.5410
 3472SOL    HW313655   2.232   4.885   4.343 -1.1400  1.3559  0.3474
 3472SOL    MW413656   2.309   4.900   4.380 -0.7973  0.3408  0.0764
 3473SOL     OW13657   3.650   1.064   2.646 -0.2414 -0.0851 -0.8679
 3473SOL    HW213658   3.738   1.026   2.649 -0.3920 -0.5095 -1.5730
 3473SOL    HW313659   3.643   1.113   2.728  1.2308  1.2408 -1.4658
 3473SOL    MW413660   3.661   1.066   2.657 -0.0671  0.0339 -1.0398
 3474SOL     OW13661   6.268   4.376   1.544  0.3144  0.4536  0.7464
 3474SOL    HW213662   6.232   4.453   1.588  0.5314  0.7122  0.4732
 3474SOL    HW313663   6.350   4.407   1.504  0.4913  0.0399  0.7836
 3474SOL    MW413664   6.274   4.390   1.544  0.3664  0.4331  0.7153
 3475SOL     OW13665   2.084   1.970   5.542  0.9845 -0.5732 -0.0874
 3475SOL    HW213666   2.150   1.956   5.473  0.4827  0.1380 -0.7309
 3475SOL    HW313667   2.132   2.013   5.612  1.3564 -0.6739 -0.2728
 3475SOL    MW413668   2.099   1.974   5.542  0.9673 -0.4926 -0.1967
 3476SOL     OW13669   5.872   5.577   0.375  0.5887 -0.4541 -0.0012
 3476SOL    HW213670   5.916   5.523   0.309 -1.0331 -0.7771 -0.8492
 3476SOL    HW313671   5.857   5.517   0.448 -1.0904 -1.1678 -0.8907
 3476SOL    MW413672   5.876   5.562   0.376  0.1532 -0.5909 -0.2304
 3477SOL     OW13673   4.972   0.654   1.521  0.6416 -0.3175 -0.3355
 3477SOL    HW213674   4.987   0.562   1.546  1.8866  0.3124  1.3649
 3477SOL    HW313675   4.969   0.701   1.604 -2.8128  0.8572 -0.9824
 3477SOL    MW413676   4.974   0.648   1.535  0.3501 -0.0794 -0.1965
 3478SOL     OW13677   1.078   0.529   2.691  0.3431  0.2697  0.5144
 3478SOL    HW213678   1.090   0.554   2.599  2.1763 -1.5430  0.1834
 3478SOL    HW313679   0.998   0.476   2.691  0.1607  0.5316  0.0428
 3478SOL    MW413680   1.069   0.525   2.679  0.5609  0.0651  0.4085
 3479SOL     OW13681   0.563   3.512   1.996  0.7640  0.0435 -0.3089
 3479SOL    HW213682   0.576   3.449   1.926  0.0773 -0.3125 -0.1202
 3479SOL    HW313683   0.632   3.577   1.983  1.6227 -0.8580 -0.3651
 3479SOL    MW413684   0.574   3.513   1.985  0.7867 -0.1224 -0.2914
 3480SOL     OW13685   4.243   0.424   6.040 -0.4804  0.2444  0.0931
 3480SOL    HW213686   4.337   0.423   6.061 -0.7867 -2.5450  1.8551
 3480SOL    HW313687   4.212   0.508   6.072  0.8258 -0.1929  2.7744
 3480SOL    MW413688   4.252   0.435   6.047 -0.3485 -0.1813  0.6794
 3481SOL     OW13689   5.053   2.160   1.179 -0.3348 -0.1402 -0.0065
 3481SOL    HW213690   5.128   2.101   1.184  0.3403  0.6422 -0.5831
 3481SOL    HW313691   5.079   2.226   1.115 -1.1292  0.7015  0.5115
 3481SOL    MW413692   5.067   2.161   1.171 -0.3506  0.0741 -0.0142
 3482SOL     OW13693   2.126   3.282   4.157  0.0443 -0.2880  0.1806
 3482SOL    HW213694   2.103   3.367   4.120  2.5404  1.0237  1.3913
 3482SOL    HW313695   2.055   3.262   4.218 -0.2440  1.3195  0.4173
 3482SOL    MW413696   2.114   3.290   4.160  0.3356  0.0972  0.3716
 3483SOL     OW13697   1.691   2.652   5.741  0.6554 -0.7607  0.4218
 3483SOL    HW213698   1.754   2.671   5.672 -2.1326  2.4754 -1.5489
 3483SOL    HW313699   1.620   2.604   5.697 -0.7507  0.5371  1.1866
 3483SOL    MW413700   1.690   2.648   5.726  0.1020 -0.1625  0.2627
 3484SOL     OW13701   2.758   0.442   2.020 -0.3185 -0.2692 -0.2376
 3484SOL    HW213702   2.796   0.530   2.014 -1.7279  0.5528  1.7826
 3484SOL    HW313703   2.825   0.385   1.984  1.4434  1.4391  0.1346
 3484SOL    MW413704   2.772   0.446   2.014 -0.2720  0.0647  0.0781
 3485SOL     OW13705   3.879   5.648   5.404 -0.2308 -0.0194 -0.3229
 3485SOL    HW213706   3.883   5.679   5.495  0.0003 -1.9322  0.3567
 3485SOL    HW313707   3.970   5.647   5.375 -0.3099  0.6489 -0.6216
 3485SOL    MW413708   3.891   5.652   5.412 -0.2108 -0.1836 -0.2726
 3486SOL     OW13709   4.046   0.113   4.458  0.5024 -0.0780 -0.0463
 3486SOL    HW213710   3.991   0.184   4.423  0.4252 -0.2318 -0.2431
 3486SOL    HW313711   4.080   0.069   4.380  0.6072 -0.2119  0.0749
 3486SOL    MW413712   4.043   0.116   4.443  0.5060 -0.1159 -0.0562
 3487SOL     OW13713   3.365   0.735   3.922 -0.3984 -0.5335  0.5616
 3487SOL    HW213714   3.394   0.750   4.012 -0.5444 -0.3497  0.5794
 3487SOL    HW313715   3.354   0.640   3.915  1.5727 -0.7739  0.1319
 3487SOL    MW413716   3.368   0.725   3.933 -0.1576 -0.5409  0.5073
 3488SOL     OW13717   3.097   5.281   4.367  0.0835  0.4991 -0.1244
 3488SOL    HW213718   3.030   5.299   4.301 -0.7793  0.4219  0.7088
 3488SOL    HW313719   3.048   5.267   4.448  0.9928 -1.3572  0.1509
 3488SOL    MW413720   3.082   5.282   4.369  0.0896  0.2440  0.0218
 3489SOL     OW13721   4.539   3.934   4.538 -0.0078  0.2279 -0.1985
 3489SOL    HW213722   4.604   3.864   4.544  2.0267  2.0156 -0.2175
 3489SOL    HW313723   4.522   3.959   4.629  0.3763  0.6633 -0.2434
 3489SOL    MW413724   4.545   3.928   4.551  0.3113  0.5212 -0.2069
 3490SOL     OW13725   6.121   5.194   0.435 -0.1242  0.1851 -0.0133
 3490SOL    HW213726   6.066   5.116   0.429 -1.0181  0.7189  0.9454
 3490SOL    HW313727   6.078   5.249   0.500  1.5353  0.6179  0.7849
 3490SOL    MW413728   6.108   5.191   0.443 -0.0232  0.3126  0.2185
 3491SOL     OW13729   2.645   4.130   0.551 -0.0801  0.1225 -0.0714
 3491SOL    HW213730   2.717   4.116   0.613 -0.8178 -0.8544  0.5902
 3491SOL    HW313731   2.599   4.208   0.584  0.3057  0.3897 -0.1552
 3491SOL    MW413732   2.649   4.139   0.563 -0.1266  0.0288  0.0048
 3492SOL     OW13733   0.649   1.284   0.163  0.1566  0.1881 -0.6137
 3492SOL    HW213734   0.731   1.251   0.125  0.9842  0.5009  0.8456
 3492SOL    HW313735   0.660   1.275   0.257 -0.7896  1.8381 -0.2986
 3492SOL    MW413736   0.661   1.279   0.170  0.1409  0.4470 -0.3796
 3493SOL     OW13737   5.061   0.468   2.478  0.3957 -0.2018  0.0475
 3493SOL    HW213738   5.030   0.504   2.561  0.6432  0.1010  0.0139
 3493SOL    HW313739   4.983   0.460   2.424  0.5143  1.6996 -0.4676
 3493SOL    MW413740   5.047   0.472   2.482  0.4440  0.0890 -0.0249
 3494SOL     OW13741   1.231   3.578   5.601 -0.0644  0.2428  0.5665
 3494SOL    HW213742   1.235   3.527   5.682  0.0954 -1.0217 -0.2139
 3494SOL    HW313743   1.142   3.563   5.568  0.8348 -1.8641 -1.1017
 3494SOL    MW413744   1.220   3.570   5.607  0.0753 -0.2020  0.2435
 3495SOL     OW13745   1.123   1.502   4.375 -0.2721  0.0189  0.2912
 3495SOL    HW213746   1.145   1.533   4.463 -1.7614  0.8774  0.4003
 3495SOL    HW313747   1.167   1.418   4.367  1.0046  0.5571  1.3402
 3495SOL    MW413748   1.132   1.495   4.385 -0.3002  0.2032  0.4440
 3496SOL     OW13749   0.693   3.650   2.780 -0.3107  0.5297 -0.1354
 3496SOL    HW213750   0.647   3.691   2.707  1.6573 -0.8198 -2.2763
 3496SOL    HW313751   0.699   3.557   2.756  0.4153  0.0420  1.7471
 3496SOL    MW413752   0.688   3.643   2.767  0.0447  0.2873 -0.1695
 3497SOL     OW13753   3.669   3.787   4.180  0.7732 -0.5201 -0.1170
 3497SOL    HW213754   3.662   3.708   4.233 -2.1080  1.5059  2.9366
 3497SOL    HW313755   3.727   3.845   4.230 -0.1050  0.6134 -0.3708
 3497SOL    MW413756   3.676   3.784   4.194  0.2772 -0.1032  0.2524
 3498SOL     OW13757   5.590   0.789   1.263 -0.2787  0.1469  0.0025
 3498SOL    HW213758   5.533   0.712   1.269 -1.2254  0.9018  1.2468
 3498SOL    HW313759   5.639   0.789   1.346  0.0002  0.6669 -0.1582
 3498SOL    MW413760   5.589   0.779   1.275 -0.3668  0.3151  0.1454
 3499SOL     OW13761   5.286   1.331   2.041 -0.5204  0.0863 -0.7331
 3499SOL    HW213762   5.233   1.272   1.990 -1.5291  0.4306 -0.1115
 3499SOL    HW313763   5.223   1.386   2.088  0.3811  1.0060 -0.5628
 3499SOL    MW413764   5.271   1.331   2.041 -0.5345  0.2531 -0.6286
 3500SOL     OW13765   1.817   4.475   0.082  0.4892 -0.2655  0.2207
 3500SOL    HW213766   1.893   4.489   0.139  0.3379 -0.0962  0.3817
 3500SOL    HW313767   1.808   4.558   0.035 -0.4735  0.2313  1.2473
 3500SOL    MW413768   1.826   4.488   0.083  0.3422 -0.1776  0.3774
 3501SOL     OW13769   0.604   1.920   1.938  0.2203  0.1917 -0.3051
 3501SOL    HW213770   0.643   1.859   1.875  1.1027 -0.4335  0.7930
 3501SOL    HW313771   0.657   1.999   1.930 -0.0474  0.3277 -0.7584
 3501SOL    MW413772   0.617   1.923   1.928  0.3014  0.1272 -0.2200
 3502SOL     OW13773   1.662   0.121   1.866 -0.1965  0.3210 -0.1443
 3502SOL    HW213774   1.677   0.084   1.953 -0.8730  0.1866 -0.0801
 3502SOL    HW313775   1.716   0.200   1.863 -1.3715  1.2006  0.9889
 3502SOL    MW413776   1.671   0.127   1.877 -0.4407  0.4193  0.0137
 3503SOL     OW13777   3.481   0.753   4.514  0.2870 -0.9273  0.1504
 3503SOL    HW213778   3.388   0.763   4.536  0.3672  0.3135 -0.0156
 3503SOL    HW313779   3.521   0.717   4.594  0.3017  2.0303  1.6096
 3503SOL    MW413780   3.474   0.749   4.528  0.2995 -0.3733  0.3210
 3504SOL     OW13781   6.170   2.653   1.652  0.2289  0.0878  0.2093
 3504SOL    HW213782   6.245   2.593   1.656 -1.0982 -1.7982 -1.0813
 3504SOL    HW313783   6.178   2.696   1.567 -0.7666 -1.1179 -0.5490
 3504SOL    MW413784   6.181   2.651   1.641 -0.0776 -0.3201 -0.0610
 3505SOL     OW13785   2.291   0.138   1.333  0.0446 -0.4001  0.6770
 3505SOL    HW213786   2.250   0.146   1.247  0.1199  0.0452  0.6801
 3505SOL    HW313787   2.236   0.075   1.380 -0.0609 -0.5619  0.3445
 3505SOL    MW413788   2.279   0.131   1.327  0.0406 -0.3627  0.6335
 3506SOL     OW13789   3.311   6.072   2.748 -0.1686 -0.5213  0.0644
 3506SOL    HW213790   3.282   6.162   2.758 -1.6641 -1.1459  2.1872
 3506SOL    HW313791   3.234   6.025   2.714 -0.1824 -1.3614  1.1777
 3506SOL    MW413792   3.297   6.078   2.745 -0.3678 -0.7146  0.4913
 3507SOL     OW13793   4.991   0.267   1.969 -0.0198  0.0955 -0.2395
 3507SOL    HW213794   5.009   0.361   1.963 -0.3636  0.1291 -0.8637
 3507SOL    HW313795   5.049   0.227   1.904 -0.9078  0.0346 -1.0337
 3507SOL    MW413796   5.001   0.274   1.959 -0.1823  0.0919 -0.4266
 3508SOL     OW13797   6.413   2.225   1.519  0.0842 -0.0034 -0.1044
 3508SOL    HW213798   6.440   2.145   1.564  0.3679 -0.6923 -1.4209
 3508SOL    HW313799   6.474   2.233   1.446  0.2423  1.6041  0.1751
 3508SOL    MW413800   6.424   2.215   1.515  0.1425  0.1178 -0.2413
 3509SOL     OW13801   0.350   1.691   1.637  0.4709  0.1283 -0.2871
 3509SOL    HW213802   0.323   1.600   1.646 -1.3983  0.5608 -1.1805
 3509SOL    HW313803   0.292   1.728   1.571 -1.7494  3.0666  2.9282
 3509SOL    MW413804   0.339   1.684   1.629 -0.0686  0.5730  0.0193
 3510SOL     OW13805   0.922   4.674   4.925  0.6071  0.4844 -0.1868
 3510SOL    HW213806   0.993   4.616   4.955  0.8438  1.1582  0.5947
 3510SOL    HW313807   0.951   4.762   4.948 -0.1587  0.8394 -0.5306
 3510SOL    MW413808   0.935   4.678   4.932  0.5373  0.6201 -0.1290
 3511SOL     OW13809   0.077   2.884   1.637  0.0012 -0.3778  0.1488
 3511SOL    HW213810   0.067   2.958   1.577  1.7683 -0.6505 -0.5489
 3511SOL    HW313811   0.028   2.909   1.715 -1.1453  0.6162 -0.8499
 3511SOL    MW413812   0.069   2.897   1.639  0.0831 -0.2827 -0.0750
 3512SOL     OW13813   1.999   2.065   1.245  0.4297  0.0227 -0.1979
 3512SOL    HW213814   1.965   1.978   1.263  0.5145  0.1693  0.6859
 3512SOL    HW313815   2.031   2.060   1.154 -1.6549 -0.1992 -0.9718
 3512SOL    MW413816   1.999   2.053   1.235  0.1659  0.0128 -0.1834
 3513SOL     OW13817   0.655   3.085   3.762  0.7887  0.1851 -0.1847
 3513SOL    HW213818   0.729   3.143   3.742  0.4952 -0.0342 -2.1152
 3513SOL    HW313819   0.585   3.143   3.790  1.3451  0.4947  0.5929
 3513SOL    MW413820   0.656   3.100   3.763  0.8234  0.1970 -0.3368
 3514SOL     OW13821   5.751   3.635   2.575 -0.7414  0.4880  0.1863
 3514SOL    HW213822   5.808   3.605   2.505 -2.7738 -2.4766 -0.3886
 3514SOL    HW313823   5.799   3.614   2.655 -1.2918 -2.9441 -0.2546
 3514SOL    MW413824   5.765   3.628   2.577 -1.0822 -0.3560  0.0523
 3515SOL     OW13825   5.240   6.313   5.469 -0.0315 -0.2742  0.0097
 3515SOL    HW213826   5.157   6.360   5.464 -0.4276 -0.6827  1.8730
 3515SOL    HW313827   5.270   6.327   5.559  3.0159  1.6163 -1.1632
 3515SOL    MW413828   5.233   6.321   5.480  0.3183 -0.0787  0.1008
 3516SOL     OW13829   2.914   3.523   1.724  0.3850  0.1280 -0.1303
 3516SOL    HW213830   2.839   3.579   1.700  0.6085  0.1489 -0.8040
 3516SOL    HW313831   2.890   3.437   1.690  0.8736  0.2407 -0.7684
 3516SOL    MW413832   2.901   3.519   1.716  0.4790  0.1457 -0.3034
 3517SOL     OW13833   2.794   0.462   2.984  0.2039 -0.0345  0.6803
 3517SOL    HW213834   2.802   0.510   3.066 -0.9946  2.5242 -0.5897
 3517SOL    HW313835   2.878   0.474   2.940 -0.0891  0.9287  0.3712
 3517SOL    MW413836   2.806   0.470   2.989  0.0071  0.4302  0.4720
 3518SOL     OW13837   1.747   5.411   5.287  0.2223  0.2814 -0.3000
 3518SOL    HW213838   1.811   5.477   5.311 -0.5753  0.4213  1.6000
 3518SOL    HW313839   1.765   5.393   5.195  1.5713  1.8664 -0.3948
 3518SOL    MW413840   1.758   5.417   5.278  0.2951  0.5090 -0.0618
 3519SOL     OW13841   4.275   5.514   1.930  0.2419  0.8903 -0.1829
 3519SOL    HW213842   4.195   5.534   1.977  0.3117  0.1498  0.2696
 3519SOL    HW313843   4.274   5.419   1.920  1.7119  0.7110  1.0302
 3519SOL    MW413844   4.265   5.504   1.935  0.4451  0.7690  0.0369
 3520SOL     OW13845   2.716   6.280   0.022  0.1383  0.1870 -0.2481
 3520SOL    HW213846   2.686   6.205   0.073 -1.2918  0.2931 -0.9033
 3520SOL    HW313847   2.764   6.334   0.085 -0.6108 -0.2402  0.7117
 3520SOL    MW413848   2.719   6.277   0.037 -0.1492  0.1446 -0.2079
 3521SOL     OW13849   3.200   0.938   3.861 -0.5458 -0.1586  0.5722
 3521SOL    HW213850   3.214   0.999   3.934 -1.1970 -0.5452  1.0380
 3521SOL    HW313851   3.253   0.862   3.884  0.1189  0.1481  0.0836
 3521SOL    MW413852   3.209   0.936   3.874 -0.5440 -0.1692  0.5692
 3522SOL     OW13853   0.963   6.149   3.266 -0.3560  0.0198 -0.0658
 3522SOL    HW213854   0.960   6.057   3.242 -2.3481  0.2674 -1.0055
 3522SOL    HW313855   1.044   6.159   3.317  0.3554 -2.0267 -0.7193
 3522SOL    MW413856   0.973   6.138   3.269 -0.5250 -0.2175 -0.2760
 3523SOL     OW13857   2.302   4.758   2.228 -0.4860 -0.3448  0.3233
 3523SOL    HW213858   2.289   4.664   2.211 -1.0385 -0.0927 -0.7469
 3523SOL    HW313859   2.273   4.770   2.318  0.0634 -1.2942  0.6349
 3523SOL    MW413860   2.296   4.747   2.237 -0.4864 -0.4368  0.2232
 3524SOL     OW13861   2.488   2.762   6.202  0.0964  0.2552  0.9041
 3524SOL    HW213862   2.500   2.730   6.112  1.0894  0.4063  0.9672
 3524SOL    HW313863   2.397   2.744   6.222 -0.0566 -0.0699 -0.0281
 3524SOL    MW413864   2.478   2.755   6.193  0.2072  0.2323  0.7894
 3525SOL     OW13865   1.553   0.022   1.271 -0.0099 -0.4954 -0.3073
 3525SOL    HW213866   1.636   0.008   1.227 -0.2449  0.3092 -1.0352
 3525SOL    HW313867   1.570   0.094   1.332  0.2678 -1.4856  0.8337
 3525SOL    MW413868   1.566   0.030   1.274 -0.0042 -0.5199 -0.2528
 3526SOL     OW13869   5.732   3.803   4.703  0.1481 -0.0933  0.0611
 3526SOL    HW213870   5.704   3.730   4.647 -1.6615 -0.7248  1.6758
 3526SOL    HW313871   5.825   3.787   4.717  0.0704 -1.3750 -0.6658
 3526SOL    MW413872   5.741   3.791   4.698 -0.1009 -0.3457  0.1782
 3527SOL     OW13873   0.476   0.141   1.002 -0.2242 -0.5856 -0.0231
 3527SOL    HW213874   0.473   0.050   0.971 -0.5406 -0.2822 -0.9014
 3527SOL    HW313875   0.565   0.171   0.981 -0.2967 -0.5195 -0.2368
 3527SOL    MW413876   0.488   0.133   0.996 -0.2755 -0.5368 -0.1672
 3528SOL     OW13877   5.318   4.555   5.097  0.4480 -0.0081 -0.4255
 3528SOL    HW213878   5.244   4.495   5.099 -0.2953  0.8914 -0.4683
 3528SOL    HW313879   5.368   4.534   5.176 -1.1328  0.9679  0.8792
 3528SOL    MW413880   5.315   4.544   5.108  0.1414  0.2393 -0.2590
 3529SOL     OW13881   4.758   4.884   3.248 -0.3340  0.5828  0.3412
 3529SOL    HW213882   4.836   4.934   3.271 -0.5633  1.1467 -0.0688
 3529SOL    HW313883   4.727   4.924   3.166  1.0587 -2.0074 -1.6134
 3529SOL    MW413884   4.764   4.896   3.240 -0.1805  0.3155  0.0292
 3530SOL     OW13885   5.843   5.678   6.128  0.0026  0.2970 -0.0911
 3530SOL    HW213886   5.865   5.766   6.158  0.7177  0.2451 -0.4402
 3530SOL    HW313887   5.905   5.621   6.173  0.5462  0.1372 -1.0098
 3530SOL    MW413888   5.854   5.682   6.138  0.1687  0.2690 -0.2584
 3531SOL     OW13889   4.380   0.694   2.327 -0.1855  0.1591 -0.2059
 3531SOL    HW213890   4.361   0.787   2.330  1.3333  0.4812  2.1671
 3531SOL    HW313891   4.431   0.677   2.406 -1.3242 -2.9043  0.0176
 3531SOL    MW413892   4.384   0.704   2.338 -0.1354 -0.2026  0.1366
 3532SOL     OW13893   5.570   6.077   1.669 -0.4126  0.7276 -0.3555
 3532SOL    HW213894   5.531   6.111   1.588 -2.2024  0.6096  0.4087
 3532SOL    HW313895   5.558   5.983   1.664  0.4211  0.6123 -0.3983
 3532SOL    MW413896   5.564   6.069   1.658 -0.5387  0.6968 -0.2603
 3533SOL     OW13897   1.286   3.857   0.351 -0.3642 -0.0863  0.1566
 3533SOL    HW213898   1.203   3.893   0.317 -0.2502 -1.0033 -1.1442
 3533SOL    HW313899   1.341   3.848   0.274  0.8782  0.2694  0.9815
 3533SOL    MW413900   1.282   3.861   0.336 -0.1852 -0.1603  0.0938
 3534SOL     OW13901   1.117   0.662   5.131  0.3368  0.2989 -0.0193
 3534SOL    HW213902   1.071   0.679   5.049 -0.0692  0.5388  0.2552
 3534SOL    HW313903   1.169   0.583   5.113  0.0266  0.1774 -0.4163
 3534SOL    MW413904   1.118   0.654   5.118  0.2423  0.3145 -0.0355
 3535SOL     OW13905   0.574   2.186   1.315 -0.1252  0.0698  0.0292
 3535SOL    HW213906   0.479   2.189   1.325  0.0378  0.9713  1.8703
 3535SOL    HW313907   0.602   2.276   1.334  1.1034 -0.2332 -0.2841
 3535SOL    MW413908   0.565   2.198   1.319  0.0584  0.1488  0.2308
 3536SOL     OW13909   0.207   2.256   6.045 -0.2905  0.3715  0.4723
 3536SOL    HW213910   0.235   2.178   6.094 -0.6394 -0.0968 -0.0599
 3536SOL    HW313911   0.186   2.320   6.113 -0.7654 -0.2663  0.9464
 3536SOL    MW413912   0.208   2.254   6.060 -0.3992  0.2256  0.4646
 3537SOL     OW13913   4.269   0.110   1.906 -0.0890 -0.1447  0.0369
 3537SOL    HW213914   4.327   0.039   1.880 -0.1402  0.1783 -1.0146
 3537SOL    HW313915   4.259   0.100   2.001  1.9118 -0.0125  0.2916
 3537SOL    MW413916   4.275   0.100   1.915  0.1682 -0.0847 -0.0682
 3538SOL     OW13917   4.677   4.962   6.236 -0.1042 -0.3588  0.0064
 3538SOL    HW213918   4.708   4.891   6.293  0.6328 -0.3158 -0.3350
 3538SOL    HW313919   4.610   4.921   6.182  0.2490 -0.7741 -0.1227
 3538SOL    MW413920   4.672   4.947   6.237  0.0396 -0.4079 -0.0557
 3539SOL     OW13921   0.754   1.100   0.891  0.3144 -0.1194  0.2073
 3539SOL    HW213922   0.739   1.191   0.916 -0.9983 -0.3492  0.3276
 3539SOL    HW313923   0.835   1.076   0.936  0.6638  0.9724  0.1941
 3539SOL    MW413924   0.762   1.109   0.900  0.1873 -0.0056  0.2214
 3540SOL     OW13925   3.855   1.480   3.173 -0.4147  0.1333 -0.3615
 3540SOL    HW213926   3.863   1.567   3.134 -0.3503  0.0816 -0.4635
 3540SOL    HW313927   3.772   1.483   3.221 -0.4329  0.2381 -0.3994
 3540SOL    MW413928   3.845   1.492   3.174 -0.4086  0.1403 -0.3799
 3541SOL     OW13929   0.162   5.555   5.189 -0.1215  0.0487 -0.0807
 3541SOL    HW213930   0.213   5.480   5.218 -2.2457 -1.8565 -0.9789
 3541SOL    HW313931   0.191   5.571   5.099 -0.1108 -0.1257 -0.1082
 3541SOL    MW413932   0.172   5.547   5.181 -0.4003 -0.2257 -0.2029
 3542SOL     OW13933   5.432   0.919   3.568  0.5970 -0.0401  0.6446
 3542SOL    HW213934   5.374   0.894   3.640 -1.5995  0.3651 -0.8908
 3542SOL    HW313935   5.518   0.929   3.609 -0.6327  0.6003  3.2971
 3542SOL    MW413936   5.436   0.917   3.583  0.1449  0.0978  0.7920
 3543SOL     OW13937   4.984   3.417   1.572  0.1654  0.6437 -0.7046
 3543SOL    HW213938   4.901   3.453   1.603  0.0595  0.1945 -0.4443
 3543SOL    HW313939   4.970   3.322   1.571  0.8915  0.5151 -0.0120
 3543SOL    MW413940   4.971   3.409   1.576  0.2473  0.5674 -0.5789
 3544SOL     OW13941   6.233   4.630   0.763 -0.0041  0.1487  0.1114
 3544SOL    HW213942   6.178   4.563   0.722  0.1986 -0.2739  0.5161
 3544SOL    HW313943   6.215   4.710   0.714 -0.7237 -0.0630  0.0241
 3544SOL    MW413944   6.223   4.632   0.751 -0.0723  0.0650  0.1533
 3545SOL     OW13945   4.929   4.816   5.240 -0.0044  0.0614 -0.4661
 3545SOL    HW213946   5.017   4.850   5.252 -0.4564  0.9098  0.5965
 3545SOL    HW313947   4.910   4.768   5.321 -0.6206  0.1208 -0.5677
 3545SOL    MW413948   4.938   4.814   5.253 -0.1454  0.1812 -0.3393
 3546SOL     OW13949   0.731   4.159   5.698 -0.1524 -0.2263 -0.2935
 3546SOL    HW213950   0.795   4.167   5.768 -0.6494 -0.1417  0.1607
 3546SOL    HW313951   0.725   4.064   5.681 -0.1921 -0.2656 -0.0642
 3546SOL    MW413952   0.738   4.147   5.705 -0.2233 -0.2203 -0.2033
 3547SOL     OW13953   2.882   5.885   6.318  0.5168  0.6542  0.4108
 3547SOL    HW213954   2.840   5.893   6.404  1.1723 -1.3686  0.9865
 3547SOL    HW313955   2.936   5.806   6.325  0.9049  0.6605 -1.7435
 3547SOL    MW413956   2.884   5.876   6.330  0.6545  0.3882  0.2025
 3548SOL     OW13957   5.020   5.216   3.540 -0.7186  0.1456 -0.3658
 3548SOL    HW213958   4.951   5.275   3.569 -0.0920  0.4959  0.4683
 3548SOL    HW313959   5.091   5.275   3.512  0.9760 -0.0733  2.9659
 3548SOL    MW413960   5.020   5.232   3.540 -0.4124  0.1630  0.1838
 3549SOL     OW13961   3.931   3.351   4.126  0.4833  0.6913  0.0776
 3549SOL    HW213962   3.949   3.353   4.032  0.9085 -0.8779  0.0981
 3549SOL    HW313963   3.842   3.385   4.133  0.4800  0.9303 -0.8723
 3549SOL    MW413964   3.922   3.356   4.114  0.5390  0.5158 -0.0451
 3550SOL     OW13965   4.007   3.201   5.430 -0.1618 -0.0116  0.4681
 3550SOL    HW213966   3.993   3.119   5.381  1.9904 -0.6189  0.7658
 3550SOL    HW313967   4.064   3.252   5.373 -0.0198  0.5185  1.0886
 3550SOL    MW413968   4.012   3.197   5.416  0.1409 -0.0218  0.5893
 3551SOL     OW13969   0.743   5.407   3.664  0.1146 -1.0842  0.4602
 3551SOL    HW213970   0.659   5.388   3.622  0.2335 -0.0780 -0.2592
 3551SOL    HW313971   0.722   5.470   3.733  0.5986  1.6339 -1.6645
 3551SOL    MW413972   0.729   5.413   3.667  0.1942 -0.5928  0.0850
 3552SOL     OW13973   1.396   2.544   4.435  0.6972  0.2150 -0.0544
 3552SOL    HW213974   1.323   2.554   4.497 -0.2646 -0.2470 -1.0757
 3552SOL    HW313975   1.470   2.520   4.490 -0.0926 -0.0454  0.9394
 3552SOL    MW413976   1.396   2.542   4.451  0.4661  0.1197 -0.0580
 3553SOL     OW13977   1.692   3.884   5.146 -0.2005 -0.5863  0.1213
 3553SOL    HW213978   1.710   3.839   5.228  1.7461 -1.3815 -0.6823
 3553SOL    HW313979   1.728   3.827   5.078  0.2174  1.0561 -1.1260
 3553SOL    MW413980   1.699   3.871   5.148  0.1114 -0.4745 -0.1493
 3554SOL     OW13981   1.031   3.889   3.535  0.5918 -0.2632  0.4173
 3554SOL    HW213982   0.975   3.851   3.467 -1.1639  0.2052  1.5126
 3554SOL    HW313983   1.120   3.875   3.504 -0.1287 -0.6433 -1.6484
 3554SOL    MW413984   1.035   3.882   3.522  0.2651 -0.2515  0.2893
 3555SOL     OW13985   6.328   4.123   0.073  0.5395  0.3278 -0.2335
 3555SOL    HW213986   6.285   4.208   0.079  1.7577  0.8974  1.0122
 3555SOL    HW313987   6.291   4.073   0.146  1.6424  0.6797  0.5878
 3555SOL    MW413988   6.317   4.127   0.084  0.8457  0.4494  0.0392
 3556SOL     OW13989   2.550   2.408   4.190 -0.3427  0.7689  0.3449
 3556SOL    HW213990   2.508   2.322   4.193  0.1699  0.5226  0.6182
 3556SOL    HW313991   2.547   2.440   4.281  1.9836 -0.2092  0.8383
 3556SOL    MW413992   2.544   2.401   4.203  0.0319  0.6074  0.4461
 3557SOL     OW13993   4.510   0.321   2.944 -0.3306  0.6210 -0.7414
 3557SOL    HW213994   4.497   0.409   2.911  1.8572  0.7613 -1.3958
 3557SOL    HW313995   4.542   0.333   3.033  2.6580  0.7205 -1.7102
 3557SOL    MW413996   4.512   0.334   2.951  0.3524  0.6527 -0.9556
 3558SOL     OW13997   3.085   2.764   0.069  0.3573 -0.3295 -0.1371
 3558SOL    HW213998   3.026   2.701   0.108  0.8111  0.4681  1.9589
 3558SOL    HW313999   3.031   2.814   0.008 -0.6890 -0.7803  0.4067
 3558SOL    MW414000   3.070   2.762   0.066  0.2791 -0.2838  0.2112
 3559SOL     OW14001   0.244   3.727   0.422 -0.5400  0.2200  0.3436
 3559SOL    HW214002   0.255   3.683   0.338 -1.4530  1.1826 -0.3016
 3559SOL    HW314003   0.313   3.794   0.422 -0.2796 -0.0441  0.5516
 3559SOL    MW414004   0.255   3.730   0.411 -0.6261  0.3121  0.2860
 3560SOL     OW14005   1.072   4.753   1.600  0.3658 -0.1592 -0.1601
 3560SOL    HW214006   0.991   4.791   1.567  0.3343 -0.0271  0.0674
 3560SOL    HW314007   1.049   4.664   1.625 -0.1686  0.4607  1.6785
 3560SOL    MW414008   1.058   4.746   1.599  0.2911 -0.0600  0.1125
 3561SOL     OW14009   4.386   3.857   2.991 -0.0038  0.7649  0.0320
 3561SOL    HW214010   4.470   3.867   2.946  0.2327  1.9550  0.6892
 3561SOL    HW314011   4.385   3.765   3.018  1.6069  0.9692  0.9695
 3561SOL    MW414012   4.397   3.846   2.989  0.2399  0.9489  0.2424
 3562SOL     OW14013   1.385   4.188   1.323 -0.4317 -0.2544  0.0439
 3562SOL    HW214014   1.383   4.269   1.375 -1.2077 -1.4209  1.9164
 3562SOL    HW314015   1.308   4.139   1.352 -0.9890 -0.9320 -2.3386
 3562SOL    MW414016   1.374   4.193   1.333 -0.6076 -0.4977 -0.0234
 3563SOL     OW14017   0.916   5.119   2.020 -0.3141 -0.4464 -0.6054
 3563SOL    HW214018   0.846   5.183   2.007  1.3241  1.6351  0.2301
 3563SOL    HW314019   0.920   5.071   1.937 -1.3883  0.7793 -1.3991
 3563SOL    MW414020   0.908   5.121   2.007 -0.2397 -0.0101 -0.5999
 3564SOL     OW14021   1.403   5.320   1.991  0.3088  0.4973  0.0579
 3564SOL    HW214022   1.461   5.332   2.066  1.4532  0.1170 -0.7468
 3564SOL    HW314023   1.454   5.269   1.929 -1.2771 -0.8041 -0.2474
 3564SOL    MW414024   1.417   5.315   1.993  0.2506  0.2754 -0.0885
 3565SOL     OW14025   3.887   1.745   3.092  0.9132 -0.0953  0.0155
 3565SOL    HW214026   3.884   1.800   3.013 -0.4027  0.0247  0.1279
 3565SOL    HW314027   3.905   1.805   3.163  4.7768 -0.5238 -0.4219
 3565SOL    MW414028   3.889   1.760   3.091  1.2493 -0.1360 -0.0274
 3566SOL     OW14029   4.068   0.321   0.988 -0.1387 -0.7241 -0.4728
 3566SOL    HW214030   4.145   0.277   0.952  0.0437 -0.7661 -0.0397
 3566SOL    HW314031   3.998   0.302   0.926 -0.2197 -2.1899  0.0427
 3566SOL    MW414032   4.069   0.313   0.975 -0.1253 -0.9230 -0.3476
 3567SOL     OW14033   1.119   0.702   3.473  0.5274 -0.3045  0.1340
 3567SOL    HW214034   1.080   0.617   3.455 -0.8798  0.4157 -0.3852
 3567SOL    HW314035   1.211   0.692   3.448  0.0611 -1.2575 -1.3265
 3567SOL    MW414036   1.126   0.690   3.467  0.2802 -0.3352 -0.1272
 3568SOL     OW14037   6.375   5.410   5.113 -0.6053 -0.2352 -0.1243
 3568SOL    HW214038   6.456   5.458   5.131 -0.0278 -1.4676  0.6741
 3568SOL    HW314039   6.390   5.368   5.029 -1.0322  0.7728 -0.7250
 3568SOL    MW414040   6.388   5.411   5.104 -0.5854 -0.2648 -0.0982
 3569SOL     OW14041   0.810   2.294   4.691  0.0912  0.0938  0.0802
 3569SOL    HW214042   0.904   2.284   4.681 -0.0312 -1.3809  0.1507
 3569SOL    HW314043   0.792   2.265   4.781 -0.6541 -1.7032 -0.6008
 3569SOL    MW414044   0.820   2.289   4.702 -0.0232 -0.3378 -0.0004
 3570SOL     OW14045   2.614   0.903   0.472 -0.2013 -0.4304  0.2240
 3570SOL    HW214046   2.577   0.936   0.554  0.9938 -1.3712  1.1947
 3570SOL    HW314047   2.638   0.982   0.423 -0.4320  0.1476  1.0170
 3570SOL    MW414048   2.612   0.918   0.476 -0.0741 -0.4783  0.4567
 3571SOL     OW14049   3.911   0.238   1.576  0.4797  0.3755  0.0121
 3571SOL    HW214050   3.925   0.175   1.646  1.6240  0.3272 -0.2469
 3571SOL    HW314051   3.899   0.322   1.621 -0.0306  0.1514  0.3069
 3571SOL    MW414052   3.911   0.241   1.591  0.5634  0.3396  0.0168
 3572SOL     OW14053   2.930   5.566   1.859  0.3714 -0.1874 -0.7671
 3572SOL    HW214054   2.985   5.619   1.918  0.1777  1.4939 -2.0303
 3572SOL    HW314055   2.853   5.620   1.843 -1.0046 -1.9006 -0.2095
 3572SOL    MW414056   2.927   5.581   1.865  0.1643 -0.1916 -0.8602
 3573SOL     OW14057   4.536   1.677   2.326  0.4454  0.1961  0.3672
 3573SOL    HW214058   4.548   1.587   2.297 -0.3307 -0.6017  2.3451
 3573SOL    HW314059   4.614   1.697   2.378  0.7879  0.8230 -0.3587
 3573SOL    MW414060   4.548   1.668   2.329  0.3882  0.1735  0.5324
 3574SOL     OW14061   3.882   2.353   1.943 -0.5305 -0.4551  0.3118
 3574SOL    HW214062   3.957   2.310   1.902 -1.6835 -2.0574 -0.2466
 3574SOL    HW314063   3.858   2.424   1.883 -0.0723 -0.5793 -0.0172
 3574SOL    MW414064   3.888   2.357   1.930 -0.6222 -0.6829  0.1947
 3575SOL     OW14065   0.592   5.200   0.469  0.1550  0.0213 -0.0378
 3575SOL    HW214066   0.530   5.185   0.540 -3.2476 -1.1730 -2.9469
 3575SOL    HW314067   0.570   5.288   0.436  0.6398 -0.0395 -0.5463
 3575SOL    MW414068   0.581   5.210   0.474 -0.2300 -0.1443 -0.4887
 3576SOL     OW14069   4.857   4.216   1.776 -0.6263  0.4608  0.0950
 3576SOL    HW214070   4.952   4.223   1.765 -0.6667  0.4971 -0.2405
 3576SOL    HW314071   4.842   4.124   1.796 -0.7608 -0.1323 -2.4211
 3576SOL    MW414072   4.868   4.205   1.778 -0.6494  0.3873 -0.2812
 3577SOL     OW14073   3.592   0.502   6.159 -0.3405 -0.5461  0.3290
 3577SOL    HW214074   3.675   0.473   6.197  0.4248  0.6637 -0.3318
 3577SOL    HW314075   3.563   0.573   6.216  0.7008  1.1236 -1.1178
 3577SOL    MW414076   3.599   0.507   6.171 -0.1022 -0.1662  0.0509
 3578SOL     OW14077   0.597   2.452   5.791  0.2329  0.5530  0.3637
 3578SOL    HW214078   0.553   2.489   5.867 -1.3288 -0.2097 -0.1427
 3578SOL    HW314079   0.685   2.490   5.794 -0.1774  1.4666  1.8610
 3578SOL    MW414080   0.603   2.462   5.801 -0.0272  0.5729  0.4944
 3579SOL     OW14081   2.332   2.847   5.901  0.2030  0.1786  0.1374
 3579SOL    HW214082   2.292   2.917   5.953 -0.4478 -0.2376  0.2041
 3579SOL    HW314083   2.261   2.786   5.883  0.2016  0.7342 -1.9934
 3579SOL    MW414084   2.318   2.848   5.905  0.1170  0.1970 -0.1349
 3580SOL     OW14085   3.736   3.074   1.492  0.4822 -0.2264 -0.3030
 3580SOL    HW214086   3.674   3.143   1.516  0.8133 -0.1334  0.3119
 3580SOL    HW314087   3.814   3.122   1.462  0.7086 -0.3273  0.1161
 3580SOL    MW414088   3.738   3.090   1.491  0.5557 -0.2274 -0.1665
 3581SOL     OW14089   5.074   3.497   3.038  0.0919  0.6837  0.3130
 3581SOL    HW214090   5.099   3.491   3.131  1.3261  1.2282  0.0247
 3581SOL    HW314091   5.106   3.583   3.010 -0.8266  0.7848 -0.4704
 3581SOL    MW414092   5.081   3.508   3.047  0.1336  0.7689  0.1716
 3582SOL     OW14093   5.849   3.201   0.977 -0.1382 -0.0849  0.0692
 3582SOL    HW214094   5.868   3.107   0.981 -2.0412 -0.5224 -0.0989
 3582SOL    HW314095   5.891   3.238   1.054  0.7394 -1.0445  0.0761
 3582SOL    MW414096   5.857   3.193   0.987 -0.2735 -0.2692  0.0479
 3583SOL     OW14097   6.383   3.993   3.826 -0.2599  0.3755 -0.1657
 3583SOL    HW214098   6.313   4.052   3.798 -1.6821 -0.9915  0.3492
 3583SOL    HW314099   6.431   4.042   3.892 -0.3084  1.5815 -0.9971
 3583SOL    MW414100   6.380   4.007   3.831 -0.4539  0.3542 -0.2075
 3584SOL     OW14101   4.421   6.056   6.417  0.1166  0.2360  0.5023
 3584SOL    HW214102   4.494   6.114   6.393  1.2666 -1.5223 -0.4067
 3584SOL    HW314103   4.411   5.998   6.342 -0.1909 -1.5447  1.8752
 3584SOL    MW414104   4.429   6.056   6.404  0.2277 -0.2310  0.5635
 3585SOL     OW14105   3.799   4.610   1.473 -0.2816 -0.2264 -0.3382
 3585SOL    HW214106   3.759   4.540   1.420  0.0773  1.1686 -2.5986
 3585SOL    HW314107   3.891   4.585   1.480 -0.4027 -0.5988 -0.0506
 3585SOL    MW414108   3.806   4.597   1.467 -0.2502 -0.0915 -0.5985
 3586SOL     OW14109   2.876   0.355   4.025 -0.0675  0.0332 -0.5053
 3586SOL    HW214110   2.918   0.278   3.987  0.1319  0.1583 -0.5416
 3586SOL    HW314111   2.915   0.429   3.977  1.3423  0.3068  0.9666
 3586SOL    MW414112   2.887   0.354   4.014  0.1448  0.0858 -0.3159
 3587SOL     OW14113   0.811   2.531   2.821 -0.7306  0.3897  0.3892
 3587SOL    HW214114   0.723   2.523   2.858 -1.5669 -2.2920 -1.7888
 3587SOL    HW314115   0.796   2.536   2.726  1.4258 -1.2863 -0.1260
 3587SOL    MW414116   0.797   2.531   2.813 -0.5565 -0.1853  0.0339
 3588SOL     OW14117   1.004   2.491   1.148  0.3752 -0.6021 -0.3839
 3588SOL    HW214118   1.065   2.449   1.087  3.2898  2.4434  0.1358
 3588SOL    HW314119   1.047   2.484   1.233 -0.3669  0.9213  0.1466
 3588SOL    MW414120   1.018   2.485   1.151  0.6618  0.0007 -0.2453
 3589SOL     OW14121   2.825   6.197   0.903 -0.1755 -0.0358 -0.4235
 3589SOL    HW214122   2.778   6.246   0.970  1.7702  0.2107  0.8372
 3589SOL    HW314123   2.810   6.106   0.924 -0.9977  0.0287 -0.7135
 3589SOL    MW414124   2.817   6.192   0.915 -0.0273  0.0052 -0.2954
 3590SOL     OW14125   3.485   1.476   4.547  0.0878 -0.6404 -0.5003
 3590SOL    HW214126   3.519   1.405   4.493 -0.1324 -2.4248  1.5569
 3590SOL    HW314127   3.393   1.483   4.523 -0.0247 -1.4617 -0.3351
 3590SOL    MW414128   3.477   1.467   4.537  0.0439 -0.9842 -0.2071
 3591SOL     OW14129   0.356   4.988   0.927 -0.1052 -0.6332  0.0471
 3591SOL    HW214130   0.406   5.045   0.869 -0.2254 -0.0665  0.4902
 3591SOL    HW314131   0.402   4.992   1.010 -0.3133 -0.9114  0.1763
 3591SOL    MW414132   0.368   4.996   0.930 -0.1485 -0.5952  0.1226
 3592SOL     OW14133   1.156   1.201   3.373 -0.6300 -0.0067  0.1738
 3592SOL    HW214134   1.179   1.139   3.443 -1.7190 -1.0171 -0.3308
 3592SOL    HW314135   1.092   1.259   3.413 -0.7011 -0.1182  0.2227
 3592SOL    MW414136   1.151   1.200   3.388 -0.7831 -0.1547  0.1137
 3593SOL     OW14137   4.852   3.726   2.774 -1.1221 -0.1688 -0.0619
 3593SOL    HW214138   4.757   3.735   2.783 -1.2111  0.7315 -1.4428
 3593SOL    HW314139   4.888   3.769   2.851 -1.8333  1.0424 -0.3808
 3593SOL    MW414140   4.844   3.733   2.785 -1.2277  0.1098 -0.2862
 3594SOL     OW14141   1.932   3.809   6.065 -0.1787 -0.3149 -0.5729
 3594SOL    HW214142   1.892   3.855   6.139 -0.2259  0.6049 -1.1550
 3594SOL    HW314143   2.007   3.764   6.103 -0.7354 -0.6076  0.2051
 3594SOL    MW414144   1.936   3.809   6.080 -0.2583 -0.2321 -0.5471
 3595SOL     OW14145   4.467   0.723   0.466 -0.4491  0.1279 -0.2246
 3595SOL    HW214146   4.412   0.687   0.396 -1.9253 -1.6732  1.7224
 3595SOL    HW314147   4.556   0.716   0.433 -0.9766 -2.0060 -1.3770
 3595SOL    MW414148   4.471   0.718   0.452 -0.7135 -0.3912 -0.1198
 3596SOL     OW14149   3.356   2.568   3.944  0.4249 -0.1242 -0.0753
 3596SOL    HW214150   3.409   2.490   3.959  2.3829  1.3290  0.8788
 3596SOL    HW314151   3.298   2.544   3.871  0.6233 -2.5944  0.5010
 3596SOL    MW414152   3.355   2.554   3.936  0.7094 -0.2584  0.1266
 3597SOL     OW14153   5.192   3.227   3.637  0.1326  0.1072  0.9872
 3597SOL    HW214154   5.180   3.322   3.638 -0.4739  0.0369  1.0692
 3597SOL    HW314155   5.105   3.193   3.656 -0.0695 -0.4955 -0.8594
 3597SOL    MW414156   5.179   3.235   3.639  0.0259  0.0184  0.7543
 3598SOL     OW14157   6.414   0.091   2.531  0.2794 -0.7702 -0.0021
 3598SOL    HW214158   6.341   0.146   2.503  0.8077 -0.0796 -0.0578
 3598SOL    HW314159   6.381   0.044   2.608  0.4846  1.2826  1.4305
 3598SOL    MW414160   6.400   0.092   2.538  0.3762 -0.4082  0.1796
 3599SOL     OW14161   1.475   2.493   2.554 -0.1198 -0.3334  0.2416
 3599SOL    HW214162   1.543   2.443   2.509  1.4112  1.3658  0.5774
 3599SOL    HW314163   1.456   2.444   2.634  0.7738 -0.7758  0.1834
 3599SOL    MW414164   1.481   2.480   2.558  0.2001 -0.1676  0.2783
 3600SOL     OW14165   4.362   1.980   3.424 -0.1322 -0.5075  0.4901
 3600SOL    HW214166   4.448   1.940   3.415  0.6561  1.0680  0.6880
 3600SOL    HW314167   4.302   1.919   3.380  0.9981 -1.8424  0.7520
 3600SOL    MW414168   4.365   1.966   3.417  0.1209 -0.4758  0.5508
 3601SOL     OW14169   0.251   4.712   5.858  0.7328  0.5814 -0.2233
 3601SOL    HW214170   0.287   4.646   5.918  0.7525  1.3064  0.5738
 3601SOL    HW314171   0.296   4.695   5.775  0.6053 -0.5232 -0.0787
 3601SOL    MW414172   0.262   4.701   5.855  0.7186  0.5313 -0.0990
 3602SOL     OW14173   1.804   3.128   5.967 -0.1767  0.5175 -0.6561
 3602SOL    HW214174   1.768   3.060   5.910  1.1513 -0.1470 -0.7548
 3602SOL    HW314175   1.895   3.137   5.937 -0.3969  2.5300 -0.8154
 3602SOL    MW414176   1.811   3.120   5.955 -0.0306  0.6953 -0.6901
 3603SOL     OW14177   3.838   0.961   1.969 -0.7339  0.2936 -0.4451
 3603SOL    HW214178   3.885   0.925   1.894 -1.3530 -0.3313 -0.5380
 3603SOL    HW314179   3.847   0.895   2.038 -1.1756  0.3289 -0.3499
 3603SOL    MW414180   3.845   0.948   1.968 -0.8739  0.2158 -0.4448
 3604SOL     OW14181   3.574   1.266   4.798 -0.0914  1.1281  0.0528
 3604SOL    HW214182   3.634   1.230   4.863  0.3917 -0.2098 -1.0810
 3604SOL    HW314183   3.503   1.202   4.793 -0.9236  2.0019  0.3745
 3604SOL    MW414184   3.572   1.253   4.806 -0.1374  1.0668 -0.0544
 3605SOL     OW14185  -0.005   5.786   4.477 -0.0411 -0.6855 -0.0010
 3605SOL    HW214186   0.053   5.717   4.447  0.5494 -0.8607  1.4931
 3605SOL    HW314187  -0.083   5.740   4.508  0.1867 -0.6481  0.6233
 3605SOL    MW414188  -0.008   5.771   4.477  0.0668 -0.7037  0.2785
 3606SOL     OW14189   3.963   2.617   5.052 -0.5157  0.1325  0.4865
 3606SOL    HW214190   3.920   2.624   5.137 -0.2042 -3.3078  1.0730
 3606SOL    HW314191   3.891   2.616   4.989 -0.8162  1.3486  0.7771
 3606SOL    MW414192   3.948   2.618   5.055 -0.5143 -0.1610  0.6022
 3607SOL     OW14193   2.073   3.709   3.213 -0.2476  0.5886 -0.2148
 3607SOL    HW214194   2.026   3.626   3.207 -0.8984  0.8878  0.5521
 3607SOL    HW314195   2.124   3.702   3.294  0.7856  0.4025 -0.8633
 3607SOL    MW414196   2.074   3.697   3.223 -0.1972  0.6035 -0.1992
 3608SOL     OW14197   6.054   0.725   3.848 -0.2601 -0.3306  0.1863
 3608SOL    HW214198   6.046   0.630   3.838 -1.2003 -0.1359 -1.2512
 3608SOL    HW314199   6.147   0.739   3.867 -0.1137 -1.5318  0.4533
 3608SOL    MW414200   6.065   0.714   3.849 -0.3649 -0.4634  0.0319
 3609SOL     OW14201   1.037   4.277   1.451  0.1474 -0.0398 -0.4097
 3609SOL    HW214202   1.060   4.334   1.378 -1.3568 -0.4925 -1.2847
 3609SOL    HW314203   1.083   4.195   1.433  0.4644  0.1331 -0.3884
 3609SOL    MW414204   1.046   4.274   1.439 -0.0092 -0.0767 -0.5223
 3610SOL     OW14205   1.137   1.148   1.843  0.1795 -0.5564 -0.1243
 3610SOL    HW214206   1.042   1.139   1.842  0.1486 -0.2323 -0.5413
 3610SOL    HW314207   1.166   1.093   1.915 -0.2578 -1.3437 -0.5310
 3610SOL    MW414208   1.129   1.139   1.852  0.1177 -0.6175 -0.2330
 3611SOL     OW14209   1.809   4.983   0.961 -0.2219  0.7265  0.5310
 3611SOL    HW214210   1.837   4.926   0.889  0.0093 -0.5243  1.5636
 3611SOL    HW314211   1.761   5.054   0.919 -0.4981 -0.2210 -0.8134
 3611SOL    MW414212   1.807   4.984   0.946 -0.2278  0.4365  0.4899
 3612SOL     OW14213   0.333   6.033   2.570 -0.1531 -0.8743  0.0201
 3612SOL    HW214214   0.414   5.984   2.583  0.8937  1.0917  1.5404
 3612SOL    HW314215   0.297   5.999   2.488  2.3494 -1.6271 -0.8657
 3612SOL    MW414216   0.339   6.022   2.561  0.3152 -0.7142  0.1038
 3613SOL     OW14217   4.024   0.968   1.009 -0.2044 -0.3549  0.1254
 3613SOL    HW214218   3.967   0.891   1.007 -0.7144  0.0171 -0.3307
 3613SOL    HW314219   4.112   0.934   0.991 -0.2638 -0.9538  0.9531
 3613SOL    MW414220   4.028   0.954   1.006 -0.2795 -0.3848  0.1745
 3614SOL     OW14221   5.521   3.926   2.800  0.3694  0.2448  0.1204
 3614SOL    HW214222   5.555   3.951   2.714 -0.1029 -1.0794 -0.4724
 3614SOL    HW314223   5.541   4.001   2.856  0.5971  1.1738 -1.1575
 3614SOL    MW414224   5.528   3.939   2.796  0.3371  0.1926 -0.1264
 3615SOL     OW14225   0.555   1.611   5.398  0.0816  0.0105 -0.1267
 3615SOL    HW214226   0.499   1.648   5.331  0.6080  0.0703 -0.5399
 3615SOL    HW314227   0.586   1.528   5.361 -0.3438 -0.3968  0.4111
 3615SOL    MW414228   0.552   1.605   5.385  0.0950 -0.0353 -0.1103
 3616SOL     OW14229   5.036   1.589   5.598  0.3349  0.0855 -0.1492
 3616SOL    HW214230   4.961   1.648   5.587  0.8602  0.8039  0.0475
 3616SOL    HW314231   5.011   1.510   5.550 -1.2953 -0.3853  1.3403
 3616SOL    MW414232   5.023   1.587   5.590  0.1891  0.1181  0.0733
 3617SOL     OW14233   4.145   0.374   2.555  0.0230  0.9174 -0.1404
 3617SOL    HW214234   4.147   0.303   2.491 -1.1368  0.1302  0.6543
 3617SOL    HW314235   4.235   0.379   2.588  0.0021 -0.5757  0.1875
 3617SOL    MW414236   4.157   0.365   2.551 -0.1328  0.6165  0.0077
 3618SOL     OW14237   2.264   4.270   2.005  0.1403  0.0770 -0.2177
 3618SOL    HW214238   2.185   4.324   2.008  0.7361  1.1188 -1.8571
 3618SOL    HW314239   2.316   4.300   2.080  0.3944  1.7454 -1.0192
 3618SOL    MW414240   2.261   4.281   2.015  0.2524  0.4346 -0.5397
 3619SOL     OW14241   2.494   3.763   2.593 -0.6088  0.2450  0.0500
 3619SOL    HW214242   2.534   3.753   2.507  0.5872 -0.4590  0.6468
 3619SOL    HW314243   2.563   3.801   2.647 -0.8951 -0.5481  1.0058
 3619SOL    MW414244   2.508   3.766   2.589 -0.4888  0.0475  0.2548
 3620SOL     OW14245   4.662   2.451   2.784  0.0353 -0.4374 -0.0861
 3620SOL    HW214246   4.620   2.528   2.821  0.6082 -0.5933  0.9238
 3620SOL    HW314247   4.623   2.441   2.697  1.4830  2.2209 -1.1416
 3620SOL    MW414248   4.651   2.460   2.777  0.3019 -0.1072 -0.0921
 3621SOL     OW14249   3.042   0.852   4.996  0.7400  0.4777 -0.1958
 3621SOL    HW214250   3.101   0.807   5.055 -0.7745 -1.9599 -0.3958
 3621SOL    HW314251   3.042   0.799   4.916 -1.3042  0.6505 -0.3742
 3621SOL    MW414252   3.050   0.839   4.993  0.2705  0.1789 -0.2457
 3622SOL     OW14253   2.951   1.201   3.706  0.7387 -0.3872 -0.7192
 3622SOL    HW214254   2.875   1.242   3.665  1.6631  0.6539 -1.4436
 3622SOL    HW314255   2.946   1.227   3.798  0.0236 -0.6442 -0.6780
 3622SOL    MW414256   2.940   1.210   3.712  0.7663 -0.2838 -0.8093
 3623SOL     OW14257   2.706   5.762   3.949 -0.0211 -0.3414 -0.2320
 3623SOL    HW214258   2.671   5.794   3.866  0.0012 -0.9471 -0.4791
 3623SOL    HW314259   2.789   5.808   3.959 -0.8852  1.1626  0.3943
 3623SOL    MW414260   2.712   5.772   3.940 -0.1322 -0.2229 -0.1820
 3624SOL     OW14261   2.027   0.860   3.214 -1.2671  0.4171  0.1586
 3624SOL    HW214262   2.085   0.915   3.162 -1.0450  0.2624  0.2411
 3624SOL    HW314263   2.086   0.805   3.266 -1.4703 -0.7025 -0.7556
 3624SOL    MW414264   2.042   0.860   3.214 -1.2646  0.2490  0.0488
 3625SOL     OW14265   5.048   3.522   1.817 -0.0790 -0.8337 -0.4162
 3625SOL    HW214266   4.992   3.596   1.795 -2.7899 -1.6443  2.9496
 3625SOL    HW314267   5.039   3.462   1.742 -1.3204  0.3527 -1.2710
 3625SOL    MW414268   5.040   3.524   1.804 -0.6005 -0.7841 -0.0849
 3626SOL     OW14269   1.589   3.716   0.321 -0.1718  0.0131 -0.5248
 3626SOL    HW214270   1.515   3.661   0.345 -0.4040  0.5922  0.1255
 3626SOL    HW314271   1.594   3.710   0.225 -1.3763  0.3694 -0.6255
 3626SOL    MW414272   1.580   3.708   0.311 -0.3614  0.1365 -0.4523
 3627SOL     OW14273   2.750   2.973   3.715  0.1032 -0.3745  0.4176
 3627SOL    HW214274   2.781   2.883   3.716  0.8470 -0.1324 -0.1287
 3627SOL    HW314275   2.676   2.973   3.655 -0.9671 -0.9423  1.6735
 3627SOL    MW414276   2.745   2.961   3.707  0.0601 -0.4174  0.5112
 3628SOL     OW14277   2.499   0.432   2.918 -0.5584 -0.1886  0.1272
 3628SOL    HW214278   2.464   0.452   2.831 -0.8467 -2.3990 -0.3338
 3628SOL    HW314279   2.593   0.450   2.912 -0.6443  0.0585 -0.5064
 3628SOL    MW414280   2.507   0.437   2.906 -0.6078 -0.4476 -0.0172
 3629SOL     OW14281   4.372   3.323   0.400 -0.0051 -0.1583 -0.3904
 3629SOL    HW214282   4.344   3.240   0.438  0.5095  0.3284  1.0891
 3629SOL    HW314283   4.429   3.363   0.465 -0.0379  1.2575 -1.1706
 3629SOL    MW414284   4.376   3.318   0.413  0.0585  0.0927 -0.2981
 3630SOL     OW14285   3.507   2.484   2.139  0.3883  0.0254 -0.0341
 3630SOL    HW214286   3.557   2.438   2.206  0.7977  1.7928  0.9295
 3630SOL    HW314287   3.561   2.560   2.115 -0.8363  0.7627 -0.5796
 3630SOL    MW414288   3.521   2.488   2.144  0.2807  0.3558  0.0211
 3631SOL     OW14289   3.153   0.966   6.141  0.1284  0.4046 -0.5627
 3631SOL    HW214290   3.132   0.934   6.229 -5.2285 -2.6609 -2.4817
 3631SOL    HW314291   3.225   0.909   6.112 -0.6864 -1.2726  0.5574
 3631SOL    MW414292   3.160   0.954   6.149 -0.6859 -0.2211 -0.6681
 3632SOL     OW14293   3.297   3.802   0.516  0.1089  0.1754 -0.3532
 3632SOL    HW214294   3.364   3.738   0.541 -1.7538 -1.5224  0.7090
 3632SOL    HW314295   3.312   3.819   0.424  1.3880 -0.9228 -0.3687
 3632SOL    MW414296   3.308   3.795   0.507  0.0319 -0.1935 -0.2151
 3633SOL     OW14297   5.113   5.866   6.192  0.5127 -0.0263 -0.3055
 3633SOL    HW214298   5.137   5.849   6.283  1.4353  2.1454 -0.0775
 3633SOL    HW314299   5.061   5.946   6.196  2.4231  1.3948 -1.8212
 3633SOL    MW414300   5.110   5.874   6.205  0.8865  0.4477 -0.4754
 3634SOL     OW14301   5.668   5.934   2.033  0.1779  0.1248  0.4215
 3634SOL    HW214302   5.624   5.852   2.012  2.7134 -1.1558 -0.2616
 3634SOL    HW314303   5.682   5.930   2.128  1.6532 -1.0363  0.1939
 3634SOL    MW414304   5.664   5.923   2.043  0.7071 -0.1974  0.3014
 3635SOL     OW14305   1.825   2.259   2.661 -0.1180  0.1630 -0.5695
 3635SOL    HW214306   1.812   2.193   2.729 -0.6428 -0.3550 -1.1523
 3635SOL    HW314307   1.824   2.342   2.708 -1.5286 -0.1147 -0.0594
 3635SOL    MW414308   1.823   2.261   2.676 -0.3734  0.0580 -0.5791
 3636SOL     OW14309   4.546   4.555   1.496 -0.3310  0.3395  0.6268
 3636SOL    HW214310   4.500   4.483   1.540  0.0450  2.1877  4.3948
 3636SOL    HW314311   4.481   4.625   1.492  0.8572  1.5928  2.2184
 3636SOL    MW414312   4.531   4.555   1.501 -0.1246  0.7487  1.3339
 3637SOL     OW14313   1.187   6.333   5.535  0.3670  0.1148 -0.0857
 3637SOL    HW214314   1.281   6.343   5.519  0.6906 -0.6866  1.1726
 3637SOL    HW314315   1.181   6.273   5.610 -1.0996  1.1562  0.7005
 3637SOL    MW414316   1.198   6.326   5.543  0.2162  0.1464  0.1841
 3638SOL     OW14317   0.297   4.234   3.989 -0.3964 -0.1720 -0.2234
 3638SOL    HW214318   0.382   4.230   3.945  1.0517  0.5305  2.2944
 3638SOL    HW314319   0.258   4.316   3.960  0.3888  0.1369 -0.4129
 3638SOL    MW414320   0.303   4.244   3.980 -0.1018 -0.0385  0.0838
 3639SOL     OW14321   0.063   4.672   5.477 -0.6510 -1.3650  0.0467
 3639SOL    HW214322   0.068   4.611   5.404 -2.2214 -1.3114 -0.1436
 3639SOL    HW314323  -0.013   4.728   5.457  0.3860  0.2810  0.4869
 3639SOL    MW414324   0.053   4.672   5.465 -0.7214 -1.1407  0.0796
 3640SOL     OW14325   5.267   3.872   2.054 -0.2796 -0.0104  0.4954
 3640SOL    HW214326   5.252   3.800   1.993  0.6539 -0.7481  1.1154
 3640SOL    HW314327   5.236   3.950   2.007 -0.3642 -0.6712 -0.5779
 3640SOL    MW414328   5.261   3.873   2.040 -0.1676 -0.1949  0.4356
 3641SOL     OW14329   0.242   5.335   0.670  0.4555  0.3041 -0.5973
 3641SOL    HW214330   0.248   5.395   0.595  0.1411  0.6465 -0.3529
 3641SOL    HW314331   0.237   5.393   0.746 -1.1711  0.0040 -0.4372
 3641SOL    MW414332   0.242   5.351   0.670  0.1994  0.3097 -0.5439
 3642SOL     OW14333   5.584   1.020   1.818  0.7593  0.0286 -0.3681
 3642SOL    HW214334   5.503   0.987   1.780  1.5098 -2.5516  0.0509
 3642SOL    HW314335   5.566   1.025   1.912  1.0006 -0.2974 -0.3032
 3642SOL    MW414336   5.571   1.016   1.826  0.8902 -0.3548 -0.3042
 3643SOL     OW14337   3.182   0.116   3.374  0.2728  0.3093  0.3826
 3643SOL    HW214338   3.169   0.206   3.406 -0.6444  0.4817 -0.4657
 3643SOL    HW314339   3.220   0.070   3.449 -0.8539  0.9744  1.3853
 3643SOL    MW414340   3.186   0.122   3.388  0.0031  0.4198  0.4030
 3644SOL     OW14341   0.859   1.373   5.749  0.2291  0.1914  0.3122
 3644SOL    HW214342   0.950   1.401   5.742 -0.6342  3.1846 -0.9870
 3644SOL    HW314343   0.817   1.412   5.672 -2.3472 -0.0946  1.4640
 3644SOL    MW414344   0.865   1.382   5.738 -0.2247  0.5486  0.2927
 3645SOL     OW14345   1.863   3.906   3.758  0.2770  0.7785  0.4493
 3645SOL    HW214346   1.933   3.883   3.819  1.2747 -1.2184 -1.3148
 3645SOL    HW314347   1.800   3.834   3.765  0.6187  0.2988 -1.1298
 3645SOL    MW414348   1.864   3.894   3.767  0.4538  0.4517  0.0082
 3646SOL     OW14349   1.255   5.007   1.177  0.3051 -0.2221  0.2295
 3646SOL    HW214350   1.252   4.937   1.243 -0.7119  1.0681  1.6252
 3646SOL    HW314351   1.267   5.087   1.228 -0.1089  0.7822 -1.1978
 3646SOL    MW414352   1.256   5.008   1.193  0.1163  0.0806  0.2253
 3647SOL     OW14353   4.784   5.299   2.196  0.6011  0.1786  0.7021
 3647SOL    HW214354   4.829   5.382   2.212  0.5264  1.2276 -3.5526
 3647SOL    HW314355   4.852   5.241   2.159 -0.2553 -0.2052 -0.3083
 3647SOL    MW414356   4.799   5.302   2.193  0.4783  0.2664  0.0074
 3648SOL     OW14357   5.699   1.928   0.662 -0.1094  0.1545  0.6355
 3648SOL    HW214358   5.758   1.980   0.608  0.7177 -1.5211 -0.1625
 3648SOL    HW314359   5.619   1.921   0.611  0.6507 -1.3786 -0.4503
 3648SOL    MW414360   5.696   1.934   0.648  0.1000 -0.2689  0.3869
 3649SOL     OW14361   0.981   3.025   2.669 -0.3338  0.2526 -0.1734
 3649SOL    HW214362   1.064   2.980   2.654 -0.1947 -0.5756  2.5934
 3649SOL    HW314363   0.919   2.956   2.692 -0.6513  1.1631  2.0192
 3649SOL    MW414364   0.984   3.010   2.670 -0.3573  0.2635  0.4809
 3650SOL     OW14365   4.584   3.839   1.500 -0.2259  0.4279  0.3828
 3650SOL    HW214366   4.680   3.839   1.501 -0.0295  3.1367 -2.1573
 3650SOL    HW314367   4.559   3.831   1.591  2.3572 -1.3835  1.0527
 3650SOL    MW414368   4.594   3.838   1.512  0.1409  0.5463  0.1361
 3651SOL     OW14369   4.246   5.421   0.810 -0.4008 -0.0747  0.4426
 3651SOL    HW214370   4.189   5.498   0.813 -0.9453 -0.4794  0.5847
 3651SOL    HW314371   4.191   5.349   0.840 -0.5796 -0.9342 -1.7201
 3651SOL    MW414372   4.231   5.422   0.814 -0.4963 -0.2415  0.1760
 3652SOL     OW14373   3.702   5.351   6.332  0.2596 -0.3393 -0.3804
 3652SOL    HW214374   3.720   5.261   6.306 -0.0832 -0.2499 -0.9280
 3652SOL    HW314375   3.774   5.401   6.294  0.6462 -0.4214  0.2233
 3652SOL    MW414376   3.714   5.346   6.324  0.2654 -0.3383 -0.3730
 3653SOL     OW14377   0.019   2.115   5.258  0.3064  0.5453  0.2833
 3653SOL    HW214378   0.064   2.165   5.326 -1.4433  1.6163  0.7135
 3653SOL    HW314379   0.082   2.047   5.233  0.6742 -0.5642  3.6733
 3653SOL    MW414380   0.034   2.112   5.264  0.1241  0.5402  0.7873
 3654SOL     OW14381   0.168   1.466   4.605 -0.0114 -0.1480  0.1161
 3654SOL    HW214382   0.261   1.444   4.620 -0.2072 -1.7291 -0.7351
 3654SOL    HW314383   0.121   1.415   4.671 -0.2118  2.3790  2.0541
 3654SOL    MW414384   0.174   1.456   4.616 -0.0637 -0.0232  0.2595
 3655SOL     OW14385   3.601   3.861   1.100 -0.2586  0.1392  0.2048
 3655SOL    HW214386   3.556   3.887   1.020 -1.5405  1.1678  1.2074
 3655SOL    HW314387   3.559   3.912   1.169 -1.2728 -2.8342  2.0061
 3655SOL    MW414388   3.590   3.871   1.099 -0.5616 -0.1174  0.5748
 3656SOL     OW14389   2.347   2.631   2.402 -0.0148  0.8613 -0.6191
 3656SOL    HW214390   2.438   2.649   2.378  0.2228 -0.3879 -0.7175
 3656SOL    HW314391   2.317   2.712   2.445  1.7851  0.5917  1.3241
 3656SOL    MW414392   2.355   2.644   2.405  0.2540  0.6609 -0.3757
 3657SOL     OW14393   4.682   6.397   2.642  0.0863  0.2345  0.0991
 3657SOL    HW214394   4.743   6.439   2.702  0.3501  0.1471 -0.1055
 3657SOL    HW314395   4.704   6.303   2.648  0.7385  0.3180 -0.8235
 3657SOL    MW414396   4.693   6.390   2.651  0.2072  0.2340 -0.0496
 3658SOL     OW14397   5.229   1.872   5.776  0.0460  0.2535 -0.0840
 3658SOL    HW214398   5.278   1.843   5.699  0.1712 -0.8358  0.3856
 3658SOL    HW314399   5.285   1.939   5.817  1.0947 -0.8609  0.3537
 3658SOL    MW414400   5.243   1.877   5.772  0.2009 -0.0372  0.0357
 3659SOL     OW14401   4.123   3.673   4.597 -0.1537  0.2927  0.0087
 3659SOL    HW214402   4.045   3.621   4.616 -0.2418  0.0320 -1.0048
 3659SOL    HW314403   4.111   3.703   4.506  0.3471  1.2825  0.2560
 3659SOL    MW414404   4.111   3.670   4.587 -0.0992  0.3889 -0.0924
 3660SOL     OW14405   5.363   0.183   5.901 -0.1100  0.1118 -0.0762
 3660SOL    HW214406   5.440   0.148   5.946 -1.4115  0.1992  2.3809
 3660SOL    HW314407   5.361   0.136   5.818  1.9233 -0.7346  0.2884
 3660SOL    MW414408   5.373   0.172   5.896 -0.0134  0.0116  0.2961
 3661SOL     OW14409   2.743   5.202   0.604  0.2688 -0.3179  0.2484
 3661SOL    HW214410   2.732   5.112   0.571 -0.2105 -0.8694  1.8234
 3661SOL    HW314411   2.655   5.229   0.630  0.7543 -0.3672  2.1101
 3661SOL    MW414412   2.730   5.194   0.603  0.2696 -0.3972  0.7018
 3662SOL     OW14413   4.118   4.276   1.062 -0.1469  0.1378 -0.1564
 3662SOL    HW214414   4.055   4.226   1.113 -0.8850 -0.5743 -1.6924
 3662SOL    HW314415   4.174   4.210   1.021  0.0362  0.6435 -0.7374
 3662SOL    MW414416   4.117   4.261   1.063 -0.2201  0.1106 -0.4357
 3663SOL     OW14417   0.556   2.333   2.504 -0.1366  0.2925  0.2371
 3663SOL    HW214418   0.522   2.331   2.415 -0.2279 -1.2981  0.2678
 3663SOL    HW314419   0.651   2.343   2.494 -0.3481  2.5589  0.0761
 3663SOL    MW414420   0.564   2.334   2.491 -0.1766  0.3816  0.2199
 3664SOL     OW14421   4.659   4.312   3.561  0.2043  0.0635  0.7151
 3664SOL    HW214422   4.633   4.271   3.643 -0.9324  0.4074  0.5463
 3664SOL    HW314423   4.583   4.301   3.503  1.0588 -0.3597 -0.3693
 3664SOL    MW414424   4.645   4.305   3.564  0.1671  0.0530  0.5497
 3665SOL     OW14425   2.955   1.876   1.045 -0.2287 -0.3037  0.4117
 3665SOL    HW214426   2.883   1.915   1.094 -0.5856  0.3973 -0.6231
 3665SOL    HW314427   2.971   1.792   1.088 -1.9654 -0.6908  0.3997
 3665SOL    MW414428   2.947   1.870   1.057 -0.5049 -0.2623  0.2736
 3666SOL     OW14429   6.050   4.008   2.891 -0.3476  0.5779 -0.2145
 3666SOL    HW214430   6.141   3.991   2.913 -1.2935 -2.1974  2.1573
 3666SOL    HW314431   6.029   4.090   2.936  0.1219 -0.5246  2.1172
 3666SOL    MW414432   6.059   4.017   2.900 -0.4104  0.0663  0.4061
 3667SOL     OW14433   2.477   5.001   4.188 -0.3635  0.0158 -0.0936
 3667SOL    HW214434   2.416   4.963   4.251 -0.0909  0.1253  0.2381
 3667SOL    HW314435   2.422   5.023   4.112 -0.8233  0.5317  0.3752
 3667SOL    MW414436   2.461   4.999   4.186 -0.3882  0.0983  0.0120
 3668SOL     OW14437   4.719   0.969   0.031 -0.0278  0.0083  0.2500
 3668SOL    HW214438   4.625   0.967   0.013 -0.2287 -0.0900  1.2294
 3668SOL    HW314439   4.759   1.005  -0.048 -1.2690  4.2891  1.3325
 3668SOL    MW414440   4.712   0.973   0.018 -0.2181  0.5601  0.5221
 3669SOL     OW14441   5.964   2.626   5.460  0.2032 -0.1684  0.0375
 3669SOL    HW214442   5.891   2.689   5.462  0.3048  0.0137 -1.1424
 3669SOL    HW314443   5.958   2.580   5.544 -1.5245 -0.4483 -0.2034
 3669SOL    MW414444   5.953   2.628   5.471 -0.0113 -0.1813 -0.1499
 3670SOL     OW14445   2.497   1.011   4.212  0.6668 -0.1868 -0.9671
 3670SOL    HW214446   2.533   0.925   4.188  2.3303  0.1792  0.0583
 3670SOL    HW314447   2.540   1.033   4.294 -0.7328  1.0644 -0.5261
 3670SOL    MW414448   2.507   1.003   4.219  0.7016  0.0266 -0.7737
 3671SOL     OW14449   5.479   5.261   3.637  0.2203 -0.3714 -0.1277
 3671SOL    HW214450   5.538   5.318   3.686 -0.6327 -0.4744  1.0690
 3671SOL    HW314451   5.525   5.243   3.555  2.4404 -1.4738  1.2537
 3671SOL    MW414452   5.493   5.266   3.633  0.4007 -0.5304  0.2125
 3672SOL     OW14453   5.165   0.657   2.725 -0.1410 -0.1586  0.0042
 3672SOL    HW214454   5.219   0.686   2.652 -0.5266  0.9992  0.1655
 3672SOL    HW314455   5.224   0.607   2.781  0.1688 -1.0363 -1.0665
 3672SOL    MW414456   5.180   0.654   2.723 -0.1510 -0.1216 -0.1158
 3673SOL     OW14457   4.449   0.297   4.931  0.7719 -0.0116 -0.4815
 3673SOL    HW214458   4.464   0.334   5.017  0.6343 -1.1340  0.0481
 3673SOL    HW314459   4.383   0.229   4.945  1.7196 -1.1271 -1.2162
 3673SOL    MW414460   4.442   0.293   4.944  0.8788 -0.3069 -0.5086
 3674SOL     OW14461   3.072   5.745   2.025  0.1473  0.2461 -0.2212
 3674SOL    HW214462   3.082   5.808   1.954  1.3558  0.4886  0.1453
 3674SOL    HW314463   3.146   5.761   2.083 -1.0894  0.4518  1.4140
 3674SOL    MW414464   3.083   5.756   2.023  0.1436  0.3052  0.0429
 3675SOL     OW14465   0.753   4.491   0.808 -0.0905  0.0603  0.1864
 3675SOL    HW214466   0.732   4.453   0.722  1.2360 -1.9835  0.7050
 3675SOL    HW314467   0.776   4.582   0.788 -0.4222 -0.1923 -1.5381
 3675SOL    MW414468   0.753   4.498   0.794  0.0408 -0.2427  0.0273
 3676SOL     OW14469   0.560   0.195   4.006  0.3291 -0.2939  0.1089
 3676SOL    HW214470   0.607   0.238   3.934  0.2497  0.9941  0.8058
 3676SOL    HW314471   0.507   0.128   3.962  0.6914  0.1009 -0.9769
 3676SOL    MW414472   0.559   0.192   3.991  0.3664 -0.0718  0.0576
 3677SOL     OW14473   5.546   5.015   0.187 -0.1629 -0.4114  0.3384
 3677SOL    HW214474   5.525   5.108   0.201 -0.3296 -0.4133  0.1082
 3677SOL    HW314475   5.539   4.976   0.274  0.4641 -0.1029  0.5341
 3677SOL    MW414476   5.542   5.022   0.200 -0.1021 -0.3709  0.3338
 3678SOL     OW14477   2.388   1.570   1.743  0.3573  0.9407 -0.3836
 3678SOL    HW214478   2.356   1.640   1.799  0.2705  1.8015 -1.4782
 3678SOL    HW314479   2.319   1.559   1.677  1.6542  1.8512 -1.9374
 3678SOL    MW414480   2.374   1.578   1.742  0.5169  1.1744 -0.7331
 3679SOL     OW14481   1.729   6.152   2.803 -0.3607 -0.1999 -0.1529
 3679SOL    HW214482   1.669   6.226   2.795  0.3172  0.5503  1.2300
 3679SOL    HW314483   1.815   6.189   2.780 -0.0336 -0.5644  0.4474
 3679SOL    MW414484   1.733   6.167   2.799 -0.2281 -0.1490  0.1087
 3680SOL     OW14485   4.516   2.205   3.113  0.5099  0.3992  0.3062
 3680SOL    HW214486   4.437   2.151   3.119  0.5277  0.3293 -0.0370
 3680SOL    HW314487   4.493   2.287   3.156  0.3149  0.3028  0.3844
 3680SOL    MW414488   4.502   2.209   3.119  0.4865  0.3772  0.2713
 3681SOL     OW14489   1.360   5.765   4.038  0.1519  0.3425  0.3095
 3681SOL    HW214490   1.408   5.848   4.031  0.2911  0.5265  2.7417
 3681SOL    HW314491   1.279   5.788   4.082  0.4376 -0.8846  1.5441
 3681SOL    MW414492   1.356   5.779   4.043  0.2080  0.2049  0.7933
 3682SOL     OW14493   0.329   4.475   3.718 -0.3562 -0.8234 -0.8182
 3682SOL    HW214494   0.398   4.483   3.784 -0.9377  0.9509 -0.3810
 3682SOL    HW314495   0.358   4.530   3.645 -0.7837 -0.9462 -1.0857
 3682SOL    MW414496   0.342   4.483   3.717 -0.4894 -0.6055 -0.7958
 3683SOL     OW14497   5.149   0.950   4.788 -0.0007  0.6754 -0.0186
 3683SOL    HW214498   5.200   0.961   4.868 -0.8052 -0.3389  0.6558
 3683SOL    HW314499   5.076   1.012   4.797 -1.0459 -0.6289  0.8644
 3683SOL    MW414500   5.146   0.960   4.800 -0.2447  0.3695  0.1869
 3684SOL     OW14501   3.385   6.315   3.170 -0.8696 -0.0198 -0.3267
 3684SOL    HW214502   3.353   6.398   3.136  0.2188  1.0710  1.1727
 3684SOL    HW314503   3.467   6.300   3.124 -1.5053 -0.7631 -1.2563
 3684SOL    MW414504   3.392   6.324   3.159 -0.8099  0.0260 -0.2515
 3685SOL     OW14505   4.287   4.841   0.178 -0.6420 -0.3583  0.2908
 3685SOL    HW214506   4.311   4.885   0.259 -1.6521  3.0073 -1.1019
 3685SOL    HW314507   4.332   4.756   0.183  2.6622  1.3092  2.5311
 3685SOL    MW414508   4.296   4.835   0.189 -0.3393  0.3058  0.4026
 3686SOL     OW14509   5.766   6.218   3.692 -0.1157  0.0569 -0.2615
 3686SOL    HW214510   5.779   6.312   3.696 -1.9040  0.3207  2.9826
 3686SOL    HW314511   5.833   6.182   3.750  0.3759 -0.6753 -1.2528
 3686SOL    MW414512   5.776   6.226   3.700 -0.2868 -0.0049  0.0357
 3687SOL     OW14513   1.961   1.530   2.468  0.5624  0.2352 -0.2689
 3687SOL    HW214514   2.038   1.540   2.412  0.9573  1.5968  0.4613
 3687SOL    HW314515   1.994   1.537   2.557 -0.2047 -0.7896  0.1191
 3687SOL    MW414516   1.975   1.533   2.472  0.5133  0.2797 -0.1214
 3688SOL     OW14517   0.344   5.231   2.687  0.1068  0.2833  0.2350
 3688SOL    HW214518   0.263   5.181   2.680  0.0751  0.4718 -0.9616
 3688SOL    HW314519   0.328   5.295   2.757 -0.0785 -0.9288  1.3283
 3688SOL    MW414520   0.331   5.233   2.695  0.0782  0.1483  0.2214
 3689SOL     OW14521   5.736   3.466   0.264  0.1131 -0.5116 -0.0675
 3689SOL    HW214522   5.771   3.459   0.175 -0.5275 -1.1647 -0.2832
 3689SOL    HW314523   5.768   3.550   0.296  1.8027 -1.0527 -0.2735
 3689SOL    MW414524   5.745   3.476   0.256  0.2515 -0.6692 -0.1232
 3690SOL     OW14525   2.662   0.195   2.704  0.2647  0.5624 -0.0349
 3690SOL    HW214526   2.739   0.162   2.750  1.8080  0.8118 -2.2644
 3690SOL    HW314527   2.668   0.290   2.710 -0.4131  0.5738  0.5840
 3690SOL    MW414528   2.673   0.203   2.711  0.3789  0.5968 -0.2474
 3691SOL     OW14529   2.882   1.959   1.831 -0.2380  0.5692  0.9048
 3691SOL    HW214530   2.863   2.053   1.833 -1.8160  0.2849  0.8527
 3691SOL    HW314531   2.820   1.923   1.768  2.7543 -0.0695 -1.9618
 3691SOL    MW414532   2.871   1.967   1.823 -0.0514  0.4475  0.5197
 3692SOL     OW14533   5.597   5.024   5.421  0.5472 -0.4489  0.2895
 3692SOL    HW214534   5.686   4.992   5.435  0.4168 -0.9674 -0.0404
 3692SOL    HW314535   5.575   5.073   5.500  1.3297  0.1559  0.1504
 3692SOL    MW414536   5.606   5.026   5.433  0.6332 -0.4375  0.2276
 3693SOL     OW14537   0.776   1.786   1.743  0.0605 -0.4712 -0.3759
 3693SOL    HW214538   0.840   1.728   1.701  0.0944  0.0004 -0.9943
 3693SOL    HW314539   0.772   1.863   1.686  0.6480  0.5338  0.8814
 3693SOL    MW414540   0.784   1.788   1.730  0.1425 -0.2764 -0.2916
 3694SOL     OW14541   2.037   4.859   4.859 -0.4183  0.5608  0.3594
 3694SOL    HW214542   2.103   4.791   4.850  0.3729  1.4293 -0.7856
 3694SOL    HW314543   2.084   4.933   4.899 -1.1976  0.5362  1.3666
 3694SOL    MW414544   2.052   4.860   4.863 -0.4167  0.6721  0.3412
 3695SOL     OW14545   5.002   5.380   1.339 -0.1801 -0.0187  0.4086
 3695SOL    HW214546   4.971   5.465   1.371  0.4333  0.2333  0.3366
 3695SOL    HW314547   4.947   5.316   1.384  0.2971  0.3524  1.5518
 3695SOL    MW414548   4.990   5.383   1.349 -0.0362  0.0635  0.5499
 3696SOL     OW14549   2.969   5.206   4.981 -0.4618  0.3680 -0.3490
 3696SOL    HW214550   3.012   5.146   4.920 -1.5915 -0.5729 -0.2578
 3696SOL    HW314551   2.922   5.149   5.042  0.0313  1.2999  0.9662
 3696SOL    MW414552   2.968   5.191   4.981 -0.5458  0.3668 -0.1634
 3697SOL     OW14553   5.809   3.319   2.816  0.4901 -0.5303  0.2919
 3697SOL    HW214554   5.844   3.408   2.823  0.5878 -0.4993 -0.4746
 3697SOL    HW314555   5.885   3.262   2.826  0.9847 -0.4447 -2.3015
 3697SOL    MW414556   5.823   3.324   2.818  0.5683 -0.5149 -0.1514
 3698SOL     OW14557   1.556   1.046   3.277  0.2364 -0.0972 -0.0192
 3698SOL    HW214558   1.525   1.101   3.204  1.0080  0.8462  0.3317
 3698SOL    HW314559   1.555   1.104   3.353 -2.8008 -1.6931  1.3004
 3698SOL    MW414560   1.552   1.061   3.277 -0.0625 -0.1833  0.2012
 3699SOL     OW14561   4.660   1.460   2.676  0.3571  0.1700  0.2903
 3699SOL    HW214562   4.660   1.411   2.594  0.2822  2.3321 -1.0898
 3699SOL    HW314563   4.574   1.504   2.677 -0.1136 -0.7204  2.1314
 3699SOL    MW414564   4.648   1.459   2.665  0.2851  0.3378  0.3511
 3700SOL     OW14565   3.943   3.885   1.849 -0.4776 -0.2519  0.2580
 3700SOL    HW214566   3.917   3.932   1.770 -0.8763 -0.1888  0.4271
 3700SOL    HW314567   4.032   3.853   1.830 -1.1581 -1.5846 -0.8378
 3700SOL    MW414568   3.952   3.887   1.836 -0.6200 -0.4194  0.1358
 3701SOL     OW14569   3.258   1.709   2.064 -0.1733 -0.1904  0.2566
 3701SOL    HW214570   3.191   1.717   1.996 -0.1757 -1.3458  0.1120
 3701SOL    HW314571   3.338   1.739   2.021 -0.7905  2.6200  0.8553
 3701SOL    MW414572   3.259   1.714   2.049 -0.2551  0.0280  0.3165
 3702SOL     OW14573   5.982   5.821   0.235 -0.3209  0.4161  0.2032
 3702SOL    HW214574   5.990   5.906   0.277 -1.2738  1.5348 -1.7231
 3702SOL    HW314575   5.935   5.767   0.299  0.7165  1.1529  1.6427
 3702SOL    MW414576   5.977   5.825   0.249 -0.3098  0.6609  0.1390
 3703SOL     OW14577   3.653   2.310   2.313 -0.4306 -0.1251 -0.0525
 3703SOL    HW214578   3.739   2.337   2.344  0.1503  0.3415 -1.9535
 3703SOL    HW314579   3.671   2.237   2.253 -1.5461 -1.3170  1.0144
 3703SOL    MW414580   3.667   2.304   2.309 -0.5011 -0.2208 -0.1626
 3704SOL     OW14581   4.477   0.513   2.080 -0.5627  0.3432  0.7863
 3704SOL    HW214582   4.440   0.471   2.003 -1.7983  0.5766  1.2190
 3704SOL    HW314583   4.409   0.575   2.108  0.1147  0.6979  1.6965
 3704SOL    MW414584   4.463   0.516   2.074 -0.6363  0.4208  0.9635
 3705SOL     OW14585   5.479   5.485   5.746  0.8593 -0.2043 -0.0762
 3705SOL    HW214586   5.551   5.493   5.683  0.0092 -1.2186 -1.2115
 3705SOL    HW314587   5.400   5.488   5.693  0.0235  0.9686  1.1676
 3705SOL    MW414588   5.478   5.486   5.731  0.6369 -0.1834 -0.0619
 3706SOL     OW14589   6.330   3.064   5.401  0.1468 -0.4404 -0.1043
 3706SOL    HW214590   6.258   3.004   5.421  1.5322 -1.9997  0.4529
 3706SOL    HW314591   6.380   3.019   5.333  1.6628 -0.3102  0.8858
 3706SOL    MW414592   6.327   3.050   5.395  0.5296 -0.6289  0.0999
 3707SOL     OW14593   5.629   1.160   3.784 -0.1307  0.1215  0.4375
 3707SOL    HW214594   5.665   1.147   3.872 -0.8834  2.2535  1.1357
 3707SOL    HW314595   5.544   1.202   3.799  0.1139  1.3793 -1.2929
 3707SOL    MW414596   5.622   1.164   3.797 -0.1977  0.5688  0.3013
 3708SOL     OW14597   6.164   0.018   0.840  0.2756 -0.1628 -0.5482
 3708SOL    HW214598   6.157  -0.040   0.764  2.5508 -1.6970  0.3081
 3708SOL    HW314599   6.213   0.093   0.808 -0.1400 -0.0718 -0.9756
 3708SOL    MW414600   6.169   0.020   0.826  0.5210 -0.3532 -0.4916
 3709SOL     OW14601   4.877   1.092   1.094 -0.4947  0.2086 -0.4305
 3709SOL    HW214602   4.917   1.088   1.007  0.5975  2.0092 -0.0588
 3709SOL    HW314603   4.845   1.182   1.101 -0.0651  0.2463  1.2518
 3709SOL    MW414604   4.878   1.104   1.083 -0.2939  0.4512 -0.1595
 3710SOL     OW14605   3.530   2.580   0.912  0.5048  0.3047 -0.0802
 3710SOL    HW214606   3.448   2.532   0.921  0.9708 -0.5310 -0.2886
 3710SOL    HW314607   3.598   2.519   0.940  1.2569  0.2699 -1.8634
 3710SOL    MW414608   3.528   2.566   0.917  0.6655  0.1899 -0.3430
 3711SOL     OW14609   5.524   5.723   1.900 -0.3796 -0.6332  0.3123
 3711SOL    HW214610   5.564   5.638   1.917  1.3000  0.3011  1.3012
 3711SOL    HW314611   5.550   5.745   1.811  0.9245 -0.2857  0.7543
 3711SOL    MW414612   5.532   5.715   1.890  0.0140 -0.4641  0.5011
 3712SOL     OW14613   2.291   1.091   1.854  0.1115  0.3869  0.5834
 3712SOL    HW214614   2.343   1.016   1.884  1.3804 -0.1624 -2.5019
 3712SOL    HW314615   2.338   1.167   1.888 -0.1043 -0.1513  2.1793
 3712SOL    MW414616   2.304   1.091   1.862  0.2504  0.2434  0.3869
 3713SOL     OW14617   5.851   3.531   1.846 -0.1239 -0.0664 -0.2709
 3713SOL    HW214618   5.885   3.516   1.758 -1.2120  0.8912 -0.8788
 3713SOL    HW314619   5.789   3.604   1.836 -0.4702 -0.1256  1.2312
 3713SOL    MW414620   5.847   3.539   1.833 -0.3131  0.0521 -0.1529
 3714SOL     OW14621   4.394   3.271   4.830  0.7139 -0.0116  0.9634
 3714SOL    HW214622   4.313   3.296   4.874 -0.4664 -0.8368 -0.6541
 3714SOL    HW314623   4.421   3.190   4.874  0.8179  0.4023  1.6757
 3714SOL    MW414624   4.387   3.264   4.842  0.5719 -0.0659  0.8440
 3715SOL     OW14625   5.458   0.633   3.211  0.3146 -0.0726  0.2821
 3715SOL    HW214626   5.549   0.624   3.184  0.2471  1.6936 -0.7197
 3715SOL    HW314627   5.452   0.721   3.249 -0.7020 -0.6501  1.5431
 3715SOL    MW414628   5.469   0.644   3.212  0.1716  0.0842  0.3163
 3716SOL     OW14629   2.569   5.585   2.934  0.3487  0.6977 -0.2230
 3716SOL    HW214630   2.484   5.618   2.964  0.2882 -0.9989  1.6022
 3716SOL    HW314631   2.547   5.510   2.879  0.6761 -0.0370  0.6442
 3716SOL    MW414632   2.555   5.580   2.931  0.3839  0.3769  0.1322
 3717SOL     OW14633   4.236   0.632   0.046 -0.4902  0.4025 -0.3875
 3717SOL    HW214634   4.182   0.562   0.008 -0.3432  0.1207 -0.0867
 3717SOL    HW314635   4.284   0.668  -0.029 -1.3046  0.8476 -0.7031
 3717SOL    MW414636   4.235   0.627   0.031 -0.5783  0.4241 -0.3894
 3718SOL     OW14637   5.359   0.401   5.401  0.2247 -0.1913  0.0464
 3718SOL    HW214638   5.303   0.453   5.342  1.9924  0.3610 -1.2208
 3718SOL    HW314639   5.406   0.342   5.343  0.9168 -0.6979  1.0953
 3718SOL    MW414640   5.357   0.400   5.385  0.5493 -0.1852  0.0176
 3719SOL     OW14641   4.468   2.872   1.479 -0.2422 -0.4285  0.1254
 3719SOL    HW214642   4.430   2.925   1.550  0.3025 -3.2410  2.7561
 3719SOL    HW314643   4.512   2.935   1.423 -0.2764  1.9787  2.5832
 3719SOL    MW414644   4.469   2.888   1.481 -0.1748 -0.4820  0.7967
 3720SOL     OW14645   5.610   3.141   2.733  0.2705  0.2372 -0.1726
 3720SOL    HW214646   5.670   3.212   2.756  0.3418  0.6374 -1.4718
 3720SOL    HW314647   5.525   3.170   2.765  0.1727  1.2492 -1.2494
 3720SOL    MW414648   5.607   3.154   2.740  0.2670  0.4235 -0.4861
 3721SOL     OW14649   1.860   2.825   4.932  0.1726 -0.0726 -0.1825
 3721SOL    HW214650   1.885   2.751   4.877  1.1380 -0.4265  0.6949
 3721SOL    HW314651   1.764   2.827   4.928 -0.0110 -2.4648  1.1611
 3721SOL    MW414652   1.851   2.816   4.924  0.2757 -0.4349  0.1105
 3722SOL     OW14653   0.715   2.454   4.181 -0.3317 -0.4883 -0.2011
 3722SOL    HW214654   0.627   2.419   4.172  0.2050 -1.8935 -0.1972
 3722SOL    HW314655   0.702   2.541   4.219 -1.7331 -0.4627 -0.6762
 3722SOL    MW414656   0.702   2.461   4.185 -0.4458 -0.6703 -0.2633
 3723SOL     OW14657   6.296   0.270   1.165 -0.3871 -0.3121 -0.2606
 3723SOL    HW214658   6.281   0.185   1.126  0.2963 -0.5233 -0.0634
 3723SOL    HW314659   6.377   0.261   1.216  0.8014  0.9823 -1.8076
 3723SOL    MW414660   6.304   0.258   1.167 -0.1402 -0.1692 -0.4387
 3724SOL     OW14661   5.758   2.365   2.412  0.2875  0.6837 -0.0339
 3724SOL    HW214662   5.733   2.273   2.405 -0.7367  0.9303  0.1753
 3724SOL    HW314663   5.691   2.403   2.468  0.7789  1.5359 -0.0151
 3724SOL    MW414664   5.746   2.358   2.418  0.2172  0.8287 -0.0038
 3725SOL     OW14665   6.323   5.429   3.273 -0.5269  0.1770 -0.2920
 3725SOL    HW214666   6.253   5.491   3.295 -1.0283 -0.3855 -0.2674
 3725SOL    HW314667   6.278   5.359   3.225  0.3618  0.9180 -2.3411
 3725SOL    MW414668   6.308   5.428   3.269 -0.4758  0.2006 -0.5591
 3726SOL     OW14669   4.424   6.324   3.641 -0.3658 -0.3849 -0.3517
 3726SOL    HW214670   4.358   6.343   3.574 -1.2359  0.0683  0.6019
 3726SOL    HW314671   4.422   6.229   3.650  0.0844 -0.4919 -1.2810
 3726SOL    MW414672   4.415   6.314   3.633 -0.4212 -0.3392 -0.3485
 3727SOL     OW14673   0.512   4.836   4.658 -0.0683  0.8120 -0.2821
 3727SOL    HW214674   0.522   4.879   4.743 -1.4731  0.3114  0.1750
 3727SOL    HW314675   0.594   4.789   4.645  1.5047  3.4697 -0.7627
 3727SOL    MW414676   0.524   4.835   4.668 -0.0461  1.0966 -0.2852
 3728SOL     OW14677   2.371   5.352   5.347  0.0207 -0.1605  0.4310
 3728SOL    HW214678   2.431   5.284   5.318 -0.6189 -0.9119  0.8229
 3728SOL    HW314679   2.420   5.404   5.410  0.7401  0.1892 -0.3980
 3728SOL    MW414680   2.385   5.350   5.352  0.0312 -0.2135  0.3733
 3729SOL     OW14681   1.932   1.073   0.917  0.5969 -0.0445 -0.1442
 3729SOL    HW214682   2.023   1.056   0.942 -0.2686 -1.5949  2.4167
 3729SOL    HW314683   1.923   1.168   0.921  1.4832  0.0091  2.3116
 3729SOL    MW414684   1.942   1.083   0.921  0.5996 -0.2420  0.5177
 3730SOL     OW14685   2.577   4.103   4.104  0.3909  0.3325 -0.1045
 3730SOL    HW214686   2.566   4.189   4.143  1.5926  1.0471 -1.2529
 3730SOL    HW314687   2.596   4.120   4.012  2.2502 -1.0549 -0.0525
 3730SOL    MW414688   2.578   4.116   4.097  0.7948  0.2437 -0.2491
 3731SOL     OW14689   2.430   2.429   3.768  0.1771 -0.1030  0.2535
 3731SOL    HW214690   2.459   2.468   3.850  0.2111  0.9730 -0.2493
 3731SOL    HW314691   2.471   2.343   3.766 -0.2810 -0.3856  1.6199
 3731SOL    MW414692   2.439   2.423   3.778  0.1212  0.0017  0.3674
 3732SOL     OW14693   4.026   0.276   4.068 -0.0216  0.6359 -0.1602
 3732SOL    HW214694   4.102   0.332   4.080 -0.9383  1.4163  3.0912
 3732SOL    HW314695   4.055   0.189   4.094  1.5223 -0.8992 -5.5995
 3732SOL    MW414696   4.040   0.272   4.073  0.0612  0.5364 -0.4489
 3733SOL     OW14697   3.786   4.472   4.051 -0.2368 -0.0690  0.6371
 3733SOL    HW214698   3.736   4.554   4.057 -0.1000 -0.0223  1.1454
 3733SOL    HW314699   3.764   4.424   4.130 -0.2014 -0.4634  0.4092
 3733SOL    MW414700   3.777   4.477   4.062 -0.2141 -0.1149  0.6741
 3734SOL     OW14701   0.498   4.501   0.371  0.4339 -0.1941  0.2848
 3734SOL    HW214702   0.427   4.438   0.381  1.5188 -1.3951  0.5633
 3734SOL    HW314703   0.524   4.494   0.279  1.7259 -1.4803  0.7108
 3734SOL    MW414704   0.492   4.492   0.360  0.7475 -0.5223  0.3778
 3735SOL     OW14705   3.779   1.117   2.999 -0.4135  0.5754  0.2150
 3735SOL    HW214706   3.855   1.173   2.984 -1.0719  1.0529 -1.6193
 3735SOL    HW314707   3.704   1.176   3.001 -0.7277  0.1708  2.5687
 3735SOL    MW414708   3.779   1.132   2.997 -0.5418  0.5851  0.2835
 3736SOL     OW14709   3.134   5.130   4.759 -0.3005 -0.1330  0.2432
 3736SOL    HW214710   3.076   5.167   4.693  1.0417  2.4343  0.3432
 3736SOL    HW314711   3.202   5.085   4.709 -0.7576 -0.5572  0.0013
 3736SOL    MW414712   3.136   5.129   4.744 -0.1837  0.1498  0.2245
 3737SOL     OW14713   5.824   6.066   1.539 -0.0150 -0.1776 -0.3309
 3737SOL    HW214714   5.733   6.062   1.571  0.2567 -2.3345  0.3113
 3737SOL    HW314715   5.862   6.140   1.587 -0.5612 -1.2848  1.9817
 3737SOL    MW414716   5.817   6.076   1.550 -0.0512 -0.6083  0.0589
 3738SOL     OW14717   0.551   1.875   0.012  0.3939 -0.1675 -0.0540
 3738SOL    HW214718   0.626   1.888   0.070 -0.7876  0.8964  1.2890
 3738SOL    HW314719   0.537   1.961  -0.028  0.1845 -0.4884 -0.6873
 3738SOL    MW414720   0.559   1.888   0.014  0.2104 -0.0695  0.0396
 3739SOL     OW14721   0.508   0.496   5.741 -0.3719 -0.1076  0.4728
 3739SOL    HW214722   0.494   0.431   5.672  1.9619  1.1603 -1.3417
 3739SOL    HW314723   0.426   0.546   5.743 -1.0361 -1.1190 -0.3104
 3739SOL    MW414724   0.495   0.494   5.732 -0.1516 -0.0738  0.1301
 3740SOL     OW14725   5.798   1.367   4.260 -0.1831  0.1189  0.8873
 3740SOL    HW214726   5.849   1.290   4.238 -0.9358 -0.3226  0.6547
 3740SOL    HW314727   5.730   1.336   4.320 -0.7278  0.5201  0.4934
 3740SOL    MW414728   5.795   1.353   4.265 -0.3543  0.1135  0.8046
 3741SOL     OW14729   0.840   0.799   3.519  0.7066 -0.0280 -0.2568
 3741SOL    HW214730   0.935   0.785   3.517  0.7369 -0.7788  2.7118
 3741SOL    HW314731   0.821   0.823   3.610 -1.7205  2.2556 -1.2218
 3741SOL    MW414732   0.850   0.801   3.531  0.3904  0.1742  0.0075
 3742SOL     OW14733   1.228   4.120   0.197 -0.1568  0.3116  0.1224
 3742SOL    HW214734   1.146   4.166   0.212 -1.9528 -3.4400  3.3480
 3742SOL    HW314735   1.283   4.144   0.271  0.7654  0.8057 -0.6874
 3742SOL    MW414736   1.225   4.129   0.209 -0.2721 -0.1182  0.4412
 3743SOL     OW14737   1.543   4.806   0.085  0.2388  0.0320  0.2833
 3743SOL    HW214738   1.511   4.724   0.048 -2.6241 -0.2769  2.9914
 3743SOL    HW314739   1.588   4.780   0.166 -0.8968  1.0919  1.2903
 3743SOL    MW414740   1.545   4.792   0.091 -0.2888  0.1311  0.7735
 3744SOL     OW14741   2.674   5.166   2.611  0.4554  0.7574  0.3667
 3744SOL    HW214742   2.755   5.186   2.565  1.9480 -1.8422  1.6503
 3744SOL    HW314743   2.701   5.114   2.686 -2.2583  1.4208  1.9502
 3744SOL    MW414744   2.688   5.162   2.615  0.2943  0.5019  0.7450
 3745SOL     OW14745   3.601   0.586   4.709 -0.4011  0.5072  0.1815
 3745SOL    HW214746   3.512   0.565   4.734 -0.8618  1.9415 -0.1389
 3745SOL    HW314747   3.653   0.571   4.788 -1.2616  1.5722  0.9780
 3745SOL    MW414748   3.596   0.581   4.723 -0.5754  0.8370  0.2443
 3746SOL     OW14749   0.502   5.812   2.633  0.0591  0.0271  0.3542
 3746SOL    HW214750   0.487   5.830   2.726  1.4950  1.3569  0.3791
 3746SOL    HW314751   0.520   5.719   2.629  0.2521 -0.0019  1.4588
 3746SOL    MW414752   0.502   5.802   2.645  0.2740  0.1987  0.5032
 3747SOL     OW14753   3.187   5.171   2.506  0.0881  0.4159  0.5832
 3747SOL    HW214754   3.107   5.213   2.475 -0.4682 -1.3723 -0.4973
 3747SOL    HW314755   3.157   5.102   2.565  0.8492 -0.1512  0.3162
 3747SOL    MW414756   3.172   5.167   2.510  0.1151  0.1051  0.4054
 3748SOL     OW14757   3.102   4.383   1.672  0.6250 -0.3757 -0.8201
 3748SOL    HW214758   3.125   4.348   1.758  1.5045  0.7531 -0.5788
 3748SOL    HW314759   3.008   4.366   1.664  0.5443 -0.5412  0.3392
 3748SOL    MW414760   3.093   4.376   1.682  0.7304 -0.2486 -0.6353
 3749SOL     OW14761   5.291   4.511   6.278  0.0525  0.5664 -0.6799
 3749SOL    HW214762   5.261   4.488   6.190  0.1575 -2.2963 -0.0705
 3749SOL    HW314763   5.261   4.438   6.334  2.6240  0.7127  1.0779
 3749SOL    MW414764   5.283   4.498   6.274  0.4056  0.2080 -0.3676
 3750SOL     OW14765   4.986   3.215   6.308 -0.2740  0.2275  0.2267
 3750SOL    HW214766   5.013   3.150   6.373 -1.7028  2.2628  3.0714
 3750SOL    HW314767   4.892   3.201   6.296 -0.6444  1.8094  1.0225
 3750SOL    MW414768   4.977   3.205   6.315 -0.5114  0.7047  0.7070
 3751SOL     OW14769   1.107   1.725   0.613 -0.5950 -0.6831  0.7406
 3751SOL    HW214770   1.070   1.795   0.666 -0.4549 -1.8615  2.4523
 3751SOL    HW314771   1.142   1.770   0.536 -2.0616  0.9127  0.9270
 3751SOL    MW414772   1.106   1.740   0.609 -0.7700 -0.6280  0.9910
 3752SOL     OW14773   1.501   5.610   0.799 -0.5536  0.6678 -0.4665
 3752SOL    HW214774   1.426   5.578   0.849 -1.4079  0.3215 -1.9281
 3752SOL    HW314775   1.523   5.538   0.740 -0.2798  1.4838 -1.3816
 3752SOL    MW414776   1.494   5.596   0.798 -0.6302  0.7298 -0.7801
 3753SOL     OW14777   0.803   2.299   3.871  0.3524 -0.3715 -0.6307
 3753SOL    HW214778   0.707   2.309   3.875  0.4926  0.6567  1.1531
 3753SOL    HW314779   0.819   2.208   3.898 -0.0741 -0.2582  0.0157
 3753SOL    MW414780   0.792   2.288   3.875  0.3146 -0.2209 -0.3100
 3754SOL     OW14781   3.873   2.386   3.252 -0.4008 -0.4986 -0.0504
 3754SOL    HW214782   3.964   2.409   3.232 -0.4457  0.6950  1.0132
 3754SOL    HW314783   3.821   2.435   3.189 -0.4623  1.9961  1.7975
 3754SOL    MW414784   3.878   2.395   3.241 -0.4148 -0.0120  0.3337
 3755SOL     OW14785   5.014   0.644   5.084  0.6486 -0.0382 -0.5263
 3755SOL    HW214786   4.988   0.558   5.118 -1.0171  0.7861  0.4535
 3755SOL    HW314787   5.039   0.627   4.993  0.5760 -1.5856 -0.2887
 3755SOL    MW414788   5.014   0.630   5.076  0.4193 -0.1336 -0.3657
 3756SOL     OW14789   1.682   5.712   4.752  0.8642  0.4600  0.1948
 3756SOL    HW214790   1.754   5.715   4.815  2.3759  0.1484 -1.4428
 3756SOL    HW314791   1.705   5.641   4.692 -1.0749  0.0107 -0.1090
 3756SOL    MW414792   1.694   5.703   4.752  0.8078  0.3596 -0.0614
 3757SOL     OW14793   2.926   4.186   2.155  0.2747 -0.1366 -0.0804
 3757SOL    HW214794   2.907   4.280   2.154  2.0470  0.2582 -0.5895
 3757SOL    HW314795   2.988   4.175   2.227 -2.2590 -1.4953  2.0554
 3757SOL    MW414796   2.931   4.197   2.164  0.1742 -0.2638  0.1343
 3758SOL     OW14797   3.172   0.374   1.920 -0.7245  0.2671  0.6111
 3758SOL    HW214798   3.249   0.321   1.937 -1.3421 -0.8447  0.1253
 3758SOL    HW314799   3.145   0.407   2.005  0.3717  0.8012  0.7587
 3758SOL    MW414800   3.178   0.371   1.933 -0.6614  0.1909  0.5665
 3759SOL     OW14801   0.860   3.839   3.296  0.3637  0.1397  0.0372
 3759SOL    HW214802   0.832   3.762   3.247  1.3429 -0.2222  0.0209
 3759SOL    HW314803   0.871   3.908   3.230  2.1767 -0.4832 -0.3777
 3759SOL    MW414804   0.858   3.838   3.281  0.7321  0.0098 -0.0197
 3760SOL     OW14805   4.385   2.813   5.813 -0.1822  0.2481  0.0581
 3760SOL    HW214806   4.354   2.723   5.828 -2.5577  1.1628  1.0374
 3760SOL    HW314807   4.466   2.819   5.864 -0.8283 -0.8715  1.2821
 3760SOL    MW414808   4.392   2.802   5.822 -0.5809  0.2211  0.3488
 3761SOL     OW14809   4.128   5.194   5.187 -0.1299  0.5824 -0.1413
 3761SOL    HW214810   4.050   5.163   5.141 -0.0281  1.0237 -0.6239
 3761SOL    HW314811   4.184   5.229   5.117 -0.1036  1.5466  0.3540
 3761SOL    MW414812   4.125   5.195   5.171 -0.1130  0.7678 -0.1396
 3762SOL     OW14813   5.213   3.301   4.713  0.3063  0.2883 -0.3273
 3762SOL    HW214814   5.155   3.297   4.789 -0.6224  0.0977 -1.0262
 3762SOL    HW314815   5.261   3.383   4.723 -0.7990  0.9401 -0.2417
 3762SOL    MW414816   5.212   3.311   4.725  0.0380  0.3492 -0.4083
 3763SOL     OW14817   4.814   5.695   5.723  0.6307  0.6526 -0.2276
 3763SOL    HW214818   4.731   5.739   5.739 -1.7606 -2.9121 -1.5869
 3763SOL    HW314819   4.848   5.675   5.811 -0.7004  0.8788  0.3516
 3763SOL    MW414820   4.808   5.698   5.737  0.1396  0.2122 -0.3305
 3764SOL     OW14821   1.220   5.753   0.609 -0.1065 -0.2710  0.6411
 3764SOL    HW214822   1.313   5.749   0.589  0.0585  1.0090  1.0256
 3764SOL    HW314823   1.178   5.703   0.540  0.6087  2.1172 -1.7006
 3764SOL    MW414824   1.227   5.746   0.597  0.0097  0.2129  0.3829
 3765SOL     OW14825   5.207   5.958   5.569  0.3926 -0.2740 -0.4256
 3765SOL    HW214826   5.154   5.883   5.599 -2.5709  1.9611  0.4412
 3765SOL    HW314827   5.188   6.027   5.633  2.2116  1.5499 -1.7402
 3765SOL    MW414828   5.197   5.957   5.582  0.2416  0.2615 -0.4847
 3766SOL     OW14829   4.745   2.101   2.319 -0.1896  0.1749 -0.3078
 3766SOL    HW214830   4.671   2.117   2.376 -0.5375  1.3306 -1.0495
 3766SOL    HW314831   4.774   2.188   2.292  0.1772 -0.3241 -1.6028
 3766SOL    MW414832   4.739   2.114   2.323 -0.1871  0.2616 -0.5766
 3767SOL     OW14833   1.496   1.280   1.749 -0.3921 -0.1774  0.1735
 3767SOL    HW214834   1.471   1.321   1.666 -1.2877 -0.0776  0.4843
 3767SOL    HW314835   1.472   1.188   1.738  2.0415 -0.7839 -0.7005
 3767SOL    MW414836   1.490   1.273   1.736 -0.1892 -0.2442  0.0992
 3768SOL     OW14837   0.532   1.785   5.627  0.7980 -0.3616  0.5583
 3768SOL    HW214838   0.437   1.789   5.633  0.8270  1.7198  0.4301
 3768SOL    HW314839   0.550   1.718   5.562 -0.6949  1.0998 -1.4594
 3768SOL    MW414840   0.522   1.777   5.619  0.6048  0.1058  0.2751
 3769SOL     OW14841   4.289   0.714   3.964  0.0941  0.0808 -0.1833
 3769SOL    HW214842   4.239   0.759   3.895  0.4388 -0.5384 -0.8455
 3769SOL    HW314843   4.365   0.771   3.978 -0.4599  0.7034  0.3840
 3769SOL    MW414844   4.293   0.728   3.956  0.0665  0.0813 -0.1958
 3770SOL     OW14845   6.175   0.381   2.800  0.4243  1.2155 -0.3120
 3770SOL    HW214846   6.120   0.343   2.731  0.6750  0.0063  0.1339
 3770SOL    HW314847   6.119   0.446   2.842 -1.2971 -1.0900  1.1863
 3770SOL    MW414848   6.160   0.384   2.796  0.2302  0.7518 -0.0555
 3771SOL     OW14849   5.622   5.404   0.842  0.2175 -0.8811 -0.5523
 3771SOL    HW214850   5.543   5.458   0.837 -0.4526 -1.7802  0.0254
 3771SOL    HW314851   5.675   5.446   0.910  0.2574 -0.2668 -0.9528
 3771SOL    MW414852   5.618   5.416   0.850  0.1344 -0.9187 -0.5289
 3772SOL     OW14853   3.890   4.203   3.832  0.1243  0.0508  0.2411
 3772SOL    HW214854   3.814   4.203   3.889  0.3643 -1.1092  0.5992
 3772SOL    HW314855   3.891   4.115   3.794  1.1050  0.1436  0.0192
 3772SOL    MW414856   3.880   4.191   3.835  0.2853 -0.0900  0.2591
 3773SOL     OW14857   1.479   5.434   4.911 -0.4411 -0.1600  0.4238
 3773SOL    HW214858   1.457   5.461   4.822 -1.1776 -0.9931  0.3354
 3773SOL    HW314859   1.412   5.473   4.966  0.4004  0.9180  0.7165
 3773SOL    MW414860   1.467   5.442   4.907 -0.4272 -0.1277  0.4508
 3774SOL     OW14861   0.584   0.710   0.307 -0.1361 -0.4413 -0.1320
 3774SOL    HW214862   0.538   0.627   0.294  0.4088 -0.5731 -1.3743
 3774SOL    HW314863   0.666   0.685   0.348 -0.3656 -0.4096  0.3520
 3774SOL    MW414864   0.589   0.696   0.311 -0.0945 -0.4545 -0.2320
 3775SOL     OW14865   4.636   1.191   3.108 -0.4882  0.1253  0.2950
 3775SOL    HW214866   4.719   1.197   3.156  0.1754  0.6436 -0.8873
 3775SOL    HW314867   4.618   1.097   3.103 -0.8819  0.0695  2.0348
 3775SOL    MW414868   4.644   1.180   3.114 -0.4526  0.1863  0.3685
 3776SOL     OW14869   1.555   4.693   5.331  0.0557  0.3155 -0.1449
 3776SOL    HW214870   1.482   4.673   5.389  0.2735  0.6639  0.2554
 3776SOL    HW314871   1.568   4.787   5.340  0.8662  0.1821  0.1669
 3776SOL    MW414872   1.547   4.702   5.340  0.1914  0.3438 -0.0509
 3777SOL     OW14873   1.273   6.121   6.291  0.0456 -0.2647  0.1815
 3777SOL    HW214874   1.228   6.189   6.341  1.2960 -0.4445  1.5889
 3777SOL    HW314875   1.209   6.049   6.287 -1.3175  0.9435 -1.3890
 3777SOL    MW414876   1.258   6.120   6.297  0.0307 -0.1290  0.1600
 3778SOL     OW14877   2.115   4.811   6.137  0.4516 -0.0695 -0.3835
 3778SOL    HW214878   2.167   4.783   6.062 -1.1506 -0.1114 -1.5420
 3778SOL    HW314879   2.025   4.810   6.105 -0.3570 -0.6831  1.7252
 3778SOL    MW414880   2.110   4.807   6.123  0.1335 -0.1560 -0.2581
 3779SOL     OW14881   4.994   5.845   4.433  0.0975 -0.3330  0.4522
 3779SOL    HW214882   4.991   5.879   4.522 -0.4199 -1.6050  0.9473
 3779SOL    HW314883   4.930   5.774   4.432 -0.3887  0.0801 -1.1245
 3779SOL    MW414884   4.985   5.840   4.445 -0.0349 -0.4463  0.3095
 3780SOL     OW14885   0.456   3.856   4.874 -0.3234 -0.1752  0.2343
 3780SOL    HW214886   0.373   3.826   4.836 -0.4135 -0.0685  0.3469
 3780SOL    HW314887   0.522   3.829   4.810 -0.7279  2.7264 -1.6212
 3780SOL    MW414888   0.454   3.849   4.860 -0.3886  0.2217  0.0044
 3781SOL     OW14889   0.702   5.385   4.813 -0.6589 -0.0701  0.0227
 3781SOL    HW214890   0.662   5.458   4.859 -2.6772 -0.5876 -0.8140
 3781SOL    HW314891   0.629   5.338   4.774  0.4443 -3.1208  1.3119
 3781SOL    MW414892   0.687   5.388   4.814 -0.7796 -0.5409  0.0824
 3782SOL     OW14893   3.525   5.029   1.908 -0.0695 -0.2180 -0.0073
 3782SOL    HW214894   3.506   5.077   1.827  2.2653  3.2380  1.2658
 3782SOL    HW314895   3.564   4.947   1.878 -1.2969 -0.0614 -2.3282
 3782SOL    MW414896   3.527   5.025   1.893  0.0766  0.2587 -0.1456
 3783SOL     OW14897   2.531   0.489   1.199  0.1261  0.3113 -0.3141
 3783SOL    HW214898   2.622   0.484   1.170  0.2853  1.7318 -0.1119
 3783SOL    HW314899   2.507   0.581   1.187 -0.3453  0.6072  2.3752
 3783SOL    MW414900   2.540   0.500   1.194  0.0849  0.5377  0.0674
 3784SOL     OW14901   5.976   1.505   1.210  0.2821  0.2566  0.2751
 3784SOL    HW214902   6.056   1.477   1.254  0.5001 -0.9267 -0.8137
 3784SOL    HW314903   5.905   1.466   1.261  0.5433 -1.3335 -0.5358
 3784SOL    MW414904   5.977   1.496   1.222  0.3453 -0.1094  0.0245
 3785SOL     OW14905   2.141   1.388   1.337 -0.1392 -0.3135  0.5565
 3785SOL    HW214906   2.217   1.339   1.306 -0.5964 -0.4755 -0.3498
 3785SOL    HW314907   2.066   1.332   1.314 -0.6833  0.8543 -0.6392
 3785SOL    MW414908   2.141   1.374   1.329 -0.2713 -0.1808  0.2792
 3786SOL     OW14909   0.329   2.306   5.189 -0.3390  0.1050 -0.0710
 3786SOL    HW214910   0.391   2.372   5.220 -1.3453 -0.1251  2.7587
 3786SOL    HW314911   0.275   2.286   5.266 -0.7731 -3.2397 -1.0795
 3786SOL    MW414912   0.330   2.312   5.203 -0.5290 -0.3667  0.1693
 3787SOL     OW14913   5.663   4.650   5.417  0.2764  0.0191 -0.1517
 3787SOL    HW214914   5.743   4.597   5.413 -0.1288 -0.7133  0.8937
 3787SOL    HW314915   5.687   4.725   5.472  0.2627 -0.1852  0.1375
 3787SOL    MW414916   5.677   4.653   5.424  0.2211 -0.1045  0.0244
 3788SOL     OW14917   3.635   3.126   4.619 -0.1336  0.0196  0.1660
 3788SOL    HW214918   3.611   3.069   4.546  0.5144 -0.0399 -0.0105
 3788SOL    HW314919   3.708   3.081   4.662 -0.8444 -0.2028  1.1766
 3788SOL    MW414920   3.641   3.112   4.615 -0.1419 -0.0176  0.2760
 3789SOL     OW14921   4.734   5.646   1.613 -0.6742 -0.5572  0.3298
 3789SOL    HW214922   4.748   5.666   1.705  3.4765  3.6072 -0.8087
 3789SOL    HW314923   4.668   5.708   1.584  2.4889  2.7858 -0.4579
 3789SOL    MW414924   4.727   5.657   1.621  0.2907  0.4333  0.0757
 3790SOL     OW14925   2.716   4.677   3.656  0.5018  0.2297  0.2977
 3790SOL    HW214926   2.760   4.762   3.654  0.6564  0.1978  1.4308
 3790SOL    HW314927   2.773   4.619   3.605  1.5862  0.2994  1.3821
 3790SOL    MW414928   2.730   4.680   3.649  0.6652  0.2347  0.5903
 3791SOL     OW14929   5.496   2.732   4.610  0.2650 -0.1070 -0.1542
 3791SOL    HW214930   5.519   2.825   4.617 -1.0531  0.3593 -1.4884
 3791SOL    HW314931   5.405   2.732   4.579  0.5764 -1.8343 -1.2149
 3791SOL    MW414932   5.487   2.745   4.607  0.1322 -0.2734 -0.4702
 3792SOL     OW14933   4.457   4.971   0.852  0.0272 -0.4583 -0.1158
 3792SOL    HW214934   4.448   5.066   0.847 -0.6981 -0.5657 -1.1339
 3792SOL    HW314935   4.545   4.957   0.889  0.5817  0.6033 -0.9750
 3792SOL    MW414936   4.468   4.981   0.856  0.0047 -0.3324 -0.3635
 3793SOL     OW14937   5.000   0.796   0.475  0.5802 -0.4672  0.0865
 3793SOL    HW214938   4.933   0.736   0.444  1.0387 -1.2632  0.6133
 3793SOL    HW314939   5.041   0.830   0.395 -0.1655 -0.2981 -0.2247
 3793SOL    MW414940   4.997   0.793   0.460  0.5423 -0.5499  0.1149
 3794SOL     OW14941   3.015   4.138   4.240  0.7707 -0.3983  0.4770
 3794SOL    HW214942   3.087   4.198   4.220 -0.5715  1.4400  0.8923
 3794SOL    HW314943   2.968   4.181   4.311 -0.5641 -1.7000  0.4186
 3794SOL    MW414944   3.018   4.152   4.247  0.4175 -0.3275  0.5241
 3795SOL     OW14945   3.027   4.468   2.955 -0.3231 -0.4322 -0.0955
 3795SOL    HW214946   2.960   4.405   2.984 -1.0844 -0.0009 -0.8758
 3795SOL    HW314947   3.034   4.454   2.861 -1.4196  1.4845 -0.5017
 3795SOL    MW414948   3.019   4.458   2.947 -0.5682 -0.1224 -0.2521
 3796SOL     OW14949   3.814   5.405   5.507  0.4189 -0.0272 -0.6516
 3796SOL    HW214950   3.726   5.421   5.540  1.1112 -0.1930  1.4200
 3796SOL    HW314951   3.853   5.493   5.499  1.4441 -0.0296  2.6872
 3796SOL    MW414952   3.808   5.419   5.510  0.6455 -0.0494  0.0622
 3797SOL     OW14953   0.589   2.482   1.948 -0.0953 -0.0353  0.3766
 3797SOL    HW214954   0.646   2.436   1.886 -1.2500  0.5123 -1.1681
 3797SOL    HW314955   0.501   2.474   1.910 -1.4050 -2.1651  3.4120
 3797SOL    MW414956   0.585   2.475   1.935 -0.4204 -0.2440  0.5732
 3798SOL     OW14957   0.293   4.804   2.824  0.0986  0.1807 -0.1936
 3798SOL    HW214958   0.370   4.852   2.794  0.0297 -0.1031 -0.8374
 3798SOL    HW314959   0.270   4.846   2.907  0.5366  0.7098 -0.3323
 3798SOL    MW414960   0.300   4.816   2.831  0.1473  0.2131 -0.2968
 3799SOL     OW14961   5.414   2.806   1.614 -0.1967 -0.2003 -0.0220
 3799SOL    HW214962   5.382   2.717   1.597 -0.2796 -0.2105  0.1828
 3799SOL    HW314963   5.362   2.836   1.688  1.4711 -0.8812  1.5134
 3799SOL    MW414964   5.403   2.798   1.622  0.0124 -0.2915  0.2076
 3800SOL     OW14965   3.032   0.676   0.427  0.6984 -0.3106 -0.0879
 3800SOL    HW214966   3.002   0.716   0.508 -0.2553 -0.4373 -0.3657
 3800SOL    HW314967   3.113   0.631   0.451  0.6024 -0.0745  0.7114
 3800SOL    MW414968   3.039   0.676   0.441  0.5599 -0.2962 -0.0191
 3801SOL     OW14969   3.876   5.714   2.124 -0.2798  0.2516 -0.4606
 3801SOL    HW214970   3.846   5.725   2.214  2.6445 -1.6346  0.9432
 3801SOL    HW314971   3.818   5.647   2.088 -0.6713  0.0451  0.5083
 3801SOL    MW414972   3.865   5.706   2.131  0.0544 -0.0245 -0.1476
 3802SOL     OW14973   4.299   2.035   3.142 -0.4520  0.0463  0.3371
 3802SOL    HW214974   4.301   2.064   3.233 -1.1538  0.1368  0.3301
 3802SOL    HW314975   4.207   2.044   3.116  0.1594  2.8810 -1.2782
 3802SOL    MW414976   4.287   2.040   3.150 -0.4639  0.4322  0.1231
 3803SOL     OW14977   1.061   2.396   0.675  0.1698 -0.2610 -0.2954
 3803SOL    HW214978   0.970   2.367   0.682  0.5163 -1.4046 -0.2081
 3803SOL    HW314979   1.056   2.491   0.666 -1.1066 -0.4567 -2.0366
 3803SOL    MW414980   1.048   2.405   0.675  0.0471 -0.4377 -0.5136
 3804SOL     OW14981   4.664   4.742   2.557  0.3173 -0.0224  0.3901
 3804SOL    HW214982   4.627   4.817   2.512 -0.0425 -0.1849  0.4114
 3804SOL    HW314983   4.610   4.732   2.636 -0.0646 -0.7035  0.0563
 3804SOL    MW414984   4.652   4.750   2.562  0.2194 -0.1337  0.3489
 3805SOL     OW14985   0.555   4.789   3.424  0.6179 -0.4920 -0.2353
 3805SOL    HW214986   0.464   4.777   3.451 -0.1119  1.4928 -1.5478
 3805SOL    HW314987   0.590   4.854   3.485  0.9662 -0.8204 -0.0869
 3805SOL    MW414988   0.548   4.796   3.435  0.5676 -0.2735 -0.3889
 3806SOL     OW14989   2.229   6.380   4.967  0.4826 -0.1027  0.0231
 3806SOL    HW214990   2.228   6.464   5.013 -1.7681 -0.4665  0.7789
 3806SOL    HW314991   2.156   6.386   4.904 -0.2276 -1.7364  0.6336
 3806SOL    MW414992   2.219   6.392   4.965  0.0919 -0.3662  0.2033
 3807SOL     OW14993   6.412   2.740   0.372 -0.0747 -0.1127 -0.2134
 3807SOL    HW214994   6.377   2.676   0.434 -1.4268 -0.9894 -1.7828
 3807SOL    HW314995   6.336   2.764   0.318  0.7270  1.7428 -0.5839
 3807SOL    MW414996   6.397   2.735   0.373 -0.1473  0.0165 -0.4694
 3808SOL     OW14997   6.026   3.175   0.289 -0.1357  0.1792 -0.0498
 3808SOL    HW214998   6.078   3.131   0.356 -1.5265 -0.4792  0.6610
 3808SOL    HW314999   6.034   3.268   0.310 -0.8090 -0.0319  1.2740
 3808SOL    MW415000   6.034   3.182   0.301 -0.4080  0.0645  0.2187
 3809SOL     OW15001   2.952   5.188   4.576  0.3958  0.1379  0.1591
 3809SOL    HW215002   2.915   5.273   4.598 -1.0985 -0.6890  1.0055
 3809SOL    HW315003   2.876   5.133   4.557  1.3380 -0.9962 -0.4749
 3809SOL    MW415004   2.937   5.192   4.576  0.3229 -0.1209  0.1871
 3810SOL     OW15005   4.594   0.941   2.533  0.1514  0.1360 -0.3176
 3810SOL    HW215006   4.541   0.907   2.605 -1.5241  0.3669 -1.3648
 3810SOL    HW315007   4.668   0.880   2.527 -0.7440 -1.0655  0.3099
 3810SOL    MW415008   4.597   0.928   2.541 -0.1878  0.0079 -0.3730
 3811SOL     OW15009   1.061   1.407   6.240  0.4683  0.5472 -0.2575
 3811SOL    HW215010   1.059   1.343   6.169  2.7009 -0.6115  0.6004
 3811SOL    HW315011   0.989   1.467   6.221 -2.1921 -2.5224 -0.8056
 3811SOL    MW415012   1.052   1.407   6.228  0.4119 -0.0107 -0.2166
 3812SOL     OW15013   4.457   6.353   2.398  0.5382  0.2587 -0.2633
 3812SOL    HW215014   4.546   6.359   2.364  0.3473 -1.5170 -1.1868
 3812SOL    HW315015   4.447   6.261   2.421 -1.7230 -0.0123 -2.0692
 3812SOL    MW415016   4.468   6.342   2.397  0.2147 -0.0114 -0.6234
 3813SOL     OW15017   6.109   6.065   6.367  0.1685 -0.4526 -0.3573
 3813SOL    HW215018   6.150   6.112   6.295 -2.7265 -0.0076 -1.8721
 3813SOL    HW315019   6.099   6.131   6.436 -0.8404  0.3308 -1.2095
 3813SOL    MW415020   6.113   6.080   6.367 -0.3466 -0.2905 -0.6696
 3814SOL     OW15021   3.903   5.833   5.632  0.2707 -0.0833  0.1632
 3814SOL    HW215022   3.808   5.846   5.627  0.2464 -0.6143 -2.3917
 3814SOL    HW315023   3.916   5.779   5.710 -1.6379 -0.7616  0.0595
 3814SOL    MW415024   3.892   5.827   5.642  0.0157 -0.2429 -0.1875
 3815SOL     OW15025   5.995   5.419   2.629  0.8741  0.1302 -0.5005
 3815SOL    HW215026   5.950   5.380   2.703  2.2501  0.7545  0.7146
 3815SOL    HW315027   5.926   5.434   2.564 -0.4426 -0.0258  0.8137
 3815SOL    MW415028   5.980   5.416   2.630  0.8819  0.1920 -0.1668
 3816SOL     OW15029   4.515   5.678   2.278  0.3732  0.2712 -0.1454
 3816SOL    HW215030   4.442   5.620   2.300  0.1736  0.7159  0.4019
 3816SOL    HW315031   4.474   5.757   2.243  0.6625 -0.1024 -1.3754
 3816SOL    MW415032   4.500   5.681   2.276  0.3851  0.2806 -0.2355
 3817SOL     OW15033   0.295   1.150   5.688  0.6910  0.3366 -0.2804
 3817SOL    HW215034   0.303   1.064   5.647 -2.6555 -1.0312  1.5376
 3817SOL    HW315035   0.353   1.147   5.763  0.8354 -0.1951 -0.4146
 3817SOL    MW415036   0.304   1.139   5.692  0.2685  0.0860 -0.0582
 3818SOL     OW15037   1.066   3.978   5.807 -0.8428 -0.0921  0.0386
 3818SOL    HW215038   1.047   3.886   5.826 -0.4096 -0.5431 -1.5794
 3818SOL    HW315039   1.017   3.997   5.727 -0.6694  0.9978  0.1715
 3818SOL    MW415040   1.057   3.968   5.799 -0.7628 -0.0078 -0.1574
 3819SOL     OW15041   1.409   0.218   4.867  0.1290  0.7990 -0.4000
 3819SOL    HW215042   1.402   0.177   4.953  3.2741  0.5371 -0.1201
 3819SOL    HW315043   1.453   0.153   4.813 -2.1383  0.8113 -2.3994
 3819SOL    MW415044   1.414   0.204   4.871  0.2448  0.7660 -0.6268
 3820SOL     OW15045   1.275   3.101   3.807 -0.5360 -0.1442  0.0174
 3820SOL    HW215046   1.301   3.141   3.723 -1.1497 -0.4112 -0.3091
 3820SOL    HW315047   1.357   3.094   3.856 -0.5157  2.2498  0.4159
 3820SOL    MW415048   1.289   3.105   3.802 -0.6143  0.1364  0.0269
 3821SOL     OW15049   0.893   6.087   1.216  0.3155  0.4164 -0.0220
 3821SOL    HW215050   0.897   6.044   1.131 -0.1492 -0.2181  0.2686
 3821SOL    HW315051   0.961   6.044   1.268  1.4996  1.6984 -0.4553
 3821SOL    MW415052   0.902   6.075   1.212  0.4104  0.5018 -0.0408
 3822SOL     OW15053   6.328   3.645   6.021 -0.0117  0.0868 -0.4863
 3822SOL    HW215054   6.306   3.581   5.952 -0.2644  0.6882 -0.9714
 3822SOL    HW315055   6.416   3.675   5.999 -0.4523  0.9653 -1.0861
 3822SOL    MW415056   6.336   3.640   6.009 -0.1032  0.2820 -0.6294
 3823SOL     OW15057   4.530   0.335   3.747 -0.2321  0.6116 -0.6031
 3823SOL    HW215058   4.444   0.314   3.783 -0.7058  1.6415 -1.0902
 3823SOL    HW315059   4.568   0.396   3.811 -0.3237  1.0009 -0.9100
 3823SOL    MW415060   4.524   0.341   3.761 -0.3067  0.7988 -0.7079
 3824SOL     OW15061   2.739   2.734   4.703 -0.0482  0.5302 -0.0117
 3824SOL    HW215062   2.707   2.756   4.791 -0.8332  1.7060 -0.5810
 3824SOL    HW315063   2.690   2.790   4.644  0.7703  0.0495 -1.1908
 3824SOL    MW415064   2.728   2.744   4.707 -0.0437  0.6219 -0.2423
 3825SOL     OW15065   3.489   1.865   5.468  0.1439 -0.0822  0.1875
 3825SOL    HW215066   3.513   1.792   5.410  2.3860 -0.0882  1.0236
 3825SOL    HW315067   3.448   1.823   5.543 -0.8448 -0.2511 -0.4312
 3825SOL    MW415068   3.487   1.850   5.470  0.3093 -0.1052  0.2162
 3826SOL     OW15069   3.908   5.513   3.240 -0.4937 -0.1264 -0.3265
 3826SOL    HW215070   3.856   5.437   3.213  0.4520 -0.6372 -0.7471
 3826SOL    HW315071   3.927   5.559   3.159  0.3321 -0.3541 -0.2723
 3826SOL    MW415072   3.904   5.509   3.226 -0.2600 -0.2239 -0.3748
 3827SOL     OW15073   2.662   2.833   4.956 -0.4300  0.3147  0.1711
 3827SOL    HW215074   2.597   2.778   5.000  0.9964 -1.1615  0.5589
 3827SOL    HW315075   2.733   2.842   5.019  0.7404 -0.0693 -1.0353
 3827SOL    MW415076   2.663   2.827   4.970 -0.0874  0.0692  0.0631
 3828SOL     OW15077   3.118   5.879   4.527  0.0169  0.3745  0.6826
 3828SOL    HW215078   3.124   5.929   4.445 -1.3405  0.1693  0.4425
 3828SOL    HW315079   3.102   5.945   4.594 -1.3863  0.3279  0.4197
 3828SOL    MW415080   3.117   5.894   4.525 -0.3473  0.3413  0.6162
 3829SOL     OW15081   3.676   0.475   1.419  0.3083  0.5137 -0.0425
 3829SOL    HW215082   3.764   0.503   1.443  0.6394  0.6435 -1.3006
 3829SOL    HW315083   3.642   0.547   1.365 -0.2145  0.0562 -0.3319
 3829SOL    MW415084   3.683   0.488   1.415  0.2830  0.4705 -0.2467
 3830SOL     OW15085   1.941   6.272   1.356  0.1418 -0.5464 -0.2279
 3830SOL    HW215086   1.893   6.321   1.289  0.9431  0.3355 -0.1707
 3830SOL    HW315087   1.988   6.204   1.308 -0.2952 -0.7237 -0.4083
 3830SOL    MW415088   1.941   6.270   1.341  0.1899 -0.4534 -0.2442
 3831SOL     OW15089   3.963   4.967   4.514  0.7550 -0.1992  0.5382
 3831SOL    HW215090   4.003   4.881   4.501  0.9596 -0.2256  1.2805
 3831SOL    HW315091   3.960   4.978   4.609  1.4450  0.9381  0.4496
 3831SOL    MW415092   3.968   4.957   4.524  0.8730 -0.0526  0.6244
 3832SOL     OW15093   1.081   2.305   4.607 -0.3050  0.4238 -0.1418
 3832SOL    HW215094   1.141   2.314   4.681 -0.6219 -0.8557  0.3076
 3832SOL    HW315095   1.121   2.237   4.552 -0.1150  1.3046 -1.1130
 3832SOL    MW415096   1.094   2.297   4.610 -0.3217  0.3712 -0.2106
 3833SOL     OW15097   2.879   5.363   0.431 -0.4750  0.7576 -0.2303
 3833SOL    HW215098   2.823   5.292   0.463  0.3400  1.2244  2.5003
 3833SOL    HW315099   2.906   5.335   0.343 -2.0678 -1.1451 -0.1857
 3833SOL    MW415100   2.875   5.350   0.423 -0.5776  0.5682  0.1358
 3834SOL     OW15101   4.179   1.070   1.829  0.4157 -0.0378  0.0279
 3834SOL    HW215102   4.185   1.162   1.854  1.9911 -0.0518 -0.1473
 3834SOL    HW315103   4.192   1.022   1.910 -0.5152 -0.1216  0.1376
 3834SOL    MW415104   4.182   1.076   1.843  0.5007 -0.0507  0.0193
 3835SOL     OW15105   2.373   5.465   5.973 -0.0223  0.6154 -0.2511
 3835SOL    HW215106   2.309   5.501   5.912 -0.1804 -1.5728 -1.4716
 3835SOL    HW315107   2.453   5.513   5.956 -0.2586  0.5326 -1.6992
 3835SOL    MW415108   2.375   5.476   5.963 -0.0743  0.3158 -0.6032
 3836SOL     OW15109   3.140   6.077   3.966 -0.5805 -0.7365 -0.5264
 3836SOL    HW215110   3.198   6.073   4.042 -0.4094  1.6010 -0.4464
 3836SOL    HW315111   3.084   6.000   3.974 -1.4341  0.0580  2.7128
 3836SOL    MW415112   3.141   6.067   3.977 -0.6705 -0.3233 -0.0884
 3837SOL     OW15113   5.921   1.004   1.103 -0.2693 -0.1749 -0.0505
 3837SOL    HW215114   5.949   1.089   1.070  2.0557 -1.3025 -1.1504
 3837SOL    HW315115   5.987   0.980   1.168 -2.6958  0.2650  2.7871
 3837SOL    MW415116   5.933   1.012   1.107 -0.2827 -0.2656  0.1788
 3838SOL     OW15117   4.251   1.264   2.473  0.5331 -0.2514  0.2614
 3838SOL    HW215118   4.251   1.223   2.560  0.0483  1.0011  0.8882
 3838SOL    HW315119   4.159   1.282   2.456  0.8280  2.0483  0.7794
 3838SOL    MW415120   4.239   1.261   2.482  0.5080  0.2173  0.4124
 3839SOL     OW15121   1.288   6.249   4.272 -0.3446 -0.3041 -0.0460
 3839SOL    HW215122   1.326   6.295   4.197 -0.4271  0.0042  0.0965
 3839SOL    HW315123   1.204   6.217   4.240 -0.4585 -0.0209 -0.0378
 3839SOL    MW415124   1.282   6.251   4.258 -0.3705 -0.2260 -0.0261
 3840SOL     OW15125   3.945   2.444   0.170 -0.6611 -0.0582 -0.0474
 3840SOL    HW215126   3.855   2.450   0.200 -0.0743  0.0774  1.8195
 3840SOL    HW315127   3.976   2.535   0.168  0.1084 -0.2506  1.6364
 3840SOL    MW415128   3.938   2.457   0.174 -0.4822 -0.0657  0.4211
 3841SOL     OW15129   0.837   1.269   2.585  0.0513 -0.3237  0.3140
 3841SOL    HW215130   0.742   1.263   2.593  0.1163  0.5320  2.3180
 3841SOL    HW315131   0.869   1.186   2.623  0.1232  0.0970  1.2052
 3841SOL    MW415132   0.829   1.257   2.591  0.0694 -0.1553  0.6960
 3842SOL     OW15133   1.181   0.119   3.440 -0.1940 -0.0126 -0.1437
 3842SOL    HW215134   1.164   0.143   3.349 -0.8981 -0.6731 -0.1960
 3842SOL    HW315135   1.262   0.068   3.437 -1.1285 -1.5507 -0.6668
 3842SOL    MW415136   1.189   0.115   3.428 -0.4102 -0.3027 -0.2196
 3843SOL     OW15137   0.979   5.883   3.936 -0.4023 -0.2477 -0.2237
 3843SOL    HW215138   0.983   5.788   3.948  1.0203 -0.6021 -2.7871
 3843SOL    HW315139   0.889   5.906   3.959 -1.2430 -2.4657 -1.0136
 3843SOL    MW415140   0.968   5.874   3.941 -0.3255 -0.5871 -0.6662
 3844SOL     OW15141   6.408   2.190   4.888 -0.0861  0.2033 -0.0249
 3844SOL    HW215142   6.352   2.190   4.811  0.1154 -0.8324 -0.1858
 3844SOL    HW315143   6.491   2.228   4.857 -0.2117  0.3827 -0.1465
 3844SOL    MW415144   6.412   2.195   4.874 -0.0761  0.0903 -0.0621
 3845SOL     OW15145   5.464   5.199   0.491  0.4330  0.3973 -1.1025
 3845SOL    HW215146   5.549   5.156   0.482 -0.3010 -1.2478 -0.4738
 3845SOL    HW315147   5.404   5.129   0.517 -1.0157  1.6287 -1.0065
 3845SOL    MW415148   5.467   5.184   0.493  0.1450  0.3427 -1.0069
 3846SOL     OW15149   2.935   0.608   2.336  0.3598  0.3794  0.0456
 3846SOL    HW215150   2.881   0.682   2.308 -0.0656  0.0969  0.0995
 3846SOL    HW315151   2.878   0.532   2.324  0.3945  0.1780  1.0521
 3846SOL    MW415152   2.920   0.607   2.331  0.3082  0.3156  0.1855
 3847SOL     OW15153   6.387   5.013   2.472  0.0010  0.3479 -0.0071
 3847SOL    HW215154   6.449   5.040   2.540 -2.1194 -0.1454  2.2202
 3847SOL    HW315155   6.338   5.093   2.452 -0.0627  0.2533 -0.2311
 3847SOL    MW415156   6.389   5.027   2.478 -0.2872  0.2703  0.2572
 3848SOL     OW15157   6.245   5.578   2.173  0.0895 -0.5530 -0.2055
 3848SOL    HW215158   6.158   5.548   2.146  0.2962 -1.3637 -0.0145
 3848SOL    HW315159   6.229   5.642   2.242 -0.3371 -1.5218  0.6164
 3848SOL    MW415160   6.231   5.582   2.178  0.0605 -0.7878 -0.0719
 3849SOL     OW15161   2.148   3.068   5.936 -0.1480 -0.2534  0.0582
 3849SOL    HW215162   2.141   3.143   5.877  1.2512 -0.3981 -0.3179
 3849SOL    HW315163   2.142   3.106   6.024 -2.5294 -0.0657 -0.1245
 3849SOL    MW415164   2.146   3.083   5.940 -0.2776 -0.2478 -0.0156
 3850SOL     OW15165   3.397   4.643   5.093  0.2593 -0.5427 -0.4555
 3850SOL    HW215166   3.388   4.581   5.022 -0.6415 -0.3371 -0.5302
 3850SOL    HW315167   3.368   4.727   5.056 -0.8425 -0.5627  0.3270
 3850SOL    MW415168   3.392   4.646   5.079 -0.0049 -0.5183 -0.3621
 3851SOL     OW15169   0.775   1.943   3.085  0.7330 -0.1023  0.2060
 3851SOL    HW215170   0.838   1.989   3.029  0.0806  1.3407  0.6246
 3851SOL    HW315171   0.791   1.850   3.067  2.9570  0.2160  0.2942
 3851SOL    MW415172   0.785   1.937   3.075  0.9403  0.1301  0.2729
 3852SOL     OW15173   2.127   0.144   1.733  0.1526 -0.0031 -0.2465
 3852SOL    HW215174   2.056   0.193   1.774  0.0434 -1.2203  1.0995
 3852SOL    HW315175   2.198   0.208   1.724 -0.2322  0.5920  0.7795
 3852SOL    MW415176   2.127   0.159   1.737  0.0874 -0.0852  0.0665
 3853SOL     OW15177   5.322   5.192   5.075 -0.0962  0.5598  0.7466
 3853SOL    HW215178   5.369   5.261   5.029  0.5765 -0.8841 -0.8460
 3853SOL    HW315179   5.369   5.112   5.053 -3.1509 -0.9947 -0.9592
 3853SOL    MW415180   5.334   5.190   5.066 -0.4105  0.1642  0.3114
 3854SOL     OW15181   5.605   3.174   1.336  0.5660  0.5405 -0.1116
 3854SOL    HW215182   5.543   3.105   1.362  1.2273  0.5088  1.5012
 3854SOL    HW315183   5.564   3.216   1.260 -0.5826 -0.6182 -0.1715
 3854SOL    MW415184   5.591   3.170   1.329  0.5017  0.3835  0.0933
 3855SOL     OW15185   5.922   4.466   1.750 -0.4024 -0.1384  0.5307
 3855SOL    HW215186   5.830   4.488   1.737 -0.8897 -2.0017  0.4609
 3855SOL    HW315187   5.936   4.478   1.844 -0.4839  0.9260  0.4122
 3855SOL    MW415188   5.912   4.470   1.761 -0.4775 -0.2438  0.5058
 3856SOL     OW15189   1.333   1.578   2.113 -0.8198 -0.2505  0.3260
 3856SOL    HW215190   1.347   1.648   2.048  0.2421  0.6460  1.4723
 3856SOL    HW315191   1.263   1.525   2.076 -1.6874  1.4467 -0.5937
 3856SOL    MW415192   1.326   1.580   2.100 -0.7941  0.0917  0.3559
 3857SOL     OW15193   4.367   1.792   4.764 -0.7723 -0.4639  0.3203
 3857SOL    HW215194   4.394   1.725   4.701 -0.9767 -0.1714 -0.0761
 3857SOL    HW315195   4.388   1.875   4.722 -1.4306 -0.2550  0.4010
 3857SOL    MW415196   4.373   1.794   4.750 -0.8862 -0.3978  0.2787
 3858SOL     OW15197   3.418   1.229   1.791  0.4823 -0.0150 -0.1092
 3858SOL    HW215198   3.513   1.227   1.784  0.4205 -1.0800 -0.8107
 3858SOL    HW315199   3.397   1.165   1.859  0.2980  0.7880  0.6123
 3858SOL    MW415200   3.427   1.221   1.799  0.4498 -0.0496 -0.1066
 3859SOL     OW15201   1.105   1.751   2.136  0.6246 -0.1523 -0.1270
 3859SOL    HW215202   1.170   1.686   2.163  0.7156 -0.5644 -1.3007
 3859SOL    HW315203   1.027   1.730   2.188  0.4810 -1.5419 -0.8845
 3859SOL    MW415204   1.104   1.740   2.147  0.6177 -0.3900 -0.3818
 3860SOL     OW15205   0.754   5.111   4.908  0.1808  0.6312  0.3174
 3860SOL    HW215206   0.722   5.197   4.934 -3.1025 -0.4003  0.1267
 3860SOL    HW315207   0.751   5.111   4.812  1.6578  0.7510  0.2405
 3860SOL    MW415208   0.750   5.123   4.899 -0.0575  0.5110  0.2821
 3861SOL     OW15209   1.662   4.738   3.303 -0.3233 -0.2802 -0.3660
 3861SOL    HW215210   1.667   4.643   3.310  0.5895 -0.3406 -1.4735
 3861SOL    HW315211   1.753   4.766   3.292 -0.7814  0.4315 -2.9734
 3861SOL    MW415212   1.675   4.729   3.302 -0.2633 -0.1943 -0.8561
 3862SOL     OW15213   0.228   5.861   0.750  0.2170 -0.1160 -0.0737
 3862SOL    HW215214   0.182   5.877   0.667  0.4011  1.5506  0.1060
 3862SOL    HW315215   0.228   5.946   0.794  1.1757 -0.6944  1.1043
 3862SOL    MW415216   0.222   5.874   0.745  0.3678  0.0276  0.1055
 3863SOL     OW15217   0.453   4.070   4.405  0.1956  0.0977  0.7441
 3863SOL    HW215218   0.403   4.131   4.350 -0.7686 -1.8268 -0.6437
 3863SOL    HW315219   0.500   4.126   4.466 -0.3652  2.2462 -0.6675
 3863SOL    MW415220   0.453   4.086   4.406 -0.0056  0.1273  0.3748
 3864SOL     OW15221   6.026   4.686   5.616  0.6298  0.2112 -0.0847
 3864SOL    HW215222   6.030   4.720   5.706  0.6620 -1.3459  0.5275
 3864SOL    HW315223   6.108   4.639   5.604  0.5738  0.3071 -0.9027
 3864SOL    MW415224   6.037   4.684   5.626  0.6267  0.0184 -0.1118
 3865SOL     OW15225   2.236   1.819   2.715  0.1460  0.4578 -0.1515
 3865SOL    HW215226   2.260   1.784   2.801 -2.5450  1.1089  0.9853
 3865SOL    HW315227   2.147   1.787   2.701 -0.2428  2.0967 -1.7494
 3865SOL    MW415228   2.227   1.810   2.725 -0.2603  0.7599 -0.2123
 3866SOL     OW15229   2.141   2.309   4.270  0.1503 -0.5904  0.6149
 3866SOL    HW215230   2.213   2.271   4.219  1.0660  0.4245  1.1027
 3866SOL    HW315231   2.065   2.256   4.247  0.7119 -0.7142 -1.1500
 3866SOL    MW415232   2.141   2.297   4.260  0.3452 -0.4728  0.4464
 3867SOL     OW15233   0.305   3.195   2.711  0.0340 -0.1251  0.2703
 3867SOL    HW215234   0.293   3.111   2.755  0.6384 -0.0340  0.6232
 3867SOL    HW315235   0.373   3.180   2.646  1.4914  0.4995  1.5670
 3867SOL    MW415236   0.312   3.182   2.708  0.3060 -0.0306  0.4880
 3868SOL     OW15237   5.159   2.256   0.094 -0.1234  0.5642  0.2461
 3868SOL    HW215238   5.129   2.328   0.150 -0.4364  0.7461 -0.1503
 3868SOL    HW315239   5.178   2.297   0.010  1.0478  0.4129  0.4221
 3868SOL    MW415240   5.158   2.271   0.090 -0.0102  0.5683  0.2170
 3869SOL     OW15241   1.758   2.005   4.463 -0.0934  0.5684  0.1463
 3869SOL    HW215242   1.759   2.101   4.470 -0.4827  0.4367  2.5412
 3869SOL    HW315243   1.842   1.984   4.421  0.2348  1.9215  0.0689
 3869SOL    MW415244   1.770   2.015   4.458 -0.1015  0.7295  0.4521
 3870SOL     OW15245   5.971   1.190   4.969  0.1801  0.1507 -0.2494
 3870SOL    HW215246   5.968   1.251   4.895 -0.8366 -0.1714 -0.4909
 3870SOL    HW315247   6.002   1.243   5.043 -1.8019  1.2813 -0.1714
 3870SOL    MW415248   5.975   1.205   4.969 -0.2156  0.2574 -0.2710
 3871SOL     OW15249   1.780   4.314   1.937  0.2437  0.1005  0.5416
 3871SOL    HW215250   1.832   4.235   1.924  0.6785  0.3402  0.7884
 3871SOL    HW315251   1.738   4.302   2.023  0.0440 -0.0089  0.4287
 3871SOL    MW415252   1.782   4.302   1.947  0.2748  0.1177  0.5593
 3872SOL     OW15253   1.980   2.226   0.809  0.5355  0.1931  0.5602
 3872SOL    HW215254   2.023   2.208   0.725 -0.0235  0.7836  0.1327
 3872SOL    HW315255   2.028   2.173   0.872  0.2404 -1.1705 -0.3129
 3872SOL    MW415256   1.992   2.217   0.806  0.4228  0.0911  0.3886
 3873SOL     OW15257   6.417   3.444   4.200  0.0296  0.2073  0.3038
 3873SOL    HW215258   6.487   3.401   4.250  0.0999 -0.2090 -0.1463
 3873SOL    HW315259   6.381   3.509   4.261 -0.0764 -0.4907  1.0028
 3873SOL    MW415260   6.421   3.447   4.215  0.0249  0.0603  0.3367
 3874SOL     OW15261   1.884   3.465   4.855  0.0233  0.5536 -0.2039
 3874SOL    HW215262   1.929   3.412   4.921 -0.8217 -0.1664 -0.1820
 3874SOL    HW315263   1.934   3.451   4.775  2.3030  3.0610  0.6468
 3874SOL    MW415264   1.897   3.456   4.853  0.2126  0.7894 -0.0887
 3875SOL     OW15265   1.149   5.364   6.325  0.0666 -0.1538  0.0329
 3875SOL    HW215266   1.225   5.305   6.317  0.9265  0.7212  1.3732
 3875SOL    HW315267   1.085   5.313   6.375 -0.6553 -1.2478 -1.9090
 3875SOL    MW415268   1.151   5.349   6.331  0.0848 -0.1827 -0.0465
 3876SOL     OW15269   1.297   4.282   3.995 -0.4609 -0.1704 -0.4956
 3876SOL    HW215270   1.280   4.367   3.955  0.5555  1.4714  2.2614
 3876SOL    HW315271   1.213   4.256   4.033 -0.9927 -0.8839 -2.0993
 3876SOL    MW415272   1.284   4.290   3.995 -0.3969 -0.0479 -0.3434
 3877SOL     OW15273   4.118   6.017   6.237  0.2370  0.1474  0.8573
 3877SOL    HW215274   4.052   5.948   6.233 -2.0523  2.2169  1.0238
 3877SOL    HW315275   4.134   6.040   6.145 -1.3605  1.4640  0.8718
 3877SOL    MW415276   4.112   6.011   6.224 -0.2758  0.5941  0.8812
 3878SOL     OW15277   3.956   2.772   0.283  0.1527  0.1134 -0.1036
 3878SOL    HW215278   3.914   2.732   0.359 -0.7606  0.3488 -0.4703
 3878SOL    HW315279   3.884   2.811   0.233  0.9283  1.6960 -0.0731
 3878SOL    MW415280   3.941   2.772   0.286  0.1345  0.3533 -0.1480
 3879SOL     OW15281   1.207   0.321   0.139  0.0619  0.2859 -0.3180
 3879SOL    HW215282   1.202   0.282   0.052  0.5977 -0.6550  0.0499
 3879SOL    HW315283   1.169   0.254   0.197  1.5948  0.0008  0.4133
 3879SOL    MW415284   1.202   0.307   0.135  0.3349  0.1241 -0.1730
 3880SOL     OW15285   1.842   6.409   2.345 -0.3675 -0.1417  0.7182
 3880SOL    HW215286   1.927   6.370   2.367 -0.5219 -1.0385 -0.2160
 3880SOL    HW315287   1.820   6.462   2.421  1.5483  0.9989  0.5538
 3880SOL    MW415288   1.850   6.411   2.358 -0.1351 -0.1095  0.5732
 3881SOL     OW15289   0.151   1.894   0.698 -0.0472  0.1053 -0.1089
 3881SOL    HW215290   0.228   1.850   0.663 -0.6572 -1.2443  0.1473
 3881SOL    HW315291   0.079   1.865   0.642 -0.3796  1.3959 -0.3842
 3881SOL    MW415292   0.152   1.884   0.686 -0.1716  0.0975 -0.1114
 3882SOL     OW15293   2.820   5.889   2.111  0.5047  0.2277 -0.1267
 3882SOL    HW215294   2.792   5.932   2.030  0.7713  2.1691  0.7642
 3882SOL    HW315295   2.903   5.847   2.088  0.4304  0.4947 -0.9201
 3882SOL    MW415296   2.827   5.889   2.097  0.5301  0.5190 -0.1139
 3883SOL     OW15297   1.106   2.658   1.990 -1.1663  0.4564  0.4406
 3883SOL    HW215298   1.100   2.725   1.922 -2.9839  0.0834  0.1692
 3883SOL    HW315299   1.176   2.687   2.047 -1.5447  2.2968  0.0178
 3883SOL    MW415300   1.114   2.671   1.988 -1.4561  0.6500  0.3490
 3884SOL     OW15301   3.918   0.964   2.651 -0.8892  0.1319 -0.2239
 3884SOL    HW215302   3.930   0.989   2.559 -0.6558 -1.9462 -0.8101
 3884SOL    HW315303   3.980   1.019   2.699  2.3712 -1.8838 -1.8422
 3884SOL    MW415304   3.928   0.975   2.645 -0.4282 -0.4082 -0.5148
 3885SOL     OW15305   5.187   3.911   4.594 -0.9546 -0.2264 -0.2891
 3885SOL    HW215306   5.224   3.984   4.544 -0.7232 -0.6648 -0.7635
 3885SOL    HW315307   5.248   3.839   4.579 -0.6844 -0.2640  0.9216
 3885SOL    MW415308   5.200   3.911   4.585 -0.8884 -0.2892 -0.1920
 3886SOL     OW15309   2.759   5.527   6.190  0.0070 -0.5577 -0.0685
 3886SOL    HW215310   2.697   5.523   6.262  0.6750 -0.1660  0.5391
 3886SOL    HW315311   2.758   5.438   6.152 -1.4069 -0.3858 -0.5080
 3886SOL    MW415312   2.751   5.514   6.194 -0.0914 -0.4834 -0.0463
 3887SOL     OW15313   1.440   5.826   1.580  0.2349  0.1735 -0.2579
 3887SOL    HW215314   1.515   5.776   1.549  0.3320  0.1148  0.0684
 3887SOL    HW315315   1.458   5.842   1.673 -0.4379 -0.3481 -0.0321
 3887SOL    MW415316   1.452   5.822   1.588  0.1590  0.0969 -0.1850
 3888SOL     OW15317   1.040   2.902   1.137  0.2840  0.2062 -0.6188
 3888SOL    HW215318   0.969   2.840   1.118  1.0737 -1.1653  0.6336
 3888SOL    HW315319   1.029   2.923   1.230  1.1736  0.4186 -0.5512
 3888SOL    MW415320   1.029   2.897   1.147  0.5055  0.0533 -0.4446
 3889SOL     OW15321   0.279   4.620   1.169  0.2774 -0.0180  0.1346
 3889SOL    HW215322   0.358   4.672   1.176 -0.5420  1.1554  1.0340
 3889SOL    HW315323   0.211   4.682   1.140 -0.2438 -1.0815 -1.0457
 3889SOL    MW415324   0.280   4.635   1.166  0.1005 -0.0035  0.0975
 3890SOL     OW15325   6.058   0.481   3.141  0.3026  0.1715 -0.4117
 3890SOL    HW215326   6.141   0.519   3.169  0.5108 -0.0418 -0.7289
 3890SOL    HW315327   5.996   0.501   3.212  0.8290 -0.4016  0.2173
 3890SOL    MW415328   6.060   0.488   3.154  0.3995  0.0678 -0.3706
 3891SOL     OW15329   3.733   3.914   3.321 -0.3595 -0.3768  0.0105
 3891SOL    HW215330   3.660   3.916   3.259 -1.6934 -0.2576  1.5300
 3891SOL    HW315331   3.718   3.836   3.374 -0.2670  0.4943  1.3666
 3891SOL    MW415332   3.722   3.904   3.319 -0.5233 -0.2461  0.3899
 3892SOL     OW15333   0.335   4.726   0.833  0.4442 -0.3194 -0.1112
 3892SOL    HW215334   0.326   4.813   0.873  2.0226  0.3390 -1.0952
 3892SOL    HW315335   0.245   4.696   0.823 -0.1428  1.1508  0.3598
 3892SOL    MW415336   0.322   4.734   0.837  0.5750 -0.0385 -0.1788
 3893SOL     OW15337   3.388   6.096   2.351  0.4555  0.2579  0.3210
 3893SOL    HW215338   3.412   6.086   2.443 -0.0452 -0.5891  0.3581
 3893SOL    HW315339   3.304   6.141   2.352  0.1631 -0.2927  0.2886
 3893SOL    MW415340   3.380   6.101   2.363  0.3508  0.0735  0.3216
 3894SOL     OW15341   0.750   4.813   5.682 -0.0360  0.4797  0.0670
 3894SOL    HW215342   0.677   4.869   5.655 -1.3686 -0.9441  0.5733
 3894SOL    HW315343   0.754   4.745   5.615 -1.3387 -1.3025  1.6972
 3894SOL    MW415344   0.741   4.812   5.670 -0.3837  0.0567  0.3489
 3895SOL     OW15345   6.397   4.550   2.959 -0.2412  0.1852  0.1636
 3895SOL    HW215346   6.473   4.570   3.014 -0.2317 -1.0206  0.6275
 3895SOL    HW315347   6.391   4.624   2.899  0.9235  0.6036  0.5276
 3895SOL    MW415348   6.406   4.562   2.958 -0.0863  0.0813  0.2728
 3896SOL     OW15349   3.439   3.003   4.008 -0.1363  0.1587  0.1490
 3896SOL    HW215350   3.461   3.041   4.093  0.7308 -1.0268  0.4729
 3896SOL    HW315351   3.483   2.918   4.007  0.3554  0.3966 -1.7180
 3896SOL    MW415352   3.448   2.997   4.019  0.0430  0.0337 -0.0546
 3897SOL     OW15353   1.832   2.592   6.384 -0.5331  0.5638  0.1733
 3897SOL    HW215354   1.745   2.592   6.344 -0.0743  1.7822 -0.8815
 3897SOL    HW315355   1.847   2.500   6.407 -1.8977  0.2558 -0.0700
 3897SOL    MW415356   1.822   2.580   6.381 -0.6526  0.6840  0.0020
 3898SOL     OW15357   4.524   4.338   3.057 -0.5564  0.2117  0.3637
 3898SOL    HW215358   4.563   4.278   3.121 -1.8465  0.4621  1.4308
 3898SOL    HW315359   4.468   4.282   3.003 -1.2192  0.3166  0.9187
 3898SOL    MW415360   4.522   4.323   3.058 -0.8140  0.2586  0.5777
 3899SOL     OW15361   5.573   2.839   1.943 -0.0349 -0.0926 -0.2708
 3899SOL    HW215362   5.588   2.914   1.886 -1.4314  0.4808  0.0880
 3899SOL    HW315363   5.562   2.877   2.030 -0.5710 -0.7220 -0.0539
 3899SOL    MW415364   5.574   2.854   1.947 -0.2899 -0.1000 -0.1949
 3900SOL     OW15365   6.049   1.249   2.896 -0.8340 -0.0314  0.2856
 3900SOL    HW215366   6.111   1.178   2.912 -0.8114  0.1003  0.7914
 3900SOL    HW315367   5.991   1.215   2.827 -0.2704 -0.1967 -0.1140
 3900SOL    MW415368   6.050   1.235   2.889 -0.7566 -0.0358  0.2996
 3901SOL     OW15369   5.051   1.566   5.886  0.0200 -0.2249  0.5381
 3901SOL    HW215370   5.122   1.612   5.929 -1.8489 -0.1336  3.8919
 3901SOL    HW315371   5.060   1.588   5.793  1.8858  3.1115  1.3798
 3901SOL    MW415372   5.061   1.575   5.879  0.0196  0.2273  1.0917
 3902SOL     OW15373   6.268   1.582   6.197 -0.4748 -0.7477 -0.2697
 3902SOL    HW215374   6.174   1.595   6.201 -0.4691 -0.6583 -0.4049
 3902SOL    HW315375   6.284   1.500   6.243 -0.5622 -0.4923  0.2339
 3902SOL    MW415376   6.258   1.573   6.204 -0.4856 -0.7022 -0.2211
 3903SOL     OW15377   5.375   1.507   6.102 -0.1278 -0.3348 -0.3954
 3903SOL    HW215378   5.299   1.454   6.127  0.1667  0.0132  1.3797
 3903SOL    HW315379   5.337   1.588   6.067 -0.6048 -0.1434  0.5295
 3903SOL    MW415380   5.360   1.511   6.101 -0.1519 -0.2636 -0.0392
 3904SOL     OW15381   0.399   0.394   6.007  0.4447  0.8565  0.1621
 3904SOL    HW215382   0.390   0.481   6.046 -1.1462  0.3268  1.0704
 3904SOL    HW315383   0.438   0.411   5.921  2.3144  2.2155  1.1930
 3904SOL    MW415384   0.403   0.408   6.001  0.4815  0.9659  0.4179
 3905SOL     OW15385   0.800   0.063   5.215  0.0953  0.1085  0.3595
 3905SOL    HW215386   0.755  -0.009   5.260  0.7474 -2.3133 -2.5609
 3905SOL    HW315387   0.884   0.069   5.260 -1.0074  1.0320  2.4210
 3905SOL    MW415388   0.805   0.054   5.227  0.0358 -0.0892  0.2462
 3906SOL     OW15389   3.178   5.340   1.861  0.0079  0.2773  0.3745
 3906SOL    HW215390   3.204   5.268   1.804 -0.4027 -0.0796  0.6369
 3906SOL    HW315391   3.094   5.369   1.825 -1.5074 -1.5635  2.2482
 3906SOL    MW415392   3.171   5.334   1.849 -0.2462 -0.0127  0.6563
 3907SOL     OW15393   1.409   1.735   0.029  0.1692  0.1774 -0.6392
 3907SOL    HW215394   1.328   1.686   0.015 -0.4995  0.4597  1.8494
 3907SOL    HW315395   1.446   1.698   0.109  2.4470  0.1960 -1.6075
 3907SOL    MW415396   1.403   1.724   0.038  0.3815  0.2171 -0.4386
 3908SOL     OW15397   0.261   0.536   4.884  0.0853 -1.1081 -0.3150
 3908SOL    HW215398   0.349   0.513   4.912  0.3075 -0.1954 -0.2163
 3908SOL    HW315399   0.271   0.621   4.841 -0.6262 -1.3625 -1.0042
 3908SOL    MW415400   0.274   0.544   4.882  0.0208 -1.0212 -0.3929
 3909SOL     OW15401   1.662   3.673   0.834 -0.0081  0.5253  0.3320
 3909SOL    HW215402   1.709   3.637   0.910  0.4195  1.2124  0.4028
 3909SOL    HW315403   1.689   3.764   0.831  2.2043 -0.0988 -2.2889
 3909SOL    MW415404   1.672   3.680   0.844  0.3402  0.5336 -0.0045
 3910SOL     OW15405   2.128   2.946   4.533 -0.5350 -0.1885  0.8543
 3910SOL    HW215406   2.041   2.922   4.500  0.4386 -1.5441 -0.9381
 3910SOL    HW315407   2.149   2.878   4.597 -0.1475 -0.8389  0.0575
 3910SOL    MW415408   2.119   2.934   4.537 -0.3554 -0.4532  0.5127
 3911SOL     OW15409   5.799   6.229   2.502 -0.0919  0.6596  0.0307
 3911SOL    HW215410   5.830   6.268   2.421  0.5827  1.3595  0.6126
 3911SOL    HW315411   5.831   6.287   2.571 -0.8839  0.2255  0.7846
 3911SOL    MW415412   5.807   6.241   2.500 -0.1074  0.6946  0.2069
 3912SOL     OW15413   4.297   1.902   6.430 -0.2727 -0.6144  0.2408
 3912SOL    HW215414   4.312   1.923   6.522 -1.2630 -1.6341  0.6712
 3912SOL    HW315415   4.374   1.851   6.404 -0.5050 -1.3111  0.8617
 3912SOL    MW415416   4.309   1.898   6.439 -0.4340 -0.8409  0.3795
 3913SOL     OW15417   3.622   2.282   5.226 -0.0157  0.6184  0.6053
 3913SOL    HW215418   3.637   2.374   5.205 -2.1271  0.9826  0.4162
 3913SOL    HW315419   3.674   2.266   5.305  1.9801  1.3674 -0.4915
 3913SOL    MW415420   3.631   2.292   5.234 -0.0310  0.7653  0.4356
 3914SOL     OW15421   6.072   4.087   3.220 -0.0565  0.7651  0.1463
 3914SOL    HW215422   6.125   4.012   3.247 -0.0077  1.0539  0.8587
 3914SOL    HW315423   6.123   4.127   3.149 -1.1533 -1.1762 -1.8661
 3914SOL    MW415424   6.086   4.083   3.214 -0.1948  0.5471 -0.0252
 3915SOL     OW15425   2.287   0.104   5.834 -0.0254  0.4333 -0.3735
 3915SOL    HW215426   2.308   0.013   5.853  0.8784  0.4800 -1.0480
 3915SOL    HW315427   2.253   0.139   5.917  0.3201 -0.3177  0.0949
 3915SOL    MW415428   2.286   0.097   5.848  0.1394  0.3404 -0.4007
 3916SOL     OW15429   5.465   6.386   5.348 -0.2462 -0.0432  0.0229
 3916SOL    HW215430   5.378   6.357   5.376 -0.2201 -0.7844 -0.6335
 3916SOL    HW315431   5.451   6.475   5.318  0.1332  1.7809  4.4702
 3916SOL    MW415432   5.452   6.394   5.348 -0.1927  0.0997  0.5231
 3917SOL     OW15433   1.465   2.804   6.243  0.1973 -0.0330 -0.1348
 3917SOL    HW215434   1.539   2.853   6.280  1.8813 -2.2957 -0.2974
 3917SOL    HW315435   1.388   2.838   6.289  1.5232  1.2094  1.2869
 3917SOL    MW415436   1.465   2.815   6.254  0.5944 -0.1676  0.0313
 3918SOL     OW15437   0.842   2.672   1.869 -0.0743  0.0805  0.0738
 3918SOL    HW215438   0.884   2.665   1.954 -2.4891 -2.7882  1.2174
 3918SOL    HW315439   0.774   2.739   1.881  0.1408  0.2867  0.1380
 3918SOL    MW415440   0.839   2.680   1.882 -0.3645 -0.2708  0.2331
 3919SOL     OW15441   2.826   2.716   3.697  0.1593  0.0796  0.3391
 3919SOL    HW215442   2.891   2.662   3.652  0.0349 -1.1035  1.5453
 3919SOL    HW315443   2.743   2.671   3.683 -0.0043  0.1539  1.0237
 3919SOL    MW415444   2.824   2.703   3.689  0.1213 -0.0667  0.5885
 3920SOL     OW15445   1.826   5.361   4.119 -0.4434  0.0052  0.4459
 3920SOL    HW215446   1.873   5.304   4.180  0.8616  0.0383 -0.5029
 3920SOL    HW315447   1.734   5.351   4.144 -0.0259 -0.6500  1.8453
 3920SOL    MW415448   1.820   5.352   4.131 -0.2162 -0.0769  0.5053
 3921SOL     OW15449   2.093   4.430   3.707  0.5272  0.0282  0.1085
 3921SOL    HW215450   2.161   4.388   3.654  0.7124 -0.8720  1.0188
 3921SOL    HW315451   2.142   4.480   3.773  0.3006  1.1889 -0.5814
 3921SOL    MW415452   2.109   4.431   3.709  0.5217  0.0625  0.1376
 3922SOL     OW15453   1.165   3.933   2.686 -0.3260  0.3384  0.3062
 3922SOL    HW215454   1.213   3.914   2.767  0.0935  0.8224  0.1726
 3922SOL    HW315455   1.073   3.917   2.708 -0.4048  1.9965  1.3496
 3922SOL    MW415456   1.159   3.928   2.700 -0.2811  0.6210  0.4263
 3923SOL     OW15457   5.375   5.135   2.161 -0.4214 -0.1559 -1.1594
 3923SOL    HW215458   5.358   5.086   2.241 -0.3954  0.2474 -0.9048
 3923SOL    HW315459   5.365   5.226   2.186  3.1681  0.2722 -0.6786
 3923SOL    MW415460   5.372   5.140   2.175  0.0557 -0.0462 -1.0624
 3924SOL     OW15461   3.463   1.145   1.238 -0.2550  0.3275  0.3635
 3924SOL    HW215462   3.511   1.226   1.222  0.0691  0.2415  0.8592
 3924SOL    HW315463   3.531   1.077   1.239 -0.2153  0.3452  2.1597
 3924SOL    MW415464   3.478   1.146   1.236 -0.2070  0.3185  0.6659
 3925SOL     OW15465   3.513   1.794   2.293  0.4599  0.5028  0.2898
 3925SOL    HW215466   3.523   1.771   2.200 -1.4807 -2.9396  0.7874
 3925SOL    HW315467   3.451   1.867   2.292  0.2893  0.3703 -1.0993
 3925SOL    MW415468   3.506   1.801   2.280  0.1813  0.0311  0.1722
 3926SOL     OW15469   1.730   1.953   1.611  0.1456 -0.5295 -0.2726
 3926SOL    HW215470   1.680   2.035   1.617  1.7618  0.5048 -0.2779
 3926SOL    HW315471   1.742   1.940   1.517 -0.2724 -0.8819 -0.2781
 3926SOL    MW415472   1.725   1.962   1.599  0.3037 -0.4395 -0.2740
 3927SOL     OW15473   1.203   5.254   0.701 -0.0451  0.3829  0.0612
 3927SOL    HW215474   1.230   5.298   0.620 -0.7745  1.0657  0.1821
 3927SOL    HW315475   1.235   5.311   0.771  2.1777 -1.0814  0.3575
 3927SOL    MW415476   1.211   5.267   0.699  0.1519  0.2798  0.1162
 3928SOL     OW15477   4.832   3.385   0.197  0.6575 -0.1990 -0.3998
 3928SOL    HW215478   4.844   3.453   0.130  1.1269  0.8275  0.6879
 3928SOL    HW315479   4.810   3.434   0.277  0.0685 -1.3985  0.1971
 3928SOL    MW415480   4.831   3.401   0.199  0.6417 -0.2218 -0.1775
 3929SOL     OW15481   6.228   3.847   3.297 -0.4659  0.0533 -0.9413
 3929SOL    HW215482   6.235   3.782   3.368 -0.5752  1.8172  0.7717
 3929SOL    HW315483   6.311   3.840   3.250 -0.3034 -1.0172 -0.5423
 3929SOL    MW415484   6.240   3.837   3.300 -0.4589  0.1448 -0.6627
 3930SOL     OW15485   5.347   4.976   0.849  0.3325 -0.6220  0.1629
 3930SOL    HW215486   5.276   4.916   0.872  0.7144 -0.9044  0.6219
 3930SOL    HW315487   5.313   5.063   0.870 -0.0999 -0.7020 -0.1858
 3930SOL    MW415488   5.333   4.979   0.855  0.3258 -0.6698  0.1775
 3931SOL     OW15489   0.161   5.635   0.284 -0.0877 -0.2326 -0.5704
 3931SOL    HW215490   0.108   5.662   0.209  0.2566 -0.2613 -0.8245
 3931SOL    HW315491   0.251   5.649   0.257  0.0172  1.0464  0.3244
 3931SOL    MW415492   0.166   5.640   0.271 -0.0285 -0.0676 -0.4859
 3932SOL     OW15493   6.333   2.382   1.927 -0.2886 -0.5809 -0.1209
 3932SOL    HW215494   6.426   2.363   1.920 -0.2816 -0.6109  0.0741
 3932SOL    HW315495   6.290   2.310   1.881 -0.2381 -0.8103  0.1934
 3932SOL    MW415496   6.339   2.370   1.920 -0.2810 -0.6151 -0.0537
 3933SOL     OW15497   4.501   0.964   4.959  0.2577 -0.2837  0.2734
 3933SOL    HW215498   4.448   0.884   4.953  1.0779 -0.8953  0.8567
 3933SOL    HW315499   4.443   1.034   4.930  0.0831 -1.3184 -2.0815
 3933SOL    MW415500   4.487   0.962   4.954  0.3429 -0.5009  0.0396
 3934SOL     OW15501   0.488   5.916   6.400 -0.2614 -0.1350  0.0870
 3934SOL    HW215502   0.510   5.983   6.335  0.6965  0.3609  0.8857
 3934SOL    HW315503   0.573   5.890   6.436 -0.7794 -0.4033  1.1386
 3934SOL    MW415504   0.502   5.921   6.396 -0.2034 -0.1050  0.3312
 3935SOL     OW15505   2.438   1.066   1.490  0.6527 -0.2243 -0.0599
 3935SOL    HW215506   2.467   1.085   1.580  0.2527 -0.5753  0.1493
 3935SOL    HW315507   2.505   1.006   1.456  0.6354 -0.3497  0.1208
 3935SOL    MW415508   2.451   1.060   1.498  0.5977 -0.2871 -0.0084
 3936SOL     OW15509   4.376   4.937   1.922 -0.2435  0.2094 -0.1915
 3936SOL    HW215510   4.450   4.897   1.967 -0.3235 -1.4052 -1.4270
 3936SOL    HW315511   4.299   4.909   1.973 -0.0877  1.3400  0.7029
 3936SOL    MW415512   4.376   4.928   1.935 -0.2335  0.1455 -0.2365
 3937SOL     OW15513   4.002   4.333   3.065  0.2251  0.6395 -0.5356
 3937SOL    HW215514   4.065   4.261   3.066 -1.8959 -1.3369 -0.7155
 3937SOL    HW315515   4.010   4.370   2.977  0.6571 -0.0563 -0.7994
 3937SOL    MW415516   4.011   4.328   3.054  0.0023  0.2869 -0.5941
 3938SOL     OW15517   6.133   4.196   1.330  0.1625 -0.6991 -0.0680
 3938SOL    HW215518   6.182   4.247   1.393  1.3193  2.0593 -2.9590
 3938SOL    HW315519   6.198   4.138   1.289 -0.5898 -2.5301  1.1826
 3938SOL    MW415520   6.148   4.195   1.333  0.2159 -0.5767 -0.2844
 3939SOL     OW15521   2.228   3.173   5.555  0.0509 -0.1180  0.3937
 3939SOL    HW215522   2.257   3.085   5.579  0.6112 -0.0217  0.1073
 3939SOL    HW315523   2.136   3.162   5.530 -0.0753 -0.4982  1.0090
 3939SOL    MW415524   2.220   3.160   5.555  0.1082 -0.1555  0.4371
 3940SOL     OW15525   4.135   0.880   0.474 -0.1512  0.2726 -0.0706
 3940SOL    HW215526   4.111   0.799   0.429 -0.9320 -0.3076  1.2991
 3940SOL    HW315527   4.065   0.942   0.452 -0.3091  0.1230  0.0062
 3940SOL    MW415528   4.123   0.877   0.466 -0.2750  0.1763  0.1202
 3941SOL     OW15529   2.947   2.965   6.364  1.1830  0.2433 -1.0648
 3941SOL    HW215530   2.925   2.963   6.271  0.2271  1.1427 -0.8792
 3941SOL    HW315531   3.001   3.043   6.375  0.7121  0.5350 -0.7598
 3941SOL    MW415532   2.951   2.975   6.353  0.9947  0.4005 -1.0001
 3942SOL     OW15533   2.722   0.107   0.260  0.6530  0.2663 -0.5225
 3942SOL    HW215534   2.660   0.093   0.332  1.4572 -0.4851  0.0475
 3942SOL    HW315535   2.698   0.192   0.224 -0.8688 -0.1249 -0.4939
 3942SOL    MW415536   2.710   0.117   0.265  0.5583  0.1156 -0.4435
 3943SOL     OW15537   2.025   6.116   3.081  0.0206 -0.2027 -0.5780
 3943SOL    HW215538   1.931   6.131   3.069 -0.8064 -1.2432  3.2899
 3943SOL    HW315539   2.033   6.021   3.093  1.5802 -0.1291 -0.8056
 3943SOL    MW415540   2.013   6.105   3.081  0.1173 -0.3303 -0.0977
 3944SOL     OW15541   5.804   0.109   1.937 -0.9468  0.6814 -0.3117
 3944SOL    HW215542   5.837   0.183   1.887 -0.4350  0.7018  0.0522
 3944SOL    HW315543   5.845   0.032   1.896  0.5717  0.7856  0.8902
 3944SOL    MW415544   5.814   0.109   1.925 -0.6790  0.6979 -0.1051
 3945SOL     OW15545   3.035   0.207   0.842 -0.3314 -0.1938  0.4971
 3945SOL    HW215546   2.980   0.281   0.868  0.9567  0.3217  1.9385
 3945SOL    HW315547   2.992   0.130   0.881 -1.1765 -0.0975 -0.2219
 3945SOL    MW415548   3.022   0.206   0.851 -0.2730 -0.1131  0.5924
 3946SOL     OW15549   0.768   1.461   1.348 -0.2856  0.1557  0.5334
 3946SOL    HW215550   0.837   1.509   1.393  0.0668  0.3007 -0.1434
 3946SOL    HW315551   0.687   1.492   1.388  0.0106  0.4305  0.9213
 3946SOL    MW415552   0.766   1.472   1.359 -0.2000  0.2111  0.4953
 3947SOL     OW15553   4.164   1.937   4.898  0.0785 -0.4611  0.3007
 3947SOL    HW215554   4.229   1.886   4.849  0.3807  1.2724 -1.2049
 3947SOL    HW315555   4.125   1.874   4.958  2.2976 -1.8473  0.4239
 3947SOL    MW415556   4.168   1.922   4.900  0.4112 -0.4153  0.1183
 3948SOL     OW15557   5.142   4.366   5.031  0.2604  0.0202 -0.3254
 3948SOL    HW215558   5.194   4.293   5.064  2.0556  0.5382 -1.7896
 3948SOL    HW315559   5.060   4.362   5.080  1.4193 -1.2415  1.6430
 3948SOL    MW415560   5.138   4.356   5.042  0.6501 -0.0779 -0.2589
 3949SOL     OW15561   2.196   3.716   3.463  0.5404  0.1894  0.0643
 3949SOL    HW215562   2.204   3.780   3.534  0.8358  1.2688 -0.9085
 3949SOL    HW315563   2.210   3.631   3.505  1.2850  0.8536  1.1994
 3949SOL    MW415564   2.199   3.713   3.478  0.6776  0.4194  0.0857
 3950SOL     OW15565   6.161   2.949   6.262  0.0088 -0.1187 -0.1306
 3950SOL    HW215566   6.226   2.897   6.216  0.8989  0.4963  0.4014
 3950SOL    HW315567   6.211   2.997   6.328 -0.7878  1.3317 -0.5345
 3950SOL    MW415568   6.176   2.949   6.265  0.0212  0.1538 -0.1137
 3951SOL     OW15569   5.502   3.577   0.094 -1.2428  0.1664  0.0467
 3951SOL    HW215570   5.522   3.670   0.095 -1.6612  0.2915 -1.0812
 3951SOL    HW315571   5.571   3.536   0.146  0.4651  0.8369 -1.5706
 3951SOL    MW415572   5.514   3.584   0.101 -1.0727  0.2713 -0.3155
 3952SOL     OW15573   0.923   0.352   5.464 -0.4951  0.3702 -0.4138
 3952SOL    HW215574   0.901   0.262   5.488 -1.0337  1.0300  1.8186
 3952SOL    HW315575   1.015   0.349   5.438  0.4165 -0.3937  2.5397
 3952SOL    MW415576   0.932   0.340   5.464 -0.4459  0.3565  0.2704
 3953SOL     OW15577   1.803   6.130   2.304 -0.0223  0.4449  0.2223
 3953SOL    HW215578   1.752   6.092   2.376  0.3074 -0.4222  0.0118
 3953SOL    HW315579   1.814   6.222   2.329  0.5326  0.0422  1.5361
 3953SOL    MW415580   1.797   6.137   2.317  0.0944  0.2774  0.3679
 3954SOL     OW15581   1.864   3.194   3.845  0.4835  0.0191  0.2954
 3954SOL    HW215582   1.782   3.170   3.800  1.0861  1.8411 -1.9460
 3954SOL    HW315583   1.860   3.289   3.853  1.1094 -0.0971  2.9001
 3954SOL    MW415584   1.852   3.203   3.840  0.6456  0.2442  0.3433
 3955SOL     OW15585   3.792   0.530   0.456  0.3954  0.2569 -0.2133
 3955SOL    HW215586   3.843   0.474   0.514 -1.9429 -0.5232  1.2722
 3955SOL    HW315587   3.728   0.471   0.417 -1.1307  1.5697  0.1713
 3955SOL    MW415588   3.790   0.515   0.459 -0.1145  0.3272  0.0334
 3956SOL     OW15589   4.367   3.099   3.784 -0.9283 -0.1902 -0.3913
 3956SOL    HW215590   4.301   3.139   3.727  0.3072 -0.5824 -2.1771
 3956SOL    HW315591   4.356   3.005   3.772 -1.1199 -0.2999  0.5925
 3956SOL    MW415592   4.357   3.092   3.775 -0.7906 -0.2564 -0.4971
 3957SOL     OW15593   4.826   1.544   5.287 -0.5031 -0.3422 -0.0371
 3957SOL    HW215594   4.858   1.541   5.197 -0.1476  0.6462  0.0438
 3957SOL    HW315595   4.901   1.517   5.340 -0.8708 -1.4565 -0.0518
 3957SOL    MW415596   4.840   1.540   5.282 -0.5047 -0.3588 -0.0284
 3958SOL     OW15597   5.121   2.575   1.919 -0.0691 -0.3978 -0.4908
 3958SOL    HW215598   5.138   2.616   2.004  0.5306 -1.7433  0.0666
 3958SOL    HW315599   5.080   2.491   1.941 -1.3968 -0.0866 -1.6022
 3958SOL    MW415600   5.118   2.569   1.933 -0.1651 -0.5342 -0.5639
 3959SOL     OW15601   4.373   2.337   4.121 -0.3813  0.0144 -0.6407
 3959SOL    HW215602   4.329   2.290   4.192 -1.8043  0.4969 -1.1572
 3959SOL    HW315603   4.451   2.374   4.161 -0.5517 -0.6924  0.3883
 3959SOL    MW415604   4.377   2.335   4.136 -0.5915 -0.0152 -0.5730
 3960SOL     OW15605   2.268   5.683   2.458  0.2841  0.4084 -0.5602
 3960SOL    HW215606   2.351   5.659   2.418 -0.1662  1.3378 -2.1251
 3960SOL    HW315607   2.279   5.775   2.484  0.8204 -0.3598  2.2254
 3960SOL    MW415608   2.280   5.692   2.456  0.2955  0.4297 -0.3991
 3961SOL     OW15609   3.593   2.975   3.510 -0.2799 -0.0920 -0.4712
 3961SOL    HW215610   3.615   2.918   3.584  0.1581  0.4348 -0.1913
 3961SOL    HW315611   3.502   2.955   3.491 -0.7339  0.5648  0.9356
 3961SOL    MW415612   3.584   2.965   3.517 -0.2820  0.0642 -0.2487
 3962SOL     OW15613   4.127   6.148   5.011  0.2940 -0.3584 -0.0956
 3962SOL    HW215614   4.090   6.102   4.936  2.0598 -0.0092 -1.2528
 3962SOL    HW315615   4.052   6.172   5.064 -0.8155 -3.0828 -0.2704
 3962SOL    MW415616   4.112   6.145   5.008  0.3806 -0.6718 -0.2714
 3963SOL     OW15617   0.571   3.106   4.929  0.4894  0.1406 -0.3759
 3963SOL    HW215618   0.582   3.126   4.836 -0.7411  1.3592 -0.2956
 3963SOL    HW315619   0.578   3.190   4.973  1.8059 -0.5138  0.7455
 3963SOL    MW415620   0.573   3.120   4.923  0.5008  0.2151 -0.2173
 3964SOL     OW15621   2.519   3.059   6.344 -0.3012 -0.1924  0.4700
 3964SOL    HW215622   2.527   2.965   6.329 -1.8711 -0.1402 -1.0165
 3964SOL    HW315623   2.452   3.067   6.412 -0.6430 -0.1513  0.1343
 3964SOL    MW415624   2.511   3.048   6.351 -0.5535 -0.1801  0.2296
 3965SOL     OW15625   2.279   5.801   5.276  0.3872 -0.5038  0.0453
 3965SOL    HW215626   2.211   5.856   5.237  1.5156  0.8562 -0.0801
 3965SOL    HW315627   2.361   5.834   5.239  1.3927 -0.1430  2.3710
 3965SOL    MW415628   2.281   5.813   5.266  0.6687 -0.2767  0.3356
 3966SOL     OW15629   4.994   1.839   3.639 -0.2537 -0.2526 -0.5270
 3966SOL    HW215630   4.920   1.815   3.696 -0.9863 -1.0996 -1.7758
 3966SOL    HW315631   4.979   1.789   3.559  2.0123 -0.9173 -0.6132
 3966SOL    MW415632   4.982   1.829   3.636 -0.0513 -0.4521 -0.7031
 3967SOL     OW15633   0.426   5.756   0.242 -0.0377  0.2037  0.5512
 3967SOL    HW215634   0.446   5.796   0.158 -0.5060 -0.8721 -0.0926
 3967SOL    HW315635   0.506   5.767   0.294  0.0419  1.4197  0.1910
 3967SOL    MW415636   0.439   5.763   0.238 -0.0890  0.2222  0.4187
 3968SOL     OW15637   3.261   4.039   4.572 -0.3869 -0.4225  0.4294
 3968SOL    HW215638   3.250   3.949   4.601 -0.3870 -0.6411 -0.2317
 3968SOL    HW315639   3.217   4.043   4.487 -0.8814  0.3518  0.7154
 3968SOL    MW415640   3.254   4.028   4.564 -0.4522 -0.3492  0.3799
 3969SOL     OW15641   1.045   2.879   0.153  0.0256  0.2255  0.0271
 3969SOL    HW215642   1.033   2.972   0.172  2.0748  0.9041 -1.6137
 3969SOL    HW315643   1.065   2.839   0.237 -0.7545  1.2781  0.7348
 3969SOL    MW415644   1.046   2.886   0.166  0.1931  0.4539 -0.0960
 3970SOL     OW15645   1.062   5.894   3.210 -0.3195 -0.4926 -0.2189
 3970SOL    HW215646   1.133   5.892   3.146  0.2813  0.1311  0.4110
 3970SOL    HW315647   1.094   5.842   3.284 -2.3834 -4.2778 -1.7323
 3970SOL    MW415648   1.075   5.887   3.211 -0.5125 -0.9097 -0.3355
 3971SOL     OW15649   4.309   5.050   5.691  0.3744 -0.2233 -0.6127
 3971SOL    HW215650   4.345   5.118   5.634  2.5895  0.2397  1.2054
 3971SOL    HW315651   4.340   4.968   5.652  2.2358  0.1071  0.0879
 3971SOL    MW415652   4.318   5.048   5.678  0.9122 -0.1186 -0.2804
 3972SOL     OW15653   4.550   1.494   1.897 -0.0555  0.8122  0.6257
 3972SOL    HW215654   4.462   1.533   1.902 -0.0253  1.1085 -0.7588
 3972SOL    HW315655   4.573   1.499   1.805  0.8135 -0.6420  0.7337
 3972SOL    MW415656   4.541   1.500   1.886  0.0631  0.6594  0.4573
 3973SOL     OW15657   2.626   3.920   6.045  0.3079  0.2448  0.3691
 3973SOL    HW215658   2.700   3.960   6.091 -0.1736  2.1832 -0.4676
 3973SOL    HW315659   2.562   3.903   6.114  1.0800 -0.4347  0.9405
 3973SOL    MW415660   2.627   3.923   6.060  0.3463  0.4109  0.3341
 3974SOL     OW15661   1.083   4.705   3.832 -0.3408 -0.3711  0.0769
 3974SOL    HW215662   1.144   4.760   3.782 -0.2713  0.0050  0.5687
 3974SOL    HW315663   1.016   4.680   3.768 -0.8409  0.9993  0.0274
 3974SOL    MW415664   1.082   4.709   3.817 -0.3976 -0.1407  0.1353
 3975SOL     OW15665   4.537   1.291   2.851 -0.3622  0.0296  0.5632
 3975SOL    HW215666   4.586   1.264   2.928 -0.0853 -1.7443 -0.1799
 3975SOL    HW315667   4.602   1.335   2.795 -0.7723  2.2356  1.6907
 3975SOL    MW415668   4.552   1.293   2.854 -0.3798  0.0866  0.6139
 3976SOL     OW15669   0.339   5.938   2.257  0.0341  0.2474 -0.5879
 3976SOL    HW215670   0.310   5.849   2.279  0.2485  0.1471 -0.7089
 3976SOL    HW315671   0.432   5.929   2.238  1.0085  1.0914  2.9823
 3976SOL    MW415672   0.348   5.925   2.257  0.1910  0.3455 -0.1328
 3977SOL     OW15673   2.817   3.006   2.102 -0.1179  0.3082 -0.4218
 3977SOL    HW215674   2.902   3.013   2.144 -0.7852  1.0431  0.8757
 3977SOL    HW315675   2.817   3.076   2.037  0.1748  0.4639 -0.2573
 3977SOL    MW415676   2.828   3.016   2.099 -0.1673  0.4257 -0.2289
 3978SOL     OW15677   3.973   0.757   4.857 -0.0045 -1.0579  0.2037
 3978SOL    HW215678   3.955   0.795   4.943  0.1595 -0.4556 -0.0229
 3978SOL    HW315679   3.999   0.667   4.876  1.6534 -0.4703  0.9433
 3978SOL    MW415680   3.974   0.750   4.871  0.2359 -0.9009  0.2714
 3979SOL     OW15681   3.919   4.999   1.336  0.3493 -0.1776 -0.7052
 3979SOL    HW215682   3.881   4.915   1.309  0.9354 -0.2902 -1.1937
 3979SOL    HW315683   4.012   4.980   1.348  0.1531 -0.1098  1.3148
 3979SOL    MW415684   3.926   4.985   1.334  0.4008 -0.1835 -0.5031
 3980SOL     OW15685   5.260   1.909   2.996 -0.0844  0.6131 -0.3744
 3980SOL    HW215686   5.224   1.977   2.939 -0.0111  1.3890  0.4698
 3980SOL    HW315687   5.305   1.958   3.065 -1.0862 -0.2622  0.9458
 3980SOL    MW415688   5.261   1.925   2.998 -0.2069  0.6000 -0.0889
 3981SOL     OW15689   0.836   3.381   0.211 -0.2979 -0.0224 -0.3480
 3981SOL    HW215690   0.758   3.376   0.266 -0.5980  0.6862 -0.6946
 3981SOL    HW315691   0.803   3.406   0.125  0.2181 -0.6664 -0.7431
 3981SOL    MW415692   0.821   3.384   0.207 -0.2694 -0.0139 -0.4459
 3982SOL     OW15693   6.185   4.877   3.767 -0.4031  0.3022  0.0928
 3982SOL    HW215694   6.226   4.791   3.778  0.3725  0.4497 -1.4080
 3982SOL    HW315695   6.129   4.887   3.845 -0.1916 -1.3675  0.4994
 3982SOL    MW415696   6.183   4.867   3.779 -0.2729  0.1014 -0.0516
 3983SOL     OW15697   3.262   1.685   5.476 -0.3114 -0.1852 -0.6370
 3983SOL    HW215698   3.276   1.713   5.566 -0.6755 -0.0177 -0.6316
 3983SOL    HW315699   3.173   1.712   5.455 -1.2441 -2.5815 -0.1528
 3983SOL    MW415700   3.252   1.692   5.485 -0.4825 -0.4792 -0.5724
 3984SOL     OW15701   5.127   0.453   3.440 -0.3619  0.1807  0.7011
 3984SOL    HW215702   5.142   0.458   3.345 -0.2356 -2.1935  0.5347
 3984SOL    HW315703   5.208   0.489   3.478  1.0261 -1.8554 -0.1551
 3984SOL    MW415704   5.140   0.459   3.432 -0.1621 -0.4012  0.5662
 3985SOL     OW15705   5.655   2.678   3.850 -0.3182 -0.0744  0.2664
 3985SOL    HW215706   5.606   2.596   3.852 -0.1897 -0.1631 -0.1883
 3985SOL    HW315707   5.697   2.680   3.764  0.5200 -0.0205  0.6608
 3985SOL    MW415708   5.654   2.667   3.839 -0.1906 -0.0790  0.2585
 3986SOL     OW15709   5.286   3.701   1.585  0.4605 -0.0367 -0.0990
 3986SOL    HW215710   5.280   3.730   1.676  1.9622  0.0243  0.0084
 3986SOL    HW315711   5.335   3.770   1.541  0.5862 -0.5250 -0.7360
 3986SOL    MW415712   5.292   3.714   1.591  0.6752 -0.0931 -0.1689
 3987SOL     OW15713   5.769   1.886   3.329 -0.0004 -0.5710  0.2756
 3987SOL    HW215714   5.750   1.909   3.420  1.8865 -1.6712  1.0106
 3987SOL    HW315715   5.710   1.940   3.277 -2.1678 -0.9901  2.1806
 3987SOL    MW415716   5.759   1.896   3.334 -0.0374 -0.7715  0.6239
 3988SOL     OW15717   0.261   2.770   0.290 -0.2453 -0.1430 -0.2030
 3988SOL    HW215718   0.276   2.847   0.344 -0.3140  0.0580 -0.4679
 3988SOL    HW315719   0.166   2.763   0.284 -0.2361 -0.0560 -0.4518
 3988SOL    MW415720   0.251   2.779   0.296 -0.2532 -0.1050 -0.2708
 3989SOL     OW15721   2.987   4.456   2.677 -0.5817  0.0894  0.3011
 3989SOL    HW215722   2.968   4.362   2.674  2.0547 -0.4866 -1.0371
 3989SOL    HW315723   2.914   4.493   2.726 -1.7126 -2.6438  0.8815
 3989SOL    MW415724   2.975   4.448   2.683 -0.3830 -0.3472  0.2012
 3990SOL     OW15725   4.482   2.928   2.232  0.5583  0.1428 -0.6520
 3990SOL    HW215726   4.552   2.950   2.293 -1.9233  1.7504  1.8218
 3990SOL    HW315727   4.511   2.964   2.148  1.6883  2.9712  0.8234
 3990SOL    MW415728   4.495   2.935   2.229  0.3799  0.7280 -0.1309
 3991SOL     OW15729   5.926   1.460   0.481  0.3092  0.1010 -0.0862
 3991SOL    HW215730   5.845   1.510   0.489 -0.3194 -0.9608  0.3490
 3991SOL    HW315731   5.934   1.413   0.564  1.2342 -0.0083 -0.2302
 3991SOL    MW415732   5.916   1.460   0.493  0.3483 -0.0535 -0.0478
 3992SOL     OW15733   4.486   5.620   6.066 -0.0159 -0.2306  0.1599
 3992SOL    HW215734   4.538   5.553   6.112  1.0468  1.0082  0.8435
 3992SOL    HW315735   4.535   5.636   5.985 -1.5220 -1.9133 -1.1602
 3992SOL    MW415736   4.500   5.613   6.062 -0.0744 -0.2892  0.0759
 3993SOL     OW15737   3.423   0.339   1.511  0.7599 -0.3622  0.2870
 3993SOL    HW215738   3.368   0.390   1.451 -0.2754 -0.7293  0.9032
 3993SOL    HW315739   3.510   0.341   1.470  0.7345  1.7503  0.2127
 3993SOL    MW415740   3.427   0.346   1.497  0.6199 -0.1319  0.3585
 3994SOL     OW15741   2.749   2.399   4.774  0.3431  0.2993  0.1078
 3994SOL    HW215742   2.756   2.484   4.731 -1.0827 -1.1872 -3.5203
 3994SOL    HW315743   2.663   2.401   4.817  1.0704  1.2428  1.5745
 3994SOL    MW415744   2.738   2.410   4.774  0.2510  0.2277 -0.1773
 3995SOL     OW15745   3.407   1.129   0.076 -0.0920  0.5184 -0.0575
 3995SOL    HW215746   3.414   1.034   0.089 -0.2093  0.2735 -1.5940
 3995SOL    HW315747   3.403   1.140  -0.019 -2.1786  1.9393  0.1310
 3995SOL    MW415748   3.408   1.118   0.065 -0.3828  0.6736 -0.2354
 3996SOL     OW15749   5.985   0.624   1.740 -0.8270  0.1113 -0.1690
 3996SOL    HW215750   5.951   0.543   1.778 -0.9390 -0.1307 -0.7649
 3996SOL    HW315751   6.037   0.596   1.665 -1.4391  0.6179 -0.8015
 3996SOL    MW415752   5.987   0.610   1.735 -0.9225  0.1462 -0.3311
 3997SOL     OW15753   6.008   1.437   2.569  0.3041 -0.0200  0.0503
 3997SOL    HW215754   6.019   1.351   2.528  4.1195  0.7185 -0.8254
 3997SOL    HW315755   5.994   1.497   2.496  0.3751  0.4364  0.4083
 3997SOL    MW415756   6.008   1.434   2.554  0.8168  0.1377 -0.0180
 3998SOL     OW15757   3.878   4.761   5.083 -0.3366 -0.1496  0.4596
 3998SOL    HW215758   3.893   4.767   4.989  1.8925 -0.3942  0.7416
 3998SOL    HW315759   3.814   4.691   5.094 -3.1263  1.9686 -1.0074
 3998SOL    MW415760   3.871   4.753   5.072 -0.4106  0.0976  0.3032
 3999SOL     OW15761   3.118   3.190   0.031  0.3881 -0.4839  0.5251
 3999SOL    HW215762   3.187   3.124   0.040  1.5324  0.6343  0.2589
 3999SOL    HW315763   3.137   3.233  -0.052  0.3255  0.8887  1.1894
 3999SOL    MW415764   3.130   3.187   0.021  0.5308 -0.1553  0.5777
 4000SOL     OW15765   4.533   3.253   3.295 -0.5433  0.2750  0.4682
 4000SOL    HW215766   4.498   3.212   3.216 -2.5664  0.9167  0.9589
 4000SOL    HW315767   4.627   3.236   3.292 -1.0998 -3.5824  0.1902
 4000SOL    MW415768   4.541   3.245   3.284 -0.8837 -0.1493  0.4963
 4001SOL     OW15769   5.173   4.009   1.838  0.0089  0.0734  0.4759
 4001SOL    HW215770   5.149   3.919   1.814  1.0254 -0.2305  0.5510
 4001SOL    HW315771   5.149   4.061   1.761  1.6530 -0.6465 -0.5746
 4001SOL    MW415772   5.167   4.004   1.824  0.3599 -0.0617  0.3472
 4002SOL     OW15773   1.410   0.852   3.444 -0.2700 -0.3089 -0.4815
 4002SOL    HW215774   1.456   0.813   3.519 -1.3016 -0.6184  0.0193
 4002SOL    HW315775   1.479   0.887   3.389  0.6124 -1.4543 -0.1481
 4002SOL    MW415776   1.425   0.851   3.447 -0.2897 -0.5008 -0.3714
 4003SOL     OW15777   2.949   0.832   4.289  0.7475 -0.5056 -0.2500
 4003SOL    HW215778   2.916   0.880   4.365  0.8019 -2.4045  1.0254
 4003SOL    HW315779   2.954   0.898   4.220  1.0099  1.3620  1.4655
 4003SOL    MW415780   2.945   0.847   4.290  0.7893 -0.5097  0.1446
 4004SOL     OW15781   2.618   4.636   1.397  0.1172  0.4582  0.7480
 4004SOL    HW215782   2.566   4.593   1.329  0.6064  1.0170  0.0041
 4004SOL    HW315783   2.613   4.576   1.472  0.3288 -0.6322 -0.0743
 4004SOL    MW415784   2.610   4.622   1.398  0.2097  0.3881  0.5414
 4005SOL     OW15785   2.059   5.917   5.670 -0.4708 -0.5569 -0.2285
 4005SOL    HW215786   2.000   5.941   5.598 -0.4689 -0.5005 -0.2116
 4005SOL    HW315787   2.143   5.956   5.646 -0.4605 -0.5701 -0.2137
 4005SOL    MW415788   2.062   5.925   5.657 -0.4692 -0.5512 -0.2243
 4006SOL     OW15789   3.358   0.627   5.697  0.0790 -0.0244  0.1633
 4006SOL    HW215790   3.359   0.581   5.781 -1.6831  1.8533  1.2970
 4006SOL    HW315791   3.352   0.719   5.720 -0.1305  0.5730 -2.0541
 4006SOL    MW415792   3.358   0.633   5.711 -0.1812  0.3021  0.0203
 4007SOL     OW15793   2.168   1.148   2.529 -0.1906 -0.0812  0.3005
 4007SOL    HW215794   2.216   1.077   2.571  1.0367 -0.5209 -1.6973
 4007SOL    HW315795   2.234   1.216   2.514 -1.0514  0.9152  0.9260
 4007SOL    MW415796   2.183   1.148   2.533 -0.1422 -0.0077  0.1194
 4008SOL     OW15797   1.933   3.685   2.850  0.0941 -0.0237 -0.0086
 4008SOL    HW215798   1.887   3.759   2.809  0.4983  0.1884 -0.0865
 4008SOL    HW315799   2.003   3.726   2.900  0.2874 -0.3547 -0.0076
 4008SOL    MW415800   1.936   3.700   2.851  0.1730 -0.0394 -0.0187
 4009SOL     OW15801   5.928   4.494   3.732  0.4388  0.4601 -0.6218
 4009SOL    HW215802   5.860   4.556   3.759 -0.1282  0.0949 -1.1882
 4009SOL    HW315803   5.882   4.412   3.717  1.3157 -0.3587  0.9533
 4009SOL    MW415804   5.913   4.492   3.733  0.4796  0.3039 -0.4887
 4010SOL     OW15805   0.489   5.045   4.503 -0.2512  0.0716  0.5223
 4010SOL    HW215806   0.509   4.966   4.553  0.1671  1.0759  2.0185
 4010SOL    HW315807   0.569   5.099   4.511 -0.8329  1.0001  0.2625
 4010SOL    MW415808   0.502   5.042   4.510 -0.2728  0.3266  0.6854
 4011SOL     OW15809   4.242   4.553   6.165 -0.1454 -0.0827 -0.2363
 4011SOL    HW215810   4.150   4.554   6.140 -0.4366  0.3806  0.7936
 4011SOL    HW315811   4.254   4.470   6.210 -0.1375 -0.0107 -0.1044
 4011SOL    MW415812   4.231   4.542   6.168 -0.1828 -0.0121 -0.0830
 4012SOL     OW15813   0.255   5.906   1.696 -0.5584  0.1316  0.2974
 4012SOL    HW215814   0.191   5.959   1.647 -0.9172 -0.1238  0.4837
 4012SOL    HW315815   0.247   5.938   1.786 -1.0351 -0.4744  0.4813
 4012SOL    MW415816   0.245   5.917   1.701 -0.6686  0.0179  0.3463
 4013SOL     OW15817   5.582   6.358   2.287  0.7501  0.2271 -0.0546
 4013SOL    HW215818   5.546   6.269   2.281 -1.7397  1.0681  1.2559
 4013SOL    HW315819   5.562   6.398   2.202 -2.1247  0.8627  0.8399
 4013SOL    MW415820   5.575   6.351   2.275  0.0423  0.4219  0.2363
 4014SOL     OW15821   2.072   4.744   1.868 -0.0555  0.6478 -0.6069
 4014SOL    HW215822   2.041   4.830   1.899  1.4766  0.6369  1.2105
 4014SOL    HW315823   2.166   4.757   1.853  0.3707 -0.8632  0.4675
 4014SOL    MW415824   2.080   4.757   1.870  0.2029  0.4470 -0.2254
 4015SOL     OW15825   6.231   2.695   5.598 -0.1978 -0.0607  1.2265
 4015SOL    HW215826   6.308   2.739   5.634 -0.0701  1.6832 -0.9063
 4015SOL    HW315827   6.171   2.766   5.575  0.1843 -0.7751 -2.7990
 4015SOL    MW415828   6.233   2.710   5.599 -0.1305  0.0751  0.4140
 4016SOL     OW15829   2.895   2.603   2.268 -0.0890 -0.5720 -0.1892
 4016SOL    HW215830   2.955   2.582   2.196  0.0372 -1.7587  0.2374
 4016SOL    HW315831   2.934   2.679   2.310  1.1105 -1.2868  0.0423
 4016SOL    MW415832   2.908   2.610   2.264  0.0859 -0.8229 -0.1023
 4017SOL     OW15833   1.528   1.384   2.046 -0.2847 -0.0065 -0.2871
 4017SOL    HW215834   1.540   1.341   1.962  1.9232  2.5810 -1.4375
 4017SOL    HW315835   1.470   1.458   2.028 -1.0539 -0.3008  0.8393
 4017SOL    MW415836   1.522   1.388   2.033 -0.0949  0.2961 -0.2902
 4018SOL     OW15837   3.671   1.272   3.965  0.2772  0.2388 -0.3715
 4018SOL    HW215838   3.675   1.280   4.061  1.1286  1.9772 -0.5154
 4018SOL    HW315839   3.647   1.180   3.950 -0.7695  0.1441  1.5071
 4018SOL    MW415840   3.668   1.261   3.976  0.2515  0.4557 -0.1426
 4019SOL     OW15841   2.678   0.779   4.182  0.2999 -0.1719 -0.1751
 4019SOL    HW215842   2.687   0.758   4.089 -0.8862 -1.5802 -0.0046
 4019SOL    HW315843   2.768   0.793   4.212  0.7440 -0.2346 -1.4082
 4019SOL    MW415844   2.691   0.778   4.173  0.2020 -0.3660 -0.3153
 4020SOL     OW15845   0.826   0.800   0.791  0.1737 -0.3906 -0.0010
 4020SOL    HW215846   0.752   0.772   0.738  1.6343 -2.2379 -1.1958
 4020SOL    HW315847   0.876   0.720   0.807  0.7044  0.3733  2.7992
 4020SOL    MW415848   0.823   0.786   0.786  0.4364 -0.5335  0.2108
 4021SOL     OW15849   0.806   2.317   0.739 -0.8093 -0.6163 -0.2321
 4021SOL    HW215850   0.783   2.326   0.832 -1.7544 -0.3786 -0.4761
 4021SOL    HW315851   0.777   2.229   0.716 -3.3712  0.3252 -1.0153
 4021SOL    MW415852   0.799   2.307   0.749 -1.2720 -0.4607 -0.3676
 4022SOL     OW15853   0.078   5.208   1.431  0.2426  0.1920  0.3050
 4022SOL    HW215854   0.004   5.151   1.411 -0.2680  1.5805 -2.1399
 4022SOL    HW315855   0.150   5.173   1.379  0.5645  0.4346  0.5817
 4022SOL    MW415856   0.078   5.196   1.422  0.2177  0.4072  0.0190
 4023SOL     OW15857   2.549   6.342   2.137 -0.2851  0.0215  0.8753
 4023SOL    HW215858   2.596   6.259   2.148  0.0458  0.1159  0.1751
 4023SOL    HW315859   2.582   6.379   2.056 -0.6130  0.7281  1.0496
 4023SOL    MW415860   2.560   6.336   2.128 -0.2847  0.1272  0.8059
 4024SOL     OW15861   5.137   3.238   4.446  0.6056 -0.5073 -0.2949
 4024SOL    HW215862   5.175   3.269   4.529 -1.7823 -0.0775  0.6999
 4024SOL    HW315863   5.096   3.155   4.468 -0.0262 -0.3997 -1.0491
 4024SOL    MW415864   5.137   3.231   4.460  0.2072 -0.4364 -0.2632
 4025SOL     OW15865   2.087   0.547   0.695  0.6246  0.5686 -0.3767
 4025SOL    HW215866   2.010   0.519   0.744  1.8333 -0.2023  1.1986
 4025SOL    HW315867   2.113   0.629   0.737  1.8920 -0.2926  0.6203
 4025SOL    MW415868   2.081   0.554   0.707  0.9513  0.3533 -0.0373
 4026SOL     OW15869   3.800   4.766   1.235 -0.7413  0.1403 -0.4331
 4026SOL    HW215870   3.847   4.701   1.182 -1.2372  0.4352 -1.2430
 4026SOL    HW315871   3.777   4.719   1.315 -1.5521 -0.8401 -1.2287
 4026SOL    MW415872   3.803   4.751   1.238 -0.9137  0.0498 -0.6449
 4027SOL     OW15873   2.601   3.409   1.428  0.0142 -0.1865  0.3338
 4027SOL    HW215874   2.563   3.421   1.515  0.2942 -0.0547  0.4380
 4027SOL    HW315875   2.668   3.477   1.421  1.4105 -1.4524  0.8009
 4027SOL    MW415876   2.605   3.419   1.438  0.2353 -0.3361  0.4092
 4028SOL     OW15877   1.678   2.739   0.505 -0.1269  0.3077 -0.3866
 4028SOL    HW215878   1.584   2.755   0.513  0.0183  1.4491 -0.7777
 4028SOL    HW315879   1.695   2.664   0.562 -1.5919 -1.1614 -1.8039
 4028SOL    MW415880   1.668   2.731   0.514 -0.3011  0.2645 -0.6252
 4029SOL     OW15881   4.145   3.514   3.365  0.0858  0.2011  0.0424
 4029SOL    HW215882   4.092   3.547   3.437  1.2892  0.3436  0.8911
 4029SOL    HW315883   4.083   3.501   3.293 -0.9058  1.3840  0.6552
 4029SOL    MW415884   4.130   3.516   3.365  0.1137  0.3760  0.2352
 4030SOL     OW15885  -0.000   3.799   0.186 -0.1489  0.0041 -0.2642
 4030SOL    HW215886   0.071   3.828   0.129 -0.2176 -0.1026 -0.4034
 4030SOL    HW315887  -0.000   3.862   0.258 -0.4278  0.4598 -0.6639
 4030SOL    MW415888   0.009   3.811   0.188 -0.1948  0.0502 -0.3353
 4031SOL     OW15889   4.852   2.597   0.170 -0.3647  0.1606  0.0343
 4031SOL    HW215890   4.906   2.537   0.221  0.9328  0.6543 -0.7020
 4031SOL    HW315891   4.855   2.680   0.218  2.1351  1.0762 -1.5220
 4031SOL    MW415892   4.859   2.600   0.183  0.1363  0.3466 -0.2682
 4032SOL     OW15893   6.160   5.897   5.160  0.8814 -0.0882  0.0584
 4032SOL    HW215894   6.110   5.950   5.097 -0.1026  0.0496  0.9307
 4032SOL    HW315895   6.178   5.816   5.113  1.3231  0.5173 -0.8588
 4032SOL    MW415896   6.156   5.893   5.145  0.8098  0.0098  0.0525
 4033SOL     OW15897   4.823   2.644   5.746  0.1216  0.3641 -0.4960
 4033SOL    HW215898   4.797   2.558   5.713 -0.5502 -0.1674  1.2738
 4033SOL    HW315899   4.749   2.671   5.801  1.7232  0.5482  1.6561
 4033SOL    MW415900   4.810   2.636   5.749  0.2443  0.3183  0.0215
 4034SOL     OW15901   0.668   1.206   0.441 -0.3648  0.0566 -0.0245
 4034SOL    HW215902   0.640   1.290   0.479 -1.1304  0.7634 -2.0500
 4034SOL    HW315903   0.746   1.182   0.492 -1.5868  0.6948  2.2723
 4034SOL    MW415904   0.675   1.214   0.453 -0.6270  0.2341  0.0113
 4035SOL     OW15905   3.800   3.977   5.593  0.1053  0.5417 -0.0727
 4035SOL    HW215906   3.884   4.023   5.590  0.8856 -0.6880  1.7522
 4035SOL    HW315907   3.799   3.925   5.513  1.4257  0.0220  0.2223
 4035SOL    MW415908   3.811   3.976   5.582  0.3825  0.3109  0.2070
 4036SOL     OW15909   4.556   4.048   2.224  0.2041  0.0458 -0.3827
 4036SOL    HW215910   4.570   3.963   2.266 -0.6487  0.0594 -0.0475
 4036SOL    HW315911   4.605   4.110   2.278 -0.0097 -0.0914 -0.0274
 4036SOL    MW415912   4.564   4.045   2.237  0.0633  0.0295 -0.2916
 4037SOL     OW15913   1.501   0.442   0.617 -0.6464 -0.5115  0.2197
 4037SOL    HW215914   1.431   0.387   0.581  0.0796 -0.0414 -2.0499
 4037SOL    HW315915   1.576   0.383   0.625 -0.4500 -0.3431 -0.2938
 4037SOL    MW415916   1.501   0.427   0.613 -0.5247 -0.4273 -0.1475
 4038SOL     OW15917   5.996   4.268   0.293 -0.9030  0.2666 -0.6946
 4038SOL    HW215918   5.984   4.177   0.319 -1.9954  0.8340  0.9925
 4038SOL    HW315919   5.911   4.309   0.310  0.2402  2.1192  1.0635
 4038SOL    MW415920   5.983   4.262   0.299 -0.8963  0.5859 -0.2401
 4039SOL     OW15921   5.617   0.424   1.851 -0.4477  0.3128  0.0660
 4039SOL    HW215922   5.619   0.465   1.937 -0.0690 -1.5285  0.9748
 4039SOL    HW315923   5.545   0.361   1.855  1.0626 -1.5136 -0.0904
 4039SOL    MW415924   5.608   0.421   1.863 -0.1985 -0.1711  0.1653
 4040SOL     OW15925   5.477   3.537   0.750  0.0865  0.4081 -0.2018
 4040SOL    HW215926   5.515   3.469   0.805  1.5069 -0.2462 -1.8996
 4040SOL    HW315927   5.467   3.496   0.664 -0.8177  1.7796 -0.7937
 4040SOL    MW415928   5.481   3.523   0.746  0.1546  0.5027 -0.5039
 4041SOL     OW15929   3.656   2.152   0.887 -0.1188  0.4120 -0.0005
 4041SOL    HW215930   3.584   2.139   0.949 -1.0111  0.6528 -0.9525
 4041SOL    HW315931   3.642   2.240   0.851  0.3749  0.2759 -0.5479
 4041SOL    MW415932   3.645   2.162   0.890 -0.1714  0.4258 -0.1983
 4042SOL     OW15933   5.219   5.231   6.146 -0.5556 -0.3220 -0.1830
 4042SOL    HW215934   5.235   5.322   6.118  0.3654 -0.3011  0.3509
 4042SOL    HW315935   5.128   5.214   6.123 -1.6724  1.6895  2.1663
 4042SOL    MW415936   5.209   5.241   6.140 -0.5814 -0.0538  0.1974
 4043SOL     OW15937   4.355   2.262   0.512 -0.4213  0.0842 -0.1060
 4043SOL    HW215938   4.311   2.292   0.592 -0.3037  0.1319 -0.0595
 4043SOL    HW315939   4.314   2.313   0.442  0.8536  1.5130  0.1325
 4043SOL    MW415940   4.344   2.272   0.514 -0.2376  0.2790 -0.0684
 4044SOL     OW15941   3.648   5.336   1.478  0.0299  0.4762 -0.3101
 4044SOL    HW215942   3.612   5.400   1.416  0.4975  2.7593  1.6423
 4044SOL    HW315943   3.589   5.339   1.553  1.1027 -0.0196  0.5866
 4044SOL    MW415944   3.635   5.344   1.480  0.2332  0.7120  0.0658
 4045SOL     OW15945   2.558   0.520   4.307  0.0888 -0.1434  0.0942
 4045SOL    HW215946   2.493   0.501   4.240  1.8587 -1.4179 -1.3649
 4045SOL    HW315947   2.580   0.612   4.292 -0.3500 -0.0980 -0.3309
 4045SOL    MW415948   2.552   0.530   4.296  0.2644 -0.3056 -0.1544
 4046SOL     OW15949   2.969   5.444   5.148  0.5576  0.3266 -0.2654
 4046SOL    HW215950   2.971   5.368   5.090  1.9733  0.0301  0.1316
 4046SOL    HW315951   3.059   5.479   5.146  0.2798  1.1551  0.6303
 4046SOL    MW415952   2.981   5.439   5.140  0.7077  0.3968 -0.0949
 4047SOL     OW15953   5.845   2.182   0.821 -0.2556  0.3613  0.3323
 4047SOL    HW215954   5.907   2.113   0.845  0.6476  0.7043 -0.9015
 4047SOL    HW315955   5.835   2.173   0.726 -1.1473  1.0995  0.3412
 4047SOL    MW415956   5.852   2.172   0.811 -0.2541  0.5039  0.1707
 4048SOL     OW15957   1.871   3.724   4.950 -0.1032 -0.4705  0.5246
 4048SOL    HW215958   1.897   3.636   4.921 -1.0992 -0.8366  0.7266
 4048SOL    HW315959   1.944   3.753   5.005  0.7021 -0.7501 -0.3544
 4048SOL    MW415960   1.884   3.716   4.953 -0.1284 -0.5557  0.4353
 4049SOL     OW15961   1.554   2.044   0.840  0.2909  0.1638 -0.2200
 4049SOL    HW215962   1.596   2.012   0.920  0.8912 -1.8066 -1.2762
 4049SOL    HW315963   1.596   1.996   0.769 -1.7861  0.1870 -1.5607
 4049SOL    MW415964   1.565   2.034   0.841  0.0961 -0.0931 -0.5362
 4050SOL     OW15965   2.892   6.226   4.567  0.2287 -0.2535 -0.0221
 4050SOL    HW215966   2.851   6.206   4.651  1.2865 -0.7263  0.4019
 4050SOL    HW315967   2.828   6.198   4.502 -1.2257  1.4537  0.6059
 4050SOL    MW415968   2.878   6.219   4.569  0.1763 -0.0906  0.1167
 4051SOL     OW15969   2.126   5.790   3.726 -0.5321 -0.1740 -0.3355
 4051SOL    HW215970   2.180   5.773   3.649 -1.3061 -1.6423 -0.5980
 4051SOL    HW315971   2.060   5.852   3.697  0.7497  1.3559 -0.1068
 4051SOL    MW415972   2.125   5.796   3.712 -0.4651 -0.1659 -0.3400
 4052SOL     OW15973   3.617   1.436   0.388  0.1259  0.1319 -0.1448
 4052SOL    HW215974   3.576   1.520   0.367 -1.1714 -0.3550  0.3597
 4052SOL    HW315975   3.652   1.405   0.305  0.6582  1.1771 -0.3294
 4052SOL    MW415976   3.617   1.443   0.374  0.0249  0.2055 -0.1026
 4053SOL     OW15977   4.021   2.940   5.274 -0.0116  0.8954 -0.6933
 4053SOL    HW215978   4.103   2.891   5.268 -0.4112 -0.0651  1.0420
 4053SOL    HW315979   3.953   2.874   5.262 -0.5485  1.4439 -0.6948
 4053SOL    MW415980   4.023   2.925   5.272 -0.1352  0.8411 -0.4646
 4054SOL     OW15981   2.663   3.575   5.258  0.1642  0.0994  0.1619
 4054SOL    HW215982   2.726   3.634   5.218 -0.1703  0.7064  0.5070
 4054SOL    HW315983   2.708   3.538   5.333 -0.5275  2.1363  1.6667
 4054SOL    MW415984   2.677   3.578   5.262  0.0288  0.4482  0.4060
 4055SOL     OW15985   2.992   4.715   4.268 -0.6647  0.5627 -0.1253
 4055SOL    HW215986   2.984   4.718   4.173 -1.0968 -0.5868 -0.1445
 4055SOL    HW315987   2.902   4.703   4.299 -0.5121  0.8020  0.4150
 4055SOL    MW415988   2.979   4.714   4.260 -0.7016  0.4426 -0.0565
 4056SOL     OW15989   3.644   5.033   5.087  0.2727  0.1638 -0.4116
 4056SOL    HW215990   3.608   5.119   5.109 -0.0355 -0.0806  0.0526
 4056SOL    HW315991   3.694   5.008   5.164  1.1410  0.3389 -0.9143
 4056SOL    MW415992   3.646   5.041   5.100  0.3466  0.1547 -0.4167
 4057SOL     OW15993   3.689   3.163   1.925 -0.1538  0.8492 -0.3510
 4057SOL    HW215994   3.720   3.114   1.848  0.6665 -0.6701  0.8943
 4057SOL    HW315995   3.754   3.145   1.993 -0.7389  2.3540  0.6498
 4057SOL    MW415996   3.702   3.154   1.924 -0.1228  0.8473 -0.0547
 4058SOL     OW15997   3.763   1.340   0.162  0.6473  0.3185  0.6897
 4058SOL    HW215998   3.847   1.310   0.197  1.5434 -0.5299 -1.9271
 4058SOL    HW315999   3.778   1.432   0.141  1.3154 -0.0490 -0.6176
 4058SOL    MW416000   3.776   1.348   0.163  0.8537  0.1581  0.1720
 4059SOL     OW16001   5.151   5.385   3.048 -0.3071 -0.4064 -0.0661
 4059SOL    HW216002   5.174   5.302   3.005 -1.0648 -0.5940 -0.1129
 4059SOL    HW316003   5.077   5.363   3.104 -2.0830  0.7231 -1.8569
 4059SOL    MW416004   5.145   5.371   3.050 -0.6414 -0.2821 -0.3086
 4060SOL     OW16005   4.846   1.619   3.797  0.0698  0.3093 -0.0332
 4060SOL    HW216006   4.757   1.601   3.765 -0.5229  1.9455  0.5528
 4060SOL    HW316007   4.843   1.594   3.890  1.2976 -2.8720 -0.7242
 4060SOL    MW416008   4.834   1.614   3.805  0.1536  0.1055 -0.0471
 4061SOL     OW16009   0.361   5.672   1.198 -0.1412  0.4029 -0.0008
 4061SOL    HW216010   0.408   5.756   1.202 -1.2577  1.0231  0.3529
 4061SOL    HW316011   0.270   5.695   1.215 -0.5786 -0.7888 -0.6570
 4061SOL    MW416012   0.355   5.686   1.201 -0.3462  0.3275 -0.0407
 4062SOL     OW16013   0.795   0.368   4.620 -0.0690 -0.4284  0.6964
 4062SOL    HW216014   0.839   0.284   4.636  2.3377  0.7122  0.4560
 4062SOL    HW316015   0.761   0.361   4.531  1.5757 -0.5983  0.0478
 4062SOL    MW416016   0.796   0.356   4.611  0.4655 -0.3004  0.5791
 4063SOL     OW16017   4.493   1.423   1.538  0.1399 -0.4747  0.0506
 4063SOL    HW216018   4.526   1.512   1.530 -0.4683  0.2166  3.6666
 4063SOL    HW316019   4.399   1.431   1.519  0.1061 -0.3716  0.2612
 4063SOL    MW416020   4.485   1.436   1.534  0.0552 -0.3699  0.5555
 4064SOL     OW16021   5.751   4.933   4.054 -0.5478 -0.2480  0.0467
 4064SOL    HW216022   5.759   4.996   3.982 -2.2138  1.4724  1.2840
 4064SOL    HW316023   5.782   4.981   4.131 -1.1235 -1.1967  0.8862
 4064SOL    MW416024   5.756   4.948   4.054 -0.8436 -0.1462  0.3207
 4065SOL     OW16025   0.477   1.164   5.896 -0.1560  0.1325 -0.2984
 4065SOL    HW216026   0.550   1.130   5.845  0.5875  0.8139  0.2959
 4065SOL    HW316027   0.502   1.254   5.917 -1.3271  0.4964 -0.3936
 4065SOL    MW416028   0.490   1.171   5.892 -0.2124  0.2704 -0.2325
 4066SOL     OW16029   1.830   4.178   3.618  0.5466  0.8957  0.4195
 4066SOL    HW216030   1.814   4.244   3.686  1.4529  0.6977  0.8260
 4066SOL    HW316031   1.849   4.098   3.666  0.2729  0.5236 -0.0794
 4066SOL    MW416032   1.830   4.176   3.633  0.6301  0.8205  0.4073
 4067SOL     OW16033   0.698   3.980   4.283 -1.2358 -0.0653 -0.1976
 4067SOL    HW216034   0.659   3.897   4.311 -4.1560  0.8851 -1.0935
 4067SOL    HW316035   0.636   4.047   4.311  0.6376  1.7806 -0.2248
 4067SOL    MW416036   0.685   3.977   4.290 -1.3739  0.3037 -0.3194
 4068SOL     OW16037   1.083   2.514   3.742  0.1966 -0.6223  0.1253
 4068SOL    HW216038   0.992   2.492   3.764 -1.1460  1.0027 -3.0500
 4068SOL    HW316039   1.101   2.463   3.663  0.8530  1.4237 -1.1123
 4068SOL    MW416040   1.073   2.504   3.735  0.1061 -0.1380 -0.4569
 4069SOL     OW16041   5.483   4.810   5.253  0.1355  0.0065 -0.5985
 4069SOL    HW216042   5.516   4.893   5.289 -1.1907  0.2444  0.1257
 4069SOL    HW316043   5.531   4.743   5.302 -0.2022  0.3452  0.2124
 4069SOL    MW416044   5.494   4.812   5.264 -0.0840  0.0826 -0.3960
 4070SOL     OW16045   2.151   0.703   3.414 -0.1560  0.2766 -0.3783
 4070SOL    HW216046   2.223   0.723   3.473 -1.3736  0.2698  1.1668
 4070SOL    HW316047   2.114   0.621   3.448 -0.0916 -0.4421 -1.9388
 4070SOL    MW416048   2.156   0.695   3.426 -0.3081  0.1809 -0.3803
 4071SOL     OW16049   2.647   3.639   2.366  0.1120 -0.6764  0.3132
 4071SOL    HW216050   2.637   3.546   2.345  2.0764 -1.2334  1.5056
 4071SOL    HW316051   2.734   3.644   2.407  1.0210  2.0396 -1.6664
 4071SOL    MW416052   2.657   3.627   2.369  0.4911 -0.3916  0.2093
 4072SOL     OW16053   5.895   5.401   4.498 -0.0156  0.0781 -0.0865
 4072SOL    HW216054   5.920   5.309   4.506  0.1496  0.0951 -0.3621
 4072SOL    HW316055   5.948   5.433   4.425 -0.1146  0.3766 -0.0273
 4072SOL    MW416056   5.905   5.393   4.489 -0.0068  0.1197 -0.1151
 4073SOL     OW16057   2.376   6.356   6.285  0.3351  0.1802  0.2063
 4073SOL    HW216058   2.445   6.418   6.308 -0.5787  0.8324  1.3056
 4073SOL    HW316059   2.307   6.409   6.245  0.2133 -0.3639 -0.3159
 4073SOL    MW416060   2.376   6.371   6.283  0.1985  0.1945  0.2824
 4074SOL     OW16061   2.831   6.157   3.718  0.0568 -0.3722 -0.1047
 4074SOL    HW216062   2.744   6.125   3.740  0.1628 -0.0062  0.8913
 4074SOL    HW316063   2.867   6.189   3.800  0.4266  1.1596 -0.8244
 4074SOL    MW416064   2.824   6.157   3.731  0.1196 -0.1218 -0.0683
 4075SOL     OW16065   1.075   1.595   5.650  0.6336 -0.2948  0.3081
 4075SOL    HW216066   1.084   1.572   5.742  0.7724 -0.6115  0.2161
 4075SOL    HW316067   1.026   1.677   5.651  0.9258 -0.1194  0.6783
 4075SOL    MW416068   1.070   1.603   5.662  0.6904 -0.3134  0.3448
 4076SOL     OW16069   2.008   2.467   2.896 -0.1304  0.0676 -0.0721
 4076SOL    HW216070   1.934   2.524   2.878 -1.4418 -1.3653  0.5568
 4076SOL    HW316071   1.969   2.386   2.928  1.7785 -0.0419  2.2533
 4076SOL    MW416072   1.993   2.464   2.898 -0.0515 -0.1359  0.3177
 4077SOL     OW16073   1.101   5.325   5.715  0.0684  0.5012 -0.4850
 4077SOL    HW216074   1.033   5.258   5.705  1.4938 -0.8797 -1.3890
 4077SOL    HW316075   1.119   5.327   5.809  1.5964 -2.1492 -0.6028
 4077SOL    MW416076   1.095   5.316   5.726  0.4581 -0.0307 -0.6198
 4078SOL     OW16077   1.417   3.231   6.170  0.0818  0.5315  0.2731
 4078SOL    HW216078   1.340   3.209   6.221 -1.7622 -0.7144 -2.7571
 4078SOL    HW316079   1.416   3.170   6.096  4.1998  0.2394  0.1804
 4078SOL    MW416080   1.407   3.220   6.167  0.3818  0.3286 -0.1389
 4079SOL     OW16081   4.100   5.013   3.660 -0.1791  0.0240  0.6493
 4079SOL    HW216082   4.070   5.062   3.737 -0.1537  0.7508  0.2036
 4079SOL    HW316083   4.098   5.077   3.589  1.5545 -0.1441  0.4166
 4079SOL    MW416084   4.096   5.028   3.661  0.0530  0.0977  0.5598
 4080SOL     OW16085   1.824   3.065   3.368 -0.3458  0.0734 -0.2248
 4080SOL    HW216086   1.877   3.117   3.429  1.0626 -1.4872 -0.0361
 4080SOL    HW316087   1.850   3.097   3.281 -2.3792  2.3213 -0.1027
 4080SOL    MW416088   1.835   3.076   3.364 -0.4282  0.1641 -0.1838
 4081SOL     OW16089   1.711   2.164   3.540  0.1190 -0.0394 -0.0537
 4081SOL    HW216090   1.759   2.130   3.615  0.4713 -0.3394 -0.4143
 4081SOL    HW316091   1.755   2.128   3.464  0.0149  0.5867 -0.4242
 4081SOL    MW416092   1.723   2.155   3.540  0.1518  0.0036 -0.1502
 4082SOL     OW16093   6.083   1.172   2.418  0.3029  0.2232  0.3671
 4082SOL    HW216094   6.082   1.077   2.410  1.7593  0.3396 -4.2559
 4082SOL    HW316095   6.174   1.194   2.435  0.0876  0.8232  0.7701
 4082SOL    MW416096   6.095   1.163   2.419  0.4667  0.3177 -0.1897
 4083SOL     OW16097   1.522   2.501   5.544  0.0749 -1.0258  0.2779
 4083SOL    HW216098   1.463   2.555   5.492  1.0201  0.1660  0.4280
 4083SOL    HW316099   1.474   2.418   5.555 -0.2142 -1.2943 -2.3424
 4083SOL    MW416100   1.508   2.497   5.539  0.1615 -0.9040 -0.0480
 4084SOL     OW16101   5.927   4.015   2.634 -0.1452 -0.0630  0.2381
 4084SOL    HW216102   5.968   4.020   2.720  0.9771  2.2247 -0.3484
 4084SOL    HW316103   5.989   3.965   2.581 -0.7322 -1.2816  0.6809
 4084SOL    MW416104   5.941   4.009   2.638 -0.0746  0.0781  0.2191
 4085SOL     OW16105   0.601   0.808   5.064 -0.1562 -0.3565 -0.1680
 4085SOL    HW216106   0.526   0.861   5.090 -0.7261 -0.6097 -1.2681
 4085SOL    HW316107   0.628   0.843   4.980 -0.9377 -2.1765 -1.2422
 4085SOL    MW416108   0.595   0.820   5.057 -0.3345 -0.6301 -0.4548
 4086SOL     OW16109   1.395   1.693   3.695  0.1838  0.4189 -0.0071
 4086SOL    HW216110   1.307   1.687   3.732 -0.4016  1.9615 -1.0118
 4086SOL    HW316111   1.386   1.755   3.622  1.3917 -1.9364 -2.3393
 4086SOL    MW416112   1.382   1.701   3.690  0.2659  0.3117 -0.4474
 4087SOL     OW16113   2.458   3.640   0.253  0.0820  0.6825 -0.1958
 4087SOL    HW216114   2.469   3.545   0.266 -0.2243  0.8976  2.0403
 4087SOL    HW316115   2.367   3.657   0.277 -0.1937  1.4171 -1.6726
 4087SOL    MW416116   2.448   3.630   0.258  0.0052  0.8078 -0.0956
 4088SOL     OW16117   1.744   4.235   6.369  0.6666 -0.0615  0.4118
 4088SOL    HW216118   1.663   4.268   6.330 -0.0808 -1.9629  0.2864
 4088SOL    HW316119   1.768   4.302   6.433 -1.0856  0.4742  0.5591
 4088SOL    MW416120   1.737   4.249   6.372  0.3368 -0.2417  0.4147
 4089SOL     OW16121   3.675   3.091   2.519 -0.0488  0.4302  0.5846
 4089SOL    HW216122   3.670   3.164   2.457  0.9119  0.2904  0.3232
 4089SOL    HW316123   3.601   3.105   2.579  0.8077  2.2917  1.2716
 4089SOL    MW416124   3.664   3.102   2.519  0.1910  0.6574  0.6408
 4090SOL     OW16125   5.819   0.468   6.315 -0.0575 -0.4347  0.3587
 4090SOL    HW216126   5.732   0.506   6.326  0.3563  0.0250  2.2667
 4090SOL    HW316127   5.875   0.542   6.290  0.1244 -0.3808  0.9114
 4090SOL    MW416128   5.815   0.483   6.313  0.0211 -0.3669  0.6834
 4091SOL     OW16129   1.168   4.413   2.663 -0.1992  0.2832 -0.2805
 4091SOL    HW216130   1.101   4.413   2.593 -0.2288  2.6402 -0.3304
 4091SOL    HW316131   1.118   4.394   2.743 -0.6935  0.5980 -0.5051
 4091SOL    MW416132   1.152   4.410   2.664 -0.2683  0.6357 -0.3167
 4092SOL     OW16133   1.495   6.040   1.404 -0.2329  0.4276 -0.5343
 4092SOL    HW216134   1.507   6.001   1.491 -1.2969  0.9929 -0.1064
 4092SOL    HW316135   1.460   6.128   1.422 -1.2147  0.2701 -1.5426
 4092SOL    MW416136   1.492   6.047   1.418 -0.5028  0.4814 -0.6109
 4093SOL     OW16137   2.180   4.650   5.873  0.1745 -0.5244 -0.0532
 4093SOL    HW216138   2.090   4.637   5.843 -0.5972 -0.0889  1.9603
 4093SOL    HW316139   2.228   4.670   5.793 -1.1373 -2.4801 -1.4417
 4093SOL    MW416140   2.174   4.651   5.858 -0.1004 -0.7250  0.0293
 4094SOL     OW16141   0.258   5.775   3.889 -0.1770  0.4729 -0.3572
 4094SOL    HW216142   0.201   5.837   3.843 -1.8191 -1.6666 -1.3808
 4094SOL    HW316143   0.203   5.736   3.956  1.0305  0.5770  0.7323
 4094SOL    MW416144   0.243   5.778   3.892 -0.2344  0.2044 -0.3485
 4095SOL     OW16145   2.808   4.423   3.185  0.1443  0.8730  0.0066
 4095SOL    HW216146   2.833   4.373   3.263 -0.6564  0.0714 -0.2309
 4095SOL    HW316147   2.727   4.467   3.210 -0.0235  0.7495 -0.3085
 4095SOL    MW416148   2.801   4.422   3.198  0.0165  0.7510 -0.0663
 4096SOL     OW16149   0.214   0.545   5.743 -0.1312  0.9230 -0.0596
 4096SOL    HW216150   0.172   0.625   5.712 -3.3125 -0.9762 -1.0713
 4096SOL    HW316151   0.227   0.492   5.664 -1.3438 -0.9401  0.9244
 4096SOL    MW416152   0.210   0.549   5.728 -0.7109  0.4266 -0.0632
 4097SOL     OW16153   1.347   5.208   2.632 -0.6710  0.0372 -0.0944
 4097SOL    HW216154   1.320   5.300   2.632 -1.0649 -0.0740  0.5687
 4097SOL    HW316155   1.415   5.204   2.700 -0.6658 -0.1611 -0.1124
 4097SOL    MW416156   1.353   5.220   2.641 -0.7223 -0.0036 -0.0093
 4098SOL     OW16157   0.814   5.154   3.765  0.1055 -0.4504 -0.1485
 4098SOL    HW216158   0.785   5.244   3.750  0.6050  0.1665  2.1072
 4098SOL    HW316159   0.909   5.162   3.777  0.1701 -1.2931 -0.0883
 4098SOL    MW416160   0.823   5.167   3.765  0.1799 -0.4802  0.1571
 4099SOL     OW16161   3.231   5.304   2.730  0.3359  0.5808 -0.3014
 4099SOL    HW216162   3.223   5.264   2.643  0.1102  3.0696 -1.5301
 4099SOL    HW316163   3.148   5.350   2.743  1.1720  1.9892  0.2692
 4099SOL    MW416164   3.219   5.305   2.720  0.4164  1.0950 -0.3882
 4100SOL     OW16165   0.996   4.081   2.394 -0.2517  0.0667 -0.2394
 4100SOL    HW216166   0.970   3.990   2.385 -1.6449  0.5530 -1.5468
 4100SOL    HW316167   1.069   4.091   2.333  1.4024 -0.6624  1.5212
 4100SOL    MW416168   1.002   4.071   2.385 -0.2173  0.0346 -0.1796
 4101SOL     OW16169   0.459   6.409   4.255  0.1604  0.4114  0.8709
 4101SOL    HW216170   0.522   6.465   4.299  1.8570 -0.1255 -0.7232
 4101SOL    HW316171   0.429   6.348   4.323 -0.1734  1.9098  2.1222
 4101SOL    MW416172   0.463   6.408   4.270  0.3402  0.5383  0.8257
 4102SOL     OW16173   2.347   4.901   2.758 -0.8906 -1.0038 -0.2653
 4102SOL    HW216174   2.356   4.921   2.665 -0.1093 -0.2779 -0.0532
 4102SOL    HW316175   2.306   4.815   2.761  0.7698 -1.8774 -1.3194
 4102SOL    MW416176   2.343   4.892   2.747 -0.5685 -1.0233 -0.3764
 4103SOL     OW16177   3.376   0.295   4.117  0.4296 -0.1450 -0.0508
 4103SOL    HW216178   3.429   0.316   4.193  2.1449 -0.3036 -1.1621
 4103SOL    HW316179   3.321   0.222   4.145  2.4130 -1.4986  0.4912
 4103SOL    MW416180   3.375   0.288   4.130  0.9176 -0.3445 -0.1259
 4104SOL     OW16181   0.220   5.630   4.927 -0.4493 -0.2454  0.8812
 4104SOL    HW216182   0.151   5.678   4.880 -1.0505 -2.9916 -1.2840
 4104SOL    HW316183   0.300   5.679   4.908 -1.2816  1.0047  0.4240
 4104SOL    MW416184   0.221   5.643   4.918 -0.6384 -0.4428  0.5352
 4105SOL     OW16185   0.938   1.919   0.775  0.1158  0.2601 -0.1023
 4105SOL    HW216186   0.944   1.987   0.709  1.0259 -0.2185 -0.5359
 4105SOL    HW316187   0.958   1.963   0.858 -0.0077  0.6564 -0.2858
 4105SOL    MW416188   0.942   1.934   0.777  0.2196  0.2492 -0.1837
 4106SOL     OW16189   4.865   6.272   4.673  0.0848  0.1852  0.0221
 4106SOL    HW216190   4.785   6.314   4.642  0.0658 -0.2087 -0.4810
 4106SOL    HW316191   4.904   6.335   4.734  0.0055  0.8811 -0.6297
 4106SOL    MW416192   4.860   6.286   4.677  0.0718  0.2250 -0.1302
 4107SOL     OW16193   1.297   4.536   3.870  0.3001 -0.2203  0.6692
 4107SOL    HW216194   1.368   4.568   3.815  0.8322 -1.9640  0.2841
 4107SOL    HW316195   1.223   4.592   3.848  0.9443  0.1651 -0.6101
 4107SOL    MW416196   1.297   4.547   3.860  0.4553 -0.3995  0.4496
 4108SOL     OW16197   5.833   2.126   0.517 -0.0460  0.6646  0.4999
 4108SOL    HW216198   5.889   2.075   0.459  1.6565  2.5794  0.3405
 4108SOL    HW316199   5.778   2.177   0.459 -1.7631 -0.8928  0.6596
 4108SOL    MW416200   5.833   2.126   0.502 -0.0479  0.7118  0.4999
 4109SOL     OW16201   6.407   3.138   0.689 -0.2076  0.2315 -0.4437
 4109SOL    HW216202   6.329   3.189   0.713  1.5009  2.7624  0.1215
 4109SOL    HW316203   6.399   3.057   0.740 -1.7081  1.0982  0.7849
 4109SOL    MW416204   6.396   3.134   0.699 -0.1802  0.6798 -0.2070
 4110SOL     OW16205   3.010   4.576   5.782 -0.1497  0.2690  0.2907
 4110SOL    HW216206   3.084   4.533   5.739 -0.5802  0.5247 -0.7325
 4110SOL    HW316207   2.932   4.532   5.747 -0.4926 -0.6340  2.0420
 4110SOL    MW416208   3.009   4.565   5.772 -0.2518  0.1836  0.3868
 4111SOL     OW16209   5.282   4.235   5.262 -0.1105 -0.2964  0.1373
 4111SOL    HW216210   5.249   4.147   5.245 -0.7002 -0.2302  0.9022
 4111SOL    HW316211   5.378   4.226   5.259 -0.0723 -0.1692 -3.6949
 4111SOL    MW416212   5.290   4.223   5.260 -0.1833 -0.2709 -0.2674
 4112SOL     OW16213   0.186   1.536   2.598 -0.3306 -0.3155 -0.5645
 4112SOL    HW216214   0.166   1.447   2.627 -3.0608 -0.1276 -1.5743
 4112SOL    HW316215   0.114   1.589   2.632  0.1416  1.1290 -1.6985
 4112SOL    MW416216   0.174   1.532   2.606 -0.6285 -0.1001 -0.8473
 4113SOL     OW16217   3.444   1.131   5.155 -0.3924 -0.1816  0.3807
 4113SOL    HW216218   3.445   1.224   5.179 -0.7043 -0.6782  2.5654
 4113SOL    HW316219   3.393   1.128   5.074  2.6553  1.9242 -1.8933
 4113SOL    MW416220   3.438   1.143   5.148 -0.0314  0.0308  0.3689
 4114SOL     OW16221   0.023   2.463   0.220  0.0616 -0.1885  0.3760
 4114SOL    HW216222  -0.015   2.549   0.240 -0.1357 -0.1853  0.0070
 4114SOL    HW316223  -0.043   2.420   0.166  1.5353  0.7854 -2.4383
 4114SOL    MW416224   0.009   2.469   0.215  0.2300 -0.0596 -0.0440
 4115SOL     OW16225   3.076   4.132   2.395  0.6041 -0.0270 -0.6925
 4115SOL    HW216226   3.131   4.058   2.421  4.2339  2.6323  0.0819
 4115SOL    HW316227   3.030   4.156   2.475  0.9570 -0.2549 -0.4159
 4115SOL    MW416228   3.077   4.125   2.409  1.1296  0.2938 -0.5539
 4116SOL     OW16229   5.954   3.614   1.573  0.6540  0.4851  0.2594
 4116SOL    HW216230   5.969   3.597   1.480 -1.4050 -1.0126  0.1289
 4116SOL    HW316231   5.910   3.699   1.575 -0.2208  0.0592 -0.2567
 4116SOL    MW416232   5.950   3.623   1.561  0.2669  0.2313  0.1741
 4117SOL     OW16233   3.080   5.472   1.063 -0.3972  0.4160  0.6552
 4117SOL    HW216234   3.044   5.392   1.102 -1.4358  1.3037  1.5892
 4117SOL    HW316235   3.148   5.441   1.003 -1.4705 -1.2185  0.2234
 4117SOL    MW416236   3.085   5.457   1.060 -0.6759  0.3175  0.7215
 4118SOL     OW16237   2.715   2.201   4.474 -0.0745  0.2425  0.7031
 4118SOL    HW216238   2.661   2.123   4.460 -0.3739  0.1426  2.2337
 4118SOL    HW316239   2.651   2.272   4.482  0.2329  0.8441 -1.6468
 4118SOL    MW416240   2.699   2.200   4.473 -0.0734  0.3087  0.5950
 4119SOL     OW16241   2.492   4.283   2.218 -0.2027  0.9030 -0.3210
 4119SOL    HW216242   2.568   4.311   2.168  1.6104 -1.2491  1.0477
 4119SOL    HW316243   2.489   4.342   2.293 -0.8438  1.9215 -1.1100
 4119SOL    MW416244   2.502   4.295   2.221 -0.0480  0.7534 -0.2445
 4120SOL     OW16245   4.335   2.634   3.134 -0.7843  0.1004  0.6419
 4120SOL    HW216246   4.397   2.646   3.063 -2.3247 -0.0404 -0.7957
 4120SOL    HW316247   4.329   2.720   3.176 -1.5641  0.8518 -0.9052
 4120SOL    MW416248   4.342   2.647   3.130 -1.0905  0.1810  0.2481
 4121SOL     OW16249   2.766   4.882   0.822 -0.5940 -0.1933  0.4495
 4121SOL    HW216250   2.685   4.858   0.867 -1.1069 -1.8571 -1.2460
 4121SOL    HW316251   2.826   4.810   0.840 -0.3457 -0.1966 -0.3275
 4121SOL    MW416252   2.763   4.870   0.830 -0.6289 -0.4132  0.1233
 4122SOL     OW16253   0.480   2.468   0.336 -0.1990 -0.0131  0.0075
 4122SOL    HW216254   0.474   2.379   0.373 -0.4796 -0.7246 -1.6675
 4122SOL    HW316255   0.424   2.521   0.393  1.0336 -0.5706  1.8646
 4122SOL    MW416256   0.472   2.463   0.349 -0.0734 -0.1805  0.0315
 4123SOL     OW16257   0.136   4.094   3.089  0.0428  0.2347  0.1013
 4123SOL    HW216258   0.170   4.145   3.016 -0.6304  0.4026 -0.1012
 4123SOL    HW316259   0.202   4.104   3.158  1.9947 -2.0607 -1.2995
 4123SOL    MW416260   0.149   4.102   3.089  0.2115 -0.0460 -0.1102
 4124SOL     OW16261   4.101   0.481   2.210  0.1539  0.1307 -0.0598
 4124SOL    HW216262   4.098   0.544   2.282  1.0806 -0.0922  0.1838
 4124SOL    HW316263   4.131   0.400   2.250 -1.3284 -0.5656 -0.3157
 4124SOL    MW416264   4.105   0.479   2.225  0.0806  0.0094 -0.0614
 4125SOL     OW16265   3.139   4.673   1.602  0.1225 -0.2987 -0.2256
 4125SOL    HW216266   3.138   4.644   1.511 -1.6506 -0.5051 -0.1668
 4125SOL    HW316267   3.096   4.601   1.650 -3.0439  1.6555  0.1343
 4125SOL    MW416268   3.133   4.659   1.597 -0.5292 -0.0681 -0.1703
 4126SOL     OW16269   0.761   2.756   5.089 -0.1555 -0.0614  0.8338
 4126SOL    HW216270   0.680   2.752   5.038 -0.2168 -1.5484  1.0000
 4126SOL    HW316271   0.824   2.799   5.030 -0.1323 -2.0342 -0.7067
 4126SOL    MW416272   0.759   2.761   5.074 -0.1605 -0.5179  0.6525
 4127SOL     OW16273   0.886   4.735   0.774 -0.2257 -0.1870 -0.0282
 4127SOL    HW216274   0.921   4.742   0.863 -1.1903  0.6613  0.2971
 4127SOL    HW316275   0.823   4.806   0.767 -0.6463 -0.6494 -1.1805
 4127SOL    MW416276   0.882   4.745   0.784 -0.4085 -0.1361 -0.1373
 4128SOL     OW16277   2.093   5.317   4.518  0.0816 -0.3659 -0.0120
 4128SOL    HW216278   2.054   5.332   4.604  0.7132 -1.6855  0.5427
 4128SOL    HW316279   2.160   5.385   4.510 -1.3149  1.0171 -0.3618
 4128SOL    MW416280   2.097   5.328   4.529 -0.0193 -0.3575  0.0150
 4129SOL     OW16281   2.109   0.160   2.175  0.1169 -0.2311  0.5933
 4129SOL    HW216282   2.134   0.185   2.087 -1.5341 -1.0588 -0.1638
 4129SOL    HW316283   2.167   0.087   2.198  0.4546 -0.1033  0.1456
 4129SOL    MW416284   2.120   0.154   2.167 -0.0563 -0.3235  0.4343
 4130SOL     OW16285   5.332   4.629   2.978  1.0855  0.0714 -0.6935
 4130SOL    HW216286   5.399   4.590   2.922  2.6648  1.7153 -0.0567
 4130SOL    HW316287   5.364   4.717   2.996  0.1206 -0.0173  1.8996
 4130SOL    MW416288   5.345   4.635   2.973  1.1666  0.2766 -0.2674
 4131SOL     OW16289   0.740   3.543   2.448 -0.1679  0.0503 -0.2359
 4131SOL    HW216290   0.815   3.603   2.447 -0.2633  0.2815  1.7116
 4131SOL    HW316291   0.731   3.514   2.358  0.7521  1.8996 -0.9813
 4131SOL    MW416292   0.749   3.547   2.436 -0.0591  0.3248 -0.0773
 4132SOL     OW16293   0.595   5.547   4.105 -0.4559  0.3525 -0.7930
 4132SOL    HW216294   0.510   5.504   4.111 -0.5994  0.8319  2.1231
 4132SOL    HW316295   0.581   5.633   4.143  1.1688  0.7183 -0.9561
 4132SOL    MW416296   0.582   5.552   4.111 -0.2605  0.4641 -0.4298
 4133SOL     OW16297   3.541   2.968   4.424  0.6931  0.0941 -0.2994
 4133SOL    HW216298   3.470   2.916   4.461 -1.7083  2.0976 -1.8228
 4133SOL    HW316299   3.503   3.009   4.347  3.0355  2.5575 -0.2764
 4133SOL    MW416300   3.527   2.967   4.419  0.6853  0.6834 -0.4973
 4134SOL     OW16301   0.242   6.185   6.136 -0.4812  0.5401  0.0215
 4134SOL    HW216302   0.165   6.145   6.175  0.9269 -1.1437  1.2099
 4134SOL    HW316303   0.274   6.120   6.072 -0.7932  1.8056 -1.4974
 4134SOL    MW416304   0.236   6.171   6.132 -0.3366  0.4849 -0.0221
 4135SOL     OW16305   2.129   5.054   1.077 -0.3690  0.2350  0.3738
 4135SOL    HW216306   2.183   4.991   1.124 -0.5249  0.6564  1.1356
 4135SOL    HW316307   2.110   5.012   0.993  1.1572  0.0921  0.0745
 4135SOL    MW416308   2.134   5.040   1.072 -0.1882  0.2718  0.4348
 4136SOL     OW16309   0.499   3.324   1.075  0.5855 -0.1052  0.3503
 4136SOL    HW216310   0.522   3.290   0.988  0.0660 -0.6980  0.4347
 4136SOL    HW316311   0.518   3.252   1.134 -0.6114 -0.3110  0.5256
 4136SOL    MW416312   0.504   3.310   1.071  0.3590 -0.2105  0.3846
 4137SOL     OW16313   6.253   2.325   3.083 -0.7371 -0.2244  0.1133
 4137SOL    HW216314   6.246   2.317   3.178 -0.7459 -0.2979  0.1067
 4137SOL    HW316315   6.328   2.270   3.060  1.7709  2.7849  0.5156
 4137SOL    MW416316   6.262   2.317   3.093 -0.4074  0.1629  0.1655
 4138SOL     OW16317   5.938   4.913   1.698 -0.3740 -0.0259  0.2934
 4138SOL    HW216318   5.863   4.857   1.678 -0.8897  0.3135  1.2052
 4138SOL    HW316319   5.993   4.909   1.619 -1.4372 -0.1257 -0.4668
 4138SOL    MW416320   5.935   4.905   1.685 -0.5823  0.0057  0.3134
 4139SOL     OW16321   4.037   5.362   4.039  0.0685 -0.5555  0.4177
 4139SOL    HW216322   4.057   5.381   4.131  1.4813  0.9909 -0.1585
 4139SOL    HW316323   4.122   5.355   3.996 -0.4972  1.8891 -1.3231
 4139SOL    MW416324   4.051   5.364   4.045  0.1803 -0.0289  0.1120
 4140SOL     OW16325   2.590   4.912   1.262  0.1535 -0.0546 -0.2442
 4140SOL    HW216326   2.674   4.958   1.250 -0.1795  0.9761  1.1257
 4140SOL    HW316327   2.607   4.851   1.333 -0.6863  1.4251  1.3053
 4140SOL    MW416328   2.604   4.910   1.270 -0.0012  0.2766  0.1410
 4141SOL     OW16329   0.758   5.370   4.499  0.2046 -0.3453  0.5422
 4141SOL    HW216330   0.823   5.430   4.535  0.2160 -1.2772  2.1285
 4141SOL    HW316331   0.780   5.364   4.406  2.0087 -0.1782  0.9291
 4141SOL    MW416332   0.769   5.377   4.491  0.4441 -0.4462  0.8025
 4142SOL     OW16333   2.342   1.017   6.124 -0.1288 -0.1932  0.2849
 4142SOL    HW216334   2.277   1.087   6.132  0.1362  0.0049  0.7165
 4142SOL    HW316335   2.387   1.036   6.041  0.8602  0.9392  1.0502
 4142SOL    MW416336   2.339   1.029   6.114  0.0366 -0.0177  0.4428
 4143SOL     OW16337   6.218   1.322   0.317  0.3355 -0.5614  0.1968
 4143SOL    HW216338   6.298   1.312   0.264 -0.6199 -2.5461 -0.9978
 4143SOL    HW316339   6.149   1.335   0.253 -0.5805 -0.8707  1.1053
 4143SOL    MW416340   6.220   1.322   0.302  0.0886 -0.8641  0.1591
 4144SOL     OW16341   3.555   3.349   1.326 -0.0072 -0.8870  0.4314
 4144SOL    HW216342   3.611   3.358   1.249  2.1374 -3.4556  1.5288
 4144SOL    HW316343   3.498   3.426   1.323  0.3835 -0.5434 -3.3244
 4144SOL    MW416344   3.555   3.361   1.315  0.3273 -1.1806  0.0807
 4145SOL     OW16345   3.259   6.323   5.906  0.0006  0.5243 -0.3154
 4145SOL    HW216346   3.210   6.308   5.987 -0.1099  0.5620 -0.3755
 4145SOL    HW316347   3.332   6.261   5.911  0.0324  0.5740 -0.1552
 4145SOL    MW416348   3.262   6.313   5.917 -0.0098  0.5359 -0.3022
 4146SOL     OW16349   1.847   5.535   6.433 -0.0412 -0.2649  0.6632
 4146SOL    HW216350   1.921   5.565   6.380 -1.1141  1.1263 -0.1294
 4146SOL    HW316351   1.866   5.566   6.521 -0.0459  0.7910  0.3018
 4146SOL    MW416352   1.860   5.543   6.438 -0.1834  0.0580  0.5110
 4147SOL     OW16353   2.703   0.921   6.253 -0.1054  0.1085  0.3300
 4147SOL    HW216354   2.676   0.912   6.162 -2.3761  0.1500  0.9443
 4147SOL    HW316355   2.755   1.002   6.255  1.7826 -0.9833 -1.2478
 4147SOL    MW416356   2.707   0.931   6.241 -0.1559 -0.0301  0.2029
 4148SOL     OW16357   5.140   4.362   3.261 -0.1032 -0.0709 -0.3962
 4148SOL    HW216358   5.130   4.389   3.169  0.7141  1.0134 -0.1838
 4148SOL    HW316359   5.211   4.417   3.294  0.5068 -1.3793  0.5352
 4148SOL    MW416360   5.148   4.373   3.253  0.0851 -0.1005 -0.2453
 4149SOL     OW16361   3.374   3.349   2.825 -0.0048 -0.4969 -0.0497
 4149SOL    HW216362   3.412   3.285   2.765  0.0960  0.4139 -1.0045
 4149SOL    HW316363   3.301   3.303   2.866  0.3155 -1.3492 -0.3999
 4149SOL    MW416364   3.369   3.335   2.822  0.0507 -0.4892 -0.2219
 4150SOL     OW16365   5.266   0.622   5.226 -0.2530  0.5504 -0.3493
 4150SOL    HW216366   5.293   0.575   5.147  0.6556  0.4542  0.0045
 4150SOL    HW316367   5.184   0.665   5.201  0.0766  0.6234 -1.3841
 4150SOL    MW416368   5.259   0.622   5.212 -0.0896  0.5473 -0.4392
 4151SOL     OW16369   2.110   4.717   3.444  0.1784  0.7815 -0.1220
 4151SOL    HW216370   2.067   4.632   3.454  0.2290  0.4787 -2.1727
 4151SOL    HW316371   2.111   4.754   3.533 -1.2121 -0.6777  0.5407
 4151SOL    MW416372   2.105   4.711   3.457  0.0016  0.5490 -0.3051
 4152SOL     OW16373   0.944   5.389   1.743  0.3466  0.2120  0.1319
 4152SOL    HW216374   1.002   5.324   1.783  1.3588  0.9998 -0.0011
 4152SOL    HW316375   0.856   5.364   1.771  0.8262 -0.5429  1.0153
 4152SOL    MW416376   0.940   5.377   1.752  0.5434  0.2163  0.2309
 4153SOL     OW16377   3.802   0.785   1.005 -0.8569 -0.2567  0.0087
 4153SOL    HW216378   3.795   0.801   0.911  0.6801 -1.1455 -0.3057
 4153SOL    HW316379   3.796   0.689   1.014 -1.6398 -0.1420  0.9004
 4153SOL    MW416380   3.801   0.774   0.994 -0.7574 -0.3588  0.0848
 4154SOL     OW16381   3.097   3.012   2.237 -0.0346 -0.2255  0.3316
 4154SOL    HW216382   3.147   3.093   2.240 -0.0695 -0.0967 -1.5491
 4154SOL    HW316383   3.160   2.946   2.206 -0.2138 -0.7666  1.0803
 4154SOL    MW416384   3.112   3.014   2.234 -0.0628 -0.2799  0.1823
 4155SOL     OW16385   5.702   1.667   4.826  0.2493 -0.2274  0.5303
 4155SOL    HW216386   5.678   1.744   4.878 -0.9824  0.5480 -1.0712
 4155SOL    HW316387   5.676   1.690   4.737  0.5564 -2.2229 -0.1199
 4155SOL    MW416388   5.695   1.680   4.821  0.1273 -0.3884  0.2332
 4156SOL     OW16389   2.234   3.017   3.034  0.3788 -0.5268  0.2245
 4156SOL    HW216390   2.255   2.957   2.962 -0.9467  0.1384 -0.7534
 4156SOL    HW316391   2.298   3.087   3.026 -0.9192  0.5473 -1.5807
 4156SOL    MW416392   2.245   3.018   3.023  0.0327 -0.2974 -0.1427
 4157SOL     OW16393   3.549   2.860   5.921 -0.0968 -0.8722 -0.4244
 4157SOL    HW216394   3.639   2.873   5.892 -0.7010  0.0432 -2.0611
 4157SOL    HW316395   3.555   2.852   6.016  1.5513  0.8738 -0.3224
 4157SOL    MW416396   3.561   2.861   5.930  0.0409 -0.5211 -0.6269
 4158SOL     OW16397   2.489   1.319   4.781  0.1944  0.0216  0.0893
 4158SOL    HW216398   2.413   1.274   4.819  0.6617 -0.1756  0.8012
 4158SOL    HW316399   2.495   1.401   4.831  0.8328 -0.2549  0.4809
 4158SOL    MW416400   2.480   1.324   4.793  0.3403 -0.0409  0.2349
 4159SOL     OW16401   5.782   5.354   0.576 -0.2812  0.2352  0.3577
 4159SOL    HW216402   5.868   5.349   0.619 -0.3157  0.8487  0.5057
 4159SOL    HW316403   5.719   5.361   0.648 -0.4195  0.2650  0.2339
 4159SOL    MW416404   5.785   5.354   0.591 -0.3040  0.3201  0.3609
 4160SOL     OW16405   6.311   4.316   2.816 -0.2905  0.1125  0.0584
 4160SOL    HW216406   6.371   4.378   2.859  1.2083 -1.7438  0.7774
 4160SOL    HW316407   6.366   4.272   2.750 -1.7611  0.6836 -1.6309
 4160SOL    MW416408   6.326   4.318   2.813 -0.2868 -0.0571 -0.0696
 4161SOL     OW16409   4.075   2.152   3.325  0.3305  0.3173 -0.1068
 4161SOL    HW216410   4.033   2.184   3.405 -1.3099 -3.6275  0.8559
 4161SOL    HW316411   4.039   2.206   3.255 -2.6372  0.3594  1.2889
 4161SOL    MW416412   4.065   2.163   3.326 -0.2775 -0.1976  0.2043
 4162SOL     OW16413   5.061   5.626   2.987  0.0571 -0.0711  0.3026
 4162SOL    HW216414   4.982   5.644   3.037 -0.4895 -2.2179  0.3179
 4162SOL    HW316415   5.081   5.535   3.006  1.0496 -0.3437 -1.7354
 4162SOL    MW416416   5.053   5.616   2.996  0.1159 -0.3903  0.0357
 4163SOL     OW16417   1.479   3.792   1.445 -0.3172 -0.3269  0.1524
 4163SOL    HW216418   1.527   3.874   1.456 -0.4373 -0.1570 -0.5461
 4163SOL    HW316419   1.495   3.744   1.526 -2.1528  1.3550  1.6528
 4163SOL    MW416420   1.487   3.797   1.457 -0.5752 -0.0825  0.2582
 4164SOL     OW16421   0.431   1.410   4.773 -0.1702  0.3481  0.1099
 4164SOL    HW216422   0.464   1.485   4.822  2.4012  0.2167 -1.2811
 4164SOL    HW316423   0.365   1.371   4.831  0.5650  1.9489  2.1305
 4164SOL    MW416424   0.427   1.415   4.787  0.2661  0.5419  0.1930
 4165SOL     OW16425   2.111   0.197   0.036  0.0845  0.0817 -0.7272
 4165SOL    HW216426   2.068   0.252   0.102 -0.0243  1.7358 -2.1224
 4165SOL    HW316427   2.056   0.204  -0.041  1.0987 -0.4617 -1.5286
 4165SOL    MW416428   2.098   0.205   0.035  0.2039  0.2283 -1.0170
 4166SOL     OW16429   1.273   4.065   0.910 -0.5837 -0.1587 -0.1694
 4166SOL    HW216430   1.297   3.987   0.861 -0.1314 -1.4446  1.9697
 4166SOL    HW316431   1.196   4.038   0.961 -1.9660  1.5804 -1.2244
 4166SOL    MW416432   1.266   4.051   0.910 -0.7064 -0.0989 -0.0264
 4167SOL     OW16433   0.112   3.606   4.993  0.1792 -0.2565 -0.1178
 4167SOL    HW216434   0.131   3.589   4.901  0.0583  3.0327 -0.8760
 4167SOL    HW316435   0.030   3.559   5.011 -1.2523  1.1556 -2.5066
 4167SOL    MW416436   0.104   3.597   4.984 -0.0256  0.3638 -0.5330
 4168SOL     OW16437   1.115   0.304   0.734 -0.4970  0.6707 -0.8089
 4168SOL    HW216438   1.069   0.250   0.669  0.8974  0.8074 -1.9526
 4168SOL    HW316439   1.081   0.392   0.720 -1.5184  0.4097 -0.0996
 4168SOL    MW416440   1.104   0.308   0.724 -0.4478  0.6543 -0.8662
 4169SOL     OW16441   2.004   4.281   2.934 -0.1439 -0.2924 -1.1048
 4169SOL    HW216442   2.088   4.316   2.964 -1.8404  1.2706  2.5630
 4169SOL    HW316443   2.001   4.192   2.969 -0.2577 -0.1050 -0.6281
 4169SOL    MW416444   2.015   4.274   2.943 -0.3828 -0.0614 -0.5580
 4170SOL     OW16445   0.867   5.997   3.699 -0.1596 -0.3966 -0.0283
 4170SOL    HW216446   0.888   5.920   3.752  2.0368 -0.3164 -0.6655
 4170SOL    HW316447   0.772   6.005   3.704 -0.2886 -2.1873  1.3656
 4170SOL    MW416448   0.857   5.988   3.707  0.1132 -0.6223  0.0715
 4171SOL     OW16449   0.316   4.095   0.927 -0.3726 -0.7354 -0.4410
 4171SOL    HW216450   0.397   4.080   0.878  0.9076  1.2286  0.9636
 4171SOL    HW316451   0.281   4.177   0.891 -0.6052 -0.4653  0.3793
 4171SOL    MW416452   0.322   4.104   0.916 -0.2344 -0.4407 -0.1474
 4172SOL     OW16453   4.614   1.339   0.824  0.4327  0.2150 -0.1707
 4172SOL    HW216454   4.690   1.300   0.781  0.4218  1.2170 -1.1415
 4172SOL    HW316455   4.577   1.268   0.877  1.2518 -0.6587 -0.7445
 4172SOL    MW416456   4.619   1.325   0.825  0.5393  0.2319 -0.3745
 4173SOL     OW16457   0.804   3.898   1.409  0.7570  0.2695 -0.0132
 4173SOL    HW216458   0.795   3.983   1.365  2.1040 -0.5259 -1.9764
 4173SOL    HW316459   0.743   3.840   1.362  1.2305 -0.2832  0.0375
 4173SOL    MW416460   0.795   3.901   1.397  0.9972  0.0916 -0.2655
 4174SOL     OW16461   3.158   3.116   4.566  0.1163  0.2788 -0.0327
 4174SOL    HW216462   3.184   3.078   4.650  1.0147 -0.3715 -0.5849
 4174SOL    HW316463   3.179   3.048   4.501  0.2050  1.0796 -0.8727
 4174SOL    MW416464   3.164   3.102   4.568  0.2466  0.2987 -0.2164
 4175SOL     OW16465   5.003   6.177   6.033  0.2041 -0.2456 -0.2423
 4175SOL    HW216466   4.918   6.215   6.054  1.3053  1.8308  0.7553
 4175SOL    HW316467   5.057   6.194   6.110  2.1239  0.4672 -1.6700
 4175SOL    MW416468   4.999   6.184   6.046  0.6027  0.1224 -0.2991
 4176SOL     OW16469   2.053   1.736   1.681 -0.5967 -0.8785  0.2200
 4176SOL    HW216470   1.993   1.695   1.744 -0.0974  2.4538  3.1340
 4176SOL    HW316471   2.050   1.829   1.701  0.5657  0.3158 -4.0305
 4176SOL    MW416472   2.045   1.743   1.692 -0.3775 -0.2813  0.0436
 4177SOL     OW16473   1.264   0.685   4.839  0.3299 -0.3960  0.3150
 4177SOL    HW216474   1.175   0.718   4.828  0.5416  0.6034  1.3438
 4177SOL    HW316475   1.259   0.593   4.815 -0.8245 -0.1900 -0.3054
 4177SOL    MW416476   1.251   0.677   4.834  0.2055 -0.2370  0.3689
 4178SOL     OW16477   0.265   2.234   0.904  0.6201 -0.4244  0.0380
 4178SOL    HW216478   0.247   2.205   0.815  3.5096 -2.0579 -0.1316
 4178SOL    HW316479   0.195   2.297   0.923  0.2706  0.5388 -3.6137
 4178SOL    MW416480   0.253   2.239   0.895  0.9552 -0.5128 -0.4662
 4179SOL     OW16481   4.531   0.479   0.983  0.1445  0.7206  0.0706
 4179SOL    HW216482   4.621   0.487   0.952  0.6698  1.6394  1.7094
 4179SOL    HW316483   4.514   0.562   1.029 -1.8258  0.9068 -0.9027
 4179SOL    MW416484   4.541   0.491   0.985 -0.0462  0.8664  0.1584
 4180SOL     OW16485   3.920   0.728   2.806 -0.3450 -0.1776  0.8064
 4180SOL    HW216486   3.905   0.805   2.751  0.6566 -0.1809  0.5053
 4180SOL    HW316487   4.014   0.710   2.797 -0.2702 -0.5400  2.0439
 4180SOL    MW416488   3.931   0.736   2.798 -0.2030 -0.2259  0.9299
 4181SOL     OW16489   1.445   5.252   3.407  1.0322  0.2141  0.6015
 4181SOL    HW216490   1.382   5.251   3.335  0.8145  1.8318  0.7426
 4181SOL    HW316491   1.473   5.343   3.413  1.8051 -0.0927  1.9140
 4181SOL    MW416492   1.440   5.264   3.398  1.1054  0.3871  0.7933
 4182SOL     OW16493   0.078   2.504   2.964  0.0978 -0.1410 -0.0439
 4182SOL    HW216494   0.152   2.494   3.024  0.1579 -2.1535 -0.3597
 4182SOL    HW316495   0.117   2.502   2.877 -0.0992  1.5852 -0.1916
 4182SOL    MW416496   0.093   2.502   2.960  0.0797 -0.1788 -0.1051
 4183SOL     OW16497   0.150   5.120   5.013 -0.1869 -0.1087  0.4785
 4183SOL    HW216498   0.196   5.203   5.027  0.2612  0.0087 -1.3656
 4183SOL    HW316499   0.124   5.091   5.100  1.2220  1.0686  1.3224
 4183SOL    MW416500   0.152   5.127   5.026  0.0581  0.0621  0.3465
 4184SOL     OW16501   2.824   3.859   3.785  0.5519  0.4035  1.3004
 4184SOL    HW216502   2.737   3.827   3.805 -0.4049  1.9070 -0.1585
 4184SOL    HW316503   2.859   3.889   3.869 -1.4696  2.3213  1.5565
 4184SOL    MW416504   2.817   3.859   3.798  0.1590  0.8549  1.1417
 4185SOL     OW16505   4.909   5.501   0.751  0.4809  0.1279 -0.2224
 4185SOL    HW216506   4.921   5.510   0.846  0.2995 -0.4285 -0.1430
 4185SOL    HW316507   4.817   5.479   0.741  0.7453 -0.9505 -0.4396
 4185SOL    MW416508   4.898   5.499   0.762  0.4918 -0.0878 -0.2406
 4186SOL     OW16509   3.502   6.191   5.945  0.2086  0.4963  0.3520
 4186SOL    HW216510   3.586   6.226   5.918 -0.6213  1.0297 -1.7064
 4186SOL    HW316511   3.523   6.121   6.007  2.1050  1.1516  0.4875
 4186SOL    MW416512   3.516   6.186   5.950  0.3493  0.6531  0.0983
 4187SOL     OW16513   6.077   4.858   0.615 -0.0360  0.5806 -0.0446
 4187SOL    HW216514   6.167   4.872   0.583  0.3454 -0.1770  0.6610
 4187SOL    HW316515   6.022   4.875   0.538  0.7794  0.0819 -0.7653
 4187SOL    MW416516   6.082   4.862   0.601  0.1219  0.4149 -0.0466
 4188SOL     OW16517   3.852   5.048   6.245  0.1191  0.4125 -0.4301
 4188SOL    HW216518   3.820   5.075   6.158 -0.1880  1.3455 -0.0359
 4188SOL    HW316519   3.946   5.032   6.231  0.0702  0.5298 -0.9368
 4188SOL    MW416520   3.861   5.049   6.231  0.0722  0.5511 -0.4450
 4189SOL     OW16521   3.371   0.285   3.659 -0.0413 -0.6372 -0.3706
 4189SOL    HW216522   3.446   0.230   3.638  0.1504 -0.8399  0.7541
 4189SOL    HW316523   3.374   0.356   3.595  0.0819 -1.5727 -1.4332
 4189SOL    MW416524   3.381   0.287   3.648  0.0002 -0.7874 -0.3624
 4190SOL     OW16525   4.112   0.400   6.403 -0.2170 -0.1395 -0.0741
 4190SOL    HW216526   4.192   0.348   6.392 -0.6126 -1.1356  1.4740
 4190SOL    HW316527   4.054   0.369   6.334  0.6841  0.5763 -1.2070
 4190SOL    MW416528   4.115   0.389   6.392 -0.1503 -0.1765 -0.0193
 4191SOL     OW16529   1.083   5.629   1.770 -0.2150 -0.5909  0.1288
 4191SOL    HW216530   1.089   5.658   1.679 -1.5589  0.4490  0.3263
 4191SOL    HW316531   1.032   5.549   1.767 -2.5782  0.8100  0.1237
 4191SOL    MW416532   1.077   5.623   1.757 -0.7041 -0.2689  0.1542
 4192SOL     OW16533   5.376   2.459   1.829 -0.1508  0.0604 -0.0097
 4192SOL    HW216534   5.307   2.511   1.870 -0.5081 -1.0181  0.8151
 4192SOL    HW316535   5.366   2.476   1.735 -1.1140  0.4368  0.1468
 4192SOL    MW416536   5.365   2.468   1.822 -0.3250 -0.0323  0.1198
 4193SOL     OW16537   2.959   3.128   1.456  0.4240  0.3164  0.3296
 4193SOL    HW216538   2.951   3.054   1.517  1.3388 -0.2196 -0.1820
 4193SOL    HW316539   2.879   3.124   1.403  1.0307 -1.0924 -0.5323
 4193SOL    MW416540   2.947   3.118   1.457  0.6247  0.0598  0.1484
 4194SOL     OW16541   2.380   4.974   5.258 -0.4292  0.5713 -0.0772
 4194SOL    HW216542   2.415   4.894   5.218 -1.2514 -0.8408  1.8669
 4194SOL    HW316543   2.454   5.034   5.258  0.3599 -0.3533 -1.1633
 4194SOL    MW416544   2.395   4.971   5.253 -0.4336  0.2630  0.0360
 4195SOL     OW16545   0.892   3.636   0.587  0.2488  0.2076 -0.7095
 4195SOL    HW216546   0.896   3.542   0.604 -1.1945  0.1519 -0.5387
 4195SOL    HW316547   0.861   3.642   0.497 -1.1896  0.4972 -0.2202
 4195SOL    MW416548   0.888   3.624   0.577 -0.1314  0.2384 -0.6224
 4196SOL     OW16549   1.792   1.710   4.185 -1.2721 -0.5525  0.0013
 4196SOL    HW216550   1.703   1.744   4.193 -1.1140 -0.4262  1.4966
 4196SOL    HW316551   1.806   1.703   4.091 -2.9318 -0.7812 -0.2650
 4196SOL    MW416552   1.782   1.714   4.174 -1.4702 -0.5660  0.1635
 4197SOL     OW16553   3.922   1.380   1.553  0.0670 -0.2553 -0.2126
 4197SOL    HW216554   3.830   1.381   1.579  0.0477  0.2095 -0.2873
 4197SOL    HW316555   3.954   1.295   1.581  0.1075  0.3019  1.5519
 4197SOL    MW416556   3.914   1.369   1.560  0.0698 -0.1204  0.0103
 4198SOL     OW16557   3.930   3.561   5.071 -0.4288 -0.4993 -0.0243
 4198SOL    HW216558   3.911   3.655   5.075 -0.6660 -0.5690  0.6360
 4198SOL    HW316559   3.856   3.524   5.024 -2.0141 -0.7570  2.4645
 4198SOL    MW416560   3.918   3.568   5.066 -0.6692 -0.5425  0.3912
 4199SOL     OW16561   0.861   3.166   2.024 -0.4775 -0.2767  0.6173
 4199SOL    HW216562   0.923   3.108   2.069  0.3239  0.3460  0.3525
 4199SOL    HW316563   0.856   3.131   1.936 -0.8007 -0.5530  0.7450
 4199SOL    MW416564   0.869   3.154   2.019 -0.4144 -0.2310  0.5992
 4200SOL     OW16565   5.879   0.198   4.945  0.3453 -0.4806  0.1294
 4200SOL    HW216566   5.963   0.188   4.900  1.1111 -1.6578  1.7286
 4200SOL    HW316567   5.815   0.207   4.874  1.9706  2.5665 -1.1455
 4200SOL    MW416568   5.881   0.198   4.930  0.6608 -0.2339  0.1722
 4201SOL     OW16569   2.358   2.625   3.424  0.3738  0.4878 -0.0427
 4201SOL    HW216570   2.300   2.685   3.471  0.5140  1.2913 -0.8618
 4201SOL    HW316571   2.426   2.603   3.488 -0.7953 -0.4449  0.9137
 4201SOL    MW416572   2.360   2.630   3.439  0.2380  0.4708 -0.0246
 4202SOL     OW16573   1.786   4.372   1.584 -0.3009  0.4965  0.0494
 4202SOL    HW216574   1.810   4.452   1.630  0.9873  0.6037 -0.7411
 4202SOL    HW316575   1.831   4.379   1.499 -1.6689 -0.2139 -0.7640
 4202SOL    MW416576   1.795   4.384   1.578 -0.3114  0.4169 -0.1622
 4203SOL     OW16577   0.354   6.310   5.363 -0.4469  0.0708  0.0695
 4203SOL    HW216578   0.263   6.316   5.333 -0.7114  0.1126  0.8640
 4203SOL    HW316579   0.358   6.366   5.440  0.1120 -0.3723  0.3714
 4203SOL    MW416580   0.343   6.318   5.369 -0.4081  0.0179  0.2142
 4204SOL     OW16581   0.595   4.523   1.880  0.3911 -0.3400 -0.7292
 4204SOL    HW216582   0.540   4.542   1.804  0.7869  0.1029 -0.9137
 4204SOL    HW316583   0.670   4.476   1.844  0.7804  0.2327 -0.6773
 4204SOL    MW416584   0.598   4.519   1.865  0.4947 -0.2060 -0.7467
 4205SOL     OW16585   3.608   1.989   6.345  0.1126  0.5238 -0.2951
 4205SOL    HW216586   3.552   1.948   6.411  0.0077 -0.4129 -0.9497
 4205SOL    HW316587   3.552   2.055   6.304 -0.4215 -0.1747 -0.7149
 4205SOL    MW416588   3.593   1.992   6.348  0.0283  0.3080 -0.4368
 4206SOL     OW16589   3.627   3.554   0.900  0.0796 -0.1553  0.4289
 4206SOL    HW216590   3.708   3.604   0.910 -0.1035  0.2847 -0.2687
 4206SOL    HW316591   3.646   3.469   0.941  0.7430  0.1001  0.6603
 4206SOL    MW416592   3.640   3.549   0.907  0.1430 -0.0636  0.3674
 4207SOL     OW16593   6.134   4.906   2.555  0.3284  0.8966  0.4124
 4207SOL    HW216594   6.219   4.942   2.528  0.3288  0.2779 -0.4463
 4207SOL    HW316595   6.070   4.960   2.508  0.2592  1.0397  0.6694
 4207SOL    MW416596   6.137   4.918   2.545  0.3193  0.8339  0.3330
 4208SOL     OW16597   0.604   3.821   5.120  0.1202  0.0169 -0.0568
 4208SOL    HW216598   0.567   3.739   5.152 -0.8921  0.3807 -0.2520
 4208SOL    HW316599   0.542   3.850   5.053 -0.1318  1.4923  0.7745
 4208SOL    MW416600   0.591   3.814   5.115 -0.0466  0.2595  0.0271
 4209SOL     OW16601   4.692   3.260   2.757  0.1843 -0.0589  0.0564
 4209SOL    HW216602   4.761   3.317   2.724 -1.0149  0.9674 -0.7538
 4209SOL    HW316603   4.645   3.231   2.679  0.2664 -1.5503  0.5168
 4209SOL    MW416604   4.695   3.264   2.743  0.0369 -0.1203  0.0103
 4210SOL     OW16605   5.917   5.033   2.426  0.4656 -0.2911 -0.3962
 4210SOL    HW216606   5.931   5.089   2.350 -0.0058 -0.3389 -0.5190
 4210SOL    HW316607   5.888   4.950   2.389  0.2194 -0.3086 -0.1668
 4210SOL    MW416608   5.915   5.030   2.411  0.3709 -0.2997 -0.3822
 4211SOL     OW16609   4.451   3.742   3.944  0.1840 -0.3282  0.6255
 4211SOL    HW216610   4.362   3.759   3.914  0.7790  0.6488 -0.7177
 4211SOL    HW316611   4.442   3.722   4.037 -1.3282  0.7235  0.7392
 4211SOL    MW416612   4.438   3.742   3.952  0.0630 -0.0605  0.4633
 4212SOL     OW16613   0.454   2.190   4.456  0.4414 -0.1820 -0.7376
 4212SOL    HW216614   0.527   2.252   4.447 -0.8966  1.4449 -1.0713
 4212SOL    HW316615   0.444   2.179   4.551  1.0676 -0.3570 -0.6887
 4212SOL    MW416616   0.463   2.197   4.468  0.3475  0.0096 -0.7752
 4213SOL     OW16617   2.066   2.118   0.560  0.1364 -0.0121 -0.0130
 4213SOL    HW216618   2.130   2.048   0.571 -1.0298 -1.1486 -0.1018
 4213SOL    HW316619   2.104   2.176   0.494  0.6583 -1.1740 -0.7665
 4213SOL    MW416620   2.079   2.116   0.552  0.0514 -0.3154 -0.1241
 4214SOL     OW16621   0.798   2.641   0.838  0.6963  0.1351  0.1453
 4214SOL    HW216622   0.771   2.552   0.816 -0.8743  0.9157 -1.3352
 4214SOL    HW316623   0.848   2.670   0.761  0.5170  0.7998  0.2795
 4214SOL    MW416624   0.801   2.633   0.825  0.4654  0.3258 -0.0323
 4215SOL     OW16625   1.319   4.139   5.856 -0.4182  0.2408 -0.6168
 4215SOL    HW216626   1.287   4.189   5.931  0.1197  0.2395 -0.3803
 4215SOL    HW316627   1.240   4.101   5.817 -0.4829 -2.6223  1.9658
 4215SOL    MW416628   1.304   4.141   5.861 -0.3558 -0.1371 -0.2448
 4216SOL     OW16629   3.575   2.134   5.928  0.3917  0.3597 -0.5319
 4216SOL    HW216630   3.661   2.093   5.935  0.1467 -0.3827 -1.5959
 4216SOL    HW316631   3.581   2.187   5.848 -0.4331 -0.4544 -1.1490
 4216SOL    MW416632   3.587   2.136   5.918  0.2506  0.1544 -0.7537
 4217SOL     OW16633   0.724   0.599   4.147 -0.9513 -0.6622 -0.1604
 4217SOL    HW216634   0.682   0.682   4.124 -2.7717 -1.3989  0.3939
 4217SOL    HW316635   0.788   0.585   4.077 -1.2729  0.7301 -0.7706
 4217SOL    MW416636   0.727   0.608   4.135 -1.2339 -0.5757 -0.1678
 4218SOL     OW16637   2.134   6.307   2.917 -0.5734  0.6405  0.3029
 4218SOL    HW216638   2.095   6.296   2.830 -0.1254 -2.7326  0.3974
 4218SOL    HW316639   2.104   6.231   2.967  1.5283  0.9319  2.1611
 4218SOL    MW416640   2.125   6.295   2.912 -0.2370  0.2339  0.5606
 4219SOL     OW16641   2.061   3.002   4.888 -0.4102  0.3870  0.8719
 4219SOL    HW216642   2.029   3.063   4.822 -1.2690  0.9680  1.7945
 4219SOL    HW316643   1.983   2.955   4.918  0.0642 -0.3368  1.0075
 4219SOL    MW416644   2.047   3.004   4.883 -0.4609  0.3682  1.0115
 4220SOL     OW16645   1.785   3.464   2.971  0.0042 -0.2270 -1.0048
 4220SOL    HW216646   1.697   3.497   2.990 -0.4417 -1.0622 -1.5832
 4220SOL    HW316647   1.832   3.541   2.939  0.1453  0.7337  1.3238
 4220SOL    MW416648   1.779   3.479   2.969 -0.0360 -0.2104 -0.7739
 4221SOL     OW16649   3.343   6.180   4.763 -0.0681  0.1072  0.7436
 4221SOL    HW216650   3.380   6.255   4.808 -1.2648  1.2769 -0.1244
 4221SOL    HW316651   3.351   6.202   4.670 -0.7634 -0.6639  0.4879
 4221SOL    MW416652   3.349   6.193   4.756 -0.3177  0.1598  0.5953
 4222SOL     OW16653   4.111   5.637   0.360  0.7480 -0.2296 -0.3739
 4222SOL    HW216654   4.204   5.655   0.345  0.6269  0.2940 -0.5152
 4222SOL    HW316655   4.084   5.582   0.286  0.1667  2.2658 -2.1268
 4222SOL    MW416656   4.120   5.632   0.348  0.6553  0.1687 -0.6238
 4223SOL     OW16657   2.443   0.268   5.597  0.0944 -0.0610  0.1871
 4223SOL    HW216658   2.418   0.244   5.687  0.3445 -1.5347 -0.1149
 4223SOL    HW316659   2.411   0.358   5.587 -0.7158 -0.1761  1.4567
 4223SOL    MW416660   2.435   0.277   5.608  0.0205 -0.2706  0.3148
 4224SOL     OW16661   3.373   4.659   5.939  0.2044 -0.0885  0.0755
 4224SOL    HW216662   3.324   4.604   6.001 -0.6339 -0.4538 -0.8900
 4224SOL    HW316663   3.314   4.670   5.864  1.1979  0.3550 -0.6668
 4224SOL    MW416664   3.358   4.654   5.937  0.2249 -0.0782 -0.1499
 4225SOL     OW16665   6.212   5.079   5.315  0.1278 -0.0383  0.0529
 4225SOL    HW216666   6.181   5.098   5.226 -1.4376 -0.1926  0.5234
 4225SOL    HW316667   6.206   5.163   5.360 -2.9641 -0.6599  1.0501
 4225SOL    MW416668   6.207   5.092   5.309 -0.4867 -0.1407  0.2465
 4226SOL     OW16669   5.503   4.210   5.499 -0.2054  0.6553  0.1567
 4226SOL    HW216670   5.505   4.117   5.480  0.7828  0.6282  0.3140
 4226SOL    HW316671   5.501   4.215   5.595  0.1185  0.7966  0.1564
 4226SOL    MW416672   5.503   4.199   5.509 -0.0323  0.6704  0.1774
 4227SOL     OW16673   3.498   5.345   4.517 -0.4411 -0.4840  0.1924
 4227SOL    HW216674   3.434   5.275   4.527  0.6181 -1.2484  2.1864
 4227SOL    HW316675   3.576   5.302   4.483 -0.2796  0.0329 -0.1037
 4227SOL    MW416676   3.500   5.330   4.514 -0.2800 -0.5167  0.4164
 4228SOL     OW16677   1.469   1.366   5.831  0.3656  0.2009 -0.4886
 4228SOL    HW216678   1.473   1.429   5.760  1.7508  0.1976 -0.4542
 4228SOL    HW316679   1.478   1.419   5.911 -0.8699  0.1759 -0.3192
 4228SOL    MW416680   1.471   1.381   5.832  0.3854  0.1972 -0.4617
 4229SOL     OW16681   5.815   5.973   6.217 -0.6746 -0.3219 -0.2397
 4229SOL    HW216682   5.720   5.972   6.223 -0.6467 -1.2858  0.4632
 4229SOL    HW316683   5.844   5.936   6.300  0.3234  0.1713 -0.3538
 4229SOL    MW416684   5.806   5.968   6.229 -0.5392 -0.3840 -0.1620
 4230SOL     OW16685   6.419   6.069   4.764 -0.3884 -0.5668 -0.7580
 4230SOL    HW216686   6.364   6.046   4.689 -0.2078 -1.5603 -0.5947
 4230SOL    HW316687   6.476   5.994   4.776  0.1309 -0.0827 -0.1133
 4230SOL    MW416688   6.419   6.056   4.756 -0.2961 -0.6340 -0.6514
 4231SOL     OW16689   5.976   1.572   4.315 -0.0046 -0.0737 -0.2476
 4231SOL    HW216690   5.894   1.524   4.305 -0.3269  0.4696 -0.2932
 4231SOL    HW316691   5.966   1.649   4.258 -0.0677  0.7624  0.8716
 4231SOL    MW416692   5.964   1.576   4.306 -0.0554  0.1083 -0.1059
 4232SOL     OW16693   5.832   2.559   3.161  0.0083  0.2125 -0.0197
 4232SOL    HW216694   5.813   2.476   3.116 -0.2146 -0.3818  1.1457
 4232SOL    HW316695   5.895   2.603   3.104  1.5864 -1.5971  0.2345
 4232SOL    MW416696   5.838   2.554   3.147  0.1871 -0.1047  0.1676
 4233SOL     OW16697   5.781   0.187   5.323  0.0482 -0.3098 -0.4007
 4233SOL    HW216698   5.833   0.255   5.280  0.3371 -0.9071 -1.0001
 4233SOL    HW316699   5.791   0.110   5.268 -0.1655 -0.8849  0.3475
 4233SOL    MW416700   5.789   0.186   5.310  0.0581 -0.4644 -0.3811
 4234SOL     OW16701   0.678   2.451   6.277  0.1712 -0.0830  0.1462
 4234SOL    HW216702   0.770   2.431   6.257  0.2953 -0.5094  1.0624
 4234SOL    HW316703   0.675   2.453   6.373 -0.6885  0.3738  0.1190
 4234SOL    MW416704   0.690   2.448   6.287  0.0742 -0.0790  0.2635
 4235SOL     OW16705   6.421   3.584   3.251  0.9487 -0.5918  0.4192
 4235SOL    HW216706   6.499   3.529   3.240 -0.8566 -3.1023 -0.7366
 4235SOL    HW316707   6.435   3.657   3.190  1.5151 -2.1386 -1.4355
 4235SOL    MW416708   6.433   3.586   3.241  0.7853 -1.1271  0.0220
 4236SOL     OW16709   1.667   1.430   3.656 -0.6447  0.2249  0.3915
 4236SOL    HW216710   1.761   1.436   3.636  0.1963 -0.8689  3.4292
 4236SOL    HW316711   1.658   1.473   3.741 -2.6404 -0.9247  0.8164
 4236SOL    MW416712   1.679   1.437   3.664 -0.7971 -0.0711  0.8483
 4237SOL     OW16713   3.414   5.689   1.474 -0.0736  0.7297 -0.3602
 4237SOL    HW216714   3.339   5.688   1.414 -0.2525 -0.1876 -0.1381
 4237SOL    HW316715   3.441   5.781   1.477 -0.2970  0.8485 -1.5461
 4237SOL    MW416716   3.408   5.701   1.466 -0.1267  0.6243 -0.4873
 4238SOL     OW16717   0.784   5.529   3.404 -0.4316  0.0307  0.4543
 4238SOL    HW216718   0.748   5.491   3.485  0.2265  0.0027  0.7432
 4238SOL    HW316719   0.780   5.623   3.418  3.6960  0.1357  2.4540
 4238SOL    MW416720   0.779   5.536   3.417  0.1998  0.0408  0.7563
 4239SOL     OW16721   3.289   2.236   0.447  0.5914  0.3512  0.8775
 4239SOL    HW216722   3.196   2.217   0.431  0.2815  1.8710  0.6948
 4239SOL    HW316723   3.322   2.158   0.492 -0.5674 -0.5574  0.2391
 4239SOL    MW416724   3.281   2.223   0.451  0.3977  0.4318  0.7692
 4240SOL     OW16725   1.995   1.695   3.190 -0.1575  0.0248  0.2525
 4240SOL    HW216726   1.902   1.677   3.177 -0.2719  1.1843 -0.7290
 4240SOL    HW316727   2.040   1.626   3.142 -0.5672  1.1223 -1.8276
 4240SOL    MW416728   1.989   1.683   3.182 -0.2266  0.3226 -0.1515
 4241SOL     OW16729   0.348   1.117   1.390 -0.2386 -0.3019 -0.0921
 4241SOL    HW216730   0.422   1.096   1.332 -0.9181 -2.7537 -0.2074
 4241SOL    HW316731   0.273   1.122   1.332 -0.3072  1.4271  0.1187
 4241SOL    MW416732   0.348   1.115   1.375 -0.3373 -0.3972 -0.0795
 4242SOL     OW16733   4.045   5.318   4.688  0.4734  0.0471 -0.1490
 4242SOL    HW216734   4.112   5.331   4.621  0.8894  0.0650  0.2674
 4242SOL    HW316735   4.072   5.239   4.735 -0.3149 -0.4957 -0.5917
 4242SOL    MW416736   4.057   5.309   4.685  0.4243 -0.0221 -0.1525
 4243SOL     OW16737   5.039   1.103   0.875  0.3773 -0.1680  0.6348
 4243SOL    HW216738   5.056   1.012   0.852 -0.6588  0.2107 -1.9465
 4243SOL    HW316739   5.126   1.143   0.882  0.8282 -1.2553  1.4765
 4243SOL    MW416740   5.053   1.097   0.873  0.3001 -0.2615  0.4053
 4244SOL     OW16741   0.498   2.228   0.516 -0.5885  0.0510 -0.7362
 4244SOL    HW216742   0.508   2.186   0.431  1.2482 -1.3737  0.1017
 4244SOL    HW316743   0.415   2.194   0.550  0.1034 -1.7721 -0.7521
 4244SOL    MW416744   0.489   2.218   0.509 -0.2549 -0.3775 -0.6278
 4245SOL     OW16745   2.010   2.945   0.314 -0.2032  0.0392 -0.0589
 4245SOL    HW216746   1.939   2.990   0.268 -0.0331 -1.9713 -2.4882
 4245SOL    HW316747   1.973   2.924   0.400 -1.4602  1.6511 -0.1486
 4245SOL    MW416748   1.995   2.948   0.319 -0.3466 -0.0134 -0.3912
 4246SOL     OW16749   5.979   0.224   0.809 -0.0619  0.0039 -0.0185
 4246SOL    HW216750   6.014   0.135   0.809 -2.1210 -0.8932  1.9902
 4246SOL    HW316751   5.885   0.213   0.825 -0.2067  2.5484  1.4340
 4246SOL    MW416752   5.971   0.211   0.811 -0.3527  0.2212  0.4382
 4247SOL     OW16753   2.745   3.805   4.161 -0.1474  0.8099  0.2389
 4247SOL    HW216754   2.675   3.826   4.223 -1.3110 -0.8925 -0.4206
 4247SOL    HW316755   2.720   3.720   4.124  1.1179  1.2174 -1.7013
 4247SOL    MW416756   2.733   3.796   4.165 -0.1340  0.6390 -0.1041
 4248SOL     OW16757   5.378   5.926   2.937 -0.1529  0.1401 -0.0191
 4248SOL    HW216758   5.337   5.995   2.884  0.4633 -0.6316 -1.5595
 4248SOL    HW316759   5.322   5.849   2.922 -1.5501  0.5302  2.6458
 4248SOL    MW416760   5.365   5.925   2.928 -0.2560  0.0897  0.1293
 4249SOL     OW16761   4.803   3.074   3.165  0.1673 -0.1074  0.3803
 4249SOL    HW216762   4.874   3.010   3.173  0.3345  0.0516  0.1949
 4249SOL    HW316763   4.724   3.026   3.189 -0.0340 -1.0094 -1.7897
 4249SOL    MW416764   4.802   3.059   3.169  0.1628 -0.2054  0.0695
 4250SOL     OW16765   1.532   5.042   4.276 -0.5854  0.9746  0.4505
 4250SOL    HW216766   1.622   5.018   4.299 -0.6748 -1.5112 -1.3224
 4250SOL    HW316767   1.478   4.980   4.324 -1.1909  1.0157 -0.1611
 4250SOL    MW416768   1.537   5.031   4.285 -0.6770  0.6521  0.1359
 4251SOL     OW16769   2.742   2.230   1.110  0.5571 -0.2675  0.1348
 4251SOL    HW216770   2.700   2.250   1.026  0.2574  0.2408  0.4014
 4251SOL    HW316771   2.719   2.139   1.127  0.9706 -0.5045 -0.5372
 4251SOL    MW416772   2.733   2.221   1.101  0.5721 -0.2317  0.0813
 4252SOL     OW16773   3.447   5.873   1.761  0.2008 -0.0646  0.3087
 4252SOL    HW216774   3.433   5.949   1.705  2.3192  0.4408  0.3855
 4252SOL    HW316775   3.542   5.865   1.768  0.0228 -2.0071  1.2912
 4252SOL    MW416776   3.458   5.882   1.754  0.4568 -0.2542  0.4485
 4253SOL     OW16777   2.934   1.397   6.120  0.0007  0.2496  0.2442
 4253SOL    HW216778   2.862   1.439   6.167 -1.3363  0.2504 -1.6674
 4253SOL    HW316779   2.945   1.312   6.163 -1.7328 -0.0931  0.0812
 4253SOL    MW416780   2.926   1.391   6.132 -0.4044  0.2045 -0.0295
 4254SOL     OW16781   1.375   1.274   1.497  0.4853 -0.4476  0.0860
 4254SOL    HW216782   1.317   1.208   1.537  1.9079 -0.7727  1.7118
 4254SOL    HW316783   1.316   1.347   1.475 -0.4740 -0.4459  2.3923
 4254SOL    MW416784   1.359   1.275   1.499  0.5464 -0.4902  0.6048
 4255SOL     OW16785   6.084   4.285   2.200 -0.3312 -0.0811  0.4381
 4255SOL    HW216786   6.026   4.269   2.275 -1.0225 -0.0032 -0.0632
 4255SOL    HW316787   6.083   4.203   2.151  0.8442 -0.4333  0.9884
 4255SOL    MW416788   6.076   4.272   2.204 -0.2673 -0.1173  0.4446
 4256SOL     OW16789   1.962   6.241   6.278  0.1305  0.1729  0.3512
 4256SOL    HW216790   2.012   6.256   6.197  0.3766  3.8368  1.0415
 4256SOL    HW316791   1.871   6.255   6.252 -0.3054 -2.7673 -0.0688
 4256SOL    MW416792   1.957   6.245   6.264  0.1055  0.2684  0.3868
 4257SOL     OW16793   4.411   2.847   4.598  0.1764  0.1935 -0.6549
 4257SOL    HW216794   4.392   2.865   4.691  2.6609 -0.0377 -0.0486
 4257SOL    HW316795   4.352   2.906   4.550  1.0582  2.6750  1.1262
 4257SOL    MW416796   4.401   2.857   4.604  0.6206  0.4904 -0.3399
 4258SOL     OW16797   4.507   6.199   0.831 -0.0898  0.6400 -0.3844
 4258SOL    HW216798   4.543   6.231   0.913  0.2414  0.0852 -0.3070
 4258SOL    HW316799   4.427   6.250   0.818  0.0463  0.9774  0.1006
 4258SOL    MW416800   4.501   6.210   0.840 -0.0282  0.6113 -0.3102
 4259SOL     OW16801   5.502   3.993   0.385  0.0206  0.2514 -0.2402
 4259SOL    HW216802   5.431   4.021   0.442 -0.2190  0.8140 -0.7960
 4259SOL    HW316803   5.554   4.073   0.372 -1.1033  0.6797 -2.4890
 4259SOL    MW416804   5.500   4.007   0.391 -0.1593  0.3821 -0.6102
 4260SOL     OW16805   3.783   6.255   5.908 -0.3326  0.3393  0.1213
 4260SOL    HW216806   3.808   6.288   5.822 -0.8037 -0.4212 -0.3166
 4260SOL    HW316807   3.846   6.184   5.926 -0.7493 -0.0601  0.0250
 4260SOL    MW416808   3.795   6.250   5.899 -0.4497  0.1863  0.0508
 4261SOL     OW16809   6.341   4.938   3.218 -0.6169  0.0167 -0.4872
 4261SOL    HW216810   6.298   4.870   3.270 -0.5816  0.2794 -0.1095
 4261SOL    HW316811   6.424   4.953   3.262 -0.8942  0.7497 -0.1961
 4261SOL    MW416812   6.346   4.931   3.230 -0.6488  0.1480 -0.3989
 4262SOL     OW16813   2.324   2.937   5.645 -0.0378  0.3469 -0.3514
 4262SOL    HW216814   2.336   2.914   5.737 -0.4906 -3.1804 -1.0333
 4262SOL    HW316815   2.411   2.964   5.616  0.4092  0.2465  0.8140
 4262SOL    MW416816   2.337   2.937   5.654 -0.0386 -0.1318 -0.2876
 4263SOL     OW16817   5.468   6.390   4.925 -0.2515  0.1004 -0.2795
 4263SOL    HW216818   5.389   6.357   4.883 -0.4609  1.2284 -0.7853
 4263SOL    HW316819   5.534   6.393   4.855 -0.4821  1.5661 -0.4711
 4263SOL    MW416820   5.466   6.386   4.910 -0.3095  0.4426 -0.3716
 4264SOL     OW16821   2.157   0.527   5.005 -0.8636 -0.1254 -0.0521
 4264SOL    HW216822   2.068   0.564   5.000 -0.7111  0.0959 -1.2629
 4264SOL    HW316823   2.157   0.454   4.944 -0.1130  0.0746 -0.3010
 4264SOL    MW416824   2.145   0.522   4.997 -0.7445 -0.0698 -0.2447
 4265SOL     OW16825   5.651   2.652   2.196 -0.4381 -0.0255 -0.2471
 4265SOL    HW216826   5.663   2.632   2.104 -0.0226 -0.0210 -0.1935
 4265SOL    HW316827   5.661   2.747   2.202  1.0484 -0.1780  0.0268
 4265SOL    MW416828   5.654   2.662   2.185 -0.1871 -0.0450 -0.2039
 4266SOL     OW16829   5.000   0.710   5.735 -0.3365 -0.5665  0.4164
 4266SOL    HW216830   5.051   0.766   5.677 -0.1984 -2.8658 -1.8341
 4266SOL    HW316831   5.047   0.712   5.819  2.0926 -0.7176 -0.8712
 4266SOL    MW416832   5.013   0.718   5.739  0.0022 -0.8898 -0.0504
 4267SOL     OW16833   3.051   3.910   1.138  0.0766 -0.3244  0.5965
 4267SOL    HW216834   3.102   3.939   1.214 -1.8435  0.5416  1.6121
 4267SOL    HW316835   2.962   3.940   1.155  0.0329  2.7390 -3.3657
 4267SOL    MW416836   3.046   3.918   1.150 -0.1825  0.1940  0.2077
 4268SOL     OW16837   0.036   3.000   4.085  0.0651 -0.0631  0.2273
 4268SOL    HW216838  -0.013   2.923   4.116  0.0280  0.9523  2.9657
 4268SOL    HW316839  -0.032   3.066   4.071  0.0610 -0.5464 -2.4567
 4268SOL    MW416840   0.020   2.998   4.088  0.0597  0.0071  0.2345
 4269SOL     OW16841   0.826   0.343   1.458 -0.5908  0.5903 -0.1086
 4269SOL    HW216842   0.855   0.284   1.528 -0.2305  1.4433  0.4823
 4269SOL    HW316843   0.782   0.286   1.395  0.9609 -0.5100 -0.2384
 4269SOL    MW416844   0.824   0.328   1.459 -0.3386  0.5577 -0.0478
 4270SOL     OW16845   0.926   0.162   1.638  0.3326  0.1266  0.2482
 4270SOL    HW216846   0.849   0.107   1.653 -1.0685  1.7440 -0.6642
 4270SOL    HW316847   0.997   0.100   1.624 -0.6991 -1.4268  1.4553
 4270SOL    MW416848   0.925   0.146   1.638  0.0116  0.1351  0.2871
 4271SOL     OW16849   2.427   4.392   4.830  0.5946  0.0598 -0.2257
 4271SOL    HW216850   2.419   4.480   4.793  1.3600 -0.7955 -2.6434
 4271SOL    HW316851   2.437   4.406   4.924 -1.9099  2.3875 -0.2034
 4271SOL    MW416852   2.427   4.406   4.837  0.3651  0.2541 -0.5418
 4272SOL     OW16853   3.212   2.067   1.515  0.0148  0.1530 -0.0448
 4272SOL    HW216854   3.195   2.069   1.609  0.2484 -0.5707  0.0202
 4272SOL    HW316855   3.277   2.137   1.502 -1.6499  1.7776 -0.0431
 4272SOL    MW416856   3.219   2.077   1.526 -0.1740  0.2718 -0.0360
 4273SOL     OW16857   0.200   3.804   5.736  0.4444 -0.3206 -0.1728
 4273SOL    HW216858   0.237   3.891   5.750  0.2643 -0.3205  0.3276
 4273SOL    HW316859   0.105   3.818   5.735  0.4336 -0.3066 -1.5415
 4273SOL    MW416860   0.192   3.817   5.737  0.4192 -0.3187 -0.2874
 4274SOL     OW16861   1.189   4.943   0.456  0.4602 -0.1974 -0.3109
 4274SOL    HW216862   1.254   5.001   0.497  0.1055 -0.8459  1.2432
 4274SOL    HW316863   1.240   4.884   0.401  0.9380  0.8158 -0.9790
 4274SOL    MW416864   1.204   4.943   0.454  0.4764 -0.1493 -0.1940
 4275SOL     OW16865   2.712   2.976   2.597 -0.0146  0.1029  0.0832
 4275SOL    HW216866   2.683   2.889   2.626  0.3594 -0.3974 -0.9908
 4275SOL    HW316867   2.720   3.027   2.678 -2.5134 -0.1369  0.5550
 4275SOL    MW416868   2.709   2.971   2.612 -0.2950  0.0052  0.0037
 4276SOL     OW16869   2.988   0.948   3.564  0.0825 -0.2114 -0.0535
 4276SOL    HW216870   2.995   1.039   3.591  1.2743 -0.2693 -0.1137
 4276SOL    HW316871   3.077   0.914   3.570 -0.4398 -1.5708  0.6454
 4276SOL    MW416872   3.000   0.955   3.568  0.1709 -0.3984  0.0307
 4277SOL     OW16873   4.707   3.477   2.348 -0.0951 -0.0418  0.5292
 4277SOL    HW216874   4.790   3.432   2.363 -0.9164 -1.5367  0.8359
 4277SOL    HW316875   4.729   3.552   2.292  1.3383 -0.8196  0.0105
 4277SOL    MW416876   4.721   3.481   2.342 -0.0143 -0.3417  0.5012
 4278SOL     OW16877   4.239   5.727   6.394  0.4540 -0.0771 -0.3397
 4278SOL    HW216878   4.197   5.809   6.421  1.0515 -0.2955  1.3318
 4278SOL    HW316879   4.213   5.663   6.460  0.9831 -0.9577 -0.9566
 4278SOL    MW416880   4.230   5.729   6.406  0.6026 -0.2221 -0.2006
 4279SOL     OW16881   3.363   0.452   4.763 -0.0616  0.1628  0.0245
 4279SOL    HW216882   3.285   0.418   4.720 -0.1322  0.8903 -0.4353
 4279SOL    HW316883   3.422   0.376   4.770 -0.6107 -0.2780 -0.0608
 4279SOL    MW416884   3.361   0.437   4.758 -0.1434  0.2006 -0.0474
 4280SOL     OW16885   0.130   5.605   0.582 -0.5654  0.2433 -0.1898
 4280SOL    HW216886   0.148   5.654   0.501  2.6896 -1.4807 -0.6815
 4280SOL    HW316887   0.047   5.560   0.565 -0.4706  0.7224 -2.1615
 4280SOL    MW416888   0.122   5.605   0.569 -0.1234  0.0790 -0.5148
 4281SOL     OW16889   1.278   1.998   2.771  0.1144 -0.2248  0.3211
 4281SOL    HW216890   1.275   1.986   2.676  1.8466  1.1703  0.0214
 4281SOL    HW316891   1.254   1.913   2.807  1.6880 -1.4918 -1.4247
 4281SOL    MW416892   1.275   1.985   2.763  0.5506 -0.2079  0.0512
 4282SOL     OW16893   1.203   1.759   2.858 -0.9719  0.0626 -0.3701
 4282SOL    HW216894   1.182   1.755   2.951  0.0601  1.6151 -0.0322
 4282SOL    HW316895   1.264   1.686   2.844 -1.5490 -0.5114  0.0279
 4282SOL    MW416896   1.209   1.749   2.868 -0.9119  0.1917 -0.2730
 4283SOL     OW16897   4.959   4.173   4.392 -0.4572  0.3294 -0.2762
 4283SOL    HW216898   4.969   4.186   4.297 -0.1472 -0.0767 -0.3043
 4283SOL    HW316899   4.929   4.258   4.425 -1.8056  0.1247 -0.9135
 4283SOL    MW416900   4.956   4.186   4.383 -0.5942  0.2488 -0.3640
 4284SOL     OW16901   2.796   6.410   0.672  0.3802  0.1476 -0.1883
 4284SOL    HW216902   2.822   6.494   0.636 -3.3676  1.6774  0.1353
 4284SOL    HW316903   2.770   6.429   0.763 -2.1522 -0.8549 -0.5898
 4284SOL    MW416904   2.796   6.423   0.679 -0.4484  0.2172 -0.1986
 4285SOL     OW16905   6.204   3.259   3.427  0.2535 -0.0885 -0.5405
 4285SOL    HW216906   6.149   3.257   3.506 -1.0965 -1.2598 -1.4522
 4285SOL    HW316907   6.194   3.172   3.389  0.6887  0.5189 -2.1232
 4285SOL    MW416908   6.195   3.248   3.433  0.1328 -0.1629 -0.8696
 4286SOL     OW16909   5.624   5.576   0.266  0.0988  0.2653 -0.2315
 4286SOL    HW216910   5.558   5.589   0.335 -1.3602  1.0281 -1.7083
 4286SOL    HW316911   5.707   5.585   0.312 -0.7728 -1.1178  1.7728
 4286SOL    MW416912   5.626   5.579   0.282 -0.2087  0.1835 -0.1619
 4287SOL     OW16913   3.069   3.707   0.669  0.3210 -0.1385 -0.1143
 4287SOL    HW216914   3.130   3.730   0.599  1.1605 -3.0416 -0.4433
 4287SOL    HW316915   3.115   3.730   0.749  0.2281  1.2186 -0.4223
 4287SOL    MW416916   3.083   3.713   0.670  0.4195 -0.3425 -0.1983
 4288SOL     OW16917   5.196   5.531   1.622  0.3059  0.3612  0.1475
 4288SOL    HW216918   5.278   5.512   1.669  0.5601 -1.1057 -0.8114
 4288SOL    HW316919   5.221   5.528   1.529 -0.9635 -0.8608 -0.1828
 4288SOL    MW416920   5.210   5.528   1.616  0.1720  0.0064 -0.0226
 4289SOL     OW16921   2.813   1.703   2.500  0.2384  0.1079  0.0115
 4289SOL    HW216922   2.838   1.762   2.429  2.2767 -1.0626 -0.3103
 4289SOL    HW316923   2.868   1.728   2.574  1.3618 -1.5321 -0.2250
 4289SOL    MW416924   2.824   1.714   2.500  0.6555 -0.2629 -0.0621
 4290SOL     OW16925   4.789   1.981   0.549  0.1843  0.1895 -0.0869
 4290SOL    HW216926   4.713   2.039   0.547 -0.8254 -1.0536  0.6381
 4290SOL    HW316927   4.753   1.895   0.568  1.9064 -0.2269  1.6386
 4290SOL    MW416928   4.774   1.978   0.551  0.2783 -0.0294  0.2364
 4291SOL     OW16929   1.562   1.964   2.681  0.0732 -0.4643 -0.0916
 4291SOL    HW216930   1.475   1.961   2.720  0.4301 -1.4368  0.6758
 4291SOL    HW316931   1.587   1.872   2.673  0.8157 -0.2125 -0.8047
 4291SOL    MW416932   1.554   1.951   2.685  0.2182 -0.5594 -0.0845
 4292SOL     OW16933   2.273   3.713   3.770  0.3014 -0.1519  0.0050
 4292SOL    HW216934   2.347   3.671   3.814 -0.6747 -0.3432  1.5254
 4292SOL    HW316935   2.303   3.803   3.756  1.4245 -0.6414 -0.9083
 4292SOL    MW416936   2.287   3.720   3.774  0.3208 -0.2417  0.0851
 4293SOL     OW16937   0.995   6.356   6.112  0.3728 -0.2665  0.4999
 4293SOL    HW216938   0.947   6.289   6.161  0.9444 -2.3337 -1.5806
 4293SOL    HW316939   1.075   6.370   6.162 -0.2697 -0.2888  1.5572
 4293SOL    MW416940   0.999   6.349   6.125  0.3635 -0.5422  0.3649
 4294SOL     OW16941   2.993   1.532   4.343 -0.5974  0.0397  0.3417
 4294SOL    HW216942   2.956   1.447   4.366 -1.6000  0.3993  0.0738
 4294SOL    HW316943   2.923   1.595   4.360  0.5748  1.0109  1.9095
 4294SOL    MW416944   2.979   1.529   4.348 -0.5751  0.2153  0.5132
 4295SOL     OW16945   5.541   2.400   3.839 -0.1673  0.6032  0.0741
 4295SOL    HW216946   5.493   2.357   3.910 -2.0134  3.1909  0.5222
 4295SOL    HW316947   5.476   2.411   3.769  1.2118 -0.4886 -1.4595
 4295SOL    MW416948   5.526   2.396   3.839 -0.2289  0.8006 -0.0691
 4296SOL     OW16949   5.983   2.411   0.719 -0.3197  0.1345  0.5809
 4296SOL    HW216950   6.001   2.454   0.803 -1.6905  0.3881  0.7651
 4296SOL    HW316951   5.921   2.341   0.741 -1.3110  0.7117 -0.3330
 4296SOL    MW416952   5.977   2.407   0.733 -0.6313  0.2441  0.4846
 4297SOL     OW16953   0.108   4.133   4.421  0.4442 -0.0690 -0.1897
 4297SOL    HW216954   0.089   4.198   4.353 -0.8017  0.8185  0.9559
 4297SOL    HW316955   0.098   4.048   4.376  0.4248  0.4931 -1.2902
 4297SOL    MW416956   0.104   4.130   4.406  0.2773  0.1223 -0.1837
 4298SOL     OW16957   6.049   5.529   6.007  0.0808  0.2061 -0.0543
 4298SOL    HW216958   6.044   5.489   5.921 -1.4769  1.1505 -0.4328
 4298SOL    HW316959   5.980   5.595   6.008  0.2042  0.3844  1.8384
 4298SOL    MW416960   6.039   5.533   5.996 -0.1084  0.3542  0.1455
 4299SOL     OW16961   0.696   0.136   1.296 -0.2298 -0.3268  0.5129
 4299SOL    HW216962   0.677   0.126   1.203  0.3288 -0.5448  0.4201
 4299SOL    HW316963   0.616   0.109   1.340 -0.1913 -1.0998  0.1252
 4299SOL    MW416964   0.683   0.131   1.289 -0.1510 -0.4575  0.4495
 4300SOL     OW16965   4.519   5.833   1.569 -0.4341 -0.2408  0.1364
 4300SOL    HW216966   4.521   5.927   1.590 -0.3413 -0.3899  0.8102
 4300SOL    HW316967   4.480   5.792   1.646  0.2610 -0.8398  0.1746
 4300SOL    MW416968   4.514   5.840   1.582 -0.3301 -0.3395  0.2304
 4301SOL     OW16969   4.968   2.324   1.968  0.4548  0.4868  0.4865
 4301SOL    HW216970   4.907   2.299   1.899  1.0078  1.0267 -0.2209
 4301SOL    HW316971   4.917   2.322   2.049 -0.3442  0.3794 -0.0159
 4301SOL    MW416972   4.954   2.321   1.970  0.4223  0.5439  0.3269
 4302SOL     OW16973   3.765   5.853   5.083 -0.2821  0.5235 -0.6061
 4302SOL    HW216974   3.819   5.781   5.050 -1.4931 -1.3723  1.2605
 4302SOL    HW316975   3.706   5.811   5.145 -2.5081  2.8252 -1.0173
 4302SOL    MW416976   3.764   5.838   5.087 -0.7355  0.5770 -0.4141
 4303SOL     OW16977   3.818   2.535   5.379  0.0165  0.5647 -0.4704
 4303SOL    HW216978   3.853   2.580   5.456  0.4439 -0.3059 -0.1403
 4303SOL    HW316979   3.759   2.469   5.415 -2.9861  2.7091 -1.0257
 4303SOL    MW416980   3.815   2.532   5.394 -0.3232  0.7328 -0.5001
 4304SOL     OW16981   4.530   0.724   1.089  0.2428  0.1123  0.2652
 4304SOL    HW216982   4.566   0.733   1.178 -0.7397  0.8137  0.6144
 4304SOL    HW316983   4.569   0.797   1.040 -2.8182  2.7691  1.4171
 4304SOL    MW416984   4.540   0.735   1.095 -0.2907  0.5554  0.4633
 4305SOL     OW16985   0.699   6.335   3.025 -0.0342  0.4322 -0.2340
 4305SOL    HW216986   0.611   6.359   2.996 -0.3838  1.6588  1.7150
 4305SOL    HW316987   0.723   6.261   2.968 -2.8550 -0.8612  0.0694
 4305SOL    MW416988   0.691   6.328   3.014 -0.4525  0.4234  0.0632
 4306SOL     OW16989   3.383   3.817   1.694 -0.0953  0.4401  0.2418
 4306SOL    HW216990   3.478   3.800   1.696 -0.2884 -0.9217 -1.1320
 4306SOL    HW316991   3.355   3.788   1.608 -2.2001 -1.5744  1.4932
 4306SOL    MW416992   3.392   3.811   1.683 -0.3985 -0.0053  0.2257
 4307SOL     OW16993   2.372   1.350   2.554  0.2692  0.1524 -0.1755
 4307SOL    HW216994   2.399   1.383   2.639  2.5571  1.3252 -1.2546
 4307SOL    HW316995   2.449   1.363   2.498 -0.9382 -1.1544 -2.2614
 4307SOL    MW416996   2.386   1.356   2.557  0.4118  0.1347 -0.5931
 4308SOL     OW16997   1.462   4.575   1.850 -0.0324 -0.1327 -0.2343
 4308SOL    HW216998   1.381   4.550   1.895 -0.4883  1.9437  0.2180
 4308SOL    HW316999   1.527   4.578   1.919  0.1905 -0.7482 -0.4128
 4308SOL    MW417000   1.460   4.572   1.865 -0.0631  0.0600 -0.1982
 4309SOL     OW17001   6.357   5.240   4.898  0.1928  0.0489  0.0172
 4309SOL    HW217002   6.438   5.197   4.926 -0.1436 -0.9626 -0.4902
 4309SOL    HW317003   6.346   5.213   4.807  0.0916  1.4520 -0.3972
 4309SOL    MW417004   6.366   5.231   4.890  0.1350  0.1006 -0.1044
 4310SOL     OW17005   6.097   0.646   0.113  0.0843 -0.2163 -0.0646
 4310SOL    HW217006   6.189   0.621   0.105  0.1771 -0.1836  0.7649
 4310SOL    HW317007   6.066   0.654   0.023 -0.0167 -3.5794 -0.4895
 4310SOL    MW417008   6.105   0.644   0.100  0.0832 -0.6557 -0.0112
 4311SOL     OW17009   4.283   3.370   5.608 -0.0508  0.2773 -0.3612
 4311SOL    HW217010   4.237   3.298   5.653  1.1706 -0.5555 -0.3938
 4311SOL    HW317011   4.325   3.419   5.679  0.8082 -0.2695 -0.4811
 4311SOL    MW417012   4.283   3.367   5.624  0.2237  0.0953 -0.3813
 4312SOL     OW17013   5.029   0.165   2.611 -0.2202  0.1644 -0.2410
 4312SOL    HW217014   5.024   0.202   2.699 -0.5969  2.8164 -1.2868
 4312SOL    HW317015   5.108   0.203   2.573 -0.7810  0.1350 -1.4942
 4312SOL    MW417016   5.039   0.175   2.617 -0.3439  0.5104 -0.5443
 4313SOL     OW17017   2.761   2.647   2.983  0.3260 -0.2397  0.4909
 4313SOL    HW217018   2.695   2.580   3.003  0.3547 -0.1517  0.8946
 4313SOL    HW317019   2.783   2.685   3.068  1.7314 -1.0305  0.5107
 4313SOL    MW417020   2.755   2.643   2.997  0.5152 -0.3325  0.5468
 4314SOL     OW17021   3.839   1.611   0.136 -0.4155  0.0354 -0.3520
 4314SOL    HW217022   3.849   1.619   0.042 -0.1317 -1.8176 -0.5235
 4314SOL    HW317023   3.833   1.701   0.168 -0.9378  0.6783 -2.1633
 4314SOL    MW417024   3.840   1.624   0.128 -0.4469 -0.1243 -0.6136
 4315SOL     OW17025   5.792   1.966   1.649 -0.2473 -0.2261 -0.4468
 4315SOL    HW217026   5.728   1.989   1.716 -0.8266 -2.5970 -0.1006
 4315SOL    HW317027   5.747   1.984   1.566 -0.8351 -0.5097 -0.1971
 4315SOL    MW417028   5.777   1.971   1.647 -0.4013 -0.5764 -0.3682
 4316SOL     OW17029   2.020   4.351   3.305  0.1460 -0.0691 -0.3431
 4316SOL    HW217030   1.939   4.305   3.326 -0.5421  0.9891 -0.6174
 4316SOL    HW317031   2.051   4.309   3.224 -0.4272 -0.0925 -0.5544
 4316SOL    MW417032   2.014   4.339   3.297 -0.0204  0.0674 -0.4072
 4317SOL     OW17033   3.133   5.133   3.295  0.0889 -0.0799  0.0368
 4317SOL    HW217034   3.216   5.155   3.254  0.2426 -0.2052  0.2793
 4317SOL    HW317035   3.142   5.163   3.386 -1.0416  2.2329 -0.5301
 4317SOL    MW417036   3.145   5.140   3.302 -0.0400  0.2087 -0.0060
 4318SOL     OW17037   2.452   6.137   2.437  0.1279  0.2572  0.0412
 4318SOL    HW217038   2.464   6.215   2.492  1.8156 -1.0581  1.6651
 4318SOL    HW317039   2.537   6.121   2.397 -0.2824 -0.5686 -0.5481
 4318SOL    MW417040   2.465   6.145   2.439  0.2965 -0.0253  0.1777
 4319SOL     OW17041   4.814   3.344   3.286 -0.4292  0.5143 -0.0438
 4319SOL    HW217042   4.817   3.394   3.205  0.7653 -0.0940 -0.3899
 4319SOL    HW317043   4.865   3.265   3.268  0.8021  0.8710  1.6171
 4319SOL    MW417044   4.821   3.340   3.273 -0.1091  0.4811  0.1297
 4320SOL     OW17045   2.164   5.892   4.672  0.0635  0.1553  0.1049
 4320SOL    HW217046   2.171   5.894   4.576  1.0330 -0.8466  0.1385
 4320SOL    HW317047   2.103   5.963   4.692 -1.2570 -0.4995 -1.3535
 4320SOL    MW417048   2.157   5.902   4.662  0.0172 -0.0633 -0.0831
 4321SOL     OW17049   4.026   0.382   3.368  0.4019  0.4192  0.1868
 4321SOL    HW217050   3.939   0.396   3.331 -1.1025 -1.2094  2.7430
 4321SOL    HW317051   4.071   0.326   3.305 -1.0044 -0.0032 -0.4750
 4321SOL    MW417052   4.020   0.376   3.355  0.0179  0.1486  0.4367
 4322SOL     OW17053   4.647   0.650   1.736  0.0828 -0.2009  0.1621
 4322SOL    HW217054   4.599   0.658   1.818 -1.2352  0.4288 -0.6336
 4322SOL    HW317055   4.656   0.555   1.722 -1.1698 -0.3327  0.2046
 4322SOL    MW417056   4.642   0.638   1.745 -0.2563 -0.1352  0.0627
 4323SOL     OW17057   4.430   0.977   5.363 -0.1128 -0.3737  0.3959
 4323SOL    HW217058   4.407   1.066   5.336  1.9314  0.2550  0.5330
 4323SOL    HW317059   4.385   0.920   5.301  0.9306  0.8830 -1.6041
 4323SOL    MW417060   4.421   0.981   5.351  0.2946 -0.1250  0.1501
 4324SOL     OW17061   5.428   3.378   6.318  0.1644 -0.0348  0.0675
 4324SOL    HW217062   5.454   3.463   6.354 -0.6902  0.1846  0.2049
 4324SOL    HW317063   5.334   3.373   6.335 -0.0996 -0.3022 -1.3465
 4324SOL    MW417064   5.419   3.389   6.325  0.0168 -0.0411 -0.1009
 4325SOL     OW17065   2.502   3.377   4.573 -0.0598 -0.3450 -0.2604
 4325SOL    HW217066   2.412   3.363   4.545 -0.5056  1.0320  0.3986
 4325SOL    HW317067   2.504   3.468   4.604  1.5509 -0.3458 -0.2542
 4325SOL    MW417068   2.490   3.387   4.573  0.0939 -0.1634 -0.1726
 4326SOL     OW17069   4.932   1.703   1.317  0.0110  0.1166 -0.1553
 4326SOL    HW217070   4.877   1.742   1.249  0.7497  0.4581 -0.5633
 4326SOL    HW317071   5.021   1.728   1.294  0.4993 -1.6466 -0.3103
 4326SOL    MW417072   4.936   1.712   1.305  0.1729 -0.0710 -0.2296
 4327SOL     OW17073   0.882   3.468   5.766 -0.1192 -0.3754  0.1049
 4327SOL    HW217074   0.809   3.421   5.806  0.0806  0.0440  0.9740
 4327SOL    HW317075   0.842   3.519   5.695 -0.5202 -0.8742 -0.0300
 4327SOL    MW417076   0.867   3.469   5.762 -0.1457 -0.3858  0.2018
 4328SOL     OW17077   3.468   4.664   0.934 -0.5217 -0.6934 -0.2689
 4328SOL    HW217078   3.374   4.650   0.922 -0.9539  1.2618  0.4681
 4328SOL    HW317079   3.509   4.598   0.878 -2.3340 -0.7365 -1.6502
 4328SOL    MW417080   3.461   4.653   0.925 -0.8178 -0.4411 -0.3539
 4329SOL     OW17081   0.809   4.614   1.340  0.3519 -0.2993  0.4290
 4329SOL    HW217082   0.869   4.611   1.414  0.3008 -1.0150  0.4470
 4329SOL    HW317083   0.812   4.526   1.303 -0.1493 -0.1409  0.0011
 4329SOL    MW417084   0.817   4.602   1.345  0.2790 -0.3728  0.3749
 4330SOL     OW17085   0.560   4.019   5.343  0.0235 -0.2313  0.3745
 4330SOL    HW217086   0.465   4.015   5.354 -0.0164  0.1679  0.2199
 4330SOL    HW317087   0.584   3.934   5.307 -0.4456  0.0949 -0.7761
 4330SOL    MW417088   0.550   4.007   5.340 -0.0437 -0.1356  0.2023
 4331SOL     OW17089   6.358   3.822   5.320 -0.5222 -0.1474  0.1020
 4331SOL    HW217090   6.426   3.801   5.384 -0.0214 -1.5800 -0.8423
 4331SOL    HW317091   6.405   3.835   5.238 -1.3274 -0.4855 -0.4316
 4331SOL    MW417092   6.373   3.821   5.318 -0.5624 -0.3811 -0.0930
 4332SOL     OW17093   3.292   5.676   4.627  0.2767  0.2601  0.1234
 4332SOL    HW217094   3.259   5.656   4.714  1.0886 -1.2918  0.1235
 4332SOL    HW317095   3.263   5.765   4.609  0.1814  0.6396  2.0158
 4332SOL    MW417096   3.284   5.685   4.636  0.3712  0.1054  0.3731
 4333SOL     OW17097   4.147   4.961   6.216  0.0015 -0.1437 -0.5598
 4333SOL    HW217098   4.193   5.023   6.272  0.0132  1.0475 -1.8506
 4333SOL    HW317099   4.183   4.975   6.129 -1.8960 -0.0565 -1.3818
 4333SOL    MW417100   4.158   4.971   6.212 -0.2473  0.0250 -0.8386
 4334SOL     OW17101   3.238   5.314   5.182 -0.7337 -0.2425  0.0653
 4334SOL    HW217102   3.214   5.222   5.172  0.0417 -0.5965  1.2722
 4334SOL    HW317103   3.331   5.313   5.203 -0.6092  0.8518 -0.3317
 4334SOL    MW417104   3.247   5.302   5.183 -0.6150 -0.1448  0.1722
 4335SOL     OW17105   1.596   4.961   5.831  0.0094 -0.0113 -0.2297
 4335SOL    HW217106   1.508   4.976   5.795  0.5128  1.3655 -0.9783
 4335SOL    HW317107   1.604   5.025   5.901  0.6846  0.4222 -0.6880
 4335SOL    MW417108   1.585   4.972   5.835  0.1649  0.2275 -0.3890
 4336SOL     OW17109   0.718   3.661   0.253  0.5500 -0.0438  0.3900
 4336SOL    HW217110   0.657   3.690   0.321  2.0156 -1.7136  2.5577
 4336SOL    HW317111   0.670   3.594   0.205 -0.1289  0.3846  0.4517
 4336SOL    MW417112   0.703   3.656   0.256  0.6538 -0.2076  0.6841
 4337SOL     OW17113   5.700   1.720   5.231 -0.9108  0.2598  0.2819
 4337SOL    HW217114   5.633   1.656   5.255  1.1523 -2.1670 -0.0221
 4337SOL    HW317115   5.651   1.791   5.190 -3.5413 -0.0134  2.6615
 4337SOL    MW417116   5.685   1.721   5.228 -0.9856 -0.0964  0.5557
 4338SOL     OW17117   2.081   3.412   0.731 -0.0524 -0.2648 -0.4144
 4338SOL    HW217118   2.133   3.379   0.805  1.3435  2.6125  0.0314
 4338SOL    HW317119   1.990   3.395   0.755  0.4794 -2.4559  0.3161
 4338SOL    MW417120   2.076   3.405   0.744  0.2019 -0.1742 -0.2592
 4339SOL     OW17121   0.237   0.735   0.464 -0.2211  0.6063 -0.0586
 4339SOL    HW217122   0.235   0.797   0.392  0.3554  1.6794  0.8055
 4339SOL    HW317123   0.321   0.689   0.454  0.7177  2.0105  0.8838
 4339SOL    MW417124   0.248   0.737   0.453 -0.0212  0.9332  0.1797
 4340SOL     OW17125   3.565   0.061   4.215 -0.7732 -0.7683 -0.2119
 4340SOL    HW217126   3.615  -0.004   4.264  1.1618  0.9813  0.2625
 4340SOL    HW317127   3.602   0.058   4.127 -2.4197 -2.0320 -0.9014
 4340SOL    MW417128   3.576   0.052   4.210 -0.7351 -0.7042 -0.2402
 4341SOL     OW17129   6.210   3.932   1.539 -0.3284  0.4426 -0.2861
 4341SOL    HW217130   6.211   3.869   1.611 -2.7403  0.2501 -0.3348
 4341SOL    HW317131   6.279   3.995   1.560  1.3756 -1.5454  0.3538
 4341SOL    MW417132   6.219   3.932   1.551 -0.4218  0.1549 -0.2081
 4342SOL     OW17133   2.299   4.007   1.465  0.2786  0.2057  0.3479
 4342SOL    HW217134   2.369   4.072   1.462  0.1623  0.3138 -0.0337
 4342SOL    HW317135   2.305   3.969   1.553 -0.3129  1.4574  0.9452
 4342SOL    MW417136   2.309   4.010   1.477  0.1852  0.3851  0.3764
 4343SOL     OW17137   1.217   4.113   4.968 -0.0807  0.9184 -0.4493
 4343SOL    HW217138   1.159   4.116   5.045  0.2492 -2.2587  0.0717
 4343SOL    HW317139   1.208   4.023   4.935  0.8319  1.7858 -3.3546
 4343SOL    MW417140   1.208   4.101   4.974  0.0832  0.6137 -0.7639
 4344SOL     OW17141   3.036   0.648   6.084  0.1462  0.0110 -0.1223
 4344SOL    HW217142   2.990   0.689   6.011  2.0380  0.6083 -1.0424
 4344SOL    HW317143   3.010   0.556   6.082 -2.3153  0.6251  0.4918
 4344SOL    MW417144   3.027   0.642   6.074  0.0711  0.1708 -0.1627
 4345SOL     OW17145   5.524   5.645   0.543 -0.2277  0.4726 -0.4797
 4345SOL    HW217146   5.485   5.584   0.606 -1.1591  0.4072 -1.1027
 4345SOL    HW317147   5.607   5.670   0.582 -1.0231  0.8519  1.0405
 4345SOL    MW417148   5.530   5.640   0.556 -0.4555  0.5140 -0.3613
 4346SOL     OW17149   2.881   2.287   3.299  0.2070 -0.8951 -0.0418
 4346SOL    HW217150   2.866   2.208   3.351 -0.1804 -2.5588 -2.4964
 4346SOL    HW317151   2.803   2.341   3.313 -1.4297 -2.7788 -1.2986
 4346SOL    MW417152   2.869   2.284   3.308 -0.0600 -1.3631 -0.5314
 4347SOL     OW17153   3.407   1.332   3.519 -0.6214  0.1438 -0.2304
 4347SOL    HW217154   3.369   1.269   3.580  0.5990  0.3633  0.8020
 4347SOL    HW317155   3.472   1.282   3.470 -0.0459  0.4417  0.2058
 4347SOL    MW417156   3.411   1.317   3.521 -0.3845  0.2120 -0.0366
 4348SOL     OW17157   2.646   2.660   0.734 -0.3927  0.0317 -0.1427
 4348SOL    HW217158   2.552   2.642   0.734 -0.4639  0.3512  0.3539
 4348SOL    HW317159   2.676   2.628   0.819 -0.2126  0.6754  0.0446
 4348SOL    MW417160   2.637   2.654   0.745 -0.3783  0.1588 -0.0525
 4349SOL     OW17161   1.417   5.528   5.686 -0.3446 -0.1180 -0.0898
 4349SOL    HW217162   1.503   5.513   5.647 -1.3949 -3.2367 -1.4760
 4349SOL    HW317163   1.429   5.605   5.742  2.9231  0.4643 -1.4011
 4349SOL    MW417164   1.430   5.536   5.688 -0.0520 -0.4526 -0.4457
 4350SOL     OW17165   0.493   5.441   4.443 -0.1105 -0.9018  0.0267
 4350SOL    HW217166   0.587   5.428   4.458  0.0540 -0.3576 -0.4697
 4350SOL    HW317167   0.472   5.381   4.372  0.2328  0.1223 -0.9737
 4350SOL    MW417168   0.503   5.432   4.436 -0.0435 -0.6949 -0.1708
 4351SOL     OW17169   3.709   0.736   3.240  0.2199  0.1719 -0.1521
 4351SOL    HW217170   3.616   0.721   3.260  0.0846  0.2032 -0.7574
 4351SOL    HW317171   3.709   0.771   3.151  0.8580 -0.4299 -0.3928
 4351SOL    MW417172   3.697   0.738   3.231  0.2863  0.0966 -0.2637
 4352SOL     OW17173   5.222   1.725   1.288 -0.1311 -0.3164  0.2823
 4352SOL    HW217174   5.202   1.733   1.194  0.3745 -0.6125  0.1442
 4352SOL    HW317175   5.299   1.780   1.300  0.7532 -1.4978  0.2010
 4352SOL    MW417176   5.229   1.733   1.277  0.0523 -0.5113  0.2534
 4353SOL     OW17177   2.903   3.658   1.153 -0.3053 -0.4011  0.3176
 4353SOL    HW217178   2.984   3.693   1.115  0.0853 -0.6876  0.8612
 4353SOL    HW317179   2.857   3.619   1.079  0.0705 -0.2557  0.0023
 4353SOL    MW417180   2.908   3.657   1.138 -0.2042 -0.4198  0.3477
 4354SOL     OW17181   2.036   5.099   2.413  0.0879 -0.0528  0.4967
 4354SOL    HW217182   1.983   5.036   2.461 -1.9154 -0.3737 -1.9198
 4354SOL    HW317183   1.997   5.184   2.432  0.6544  0.0751  1.1052
 4354SOL    MW417184   2.024   5.102   2.422 -0.1017 -0.0783  0.2582
 4355SOL     OW17185   1.471   6.422   5.577  0.2277  0.1854 -0.3528
 4355SOL    HW217186   1.514   6.491   5.627  0.9342  0.6551 -1.5460
 4355SOL    HW317187   1.527   6.345   5.591 -0.3937 -0.0753  0.7376
 4355SOL    MW417188   1.484   6.421   5.585  0.2389  0.2130 -0.3664
 4356SOL     OW17189   2.888   2.775   1.694  0.2913 -0.6512 -0.4573
 4356SOL    HW217190   2.893   2.720   1.772  1.7584 -2.3218 -1.6629
 4356SOL    HW317191   2.851   2.718   1.626  0.3318  0.3366 -1.3387
 4356SOL    MW417192   2.884   2.760   1.695  0.4902 -0.7413 -0.7327
 4357SOL     OW17193   6.086   0.262   4.278  0.3590  0.0263 -0.6243
 4357SOL    HW217194   6.078   0.192   4.214  2.6015 -0.6832 -0.2106
 4357SOL    HW317195   6.150   0.322   4.240  0.0598  0.7405 -0.0204
 4357SOL    MW417196   6.093   0.261   4.265  0.6154  0.0269 -0.4900
 4358SOL     OW17197   1.262   4.955   3.263 -0.5375 -0.6633 -0.8781
 4358SOL    HW217198   1.172   4.923   3.263 -1.1956  1.0647  0.2917
 4358SOL    HW317199   1.311   4.888   3.311 -1.5963 -0.6293  0.3082
 4358SOL    MW417200   1.256   4.942   3.269 -0.7640 -0.4308 -0.5672
 4359SOL     OW17201   1.040   0.874   6.389  0.2964 -0.4524 -0.0123
 4359SOL    HW217202   0.978   0.918   6.331  0.4104 -2.1355 -1.5103
 4359SOL    HW317203   1.095   0.823   6.330 -0.3755 -3.2639  1.6230
 4359SOL    MW417204   1.039   0.873   6.373  0.2228 -1.0454  0.0058
 4360SOL     OW17205   0.399   5.392   0.274 -0.5139 -0.2228  0.4516
 4360SOL    HW217206   0.424   5.305   0.244 -2.2646  0.0613 -2.2043
 4360SOL    HW317207   0.304   5.392   0.272 -0.6729  0.9216  3.2325
 4360SOL    MW417208   0.390   5.381   0.269 -0.7659 -0.0343  0.4681
 4361SOL     OW17209   6.021   4.894   3.545  0.0986 -0.0993  0.1574
 4361SOL    HW217210   6.056   4.835   3.479  1.5434 -0.5383  1.2455
 4361SOL    HW317211   6.076   4.878   3.622 -0.5899  1.4277  1.0098
 4361SOL    MW417212   6.033   4.884   3.547  0.1984  0.0443  0.4135
 4362SOL     OW17213   1.013   2.749   6.083 -0.1707 -0.2600 -0.1134
 4362SOL    HW217214   1.024   2.680   6.148  0.5162  0.6440  0.7577
 4362SOL    HW317215   1.023   2.830   6.132 -0.3295  0.4597 -1.2281
 4362SOL    MW417216   1.016   2.751   6.098 -0.1010 -0.0457 -0.1455
 4363SOL     OW17217   1.630   2.032   4.073 -0.0100 -0.0293  0.3512
 4363SOL    HW217218   1.624   1.978   3.995 -0.2805  0.6765 -0.1323
 4363SOL    HW317219   1.564   2.101   4.059 -0.9817 -0.6218  1.7845
 4363SOL    MW417220   1.620   2.034   4.061 -0.1739 -0.0143  0.4765
 4364SOL     OW17221   0.516   0.512   5.071  0.0150  0.2648  0.1556
 4364SOL    HW217222   0.466   0.455   5.129 -0.1027  0.0910 -0.1108
 4364SOL    HW317223   0.501   0.600   5.105  0.5508  0.0998  0.8303
 4364SOL    MW417224   0.507   0.516   5.083  0.0702  0.2201  0.2094
 4365SOL     OW17225   1.065   5.329   2.819 -0.0493  0.3906 -0.8107
 4365SOL    HW217226   0.987   5.312   2.765 -1.1899  0.8306  0.6323
 4365SOL    HW317227   1.036   5.311   2.908  2.2748 -1.9965 -0.4245
 4365SOL    MW417228   1.051   5.324   2.823  0.1068  0.1337 -0.5693
 4366SOL     OW17229   3.948   4.615   1.864  0.0414  0.5342  0.0812
 4366SOL    HW217230   3.969   4.606   1.957  0.1693 -1.3270 -0.0991
 4366SOL    HW317231   3.967   4.707   1.844 -1.1843  1.3160  2.1679
 4366SOL    MW417232   3.953   4.626   1.873 -0.1034  0.3918  0.3327
 4367SOL     OW17233   3.578   6.126   5.043  0.7341 -0.5725 -0.0265
 4367SOL    HW217234   3.633   6.075   5.103  1.6882  0.9049  0.4160
 4367SOL    HW317235   3.549   6.062   4.977  1.9556 -1.6703  0.4425
 4367SOL    MW417236   3.582   6.111   5.042  1.0211 -0.5224  0.0938
 4368SOL     OW17237   3.651   0.589   5.697 -0.0828 -0.2316  0.3524
 4368SOL    HW217238   3.566   0.593   5.653  0.7301 -0.1450 -1.3014
 4368SOL    HW317239   3.660   0.497   5.723 -0.8355 -0.1618  0.8712
 4368SOL    MW417240   3.641   0.577   5.695 -0.0749 -0.2109  0.2026
 4369SOL     OW17241   4.722   5.662   1.893 -0.3835  0.1837  0.4741
 4369SOL    HW217242   4.809   5.622   1.893 -0.4011  0.0711 -1.1501
 4369SOL    HW317243   4.669   5.607   1.951  0.1294 -0.9239 -0.0784
 4369SOL    MW417244   4.726   5.650   1.901 -0.3181  0.0227  0.1869
 4370SOL     OW17245   1.067   5.680   2.076 -0.0857 -0.2132 -0.3332
 4370SOL    HW217246   1.100   5.766   2.051  0.5083 -0.2664  0.2418
 4370SOL    HW317247   1.105   5.620   2.013  0.0715 -0.1414 -0.3060
 4370SOL    MW417248   1.076   5.684   2.065  0.0134 -0.2108 -0.2538
 4371SOL     OW17249   3.849   3.764   6.205  0.4922  0.1305 -0.0660
 4371SOL    HW217250   3.918   3.772   6.272  0.5106  2.9346 -0.2827
 4371SOL    HW317251   3.808   3.850   6.204 -2.7072 -1.2756 -0.3611
 4371SOL    MW417252   3.853   3.777   6.214  0.0725  0.3149 -0.1335
 4372SOL     OW17253   3.361   0.631   1.138 -0.0625  0.0230 -0.0578
 4372SOL    HW217254   3.409   0.682   1.203  1.2947  0.7060 -1.5118
 4372SOL    HW317255   3.381   0.674   1.054 -2.4302 -0.2937 -0.8647
 4372SOL    MW417256   3.370   0.643   1.135 -0.1958  0.0713 -0.3561
 4373SOL     OW17257   5.159   2.964   4.786  0.0922  0.8642  0.2493
 4373SOL    HW217258   5.065   2.972   4.803 -0.2102 -0.8524 -0.4060
 4373SOL    HW317259   5.167   2.972   4.691  0.5840  0.8389  0.2863
 4373SOL    MW417260   5.148   2.966   4.776  0.1172  0.6344  0.1677
 4374SOL     OW17261   4.364   4.601   4.237  0.0707  0.2082  0.2245
 4374SOL    HW217262   4.430   4.670   4.236  0.3961 -0.0908  0.8169
 4374SOL    HW317263   4.396   4.536   4.175  0.2585  0.1253  0.4109
 4374SOL    MW417264   4.377   4.602   4.228  0.1384  0.1578  0.3273
 4375SOL     OW17265   0.773   0.982   4.432  0.4718 -0.5715  0.2690
 4375SOL    HW217266   0.849   0.924   4.437 -0.2409 -1.4205  3.1466
 4375SOL    HW317267   0.808   1.070   4.444  1.0828 -0.8858  0.8105
 4375SOL    MW417268   0.787   0.986   4.434  0.4583 -0.7250  0.7201
 4376SOL     OW17269   0.410   0.106   1.338 -0.0971  0.0125  0.6572
 4376SOL    HW217270   0.417   0.010   1.339  0.7885  0.0644  0.5627
 4376SOL    HW317271   0.369   0.128   1.422  1.4511 -0.3483  1.5606
 4376SOL    MW417272   0.406   0.096   1.349  0.2240 -0.0282  0.7639
 4377SOL     OW17273   1.101   3.160   5.274 -0.0605  0.2047  0.1756
 4377SOL    HW217274   1.171   3.226   5.276  0.2989 -0.1738  0.0658
 4377SOL    HW317275   1.042   3.190   5.204  0.1856  0.3252  0.0181
 4377SOL    MW417276   1.102   3.173   5.265  0.0194  0.1707  0.1403
 4378SOL     OW17277   4.084   2.849   2.041  0.4688  0.8769  0.0229
 4378SOL    HW217278   3.993   2.829   2.018  0.2323  1.2466  0.6022
 4378SOL    HW317279   4.128   2.861   1.957 -0.0537  0.8369 -0.2623
 4378SOL    MW417280   4.078   2.848   2.027  0.3686  0.9204  0.0617
 4379SOL     OW17281   5.341   2.675   3.921  0.2965  0.0694 -0.1485
 4379SOL    HW217282   5.380   2.625   3.994  1.1842 -1.0636 -1.3491
 4379SOL    HW317283   5.252   2.641   3.915  0.2241  0.1505  0.3885
 4379SOL    MW417284   5.334   2.664   3.930  0.4040 -0.0694 -0.2360
 4380SOL     OW17285   4.489   5.800   3.574  0.1285  0.4421  0.1125
 4380SOL    HW217286   4.494   5.741   3.649 -0.5510  1.6984  1.1921
 4380SOL    HW317287   4.397   5.796   3.546  0.4996 -0.4967 -1.1055
 4380SOL    MW417288   4.478   5.792   3.580  0.0878  0.4840  0.0942
 4381SOL     OW17289   4.764   1.282   2.061 -0.6447  0.4940 -0.6935
 4381SOL    HW217290   4.725   1.231   1.990 -0.0236  0.5378 -1.0819
 4381SOL    HW317291   4.793   1.363   2.019 -1.7563  1.2527 -0.0556
 4381SOL    MW417292   4.763   1.286   2.046 -0.7094  0.5999 -0.6606
 4382SOL     OW17293   6.190   3.088   1.501  0.1145  0.4163  0.4289
 4382SOL    HW217294   6.156   3.122   1.584 -0.7376 -1.7128  1.0245
 4382SOL    HW317295   6.129   3.122   1.435  0.4771  1.6785  0.7256
 4382SOL    MW417296   6.177   3.097   1.503  0.0499  0.3019  0.5467
 4383SOL     OW17297   2.901   1.879   4.997 -0.4278 -0.6587  0.2027
 4383SOL    HW217298   2.951   1.923   5.065  0.9755 -1.2378 -0.4294
 4383SOL    HW317299   2.920   1.786   5.010 -0.6283 -0.8207 -0.6070
 4383SOL    MW417300   2.910   1.872   5.008 -0.2691 -0.7565  0.0125
 4384SOL     OW17301   0.634   3.864   2.239  0.1395  0.0606  0.6734
 4384SOL    HW217302   0.565   3.909   2.191  0.6516 -1.1543 -1.2760
 4384SOL    HW317303   0.659   3.791   2.183  1.1276 -1.1368  2.5753
 4384SOL    MW417304   0.628   3.861   2.226  0.3375 -0.2576  0.6671
 4385SOL     OW17305   0.989   0.349   4.880  0.0767  0.1207  0.1996
 4385SOL    HW217306   0.898   0.355   4.908  0.4053 -0.0803  1.3549
 4385SOL    HW317307   0.992   0.273   4.822 -0.1459 -1.0079  1.6272
 4385SOL    MW417308   0.978   0.340   4.876  0.0907 -0.0547  0.5404
 4386SOL     OW17309   5.999   4.208   4.898 -0.1049  0.0571 -0.0463
 4386SOL    HW217310   5.960   4.127   4.932  0.4721 -0.7798 -1.3121
 4386SOL    HW317311   5.925   4.263   4.876 -0.5111 -0.3212  0.3485
 4386SOL    MW417312   5.984   4.204   4.900 -0.0824 -0.1032 -0.1612
 4387SOL     OW17313   1.995   2.031   3.975  0.2409  0.2806 -0.3947
 4387SOL    HW217314   2.073   2.087   3.977  0.7165 -0.3443 -0.9518
 4387SOL    HW317315   2.016   1.959   4.034  0.0525  0.1470 -0.4912
 4387SOL    MW417316   2.008   2.029   3.983  0.2788  0.1806 -0.4810
 4388SOL     OW17317   0.595   0.970   0.198  0.0776 -0.1976  0.0975
 4388SOL    HW217318   0.587   0.875   0.211 -0.3373 -0.3623 -1.1814
 4388SOL    HW317319   0.687   0.983   0.175  0.4008 -0.1263  1.3577
 4388SOL    MW417320   0.606   0.959   0.197  0.0655 -0.2099  0.0950
 4389SOL     OW17321   2.649   5.822   3.654  0.1649  0.3652  0.1272
 4389SOL    HW217322   2.579   5.887   3.659  0.0009  0.2161 -0.1706
 4389SOL    HW317323   2.618   5.759   3.589  0.6018  0.3243 -0.0453
 4389SOL    MW417324   2.636   5.822   3.646  0.2009  0.3402  0.0651
 4390SOL     OW17325   5.925   2.896   1.367  0.4895 -0.1548 -0.3323
 4390SOL    HW217326   5.877   2.897   1.450 -0.0071  1.4793 -0.5911
 4390SOL    HW317327   5.949   2.988   1.352 -1.0717 -0.0424 -2.8763
 4390SOL    MW417328   5.922   2.908   1.376  0.2180  0.0756 -0.7021
 4391SOL     OW17329   3.449   2.695   5.527  0.5630  0.4014 -0.2507
 4391SOL    HW217330   3.407   2.730   5.605  0.9866  1.4276 -0.4668
 4391SOL    HW317331   3.514   2.761   5.503  0.4549  0.0996 -1.4484
 4391SOL    MW417332   3.452   2.709   5.534  0.6046  0.4970 -0.4372
 4392SOL     OW17333   2.333   0.973   3.767 -0.4175 -0.0810 -0.3187
 4392SOL    HW217334   2.273   0.966   3.842  0.3399 -0.0469  0.3060
 4392SOL    HW317335   2.346   1.067   3.756 -0.4879 -0.0881 -0.4589
 4392SOL    MW417336   2.327   0.984   3.776 -0.3268 -0.0775 -0.2548
 4393SOL     OW17337   1.473   4.160   2.146  0.3514  0.2203  0.1524
 4393SOL    HW217338   1.396   4.153   2.202  1.4660 -0.1275  1.7131
 4393SOL    HW317339   1.509   4.071   2.142  1.1656  0.5327  0.2177
 4393SOL    MW417340   1.468   4.147   2.153  0.6059  0.2156  0.3669
 4394SOL     OW17341   5.585   2.605   5.948 -0.0611  0.2408 -0.5016
 4394SOL    HW217342   5.652   2.584   6.012  0.9874  2.4107 -0.7816
 4394SOL    HW317343   5.629   2.599   5.863 -0.7670 -0.2193 -0.8444
 4394SOL    MW417344   5.599   2.602   5.945 -0.0159  0.4664 -0.5837
 4395SOL     OW17345   2.303   1.863   3.267 -0.3634  0.2712  0.0212
 4395SOL    HW217346   2.359   1.940   3.275  0.3241 -0.0256 -1.6613
 4395SOL    HW317347   2.217   1.898   3.247 -0.6823  0.6938  1.8969
 4395SOL    MW417348   2.299   1.878   3.266 -0.3148  0.2878  0.0467
 4396SOL     OW17349   4.719   0.397   4.679 -0.2003 -1.0511 -0.0963
 4396SOL    HW217350   4.639   0.345   4.683 -0.9210 -0.2548 -2.5709
 4396SOL    HW317351   4.692   0.483   4.712 -0.7076 -0.4566 -1.9786
 4396SOL    MW417352   4.705   0.402   4.684 -0.3623 -0.8676 -0.6712
 4397SOL     OW17353   0.588   6.143   1.792 -0.0206  0.1099  0.4205
 4397SOL    HW217354   0.667   6.176   1.749 -0.4957 -0.2640 -0.7849
 4397SOL    HW317355   0.604   6.156   1.886 -0.1171  3.5967  0.0811
 4397SOL    MW417356   0.601   6.149   1.799 -0.0960  0.5206  0.2167
 4398SOL     OW17357   5.213   4.479   1.286  0.4212 -0.4805 -0.3670
 4398SOL    HW217358   5.129   4.434   1.280  0.4346 -0.8934  1.7227
 4398SOL    HW317359   5.277   4.414   1.257  0.0319  0.0412 -2.5846
 4398SOL    MW417360   5.210   4.464   1.281  0.3716 -0.4662 -0.3839
 4399SOL     OW17361   5.972   1.444   0.161  0.0235  0.3695  0.1558
 4399SOL    HW217362   5.912   1.447   0.235 -0.9991 -1.8543 -0.4787
 4399SOL    HW317363   6.045   1.500   0.186 -0.4579 -0.0204  2.6710
 4399SOL    MW417364   5.974   1.451   0.174 -0.1750  0.0247  0.4040
 4400SOL     OW17365   2.855   5.341   2.195 -0.2871 -0.4422 -0.2906
 4400SOL    HW217366   2.935   5.289   2.187 -0.9645 -1.3013 -2.2085
 4400SOL    HW317367   2.885   5.432   2.198  0.8182 -0.8170  1.0052
 4400SOL    MW417368   2.870   5.346   2.194 -0.2306 -0.6050 -0.3726
 4401SOL     OW17369   0.279   0.661   4.062 -0.5145 -0.0196  0.2236
 4401SOL    HW217370   0.266   0.752   4.087  2.5749 -0.0979  2.6118
 4401SOL    HW317371   0.345   0.663   3.992  0.3823 -0.4369  1.0371
 4401SOL    MW417372   0.286   0.673   4.056  0.0115 -0.0850  0.6461
 4402SOL     OW17373   5.480   2.776   6.352 -0.0978  0.6341 -0.5687
 4402SOL    HW217374   5.445   2.853   6.396 -1.9305  0.9054 -2.3705
 4402SOL    HW317375   5.536   2.811   6.283  2.2529  0.2218  1.0190
 4402SOL    MW417376   5.483   2.791   6.348 -0.0295  0.6155 -0.5969
 4403SOL     OW17377   6.295   1.741   3.053 -0.0373 -0.0135 -0.3417
 4403SOL    HW217378   6.288   1.826   3.096  0.8572  0.3693 -0.9231
 4403SOL    HW317379   6.233   1.745   2.980 -0.1621  0.0459 -0.2332
 4403SOL    MW417380   6.286   1.753   3.049  0.0642  0.0448 -0.4041
 4404SOL     OW17381   4.107   3.595   0.572  0.3781  0.2640 -0.0232
 4404SOL    HW217382   4.113   3.516   0.625 -0.3888  0.5319  0.4786
 4404SOL    HW317383   4.191   3.599   0.526  0.1764 -1.1878 -0.5732
 4404SOL    MW417384   4.119   3.585   0.573  0.2503  0.1078 -0.0296
 4405SOL     OW17385   2.856   5.877   2.596  0.1304 -0.0133 -0.1810
 4405SOL    HW217386   2.827   5.830   2.518  3.1080  0.5416 -1.7947
 4405SOL    HW317387   2.823   5.966   2.585  0.2173 -0.0363 -0.6448
 4405SOL    MW417388   2.848   5.883   2.585  0.5348  0.0568 -0.4551
 4406SOL     OW17389   3.717   1.068   0.709  0.5415  0.3577 -0.2286
 4406SOL    HW217390   3.645   1.045   0.767  1.2765 -1.1737  0.1259
 4406SOL    HW317391   3.786   1.005   0.730  1.4856  0.9127 -1.5103
 4406SOL    MW417392   3.717   1.057   0.719  0.7631  0.2289 -0.3510
 4407SOL     OW17393   6.269   6.089   3.323  0.0028 -0.1533 -0.5439
 4407SOL    HW217394   6.288   6.034   3.247  1.1963 -1.1188  0.4127
 4407SOL    HW317395   6.340   6.070   3.385  0.0528  1.9371  0.1181
 4407SOL    MW417396   6.281   6.079   3.322  0.1668 -0.0049 -0.3303
 4408SOL     OW17397   2.876   4.616   1.745 -0.4275 -0.0102 -0.3323
 4408SOL    HW217398   2.822   4.689   1.715 -0.1704 -0.1854 -1.2393
 4408SOL    HW317399   2.819   4.540   1.739 -0.7064  0.1081  0.6466
 4408SOL    MW417400   2.861   4.616   1.740 -0.4304 -0.0177 -0.3228
 4409SOL     OW17401   5.146   2.302   5.901 -0.0373 -0.0522 -0.4248
 4409SOL    HW217402   5.200   2.231   5.866  1.5180 -0.0971  1.8340
 4409SOL    HW317403   5.208   2.371   5.923 -0.6345 -0.4205  3.0536
 4409SOL    MW417404   5.161   2.302   5.899  0.0891 -0.1067  0.3322
 4410SOL     OW17405   1.412   5.916   0.218 -0.0749 -0.5839 -0.1966
 4410SOL    HW217406   1.408   6.009   0.240  1.4249 -0.6701  0.5534
 4410SOL    HW317407   1.325   5.896   0.182 -0.3013  1.1729 -0.7000
 4410SOL    MW417408   1.400   5.926   0.217  0.0931 -0.3635 -0.1641
 4411SOL     OW17409   6.270   4.900   6.188 -0.5365 -0.1236 -0.4925
 4411SOL    HW217410   6.223   4.961   6.132  0.3468  2.1557  1.0793
 4411SOL    HW317411   6.358   4.897   6.150 -0.0020  1.2486  0.5245
 4411SOL    MW417412   6.276   4.908   6.176 -0.3495  0.3582 -0.1509
 4412SOL     OW17413   4.633   4.131   4.341 -0.6158 -0.0480 -0.7536
 4412SOL    HW217414   4.710   4.101   4.292 -1.1385  0.7445 -2.1480
 4412SOL    HW317415   4.616   4.062   4.405  1.1644 -0.2925 -0.4987
 4412SOL    MW417416   4.641   4.118   4.343 -0.4499  0.0243 -0.9040
 4413SOL     OW17417   2.045   5.190   4.245 -0.3801  0.3362  0.1098
 4413SOL    HW217418   2.094   5.241   4.180  1.0345 -1.8171 -0.6233
 4413SOL    HW317419   2.060   5.236   4.327  0.7955  1.1328 -0.5194
 4413SOL    MW417420   2.054   5.203   4.247 -0.0383  0.1572 -0.0699
 4414SOL     OW17421   1.443   2.045   3.046 -0.6582 -0.3832  0.4277
 4414SOL    HW217422   1.463   2.060   3.138 -1.2806  1.1851  0.3330
 4414SOL    HW317423   1.484   2.118   3.000 -0.1361 -1.2825 -0.5815
 4414SOL    MW417424   1.451   2.057   3.052 -0.6715 -0.2949  0.2821
 4415SOL     OW17425   0.010   1.322   0.169 -0.3788 -0.1329 -0.6299
 4415SOL    HW217426   0.028   1.396   0.227 -1.5783  0.2445 -0.7288
 4415SOL    HW317427   0.092   1.309   0.121  0.6304 -0.4111  1.0785
 4415SOL    MW417428   0.023   1.330   0.171 -0.4039 -0.1198 -0.4176
 4416SOL     OW17429   1.924   5.785   2.552 -0.2144  0.0306  0.4279
 4416SOL    HW217430   1.957   5.861   2.505 -2.2295  0.2732 -0.7205
 4416SOL    HW317431   1.863   5.821   2.617 -0.2680 -0.5284  0.6969
 4416SOL    MW417432   1.920   5.800   2.555 -0.4874 -0.0112  0.3119
 4417SOL     OW17433   2.777   2.131   0.669 -0.2068 -0.3321  0.1820
 4417SOL    HW217434   2.869   2.124   0.645  0.5752  1.4172  2.3049
 4417SOL    HW317435   2.753   2.045   0.703  1.7346  0.0382  2.7917
 4417SOL    MW417436   2.786   2.119   0.671  0.1525 -0.0524  0.8065
 4418SOL     OW17437   4.068   4.997   4.079  0.1100  0.0595  0.1311
 4418SOL    HW217438   4.036   5.066   4.137 -1.0525 -0.4387  0.1174
 4418SOL    HW317439   4.074   5.038   3.993  1.1812  0.6156  0.4502
 4418SOL    MW417440   4.065   5.012   4.075  0.0979  0.0672  0.1714
 4419SOL     OW17441   1.093   3.494   5.028 -0.1490 -0.2398 -1.0852
 4419SOL    HW217442   1.155   3.535   5.090  0.7644 -1.3451 -1.2413
 4419SOL    HW317443   1.012   3.487   5.078  0.6121 -1.2656  0.0904
 4419SOL    MW417444   1.091   3.499   5.043  0.0719 -0.5210 -0.9507
 4420SOL     OW17445   0.868   3.172   4.233  0.5875  0.7609  0.2176
 4420SOL    HW217446   0.788   3.218   4.209 -0.0081 -0.1620  0.3848
 4420SOL    HW317447   0.910   3.151   4.149  0.4491  0.8869  0.1176
 4420SOL    MW417448   0.863   3.175   4.219  0.4906  0.6557  0.2264
 4421SOL     OW17449   4.804   0.768   2.460 -0.7349  0.2212 -0.5582
 4421SOL    HW217450   4.824   0.675   2.467  0.3672  0.5752  2.0439
 4421SOL    HW317451   4.878   0.805   2.412 -0.4785 -0.0443 -0.3691
 4421SOL    MW417452   4.816   0.760   2.455 -0.5557  0.2329 -0.1899
 4422SOL     OW17453   5.236   5.773   4.888  0.0032  0.0255  0.1128
 4422SOL    HW217454   5.204   5.716   4.957  1.7064 -0.5133  0.4976
 4422SOL    HW317455   5.171   5.766   4.818 -0.4842 -1.3391  0.6819
 4422SOL    MW417456   5.223   5.765   4.888  0.1636 -0.2256  0.2386
 4423SOL     OW17457   3.972   3.626   2.279  0.1107 -0.2325 -0.1476
 4423SOL    HW217458   3.994   3.618   2.186  0.7975 -0.7379  0.0440
 4423SOL    HW317459   3.887   3.584   2.287 -0.6108  1.0573 -0.7789
 4423SOL    MW417460   3.964   3.619   2.268  0.1061 -0.1290 -0.2056
 4424SOL     OW17461   1.325   5.495   4.677  0.5934 -0.4715  0.4243
 4424SOL    HW217462   1.262   5.423   4.675  0.7990 -0.6657  0.8990
 4424SOL    HW317463   1.387   5.475   4.607  0.4454 -0.5636  0.3192
 4424SOL    MW417464   1.325   5.483   4.667  0.6010 -0.5092  0.4730
 4425SOL     OW17465   1.122   6.267   2.009  0.3604 -0.2210  0.5189
 4425SOL    HW217466   1.173   6.338   1.970  0.2960 -0.8629 -0.7677
 4425SOL    HW317467   1.031   6.287   1.984  0.3048 -0.5777  0.4350
 4425SOL    MW417468   1.116   6.279   2.001  0.3445 -0.3528  0.3381
 4426SOL     OW17469   0.351   1.044   0.986  0.0627  0.3849 -0.2588
 4426SOL    HW217470   0.392   1.043   0.899  1.3105 -0.5622  0.3061
 4426SOL    HW317471   0.424   1.057   1.046 -0.5775 -0.5777  0.7449
 4426SOL    MW417472   0.366   1.046   0.982  0.1429  0.1330 -0.0519
 4427SOL     OW17473   5.974   6.266   2.788 -0.2340  0.0543 -0.4935
 4427SOL    HW217474   5.925   6.201   2.839 -0.9578  0.3592 -0.7858
 4427SOL    HW317475   5.940   6.351   2.819  0.0454  0.2674 -0.7692
 4427SOL    MW417476   5.963   6.269   2.799 -0.2927  0.1226 -0.5684
 4428SOL     OW17477   1.893   0.717   1.851  0.0232  0.0856  0.4195
 4428SOL    HW217478   1.878   0.671   1.768 -0.3979  0.5475  0.2363
 4428SOL    HW317479   1.815   0.699   1.902 -0.1306  0.5696  0.3594
 4428SOL    MW417480   1.881   0.708   1.847 -0.0527  0.2104  0.3874
 4429SOL     OW17481   3.925   2.223   3.541 -0.1830  0.2984  0.0751
 4429SOL    HW217482   3.918   2.312   3.574 -4.6625  0.3226 -0.3764
 4429SOL    HW317483   3.915   2.167   3.618 -1.8425  0.2970 -0.1064
 4429SOL    MW417484   3.923   2.227   3.555 -0.9929  0.3014 -0.0084
 4430SOL     OW17485   0.704   2.419   1.346  0.1134  0.1003 -0.5089
 4430SOL    HW217486   0.643   2.491   1.333  1.3464  1.4545  0.8134
 4430SOL    HW317487   0.759   2.419   1.268  0.2280  0.7046 -0.4263
 4430SOL    MW417488   0.703   2.428   1.334  0.2912  0.3587 -0.3235
 4431SOL     OW17489   4.955   2.402   4.912  0.1938  0.0138 -0.9820
 4431SOL    HW217490   4.938   2.330   4.852 -0.8899  0.0137 -0.7094
 4431SOL    HW317491   4.876   2.457   4.906 -0.4404 -0.5530  1.2017
 4431SOL    MW417492   4.942   2.400   4.903 -0.0329 -0.0610 -0.6579
 4432SOL     OW17493   1.092   1.752   3.502 -0.1953  0.2754  0.5059
 4432SOL    HW217494   1.122   1.838   3.474  0.2477  0.2215  0.8008
 4432SOL    HW317495   1.046   1.768   3.584  0.4255  0.1575  0.8826
 4432SOL    MW417496   1.090   1.765   3.509 -0.0549  0.2527  0.5945
 4433SOL     OW17497   1.882   5.546   2.724 -0.2266 -0.3731  0.4001
 4433SOL    HW217498   1.837   5.606   2.664 -0.2614 -0.6566  0.1412
 4433SOL    HW317499   1.975   5.566   2.712 -0.2856  0.2518  0.9770
 4433SOL    MW417500   1.888   5.557   2.714 -0.2390 -0.3280  0.4421
 4434SOL     OW17501   4.769   1.024   2.758 -0.0728 -0.2451 -0.3433
 4434SOL    HW217502   4.802   1.095   2.813 -0.9068 -1.5884  2.0252
 4434SOL    HW317503   4.701   1.065   2.704 -0.1417  0.8775  0.5527
 4434SOL    MW417504   4.764   1.039   2.758 -0.1920 -0.2742  0.0874
 4435SOL     OW17505   1.353   5.603   1.868 -0.4821 -0.3733  0.3311
 4435SOL    HW217506   1.386   5.513   1.866 -1.6465 -0.8176 -1.7355
 4435SOL    HW317507   1.270   5.599   1.820 -1.3392  1.5268  1.5511
 4435SOL    MW417508   1.346   5.590   1.861 -0.7488 -0.1812  0.2194
 4436SOL     OW17509   3.611   2.356   5.738  0.3558  0.3570 -0.0812
 4436SOL    HW217510   3.531   2.373   5.687  1.1033 -0.5798 -1.6605
 4436SOL    HW317511   3.622   2.435   5.791 -3.1752 -0.6239  2.4540
 4436SOL    MW417512   3.602   2.369   5.738 -0.0115  0.1039  0.0449
 4437SOL     OW17513   2.086   2.018   3.320 -0.0739 -0.4330 -0.1667
 4437SOL    HW217514   2.040   1.960   3.381  0.1428  0.5904  1.0160
 4437SOL    HW317515   2.124   2.086   3.376 -1.8837  1.9330 -1.6023
 4437SOL    MW417516   2.085   2.019   3.335 -0.2841  0.0142 -0.2001
 4438SOL     OW17517   4.952   4.585   6.221  0.4170  0.1490  0.5298
 4438SOL    HW217518   5.022   4.590   6.155  0.8956  0.7410  1.0657
 4438SOL    HW317519   4.949   4.493   6.246  1.3024  0.1843  0.8002
 4438SOL    MW417520   4.961   4.573   6.216  0.5970  0.2318  0.6362
 4439SOL     OW17521   0.614   0.482   0.978 -0.8623 -0.0143 -0.3657
 4439SOL    HW217522   0.702   0.458   1.008 -1.2421 -0.3906  0.4671
 4439SOL    HW317523   0.557   0.459   1.050 -1.5754  0.8849 -0.6240
 4439SOL    MW417524   0.618   0.476   0.991 -1.0065  0.0547 -0.2899
 4440SOL     OW17525   0.953   2.025   2.875 -0.4328 -0.1281  0.4164
 4440SOL    HW217526   0.960   1.952   2.814 -1.6318  0.6131 -0.6666
 4440SOL    HW317527   1.043   2.048   2.897 -0.0201 -1.2203 -0.0892
 4440SOL    MW417528   0.966   2.018   2.870 -0.5365 -0.1744  0.2068
 4441SOL     OW17529   4.975   1.071   3.504 -0.2612  0.5400  0.2445
 4441SOL    HW217530   4.915   1.081   3.578 -1.7707 -1.1270 -0.6770
 4441SOL    HW317531   5.046   1.132   3.522 -1.1386  0.9825  2.5026
 4441SOL    MW417532   4.976   1.080   3.516 -0.5761  0.3784  0.4208
 4442SOL     OW17533   3.073   6.295   1.216 -0.6296 -0.0722 -0.0500
 4442SOL    HW217534   3.068   6.305   1.121  1.4903  1.5903 -0.0662
 4442SOL    HW317535   3.091   6.383   1.248 -1.8999 -0.5024  1.9758
 4442SOL    MW417536   3.075   6.308   1.208 -0.5175  0.0904  0.2151
 4443SOL     OW17537   5.230   4.149   4.460 -0.2109  0.0432  0.0074
 4443SOL    HW217538   5.231   4.206   4.537 -0.8872 -0.4965  0.4247
 4443SOL    HW317539   5.137   4.141   4.437 -0.1292 -0.9033 -0.0284
 4443SOL    MW417540   5.218   4.156   4.467 -0.2893 -0.1529  0.0577
 4444SOL     OW17541   4.699   2.354   4.692  0.0720 -0.0267 -0.2810
 4444SOL    HW217542   4.660   2.319   4.773 -0.4115 -0.1088 -0.5458
 4444SOL    HW317543   4.628   2.351   4.628  0.0510  1.3386 -0.3442
 4444SOL    MW417544   4.684   2.349   4.695  0.0054  0.1426 -0.3243
 4445SOL     OW17545   2.937   4.472   2.236  0.4833 -0.2979  0.1874
 4445SOL    HW217546   2.856   4.509   2.271 -0.5817 -2.4700  0.1473
 4445SOL    HW317547   2.972   4.541   2.180  0.2671  1.8285  2.4892
 4445SOL    MW417548   2.931   4.486   2.233  0.3143 -0.3039  0.4858
 4446SOL     OW17549   5.692   1.391   3.976 -0.9016  0.1990  0.3687
 4446SOL    HW217550   5.650   1.475   3.954  0.9972  0.9021 -0.8331
 4446SOL    HW317551   5.719   1.401   4.067  0.6080  1.5440 -0.1728
 4446SOL    MW417552   5.690   1.404   3.985 -0.4519  0.4692  0.1387
 4447SOL     OW17553   2.425   5.979   0.972  0.0070  0.0346  0.5479
 4447SOL    HW217554   2.474   5.912   1.020  0.3924  0.3777  0.6350
 4447SOL    HW317555   2.404   6.045   1.037  2.6243  1.7035 -0.1887
 4447SOL    MW417556   2.428   5.979   0.987  0.4032  0.3000  0.4622
 4448SOL     OW17557   1.811   3.603   2.143 -0.2222  0.4203  0.2106
 4448SOL    HW217558   1.905   3.589   2.149 -0.5018 -1.3418  1.3566
 4448SOL    HW317559   1.795   3.625   2.051  1.1618 -0.5085 -0.2762
 4448SOL    MW417560   1.821   3.604   2.131 -0.0765  0.0653  0.2976
 4449SOL     OW17561   5.229   3.148   1.333 -0.0377  0.0653 -0.4898
 4449SOL    HW217562   5.232   3.226   1.388  0.9312 -0.5553  0.3810
 4449SOL    HW317563   5.137   3.137   1.311 -0.2600  1.1163 -0.1426
 4449SOL    MW417564   5.218   3.157   1.337  0.0608  0.1221 -0.3291
 4450SOL     OW17565   2.156   5.219   0.630 -0.6303 -0.3582  0.3527
 4450SOL    HW217566   2.221   5.192   0.565 -1.0765 -1.2330  0.2553
 4450SOL    HW317567   2.208   5.253   0.703 -0.0929 -0.2763 -0.0596
 4450SOL    MW417568   2.172   5.220   0.631 -0.6182 -0.4628  0.2854
 4451SOL     OW17569   2.252   0.486   3.213  0.0805 -0.3983  0.4790
 4451SOL    HW217570   2.330   0.516   3.166 -0.2738 -0.1614  0.0522
 4451SOL    HW317571   2.283   0.473   3.303  0.9193 -1.5000  0.0514
 4451SOL    MW417572   2.267   0.488   3.219  0.1444 -0.5124  0.3662
 4452SOL     OW17573   4.259   0.947   5.575 -0.3222 -0.1710 -0.1416
 4452SOL    HW217574   4.325   0.969   5.509 -0.7307  1.4532 -0.0408
 4452SOL    HW317575   4.295   0.980   5.657 -0.2614 -1.3205  0.3245
 4452SOL    MW417576   4.272   0.954   5.577 -0.3681 -0.1083 -0.0668
 4453SOL     OW17577   5.485   1.446   4.597  0.2311  0.3980 -0.0786
 4453SOL    HW217578   5.433   1.455   4.517 -0.3970  1.7171  0.4564
 4453SOL    HW317579   5.426   1.403   4.659  1.0221 -1.5057 -0.5579
 4453SOL    MW417580   5.471   1.441   4.595  0.2526  0.3208 -0.0712
 4454SOL     OW17581   1.738   5.327   3.859 -0.1267 -0.1888  0.3911
 4454SOL    HW217582   1.775   5.343   3.946 -1.5195 -1.3472  1.2643
 4454SOL    HW317583   1.657   5.377   3.858  0.3924  0.6489 -0.6651
 4454SOL    MW417584   1.732   5.336   3.871 -0.2420 -0.2311  0.3670
 4455SOL     OW17585   5.883   5.707   3.242 -0.1476 -0.0335  0.5602
 4455SOL    HW217586   5.809   5.648   3.251  0.0789 -0.7135 -1.5103
 4455SOL    HW317587   5.919   5.688   3.155  0.9841  1.9588  0.5284
 4455SOL    MW417588   5.878   5.697   3.232  0.0316  0.1396  0.2828
 4456SOL     OW17589   4.488   6.068   2.437  0.1970  0.6351 -0.2233
 4456SOL    HW217590   4.441   6.028   2.510  1.2845  1.1418  0.7929
 4456SOL    HW317591   4.469   6.011   2.362  0.1188 -0.6575  0.7425
 4456SOL    MW417592   4.480   6.055   2.437  0.3301  0.5314  0.0382
 4457SOL     OW17593   1.449   6.027   5.301 -0.2398 -0.4339 -0.2194
 4457SOL    HW217594   1.462   5.941   5.341  0.5769  0.5111  1.7090
 4457SOL    HW317595   1.527   6.077   5.325 -1.5435  1.4313  0.4221
 4457SOL    MW417596   1.461   6.023   5.310 -0.3041 -0.0631  0.1197
 4458SOL     OW17597   3.686   5.287   2.630  0.3329  0.4570 -0.6801
 4458SOL    HW217598   3.613   5.345   2.608 -2.4651 -2.7823 -0.7771
 4458SOL    HW317599   3.659   5.243   2.710  2.1374 -0.9534 -0.7719
 4458SOL    MW417600   3.673   5.288   2.637  0.2018 -0.1565 -0.7050
 4459SOL     OW17601   2.517   1.671   3.636  0.3788  0.0683 -0.0272
 4459SOL    HW217602   2.447   1.732   3.614  0.7943  0.9764  1.0876
 4459SOL    HW317603   2.592   1.702   3.587  0.5547  0.3904  0.4366
 4459SOL    MW417604   2.517   1.683   3.627  0.4568  0.2306  0.1811
 4460SOL     OW17605   5.946   2.792   6.332 -0.1618 -0.0482  0.3730
 4460SOL    HW217606   6.026   2.842   6.317  0.2259 -0.9870 -0.9360
 4460SOL    HW317607   5.893   2.847   6.390  0.9029  1.1405  0.2634
 4460SOL    MW417608   5.950   2.806   6.337  0.0299 -0.0153  0.1858
 4461SOL     OW17609   0.705   5.812   0.600 -0.0994 -0.7815 -0.0499
 4461SOL    HW217610   0.770   5.882   0.592 -0.6072 -0.3847 -0.7758
 4461SOL    HW317611   0.641   5.846   0.662 -0.2237 -0.6924 -0.2255
 4461SOL    MW417612   0.705   5.826   0.607 -0.1828 -0.7174 -0.1688
 4462SOL     OW17613   4.038   2.963   2.804  0.1142  0.0846  0.4858
 4462SOL    HW217614   3.993   2.979   2.721 -0.0929  0.2482  0.6310
 4462SOL    HW317615   3.976   2.911   2.855  0.0427  0.4138  0.7323
 4462SOL    MW417616   4.024   2.958   2.799  0.0775  0.1496  0.5375
 4463SOL     OW17617   2.039   2.085   6.342 -0.2866  0.3140  0.8036
 4463SOL    HW217618   1.964   2.036   6.375  0.5756 -2.7051 -1.2777
 4463SOL    HW317619   2.115   2.041   6.380  0.5438 -0.2400 -1.3386
 4463SOL    MW417620   2.040   2.073   6.351 -0.0633 -0.1574  0.2464
 4464SOL     OW17621   3.667   2.165   3.288 -0.3210 -0.3643 -0.3531
 4464SOL    HW217622   3.638   2.248   3.325 -1.5970 -1.1967  0.5481
 4464SOL    HW317623   3.752   2.186   3.248 -0.7140  1.4097 -0.3388
 4464SOL    MW417624   3.675   2.179   3.288 -0.5412 -0.2400 -0.2324
 4465SOL     OW17625   4.273   4.321   1.990  0.1596  0.3992  0.2434
 4465SOL    HW217626   4.365   4.306   1.969 -0.1404 -2.1626  0.5163
 4465SOL    HW317627   4.249   4.251   2.051 -1.9634  1.0515  0.2685
 4465SOL    MW417628   4.282   4.310   1.996 -0.1601  0.1472  0.2827
 4466SOL     OW17629   4.140   4.606   3.444 -0.6276  0.4643  0.2479
 4466SOL    HW217630   4.176   4.519   3.427 -1.1405  0.6108 -1.9634
 4466SOL    HW317631   4.184   4.663   3.380 -0.6567  1.7442  1.3249
 4466SOL    MW417632   4.150   4.602   3.433 -0.6991  0.6525  0.0982
 4467SOL     OW17633   3.113   0.834   6.413  0.3777 -0.1237 -0.4779
 4467SOL    HW217634   3.036   0.778   6.399 -0.2700  0.7334 -0.4434
 4467SOL    HW317635   3.168   0.785   6.473  0.8063 -1.6390 -2.0347
 4467SOL    MW417636   3.110   0.820   6.419  0.3488 -0.2106 -0.6788
 4468SOL     OW17637   1.634   0.457   4.899 -0.1604 -0.0037  0.1208
 4468SOL    HW217638   1.623   0.550   4.921  2.2431 -0.1668  2.7224
 4468SOL    HW317639   1.548   0.418   4.912 -0.2952  1.1284  3.8986
 4468SOL    MW417640   1.622   0.464   4.904  0.1389  0.1242  0.9625
 4469SOL     OW17641   5.886   6.234   5.508 -0.5615 -0.6296 -0.7596
 4469SOL    HW217642   5.871   6.140   5.521 -1.4255 -0.5957 -1.4301
 4469SOL    HW317643   5.915   6.241   5.417  2.0629 -0.4978 -0.0071
 4469SOL    MW417644   5.888   6.222   5.497 -0.3292 -0.6078 -0.7488
 4470SOL     OW17645   1.832   0.954   1.151 -0.1719  0.0871  0.2819
 4470SOL    HW217646   1.859   0.988   1.065  0.5528  0.7667  0.7682
 4470SOL    HW317647   1.782   0.875   1.130  0.0145  0.2238 -0.7684
 4470SOL    MW417648   1.829   0.948   1.137 -0.0517  0.1948  0.2075
 4471SOL     OW17649   1.729   3.962   1.083 -0.4111  0.1868  0.0857
 4471SOL    HW217650   1.732   3.928   0.993  0.2942  1.5076 -0.4133
 4471SOL    HW317651   1.640   3.994   1.093 -0.4119  0.2974 -0.2479
 4471SOL    MW417652   1.718   3.961   1.072 -0.3181  0.3757 -0.0242
 4472SOL     OW17653   3.873   4.884   3.535  0.4389  0.3603  0.0646
 4472SOL    HW217654   3.898   4.911   3.447 -0.0242 -0.3976 -0.3134
 4472SOL    HW317655   3.947   4.909   3.590  0.7878  0.7277 -0.5621
 4472SOL    MW417656   3.886   4.891   3.531  0.4238  0.3088 -0.0680
 4473SOL     OW17657   6.283   5.402   6.228 -0.3387 -0.0557  0.3806
 4473SOL    HW217658   6.345   5.372   6.161 -0.8618 -1.7940  0.6062
 4473SOL    HW317659   6.281   5.497   6.218  1.7935 -0.0041 -0.1215
 4473SOL    MW417660   6.291   5.410   6.218 -0.1264 -0.2782  0.3441
 4474SOL     OW17661   5.296   0.919   4.118  0.0415 -0.2737 -0.2280
 4474SOL    HW217662   5.359   0.991   4.116 -0.4836  0.1707 -1.8437
 4474SOL    HW317663   5.241   0.933   4.042 -2.3803 -0.3401  1.3909
 4474SOL    MW417664   5.297   0.930   4.108 -0.3473 -0.2238 -0.2276
 4475SOL     OW17665   0.539   2.124   2.756 -0.4612  0.1255  0.7388
 4475SOL    HW217666   0.497   2.194   2.806 -1.9859 -0.2269  0.0050
 4475SOL    HW317667   0.497   2.127   2.670  0.1849 -1.0281  0.3624
 4475SOL    MW417668   0.528   2.134   2.751 -0.5771 -0.0732  0.5923
 4476SOL     OW17669   0.589   2.704   6.203 -0.2282  0.5218 -0.3472
 4476SOL    HW217670   0.639   2.632   6.241 -2.0744 -1.8098 -2.0690
 4476SOL    HW317671   0.652   2.750   6.147  0.2429 -2.0356 -2.0934
 4476SOL    MW417672   0.604   2.701   6.201 -0.4096 -0.1232 -0.8047
 4477SOL     OW17673   2.584   4.479   3.780 -0.0605 -0.3131  0.2434
 4477SOL    HW217674   2.560   4.432   3.700  0.0806 -0.8583  0.5166
 4477SOL    HW317675   2.632   4.556   3.749 -1.6474  0.5160 -0.2897
 4477SOL    MW417676   2.587   4.483   3.765 -0.2513 -0.2756  0.2091
 4478SOL     OW17677   5.955   3.633   4.760 -0.1006  0.3703  0.6767
 4478SOL    HW217678   6.038   3.597   4.791 -0.3705 -1.8459 -0.9840
 4478SOL    HW317679   5.917   3.675   4.838  1.7225 -0.1314  1.9036
 4478SOL    MW417680   5.961   3.634   4.775  0.1043  0.0117  0.6194
 4479SOL     OW17681   6.326   4.845   1.901  0.4624  0.4165  0.0101
 4479SOL    HW217682   6.322   4.749   1.900 -1.0932  0.4192  1.3517
 4479SOL    HW317683   6.384   4.866   1.973 -0.0045  0.4810  0.3695
 4479SOL    MW417684   6.333   4.835   1.910  0.1955  0.4254  0.2345
 4480SOL     OW17685   2.095   5.813   1.276 -0.0661  0.4818 -0.0620
 4480SOL    HW217686   2.085   5.905   1.251  0.8314  1.3496  2.4246
 4480SOL    HW317687   2.180   5.787   1.241  0.2436  1.0239  0.2605
 4480SOL    MW417688   2.105   5.822   1.268  0.0932  0.6678  0.3086
 4481SOL     OW17689   1.706   4.260   2.232 -0.2489 -0.5504  0.4166
 4481SOL    HW217690   1.616   4.233   2.212 -0.1574  0.2213 -1.1442
 4481SOL    HW317691   1.744   4.184   2.276 -1.0127 -1.6921 -0.8293
 4481SOL    MW417692   1.699   4.246   2.235 -0.3376 -0.5992  0.0463
 4482SOL     OW17693   1.689   1.429   6.252  0.1911  0.7812 -0.2561
 4482SOL    HW217694   1.752   1.496   6.278  0.0525  0.8669 -0.1372
 4482SOL    HW317695   1.727   1.389   6.174 -0.5205  2.1306 -1.3382
 4482SOL    MW417696   1.703   1.433   6.245  0.0789  0.9706 -0.3832
 4483SOL     OW17697   0.967   0.406   0.406 -0.1621  0.1091 -0.5916
 4483SOL    HW217698   0.944   0.328   0.456 -3.8605  1.1324 -0.4221
 4483SOL    HW317699   0.977   0.375   0.316 -2.8916 -0.5116 -0.7672
 4483SOL    MW417700   0.966   0.392   0.401 -1.0102  0.1622 -0.5924
 4484SOL     OW17701   3.589   0.046   2.162 -0.6100  0.0512  0.2259
 4484SOL    HW217702   3.602  -0.020   2.093  0.8156  1.6149 -1.1190
 4484SOL    HW317703   3.608  -0.000   2.243 -0.8440 -1.4855 -0.5464
 4484SOL    MW417704   3.593   0.031   2.163 -0.4528  0.0548 -0.0534
 4485SOL     OW17705   5.719   0.378   2.519 -0.9383 -0.5318  0.1977
 4485SOL    HW217706   5.717   0.309   2.453 -1.6268  0.2966 -0.6800
 4485SOL    HW317707   5.679   0.454   2.476 -0.6124  0.2865  1.2825
 4485SOL    MW417708   5.714   0.379   2.504 -0.9862 -0.3145  0.2250
 4486SOL     OW17709   2.490   6.294   4.912 -0.7698  0.5565 -0.2470
 4486SOL    HW217710   2.403   6.328   4.929 -0.5402  0.7031  0.6693
 4486SOL    HW317711   2.544   6.372   4.900 -0.6692  0.4768 -0.3122
 4486SOL    MW417712   2.486   6.309   4.913 -0.7263  0.5653 -0.1347
 4487SOL     OW17713   3.257   4.287   4.161 -0.2908  0.8899  0.0461
 4487SOL    HW217714   3.216   4.301   4.075 -0.9779  0.1827  0.2493
 4487SOL    HW317715   3.239   4.368   4.209 -0.9126  0.8383 -0.0877
 4487SOL    MW417716   3.250   4.300   4.156 -0.4635  0.7898  0.0553
 4488SOL     OW17717   3.348   1.123   3.706 -0.1378 -0.4146  0.5110
 4488SOL    HW217718   3.329   1.088   3.618 -3.2569 -0.5319  1.1110
 4488SOL    HW317719   3.306   1.061   3.765 -2.9148  2.4087  1.7812
 4488SOL    MW417720   3.340   1.110   3.702 -0.9157 -0.0576  0.7577
 4489SOL     OW17721   0.453   2.439   0.985  0.6451  0.1701  0.1974
 4489SOL    HW217722   0.417   2.459   1.072 -0.4418 -0.7653 -0.0095
 4489SOL    HW317723   0.396   2.371   0.951  0.5282  1.1080 -1.6161
 4489SOL    MW417724   0.441   2.433   0.992  0.4862  0.1704 -0.0692
 4490SOL     OW17725   4.896   0.918   3.784 -0.1512  0.2518 -0.3110
 4490SOL    HW217726   4.810   0.886   3.756 -0.1232  0.9858 -1.3041
 4490SOL    HW317727   4.958   0.874   3.727  0.0445  0.4973 -0.2927
 4490SOL    MW417728   4.893   0.908   3.773 -0.1217  0.3811 -0.4396
 4491SOL     OW17729   3.244   5.401   0.820 -0.1193  0.1955  0.2057
 4491SOL    HW217730   3.169   5.367   0.772 -0.0705  0.1742  0.1448
 4491SOL    HW317731   3.271   5.478   0.771  0.4007 -0.2574 -0.2324
 4491SOL    MW417732   3.238   5.406   0.807 -0.0442  0.1330  0.1399
 4492SOL     OW17733   5.636   6.246   1.170  0.8655  0.3360  0.6176
 4492SOL    HW217734   5.602   6.167   1.210 -2.1399  1.2526  0.1732
 4492SOL    HW317735   5.607   6.317   1.228  3.5234  1.1801  1.0463
 4492SOL    MW417736   5.628   6.245   1.183  0.8197  0.5683  0.6155
 4493SOL     OW17737   5.593   0.568   2.354  0.0483  0.4525 -0.5693
 4493SOL    HW217738   5.592   0.541   2.263 -0.4344  1.4559 -0.8776
 4493SOL    HW317739   5.529   0.512   2.397  0.4284 -0.1647 -0.7948
 4493SOL    MW417740   5.584   0.557   2.348  0.0348  0.5034 -0.6397
 4494SOL     OW17741   2.808   3.303   5.334  0.4885  0.1679  0.3407
 4494SOL    HW217742   2.845   3.315   5.247  0.1141 -0.0483  0.1497
 4494SOL    HW317743   2.766   3.217   5.331  0.6884  0.0458  0.8132
 4494SOL    MW417744   2.807   3.293   5.322  0.4654  0.1233  0.3779
 4495SOL     OW17745   4.919   6.417   4.185  0.5122 -0.2399 -0.2026
 4495SOL    HW217746   4.955   6.429   4.273  0.1590  0.8330 -0.1944
 4495SOL    HW317747   4.983   6.360   4.141  0.5191 -1.0700  0.8377
 4495SOL    MW417748   4.932   6.411   4.191  0.4665 -0.2078 -0.0643
 4496SOL     OW17749   1.433   2.487   5.865  0.3010  0.3646 -0.2670
 4496SOL    HW217750   1.359   2.544   5.888  0.8535  1.7749 -1.7544
 4496SOL    HW317751   1.397   2.428   5.799  0.3416  0.6366 -0.5340
 4496SOL    MW417752   1.418   2.487   5.859  0.3793  0.5866 -0.4985
 4497SOL     OW17753   1.079   5.593   6.023  0.2151  0.0087 -0.2520
 4497SOL    HW217754   1.153   5.622   6.077 -1.1615  0.8713  1.2424
 4497SOL    HW317755   1.081   5.652   5.948  2.8467 -1.9312 -1.8928
 4497SOL    MW417756   1.089   5.605   6.020  0.3807 -0.1334 -0.2713
 4498SOL     OW17757   4.021   1.875   6.417  0.3669  0.2274 -0.2834
 4498SOL    HW217758   4.116   1.868   6.420  0.6009  2.4121 -0.7599
 4498SOL    HW317759   3.991   1.838   6.500  1.6970  0.4810  0.3373
 4498SOL    MW417760   4.029   1.869   6.428  0.5732  0.5491 -0.2644
 4499SOL     OW17761   0.327   5.300   6.100 -0.5623 -0.0689  0.0054
 4499SOL    HW217762   0.321   5.240   6.174 -0.8848 -0.0913 -0.0375
 4499SOL    HW317763   0.372   5.377   6.135 -1.0905  0.0940  0.3412
 4499SOL    MW417764   0.332   5.302   6.114 -0.6746 -0.0503  0.0440
 4500SOL     OW17765   5.960   0.353   5.790 -0.0739 -0.0538 -0.2205
 4500SOL    HW217766   5.951   0.445   5.767 -0.1378 -0.7749 -3.6468
 4500SOL    HW317767   5.922   0.306   5.716 -0.5726 -2.8796  1.6562
 4500SOL    MW417768   5.954   0.359   5.777 -0.1481 -0.5218 -0.4250
 4501SOL     OW17769   5.176   4.706   2.251 -0.3704 -0.0440  0.0459
 4501SOL    HW217770   5.081   4.719   2.255 -0.2173  1.1632  0.2647
 4501SOL    HW317771   5.206   4.772   2.188  0.4420  0.4000  0.8703
 4501SOL    MW417772   5.167   4.717   2.243 -0.2430  0.1739  0.1836
 4502SOL     OW17773   2.281   0.201   3.920 -0.0564 -0.1792 -0.2937
 4502SOL    HW217774   2.226   0.126   3.895 -0.4724 -0.3269  0.9594
 4502SOL    HW317775   2.312   0.179   4.008 -0.3222  1.1952  0.1715
 4502SOL    MW417776   2.278   0.188   3.928 -0.1464 -0.0173 -0.0670
 4503SOL     OW17777   4.938   1.538   6.182  0.3175 -0.3507  0.3047
 4503SOL    HW217778   4.893   1.485   6.249  0.6553 -2.6768 -1.2054
 4503SOL    HW317779   4.881   1.531   6.105  2.2960 -1.8626 -1.1043
 4503SOL    MW417780   4.924   1.530   6.181  0.6231 -0.8571 -0.0804
 4504SOL     OW17781   5.692   1.156   5.038 -0.1765  0.2678 -0.7111
 4504SOL    HW217782   5.641   1.152   4.958 -0.5924 -3.7854 -0.4731
 4504SOL    HW317783   5.783   1.155   5.009 -0.3112  0.2251 -1.1296
 4504SOL    MW417784   5.697   1.155   5.024 -0.2491 -0.2726 -0.7349
 4505SOL     OW17785   0.356   0.588   4.369 -0.4878 -0.1824  0.4679
 4505SOL    HW217786   0.392   0.522   4.309  0.2145  1.4604 -0.9764
 4505SOL    HW317787   0.424   0.599   4.436 -0.0966 -0.0995  0.0640
 4505SOL    MW417788   0.370   0.580   4.370 -0.3435  0.0453  0.2240
 4506SOL     OW17789   3.148   0.831   2.343  0.5874  0.4950 -0.3920
 4506SOL    HW217790   3.144   0.803   2.252  0.1776 -0.4910 -0.0851
 4506SOL    HW317791   3.113   0.757   2.393  0.1734  1.2692  0.5156
 4506SOL    MW417792   3.143   0.818   2.338  0.4787  0.4671 -0.2318
 4507SOL     OW17793   5.148   1.359   6.150 -0.0118 -0.1393 -0.1200
 4507SOL    HW217794   5.061   1.398   6.136  0.4970  0.4278 -2.1105
 4507SOL    HW317795   5.141   1.271   6.113  0.5295  0.2871 -1.2749
 4507SOL    MW417796   5.136   1.353   6.143  0.1268 -0.0082 -0.5350
 4508SOL     OW17797   1.907   1.811   4.614  0.4875  0.2856  0.5569
 4508SOL    HW217798   1.890   1.790   4.706 -0.6226  0.5155  0.4154
 4508SOL    HW317799   1.833   1.865   4.588 -0.5890 -1.8482 -1.1649
 4508SOL    MW417800   1.895   1.815   4.623  0.1990  0.0344  0.3111
 4509SOL     OW17801   6.286   5.184   2.853 -0.2961 -0.3444  0.2944
 4509SOL    HW217802   6.268   5.203   2.761 -0.6871 -2.2626 -0.0684
 4509SOL    HW317803   6.323   5.095   2.853  0.5325 -0.0514  1.9179
 4509SOL    MW417804   6.289   5.175   2.841 -0.2384 -0.5588  0.4607
 4510SOL     OW17805   3.059   5.159   3.581  0.1319  0.3386 -0.2144
 4510SOL    HW217806   2.965   5.159   3.564  0.0579  1.7405  0.0872
 4510SOL    HW317807   3.066   5.166   3.676  0.5661 -1.3754 -0.0712
 4510SOL    MW417808   3.048   5.160   3.591  0.1794  0.2974 -0.1557
 4511SOL     OW17809   1.465   1.423   6.108  0.3145  0.0986  0.4045
 4511SOL    HW217810   1.548   1.441   6.153  3.0745 -1.4112 -3.5509
 4511SOL    HW317811   1.440   1.336   6.138 -0.8023  1.1229  2.7125
 4511SOL    MW417812   1.473   1.414   6.118  0.5313  0.0345  0.1872
 4512SOL     OW17813   6.265   0.290   3.630 -0.1171  0.7176  0.0987
 4512SOL    HW217814   6.316   0.248   3.560  0.0940 -1.0472  1.2431
 4512SOL    HW317815   6.230   0.217   3.681 -0.5749  1.9559  1.6357
 4512SOL    MW417816   6.267   0.275   3.627 -0.1496  0.6481  0.4525
 4513SOL     OW17817   0.952   0.822   1.934  0.7869  0.2613  0.2764
 4513SOL    HW217818   1.032   0.864   1.965 -0.1553  1.2420  1.5146
 4513SOL    HW317819   0.902   0.893   1.893  0.5196 -0.3241 -0.4292
 4513SOL    MW417820   0.956   0.837   1.933  0.6273  0.3134  0.3467
 4514SOL     OW17821   4.527   0.140   4.367  0.0209  0.2112  0.0389
 4514SOL    HW217822   4.594   0.099   4.421  0.3094  1.0392  0.3386
 4514SOL    HW317823   4.575   0.177   4.293 -0.1354  0.5401  0.0975
 4514SOL    MW417824   4.542   0.140   4.365  0.0383  0.3638  0.0862
 4515SOL     OW17825   3.011   0.059   4.577  0.9308  0.1454 -0.4587
 4515SOL    HW217826   2.965  -0.022   4.555  3.1968 -1.3655  0.0753
 4515SOL    HW317827   3.074   0.071   4.506  0.5530  1.5196 -0.5835
 4515SOL    MW417828   3.013   0.050   4.565  1.1800  0.1273 -0.4047
 4516SOL     OW17829   0.565   4.059   1.813 -0.2479 -0.0822 -0.0498
 4516SOL    HW217830   0.554   4.127   1.747  0.6682  0.6089  0.4764
 4516SOL    HW317831   0.570   4.107   1.896  1.7866 -0.6301  0.2029
 4516SOL    MW417832   0.565   4.074   1.815  0.1414 -0.0633  0.0530
 4517SOL     OW17833   1.944   1.770   2.712  0.5845 -0.2865  0.2030
 4517SOL    HW217834   1.934   1.820   2.793 -0.9422 -2.8211  1.7261
 4517SOL    HW317835   1.930   1.679   2.739 -0.4661 -1.1987 -3.0012
 4517SOL    MW417836   1.941   1.764   2.726  0.2445 -0.7413 -0.0188
 4518SOL     OW17837   0.722   3.666   0.797  0.0472  0.2256  0.3212
 4518SOL    HW217838   0.791   3.681   0.731 -1.5114  2.5130 -0.9499
 4518SOL    HW317839   0.647   3.637   0.746 -0.7975  0.6901  1.2772
 4518SOL    MW417840   0.721   3.664   0.781 -0.2699  0.5887  0.2797
 4519SOL     OW17841   4.099   0.600   1.025  0.0970  0.1201 -0.0062
 4519SOL    HW217842   4.096   0.642   1.111  0.0378 -0.3113  0.2056
 4519SOL    HW317843   4.132   0.513   1.042  0.1468  0.0534 -0.4343
 4519SOL    MW417844   4.103   0.594   1.038  0.0957  0.0544 -0.0348
 4520SOL     OW17845   0.283   3.147   1.342 -0.3083  0.8789 -0.6943
 4520SOL    HW217846   0.283   3.241   1.356 -1.9127  0.7608  0.4487
 4520SOL    HW317847   0.310   3.110   1.426 -0.7980  0.3136 -0.7770
 4520SOL    MW417848   0.286   3.154   1.355 -0.5846  0.7887 -0.5544
 4521SOL     OW17849   4.640   5.561   2.562 -0.9983  1.0359 -0.0144
 4521SOL    HW217850   4.700   5.559   2.636 -1.3557  0.1833  0.2570
 4521SOL    HW317851   4.684   5.617   2.497  0.0177  0.5366  0.2309
 4521SOL    MW417852   4.654   5.568   2.563 -0.9114  0.8575  0.0538
 4522SOL     OW17853   5.788   3.855   5.776 -0.1499 -0.2804 -0.3270
 4522SOL    HW217854   5.832   3.917   5.834  0.2992 -0.2193 -0.7193
 4522SOL    HW317855   5.742   3.910   5.712  0.2657 -0.3420 -0.6873
 4522SOL    MW417856   5.788   3.870   5.775 -0.0358 -0.2805 -0.4263
 4523SOL     OW17857   1.842   0.860   4.982  0.1524 -0.3956  0.3844
 4523SOL    HW217858   1.846   0.870   4.887 -0.4680 -1.7013  0.2016
 4523SOL    HW317859   1.934   0.864   5.010  0.3479 -0.1028 -0.2758
 4523SOL    MW417860   1.855   0.862   4.973  0.0963 -0.5292  0.2732
 4524SOL     OW17861   5.819   4.020   3.312 -0.1305  0.0059 -0.0048
 4524SOL    HW217862   5.897   4.040   3.259  0.5712 -1.3010  0.4911
 4524SOL    HW317863   5.748   4.016   3.249  0.4770 -0.3123 -0.6856
 4524SOL    MW417864   5.820   4.022   3.297  0.0423 -0.2085 -0.0292
 4525SOL     OW17865   0.608   0.919   1.464  0.1290 -0.1210 -0.5347
 4525SOL    HW217866   0.594   1.006   1.502 -0.2833 -0.2911 -0.2896
 4525SOL    HW317867   0.703   0.912   1.454  0.0959  0.7714 -1.5554
 4525SOL    MW417868   0.619   0.929   1.468  0.0702 -0.0257 -0.6370
 4526SOL     OW17869   1.565   1.889   4.302  0.7068  0.3769  0.4054
 4526SOL    HW217870   1.621   1.928   4.369 -1.2724 -0.2901  2.5810
 4526SOL    HW317871   1.578   1.945   4.225  1.9303  2.1266  1.7850
 4526SOL    MW417872   1.574   1.902   4.301  0.6071  0.5197  0.8744
 4527SOL     OW17873   4.441   1.135   0.917 -0.2997  0.6336  0.1400
 4527SOL    HW217874   4.402   1.185   0.988 -1.7670 -0.7536  0.3764
 4527SOL    HW317875   4.393   1.052   0.917  1.6646 -0.5778 -0.5585
 4527SOL    MW417876   4.429   1.130   0.926 -0.2341  0.2907  0.0791
 4528SOL     OW17877   3.788   2.613   4.822 -0.0039  0.1821  0.0391
 4528SOL    HW217878   3.724   2.543   4.810 -0.9774  1.2088 -0.9622
 4528SOL    HW317879   3.791   2.657   4.737  1.1100  0.9313  0.4507
 4528SOL    MW417880   3.780   2.609   4.809  0.0146  0.4164 -0.0387
 4529SOL     OW17881   6.138   3.927   4.334 -0.0037  0.2041 -0.2162
 4529SOL    HW217882   6.208   3.862   4.329 -0.4580 -0.2669 -0.5581
 4529SOL    HW317883   6.165   3.986   4.405  0.7801  0.0850 -0.4064
 4529SOL    MW417884   6.151   3.927   4.343  0.0398  0.1262 -0.2864
 4530SOL     OW17885   1.257   3.695   6.062  0.1301  0.2077 -0.5276
 4530SOL    HW217886   1.281   3.744   6.141 -0.1251  0.3576 -0.5398
 4530SOL    HW317887   1.330   3.636   6.047 -1.0691 -2.0000  1.5599
 4530SOL    MW417888   1.270   3.694   6.070 -0.0618 -0.0638 -0.2538
 4531SOL     OW17889   1.169   1.582   5.923 -0.1413  0.1954  0.1982
 4531SOL    HW217890   1.186   1.490   5.944  0.7331  0.5698  1.2891
 4531SOL    HW317891   1.081   1.599   5.957 -0.0769 -0.0966  0.5155
 4531SOL    MW417892   1.160   1.572   5.930 -0.0174  0.2063  0.3840
 4532SOL     OW17893   3.764   5.473   2.037 -0.2920  0.1566 -0.5892
 4532SOL    HW217894   3.824   5.466   1.962  1.0939  1.0360  0.3904
 4532SOL    HW317895   3.710   5.394   2.031  0.5358 -0.3523 -1.8721
 4532SOL    MW417896   3.765   5.461   2.026  0.0000  0.2055 -0.6292
 4533SOL     OW17897   1.788   4.904   1.230 -1.3868 -0.0103  0.1686
 4533SOL    HW217898   1.804   4.905   1.136 -1.6214 -0.0953  0.1287
 4533SOL    HW317899   1.848   4.971   1.265  0.2790 -1.4372  0.2046
 4533SOL    MW417900   1.798   4.913   1.222 -1.1980 -0.2098  0.1681
 4534SOL     OW17901   5.250   4.604   4.647  0.0643 -0.1709 -0.5467
 4534SOL    HW217902   5.340   4.629   4.628 -0.5106  1.4663 -1.2212
 4534SOL    HW317903   5.211   4.587   4.561 -0.5794  0.2262 -0.3347
 4534SOL    MW417904   5.257   4.605   4.633 -0.0965  0.0975 -0.6077
 4535SOL     OW17905   5.537   4.205   5.166  0.9249 -0.4612 -0.3246
 4535SOL    HW217906   5.574   4.122   5.196  2.1388 -0.1872 -1.0040
 4535SOL    HW317907   5.608   4.268   5.176  0.1460  0.4245 -0.2033
 4535SOL    MW417908   5.551   4.202   5.172  0.9823 -0.3082 -0.3983
 4536SOL     OW17909   0.866   0.145   3.007  0.3452  0.3041 -0.1986
 4536SOL    HW217910   0.906   0.153   2.921  1.4195 -0.8133  0.1804
 4536SOL    HW317911   0.819   0.062   3.005 -1.1051  1.0812 -0.2625
 4536SOL    MW417912   0.865   0.135   2.995  0.2956  0.2592 -0.1570
 4537SOL     OW17913   0.823   4.843   5.970 -0.2991  0.1304  0.2559
 4537SOL    HW217914   0.906   4.795   5.972 -0.4015 -0.0888 -0.4389
 4537SOL    HW317915   0.792   4.834   5.880 -0.3431  1.4809  0.1202
 4537SOL    MW417916   0.830   4.835   5.959 -0.3184  0.2797  0.1463
 4538SOL     OW17917   3.662   4.411   1.334 -0.6735 -0.0984 -0.0381
 4538SOL    HW217918   3.693   4.393   1.246  0.4942 -0.0550  0.3453
 4538SOL    HW317919   3.569   4.389   1.332 -0.8727  0.7207 -1.5062
 4538SOL    MW417920   3.654   4.406   1.322 -0.5457  0.0154 -0.1812
 4539SOL     OW17921   5.617   2.493   5.188 -0.1444 -0.5155  0.3629
 4539SOL    HW217922   5.549   2.491   5.256 -0.6428 -2.1034 -0.1433
 4539SOL    HW317923   5.570   2.474   5.107  0.6339  0.2080 -0.2753
 4539SOL    MW417924   5.602   2.490   5.187 -0.1074 -0.6295  0.2119
 4540SOL     OW17925   0.665   6.016   6.129 -0.6428  0.4789  0.9164
 4540SOL    HW217926   0.574   6.030   6.102 -0.7362 -1.1250  0.2627
 4540SOL    HW317927   0.677   5.921   6.123  0.8210  0.5680  1.8523
 4540SOL    MW417928   0.655   6.005   6.125 -0.4620  0.2791  0.9536
 4541SOL     OW17929   3.949   5.806   6.230  0.0080  0.2360  0.4105
 4541SOL    HW217930   3.941   5.713   6.250 -2.0577  0.3080  0.0867
 4541SOL    HW317931   3.954   5.810   6.135 -1.8749  0.5194  0.2858
 4541SOL    MW417932   3.949   5.795   6.220 -0.5130  0.2829  0.3513
 4542SOL     OW17933   5.635   0.791   6.262 -0.4598 -0.0772  0.1854
 4542SOL    HW217934   5.554   0.812   6.309 -1.6516 -0.7423 -1.4832
 4542SOL    HW317935   5.656   0.871   6.214  0.7765  0.6131  1.8023
 4542SOL    MW417936   5.627   0.804   6.262 -0.4539 -0.0739  0.1785
 4543SOL     OW17937   1.614   4.510   5.761 -0.6437  0.4346 -0.2896
 4543SOL    HW217938   1.560   4.583   5.792 -1.8042 -0.8454  0.8562
 4543SOL    HW317939   1.704   4.537   5.780 -0.8891  2.2034 -1.3463
 4543SOL    MW417940   1.619   4.523   5.768 -0.8292  0.4991 -0.2778
 4544SOL     OW17941   1.125   5.634   4.444  0.0671  0.7597 -0.1530
 4544SOL    HW217942   1.155   5.573   4.512  0.6841  0.4664 -0.6820
 4544SOL    HW317943   1.204   5.681   4.417 -0.3899  1.7721  0.2102
 4544SOL    MW417944   1.139   5.632   4.450  0.0882  0.8545 -0.1749
 4545SOL     OW17945   2.263   3.620   6.429 -0.7593  0.2099  0.0068
 4545SOL    HW217946   2.268   3.629   6.524  2.3194 -0.0501 -0.0117
 4545SOL    HW317947   2.307   3.537   6.411 -0.7388  0.5547 -1.6759
 4545SOL    MW417948   2.270   3.610   6.439 -0.3504  0.2211 -0.2176
 4546SOL     OW17949   6.348   2.501   5.024 -0.5891  0.4374 -0.0678
 4546SOL    HW217950   6.442   2.491   5.039 -0.4310  0.7320 -0.8233
 4546SOL    HW317951   6.324   2.580   5.073 -0.9030 -0.8586  1.9747
 4546SOL    MW417952   6.358   2.510   5.032 -0.6097  0.3053  0.1020
 4547SOL     OW17953   3.590   1.497   3.292 -0.2613  0.6045 -0.0119
 4547SOL    HW217954   3.551   1.513   3.378 -0.0931 -1.1901  0.4466
 4547SOL    HW317955   3.518   1.462   3.239  0.1326 -0.4571  0.1205
 4547SOL    MW417956   3.575   1.494   3.296 -0.1871  0.2277  0.0661
 4548SOL     OW17957   0.491   4.471   3.950 -0.4505  0.0924  0.8333
 4548SOL    HW217958   0.561   4.408   3.968 -1.3189 -0.7490  1.4070
 4548SOL    HW317959   0.471   4.510   4.035 -0.5798  0.4262  0.6490
 4548SOL    MW417960   0.497   4.468   3.963 -0.5821  0.0254  0.8846
 4549SOL     OW17961   6.365   4.734   5.141 -0.7834 -0.1843 -0.7613
 4549SOL    HW217962   6.286   4.689   5.111 -0.6917 -0.1344 -1.0805
 4549SOL    HW317963   6.436   4.673   5.123 -0.6806  0.0062 -1.0272
 4549SOL    MW417964   6.364   4.720   5.134 -0.7577 -0.1526 -0.8385
 4550SOL     OW17965   4.077   1.622   5.951 -0.1269  0.3885 -0.3244
 4550SOL    HW217966   4.044   1.660   6.032 -0.0562  0.3787 -0.2913
 4550SOL    HW317967   4.053   1.686   5.883 -1.3384 -0.1983 -0.4905
 4550SOL    MW417968   4.069   1.636   5.953 -0.2774  0.3098 -0.3419
 4551SOL     OW17969   4.534   0.467   0.088  0.0224  0.5857 -0.4342
 4551SOL    HW217970   4.461   0.477   0.150 -0.1267 -0.2278 -0.4687
 4551SOL    HW317971   4.600   0.417   0.137  0.0997  0.3525 -0.7742
 4551SOL    MW417972   4.533   0.461   0.103  0.0130  0.4476 -0.4836
 4552SOL     OW17973   4.376   3.726   3.519  0.4914 -0.5378 -0.3971
 4552SOL    HW217974   4.366   3.638   3.556  0.8578  0.4308  2.2172
 4552SOL    HW317975   4.299   3.774   3.550  2.7865  1.4432  2.7936
 4552SOL    MW417976   4.364   3.721   3.528  0.8425 -0.1486  0.3688
 4553SOL     OW17977   2.197   1.099   5.223  0.1374 -0.3549  0.2798
 4553SOL    HW217978   2.284   1.126   5.193 -0.0008  0.1165  0.2863
 4553SOL    HW317979   2.207   1.087   5.317  0.4211 -1.2248  0.1446
 4553SOL    MW417980   2.210   1.101   5.231  0.1566 -0.4075  0.2629
 4554SOL     OW17981   4.429   0.215   3.397 -0.5006 -0.2326 -0.1985
 4554SOL    HW217982   4.507   0.262   3.428  1.0688 -1.9729 -1.3131
 4554SOL    HW317983   4.358   0.247   3.453  0.8725  1.8300  0.4873
 4554SOL    MW417984   4.430   0.226   3.408 -0.1124 -0.1901 -0.2551
 4555SOL     OW17985   4.378   3.497   4.366  0.1419  0.1273  0.2491
 4555SOL    HW217986   4.428   3.550   4.303  0.5542  1.0375  1.3003
 4555SOL    HW317987   4.299   3.548   4.383 -0.3754 -0.5300 -0.1840
 4555SOL    MW417988   4.374   3.511   4.360  0.1281  0.1607  0.3306
 4556SOL     OW17989   5.874   5.944   2.493  0.1479  0.3901  0.5259
 4556SOL    HW217990   5.850   6.034   2.511 -1.3625  0.6301 -2.1277
 4556SOL    HW317991   5.966   5.947   2.468  0.2306  1.1287  0.9338
 4556SOL    MW417992   5.883   5.956   2.492 -0.0404  0.5192  0.2296
 4557SOL     OW17993   5.833   6.311   4.137 -0.0714 -0.5856  0.6110
 4557SOL    HW217994   5.882   6.248   4.190  3.9590 -0.2521 -2.1981
 4557SOL    HW317995   5.798   6.258   4.065 -0.2356 -0.2097  0.4134
 4557SOL    MW417996   5.835   6.296   4.134  0.4387 -0.4920  0.2143
 4558SOL     OW17997   4.739   0.610   2.105 -0.6135  0.2848  0.3566
 4558SOL    HW217998   4.654   0.584   2.071 -0.8348  0.3229  0.8785
 4558SOL    HW317999   4.733   0.705   2.114 -0.7521  0.2200  1.0193
 4558SOL    MW418000   4.727   0.619   2.101 -0.6609  0.2813  0.5129
 4559SOL     OW18001   1.740   0.550   0.240  0.2164 -0.1901 -0.3550
 4559SOL    HW218002   1.714   0.609   0.310 -0.3388 -0.8955  0.0496
 4559SOL    HW318003   1.827   0.580   0.214  0.4163  0.0958  0.6052
 4559SOL    MW418004   1.748   0.562   0.245  0.1695 -0.2454 -0.1750
 4560SOL     OW18005   2.024   3.906   0.879 -0.2397  0.8031 -0.9840
 4560SOL    HW218006   2.088   3.977   0.881 -1.5037  2.2438 -4.1923
 4560SOL    HW318007   2.072   3.830   0.847  0.4609  1.0949 -0.6312
 4560SOL    MW418008   2.039   3.906   0.875 -0.3141  1.0317 -1.3608
 4561SOL     OW18009   6.223   0.046   5.722  0.4701 -0.0555  0.3206
 4561SOL    HW218010   6.224   0.127   5.773  3.6011 -1.8627  3.6732
 4561SOL    HW318011   6.151  -0.005   5.758  1.5197 -0.5733  1.8065
 4561SOL    MW418012   6.214   0.050   5.734  1.0217 -0.3623  0.9590
 4562SOL     OW18013   3.028   0.840   2.719  0.3426 -0.3013  0.0172
 4562SOL    HW218014   3.025   0.755   2.675  0.0213 -0.7344  0.8554
 4562SOL    HW318015   3.112   0.877   2.694 -0.3399  0.0308 -1.9814
 4562SOL    MW418016   3.039   0.833   2.710  0.2101 -0.3146 -0.1359
 4563SOL     OW18017   4.833   5.848   2.780 -0.1479 -0.4409  0.2436
 4563SOL    HW218018   4.747   5.879   2.751  0.7975  0.7688 -1.3977
 4563SOL    HW318019   4.826   5.752   2.778 -0.8290 -0.3916 -1.9794
 4563SOL    MW418020   4.821   5.839   2.776 -0.1130 -0.2748 -0.2663
 4564SOL     OW18021   4.057   5.008   2.460  0.4770 -0.1443 -0.4749
 4564SOL    HW218022   4.072   5.097   2.431  0.3631  1.0732  2.8106
 4564SOL    HW318023   3.966   4.991   2.439  0.5737  0.3722 -1.3727
 4564SOL    MW418024   4.047   5.017   2.453  0.4748  0.0845 -0.1598
 4565SOL     OW18025   3.317   3.611   2.017 -0.2129  0.5920  0.0808
 4565SOL    HW218026   3.277   3.564   1.944  0.1135  0.7910 -0.2377
 4565SOL    HW318027   3.285   3.701   2.007 -2.0496  0.1496  1.5803
 4565SOL    MW418028   3.308   3.617   2.006 -0.4121  0.5599  0.2366
 4566SOL     OW18029   0.480   2.897   2.164  0.0829  0.0555  0.3120
 4566SOL    HW218030   0.540   2.930   2.231 -0.4222  0.3931  0.6018
 4566SOL    HW318031   0.393   2.926   2.193 -0.0655  0.8597 -0.8857
 4566SOL    MW418032   0.476   2.905   2.177 -0.0033  0.2061  0.1922
 4567SOL     OW18033   3.676   0.131   1.674 -0.1095 -0.3697  0.2133
 4567SOL    HW218034   3.680   0.183   1.754  1.6177 -1.9321  1.2118
 4567SOL    HW318035   3.745   0.168   1.618 -0.1045 -0.4284  0.1812
 4567SOL    MW418036   3.686   0.143   1.677  0.1191 -0.5836  0.3408
 4568SOL     OW18037   2.973   0.326   6.424 -0.2723  0.2790  0.2290
 4568SOL    HW218038   3.015   0.254   6.377 -0.8124  1.4920 -2.3349
 4568SOL    HW318039   2.883   0.297   6.437  0.3344 -0.8198  2.3351
 4568SOL    MW418040   2.967   0.313   6.419 -0.2635  0.2941  0.1686
 4569SOL     OW18041   3.319   0.187   3.127  0.5668 -0.1249  0.0318
 4569SOL    HW218042   3.286   0.169   3.215  1.5803 -1.7991  0.1070
 4569SOL    HW318043   3.370   0.267   3.136 -1.1369  0.9687  0.4699
 4569SOL    MW418044   3.321   0.195   3.140  0.4757 -0.2015  0.0995
 4570SOL     OW18045   3.689   0.731   5.202  0.3084  0.0874 -0.3018
 4570SOL    HW218046   3.739   0.665   5.251  2.2093  1.1120 -0.7746
 4570SOL    HW318047   3.673   0.690   5.117  1.2880  0.1380 -0.5159
 4570SOL    MW418048   3.693   0.717   5.197  0.6885  0.2292 -0.3925
 4571SOL     OW18049   4.140   0.235   1.260 -0.6018 -0.1722 -0.4659
 4571SOL    HW218050   4.227   0.274   1.252 -0.2685 -0.7873  0.0677
 4571SOL    HW318051   4.105   0.235   1.171  1.1825 -2.6924 -1.2850
 4571SOL    MW418052   4.147   0.240   1.247 -0.3224 -0.5858 -0.5036
 4572SOL     OW18053   3.708   6.183   2.261 -0.2611  0.0106  0.2640
 4572SOL    HW218054   3.670   6.188   2.349  2.2380 -0.2913  1.4339
 4572SOL    HW318055   3.796   6.219   2.271  0.8467 -1.9623 -1.6320
 4572SOL    MW418056   3.714   6.189   2.274  0.2148 -0.2895  0.1682
 4573SOL     OW18057   3.575   0.078   0.829 -0.0905 -0.0129 -0.2803
 4573SOL    HW218058   3.650   0.097   0.772 -1.5974 -1.1746 -2.8474
 4573SOL    HW318059   3.601  -0.000   0.878  1.5140  1.4255  1.2950
 4573SOL    MW418060   3.588   0.070   0.828 -0.0777  0.0236 -0.4111
 4574SOL     OW18061   1.893   1.549   1.515  0.0090 -0.0862 -0.5085
 4574SOL    HW218062   1.931   1.637   1.510  2.5239 -0.9905  0.7339
 4574SOL    HW318063   1.814   1.560   1.568 -0.8466  1.6905 -2.0537
 4574SOL    MW418064   1.887   1.562   1.522  0.2279  0.0289 -0.5485
 4575SOL     OW18065   1.368   4.744   1.646  0.4187  0.7321  0.2741
 4575SOL    HW218066   1.400   4.674   1.703  2.7071  1.6535  0.2583
 4575SOL    HW318067   1.273   4.741   1.654  0.5984  0.2038  3.3913
 4575SOL    MW418068   1.360   4.734   1.655  0.7443  0.7840  0.6833
 4576SOL     OW18069   3.663   4.210   5.684  0.8680  0.5796  0.0436
 4576SOL    HW218070   3.647   4.250   5.599  3.0012  0.4792 -0.4494
 4576SOL    HW318071   3.703   4.125   5.664  1.1669  0.4389  1.1357
 4576SOL    MW418072   3.666   4.204   5.670  1.1889  0.5478  0.1226
 4577SOL     OW18073   0.213   4.512   4.426  0.0041 -0.3396 -0.1222
 4577SOL    HW218074   0.253   4.436   4.383 -0.0060 -0.2068 -0.3722
 4577SOL    HW318075   0.194   4.572   4.354 -0.0881 -0.1467  0.0631
 4577SOL    MW418076   0.216   4.510   4.411 -0.0094 -0.2966 -0.1308
 4578SOL     OW18077   2.133   3.345   3.347  0.1764  0.1405  0.2934
 4578SOL    HW218078   2.159   3.253   3.351 -0.6065 -0.0647  1.8799
 4578SOL    HW318079   2.201   3.391   3.397  0.6258  0.4518 -0.5918
 4578SOL    MW418080   2.145   3.339   3.354  0.1324  0.1545  0.3859
 4579SOL     OW18081   0.603   1.964   6.088 -0.8595  0.5898 -0.3565
 4579SOL    HW218082   0.657   1.963   6.167 -0.3723  1.0031 -0.6784
 4579SOL    HW318083   0.605   2.055   6.059  1.3144 -0.0139 -2.4280
 4579SOL    MW418084   0.611   1.976   6.095 -0.5084  0.5646 -0.6723
 4580SOL     OW18085   3.267   4.772   5.692 -0.5003  0.2643 -0.2821
 4580SOL    HW218086   3.357   4.753   5.664 -0.1678  1.1941  0.1223
 4580SOL    HW318087   3.218   4.783   5.610  0.0279  0.9767 -0.5105
 4580SOL    MW418088   3.272   4.770   5.677 -0.3867  0.4809 -0.2588
 4581SOL     OW18089   5.476   5.180   1.906 -0.3172  0.3360  0.4381
 4581SOL    HW218090   5.451   5.161   1.996 -1.4222  1.3272  0.3693
 4581SOL    HW318091   5.435   5.111   1.854  0.5783 -0.4141  0.7063
 4581SOL    MW418092   5.467   5.169   1.911 -0.3448  0.3678  0.4644
 4582SOL     OW18093   0.066   3.067   5.608  0.1449 -0.1791 -0.2511
 4582SOL    HW218094   0.150   3.063   5.563 -0.3601 -1.2636 -1.1286
 4582SOL    HW318095  -0.000   3.066   5.539 -0.6416 -1.7121  0.4685
 4582SOL    MW418096   0.068   3.066   5.593 -0.0255 -0.5245 -0.2720
 4583SOL     OW18097   3.136   2.471   1.642  0.1849 -0.4910  0.6473
 4583SOL    HW218098   3.100   2.486   1.729 -1.2543 -1.0499  0.1836
 4583SOL    HW318099   3.151   2.376   1.639  0.6021 -0.4179  0.4283
 4583SOL    MW418100   3.133   2.460   1.653  0.0501 -0.5551  0.5572
 4584SOL     OW18101   0.114   4.159   3.533  0.2869 -0.0263  0.3157
 4584SOL    HW218102   0.073   4.074   3.552 -1.6117  1.3192  2.9363
 4584SOL    HW318103   0.060   4.196   3.462  0.5622 -0.6107 -0.2086
 4584SOL    MW418104   0.101   4.152   3.526  0.0727  0.0742  0.5922
 4585SOL     OW18105   5.275   5.291   4.253  0.6125 -0.0438 -0.4438
 4585SOL    HW218106   5.289   5.298   4.348  2.1385  1.0901 -0.7181
 4585SOL    HW318107   5.208   5.223   4.244  0.3425 -0.0868  1.4473
 4585SOL    MW418108   5.268   5.283   4.264  0.7782  0.1002 -0.2305
 4586SOL     OW18109   4.261   4.939   2.750 -0.2343 -0.3532  0.0469
 4586SOL    HW218110   4.285   4.934   2.843 -0.4391  0.4665  0.1481
 4586SOL    HW318111   4.289   4.855   2.714  1.8661  0.1245  0.3892
 4586SOL    MW418112   4.268   4.927   2.758  0.0158 -0.1820  0.1054
 4587SOL     OW18113   4.378   5.902   5.044  0.0417 -0.0950  0.3129
 4587SOL    HW218114   4.334   5.869   4.965  1.7460  0.1967 -0.8017
 4587SOL    HW318115   4.404   5.991   5.021  2.3721 -0.6934  0.3924
 4587SOL    MW418116   4.375   5.909   5.030  0.5740 -0.1355  0.1764
 4588SOL     OW18117   2.851   6.327   4.218  0.3575 -0.2074 -0.1985
 4588SOL    HW218118   2.943   6.314   4.239  0.4524 -2.6313 -1.7566
 4588SOL    HW318119   2.805   6.256   4.263 -0.8526  1.1710  0.8478
 4588SOL    MW418120   2.857   6.316   4.226  0.2104 -0.3453 -0.2660
 4589SOL     OW18121   5.991   0.615   1.394  0.4775  0.7436  0.2344
 4589SOL    HW218122   6.064   0.567   1.433 -0.4024  0.4575  1.5892
 4589SOL    HW318123   5.986   0.583   1.304  1.8182  0.5421  0.2191
 4589SOL    MW418124   6.000   0.605   1.387  0.5383  0.6792  0.4111
 4590SOL     OW18125   4.287   3.233   6.195  0.2366  0.1858 -0.3050
 4590SOL    HW218126   4.309   3.309   6.248  1.0289  0.2443 -0.7056
 4590SOL    HW318127   4.258   3.269   6.111  1.5324  0.0453 -0.8385
 4590SOL    MW418128   4.286   3.248   6.191  0.5121  0.1750 -0.4282
 4591SOL     OW18129   4.899   5.838   5.411  0.3899  0.4613  0.5383
 4591SOL    HW218130   4.932   5.875   5.329  1.6831 -0.9493  0.3705
 4591SOL    HW318131   4.914   5.744   5.402 -1.5369  0.0170  1.4848
 4591SOL    MW418132   4.905   5.830   5.399  0.3063  0.2166  0.6410
 4592SOL     OW18133   4.807   2.944   2.243 -0.2083  0.4380  0.1341
 4592SOL    HW218134   4.770   3.007   2.181  1.2255  1.4089  0.2243
 4592SOL    HW318135   4.901   2.958   2.238  0.0185 -0.4674  1.4857
 4592SOL    MW418136   4.814   2.954   2.234  0.0108  0.4466  0.3243
 4593SOL     OW18137   2.923   5.276   3.150  0.4277  0.3232 -0.0384
 4593SOL    HW218138   2.903   5.361   3.190 -2.2817 -0.1612 -0.1741
 4593SOL    HW318139   2.971   5.228   3.217 -3.2047 -0.1533  2.5079
 4593SOL    MW418140   2.927   5.281   3.164 -0.4090  0.1964  0.2797
 4594SOL     OW18141   3.309   4.656   1.313 -0.5997 -0.0934  0.2211
 4594SOL    HW218142   3.394   4.687   1.283  0.1581 -0.1328  2.1722
 4594SOL    HW318143   3.292   4.578   1.261  0.4376  0.0496 -0.3539
 4594SOL    MW418144   3.318   4.650   1.302 -0.3629 -0.0797  0.4027
 4595SOL     OW18145   4.203   4.981   5.936  0.2596  0.4760 -0.2811
 4595SOL    HW218146   4.232   5.009   5.850 -0.1047  2.7018  0.2391
 4595SOL    HW318147   4.163   4.896   5.922  0.9272  0.4362 -2.1555
 4595SOL    MW418148   4.201   4.974   5.923  0.2996  0.7644 -0.4598
 4596SOL     OW18149   0.506   0.642   4.624 -0.1023 -0.4852 -0.3442
 4596SOL    HW218150   0.597   0.667   4.637 -0.5556  0.6036  0.9305
 4596SOL    HW318151   0.493   0.567   4.683 -0.3578  0.1814  0.4660
 4596SOL    MW418152   0.516   0.635   4.634 -0.1958 -0.2536 -0.0691
 4597SOL     OW18153   1.789   1.923   0.697 -0.4133 -0.6565  0.7906
 4597SOL    HW218154   1.836   1.986   0.642  0.2663 -0.6761  1.3258
 4597SOL    HW318155   1.796   1.840   0.650  0.9743 -0.8720  1.3247
 4597SOL    MW418156   1.796   1.921   0.683 -0.1405 -0.6875  0.9317
 4598SOL     OW18157   3.662   2.247   4.431  0.2082 -0.0597 -0.1031
 4598SOL    HW218158   3.717   2.231   4.508 -1.1187 -0.8221  0.7383
 4598SOL    HW318159   3.717   2.224   4.356  2.0012  1.9754  0.4794
 4598SOL    MW418160   3.676   2.242   4.431  0.2697  0.1082  0.0848
 4599SOL     OW18161   0.627   1.212   5.030 -0.3925 -0.6848  0.2184
 4599SOL    HW218162   0.695   1.154   5.064 -0.8087 -0.5599  1.3271
 4599SOL    HW318163   0.559   1.210   5.098 -0.4546  1.0350  0.2585
 4599SOL    MW418164   0.627   1.204   5.044 -0.4556 -0.4414  0.3700
 4600SOL     OW18165   5.502   2.995   0.444  0.4662 -0.1123  0.2324
 4600SOL    HW218166   5.472   3.015   0.533  0.8208 -2.4488  0.9555
 4600SOL    HW318167   5.597   2.985   0.452  0.3844 -1.4262 -0.1263
 4600SOL    MW418168   5.511   2.996   0.457  0.5022 -0.5939  0.2804
 4601SOL     OW18169   4.476   2.755   1.867  0.0423 -0.1668 -0.6806
 4601SOL    HW218170   4.571   2.744   1.857  0.5054  3.4846 -1.4731
 4601SOL    HW318171   4.459   2.731   1.958  1.4087 -2.3263 -0.9111
 4601SOL    MW418172   4.487   2.750   1.877  0.2837  0.0300 -0.8156
 4602SOL     OW18173   3.179   3.477   1.819  0.2518  0.5732  0.5553
 4602SOL    HW218174   3.181   3.381   1.822  1.0936  0.5873  0.6500
 4602SOL    HW318175   3.088   3.498   1.801 -0.2195 -0.2033  1.8690
 4602SOL    MW418176   3.168   3.467   1.817  0.3007  0.4726  0.7411
 4603SOL     OW18177   2.782   5.714   2.816  0.0151  0.8101 -0.2998
 4603SOL    HW218178   2.701   5.671   2.844  0.7034 -0.2262  0.1712
 4603SOL    HW318179   2.755   5.768   2.742 -0.9429 -0.2996 -0.8134
 4603SOL    MW418180   2.767   5.715   2.810 -0.0205  0.5270 -0.3054
 4604SOL     OW18181   6.130   4.588   3.086 -0.3076 -0.2222 -0.2128
 4604SOL    HW218182   6.085   4.629   3.012  0.0701  2.2584  0.8610
 4604SOL    HW318183   6.206   4.545   3.046 -0.3950  0.6309 -1.3464
 4604SOL    MW418184   6.134   4.587   3.071 -0.2693  0.2176 -0.2207
 4605SOL     OW18185   4.128   2.598   2.917 -0.3765  0.4212 -0.3278
 4605SOL    HW218186   4.211   2.636   2.945  0.0950 -0.6735 -0.2035
 4605SOL    HW318187   4.067   2.672   2.917  0.2357  0.9622  0.9850
 4605SOL    MW418188   4.131   2.613   2.920 -0.2336  0.3482 -0.1382
 4606SOL     OW18189   6.413   3.412   3.552  0.1491 -0.5513  0.1381
 4606SOL    HW218190   6.479   3.343   3.556  0.3222 -0.4005 -0.0447
 4606SOL    HW318191   6.338   3.372   3.508  0.4252 -0.4880 -0.3971
 4606SOL    MW418192   6.412   3.398   3.546  0.2084 -0.5231  0.0434
 4607SOL     OW18193   1.743   3.757   5.389 -0.0959  0.1645 -0.1742
 4607SOL    HW218194   1.782   3.826   5.442 -1.5054  1.5329 -0.8181
 4607SOL    HW318195   1.661   3.735   5.435 -1.7835  1.9839 -2.0833
 4607SOL    MW418196   1.737   3.763   5.402 -0.5045  0.5851 -0.5110
 4608SOL     OW18197   2.351   0.668   4.757  0.3361 -0.1148 -0.2571
 4608SOL    HW218198   2.421   0.724   4.723 -0.0823  1.4104  1.2633
 4608SOL    HW318199   2.279   0.680   4.696 -0.1688  2.0409  0.6912
 4608SOL    MW418200   2.351   0.677   4.745  0.2143  0.3709  0.0686
 4609SOL     OW18201   5.435   1.656   0.810  0.5558  0.3242  0.4496
 4609SOL    HW218202   5.418   1.562   0.803  1.9619 -0.2046  3.0649
 4609SOL    HW318203   5.368   1.696   0.754 -2.7551 -2.0176  2.3953
 4609SOL    MW418204   5.424   1.649   0.801  0.3045 -0.0545  1.0514
 4610SOL     OW18205   0.213   6.177   3.969 -0.1031 -0.0679 -0.6798
 4610SOL    HW218206   0.145   6.162   4.035 -1.8786 -1.9372 -2.7423
 4610SOL    HW318207   0.222   6.272   3.964 -0.0295  0.1443  2.0482
 4610SOL    MW418208   0.205   6.187   3.977 -0.3277 -0.2865 -0.5920
 4611SOL     OW18209   3.960   0.962   5.862 -0.0568 -0.2048 -0.0268
 4611SOL    HW218210   3.971   0.868   5.845  1.1428 -0.4278  1.6146
 4611SOL    HW318211   4.012   1.005   5.794  0.5828 -0.8074  0.0658
 4611SOL    MW418212   3.969   0.955   5.851  0.1858 -0.3137  0.2020
 4612SOL     OW18213   5.959   5.218   1.678  0.2180  0.3422  0.2068
 4612SOL    HW218214   5.973   5.230   1.772  1.0028  1.0103  0.0243
 4612SOL    HW318215   5.977   5.125   1.662  0.3614  0.2887  0.6772
 4612SOL    MW418216   5.963   5.208   1.688  0.3405  0.4233  0.2448
 4613SOL     OW18217   4.725   2.102   4.474  0.1339 -0.1899  0.2925
 4613SOL    HW218218   4.680   2.178   4.511 -0.3977 -0.5201  0.3316
 4613SOL    HW318219   4.759   2.133   4.390 -0.2347  0.0410  0.2280
 4613SOL    MW418220   4.724   2.116   4.468  0.0151 -0.2030  0.2892
 4614SOL     OW18221   5.169   0.126   2.899  0.1662  0.2949 -0.0259
 4614SOL    HW218222   5.095   0.180   2.926 -0.0084  0.0650 -0.0368
 4614SOL    HW318223   5.234   0.138   2.968  1.0853  2.3704 -1.1907
 4614SOL    MW418224   5.167   0.135   2.912  0.2645  0.5384 -0.1810
 4615SOL     OW18225   1.448   4.692   5.892  0.1008 -0.3299  0.3618
 4615SOL    HW218226   1.409   4.679   5.979  0.4829  1.5343  0.8481
 4615SOL    HW318227   1.500   4.771   5.901 -0.3089  0.2269 -1.7318
 4615SOL    MW418228   1.450   4.701   5.905  0.0971 -0.0105  0.1497
 4616SOL     OW18229   5.689   1.915   4.965  0.5665  0.2145  0.2839
 4616SOL    HW218230   5.609   1.922   5.017  1.1955 -1.0216  1.4839
 4616SOL    HW318231   5.757   1.955   5.020  1.1243 -0.5245  0.1528
 4616SOL    MW418232   5.688   1.922   4.980  0.7231 -0.0461  0.4249
 4617SOL     OW18233   6.175   0.243   1.415  0.5344  0.5519 -0.4337
 4617SOL    HW218234   6.230   0.247   1.336  1.4994  2.6703  0.2644
 4617SOL    HW318235   6.186   0.329   1.455  0.6016 -0.6693  2.3746
 4617SOL    MW418236   6.184   0.255   1.410  0.6706  0.6703  0.0289
 4618SOL     OW18237   1.138   2.560   5.921 -0.0247 -0.3164 -0.0502
 4618SOL    HW218238   1.140   2.604   5.836  0.2973  0.9963  0.6136
 4618SOL    HW318239   1.092   2.621   5.979  0.9976 -0.5467  1.0465
 4618SOL    MW418240   1.132   2.574   5.917  0.1527 -0.1736  0.1821
 4619SOL     OW18241   5.831   3.337   4.520  0.4246  0.0935 -0.1955
 4619SOL    HW218242   5.763   3.405   4.518  0.7338  0.5163  1.9739
 4619SOL    HW318243   5.783   3.256   4.500 -0.2025  0.7243 -1.3924
 4619SOL    MW418244   5.815   3.335   4.517  0.3826  0.2325 -0.0672
 4620SOL     OW18245   6.237   0.198   2.295  0.1851 -0.4357  0.1239
 4620SOL    HW218246   6.175   0.127   2.277  0.5535 -1.0678  1.1934
 4620SOL    HW318247   6.183   0.276   2.304 -0.4772 -0.9898  1.1092
 4620SOL    MW418248   6.222   0.199   2.294  0.1463 -0.5922  0.3950
 4621SOL     OW18249   0.949   5.302   0.781 -0.5611  0.4514  0.4152
 4621SOL    HW218250   1.033   5.273   0.744 -1.3656 -2.6343  0.7006
 4621SOL    HW318251   0.900   5.333   0.705 -0.2832 -0.7973 -0.3095
 4621SOL    MW418252   0.954   5.302   0.766 -0.6306 -0.1205  0.3573
 4622SOL     OW18253   5.118   1.473   3.689  0.5181  0.4222 -0.2556
 4622SOL    HW218254   5.189   1.504   3.633 -0.6684  1.4489 -1.2541
 4622SOL    HW318255   5.052   1.542   3.684 -0.6378 -0.5898  0.4930
 4622SOL    MW418256   5.119   1.486   3.681  0.2090  0.4242 -0.2886
 4623SOL     OW18257   6.168   0.521   3.439  0.0045 -0.1196  0.1782
 4623SOL    HW218258   6.190   0.455   3.505 -1.2879 -1.1739 -0.3870
 4623SOL    HW318259   6.170   0.604   3.486  0.5106 -0.6900  1.2006
 4623SOL    MW418260   6.171   0.523   3.454 -0.0992 -0.3339  0.2385
 4624SOL     OW18261   3.737   4.725   2.541  0.4959 -0.5962 -0.0871
 4624SOL    HW218262   3.752   4.790   2.473 -1.3567  0.9030  0.8412
 4624SOL    HW318263   3.652   4.748   2.578  0.1853 -3.0241  0.9056
 4624SOL    MW418264   3.728   4.737   2.537  0.2105 -0.7187  0.1663
 4625SOL     OW18265   5.508   4.976   2.727 -0.3923  0.4165  0.1285
 4625SOL    HW218266   5.489   4.924   2.649 -0.2072  0.6275 -0.0598
 4625SOL    HW318267   5.580   5.033   2.700 -1.3012  1.5271 -0.0049
 4625SOL    MW418268   5.515   4.977   2.713 -0.4878  0.5908  0.0861
 4626SOL     OW18269   0.308   2.239   0.223 -0.3506  0.1282 -0.3110
 4626SOL    HW218270   0.325   2.309   0.160 -3.5646  0.8740 -0.5361
 4626SOL    HW318271   0.244   2.276   0.284 -0.2948 -1.8407  1.0306
 4626SOL    MW418272   0.301   2.253   0.223 -0.7673 -0.0331 -0.1637
 4627SOL     OW18273   3.246   0.517   0.514  0.3668  0.3410 -0.0999
 4627SOL    HW218274   3.231   0.427   0.544  0.2525 -0.2254 -1.7271
 4627SOL    HW318275   3.270   0.565   0.593 -0.8274 -0.8215  1.0303
 4627SOL    MW418276   3.247   0.511   0.528  0.1942  0.1129 -0.1655
 4628SOL     OW18277   1.878   0.101   5.997  0.5672  0.0493  0.0401
 4628SOL    HW218278   1.934   0.024   6.003  0.7157  0.1499 -0.0718
 4628SOL    HW318279   1.878   0.138   6.085 -1.3738 -1.3976  0.7288
 4628SOL    MW418280   1.885   0.096   6.009  0.3307 -0.1283  0.1162
 4629SOL     OW18281   4.336   4.623   2.049  0.5432  0.6315  0.2279
 4629SOL    HW218282   4.302   4.534   2.046  1.4438  0.2594  0.6316
 4629SOL    HW318283   4.269   4.676   2.006  0.1394 -0.2830 -0.2903
 4629SOL    MW418284   4.323   4.618   2.043  0.6087  0.4617  0.2128
 4630SOL     OW18285   5.577   2.331   1.995 -0.1754 -0.3802 -0.3556
 4630SOL    HW218286   5.621   2.407   2.032  3.9842 -0.6244 -3.9544
 4630SOL    HW318287   5.508   2.369   1.939 -0.2702  0.5049  0.3372
 4630SOL    MW418288   5.574   2.346   1.992  0.3609 -0.2956 -0.7390
 4631SOL     OW18289   3.003   2.935   0.728  0.3495  0.1720 -0.1544
 4631SOL    HW218290   3.004   3.022   0.687  0.9113  0.7369  1.0174
 4631SOL    HW318291   2.911   2.919   0.748  0.2638  0.5762 -0.2127
 4631SOL    MW418292   2.991   2.944   0.725  0.4123  0.2999 -0.0075
 4632SOL     OW18293   3.951   2.121   0.311  0.2705  0.5301  0.2617
 4632SOL    HW218294   3.984   2.162   0.231  1.5600  0.0328  0.5025
 4632SOL    HW318295   4.030   2.103   0.363 -0.4173 -0.4141  1.0280
 4632SOL    MW418296   3.966   2.124   0.307  0.3499  0.3399  0.3945
 4633SOL     OW18297   1.914   2.040   1.796  0.0112 -0.4392 -0.5983
 4633SOL    HW218298   1.859   1.986   1.739 -1.8675  1.7259 -0.9810
 4633SOL    HW318299   1.928   2.120   1.745 -0.4571  0.9544  1.3783
 4633SOL    MW418300   1.909   2.043   1.781 -0.2985  0.0303 -0.3880
 4634SOL     OW18301   5.021   4.455   1.597 -0.6493 -0.3610 -0.7526
 4634SOL    HW218302   5.074   4.524   1.637  0.1057 -1.1182 -0.4123
 4634SOL    HW318303   5.078   4.378   1.597 -1.5225 -1.0211 -0.9969
 4634SOL    MW418304   5.036   4.454   1.602 -0.6649 -0.5480 -0.7399
 4635SOL     OW18305   0.780   0.105   0.160  0.5380 -0.2770  0.1255
 4635SOL    HW218306   0.792   0.198   0.143  1.2023 -0.3035  0.4453
 4635SOL    HW318307   0.740   0.071   0.080  0.6388  0.2072 -0.1335
 4635SOL    MW418308   0.776   0.113   0.147  0.6389 -0.2166  0.1335
 4636SOL     OW18309   5.835   4.008   4.999 -0.5916 -0.5438 -0.4360
 4636SOL    HW218310   5.855   4.047   5.085  1.6977  1.4329 -1.7257
 4636SOL    HW318311   5.850   3.915   5.011  2.0020 -0.0710  0.8540
 4636SOL    MW418312   5.840   4.001   5.012  0.0526 -0.2206 -0.4360
 4637SOL     OW18313   0.451   5.634   1.837  0.0728 -0.5876 -0.4771
 4637SOL    HW218314   0.507   5.712   1.839  2.1636 -2.0299  0.6008
 4637SOL    HW318315   0.362   5.669   1.833  0.9227  1.8588  0.1320
 4637SOL    MW418316   0.447   5.649   1.837  0.4608 -0.4551 -0.2545
 4638SOL     OW18317   3.830   5.356   0.181 -0.1529 -0.0397 -0.4324
 4638SOL    HW218318   3.795   5.338   0.094  1.7892  2.4503 -1.8865
 4638SOL    HW318319   3.785   5.436   0.209  1.1178  0.6939 -0.4005
 4638SOL    MW418320   3.820   5.364   0.173  0.2710  0.3856 -0.6200
 4639SOL     OW18321   3.695   3.405   5.239 -0.7014 -0.3239 -0.0878
 4639SOL    HW218322   3.638   3.365   5.305  0.4341 -0.9131  0.5721
 4639SOL    HW318323   3.773   3.431   5.288 -1.4733  3.0440 -0.3961
 4639SOL    MW418324   3.698   3.403   5.254 -0.6535  0.0427 -0.0414
 4640SOL     OW18325   0.801   4.415   4.648  0.1619  0.0470  0.2327
 4640SOL    HW218326   0.773   4.505   4.667  0.2400  0.5225 -1.7196
 4640SOL    HW318327   0.857   4.391   4.722 -0.5782  1.2691  1.2230
 4640SOL    MW418328   0.805   4.424   4.660  0.0746  0.2710  0.1058
 4641SOL     OW18329   5.954   5.117   5.551  0.3717 -0.0599  0.5197
 4641SOL    HW218330   5.909   5.032   5.555 -2.2586  1.1518 -0.4350
 4641SOL    HW318331   5.930   5.161   5.633  0.0480  0.4717  0.1518
 4641SOL    MW418332   5.945   5.112   5.562 -0.0180  0.1701  0.3452
 4642SOL     OW18333   1.884   4.298   0.860  0.2675  0.5861  0.2546
 4642SOL    HW218334   1.791   4.307   0.877  0.2770  1.9489 -0.2296
 4642SOL    HW318335   1.923   4.278   0.945 -0.5425 -0.8793  0.3006
 4642SOL    MW418336   1.877   4.297   0.873  0.1619  0.5726  0.1968
 4643SOL     OW18337   4.071   1.754   5.083  0.1831  0.1019 -0.3737
 4643SOL    HW218338   4.078   1.659   5.073  0.0809 -0.1071  1.2506
 4643SOL    HW318339   4.129   1.774   5.156 -1.3518  0.9819  0.6528
 4643SOL    MW418340   4.079   1.744   5.091 -0.0329  0.1904 -0.0240
 4644SOL     OW18341   1.304   3.894   3.422 -0.4916 -0.9969  0.0587
 4644SOL    HW218342   1.399   3.886   3.433 -0.3246  0.7611  0.2141
 4644SOL    HW318343   1.289   3.875   3.330  0.4257  1.3377 -0.6614
 4644SOL    MW418344   1.314   3.891   3.412 -0.3485 -0.4569 -0.0158
 4645SOL     OW18345   1.631   5.008   2.582  0.0068  0.8618 -1.0048
 4645SOL    HW218346   1.688   5.026   2.657 -1.9156  1.5373  0.3585
 4645SOL    HW318347   1.633   4.913   2.574 -0.0141  0.7452  0.1318
 4645SOL    MW418348   1.639   4.998   2.591 -0.2496  0.9355 -0.6749
 4646SOL     OW18349   2.070   5.336   1.085 -0.0765 -0.0447 -0.2501
 4646SOL    HW218350   2.149   5.357   1.136  1.3622  1.6458 -2.9428
 4646SOL    HW318351   2.076   5.241   1.072 -0.0581 -0.3907  1.9464
 4646SOL    MW418352   2.081   5.326   1.090  0.1158  0.1327 -0.3156
 4647SOL     OW18353   5.163   3.701   4.918 -0.1934 -0.5094 -0.0127
 4647SOL    HW218354   5.080   3.691   4.870 -1.1743 -0.1530  1.5580
 4647SOL    HW318355   5.227   3.657   4.862 -1.6426 -1.8794 -0.6985
 4647SOL    MW418356   5.160   3.694   4.904 -0.5140 -0.6431  0.1041
 4648SOL     OW18357   2.770   6.139   2.555 -0.4932  0.2235 -0.0739
 4648SOL    HW218358   2.746   6.175   2.640  1.0646  0.6077  0.2446
 4648SOL    HW318359   2.818   6.209   2.511  0.8848 -0.7699 -0.2382
 4648SOL    MW418360   2.773   6.153   2.560 -0.1058  0.1431 -0.0535
 4649SOL     OW18361   0.996   3.506   2.233  0.5483  1.0935 -0.4405
 4649SOL    HW218362   1.036   3.455   2.303  1.6053  1.7940 -0.5070
 4649SOL    HW318363   1.066   3.564   2.202 -0.2790  1.7439 -1.1639
 4649SOL    MW418364   1.010   3.507   2.238  0.5786  1.2717 -0.5448
 4650SOL     OW18365   4.907   4.859   4.116 -0.2132 -1.0309  0.1609
 4650SOL    HW218366   4.883   4.840   4.025  0.4119  0.9832 -0.4972
 4650SOL    HW318367   4.863   4.792   4.167  0.1817 -2.8025 -1.6893
 4650SOL    MW418368   4.898   4.848   4.110 -0.0786 -0.9989 -0.1700
 4651SOL     OW18369   3.119   0.011   2.979 -0.0101  0.1131 -0.2600
 4651SOL    HW218370   3.115   0.092   3.030  0.1868  0.5714 -0.9665
 4651SOL    HW318371   3.055  -0.046   3.021 -0.7197  0.9090 -0.2299
 4651SOL    MW418372   3.110   0.014   2.991 -0.0777  0.2786 -0.3492
 4652SOL     OW18373   4.796   2.651   1.280  0.0254  0.1328  0.1869
 4652SOL    HW218374   4.729   2.688   1.338  0.5855 -1.0675  1.6735
 4652SOL    HW318375   4.798   2.557   1.303  1.4036 -0.0621 -0.6316
 4652SOL    MW418376   4.787   2.643   1.291  0.2811 -0.0513  0.2750
 4653SOL     OW18377   5.904   0.116   2.831  0.2837 -0.0460  0.1072
 4653SOL    HW218378   5.928   0.164   2.752  0.3066 -0.2026  0.0178
 4653SOL    HW318379   5.970   0.142   2.896  0.2093  0.1546  0.1028
 4653SOL    MW418380   5.916   0.126   2.829  0.2769 -0.0402  0.0948
 4654SOL     OW18381   1.391   0.769   2.341 -0.0146  0.1088  0.3230
 4654SOL    HW218382   1.378   0.807   2.254 -1.1788 -2.2121 -0.5752
 4654SOL    HW318383   1.484   0.743   2.342 -0.0349  0.0063 -0.2807
 4654SOL    MW418384   1.402   0.771   2.330 -0.1709 -0.2109  0.1249
 4655SOL     OW18385   5.208   3.662   6.298  0.2271 -0.3186  0.1261
 4655SOL    HW218386   5.190   3.575   6.332 -0.8098 -0.1119  0.1322
 4655SOL    HW318387   5.167   3.722   6.361 -0.3723  0.1182 -0.6687
 4655SOL    MW418388   5.201   3.658   6.311  0.0112 -0.2337  0.0220
 4656SOL     OW18389   4.953   0.439   0.315  0.3655 -0.0935 -0.4549
 4656SOL    HW218390   4.862   0.413   0.330 -0.1270  1.4045 -0.6430
 4656SOL    HW318391   4.973   0.407   0.228 -0.3286  0.4169 -0.8122
 4656SOL    MW418392   4.944   0.431   0.306  0.2089  0.1715 -0.5268
 4657SOL     OW18393   2.841   4.999   5.146 -0.4733  0.9265 -0.4525
 4657SOL    HW218394   2.920   4.952   5.171 -0.0464  0.6772 -2.1947
 4657SOL    HW318395   2.831   5.066   5.214 -0.8606 -1.3186  1.8430
 4657SOL    MW418396   2.850   5.002   5.158 -0.4681  0.5974 -0.3795
 4658SOL     OW18397   2.031   0.678   0.113  0.1358 -0.4611  0.4035
 4658SOL    HW218398   2.049   0.757   0.061 -1.5149 -1.4207 -1.7850
 4658SOL    HW318399   2.118   0.640   0.128  0.8024  0.7336 -0.2277
 4658SOL    MW418400   2.045   0.684   0.108  0.0060 -0.4301  0.0315
 4659SOL     OW18401   3.860   2.187   4.642 -0.2147 -0.0406  0.1384
 4659SOL    HW218402   3.900   2.168   4.727 -2.5970  1.2314  1.6396
 4659SOL    HW318403   3.886   2.113   4.586  0.7300 -1.3286  2.1851
 4659SOL    MW418404   3.869   2.175   4.645 -0.4044 -0.0427  0.6065
 4660SOL     OW18405   3.466   3.114   2.684  0.2192  0.3232  0.2147
 4660SOL    HW218406   3.476   3.060   2.762  0.2724  1.2310  0.8576
 4660SOL    HW318407   3.424   3.057   2.620  1.6803 -0.9477  0.3488
 4660SOL    MW418408   3.462   3.100   2.686  0.4190  0.2753  0.3172
 4661SOL     OW18409   2.836   2.763   4.012 -0.4655  0.3317  0.0044
 4661SOL    HW218410   2.787   2.681   4.014  0.0201  0.0325  1.6954
 4661SOL    HW318411   2.770   2.830   3.996 -1.0611 -0.2854 -0.1767
 4661SOL    MW418412   2.821   2.761   4.010 -0.4800  0.2108  0.2036
 4662SOL     OW18413   4.318   4.686   5.817  0.0539 -0.3879 -0.1061
 4662SOL    HW218414   4.326   4.716   5.727 -2.2266  0.0634 -0.2301
 4662SOL    HW318415   4.391   4.726   5.863 -1.5885  3.8374 -0.6889
 4662SOL    MW418416   4.329   4.695   5.811 -0.4636  0.2291 -0.1993
 4663SOL     OW18417   0.305   5.246   2.187 -0.0203 -0.3348  0.5096
 4663SOL    HW218418   0.297   5.313   2.118  0.8846  1.1328  1.7565
 4663SOL    HW318419   0.397   5.223   2.187 -0.1007 -0.6567  0.9353
 4663SOL    MW418420   0.316   5.252   2.178  0.0885 -0.1837  0.7303
 4664SOL     OW18421   0.049   6.037   5.578  0.2138  0.2783  0.0191
 4664SOL    HW218422   0.048   6.058   5.485  0.5940  2.0461  0.3857
 4664SOL    HW318423   0.094   5.953   5.583 -1.0395 -0.5499 -1.4936
 4664SOL    MW418424   0.055   6.029   5.566  0.0986  0.4023 -0.1321
 4665SOL     OW18425   2.605   5.334   3.457  0.2142 -0.2032 -0.2508
 4665SOL    HW218426   2.569   5.344   3.368 -0.6721  0.9818  0.2051
 4665SOL    HW318427   2.535   5.291   3.506  0.6724 -0.7883 -0.1049
 4665SOL    MW418428   2.591   5.330   3.451  0.1577 -0.1241 -0.1714
 4666SOL     OW18429   2.817   2.593   6.018 -0.3781 -0.3379 -0.3679
 4666SOL    HW218430   2.810   2.541   6.098  2.2324  0.6406  0.5965
 4666SOL    HW318431   2.726   2.620   6.000 -0.9110  1.7019  3.9211
 4666SOL    MW418432   2.804   2.590   6.027 -0.1040  0.0603  0.3252
 4667SOL     OW18433   1.070   4.477   1.656 -0.1237  0.0472  0.2492
 4667SOL    HW218434   1.114   4.430   1.727 -1.3014 -0.1583  0.8870
 4667SOL    HW318435   1.071   4.416   1.582  0.3501 -0.0818  0.3600
 4667SOL    MW418436   1.076   4.463   1.656 -0.2166  0.0031  0.3479
 4668SOL     OW18437   5.591   3.579   3.002  0.1619 -0.2474 -0.3304
 4668SOL    HW218438   5.626   3.492   3.022  1.5798  0.2465 -0.5531
 4668SOL    HW318439   5.600   3.628   3.084 -0.5990 -0.2798 -0.2175
 4668SOL    MW418440   5.596   3.574   3.015  0.2486 -0.1865 -0.3449
 4669SOL     OW18441   4.691   2.134   1.449 -0.6332  0.3320  0.0847
 4669SOL    HW218442   4.638   2.068   1.404 -0.5022 -0.5099  1.1221
 4669SOL    HW318443   4.735   2.085   1.519 -0.6277  1.5479  0.9446
 4669SOL    MW418444   4.690   2.119   1.452 -0.6152  0.3814  0.3350
 4670SOL     OW18445   6.371   2.387   2.362 -0.7312  0.3758 -0.1424
 4670SOL    HW218446   6.342   2.457   2.421  0.0876 -0.7307  1.6754
 4670SOL    HW318447   6.297   2.327   2.357 -0.3654 -0.1990  0.8997
 4670SOL    MW418448   6.358   2.389   2.369 -0.5749  0.1540  0.2349
 4671SOL     OW18449   6.371   4.263   3.337  0.3327  0.5152 -0.2295
 4671SOL    HW218450   6.285   4.248   3.377  0.8924 -2.0163  0.1862
 4671SOL    HW318451   6.379   4.194   3.272  1.4287  1.7186 -1.4320
 4671SOL    MW418452   6.361   4.252   3.334  0.5512  0.3400 -0.3333
 4672SOL     OW18453   0.180   4.632   3.125 -0.0447  0.1715 -0.2014
 4672SOL    HW218454   0.257   4.577   3.115  0.4836  0.8541  0.0611
 4672SOL    HW318455   0.131   4.592   3.197 -0.1044 -0.4503 -0.5840
 4672SOL    MW418456   0.184   4.620   3.133  0.0171  0.1796 -0.2172
 4673SOL     OW18457   1.872   0.932   5.840  0.0442  0.0398 -0.6364
 4673SOL    HW218458   1.843   0.874   5.769  1.4230 -0.5421 -0.7606
 4673SOL    HW318459   1.795   0.982   5.863 -1.0814 -1.5114 -0.8703
 4673SOL    MW418460   1.858   0.931   5.834  0.0776 -0.2417 -0.6836
 4674SOL     OW18461   1.572   4.471   2.403 -0.3899  0.4006 -0.2857
 4674SOL    HW218462   1.557   4.405   2.470 -0.4094  0.5707 -0.1240
 4674SOL    HW318463   1.602   4.421   2.327 -0.6010  0.1843 -0.2268
 4674SOL    MW418464   1.574   4.456   2.401 -0.4203  0.3945 -0.2566
 4675SOL     OW18465   0.194   2.564   2.709  0.1787 -0.3113  0.4496
 4675SOL    HW218466   0.146   2.647   2.709 -0.2252 -0.5432  0.3096
 4675SOL    HW318467   0.275   2.583   2.662  0.0066 -0.0439  0.2609
 4675SOL    MW418468   0.199   2.578   2.703  0.1027 -0.3066  0.4063
 4676SOL     OW18469   5.659   4.265   2.608  0.0978 -0.2102  0.0284
 4676SOL    HW218470   5.734   4.312   2.572 -0.9596  0.9042 -0.7626
 4676SOL    HW318471   5.662   4.179   2.566 -0.3695  0.6168 -1.7640
 4676SOL    MW418472   5.669   4.260   2.598 -0.1034  0.0459 -0.3125
 4677SOL     OW18473   4.000   4.751   6.362 -0.7659  0.2863  0.1316
 4677SOL    HW218474   4.055   4.820   6.327  0.1596 -0.1937  0.6214
 4677SOL    HW318475   3.957   4.791   6.438 -0.6211  0.4766  0.1146
 4677SOL    MW418476   4.001   4.765   6.367 -0.6247  0.2481  0.1940
 4678SOL     OW18477   0.008   3.835   3.128 -0.5644  0.3788 -0.4701
 4678SOL    HW218478   0.077   3.895   3.158 -0.7703  0.8261 -0.8694
 4678SOL    HW318479  -0.019   3.871   3.043 -1.4939  0.3759 -0.1851
 4678SOL    MW418480   0.014   3.848   3.121 -0.7142  0.4374 -0.4852
 4679SOL     OW18481   3.037   6.198   2.766 -0.0540 -0.5131  0.4203
 4679SOL    HW218482   2.979   6.271   2.789  0.3308 -0.3671  0.9496
 4679SOL    HW318483   2.993   6.120   2.800  0.3168 -0.3421  1.3037
 4679SOL    MW418484   3.024   6.197   2.773  0.0457 -0.4713  0.6067
 4680SOL     OW18485   0.214   5.799   5.551  0.2972  0.3572  0.0686
 4680SOL    HW218486   0.144   5.747   5.509 -0.1401  0.1608  1.0155
 4680SOL    HW318487   0.286   5.796   5.488 -0.3217  0.0337 -0.6530
 4680SOL    MW418488   0.214   5.791   5.537  0.1579  0.2886  0.0983
 4681SOL     OW18489   0.467   5.293   4.686  0.0731  0.5288 -0.1443
 4681SOL    HW218490   0.435   5.206   4.663 -1.2305  0.8925  0.2250
 4681SOL    HW318491   0.479   5.337   4.602  1.7850 -0.3272 -0.3984
 4681SOL    MW418492   0.465   5.287   4.672  0.1269  0.4638 -0.1291
 4682SOL     OW18493   0.223   6.249   4.739 -0.1174  0.1723 -0.3565
 4682SOL    HW218494   0.164   6.178   4.713 -0.1116  0.5722 -1.5265
 4682SOL    HW318495   0.220   6.311   4.666 -0.0185  1.3239  0.5912
 4682SOL    MW418496   0.215   6.247   4.726 -0.1036  0.3770 -0.3859
 4683SOL     OW18497   1.825   1.995   3.717 -0.3620 -0.7983 -0.0672
 4683SOL    HW218498   1.892   1.996   3.785  0.7277 -1.7751 -1.0672
 4683SOL    HW318499   1.749   1.953   3.757 -0.5458  0.6700  1.2043
 4683SOL    MW418500   1.824   1.990   3.731 -0.2425 -0.7335 -0.0314
 4684SOL     OW18501   5.247   4.013   0.055 -0.6167 -0.2851 -0.0497
 4684SOL    HW218502   5.217   4.088   0.106 -1.0242 -1.1363  1.0094
 4684SOL    HW318503   5.320   3.977   0.105  1.0693  0.6696 -1.6709
 4684SOL    MW418504   5.252   4.018   0.068 -0.4480 -0.2714 -0.1238
 4685SOL     OW18505   0.964   4.340   2.496 -0.0246 -0.2176 -0.6427
 4685SOL    HW218506   0.890   4.346   2.556 -0.2733  0.1923 -0.9887
 4685SOL    HW318507   0.969   4.247   2.473 -0.5368 -0.2204 -0.7514
 4685SOL    MW418508   0.955   4.328   2.501 -0.1250 -0.1639 -0.7027
 4686SOL     OW18509   0.861   1.275   4.466 -0.4786  0.5318 -0.8399
 4686SOL    HW218510   0.866   1.354   4.411 -1.7804  1.4641  0.2966
 4686SOL    HW318511   0.797   1.298   4.534  0.6170 -0.7944  0.7075
 4686SOL    MW418512   0.853   1.289   4.468 -0.5058  0.4798 -0.4858
 4687SOL     OW18513   2.517   5.061   0.480 -0.2585  0.3687 -0.2452
 4687SOL    HW218514   2.491   5.145   0.518 -2.4407  0.9249 -2.7367
 4687SOL    HW318515   2.574   5.085   0.407 -2.1729 -0.1378 -1.9722
 4687SOL    MW418516   2.521   5.076   0.476 -0.7990  0.3753 -0.8018
 4688SOL     OW18517   6.266   5.330   4.564  0.5066 -0.2513  0.2125
 4688SOL    HW218518   6.261   5.287   4.478  0.8241 -0.8194  0.4752
 4688SOL    HW318519   6.350   5.302   4.600  1.0255  1.1090  0.1271
 4688SOL    MW418520   6.276   5.321   4.557  0.6169 -0.1468  0.2359
 4689SOL     OW18521   4.423   5.451   0.050  0.3827 -0.2105  0.2612
 4689SOL    HW218522   4.478   5.377   0.076  1.0194  0.3005  0.4053
 4689SOL    HW318523   4.414   5.503   0.130 -1.1259 -0.7886  0.4824
 4689SOL    MW418524   4.429   5.448   0.064  0.2676 -0.2194  0.3094
 4690SOL     OW18525   4.943   3.141   1.659 -0.0288  0.2559  0.4632
 4690SOL    HW218526   4.924   3.118   1.750 -0.2516  1.0338  0.6151
 4690SOL    HW318527   4.963   3.057   1.617  0.9935  0.0012  1.4396
 4690SOL    MW418528   4.943   3.127   1.665  0.0767  0.3249  0.6121
 4691SOL     OW18529   3.017   2.736   2.882  0.7384 -0.7029  0.4905
 4691SOL    HW218530   2.947   2.678   2.912  0.0099  0.2499  0.6886
 4691SOL    HW318531   3.037   2.706   2.794 -1.0581 -0.0316 -0.2025
 4691SOL    MW418532   3.010   2.725   2.874  0.4053 -0.4886  0.4252
 4692SOL     OW18533   1.252   5.677   5.521 -0.0922 -0.1049  0.3452
 4692SOL    HW218534   1.164   5.662   5.557  0.4412  1.0821  2.2629
 4692SOL    HW318535   1.309   5.619   5.571  0.5335  0.8039  0.6875
 4692SOL    MW418536   1.248   5.667   5.532  0.0607  0.1716  0.6433
 4693SOL     OW18537   5.919   5.502   6.355  0.4767 -0.1900 -0.5392
 4693SOL    HW218538   5.827   5.477   6.364  0.1001  0.8786 -1.2498
 4693SOL    HW318539   5.959   5.429   6.308  0.3808 -1.4312  1.2322
 4693SOL    MW418540   5.912   5.489   6.350  0.4144 -0.2128 -0.3993
 4694SOL     OW18541   4.887   6.029   0.709 -0.1362  0.0462  0.0375
 4694SOL    HW218542   4.797   6.046   0.679 -0.0595 -2.8201 -2.1871
 4694SOL    HW318543   4.942   6.056   0.636  0.9081  1.7874  1.3959
 4694SOL    MW418544   4.882   6.035   0.696  0.0117 -0.1022 -0.0768
 4695SOL     OW18545   1.413   3.144   5.328  0.3198  0.0156  0.0461
 4695SOL    HW218546   1.415   3.125   5.234 -0.9307 -1.0357  0.2125
 4695SOL    HW318547   1.370   3.230   5.333  2.3960  1.1557 -0.4453
 4695SOL    MW418548   1.408   3.153   5.316  0.4288  0.0273  0.0032
 4696SOL     OW18549   5.642   4.489   3.081 -0.2714  0.5198  0.1145
 4696SOL    HW218550   5.737   4.482   3.089 -0.3232 -1.7228 -0.6144
 4696SOL    HW318551   5.625   4.584   3.078  1.9054  0.9618  0.3269
 4696SOL    MW418552   5.652   4.501   3.082  0.0090  0.2822  0.0464
 4697SOL     OW18553   3.793   1.710   0.682  0.9366  0.1400 -0.3483
 4697SOL    HW218554   3.823   1.693   0.593  0.0625  1.3635 -0.9036
 4697SOL    HW318555   3.806   1.804   0.695  2.3504 -0.2408  1.3345
 4697SOL    MW418556   3.799   1.720   0.672  1.0078  0.2512 -0.1995
 4698SOL     OW18557   3.531   5.296   5.219 -0.1305  0.6228  0.1417
 4698SOL    HW218558   3.535   5.334   5.307  1.1289  1.5300 -0.2809
 4698SOL    HW318559   3.596   5.346   5.168  0.9117 -1.4722 -0.6986
 4698SOL    MW418560   3.540   5.308   5.224  0.1732  0.4661 -0.0249
 4699SOL     OW18561   0.518   6.225   3.257 -0.1278 -0.2540 -0.1145
 4699SOL    HW218562   0.584   6.169   3.298 -0.3055  0.0954  0.6767
 4699SOL    HW318563   0.550   6.239   3.168  0.9544  0.0291  0.2979
 4699SOL    MW418564   0.531   6.219   3.250 -0.0084 -0.1705  0.0443
 4700SOL     OW18565   3.380   1.078   4.794  0.0883 -0.0747  0.5363
 4700SOL    HW218566   3.419   0.995   4.822  1.2437 -0.0971 -1.0045
 4700SOL    HW318567   3.376   1.072   4.699 -1.3602  0.9915  0.4915
 4700SOL    MW418568   3.385   1.067   4.785  0.0496  0.0631  0.3271
 4701SOL     OW18569   4.822   1.005   4.114 -0.5692 -0.3628 -0.1017
 4701SOL    HW218570   4.784   0.929   4.070 -0.6191 -0.8211  0.7244
 4701SOL    HW318571   4.766   1.078   4.087 -0.4824 -0.5975 -0.9514
 4701SOL    MW418572   4.809   1.005   4.104 -0.5644 -0.4542 -0.1048
 4702SOL     OW18573   1.004   1.115   1.422  0.0292 -0.1855  0.1266
 4702SOL    HW218574   0.961   1.030   1.427 -0.3323  0.0509  1.2331
 4702SOL    HW318575   0.960   1.160   1.350 -1.8927  0.1837  1.4545
 4702SOL    MW418576   0.993   1.110   1.413 -0.2721 -0.1056  0.4478
 4703SOL     OW18577   5.401   1.027   5.978  0.0138 -0.7558  0.3220
 4703SOL    HW218578   5.403   1.097   5.913  4.6038  0.0944  1.0046
 4703SOL    HW318579   5.425   0.948   5.930 -1.0446 -1.0547  0.2657
 4703SOL    MW418580   5.404   1.025   5.963  0.4797 -0.6831  0.4046
 4704SOL     OW18581   5.718   0.554   2.104  0.1411  0.2905 -0.2213
 4704SOL    HW218582   5.776   0.599   2.165  0.6941  0.7665 -1.0823
 4704SOL    HW318583   5.681   0.623   2.050  1.6854 -0.3035 -2.1478
 4704SOL    MW418584   5.720   0.569   2.105  0.4178  0.2749 -0.5891
 4705SOL     OW18585   2.272   3.246   1.250 -0.2410 -0.2636 -0.3460
 4705SOL    HW218586   2.329   3.317   1.221 -0.6355  0.0838 -0.2771
 4705SOL    HW318587   2.219   3.284   1.320 -0.8874 -0.4427 -0.7233
 4705SOL    MW418588   2.272   3.260   1.255 -0.3783 -0.2414 -0.3867
 4706SOL     OW18589   1.516   3.973   3.766  0.5712  0.0787  0.1254
 4706SOL    HW218590   1.445   4.003   3.710  0.2724  0.9990  0.9694
 4706SOL    HW318591   1.492   3.883   3.789  0.3539 -0.0671 -0.6332
 4706SOL    MW418592   1.504   3.965   3.762  0.5031  0.1809  0.1367
 4707SOL     OW18593   4.335   4.324   3.599 -0.3911  0.2372 -0.2788
 4707SOL    HW218594   4.312   4.398   3.654 -0.7839  0.1784 -0.3568
 4707SOL    HW318595   4.308   4.247   3.650 -1.1160  0.1955 -0.7090
 4707SOL    MW418596   4.328   4.323   3.613 -0.5386  0.2239 -0.3458
 4708SOL     OW18597   4.928   5.512   4.913 -0.0999 -0.4328 -0.4395
 4708SOL    HW218598   4.852   5.543   4.963 -0.0269 -0.6557 -0.1882
 4708SOL    HW318599   4.913   5.419   4.901 -0.1526 -0.3667 -0.9041
 4708SOL    MW418600   4.916   5.504   4.918 -0.0972 -0.4535 -0.4676
 4709SOL     OW18601   1.604   4.133   0.698 -0.3160  0.0781  0.0717
 4709SOL    HW218602   1.634   4.195   0.631 -0.7564  1.1951  0.8776
 4709SOL    HW318603   1.544   4.075   0.651  0.2166  0.1608 -0.7315
 4709SOL    MW418604   1.600   4.133   0.683 -0.3038  0.2364  0.0720
 4710SOL     OW18605   0.186   4.148   5.589 -0.3794  0.1700 -0.6042
 4710SOL    HW218606   0.092   4.164   5.579 -0.8024  1.6805  3.8773
 4710SOL    HW318607   0.227   4.228   5.556 -1.0653  1.4453  1.4566
 4710SOL    MW418608   0.179   4.161   5.583 -0.5257  0.5375  0.2590
 4711SOL     OW18609   2.040   4.568   4.250 -0.1676 -0.2253  0.0636
 4711SOL    HW218610   2.134   4.583   4.245 -0.3820  1.8391  1.2391
 4711SOL    HW318611   2.001   4.654   4.235 -1.8487 -0.9197  0.2444
 4711SOL    MW418612   2.047   4.581   4.247 -0.4177 -0.0445  0.2426
 4712SOL     OW18613   1.437   1.148   2.175  0.0775  0.0195  0.6588
 4712SOL    HW218614   1.459   1.230   2.132  0.6782 -0.3070  0.3292
 4712SOL    HW318615   1.365   1.170   2.234 -2.5410  0.0186 -2.2806
 4712SOL    MW418616   1.431   1.161   2.177 -0.1888 -0.0237  0.2275
 4713SOL     OW18617   5.670   0.373   0.799 -0.3611  0.0174 -0.1144
 4713SOL    HW218618   5.645   0.289   0.762 -0.3175  0.1209 -0.3807
 4713SOL    HW318619   5.595   0.430   0.784 -0.3663  0.0428  0.0078
 4713SOL    MW418620   5.657   0.370   0.792 -0.3561  0.0344 -0.1334
 4714SOL     OW18621   3.839   0.906   1.481 -0.2599  0.1453  0.0795
 4714SOL    HW218622   3.869   0.815   1.487 -2.0167 -0.5532 -0.7244
 4714SOL    HW318623   3.898   0.947   1.419  0.5647 -0.4519  0.4530
 4714SOL    MW418624   3.850   0.899   1.473 -0.3829 -0.0257  0.0227
 4715SOL     OW18625   3.385   5.172   0.758  0.1737 -0.6981 -0.0496
 4715SOL    HW218626   3.456   5.217   0.712  0.3351 -0.8642  0.0364
 4715SOL    HW318627   3.331   5.243   0.792 -0.2021 -0.5744 -0.8825
 4715SOL    MW418628   3.388   5.187   0.756  0.1454 -0.7037 -0.1481
 4716SOL     OW18629   5.009   0.568   2.048 -0.1871 -0.1696 -0.3345
 4716SOL    HW218630   4.930   0.561   2.102 -0.1703 -0.8892 -0.3950
 4716SOL    HW318631   4.977   0.604   1.965 -0.9814 -2.9541 -1.3704
 4716SOL    MW418632   4.994   0.571   2.044 -0.2897 -0.6319 -0.4792
 4717SOL     OW18633   0.261   6.171   0.533 -0.0249  0.7506  0.6529
 4717SOL    HW218634   0.356   6.172   0.523  0.0535  1.4271  1.4084
 4717SOL    HW318635   0.245   6.205   0.621 -0.9961  1.2543  0.2966
 4717SOL    MW418636   0.271   6.175   0.543 -0.1427  0.9063  0.7056
 4718SOL     OW18637   4.754   2.853   1.774  0.4468 -0.5697 -0.1247
 4718SOL    HW218638   4.712   2.914   1.714 -1.5573 -0.1017  1.6253
 4718SOL    HW318639   4.811   2.908   1.828 -1.3595 -0.1657  1.4528
 4718SOL    MW418640   4.756   2.868   1.773 -0.0559 -0.4547  0.3143
 4719SOL     OW18641   5.592   3.620   1.175 -0.3230 -0.0146  0.1911
 4719SOL    HW218642   5.644   3.624   1.095 -0.1852  0.8858  0.3180
 4719SOL    HW318643   5.632   3.549   1.226  0.3177  0.1723 -0.0378
 4719SOL    MW418644   5.604   3.611   1.171 -0.2203  0.1288  0.1776
 4720SOL     OW18645   4.267   4.900   4.836 -0.5135  0.5350 -0.2694
 4720SOL    HW218646   4.233   4.812   4.853  1.2776 -0.2792 -0.6651
 4720SOL    HW318647   4.308   4.893   4.750  3.3269  0.5171  1.3896
 4720SOL    MW418648   4.268   4.887   4.827  0.2295  0.4252 -0.1027
 4721SOL     OW18649   0.943   1.774   2.756  0.1154 -0.1975 -0.3750
 4721SOL    HW218650   0.890   1.695   2.771 -1.0990  0.8895  1.4921
 4721SOL    HW318651   1.028   1.754   2.796 -0.5932 -0.1427  1.2111
 4721SOL    MW418652   0.947   1.761   2.763 -0.1383 -0.0469  0.0806
 4722SOL     OW18653   1.249   5.141   1.629  0.3494 -0.1571  0.4862
 4722SOL    HW218654   1.187   5.131   1.701  1.2368 -0.6813  1.1906
 4722SOL    HW318655   1.257   5.236   1.618  1.6319  0.0172  2.3735
 4722SOL    MW418656   1.242   5.152   1.637  0.6357 -0.2033  0.8281
 4723SOL     OW18657   5.668   4.114   1.665  0.0047 -0.1496  0.0131
 4723SOL    HW218658   5.660   4.117   1.760 -0.5227  2.1384 -0.0587
 4723SOL    HW318659   5.592   4.065   1.635  0.4413 -1.3261  0.7677
 4723SOL    MW418660   5.657   4.108   1.674 -0.0073 -0.0029  0.1032
 4724SOL     OW18661   4.766   5.220   3.016 -0.3451  0.2834 -0.1729
 4724SOL    HW218662   4.767   5.311   2.987 -0.4862  0.2991 -0.1304
 4724SOL    HW318663   4.759   5.226   3.112  3.0796  0.2941  0.1994
 4724SOL    MW418664   4.765   5.233   3.025  0.0881  0.2869 -0.1182
 4725SOL     OW18665   2.806   3.947   2.270  0.4341 -0.4863  0.1830
 4725SOL    HW218666   2.859   3.873   2.241 -0.4876 -1.3207  0.5574
 4725SOL    HW318667   2.850   4.024   2.234  1.3523 -1.2179 -0.3064
 4725SOL    MW418668   2.819   3.947   2.262  0.4336 -0.6929  0.1678
 4726SOL     OW18669   6.022   1.638   2.343 -0.0263  0.0345 -0.2430
 4726SOL    HW218670   6.021   1.704   2.273  0.8527  0.2523 -0.0577
 4726SOL    HW318671   6.100   1.658   2.393 -1.3712  0.7658  1.6737
 4726SOL    MW418672   6.032   1.649   2.340 -0.0877  0.1597  0.0343
 4727SOL     OW18673   2.545   1.444   5.567  0.2401 -0.0715  0.4630
 4727SOL    HW218674   2.551   1.384   5.641  1.6444  0.2812  0.6767
 4727SOL    HW318675   2.630   1.435   5.523  0.4727  1.7271  0.4860
 4727SOL    MW418676   2.557   1.435   5.571  0.4560  0.2123  0.4943
 4728SOL     OW18677   5.116   4.191   1.600  0.1760  0.5843  0.4241
 4728SOL    HW218678   5.064   4.153   1.529 -0.2123  0.5257  0.7356
 4728SOL    HW318679   5.200   4.211   1.560 -0.6334  2.2880 -0.5504
 4728SOL    MW418680   5.120   4.189   1.585  0.0180  0.8014  0.3366
 4729SOL     OW18681   3.259   1.685   3.031 -0.2060 -0.5375 -0.1672
 4729SOL    HW218682   3.311   1.765   3.040  0.9971 -1.1213 -1.4973
 4729SOL    HW318683   3.187   1.696   3.092  0.9087  0.7806  0.9781
 4729SOL    MW418684   3.256   1.697   3.040  0.0998 -0.4406 -0.1916
 4730SOL     OW18685   5.112   2.067   2.804 -0.1384 -0.0970 -0.2819
 4730SOL    HW218686   5.051   2.006   2.764  0.4478 -0.0969 -1.2048
 4730SOL    HW318687   5.153   2.113   2.730  0.5206  0.3445  0.3369
 4730SOL    MW418688   5.110   2.065   2.789  0.0259 -0.0387 -0.3220
 4731SOL     OW18689   4.282   3.467   2.825  0.5420  0.2429 -0.5049
 4731SOL    HW218690   4.235   3.387   2.849  0.7705  0.2070 -0.1720
 4731SOL    HW318691   4.350   3.476   2.891 -0.0578  1.2234  0.0057
 4731SOL    MW418692   4.285   3.458   2.837  0.4930  0.3675 -0.3936
 4732SOL     OW18693   2.001   3.697   1.531 -0.1696 -0.4094 -0.5876
 4732SOL    HW218694   2.018   3.786   1.499 -0.2853 -0.3261 -0.4143
 4732SOL    HW318695   1.946   3.657   1.464 -1.1399  0.0510 -0.0760
 4732SOL    MW418696   1.996   3.704   1.518 -0.3129 -0.3377 -0.4972
 4733SOL     OW18697   2.296   1.832   3.545  0.5880  0.3855  0.5963
 4733SOL    HW218698   2.231   1.764   3.563  2.2588 -0.9397  2.1052
 4733SOL    HW318699   2.302   1.836   3.450 -0.4571 -0.6727  0.4634
 4733SOL    MW418700   2.288   1.824   3.535  0.6706  0.0711  0.7779
 4734SOL     OW18701   1.833   2.141   3.281 -0.1182  0.1831  0.6310
 4734SOL    HW218702   1.798   2.080   3.216  0.5348 -0.5656  0.9733
 4734SOL    HW318703   1.926   2.120   3.286  0.1129  1.1913  0.7824
 4734SOL    MW418704   1.841   2.130   3.273 -0.0015  0.2173  0.6962
 4735SOL     OW18705   0.882   4.081   4.545  0.3450 -0.6539  0.2196
 4735SOL    HW218706   0.896   4.002   4.492 -0.8411 -0.9418  0.3079
 4735SOL    HW318707   0.788   4.082   4.563  0.1843  1.2491 -0.4871
 4735SOL    MW418708   0.872   4.071   4.541  0.1673 -0.4408  0.1380
 4736SOL     OW18709   0.068   1.177   6.239  0.2409 -0.2937 -0.3044
 4736SOL    HW218710   0.095   1.153   6.150 -0.2867 -1.1207 -0.2499
 4736SOL    HW318711   0.038   1.095   6.278  0.7323  0.0054  0.7392
 4736SOL    MW418712   0.068   1.163   6.232  0.2361 -0.3633 -0.1595
 4737SOL     OW18713   1.049   0.478   1.764 -0.2299 -0.2600  0.1155
 4737SOL    HW218714   1.004   0.423   1.700  0.3433  1.0281 -1.4508
 4737SOL    HW318715   1.038   0.567   1.732  0.3260  0.4006  1.6752
 4737SOL    MW418716   1.042   0.482   1.751 -0.0809 -0.0029  0.1146
 4738SOL     OW18717   3.995   3.068   4.281 -0.0179  0.3005  0.5113
 4738SOL    HW218718   3.960   3.079   4.193 -1.7042 -0.7828  0.9871
 4738SOL    HW318719   3.993   3.156   4.319  2.2637  1.0878 -1.0012
 4738SOL    MW418720   3.990   3.081   4.275  0.0606  0.2615  0.3745
 4739SOL     OW18721   2.904   4.528   3.505 -0.3626  0.3386  0.0989
 4739SOL    HW218722   2.961   4.556   3.577 -1.6060  0.0765  1.2340
 4739SOL    HW318723   2.925   4.587   3.433 -1.2657  2.7055  1.6696
 4739SOL    MW418724   2.914   4.539   3.505 -0.6458  0.6163  0.4559
 4740SOL     OW18725   5.645   0.514   5.082 -0.2811  0.1119  0.0691
 4740SOL    HW218726   5.669   0.454   5.153 -0.8439 -0.6786 -0.3886
 4740SOL    HW318727   5.648   0.601   5.122  1.8929 -0.0522  0.4236
 4740SOL    MW418728   5.649   0.517   5.097 -0.0685 -0.0141  0.0555
 4741SOL     OW18729   4.391   0.269   5.567 -0.5234  0.2260  0.1353
 4741SOL    HW218730   4.357   0.191   5.612 -0.3459 -0.2606 -0.5572
 4741SOL    HW318731   4.320   0.333   5.574 -1.9947 -1.0258 -1.9850
 4741SOL    MW418732   4.377   0.267   5.574 -0.6941 -0.0034 -0.2358
 4742SOL     OW18733   0.090   5.330   3.006 -0.7052  1.0224  0.2920
 4742SOL    HW218734   0.019   5.290   2.956 -0.1662  0.8094 -0.3183
 4742SOL    HW318735   0.116   5.262   3.068  0.9000 -0.0144 -1.4297
 4742SOL    MW418736   0.084   5.315   3.008 -0.4223  0.8575 -0.0157
 4743SOL     OW18737   5.570   5.652   6.188  0.1273  0.2551 -0.1755
 4743SOL    HW218738   5.661   5.656   6.158  0.6639 -2.1544  0.8929
 4743SOL    HW318739   5.570   5.699   6.271  0.7312 -0.7879  0.4402
 4743SOL    MW418740   5.582   5.659   6.195  0.2778 -0.2004  0.0467
 4744SOL     OW18741   1.480   6.213   1.110 -0.2641  0.0683 -0.3808
 4744SOL    HW218742   1.491   6.304   1.139  1.0283  0.5650 -2.2792
 4744SOL    HW318743   1.557   6.168   1.145 -0.1197  0.0498 -0.7216
 4744SOL    MW418744   1.492   6.219   1.119 -0.0745  0.1314 -0.6763
 4745SOL     OW18745   4.113   6.392   0.020  0.1978 -0.2774  0.0218
 4745SOL    HW218746   4.174   6.348  -0.040 -0.6104 -1.8490  0.3058
 4745SOL    HW318747   4.031   6.398  -0.030 -1.0226 -3.1884  1.4454
 4745SOL    MW418748   4.110   6.387   0.005 -0.0698 -0.8688  0.2471
 4746SOL     OW18749   6.182   0.666   2.170 -0.1805 -0.3090 -0.0180
 4746SOL    HW218750   6.120   0.693   2.238 -0.0741  2.0649 -0.7877
 4746SOL    HW318751   6.167   0.727   2.098  2.5642 -0.0885 -0.5091
 4746SOL    MW418752   6.172   0.678   2.169  0.1957  0.0333 -0.1843
 4747SOL     OW18753   4.410   5.546   0.616  0.2283  0.7053 -0.1667
 4747SOL    HW218754   4.396   5.510   0.704  0.8739 -1.8617 -1.0203
 4747SOL    HW318755   4.460   5.626   0.632 -2.3107  2.0463  1.9295
 4747SOL    MW418756   4.415   5.552   0.630 -0.0215  0.5435 -0.0027
 4748SOL     OW18757   1.869   2.660   1.020 -0.2050  0.0163 -0.3589
 4748SOL    HW218758   1.809   2.607   1.074 -0.0033 -1.1258 -1.2212
 4748SOL    HW318759   1.933   2.694   1.082 -0.1919 -0.9723  0.1910
 4748SOL    MW418760   1.869   2.658   1.035 -0.1766 -0.2648 -0.4001
 4749SOL     OW18761   2.511   5.376   2.733 -0.1170  0.0663  0.3706
 4749SOL    HW218762   2.429   5.353   2.690  0.1170  1.3066 -0.8093
 4749SOL    HW318763   2.573   5.310   2.702 -0.7022 -1.0976  1.5519
 4749SOL    MW418764   2.508   5.364   2.723 -0.1633  0.0764  0.3708
 4750SOL     OW18765   0.041   0.021   1.469 -0.0774 -0.2083  0.5226
 4750SOL    HW218766   0.098   0.057   1.537  0.0464  0.1322  0.2398
 4750SOL    HW318767   0.095  -0.044   1.425  0.3083  0.5385 -0.1396
 4750SOL    MW418768   0.055   0.017   1.472 -0.0102 -0.0648  0.3979
 4751SOL     OW18769   3.857   3.040   4.041  0.2817 -0.2820 -0.2055
 4751SOL    HW218770   3.840   2.948   4.061  2.0850 -0.9527 -1.5100
 4751SOL    HW318771   3.934   3.039   3.984  1.0889  2.1284  0.7080
 4751SOL    MW418772   3.865   3.028   4.036  0.6261 -0.0525 -0.2571
 4752SOL     OW18773   0.838   3.178   3.293 -0.2291 -0.0724  0.0095
 4752SOL    HW218774   0.825   3.272   3.311 -0.7116  0.0795 -1.0636
 4752SOL    HW318775   0.930   3.162   3.315 -0.2902  0.5295  0.7225
 4752SOL    MW418776   0.849   3.189   3.298 -0.3008  0.0271 -0.0380
 4753SOL     OW18777   1.978   5.342   2.503 -0.2378 -0.0541 -0.2849
 4753SOL    HW218778   1.916   5.378   2.567 -0.5849 -0.1371 -0.5719
 4753SOL    HW318779   1.980   5.408   2.433  1.7192  1.0594  0.7427
 4753SOL    MW418780   1.970   5.355   2.502 -0.0254  0.0819 -0.1872
 4754SOL     OW18781   1.788   0.903   0.506 -0.0802 -0.0552 -0.1629
 4754SOL    HW218782   1.814   0.913   0.414  1.3390  0.9459  0.3086
 4754SOL    HW318783   1.745   0.818   0.510 -1.8522  0.6641 -2.1091
 4754SOL    MW418784   1.786   0.893   0.494 -0.1267  0.1718 -0.3574
 4755SOL     OW18785   5.072   5.798   2.123  0.6342 -0.6722 -0.3807
 4755SOL    HW218786   5.159   5.804   2.085  1.1103 -0.0487  0.7508
 4755SOL    HW318787   5.088   5.785   2.217 -0.4833 -2.3831 -0.3745
 4755SOL    MW418788   5.086   5.797   2.130  0.5496 -0.8157 -0.2306
 4756SOL     OW18789   3.116   1.656   3.737  0.2020  0.0825  0.8703
 4756SOL    HW218790   3.132   1.608   3.656  2.9890 -0.7318  1.7794
 4756SOL    HW318791   3.113   1.748   3.711 -2.8086 -0.2944 -0.5646
 4756SOL    MW418792   3.118   1.662   3.723  0.1725 -0.0747  0.8009
 4757SOL     OW18793   1.514   2.497   2.231 -0.0335  0.6040 -0.1968
 4757SOL    HW218794   1.563   2.550   2.294 -0.6715  0.6030  0.3222
 4757SOL    HW318795   1.481   2.423   2.283  2.2802 -1.2955 -1.2461
 4757SOL    MW418796   1.516   2.494   2.247  0.1876  0.3533 -0.2667
 4758SOL     OW18797   0.239   0.197   3.452  0.0746 -0.1630  0.0462
 4758SOL    HW218798   0.312   0.232   3.401 -1.0612  0.4032 -1.2422
 4758SOL    HW318799   0.247   0.239   3.538  0.4860  0.9570 -0.5209
 4758SOL    MW418800   0.249   0.207   3.457 -0.0209  0.0595 -0.1986
 4759SOL     OW18801   0.933   1.729   6.027  0.4388  0.3791  0.1231
 4759SOL    HW218802   0.969   1.817   6.018  1.1221  0.1485  0.5124
 4759SOL    HW318803   0.870   1.721   5.955  0.4401  1.1464  0.0302
 4759SOL    MW418804   0.929   1.739   6.016  0.5291  0.4499  0.1622
 4760SOL     OW18805   3.473   1.807   2.779 -0.2633  0.0702 -0.1056
 4760SOL    HW218806   3.489   1.773   2.867 -1.0300 -0.8462 -0.3090
 4760SOL    HW318807   3.511   1.896   2.780 -0.1144  0.0033  1.0794
 4760SOL    MW418808   3.480   1.815   2.791 -0.3448 -0.0595  0.0239
 4761SOL     OW18809   2.400   5.739   2.068 -0.9650  0.2763 -0.2002
 4761SOL    HW218810   2.314   5.701   2.053 -0.6871  0.1971 -1.7775
 4761SOL    HW318811   2.445   5.730   1.984  0.5550  0.3972  0.5678
 4761SOL    MW418812   2.394   5.733   2.055 -0.7278  0.2818 -0.3070
 4762SOL     OW18813   0.935   2.074   0.184 -0.2911 -0.2340  0.5276
 4762SOL    HW218814   0.865   2.118   0.135  0.7322  1.6144  0.6367
 4762SOL    HW318815   0.922   1.981   0.166 -2.2187  0.1262 -0.1868
 4762SOL    MW418816   0.924   2.068   0.175 -0.4104  0.0574  0.4477
 4763SOL     OW18817   5.156   3.042   0.302  0.4345  0.1909  0.2636
 4763SOL    HW218818   5.137   2.951   0.325 -0.7347 -0.0607 -1.4550
 4763SOL    HW318819   5.156   3.042   0.206  2.0100  1.7063  0.2287
 4763SOL    MW418820   5.153   3.030   0.292  0.4881  0.3576  0.0322
 4764SOL     OW18821   1.402   3.434   1.662  0.3233 -0.5457 -0.2526
 4764SOL    HW218822   1.413   3.378   1.586  0.7669 -2.0446  0.8649
 4764SOL    HW318823   1.473   3.408   1.721 -0.3411  0.1681  0.8962
 4764SOL    MW418824   1.412   3.423   1.660  0.2942 -0.6493  0.0464
 4765SOL     OW18825   2.460   5.616   1.353 -0.6804 -0.3218 -0.0805
 4765SOL    HW218826   2.509   5.657   1.281 -1.3185  0.5869 -0.0133
 4765SOL    HW318827   2.528   5.588   1.415 -0.1982  0.1543 -0.3834
 4765SOL    MW418828   2.476   5.618   1.351 -0.7010 -0.1391 -0.1116
 4766SOL     OW18829   5.201   5.184   3.945  0.4611  0.4025 -0.5798
 4766SOL    HW218830   5.151   5.258   3.911 -0.6623 -1.2782 -2.8799
 4766SOL    HW318831   5.142   5.143   4.009  0.7760  1.0363  0.1230
 4766SOL    MW418832   5.186   5.188   3.949  0.3545  0.2644 -0.7905
 4767SOL     OW18833   3.800   5.978   3.025  0.2181 -0.2182 -0.1186
 4767SOL    HW218834   3.751   6.055   2.998  0.4871 -0.4194 -1.2117
 4767SOL    HW318835   3.860   6.010   3.093  1.0480  0.7603 -1.2726
 4767SOL    MW418836   3.801   5.992   3.031  0.3631 -0.1156 -0.4151
 4768SOL     OW18837   3.658   6.212   1.503 -0.2281 -0.4606 -0.2399
 4768SOL    HW218838   3.602   6.287   1.524 -0.7961 -0.5697 -1.3022
 4768SOL    HW318839   3.696   6.235   1.418  0.9485 -0.6211  0.2257
 4768SOL    MW418840   3.656   6.225   1.494 -0.1478 -0.4962 -0.3186
 4769SOL     OW18841   5.601   4.201   2.877 -0.3259 -0.9932  0.1680
 4769SOL    HW218842   5.595   4.244   2.792  0.5522  0.0725  0.6106
 4769SOL    HW318843   5.669   4.251   2.924  1.1824 -3.2318  0.5069
 4769SOL    MW418844   5.609   4.213   2.872 -0.0111 -1.1480  0.2711
 4770SOL     OW18845   3.782   1.363   0.615 -0.2861 -0.0666 -0.2297
 4770SOL    HW218846   3.769   1.276   0.652 -0.8256 -0.1204 -0.5409
 4770SOL    HW318847   3.704   1.379   0.562 -0.5391  0.9069  0.4074
 4770SOL    MW418848   3.770   1.354   0.613 -0.3907  0.0548 -0.1867
 4771SOL     OW18849   3.430   0.728   0.557  0.1244 -0.1165  0.2465
 4771SOL    HW218850   3.382   0.807   0.584  1.4056  0.5232  0.7334
 4771SOL    HW318851   3.522   0.754   0.560  0.5219 -1.3713 -0.4871
 4771SOL    MW418852   3.436   0.742   0.561  0.3459 -0.1976  0.2140
 4772SOL     OW18853   6.203   4.009   0.289 -0.3483 -0.4970 -0.3762
 4772SOL    HW218854   6.241   4.048   0.368 -1.6990  1.4046 -0.5961
 4772SOL    HW318855   6.169   3.925   0.319  0.3806 -0.4161  0.7502
 4772SOL    MW418856   6.203   4.003   0.304 -0.4303 -0.2355 -0.2566
 4773SOL     OW18857   0.013   4.181   0.743  0.3328 -0.2125  0.8735
 4773SOL    HW218858  -0.032   4.183   0.658  1.2886  0.9036  0.3572
 4773SOL    HW318859  -0.033   4.113   0.793  0.1426 -1.3583 -0.7567
 4773SOL    MW418860   0.001   4.172   0.738  0.4338 -0.2164  0.5903
 4774SOL     OW18861   0.786   3.917   1.689  0.5399 -0.0456 -0.7585
 4774SOL    HW218862   0.720   3.979   1.718  1.1939 -0.0354  0.8250
 4774SOL    HW318863   0.782   3.919   1.593  0.6429  2.5308 -0.7577
 4774SOL    MW418864   0.777   3.925   1.680  0.6397  0.2957 -0.5495
 4775SOL     OW18865   1.392   4.746   3.390 -0.2494 -0.0203  0.7620
 4775SOL    HW218866   1.485   4.751   3.368 -0.3023  0.7928  0.6782
 4775SOL    HW318867   1.375   4.653   3.404  0.6516 -0.1360  1.1303
 4775SOL    MW418868   1.402   4.734   3.389 -0.1375  0.0717  0.7995
 4776SOL     OW18869   1.251   4.594   0.915  0.3758  0.3283  0.7083
 4776SOL    HW218870   1.233   4.501   0.926 -1.8823  0.8423  1.9874
 4776SOL    HW318871   1.321   4.613   0.977  0.0354 -0.2870  1.2913
 4776SOL    MW418872   1.258   4.584   0.925  0.0330  0.3149  0.9540
 4777SOL     OW18873   2.576   6.070   3.821 -0.4305 -0.3291 -0.1004
 4777SOL    HW218874   2.518   6.136   3.783  1.4816  0.8406 -1.1672
 4777SOL    HW318875   2.570   6.084   3.915  1.4310  2.8792 -0.3206
 4777SOL    MW418876   2.568   6.080   3.828  0.0674  0.2485 -0.2702
 4778SOL     OW18877   2.425   3.924   0.946 -0.1271  0.3518 -0.0390
 4778SOL    HW218878   2.413   3.905   0.852 -1.6382  0.9042  0.0129
 4778SOL    HW318879   2.414   3.839   0.989 -0.1634  0.2135 -0.3154
 4778SOL    MW418880   2.422   3.910   0.939 -0.3312  0.4065 -0.0686
 4779SOL     OW18881   2.346   1.032   2.719 -0.0075  0.5169  0.4231
 4779SOL    HW218882   2.422   1.090   2.715  1.1044 -0.8774 -3.1445
 4779SOL    HW318883   2.369   0.966   2.785  1.4667  0.7020  0.1260
 4779SOL    MW418884   2.359   1.031   2.727  0.3337  0.3574 -0.0868
 4780SOL     OW18885   5.544   4.698   4.601  0.4864 -0.4335  0.5955
 4780SOL    HW218886   5.619   4.681   4.545 -0.6858 -1.7029 -0.6520
 4780SOL    HW318887   5.567   4.658   4.685  0.0027 -3.6704 -0.6762
 4780SOL    MW418888   5.557   4.691   4.605  0.2679 -1.0281  0.2631
 4781SOL     OW18889   5.629   1.995   1.895  0.1877  0.1434  0.4315
 4781SOL    HW218890   5.537   2.019   1.891 -0.0318 -0.8194 -1.5738
 4781SOL    HW318891   5.630   1.906   1.931  0.0036 -0.9619 -2.0471
 4781SOL    MW418892   5.617   1.986   1.899  0.1344 -0.1295 -0.1601
 4782SOL     OW18893   6.322   4.153   2.280  0.1499  0.0982 -0.2909
 4782SOL    HW218894   6.242   4.204   2.270 -0.1772 -0.2405  0.5135
 4782SOL    HW318895   6.372   4.201   2.346  1.2496  1.0574 -1.7375
 4782SOL    MW418896   6.318   4.166   2.287  0.2519  0.1801 -0.3757
 4783SOL     OW18897   5.872   4.653   0.697  0.2493  0.2327 -0.2863
 4783SOL    HW218898   5.933   4.726   0.692  1.4657 -0.6619  0.7464
 4783SOL    HW318899   5.868   4.631   0.790  0.1814 -1.2132 -0.6101
 4783SOL    MW418900   5.879   4.659   0.709  0.4008 -0.0761 -0.1928
 4784SOL     OW18901   6.398   0.193   0.753 -0.6104  0.4147 -0.2021
 4784SOL    HW218902   6.425   0.285   0.756 -2.0010  0.8447 -0.5959
 4784SOL    HW318903   6.466   0.147   0.803  1.4254  1.2939 -2.0185
 4784SOL    MW418904   6.411   0.199   0.760 -0.5253  0.5874 -0.4937
 4785SOL     OW18905   1.459   4.341   5.303  0.2954  0.3475 -0.4837
 4785SOL    HW218906   1.493   4.387   5.380 -0.2296 -0.8816  0.5092
 4785SOL    HW318907   1.536   4.325   5.249  0.8361  0.2783  0.2971
 4785SOL    MW418908   1.474   4.345   5.306  0.2975  0.1762 -0.2497
 4786SOL     OW18909   3.199   2.690   3.271  0.3491  0.0200 -0.0065
 4786SOL    HW218910   3.231   2.713   3.359 -0.4222  1.0614  0.0195
 4786SOL    HW318911   3.178   2.596   3.277  0.7651 -0.0325  0.7776
 4786SOL    MW418912   3.200   2.680   3.284  0.3022  0.1505  0.1004
 4787SOL     OW18913   4.470   5.117   3.837  0.0465 -0.0465  0.4132
 4787SOL    HW218914   4.457   5.076   3.752  0.4821 -0.4785  0.5468
 4787SOL    HW318915   4.561   5.096   3.860  0.1633  0.6818  0.6555
 4787SOL    MW418916   4.480   5.109   3.829  0.1194 -0.0074  0.4628
 4788SOL     OW18917   4.820   2.214   5.191 -0.3711 -0.3618  0.4284
 4788SOL    HW218918   4.794   2.201   5.282 -0.2490 -0.5933  0.4304
 4788SOL    HW318919   4.882   2.287   5.194  0.3671 -0.9779  0.6593
 4788SOL    MW418920   4.825   2.222   5.203 -0.2576 -0.4737  0.4591
 4789SOL     OW18921   3.711   0.221   1.092  0.1640 -0.1816 -0.5067
 4789SOL    HW218922   3.751   0.215   1.179 -0.5027  0.9885 -0.0870
 4789SOL    HW318923   3.625   0.180   1.103  0.4191 -0.8106 -0.8488
 4789SOL    MW418924   3.705   0.215   1.105  0.1097 -0.1102 -0.4964
 4790SOL     OW18925   2.098   2.016   6.081 -0.0595  0.1455  0.0165
 4790SOL    HW218926   2.083   2.050   6.169  0.5455 -1.3242  0.7422
 4790SOL    HW318927   2.131   2.090   6.032 -2.1703  1.4732  0.4818
 4790SOL    MW418928   2.101   2.030   6.086 -0.2582  0.1268  0.1736
 4791SOL     OW18929   2.391   3.918   0.089  0.5479  0.1937  0.0332
 4791SOL    HW218930   2.416   3.834   0.126 -1.8043 -0.6409 -0.1029
 4791SOL    HW318931   2.381   3.901  -0.005 -0.0979  0.5525  0.0279
 4791SOL    MW418932   2.393   3.905   0.082  0.1524  0.1310  0.0145
 4792SOL     OW18933   3.054   0.093   6.280  0.6091  0.7439 -0.3365
 4792SOL    HW218934   3.009   0.053   6.354 -0.8809  2.5473 -0.1895
 4792SOL    HW318935   2.986   0.101   6.212  1.8003 -0.3346 -1.7250
 4792SOL    MW418936   3.039   0.089   6.281  0.5697  0.8395 -0.5003
 4793SOL     OW18937   6.018   2.597   0.298 -0.2915 -0.0904  0.7893
 4793SOL    HW218938   6.043   2.510   0.267 -0.7950  0.1028 -0.2024
 4793SOL    HW318939   5.924   2.603   0.279  0.2855  1.8840 -2.3200
 4793SOL    MW418940   6.009   2.586   0.291 -0.2818  0.1956  0.2482
 4794SOL     OW18941   1.404   5.233   0.027 -0.2295 -0.4320  0.3117
 4794SOL    HW218942   1.478   5.188  -0.013  0.2537 -1.1459  1.9390
 4794SOL    HW318943   1.435   5.321   0.045 -0.0783 -0.4526  0.1449
 4794SOL    MW418944   1.418   5.238   0.024 -0.1458 -0.5289  0.5044
 4795SOL     OW18945   5.525   3.132   3.254 -0.1207  0.0237  0.2524
 4795SOL    HW218946   5.556   3.155   3.342 -0.1724  0.6196  0.1215
 4795SOL    HW318947   5.575   3.189   3.196  0.0092 -0.4647 -0.1196
 4795SOL    MW418948   5.536   3.143   3.258 -0.1104  0.0379  0.1861
 4796SOL     OW18949   6.044   0.849   2.787 -0.1430  0.1174 -0.1141
 4796SOL    HW218950   6.027   0.760   2.819 -0.2979  0.4526  0.7553
 4796SOL    HW318951   6.117   0.880   2.841  0.5547  0.1716 -1.0748
 4796SOL    MW418952   6.052   0.841   2.799 -0.0714  0.1688 -0.1261
 4797SOL     OW18953   5.613   6.292   5.126 -0.6503  0.0328  0.6455
 4797SOL    HW218954   5.554   6.330   5.060  0.0202  3.4273  1.8267
 4797SOL    HW318955   5.574   6.316   5.210  0.9607 -0.0684  1.4615
 4797SOL    MW418956   5.600   6.300   5.128 -0.3493  0.4673  0.9090
 4798SOL     OW18957   4.565   3.532   5.409  0.0296  0.4085  0.1472
 4798SOL    HW218958   4.610   3.448   5.417 -1.2659 -0.3842 -0.4049
 4798SOL    HW318959   4.617   3.593   5.461  1.3801 -0.5821 -0.0054
 4798SOL    MW418960   4.578   3.529   5.417  0.0369  0.1732  0.0542
 4799SOL     OW18961   5.107   0.389   4.054  0.3023 -0.1943  0.0618
 4799SOL    HW218962   5.052   0.465   4.070 -0.7981 -0.5610 -1.7778
 4799SOL    HW318963   5.048   0.322   4.020  1.5082 -1.3607  0.1421
 4799SOL    MW418964   5.092   0.390   4.052  0.3162 -0.3966 -0.1703
 4800SOL     OW18965   0.585   4.196   4.581 -0.2214 -0.7495 -0.2267
 4800SOL    HW218966   0.589   4.170   4.673  4.3021  0.1095  0.0561
 4800SOL    HW318967   0.607   4.289   4.582  0.3457 -0.8270 -2.1641
 4800SOL    MW418968   0.589   4.205   4.594  0.4503 -0.6464 -0.4450
 4801SOL     OW18969   5.735   1.058   4.025 -0.5897 -0.1827  0.5412
 4801SOL    HW218970   5.810   1.108   4.057 -0.9577  0.0313  1.0813
 4801SOL    HW318971   5.767   0.968   4.019  0.9592  0.4248 -3.1102
 4801SOL    MW418972   5.749   1.052   4.029 -0.4339 -0.0743  0.1307
 4802SOL     OW18973   0.830   5.288   2.679 -0.0224  0.1900 -0.5716
 4802SOL    HW218974   0.793   5.340   2.608 -2.5952  0.7087  0.9823
 4802SOL    HW318975   0.788   5.202   2.670  1.9157 -0.7282 -1.3622
 4802SOL    MW418976   0.819   5.283   2.669 -0.1061  0.1373 -0.4709
 4803SOL     OW18977   0.465   2.790   4.302  0.3080 -0.1786 -0.2227
 4803SOL    HW218978   0.558   2.767   4.307  0.3718  0.0736 -0.2728
 4803SOL    HW318979   0.454   2.828   4.215  0.3574  0.6898  0.1388
 4803SOL    MW418980   0.476   2.792   4.291  0.3230 -0.0308 -0.1816
 4804SOL     OW18981   1.140   5.793   1.553  0.2830  0.3567  0.1010
 4804SOL    HW218982   1.145   5.802   1.458 -2.6548  2.3261 -0.0024
 4804SOL    HW318983   1.227   5.816   1.584  1.7689 -1.7295 -2.0911
 4804SOL    MW418984   1.152   5.797   1.544  0.0914  0.3413 -0.2018
 4805SOL     OW18985   4.446   1.087   1.361  0.7277 -0.2044  0.2173
 4805SOL    HW218986   4.434   1.070   1.455  1.9491 -1.8318  0.1138
 4805SOL    HW318987   4.492   1.171   1.358  1.1279 -0.3832  1.0966
 4805SOL    MW418988   4.450   1.096   1.373  0.9417 -0.4427  0.3197
 4806SOL     OW18989   1.622   1.305   3.158 -0.0331 -0.2482  0.1593
 4806SOL    HW218990   1.700   1.315   3.213 -0.6553  1.2310  0.8392
 4806SOL    HW318991   1.549   1.315   3.219 -0.8190 -2.9806 -0.2269
 4806SOL    MW418992   1.623   1.308   3.173 -0.2189 -0.4135  0.1980
 4807SOL     OW18993   5.136   5.804   1.674 -0.4354  0.2592 -0.1247
 4807SOL    HW218994   5.174   5.812   1.761  0.1350 -0.6858 -0.2689
 4807SOL    HW318995   5.123   5.710   1.662 -2.5565  0.5219 -0.2113
 4807SOL    MW418996   5.139   5.792   1.684 -0.6400  0.1692 -0.1552
 4808SOL     OW18997   0.692   2.600   3.630  0.3918 -0.2394  0.3073
 4808SOL    HW218998   0.672   2.606   3.723  0.4385 -2.7327  0.5548
 4808SOL    HW318999   0.611   2.626   3.586 -0.2576 -0.8950  1.0911
 4808SOL    MW419000   0.679   2.604   3.636  0.3123 -0.6549  0.4434
 4809SOL     OW19001   1.830   0.522   2.222  0.4325  0.5378 -0.1050
 4809SOL    HW219002   1.918   0.556   2.239  1.4460 -1.6122 -0.7448
 4809SOL    HW319003   1.773   0.573   2.279  2.2371  1.2524  1.1333
 4809SOL    MW419004   1.834   0.533   2.231  0.8043  0.3484 -0.0261
 4810SOL     OW19005   0.319   0.157   3.777 -0.4159  0.0992 -0.2928
 4810SOL    HW219006   0.300   0.120   3.863 -3.8367  2.5983  0.2332
 4810SOL    HW319007   0.407   0.125   3.756 -0.7326 -3.2967  2.5830
 4810SOL    MW419008   0.328   0.148   3.785 -0.9090 -0.0192  0.1560
 4811SOL     OW19009   3.779   1.272   2.510 -0.7786  0.1664 -0.0318
 4811SOL    HW219010   3.735   1.205   2.563 -0.2872  0.6122  0.9511
 4811SOL    HW319011   3.708   1.311   2.458 -1.1936 -0.5809 -0.0419
 4811SOL    MW419012   3.764   1.268   2.510 -0.7685  0.1266  0.0965
 4812SOL     OW19013   4.493   2.435   3.254 -0.5527 -0.5994  0.2055
 4812SOL    HW219014   4.430   2.500   3.223  0.9409  0.6348 -0.3653
 4812SOL    HW319015   4.491   2.444   3.350  0.0048  0.6873  0.1193
 4812SOL    MW419016   4.484   2.445   3.263 -0.2821 -0.2668  0.1188
 4813SOL     OW19017   3.703   0.789   0.520 -0.0790  0.3043 -0.5614
 4813SOL    HW219018   3.732   0.698   0.511 -1.1059 -0.0529 -0.3692
 4813SOL    HW319019   3.771   0.830   0.575 -0.1556 -0.6181  0.2574
 4813SOL    MW419020   3.716   0.782   0.526 -0.2246  0.1355 -0.4280
 4814SOL     OW19021   4.240   5.809   4.799  0.4996 -0.3667  0.4103
 4814SOL    HW219022   4.215   5.724   4.835 -1.6083 -0.0941 -0.2210
 4814SOL    HW319023   4.268   5.790   4.710 -2.4718 -0.2577 -0.6813
 4814SOL    MW419024   4.240   5.795   4.792 -0.1706 -0.3164  0.1830
 4815SOL     OW19025   4.740   3.862   4.739 -0.0456  0.5845  0.2829
 4815SOL    HW219026   4.792   3.793   4.780  0.6449  0.7638 -0.2695
 4815SOL    HW319027   4.792   3.889   4.663 -1.7445 -0.3959 -1.2825
 4815SOL    MW419028   4.754   3.857   4.735 -0.1787  0.4788  0.0035
 4816SOL     OW19029   5.638   1.197   1.581  0.0729  0.1329  0.1853
 4816SOL    HW219030   5.631   1.166   1.671 -1.9733  3.0084  1.1699
 4816SOL    HW319031   5.593   1.131   1.529 -1.6899  0.0183  1.7547
 4816SOL    MW419032   5.631   1.184   1.586 -0.4297  0.4972  0.5223
 4817SOL     OW19033   1.000   2.533   4.307  0.1656  0.2927 -0.0756
 4817SOL    HW219034   0.984   2.451   4.260  0.2794  1.3913 -2.1522
 4817SOL    HW319035   0.917   2.580   4.302  0.5056  0.8952 -0.1557
 4817SOL    MW419036   0.987   2.528   4.300  0.2254  0.5172 -0.3601
 4818SOL     OW19037   4.212   4.545   0.877  0.3214 -0.2527 -0.5619
 4818SOL    HW219038   4.279   4.598   0.920  0.9897 -1.9092  0.5581
 4818SOL    HW319039   4.148   4.609   0.845  0.7178  1.1966  1.3396
 4818SOL    MW419040   4.212   4.560   0.879  0.4618 -0.2801 -0.1632
 4819SOL     OW19041   4.439   3.185   3.051 -0.5394  0.3253 -0.1042
 4819SOL    HW219042   4.358   3.157   3.008 -1.2850  2.0413  0.1307
 4819SOL    HW319043   4.473   3.254   2.995 -0.5397  1.3114  1.0798
 4819SOL    MW419044   4.433   3.190   3.038 -0.6378  0.6818  0.0830
 4820SOL     OW19045   4.652   2.988   2.471 -0.2503 -0.1918  0.2354
 4820SOL    HW219046   4.715   2.976   2.400 -1.8685 -2.3841 -0.9326
 4820SOL    HW319047   4.628   3.080   2.466  1.6763  0.3389 -0.2637
 4820SOL    MW419048   4.657   2.999   2.461 -0.2096 -0.4110  0.0155
 4821SOL     OW19049   3.061   0.435   2.944  0.2006  0.7924  0.2690
 4821SOL    HW219050   3.068   0.367   2.877  0.8674  1.6575 -0.5761
 4821SOL    HW319051   3.039   0.388   3.024  1.4512 -0.5259 -0.1188
 4821SOL    MW419052   3.059   0.420   2.946  0.4536  0.7326  0.1063
 4822SOL     OW19053   0.837   2.706   1.092  0.1224 -0.0721 -0.2351
 4822SOL    HW219054   0.817   2.677   1.004 -1.2125  0.3169 -0.0765
 4822SOL    HW319055   0.892   2.636   1.128 -0.9394 -1.1942 -0.7070
 4822SOL    MW419056   0.842   2.693   1.085 -0.1939 -0.1688 -0.2764
 4823SOL     OW19057   1.492   1.404   0.047  0.0667 -0.1542 -0.1970
 4823SOL    HW219058   1.481   1.335   0.112  0.5677  0.2634  0.3346
 4823SOL    HW319059   1.551   1.367  -0.018 -1.5516 -1.1076 -1.2068
 4823SOL    MW419060   1.498   1.390   0.047 -0.0807 -0.2249 -0.2601
 4824SOL     OW19061   2.570   5.773   1.159  0.0689 -0.4532 -0.5189
 4824SOL    HW219062   2.583   5.843   1.223 -0.3983  1.0603 -1.9896
 4824SOL    HW319063   2.656   5.731   1.152  0.9443  1.3253 -1.0685
 4824SOL    MW419064   2.583   5.777   1.166  0.1227 -0.0188 -0.7854
 4825SOL     OW19065   2.640   0.295   3.338 -0.2468 -0.8397  0.4420
 4825SOL    HW219066   2.697   0.332   3.405 -2.5278  1.2355  1.3869
 4825SOL    HW319067   2.633   0.202   3.361  0.8313 -0.6404  1.6940
 4825SOL    MW419068   2.647   0.288   3.350 -0.4055 -0.5396  0.7319
 4826SOL     OW19069   0.273   1.989   6.116 -0.2728 -0.4069  0.2296
 4826SOL    HW219070   0.239   1.900   6.110 -1.0073 -0.0625 -1.3406
 4826SOL    HW319071   0.367   1.980   6.096 -0.5648 -0.7200 -1.1182
 4826SOL    MW419072   0.281   1.976   6.112 -0.4082 -0.4028 -0.1554
 4827SOL     OW19073   6.326   1.733   4.640  0.0015 -0.1395 -0.2450
 4827SOL    HW219074   6.405   1.679   4.634  0.1281  0.1860 -1.6594
 4827SOL    HW319075   6.347   1.797   4.708  0.6826 -0.4823 -0.1203
 4827SOL    MW419076   6.339   1.734   4.648  0.1081 -0.1418 -0.4152
 4828SOL     OW19077   5.160   1.272   2.760  0.1140 -0.1453 -0.6434
 4828SOL    HW219078   5.228   1.265   2.827  0.6594  1.0248 -1.0301
 4828SOL    HW319079   5.188   1.212   2.691  0.0042 -0.7173 -0.1929
 4828SOL    MW419080   5.172   1.263   2.760  0.1714 -0.0664 -0.6350
 4829SOL     OW19081   3.260   1.960   4.016  0.0702 -0.0382 -0.7732
 4829SOL    HW219082   3.355   1.956   4.011  0.1202 -1.5184  0.6149
 4829SOL    HW319083   3.241   2.041   4.064  0.7015 -0.3736  0.0636
 4829SOL    MW419084   3.270   1.970   4.022  0.1601 -0.2777 -0.4797
 4830SOL     OW19085   0.663   5.808   4.236 -0.4903  0.5862 -0.0743
 4830SOL    HW219086   0.711   5.837   4.158 -0.8537  1.7917  0.1263
 4830SOL    HW319087   0.729   5.806   4.305  0.1404 -1.8134 -0.6468
 4830SOL    MW419088   0.678   5.812   4.234 -0.4550  0.4286 -0.1233
 4831SOL     OW19089   0.406   5.473   5.714  0.6556 -0.5770 -0.5066
 4831SOL    HW219090   0.434   5.393   5.759  0.3668 -0.5143 -0.2109
 4831SOL    HW319091   0.440   5.464   5.625 -1.2526 -2.0730 -1.1479
 4831SOL    MW419092   0.414   5.461   5.708  0.3657 -0.7661 -0.5522
 4832SOL     OW19093   3.354   1.220   2.826 -0.3786 -0.4820 -0.1170
 4832SOL    HW219094   3.269   1.221   2.870  0.2733 -0.8229  1.1879
 4832SOL    HW319095   3.339   1.269   2.745 -1.2061  1.7540  1.2916
 4832SOL    MW419096   3.340   1.227   2.821 -0.4018 -0.2320  0.2410
 4833SOL     OW19097   3.058   0.604   3.225 -0.3795  0.3512  0.4030
 4833SOL    HW219098   3.045   0.695   3.250 -1.9055  0.0042  0.9938
 4833SOL    HW319099   3.147   0.601   3.188 -0.0783  1.9342  0.9398
 4833SOL    MW419100   3.068   0.616   3.223 -0.5411  0.5143  0.5518
 4834SOL     OW19101   1.711   6.087   1.226  0.0638  0.1499 -0.0982
 4834SOL    HW219102   1.732   6.002   1.188 -1.0263 -0.2497  0.1818
 4834SOL    HW319103   1.640   6.070   1.287  0.5133  1.1008  0.7157
 4834SOL    MW419104   1.705   6.073   1.229 -0.0207  0.2227  0.0461
 4835SOL     OW19105   4.895   1.461   4.026 -0.0961  0.5733  0.6210
 4835SOL    HW219106   4.944   1.468   4.108  1.5230 -1.6167 -0.0765
 4835SOL    HW319107   4.835   1.388   4.040 -1.3071  1.5226  0.5290
 4835SOL    MW419108   4.894   1.452   4.039 -0.0423  0.4096  0.5169
 4836SOL     OW19109   3.739   4.230   2.969  0.0508  0.2509  0.1292
 4836SOL    HW219110   3.722   4.208   3.061 -0.8011  0.7281  0.0997
 4836SOL    HW319111   3.833   4.244   2.964  0.6637 -3.0173  0.2201
 4836SOL    MW419112   3.749   4.229   2.980  0.0193 -0.1174  0.1373
 4837SOL     OW19113   3.040   4.937   2.614 -0.6042 -0.0424 -0.3301
 4837SOL    HW219114   3.023   4.877   2.541  0.0552 -0.3225 -0.2605
 4837SOL    HW319115   2.997   4.896   2.689 -2.6943  1.0504 -0.8530
 4837SOL    MW419116   3.032   4.924   2.614 -0.7930  0.0648 -0.3899
 4838SOL     OW19117   1.269   3.371   5.315  0.3376 -0.1925 -0.6313
 4838SOL    HW219118   1.186   3.407   5.346  1.2641  0.6974  0.8984
 4838SOL    HW319119   1.287   3.419   5.234 -1.3620 -1.4888 -1.8694
 4838SOL    MW419120   1.261   3.382   5.308  0.2356 -0.2461 -0.5928
 4839SOL     OW19121   1.219   4.668   5.723  0.5739  0.0971 -0.1539
 4839SOL    HW219122   1.300   4.680   5.773 -0.0055  2.2705  0.3490
 4839SOL    HW319123   1.162   4.619   5.783  0.8055  0.3476  0.2776
 4839SOL    MW419124   1.222   4.663   5.738  0.5280  0.4169 -0.0306
 4840SOL     OW19125   1.832   3.351   0.817  0.2766  0.5478  0.9262
 4840SOL    HW219126   1.816   3.424   0.878  0.1830  0.6731  0.7534
 4840SOL    HW319127   1.751   3.346   0.765  0.2586  0.2771  0.9831
 4840SOL    MW419128   1.819   3.360   0.818  0.2619  0.5286  0.9109
 4841SOL     OW19129   2.119   3.158   1.615 -0.3987 -0.1098  0.7373
 4841SOL    HW219130   2.211   3.159   1.591 -0.8275  1.4453 -1.1205
 4841SOL    HW319131   2.079   3.097   1.553 -0.6083 -1.0148  1.7296
 4841SOL    MW419132   2.126   3.150   1.604 -0.4829 -0.0241  0.6231
 4842SOL     OW19133   5.270   0.449   0.536  0.2023  0.7535  0.2958
 4842SOL    HW219134   5.207   0.379   0.552 -0.4983  1.4010  0.4134
 4842SOL    HW319135   5.250   0.480   0.448 -2.0815  3.3449  1.5526
 4842SOL    MW419136   5.259   0.444   0.527 -0.1915  1.1809  0.4772
 4843SOL     OW19137   1.186   0.105   0.332  0.4567 -0.1365 -0.0552
 4843SOL    HW219138   1.235   0.130   0.411 -1.1911 -1.0145  1.3287
 4843SOL    HW319139   1.230   0.026   0.301 -0.8813 -1.8740  2.1121
 4843SOL    MW419140   1.198   0.098   0.339  0.0627 -0.4816  0.4133
 4844SOL     OW19141   5.019   1.761   0.531 -0.5381 -0.5132 -0.2967
 4844SOL    HW219142   4.952   1.828   0.541 -1.4097 -1.4579  0.4307
 4844SOL    HW319143   5.064   1.785   0.451 -1.0576  0.7339 -0.2498
 4844SOL    MW419144   5.016   1.773   0.522 -0.7217 -0.4733 -0.1946
 4845SOL     OW19145   5.419   6.255   4.389 -0.6129  0.2863  0.0142
 4845SOL    HW219146   5.380   6.212   4.312  2.2258  0.5309 -1.6756
 4845SOL    HW319147   5.441   6.182   4.447  2.2892 -0.5975 -1.9460
 4845SOL    MW419148   5.417   6.239   4.386  0.1445  0.2020 -0.4674
 4846SOL     OW19149   3.220   6.424   0.490  0.0609 -0.4381  0.6958
 4846SOL    HW219150   3.180   6.488   0.430  0.9228  0.2949  0.8789
 4846SOL    HW319151   3.283   6.377   0.436  0.3253 -0.2742  0.8653
 4846SOL    MW419152   3.223   6.426   0.475  0.2095 -0.3198  0.7423
 4847SOL     OW19153   2.328   4.537   4.264  0.4907  0.4850 -0.0726
 4847SOL    HW219154   2.380   4.556   4.342  0.4940 -0.1556  0.0858
 4847SOL    HW319155   2.377   4.579   4.192 -0.0753  2.0138  0.3876
 4847SOL    MW419156   2.341   4.545   4.265  0.4164  0.6022  0.0090
 4848SOL     OW19157   3.263   1.034   3.470 -0.3857 -0.1174  0.2441
 4848SOL    HW219158   3.229   1.114   3.430 -1.5655 -0.8255 -0.2431
 4848SOL    HW319159   3.273   0.973   3.396 -0.0471 -0.6055  0.6837
 4848SOL    MW419160   3.260   1.036   3.455 -0.4967 -0.2752  0.2378
 4849SOL     OW19161   6.125   1.973   2.486 -0.4731  0.4866  0.1797
 4849SOL    HW219162   6.134   2.005   2.576  0.7609  0.8008 -0.0299
 4849SOL    HW319163   6.208   1.927   2.469  0.2578  2.2996 -1.5144
 4849SOL    MW419164   6.137   1.971   2.495 -0.2139  0.7673 -0.0714
 4850SOL     OW19165   0.634   1.708   5.929  0.0094  0.0586  0.2037
 4850SOL    HW219166   0.583   1.724   5.850  2.7653  1.5051 -1.4175
 4850SOL    HW319167   0.616   1.784   5.985 -1.3270 -0.5812  0.6905
 4850SOL    MW419168   0.625   1.720   5.926  0.1967  0.1650  0.0541
 4851SOL     OW19169   1.315   5.957   4.472 -0.3315  0.4203  0.0369
 4851SOL    HW219170   1.390   5.960   4.532  0.6379  1.6857 -1.1689
 4851SOL    HW319171   1.240   5.935   4.527  0.5552  1.3735  1.6766
 4851SOL    MW419172   1.315   5.954   4.487 -0.0866  0.7130  0.0942
 4852SOL     OW19173   2.205   6.084   3.338 -0.1370 -0.0340  0.1640
 4852SOL    HW219174   2.227   6.172   3.308  1.0069 -1.1171 -2.4617
 4852SOL    HW319175   2.112   6.089   3.362  0.0182  1.9504  0.4811
 4852SOL    MW419176   2.196   6.096   3.337  0.0344  0.0850 -0.1406
 4853SOL     OW19177   4.152   6.257   5.493  0.0273  0.0921 -1.1447
 4853SOL    HW219178   4.195   6.214   5.419 -0.1305  0.5365 -1.4930
 4853SOL    HW319179   4.183   6.208   5.570 -2.1603 -2.4234 -1.6878
 4853SOL    MW419180   4.162   6.245   5.494 -0.2821 -0.1812 -1.2623
 4854SOL     OW19181   5.669   3.975   2.555  0.5064 -0.4435 -0.0772
 4854SOL    HW219182   5.763   3.978   2.575  0.5631 -1.2009 -0.2066
 4854SOL    HW319183   5.661   3.907   2.488 -0.2104 -0.7963  0.3544
 4854SOL    MW419184   5.680   3.967   2.548  0.4193 -0.5900 -0.0374
 4855SOL     OW19185   5.010   1.517   0.965 -0.3622 -0.1862 -0.0381
 4855SOL    HW219186   5.036   1.456   1.034  1.6732  0.1865 -0.4199
 4855SOL    HW319187   5.051   1.600   0.990 -2.5227  0.9109  0.1169
 4855SOL    MW419188   5.019   1.520   0.978 -0.3787  0.0078 -0.0681
 4856SOL     OW19189   4.126   0.951   4.256  0.0958 -0.7451  0.4157
 4856SOL    HW219190   4.126   0.997   4.172 -0.5870 -2.4684 -0.5738
 4856SOL    HW319191   4.207   0.980   4.299 -0.1244  1.0618 -0.2980
 4856SOL    MW419192   4.137   0.961   4.251 -0.0233 -0.7340  0.1910
 4857SOL     OW19193   3.459   3.184   5.866 -0.2545 -0.0686 -0.2713
 4857SOL    HW219194   3.366   3.206   5.860 -0.4139 -0.2986  1.0628
 4857SOL    HW319195   3.464   3.091   5.845 -0.3804 -0.1279 -0.0482
 4857SOL    MW419196   3.447   3.175   5.863 -0.2921 -0.1068 -0.0658
 4858SOL     OW19197   4.567   5.748   5.181  0.6287  0.9134  0.0297
 4858SOL    HW219198   4.543   5.677   5.240  1.8322  1.4668  1.2758
 4858SOL    HW319199   4.488   5.766   5.131 -0.2588 -0.0298  1.0260
 4858SOL    MW419200   4.554   5.741   5.182  0.6704  0.8620  0.3256
 4859SOL     OW19201   3.199   3.458   0.439  0.1531 -0.2088 -0.6545
 4859SOL    HW219202   3.213   3.426   0.350 -1.6545 -0.7717 -0.7839
 4859SOL    HW319203   3.109   3.492   0.439  0.6292  1.1470  0.5755
 4859SOL    MW419204   3.189   3.458   0.427 -0.0225 -0.1041 -0.5093
 4860SOL     OW19205   0.549   6.238   0.507  0.0516  0.0559  0.1548
 4860SOL    HW219206   0.577   6.214   0.595  0.4586  0.3727  0.1114
 4860SOL    HW319207   0.561   6.159   0.455  1.5754  0.3920 -0.0328
 4860SOL    MW419208   0.554   6.225   0.511  0.3063  0.1421  0.1243
 4861SOL     OW19209   6.252   2.365   3.999 -0.1075 -0.1625 -0.0634
 4861SOL    HW219210   6.326   2.415   3.964  0.5883 -0.6159  0.7172
 4861SOL    HW319211   6.292   2.300   4.056 -1.1215 -0.3694  0.4372
 4861SOL    MW419212   6.267   2.363   4.002 -0.1495 -0.2496  0.1056
 4862SOL     OW19213   0.123   1.300   1.258 -0.2454  0.0693  0.5179
 4862SOL    HW219214   0.062   1.240   1.300  0.7689 -2.0630 -0.8961
 4862SOL    HW319215   0.110   1.287   1.164 -0.7422  2.9121  0.1053
 4862SOL    MW419216   0.114   1.290   1.251 -0.1772  0.1631  0.2769
 4863SOL     OW19217   4.095   6.091   5.974  0.4862  0.1434 -0.5328
 4863SOL    HW219218   4.176   6.116   5.930 -0.8453  0.6433 -2.8245
 4863SOL    HW319219   4.075   6.005   5.939 -0.4231  0.4027 -0.6604
 4863SOL    MW419220   4.103   6.083   5.964  0.1905  0.2435 -0.8520
 4864SOL     OW19221   4.499   3.061   5.002 -0.3123  0.0185  0.1601
 4864SOL    HW219222   4.456   3.038   5.085 -1.9714  1.1328 -0.3489
 4864SOL    HW319223   4.591   3.075   5.026 -1.0362  2.0034  2.1864
 4864SOL    MW419224   4.506   3.060   5.016 -0.6267  0.4274  0.3603
 4865SOL     OW19225   3.668   0.040   0.536  0.5262  0.1173 -0.3361
 4865SOL    HW219226   3.644   0.075   0.451  0.0271  0.0263 -0.2344
 4865SOL    HW319227   3.695   0.116   0.587  0.0953  0.2684 -0.3319
 4865SOL    MW419228   3.669   0.054   0.532  0.4035  0.1253 -0.3221
 4866SOL     OW19229   3.447   4.574   1.605  0.0312 -0.5121 -0.4048
 4866SOL    HW219230   3.531   4.615   1.585  0.0500 -0.7451 -0.8250
 4866SOL    HW319231   3.391   4.598   1.531 -1.0738  1.8088  1.0760
 4866SOL    MW419232   3.450   4.582   1.592 -0.1121 -0.2366 -0.2649
 4867SOL     OW19233   4.964   0.445   0.010  0.3879  0.0155 -0.1553
 4867SOL    HW219234   5.036   0.431  -0.051 -0.9998 -1.5280 -1.5360
 4867SOL    HW319235   4.929   0.531  -0.012  0.8038  0.0830 -0.5607
 4867SOL    MW419236   4.969   0.454  -0.001  0.2597 -0.1793 -0.3910
 4868SOL     OW19237   2.325   2.417   2.621  0.1018 -0.3898  0.0767
 4868SOL    HW219238   2.336   2.487   2.556 -1.3652  0.5390  0.7559
 4868SOL    HW319239   2.254   2.363   2.586  1.4031 -1.7242 -0.5674
 4868SOL    MW419240   2.317   2.419   2.608  0.0799 -0.4433  0.0813
 4869SOL     OW19241   0.723   2.002   4.823  0.1809  0.4093 -0.1589
 4869SOL    HW219242   0.722   1.949   4.902 -0.0478  0.1492 -0.3366
 4869SOL    HW319243   0.667   1.956   4.761  0.2206  0.6989 -0.4174
 4869SOL    MW419244   0.716   1.989   4.825  0.1560  0.4132 -0.2164
 4870SOL     OW19245   2.228   5.073   4.575  0.1533  0.1071  0.0069
 4870SOL    HW219246   2.213   5.163   4.547  0.5657  0.4909  0.9788
 4870SOL    HW319247   2.260   5.028   4.497  0.8677  1.0423 -0.2519
 4870SOL    MW419248   2.230   5.079   4.561  0.3020  0.2811  0.1010
 4871SOL     OW19249   0.322   4.490   2.217 -0.1010 -0.3263  0.1303
 4871SOL    HW219250   0.343   4.417   2.158  0.8116 -0.5901  0.7518
 4871SOL    HW319251   0.399   4.546   2.214 -0.4048  0.1100  0.4090
 4871SOL    MW419252   0.335   4.488   2.209 -0.0207 -0.3036  0.2491
 4872SOL     OW19253   4.938   4.297   6.290 -0.0055 -0.0906 -1.0807
 4872SOL    HW219254   4.976   4.241   6.222  1.1654 -1.3650  0.5607
 4872SOL    HW319255   4.844   4.282   6.284  0.2897 -2.3872 -0.5976
 4872SOL    MW419256   4.930   4.288   6.280  0.1879 -0.5618 -0.8004
 4873SOL     OW19257   0.477   2.736   5.003  0.2150  0.1037 -0.5000
 4873SOL    HW219258   0.420   2.813   5.003  0.0626 -0.0083 -0.9605
 4873SOL    HW319259   0.443   2.682   5.075  1.4923  1.3050  1.0784
 4873SOL    MW419260   0.465   2.739   5.013  0.3634  0.2474 -0.3525
 4874SOL     OW19261   4.481   4.465   5.225  0.2296  0.2866 -0.1493
 4874SOL    HW219262   4.400   4.483   5.274 -0.4205  0.6966 -1.3378
 4874SOL    HW319263   4.544   4.528   5.258  0.0609  0.0043  0.7505
 4874SOL    MW419264   4.478   4.476   5.236  0.1216  0.3034 -0.1874
 4875SOL     OW19265   0.522   4.547   4.490 -0.7592 -0.5506 -0.0492
 4875SOL    HW219266   0.430   4.550   4.461 -0.8133 -3.7586 -0.5305
 4875SOL    HW319267   0.572   4.562   4.411 -0.8663 -0.1674 -0.0461
 4875SOL    MW419268   0.516   4.550   4.476 -0.7805 -0.9233 -0.1123
 4876SOL     OW19269   0.095   0.237   1.306 -0.1278 -0.3310 -0.3546
 4876SOL    HW219270   0.112   0.310   1.366 -2.8177  0.5373 -0.5065
 4876SOL    HW319271   0.075   0.163   1.364 -0.0805 -0.2160 -0.1901
 4876SOL    MW419272   0.094   0.237   1.322 -0.4765 -0.2012 -0.3530
 4877SOL     OW19273   2.202   2.620   5.810 -0.7003 -0.4227 -0.0827
 4877SOL    HW219274   2.232   2.556   5.875  0.1960  0.3072  0.2499
 4877SOL    HW319275   2.113   2.642   5.838 -0.5838 -0.6499  0.4909
 4877SOL    MW419276   2.194   2.615   5.822 -0.5667 -0.3564  0.0368
 4878SOL     OW19277   2.813   2.847   5.837 -0.1983 -0.2106 -0.0228
 4878SOL    HW219278   2.879   2.788   5.802 -0.5858 -0.3213 -0.5708
 4878SOL    HW319279   2.844   2.935   5.816 -0.1660 -0.2585 -0.1714
 4878SOL    MW419280   2.826   2.851   5.830 -0.2451 -0.2316 -0.1147
 4879SOL     OW19281   2.721   0.339   5.410  0.3411 -0.1383 -0.4604
 4879SOL    HW219282   2.697   0.354   5.502  1.9817 -0.1462 -0.0132
 4879SOL    HW319283   2.720   0.425   5.370 -1.3368 -0.2383 -0.7089
 4879SOL    MW419284   2.717   0.352   5.417  0.3362 -0.1526 -0.4342
 4880SOL     OW19285   0.092   0.823   0.958  0.1419  0.4558  0.3652
 4880SOL    HW219286   0.114   0.833   0.866 -1.4065  2.1228  0.1302
 4880SOL    HW319287   0.136   0.896   1.002  4.2896 -2.4694  1.7329
 4880SOL    MW419288   0.101   0.834   0.952  0.4849  0.2898  0.5147
 4881SOL     OW19289   4.075   5.214   3.451 -0.2523  0.0238 -0.2942
 4881SOL    HW219290   3.980   5.226   3.457 -0.0931  2.7245 -1.6038
 4881SOL    HW319291   4.091   5.196   3.359  0.5763  0.5485 -0.2636
 4881SOL    MW419292   4.065   5.214   3.440 -0.1220  0.4494 -0.4629
 4882SOL     OW19293   5.337   1.066   1.416  0.3673  0.5951  0.0468
 4882SOL    HW219294   5.253   1.043   1.375  0.5772  0.8355 -0.5246
 4882SOL    HW319295   5.379   1.124   1.353  0.8837  0.6274  0.4191
 4882SOL    MW419296   5.331   1.071   1.402  0.4631  0.6311  0.0205
 4883SOL     OW19297   4.687   0.377   1.687 -0.4165 -0.2786 -0.3834
 4883SOL    HW219298   4.704   0.333   1.770 -1.0852 -0.3337 -0.2690
 4883SOL    HW319299   4.631   0.317   1.639 -0.0631 -0.2270 -0.8576
 4883SOL    MW419300   4.682   0.363   1.692 -0.4581 -0.2791 -0.4309
 4884SOL     OW19301   1.399   1.599   4.844 -0.3473 -0.3275  0.0827
 4884SOL    HW219302   1.428   1.623   4.932 -0.7968 -0.8404  0.3765
 4884SOL    HW319303   1.471   1.626   4.787 -0.4524  0.8706  0.4921
 4884SOL    MW419304   1.412   1.606   4.848 -0.4205 -0.2371  0.1755
 4885SOL     OW19305   5.594   6.036   0.905 -0.0259  0.0142 -0.4075
 4885SOL    HW219306   5.633   6.120   0.880 -1.1243  0.4810 -0.5890
 4885SOL    HW319307   5.531   6.058   0.973  0.6420 -0.8509  0.5036
 4885SOL    MW419308   5.591   6.050   0.910 -0.0827 -0.0384 -0.3112
 4886SOL     OW19309   0.251   1.807   4.753  0.2316 -0.0771  0.1705
 4886SOL    HW219310   0.167   1.820   4.798 -0.9545  1.9533 -2.3281
 4886SOL    HW319311   0.227   1.767   4.669  1.7057  0.8421 -0.7372
 4886SOL    MW419312   0.236   1.803   4.748  0.2696  0.3121 -0.2790
 4887SOL     OW19313   2.634   2.087   6.058  0.3390  0.3154 -0.2461
 4887SOL    HW219314   2.635   2.170   6.105  0.0671  0.8469 -1.1663
 4887SOL    HW319315   2.614   2.110   5.967  0.5855 -0.7187 -0.5814
 4887SOL    MW419316   2.632   2.101   6.052  0.3356  0.2491 -0.4117
 4888SOL     OW19317   5.359   0.442   4.995  0.1359  0.4243 -0.4096
 4888SOL    HW219318   5.382   0.488   4.914  0.6050 -1.3555 -1.3496
 4888SOL    HW319319   5.423   0.370   5.001 -1.7869 -1.3706 -0.1675
 4888SOL    MW419320   5.371   0.438   4.985 -0.0559 -0.0473 -0.5017
 4889SOL     OW19321   2.864   1.356   5.083  0.0471 -0.2993 -0.4176
 4889SOL    HW219322   2.832   1.440   5.052  1.6729  0.6532  0.3661
 4889SOL    HW319323   2.892   1.310   5.004 -0.0116  0.2510 -0.7628
 4889SOL    MW419324   2.863   1.361   5.069  0.2538 -0.1010 -0.3597
 4890SOL     OW19325   1.941   2.397   5.234  0.1206  0.3581 -0.6275
 4890SOL    HW219326   1.999   2.473   5.231 -0.2064  0.7074  0.8362
 4890SOL    HW319327   1.998   2.324   5.261  0.5221 -0.0470 -2.4478
 4890SOL    MW419328   1.956   2.397   5.237  0.1304  0.3507 -0.6746
 4891SOL     OW19329   5.473   2.024   6.107 -0.2149  0.3821  0.2557
 4891SOL    HW219330   5.529   1.964   6.155 -0.8686 -1.3113 -0.9845
 4891SOL    HW319331   5.385   2.007   6.139 -0.3134  1.3569  0.5414
 4891SOL    MW419332   5.469   2.014   6.117 -0.3142  0.2873  0.1298
 4892SOL     OW19333   2.310   2.090   3.675 -0.1868 -0.0427 -0.4786
 4892SOL    HW219334   2.303   1.999   3.648  0.0294  0.4601 -2.3440
 4892SOL    HW319335   2.248   2.136   3.619 -1.0335  0.8549  1.1218
 4892SOL    MW419336   2.301   2.084   3.664 -0.2700  0.1421 -0.5135
 4893SOL     OW19337   2.310   0.373   1.926 -0.3544 -0.1230 -0.6309
 4893SOL    HW219338   2.334   0.341   1.839 -0.8601 -1.2423 -0.3800
 4893SOL    HW319339   2.232   0.426   1.911 -0.4866 -0.3764 -0.8555
 4893SOL    MW419340   2.303   0.376   1.913 -0.4386 -0.3041 -0.6275
 4894SOL     OW19341   1.547   6.395   2.545  0.9221 -0.2150 -0.1189
 4894SOL    HW219342   1.606   6.469   2.530  0.9064 -0.2914 -0.5716
 4894SOL    HW319343   1.478   6.405   2.479 -0.3536  0.6523  1.2932
 4894SOL    MW419344   1.546   6.406   2.534  0.7517 -0.1107  0.0077
 4895SOL     OW19345   1.445   5.380   4.431 -0.2587 -0.4699 -0.1073
 4895SOL    HW219346   1.401   5.301   4.463 -1.6899  0.4817  0.3972
 4895SOL    HW319347   1.482   5.354   4.347 -0.9554 -1.6102 -0.0906
 4895SOL    MW419348   1.444   5.366   4.424 -0.5394 -0.4948 -0.0385
 4896SOL     OW19349   4.874   5.744   0.601  0.1084 -0.3532  0.1016
 4896SOL    HW219350   4.885   5.831   0.640 -1.4458  0.4383 -1.0865
 4896SOL    HW319351   4.901   5.683   0.670 -1.1244  1.0158  1.9000
 4896SOL    MW419352   4.879   5.747   0.615 -0.2593 -0.0681  0.1822
 4897SOL     OW19353   4.697   1.338   4.329  0.5017 -0.1591 -0.1734
 4897SOL    HW219354   4.702   1.243   4.313  1.5588 -0.2021  0.3394
 4897SOL    HW319355   4.620   1.366   4.281  0.1242 -1.3024 -0.2654
 4897SOL    MW419356   4.688   1.329   4.321  0.5913 -0.3156 -0.1179
 4898SOL     OW19357   6.297   1.032   1.104 -0.0143  0.1576  0.0794
 4898SOL    HW219358   6.266   1.016   1.193  0.3521 -0.3131  0.1232
 4898SOL    HW319359   6.285   0.949   1.058  0.1266  0.2971 -0.2174
 4898SOL    MW419360   6.291   1.019   1.109  0.0526  0.1139  0.0460
 4899SOL     OW19361   5.431   4.275   3.118 -0.0521  0.4689 -0.2791
 4899SOL    HW219362   5.497   4.342   3.103 -0.7148  1.2038  0.0118
 4899SOL    HW319363   5.398   4.254   3.031  0.1312  0.5396 -0.3668
 4899SOL    MW419364   5.435   4.281   3.104 -0.1154  0.5752 -0.2523
 4900SOL     OW19365   2.715   1.355   3.646 -0.2264 -0.2278  0.1204
 4900SOL    HW219366   2.668   1.387   3.722  0.8517 -0.0068  0.7076
 4900SOL    HW319367   2.647   1.324   3.587 -1.0511 -0.7527  1.3290
 4900SOL    MW419368   2.700   1.355   3.648 -0.1930 -0.2679  0.3573
 4901SOL     OW19369   5.340   0.752   0.417 -0.5906  0.0326  0.1321
 4901SOL    HW219370   5.288   0.817   0.368  0.0645 -0.7919 -1.7615
 4901SOL    HW319371   5.321   0.669   0.374  1.4508 -0.4531  0.0806
 4901SOL    MW419372   5.330   0.750   0.405 -0.2348 -0.1403 -0.1245
 4902SOL     OW19373   1.219   3.230   4.906 -0.1361 -0.5569  0.1627
 4902SOL    HW219374   1.283   3.224   4.977  0.5869  0.7343 -0.3507
 4902SOL    HW319375   1.158   3.298   4.935 -0.1669 -0.4250 -0.2148
 4902SOL    MW419376   1.219   3.238   4.919 -0.0448 -0.3692  0.0452
 4903SOL     OW19377   5.652   4.833   1.758 -0.3491  0.0889 -0.2044
 4903SOL    HW219378   5.601   4.837   1.839 -0.0872  2.3391 -0.0881
 4903SOL    HW319379   5.602   4.885   1.695 -1.4749 -3.0890 -2.1369
 4903SOL    MW419380   5.639   4.841   1.761 -0.4631 -0.0335 -0.4440
 4904SOL     OW19381   1.307   1.869   4.388 -0.3746  0.4705 -0.7034
 4904SOL    HW219382   1.274   1.953   4.418 -0.0308 -0.0151  1.1778
 4904SOL    HW319383   1.397   1.887   4.359 -0.7172  0.9527 -1.5041
 4904SOL    MW419384   1.315   1.882   4.388 -0.3744  0.4701 -0.5608
 4905SOL     OW19385   2.585   5.172   5.255 -0.1820 -0.2139 -0.2077
 4905SOL    HW219386   2.595   5.190   5.161 -0.5897 -0.8902 -0.3884
 4905SOL    HW319387   2.622   5.249   5.298 -0.6998  0.4613 -0.9375
 4905SOL    MW419388   2.591   5.185   5.248 -0.3042 -0.2140 -0.3278
 4906SOL     OW19389   3.921   2.115   2.333 -0.5379  0.6024 -0.6630
 4906SOL    HW219390   3.882   2.126   2.246 -0.0399 -2.5709 -1.4295
 4906SOL    HW319391   3.848   2.089   2.389 -0.3556 -0.8524 -1.0409
 4906SOL    MW419392   3.906   2.113   2.329 -0.4481 -0.0083 -0.8140
 4907SOL     OW19393   3.607   4.635   4.510 -0.4949  0.4487  0.4763
 4907SOL    HW219394   3.622   4.722   4.473  0.2419  0.5528  0.9760
 4907SOL    HW319395   3.554   4.650   4.588  0.4286  0.5769  1.1011
 4907SOL    MW419396   3.602   4.648   4.516 -0.2759  0.4793  0.6247
 4908SOL     OW19397   4.376   3.487   3.676  0.4572 -0.1397  0.2034
 4908SOL    HW219398   4.357   3.433   3.600 -0.5507 -0.0060  0.3406
 4908SOL    HW319399   4.472   3.491   3.680  0.5395  0.7869 -1.7110
 4908SOL    MW419400   4.386   3.480   3.667  0.3351  0.0002 -0.0311
 4909SOL     OW19401   3.838   5.654   1.687  0.6160 -0.2826 -0.3910
 4909SOL    HW219402   3.911   5.661   1.748  0.9081 -0.1105 -0.7534
 4909SOL    HW319403   3.870   5.697   1.607 -0.1624  0.4972 -0.3002
 4909SOL    MW419404   3.852   5.661   1.685  0.5519 -0.1570 -0.4268
 4910SOL     OW19405   5.904   1.086   0.070 -0.3765  0.2858 -0.0969
 4910SOL    HW219406   5.896   1.019   0.137  2.8995 -1.6860 -1.4275
 4910SOL    HW319407   5.934   1.164   0.117 -3.1080  0.6033  1.3055
 4910SOL    MW419408   5.907   1.087   0.085 -0.3046  0.0675 -0.0874
 4911SOL     OW19409   2.315   5.545   6.267  0.0359 -0.0018 -0.2052
 4911SOL    HW219410   2.325   5.497   6.185 -0.3389 -0.9737  0.3055
 4911SOL    HW319411   2.315   5.477   6.335 -0.7584  0.6894  0.5105
 4911SOL    MW419412   2.316   5.530   6.265 -0.1183 -0.0388 -0.0434
 4912SOL     OW19413   4.230   1.161   3.318 -0.2407 -0.4131  0.0360
 4912SOL    HW219414   4.228   1.125   3.407  0.0206 -1.9474 -0.5598
 4912SOL    HW319415   4.180   1.243   3.325 -0.6650 -0.7564  1.4808
 4912SOL    MW419416   4.223   1.167   3.331 -0.2622 -0.6609  0.1481
 4913SOL     OW19417   0.607   6.152   0.770  0.6527  0.0538  0.3701
 4913SOL    HW219418   0.586   6.059   0.772  0.6282  0.0488 -0.0758
 4913SOL    HW319419   0.699   6.156   0.796  0.6287 -0.0866  0.4764
 4913SOL    MW419420   0.617   6.140   0.774  0.6463  0.0346  0.3253
 4914SOL     OW19421   4.946   1.134   4.764  0.1997  0.2020 -0.3030
 4914SOL    HW219422   4.861   1.117   4.724 -0.3573  0.2494  0.8461
 4914SOL    HW319423   4.979   1.212   4.718 -0.5157  0.3817 -0.5149
 4914SOL    MW419424   4.939   1.142   4.753  0.0318  0.2320 -0.1793
 4915SOL     OW19425   5.289   5.032   4.428 -0.1241  0.1997 -0.4038
 4915SOL    HW219426   5.232   5.005   4.356  0.0122 -3.5372  0.7071
 4915SOL    HW319427   5.373   4.992   4.408  0.0459 -0.5035  1.5587
 4915SOL    MW419428   5.292   5.023   4.416 -0.0837 -0.3861  0.0017
 4916SOL     OW19429   0.556   3.171   2.564 -0.1706 -0.3273 -0.0157
 4916SOL    HW219430   0.550   3.079   2.588  0.7701 -0.6492 -0.9527
 4916SOL    HW319431   0.636   3.203   2.606 -0.9385  0.3007  1.0109
 4916SOL    MW419432   0.566   3.163   2.572 -0.1478 -0.2869 -0.0039
 4917SOL     OW19433   4.218   4.299   6.279 -0.1189 -0.0804  0.2886
 4917SOL    HW219434   4.154   4.337   6.339 -4.1862 -2.6534 -1.9866
 4917SOL    HW319435   4.241   4.215   6.318  0.2409 -0.0894  0.0632
 4917SOL    MW419436   4.212   4.293   6.292 -0.6081 -0.4210 -0.0414
 4918SOL     OW19437   2.351   1.416   3.551 -0.4989 -0.0339 -0.6603
 4918SOL    HW219438   2.268   1.450   3.519 -0.3346 -1.7072 -3.2364
 4918SOL    HW319439   2.412   1.489   3.540 -1.4744  1.0467  0.7805
 4918SOL    MW419440   2.348   1.430   3.545 -0.6059 -0.1121 -0.8101
 4919SOL     OW19441   1.279   1.879   6.213 -0.3614  0.4231  0.2082
 4919SOL    HW219442   1.328   1.821   6.154  1.9030  1.4053  1.0441
 4919SOL    HW319443   1.309   1.855   6.301 -0.4911  1.8582  0.6631
 4919SOL    MW419444   1.289   1.868   6.217 -0.0798  0.7421  0.3785
 4920SOL     OW19445   5.443   4.711   2.600  0.5836  0.1690 -0.1109
 4920SOL    HW219446   5.432   4.628   2.646 -1.3531  1.3310  1.6617
 4920SOL    HW319447   5.357   4.730   2.563  0.5428  2.1260  0.8749
 4920SOL    MW419448   5.430   4.703   2.601  0.3227  0.5805  0.2530
 4921SOL     OW19449   1.136   1.016   4.210 -0.0770 -0.2490 -0.0909
 4921SOL    HW219450   1.148   1.070   4.288 -0.9679  0.2711 -0.3060
 4921SOL    HW319451   1.158   1.073   4.137  0.6442 -0.6996 -0.2357
 4921SOL    MW419452   1.141   1.030   4.210 -0.0994 -0.2398 -0.1384
 4922SOL     OW19453   3.443   2.143   2.403 -0.4423  0.3639 -0.1090
 4922SOL    HW219454   3.517   2.202   2.390  1.1891 -1.2972  1.0805
 4922SOL    HW319455   3.446   2.120   2.496 -1.2514 -1.2359 -0.4330
 4922SOL    MW419456   3.453   2.148   2.413 -0.3338 -0.0663  0.0052
 4923SOL     OW19457   0.751   0.986   5.225 -0.2145  0.4081 -0.1080
 4923SOL    HW219458   0.703   1.001   5.306 -0.1384 -1.0362  0.2331
 4923SOL    HW319459   0.700   0.919   5.179  0.7185 -0.1332 -0.3816
 4923SOL    MW419460   0.738   0.979   5.230 -0.0813  0.1462 -0.0991
 4924SOL     OW19461   4.112   1.557   2.441 -0.0470  0.2179 -0.6492
 4924SOL    HW219462   4.096   1.568   2.535 -0.5191 -0.9674 -0.5819
 4924SOL    HW319463   4.026   1.567   2.401 -0.0187 -0.3086 -0.8484
 4924SOL    MW419464   4.099   1.560   2.448 -0.1056 -0.0079 -0.6666
 4925SOL     OW19465   3.006   3.657   4.260  0.0675 -0.0728  0.3792
 4925SOL    HW219466   3.053   3.604   4.325 -0.7145 -1.9236 -0.4791
 4925SOL    HW319467   3.026   3.747   4.284  0.9967 -0.7178  2.2877
 4925SOL    MW419468   3.015   3.662   4.272  0.0869 -0.4021  0.5178
 4926SOL     OW19469   0.931   0.794   3.035  0.1005 -0.4136 -0.2519
 4926SOL    HW219470   0.901   0.731   3.101 -0.2452  1.3672  1.4105
 4926SOL    HW319471   0.972   0.864   3.086  0.0143  0.9603 -1.9679
 4926SOL    MW419472   0.933   0.795   3.051  0.0435  0.0026 -0.2589
 4927SOL     OW19473   0.005   5.022   0.937 -0.4629 -0.2831  0.0528
 4927SOL    HW219474   0.069   5.084   0.903 -0.7730  0.4544  0.7517
 4927SOL    HW319475  -0.063   5.018   0.870  0.8585 -2.0248 -1.2649
 4927SOL    MW419476   0.004   5.030   0.924 -0.3294 -0.4156 -0.0288
 4928SOL     OW19477   3.182   4.908   0.768  0.0020  0.3726 -0.4813
 4928SOL    HW219478   3.267   4.952   0.771  0.4844 -0.5747  0.3437
 4928SOL    HW319479   3.155   4.903   0.860  0.5246 -2.0350 -0.3883
 4928SOL    MW419480   3.190   4.913   0.781  0.1346 -0.0701 -0.3602
 4929SOL     OW19481   1.010   0.956   2.375 -0.2098 -0.0603 -0.0332
 4929SOL    HW219482   0.923   0.922   2.356  0.9117 -2.0827 -2.0514
 4929SOL    HW319483   1.000   1.051   2.375 -2.4479 -0.2587  0.1077
 4929SOL    MW419484   0.997   0.964   2.372 -0.3571 -0.3533 -0.2809
 4930SOL     OW19485   5.859  -0.002   5.140  0.2037 -0.4666 -0.1966
 4930SOL    HW219486   5.878   0.060   5.069 -0.6460 -0.9031 -0.8196
 4930SOL    HW319487   5.789  -0.058   5.105  0.9727 -1.8076  0.3290
 4930SOL    MW419488   5.852  -0.001   5.126  0.1930 -0.7011 -0.2095
 4931SOL     OW19489   2.679   3.550   4.053 -0.4190 -0.3684  0.2275
 4931SOL    HW219490   2.615   3.547   4.124  0.6510  0.7617  1.2938
 4931SOL    HW319491   2.738   3.477   4.071 -0.2439 -0.1806  0.4376
 4931SOL    MW419492   2.678   3.540   4.065 -0.2547 -0.1945  0.3959
 4932SOL     OW19493   1.081   0.809   5.375  0.4326 -0.2734 -0.1345
 4932SOL    HW219494   1.003   0.770   5.416  0.0235 -0.4327 -1.0357
 4932SOL    HW319495   1.097   0.754   5.298  0.8300  0.3756 -0.5146
 4932SOL    MW419496   1.073   0.796   5.370  0.4311 -0.2088 -0.3036
 4933SOL     OW19497   3.806   5.449   4.791 -0.2922 -0.3909 -0.0738
 4933SOL    HW219498   3.721   5.404   4.795  0.4019 -1.6622  1.5321
 4933SOL    HW319499   3.863   5.389   4.743 -0.2455  0.3929 -1.0184
 4933SOL    MW419500   3.802   5.435   4.785 -0.1944 -0.4552  0.0134
 4934SOL     OW19501   5.714   3.534   5.603 -0.2415 -0.7720  0.3152
 4934SOL    HW219502   5.806   3.509   5.590 -0.2709 -0.0056 -1.7513
 4934SOL    HW319503   5.666   3.452   5.596  0.1529 -0.9582 -0.3167
 4934SOL    MW419504   5.720   3.520   5.600 -0.1933 -0.6954 -0.0408
 4935SOL     OW19505   2.699   5.085   0.271  0.4498  0.2001 -0.1048
 4935SOL    HW219506   2.764   5.154   0.264  0.3325  0.4313  0.9086
 4935SOL    HW319507   2.694   5.046   0.184  0.3036  1.6565 -0.7614
 4935SOL    MW419508   2.707   5.089   0.259  0.4150  0.4228 -0.0577
 4936SOL     OW19509   4.907   2.424   5.521 -0.1025  0.3972 -0.4692
 4936SOL    HW219510   4.943   2.423   5.433 -0.1503 -0.2008 -0.4827
 4936SOL    HW319511   4.840   2.356   5.522  0.7101 -0.4288  0.3567
 4936SOL    MW419512   4.903   2.415   5.510 -0.0016  0.2093 -0.3620
 4937SOL     OW19513   5.451   2.355   3.234 -0.0265 -0.1295 -0.4154
 4937SOL    HW219514   5.456   2.448   3.257 -2.7906 -0.4238  1.9304
 4937SOL    HW319515   5.538   2.334   3.200  1.8387  2.5304  2.1722
 4937SOL    MW419516   5.463   2.365   3.233 -0.1451  0.1826  0.2355
 4938SOL     OW19517   4.316   1.649   1.832  0.3063  0.6749 -0.0651
 4938SOL    HW219518   4.348   1.739   1.827  1.5452  0.2930  0.7600
 4938SOL    HW319519   4.253   1.650   1.904 -0.1887  1.0180 -0.4942
 4938SOL    MW419520   4.312   1.661   1.841  0.4044  0.6698 -0.0129
 4939SOL     OW19521   4.241   6.383   3.415  0.2811 -0.2365 -0.2119
 4939SOL    HW219522   4.289   6.465   3.402  1.2229 -0.5847  0.9804
 4939SOL    HW319523   4.258   6.332   3.336 -0.6089  0.8291 -1.1376
 4939SOL    MW419524   4.249   6.387   3.403  0.2880 -0.1419 -0.1767
 4940SOL     OW19525   0.993   4.360   1.047 -0.6669  0.2069 -0.1707
 4940SOL    HW219526   0.996   4.265   1.033 -1.5625  0.1540 -0.0659
 4940SOL    HW319527   0.905   4.377   1.081 -1.7012  1.4687 -3.1409
 4940SOL    MW419528   0.982   4.350   1.050 -0.9215  0.3664 -0.5487
 4941SOL     OW19529   2.192   3.668   0.270 -0.2321  0.1233  0.7603
 4941SOL    HW219530   2.208   3.759   0.297 -1.2918  0.1694  1.2716
 4941SOL    HW319531   2.165   3.624   0.351 -0.6673 -0.4262  0.3189
 4941SOL    MW419532   2.191   3.674   0.284 -0.4294  0.0569  0.7695
 4942SOL     OW19533   3.598   0.171   0.282  0.0614 -0.1228  0.7694
 4942SOL    HW219534   3.516   0.192   0.238  0.0678  0.4169  1.0033
 4942SOL    HW319535   3.615   0.247   0.338  2.6280  1.6587 -2.0665
 4942SOL    MW419536   3.590   0.184   0.284  0.4009  0.1835  0.4261
 4943SOL     OW19537   4.824   0.559   3.492  0.0131  0.0657 -0.0448
 4943SOL    HW219538   4.914   0.527   3.496  0.0593  0.2207  0.1684
 4943SOL    HW319539   4.771   0.481   3.479  0.3173  0.1508 -2.0390
 4943SOL    MW419540   4.829   0.545   3.491  0.0594  0.0974 -0.2798
 4944SOL     OW19541   0.078   0.956   3.007 -0.5256 -0.3732 -0.4299
 4944SOL    HW219542   0.172   0.966   2.991 -0.3551  0.3568  0.9105
 4944SOL    HW319543   0.060   0.865   2.985  0.8221 -0.9730  0.7986
 4944SOL    MW419544   0.088   0.946   3.002 -0.3253 -0.3560 -0.0910
 4945SOL     OW19545   3.162   3.767   0.934  0.1995 -0.5309  0.0939
 4945SOL    HW219546   3.205   3.702   0.989  0.9930 -0.4533 -0.4174
 4945SOL    HW319547   3.107   3.817   0.994  0.7999 -0.6579  0.7638
 4945SOL    MW419548   3.160   3.765   0.949  0.3834 -0.5374  0.1148
 4946SOL     OW19549   3.416   5.952   0.160  0.0603  0.0210 -0.0829
 4946SOL    HW219550   3.447   5.867   0.130 -0.0322 -0.1441  0.2799
 4946SOL    HW319551   3.493   6.008   0.160 -0.2421  0.5167 -2.2842
 4946SOL    MW419552   3.430   5.948   0.156  0.0082  0.0646 -0.3254
 4947SOL     OW19553   0.059   4.515   1.405 -0.4545 -0.1891  0.0574
 4947SOL    HW219554   0.069   4.610   1.394 -2.6830  0.1110 -0.0530
 4947SOL    HW319555   0.126   4.477   1.350  0.4617  1.3265  0.0612
 4947SOL    MW419556   0.069   4.523   1.396 -0.6276  0.0504  0.0434
 4948SOL     OW19557   3.675   0.461   4.270  0.4308  0.6784 -0.5653
 4948SOL    HW219558   3.650   0.402   4.342  0.4296  1.1281 -0.1958
 4948SOL    HW319559   3.668   0.406   4.191 -1.3336  0.6635 -0.4444
 4948SOL    MW419560   3.671   0.446   4.269  0.1979  0.7358 -0.5006
 4949SOL     OW19561   1.949   5.000   4.651  0.2471  0.1582  0.1682
 4949SOL    HW219562   1.984   4.933   4.710 -0.0112 -0.0715  0.0651
 4949SOL    HW319563   2.023   5.025   4.596 -0.1394 -1.6197 -1.2655
 4949SOL    MW419564   1.964   4.994   4.652  0.1621 -0.1067 -0.0346
 4950SOL     OW19565   2.170   4.524   5.005 -0.1322  0.1324 -0.1524
 4950SOL    HW219566   2.095   4.469   4.981  0.1267 -0.6916  0.8718
 4950SOL    HW319567   2.135   4.585   5.070 -0.1176  0.3184 -0.3195
 4950SOL    MW419568   2.155   4.525   5.011 -0.0961  0.0483 -0.0393
 4951SOL     OW19569   3.365   0.464   3.883  0.4698  0.2556 -0.4898
 4951SOL    HW219570   3.407   0.420   3.957  0.6063  0.3345 -0.5186
 4951SOL    HW319571   3.371   0.402   3.811 -2.0536 -0.9371  0.2239
 4951SOL    MW419572   3.372   0.450   3.883  0.1549  0.1086 -0.3994
 4952SOL     OW19573   1.656   1.488   0.748 -0.2254  0.0162  0.0580
 4952SOL    HW219574   1.667   1.548   0.674  0.3170 -0.0062  0.1237
 4952SOL    HW319575   1.635   1.545   0.822  2.3295  0.3534  0.6038
 4952SOL    MW419576   1.654   1.504   0.748  0.1832  0.0578  0.1387
 4953SOL     OW19577   5.426   5.711   4.294  0.5848  0.4390  0.2953
 4953SOL    HW219578   5.346   5.713   4.348  0.4585 -0.2465  0.1395
 4953SOL    HW319579   5.476   5.787   4.324  1.1783 -0.7078  2.3919
 4953SOL    MW419580   5.422   5.722   4.305  0.6465  0.1973  0.5514
 4954SOL     OW19581   0.859   4.850   1.191 -0.4539 -0.3528  0.7493
 4954SOL    HW219582   0.919   4.795   1.141  2.3071  0.7749  2.5590
 4954SOL    HW319583   0.825   4.792   1.259 -0.4569 -0.7134  0.4412
 4954SOL    MW419584   0.863   4.835   1.194 -0.0900 -0.2516  0.9474
 4955SOL     OW19585   4.700   6.194   5.346 -0.0612 -0.1599  0.4656
 4955SOL    HW219586   4.642   6.121   5.326  0.1265 -0.4611  0.9996
 4955SOL    HW319587   4.754   6.163   5.418  1.6295 -0.3295 -0.8366
 4955SOL    MW419588   4.699   6.181   5.353  0.1867 -0.2220  0.3642
 4956SOL     OW19589   5.135   6.211   3.269 -0.6204 -0.9994  0.3294
 4956SOL    HW219590   5.143   6.151   3.343  0.1406 -1.9328 -0.4804
 4956SOL    HW319591   5.221   6.251   3.260 -0.7928 -0.6629  0.1296
 4956SOL    MW419592   5.147   6.209   3.277 -0.5427 -1.0782  0.1962
 4957SOL     OW19593   6.354   3.760   4.771 -0.1390  0.0649 -0.0904
 4957SOL    HW219594   6.316   3.674   4.790  0.9377 -0.8442 -1.8071
 4957SOL    HW319595   6.285   3.807   4.725 -0.7386  0.1436  0.8643
 4957SOL    MW419596   6.340   3.755   4.767 -0.0761 -0.0447 -0.1909
 4958SOL     OW19597   4.300   5.196   0.345  0.0439  0.1351  0.1553
 4958SOL    HW219598   4.267   5.227   0.429 -1.4058 -1.8104  0.3699
 4958SOL    HW319599   4.242   5.236   0.280 -0.1274  0.0169  0.2349
 4958SOL    MW419600   4.288   5.205   0.347 -0.1699 -0.1372  0.1941
 4959SOL     OW19601   0.827   4.853   0.499  0.3116  0.1499  0.6607
 4959SOL    HW219602   0.799   4.766   0.471  0.6261 -0.8392  3.1479
 4959SOL    HW319603   0.781   4.868   0.582  1.7886  1.4602  1.3106
 4959SOL    MW419604   0.817   4.843   0.507  0.5479  0.1922  1.0746
 4960SOL     OW19605   2.185   5.364   4.058  0.1456  0.6169  0.0982
 4960SOL    HW219606   2.174   5.428   3.987  0.5068  1.3910  0.7339
 4960SOL    HW319607   2.268   5.387   4.099 -1.3757  2.0398  2.6257
 4960SOL    MW419608   2.194   5.376   4.054 -0.0075  0.9068  0.5156
 4961SOL     OW19609   1.952   2.615   4.741  0.2639 -0.2280 -0.7000
 4961SOL    HW219610   2.042   2.644   4.722  0.1797 -0.0600 -0.8450
 4961SOL    HW319611   1.908   2.616   4.657  0.2758 -0.8614 -0.7183
 4961SOL    MW419612   1.958   2.619   4.728  0.2544 -0.2894 -0.7215
 4962SOL     OW19613   1.305   5.313   5.277  0.0440  0.3513  0.5995
 4962SOL    HW219614   1.336   5.233   5.235  0.1346  0.0679  1.1994
 4962SOL    HW319615   1.293   5.290   5.369 -1.2551  0.6425  0.5341
 4962SOL    MW419616   1.307   5.300   5.284 -0.1154  0.3523  0.6700
 4963SOL     OW19617   5.400   3.571   2.804  0.7592 -0.3712 -0.3216
 4963SOL    HW219618   5.469   3.581   2.870  1.0310 -2.1122 -0.3060
 4963SOL    HW319619   5.443   3.527   2.731  0.2558  0.8044 -1.3580
 4963SOL    MW419620   5.415   3.567   2.803  0.7287 -0.4458 -0.4563
 4964SOL     OW19621   3.316   5.127   2.238  0.1073  0.7847  0.0076
 4964SOL    HW219622   3.276   5.140   2.324  2.2153 -1.7511  1.5371
 4964SOL    HW319623   3.348   5.214   2.214  1.5194  1.2291  2.9664
 4964SOL    MW419624   3.315   5.141   2.246  0.5718  0.5088  0.5997
 4965SOL     OW19625   0.659   4.346   0.558  0.4482 -0.2792  0.3855
 4965SOL    HW219626   0.620   4.415   0.504  0.0911 -0.3944  0.4907
 4965SOL    HW319627   0.701   4.287   0.496  0.8094  0.0668  0.2994
 4965SOL    MW419628   0.659   4.347   0.543  0.4487 -0.2488  0.3880
 4966SOL     OW19629   3.796   3.842   5.360  0.2747  0.6209  0.9929
 4966SOL    HW219630   3.869   3.782   5.377  1.3742  1.8337  0.7688
 4966SOL    HW319631   3.717   3.789   5.373  1.1754 -0.5240  2.0272
 4966SOL    MW419632   3.795   3.827   5.364  0.5386  0.6299  1.0998
 4967SOL     OW19633   5.284   4.448   1.894 -0.4742  0.1915  0.5155
 4967SOL    HW219634   5.261   4.513   1.827 -2.3740  0.0819  1.0077
 4967SOL    HW319635   5.327   4.378   1.844 -3.3634 -0.6917 -0.9834
 4967SOL    MW419636   5.287   4.447   1.878 -1.1061  0.0606  0.3827
 4968SOL     OW19637   5.312   2.970   2.609 -0.0754 -0.1162  0.0488
 4968SOL    HW219638   5.335   2.891   2.658  0.1475  0.0882  0.2808
 4968SOL    HW319639   5.250   3.016   2.666 -1.3271 -0.8273 -0.7204
 4968SOL    MW419640   5.307   2.966   2.623 -0.2112 -0.1830 -0.0221
 4969SOL     OW19641   3.366   4.797   0.242  0.2280 -0.4922 -0.0628
 4969SOL    HW219642   3.364   4.845   0.324 -0.5952  0.3691 -0.5634
 4969SOL    HW319643   3.391   4.708   0.267  1.2987  0.0666  0.9361
 4969SOL    MW419644   3.369   4.792   0.256  0.2606 -0.3048  0.0029
 4970SOL     OW19645   1.829   2.296   4.405  0.0750 -0.1332 -0.7945
 4970SOL    HW219646   1.859   2.248   4.328 -0.5939  0.7877 -1.6505
 4970SOL    HW319647   1.778   2.369   4.370  1.8538  1.8243  0.3836
 4970SOL    MW419648   1.826   2.300   4.390  0.2214  0.2466 -0.7520
 4971SOL     OW19649   4.450   0.096   3.119 -0.3612 -0.6978 -0.1104
 4971SOL    HW219650   4.453   0.147   3.038  1.6061 -0.4934  0.0374
 4971SOL    HW319651   4.407   0.153   3.182 -0.0212 -0.0299 -0.4749
 4971SOL    MW419652   4.445   0.110   3.116 -0.0568 -0.5827 -0.1390
 4972SOL     OW19653   5.352   3.815   5.565  0.4703  0.1061  0.2841
 4972SOL    HW219654   5.278   3.840   5.621 -1.3037 -1.8306 -1.0503
 4972SOL    HW319655   5.395   3.744   5.611  0.4408  0.0629  0.2442
 4972SOL    MW419656   5.348   3.809   5.578  0.2323 -0.1551  0.1028
 4973SOL     OW19657   4.219   4.747   4.412  0.2294 -0.2259  0.3907
 4973SOL    HW219658   4.254   4.688   4.345 -0.0410 -0.7689  0.7211
 4973SOL    HW319659   4.145   4.699   4.449  0.1329  0.2414  0.8033
 4973SOL    MW419660   4.214   4.733   4.408  0.1810 -0.2359  0.4888
 4974SOL     OW19661   4.893   1.627   2.779  0.5518 -0.4410  0.2990
 4974SOL    HW219662   4.962   1.585   2.728  0.2015  1.3978 -1.8565
 4974SOL    HW319663   4.813   1.584   2.751  0.4302  0.1297 -0.2625
 4974SOL    MW419664   4.892   1.616   2.768  0.4895 -0.1231 -0.0595
 4975SOL     OW19665   2.783   2.069   5.416  0.1640  0.1417  0.1661
 4975SOL    HW219666   2.826   2.023   5.488 -0.8495  0.2389  0.8625
 4975SOL    HW319667   2.690   2.065   5.438 -0.3877 -1.5174 -2.1143
 4975SOL    MW419668   2.776   2.062   5.429 -0.0425 -0.0644 -0.0429
 4976SOL     OW19669   0.825   4.401   1.754  0.8072 -0.1967 -0.0406
 4976SOL    HW219670   0.841   4.309   1.776 -0.1213 -1.2122 -3.1510
 4976SOL    HW319671   0.908   4.432   1.718  0.9438  0.0559  0.4682
 4976SOL    MW419672   0.838   4.393   1.752  0.7027 -0.2973 -0.3838
 4977SOL     OW19673   5.575   3.727   0.563  0.1277  0.3893 -0.0754
 4977SOL    HW219674   5.517   3.712   0.488  0.5230  1.5379 -0.6373
 4977SOL    HW319675   5.537   3.675   0.633 -2.1321  1.7652 -0.1733
 4977SOL    MW419676   5.562   3.718   0.562 -0.1183  0.7224 -0.1625
 4978SOL     OW19677   2.580   0.880   3.119  0.4864 -0.2047  0.2942
 4978SOL    HW219678   2.583   0.785   3.135  0.3765 -0.1376  0.7282
 4978SOL    HW319679   2.550   0.917   3.202 -0.0248  0.1639 -0.0536
 4978SOL    MW419680   2.577   0.872   3.132  0.4044 -0.1472  0.3056
 4979SOL     OW19681  -0.004   1.004   0.159  0.1050  0.8095  0.4523
 4979SOL    HW219682  -0.015   1.091   0.197  1.2676  0.3396  1.9704
 4979SOL    HW319683   0.079   0.972   0.196 -0.2125 -0.8701 -0.1993
 4979SOL    MW419684   0.006   1.011   0.169  0.2165  0.5259  0.5666
 4980SOL     OW19685   0.268   3.042   5.840  0.3064 -0.1286  0.6436
 4980SOL    HW219686   0.300   2.963   5.796 -0.6797 -0.9120  1.2864
 4980SOL    HW319687   0.208   3.082   5.777  2.6951  1.5591 -0.7279
 4980SOL    MW419688   0.264   3.037   5.826  0.4915 -0.0093  0.5475
 4981SOL     OW19689   1.798   5.324   1.224  0.2493 -0.4894  0.5896
 4981SOL    HW219690   1.811   5.304   1.131 -0.0145 -2.0189  0.8654
 4981SOL    HW319691   1.832   5.413   1.233  1.0997 -0.6304 -0.7970
 4981SOL    MW419692   1.805   5.333   1.213  0.3267 -0.7098  0.4430
 4982SOL     OW19693   5.978   5.224   2.255 -0.3152  0.3624  0.3526
 4982SOL    HW219694   6.072   5.220   2.271 -0.4645  1.3481  1.6101
 4982SOL    HW319695   5.954   5.315   2.276 -1.0228  1.1192 -3.0936
 4982SOL    MW419696   5.987   5.236   2.260 -0.4283  0.5923  0.0638
 4983SOL     OW19697   6.231   2.588   2.528  0.1522  0.6204  0.5093
 4983SOL    HW219698   6.270   2.609   2.613 -0.1090 -0.9785  1.0586
 4983SOL    HW319699   6.224   2.672   2.483 -1.9484  1.9010  2.9846
 4983SOL    MW419700   6.235   2.602   2.533 -0.1594  0.5784  0.9084
 4984SOL     OW19701   0.074   5.106   2.094  0.5334 -0.3782 -0.2623
 4984SOL    HW219702   0.062   5.154   2.012 -1.8289  0.9739  0.7657
 4984SOL    HW319703   0.157   5.139   2.129  0.5406  0.5892 -1.1340
 4984SOL    MW419704   0.084   5.117   2.088  0.2227 -0.0722 -0.2417
 4985SOL     OW19705   1.813   1.683   3.916  0.2729 -0.4060  0.1917
 4985SOL    HW219706   1.766   1.601   3.932  0.1394 -0.4941 -0.6382
 4985SOL    HW319707   1.902   1.655   3.896  0.1437 -0.3718 -0.4385
 4985SOL    MW419708   1.819   1.668   3.916  0.2382 -0.4131 -0.0009
 4986SOL     OW19709   3.223   1.229   4.945 -0.7012 -0.0869  0.0043
 4986SOL    HW219710   3.290   1.184   4.894 -0.1348 -1.1894  1.6371
 4986SOL    HW319711   3.140   1.193   4.915 -0.4557  0.0590 -0.8579
 4986SOL    MW419712   3.221   1.218   4.935 -0.5941 -0.2131  0.1060
 4987SOL     OW19713   0.245   1.433   1.650 -0.0342  0.5790 -0.4302
 4987SOL    HW219714   0.157   1.434   1.686  0.4022 -0.7865  0.7791
 4987SOL    HW319715   0.236   1.387   1.566 -0.2314 -1.3490  0.5754
 4987SOL    MW419716   0.232   1.427   1.644 -0.0026  0.1445 -0.1379
 4988SOL     OW19717   2.022   6.183   1.790 -0.2086  0.4845 -0.1639
 4988SOL    HW219718   1.950   6.164   1.851 -0.5345  0.2720 -0.6022
 4988SOL    HW319719   2.084   6.234   1.841 -0.8516  0.9969  0.1218
 4988SOL    MW419720   2.020   6.187   1.805 -0.3364  0.5241 -0.1840
 4989SOL     OW19721   2.542   5.083   3.741  0.2513 -0.7387  0.0635
 4989SOL    HW219722   2.479   5.013   3.722 -0.4547 -0.0134 -0.2917
 4989SOL    HW319723   2.599   5.085   3.665  1.1982 -1.9017  0.7083
 4989SOL    MW419724   2.541   5.074   3.729  0.2831 -0.7964  0.1017
 4990SOL     OW19725   2.422   3.281   6.129 -0.7006 -0.1125 -0.0047
 4990SOL    HW219726   2.466   3.196   6.131 -1.8232 -0.7066  1.0480
 4990SOL    HW319727   2.421   3.310   6.220  0.7737  1.6671 -0.4940
 4990SOL    MW419728   2.428   3.274   6.141 -0.6542  0.0439  0.0697
 4991SOL     OW19729   4.760   5.945   6.257 -0.1702 -0.0619  0.5483
 4991SOL    HW219730   4.744   6.034   6.290  0.4590  0.2435  0.0444
 4991SOL    HW319731   4.675   5.902   6.265 -0.8143  0.9673 -0.3422
 4991SOL    MW419732   4.746   5.951   6.262 -0.1721  0.1142  0.3643
 4992SOL     OW19733   6.272   6.373   4.235 -0.1445 -0.1234 -0.1750
 4992SOL    HW219734   6.203   6.375   4.302 -2.4573  0.2249 -2.4195
 4992SOL    HW319735   6.247   6.301   4.177  2.5323 -1.2780 -0.0063
 4992SOL    MW419736   6.259   6.364   4.236 -0.0965 -0.2298 -0.4489
 4993SOL     OW19737   4.404   5.611   3.799 -0.1671 -0.0524  0.4687
 4993SOL    HW219738   4.385   5.529   3.752 -0.0056 -0.1293  0.5373
 4993SOL    HW319739   4.328   5.667   3.781 -0.6188 -0.4769  1.0177
 4993SOL    MW419740   4.391   5.607   3.790 -0.2054 -0.1185  0.5502
 4994SOL     OW19741   1.798   2.880   3.690 -0.1418  0.1199 -0.0975
 4994SOL    HW219742   1.756   2.813   3.743  0.0026 -0.6234 -0.8970
 4994SOL    HW319743   1.819   2.836   3.608  3.5711 -0.0359  0.7574
 4994SOL    MW419744   1.795   2.866   3.686  0.3671  0.0013 -0.0902
 4995SOL     OW19745   1.419   2.718   5.270  0.2043 -0.0260  0.0419
 4995SOL    HW219746   1.510   2.742   5.282  0.1409 -0.2739  1.0954
 4995SOL    HW319747   1.422   2.629   5.235  0.4234  1.1500 -3.3600
 4995SOL    MW419748   1.431   2.709   5.267  0.2248  0.0965 -0.2680
 4996SOL     OW19749   2.974   3.805   1.562  0.1812 -0.9570  0.1260
 4996SOL    HW219750   2.905   3.748   1.528  1.7263 -2.1231 -1.2214
 4996SOL    HW319751   3.051   3.748   1.569  1.5141  0.7012 -0.2238
 4996SOL    MW419752   2.975   3.790   1.558  0.5609 -0.8921 -0.0979
 4997SOL     OW19753   5.447   4.311   4.113 -0.1734 -0.5435  0.3102
 4997SOL    HW219754   5.525   4.308   4.059 -0.5187  1.1131 -0.3239
 4997SOL    HW319755   5.441   4.223   4.151  0.4357 -1.5622 -1.8117
 4997SOL    MW419756   5.456   4.299   4.111 -0.1386 -0.4594 -0.0534
 4998SOL     OW19757   4.061   5.606   0.636  0.1802  1.1232 -0.2594
 4998SOL    HW219758   3.966   5.611   0.632  0.0223 -1.2115 -0.4196
 4998SOL    HW319759   4.089   5.599   0.545  0.3836  0.3880 -0.1482
 4998SOL    MW419760   4.052   5.606   0.624  0.1862  0.7182 -0.2659
 4999SOL     OW19761   0.479   0.988   4.559  0.1469 -0.3060  0.1406
 4999SOL    HW219762   0.565   0.998   4.518  0.1012  0.1273  0.1452
 4999SOL    HW319763   0.465   1.070   4.606 -0.1352 -0.4976  0.3980
 4999SOL    MW419764   0.488   1.000   4.560  0.1037 -0.2741  0.1752
 5000SOL     OW19765   5.091   4.587   1.039  0.1482 -0.0001 -0.2723
 5000SOL    HW219766   5.089   4.524   0.966  1.5408  0.7004 -0.9511
 5000SOL    HW319767   5.145   4.544   1.106  0.3267  0.0886 -0.3600
 5000SOL    MW419768   5.097   4.573   1.038  0.3555  0.1040 -0.3734
 5001SOL     OW19769   3.118   6.268   4.349 -0.8715 -1.3010 -0.4232
 5001SOL    HW219770   3.198   6.314   4.375 -1.1343 -1.3273  0.4813
 5001SOL    HW319771   3.074   6.249   4.432 -2.3230 -0.3914 -0.9559
 5001SOL    MW419772   3.123   6.272   4.364 -1.0977 -1.1844 -0.3742
 5002SOL     OW19773   2.910   5.276   2.477  0.4055  0.3081 -0.0603
 5002SOL    HW219774   2.878   5.299   2.389  0.8451  0.3930 -0.1992
 5002SOL    HW319775   2.964   5.351   2.503  0.7132  0.0471  0.0581
 5002SOL    MW419776   2.913   5.289   2.469  0.5041  0.2849 -0.0630
 5003SOL     OW19777   5.710   2.915   0.165 -0.4090  0.3299 -0.2386
 5003SOL    HW219778   5.743   2.996   0.128 -0.9436  0.8242  0.3519
 5003SOL    HW319779   5.615   2.925   0.165 -0.4220  0.5649  1.7157
 5003SOL    MW419780   5.702   2.927   0.160 -0.4813  0.4261  0.0971
 5004SOL     OW19781   1.398   1.910   1.563  0.0927 -0.1900  0.4424
 5004SOL    HW219782   1.318   1.862   1.584  1.3012 -1.4554  2.4486
 5004SOL    HW319783   1.400   1.982   1.626  0.2559  0.2030 -0.0030
 5004SOL    MW419784   1.388   1.913   1.574  0.2737 -0.3051  0.6484
 5005SOL     OW19785   6.123   3.669   6.220 -0.6097 -0.5933  0.6914
 5005SOL    HW219786   6.194   3.667   6.156  0.6763 -1.7451  2.0813
 5005SOL    HW319787   6.155   3.725   6.290 -1.6874  0.0209  0.7274
 5005SOL    MW419788   6.136   3.676   6.221 -0.5822 -0.6642  0.8795
 5006SOL     OW19789   1.802   3.950   6.285 -0.1490 -0.0581 -0.5687
 5006SOL    HW219790   1.881   3.925   6.333 -0.6819  0.0846  0.3912
 5006SOL    HW319791   1.791   4.043   6.303 -1.1865 -0.3230  0.2690
 5006SOL    MW419792   1.811   3.959   6.294 -0.3562 -0.0742 -0.3315
 5007SOL     OW19793   2.065   1.583   3.848  0.3020  0.3995 -0.5242
 5007SOL    HW219794   2.138   1.616   3.900  0.4434 -0.8537  0.1296
 5007SOL    HW319795   2.067   1.634   3.767  1.8422  0.4538 -0.4836
 5007SOL    MW419796   2.075   1.594   3.844  0.5238  0.2413 -0.4326
 5008SOL     OW19797   3.138   1.297   0.682 -0.4825 -0.7696 -0.1443
 5008SOL    HW219798   3.090   1.364   0.731 -0.4255 -0.9579  0.1763
 5008SOL    HW319799   3.129   1.323   0.590  1.8388  1.2432  0.0802
 5008SOL    MW419800   3.131   1.309   0.677 -0.1687 -0.5289 -0.0724
 5009SOL     OW19801   5.092   3.853   3.236 -0.1433 -0.1149 -0.1703
 5009SOL    HW219802   5.178   3.854   3.194  0.4073  0.2440  0.9346
 5009SOL    HW319803   5.073   3.944   3.256 -0.0954 -0.3295  0.9313
 5009SOL    MW419804   5.101   3.865   3.233 -0.0643 -0.0959  0.1208
 5010SOL     OW19805   3.669   6.229   2.646  0.5468 -0.1797 -0.0104
 5010SOL    HW219806   3.614   6.151   2.638  0.3709 -0.3810  2.4247
 5010SOL    HW319807   3.626   6.295   2.592 -0.9249 -0.9466  0.1688
 5010SOL    MW419808   3.656   6.227   2.638  0.3294 -0.3074  0.3345
 5011SOL     OW19809   0.446   6.388   2.915 -0.1793 -0.6327  0.3152
 5011SOL    HW219810   0.386   6.435   2.973  1.1279  0.5621  0.7448
 5011SOL    HW319811   0.440   6.433   2.831 -0.6794 -1.2072  0.0294
 5011SOL    MW419812   0.437   6.400   2.912 -0.0728 -0.5508  0.3341
 5012SOL     OW19813   1.646   1.498   5.207 -0.0010 -0.2043  0.5193
 5012SOL    HW219814   1.660   1.510   5.302 -0.7769 -1.2918  0.7823
 5012SOL    HW319815   1.565   1.544   5.189 -0.3755 -0.8324  0.5805
 5012SOL    MW419816   1.637   1.506   5.217 -0.1528 -0.4307  0.5621
 5013SOL     OW19817   0.699   1.439   5.214  0.0198  0.0170 -0.3867
 5013SOL    HW219818   0.709   1.376   5.143  0.0520  0.4882 -0.8126
 5013SOL    HW319819   0.773   1.500   5.203 -0.7761  0.9314 -0.8398
 5013SOL    MW419820   0.710   1.439   5.203 -0.0809  0.1998 -0.5027
 5014SOL     OW19821   3.878   1.872   2.149 -0.1162 -0.1511  0.1114
 5014SOL    HW219822   3.854   1.948   2.096  2.0081  1.3874  1.1843
 5014SOL    HW319823   3.853   1.796   2.097 -0.2368  1.2865 -2.0214
 5014SOL    MW419824   3.872   1.872   2.135  0.1482  0.2416 -0.0285
 5015SOL     OW19825   3.687   0.554   2.083  0.0049  0.2714 -0.0615
 5015SOL    HW219826   3.689   0.544   2.179  1.3902 -0.7647 -0.1728
 5015SOL    HW319827   3.594   0.552   2.061 -0.3151 -0.0063  1.2249
 5015SOL    MW419828   3.675   0.552   2.093  0.1455  0.0980  0.0935
 5016SOL     OW19829   0.803   4.302   2.757 -0.1019  0.4789  0.4118
 5016SOL    HW219830   0.713   4.322   2.782 -0.3854 -1.2448  0.9499
 5016SOL    HW319831   0.852   4.300   2.839 -0.4779 -2.5530  0.6895
 5016SOL    MW419832   0.797   4.304   2.771 -0.1889 -0.1486  0.5194
 5017SOL     OW19833   0.991   3.389   5.428 -0.2369  0.0613 -0.2765
 5017SOL    HW219834   0.898   3.409   5.432 -0.0808  1.0174 -0.9968
 5017SOL    HW319835   0.999   3.304   5.469 -1.0443  1.1621  2.3720
 5017SOL    MW419836   0.980   3.381   5.434 -0.3229  0.3327 -0.0221
 5018SOL     OW19837   4.205   4.608   1.762  0.4990 -0.0464 -0.0549
 5018SOL    HW219838   4.118   4.600   1.801  0.8904  0.6491  0.9905
 5018SOL    HW319839   4.255   4.535   1.799  1.0149  0.9040  1.1702
 5018SOL    MW419840   4.200   4.597   1.772  0.6187  0.1708  0.2446
 5019SOL     OW19841   2.145   2.031   1.485  0.4286 -0.7725 -0.3169
 5019SOL    HW219842   2.110   2.062   1.402  2.3329  0.3650 -0.7656
 5019SOL    HW319843   2.148   1.935   1.476  1.1167 -0.6298 -1.7943
 5019SOL    MW419844   2.141   2.022   1.473  0.7706 -0.6036 -0.5710
 5020SOL     OW19845   5.065   6.278   2.820  0.5937 -0.0011 -0.9220
 5020SOL    HW219846   5.112   6.354   2.853 -0.3558  0.9168 -1.5883
 5020SOL    HW319847   5.092   6.271   2.728  1.4484 -1.1125 -0.6123
 5020SOL    MW419848   5.074   6.287   2.812  0.5812 -0.0266 -0.9690
 5021SOL     OW19849   3.677   4.528   0.064 -0.0132 -0.1449  0.4612
 5021SOL    HW219850   3.756   4.473   0.071 -0.2590 -0.7706 -1.2507
 5021SOL    HW319851   3.669   4.547  -0.029 -0.5210  1.9949  0.8860
 5021SOL    MW419852   3.687   4.523   0.053 -0.1126  0.0549  0.2914
 5022SOL     OW19853   1.978   6.206   2.692 -0.1012  0.3281  0.4585
 5022SOL    HW219854   2.008   6.245   2.609 -1.0892 -0.9086 -0.5287
 5022SOL    HW319855   2.029   6.126   2.700 -0.1505  0.3452  0.9410
 5022SOL    MW419856   1.989   6.200   2.682 -0.2381  0.1672  0.3919
 5023SOL     OW19857   2.407   1.964   2.356  0.3609 -0.3043 -0.1155
 5023SOL    HW219858   2.313   1.976   2.364  0.4655  1.6545 -1.1461
 5023SOL    HW319859   2.419   1.920   2.271  0.3842  0.0182 -0.2833
 5023SOL    MW419860   2.396   1.960   2.346  0.3777 -0.0033 -0.2736
 5024SOL     OW19861   4.529   0.569   5.945 -0.5733 -0.1268  0.4746
 5024SOL    HW219862   4.539   0.503   5.876  0.7321  0.7320 -0.2028
 5024SOL    HW319863   4.614   0.571   5.989  0.8113  3.5900 -1.8761
 5024SOL    MW419864   4.542   0.561   5.942 -0.2184  0.4769  0.0751
 5025SOL     OW19865   2.429   5.824   4.137 -0.1122  0.1747 -0.2567
 5025SOL    HW219866   2.379   5.884   4.194  0.1593  0.8527 -0.7247
 5025SOL    HW319867   2.434   5.870   4.053  1.5686  0.2659 -0.1305
 5025SOL    MW419868   2.423   5.838   4.134  0.1454  0.2762 -0.3018
 5026SOL     OW19869   3.510   3.966   6.148 -0.3284  0.2520  0.0815
 5026SOL    HW219870   3.516   3.924   6.062 -1.0481  0.8391 -0.2675
 5026SOL    HW319871   3.503   3.893   6.210  1.1477 -0.2095 -0.2449
 5026SOL    MW419872   3.510   3.950   6.145 -0.2286  0.2685 -0.0076
 5027SOL     OW19873   2.286   1.635   4.017 -0.2237  0.0128  0.3458
 5027SOL    HW219874   2.352   1.703   4.021 -0.0405 -0.0250 -1.4622
 5027SOL    HW319875   2.323   1.562   4.067  0.2196  0.6841  1.0130
 5027SOL    MW419876   2.299   1.634   4.024 -0.1410  0.0964  0.1953
 5028SOL     OW19877   1.148   6.345   1.591  0.2279  0.0033  0.1507
 5028SOL    HW219878   1.137   6.253   1.564  1.9787 -0.2615  0.1958
 5028SOL    HW319879   1.192   6.339   1.676  2.1415  0.8584 -0.7249
 5028SOL    MW419880   1.152   6.332   1.598  0.7114  0.0812  0.0412
 5029SOL     OW19881   2.583   3.620   6.389 -0.6433 -0.1797  0.3858
 5029SOL    HW219882   2.637   3.631   6.311 -0.0575 -0.6190  0.7211
 5029SOL    HW319883   2.496   3.651   6.362 -0.1567  0.8827 -0.0523
 5029SOL    MW419884   2.579   3.626   6.375 -0.5018 -0.0975  0.3722
 5030SOL     OW19885   2.330   1.946   5.357  0.0752 -0.0235 -0.2361
 5030SOL    HW219886   2.342   1.955   5.262  1.7484  0.9581  0.0192
 5030SOL    HW319887   2.348   1.854   5.375  0.0049 -0.1581 -0.8383
 5030SOL    MW419888   2.334   1.935   5.347  0.2867  0.0882 -0.2819
 5031SOL     OW19889   3.276   1.395   5.565 -0.1575  0.4013  0.2003
 5031SOL    HW219890   3.361   1.355   5.545 -0.8994 -1.6757  0.9243
 5031SOL    HW319891   3.275   1.475   5.513  1.3406 -0.6441 -1.5785
 5031SOL    MW419892   3.287   1.400   5.555 -0.0577 -0.0107  0.0611
 5032SOL     OW19893   1.543   5.440   6.109  0.1873 -0.2489  1.0393
 5032SOL    HW219894   1.595   5.515   6.080  0.2101 -0.6977 -0.1192
 5032SOL    HW319895   1.578   5.418   6.195  3.3321 -1.8065 -0.4944
 5032SOL    MW419896   1.555   5.447   6.117  0.6052 -0.5136  0.6841
 5033SOL     OW19897   1.278   0.918   3.190  0.0714 -0.4738  0.6643
 5033SOL    HW219898   1.190   0.954   3.198 -0.5517 -1.8271  0.2553
 5033SOL    HW319899   1.315   0.925   3.279  0.1328  1.4367  0.5277
 5033SOL    MW419900   1.272   0.924   3.203 -0.0027 -0.4003  0.5923
 5034SOL     OW19901   0.375   6.148   4.405  0.4357 -0.0794 -0.1911
 5034SOL    HW219902   0.393   6.056   4.422  1.0384  0.2574  1.1089
 5034SOL    HW319903   0.280   6.152   4.394  0.1494 -0.5809  1.7676
 5034SOL    MW419904   0.365   6.137   4.406  0.4774 -0.1011  0.2388
 5035SOL     OW19905   3.345   1.998   3.553 -0.7245  0.0548 -0.2286
 5035SOL    HW219906   3.316   2.074   3.504  2.2142 -0.2447 -2.6992
 5035SOL    HW319907   3.359   1.930   3.487 -0.4201 -1.7319  1.5428
 5035SOL    MW419908   3.343   1.999   3.538 -0.2966 -0.2205 -0.3208
 5036SOL     OW19909   2.237   4.444   0.644  0.2202  0.2924  0.0599
 5036SOL    HW219910   2.276   4.432   0.731 -0.6438 -1.2495  0.2591
 5036SOL    HW319911   2.144   4.459   0.660 -0.0774 -0.7070 -0.6046
 5036SOL    MW419912   2.230   4.444   0.657  0.0669 -0.0429 -0.0015
 5037SOL     OW19913   2.574   5.657   5.893 -0.0293 -0.5535 -0.4313
 5037SOL    HW219914   2.637   5.719   5.931  0.8452 -0.5236 -1.8719
 5037SOL    HW319915   2.579   5.672   5.799  0.0679 -2.7064 -0.8073
 5037SOL    MW419916   2.583   5.667   5.886  0.0989 -0.8336 -0.6710
 5038SOL     OW19917   0.477   5.883   1.512  0.0143 -0.0406 -0.5675
 5038SOL    HW219918   0.424   5.885   1.592  3.1357 -2.0610  1.8075
 5038SOL    HW319919   0.507   5.792   1.506  1.7006  0.5800 -2.7882
 5038SOL    MW419920   0.474   5.871   1.522  0.6486 -0.2253 -0.5471
 5039SOL     OW19921   4.386   5.223   4.710 -0.3864 -0.9049 -1.0641
 5039SOL    HW219922   4.471   5.190   4.740  1.2414  1.3382 -2.8077
 5039SOL    HW319923   4.354   5.155   4.650 -1.1565 -2.9602  1.5234
 5039SOL    MW419924   4.393   5.210   4.706 -0.2732 -0.8801 -0.9527
 5040SOL     OW19925   2.424   0.139   2.921  0.0131  0.4248  0.4033
 5040SOL    HW219926   2.353   0.189   2.962  1.0166  0.6610  1.9399
 5040SOL    HW319927   2.493   0.204   2.906 -0.3071  0.3610 -1.7829
 5040SOL    MW419928   2.424   0.154   2.924  0.1033  0.4475  0.3176
 5041SOL     OW19929   4.636   1.655   1.467 -0.1508  0.5244  0.4497
 5041SOL    HW219930   4.715   1.681   1.515  0.5683 -0.1782 -0.3008
 5041SOL    HW319931   4.670   1.611   1.389 -1.2456 -1.6440  1.1033
 5041SOL    MW419932   4.651   1.652   1.463 -0.2004  0.1456  0.4369
 5042SOL     OW19933   0.230   4.407   0.903  0.2043  0.2311  0.2592
 5042SOL    HW219934   0.323   4.421   0.924  0.6059 -0.3443 -1.0458
 5042SOL    HW319935   0.198   4.494   0.879  0.9075  0.1542 -1.0811
 5042SOL    MW419936   0.238   4.420   0.903  0.3501  0.1450 -0.0898
 5043SOL     OW19937   5.447   1.520   4.942 -0.3203 -0.1505 -0.0574
 5043SOL    HW219938   5.440   1.430   4.972 -2.8058  0.2988  1.0124
 5043SOL    HW319939   5.521   1.521   4.882  0.7060 -2.5536  1.0629
 5043SOL    MW419940   5.455   1.508   4.938 -0.5129 -0.4083  0.2315
 5044SOL     OW19941   5.297   1.217   0.930  0.4179  0.3010 -0.9950
 5044SOL    HW219942   5.261   1.221   1.019 -0.7277  0.2508 -1.4399
 5044SOL    HW319943   5.349   1.137   0.929 -0.4040 -0.2524 -0.6571
 5044SOL    MW419944   5.299   1.207   0.942  0.1583  0.2214 -1.0092
 5045SOL     OW19945   3.547   0.402   0.445 -0.7286  0.0326 -0.4215
 5045SOL    HW219946   3.536   0.387   0.539 -2.3789 -0.9176 -0.7184
 5045SOL    HW319947   3.468   0.449   0.419  1.3342  3.6899 -0.7556
 5045SOL    MW419948   3.535   0.406   0.454 -0.6742  0.3898 -0.5047
 5046SOL     OW19949   0.102   5.362   0.265 -0.8195  0.3190  0.0242
 5046SOL    HW219950   0.088   5.349   0.171  2.1347 -0.3474 -0.4332
 5046SOL    HW319951   0.105   5.457   0.276  2.5255  0.5318 -1.3913
 5046SOL    MW419952   0.101   5.373   0.254  0.0116  0.2591 -0.2229
 5047SOL     OW19953   3.722   5.079   1.537 -0.2124  0.2767 -0.4764
 5047SOL    HW219954   3.698   5.170   1.523  1.3632  1.2560  2.4087
 5047SOL    HW319955   3.805   5.069   1.492 -0.3195  0.3152 -0.6817
 5047SOL    MW419956   3.730   5.090   1.529 -0.0187  0.4110 -0.1228
 5048SOL     OW19957   1.902   1.488   5.869  0.1500  0.1279  0.2676
 5048SOL    HW219958   1.994   1.481   5.896 -0.1688 -1.2378  1.1058
 5048SOL    HW319959   1.865   1.553   5.929  0.7266  1.2889 -0.5934
 5048SOL    MW419960   1.910   1.496   5.880  0.1840  0.1009  0.2646
 5049SOL     OW19961   5.510   5.826   5.191 -0.3935 -0.0406  0.1008
 5049SOL    HW219962   5.561   5.904   5.168  0.0630 -0.1361  0.7560
 5049SOL    HW319963   5.428   5.860   5.225 -0.2898  0.1547  0.1576
 5049SOL    MW419964   5.506   5.841   5.193 -0.3196 -0.0274  0.1947
 5050SOL     OW19965   5.786   4.829   0.449 -0.0885 -0.1224  0.6685
 5050SOL    HW219966   5.795   4.923   0.463  1.6666 -0.1579 -0.0382
 5050SOL    HW319967   5.691   4.816   0.440 -0.2971  1.7839 -0.5836
 5050SOL    MW419968   5.775   4.840   0.450  0.1155  0.1244  0.4100
 5051SOL     OW19969   0.052   1.785   2.679 -0.5144 -0.0100 -0.1724
 5051SOL    HW219970   0.066   1.773   2.773  2.5137  0.1895 -0.4976
 5051SOL    HW319971   0.046   1.880   2.667  0.1683  0.0326 -0.2528
 5051SOL    MW419972   0.053   1.796   2.690 -0.0248  0.0219 -0.2259
 5052SOL     OW19973   4.495   2.406   5.364  0.3576  0.1861  0.1363
 5052SOL    HW219974   4.421   2.451   5.407 -0.2271  1.7617 -2.3016
 5052SOL    HW319975   4.460   2.321   5.338  0.5988 -0.6288  2.2391
 5052SOL    MW419976   4.480   2.401   5.367  0.3123  0.2865  0.0921
 5053SOL     OW19977   2.110   4.087   1.741 -0.2737 -0.1706 -0.0261
 5053SOL    HW219978   2.147   3.999   1.751  2.2733  0.9026  0.7772
 5053SOL    HW319979   2.028   4.073   1.694  0.6197 -2.8728 -0.9828
 5053SOL    MW419980   2.104   4.074   1.736  0.1802 -0.3855 -0.0463
 5054SOL     OW19981   1.489   1.571   0.314  0.2650  0.7394 -0.2537
 5054SOL    HW219982   1.579   1.554   0.285  0.5568  3.1005 -0.9085
 5054SOL    HW319983   1.460   1.487   0.351  2.2024 -0.5044 -1.3491
 5054SOL    MW419984   1.497   1.557   0.315  0.5591  0.8869 -0.4846
 5055SOL     OW19985   6.420   3.174   4.956  0.0770 -0.0680 -0.0397
 5055SOL    HW219986   6.473   3.185   5.036 -0.3533 -2.8529  0.7502
 5055SOL    HW319987   6.432   3.082   4.933  1.6339  0.9927 -4.3336
 5055SOL    MW419988   6.429   3.163   4.964  0.2257 -0.2955 -0.5020
 5056SOL     OW19989   3.094   1.678   5.068  0.2563 -0.6101 -0.3272
 5056SOL    HW219990   3.042   1.642   5.140 -0.5537 -0.4056 -0.8015
 5056SOL    HW319991   3.105   1.770   5.089 -0.1809 -0.5005 -0.5876
 5056SOL    MW419992   3.089   1.685   5.080  0.0917 -0.5687 -0.4242
 5057SOL     OW19993   4.411   1.906   1.748  0.2369 -0.4254 -0.0478
 5057SOL    HW219994   4.371   1.965   1.811 -0.0276 -2.7837  2.1429
 5057SOL    HW319995   4.356   1.913   1.670 -0.1124  1.7022  0.3330
 5057SOL    MW419996   4.399   1.914   1.746  0.1559 -0.4558  0.2915
 5058SOL     OW19997   2.941   6.228   1.914  0.9214  0.2626  0.5218
 5058SOL    HW219998   2.989   6.224   1.831 -0.3676  1.7147 -0.3567
 5058SOL    HW319999   3.007   6.215   1.981  2.4162  1.3799 -0.6716
 5058SOL    MW420000   2.956   6.226   1.912  0.9486  0.6016  0.2485
 5059SOL     OW20001   2.954   3.879   0.040 -0.2033  0.0323  0.1712
 5059SOL    HW220002   2.911   3.906   0.121 -0.1676 -1.3841  0.6827
 5059SOL    HW320003   2.972   3.961  -0.006  0.4776  0.9209  1.9509
 5059SOL    MW420004   2.951   3.894   0.044 -0.1087 -0.0374  0.4735
 5060SOL     OW20005   6.067   3.522   1.987 -0.0427  0.5497 -0.8778
 5060SOL    HW220006   5.982   3.527   1.942 -0.3455 -0.9484 -0.5280
 5060SOL    HW320007   6.051   3.464   2.062  1.5482 -0.6669 -1.4301
 5060SOL    MW420008   6.053   3.515   1.991  0.1272  0.1915 -0.9045
 5061SOL     OW20009   6.279   0.531   5.541 -0.0118 -0.1123 -0.5289
 5061SOL    HW220010   6.247   0.535   5.451 -1.0169  0.5952 -0.1624
 5061SOL    HW320011   6.331   0.611   5.552 -1.3046  0.6899  0.0062
 5061SOL    MW420012   6.282   0.542   5.530 -0.3149  0.0869 -0.4100
 5062SOL     OW20013   5.724   3.095   4.439  0.0932  0.0736 -0.8941
 5062SOL    HW220014   5.698   3.151   4.365  1.1931  1.6170 -0.1562
 5062SOL    HW320015   5.803   3.051   4.409  1.5010  1.9496 -0.1289
 5062SOL    MW420016   5.731   3.096   4.425  0.4240  0.5248 -0.6958
 5063SOL     OW20017   5.052   4.822   1.825  0.0623  0.0367 -0.1979
 5063SOL    HW220018   5.028   4.864   1.742  0.6400  0.4622 -0.1570
 5063SOL    HW320019   4.968   4.805   1.868 -0.1971  1.8791  0.1354
 5063SOL    MW420020   5.037   4.825   1.820  0.1043  0.3359 -0.1486
 5064SOL     OW20021   1.268   5.578   2.356  0.0691 -0.5247  0.0086
 5064SOL    HW220022   1.310   5.519   2.419 -1.1422  0.2154  1.5620
 5064SOL    HW320023   1.175   5.558   2.362 -0.1366 -0.0417 -1.1659
 5064SOL    MW420024   1.262   5.567   2.365 -0.1178 -0.3633  0.0586
 5065SOL     OW20025   5.103   2.972   2.257 -0.2730  0.4555  0.3027
 5065SOL    HW220026   5.198   2.968   2.272 -0.5482  0.2255  2.3016
 5065SOL    HW320027   5.092   3.043   2.193  1.2707  0.1527 -0.3389
 5065SOL    MW420028   5.114   2.981   2.251 -0.1056  0.3852  0.4818
 5066SOL     OW20029   5.281   0.257   2.681  0.5620 -0.5887  0.1612
 5066SOL    HW220030   5.280   0.349   2.708  0.1144  0.2279 -2.3367
 5066SOL    HW320031   5.245   0.209   2.755 -1.9990  1.6121  0.4768
 5066SOL    MW420032   5.276   0.263   2.694  0.1651 -0.1906 -0.1267
 5067SOL     OW20033   4.104   3.152   5.705 -0.1418  0.4174 -0.1334
 5067SOL    HW220034   4.081   3.153   5.612  0.6470 -1.2428 -0.3798
 5067SOL    HW320035   4.092   3.061   5.732 -0.0242  0.8085  1.3159
 5067SOL    MW420036   4.099   3.140   5.697 -0.0222  0.2500  0.0253
 5068SOL     OW20037   4.980   0.157   0.735 -0.3506  0.2110  0.2615
 5068SOL    HW220038   5.068   0.159   0.773 -0.4078  1.6350  0.3900
 5068SOL    HW320039   4.990   0.202   0.651  0.0795 -4.1086 -2.2512
 5068SOL    MW420040   4.993   0.164   0.729 -0.3014 -0.1710 -0.0530
 5069SOL     OW20041   0.462   4.814   4.296 -0.2791 -0.3999  0.1591
 5069SOL    HW220042   0.481   4.867   4.373  0.0099  1.0226 -0.8464
 5069SOL    HW320043   0.542   4.764   4.280  0.0059  0.0350  0.2169
 5069SOL    MW420044   0.475   4.814   4.304 -0.2034 -0.1548  0.0341
 5070SOL     OW20045   3.677   5.588   0.251 -0.1777 -0.7148 -0.6052
 5070SOL    HW220046   3.611   5.629   0.195 -1.8839 -2.3703  0.0536
 5070SOL    HW320047   3.670   5.634   0.334 -0.5778 -0.9193 -0.5206
 5070SOL    MW420048   3.667   5.599   0.255 -0.4556 -0.9602 -0.5071
 5071SOL     OW20049   3.341   0.010   1.816  0.2890 -0.2428 -0.4272
 5071SOL    HW220050   3.392  -0.036   1.749  1.1225 -1.7817  1.1825
 5071SOL    HW320051   3.337  -0.051   1.889  2.5921  2.6433  2.4172
 5071SOL    MW420052   3.347  -0.004   1.816  0.7028 -0.0650  0.1605
 5072SOL     OW20053   0.972   4.245   0.264  0.5470  0.2633  0.6676
 5072SOL    HW220054   0.895   4.218   0.315  0.3110  1.3156  0.9047
 5072SOL    HW320055   0.936   4.295   0.191  0.8948 -1.1244 -0.4906
 5072SOL    MW420056   0.957   4.248   0.261  0.5617  0.2190  0.5461
 5073SOL     OW20057   4.310   6.377   4.299  0.4331  0.3301 -0.0692
 5073SOL    HW220058   4.338   6.333   4.218  0.7016 -0.5922  0.5104
 5073SOL    HW320059   4.386   6.430   4.324  1.0594 -0.7948  0.5374
 5073SOL    MW420060   4.324   6.378   4.291  0.5512  0.0600  0.0873
 5074SOL     OW20061   1.513   5.525   0.369  0.0702 -0.5804 -0.3137
 5074SOL    HW220062   1.430   5.484   0.394 -0.6078  0.6475 -0.4598
 5074SOL    HW320063   1.501   5.617   0.391  1.8432 -0.5632  0.7304
 5074SOL    MW420064   1.500   5.531   0.375  0.2147 -0.4161 -0.1952
 5075SOL     OW20065   4.637   4.703   4.616 -0.2427 -0.2326 -0.2072
 5075SOL    HW220066   4.683   4.647   4.679 -0.6418 -0.4458 -0.1037
 5075SOL    HW320067   4.697   4.776   4.602 -0.0926 -0.2446  0.3236
 5075SOL    MW420068   4.651   4.705   4.623 -0.2755 -0.2623 -0.1235
 5076SOL     OW20069   3.237   2.658   4.339 -0.3239  0.4276  0.0272
 5076SOL    HW220070   3.323   2.649   4.297 -0.9065 -0.2385 -1.0668
 5076SOL    HW320071   3.220   2.753   4.338 -0.2542  0.4494 -1.1411
 5076SOL    MW420072   3.246   2.670   4.333 -0.3916  0.3426 -0.2713
 5077SOL     OW20073   6.406   1.400   3.310 -0.6267  0.7230 -0.4879
 5077SOL    HW220074   6.457   1.373   3.387 -1.0016 -1.3598 -0.9070
 5077SOL    HW320075   6.453   1.476   3.276 -0.5584  1.8245  1.8758
 5077SOL    MW420076   6.419   1.407   3.316 -0.6672  0.5935 -0.2313
 5078SOL     OW20077   1.308   5.355   0.455  0.7132  0.3881 -0.0250
 5078SOL    HW220078   1.224   5.379   0.415 -0.1879 -0.3521  1.3389
 5078SOL    HW320079   1.334   5.275   0.411  0.1450  0.0293  0.2748
 5078SOL    MW420080   1.300   5.348   0.444  0.5193  0.2431  0.1945
 5079SOL     OW20081   5.551   3.227   0.089  0.0210 -0.7069 -1.3128
 5079SOL    HW220082   5.510   3.279   0.019  0.1195 -0.6539 -1.3311
 5079SOL    HW320083   5.534   3.277   0.169  0.5341 -0.3941 -1.3898
 5079SOL    MW420084   5.543   3.241   0.090  0.1017 -0.6586 -1.3254
 5080SOL     OW20085   2.877   4.366   1.297 -0.4156  0.0054  0.2691
 5080SOL    HW220086   2.874   4.459   1.322  0.9196 -0.6694  3.3061
 5080SOL    HW320087   2.965   4.337   1.321 -1.1685 -2.3060  0.4820
 5080SOL    MW420088   2.888   4.375   1.304 -0.3388 -0.3886  0.6979
 5081SOL     OW20089   3.716   5.689   3.357  0.0275 -0.0311 -0.7254
 5081SOL    HW220090   3.763   5.610   3.385  1.1757  0.6866 -0.5761
 5081SOL    HW320091   3.717   5.685   3.262 -1.9092 -1.3209 -0.7560
 5081SOL    MW420092   3.723   5.678   3.349 -0.0765 -0.1066 -0.7098
 5082SOL     OW20093   4.313   6.226   3.194 -0.0177 -0.1408 -0.4605
 5082SOL    HW220094   4.292   6.286   3.122 -0.4285  0.4486  0.1397
 5082SOL    HW320095   4.409   6.224   3.196  0.0661  2.0320  0.7290
 5082SOL    MW420096   4.323   6.234   3.185 -0.0609  0.2236 -0.2244
 5083SOL     OW20097   1.536   0.103   3.100  0.2778  0.2044  0.2067
 5083SOL    HW220098   1.547   0.042   3.028 -1.9376  0.2871 -0.2503
 5083SOL    HW320099   1.481   0.057   3.163  0.9806  0.6763  1.1887
 5083SOL    MW420100   1.530   0.089   3.099  0.0783  0.2775  0.2759
 5084SOL     OW20101   0.937   1.909   2.497  0.4811 -0.0302 -0.3598
 5084SOL    HW220102   0.857   1.963   2.493  0.4193 -0.0322  0.5844
 5084SOL    HW320103   0.934   1.869   2.584  0.8296 -1.1001 -0.8327
 5084SOL    MW420104   0.926   1.911   2.508  0.5190 -0.1716 -0.2976
 5085SOL     OW20105   2.564   1.075   2.228 -0.3230  0.2365 -0.4634
 5085SOL    HW220106   2.605   1.051   2.145  1.3876 -0.8596  0.6292
 5085SOL    HW320107   2.477   1.035   2.225 -0.2968  0.2410 -1.7180
 5085SOL    MW420108   2.558   1.067   2.216 -0.0938  0.0925 -0.4848
 5086SOL     OW20109   0.909   5.915   2.316  0.2133  0.0762  0.3689
 5086SOL    HW220110   1.000   5.917   2.346  0.6663 -3.1609 -0.4237
 5086SOL    HW320111   0.912   5.947   2.226  0.3932  0.7223  0.5945
 5086SOL    MW420112   0.921   5.920   2.308  0.2968 -0.2656  0.2941
 5087SOL     OW20113   6.322   0.588   2.726  0.0297  0.4447 -0.1633
 5087SOL    HW220114   6.297   0.497   2.744  0.3371  0.2077 -0.8938
 5087SOL    HW320115   6.376   0.583   2.647  1.0878  1.1171  0.4757
 5087SOL    MW420116   6.326   0.575   2.718  0.2098  0.5021 -0.1754
 5088SOL     OW20117   2.097   2.839   2.229 -0.1152  0.1962  0.4093
 5088SOL    HW220118   2.145   2.827   2.147 -1.3443 -0.4727 -0.2473
 5088SOL    HW320119   2.035   2.909   2.209 -0.3463  0.1027  0.8032
 5088SOL    MW420120   2.095   2.847   2.215 -0.3079  0.0956  0.3746
 5089SOL     OW20121   6.033   1.077   0.505  0.3946  0.1298  0.6041
 5089SOL    HW220122   6.010   0.994   0.464 -0.6322  1.7513 -2.4191
 5089SOL    HW320123   6.123   1.093   0.478 -0.2123  1.0947 -1.0203
 5089SOL    MW420124   6.042   1.068   0.496  0.1790  0.4710 -0.0091
 5090SOL     OW20125   5.352   0.637   4.777 -0.4200 -0.3956  0.6726
 5090SOL    HW220126   5.396   0.589   4.707 -0.5944 -0.5390  0.6587
 5090SOL    HW320127   5.402   0.718   4.787 -0.0348 -0.6493  0.7966
 5090SOL    MW420128   5.364   0.641   4.769 -0.3922 -0.4480  0.6871
 5091SOL     OW20129   0.622   3.213   5.642  0.2659 -0.1979  0.0045
 5091SOL    HW220130   0.530   3.221   5.666  0.4903  1.2837  0.5106
 5091SOL    HW320131   0.669   3.221   5.725  0.8737 -0.2094 -0.3338
 5091SOL    MW420132   0.616   3.215   5.656  0.3757 -0.0039  0.0266
 5092SOL     OW20133   1.372   3.089   0.219 -0.0156  0.2446  0.3988
 5092SOL    HW220134   1.444   3.031   0.194 -1.0068 -0.2322 -1.5911
 5092SOL    HW320135   1.408   3.177   0.206  0.3933  0.0171 -0.0784
 5092SOL    MW420136   1.386   3.093   0.214 -0.0924  0.1517  0.0733
 5093SOL     OW20137   0.110   1.637   3.288 -0.0744 -0.4047  0.3253
 5093SOL    HW220138   0.149   1.610   3.370  0.8533  0.3579  0.1576
 5093SOL    HW320139   0.062   1.717   3.309  0.3167 -0.1046  0.1040
 5093SOL    MW420140   0.109   1.644   3.301  0.0996 -0.2645  0.2739
 5094SOL     OW20141   6.011   6.045   4.956  0.5370  0.0514 -0.0062
 5094SOL    HW220142   6.025   6.123   4.903 -0.3888  1.5575  1.8446
 5094SOL    HW320143   5.945   5.995   4.907  0.2963  0.9964 -0.6865
 5094SOL    MW420144   6.004   6.049   4.942  0.3831  0.3748  0.1482
 5095SOL     OW20145   2.267   4.183   0.092  0.1984  0.1992 -0.1265
 5095SOL    HW220146   2.316   4.108   0.059  0.3719  1.4136 -2.8476
 5095SOL    HW320147   2.329   4.231   0.147  0.5446 -0.8160  0.3771
 5095SOL    MW420148   2.282   4.180   0.095  0.2670  0.2254 -0.4191
 5096SOL     OW20149   3.785   5.893   2.350  0.3329 -0.4234  0.0546
 5096SOL    HW220150   3.856   5.889   2.414  1.4293  0.0699 -1.0689
 5096SOL    HW320151   3.769   5.986   2.337  0.7022 -0.4937 -0.9771
 5096SOL    MW420152   3.792   5.905   2.357  0.5263 -0.3676 -0.2298
 5097SOL     OW20153   4.071   4.731   5.919 -0.1738 -0.4299 -0.1707
 5097SOL    HW220154   4.141   4.690   5.868 -0.3541  0.0392 -0.8087
 5097SOL    HW320155   4.003   4.751   5.854 -0.4490  0.0849  0.2685
 5097SOL    MW420156   4.071   4.728   5.904 -0.2339 -0.3001 -0.1969
 5098SOL     OW20157   4.632   2.973   0.280  0.1658  0.0290 -0.3836
 5098SOL    HW220158   4.711   3.022   0.302 -0.1014  1.2731 -1.9899
 5098SOL    HW320159   4.577   2.979   0.358  2.1854 -2.1845  1.3752
 5098SOL    MW420160   4.635   2.980   0.293  0.3970 -0.0989 -0.3635
 5099SOL     OW20161   2.601   6.215   0.709 -0.4552  0.1214  0.3592
 5099SOL    HW220162   2.648   6.168   0.778 -1.7729  0.1541  1.3231
 5099SOL    HW320163   2.665   6.278   0.675 -0.1664  1.1281  2.5824
 5099SOL    MW420164   2.616   6.218   0.714 -0.5909  0.2585  0.7797
 5100SOL     OW20165   1.038   2.682   4.851  0.1229 -0.1191  0.4086
 5100SOL    HW220166   1.101   2.660   4.782 -0.7395 -1.1699 -0.0752
 5100SOL    HW320167   0.955   2.644   4.821 -0.7800  1.3386  0.9758
 5100SOL    MW420168   1.035   2.674   4.838 -0.1100 -0.0654  0.4196
 5101SOL     OW20169   1.208   0.041   3.863  0.3500 -0.2757  0.2242
 5101SOL    HW220170   1.297   0.057   3.831  0.4603  3.6113  1.9429
 5101SOL    HW320171   1.152   0.092   3.805 -0.3170  0.3348  1.3745
 5101SOL    MW420172   1.213   0.050   3.851  0.2766  0.3177  0.6027
 5102SOL     OW20173   3.676   0.718   5.953  0.0308  0.0409 -0.2293
 5102SOL    HW220174   3.651   0.649   6.014  2.0453  0.6472  1.3994
 5102SOL    HW320175   3.664   0.680   5.866  0.2597 -2.0310  0.6028
 5102SOL    MW420176   3.671   0.704   5.950  0.3268 -0.1525  0.0954
 5103SOL     OW20177   5.191   0.198   3.456 -0.1503  0.3940  0.2976
 5103SOL    HW220178   5.162   0.287   3.437 -0.5635  0.1108 -0.4419
 5103SOL    HW320179   5.125   0.142   3.415  0.7461 -0.2558 -0.2749
 5103SOL    MW420180   5.178   0.202   3.448 -0.0865  0.2709  0.1245
 5104SOL     OW20181   0.795   1.566   6.201 -0.3985 -0.1544  0.0716
 5104SOL    HW220182   0.823   1.646   6.155 -0.2722  0.0602  0.5143
 5104SOL    HW320183   0.710   1.589   6.238  0.4103  0.3762  1.6794
 5104SOL    MW420184   0.787   1.580   6.200 -0.2751 -0.0561  0.3422
 5105SOL     OW20185   1.767   2.116   5.794 -0.2437  0.1620  0.2591
 5105SOL    HW220186   1.835   2.048   5.784  2.2200  2.5158 -0.1713
 5105SOL    HW320187   1.775   2.169   5.715 -2.4215  0.7513  0.3806
 5105SOL    MW420188   1.777   2.114   5.782 -0.2060  0.5503  0.2183
 5106SOL     OW20189   2.579   6.009   5.567 -0.2795  0.3431 -0.9534
 5106SOL    HW220190   2.627   6.033   5.488 -1.5418 -2.1692 -2.5889
 5106SOL    HW320191   2.647   5.983   5.629  0.6442 -2.6174 -3.0186
 5106SOL    MW420192   2.594   6.009   5.565 -0.3242 -0.3790 -1.4417
 5107SOL     OW20193   2.953   3.533   6.404  0.7560 -0.1289 -0.5522
 5107SOL    HW220194   3.017   3.534   6.333 -1.4976 -3.0244 -2.9315
 5107SOL    HW320195   2.908   3.617   6.397  2.0189  0.5279 -1.0819
 5107SOL    MW420196   2.955   3.544   6.394  0.6253 -0.4243 -0.9360
 5108SOL     OW20197   2.700   4.837   1.708  0.5135  0.2687  0.4882
 5108SOL    HW220198   2.779   4.882   1.678  1.8287 -1.9154  0.3966
 5108SOL    HW320199   2.704   4.842   1.803  2.7061 -2.6698  0.6843
 5108SOL    MW420200   2.711   4.843   1.717  0.9763 -0.4071  0.5020
 5109SOL     OW20201   5.376   4.500   4.285  0.4426  0.0535 -0.1359
 5109SOL    HW220202   5.369   4.573   4.223 -0.1590  0.5802  0.5408
 5109SOL    HW320203   5.400   4.425   4.230  2.5794  1.0429 -0.6495
 5109SOL    MW420204   5.378   4.500   4.270  0.6451  0.2535 -0.1144
 5110SOL     OW20205   5.780   0.752   1.497  0.3040  0.4056 -0.9919
 5110SOL    HW220206   5.747   0.684   1.557  0.8627  2.3587  1.7366
 5110SOL    HW320207   5.856   0.712   1.455  1.5242 -0.2827  1.6426
 5110SOL    MW420208   5.785   0.738   1.500  0.5387  0.5725 -0.2843
 5111SOL     OW20209   2.557   4.879   2.165  0.1690 -0.1133 -0.6016
 5111SOL    HW220210   2.477   4.832   2.190 -0.6371  0.3716 -2.1740
 5111SOL    HW320211   2.566   4.947   2.232 -0.0527 -0.8996  0.2612
 5111SOL    MW420212   2.548   4.882   2.177  0.0334 -0.1531 -0.6952
 5112SOL     OW20213   4.356   5.220   2.645  0.3076  0.0598  0.5790
 5112SOL    HW220214   4.344   5.138   2.692  0.9363 -0.3204  0.0989
 5112SOL    HW320215   4.449   5.221   2.621  0.0740  0.3697 -0.3920
 5112SOL    MW420216   4.367   5.210   2.648  0.3597  0.0506  0.3876
 5113SOL     OW20217   0.614   3.388   4.985 -0.1183 -0.2644  0.0961
 5113SOL    HW220218   0.538   3.431   5.024 -1.4100 -0.7089 -1.7972
 5113SOL    HW320219   0.686   3.449   4.999 -0.9375  0.4574  1.3728
 5113SOL    MW420220   0.613   3.402   4.992 -0.3968 -0.2278  0.0147
 5114SOL     OW20221   5.554   6.361   1.733  0.2012  0.2945  0.7863
 5114SOL    HW220222   5.628   6.394   1.683  0.1053 -1.9535 -1.0045
 5114SOL    HW320223   5.559   6.266   1.724 -2.8643  0.0514  0.6111
 5114SOL    MW420224   5.564   6.353   1.726 -0.2159 -0.0342  0.5269
 5115SOL     OW20225   2.992   2.223   0.378 -0.4033 -0.0429 -0.3346
 5115SOL    HW220226   2.995   2.317   0.393  0.9526 -0.2409  0.7510
 5115SOL    HW320227   2.977   2.215   0.283 -0.3730  1.2416 -0.4693
 5115SOL    MW420228   2.990   2.234   0.367 -0.2204  0.1005 -0.2092
 5116SOL     OW20229   1.278   2.348   4.238 -0.2165 -0.0300  0.2968
 5116SOL    HW220230   1.331   2.315   4.166 -0.7409  2.6561 -1.4793
 5116SOL    HW320231   1.339   2.398   4.292 -0.3815  0.7584 -0.2178
 5116SOL    MW420232   1.293   2.350   4.235 -0.3075  0.4284 -0.0054
 5117SOL     OW20233   0.083   4.321   5.931 -0.7027  0.3784  0.3262
 5117SOL    HW220234   0.011   4.373   5.967 -0.2476  0.0374  1.7693
 5117SOL    HW320235   0.122   4.378   5.864 -0.9578  1.4226  1.0435
 5117SOL    MW420236   0.079   4.336   5.927 -0.6763  0.4711  0.6112
 5118SOL     OW20237   3.124   1.070   0.115  0.7400 -0.5891  0.1623
 5118SOL    HW220238   3.207   1.114   0.094  1.2754 -0.8917  1.5560
 5118SOL    HW320239   3.131   0.985   0.070  0.7399 -0.2028 -0.5713
 5118SOL    MW420240   3.136   1.064   0.106  0.8106 -0.5780  0.2494
 5119SOL     OW20241   5.600   1.853   0.253  0.6182 -0.1154  0.0107
 5119SOL    HW220242   5.544   1.856   0.175  0.8371  0.0138 -0.1449
 5119SOL    HW320243   5.540   1.862   0.327  0.5545  1.3700 -0.1945
 5119SOL    MW420244   5.585   1.854   0.252  0.6387  0.0976 -0.0369
 5120SOL     OW20245   4.770   5.981   2.493  0.3571 -0.1589 -0.0739
 5120SOL    HW220246   4.679   6.007   2.479 -0.6098 -3.3921 -0.6927
 5120SOL    HW320247   4.794   6.022   2.576 -1.8922  0.2295  0.4604
 5120SOL    MW420248   4.761   5.990   2.502 -0.0673 -0.5342 -0.0850
 5121SOL     OW20249   3.491   4.187   4.499 -0.1543  0.3255 -0.5011
 5121SOL    HW220250   3.512   4.169   4.407 -0.5936  0.7583 -0.6861
 5121SOL    HW320251   3.422   4.124   4.521  0.5046 -0.3182 -0.2273
 5121SOL    MW420252   3.485   4.176   4.489 -0.1253  0.2977 -0.4894
 5122SOL     OW20253   4.627   0.788   5.731  0.3610  0.3928 -0.0309
 5122SOL    HW220254   4.649   0.868   5.684  0.4880  0.1967 -0.3044
 5122SOL    HW320255   4.644   0.809   5.823 -1.5276  1.3511  0.1548
 5122SOL    MW420256   4.632   0.801   5.737  0.1286  0.4933 -0.0425
 5123SOL     OW20257   0.425   5.798   4.836  0.0044  0.1074  0.0866
 5123SOL    HW220258   0.393   5.887   4.851 -0.6991 -0.0819 -0.2442
 5123SOL    HW320259   0.421   5.787   4.741  0.6639 -0.0781  0.0707
 5123SOL    MW420260   0.421   5.808   4.825 -0.0015  0.0579  0.0409
 5124SOL     OW20261   3.279   5.549   5.636 -0.4218 -0.3533  0.3876
 5124SOL    HW220262   3.288   5.503   5.719 -0.5117  0.6403  0.9662
 5124SOL    HW320263   3.227   5.491   5.581  2.2089 -2.4709 -0.1057
 5124SOL    MW420264   3.274   5.535   5.639 -0.0866 -0.5016  0.3989
 5125SOL     OW20265   0.360   0.968   5.108 -0.0797  0.2465  0.6130
 5125SOL    HW220266   0.349   1.006   5.021  0.4083  0.9831  0.8644
 5125SOL    HW320267   0.271   0.942   5.134 -0.0720 -1.0561 -0.5688
 5125SOL    MW420268   0.347   0.969   5.100 -0.0143  0.1718  0.4902
 5126SOL     OW20269   5.575   2.071   0.071  0.3745  0.9087 -0.1094
 5126SOL    HW220270   5.586   2.054   0.165  0.1817  1.1085 -0.0474
 5126SOL    HW320271   5.590   2.166   0.062  3.9458  0.4032 -0.8272
 5126SOL    MW420272   5.578   2.082   0.082  0.8202  0.8684 -0.1959
 5127SOL     OW20273   5.088   4.966   1.109 -0.4770 -0.5710  0.1365
 5127SOL    HW220274   5.020   5.025   1.140  1.5542  0.9072  2.0675
 5127SOL    HW320275   5.103   4.992   1.018 -1.4576  0.0703  0.1550
 5127SOL    MW420276   5.081   4.977   1.101 -0.3384 -0.2914  0.3937
 5128SOL     OW20277   2.792   2.371   0.029  0.0447 -0.1404  0.1127
 5128SOL    HW220278   2.860   2.315   0.067  0.1709 -0.0246  0.0587
 5128SOL    HW320279   2.714   2.353   0.081  0.0375 -0.5025 -0.0197
 5128SOL    MW420280   2.791   2.362   0.041  0.0604 -0.1729  0.0881
 5129SOL     OW20281   5.341   4.236   0.892 -0.0851 -0.4687  0.5764
 5129SOL    HW220282   5.284   4.299   0.850  1.5946  1.8287  1.5172
 5129SOL    HW320283   5.430   4.270   0.877  0.7785 -1.5832  2.7132
 5129SOL    MW420284   5.345   4.249   0.884  0.2504 -0.3126  0.9825
 5130SOL     OW20285   0.241   1.514   5.620 -0.4115  0.0409  0.1922
 5130SOL    HW220286   0.213   1.519   5.711 -0.0099 -0.3794  0.3379
 5130SOL    HW320287   0.323   1.464   5.622 -0.6032 -0.3116 -0.4406
 5130SOL    MW420288   0.248   1.508   5.632 -0.3838 -0.0611  0.1279
 5131SOL     OW20289   3.925   3.487   5.739  0.2771 -0.1859  0.0892
 5131SOL    HW220290   3.929   3.563   5.796  1.3189 -1.1110  1.2879
 5131SOL    HW320291   3.952   3.413   5.794 -2.7762 -1.8407 -0.3861
 5131SOL    MW420292   3.929   3.487   5.753  0.0117 -0.5263  0.1846
 5132SOL     OW20293   5.953   4.775   4.807  0.1866 -0.4006 -0.5591
 5132SOL    HW220294   6.005   4.751   4.730 -0.5048  0.5909 -1.3645
 5132SOL    HW320295   5.901   4.851   4.778 -0.6765 -0.5068  0.6417
 5132SOL    MW420296   5.953   4.782   4.793 -0.0185 -0.2838 -0.5069
 5133SOL     OW20297   2.283   3.299   0.943 -0.1834  0.0979  0.3592
 5133SOL    HW220298   2.228   3.310   1.021 -0.8693  1.4550 -0.2642
 5133SOL    HW320299   2.245   3.224   0.898 -0.6722  0.1686  0.6366
 5133SOL    MW420300   2.271   3.291   0.947 -0.3384  0.2863  0.3136
 5134SOL     OW20301   4.084   0.043   4.181  0.3110 -0.4092 -0.2842
 5134SOL    HW220302   4.028  -0.034   4.189 -0.1208 -0.0135  0.6591
 5134SOL    HW320303   4.171   0.013   4.208  0.2397 -0.6807 -0.3579
 5134SOL    MW420304   4.088   0.029   4.186  0.2446 -0.3928 -0.1695
 5135SOL     OW20305   5.656   1.660   0.596  0.3094  0.1887  0.0332
 5135SOL    HW220306   5.589   1.666   0.664 -0.4869 -1.0127 -0.6230
 5135SOL    HW320307   5.710   1.738   0.609  1.3649 -0.9256  3.2500
 5135SOL    MW420308   5.655   1.671   0.606  0.3436 -0.1169  0.3711
 5136SOL     OW20309   0.203   5.268   0.999  0.1538  0.3501  0.3607
 5136SOL    HW220310   0.112   5.290   1.015 -0.7619 -2.8213  0.2090
 5136SOL    HW320311   0.225   5.204   1.066  2.2053  0.8171  0.2114
 5136SOL    MW420312   0.194   5.262   1.010  0.3036 -0.0067  0.3210
 5137SOL     OW20313   4.429   0.802   4.386  0.1615  0.4324  0.2403
 5137SOL    HW220314   4.524   0.797   4.379  0.0917  0.1841 -0.6662
 5137SOL    HW320315   4.398   0.718   4.352 -0.3568  0.2599  1.1194
 5137SOL    MW420316   4.437   0.790   4.380  0.0839  0.3769  0.2367
 5138SOL     OW20317   0.330   2.161   3.126  0.5869  0.2087  0.0129
 5138SOL    HW220318   0.308   2.068   3.139 -0.2907  0.3138 -0.5861
 5138SOL    HW320319   0.357   2.191   3.212 -0.9050 -0.1594  0.6423
 5138SOL    MW420320   0.331   2.152   3.139  0.2743  0.1740  0.0170
 5139SOL     OW20321   4.675   0.154   4.864 -0.2128  0.3679 -0.1067
 5139SOL    HW220322   4.590   0.196   4.873 -0.8544 -0.8993 -0.0506
 5139SOL    HW320323   4.736   0.214   4.907 -1.0386  1.3646 -0.2771
 5139SOL    MW420324   4.672   0.167   4.871 -0.4064  0.3322 -0.1218
 5140SOL     OW20325   3.696   3.964   4.585  0.6879 -0.2403 -0.5377
 5140SOL    HW220326   3.642   3.997   4.656  0.5203 -2.3097  0.3651
 5140SOL    HW320327   3.720   4.042   4.535  0.9787  1.3151  1.8662
 5140SOL    MW420328   3.692   3.978   4.588  0.7042 -0.3081 -0.1014
 5141SOL     OW20329   1.327   1.150   3.033 -0.2692 -0.3408 -0.1876
 5141SOL    HW220330   1.325   1.058   3.060 -1.0713 -0.0489  0.8202
 5141SOL    HW320331   1.280   1.151   2.950 -3.9128 -0.3295  1.6534
 5141SOL    MW420332   1.320   1.138   3.026 -0.8558 -0.3008  0.1882
 5142SOL     OW20333   3.935   2.961   6.032 -0.5291  0.2171 -0.1343
 5142SOL    HW220334   3.901   3.046   6.059 -0.4468  0.9860 -2.2188
 5142SOL    HW320335   3.913   2.902   6.104  0.0997  2.1272  1.7279
 5142SOL    MW420336   3.928   2.965   6.045 -0.4353  0.5705 -0.1637
 5143SOL     OW20337   3.858   2.556   1.748  0.2580  0.4931 -0.3457
 5143SOL    HW220338   3.945   2.567   1.709  0.1258  0.3069 -0.6981
 5143SOL    HW320339   3.799   2.554   1.673 -0.0510  0.6136 -0.1055
 5143SOL    MW420340   3.862   2.557   1.733  0.1998  0.4845 -0.3605
 5144SOL     OW20341   6.019   2.188   4.009 -0.2108  0.1931  0.1833
 5144SOL    HW220342   5.960   2.225   3.944 -1.1957  0.6499  1.2965
 5144SOL    HW320343   6.097   2.243   4.004 -0.8624  1.1631  0.3973
 5144SOL    MW420344   6.022   2.200   4.000 -0.4267  0.3814  0.3584
 5145SOL     OW20345   4.369   4.924   0.441  0.4210  0.0430  0.0041
 5145SOL    HW220346   4.360   5.017   0.421  0.6203 -0.1570 -1.1004
 5145SOL    HW320347   4.295   4.905   0.499 -0.5820  0.5564 -1.0584
 5145SOL    MW420348   4.358   4.933   0.446  0.3150  0.0844 -0.2818
 5146SOL     OW20349   2.709   0.039   4.793  0.3858  0.2148 -0.0942
 5146SOL    HW220350   2.803   0.042   4.772  0.1705  2.6533 -1.0584
 5146SOL    HW320351   2.667   0.026   4.708 -0.2086  0.9459  0.0871
 5146SOL    MW420352   2.716   0.037   4.779  0.2789  0.6330 -0.1975
 5147SOL     OW20353   4.697   0.311   0.268 -0.4098  0.4234 -0.1636
 5147SOL    HW220354   4.667   0.349   0.350  2.2401 -0.1522  1.1743
 5147SOL    HW320355   4.666   0.220   0.270  0.4714  0.1260  0.7113
 5147SOL    MW420356   4.689   0.304   0.279  0.0561  0.3082  0.1283
 5148SOL     OW20357   2.421   5.779   0.547  0.5499  0.6360 -0.2804
 5148SOL    HW220358   2.441   5.777   0.453 -0.7543 -0.4796 -0.5580
 5148SOL    HW320359   2.405   5.688   0.570  2.0281  0.7231  1.3255
 5148SOL    MW420360   2.422   5.767   0.538  0.5729  0.5003 -0.1051
 5149SOL     OW20361   1.742   6.227   0.096  0.3902  0.8883 -0.1842
 5149SOL    HW220362   1.766   6.146   0.051 -0.5802  0.7320 -0.4574
 5149SOL    HW320363   1.815   6.286   0.080  0.0979  0.8262 -1.9797
 5149SOL    MW420364   1.755   6.224   0.088  0.2236  0.8594 -0.4572
 5150SOL     OW20365   3.425   2.426   3.151 -0.1794  0.2952  0.0334
 5150SOL    HW220366   3.448   2.386   3.235 -0.3421  1.7308  0.7923
 5150SOL    HW320367   3.330   2.438   3.156 -0.4733 -1.1838 -1.1036
 5150SOL    MW420368   3.416   2.422   3.163 -0.2396  0.2895 -0.0165
 5151SOL     OW20369   4.702   0.871   5.984 -0.3836 -0.2595  0.4814
 5151SOL    HW220370   4.706   0.777   6.002 -0.5885 -0.5590 -0.9383
 5151SOL    HW320371   4.632   0.904   6.042 -0.7097 -1.0793  0.5657
 5151SOL    MW420372   4.693   0.863   5.994 -0.4536 -0.4072  0.3052
 5152SOL     OW20373   5.637   4.686   2.422 -0.6107  0.0830 -0.0122
 5152SOL    HW220374   5.646   4.772   2.379  1.0207  0.1923  0.4773
 5152SOL    HW320375   5.556   4.694   2.473 -0.3174  1.4626  0.2884
 5152SOL    MW420376   5.627   4.699   2.423 -0.3568  0.2795  0.0921
 5153SOL     OW20377   2.687   0.503   2.686 -0.3592 -0.4653 -0.4925
 5153SOL    HW220378   2.649   0.585   2.716 -1.9185 -1.6318  0.8987
 5153SOL    HW320379   2.779   0.523   2.669 -0.3702  1.2250  1.2246
 5153SOL    MW420380   2.694   0.516   2.688 -0.5664 -0.3962 -0.0824
 5154SOL     OW20381   2.423   0.516   5.119  0.3056  0.1742  0.6838
 5154SOL    HW220382   2.336   0.501   5.083  0.7195 -2.9843  0.7037
 5154SOL    HW320383   2.477   0.539   5.044  0.0143 -0.7340  0.1828
 5154SOL    MW420384   2.419   0.517   5.104  0.3218 -0.3624  0.6203
 5155SOL     OW20385   0.965   6.406   2.805  0.1914 -0.1045 -0.2188
 5155SOL    HW220386   0.997   6.353   2.878 -0.5391  0.1308  0.2832
 5155SOL    HW320387   1.042   6.421   2.750  0.5077 -1.2676 -0.1089
 5155SOL    MW420388   0.979   6.401   2.807  0.1367 -0.2269 -0.1380
 5156SOL     OW20389   3.886   0.817   0.174  0.6260 -0.2433 -0.4475
 5156SOL    HW220390   3.962   0.856   0.132  0.8577  0.0314  0.2167
 5156SOL    HW320391   3.819   0.885   0.170 -0.0490 -0.9426 -2.2368
 5156SOL    MW420392   3.887   0.831   0.168  0.5675 -0.2993 -0.5959
 5157SOL     OW20393   3.961   6.188   2.668 -0.3176 -0.1080  0.4446
 5157SOL    HW220394   3.870   6.198   2.639  0.0722  0.4301 -0.6397
 5157SOL    HW320395   4.012   6.238   2.605  0.6761  0.2802  1.5190
 5157SOL    MW420396   3.956   6.196   2.656 -0.1350  0.0142  0.4433
 5158SOL     OW20397   1.674   4.415   4.080 -0.1870  0.2457  0.4854
 5158SOL    HW220398   1.748   4.394   4.136  0.8001  2.9123  0.3286
 5158SOL    HW320399   1.712   4.432   3.994 -0.8860  1.8857  0.4626
 5158SOL    MW420400   1.688   4.415   4.076 -0.1490  0.8139  0.4617
 5159SOL     OW20401   1.300   0.795   5.900 -0.3234 -0.7160  0.4290
 5159SOL    HW220402   1.290   0.733   5.828 -0.1915 -0.9883  0.6449
 5159SOL    HW320403   1.386   0.834   5.887 -0.3246 -0.7211  0.4058
 5159SOL    MW420404   1.310   0.792   5.889 -0.3062 -0.7526  0.4544
 5160SOL     OW20405   5.234   1.731   6.018 -0.0030 -0.2403 -0.6995
 5160SOL    HW220406   5.173   1.763   6.085  2.8763 -0.5533  2.3445
 5160SOL    HW320407   5.231   1.797   5.949  0.5854  3.0286  2.1481
 5160SOL    MW420408   5.225   1.744   6.018  0.4545  0.1497  0.0778
 5161SOL     OW20409   1.363   3.458   2.047  0.0131 -0.0547  0.1567
 5161SOL    HW220410   1.310   3.527   2.086  0.2165  1.5999 -2.3088
 5161SOL    HW320411   1.317   3.435   1.966  0.8552 -1.6294  0.0810
 5161SOL    MW420412   1.350   3.464   2.042  0.1510 -0.0441 -0.1786
 5162SOL     OW20413   1.649   3.319   1.775  0.0034  0.0009 -0.1695
 5162SOL    HW220414   1.740   3.328   1.805 -0.6872  1.8030  1.6521
 5162SOL    HW320415   1.631   3.225   1.782  0.8702 -0.0755  2.3755
 5162SOL    MW420416   1.659   3.308   1.780  0.0266  0.2286  0.4066
 5163SOL     OW20417   5.157   0.937   6.346  0.0709  1.0402  0.2924
 5163SOL    HW220418   5.210   0.879   6.290 -1.5028  1.1392 -1.3850
 5163SOL    HW320419   5.185   1.025   6.321  0.5844  1.0650  0.9330
 5163SOL    MW420420   5.168   0.941   6.335 -0.0690  1.0565  0.1556
 5164SOL     OW20421   4.886   6.000   2.032  0.5535 -0.8035 -0.3715
 5164SOL    HW220422   4.871   6.046   2.115  0.3591  0.0695 -0.8803
 5164SOL    HW320423   4.944   5.927   2.055  0.5759 -0.5182  0.5098
 5164SOL    MW420424   4.892   5.996   2.046  0.5308 -0.6507 -0.3223
 5165SOL     OW20425   6.253   1.537   4.838  0.2156 -0.4320 -0.3478
 5165SOL    HW220426   6.290   1.612   4.791 -0.3164  1.1501  1.6327
 5165SOL    HW320427   6.158   1.548   4.828  0.1292 -0.6086  0.2905
 5165SOL    MW420428   6.245   1.549   4.830  0.1340 -0.2466 -0.0023
 5166SOL     OW20429   4.043   5.613   2.961 -0.5423  0.2768  0.1091
 5166SOL    HW220430   4.129   5.623   3.002 -1.2050  2.0208  1.1682
 5166SOL    HW320431   4.048   5.529   2.915  1.7723  0.4116 -0.0065
 5166SOL    MW420432   4.055   5.603   2.960 -0.3244  0.5247  0.2336
 5167SOL     OW20433   4.104   2.903   5.791  0.4632  0.8719 -0.5273
 5167SOL    HW220434   4.075   2.914   5.881  2.3744  2.9633 -0.0788
 5167SOL    HW320435   4.188   2.858   5.799  0.1769  0.1726 -1.3518
 5167SOL    MW420436   4.111   2.898   5.804  0.6776  1.0556 -0.5769
 5168SOL     OW20437   1.657   3.392   5.578  0.4843  0.0675  0.5049
 5168SOL    HW220438   1.630   3.482   5.560  2.5131  0.5086 -0.7735
 5168SOL    HW320439   1.702   3.397   5.663  0.2254  0.1765  0.6352
 5168SOL    MW420440   1.660   3.404   5.587  0.7178  0.1401  0.3534
 5169SOL     OW20441   0.917   5.085   5.694  0.1622  0.4225  0.1148
 5169SOL    HW220442   0.923   4.995   5.664 -0.2197  0.3384  0.2875
 5169SOL    HW320443   0.823   5.101   5.707  0.2251  0.8447  0.0788
 5169SOL    MW420444   0.906   5.075   5.692  0.1201  0.4671  0.1328
 5170SOL     OW20445   2.702   1.729   3.066 -0.0847 -0.1457 -0.1150
 5170SOL    HW220446   2.655   1.778   2.999 -0.1709 -0.5307 -0.3409
 5170SOL    HW320447   2.633   1.695   3.124 -0.0413 -0.1823 -0.0845
 5170SOL    MW420448   2.687   1.731   3.065 -0.0903 -0.2013 -0.1408
 5171SOL     OW20449   5.015   3.616   3.806  0.4548  0.3599  0.0611
 5171SOL    HW220450   4.948   3.650   3.746  1.4032  1.2730 -0.5087
 5171SOL    HW320451   5.090   3.597   3.750  1.3983  1.3298  0.9643
 5171SOL    MW420452   5.016   3.618   3.791  0.7044  0.6083  0.1051
 5172SOL     OW20453   3.173   0.312   5.173 -0.0923  0.4562  0.0518
 5172SOL    HW220454   3.115   0.238   5.191 -1.8311  1.7023 -0.1523
 5172SOL    HW320455   3.139   0.383   5.227  1.4106  1.1990  0.0870
 5172SOL    MW420456   3.161   0.312   5.182 -0.1234  0.7186  0.0295
 5173SOL     OW20457   1.672   3.723   0.053 -0.3220 -0.3265  0.6632
 5173SOL    HW220458   1.694   3.816   0.057  0.6053 -0.4996 -0.1064
 5173SOL    HW320459   1.745   3.678   0.094 -0.0273 -0.8035 -0.3412
 5173SOL    MW420460   1.684   3.729   0.059 -0.1607 -0.4123  0.4291
 5174SOL     OW20461   3.922   5.519   6.278  0.3213  0.1037  0.1009
 5174SOL    HW220462   3.896   5.542   6.367 -2.2884 -2.4636  0.1515
 5174SOL    HW320463   4.010   5.482   6.288  0.2556  0.2597  1.5361
 5174SOL    MW420464   3.930   5.517   6.291 -0.0317 -0.2145  0.2969
 5175SOL     OW20465   0.767   3.433   3.357  0.4059  0.0829  0.7118
 5175SOL    HW220466   0.819   3.495   3.409  1.2975  0.1681 -0.2516
 5175SOL    HW320467   0.677   3.457   3.376  0.6737 -0.2422  2.6396
 5175SOL    MW420468   0.762   3.444   3.367  0.5589  0.0513  0.8391
 5176SOL     OW20469   0.969   1.640   1.457 -0.1296  0.3687  0.1494
 5176SOL    HW220470   0.937   1.727   1.434  1.8925  1.0895 -0.0822
 5176SOL    HW320471   1.002   1.649   1.547 -0.1877 -0.2394  0.2386
 5176SOL    MW420472   0.969   1.653   1.466  0.1295  0.3835  0.1306
 5177SOL     OW20473   3.179   3.396   0.955  0.3330  0.1461 -0.3956
 5177SOL    HW220474   3.113   3.431   0.895 -0.6149 -2.3057 -0.9234
 5177SOL    HW320475   3.129   3.355   1.025  1.3831  0.5100  0.5973
 5177SOL    MW420476   3.164   3.395   0.956  0.3465 -0.1294 -0.3343
 5178SOL     OW20477   3.354   0.888   5.828  0.0942  0.4923  0.4496
 5178SOL    HW220478   3.323   0.972   5.863  0.4571  0.8533 -0.0796
 5178SOL    HW320479   3.359   0.831   5.904 -1.1086  0.6507  0.6690
 5178SOL    MW420480   3.350   0.892   5.843 -0.0166  0.5608  0.4087
 5179SOL     OW20481   1.987   5.847   3.336  0.2545  0.0366  0.0126
 5179SOL    HW220482   1.942   5.769   3.368  0.1202  0.6463  1.3814
 5179SOL    HW320483   1.918   5.906   3.307  0.2504  0.3094  0.5616
 5179SOL    MW420484   1.972   5.845   3.336  0.2362  0.1530  0.2656
 5180SOL     OW20485   2.913   0.012   6.044  0.5224 -0.5211  0.2032
 5180SOL    HW220486   2.845  -0.022   5.986  0.7840 -0.9038  0.1201
 5180SOL    HW320487   2.969   0.065   5.988  0.4112 -0.3707  0.2329
 5180SOL    MW420488   2.911   0.015   6.029  0.5422 -0.5517  0.1961
 5181SOL     OW20489   1.606   3.095   3.737  0.4168 -0.4332  0.0353
 5181SOL    HW220490   1.595   3.139   3.653  2.6772 -0.3530 -0.2908
 5181SOL    HW320491   1.660   3.018   3.716 -1.8222 -2.3537  0.8974
 5181SOL    MW420492   1.612   3.091   3.723  0.4196 -0.6760  0.1060
 5182SOL     OW20493   1.538   5.826   1.848  0.1292 -0.1238  0.1075
 5182SOL    HW220494   1.482   5.748   1.845  0.4761 -0.3690 -0.0607
 5182SOL    HW320495   1.627   5.792   1.841  0.1983  0.4354 -2.4453
 5182SOL    MW420496   1.542   5.811   1.847  0.1841 -0.0824 -0.2515
 5183SOL     OW20497   2.850   5.497   3.296 -0.1192 -0.0814 -0.2621
 5183SOL    HW220498   2.920   5.556   3.323 -0.8594  0.4277  0.6250
 5183SOL    HW320499   2.799   5.547   3.232 -1.7433  0.9810  1.7201
 5183SOL    MW420500   2.852   5.512   3.292 -0.4312  0.1259  0.1165
 5184SOL     OW20501   3.794   6.068   5.276  0.2911 -0.3050 -0.2554
 5184SOL    HW220502   3.844   6.054   5.357  1.9400  2.3338 -0.6911
 5184SOL    HW320503   3.813   5.992   5.222  0.1988 -1.4923  1.3188
 5184SOL    MW420504   3.803   6.056   5.280  0.4965 -0.1135 -0.1052
 5185SOL     OW20505   6.312   2.583   3.453  0.3169  0.2356  0.3310
 5185SOL    HW220506   6.296   2.602   3.361  1.1923 -0.1971  0.0699
 5185SOL    HW320507   6.289   2.490   3.462 -1.8334  0.8053  1.0696
 5185SOL    MW420508   6.307   2.573   3.442  0.1487  0.2537  0.3940
 5186SOL     OW20509   6.011   0.256   2.597  0.2007  0.2492  0.4190
 5186SOL    HW220510   6.012   0.331   2.538 -0.5222  0.5410  0.7736
 5186SOL    HW320511   6.020   0.180   2.539  1.0072  0.6043  0.0675
 5186SOL    MW420512   6.012   0.256   2.581  0.2117  0.3345  0.4194
 5187SOL     OW20513   0.869   3.102   4.549  0.5175  0.3675  0.2811
 5187SOL    HW220514   0.820   3.184   4.538  0.5795  0.7287  2.2801
 5187SOL    HW320515   0.961   3.128   4.540  0.4830  0.2213 -0.5796
 5187SOL    MW420516   0.875   3.117   4.546  0.5211  0.3959  0.4313
 5188SOL     OW20517   5.079   6.172   0.532 -0.3262 -0.3170  0.7571
 5188SOL    HW220518   5.119   6.117   0.465  1.0350 -0.3933  1.5921
 5188SOL    HW320519   5.144   6.239   0.550 -1.4876  0.9030  0.6049
 5188SOL    MW420520   5.093   6.173   0.526 -0.2998 -0.1661  0.8472
 5189SOL     OW20521   0.268   0.208   2.061  0.2860  0.6679  0.0337
 5189SOL    HW220522   0.190   0.241   2.104  1.4344  1.3880  1.6874
 5189SOL    HW320523   0.323   0.175   2.133  0.8495 -1.3091 -1.2038
 5189SOL    MW420524   0.265   0.208   2.077  0.5118  0.5021  0.0886
 5190SOL     OW20525   4.081   4.328   4.362 -0.4337 -0.4022  0.3843
 5190SOL    HW220526   3.995   4.296   4.390 -1.2925  0.6977 -0.8628
 5190SOL    HW320527   4.136   4.250   4.361 -0.9297 -0.8635  2.8408
 5190SOL    MW420528   4.077   4.313   4.366 -0.6125 -0.3180  0.5439
 5191SOL     OW20529   1.208   2.059   3.707 -0.5542 -0.3250  0.3863
 5191SOL    HW220530   1.175   2.113   3.635  2.6782  0.3453 -0.7726
 5191SOL    HW320531   1.303   2.068   3.702 -0.1145 -1.7291  3.6785
 5191SOL    MW420532   1.216   2.067   3.697 -0.0697 -0.4218  0.6677
 5192SOL     OW20533   0.721   5.279   5.942 -0.3248 -0.5297  0.6053
 5192SOL    HW220534   0.739   5.357   5.889 -3.0069  0.5436  1.0766
 5192SOL    HW320535   0.787   5.281   6.011  0.0909  0.9436  0.2042
 5192SOL    MW420536   0.732   5.290   5.944 -0.6238 -0.1937  0.6146
 5193SOL     OW20537   6.054   3.291   4.362 -0.2543 -0.3358 -0.1140
 5193SOL    HW220538   6.057   3.197   4.346 -2.9199 -0.1780 -2.2203
 5193SOL    HW320539   5.981   3.304   4.422 -1.5605  0.5164 -1.8007
 5193SOL    MW420540   6.045   3.281   4.368 -0.7784 -0.2026 -0.6144
 5194SOL     OW20541   6.308   1.305   2.552  0.5433  0.2665  0.0268
 5194SOL    HW220542   6.316   1.365   2.626 -1.7021 -0.0157  0.5452
 5194SOL    HW320543   6.327   1.360   2.475 -0.2275  1.3438  0.5801
 5194SOL    MW420544   6.312   1.320   2.552  0.1453  0.3714  0.1682
 5195SOL     OW20545   0.941   0.040   5.460  0.1337 -0.0637  0.5505
 5195SOL    HW220546   0.877   0.054   5.530  1.3130  0.1974  1.6060
 5195SOL    HW320547   1.017   0.002   5.504  1.2905  1.0327 -0.4164
 5195SOL    MW420548   0.942   0.037   5.475  0.4420  0.1154  0.5622
 5196SOL     OW20549   4.549   3.318   1.613 -0.1344  0.1033  0.1660
 5196SOL    HW220550   4.596   3.240   1.582  1.2665  1.5882 -1.7334
 5196SOL    HW320551   4.488   3.339   1.542 -1.6094 -0.1142  1.3417
 5196SOL    MW420552   4.547   3.310   1.599 -0.1441  0.2705  0.0706
 5197SOL     OW20553   2.778   5.102   3.551 -0.7479 -0.2753 -0.4553
 5197SOL    HW220554   2.789   5.087   3.457  1.1193  1.4404 -0.5724
 5197SOL    HW320555   2.751   5.194   3.558 -1.3382 -0.5178  0.6658
 5197SOL    MW420556   2.776   5.112   3.540 -0.5794 -0.0809 -0.3229
 5198SOL     OW20557   2.344   4.757   1.847  0.2703  0.1719 -0.0119
 5198SOL    HW220558   2.357   4.808   1.767 -2.7931  1.9530  0.5032
 5198SOL    HW320559   2.389   4.807   1.915  0.3779  0.1950 -0.0981
 5198SOL    MW420560   2.352   4.770   1.845 -0.1197  0.4100  0.0447
 5199SOL     OW20561  -0.009   1.904   4.872  0.1541  0.0811  0.1097
 5199SOL    HW220562  -0.034   1.996   4.874 -0.1250 -0.0115  1.0911
 5199SOL    HW320563  -0.077   1.859   4.921 -1.3298 -1.0735 -2.7434
 5199SOL    MW420564  -0.021   1.910   4.879 -0.0785 -0.0835 -0.1373
 5200SOL     OW20565   5.087   0.857   0.727 -0.1727  0.4684  0.4182
 5200SOL    HW220566   5.140   0.788   0.766  0.7110  1.6740  1.4432
 5200SOL    HW320567   5.056   0.820   0.645 -0.5899 -1.5077  1.4069
 5200SOL    MW420568   5.090   0.843   0.721 -0.1112  0.3668  0.6839
 5201SOL     OW20569   6.094   0.646   5.743 -0.0250  0.2590  0.1062
 5201SOL    HW220570   6.049   0.710   5.688 -1.7333  0.6366  1.8304
 5201SOL    HW320571   6.123   0.578   5.682 -0.1376  1.5710 -1.4781
 5201SOL    MW420572   6.092   0.645   5.727 -0.2652  0.4819  0.1246
 5202SOL     OW20573   3.366   3.391   4.022 -0.3683  0.0175 -0.2610
 5202SOL    HW220574   3.287   3.438   4.048  0.4046  0.7220  0.9126
 5202SOL    HW320575   3.338   3.335   3.950 -2.1138 -0.3350  0.6371
 5202SOL    MW420576   3.352   3.390   4.016 -0.4966  0.0640  0.0124
 5203SOL     OW20577   4.217   3.793   5.090  0.0901 -0.0887 -0.4307
 5203SOL    HW220578   4.272   3.858   5.047  0.0936  0.0521 -0.2116
 5203SOL    HW320579   4.275   3.717   5.102  0.7977  0.6910  1.4662
 5203SOL    MW420580   4.232   3.791   5.086  0.1839  0.0327 -0.1515
 5204SOL     OW20581   4.742   0.209   5.304 -0.1365  0.3036 -0.1259
 5204SOL    HW220582   4.764   0.147   5.235 -1.2827 -0.2688  0.0047
 5204SOL    HW320583   4.647   0.209   5.308 -0.1546  1.7113  0.2135
 5204SOL    MW420584   4.732   0.201   5.296 -0.2901  0.4138 -0.0639
 5205SOL     OW20585   3.410   4.209   5.787  0.5073 -0.8903  0.2749
 5205SOL    HW220586   3.498   4.213   5.750  0.8862 -0.2749  1.2102
 5205SOL    HW320587   3.423   4.218   5.881 -0.6740  0.8041  0.3213
 5205SOL    MW420588   3.424   4.210   5.795  0.4014 -0.5856  0.4044
 5206SOL     OW20589   3.033   2.786   0.499  0.1435 -0.1460 -0.0744
 5206SOL    HW220590   2.967   2.814   0.436  0.1409 -0.4724 -0.2173
 5206SOL    HW320591   3.016   2.840   0.576 -0.4565 -0.3945 -0.0201
 5206SOL    MW420592   3.022   2.797   0.501  0.0640 -0.2219 -0.0861
 5207SOL     OW20593   5.418   3.306   1.678 -0.0389 -0.5210  0.2217
 5207SOL    HW220594   5.356   3.237   1.701 -0.5079 -0.1759  0.0176
 5207SOL    HW320595   5.369   3.363   1.619  0.6370 -0.5239 -0.3549
 5207SOL    MW420596   5.403   3.304   1.673 -0.0116 -0.4759  0.1187
 5208SOL     OW20597   4.476   5.316   4.309  0.4441 -0.2399  0.0848
 5208SOL    HW220598   4.512   5.265   4.236 -1.7642 -1.8480  0.0199
 5208SOL    HW320599   4.490   5.261   4.386  0.4432  0.2917  0.4736
 5208SOL    MW420600   4.482   5.302   4.309  0.1526 -0.3819  0.1276
 5209SOL     OW20601   1.490   3.849   4.821  0.0317 -0.0962  0.3456
 5209SOL    HW220602   1.542   3.917   4.777 -0.4912 -0.0958 -0.2905
 5209SOL    HW320603   1.472   3.884   4.908  1.5704 -0.3326  0.7851
 5209SOL    MW420604   1.495   3.863   4.826  0.1657 -0.1273  0.3197
 5210SOL     OW20605   1.824   2.317   3.061  0.2670 -0.6739 -0.0166
 5210SOL    HW220606   1.746   2.285   3.016  0.2745 -1.1670  0.3122
 5210SOL    HW320607   1.818   2.280   3.149  0.5291 -0.1605  0.2212
 5210SOL    MW420608   1.813   2.308   3.066  0.3025 -0.6712  0.0582
 5211SOL     OW20609   2.317   0.521   0.095  0.9339 -0.0807 -0.8362
 5211SOL    HW220610   2.351   0.547   0.180 -1.2713  0.7473 -0.1439
 5211SOL    HW320611   2.380   0.556   0.032  1.4125  1.2922  0.3637
 5211SOL    MW420612   2.329   0.529   0.098  0.7061  0.2097 -0.5865
 5212SOL     OW20613   0.240   0.478   5.457 -0.1171 -0.0622 -0.3753
 5212SOL    HW220614   0.157   0.431   5.465  0.0842 -0.4537 -0.5634
 5212SOL    HW320615   0.287   0.431   5.388 -1.3257  2.5037 -3.1509
 5212SOL    MW420616   0.235   0.465   5.449 -0.2500  0.2247 -0.7663
 5213SOL     OW20617   3.928   0.818   1.763 -0.4549  0.1729  0.5368
 5213SOL    HW220618   3.946   0.770   1.682 -1.3791  0.4373  0.1671
 5213SOL    HW320619   3.999   0.792   1.822 -0.6027 -1.1805  0.1517
 5213SOL    MW420620   3.940   0.808   1.760 -0.5963  0.0292  0.4372
 5214SOL     OW20621   5.887   5.959   5.577  0.3375  0.5903  0.3896
 5214SOL    HW220622   5.858   5.879   5.621  0.0487  1.2503  1.4231
 5214SOL    HW320623   5.972   5.937   5.541  0.0401 -0.3393  0.2288
 5214SOL    MW420624   5.894   5.946   5.578  0.2602  0.5547  0.5048
 5215SOL     OW20625   2.637   5.200   1.492  0.0303  0.4793 -0.1955
 5215SOL    HW220626   2.698   5.169   1.559  0.9524  2.6559  0.0599
 5215SOL    HW320627   2.550   5.175   1.524  0.5680  0.1772  1.0687
 5215SOL    MW420628   2.634   5.193   1.505  0.2229  0.7266  0.0050
 5216SOL     OW20629   3.534   1.535   6.115  0.5690  0.4410  0.2018
 5216SOL    HW220630   3.564   1.471   6.051  0.1479  0.1390  0.2970
 5216SOL    HW320631   3.588   1.520   6.192 -0.8429 -1.1796  0.9368
 5216SOL    MW420632   3.545   1.525   6.117  0.3272  0.1874  0.3114
 5217SOL     OW20633   5.319   0.301   1.568 -0.2047  0.2461 -0.2036
 5217SOL    HW220634   5.233   0.282   1.530 -0.4313 -0.3303  0.5633
 5217SOL    HW320635   5.333   0.229   1.630  1.9866 -1.1706 -2.1620
 5217SOL    MW420636   5.310   0.289   1.571  0.0545 -0.0169 -0.3608
 5218SOL     OW20637   2.093   1.226   1.712 -0.0951 -0.2179 -0.1677
 5218SOL    HW220638   2.127   1.303   1.667 -1.6063  2.3767  2.7859
 5218SOL    HW320639   2.172   1.178   1.740  1.0318  2.0055  0.7045
 5218SOL    MW420640   2.108   1.230   1.710 -0.1458  0.4178  0.3371
 5219SOL     OW20641   1.666   0.885   2.931  0.0382  0.5595 -0.0757
 5219SOL    HW220642   1.576   0.854   2.944  0.3318  0.6249  2.8298
 5219SOL    HW320643   1.658   0.980   2.924 -0.0933  0.6467  1.0514
 5219SOL    MW420644   1.653   0.894   2.932  0.0596  0.5797  0.4563
 5220SOL     OW20645   2.146   2.551   4.410 -0.5336 -0.8398 -0.0317
 5220SOL    HW220646   2.164   2.478   4.352 -0.1622 -0.9494  0.2167
 5220SOL    HW320647   2.054   2.572   4.395 -0.1511 -0.1008 -1.5158
 5220SOL    MW420648   2.137   2.544   4.401 -0.4341 -0.7568 -0.1947
 5221SOL     OW20649   2.977   2.510   0.423  0.1541 -0.0061  0.1533
 5221SOL    HW220650   3.011   2.597   0.444 -0.8102  0.0889  1.4695
 5221SOL    HW320651   2.894   2.505   0.471 -0.3720 -1.2221 -0.8302
 5221SOL    MW420652   2.971   2.521   0.432 -0.0425 -0.1540  0.1972
 5222SOL     OW20653   6.252   4.198   3.707  0.1928 -0.1473  0.2227
 5222SOL    HW220654   6.195   4.238   3.773  0.5108  0.6136  0.0407
 5222SOL    HW320655   6.205   4.210   3.624  0.0891 -0.5404  0.2221
 5222SOL    MW420656   6.238   4.205   3.705  0.2211 -0.0988  0.1986
 5223SOL     OW20657   6.217   5.351   1.980 -0.3784 -0.0692  0.0324
 5223SOL    HW220658   6.225   5.346   2.075  0.1689 -0.8429 -0.0421
 5223SOL    HW320659   6.150   5.287   1.958  0.6648 -1.1151 -0.2257
 5223SOL    MW420660   6.209   5.342   1.990 -0.1686 -0.3093 -0.0115
 5224SOL     OW20661   4.873   3.460   2.692 -0.4950 -0.5369 -0.2026
 5224SOL    HW220662   4.877   3.551   2.721 -0.5426 -1.1171  1.7837
 5224SOL    HW320663   4.964   3.439   2.668  1.0016 -1.5576  4.9880
 5224SOL    MW420664   4.886   3.469   2.692 -0.3038 -0.7481  0.7443
 5225SOL     OW20665   0.207   5.283   5.280 -0.4042  0.2029  0.4659
 5225SOL    HW220666   0.289   5.242   5.308  0.5556  1.8996  0.2891
 5225SOL    HW320667   0.150   5.279   5.357  0.4248  0.4064  1.1042
 5225SOL    MW420668   0.210   5.277   5.294 -0.1682  0.4536  0.5268
 5226SOL     OW20669   2.160   1.787   6.395 -1.0337  0.5055 -0.0716
 5226SOL    HW220670   2.159   1.752   6.306 -0.9786  0.6919 -0.1454
 5226SOL    HW320671   2.220   1.861   6.391  1.0686 -1.0459  0.6929
 5226SOL    MW420672   2.168   1.792   6.383 -0.7491  0.3254  0.0195
 5227SOL     OW20673   1.551   4.765   3.034  0.5565  0.0937 -0.3227
 5227SOL    HW220674   1.595   4.743   3.116  1.1905  0.8975 -0.4353
 5227SOL    HW320675   1.591   4.706   2.969 -0.1276 -0.7233 -0.0299
 5227SOL    MW420676   1.562   4.754   3.036  0.5499  0.0919 -0.2989
 5228SOL     OW20677   3.409   1.425   5.179 -0.1223 -0.4751 -0.1257
 5228SOL    HW220678   3.314   1.425   5.185 -0.1896 -1.9409 -0.7206
 5228SOL    HW320679   3.427   1.448   5.088  0.0157 -1.6302 -0.4096
 5228SOL    MW420680   3.399   1.428   5.168 -0.1130 -0.8209 -0.2416
 5229SOL     OW20681   5.406   1.824   5.559  0.2168  0.0508 -0.2861
 5229SOL    HW220682   5.354   1.799   5.483  2.4505  0.0173 -1.8966
 5229SOL    HW320683   5.448   1.742   5.587  1.5764  0.5480 -0.7936
 5229SOL    MW420684   5.404   1.810   5.553  0.6909  0.1120 -0.5656
 5230SOL     OW20685   3.318   4.863   2.302  0.2133  0.0261  0.4414
 5230SOL    HW220686   3.337   4.956   2.294  2.7366 -0.1897  2.5072
 5230SOL    HW320687   3.330   4.828   2.214  2.4951  1.2013  0.2116
 5230SOL    MW420688   3.322   4.871   2.289  0.8473  0.1527  0.6837
 5231SOL     OW20689   0.234   1.257   0.005  0.5392 -0.8174  0.5856
 5231SOL    HW220690   0.310   1.306  -0.025 -0.0291  0.1460  0.6599
 5231SOL    HW320691   0.191   1.227  -0.075 -1.0745  1.8997  0.2909
 5231SOL    MW420692   0.238   1.260  -0.010  0.2513 -0.3318  0.5565
 5232SOL     OW20693   4.523   3.478   2.039  0.0667  0.0193 -0.1246
 5232SOL    HW220694   4.471   3.412   2.083 -0.1008 -0.1583 -0.5807
 5232SOL    HW320695   4.505   3.559   2.086 -0.1222 -0.1632  0.1164
 5232SOL    MW420696   4.514   3.480   2.051  0.0197 -0.0282 -0.1530
 5233SOL     OW20697   4.293   5.316   4.953 -0.1708 -0.6428  0.2832
 5233SOL    HW220698   4.318   5.262   4.878  0.1614 -0.9302  0.5974
 5233SOL    HW320699   4.240   5.386   4.916 -1.6124 -1.8375  0.0073
 5233SOL    MW420700   4.290   5.318   4.938 -0.3172 -0.8383  0.2883
 5234SOL     OW20701   5.081   1.311   0.013 -0.3201 -0.0991  0.6009
 5234SOL    HW220702   5.100   1.329  -0.079  0.1928  2.6270  1.1540
 5234SOL    HW320703   4.988   1.330   0.022 -0.4769 -0.8223  0.5760
 5234SOL    MW420704   5.071   1.316   0.002 -0.2732  0.1652  0.6706
 5235SOL     OW20705   2.127   3.346   3.025  0.1844  0.3107 -0.1321
 5235SOL    HW220706   2.056   3.290   3.056 -1.6027  2.1748 -0.7204
 5235SOL    HW320707   2.185   3.355   3.101 -0.7766 -0.3459  0.6997
 5235SOL    MW420708   2.125   3.340   3.039 -0.1782  0.4700 -0.1000
 5236SOL     OW20709   1.413   3.029   1.521 -0.1086 -0.1596  0.8357
 5236SOL    HW220710   1.353   3.098   1.496  0.4634 -0.4065 -1.5175
 5236SOL    HW320711   1.453   3.059   1.603  1.0454  2.9496 -0.7095
 5236SOL    MW420712   1.411   3.042   1.529  0.1191  0.2181  0.3214
 5237SOL     OW20713   5.983   5.294   3.315  0.0816 -0.1941  0.5406
 5237SOL    HW220714   6.043   5.238   3.364 -0.8668 -1.0171  0.7931
 5237SOL    HW320715   6.017   5.383   3.328  1.2263 -0.6359  0.6783
 5237SOL    MW420716   5.996   5.298   3.323  0.1075 -0.3610  0.5921
 5238SOL     OW20717   2.071   0.079   5.662  0.4265 -0.0865 -0.4544
 5238SOL    HW220718   2.122   0.098   5.583 -0.3055  0.4129 -0.8154
 5238SOL    HW320719   2.135   0.079   5.733  0.9573  0.3257 -0.9317
 5238SOL    MW420720   2.086   0.082   5.661  0.4000  0.0338 -0.5650
 5239SOL     OW20721   5.459   0.584   0.684  0.1164 -0.0637 -0.9011
 5239SOL    HW220722   5.403   0.537   0.622  1.4129 -2.5213 -0.3406
 5239SOL    HW320723   5.511   0.643   0.630 -0.0632 -0.8400 -1.9416
 5239SOL    MW420724   5.458   0.586   0.669  0.2637 -0.4904 -0.9644
 5240SOL     OW20725   1.322   4.638   3.126 -0.0104  0.0798 -0.1899
 5240SOL    HW220726   1.339   4.676   3.212  0.7876 -1.8176  0.5548
 5240SOL    HW320727   1.396   4.666   3.072  0.0122  0.4406  0.0254
 5240SOL    MW420728   1.334   4.647   3.130  0.0979 -0.1229 -0.0632
 5241SOL     OW20729   4.399   2.520   3.781 -0.2158  0.1038 -0.1060
 5241SOL    HW220730   4.454   2.442   3.778  1.1935  0.9963  0.9952
 5241SOL    HW320731   4.424   2.564   3.862 -1.4286  1.3747 -0.3776
 5241SOL    MW420732   4.409   2.516   3.791 -0.1898  0.3892  0.0035
 5242SOL     OW20733   5.238   3.897   3.734 -0.1055  0.1907  0.1285
 5242SOL    HW220734   5.271   3.917   3.822 -0.2633 -0.4357  0.3391
 5242SOL    HW320735   5.145   3.920   3.738 -0.3741 -0.8688  0.4863
 5242SOL    MW420736   5.230   3.903   3.746 -0.1618 -0.0317  0.2035
 5243SOL     OW20737   3.650   4.677   5.402  0.3000 -0.3415 -0.0152
 5243SOL    HW220738   3.655   4.627   5.321 -0.2188 -0.0332 -0.2467
 5243SOL    HW320739   3.572   4.644   5.446  1.7233 -1.9876  1.3909
 5243SOL    MW420740   3.641   4.666   5.397  0.4194 -0.5180  0.1398
 5244SOL     OW20741   4.873   4.416   5.403 -0.1645  0.2528  0.2506
 5244SOL    HW220742   4.789   4.416   5.449 -0.6732  1.0345 -0.6338
 5244SOL    HW320743   4.850   4.435   5.311  0.8562 -0.8263 -0.2566
 5244SOL    MW420744   4.859   4.418   5.397 -0.0969  0.2136  0.0670
 5245SOL     OW20745   4.987   4.818   1.543 -0.1686 -0.1975  0.4096
 5245SOL    HW220746   4.939   4.755   1.598  0.8692 -0.9220  0.5145
 5245SOL    HW320747   5.040   4.763   1.485 -1.1845  0.5551 -1.2928
 5245SOL    MW420748   4.988   4.803   1.543 -0.1657 -0.1938  0.1989
 5246SOL     OW20749   4.289   4.426   5.904 -0.2772  0.8949 -0.1382
 5246SOL    HW220750   4.297   4.499   5.843  0.7083  0.5844 -0.4032
 5246SOL    HW320751   4.280   4.467   5.990 -1.7905  1.3358 -0.4805
 5246SOL    MW420752   4.289   4.441   5.907 -0.3469  0.9121 -0.2183
 5247SOL     OW20753   1.484   2.170   4.921  0.7096 -0.6236 -0.3036
 5247SOL    HW220754   1.550   2.223   4.967  0.1710  0.0961 -0.3497
 5247SOL    HW320755   1.442   2.119   4.990  0.3912 -0.0728 -0.0852
 5247SOL    MW420756   1.487   2.170   4.936  0.5965 -0.4560 -0.2809
 5248SOL     OW20757   5.681   4.910   3.700 -0.4264 -0.0509 -0.2863
 5248SOL    HW220758   5.694   4.846   3.770  0.8430  1.4245  0.8991
 5248SOL    HW320759   5.586   4.912   3.687 -0.4587 -2.9211 -1.1561
 5248SOL    MW420760   5.671   4.902   3.708 -0.2632 -0.2350 -0.2446
 5249SOL     OW20761   2.568   1.466   4.380  0.0630  0.2386 -0.5674
 5249SOL    HW220762   2.547   1.452   4.288  1.6813 -0.6237 -0.8406
 5249SOL    HW320763   2.625   1.544   4.381 -1.7988  1.6694 -0.0006
 5249SOL    MW420764   2.573   1.475   4.368  0.0309  0.3136 -0.5287
 5250SOL     OW20765   0.403   2.621   1.468 -0.3777 -0.3129 -0.1383
 5250SOL    HW220766   0.458   2.677   1.523 -0.1108 -1.6447  1.0032
 5250SOL    HW320767   0.313   2.641   1.496 -0.6002  2.1247 -2.2494
 5250SOL    MW420768   0.398   2.631   1.479 -0.3718 -0.1670 -0.2663
 5251SOL     OW20769   5.881   1.826   4.211  0.4160  0.1792 -0.2720
 5251SOL    HW220770   5.801   1.790   4.247  1.7552 -3.1307 -0.2726
 5251SOL    HW320771   5.867   1.921   4.212 -3.1472 -0.2109  0.3753
 5251SOL    MW420772   5.869   1.834   4.216  0.1226 -0.3090 -0.1867
 5252SOL     OW20773   1.971   6.234   3.980 -0.0740  0.0634 -0.1829
 5252SOL    HW220774   1.891   6.230   4.033  0.8550  2.4845  1.5987
 5252SOL    HW320775   1.979   6.326   3.955  2.1980 -0.0633 -0.1568
 5252SOL    MW420776   1.961   6.245   3.984  0.3483  0.3661  0.0556
 5253SOL     OW20777   6.196   1.400   2.013 -0.4008  0.4916  0.3715
 5253SOL    HW220778   6.155   1.478   1.977  0.9714  1.6975  1.3241
 5253SOL    HW320779   6.126   1.357   2.063 -1.4216  0.5569 -0.9402
 5253SOL    MW420780   6.181   1.405   2.014 -0.3544  0.6593  0.3241
 5254SOL     OW20781   5.492   3.775   3.641  0.2532 -0.2808  0.4532
 5254SOL    HW220782   5.475   3.835   3.568  0.2792 -0.3912  0.3556
 5254SOL    HW320783   5.405   3.754   3.676  0.2781  0.2308  0.8260
 5254SOL    MW420784   5.478   3.780   3.636  0.2599 -0.2279  0.4895
 5255SOL     OW20785   5.117   5.658   3.858  0.4681  0.0260  0.1776
 5255SOL    HW220786   5.045   5.705   3.815  1.3323  2.4684  1.2101
 5255SOL    HW320787   5.104   5.674   3.952  1.0996 -1.4429  0.5468
 5255SOL    MW420788   5.106   5.666   3.865  0.6654  0.1544  0.3626
 5256SOL     OW20789   5.016   5.331   1.664 -0.2759 -0.1181 -0.3679
 5256SOL    HW220790   4.927   5.360   1.642 -1.7123 -1.2938  3.2269
 5256SOL    HW320791   5.070   5.409   1.650 -2.3433  1.4570 -0.0968
 5256SOL    MW420792   5.011   5.345   1.659 -0.7382 -0.0654  0.1422
 5257SOL     OW20793   4.507   4.990   1.687  0.0206 -0.0236  0.2208
 5257SOL    HW220794   4.465   4.984   1.773  2.0586  0.5909  1.3240
 5257SOL    HW320795   4.547   4.904   1.674 -0.2100 -0.0862 -0.0774
 5257SOL    MW420796   4.507   4.978   1.697  0.2590  0.0492  0.3270
 5258SOL     OW20797   0.823   0.927   3.755 -0.0024  0.2701  0.4746
 5258SOL    HW220798   0.781   1.012   3.743 -2.1919 -0.6747  1.0534
 5258SOL    HW320799   0.913   0.949   3.781 -0.3644  2.3873  0.1420
 5258SOL    MW420800   0.829   0.941   3.757 -0.3390  0.4248  0.5071
 5259SOL     OW20801  -0.003   3.176   0.377 -0.9357 -0.2427 -0.0558
 5259SOL    HW220802  -0.081   3.131   0.411 -0.9251 -0.1157  0.1380
 5259SOL    HW320803   0.011   3.249   0.437 -0.1953 -0.7298  0.3780
 5259SOL    MW420804  -0.011   3.180   0.389 -0.8366 -0.2902  0.0270
 5260SOL     OW20805   0.958   3.111   2.405  0.2442  0.0356  0.1963
 5260SOL    HW220806   0.953   3.073   2.493 -1.3368 -2.7663 -0.9842
 5260SOL    HW320807   0.870   3.144   2.387  0.2587 -0.3860 -0.7206
 5260SOL    MW420808   0.946   3.111   2.414  0.0376 -0.3897 -0.0804
 5261SOL     OW20809   5.211   5.531   5.374 -0.5000 -0.0652 -0.1070
 5261SOL    HW220810   5.290   5.529   5.320 -0.8726  0.7221 -0.7190
 5261SOL    HW320811   5.158   5.601   5.335 -1.3759 -0.3960  0.4578
 5261SOL    MW420812   5.214   5.540   5.362 -0.6647 -0.0049 -0.1132
 5262SOL     OW20813   3.402   3.732   6.304  0.1980  0.2189 -0.3074
 5262SOL    HW220814   3.469   3.712   6.369 -1.9906 -0.9589  1.7234
 5262SOL    HW320815   3.320   3.737   6.353 -1.4646  0.1693 -2.8542
 5262SOL    MW420816   3.400   3.730   6.319 -0.3101  0.0569 -0.3755
 5263SOL     OW20817   3.665   1.335   5.361  0.7475  0.3524  0.0398
 5263SOL    HW220818   3.646   1.362   5.452 -0.1193  1.3471 -0.4080
 5263SOL    HW320819   3.591   1.370   5.311  1.4652  0.2222 -1.1201
 5263SOL    MW420820   3.653   1.343   5.367  0.7278  0.4665 -0.1723
 5264SOL     OW20821   4.074   0.568   1.954  0.1662  0.2381 -0.2060
 5264SOL    HW220822   4.096   0.654   1.989  0.9805 -0.3680  0.8794
 5264SOL    HW320823   4.063   0.513   2.033 -1.4153 -0.4064 -0.8332
 5264SOL    MW420824   4.076   0.572   1.969  0.0650  0.0731 -0.1455
 5265SOL     OW20825   1.302   2.463   3.926 -0.2599 -0.4314  0.2504
 5265SOL    HW220826   1.249   2.495   3.999 -0.1890  0.6214 -0.1388
 5265SOL    HW320827   1.251   2.484   3.848  0.4884  0.1546 -0.1013
 5265SOL    MW420828   1.288   2.470   3.925 -0.1518 -0.2152  0.1527
 5266SOL     OW20829   4.076   4.555   1.480 -0.1599  0.5322  0.0559
 5266SOL    HW220830   4.141   4.524   1.418 -0.2258 -1.3143  0.8375
 5266SOL    HW320831   4.122   4.561   1.564 -1.3954 -3.2536  1.2068
 5266SOL    MW420832   4.091   4.552   1.483 -0.3316 -0.2109  0.3108
 5267SOL     OW20833   5.113   1.844   0.033 -0.5451  0.6578 -0.0697
 5267SOL    HW220834   5.051   1.915   0.050  1.9492  2.5868  1.7093
 5267SOL    HW320835   5.105   1.786   0.109 -1.6485 -0.3012 -0.8904
 5267SOL    MW420836   5.104   1.845   0.045 -0.3616  0.7858  0.0567
 5268SOL     OW20837   3.363   1.936   5.931 -0.2017 -0.4767  0.0515
 5268SOL    HW220838   3.432   2.003   5.928  1.0799 -1.6964  0.8509
 5268SOL    HW320839   3.388   1.880   6.005 -1.0359 -2.0380 -0.7975
 5268SOL    MW420840   3.376   1.938   5.941 -0.1427 -0.8436  0.0449
 5269SOL     OW20841   2.829   2.432   1.688 -0.3539  0.3836  0.3620
 5269SOL    HW220842   2.901   2.375   1.662 -1.0857  0.4675 -2.0995
 5269SOL    HW320843   2.815   2.489   1.612 -2.5569  0.8174  1.0238
 5269SOL    MW420844   2.837   2.432   1.674 -0.7411  0.4519  0.1246
 5270SOL     OW20845   2.596   4.536   3.303 -0.1391 -0.1994  0.2442
 5270SOL    HW220846   2.653   4.610   3.324  0.9947 -0.9671 -0.0563
 5270SOL    HW320847   2.517   4.577   3.266  0.7453  0.8446 -0.5775
 5270SOL    MW420848   2.593   4.552   3.301  0.1272 -0.1629  0.0961
 5271SOL     OW20849   4.442   4.036   0.251  0.0809 -0.0181  0.1116
 5271SOL    HW220850   4.398   4.061   0.332 -0.0950 -1.4232  0.4860
 5271SOL    HW320851   4.488   3.955   0.272 -0.2818 -0.6338 -1.2758
 5271SOL    MW420852   4.442   4.028   0.264  0.0098 -0.2847 -0.0221
 5272SOL     OW20853   4.213   1.093   6.318 -0.0318  0.2219 -0.0080
 5272SOL    HW220854   4.254   1.166   6.364  1.5691  0.6803 -2.0006
 5272SOL    HW320855   4.136   1.132   6.276  0.5409  0.6975 -0.6552
 5272SOL    MW420856   4.208   1.108   6.318  0.2550  0.3451 -0.3563
 5273SOL     OW20857   1.049   2.664   2.408  0.3173  0.0528  0.5900
 5273SOL    HW220858   1.046   2.592   2.345  2.5066  1.6826 -1.5837
 5273SOL    HW320859   1.140   2.663   2.440 -0.2804  0.3938  2.4001
 5273SOL    MW420860   1.061   2.654   2.404  0.5273  0.3128  0.5420
 5274SOL     OW20861   2.910   5.905   3.559 -0.0071 -0.3291  0.1955
 5274SOL    HW220862   2.836   5.852   3.588 -0.7309  0.0721 -0.8356
 5274SOL    HW320863   2.892   5.993   3.592 -1.6064  0.4961 -2.4827
 5274SOL    MW420864   2.898   5.910   3.567 -0.3136 -0.1673 -0.2939
 5275SOL     OW20865   5.893   2.664   2.330 -0.1309 -0.4630  0.7239
 5275SOL    HW220866   5.805   2.651   2.294  0.7800  0.4503 -2.0625
 5275SOL    HW320867   5.895   2.757   2.352  0.2383 -0.3973  0.4214
 5275SOL    MW420868   5.882   2.675   2.328  0.0380 -0.3339  0.3164
 5276SOL     OW20869   3.294   5.315   4.909 -0.2853 -0.5619 -0.4245
 5276SOL    HW220870   3.250   5.244   4.862  2.1457 -1.9965 -0.6882
 5276SOL    HW320871   3.277   5.297   5.001 -1.1792 -0.4145 -0.5497
 5276SOL    MW420872   3.286   5.303   4.915 -0.0825 -0.7317 -0.4758
 5277SOL     OW20873   2.637   6.337   1.534  0.1580  0.0389  0.1641
 5277SOL    HW220874   2.722   6.302   1.508  0.3266 -0.3439  1.1583
 5277SOL    HW320875   2.596   6.265   1.584 -2.9959 -1.9032 -4.4757
 5277SOL    MW420876   2.642   6.323   1.537 -0.2359 -0.2679 -0.3169
 5278SOL     OW20877   0.626   0.793   1.082 -0.0996 -0.4998 -0.3603
 5278SOL    HW220878   0.695   0.820   1.021 -0.6672  4.1377  0.6639
 5278SOL    HW320879   0.555   0.762   1.027  0.5116  0.6964 -1.8692
 5278SOL    MW420880   0.626   0.792   1.067 -0.0938  0.2699 -0.4242
 5279SOL     OW20881   4.239   3.126   2.858 -0.9744  0.1353 -0.5217
 5279SOL    HW220882   4.287   3.044   2.852 -1.0625  0.1763 -1.9726
 5279SOL    HW320883   4.147   3.101   2.855 -1.0438  0.1739  0.7598
 5279SOL    MW420884   4.233   3.112   2.857 -0.9952  0.1458 -0.5440
 5280SOL     OW20885   5.175   6.038   4.939 -0.0062 -0.1884  0.1683
 5280SOL    HW220886   5.206   5.950   4.916  0.2793  0.1786 -0.9196
 5280SOL    HW320887   5.108   6.023   5.005 -0.3915 -1.2761 -0.4307
 5280SOL    MW420888   5.171   6.024   4.945 -0.0194 -0.2835 -0.0543
 5281SOL     OW20889   5.882   1.180   1.954 -0.5605 -0.2542  0.4177
 5281SOL    HW220890   5.810   1.210   2.009 -0.9695 -1.8826  0.8390
 5281SOL    HW320891   5.852   1.097   1.918  1.1717 -1.0913  0.7916
 5281SOL    MW420892   5.869   1.173   1.957 -0.3859 -0.5795  0.5226
 5282SOL     OW20893   4.003   0.778   4.480 -0.3294  0.0907 -0.4551
 5282SOL    HW220894   4.058   0.700   4.479  0.9281  0.9624 -0.3806
 5282SOL    HW320895   4.016   0.818   4.394 -0.4341  0.5925 -0.2407
 5282SOL    MW420896   4.012   0.773   4.468 -0.1773  0.2719 -0.4170
 5283SOL     OW20897   2.847   2.575   5.259 -0.3970 -0.3491 -0.1800
 5283SOL    HW220898   2.875   2.505   5.200 -0.8851  0.0928 -0.9531
 5283SOL    HW320899   2.876   2.547   5.346 -1.7886 -2.1428 -0.2648
 5283SOL    MW420900   2.855   2.562   5.263 -0.6450 -0.5275 -0.2932
 5284SOL     OW20901   5.610   5.255   1.472 -0.2153 -0.0450 -0.0205
 5284SOL    HW220902   5.641   5.280   1.558  0.2172 -0.5071 -0.0385
 5284SOL    HW320903   5.684   5.273   1.413  0.4377 -2.1462  0.0912
 5284SOL    MW420904   5.623   5.261   1.475 -0.0721 -0.3832 -0.0081
 5285SOL     OW20905   4.512   4.238   0.904 -0.8326 -0.1327 -0.1901
 5285SOL    HW220906   4.421   4.211   0.918 -0.2851 -2.3587 -0.5703
 5285SOL    HW320907   4.528   4.304   0.971 -2.6886  0.2375 -0.0583
 5285SOL    MW420908   4.502   4.243   0.914 -1.0052 -0.3775 -0.2229
 5286SOL     OW20909   0.348   2.338   3.648  0.3476 -0.2746  0.7889
 5286SOL    HW220910   0.404   2.356   3.723  0.3079 -0.8794  0.9690
 5286SOL    HW320911   0.266   2.306   3.687 -0.6660  1.8745  0.6071
 5286SOL    MW420912   0.344   2.336   3.663  0.2086 -0.0709  0.7886
 5287SOL     OW20913   5.265   1.070   2.343  0.4806 -0.1045 -0.2489
 5287SOL    HW220914   5.262   1.128   2.267  0.9838  0.9436  0.5115
 5287SOL    HW320915   5.268   0.982   2.305  1.7058  0.4171 -1.4832
 5287SOL    MW420916   5.265   1.066   2.328  0.7087  0.1026 -0.3114
 5288SOL     OW20917   4.256   0.111   4.983  0.4235  0.4730  0.1004
 5288SOL    HW220918   4.275   0.059   5.062 -2.5323  0.2103  0.7624
 5288SOL    HW320919   4.227   0.046   4.919 -1.0714  1.0293  0.1782
 5288SOL    MW420920   4.254   0.095   4.985 -0.1637  0.5118  0.1980
 5289SOL     OW20921   1.034   3.842   5.031  0.2869  0.0874  0.0240
 5289SOL    HW220922   1.108   3.782   5.022  0.8378  0.8342 -0.4618
 5289SOL    HW320923   0.980   3.802   5.100  0.2617 -1.3446 -0.7765
 5289SOL    MW420924   1.036   3.828   5.039  0.3562 -0.0030 -0.1457
 5290SOL     OW20925   4.192   1.976   5.555  0.5596 -0.1993 -0.3168
 5290SOL    HW220926   4.135   2.049   5.577  2.2160  1.0380  0.1035
 5290SOL    HW320927   4.248   1.965   5.632  0.3572 -1.9212 -0.3764
 5290SOL    MW420928   4.192   1.984   5.568  0.7514 -0.2632 -0.2692
 5291SOL     OW20929   2.261   1.299   3.245 -0.2937 -0.1403  0.3740
 5291SOL    HW220930   2.269   1.361   3.172 -0.7852 -0.5557 -0.0412
 5291SOL    HW320931   2.264   1.213   3.203  0.6092 -0.4104  0.9652
 5291SOL    MW420932   2.263   1.296   3.230 -0.2394 -0.2307  0.3972
 5292SOL     OW20933   0.563   4.198   5.099 -0.2170 -0.0105 -0.1675
 5292SOL    HW220934   0.530   4.166   5.016  0.3359 -0.7544 -0.1130
 5292SOL    HW320935   0.538   4.131   5.163 -2.2071  1.3958  0.6016
 5292SOL    MW420936   0.556   4.185   5.097 -0.4066  0.0769 -0.0589
 5293SOL     OW20937   2.931   4.816   6.225  0.0979  0.1493  0.0012
 5293SOL    HW220938   2.908   4.776   6.309  1.2737 -4.3498 -1.5412
 5293SOL    HW320939   2.859   4.794   6.167  1.8039 -1.9690 -1.4703
 5293SOL    MW420940   2.919   4.808   6.228  0.4781 -0.7238 -0.3964
 5294SOL     OW20941   5.337   3.614   2.352  0.3982  0.6751  0.7624
 5294SOL    HW220942   5.400   3.602   2.423  3.1659  4.3220 -0.7573
 5294SOL    HW320943   5.283   3.688   2.380 -0.3262  0.3677  0.2009
 5294SOL    MW420944   5.338   3.622   2.365  0.6678  1.1157  0.4878
 5295SOL     OW20945   1.902   1.207   2.280 -0.5481  0.5693 -0.3144
 5295SOL    HW220946   1.988   1.179   2.311 -0.2441  2.4129  0.6459
 5295SOL    HW320947   1.843   1.135   2.304  0.3153  0.3513  1.2461
 5295SOL    MW420948   1.906   1.194   2.287 -0.3941  0.7838  0.0182
 5296SOL     OW20949   6.376   0.842   1.801 -0.1085 -0.0560 -0.2837
 5296SOL    HW220950   6.412   0.756   1.822 -2.3957 -1.5262 -1.9654
 5296SOL    HW320951   6.301   0.852   1.860 -0.3660  0.4104 -0.6830
 5296SOL    MW420952   6.371   0.832   1.812 -0.4442 -0.1885 -0.5583
 5297SOL     OW20953   6.195   1.323   5.876 -0.4973  0.1964  0.0152
 5297SOL    HW220954   6.183   1.267   5.953  0.7532 -0.3311 -0.1494
 5297SOL    HW320955   6.212   1.261   5.804 -0.4415  0.7316 -0.4366
 5297SOL    MW420956   6.196   1.307   5.877 -0.3249  0.1975 -0.0661
 5298SOL     OW20957   3.895   0.468   1.756 -0.0850 -0.4081 -0.3242
 5298SOL    HW220958   3.960   0.499   1.820 -0.3345  1.2285 -0.8004
 5298SOL    HW320959   3.827   0.427   1.809  1.5724 -2.7116  0.1453
 5298SOL    MW420960   3.895   0.467   1.772  0.1007 -0.4961 -0.3250
 5299SOL     OW20961   4.748   5.397   3.482 -0.1246 -0.0351 -0.3344
 5299SOL    HW220962   4.820   5.457   3.502  1.0147 -1.1586 -0.9200
 5299SOL    HW320963   4.722   5.361   3.566 -1.7990  2.2683  0.2399
 5299SOL    MW420964   4.754   5.400   3.495 -0.1952  0.1206 -0.3359
 5300SOL     OW20965   1.540   2.151   6.154  0.0663 -0.0312 -0.2183
 5300SOL    HW220966   1.502   2.120   6.072 -2.2138  1.6897  0.0879
 5300SOL    HW320967   1.634   2.155   6.136 -0.2000 -1.2313 -2.1900
 5300SOL    MW420968   1.548   2.148   6.140 -0.2697  0.0375 -0.4381
 5301SOL     OW20969   4.297   1.697   5.504 -0.2749  0.1825 -0.4030
 5301SOL    HW220970   4.389   1.714   5.481  0.0939 -0.6448  0.3934
 5301SOL    HW320971   4.252   1.779   5.486  0.9051  1.0969  0.6600
 5301SOL    MW420972   4.303   1.710   5.498 -0.0706  0.1940 -0.1577
 5302SOL     OW20973   2.780   3.989   1.688 -0.3496  0.2908 -0.0913
 5302SOL    HW220974   2.852   3.938   1.651 -0.3964  0.7322 -0.8209
 5302SOL    HW320975   2.801   3.997   1.781 -0.1758 -0.7640 -0.0229
 5302SOL    MW420976   2.792   3.983   1.695 -0.3328  0.2099 -0.1785
 5303SOL     OW20977   4.720   0.249   1.943 -0.1603  0.6207 -0.3482
 5303SOL    HW220978   4.696   0.166   1.902  0.3921  1.5230 -2.6954
 5303SOL    HW320979   4.816   0.248   1.946 -0.1395  1.2573 -0.6129
 5303SOL    MW420980   4.730   0.238   1.938 -0.0846  0.8238 -0.6928
 5304SOL     OW20981   5.729   2.793   5.464 -0.2487 -0.2180 -0.3985
 5304SOL    HW220982   5.749   2.882   5.491  0.7866 -0.0355 -1.6721
 5304SOL    HW320983   5.722   2.797   5.368  3.0101 -2.0390 -0.8592
 5304SOL    MW420984   5.731   2.805   5.455  0.3178 -0.4342 -0.6273
 5305SOL     OW20985   1.734   1.045   1.933  0.6112 -0.1944 -0.1720
 5305SOL    HW220986   1.661   1.021   1.876  0.0288 -1.1146  0.9219
 5305SOL    HW320987   1.734   0.979   2.002  1.1179  1.0474  1.0703
 5305SOL    MW420988   1.725   1.033   1.935  0.6012 -0.1520  0.1362
 5306SOL     OW20989   4.350   0.741   1.866  0.2514 -0.1790  0.1558
 5306SOL    HW220990   4.343   0.645   1.865  0.2621 -0.1828 -0.8220
 5306SOL    HW320991   4.328   0.767   1.776 -0.6198  0.7995  0.6397
 5306SOL    MW420992   4.346   0.732   1.854  0.1379 -0.0504  0.0906
 5307SOL     OW20993   1.409   5.069   0.646 -0.5302  0.1087  0.1926
 5307SOL    HW220994   1.340   5.129   0.677 -0.0493  0.1742  1.1908
 5307SOL    HW320995   1.417   5.004   0.716 -1.0930 -1.1858 -0.9081
 5307SOL    MW420996   1.401   5.068   0.659 -0.5410 -0.0535  0.1791
 5308SOL     OW20997   1.931   3.391   6.402 -0.1324  0.4557  0.3870
 5308SOL    HW220998   1.949   3.415   6.311 -1.2072  2.2444  0.5925
 5308SOL    HW320999   1.955   3.299   6.408 -1.3376 -0.1127 -2.0878
 5308SOL    MW421000   1.936   3.382   6.391 -0.4332  0.6167  0.0876
 5309SOL     OW21001   2.373   1.279   3.798  0.0233  0.3201  0.1677
 5309SOL    HW221002   2.373   1.330   3.717  1.0287  0.1865  0.0696
 5309SOL    HW321003   2.284   1.289   3.832 -0.3371  0.5900 -0.8116
 5309SOL    MW421004   2.361   1.287   3.792  0.1084  0.3381  0.0255
 5310SOL     OW21005   5.530   3.904   0.123 -0.3398  0.6328  0.6229
 5310SOL    HW221006   5.568   3.984   0.086  1.7724 -1.0334 -1.0817
 5310SOL    HW321007   5.523   3.923   0.217 -0.7114  3.0861  0.1716
 5310SOL    MW421008   5.534   3.917   0.130 -0.1101  0.7367  0.3385
 5311SOL     OW21009   0.901   0.841   1.464  0.2453 -0.3854  0.5415
 5311SOL    HW221010   0.886   0.787   1.386 -0.9702 -0.1293  0.5789
 5311SOL    HW321011   0.966   0.793   1.515  1.9220 -0.0289 -1.1447
 5311SOL    MW421012   0.907   0.828   1.460  0.3061 -0.3046  0.3240
 5312SOL     OW21013   0.160   5.316   4.386 -0.6047  0.6235  0.2484
 5312SOL    HW221014   0.076   5.349   4.354 -1.1698 -1.0908 -0.1112
 5312SOL    HW321015   0.140   5.278   4.471 -0.5959 -1.4208 -0.6145
 5312SOL    MW421016   0.147   5.315   4.393 -0.6781  0.1276  0.0871
 5313SOL     OW21017   1.845   0.910   4.702 -0.0808 -0.4946  0.3630
 5313SOL    HW221018   1.770   0.860   4.671  0.1616  0.1636 -1.4069
 5313SOL    HW321019   1.812   0.998   4.715  0.4025 -0.1341 -0.6966
 5313SOL    MW421020   1.831   0.915   4.699  0.0149 -0.3602 -0.0103
 5314SOL     OW21021   0.535   4.950   4.897 -0.1877 -0.3490  0.2635
 5314SOL    HW221022   0.456   4.998   4.924 -0.1556 -0.9752  1.5960
 5314SOL    HW321023   0.607   5.007   4.922 -0.1597 -0.9117  1.5486
 5314SOL    MW421024   0.534   4.964   4.904 -0.1798 -0.5059  0.6089
 5315SOL     OW21025   4.129   0.309   5.817  0.1674 -0.7704 -0.1053
 5315SOL    HW221026   4.146   0.377   5.753  0.6811 -0.4608  0.3537
 5315SOL    HW321027   4.174   0.338   5.896 -0.1592 -1.3198  0.2929
 5315SOL    MW421028   4.137   0.322   5.819  0.1921 -0.8021  0.0078
 5316SOL     OW21029   0.980   0.569   5.655  0.0661 -0.1676 -0.3362
 5316SOL    HW221030   0.967   0.479   5.624  1.4206 -0.5956  0.2555
 5316SOL    HW321031   0.921   0.577   5.729  2.2589 -1.7500  1.7351
 5316SOL    MW421032   0.971   0.558   5.660  0.5341 -0.4329  0.0151
 5317SOL     OW21033   0.759   1.339   5.467  0.1794  0.3062  0.0684
 5317SOL    HW221034   0.836   1.282   5.471  0.1900  0.2945 -0.3083
 5317SOL    HW321035   0.755   1.368   5.376 -0.7941 -0.4400 -0.1420
 5317SOL    MW421036   0.768   1.335   5.456  0.0523  0.2062 -0.0090
 5318SOL     OW21037   1.732   1.324   1.219  0.4903 -0.2307 -0.1645
 5318SOL    HW221038   1.752   1.309   1.126 -0.0487  0.6381 -0.4401
 5318SOL    HW321039   1.673   1.253   1.243 -0.8811  0.5551 -1.0328
 5318SOL    MW421040   1.727   1.313   1.210  0.2382 -0.0124 -0.3154
 5319SOL     OW21041   2.761   5.056   3.285 -0.0370 -0.7567 -0.3858
 5319SOL    HW221042   2.819   5.120   3.245  0.5674 -0.1768  1.3241
 5319SOL    HW321043   2.681   5.059   3.233  1.0716 -0.8456 -2.1805
 5319SOL    MW421044   2.758   5.065   3.273  0.1890 -0.6919 -0.3970
 5320SOL     OW21045   1.037   5.502   2.472  0.3407 -0.0273 -0.6126
 5320SOL    HW221046   1.101   5.485   2.542 -2.8789 -2.4931  2.1180
 5320SOL    HW321047   1.010   5.592   2.485  3.3384  1.2123 -2.0908
 5320SOL    MW421048   1.042   5.511   2.483  0.3114 -0.1891 -0.4474
 5321SOL     OW21049   1.828   5.298   2.845 -0.3547  0.0933  0.3212
 5321SOL    HW221050   1.737   5.307   2.871 -0.2367  1.0943  0.4176
 5321SOL    HW321051   1.852   5.383   2.808  0.1085 -0.6169 -1.1110
 5321SOL    MW421052   1.819   5.310   2.843 -0.2781  0.1317  0.1449
 5322SOL     OW21053   4.281   4.082   0.953 -0.5596 -0.3127 -0.4608
 5322SOL    HW221054   4.273   4.005   1.008 -1.6806 -1.3762 -2.0208
 5322SOL    HW321055   4.237   4.058   0.871  1.0049  1.1896 -1.8306
 5322SOL    MW421056   4.274   4.069   0.949 -0.5011 -0.2548 -0.8474
 5323SOL     OW21057   1.920   3.534   5.416 -0.1971  0.7060 -0.2729
 5323SOL    HW221058   1.861   3.610   5.416  1.1546  1.8061 -1.4188
 5323SOL    HW321059   1.903   3.491   5.500 -1.0206  2.2668  0.4166
 5323SOL    MW421060   1.910   3.538   5.427 -0.1274  1.0571 -0.3331
 5324SOL     OW21061   1.351   6.111   6.015 -0.2029  0.0251 -0.3131
 5324SOL    HW221062   1.327   6.137   6.104  0.7591 -0.5568  0.1389
 5324SOL    HW321063   1.438   6.072   6.025 -0.0300  0.0749 -1.5364
 5324SOL    MW421064   1.359   6.109   6.028 -0.0531 -0.0451 -0.4149
 5325SOL     OW21065   3.920   0.939   6.174  0.2783 -0.0161  0.3658
 5325SOL    HW221066   3.931   0.921   6.081  2.3543 -0.3628  0.6158
 5325SOL    HW321067   3.952   1.029   6.185 -1.1509  0.4850  0.5715
 5325SOL    MW421068   3.926   0.949   6.163  0.3636  0.0043  0.4259
 5326SOL     OW21069   5.723   5.671   3.869  0.3239  0.3335  0.4972
 5326SOL    HW221070   5.704   5.631   3.954 -0.9498  0.2151  0.1712
 5326SOL    HW321071   5.688   5.609   3.805  0.6029  0.7851 -0.1004
 5326SOL    MW421072   5.716   5.657   3.872  0.1927  0.3775  0.3754
 5327SOL     OW21073   0.793   5.655   0.285  0.1284  0.6176  0.0270
 5327SOL    HW221074   0.741   5.628   0.361  0.2125  0.2689 -0.0379
 5327SOL    HW321075   0.802   5.575   0.232  2.5091  0.1123  1.0658
 5327SOL    MW421076   0.787   5.641   0.288  0.4536  0.5049  0.1555
 5328SOL     OW21077   5.594   1.816   6.266 -0.2116  0.4430 -0.1455
 5328SOL    HW221078   5.542   1.837   6.344 -1.8862 -1.3028 -0.7188
 5328SOL    HW321079   5.684   1.839   6.291 -0.7854  0.5881  2.0404
 5328SOL    MW421080   5.599   1.822   6.280 -0.5083  0.2318  0.0673
 5329SOL     OW21081   1.865   6.145   2.027  0.1049  0.0421  0.4760
 5329SOL    HW221082   1.779   6.112   2.001  0.7645 -1.9444  0.6207
 5329SOL    HW321083   1.864   6.141   2.123 -0.2986  1.9148  0.5941
 5329SOL    MW421084   1.853   6.140   2.036  0.1387  0.0271  0.5106
 5330SOL     OW21085   4.698   3.226   6.290  0.4556 -0.4222 -0.2680
 5330SOL    HW221086   4.644   3.214   6.211  1.9612 -0.1140 -1.3822
 5330SOL    HW321087   4.694   3.141   6.334  0.9860 -1.1706 -1.6024
 5330SOL    MW421088   4.690   3.213   6.285  0.7242 -0.4803 -0.5911
 5331SOL     OW21089   6.125   4.867   1.517  0.1593 -0.0216 -0.2629
 5331SOL    HW221090   6.193   4.919   1.558  0.6078 -0.7107 -0.1150
 5331SOL    HW321091   6.118   4.788   1.572  0.0370 -0.4730 -0.9101
 5331SOL    MW421092   6.133   4.863   1.530  0.2023 -0.1721 -0.3287
 5332SOL     OW21093   3.117   6.427   4.965 -0.2275 -0.1692 -0.0511
 5332SOL    HW221094   3.051   6.497   4.960  0.3564  0.3162 -1.2317
 5332SOL    HW321095   3.184   6.452   4.902  0.9724 -0.8068  0.9303
 5332SOL    MW421096   3.117   6.440   4.956  0.0078 -0.1893 -0.0774
 5333SOL     OW21097   5.231   3.531   4.350 -0.1843  0.1426 -0.3805
 5333SOL    HW221098   5.240   3.436   4.354 -0.1516  0.1838  1.0149
 5333SOL    HW321099   5.183   3.547   4.269 -2.7984 -1.2881  0.7640
 5333SOL    MW421100   5.226   3.521   4.340 -0.5249 -0.0407 -0.0454
 5334SOL     OW21101   4.557   3.996   3.992 -0.2312 -0.1630 -0.3347
 5334SOL    HW221102   4.498   4.031   4.059 -1.2654  1.2893 -1.9186
 5334SOL    HW321103   4.529   3.906   3.979 -0.8523 -0.0613  0.2607
 5334SOL    MW421104   4.546   3.989   3.999 -0.4496  0.0420 -0.4652
 5335SOL     OW21105   1.987   1.131   0.258  0.2032 -0.3805  0.3923
 5335SOL    HW221106   1.939   1.168   0.184 -0.0011 -0.1293  0.6461
 5335SOL    HW321107   2.076   1.164   0.248  0.4312 -1.1596 -0.2965
 5335SOL    MW421108   1.992   1.140   0.247  0.2063 -0.4501  0.3349
 5336SOL     OW21109   4.244   2.413   5.122  0.2385  0.0729  0.2065
 5336SOL    HW221110   4.212   2.423   5.032  1.1814 -0.1635 -0.1638
 5336SOL    HW321111   4.165   2.418   5.176 -0.4181 -0.4146 -0.6803
 5336SOL    MW421112   4.229   2.415   5.117  0.2763 -0.0226  0.0406
 5337SOL     OW21113   4.731   3.519   1.673  0.0609  0.7189 -0.1545
 5337SOL    HW221114   4.654   3.468   1.649  0.3719 -0.4784  1.2497
 5337SOL    HW321115   4.698   3.589   1.729  0.0092  0.0281  0.6921
 5337SOL    MW421116   4.717   3.522   1.677  0.0951  0.4697  0.1424
 5338SOL     OW21117   0.976   4.426   6.020 -0.1077  0.1724  0.2402
 5338SOL    HW221118   0.957   4.475   5.940  0.8091  1.3468  0.7050
 5338SOL    HW321119   0.929   4.344   6.010 -0.6362  0.6196 -1.1572
 5338SOL    MW421120   0.967   4.422   6.008 -0.0565  0.3863  0.1172
 5339SOL     OW21121   4.714   1.690   3.386  0.4598  0.0521  0.4114
 5339SOL    HW221122   4.705   1.758   3.454  0.8597  1.0376 -0.5020
 5339SOL    HW321123   4.807   1.668   3.387  0.1840 -1.1497  1.3158
 5339SOL    MW421124   4.725   1.696   3.395  0.4762  0.0236  0.4102
 5340SOL     OW21125   0.336   4.961   5.133 -0.3972 -0.2861 -0.0593
 5340SOL    HW221126   0.243   4.941   5.123 -0.9191  1.8353  0.1854
 5340SOL    HW321127   0.347   4.979   5.226  0.1688 -0.0707 -0.1647
 5340SOL    MW421128   0.325   4.961   5.144 -0.3914  0.0222 -0.0410
 5341SOL     OW21129   6.341   2.630   2.036  0.9083  0.3092  0.3410
 5341SOL    HW221130   6.333   2.536   2.018  1.7132 -0.0524  1.7814
 5341SOL    HW321131   6.264   2.650   2.089  0.1433  0.7263 -0.8884
 5341SOL    MW421132   6.329   2.620   2.041  0.9135  0.3166  0.3689
 5342SOL     OW21133   0.919   0.293   4.183  0.2710  0.1995 -0.1302
 5342SOL    HW221134   0.970   0.228   4.230  2.3246  1.1010 -1.0115
 5342SOL    HW321135   0.859   0.329   4.248  0.8180 -0.8222  0.9632
 5342SOL    MW421136   0.918   0.289   4.198  0.6141  0.1836 -0.1022
 5343SOL     OW21137   4.150   0.221   2.326 -0.3499 -0.0254  0.0636
 5343SOL    HW221138   4.225   0.195   2.273 -0.4678  1.6763 -1.0408
 5343SOL    HW321139   4.075   0.179   2.284 -0.2249 -0.2421  0.0565
 5343SOL    MW421140   4.150   0.212   2.313 -0.3489  0.1705 -0.0831
 5344SOL     OW21141   4.816   2.353   3.061  0.2274 -0.1452  0.2491
 5344SOL    HW221142   4.817   2.448   3.053  0.4922 -0.2165 -0.7819
 5344SOL    HW321143   4.724   2.329   3.055  0.2651 -0.0430 -0.9763
 5344SOL    MW421144   4.804   2.362   3.059  0.2673 -0.1411 -0.0486
 5345SOL     OW21145   6.063   5.553   3.365 -0.1360 -0.1004  0.0751
 5345SOL    HW221146   6.003   5.609   3.315  1.8910  0.9953 -1.2676
 5345SOL    HW321147   6.060   5.588   3.454 -1.8832 -0.4529  0.1971
 5345SOL    MW421148   6.055   5.565   3.370 -0.0991 -0.0023 -0.0860
 5346SOL     OW21149   3.569   1.149   3.375  0.5066 -0.5016  0.2500
 5346SOL    HW221150   3.565   1.070   3.430  1.1771 -0.4653  0.3581
 5346SOL    HW321151   3.660   1.178   3.381 -0.1434  1.4495  1.8459
 5346SOL    MW421152   3.581   1.142   3.383  0.5093 -0.2394  0.4748
 5347SOL     OW21153   0.393   0.490   0.363  0.2807  0.5163  0.3852
 5347SOL    HW221154   0.452   0.418   0.387  2.6007  1.0302 -2.9926
 5347SOL    HW321155   0.328   0.448   0.305  1.0697  0.8945 -0.8164
 5347SOL    MW421156   0.392   0.475   0.358  0.6909  0.6340 -0.2190
 5348SOL     OW21157   5.354   4.992   1.766 -0.3515 -0.4517 -0.0289
 5348SOL    HW221158   5.271   5.020   1.805 -0.1218 -0.1201  0.2304
 5348SOL    HW321159   5.333   4.911   1.720 -0.2308 -2.0201  2.4818
 5348SOL    MW421160   5.340   4.985   1.765 -0.3053 -0.6149  0.3366
 5349SOL     OW21161   4.384   1.752   2.116 -0.2589 -0.0838  0.1110
 5349SOL    HW221162   4.365   1.846   2.104 -0.8239  0.0284  1.6579
 5349SOL    HW321163   4.422   1.746   2.203 -0.0068 -1.2768 -0.0662
 5349SOL    MW421164   4.386   1.764   2.126 -0.3002 -0.2264  0.2917
 5350SOL     OW21165   2.505   1.676   0.271 -0.4961  0.3385  0.1098
 5350SOL    HW221166   2.465   1.655   0.187 -0.4853 -0.5142  0.3074
 5350SOL    HW321167   2.495   1.596   0.324 -2.1505  1.4494  1.5715
 5350SOL    MW421168   2.499   1.663   0.267 -0.7130  0.3726  0.3287
 5351SOL     OW21169   3.670   4.106   0.623  0.8126 -0.0644 -0.1349
 5351SOL    HW221170   3.723   4.030   0.598  0.2592 -1.0337  1.4652
 5351SOL    HW321171   3.580   4.080   0.602  0.7279  0.7041 -0.7984
 5351SOL    MW421172   3.665   4.093   0.617  0.7284 -0.0909 -0.0113
 5352SOL     OW21173   2.445   2.837   0.205  0.3525 -0.2602  0.7176
 5352SOL    HW221174   2.520   2.825   0.146  0.0002  0.5210  0.0962
 5352SOL    HW321175   2.397   2.754   0.200  0.8249 -0.5289  0.6139
 5352SOL    MW421176   2.449   2.824   0.197  0.3684 -0.1926  0.6219
 5353SOL     OW21177   0.964   1.464   0.337  0.0067  0.6104 -0.6179
 5353SOL    HW221178   0.926   1.453   0.250 -1.5212 -0.7979  0.1950
 5353SOL    HW321179   1.004   1.551   0.334 -2.0701  1.5847 -1.9693
 5353SOL    MW421180   0.965   1.474   0.325 -0.4689  0.5532 -0.6889
 5354SOL     OW21181   3.455   2.467   1.700  0.4103  0.1885  0.0050
 5354SOL    HW221182   3.538   2.500   1.664  1.4356  0.9784  2.8575
 5354SOL    HW321183   3.480   2.392   1.753 -0.8051  0.0826  0.4625
 5354SOL    MW421184   3.469   2.462   1.702  0.3852  0.2788  0.4417
 5355SOL     OW21185   5.423   0.166   3.647  0.8850 -0.0384  0.1491
 5355SOL    HW221186   5.509   0.127   3.631  0.8668  0.2640 -0.7409
 5355SOL    HW321187   5.374   0.151   3.566 -0.4554 -1.5771  1.1691
 5355SOL    MW421188   5.428   0.159   3.634  0.7057 -0.2015  0.1662
 5356SOL     OW21189   6.245   4.295   1.887 -0.1820 -0.1752 -0.2484
 5356SOL    HW221190   6.163   4.285   1.838 -0.4773  1.5297 -0.1716
 5356SOL    HW321191   6.233   4.241   1.966 -0.3313 -1.6686 -1.2511
 5356SOL    MW421192   6.233   4.287   1.891 -0.2406 -0.1473 -0.3705
 5357SOL     OW21193   1.525   4.283   6.204  0.0000 -0.4748 -0.3692
 5357SOL    HW221194   1.547   4.345   6.134  0.8172 -0.1804  0.1215
 5357SOL    HW321195   1.548   4.197   6.168  1.5775 -0.2226 -0.0692
 5357SOL    MW421196   1.531   4.280   6.190  0.3160 -0.4027 -0.2649
 5358SOL     OW21197   2.207   2.726   3.937 -0.0750  0.6560  0.0312
 5358SOL    HW221198   2.184   2.636   3.911 -0.9881  1.1317 -0.8847
 5358SOL    HW321199   2.163   2.781   3.872  0.9558  1.7532  0.2418
 5358SOL    MW421200   2.198   2.721   3.925 -0.0595  0.8636 -0.0618
 5359SOL     OW21201   3.368   3.477   6.185  0.1977  0.0972 -0.2184
 5359SOL    HW221202   3.435   3.472   6.117 -1.1419  1.8112 -1.7409
 5359SOL    HW321203   3.378   3.564   6.222 -1.4975  0.5803 -0.8336
 5359SOL    MW421204   3.378   3.488   6.181 -0.2027  0.3871 -0.5004
 5360SOL     OW21205   0.034   3.342   1.199 -0.2051 -0.4450 -0.4335
 5360SOL    HW221206   0.112   3.355   1.146 -0.6807 -0.9168 -1.2756
 5360SOL    HW321207   0.060   3.279   1.266  1.0851  1.9332  1.4435
 5360SOL    MW421208   0.047   3.335   1.201 -0.0976 -0.1935 -0.2970
 5361SOL     OW21209   1.526   4.513   1.273 -0.3484 -0.3390 -0.3637
 5361SOL    HW221210   1.485   4.512   1.360 -0.7218 -2.1070 -0.5161
 5361SOL    HW321211   1.611   4.554   1.287 -1.5641  2.1819  0.2267
 5361SOL    MW421212   1.532   4.519   1.286 -0.5580 -0.2396 -0.3059
 5362SOL     OW21213   0.697   3.780   3.839  0.1899  0.3442 -0.1055
 5362SOL    HW221214   0.715   3.735   3.757  0.1511  1.0389 -0.5008
 5362SOL    HW321215   0.777   3.770   3.890  0.0812 -0.4098 -0.0708
 5362SOL    MW421216   0.710   3.772   3.835  0.1704  0.3364 -0.1531
 5363SOL     OW21217   3.264   2.926   1.486 -0.4956  0.3109  0.2326
 5363SOL    HW221218   3.304   3.008   1.515 -0.6529  0.2726  0.5601
 5363SOL    HW321219   3.255   2.937   1.391 -0.3185  0.5848  0.2444
 5363SOL    MW421220   3.268   2.938   1.477 -0.4930  0.3420  0.2774
 5364SOL     OW21221   4.527   2.391   2.537 -0.0136 -0.1971  0.4941
 5364SOL    HW221222   4.562   2.454   2.475  0.4081 -0.7649  0.1481
 5364SOL    HW321223   4.459   2.439   2.585 -0.4252  0.2148 -0.4839
 5364SOL    MW421224   4.522   2.405   2.536 -0.0123 -0.2177  0.3194
 5365SOL     OW21225   3.592   1.046   1.538 -0.0771 -0.1055 -0.7876
 5365SOL    HW221226   3.570   1.106   1.467 -2.3164  0.9391  0.6391
 5365SOL    HW321227   3.676   1.009   1.514  1.4717  3.6053 -1.8178
 5365SOL    MW421228   3.600   1.049   1.526 -0.1682  0.5219 -0.7353
 5366SOL     OW21229   6.099   2.998   5.579 -0.3255 -0.0276  0.0315
 5366SOL    HW221230   6.147   3.063   5.632 -0.0508  0.2194 -0.5042
 5366SOL    HW321231   6.064   3.049   5.506  0.6704 -0.6280 -0.8994
 5366SOL    MW421232   6.101   3.014   5.576 -0.1579 -0.0742 -0.1620
 5367SOL     OW21233   1.965   5.899   6.122  0.1361  0.7984 -0.6426
 5367SOL    HW221234   1.893   5.913   6.184 -0.3741 -2.5672 -0.2674
 5367SOL    HW321235   2.043   5.898   6.177 -0.1259 -0.4274 -0.2505
 5367SOL    MW421236   1.965   5.901   6.138  0.0343  0.1926 -0.5414
 5368SOL     OW21237   5.994   5.835   2.173 -0.3655 -0.4482 -0.0282
 5368SOL    HW221238   6.055   5.902   2.204  0.3154 -0.5671 -1.0770
 5368SOL    HW321239   5.960   5.870   2.091 -2.6190  0.1398  1.0792
 5368SOL    MW421240   5.998   5.848   2.167 -0.5730 -0.3863 -0.0204
 5369SOL     OW21241   4.884   6.181   1.831 -0.3359 -0.0796  0.1478
 5369SOL    HW221242   4.872   6.127   1.752  2.1541  1.1489 -1.1746
 5369SOL    HW321243   4.894   6.117   1.902 -1.7788 -1.2226 -0.6017
 5369SOL    MW421244   4.883   6.165   1.830 -0.1978 -0.0683 -0.1256
 5370SOL     OW21245   5.960   3.432   1.335 -0.2293  0.3432 -0.7024
 5370SOL    HW221246   5.973   3.453   1.242  0.9113 -0.9648 -0.8583
 5370SOL    HW321247   5.865   3.420   1.343 -0.2954 -0.0470 -1.8174
 5370SOL    MW421248   5.949   3.433   1.324 -0.0875  0.1192 -0.8701
 5371SOL     OW21249   2.940   5.446   6.399 -0.2541  0.3601  0.1831
 5371SOL    HW221250   2.878   5.484   6.337 -0.9367  1.5974  1.5743
 5371SOL    HW321251   2.981   5.521   6.442 -0.8563 -0.4276  2.2508
 5371SOL    MW421252   2.938   5.461   6.396 -0.4236  0.4194  0.6395
 5372SOL     OW21253   3.703   2.832   4.953 -0.0876 -0.0362 -0.2789
 5372SOL    HW221254   3.742   2.882   4.882  1.1319 -0.5372  0.0263
 5372SOL    HW321255   3.706   2.741   4.924 -0.7813 -0.1202 -0.1265
 5372SOL    MW421256   3.708   2.827   4.940 -0.0183 -0.1134 -0.2185
 5373SOL     OW21257   0.540   2.794   1.611 -0.1419 -0.5929  0.0372
 5373SOL    HW221258   0.559   2.796   1.704  0.3448 -1.5039 -0.0330
 5373SOL    HW321259   0.626   2.800   1.569 -0.3237 -0.6696 -0.3502
 5373SOL    MW421260   0.554   2.795   1.617 -0.1016 -0.7232 -0.0232
 5374SOL     OW21261   0.373   1.199   0.233 -0.5189 -0.1136 -0.0846
 5374SOL    HW221262   0.323   1.202   0.151 -2.4354  0.1593  1.0289
 5374SOL    HW321263   0.465   1.195   0.205 -1.1725 -2.6657 -2.2608
 5374SOL    MW421264   0.379   1.199   0.218 -0.8580 -0.4144 -0.2248
 5375SOL     OW21265   5.399   4.162   5.830  0.2149  0.5429 -0.0139
 5375SOL    HW221266   5.440   4.076   5.841 -0.7863 -0.2223 -1.7678
 5375SOL    HW321267   5.469   4.219   5.801  0.7075  0.1056  0.2973
 5375SOL    MW421268   5.414   4.158   5.828  0.1478  0.3842 -0.2042
 5376SOL     OW21269   0.568   3.981   3.573 -0.1723  0.6998  0.2401
 5376SOL    HW221270   0.511   3.904   3.564 -1.9594  2.0287 -0.7635
 5376SOL    HW321271   0.512   4.047   3.614  1.0318  1.7174  0.3012
 5376SOL    MW421272   0.553   3.980   3.577 -0.2492  1.0094  0.1158
 5377SOL     OW21273   4.940   0.288   2.840  0.0091  0.0188 -0.4876
 5377SOL    HW221274   4.863   0.232   2.831  0.2997 -0.4953  0.1715
 5377SOL    HW321275   4.926   0.358   2.776 -1.7079  0.7397  0.6031
 5377SOL    MW421276   4.928   0.290   2.830 -0.1791  0.0461 -0.2568
 5378SOL     OW21277   4.953   5.237   2.613  0.1442  0.3962 -0.5967
 5378SOL    HW221278   4.995   5.317   2.642  1.5046 -0.4070 -0.2428
 5378SOL    HW321279   4.945   5.184   2.693 -0.1497 -0.0609 -0.9250
 5378SOL    MW421280   4.958   5.240   2.627  0.2849  0.2299 -0.5933
 5379SOL     OW21281   4.739   2.545   1.824 -0.1497  0.6110  0.8034
 5379SOL    HW221282   4.747   2.459   1.783  2.3275  1.4028 -0.6267
 5379SOL    HW321283   4.776   2.533   1.912  0.8428  0.3221  0.3649
 5379SOL    MW421284   4.745   2.532   1.830  0.3081  0.6773  0.5569
 5380SOL     OW21285   4.241   2.334   6.188 -0.4160 -0.1837 -0.3499
 5380SOL    HW221286   4.278   2.250   6.215 -0.5820 -0.3654 -0.6832
 5380SOL    HW321287   4.315   2.383   6.153 -0.7086 -1.1283 -2.4805
 5380SOL    MW421288   4.256   2.329   6.187 -0.4765 -0.3323 -0.6750
 5381SOL     OW21289   1.241   5.468   2.650  0.3844  0.1282  0.5006
 5381SOL    HW221290   1.194   5.418   2.716  0.6693  0.5666  1.0388
 5381SOL    HW321291   1.322   5.496   2.693  0.7691  0.0583 -0.1620
 5381SOL    MW421292   1.246   5.465   2.664  0.4728  0.1768  0.4842
 5382SOL     OW21293   4.130   3.833   3.611 -0.0834  0.7779  0.3588
 5382SOL    HW221294   4.103   3.742   3.615 -1.3685  1.1654  1.0622
 5382SOL    HW321295   4.112   3.860   3.521 -0.4020  0.5385  0.3521
 5382SOL    MW421296   4.124   3.825   3.600 -0.2950  0.7974  0.4507
 5383SOL     OW21297   4.096   3.393   4.898  0.0988  0.7700  0.1055
 5383SOL    HW221298   4.159   3.453   4.859 -1.3454  0.9151 -2.1527
 5383SOL    HW321299   4.033   3.449   4.943 -0.3382  0.8832 -0.6232
 5383SOL    MW421300   4.096   3.408   4.899 -0.1494  0.8041 -0.2886
 5384SOL     OW21301   3.304   1.979   0.588  0.0797 -0.1087 -0.2353
 5384SOL    HW221302   3.260   1.916   0.531  1.0619  0.7421 -2.0396
 5384SOL    HW321303   3.304   1.938   0.675  0.9001 -2.7290 -1.3552
 5384SOL    MW421304   3.299   1.965   0.592  0.3175 -0.3422 -0.6212
 5385SOL     OW21305   5.638   3.881   2.307 -0.3390 -0.2314 -0.0393
 5385SOL    HW221306   5.605   3.888   2.217 -1.2789  0.8878  0.3634
 5385SOL    HW321307   5.731   3.902   2.300 -0.4785  0.2087 -0.7059
 5385SOL    MW421308   5.646   3.885   2.294 -0.4814 -0.0257 -0.0741
 5386SOL     OW21309   0.285   4.817   5.571 -0.0312  0.3460 -0.6909
 5386SOL    HW221310   0.206   4.776   5.536 -0.1258 -0.7055  0.6754
 5386SOL    HW321311   0.355   4.788   5.512 -0.2402 -1.0756 -0.2806
 5386SOL    MW421312   0.284   4.808   5.559 -0.0713  0.0197 -0.4565
 5387SOL     OW21313   6.171   5.714   5.769 -0.0998  0.1988 -0.2354
 5387SOL    HW221314   6.076   5.712   5.760 -0.1345  2.0987 -0.8682
 5387SOL    HW321315   6.203   5.672   5.689 -0.4329  1.0407 -0.8300
 5387SOL    MW421316   6.163   5.708   5.757 -0.1483  0.5606 -0.3973
 5388SOL     OW21317   1.557   1.013   4.960 -0.1077  0.0891 -0.3921
 5388SOL    HW221318   1.603   1.068   4.896  2.1297 -1.3975 -0.1417
 5388SOL    HW321319   1.515   1.075   5.019 -1.2180  1.5073 -2.5257
 5388SOL    MW421320   1.557   1.029   4.959  0.0410  0.0801 -0.6406
 5389SOL     OW21321   1.355   4.913   2.528  0.0117  0.5218 -0.4216
 5389SOL    HW221322   1.376   4.996   2.571  0.2785  0.3300 -0.1834
 5389SOL    HW321323   1.360   4.848   2.597 -0.8581  0.3954 -0.4678
 5389SOL    MW421324   1.359   4.916   2.543 -0.0678  0.4798 -0.3963
 5390SOL     OW21325   3.213   1.501   4.853  0.0317 -0.6021 -0.0461
 5390SOL    HW221326   3.185   1.561   4.922  0.4543  1.5056 -1.6262
 5390SOL    HW321327   3.213   1.415   4.895 -1.5522  0.3325  2.0304
 5390SOL    MW421328   3.209   1.497   4.868 -0.1215 -0.2007  0.0194
 5391SOL     OW21329   1.000   1.813   1.137  0.1090 -0.2490 -0.6197
 5391SOL    HW221330   1.028   1.899   1.104  0.5735  0.2070  0.8539
 5391SOL    HW321331   1.061   1.751   1.098  0.7041  0.2812 -0.5466
 5391SOL    MW421332   1.012   1.816   1.128  0.2488 -0.1189 -0.4157
 5392SOL     OW21333   2.384   3.525   3.963 -0.2521 -0.6283 -0.4303
 5392SOL    HW221334   2.305   3.505   3.913 -1.0847 -0.4544  0.7806
 5392SOL    HW321335   2.420   3.439   3.986 -1.3686 -0.7658  0.9498
 5392SOL    MW421336   2.378   3.511   3.959 -0.5093 -0.6235 -0.0885
 5393SOL     OW21337   2.081   4.921   4.252 -0.2112  0.2751  0.1579
 5393SOL    HW221338   2.116   4.899   4.166 -0.3705  0.3253  0.0795
 5393SOL    HW321339   2.064   5.015   4.248 -1.1211  0.1154 -0.0892
 5393SOL    MW421340   2.083   4.930   4.240 -0.3523  0.2606  0.1149
 5394SOL     OW21341   5.778   0.387   4.022 -0.5092 -0.0657  0.1361
 5394SOL    HW221342   5.745   0.297   4.023  0.8501 -0.5967 -0.5124
 5394SOL    HW321343   5.706   0.438   3.985 -0.9071 -1.0609 -0.5146
 5394SOL    MW421344   5.764   0.381   4.017 -0.3823 -0.2671 -0.0353
 5395SOL     OW21345   2.939   0.624   1.741 -0.2041  0.4016  0.2661
 5395SOL    HW221346   3.016   0.577   1.709 -0.7421 -0.6009  0.4143
 5395SOL    HW321347   2.927   0.696   1.679  0.0252 -0.2629 -0.5696
 5395SOL    MW421348   2.948   0.627   1.728 -0.2448  0.1817  0.1754
 5396SOL     OW21349   1.159   3.686   3.898 -0.0046  0.2273  0.0001
 5396SOL    HW221350   1.230   3.750   3.906 -0.3735  0.4277  2.0060
 5396SOL    HW321351   1.202   3.604   3.878  0.8234  0.3255  1.3148
 5396SOL    MW421352   1.174   3.684   3.896  0.0560  0.2667  0.4382
 5397SOL     OW21353   5.879   2.007   2.010 -0.6906  0.3695 -0.1051
 5397SOL    HW221354   5.889   2.071   2.080 -0.4736  0.5136 -0.2653
 5397SOL    HW321355   5.803   2.036   1.961 -0.3457  0.7453 -0.4265
 5397SOL    MW421356   5.871   2.019   2.013 -0.6164  0.4381 -0.1686
 5398SOL     OW21357   0.336   2.990   4.030 -0.0068  0.1145  0.1050
 5398SOL    HW221358   0.261   3.035   4.071  0.1840 -0.6619  1.3586
 5398SOL    HW321359   0.412   3.020   4.081  0.0571 -2.0268  1.3621
 5398SOL    MW421360   0.336   3.000   4.042  0.0268 -0.2704  0.4362
 5399SOL     OW21361   0.299   4.829   0.107  0.3518 -0.7475 -0.0714
 5399SOL    HW221362   0.319   4.811   0.198 -0.5999 -1.4656  0.0102
 5399SOL    HW321363   0.210   4.865   0.109  0.9635  0.8869 -0.5554
 5399SOL    MW421364   0.290   4.832   0.119  0.3069 -0.6266 -0.1245
 5400SOL     OW21365   5.519   2.052   5.411 -0.6148 -0.4667  0.4790
 5400SOL    HW221366   5.516   1.985   5.480 -2.3737 -1.4723 -0.4846
 5400SOL    HW321367   5.454   2.116   5.437 -1.0998 -0.7162 -0.0885
 5400SOL    MW421368   5.510   2.051   5.423 -0.9108 -0.6323  0.2770
 5401SOL     OW21369   5.220   2.053   5.000  0.0066 -0.0706  0.3973
 5401SOL    HW221370   5.129   2.030   4.983  0.1757 -0.2823 -0.2692
 5401SOL    HW321371   5.268   2.022   4.922  0.2713  2.3274 -0.4893
 5401SOL    MW421372   5.215   2.046   4.987  0.0639  0.2179  0.1924
 5402SOL     OW21373   1.548   0.483   1.532  0.3493 -0.1576  0.2840
 5402SOL    HW221374   1.575   0.401   1.491  2.3068 -0.1040  1.3355
 5402SOL    HW321375   1.528   0.541   1.458 -1.4882 -1.6606 -0.4735
 5402SOL    MW421376   1.549   0.480   1.517  0.3651 -0.3489  0.3227
 5403SOL     OW21377   6.162   3.961   1.091 -0.4344 -0.4129  0.0372
 5403SOL    HW221378   6.176   3.894   1.158  0.5588 -0.9070 -0.6401
 5403SOL    HW321379   6.110   3.917   1.024  0.2135 -0.5236 -0.4054
 5403SOL    MW421380   6.157   3.947   1.091 -0.2179 -0.4927 -0.1105
 5404SOL     OW21381   4.305   0.899   0.967  0.0447 -0.4851 -0.1601
 5404SOL    HW221382   4.355   0.837   1.021 -0.1517 -0.6009 -0.1121
 5404SOL    HW321383   4.290   0.852   0.885  0.1987 -0.3700 -0.2561
 5404SOL    MW421384   4.310   0.884   0.963  0.0391 -0.4852 -0.1664
 5405SOL     OW21385   2.622   5.503   1.539 -0.6255  0.0122 -0.0520
 5405SOL    HW221386   2.577   5.505   1.623  0.7634 -0.4012  0.7397
 5405SOL    HW321387   2.610   5.414   1.507 -0.9923  0.1156 -0.2082
 5405SOL    MW421388   2.615   5.492   1.546 -0.4906 -0.0287  0.0319
 5406SOL     OW21389   4.901   1.993   0.998 -0.0368 -0.3448 -0.3531
 5406SOL    HW221390   4.909   2.035   0.912  0.4181 -0.2816 -0.2854
 5406SOL    HW321391   4.928   2.060   1.060 -0.5370 -0.3348 -0.1459
 5406SOL    MW421392   4.906   2.007   0.994 -0.0428 -0.3352 -0.3169
 5407SOL     OW21393   3.078   1.080   1.871  0.6785  0.0439 -0.6878
 5407SOL    HW221394   3.004   1.113   1.921  1.6872  0.4959  0.5661
 5407SOL    HW321395   3.124   1.159   1.841  1.0674 -0.2166 -0.7877
 5407SOL    MW421396   3.075   1.095   1.874  0.8629  0.0692 -0.5355
 5408SOL     OW21397   0.028   2.159   3.045 -0.2408  0.1104 -0.0238
 5408SOL    HW221398  -0.004   2.073   3.074 -1.2997 -0.2143 -2.0166
 5408SOL    HW321399   0.122   2.156   3.062 -0.2560 -1.4413 -0.0515
 5408SOL    MW421400   0.036   2.147   3.051 -0.3825 -0.1372 -0.2904
 5409SOL     OW21401   5.464   1.937   0.497 -0.6494  0.2118 -0.4247
 5409SOL    HW221402   5.376   1.901   0.511 -0.5533  0.4992  1.0058
 5409SOL    HW321403   5.448   2.023   0.458 -1.0447  0.6669  0.7120
 5409SOL    MW421404   5.450   1.943   0.494 -0.6889  0.3098 -0.0860
 5410SOL     OW21405   3.375   3.732   4.550  0.1165 -0.3858  0.2096
 5410SOL    HW221406   3.283   3.710   4.533 -0.5443  1.9837  0.2499
 5410SOL    HW321407   3.408   3.763   4.465  1.1555 -1.9856 -0.0005
 5410SOL    MW421408   3.367   3.733   4.536  0.1664 -0.2843  0.1872
 5411SOL     OW21409   3.691   3.417   2.832 -0.1345  0.3413  0.2551
 5411SOL    HW221410   3.645   3.447   2.754  1.6318 -0.5287 -1.1893
 5411SOL    HW321411   3.674   3.485   2.897 -1.2306  1.3476 -1.0232
 5411SOL    MW421412   3.682   3.430   2.830 -0.0460  0.3593 -0.1041
 5412SOL     OW21413   0.516   4.996   1.163 -0.2587  0.6019  0.0228
 5412SOL    HW221414   0.594   5.052   1.158 -0.1861  0.4017 -2.2425
 5412SOL    HW321415   0.550   4.910   1.187  0.5306  0.1224 -2.4931
 5412SOL    MW421416   0.531   4.992   1.165 -0.1450  0.5122 -0.6080
 5413SOL     OW21417   5.511   4.818   3.982  0.0443  0.0613  0.4636
 5413SOL    HW221418   5.473   4.893   3.936 -1.8898 -0.5680  0.9207
 5413SOL    HW321419   5.596   4.850   4.013 -0.0647  1.5610 -0.6231
 5413SOL    MW421420   5.517   4.832   3.980 -0.2252  0.1761  0.3806
 5414SOL     OW21421   3.185   6.134   3.198 -0.2610  0.1485 -0.1727
 5414SOL    HW221422   3.178   6.084   3.117  0.3457  2.9848 -2.1426
 5414SOL    HW321423   3.253   6.199   3.180  0.4647  0.4040  2.9403
 5414SOL    MW421424   3.193   6.136   3.185 -0.0852  0.5564 -0.0219
 5415SOL     OW21425   3.645   0.581   3.623 -0.0035  0.2789 -0.5248
 5415SOL    HW221426   3.721   0.628   3.590 -0.2736  0.3631 -1.0298
 5415SOL    HW321427   3.682   0.511   3.678  0.3781  2.4048  2.1036
 5415SOL    MW421428   3.660   0.578   3.626  0.0112  0.5705 -0.2447
 5416SOL     OW21429   3.635   1.369   5.924 -0.3492  0.4691 -0.4838
 5416SOL    HW221430   3.638   1.277   5.949 -0.4681  0.8135  0.8689
 5416SOL    HW321431   3.722   1.387   5.887  0.0947  0.1188  0.3789
 5416SOL    MW421432   3.647   1.360   5.922 -0.3063  0.4683 -0.1915
 5417SOL     OW21433   4.088   0.837   3.098  0.2329  0.5758  0.1906
 5417SOL    HW221434   4.027   0.817   3.027  1.7566 -0.3198 -0.9265
 5417SOL    HW321435   4.036   0.887   3.161 -1.8386 -0.7137 -0.3716
 5417SOL    MW421436   4.073   0.841   3.097  0.1606  0.2875 -0.0310
 5418SOL     OW21437   3.146   3.165   1.896 -0.2454 -0.8277  0.1596
 5418SOL    HW221438   3.241   3.173   1.899 -0.2717 -0.7347  0.7541
 5418SOL    HW321439   3.130   3.097   1.830  0.1292  0.8941 -1.7886
 5418SOL    MW421440   3.156   3.157   1.887 -0.1995 -0.5883 -0.0190
 5419SOL     OW21441   2.986   1.013   4.077 -0.3082  0.1594 -0.2978
 5419SOL    HW221442   2.945   1.090   4.040 -2.1962 -0.3910  0.5467
 5419SOL    HW321443   2.973   0.944   4.011 -0.9733 -0.0761  0.0749
 5419SOL    MW421444   2.979   1.014   4.063 -0.6450  0.0557 -0.1372
 5420SOL     OW21445   5.102   4.817   4.314  0.2804  0.6076 -0.8674
 5420SOL    HW221446   5.036   4.822   4.245  0.4624  0.2951 -1.0706
 5420SOL    HW321447   5.185   4.805   4.266  0.2225 -1.3047 -0.5583
 5420SOL    MW421448   5.104   4.816   4.299  0.2968  0.3141 -0.8534
 5421SOL     OW21449   2.976   2.954   4.933  0.0010 -0.2403 -0.1388
 5421SOL    HW221450   2.993   2.911   4.849  1.4687 -0.6196  0.3090
 5421SOL    HW321451   2.972   2.883   4.997  0.7766  0.1485  0.3677
 5421SOL    MW421452   2.978   2.939   4.930  0.2970 -0.2390 -0.0129
 5422SOL     OW21453   0.669   2.017   2.432  0.1523 -0.4995  0.7361
 5422SOL    HW221454   0.646   1.972   2.351  1.2773  0.8442 -0.3893
 5422SOL    HW321455   0.588   2.061   2.458  0.3568  1.0763 -1.0738
 5422SOL    MW421456   0.655   2.017   2.425  0.3277 -0.1143  0.3488
 5423SOL     OW21457   0.061   1.677   5.245  0.0530  0.2772 -0.7855
 5423SOL    HW221458   0.064   1.634   5.331  2.0528 -0.7974 -1.3449
 5423SOL    HW321459   0.026   1.610   5.186  1.4554 -0.0220 -1.3209
 5423SOL    MW421460   0.056   1.662   5.249  0.5019  0.0959 -0.9299
 5424SOL     OW21461   5.131   6.274   1.713 -0.0975 -0.4825 -0.1318
 5424SOL    HW221462   5.048   6.265   1.760  0.0605  0.5002  0.3466
 5424SOL    HW321463   5.183   6.199   1.744 -0.2042 -0.1766  0.8335
 5424SOL    MW421464   5.127   6.263   1.724 -0.0908 -0.3125  0.0587
 5425SOL     OW21465   2.726   3.005   4.356 -0.1036  0.2418 -0.1604
 5425SOL    HW221466   2.773   2.926   4.327  0.1186  0.7740 -1.3204
 5425SOL    HW321467   2.767   3.028   4.439 -0.6716 -1.2738  0.5903
 5425SOL    MW421468   2.738   2.998   4.363 -0.1492  0.1120 -0.2144
 5426SOL     OW21469   4.943   2.084   0.063 -0.5115  0.2478  0.1438
 5426SOL    HW221470   4.924   2.085   0.157 -0.6161  2.1549  0.1359
 5426SOL    HW321471   5.002   2.158   0.049  0.4096 -0.6748 -1.1415
 5426SOL    MW421472   4.948   2.094   0.073 -0.4037  0.3777 -0.0268
 5427SOL     OW21473   3.159   0.654   3.632 -0.1616 -0.3664  0.0691
 5427SOL    HW221474   3.125   0.599   3.702  0.1927 -0.1134  0.4461
 5427SOL    HW321475   3.253   0.637   3.631 -0.0914  0.0071 -0.0080
 5427SOL    MW421476   3.167   0.645   3.641 -0.1056 -0.2838  0.1086
 5428SOL     OW21477   4.700   0.729   4.322  0.0504  0.5781 -0.5392
 5428SOL    HW221478   4.703   0.636   4.344 -1.2674  0.6129 -0.1073
 5428SOL    HW321479   4.769   0.768   4.375  0.6151 -0.1379 -0.7227
 5428SOL    MW421480   4.710   0.722   4.332 -0.0490  0.4882 -0.5064
 5429SOL     OW21481   5.304   0.929   1.762 -0.0793 -0.0004 -0.0523
 5429SOL    HW221482   5.329   0.847   1.804  0.3237  1.1489  2.0764
 5429SOL    HW321483   5.364   0.937   1.688  0.6771 -1.0379  0.4207
 5429SOL    MW421484   5.315   0.920   1.758  0.0736  0.0143  0.2910
 5430SOL     OW21485   6.226   2.116   1.815 -0.0552  0.0776 -0.4838
 5430SOL    HW221486   6.164   2.142   1.747 -0.5494 -0.4789 -0.2541
 5430SOL    HW321487   6.289   2.059   1.770  0.5602  0.9955 -0.8128
 5430SOL    MW421488   6.226   2.112   1.800 -0.0392  0.1253 -0.4969
 5431SOL     OW21489   6.395   5.220   0.671 -0.2515 -0.1674  0.4722
 5431SOL    HW221490   6.344   5.293   0.637 -3.2449 -1.7226  1.2862
 5431SOL    HW321491   6.484   5.254   0.677 -1.3407  3.1252  0.0829
 5431SOL    MW421492   6.400   5.234   0.667 -0.7901  0.0618  0.5283
 5432SOL     OW21493   3.510   5.892   3.631 -0.2049 -0.0409  0.1124
 5432SOL    HW221494   3.446   5.950   3.674  0.1796  0.2855  0.2451
 5432SOL    HW321495   3.501   5.911   3.538  0.2635  0.5968  0.1872
 5432SOL    MW421496   3.500   5.902   3.625 -0.0924  0.0863  0.1398
 5433SOL     OW21497   4.236   4.044   2.113  0.0955  0.0896 -0.1488
 5433SOL    HW221498   4.150   4.040   2.072  0.3922  1.3260 -0.9597
 5433SOL    HW321499   4.278   3.962   2.089 -0.2961  0.1490 -1.0906
 5433SOL    MW421500   4.230   4.033   2.104  0.0830  0.2606 -0.3800
 5434SOL     OW21501   5.733   0.610   6.023  0.3763 -0.1046 -0.0297
 5434SOL    HW221502   5.820   0.585   6.054 -0.5527 -2.2463  1.1417
 5434SOL    HW321503   5.694   0.656   6.097  0.7028  1.4187 -0.7817
 5434SOL    MW421504   5.739   0.613   6.037  0.2968 -0.1862  0.0256
 5435SOL     OW21505   1.908   3.060   0.913  0.1859  0.4114  0.0196
 5435SOL    HW221506   1.998   3.053   0.880 -0.3318  0.4333 -1.4924
 5435SOL    HW321507   1.881   3.149   0.888  0.1350  0.8559  1.5557
 5435SOL    MW421508   1.917   3.071   0.905  0.1109  0.4730  0.0228
 5436SOL     OW21509   3.553   3.745   0.698 -0.6056  0.5658  0.0250
 5436SOL    HW221510   3.568   3.679   0.765  1.2269  1.6943  0.8116
 5436SOL    HW321511   3.497   3.810   0.740 -0.8913  0.4173 -0.1259
 5436SOL    MW421512   3.548   3.745   0.712 -0.4015  0.6951  0.1089
 5437SOL     OW21513   2.446   4.510   1.855 -0.2518  0.4944 -0.1538
 5437SOL    HW221514   2.385   4.436   1.858 -0.6211  0.8194  0.3938
 5437SOL    HW321515   2.392   4.585   1.832  0.0675  0.6564 -0.3821
 5437SOL    MW421516   2.431   4.510   1.852 -0.2584  0.5586 -0.1117
 5438SOL     OW21517   3.493   3.380   0.225 -0.0109  0.1352  0.1960
 5438SOL    HW221518   3.464   3.293   0.255  0.5303 -0.0027  0.3369
 5438SOL    HW321519   3.500   3.431   0.306  0.1451  0.1673  0.1609
 5438SOL    MW421520   3.490   3.375   0.240  0.0811  0.1213  0.2100
 5439SOL     OW21521   3.292   2.513   4.809 -0.3906 -0.2098 -0.8009
 5439SOL    HW221522   3.235   2.549   4.741 -1.1049 -1.1035 -0.6997
 5439SOL    HW321523   3.247   2.534   4.891  0.6245  1.1392 -0.5577
 5439SOL    MW421524   3.278   2.521   4.811 -0.3509 -0.1497 -0.7555
 5440SOL     OW21525   1.619   4.229   2.570  0.0481  0.5882 -0.0203
 5440SOL    HW221526   1.564   4.170   2.519  1.8482 -0.0967 -1.2763
 5440SOL    HW321527   1.707   4.190   2.565  0.5112  1.0569  2.7693
 5440SOL    MW421528   1.624   4.216   2.563  0.3467  0.5597  0.1820
 5441SOL     OW21529   6.000   2.752   1.123  0.3480 -0.6396  0.1482
 5441SOL    HW221530   5.962   2.780   1.206  1.1273  0.4875  0.1618
 5441SOL    HW321531   5.949   2.799   1.057  0.8351 -0.1710  0.0974
 5441SOL    MW421532   5.989   2.762   1.125  0.5151 -0.4291  0.1433
 5442SOL     OW21533   0.873   1.467   4.256  0.6017  0.5640 -0.6643
 5442SOL    HW221534   0.817   1.538   4.287 -1.2749 -0.7995 -0.7156
 5442SOL    HW321535   0.960   1.489   4.288  0.3750  3.5097 -1.7557
 5442SOL    MW421536   0.877   1.479   4.264  0.3242  0.7728 -0.8150
 5443SOL     OW21537   5.383   3.847   3.224  0.1751  0.0811  0.3467
 5443SOL    HW221538   5.446   3.908   3.186 -0.2248 -1.3438 -2.9597
 5443SOL    HW321539   5.436   3.775   3.258  0.5058 -0.7666 -1.7731
 5443SOL    MW421540   5.398   3.845   3.223  0.1660 -0.2187 -0.3692
 5444SOL     OW21541   2.687   0.929   1.968  0.2308  0.3537 -0.1464
 5444SOL    HW221542   2.611   0.871   1.960 -0.5028  1.2776 -0.0266
 5444SOL    HW321543   2.682   0.986   1.891  1.8643 -0.7529 -1.1468
 5444SOL    MW421544   2.676   0.929   1.956  0.3495  0.3296 -0.2626
 5445SOL     OW21545   1.746   0.257   0.390  0.3402  0.0542 -0.0522
 5445SOL    HW221546   1.713   0.337   0.350  0.5921  0.2983  0.2256
 5445SOL    HW321547   1.697   0.187   0.347 -0.8134  0.4274  0.6063
 5445SOL    MW421548   1.735   0.258   0.379  0.2212  0.1357  0.0713
 5446SOL     OW21549   3.735   5.749   2.627  0.0503  1.0123  0.3802
 5446SOL    HW221550   3.813   5.759   2.681 -0.5779  0.5543  1.3813
 5446SOL    HW321551   3.767   5.760   2.537  1.7379 -1.5593  0.5580
 5446SOL    MW421552   3.749   5.752   2.622  0.1901  0.6126  0.5358
 5447SOL     OW21553   3.853   0.808   3.524 -0.1979 -0.2770 -0.4071
 5447SOL    HW221554   3.892   0.871   3.584 -0.7446  0.7140 -1.0734
 5447SOL    HW321555   3.925   0.747   3.503  0.8493  1.1586 -1.1516
 5447SOL    MW421556   3.868   0.808   3.529 -0.1319  0.0431 -0.5932
 5448SOL     OW21557   1.574   3.582   4.764 -0.6386  0.1427 -0.3037
 5448SOL    HW221558   1.530   3.663   4.789  0.6810  0.5323  0.8561
 5448SOL    HW321559   1.598   3.541   4.848 -1.5322 -1.6197 -0.8395
 5448SOL    MW421560   1.571   3.587   4.779 -0.5824 -0.0384 -0.2214
 5449SOL     OW21561   1.034   2.208   0.406  0.3673 -0.5731 -0.2328
 5449SOL    HW221562   0.996   2.296   0.395 -0.7789 -1.0269 -0.0505
 5449SOL    HW321563   1.000   2.158   0.332  0.4096 -1.0589  0.0758
 5449SOL    MW421564   1.024   2.213   0.395  0.2216 -0.6971 -0.1680
 5450SOL     OW21565   3.223   3.024   4.805 -0.0171 -0.2105  0.1179
 5450SOL    HW221566   3.154   3.042   4.869  1.3496  0.8247  1.3688
 5450SOL    HW321567   3.282   2.964   4.850 -0.9161 -2.5455 -1.5706
 5450SOL    MW421568   3.221   3.018   4.819  0.0446 -0.3820  0.0601
 5451SOL     OW21569   0.960   4.200   0.643  0.2560  0.0429 -0.7334
 5451SOL    HW221570   1.011   4.119   0.652  1.1246  0.1820 -3.4818
 5451SOL    HW321571   0.886   4.175   0.587 -0.7348  0.6598  0.2828
 5451SOL    MW421572   0.957   4.186   0.637  0.2399  0.1426 -0.9620
 5452SOL     OW21573   1.541   1.043   2.571  0.0083 -0.6825 -0.0903
 5452SOL    HW221574   1.450   1.021   2.549 -0.5168 -0.6361  1.7837
 5452SOL    HW321575   1.577   0.961   2.606 -0.2176 -0.0486  1.7419
 5452SOL    MW421576   1.533   1.029   2.573 -0.0908 -0.5927  0.3987
 5453SOL     OW21577   1.216   5.574   3.433 -0.0970 -0.4927 -0.1209
 5453SOL    HW221578   1.150   5.507   3.445  0.5667 -1.1824 -0.2505
 5453SOL    HW321579   1.253   5.556   3.346  0.4884 -0.3244  0.0879
 5453SOL    MW421580   1.212   5.563   3.423  0.0678 -0.5615 -0.1105
 5454SOL     OW21581   1.520   0.750   3.734 -0.6157 -0.0588 -0.7566
 5454SOL    HW221582   1.538   0.661   3.703 -1.7777 -0.4459 -0.3632
 5454SOL    HW321583   1.446   0.740   3.794  0.5851  0.8769  0.9556
 5454SOL    MW421584   1.513   0.737   3.738 -0.6106  0.0135 -0.4788
 5455SOL     OW21585   4.049   1.199   5.347 -0.6351  0.2071  0.1333
 5455SOL    HW221586   4.014   1.116   5.379  0.4225  0.3588  1.8244
 5455SOL    HW321587   3.992   1.223   5.274 -1.1625 -1.8207 -0.1789
 5455SOL    MW421588   4.037   1.191   5.342 -0.5651 -0.0405  0.3152
 5456SOL     OW21589   0.962   3.649   0.979  0.0812 -0.2947  0.4528
 5456SOL    HW221590   0.871   3.649   1.007  0.0283  1.7482  0.4142
 5456SOL    HW321591   1.009   3.695   1.049  0.9295 -0.4888  0.0272
 5456SOL    MW421592   0.956   3.655   0.992  0.1862 -0.0508  0.3915
 5457SOL     OW21593   1.554   3.056   1.770  0.3133  0.7343  0.1407
 5457SOL    HW221594   1.535   3.035   1.862 -1.2895 -0.2470 -0.3795
 5457SOL    HW321595   1.611   2.985   1.741 -3.1285 -1.9194 -0.9155
 5457SOL    MW421596   1.559   3.044   1.778 -0.3523  0.2547 -0.0673
 5458SOL     OW21597   4.382   5.690   2.668 -0.5973 -0.3179  0.3655
 5458SOL    HW221598   4.435   5.634   2.611 -1.8823 -0.9477 -0.2473
 5458SOL    HW321599   4.291   5.671   2.644 -1.1408  0.3454  1.7379
 5458SOL    MW421600   4.377   5.680   2.658 -0.8386 -0.3135  0.4657
 5459SOL     OW21601   3.560   5.934   3.363 -0.3577 -0.2438 -0.1824
 5459SOL    HW221602   3.618   6.010   3.366  2.6081 -2.2380 -1.4963
 5459SOL    HW321603   3.620   5.859   3.366 -3.0955 -2.5788  1.1648
 5459SOL    MW421604   3.576   5.934   3.364 -0.3276 -0.8150 -0.1780
 5460SOL     OW21605   1.131   2.112   0.659  0.5352  0.0982 -0.0456
 5460SOL    HW221606   1.144   2.077   0.571 -0.1389 -1.1107  0.3079
 5460SOL    HW321607   1.094   2.199   0.645  1.1410  0.2246 -0.9490
 5460SOL    MW421608   1.128   2.119   0.646  0.5262 -0.0446 -0.1182
 5461SOL     OW21609   2.362   1.245   5.438 -0.4077 -0.1359 -0.2944
 5461SOL    HW221610   2.423   1.303   5.484  2.5595 -1.3386 -2.3767
 5461SOL    HW321611   2.333   1.295   5.363 -0.5392 -0.1939 -0.2820
 5461SOL    MW421612   2.366   1.259   5.434 -0.0336 -0.3023 -0.5675
 5462SOL     OW21613   3.558   3.736   5.395  0.0943  1.0838 -0.6072
 5462SOL    HW221614   3.571   3.653   5.442  0.3864  0.8965 -1.0188
 5462SOL    HW321615   3.484   3.777   5.440  0.4090  0.9333  0.0553
 5462SOL    MW421616   3.550   3.730   5.407  0.1744  1.0392 -0.5741
 5463SOL     OW21617   0.889   5.811   4.406 -0.5567 -0.2498 -0.7907
 5463SOL    HW221618   0.932   5.754   4.342 -0.3907 -0.6064 -0.3670
 5463SOL    HW321619   0.939   5.799   4.487 -1.5655 -0.8319 -0.2272
 5463SOL    MW421620   0.901   5.802   4.409 -0.6679 -0.3737 -0.6605
 5464SOL     OW21621   3.023   2.680   2.615  0.5888 -0.1296  0.6088
 5464SOL    HW221622   3.002   2.602   2.565  0.2809 -0.6642  1.5418
 5464SOL    HW321623   3.006   2.753   2.555  0.3760 -0.7592 -0.0993
 5464SOL    MW421624   3.018   2.679   2.601  0.5201 -0.2832  0.6385
 5465SOL     OW21625   3.692   2.495   1.266  0.2401  0.1433  0.4161
 5465SOL    HW221626   3.746   2.416   1.257 -2.2744 -1.5285 -1.5520
 5465SOL    HW321627   3.602   2.462   1.270 -0.9869  2.9074 -1.3929
 5465SOL    MW421628   3.687   2.480   1.265 -0.2535  0.2874 -0.0822
 5466SOL     OW21629   5.401   4.057   2.388  0.0924  0.0225 -0.0766
 5466SOL    HW221630   5.346   3.985   2.358 -0.9402  1.4157 -1.6845
 5466SOL    HW321631   5.490   4.020   2.389 -0.3389 -1.1391 -1.3354
 5466SOL    MW421632   5.405   4.043   2.385 -0.1008  0.0531 -0.4548
 5467SOL     OW21633   5.747   4.237   0.664 -0.6163  1.0090  0.0149
 5467SOL    HW221634   5.713   4.278   0.743  2.1836  1.9282  0.8413
 5467SOL    HW321635   5.726   4.144   0.675 -0.2595  1.1045  1.8947
 5467SOL    MW421636   5.740   4.230   0.676 -0.1998  1.1429  0.3719
 5468SOL     OW21637   4.433   0.798   3.573 -0.3136  0.4135 -0.3652
 5468SOL    HW221638   4.452   0.740   3.647 -1.3195  2.9231  2.0236
 5468SOL    HW321639   4.518   0.821   3.537  0.3420  0.6664  1.2879
 5468SOL    MW421640   4.447   0.793   3.578 -0.3599  0.7780  0.1681
 5469SOL     OW21641   1.566   0.213   3.508 -0.3649  0.2795  0.1788
 5469SOL    HW221642   1.562   0.295   3.459 -1.9076 -1.0643 -2.1505
 5469SOL    HW321643   1.652   0.176   3.486  1.3796  2.2000  3.1038
 5469SOL    MW421644   1.577   0.219   3.499 -0.3383  0.3556  0.2574
 5470SOL     OW21645   2.781   0.525   1.517 -0.3904 -0.0999  0.1518
 5470SOL    HW221646   2.809   0.543   1.606  1.1563 -2.0703  0.1118
 5470SOL    HW321647   2.860   0.532   1.464 -0.3690 -3.0860 -0.3936
 5470SOL    MW421648   2.795   0.529   1.522 -0.1835 -0.7538  0.0746
 5471SOL     OW21649   6.270   5.217   2.241  0.0768 -0.3030 -0.1958
 5471SOL    HW221650   6.340   5.168   2.198  0.7550  1.1312 -0.7953
 5471SOL    HW321651   6.315   5.286   2.290 -0.6733 -1.7949  2.8497
 5471SOL    MW421652   6.285   5.219   2.242  0.0673 -0.3106  0.1269
 5472SOL     OW21653   0.754   5.486   1.299  0.8234  0.0930 -0.0335
 5472SOL    HW221654   0.767   5.580   1.300  1.1253  0.0630 -0.6413
 5472SOL    HW321655   0.784   5.458   1.213 -2.7503 -0.0660 -1.4049
 5472SOL    MW421656   0.759   5.494   1.288  0.3917  0.0681 -0.2946
 5473SOL     OW21657   2.686   6.200   2.844  0.1096  0.2765  0.0528
 5473SOL    HW221658   2.608   6.235   2.887 -0.0744  1.4040 -1.1171
 5473SOL    HW321659   2.691   6.109   2.872  0.4575  1.1036  3.0820
 5473SOL    MW421660   2.677   6.193   2.854  0.1312  0.5344  0.2981
 5474SOL     OW21661   5.065   4.674   0.076  0.4055 -0.4905  0.2988
 5474SOL    HW221662   5.091   4.652  -0.013  0.8326  0.1856  0.2438
 5474SOL    HW321663   5.059   4.770   0.076  1.1106 -0.4327  1.1710
 5474SOL    MW421664   5.068   4.684   0.064  0.5549 -0.3937  0.4066
 5475SOL     OW21665   5.949   1.375   5.729  0.1047  0.0601 -0.2168
 5475SOL    HW221666   5.956   1.321   5.650 -1.0909 -0.2277 -0.1354
 5475SOL    HW321667   6.027   1.353   5.780  0.2403 -0.6963 -0.7358
 5475SOL    MW421668   5.960   1.365   5.725 -0.0351 -0.0777 -0.2745
 5476SOL     OW21669   5.634   4.061   4.548  0.5532 -1.0383 -0.0075
 5476SOL    HW221670   5.644   4.052   4.642  2.4850  1.3577  0.1184
 5476SOL    HW321671   5.582   4.141   4.536 -1.5422 -2.4449 -1.0355
 5476SOL    MW421672   5.628   4.071   4.559  0.5317 -0.9078 -0.1265
 5477SOL     OW21673   3.086   4.755   5.468  0.1990  0.2885  0.4293
 5477SOL    HW221674   3.046   4.668   5.459 -0.1864  0.5693 -0.6954
 5477SOL    HW321675   3.015   4.812   5.496  0.8348 -0.0640  3.0157
 5477SOL    MW421676   3.072   4.751   5.471  0.2321  0.2791  0.6222
 5478SOL     OW21677   6.172   1.957   6.121 -0.0620  0.1804  0.3006
 5478SOL    HW221678   6.226   2.023   6.078  0.6531 -1.5121 -1.5296
 5478SOL    HW321679   6.232   1.886   6.141 -1.2823 -1.0562 -0.2678
 5478SOL    MW421680   6.187   1.957   6.118 -0.1286 -0.2060 -0.0159
 5479SOL     OW21681   1.557   0.005   4.741 -0.0622  0.3588  0.3916
 5479SOL    HW221682   1.644   0.044   4.735  0.0693  0.1842  1.0811
 5479SOL    HW321683   1.545  -0.039   4.657 -0.0278  1.4729 -0.2177
 5479SOL    MW421684   1.567   0.004   4.729 -0.0403  0.4827  0.4022
 5480SOL     OW21685   5.520   2.383   2.571  0.1755 -0.0792  0.8065
 5480SOL    HW221686   5.527   2.314   2.637  0.9139 -1.4727 -0.6575
 5480SOL    HW321687   5.429   2.380   2.543 -0.0315  0.2171  1.4407
 5480SOL    MW421688   5.509   2.374   2.576  0.2456 -0.2240  0.6970
 5481SOL     OW21689   5.998   4.008   3.697  0.0884 -0.3165 -0.6775
 5481SOL    HW221690   5.969   3.930   3.650  0.5520 -0.8060 -0.1770
 5481SOL    HW321691   6.061   4.050   3.639  0.8690 -1.0673 -0.3884
 5481SOL    MW421692   6.002   4.003   3.683  0.2525 -0.4801 -0.5733
 5482SOL     OW21693   3.728   4.016   2.796  0.1280  0.4670  0.1470
 5482SOL    HW221694   3.732   4.074   2.872 -0.5681  0.6813  0.0241
 5482SOL    HW321695   3.675   4.063   2.733 -1.0448 -0.5910  0.3031
 5482SOL    MW421696   3.722   4.030   2.798 -0.1186  0.3557  0.1514
 5483SOL     OW21697   4.623   2.968   2.900  0.2439  0.8176  0.0070
 5483SOL    HW221698   4.527   2.971   2.893  0.3508  1.9249 -1.5579
 5483SOL    HW321699   4.642   3.004   2.987 -0.8250 -2.2276  1.6527
 5483SOL    MW421700   4.612   2.973   2.911  0.1169  0.5619  0.0177
 5484SOL     OW21701   4.630   4.021   2.839  0.1825  0.0870  0.4722
 5484SOL    HW221702   4.644   4.018   2.934  1.2326  0.1439  0.3294
 5484SOL    HW321703   4.617   3.929   2.814 -1.9089  0.2187  0.9033
 5484SOL    MW421704   4.630   4.008   2.848  0.0451  0.1119  0.5103
 5485SOL     OW21705   5.943   4.815   1.094 -0.7449  0.6382 -0.0656
 5485SOL    HW221706   5.912   4.888   1.042  1.0873  0.8822 -0.8844
 5485SOL    HW321707   5.888   4.741   1.067 -1.7766  1.4083 -0.1329
 5485SOL    MW421708   5.931   4.815   1.084 -0.6393  0.7720 -0.1825
 5486SOL     OW21709   0.084   2.077   2.753 -0.5007 -0.1883  0.1401
 5486SOL    HW221710   0.079   2.121   2.838  1.6814 -0.8146  0.6585
 5486SOL    HW321711   0.118   2.144   2.693  0.2399 -0.4081  0.3118
 5486SOL    MW421712   0.088   2.092   2.756 -0.1151 -0.2999  0.2311
 5487SOL     OW21713   0.949   2.395   0.057 -0.3156 -0.5898  0.6623
 5487SOL    HW221714   1.039   2.388   0.089 -0.4106 -1.1937  0.8151
 5487SOL    HW321715   0.957   2.398  -0.038 -0.1056 -0.1168  0.6938
 5487SOL    MW421716   0.962   2.395   0.049 -0.3005 -0.6071  0.6866
 5488SOL     OW21717   6.195   5.242   1.464 -0.3019  0.3251 -0.7633
 5488SOL    HW221718   6.111   5.273   1.498 -0.5844 -1.9220  0.7423
 5488SOL    HW321719   6.172   5.181   1.394  0.1934  1.7420 -2.2201
 5488SOL    MW421720   6.181   5.238   1.459 -0.2739  0.2156 -0.7569
 5489SOL     OW21721   2.244   2.399   3.315  0.2640  0.1819 -0.1682
 5489SOL    HW221722   2.324   2.372   3.269 -0.4741  0.8280 -1.9029
 5489SOL    HW321723   2.273   2.470   3.372  0.8185  0.9129 -1.3267
 5489SOL    MW421724   2.259   2.404   3.317  0.2398  0.3636 -0.5499
 5490SOL     OW21725   0.121   3.031   0.011  0.2088 -0.2335 -0.0028
 5490SOL    HW221726   0.038   3.076   0.027  0.1611 -0.4990  0.5003
 5490SOL    HW321727   0.160   3.079  -0.062 -0.0879  0.2956  0.1782
 5490SOL    MW421728   0.116   3.043   0.004  0.1634 -0.1988  0.0874
 5491SOL     OW21729   4.638   2.432   5.137  0.5936  0.1091  0.4105
 5491SOL    HW221730   4.697   2.358   5.148 -1.0270 -1.4863 -0.9582
 5491SOL    HW321731   4.574   2.424   5.207 -0.2326 -0.4860 -0.3848
 5491SOL    MW421732   4.637   2.421   5.148  0.2707 -0.1799  0.1250
 5492SOL     OW21733   1.369   4.491   3.469 -0.3783 -0.2913 -0.4204
 5492SOL    HW221734   1.437   4.446   3.419 -0.5327 -0.9943 -0.0115
 5492SOL    HW321735   1.407   4.504   3.555 -0.5552 -0.1846 -0.3577
 5492SOL    MW421736   1.383   4.487   3.474 -0.4220 -0.3700 -0.3581
 5493SOL     OW21737   6.275   6.149   4.512  0.1478 -0.2098 -0.4818
 5493SOL    HW221738   6.361   6.165   4.472  0.4609 -1.1917 -0.2143
 5493SOL    HW321739   6.214   6.196   4.456  0.7946  0.0024 -1.0244
 5493SOL    MW421740   6.278   6.158   4.499  0.2744 -0.3114 -0.5181
 5494SOL     OW21741   2.397   6.108   6.423 -0.6304 -0.1004 -0.0780
 5494SOL    HW221742   2.469   6.080   6.367 -0.3354  0.0293  0.2336
 5494SOL    HW321743   2.372   6.194   6.389 -1.6303 -0.7874 -1.1241
 5494SOL    MW421744   2.403   6.116   6.411 -0.7234 -0.1739 -0.1749
 5495SOL     OW21745   0.333   1.579   2.837 -0.5647  0.0965  0.0981
 5495SOL    HW221746   0.250   1.587   2.882 -0.6353 -3.4352  0.8407
 5495SOL    HW321747   0.310   1.565   2.745 -0.8115 -0.9570  0.3162
 5495SOL    MW421748   0.319   1.578   2.831 -0.6066 -0.5085  0.2249
 5496SOL     OW21749   0.481   5.433   2.013  0.1813 -0.7145  0.4303
 5496SOL    HW221750   0.486   5.495   1.941  1.5274 -2.8022 -1.4161
 5496SOL    HW321751   0.484   5.487   2.092 -0.1700  1.5959 -1.0544
 5496SOL    MW421752   0.482   5.448   2.014  0.3126 -0.6851 -0.0092
 5497SOL     OW21753   0.510   1.225   4.236  0.1313 -0.4739  0.5041
 5497SOL    HW221754   0.598   1.226   4.199 -0.8821  1.6542 -2.1709
 5497SOL    HW321755   0.466   1.151   4.194 -0.5436  0.9991 -1.5168
 5497SOL    MW421756   0.516   1.216   4.226 -0.0914  0.0012 -0.1154
 5498SOL     OW21757   0.565   1.344   2.435  0.2875 -0.1135  0.2109
 5498SOL    HW221758   0.628   1.416   2.444 -2.3039  2.0984  2.5231
 5498SOL    HW321759   0.508   1.370   2.363  0.1964 -0.6026  0.1013
 5498SOL    MW421760   0.566   1.357   2.427 -0.0664  0.1138  0.5015
 5499SOL     OW21761   3.090   5.205   2.100  0.8046 -0.4147  0.8273
 5499SOL    HW221762   3.126   5.260   2.032 -0.0615 -2.2808 -1.2679
 5499SOL    HW321763   3.166   5.160   2.138  1.1704 -0.5532 -0.0511
 5499SOL    MW421764   3.105   5.206   2.096  0.7386 -0.6792  0.4350
 5500SOL     OW21765   4.362   2.037   5.053 -0.3277  0.1221 -0.5409
 5500SOL    HW221766   4.426   1.966   5.048  0.3845  0.7836 -1.1698
 5500SOL    HW321767   4.290   2.009   4.996 -1.0231 -1.0209  0.8554
 5500SOL    MW421768   4.361   2.024   5.045 -0.3255  0.0586 -0.4396
 5501SOL     OW21769   2.753   5.779   1.771  0.4840  0.2150  0.3154
 5501SOL    HW221770   2.669   5.736   1.757  0.7106  0.6161 -3.4308
 5501SOL    HW321771   2.731   5.860   1.817 -1.0719 -0.1453  0.2595
 5501SOL    MW421772   2.739   5.784   1.775  0.3086  0.2204 -0.1862
 5502SOL     OW21773   2.408   5.560   4.100 -0.2639 -0.0986  0.0872
 5502SOL    HW221774   2.496   5.527   4.084 -0.6564 -0.9002 -0.4954
 5502SOL    HW321775   2.421   5.651   4.127  0.7504 -0.2774  0.2413
 5502SOL    MW421776   2.421   5.568   4.102 -0.1819 -0.2280  0.0306
 5503SOL     OW21777   4.305   2.825   0.532  0.2605 -0.1868  0.2613
 5503SOL    HW221778   4.280   2.900   0.586 -2.4908 -1.4390  0.8771
 5503SOL    HW321779   4.278   2.849   0.443  0.5899  0.0478  0.2211
 5503SOL    MW421780   4.298   2.838   0.527 -0.0590 -0.3210  0.3373
 5504SOL     OW21781   1.362   1.690   2.543  0.4812 -0.1670 -0.2078
 5504SOL    HW221782   1.443   1.702   2.593  0.3988 -1.1019  0.1665
 5504SOL    HW321783   1.379   1.614   2.488  0.2531  0.3242 -0.9736
 5504SOL    MW421784   1.375   1.682   2.542  0.4402 -0.2255 -0.2595
 5505SOL     OW21785   0.625   2.691   4.597  0.0056  0.2463 -0.2885
 5505SOL    HW221786   0.697   2.745   4.631  0.5731 -0.7740  0.1645
 5505SOL    HW321787   0.551   2.751   4.589  1.2199  1.6353 -1.9314
 5505SOL    MW421788   0.625   2.706   4.600  0.2407  0.2949 -0.4455
 5506SOL     OW21789   1.597   0.221   1.457  0.0407  0.0851 -0.2048
 5506SOL    HW221790   1.688   0.202   1.477 -0.4792 -1.0319  1.2428
 5506SOL    HW321791   1.547   0.157   1.508 -1.5883  1.4548  0.0044
 5506SOL    MW421792   1.602   0.210   1.466 -0.2428  0.1184  0.0138
 5507SOL     OW21793   3.580   5.580   1.700  0.0893 -0.3904  0.3257
 5507SOL    HW221794   3.673   5.600   1.699  0.0419 -0.1457  0.7373
 5507SOL    HW321795   3.543   5.635   1.631  0.2851 -0.6763 -0.0112
 5507SOL    MW421796   3.587   5.590   1.691  0.1089 -0.3958  0.3356
 5508SOL     OW21797   1.350   5.021   5.725 -0.5211 -0.3270  0.3842
 5508SOL    HW221798   1.381   5.100   5.768  1.5407 -1.2731  0.7389
 5508SOL    HW321799   1.319   5.051   5.640  1.1805  0.7550  0.0912
 5508SOL    MW421800   1.350   5.035   5.719 -0.0246 -0.3091  0.3923
 5509SOL     OW21801   4.642   1.541   5.640  0.0745 -0.0581  0.1518
 5509SOL    HW221802   4.645   1.458   5.593  0.8981 -0.9686  1.7116
 5509SOL    HW321803   4.580   1.526   5.711 -0.0972  0.8114  0.1982
 5509SOL    MW421804   4.634   1.528   5.643  0.1605 -0.0635  0.3637
 5510SOL     OW21805   3.210   1.129   5.944  0.6013  0.2593  0.0506
 5510SOL    HW221806   3.191   1.074   6.020  1.0087  0.5993  0.4009
 5510SOL    HW321807   3.237   1.213   5.981  3.0275 -0.2567 -0.4009
 5510SOL    MW421808   3.211   1.132   5.959  0.9752  0.2361  0.0373
 5511SOL     OW21809   1.247   3.430   5.842  0.5051  0.0161 -0.0105
 5511SOL    HW221810   1.337   3.446   5.870  0.2902 -0.0440  0.7307
 5511SOL    HW321811   1.247   3.339   5.811  0.1908 -0.7760  2.1657
 5511SOL    MW421812   1.259   3.420   5.841  0.4353 -0.0963  0.3744
 5512SOL     OW21813   4.732   1.248   3.982  0.6243  0.7381  0.3356
 5512SOL    HW221814   4.777   1.237   3.898 -0.0748 -0.5580  0.0907
 5512SOL    HW321815   4.650   1.293   3.959 -0.9645 -2.1662 -0.2375
 5512SOL    MW421816   4.727   1.253   3.968  0.3225  0.1839  0.2277
 5513SOL     OW21817   5.954   5.137   4.513  0.1564  0.8088 -0.1356
 5513SOL    HW221818   5.903   5.085   4.576 -1.0410 -0.3613 -1.9782
 5513SOL    HW321819   6.037   5.090   4.507 -0.2737  0.0676 -0.4985
 5513SOL    MW421820   5.958   5.124   4.521 -0.0584  0.5566 -0.4266
 5514SOL     OW21821   2.124   4.036   6.171  0.0015 -0.1144 -0.1498
 5514SOL    HW221822   2.135   4.004   6.260  0.1304  0.6715  0.1299
 5514SOL    HW321823   2.077   4.119   6.182 -0.9428 -0.5376 -0.8943
 5514SOL    MW421824   2.120   4.043   6.184 -0.1061 -0.0665 -0.2111
 5515SOL     OW21825   5.683   2.948   2.497 -0.4479 -0.0453 -0.2292
 5515SOL    HW221826   5.658   3.017   2.558  0.3170  0.3809 -0.3917
 5515SOL    HW321827   5.634   2.871   2.527  0.0352  0.1039  1.0359
 5515SOL    MW421828   5.673   2.947   2.509 -0.2832  0.0306 -0.0837
 5516SOL     OW21829   0.151   5.796   3.140  0.2246  0.2235 -0.2630
 5516SOL    HW221830   0.092   5.820   3.069  1.9609  1.7154 -1.2973
 5516SOL    HW321831   0.236   5.784   3.098  0.7675 -1.5566  1.2114
 5516SOL    MW421832   0.154   5.797   3.125  0.5253  0.1855 -0.2050
 5517SOL     OW21833   3.635   0.505   0.796 -0.5291 -0.2836 -0.2510
 5517SOL    HW221834   3.695   0.517   0.870  0.0355  1.5605 -0.9478
 5517SOL    HW321835   3.570   0.443   0.828  0.5007 -0.6438  1.2936
 5517SOL    MW421836   3.634   0.498   0.810 -0.3188 -0.0878 -0.1391
 5518SOL     OW21837   5.705   2.589   1.942 -0.2970  0.1005 -0.4169
 5518SOL    HW221838   5.669   2.674   1.918 -1.9576 -0.7867 -1.2690
 5518SOL    HW321839   5.788   2.583   1.895 -0.3518  1.0702 -0.6559
 5518SOL    MW421840   5.711   2.600   1.933 -0.5233  0.1114 -0.5609
 5519SOL     OW21841   3.330   6.005   6.335 -0.0956 -0.2040 -0.0788
 5519SOL    HW221842   3.284   5.924   6.313  0.9885 -0.9525  0.3222
 5519SOL    HW321843   3.365   5.989   6.423  1.8423 -0.0890 -0.7918
 5519SOL    MW421844   3.328   5.992   6.344  0.3031 -0.2876 -0.1200
 5520SOL     OW21845   5.905   0.824   5.604 -0.1708 -0.1319 -0.4136
 5520SOL    HW221846   5.861   0.827   5.519  0.7225  1.2073 -0.8446
 5520SOL    HW321847   5.835   0.840   5.667 -0.5652  0.4750 -0.9916
 5520SOL    MW421848   5.890   0.826   5.601 -0.1050  0.1248 -0.5467
 5521SOL     OW21849   3.254   5.689   1.064 -0.1119 -0.3102 -0.7816
 5521SOL    HW221850   3.196   5.613   1.055 -1.0404  0.2711  0.1163
 5521SOL    HW321851   3.219   5.753   1.002  0.6427 -0.5622 -1.5023
 5521SOL    MW421852   3.242   5.687   1.054 -0.1349 -0.2667 -0.7582
 5522SOL     OW21853   3.569   2.942   5.396  0.2669  0.5815  0.1446
 5522SOL    HW221854   3.639   2.978   5.450  0.8494  2.1051 -1.5189
 5522SOL    HW321855   3.613   2.906   5.320 -0.6889  1.2304 -0.7584
 5522SOL    MW421856   3.584   2.942   5.393  0.2176  0.8682 -0.1940
 5523SOL     OW21857   5.828   2.006   4.561 -0.0744  0.2152 -0.1727
 5523SOL    HW221858   5.810   2.099   4.573 -0.9275  0.1930 -1.1180
 5523SOL    HW321859   5.921   2.002   4.540 -0.3090  1.0191 -1.5277
 5523SOL    MW421860   5.838   2.018   4.560 -0.2179  0.3184 -0.4762
 5524SOL     OW21861   0.685   1.688   4.283 -0.2396 -0.3880  0.3202
 5524SOL    HW221862   0.715   1.762   4.230 -0.3961 -0.3789  0.2423
 5524SOL    HW321863   0.624   1.726   4.346 -0.8413 -0.5393 -0.1514
 5524SOL    MW421864   0.681   1.702   4.285 -0.3396 -0.4067  0.2477
 5525SOL     OW21865   0.648   5.369   1.643 -0.0946 -0.3203 -0.0347
 5525SOL    HW221866   0.612   5.451   1.609  2.1242  1.0956  0.8025
 5525SOL    HW321867   0.657   5.313   1.566  0.7466  1.1862 -1.0776
 5525SOL    MW421868   0.644   5.373   1.628  0.3092  0.0653 -0.0619
 5526SOL     OW21869   5.057   2.298   4.379 -0.6007 -0.1360  0.2559
 5526SOL    HW221870   5.106   2.216   4.372 -0.8968 -0.4114  1.3046
 5526SOL    HW321871   4.979   2.284   4.327 -0.4857 -0.3942  0.1514
 5526SOL    MW421872   5.053   2.285   4.371 -0.6246 -0.2064  0.3805
 5527SOL     OW21873   4.314   5.154   2.202 -1.0031  0.6197 -0.5817
 5527SOL    HW221874   4.268   5.203   2.270 -1.8002  0.7479 -1.1872
 5527SOL    HW321875   4.405   5.152   2.230 -1.3667  0.4095  0.6271
 5527SOL    MW421876   4.320   5.160   2.214 -1.1562  0.6089 -0.5021
 5528SOL     OW21877   3.164   5.753   4.236 -0.2903  0.0135 -0.7787
 5528SOL    HW221878   3.185   5.677   4.290  0.4983  1.1074  0.5370
 5528SOL    HW321879   3.228   5.819   4.262 -1.4215  1.3797 -1.3248
 5528SOL    MW421880   3.176   5.752   4.247 -0.3355  0.3381 -0.6772
 5529SOL     OW21881   3.350   4.356   5.262  0.5143 -0.1243  0.4313
 5529SOL    HW221882   3.290   4.369   5.189  0.7269  0.6279  0.3799
 5529SOL    HW321883   3.315   4.281   5.309 -0.4451  0.2689  0.3691
 5529SOL    MW421884   3.338   4.348   5.259  0.4157  0.0268  0.4163
 5530SOL     OW21885   0.541   0.274   1.688 -0.1306  0.4163 -0.1103
 5530SOL    HW221886   0.542   0.312   1.776  0.7882  0.7402 -0.2496
 5530SOL    HW321887   0.580   0.341   1.632 -1.0039  0.3410 -0.8365
 5530SOL    MW421888   0.546   0.288   1.692 -0.1246  0.4491 -0.2245
 5531SOL     OW21889   3.805   0.134   2.839 -0.2247 -0.2594 -0.7540
 5531SOL    HW221890   3.816   0.202   2.773 -1.6909 -1.2304 -2.0523
 5531SOL    HW321891   3.892   0.096   2.850  0.5224  1.4721 -0.3484
 5531SOL    MW421892   3.818   0.138   2.832 -0.3196 -0.1591 -0.8718
 5532SOL     OW21893   2.076   5.994   5.203 -0.2228  0.4353 -0.1251
 5532SOL    HW221894   2.016   5.953   5.140 -2.0680  0.1790  1.6703
 5532SOL    HW321895   2.068   6.088   5.185 -0.3027  0.3357 -0.6326
 5532SOL    MW421896   2.067   6.001   5.192 -0.4768  0.3883  0.0448
 5533SOL     OW21897   0.638   5.258   5.510 -0.3449  0.0562 -0.2083
 5533SOL    HW221898   0.638   5.220   5.598 -1.3115 -1.7909 -0.9733
 5533SOL    HW321899   0.703   5.207   5.461 -1.4966 -0.5127 -1.1885
 5533SOL    MW421900   0.647   5.247   5.515 -0.6244 -0.2626 -0.4385
 5534SOL     OW21901   2.790   4.842   2.391  0.1240  0.6705 -0.4639
 5534SOL    HW221902   2.877   4.819   2.358 -0.0354  1.3441 -1.4203
 5534SOL    HW321903   2.777   4.932   2.361 -1.0039  0.4922 -0.5492
 5534SOL    MW421904   2.800   4.851   2.383 -0.0459  0.7359 -0.6014
 5535SOL     OW21905   2.714   1.138   5.754 -0.1284 -0.1831 -0.3922
 5535SOL    HW221906   2.785   1.146   5.819  0.2058  0.8885 -0.8767
 5535SOL    HW321907   2.635   1.163   5.802  0.0957  0.4496 -0.3445
 5535SOL    MW421908   2.713   1.142   5.769 -0.0547  0.0418 -0.4499
 5536SOL     OW21909   0.835   6.347   4.755  0.6707  0.0563  0.7396
 5536SOL    HW221910   0.776   6.288   4.707  2.3334 -2.1703  1.2285
 5536SOL    HW321911   0.780   6.384   4.824 -0.8509  0.4266 -0.5993
 5536SOL    MW421912   0.820   6.344   4.758  0.6893 -0.1886  0.6275
 5537SOL     OW21913   2.747   0.849   2.321 -0.1499 -0.1297 -0.1503
 5537SOL    HW221914   2.781   0.925   2.368 -3.9298  0.2249  2.4370
 5537SOL    HW321915   2.664   0.880   2.283  0.1943 -1.9267 -2.6151
 5537SOL    MW421916   2.740   0.863   2.322 -0.6032 -0.3200 -0.1341
 5538SOL     OW21917   2.031   1.851   5.104 -0.0852  0.1861  0.5229
 5538SOL    HW221918   2.105   1.791   5.109 -1.0436 -0.9944  1.8130
 5538SOL    HW321919   2.069   1.937   5.087  1.4078 -0.6561 -0.5445
 5538SOL    MW421920   2.046   1.854   5.103 -0.0147 -0.0807  0.5523
 5539SOL     OW21921   2.370   3.147   1.514  0.4088 -0.3389 -0.0857
 5539SOL    HW221922   2.396   3.055   1.520 -0.1189 -0.6593 -1.9269
 5539SOL    HW321923   2.398   3.173   1.426  1.3532  1.5439  0.7356
 5539SOL    MW421924   2.377   3.138   1.503  0.4638 -0.1328 -0.2203
 5540SOL     OW21925   0.422   2.216   5.808 -0.1756  0.2841 -0.0509
 5540SOL    HW221926   0.349   2.243   5.863 -1.1401  0.4876 -1.3779
 5540SOL    HW321927   0.481   2.291   5.807 -0.8655  0.8239 -0.4629
 5540SOL    MW421928   0.420   2.229   5.815 -0.3939  0.3821 -0.2803
 5541SOL     OW21929   4.583   1.141   6.136  0.3470 -0.5910 -0.1989
 5541SOL    HW221930   4.568   1.188   6.218  0.4754 -1.1996  0.1793
 5541SOL    HW321931   4.510   1.079   6.129  1.9728 -2.8313  1.1210
 5541SOL    MW421932   4.572   1.139   6.146  0.5784 -0.9669  0.0252
 5542SOL     OW21933   4.848   0.662   4.682 -0.1628  0.4523  0.3712
 5542SOL    HW221934   4.761   0.656   4.723  0.2156 -1.7074  0.9582
 5542SOL    HW321935   4.908   0.677   4.755 -0.0388  2.3257 -0.0745
 5542SOL    MW421936   4.844   0.663   4.697 -0.0965  0.4145  0.3899
 5543SOL     OW21937   2.920   2.794   1.362 -0.4676 -0.4368  0.4576
 5543SOL    HW221938   2.995   2.753   1.405 -0.9890 -2.2746 -0.2749
 5543SOL    HW321939   2.939   2.787   1.269 -0.4679  1.3045  0.2813
 5543SOL    MW421940   2.932   2.788   1.356 -0.5364 -0.4496  0.3377
 5544SOL     OW21941   6.133   4.462   4.592 -0.0796  0.5763  0.4404
 5544SOL    HW221942   6.222   4.461   4.559  0.0353 -1.4971  0.6657
 5544SOL    HW321943   6.142   4.477   4.687  0.4191 -3.1392  1.1326
 5544SOL    MW421944   6.146   4.464   4.600  0.0013 -0.1875  0.5615
 5545SOL     OW21945   5.161   3.738   0.767  0.1055  0.2814 -0.0711
 5545SOL    HW221946   5.179   3.781   0.851  0.2263 -0.6247  0.3789
 5545SOL    HW321947   5.071   3.764   0.747 -0.5990 -0.9383  1.2717
 5545SOL    MW421948   5.151   3.747   0.776  0.0285  0.0009  0.1654
 5546SOL     OW21949   6.294   0.659   6.177 -0.1220  0.6378  0.0032
 5546SOL    HW221950   6.267   0.588   6.235 -1.7868  1.8765  0.8048
 5546SOL    HW321951   6.367   0.622   6.127 -1.4438 -1.9179 -0.2084
 5546SOL    MW421952   6.300   0.645   6.178 -0.5160  0.4640  0.0811
 5547SOL     OW21953   2.106   0.593   2.255 -0.2188 -0.0734 -0.6009
 5547SOL    HW221954   2.086   0.686   2.243 -0.7443  0.1575  1.5310
 5547SOL    HW321955   2.201   0.588   2.252 -0.0806  0.8617  0.8647
 5547SOL    MW421956   2.116   0.605   2.253 -0.2699  0.0805 -0.1263
 5548SOL     OW21957   0.060   6.382   4.962  0.1140  0.7725 -0.0381
 5548SOL    HW221958  -0.031   6.407   4.976 -0.3362 -1.3202  1.2167
 5548SOL    HW321959   0.057   6.322   4.887 -0.0433 -1.4926  1.6699
 5548SOL    MW421960   0.047   6.377   4.954  0.0338  0.1975  0.3528
 5549SOL     OW21961   2.249   5.137   2.908 -0.0273 -0.2985 -0.4959
 5549SOL    HW221962   2.262   5.219   2.859 -2.9331  0.2658 -0.5494
 5549SOL    HW321963   2.257   5.068   2.842 -1.3946  0.2737 -1.3143
 5549SOL    MW421964   2.252   5.139   2.893 -0.5911 -0.1486 -0.6110
 5550SOL     OW21965   1.803   4.069   5.324 -0.4203 -0.1711  0.3552
 5550SOL    HW221966   1.759   4.027   5.250  1.0260  0.9399 -1.2218
 5550SOL    HW321967   1.896   4.053   5.308 -0.0165  1.1228  1.2758
 5550SOL    MW421968   1.810   4.061   5.312 -0.1762  0.1462  0.2686
 5551SOL     OW21969   3.320   3.648   5.203 -0.3991 -0.2830 -0.7303
 5551SOL    HW221970   3.386   3.590   5.166 -0.3267 -1.4707  1.1026
 5551SOL    HW321971   3.357   3.674   5.288 -1.1188  1.2311 -0.8473
 5551SOL    MW421972   3.334   3.644   5.210 -0.4845 -0.2400 -0.5039
 5552SOL     OW21973   1.138   5.467   3.748  0.2497  0.4910  0.1723
 5552SOL    HW221974   1.099   5.440   3.665  0.0158 -4.3464  1.5354
 5552SOL    HW321975   1.231   5.477   3.729 -0.1850  2.3136 -1.1693
 5552SOL    MW421976   1.145   5.464   3.734  0.1615  0.0932  0.1752
 5553SOL     OW21977   5.541   1.056   2.510 -0.6592 -0.0712  0.1818
 5553SOL    HW221978   5.541   1.101   2.594 -1.2946 -0.5537  0.4474
 5553SOL    HW321979   5.506   0.969   2.529 -0.7219 -0.2181 -0.5644
 5553SOL    MW421980   5.537   1.050   2.523 -0.7513 -0.1543  0.1184
 5554SOL     OW21981   4.220   1.494   1.444  0.2082  0.3956  0.2619
 5554SOL    HW221982   4.130   1.526   1.450  0.2756  0.4847  0.9309
 5554SOL    HW321983   4.269   1.566   1.406 -0.0706  0.2029 -0.4759
 5554SOL    MW421984   4.215   1.507   1.440  0.1803  0.3819  0.2528
 5555SOL     OW21985   2.080   0.357   4.316  0.6305 -0.9395  0.2094
 5555SOL    HW221986   2.022   0.431   4.298  0.8381 -1.1634 -1.5243
 5555SOL    HW321987   2.053   0.325   4.402  0.1561  0.7810  0.7328
 5555SOL    MW421988   2.069   0.363   4.325  0.5953 -0.7420  0.0497
 5556SOL     OW21989   3.679   4.732   0.409 -0.5067 -0.3580  0.1326
 5556SOL    HW221990   3.586   4.710   0.417 -0.6189  0.5708  1.8931
 5556SOL    HW321991   3.707   4.752   0.498  1.9479 -2.5954 -0.0283
 5556SOL    MW421992   3.670   4.732   0.422 -0.1976 -0.5306  0.3436
 5557SOL     OW21993   0.115   5.718   4.120  0.6368 -0.3373 -0.2282
 5557SOL    HW221994   0.153   5.683   4.201 -0.8069 -1.5428 -0.0366
 5557SOL    HW321995   0.031   5.755   4.147  1.7268  2.6512 -0.5834
 5557SOL    MW421996   0.109   5.718   4.135  0.5902 -0.1020 -0.2498
 5558SOL     OW21997   4.839   0.242   6.281 -0.4361 -0.5764  0.4216
 5558SOL    HW221998   4.864   0.319   6.332 -1.1491  0.0638 -0.1540
 5558SOL    HW321999   4.838   0.273   6.190 -1.7079 -0.9846  0.2747
 5558SOL    MW422000   4.842   0.256   6.275 -0.6980 -0.5458  0.3262
 5559SOL     OW22001   3.490   1.086   3.099 -0.3023 -0.3507  0.0287
 5559SOL    HW222002   3.520   1.100   3.188  0.7067 -2.0813  0.0151
 5559SOL    HW322003   3.515   1.165   3.052  1.2464 -0.3421  0.7916
 5559SOL    MW422004   3.497   1.098   3.104  0.0351 -0.5779  0.1276
 5560SOL     OW22005   5.819   5.263   5.778  0.1459  0.2772 -0.3290
 5560SOL    HW222006   5.839   5.235   5.868  1.9424 -1.5070 -1.2034
 5560SOL    HW322007   5.889   5.323   5.755  0.1054  0.1496 -0.7918
 5560SOL    MW422008   5.831   5.267   5.787  0.3776  0.0249 -0.5054
 5561SOL     OW22009   4.963   0.388   5.242 -0.0176  0.1605 -0.8033
 5561SOL    HW222010   4.880   0.340   5.238 -0.0914  0.2194 -0.0945
 5561SOL    HW322011   5.029   0.321   5.261 -0.0363  0.2471 -0.4245
 5561SOL    MW422012   4.961   0.373   5.244 -0.0298  0.1797 -0.6598
 5562SOL     OW22013   6.210   1.182   4.170  0.2374  0.4341 -0.5761
 5562SOL    HW222014   6.264   1.112   4.209 -0.2596  0.1969 -0.3027
 5562SOL    HW322015   6.221   1.256   4.230  2.0816  1.1713 -1.7220
 5562SOL    MW422016   6.219   1.183   4.183  0.4151  0.5001 -0.6912
 5563SOL     OW22017   0.607   1.693   2.853 -0.5030  0.1240  0.0437
 5563SOL    HW222018   0.535   1.649   2.809 -1.0132  0.0580  0.9226
 5563SOL    HW322019   0.575   1.782   2.869 -0.4184  0.0763  0.4917
 5563SOL    MW422020   0.594   1.699   2.849 -0.5592  0.1090  0.2188
 5564SOL     OW22021   6.169   0.229   4.848 -0.5605  0.9008  0.2314
 5564SOL    HW222022   6.205   0.140   4.846 -0.7908  0.7290  1.9679
 5564SOL    HW322023   6.210   0.273   4.774 -1.4054 -0.9959 -1.4397
 5564SOL    MW422024   6.179   0.223   4.838 -0.7023  0.6279  0.2400
 5565SOL     OW22025   0.603   0.689   0.672  0.2441  0.0515 -0.1493
 5565SOL    HW222026   0.568   0.600   0.672 -1.7877  0.8197 -0.2974
 5565SOL    HW322027   0.615   0.711   0.580 -1.2769  0.6592 -0.2287
 5565SOL    MW422028   0.600   0.680   0.660 -0.2246  0.2330 -0.1793
 5566SOL     OW22029   2.782   0.386   0.864  0.1155 -0.3048  0.2304
 5566SOL    HW222030   2.787   0.379   0.959 -1.1217  3.2731  0.6834
 5566SOL    HW322031   2.705   0.441   0.847  1.9811  1.7168 -2.6341
 5566SOL    MW422032   2.773   0.392   0.874  0.1984  0.4340 -0.0878
 5567SOL     OW22033   5.916   6.234   1.157 -0.3979  0.3997  0.0894
 5567SOL    HW222034   5.954   6.287   1.226 -0.3643 -1.5420  1.6540
 5567SOL    HW322035   5.822   6.232   1.177 -0.4746  0.2957 -0.2640
 5567SOL    MW422036   5.909   6.240   1.169 -0.4036  0.1298  0.2492
 5568SOL     OW22037   3.409   4.521   3.437 -0.6574  0.6039 -0.2451
 5568SOL    HW222038   3.406   4.437   3.481  0.4576  0.6440 -0.0745
 5568SOL    HW322039   3.455   4.504   3.355 -1.1531  0.8873 -0.5872
 5568SOL    MW422040   3.414   4.508   3.432 -0.5757  0.6466 -0.2678
 5569SOL     OW22041   5.828   4.582   0.979  0.5989  0.3220 -0.1185
 5569SOL    HW222042   5.738   4.549   0.983  1.0210 -0.7472  0.9945
 5569SOL    HW322043   5.882   4.509   1.007  1.8620  0.8613 -1.0412
 5569SOL    MW422044   5.823   4.568   0.983  0.8212  0.2521 -0.0934
 5570SOL     OW22045   3.326   4.366   6.320 -0.3002  0.1587  0.0435
 5570SOL    HW222046   3.342   4.404   6.407 -1.8695 -0.8674  0.8426
 5570SOL    HW322047   3.296   4.439   6.267  1.1580  0.9039  0.1979
 5570SOL    MW422048   3.324   4.380   6.325 -0.3149  0.1217  0.1693
 5571SOL     OW22049   1.925   6.204   3.439 -0.3880 -0.6087 -0.0993
 5571SOL    HW222050   1.932   6.295   3.410  2.6038 -1.1245 -1.3280
 5571SOL    HW322051   1.957   6.205   3.529 -0.6085 -0.4187 -0.0220
 5571SOL    MW422052   1.930   6.216   3.447 -0.0224 -0.6517 -0.2512
 5572SOL     OW22053   3.364   4.456   4.882 -0.3743 -0.7209 -0.3836
 5572SOL    HW222054   3.284   4.412   4.853  0.2569 -2.0242 -0.2449
 5572SOL    HW322055   3.434   4.393   4.864  0.1862 -1.2882  3.0471
 5572SOL    MW422056   3.363   4.442   4.876 -0.2171 -0.9677  0.0873
 5573SOL     OW22057   1.499   2.644   1.630  0.1756 -0.3938  0.2087
 5573SOL    HW222058   1.545   2.692   1.562 -0.4705  0.4139  0.3224
 5573SOL    HW322059   1.408   2.674   1.624  0.2672  0.4000  2.0059
 5573SOL    MW422060   1.493   2.654   1.621  0.1024 -0.1825  0.4608
 5574SOL     OW22061   0.303   3.077   5.465 -0.5210  0.6249  0.2522
 5574SOL    HW222062   0.371   3.121   5.414  0.5496  0.6125  1.6189
 5574SOL    HW322063   0.327   2.985   5.462 -0.3066  0.6558  0.9974
 5574SOL    MW422064   0.315   3.071   5.458 -0.3514  0.6273  0.5309
 5575SOL     OW22065   0.799   3.593   1.516  0.5391  0.1656 -0.6432
 5575SOL    HW222066   0.704   3.585   1.504  0.4428  0.0986  0.0789
 5575SOL    HW322067   0.837   3.551   1.439 -0.0187 -0.0344 -0.8160
 5575SOL    MW422068   0.791   3.586   1.505  0.4528  0.1304 -0.5708
 5576SOL     OW22069   2.844   6.405   5.568 -0.3190  0.4670  0.2605
 5576SOL    HW222070   2.774   6.400   5.503  0.1654  0.8221 -0.2987
 5576SOL    HW322071   2.801   6.430   5.649 -0.6606  2.0956 -0.3851
 5576SOL    MW422072   2.829   6.407   5.570 -0.3001  0.7287  0.1015
 5577SOL     OW22073   1.477   4.789   0.566  0.5409 -0.9798  0.2862
 5577SOL    HW222074   1.458   4.882   0.568  2.2332 -0.5871 -0.2456
 5577SOL    HW322075   1.397   4.747   0.600  0.0122  0.6803  1.1966
 5577SOL    MW422076   1.464   4.795   0.571  0.6944 -0.7089  0.3361
 5578SOL     OW22077   3.884   3.056   1.739  0.0996  0.4946 -0.0314
 5578SOL    HW222078   3.841   3.069   1.654  0.3598  0.5600 -0.1529
 5578SOL    HW322079   3.888   2.961   1.749 -1.0627  0.4763  0.4837
 5578SOL    MW422080   3.878   3.045   1.729 -0.0194  0.5008  0.0205
 5579SOL     OW22081   1.041   6.031   1.618 -0.4472 -0.0068  0.1175
 5579SOL    HW222082   1.063   5.940   1.598 -0.5084 -0.3018  1.3453
 5579SOL    HW322083   1.091   6.052   1.697 -2.5736  0.0933  1.5490
 5579SOL    MW422084   1.050   6.022   1.626 -0.7358 -0.0325  0.4684
 5580SOL     OW22085   1.692   1.197   5.811 -0.3390  0.3857 -1.3747
 5580SOL    HW222086   1.606   1.239   5.819 -0.7203 -0.4740 -0.7463
 5580SOL    HW322087   1.728   1.199   5.899  0.1136  0.3635 -1.5555
 5580SOL    MW422088   1.685   1.203   5.823 -0.3296  0.2694 -1.3156
 5581SOL     OW22089   4.205   1.289   1.251  0.0002 -0.5320  0.1203
 5581SOL    HW222090   4.112   1.272   1.268 -0.2565 -0.8797 -1.5110
 5581SOL    HW322091   4.233   1.346   1.323 -2.2423  2.1644 -0.9777
 5581SOL    MW422092   4.197   1.294   1.263 -0.3295 -0.2221 -0.2398
 5582SOL     OW22093   5.546   0.844   4.856  0.0281 -0.0579 -0.4122
 5582SOL    HW222094   5.546   0.937   4.834 -1.0920  0.2253  0.6731
 5582SOL    HW322095   5.636   0.826   4.885 -0.1251  1.0777  0.8685
 5582SOL    MW422096   5.558   0.854   4.857 -0.1399  0.1293 -0.1000
 5583SOL     OW22097   2.265   5.665   3.518 -0.6988 -0.0153  0.8591
 5583SOL    HW222098   2.352   5.626   3.505 -0.5993  0.8492 -1.4972
 5583SOL    HW322099   2.204   5.598   3.488 -0.7850 -0.1089  1.2389
 5583SOL    MW422100   2.269   5.651   3.512 -0.6971  0.0864  0.5983
 5584SOL     OW22101   0.521   3.154   6.236  0.3526 -0.2063 -0.5513
 5584SOL    HW222102   0.536   3.135   6.143  0.7832 -1.7511 -0.1920
 5584SOL    HW322103   0.544   3.073   6.281 -0.5707  0.2751  0.8487
 5584SOL    MW422104   0.526   3.141   6.230  0.2876 -0.3466 -0.3192
 5585SOL     OW22105   0.821   5.386   4.219  0.0465 -0.0600 -0.1512
 5585SOL    HW222106   0.744   5.429   4.182 -0.1896  1.3306  1.8430
 5585SOL    HW322107   0.894   5.442   4.193  0.0755  0.0138  0.0885
 5585SOL    MW422108   0.820   5.399   4.210  0.0192  0.1332  0.1435
 5586SOL     OW22109   5.315   2.207   5.477 -0.2929  0.9562 -0.4863
 5586SOL    HW222110   5.256   2.180   5.406  1.1245  0.3025 -1.4773
 5586SOL    HW322111   5.345   2.294   5.452  0.9643  0.3392 -1.2557
 5586SOL    MW422112   5.311   2.215   5.464  0.0600  0.7885 -0.7186
 5587SOL     OW22113   2.113   3.966   5.860 -0.5171 -0.3093  0.1352
 5587SOL    HW222114   2.067   3.934   5.938  0.0097  0.2277  0.6742
 5587SOL    HW322115   2.206   3.950   5.879 -0.4212 -0.8046 -0.6775
 5587SOL    MW422116   2.119   3.959   5.873 -0.4349 -0.3038  0.0991
 5588SOL     OW22117   0.397   6.040   5.461  0.2792  0.5773  0.8006
 5588SOL    HW222118   0.393   6.126   5.419 -1.2684  1.2872  2.2625
 5588SOL    HW322119   0.362   6.056   5.549 -0.9683 -1.7462  0.7830
 5588SOL    MW422120   0.392   6.054   5.467 -0.0896  0.3644  0.9911
 5589SOL     OW22121   5.836   4.232   6.378 -0.2109  0.1127  0.1946
 5589SOL    HW222122   5.901   4.188   6.433 -1.9093 -0.8795  1.5081
 5589SOL    HW322123   5.827   4.177   6.301  2.7171  1.8815 -1.5809
 5589SOL    MW422124   5.843   4.219   6.375 -0.0487  0.2152  0.1336
 5590SOL     OW22125   6.034   3.599   4.483 -0.3361  0.0953  0.2414
 5590SOL    HW222126   6.037   3.507   4.456  0.5912  0.0329  0.5172
 5590SOL    HW322127   5.991   3.598   4.568  0.2510 -0.1702  0.5441
 5590SOL    MW422128   6.029   3.587   4.491 -0.1363  0.0520  0.3178
 5591SOL     OW22129   3.835   2.723   0.944  0.0487  0.5443 -0.0076
 5591SOL    HW222130   3.922   2.756   0.920 -0.2937  1.9391  0.5709
 5591SOL    HW322131   3.834   2.727   1.040  0.4569 -2.4825  0.2250
 5591SOL    MW422132   3.846   2.728   0.954  0.0574  0.3290  0.0994
 5592SOL     OW22133   4.353   2.439   4.759 -0.3103 -0.2765 -0.3073
 5592SOL    HW222134   4.379   2.362   4.810  1.1942  1.0285  1.0411
 5592SOL    HW322135   4.259   2.448   4.774 -0.5406 -1.8841 -0.5985
 5592SOL    MW422136   4.344   2.430   4.768 -0.1422 -0.3164 -0.1678
 5593SOL     OW22137   0.965   2.350   5.530  0.4018 -0.3811  0.1315
 5593SOL    HW222138   0.975   2.410   5.456  1.5428  0.3603  0.8465
 5593SOL    HW322139   0.874   2.322   5.527  0.1804  0.4231 -0.9632
 5593SOL    MW422140   0.955   2.355   5.520  0.5231 -0.1772  0.0814
 5594SOL     OW22141   3.422   0.213   5.044 -0.4321 -0.2320 -0.1328
 5594SOL    HW222142   3.339   0.244   5.079 -0.0659  0.6072  0.0097
 5594SOL    HW322143   3.479   0.203   5.121 -0.5495 -1.3383 -0.1611
 5594SOL    MW422144   3.419   0.215   5.059 -0.3993 -0.2673 -0.1178
 5595SOL     OW22145   1.029   6.208   3.697  0.1625  0.0699  0.0067
 5595SOL    HW222146   0.976   6.128   3.691 -0.5065  0.5350 -0.3749
 5595SOL    HW322147   1.115   6.177   3.725 -0.6439 -0.5536  1.9872
 5595SOL    MW422148   1.033   6.193   3.700 -0.0322  0.0490  0.2177
 5596SOL     OW22149   6.324   2.614   6.388  0.7659  0.0084 -0.2887
 5596SOL    HW222150   6.402   2.670   6.387 -0.7606  2.2778 -0.0803
 5596SOL    HW322151   6.274   2.644   6.464  0.0152 -1.9124  0.0247
 5596SOL    MW422152   6.328   2.625   6.398  0.4655  0.0544 -0.2199
 5597SOL     OW22153   6.021   1.894   1.792  0.2246 -0.9377 -0.3965
 5597SOL    HW222154   5.984   1.939   1.868  2.1890 -0.5437  0.3911
 5597SOL    HW322155   5.962   1.916   1.720  0.0384  1.3298  0.3557
 5597SOL    MW422156   6.008   1.903   1.792  0.4592 -0.5865 -0.1934
 5598SOL     OW22157   3.278   5.350   1.248  0.3903 -0.0401  0.3389
 5598SOL    HW222158   3.273   5.354   1.344  1.8284  1.0473  0.4113
 5598SOL    HW322159   3.243   5.264   1.226  1.1758 -0.8198  1.9392
 5598SOL    MW422160   3.273   5.339   1.258  0.6837  0.0005  0.5596
 5599SOL     OW22161   4.912   1.239   2.380 -0.2007 -0.1843  0.3289
 5599SOL    HW222162   4.921   1.207   2.290  0.7730 -0.0614  0.3684
 5599SOL    HW322163   4.818   1.254   2.391 -0.6415 -2.5125  0.1543
 5599SOL    MW422164   4.901   1.237   2.369 -0.1304 -0.4753  0.3111
 5600SOL     OW22165   6.020   6.388   3.252  0.0878  0.3804 -0.2027
 5600SOL    HW222166   6.094   6.370   3.194 -0.1963  0.8201 -0.7101
 5600SOL    HW322167   5.968   6.308   3.251 -0.8384  0.9642 -1.9518
 5600SOL    MW422168   6.023   6.375   3.244 -0.0719  0.5154 -0.5004
 5601SOL     OW22169   6.077   4.209   4.383 -0.0754  0.6022 -0.3063
 5601SOL    HW222170   6.141   4.226   4.451  0.8444  0.3910 -1.0879
 5601SOL    HW322171   6.010   4.155   4.425  0.3607  0.6702  0.4803
 5601SOL    MW422172   6.077   4.204   4.397  0.1035  0.5833 -0.3056
 5602SOL     OW22173   4.412   0.251   0.537  0.0181  0.2008  0.7290
 5602SOL    HW222174   4.496   0.294   0.518  0.4866 -0.8371  0.3829
 5602SOL    HW322175   4.361   0.318   0.582  1.2418  0.6920  1.4544
 5602SOL    MW422176   4.416   0.265   0.541  0.2414  0.1287  0.7790
 5603SOL     OW22177   4.397   0.715   5.612  0.1350  0.4003  0.1997
 5603SOL    HW222178   4.473   0.750   5.658  0.7732  1.5587 -1.6285
 5603SOL    HW322179   4.334   0.787   5.610 -0.0571  0.2275 -0.3039
 5603SOL    MW422180   4.399   0.729   5.618  0.1938  0.5303 -0.1080
 5604SOL     OW22181   5.488   1.905   5.158 -0.7449  0.1762  0.1983
 5604SOL    HW222182   5.407   1.853   5.148 -0.2886 -0.6219  0.5434
 5604SOL    HW322183   5.478   1.948   5.242  0.9860 -3.3042  2.4064
 5604SOL    MW422184   5.476   1.904   5.168 -0.4563 -0.3883  0.5352
 5605SOL     OW22185   4.156   1.821   2.492 -0.6684  0.5785  0.1998
 5605SOL    HW222186   4.145   1.733   2.455  1.7137  0.4695 -0.3851
 5605SOL    HW322187   4.205   1.807   2.572 -0.0166  1.3929 -0.0505
 5605SOL    MW422188   4.161   1.808   2.497 -0.2681  0.6716  0.0896
 5606SOL     OW22189   2.484   3.291   5.491  0.3815  0.1730 -0.6214
 5606SOL    HW222190   2.414   3.249   5.541  0.7759  0.0764 -0.1505
 5606SOL    HW322191   2.551   3.223   5.482  0.4450  0.2840 -1.0245
 5606SOL    MW422192   2.483   3.276   5.496  0.4419  0.1749 -0.6125
 5607SOL     OW22193   2.760   2.628   1.507  0.4573  0.1072 -0.1135
 5607SOL    HW222194   2.671   2.664   1.517  0.3186  0.5292 -2.3582
 5607SOL    HW322195   2.802   2.687   1.445  2.9232  0.8822  2.1228
 5607SOL    MW422196   2.754   2.641   1.500  0.7643  0.2651 -0.1146
 5608SOL     OW22197   1.712   1.666   1.897 -0.5733 -0.8406  0.2303
 5608SOL    HW222198   1.714   1.694   1.989  0.6402  0.4668 -0.1675
 5608SOL    HW322199   1.787   1.608   1.888 -0.5439 -0.7681  0.0075
 5608SOL    MW422200   1.722   1.662   1.908 -0.4093 -0.6585  0.1484
 5609SOL     OW22201   1.275   5.800   2.677 -0.2743 -0.5985 -0.1199
 5609SOL    HW222202   1.219   5.776   2.604  0.3802  1.6440 -1.4651
 5609SOL    HW322203   1.357   5.828   2.636  1.2627 -2.1809  1.6923
 5609SOL    MW422204   1.279   5.801   2.662  0.0148 -0.5114 -0.0583
 5610SOL     OW22205   4.809   2.345   2.213  0.1744  0.5201  0.3766
 5610SOL    HW222206   4.740   2.406   2.187 -0.7368 -0.2948  0.8127
 5610SOL    HW322207   4.875   2.399   2.255  0.6880  1.5852 -1.6881
 5610SOL    MW422208   4.809   2.360   2.215  0.1220  0.5531  0.1617
 5611SOL     OW22209   2.865   5.474   4.497 -0.6201  0.3874 -0.5157
 5611SOL    HW222210   2.854   5.565   4.524 -1.7794  0.0476  0.2279
 5611SOL    HW322211   2.892   5.480   4.405  1.3498  1.5134  0.0645
 5611SOL    MW422212   2.867   5.487   4.488 -0.5131  0.4911 -0.3411
 5612SOL     OW22213   4.970   3.664   3.416  0.2230 -0.2736 -0.2772
 5612SOL    HW222214   5.055   3.705   3.400  0.0349  0.3216  0.2184
 5612SOL    HW322215   4.944   3.694   3.503 -0.7741  0.0395 -0.6596
 5612SOL    MW422216   4.978   3.673   3.425  0.0666 -0.1538 -0.2622
 5613SOL     OW22217   5.692   0.093   0.822  0.1554  0.7137 -0.1741
 5613SOL    HW222218   5.610   0.062   0.861 -0.1563  0.3586 -1.0854
 5613SOL    HW322219   5.707   0.035   0.748  3.5640 -2.1016  2.4191
 5613SOL    MW422220   5.683   0.082   0.817  0.5640  0.2954  0.0478
 5614SOL     OW22221   4.006   1.705   0.424 -0.4670 -0.0783 -0.0274
 5614SOL    HW222222   4.065   1.733   0.494 -1.2054  0.5953  0.3317
 5614SOL    HW322223   4.010   1.609   0.428  1.0251 -0.0616 -0.3832
 5614SOL    MW422224   4.015   1.696   0.434 -0.3676  0.0128 -0.0270
 5615SOL     OW22225   6.191   0.796   4.320 -0.0636  0.6530  0.0298
 5615SOL    HW222226   6.272   0.824   4.363  0.5586  0.0855 -0.7308
 5615SOL    HW322227   6.173   0.709   4.357  1.4498 -0.6363 -2.0292
 5615SOL    MW422228   6.200   0.788   4.331  0.2182  0.4080 -0.3422
 5616SOL     OW22229   4.886   6.097   5.521  0.7831  0.6964  0.3391
 5616SOL    HW222230   4.889   6.106   5.616 -2.4466  3.0845  0.3637
 5616SOL    HW322231   4.925   6.011   5.504 -0.6611 -0.8870  4.0063
 5616SOL    MW422232   4.892   6.087   5.531  0.1664  0.8026  0.8262
 5617SOL     OW22233   1.869   3.378   5.195 -0.2207 -0.1048  0.5044
 5617SOL    HW222234   1.894   3.415   5.279 -0.9166 -1.0037  1.1314
 5617SOL    HW322235   1.949   3.339   5.160  0.2868  1.0796  0.2956
 5617SOL    MW422236   1.883   3.378   5.202 -0.2456 -0.0671  0.5595
 5618SOL     OW22237   1.268   2.807   1.573 -0.5784  0.0431  0.6131
 5618SOL    HW222238   1.219   2.828   1.653  0.4099 -0.8759  1.5119
 5618SOL    HW322239   1.327   2.881   1.561 -0.8683  0.2768  0.6298
 5618SOL    MW422240   1.270   2.819   1.582 -0.4863 -0.0474  0.7339
 5619SOL     OW22241   5.685   0.572   4.802  0.0806  0.0994  0.0930
 5619SOL    HW222242   5.620   0.641   4.788  1.7970  2.2346  1.8120
 5619SOL    HW322243   5.675   0.548   4.894  1.5179  0.2814  0.3119
 5619SOL    MW422244   5.675   0.578   4.812  0.4967  0.4051  0.3487
 5620SOL     OW22245   6.350   3.767   2.093  0.0607 -0.1377 -0.4621
 5620SOL    HW222246   6.323   3.788   2.004 -1.0921  0.0111 -0.1017
 5620SOL    HW322247   6.437   3.806   2.102  0.1799 -0.1266 -1.4987
 5620SOL    MW422248   6.358   3.775   2.082 -0.0757 -0.1166 -0.5513
 5621SOL     OW22249   5.623   1.969   2.960 -0.5780 -0.4055 -0.2364
 5621SOL    HW222250   5.717   1.983   2.968 -0.9122  0.6541  3.8310
 5621SOL    HW322251   5.608   1.881   2.992 -1.2419  1.0761  4.1371
 5621SOL    MW422252   5.633   1.959   2.965 -0.7097 -0.0702  0.8773
 5622SOL     OW22253   2.564   3.400   4.284 -0.2585 -0.5124  0.2657
 5622SOL    HW222254   2.551   3.314   4.323  1.8909 -0.6604  0.8025
 5622SOL    HW322255   2.559   3.461   4.358 -3.1053  0.0613 -0.2818
 5622SOL    MW422256   2.562   3.397   4.299 -0.3506 -0.4562  0.2643
 5623SOL     OW22257   1.411   3.807   4.510  0.1794 -0.1999  0.5458
 5623SOL    HW222258   1.456   3.727   4.484  0.4044 -0.9068  2.8713
 5623SOL    HW322259   1.318   3.787   4.501  0.2465 -0.4825  0.4912
 5623SOL    MW422260   1.405   3.794   4.506  0.2180 -0.3305  0.8454
 5624SOL     OW22261   2.405   3.258   1.930  0.2527 -0.1211  0.5966
 5624SOL    HW222262   2.439   3.289   2.014 -0.2479 -1.1901  1.2091
 5624SOL    HW322263   2.418   3.163   1.932 -3.7147 -0.7943  1.3839
 5624SOL    MW422264   2.411   3.250   1.942 -0.3368 -0.3510  0.7813
 5625SOL     OW22265   5.153   2.722   2.160  0.2002 -0.5447  0.6688
 5625SOL    HW222266   5.121   2.801   2.204  0.5928 -0.9629  1.7279
 5625SOL    HW322267   5.220   2.687   2.218  1.5268 -0.5162 -0.7864
 5625SOL    MW422268   5.157   2.728   2.173  0.4270 -0.5961  0.6165
 5626SOL     OW22269   3.722   2.288   5.499  0.8428 -0.1903 -0.3075
 5626SOL    HW222270   3.745   2.196   5.514  0.4222 -0.5060 -1.5109
 5626SOL    HW322271   3.695   2.320   5.585 -0.4118 -1.6158 -0.1350
 5626SOL    MW422272   3.722   2.280   5.512  0.6218 -0.4200 -0.4435
 5627SOL     OW22273   0.870   0.987   0.168 -0.2691  0.5492  0.0864
 5627SOL    HW222274   0.916   0.947   0.094 -0.3777  0.0151  0.3029
 5627SOL    HW322275   0.910   0.949   0.245  0.8535  2.1998  0.3688
 5627SOL    MW422276   0.881   0.977   0.168 -0.1353  0.6965  0.1522
 5628SOL     OW22277   6.057   5.801   6.320 -0.8107  0.1659  0.5199
 5628SOL    HW222278   6.081   5.883   6.363  2.3865 -0.5740  0.4133
 5628SOL    HW322279   6.094   5.733   6.376  0.5708 -0.9520 -1.6094
 5628SOL    MW422280   6.065   5.803   6.333 -0.2066 -0.0792  0.2249
 5629SOL     OW22281   1.229   2.517   1.700  0.0240  0.0059  0.1404
 5629SOL    HW222282   1.223   2.421   1.696 -1.6266  0.0652  0.7286
 5629SOL    HW322283   1.139   2.547   1.692  0.2455  1.4178  2.2504
 5629SOL    MW422284   1.217   2.508   1.699 -0.1645  0.2000  0.4964
 5630SOL     OW22285   6.045   4.466   0.594 -0.0925 -0.0647  0.4582
 5630SOL    HW222286   5.963   4.513   0.608 -1.2023 -1.1881 -1.7562
 5630SOL    HW322287   6.029   4.378   0.628  0.8368  0.1803  1.5963
 5630SOL    MW422288   6.032   4.461   0.601 -0.1163 -0.1806  0.3162
 5631SOL     OW22289   4.579   1.958   2.687 -0.0430 -0.0516 -0.2276
 5631SOL    HW222290   4.498   1.912   2.705  0.2884 -0.4482  0.2629
 5631SOL    HW322291   4.570   2.042   2.732  0.0547 -0.3290  0.3144
 5631SOL    MW422292   4.567   1.963   2.695  0.0136 -0.1405 -0.0913
 5632SOL     OW22293   3.744   0.356   0.029  0.6244  0.0476 -0.2051
 5632SOL    HW222294   3.674   0.294   0.052 -0.1856  0.0374 -2.4757
 5632SOL    HW322295   3.716   0.438   0.070  0.6338 -0.5509  1.0642
 5632SOL    MW422296   3.731   0.359   0.037  0.5188 -0.0327 -0.3372
 5633SOL     OW22297   6.141   3.412   5.955  0.1520  0.0864 -0.1392
 5633SOL    HW222298   6.050   3.432   5.974 -0.4757 -1.6573 -1.0441
 5633SOL    HW322299   6.178   3.385   6.040 -1.1079 -2.2794 -0.2457
 5633SOL    MW422300   6.134   3.411   5.969 -0.0970 -0.4558 -0.2727
 5634SOL     OW22301   3.651   3.246   3.504 -0.2046 -0.1293 -0.3020
 5634SOL    HW222302   3.636   3.152   3.496 -0.9807 -0.2476  1.8184
 5634SOL    HW322303   3.564   3.285   3.499  0.1620  0.5887 -1.8257
 5634SOL    MW422304   3.638   3.239   3.502 -0.2586 -0.0502 -0.2233
 5635SOL     OW22305   3.360   3.216   2.252  0.1830 -0.2705  0.2155
 5635SOL    HW222306   3.381   3.307   2.272 -1.2574 -0.1810  1.5431
 5635SOL    HW322307   3.380   3.207   2.159  1.2961  1.1057  0.2837
 5635SOL    MW422308   3.365   3.227   2.243  0.1398 -0.0771  0.3997
 5636SOL     OW22309   2.300   2.847   4.328 -0.0915  0.0575 -0.3365
 5636SOL    HW222310   2.322   2.934   4.296  1.4024 -0.2298 -0.1616
 5636SOL    HW322311   2.254   2.862   4.411 -2.4365  0.7410 -1.6610
 5636SOL    MW422312   2.297   2.860   4.335 -0.2038  0.1097 -0.4882
 5637SOL     OW22313   1.099   2.890   1.795  0.0819  0.0233  0.4209
 5637SOL    HW222314   1.025   2.948   1.779  0.3906  0.1778 -0.5396
 5637SOL    HW322315   1.149   2.932   1.864 -0.3000  0.3229  0.5174
 5637SOL    MW422316   1.096   2.903   1.802  0.0723  0.0832  0.3069
 5638SOL     OW22317   2.732   4.573   2.768  0.1876 -0.5642 -0.0177
 5638SOL    HW222318   2.704   4.650   2.717  0.1233  0.2050  1.1514
 5638SOL    HW322319   2.740   4.605   2.858  1.4784 -1.6146  0.2682
 5638SOL    MW422320   2.729   4.587   2.773  0.3494 -0.6013  0.1743
 5639SOL     OW22321   3.986   2.531   4.566 -0.1238  0.3334  0.2849
 5639SOL    HW222322   3.962   2.447   4.605 -0.1973  0.4013  0.3856
 5639SOL    HW322323   3.904   2.581   4.564 -0.3898 -0.1133 -1.0828
 5639SOL    MW422324   3.972   2.527   4.571 -0.1686  0.2834  0.1177
 5640SOL     OW22325   2.760   5.285   5.999  0.0240  0.3596  0.1231
 5640SOL    HW222326   2.792   5.301   5.910 -0.2676 -0.4433 -0.1311
 5640SOL    HW322327   2.812   5.211   6.030  0.1079  0.6262  0.6142
 5640SOL    MW422328   2.771   5.278   5.991 -0.0034  0.2888  0.1543
 5641SOL     OW22329   0.431   2.489   6.048  0.2233 -0.1737 -0.5568
 5641SOL    HW222330   0.460   2.401   6.071  0.6921 -0.7345 -3.0132
 5641SOL    HW322331   0.486   2.547   6.101 -0.6158 -1.3106  1.6649
 5641SOL    MW422332   0.442   2.485   6.058  0.1744 -0.3977 -0.5878
 5642SOL     OW22333   1.889   4.347   5.347 -0.3267 -0.3713 -0.0718
 5642SOL    HW222334   1.832   4.423   5.346 -0.2673 -0.1959  2.6230
 5642SOL    HW322335   1.830   4.272   5.348 -0.3892 -0.3910 -1.7255
 5642SOL    MW422336   1.874   4.347   5.347 -0.3271 -0.3507  0.0655
 5643SOL     OW22337   4.705   1.719   0.588  0.1158 -0.2045 -0.0898
 5643SOL    HW222338   4.721   1.681   0.674  1.3301 -0.6215 -0.4842
 5643SOL    HW322339   4.726   1.649   0.526  1.1743  0.6805 -0.7745
 5643SOL    MW422340   4.710   1.705   0.591  0.4157 -0.1428 -0.2322
 5644SOL     OW22341   3.071   6.291   0.673  0.1590 -0.2252  0.5234
 5644SOL    HW222342   2.980   6.321   0.672  0.0837 -0.3307 -1.8892
 5644SOL    HW322343   3.113   6.338   0.600  1.5456 -1.6041  0.3699
 5644SOL    MW422344   3.065   6.301   0.664  0.3320 -0.4211  0.1849
 5645SOL     OW22345   1.023   1.224   6.045  0.2772 -0.7023 -0.0814
 5645SOL    HW222346   0.932   1.248   6.026 -0.5408 -3.2856  0.2388
 5645SOL    HW322347   1.071   1.247   5.965 -0.3718  1.7389  0.1505
 5645SOL    MW422348   1.018   1.231   6.032  0.0837 -0.7210 -0.0086
 5646SOL     OW22349   3.803   1.228   0.913  0.2430 -0.2418 -0.4769
 5646SOL    HW222350   3.773   1.161   0.851  0.4039 -0.0209 -0.7979
 5646SOL    HW322351   3.727   1.245   0.968  1.1158 -3.1758  1.9092
 5646SOL    MW422352   3.789   1.222   0.912  0.3793 -0.5998 -0.2044
 5647SOL     OW22353   6.206   2.765   5.071 -0.3364  0.1232 -0.6900
 5647SOL    HW222354   6.124   2.726   5.043 -1.9995  2.1771  0.9572
 5647SOL    HW322355   6.181   2.824   5.142  2.3080  2.2049 -1.3251
 5647SOL    MW422356   6.192   2.768   5.077 -0.2070  0.6688 -0.5565
 5648SOL     OW22357   5.422   3.673   4.088  0.7514 -0.2297  0.1512
 5648SOL    HW222358   5.501   3.664   4.142 -0.0630 -0.2490  1.3720
 5648SOL    HW322359   5.427   3.763   4.054  1.6826 -0.4866 -0.4414
 5648SOL    MW422360   5.433   3.684   4.091  0.7668 -0.2662  0.2341
 5649SOL     OW22361   6.242   5.676   6.157 -0.4682  0.0070  0.0156
 5649SOL    HW222362   6.189   5.737   6.209 -2.0808 -1.1481 -0.1925
 5649SOL    HW322363   6.177   5.625   6.108  0.9272 -0.3935 -1.4867
 5649SOL    MW422364   6.226   5.677   6.157 -0.4969 -0.1983 -0.2101
 5650SOL     OW22365   4.478   6.411   0.510 -0.3642 -0.7186  0.0252
 5650SOL    HW222366   4.563   6.409   0.555 -0.3078 -2.5954 -0.1138
 5650SOL    HW322367   4.454   6.504   0.511  2.1333  0.0220 -0.7697
 5650SOL    MW422368   4.486   6.423   0.516 -0.0273 -0.8685 -0.0980
 5651SOL     OW22369   5.001   4.599   3.438 -0.0646 -0.0729  0.1544
 5651SOL    HW222370   5.079   4.653   3.426 -1.1893  2.0642  1.7930
 5651SOL    HW322371   4.960   4.597   3.352  1.0673 -0.0870 -0.4116
 5651SOL    MW422372   5.006   4.606   3.425 -0.0636  0.2072  0.2959
 5652SOL     OW22373   0.164   1.921   3.712  0.0690 -0.1866 -0.6823
 5652SOL    HW222374   0.172   1.964   3.627  1.7085  0.4350 -0.2557
 5652SOL    HW322375   0.074   1.939   3.739 -0.6041 -0.7006 -2.4184
 5652SOL    MW422376   0.153   1.929   3.704  0.1965 -0.1724 -0.8551
 5653SOL     OW22377   4.906   0.539   2.723  0.0743  0.1123 -0.4840
 5653SOL    HW222378   4.988   0.577   2.756  0.3366 -0.8389 -0.0035
 5653SOL    HW322379   4.842   0.609   2.734  0.7441  0.7518 -0.5312
 5653SOL    MW422380   4.909   0.554   2.729  0.1973  0.0712 -0.4268
 5654SOL     OW22381   5.404   1.362   5.737 -0.1663 -0.2574  0.8475
 5654SOL    HW222382   5.455   1.437   5.704  0.2740 -2.0554 -3.1584
 5654SOL    HW322383   5.333   1.402   5.786 -0.3610  2.9442 -1.6796
 5654SOL    MW422384   5.402   1.377   5.739 -0.1339 -0.0722 -0.0145
 5655SOL     OW22385   1.641   5.054   3.304 -0.0969  0.0048  0.6746
 5655SOL    HW222386   1.658   5.019   3.391 -0.3501 -0.8955  0.3724
 5655SOL    HW322387   1.550   5.083   3.307 -0.3081 -0.6282  0.5207
 5655SOL    MW422388   1.631   5.053   3.316 -0.1582 -0.1975  0.6144
 5656SOL     OW22389   1.521   6.406   4.049  0.5263 -0.4923 -0.3239
 5656SOL    HW222390   1.583   6.414   3.977  0.3940 -1.1744 -0.5268
 5656SOL    HW322391   1.453   6.347   4.016  0.4419 -0.7818  0.3436
 5656SOL    MW422392   1.520   6.399   4.035  0.4977 -0.6205 -0.2626
 5657SOL     OW22393   2.065   6.036   0.112  0.0258 -0.6639  0.3323
 5657SOL    HW222394   2.078   6.129   0.128  1.2716 -0.8565  0.5416
 5657SOL    HW322395   2.128   5.993   0.170  0.6423 -1.5854 -0.9900
 5657SOL    MW422396   2.075   6.042   0.122  0.2715 -0.8109  0.1854
 5658SOL     OW22397   1.108   3.106   3.375 -0.3499  0.1466  0.4740
 5658SOL    HW222398   1.169   3.148   3.314 -0.4025  0.7122  0.8048
 5658SOL    HW322399   1.147   3.120   3.461 -1.4204  1.3693  0.7887
 5658SOL    MW422400   1.121   3.113   3.379 -0.4981  0.3825  0.5591
 5659SOL     OW22401   3.347   0.536   5.423 -0.7629 -0.1708 -0.4598
 5659SOL    HW222402   3.356   0.442   5.441 -1.9190 -0.1502  0.2998
 5659SOL    HW322403   3.340   0.576   5.510  0.2949  0.7024 -0.7503
 5659SOL    MW422404   3.348   0.529   5.437 -0.7759 -0.0528 -0.3979
 5660SOL     OW22405   5.559   2.034   0.876  0.0658 -0.0960  0.6794
 5660SOL    HW222406   5.608   1.997   0.802  1.5328  0.3754  1.3860
 5660SOL    HW322407   5.467   2.028   0.849  0.5779  0.4943 -1.3787
 5660SOL    MW422408   5.553   2.028   0.862  0.3269  0.0441  0.5011
 5661SOL     OW22409   0.065   5.781   6.214 -0.4415  0.8199  0.3466
 5661SOL    HW222410  -0.009   5.727   6.187  0.1015  0.3905 -0.3137
 5661SOL    HW322411   0.033   5.871   6.208 -1.0099  0.6243  0.3972
 5661SOL    MW422412   0.051   5.786   6.210 -0.4448  0.7375  0.2662
 5662SOL     OW22413   0.103   1.159   5.960  0.1125 -0.1421 -1.0258
 5662SOL    HW222414   0.113   1.068   5.933  2.4075  0.5380 -2.8873
 5662SOL    HW322415   0.011   1.178   5.945 -0.2925 -1.9938 -1.1347
 5662SOL    MW422416   0.093   1.150   5.954  0.3618 -0.2967 -1.2858
 5663SOL     OW22417   1.493   3.063   3.985  0.1719 -0.4883 -0.1929
 5663SOL    HW222418   1.553   3.088   3.915 -1.2219  0.4944 -1.0827
 5663SOL    HW322419   1.477   2.970   3.970  1.5484 -0.7968  0.1378
 5663SOL    MW422420   1.499   3.054   3.974  0.1696 -0.3994 -0.2667
 5664SOL     OW22421   5.696   1.761   4.546 -0.4295  0.3723  0.2917
 5664SOL    HW222422   5.749   1.841   4.544  1.5554 -0.8049  1.7906
 5664SOL    HW322423   5.692   1.733   4.455  0.4240  1.2268 -0.0311
 5664SOL    MW422424   5.703   1.768   4.534 -0.0550  0.3297  0.4469
 5665SOL     OW22425   1.932   0.296   1.864  0.1262  0.1336  0.0834
 5665SOL    HW222426   1.897   0.267   1.948  0.3009  2.7329  1.1375
 5665SOL    HW322427   1.958   0.387   1.879  1.1951  0.3291 -2.4948
 5665SOL    MW422428   1.930   0.304   1.877  0.2903  0.5023 -0.1177
 5666SOL     OW22429   1.019   2.398   1.949 -0.8595 -0.0410 -0.3208
 5666SOL    HW222430   1.107   2.359   1.943 -0.2397  1.4585 -3.9672
 5666SOL    HW322431   1.035   2.492   1.958 -2.1513  0.1424  0.2978
 5666SOL    MW422432   1.033   2.406   1.949 -0.9482  0.1811 -0.7203
 5667SOL     OW22433   4.340   1.836   2.732  0.2985 -0.5762  0.0916
 5667SOL    HW222434   4.345   1.759   2.790 -0.2016 -0.4714  0.2842
 5667SOL    HW322435   4.318   1.908   2.791  2.6646  0.1116  0.2210
 5667SOL    MW422436   4.337   1.835   2.748  0.5447 -0.4716  0.1341
 5668SOL     OW22437   5.293   0.461   2.888 -0.3224 -0.3646 -0.1119
 5668SOL    HW222438   5.266   0.457   2.980 -0.0988 -2.1427 -0.0835
 5668SOL    HW322439   5.388   0.466   2.891 -0.3685  0.8768 -0.2582
 5668SOL    MW422440   5.302   0.461   2.901 -0.2990 -0.4354 -0.1274
 5669SOL     OW22441   0.471   5.913   2.994  0.0071 -0.0460  0.1542
 5669SOL    HW222442   0.412   5.982   2.965  0.3060  0.9054  1.6694
 5669SOL    HW322443   0.557   5.955   2.996  0.0014 -0.0302  2.3079
 5669SOL    MW422444   0.475   5.928   2.991  0.0458  0.0816  0.6383
 5670SOL     OW22445   5.868   4.881   6.307  0.3119  0.0623 -0.1453
 5670SOL    HW222446   5.951   4.915   6.343  0.6010  0.3004 -1.0082
 5670SOL    HW322447   5.812   4.959   6.300  0.1601 -0.0297  0.0486
 5670SOL    MW422448   5.872   4.896   6.311  0.3300  0.0816 -0.2336
 5671SOL     OW22449   3.917   1.334   2.928 -0.0244 -0.4283 -0.6408
 5671SOL    HW222450   3.916   1.374   3.015  0.5699 -1.4090 -0.1738
 5671SOL    HW322451   3.847   1.380   2.880  0.5634  1.0783 -0.1003
 5671SOL    MW422452   3.907   1.345   2.933  0.1315 -0.3589 -0.5079
 5672SOL     OW22453   4.744   3.474   0.425  0.0512 -0.1884 -0.4807
 5672SOL    HW222454   4.719   3.392   0.468  1.6771 -0.4653  0.0132
 5672SOL    HW322455   4.661   3.511   0.393 -0.6603 -2.3797 -1.3942
 5672SOL    MW422456   4.730   3.468   0.426  0.1719 -0.5140 -0.5361
 5673SOL     OW22457   2.637   4.042   3.045 -0.1829 -0.2625 -0.0565
 5673SOL    HW222458   2.558   3.989   3.037  0.0827 -0.5090 -1.2559
 5673SOL    HW322459   2.709   3.979   3.053  0.0175 -0.0798 -0.3430
 5673SOL    MW422460   2.636   4.027   3.045 -0.1214 -0.2709 -0.2525
 5674SOL     OW22461   1.647   0.268   4.356 -0.4789 -0.0327 -0.0154
 5674SOL    HW222462   1.640   0.297   4.447  0.9668 -1.7894  0.7438
 5674SOL    HW322463   1.559   0.239   4.332 -0.7070 -0.3469  1.1528
 5674SOL    MW422464   1.635   0.268   4.365 -0.3182 -0.3059  0.2389
 5675SOL     OW22465   3.101   2.448   3.198  0.3194 -0.5326 -0.1927
 5675SOL    HW222466   3.100   2.413   3.109 -0.0074 -1.5004  0.1831
 5675SOL    HW322467   3.036   2.397   3.245 -1.9157  2.1181 -0.1732
 5675SOL    MW422468   3.092   2.436   3.193 -0.0186 -0.3106 -0.1406
 5676SOL     OW22469   3.300   6.103   0.957  0.4039 -0.1018 -0.2965
 5676SOL    HW222470   3.380   6.107   1.010 -0.0144 -0.0206  0.3461
 5676SOL    HW322471   3.320   6.154   0.879  0.3740  1.4981  0.6872
 5676SOL    MW422472   3.313   6.110   0.954  0.3447  0.1200 -0.0819
 5677SOL     OW22473   3.939   3.031   2.551  0.2113 -0.1977  0.3859
 5677SOL    HW222474   3.857   3.028   2.501  0.0496 -1.9075  0.6997
 5677SOL    HW322475   3.984   3.109   2.518 -1.7070  1.0438  0.4856
 5677SOL    MW422476   3.934   3.041   2.540 -0.0631 -0.2595  0.4405
 5678SOL     OW22477   2.796   5.925   0.131  0.1767 -0.8692  0.3195
 5678SOL    HW222478   2.729   5.985   0.164 -1.1061 -2.2095  0.2499
 5678SOL    HW322479   2.879   5.970   0.147 -0.7777  1.4209 -0.8007
 5678SOL    MW422480   2.799   5.939   0.138 -0.1185 -0.7439  0.1625
 5679SOL     OW22481   3.435   5.024   1.157  0.1643 -0.0934  0.0465
 5679SOL    HW222482   3.431   5.057   1.247  1.5121  0.3708 -0.0378
 5679SOL    HW322483   3.466   4.934   1.166  0.8080  0.1199  0.0319
 5679SOL    MW422484   3.439   5.016   1.170  0.4271 -0.0040  0.0334
 5680SOL     OW22485   4.889   6.317   1.336 -0.3059  0.3489  0.2175
 5680SOL    HW222486   4.980   6.342   1.351 -0.2477  0.9273 -0.9359
 5680SOL    HW322487   4.874   6.339   1.244 -1.0883 -1.3699 -0.1092
 5680SOL    MW422488   4.899   6.323   1.326 -0.4015  0.1984  0.0222
 5681SOL     OW22489   0.205   3.337   4.387 -0.3779  0.6346 -0.0200
 5681SOL    HW222490   0.153   3.375   4.457 -1.6263 -1.4331  0.2579
 5681SOL    HW322491   0.286   3.387   4.387 -0.2303  0.5513  3.0655
 5681SOL    MW422492   0.209   3.348   4.396 -0.5231  0.3508  0.4237
 5682SOL     OW22493   1.733   4.357   0.540  0.2851  0.3014  0.0239
 5682SOL    HW222494   1.780   4.372   0.622 -1.0950 -0.0336  0.9023
 5682SOL    HW322495   1.660   4.419   0.543  1.1471  1.4817 -1.7621
 5682SOL    MW422496   1.730   4.367   0.551  0.2168  0.4129 -0.0958
 5683SOL     OW22497   5.134   6.012   3.504  0.4335  0.2381  0.2936
 5683SOL    HW222498   5.211   5.970   3.465 -0.0619  0.3861 -0.8679
 5683SOL    HW322499   5.067   5.943   3.503  0.2541  0.4118  0.3757
 5683SOL    MW422500   5.135   5.997   3.499  0.3444  0.2806  0.1512
 5684SOL     OW22501   5.967   0.197   1.634  0.6876  0.6733  0.2260
 5684SOL    HW222502   5.941   0.216   1.544  0.4021  1.0989  0.3948
 5684SOL    HW322503   6.053   0.155   1.626 -0.6054 -2.1171 -0.4596
 5684SOL    MW422504   5.975   0.194   1.621  0.4793  0.3613  0.1578
 5685SOL     OW22505   0.768   2.154   1.985 -0.7257  0.3956  0.9804
 5685SOL    HW222506   0.851   2.106   1.989 -1.0115 -0.1350  0.6547
 5685SOL    HW322507   0.792   2.238   1.946 -0.7441 -0.7732 -1.8021
 5685SOL    MW422508   0.782   2.159   1.980 -0.7659  0.1714  0.5703
 5686SOL     OW22509   3.291   2.153   2.745  0.3201  0.3687 -0.4466
 5686SOL    HW222510   3.247   2.165   2.661 -0.0570  0.4712 -0.2373
 5686SOL    HW322511   3.237   2.087   2.790  0.1607  0.7821 -0.0334
 5686SOL    MW422512   3.278   2.146   2.740  0.2493  0.4368 -0.3645
 5687SOL     OW22513   3.865   0.436   6.214 -0.8359  0.1938  0.7869
 5687SOL    HW222514   3.845   0.406   6.302  0.7137  1.0463  1.4763
 5687SOL    HW322515   3.913   0.518   6.227 -0.2876  0.1671 -0.8299
 5687SOL    MW422516   3.869   0.443   6.227 -0.5591  0.3028  0.6646
 5688SOL     OW22517   3.746   4.305   0.431 -0.1805 -0.4360 -0.1489
 5688SOL    HW222518   3.797   4.255   0.369 -1.3457  0.2833 -1.7576
 5688SOL    HW322519   3.725   4.243   0.501 -0.6395 -1.8847 -1.5228
 5688SOL    MW422520   3.750   4.290   0.432 -0.3948 -0.5322 -0.5424
 5689SOL     OW22521   4.180   4.597   0.460  0.4032  0.0488  0.4566
 5689SOL    HW222522   4.219   4.530   0.516 -1.6780 -0.7261  1.0350
 5689SOL    HW322523   4.100   4.557   0.427  0.7430  1.0814 -1.8131
 5689SOL    MW422524   4.175   4.583   0.463  0.1735  0.0828  0.2334
 5690SOL     OW22525   5.887   5.052   5.273  0.2738  0.3805  0.2286
 5690SOL    HW222526   5.930   5.081   5.353 -1.2911  0.0702  1.2230
 5690SOL    HW322527   5.902   4.957   5.271  0.9595  0.4893 -0.2740
 5690SOL    MW422528   5.895   5.043   5.283  0.1578  0.3539  0.2935
 5691SOL     OW22529   5.269   3.476   3.242 -0.3993  0.4239  0.2505
 5691SOL    HW222530   5.359   3.487   3.209 -0.5578  0.5014 -0.1670
 5691SOL    HW322531   5.269   3.389   3.281 -0.4452 -0.0488 -0.7721
 5691SOL    MW422532   5.281   3.466   3.243 -0.4263  0.3718  0.0605
 5692SOL     OW22533  -0.001   4.147   1.207 -0.1571 -0.0580 -0.2401
 5692SOL    HW222534  -0.009   4.211   1.136  0.1447 -1.3827 -1.5194
 5692SOL    HW322535   0.002   4.063   1.163  2.2552 -0.8250  1.1964
 5692SOL    MW422536  -0.001   4.145   1.192  0.2010 -0.3339 -0.2194
 5693SOL     OW22537   4.182   4.431   5.602  0.1708  0.1242 -0.0014
 5693SOL    HW222538   4.086   4.430   5.596  0.0065  0.1809  1.8625
 5693SOL    HW322539   4.206   4.338   5.600  0.0732  0.1075 -0.4312
 5693SOL    MW422540   4.172   4.418   5.601  0.1363  0.1295  0.1878
 5694SOL     OW22541   1.488   5.905   2.523  0.6213 -0.0713 -0.3947
 5694SOL    HW222542   1.529   5.983   2.560  0.8697 -0.1782 -0.4412
 5694SOL    HW322543   1.457   5.932   2.437 -0.5983  0.3786  0.1614
 5694SOL    MW422544   1.490   5.919   2.517  0.4931 -0.0261 -0.3275
 5695SOL     OW22545   0.855   3.804   5.247  0.0037  0.0239 -0.0966
 5695SOL    HW222546   0.773   3.842   5.215  0.0101  0.3768  0.3037
 5695SOL    HW322547   0.876   3.854   5.326 -0.1100 -0.9472  0.5685
 5695SOL    MW422548   0.847   3.815   5.253 -0.0105 -0.0577  0.0440
 5696SOL     OW22549   0.898   2.489   0.355  0.6351  0.2834 -0.2533
 5696SOL    HW222550   0.864   2.459   0.271  1.3316  0.1929 -0.5082
 5696SOL    HW322551   0.820   2.508   0.407  0.1994  0.5898 -1.0049
 5696SOL    MW422552   0.883   2.487   0.351  0.6695  0.3119 -0.3861
 5697SOL     OW22553   4.154   4.023   5.990  0.3820  0.6004 -0.4080
 5697SOL    HW222554   4.103   4.103   5.976  0.4388  0.6233 -0.4838
 5697SOL    HW322555   4.090   3.952   5.987  0.3736  0.6191 -0.6249
 5697SOL    MW422556   4.139   4.024   5.988  0.3884  0.6059 -0.4466
 5698SOL     OW22557   1.781   4.738   4.578 -0.0742 -0.3120  0.7570
 5698SOL    HW222558   1.874   4.714   4.573 -0.3590 -1.1984 -0.7995
 5698SOL    HW322559   1.781   4.833   4.563  0.5405 -0.3880  0.2330
 5698SOL    MW422560   1.793   4.747   4.575 -0.0307 -0.4390  0.4825
 5699SOL     OW22561   5.254   6.259   4.780 -0.9052  0.2045 -0.1995
 5699SOL    HW222562   5.305   6.227   4.706 -1.1937 -0.1058 -0.2694
 5699SOL    HW322563   5.227   6.179   4.827  0.3047  0.4347  0.9493
 5699SOL    MW422564   5.257   6.244   4.777 -0.7836  0.1940 -0.0572
 5700SOL     OW22565   6.134   1.223   6.138 -0.2096 -0.8491  0.0690
 5700SOL    HW222566   6.167   1.250   6.224  0.8482 -0.6494 -0.3827
 5700SOL    HW322567   6.055   1.275   6.125  0.2464 -0.0393  0.4348
 5700SOL    MW422568   6.128   1.233   6.147 -0.0099 -0.7159  0.0576
 5701SOL     OW22569   1.463   4.036   1.116 -0.1869  0.3995 -0.1383
 5701SOL    HW222570   1.390   4.045   1.055  0.3683  0.7294 -0.7555
 5701SOL    HW322571   1.435   4.085   1.194 -1.2915 -0.7933  0.2628
 5701SOL    MW422572   1.450   4.044   1.118 -0.2594  0.2856 -0.1668
 5702SOL     OW22573   5.097   2.075   5.627 -0.1466 -0.7701 -0.4830
 5702SOL    HW222574   5.176   2.124   5.602  0.3352 -1.2223  0.1258
 5702SOL    HW322575   5.130   1.997   5.672 -0.9269 -1.3290 -0.8591
 5702SOL    MW422576   5.112   2.071   5.630 -0.1860 -0.9035 -0.4523
 5703SOL     OW22577   4.032   2.418   0.618 -0.3662 -0.0383  0.4518
 5703SOL    HW222578   3.944   2.404   0.654 -0.5623  0.2137  0.0811
 5703SOL    HW322579   4.041   2.513   0.616 -1.4665  0.1106 -2.7186
 5703SOL    MW422580   4.021   2.429   0.623 -0.5372  0.0146 -0.0154
 5704SOL     OW22581   5.650   6.177   3.944 -0.0426 -0.0300 -0.0390
 5704SOL    HW222582   5.688   6.202   3.860 -2.3510  1.6523 -0.6958
 5704SOL    HW322583   5.616   6.089   3.931  1.3314 -0.5704 -0.1873
 5704SOL    MW422584   5.651   6.169   3.931 -0.1659  0.1207 -0.1453
 5705SOL     OW22585   5.965   0.065   1.368 -0.2235 -0.0271  0.7266
 5705SOL    HW222586   6.059   0.084   1.357 -0.2635  2.6706  3.5479
 5705SOL    HW322587   5.927   0.085   1.283  1.6141 -0.1390 -0.1810
 5705SOL    MW422588   5.973   0.070   1.355  0.0137  0.3140  0.9791
 5706SOL     OW22589   3.082   4.023   2.795  0.4501  0.2625  0.0287
 5706SOL    HW222590   3.159   4.060   2.752  0.8459  1.2279  1.5081
 5706SOL    HW322591   3.106   4.019   2.888 -1.4675  1.0636  0.5956
 5706SOL    MW422592   3.096   4.027   2.802  0.2493  0.4956  0.2987
 5707SOL     OW22593   3.625   4.881   4.391  0.2019 -0.1105 -0.3575
 5707SOL    HW222594   3.556   4.872   4.326 -0.0957 -1.3389  0.1031
 5707SOL    HW322595   3.706   4.887   4.339 -0.1360  0.1245 -0.8633
 5707SOL    MW422596   3.627   4.881   4.375  0.1181 -0.2415 -0.3635
 5708SOL     OW22597   3.124   1.982   2.523  0.0473 -0.1673  0.2632
 5708SOL    HW222598   3.118   2.077   2.509 -0.1924 -0.2375 -0.1342
 5708SOL    HW322599   3.131   1.946   2.435  2.3102 -0.3926  0.4732
 5708SOL    MW422600   3.124   1.990   2.509  0.3142 -0.2063  0.2385
 5709SOL     OW22601   0.734   1.559   2.490 -0.5491 -0.4715  0.0210
 5709SOL    HW222602   0.772   1.587   2.407 -0.0127 -0.5549  0.2342
 5709SOL    HW322603   0.671   1.629   2.512 -0.9896 -0.6483 -0.6432
 5709SOL    MW422604   0.731   1.572   2.482 -0.5364 -0.5058 -0.0385
 5710SOL     OW22605   1.797   1.677   6.051 -0.0480  0.1796  0.0568
 5710SOL    HW222606   1.714   1.726   6.046 -0.3793 -0.3169  0.5257
 5710SOL    HW322607   1.816   1.671   6.145  0.1269 -0.3531 -0.0081
 5710SOL    MW422608   1.788   1.683   6.063 -0.0687  0.0438  0.1101
 5711SOL     OW22609   3.215   4.626   0.843 -0.0693  0.5269 -0.1624
 5711SOL    HW222610   3.222   4.536   0.810 -0.4902  0.0006  1.1227
 5711SOL    HW322611   3.205   4.679   0.764 -1.0166 -0.6796 -0.8962
 5711SOL    MW422612   3.214   4.621   0.828 -0.2498  0.2982 -0.0897
 5712SOL     OW22613   6.243   3.833   1.806  0.1629  0.4491  0.4674
 5712SOL    HW222614   6.328   3.876   1.814  0.0099  1.4379 -2.3112
 5712SOL    HW322615   6.264   3.741   1.792  0.7509  0.5765  0.5050
 5712SOL    MW422616   6.257   3.827   1.805  0.2203  0.5964  0.1058
 5713SOL     OW22617   6.010   4.321   5.151 -0.5450 -0.2175 -0.2464
 5713SOL    HW222618   6.017   4.290   5.061 -0.6429 -0.6890 -0.0947
 5713SOL    HW322619   5.972   4.247   5.199  1.7988 -0.9105  0.6755
 5713SOL    MW422620   6.006   4.307   5.145 -0.2487 -0.3712 -0.1048
 5714SOL     OW22621   1.088   6.225   0.050 -0.0804  0.3781 -0.3201
 5714SOL    HW222622   1.010   6.250   0.000  1.2065  3.6875 -0.9151
 5714SOL    HW322623   1.053   6.175   0.124 -2.3058 -2.0072 -2.7379
 5714SOL    MW422624   1.073   6.222   0.053 -0.2042  0.5000 -0.7176
 5715SOL     OW22625   6.105   6.333   2.024  0.3024 -0.1031  0.1636
 5715SOL    HW222626   6.193   6.370   2.023 -0.0515  0.7519 -0.3254
 5715SOL    HW322627   6.053   6.396   2.073 -0.0949 -0.4689  0.2213
 5715SOL    MW422628   6.110   6.346   2.030  0.2033 -0.0386  0.1067
 5716SOL     OW22629   2.623   4.436   1.589 -0.2442 -0.4503 -0.3328
 5716SOL    HW222630   2.589   4.469   1.672  0.0245 -2.3266  0.5772
 5716SOL    HW322631   2.558   4.372   1.561 -0.5324  0.4412 -1.8114
 5716SOL    MW422632   2.610   4.432   1.596 -0.2468 -0.5802 -0.4078
 5717SOL     OW22633   5.905   2.800   6.050 -0.0457 -0.1940  0.2976
 5717SOL    HW222634   5.969   2.744   6.005 -0.6432 -1.1008  0.5523
 5717SOL    HW322635   5.919   2.784   6.143 -0.5903 -0.3382  0.3580
 5717SOL    MW422636   5.915   2.791   6.056 -0.1964 -0.3327  0.3391
 5718SOL     OW22637   1.231   4.040   3.715 -0.1558 -0.2505 -0.0833
 5718SOL    HW222638   1.146   4.005   3.687  0.0682 -0.3592 -0.6202
 5718SOL    HW322639   1.231   4.131   3.685  0.1958 -0.4453 -0.6749
 5718SOL    MW422640   1.220   4.048   3.708 -0.0798 -0.2905 -0.2322
 5719SOL     OW22641   3.813   4.476   4.626  0.0201 -0.3796  1.3042
 5719SOL    HW222642   3.737   4.517   4.584  0.5715 -0.1220  0.5234
 5719SOL    HW322643   3.780   4.392   4.657 -0.0597 -1.3031 -1.0740
 5719SOL    MW422644   3.798   4.471   4.624  0.0823 -0.4674  0.8874
 5720SOL     OW22645   0.235   0.676   2.883 -0.0162 -0.1770  0.0505
 5720SOL    HW222646   0.148   0.675   2.922  0.0001 -0.5033  0.0832
 5720SOL    HW322647   0.223   0.639   2.795  0.0968 -0.2767  0.0760
 5720SOL    MW422648   0.222   0.671   2.877  0.0009 -0.2332  0.0582
 5721SOL     OW22649   3.067   3.714   5.077 -0.2047 -0.9172 -0.8087
 5721SOL    HW222650   3.119   3.703   5.157 -1.0355 -1.8339 -0.3619
 5721SOL    HW322651   2.979   3.736   5.109 -0.2006  0.2175 -1.5378
 5721SOL    MW422652   3.062   3.715   5.092 -0.3138 -0.8885 -0.8459
 5722SOL     OW22653   1.502   0.890   0.940  0.2701  0.5824 -0.0693
 5722SOL    HW222654   1.457   0.840   0.873  1.1936 -0.6132  0.1477
 5722SOL    HW322655   1.561   0.826   0.981  1.0642  1.7251  0.6245
 5722SOL    MW422656   1.504   0.875   0.937  0.4967  0.5754  0.0509
 5723SOL     OW22657   3.862   4.311   1.726  0.5518  0.4299 -0.0267
 5723SOL    HW222658   3.819   4.394   1.705  0.5649  0.4508  0.0286
 5723SOL    HW322659   3.845   4.256   1.651  0.9064  0.6246 -0.2527
 5723SOL    MW422660   3.854   4.315   1.714  0.6003  0.4584 -0.0492
 5724SOL     OW22661   5.617   3.405   2.155  0.0084  0.0317 -0.3850
 5724SOL    HW222662   5.682   3.473   2.174 -0.6962  0.9311 -1.1228
 5724SOL    HW322663   5.545   3.452   2.114  0.4981 -1.4596 -3.1909
 5724SOL    MW422664   5.616   3.420   2.152 -0.0199 -0.0464 -0.8526
 5725SOL     OW22665   1.218   2.961   3.029  0.2277  0.4231 -0.1985
 5725SOL    HW222666   1.293   2.902   3.030  0.4031  0.6012 -1.1341
 5725SOL    HW322667   1.157   2.925   3.093  1.2604  0.4892  0.8583
 5725SOL    MW422668   1.220   2.949   3.037  0.3871  0.4554 -0.1825
 5726SOL     OW22669   3.875   2.070   5.919 -0.2099  0.0293  0.2901
 5726SOL    HW222670   3.899   2.017   5.996  0.6332 -1.3610 -0.8669
 5726SOL    HW322671   3.860   2.005   5.850 -0.7835  1.2552 -0.7636
 5726SOL    MW422672   3.876   2.054   5.920 -0.1743  0.0076 -0.0016
 5727SOL     OW22673   5.512   5.244   2.448  0.1108 -0.3123  0.1087
 5727SOL    HW222674   5.420   5.218   2.460 -0.3944  1.0190 -0.6859
 5727SOL    HW322675   5.560   5.192   2.513 -0.9316 -2.4793 -0.7400
 5727SOL    MW422676   5.506   5.234   2.458 -0.0933 -0.4226 -0.1081
 5728SOL     OW22677   0.205   3.153   0.889  0.2077 -0.1579  0.5194
 5728SOL    HW222678   0.152   3.191   0.818 -1.4027 -0.9168  1.2675
 5728SOL    HW322679   0.217   3.225   0.951  0.1329  0.0379  0.3107
 5728SOL    MW422680   0.200   3.168   0.888 -0.0146 -0.2322  0.5906
 5729SOL     OW22681   6.192   2.106   1.423  0.2082 -0.3796  0.0050
 5729SOL    HW222682   6.131   2.133   1.492  0.1484 -1.6555  0.4735
 5729SOL    HW322683   6.268   2.163   1.435  0.6289 -1.2500  1.8147
 5729SOL    MW422684   6.194   2.117   1.434  0.2558 -0.6628  0.3056
 5730SOL     OW22685   0.157   2.726   2.118  0.4030  0.1451  0.5968
 5730SOL    HW222686   0.192   2.751   2.033  0.9307  2.9444  1.5235
 5730SOL    HW322687   0.076   2.678   2.098  1.3996 -0.8053 -1.4529
 5730SOL    MW422688   0.151   2.723   2.104  0.6041  0.3890  0.4487
 5731SOL     OW22689   2.710   4.415   5.367  0.3551 -0.0312  0.2994
 5731SOL    HW222690   2.685   4.367   5.288 -1.5464  1.7980 -0.3398
 5731SOL    HW322691   2.795   4.454   5.346  1.0442 -1.5825  0.1445
 5731SOL    MW422692   2.718   4.414   5.353  0.1952  0.0055  0.1946
 5732SOL     OW22693   1.968   5.077   5.796  0.3551  0.3962 -0.1126
 5732SOL    HW222694   1.912   5.155   5.792 -0.3519  0.0213  1.5482
 5732SOL    HW322695   2.049   5.109   5.836  0.5671  0.5417 -0.6580
 5732SOL    MW422696   1.971   5.092   5.801  0.2898  0.3659  0.0345
 5733SOL     OW22697   1.623   4.030   0.104 -0.2584 -0.7925  0.5132
 5733SOL    HW222698   1.627   4.115   0.061 -1.9616 -0.9862 -0.1399
 5733SOL    HW322699   1.624   4.050   0.198  2.7543 -0.3186  0.4620
 5733SOL    MW422700   1.623   4.044   0.111 -0.0857 -0.7555  0.4203
 5734SOL     OW22701   0.456   4.606   1.664  0.4135 -1.0671 -0.0955
 5734SOL    HW222702   0.369   4.646   1.662  0.8351 -0.1185 -0.2274
 5734SOL    HW322703   0.476   4.586   1.573  0.8890  0.0095 -0.2492
 5734SOL    MW422704   0.447   4.609   1.652  0.5319 -0.7999 -0.1332
 5735SOL     OW22705   1.691   2.320   2.415 -0.6041  0.4097  0.3654
 5735SOL    HW222706   1.732   2.311   2.502 -0.2892  1.9039  0.4005
 5735SOL    HW322707   1.759   2.362   2.362 -1.0122  0.0519 -0.4437
 5735SOL    MW422708   1.705   2.324   2.419 -0.6164  0.5596  0.2633
 5736SOL     OW22709   2.163   1.472   1.590 -0.0743 -0.5298  0.1473
 5736SOL    HW222710   2.092   1.535   1.601  1.3808  1.0714  0.6948
 5736SOL    HW322711   2.155   1.444   1.499  0.0428  1.4951 -0.5397
 5736SOL    MW422712   2.153   1.477   1.579  0.1331 -0.0514  0.1289
 5737SOL     OW22713   5.952   5.312   5.175 -0.1671  0.6698 -0.1187
 5737SOL    HW222714   5.878   5.255   5.198  0.0763  0.6225  0.5721
 5737SOL    HW322715   6.026   5.253   5.168 -0.0953  0.7833 -0.3109
 5737SOL    MW422716   5.952   5.297   5.177 -0.1255  0.6786 -0.0529
 5738SOL     OW22717   0.432   2.562   2.571  0.2267  0.0085  0.0230
 5738SOL    HW222718   0.488   2.622   2.521  0.1298  1.2303  1.2958
 5738SOL    HW322719   0.474   2.477   2.562  3.0250  1.0416  1.8137
 5738SOL    MW422720   0.445   2.559   2.563  0.5831  0.3060  0.4272
 5739SOL     OW22721   4.591   4.206   5.161 -0.2182 -0.3215  0.0756
 5739SOL    HW222722   4.566   4.177   5.074  0.8329 -1.5365  0.1397
 5739SOL    HW322723   4.542   4.286   5.175 -0.2770 -0.0092 -1.6995
 5739SOL    MW422724   4.581   4.212   5.152 -0.0873 -0.4406 -0.1501
 5740SOL     OW22725   4.028   2.302   2.501 -0.4983  0.0032  0.3869
 5740SOL    HW222726   4.077   2.379   2.472  1.7616 -0.7225  1.9840
 5740SOL    HW322727   3.994   2.263   2.420 -1.6363  2.5267 -0.4884
 5740SOL    MW422728   4.030   2.307   2.486 -0.3503  0.2404  0.4822
 5741SOL     OW22729   1.790   4.063   4.550  0.2061  0.2010  0.6125
 5741SOL    HW222730   1.792   4.158   4.535  2.1311  0.2222  0.7624
 5741SOL    HW322731   1.721   4.031   4.491  0.3734  1.5470 -0.3695
 5741SOL    MW422732   1.781   4.071   4.540  0.4821  0.3814  0.5027
 5742SOL     OW22733   2.670   0.600   5.333 -0.2335 -0.0623 -0.0918
 5742SOL    HW222734   2.578   0.578   5.317 -0.2152 -0.2323  0.0398
 5742SOL    HW322735   2.674   0.695   5.316 -0.5065  0.0094  0.2325
 5742SOL    MW422736   2.658   0.610   5.328 -0.2671 -0.0752 -0.0316
 5743SOL     OW22737   6.093   1.237   1.648 -0.3140 -0.0590 -0.0503
 5743SOL    HW222738   6.172   1.247   1.701  0.7280  0.4874 -1.6288
 5743SOL    HW322739   6.066   1.146   1.662  2.4811 -1.3175 -1.9166
 5743SOL    MW422740   6.100   1.226   1.657  0.1923 -0.1529 -0.5048
 5744SOL     OW22741   6.001   2.226   1.231  0.4132  0.4365  0.4641
 5744SOL    HW222742   6.065   2.163   1.263  0.4502  0.5720  0.6552
 5744SOL    HW322743   6.053   2.304   1.209  0.2152  0.8543  1.4223
 5744SOL    MW422744   6.016   2.228   1.232  0.3920  0.5095  0.6158
 5745SOL     OW22745   0.903   3.860   2.795 -0.4156 -0.6106 -0.1512
 5745SOL    HW222746   0.939   3.841   2.882  0.4760 -1.5013 -0.7006
 5745SOL    HW322747   0.844   3.787   2.778 -0.7823 -0.3066 -0.2061
 5745SOL    MW422748   0.900   3.848   2.804 -0.3464 -0.6880 -0.2310
 5746SOL     OW22749   5.863   3.536   5.999  0.2334 -0.2778  0.2265
 5746SOL    HW222750   5.830   3.613   6.045 -1.2503 -1.9403  2.1019
 5746SOL    HW322751   5.785   3.488   5.972  1.1221 -0.7900 -1.6246
 5746SOL    MW422752   5.849   3.540   6.002  0.1549 -0.5647  0.2297
 5747SOL     OW22753   1.629   1.178   3.507  0.5904  0.4681  0.2943
 5747SOL    HW222754   1.701   1.124   3.541 -0.0778  0.0069  0.9958
 5747SOL    HW322755   1.624   1.252   3.567 -0.1783 -0.0234  0.8527
 5747SOL    MW422756   1.638   1.181   3.519  0.4008  0.3424  0.4605
 5748SOL     OW22757   2.528   5.962   2.815 -0.4676 -0.3884  0.2585
 5748SOL    HW222758   2.549   5.886   2.761 -1.3646 -0.9800  0.7212
 5748SOL    HW322759   2.461   6.009   2.766  1.0109  0.8498 -0.6524
 5748SOL    MW422760   2.522   5.958   2.802 -0.3909 -0.3031  0.1994
 5749SOL     OW22761   1.178   5.327   5.987 -0.1956  0.3705 -0.1266
 5749SOL    HW222762   1.147   5.264   6.053  2.0475 -0.1359  0.5194
 5749SOL    HW322763   1.127   5.406   6.004 -1.3441 -0.4939  0.6441
 5749SOL    MW422764   1.167   5.329   5.998 -0.0512  0.1896  0.0603
 5750SOL     OW22765   5.661   5.484   1.898 -0.5988 -0.2553  0.2280
 5750SOL    HW222766   5.639   5.396   1.929 -2.1327 -0.6509 -1.8087
 5750SOL    HW322767   5.705   5.469   1.814 -1.9496  0.9287 -0.7282
 5750SOL    MW422768   5.664   5.470   1.891 -0.9794 -0.1513 -0.1668
 5751SOL     OW22769   4.896   2.018   5.823 -0.1783 -0.1369 -0.1457
 5751SOL    HW222770   4.881   2.092   5.882  0.3113  0.5115 -0.8240
 5751SOL    HW322771   4.955   2.052   5.756  0.4168 -1.2750 -0.2226
 5751SOL    MW422772   4.902   2.032   5.822 -0.0352 -0.2015 -0.2453
 5752SOL     OW22773   6.047   3.461   0.580 -0.8454 -0.8211 -0.1231
 5752SOL    HW222774   6.117   3.430   0.638  0.8981 -0.2407 -1.7725
 5752SOL    HW322775   5.993   3.518   0.634  0.8539 -0.1045  0.8921
 5752SOL    MW422776   6.049   3.464   0.595 -0.3912 -0.6499 -0.2067
 5753SOL     OW22777   0.749   2.175   5.916 -0.3049  0.0415  0.0263
 5753SOL    HW222778   0.731   2.129   5.834  0.0883  0.2137 -0.1615
 5753SOL    HW322779   0.795   2.254   5.889 -1.4655  0.8388  0.2911
 5753SOL    MW422780   0.752   2.179   5.902 -0.4062  0.1695  0.0365
 5754SOL     OW22781   5.666   3.582   4.560 -0.4510 -0.0380  0.2818
 5754SOL    HW222782   5.611   3.562   4.484 -0.0223 -0.0788 -0.0240
 5754SOL    HW322783   5.614   3.555   4.635 -2.2305  2.8587  0.2514
 5754SOL    MW422784   5.652   3.576   4.560 -0.6292  0.3388  0.2374
 5755SOL     OW22785   4.286   2.330   2.879 -0.2247 -0.0013 -0.0817
 5755SOL    HW222786   4.213   2.361   2.933 -1.4705 -1.0350 -1.1053
 5755SOL    HW322787   4.311   2.407   2.827  0.2885  0.7077  1.1851
 5755SOL    MW422788   4.280   2.344   2.879 -0.3213 -0.0442 -0.0496
 5756SOL     OW22789   1.482   2.807   3.424  0.0524 -0.1384 -0.5048
 5756SOL    HW222790   1.487   2.788   3.331 -1.0150  0.2829 -0.6565
 5756SOL    HW322791   1.390   2.793   3.447  0.4519 -1.0408  0.6618
 5756SOL    MW422792   1.470   2.802   3.415 -0.0357 -0.2019 -0.3709
 5757SOL     OW22793   0.697   0.024   6.308  0.1100 -0.6997  0.1422
 5757SOL    HW222794   0.616  -0.017   6.276  0.7097 -1.7689 -0.0621
 5757SOL    HW322795   0.738   0.061   6.230  0.4053 -1.2240  0.0437
 5757SOL    MW422796   0.692   0.023   6.294  0.2281 -0.9099  0.1023
 5758SOL     OW22797   5.242   3.410   1.443  0.1208  0.4323 -0.2320
 5758SOL    HW222798   5.154   3.423   1.479  0.2277  2.9960 -0.6957
 5758SOL    HW322799   5.247   3.473   1.371  2.0298 -0.3244 -0.8028
 5758SOL    MW422800   5.231   3.420   1.438  0.3868  0.6707 -0.3685
 5759SOL     OW22801   4.578   3.698   2.779 -0.1119  0.1583 -0.0671
 5759SOL    HW222802   4.580   3.617   2.829  1.5323  0.4318  0.3695
 5759SOL    HW322803   4.560   3.670   2.689 -1.1710 -0.5150  0.3373
 5759SOL    MW422804   4.576   3.684   2.774 -0.0347  0.1056  0.0439
 5760SOL     OW22805   3.896   2.053   4.397  0.0753  0.0122  0.0154
 5760SOL    HW222806   3.931   2.087   4.315  0.1986  1.3461  0.6100
 5760SOL    HW322807   3.821   2.000   4.370  0.0762  0.4774 -0.9515
 5760SOL    MW422808   3.891   2.050   4.382  0.0917  0.2496 -0.0337
 5761SOL     OW22809   4.934   2.523   3.592  0.5191 -0.2677 -0.1132
 5761SOL    HW222810   4.907   2.504   3.502 -2.3376 -1.4491  0.8496
 5761SOL    HW322811   4.904   2.613   3.607  2.0040  0.3429 -0.6228
 5761SOL    MW422812   4.926   2.533   3.582  0.3381 -0.3430 -0.0534
 5762SOL     OW22813   4.472   0.465   5.182  0.5841  0.0318  0.2752
 5762SOL    HW222814   4.495   0.496   5.269 -0.7770  1.0038  0.3172
 5762SOL    HW322815   4.403   0.525   5.152 -1.1077 -2.0593 -0.2510
 5762SOL    MW422816   4.466   0.477   5.189  0.1813 -0.1158  0.2113
 5763SOL     OW22817   5.720   0.227   3.315 -0.0345  0.0687  0.5555
 5763SOL    HW222818   5.799   0.221   3.262  0.2970  0.1062  1.0505
 5763SOL    HW322819   5.738   0.295   3.379 -1.3206  1.7445 -0.7720
 5763SOL    MW422820   5.732   0.235   3.316 -0.1605  0.2947  0.4457
 5764SOL     OW22821   4.473   4.893   5.253 -0.1948  0.0562 -0.2395
 5764SOL    HW222822   4.550   4.950   5.256  1.9317 -2.6066  1.6170
 5764SOL    HW322823   4.458   4.879   5.159  0.8144  1.5779 -0.6814
 5764SOL    MW422824   4.481   4.899   5.241  0.2189 -0.0943 -0.0528
 5765SOL     OW22825   0.945   6.375   4.339 -0.4362  0.2374 -0.1043
 5765SOL    HW222826   0.994   6.415   4.267 -2.0955  0.8322 -0.9667
 5765SOL    HW322827   0.998   6.391   4.417  1.5799 -0.7366 -1.2140
 5765SOL    MW422828   0.958   6.382   4.340 -0.3891  0.1873 -0.3645
 5766SOL     OW22829   3.890   6.411   6.273 -0.2988  0.3684 -0.4698
 5766SOL    HW222830   3.809   6.442   6.232 -0.4935 -0.5197 -0.7799
 5766SOL    HW322831   3.873   6.318   6.291 -0.3208  0.7678  1.8390
 5766SOL    MW422832   3.877   6.402   6.270 -0.3274  0.3039 -0.2061
 5767SOL     OW22833   1.215   0.345   6.008 -0.0762  0.4444 -0.1099
 5767SOL    HW222834   1.196   0.286   5.934  0.9729 -0.7612  0.5355
 5767SOL    HW322835   1.132   0.389   6.026 -0.7789 -0.5092 -0.9194
 5767SOL    MW422836   1.201   0.343   6.000 -0.0305  0.1596 -0.1315
 5768SOL     OW22837   0.651   0.282   3.101  0.0642 -0.1053  0.5270
 5768SOL    HW222838   0.725   0.227   3.074 -0.8932 -1.3572  0.3450
 5768SOL    HW322839   0.608   0.232   3.171 -0.1489  0.9772  1.1970
 5768SOL    MW422840   0.655   0.268   3.107 -0.0902 -0.1276  0.5914
 5769SOL     OW22841   0.188   6.315   3.475  0.5835 -0.0219 -0.0208
 5769SOL    HW222842   0.230   6.229   3.470  0.4952 -0.0175 -0.8608
 5769SOL    HW322843   0.158   6.321   3.566 -0.1002 -1.1945 -0.1543
 5769SOL    MW422844   0.190   6.304   3.486  0.4817 -0.1761 -0.1492
 5770SOL     OW22845   1.589   3.840   2.596 -0.0315 -0.0660 -0.6112
 5770SOL    HW222846   1.539   3.908   2.550  0.8208  0.3718 -0.9087
 5770SOL    HW322847   1.588   3.765   2.536 -0.0848  0.0381 -0.7419
 5770SOL    MW422848   1.582   3.839   2.582  0.0739  0.0055 -0.6677
 5771SOL     OW22849   5.657   1.577   3.661  0.7597 -0.6226  0.3240
 5771SOL    HW222850   5.644   1.662   3.620  0.3649  0.4068  2.4071
 5771SOL    HW322851   5.748   1.579   3.691  0.5240 -0.5845  1.0617
 5771SOL    MW422852   5.667   1.589   3.660  0.6765 -0.4817  0.6962
 5772SOL     OW22853   2.303   3.820   4.458  0.2219 -0.3607  0.3670
 5772SOL    HW222854   2.285   3.818   4.552 -1.3764  1.0233  0.1234
 5772SOL    HW322855   2.244   3.754   4.421 -0.9356  0.8139  0.0848
 5772SOL    MW422856   2.293   3.811   4.465 -0.1417 -0.0231  0.2976
 5773SOL     OW22857   5.997   1.197   3.209 -0.2151 -0.0264 -0.1546
 5773SOL    HW222858   6.074   1.194   3.154  0.8103 -1.7385  1.2709
 5773SOL    HW322859   6.017   1.265   3.274  0.7925 -1.4598  1.0994
 5773SOL    MW422860   6.009   1.206   3.211  0.0531 -0.4414  0.1990
 5774SOL     OW22861   6.058   5.689   0.580 -0.1660  0.2233  0.0152
 5774SOL    HW222862   6.103   5.773   0.584  0.7380 -0.1257 -1.6251
 5774SOL    HW322863   6.077   5.656   0.492 -0.9523 -1.4489  0.4254
 5774SOL    MW422864   6.066   5.696   0.569 -0.1505 -0.0434 -0.1471
 5775SOL     OW22865   3.618   2.070   5.049  0.0270  0.3642  0.0983
 5775SOL    HW222866   3.555   2.011   5.089 -0.1352  0.6151  0.2130
 5775SOL    HW322867   3.638   2.134   5.118 -0.1480  0.7147 -0.1753
 5775SOL    MW422868   3.613   2.071   5.064 -0.0175  0.4436  0.0774
 5776SOL     OW22869   5.665   0.065   3.547 -0.6143 -0.0272  0.5403
 5776SOL    HW222870   5.729   0.087   3.614 -1.8240  1.5744  1.2309
 5776SOL    HW322871   5.683   0.126   3.475 -0.4015 -0.6144  0.0781
 5776SOL    MW422872   5.676   0.076   3.546 -0.7458  0.1066  0.5704
 5777SOL     OW22873   5.698   2.336   0.370  0.2044  0.0282  0.4944
 5777SOL    HW222874   5.688   2.423   0.331  0.5493 -0.8524 -1.6952
 5777SOL    HW322875   5.609   2.303   0.379  0.1116  0.2923  0.5414
 5777SOL    MW422876   5.685   2.343   0.366  0.2377 -0.0532  0.2117
 5778SOL     OW22877   1.289   3.352   1.041  0.2219  0.2912 -0.1643
 5778SOL    HW222878   1.257   3.371   0.953 -0.3939  0.8688  0.1773
 5778SOL    HW322879   1.328   3.434   1.070 -1.2535  0.6795  0.8147
 5778SOL    MW422880   1.290   3.365   1.033 -0.0540  0.4186  0.0100
 5779SOL     OW22881   5.731   5.124   0.414  0.1202  0.1212 -0.2738
 5779SOL    HW222882   5.753   5.136   0.321 -0.1490 -1.3202 -0.5536
 5779SOL    HW322883   5.743   5.210   0.453  0.1505  0.7810 -1.6708
 5779SOL    MW422884   5.735   5.137   0.407  0.0887  0.0181 -0.4950
 5780SOL     OW22885   3.350   2.471   5.659 -0.3283  0.2031 -0.4751
 5780SOL    HW222886   3.394   2.540   5.610 -1.8118  2.1462  0.7576
 5780SOL    HW322887   3.320   2.514   5.739 -1.6174 -1.8041  0.2059
 5780SOL    MW422888   3.352   2.486   5.663 -0.6941  0.1946 -0.2226
 5781SOL     OW22889   0.681   2.087   0.697  0.1650 -0.5637  0.2185
 5781SOL    HW222890   0.614   2.128   0.643  0.4068  1.1521  1.1617
 5781SOL    HW322891   0.712   2.013   0.645  0.5850  1.1672 -2.0947
 5781SOL    MW422892   0.676   2.082   0.683  0.2523 -0.1090  0.0377
 5782SOL     OW22893   4.876   3.124   0.360 -0.1370 -0.5332  0.2464
 5782SOL    HW222894   4.861   3.187   0.290 -0.1684  1.1531  1.7051
 5782SOL    HW322895   4.935   3.059   0.322  0.0673  0.4880 -1.2418
 5782SOL    MW422896   4.882   3.124   0.346 -0.1142 -0.1760  0.2425
 5783SOL     OW22897   3.891   0.221   2.135  0.0774  0.1105 -0.1588
 5783SOL    HW222898   3.839   0.234   2.055 -0.8090  1.0096  0.5363
 5783SOL    HW322899   3.826   0.204   2.203  0.7391  0.4724  0.5804
 5783SOL    MW422900   3.875   0.221   2.133  0.0477  0.2768  0.0304
 5784SOL     OW22901   2.153   0.415   2.805  0.0716 -0.3323 -1.0277
 5784SOL    HW222902   2.180   0.372   2.886 -1.2225  0.0160 -0.3814
 5784SOL    HW322903   2.235   0.443   2.764  0.8935 -2.4160 -0.9372
 5784SOL    MW422904   2.167   0.413   2.810  0.0093 -0.5613 -0.9305
 5785SOL     OW22905   1.103   1.538   2.591 -0.0016  0.2530 -0.1075
 5785SOL    HW222906   1.041   1.586   2.645  0.8819  0.0238  1.1592
 5785SOL    HW322907   1.188   1.580   2.607  0.3372  0.0107 -1.1285
 5785SOL    MW422908   1.106   1.549   2.600  0.1597  0.1908 -0.0751
 5786SOL     OW22909   6.052   4.944   1.944  0.0829 -0.1017  0.2536
 5786SOL    HW222910   6.001   4.925   1.865  1.3424 -0.7017 -0.4459
 5786SOL    HW322911   6.141   4.916   1.922  0.3965 -0.5484  1.9913
 5786SOL    MW422912   6.057   4.938   1.930  0.2904 -0.2398  0.3906
 5787SOL     OW22913   2.237   4.308   1.688 -0.2343  0.1929  0.3843
 5787SOL    HW222914   2.202   4.222   1.711  2.5656 -1.0348  0.4548
 5787SOL    HW322915   2.203   4.367   1.755 -2.7334 -0.6625 -0.0287
 5787SOL    MW422916   2.228   4.304   1.700 -0.1946 -0.0820  0.3391
 5788SOL     OW22917   1.011   0.442   3.361 -0.2108 -0.0010 -0.3001
 5788SOL    HW222918   0.966   0.462   3.279 -1.0879 -1.2275 -0.1431
 5788SOL    HW322919   1.104   0.445   3.338 -0.3505  1.9377 -0.7779
 5788SOL    MW422920   1.017   0.445   3.347 -0.3450  0.0930 -0.3424
 5789SOL     OW22921   6.212   0.293   5.853  0.1766  0.2328  0.5860
 5789SOL    HW222922   6.270   0.369   5.845 -0.6510  0.7878 -0.4635
 5789SOL    HW322923   6.125   0.328   5.838 -0.1087 -1.1270 -1.2403
 5789SOL    MW422924   6.208   0.308   5.850  0.0298  0.1266  0.2066
 5790SOL     OW22925   3.112   0.390   2.182  0.2919 -0.4181 -0.2599
 5790SOL    HW222926   3.143   0.337   2.255 -0.8022 -2.1246 -0.9967
 5790SOL    HW322927   3.073   0.467   2.224  0.3505 -1.0080  0.9221
 5790SOL    MW422928   3.111   0.393   2.197  0.1553 -0.7211 -0.2011
 5791SOL     OW22929   0.903   4.171   5.938  0.0098 -0.4136 -0.0442
 5791SOL    HW222930   0.855   4.143   6.015 -1.8034 -1.5956 -1.5270
 5791SOL    HW322931   0.959   4.097   5.916  2.3290  0.7807  1.3990
 5791SOL    MW422932   0.904   4.158   5.945  0.0765 -0.4119 -0.0495
 5792SOL     OW22933   2.559   6.169   5.838  0.0528 -0.5167  0.0500
 5792SOL    HW222934   2.550   6.185   5.932  2.9855  0.7961  0.2372
 5792SOL    HW322935   2.601   6.083   5.833 -0.4037 -0.7340 -0.0938
 5792SOL    MW422936   2.564   6.160   5.850  0.3795 -0.3721  0.0557
 5793SOL     OW22937   3.993   3.818   0.660  0.1897  0.2694 -0.2564
 5793SOL    HW222938   4.052   3.892   0.647 -1.4784  1.8300  0.6957
 5793SOL    HW322939   4.041   3.743   0.625  2.6634  1.4744  0.3521
 5793SOL    MW422940   4.007   3.818   0.653  0.2960  0.6343 -0.0505
 5794SOL     OW22941   3.234   5.589   1.665  0.4186  0.6608  0.2537
 5794SOL    HW222942   3.309   5.610   1.611  0.5373  1.7112  0.8059
 5794SOL    HW322943   3.171   5.549   1.605  0.9397  0.8737 -0.4414
 5794SOL    MW422944   3.235   5.586   1.650  0.5030  0.8275  0.2348
 5795SOL     OW22945   4.342   3.437   6.390 -0.0977  0.1798  0.1465
 5795SOL    HW222946   4.418   3.408   6.441  0.2914  1.0173  0.0546
 5795SOL    HW322947   4.367   3.523   6.357 -1.1868  0.5695  0.3112
 5795SOL    MW422948   4.355   3.445   6.392 -0.1901  0.3417  0.1561
 5796SOL     OW22949   4.295   1.128   2.847  0.3168  0.0427  0.1088
 5796SOL    HW222950   4.373   1.184   2.845  0.6281 -0.3946 -0.6433
 5796SOL    HW322951   4.293   1.092   2.936  0.4425  0.7831  0.4172
 5796SOL    MW422952   4.305   1.131   2.858  0.3745  0.0827  0.0503
 5797SOL     OW22953   1.831   4.089   1.293  0.8863  0.4433 -0.1994
 5797SOL    HW222954   1.910   4.049   1.331  0.7536  1.7088  1.5004
 5797SOL    HW322955   1.810   4.032   1.219  3.4171  0.0744 -0.7594
 5797SOL    MW422956   1.839   4.076   1.288  1.2027  0.5616 -0.0490
 5798SOL     OW22957   1.433   0.422   2.437  0.2551  0.3411 -0.0499
 5798SOL    HW222958   1.516   0.376   2.447 -0.2635 -0.4418  0.7300
 5798SOL    HW322959   1.429   0.483   2.511 -0.2809 -0.2997  0.4674
 5798SOL    MW422960   1.443   0.424   2.448  0.1160  0.1532  0.1212
 5799SOL     OW22961   3.250   5.282   0.417  0.1469  0.4620 -0.1914
 5799SOL    HW222962   3.296   5.321   0.342 -1.0237  0.2680 -1.0334
 5799SOL    HW322963   3.174   5.239   0.378  0.7496 -1.6416  0.8488
 5799SOL    MW422964   3.246   5.282   0.402  0.0720  0.1589 -0.1653
 5800SOL     OW22965   3.392   2.478   0.552 -0.4825  0.2142 -0.1542
 5800SOL    HW222966   3.355   2.395   0.521  0.1011 -0.5934  1.2478
 5800SOL    HW322967   3.452   2.505   0.482 -1.4990  0.0610 -1.1267
 5800SOL    MW422968   3.395   2.471   0.539 -0.5396  0.0875 -0.0975
 5801SOL     OW22969   0.251   3.133   0.250  0.0300 -0.5940  0.2615
 5801SOL    HW222970   0.186   3.159   0.315 -1.4661 -1.2524 -0.9059
 5801SOL    HW322971   0.202   3.079   0.187  1.9069 -1.9298 -0.1562
 5801SOL    MW422972   0.236   3.129   0.250  0.0802 -0.8571  0.0523
 5802SOL     OW22973   0.940   3.717   4.686  0.5093  0.5232  0.3709
 5802SOL    HW222974   1.019   3.666   4.707  0.4945  0.7905  1.1081
 5802SOL    HW322975   0.968   3.775   4.614  0.2902 -1.0873 -1.0887
 5802SOL    MW422976   0.954   3.718   4.679  0.4785  0.3460  0.2756
 5803SOL     OW22977   5.032   3.144   1.015 -0.3824 -0.1528 -0.2416
 5803SOL    HW222978   5.127   3.141   1.003 -0.2655 -0.4353  0.7023
 5803SOL    HW322979   5.004   3.224   0.970  0.3493  0.1484 -0.1657
 5803SOL    MW422980   5.041   3.154   1.007 -0.2705 -0.1503 -0.1070
 5804SOL     OW22981   5.233   2.334   3.731 -0.1700 -0.4099  0.1939
 5804SOL    HW222982   5.189   2.354   3.814 -0.3417  0.0671 -0.0091
 5804SOL    HW322983   5.197   2.250   3.705 -2.2589  0.7425 -0.8243
 5804SOL    MW422984   5.223   2.326   3.739 -0.4682 -0.1949  0.0327
 5805SOL     OW22985   5.235   0.484   0.984  0.1550 -0.0271  0.2407
 5805SOL    HW222986   5.264   0.566   0.944 -1.6390  0.2165 -0.6580
 5805SOL    HW322987   5.285   0.478   1.066  0.7436  1.6440  0.0440
 5805SOL    MW422988   5.246   0.494   0.989 -0.0040  0.2255  0.0962
 5806SOL     OW22989   5.390   6.162   6.400  0.5394 -0.1779  0.1479
 5806SOL    HW222990   5.381   6.081   6.450 -0.3089  0.7574  1.5777
 5806SOL    HW322991   5.301   6.186   6.375  0.5296  1.2926  1.4159
 5806SOL    MW422992   5.377   6.155   6.404  0.4261  0.1395  0.5038
 5807SOL     OW22993   6.035   5.496   1.487 -0.3517 -0.3372  0.3813
 5807SOL    HW222994   6.115   5.546   1.468 -1.0695  0.5515 -0.4075
 5807SOL    HW322995   6.009   5.459   1.403 -1.0057 -0.2507  0.5361
 5807SOL    MW422996   6.042   5.498   1.474 -0.5327 -0.2085  0.2977
 5808SOL     OW22997   4.182   3.077   0.649  0.8194  0.2498  0.2848
 5808SOL    HW222998   4.200   3.041   0.735  1.4705  0.0697  0.0803
 5808SOL    HW322999   4.089   3.096   0.649  0.6525 -0.5501  0.7310
 5808SOL    MW423000   4.172   3.075   0.660  0.8833  0.1205  0.3167
 5809SOL     OW23001   2.758   1.814   4.641  0.6246 -0.2237  0.2341
 5809SOL    HW223002   2.689   1.787   4.702  3.2848  1.2614  4.3112
 5809SOL    HW323003   2.818   1.740   4.636  0.3103 -0.4317 -0.9266
 5809SOL    MW423004   2.757   1.801   4.648  0.9341 -0.0552  0.6189
 5810SOL     OW23005   5.648   2.877   2.844  0.0203 -0.1709  0.5782
 5810SOL    HW223006   5.640   2.959   2.795  0.0505 -1.3599 -1.5751
 5810SOL    HW323007   5.625   2.900   2.934  0.9496  2.3698  0.2555
 5810SOL    MW423008   5.644   2.891   2.849  0.1469  0.0075  0.2515
 5811SOL     OW23009   0.628   1.144   3.663  0.6632  0.4768  0.3230
 5811SOL    HW223010   0.691   1.130   3.592  0.6531 -1.6032  0.6682
 5811SOL    HW323011   0.558   1.197   3.623 -0.1852 -2.0326 -1.7759
 5811SOL    MW423012   0.627   1.149   3.648  0.5500 -0.1287  0.0916
 5812SOL     OW23013   0.635   0.029   1.727 -0.0216  0.0417  0.5062
 5812SOL    HW223014   0.568  -0.035   1.703  0.0869  0.8119 -2.1336
 5812SOL    HW323015   0.599   0.113   1.700  2.4783  0.3388 -2.3553
 5812SOL    MW423016   0.621   0.032   1.720  0.3226  0.1825 -0.2196
 5813SOL     OW23017   6.010   1.248   0.711  0.3082 -0.0670  0.1502
 5813SOL    HW223018   6.033   1.218   0.798  1.5526  0.9307  0.1986
 5813SOL    HW323019   6.017   1.170   0.656 -0.8042 -0.7776  0.9622
 5813SOL    MW423020   6.014   1.234   0.715  0.3256 -0.0291  0.2637
 5814SOL     OW23021   1.825   0.404   3.509 -0.1555 -0.4119 -0.5588
 5814SOL    HW223022   1.813   0.385   3.416  1.1376  2.5355 -1.4280
 5814SOL    HW323023   1.915   0.436   3.515 -1.1776  2.4640  1.0878
 5814SOL    MW423024   1.835   0.405   3.497 -0.1197  0.3564 -0.4563
 5815SOL     OW23025   4.268   3.272   5.133 -0.6022 -0.4810 -0.3181
 5815SOL    HW223026   4.199   3.222   5.090  0.9376 -3.5471  0.5064
 5815SOL    HW323027   4.223   3.347   5.172 -3.0119 -1.0320 -1.8540
 5815SOL    MW423028   4.253   3.276   5.133 -0.7170 -0.9582 -0.4119
 5816SOL     OW23029   2.077   3.833   5.103 -0.1973  1.0755 -0.1188
 5816SOL    HW223030   2.163   3.793   5.108 -0.6692 -0.2816 -1.8536
 5816SOL    HW323031   2.077   3.900   5.172  2.1150  0.9255  0.0852
 5816SOL    MW423032   2.088   3.837   5.113  0.0455  0.8767 -0.3208
 5817SOL     OW23033   3.432   2.129   5.566 -0.1462  0.4333  0.6446
 5817SOL    HW223034   3.515   2.166   5.537 -1.0216  1.1098 -1.1631
 5817SOL    HW323035   3.447   2.035   5.571  1.2067  0.6852  2.1492
 5817SOL    MW423036   3.445   2.122   5.563 -0.0832  0.5558  0.6046
 5818SOL     OW23037   5.449   0.889   2.106 -0.9148 -0.4589  0.0365
 5818SOL    HW223038   5.354   0.887   2.099 -0.9624  0.5690  0.2356
 5818SOL    HW323039   5.469   0.979   2.130  0.0490 -0.8800  0.9060
 5818SOL    MW423040   5.439   0.901   2.108 -0.7939 -0.3789  0.1775
 5819SOL     OW23041   1.083   2.139   2.398  0.1819 -0.3863 -0.0549
 5819SOL    HW223042   1.140   2.093   2.336 -1.3998 -1.4835 -0.7793
 5819SOL    HW323043   1.035   2.069   2.443 -2.9097  0.4461 -1.7559
 5819SOL    MW423044   1.084   2.123   2.396 -0.4347 -0.4212 -0.3749
 5820SOL     OW23045   4.617   4.416   5.518  0.1965  0.2223  0.2163
 5820SOL    HW223046   4.542   4.439   5.463  0.9733 -0.5193 -1.2244
 5820SOL    HW323047   4.607   4.323   5.535  0.7662  0.1237  0.0392
 5820SOL    MW423048   4.606   4.407   5.513  0.3741  0.1114  0.0029
 5821SOL     OW23049   1.143   1.543   5.199 -0.3641 -0.6607 -0.4285
 5821SOL    HW223050   1.135   1.470   5.138  0.3551 -0.4155 -0.8207
 5821SOL    HW323051   1.059   1.588   5.193  0.1933  0.2083 -2.3383
 5821SOL    MW423052   1.131   1.539   5.190 -0.1957 -0.5137 -0.7322
 5822SOL     OW23053   0.703   5.940   4.002  0.2081 -0.1800 -0.0004
 5822SOL    HW223054   0.738   6.028   3.995  1.1308 -0.5619 -0.3427
 5822SOL    HW323055   0.612   5.952   4.030 -0.0626  0.9252 -1.2857
 5822SOL    MW423056   0.696   5.953   4.005  0.2942 -0.0846 -0.2152
 5823SOL     OW23057   2.569   1.494   3.839  0.1120 -0.4191  0.0161
 5823SOL    HW223058   2.482   1.455   3.847 -1.0870  2.2045  1.0891
 5823SOL    HW323059   2.557   1.567   3.779  2.1847 -1.3887 -1.6973
 5823SOL    MW423060   2.556   1.498   3.832  0.2273 -0.2009 -0.0684
 5824SOL     OW23061   5.814   3.153   0.066 -0.2304 -0.3207 -0.1199
 5824SOL    HW223062   5.726   3.185   0.085 -0.0861  0.3191 -0.5160
 5824SOL    HW323063   5.869   3.188   0.136 -0.2731 -0.6610  0.0875
 5824SOL    MW423064   5.810   3.162   0.078 -0.2170 -0.2812 -0.1448
 5825SOL     OW23065   4.960   2.968   4.197  0.2244  0.2709 -0.0448
 5825SOL    HW223066   4.996   2.964   4.285 -0.1207 -1.1802  0.0449
 5825SOL    HW323067   5.035   2.952   4.140  0.3445  0.6546  0.0035
 5825SOL    MW423068   4.975   2.966   4.201  0.1947  0.1300 -0.0266
 5826SOL     OW23069   6.105   4.236   3.471 -1.1898 -0.2275  0.4603
 5826SOL    HW223070   6.071   4.325   3.479  1.1474  0.6174  2.0891
 5826SOL    HW323071   6.074   4.206   3.385 -0.6781  2.8121 -0.9199
 5826SOL    MW423072   6.096   4.244   3.461 -0.8139  0.2850  0.4931
 5827SOL     OW23073   3.092   5.061   1.775  0.1123 -0.6554 -0.3886
 5827SOL    HW223074   3.071   5.023   1.860  0.9047  1.0841  0.6363
 5827SOL    HW323075   3.009   5.098   1.744 -0.2446 -1.5595 -0.5445
 5827SOL    MW423076   3.078   5.061   1.782  0.1698 -0.5452 -0.2740
 5828SOL     OW23077   2.157   0.456   0.969 -0.1469  0.0286 -0.7220
 5828SOL    HW223078   2.123   0.544   0.986  1.1208  0.5315 -0.6596
 5828SOL    HW323079   2.133   0.438   0.878 -3.4720 -1.0417  0.2163
 5828SOL    MW423080   2.149   0.466   0.959 -0.4184 -0.0463 -0.5900
 5829SOL     OW23081   0.724   2.114   1.086  0.1993 -0.2369  0.4629
 5829SOL    HW223082   0.691   2.148   1.169  0.4577  1.4678 -0.0925
 5829SOL    HW323083   0.646   2.078   1.042 -0.3294  0.7732  0.5560
 5829SOL    MW423084   0.709   2.114   1.091  0.1637  0.1212  0.4019
 5830SOL     OW23085   2.044   1.384   6.288  0.4646 -0.3728 -0.3173
 5830SOL    HW223086   2.073   1.333   6.213 -0.3053 -1.6940  0.2598
 5830SOL    HW323087   1.964   1.341   6.318  0.6374  0.2519  1.1295
 5830SOL    MW423088   2.037   1.372   6.282  0.3858 -0.4647 -0.0502
 5831SOL     OW23089   5.248   3.715   2.994  0.1331 -0.0376  1.2729
 5831SOL    HW223090   5.304   3.746   3.065  1.4099 -0.5642  0.5270
 5831SOL    HW323091   5.309   3.680   2.928 -1.0096  0.3708 -0.0555
 5831SOL    MW423092   5.264   3.714   2.995  0.1508 -0.0532  0.9992
 5832SOL     OW23093   2.244   0.116   5.458  0.0383 -0.1443 -0.2430
 5832SOL    HW223094   2.311   0.152   5.516 -0.6474 -0.4963  0.7977
 5832SOL    HW323095   2.262   0.022   5.455  0.0938 -0.1208 -0.6278
 5832SOL    MW423096   2.255   0.108   5.466 -0.0449 -0.1876 -0.1565
 5833SOL     OW23097   1.708   3.046   2.972  0.5344  0.1035 -0.4341
 5833SOL    HW223098   1.720   3.105   2.897 -1.8836  0.4271 -0.6579
 5833SOL    HW323099   1.631   2.994   2.949  0.3379 -0.4849  1.4147
 5833SOL    MW423100   1.699   3.047   2.959  0.1894  0.0686 -0.2197
 5834SOL     OW23101   1.237   4.320   6.042  0.8420 -0.6454 -0.5227
 5834SOL    HW223102   1.245   4.261   6.117  1.3389  1.1551  0.9009
 5834SOL    HW323103   1.147   4.352   6.045  1.0249 -0.1397 -0.3567
 5834SOL    MW423104   1.227   4.316   6.052  0.9317 -0.3411 -0.3130
 5835SOL     OW23105   2.163   2.445   3.849  0.0422 -0.1680  0.0932
 5835SOL    HW223106   2.251   2.430   3.816  0.4780  1.5132  0.4029
 5835SOL    HW323107   2.105   2.422   3.776  0.8533  0.7591 -0.8768
 5835SOL    MW423108   2.167   2.440   3.835  0.2067  0.1761  0.0061
 5836SOL     OW23109   4.227   5.498   1.578  0.9781 -0.0524  0.5753
 5836SOL    HW223110   4.190   5.549   1.506 -0.1374 -0.3434  0.9191
 5836SOL    HW323111   4.248   5.563   1.646  1.0755  0.1181  0.3822
 5836SOL    MW423112   4.225   5.513   1.578  0.8438 -0.0683  0.5952
 5837SOL     OW23113   0.332   4.938   4.078  0.7958 -0.0486 -0.3921
 5837SOL    HW223114   0.383   4.907   4.152  0.5580  1.2872  0.3682
 5837SOL    HW323115   0.242   4.942   4.111  0.4010 -1.0457 -1.2862
 5837SOL    MW423116   0.327   4.934   4.092  0.7123 -0.0039 -0.4097
 5838SOL     OW23117   2.966   1.719   5.435 -0.2354 -0.5802 -0.4703
 5838SOL    HW223118   2.915   1.792   5.472 -1.8887 -1.2382 -1.3627
 5838SOL    HW323119   2.967   1.653   5.504 -0.4904 -0.5206 -0.4096
 5838SOL    MW423120   2.960   1.720   5.449 -0.4871 -0.6592 -0.5800
 5839SOL     OW23121   4.755   4.518   1.933  0.3152  0.3658  0.6230
 5839SOL    HW223122   4.791   4.562   1.856  1.1977 -0.6153  0.4587
 5839SOL    HW323123   4.812   4.443   1.947 -1.4494 -1.0633  0.5635
 5839SOL    MW423124   4.767   4.514   1.925  0.1988  0.0478  0.5934
 5840SOL     OW23125   2.165   2.700   1.143 -0.5472  0.0874 -0.1323
 5840SOL    HW223126   2.205   2.638   1.082 -0.5177  0.2863 -0.3182
 5840SOL    HW323127   2.215   2.781   1.131 -2.2618  0.9818 -1.8967
 5840SOL    MW423128   2.177   2.703   1.133 -0.7696  0.2317 -0.3896
 5841SOL     OW23129   4.429   1.804   0.555  0.3220  0.3461  0.5256
 5841SOL    HW223130   4.519   1.770   0.547  0.0491 -0.2548 -0.0840
 5841SOL    HW323131   4.406   1.833   0.467 -0.3646 -0.2392  0.5048
 5841SOL    MW423132   4.438   1.803   0.542  0.1954  0.1896  0.4424
 5842SOL     OW23133   1.779   2.348   0.234 -0.0222  0.0661  0.3138
 5842SOL    HW223134   1.771   2.313   0.322  1.0833  0.8014  0.7196
 5842SOL    HW323135   1.787   2.443   0.246 -1.6895  0.3772 -0.6867
 5842SOL    MW423136   1.779   2.356   0.247 -0.0963  0.2041  0.2353
 5843SOL     OW23137   1.459   1.826   0.459  0.0543  0.0786 -0.9840
 5843SOL    HW223138   1.445   1.772   0.536  0.4804  0.2829 -0.7594
 5843SOL    HW323139   1.476   1.764   0.388  1.1601 -0.0801 -0.6023
 5843SOL    MW423140   1.460   1.811   0.460  0.2564  0.0846 -0.9040
 5844SOL     OW23141   0.386   0.834   3.296 -0.2620  0.0885  0.4738
 5844SOL    HW223142   0.410   0.797   3.380 -1.0134 -0.4196  0.4749
 5844SOL    HW323143   0.438   0.786   3.232  2.0696  2.0105  0.7591
 5844SOL    MW423144   0.396   0.823   3.298 -0.0535  0.2751  0.5116
 5845SOL     OW23145   5.928   2.303   0.053  0.1344  0.2674 -0.8120
 5845SOL    HW223146   5.935   2.220   0.006 -0.6800  0.1018 -0.6521
 5845SOL    HW323147   5.923   2.370  -0.015  0.3691  0.1508 -0.9442
 5845SOL    MW423148   5.928   2.301   0.038  0.0579  0.2302 -0.8084
 5846SOL     OW23149   3.121   6.080   0.479 -0.1127  0.2005 -0.1481
 5846SOL    HW223150   3.133   6.141   0.553  1.3360 -1.0477  0.6931
 5846SOL    HW323151   3.091   5.999   0.520 -0.8463 -0.0388 -1.1339
 5846SOL    MW423152   3.118   6.078   0.494 -0.0184  0.0043 -0.1672
 5847SOL     OW23153   3.391   5.174   3.198 -0.1371  0.1116 -0.4621
 5847SOL    HW223154   3.429   5.260   3.182 -1.0044  0.6116  0.0561
 5847SOL    HW323155   3.399   5.127   3.115 -0.7007  1.1041 -1.0939
 5847SOL    MW423156   3.397   5.179   3.185 -0.3259  0.3085 -0.4771
 5848SOL     OW23157   0.164   3.939   6.154 -0.2968  0.1738 -0.6771
 5848SOL    HW223158   0.078   3.969   6.184 -0.1323 -1.1813  1.3516
 5848SOL    HW323159   0.207   4.017   6.120 -0.8755  1.6992  1.9044
 5848SOL    MW423160   0.158   3.953   6.153 -0.3514  0.1963 -0.0689
 5849SOL     OW23161   2.430   4.369   6.232  0.3660 -0.1880  0.2376
 5849SOL    HW223162   2.361   4.357   6.166  2.0112  0.0535 -1.6316
 5849SOL    HW323163   2.383   4.388   6.313 -1.7494  0.1063 -0.9867
 5849SOL    MW423164   2.415   4.370   6.234  0.3040 -0.1173 -0.1705
 5850SOL     OW23165   1.550   2.079   0.461  0.0259 -0.5087 -0.2297
 5850SOL    HW223166   1.500   1.999   0.472 -2.8341  1.0518 -0.7227
 5850SOL    HW323167   1.497   2.146   0.505  2.7217  1.0117  0.9025
 5850SOL    MW423168   1.536   2.078   0.468  0.0042 -0.1022 -0.1454
 5851SOL     OW23169   1.942   5.926   5.424  0.0498  0.4349  0.2189
 5851SOL    HW223170   2.000   5.952   5.352  0.5314  2.3005  1.2026
 5851SOL    HW323171   1.924   5.833   5.409  4.1479 -0.5588  0.4190
 5851SOL    MW423172   1.947   5.917   5.413  0.6540  0.5499  0.3751
 5852SOL     OW23173   2.108   4.061   3.595 -0.1542 -0.4850  0.2901
 5852SOL    HW223174   2.135   4.150   3.571 -0.4019 -0.5503 -0.2277
 5852SOL    HW323175   2.186   4.022   3.634 -0.4015  0.4023  1.7627
 5852SOL    MW423176   2.122   4.068   3.597 -0.2195 -0.3765  0.4161
 5853SOL     OW23177   1.674   5.049   0.289 -0.0887 -0.2572 -0.0009
 5853SOL    HW223178   1.709   5.138   0.287  0.7685 -0.6044 -0.7338
 5853SOL    HW323179   1.718   5.007   0.363 -0.5464 -0.0547  0.3891
 5853SOL    MW423180   1.684   5.055   0.298 -0.0360 -0.2763 -0.0461
 5854SOL     OW23181   3.144   2.470   5.078  0.0152 -0.4829  0.7737
 5854SOL    HW223182   3.056   2.436   5.090  0.6265 -2.2914  0.4052
 5854SOL    HW323183   3.199   2.416   5.136  0.8596  0.7933  1.2182
 5854SOL    MW423184   3.140   2.459   5.087  0.2073 -0.5531  0.7837
 5855SOL     OW23185   2.885   3.209   2.465 -0.5546  0.0685 -0.1795
 5855SOL    HW223186   2.876   3.249   2.379  0.1065 -0.5593 -0.5486
 5855SOL    HW323187   2.826   3.134   2.464  1.5678 -1.6850 -1.1717
 5855SOL    MW423188   2.876   3.204   2.454 -0.1874 -0.2457 -0.3591
 5856SOL     OW23189   4.919   5.258   5.908 -0.1762 -0.1106 -0.4456
 5856SOL    HW223190   5.002   5.252   5.860  0.8310 -0.4891  1.2624
 5856SOL    HW323191   4.852   5.252   5.840  1.1691 -1.4543 -1.7435
 5856SOL    MW423192   4.921   5.256   5.893  0.1342 -0.3378 -0.3915
 5857SOL     OW23193   0.554   5.416   0.005  0.1894 -0.0398  0.5148
 5857SOL    HW223194   0.545   5.417  -0.090 -2.4453 -0.6851  0.6906
 5857SOL    HW323195   0.524   5.329   0.031 -3.0964  1.4358  2.1798
 5857SOL    MW423196   0.549   5.404  -0.004 -0.5918  0.0697  0.7577
 5858SOL     OW23197   0.120   3.443   0.505 -0.1710  0.5476 -0.2427
 5858SOL    HW223198   0.112   3.495   0.425  0.7851  1.1750  0.0436
 5858SOL    HW323199   0.067   3.491   0.570 -0.1279  0.6013 -0.2467
 5858SOL    MW423200   0.112   3.456   0.503 -0.0392  0.6375 -0.2055
 5859SOL     OW23201   2.165   0.652   5.590  0.1654  0.0975 -0.2100
 5859SOL    HW223202   2.093   0.629   5.531 -1.3204  0.1022  1.4919
 5859SOL    HW323203   2.184   0.572   5.638 -0.1537  0.5853  0.7763
 5859SOL    MW423204   2.158   0.639   5.589 -0.0727  0.1625  0.1447
 5860SOL     OW23205   1.503   1.146   6.181  0.2767  0.0618 -0.0006
 5860SOL    HW223206   1.540   1.080   6.122  0.3182  0.3281 -0.2745
 5860SOL    HW323207   1.414   1.115   6.199  0.3973 -0.2274  0.1205
 5860SOL    MW423208   1.496   1.133   6.176  0.2981  0.0588 -0.0208
 5861SOL     OW23209   3.815   5.969   2.050  0.8994  0.1341 -0.1185
 5861SOL    HW223210   3.780   5.940   1.966  1.7946  0.8158 -0.7523
 5861SOL    HW323211   3.844   5.889   2.094  0.9159 -0.1837 -0.6988
 5861SOL    MW423212   3.815   5.955   2.045  1.0197  0.1821 -0.2787
 5862SOL     OW23213   3.287   4.886   4.930  0.1558 -0.1125 -0.2930
 5862SOL    HW223214   3.348   4.907   4.859 -1.3838 -0.5869 -1.8363
 5862SOL    HW323215   3.202   4.879   4.886 -1.1467  1.1645  1.8534
 5862SOL    MW423216   3.284   4.888   4.915 -0.2192 -0.0066 -0.2134
 5863SOL     OW23217   3.108   6.189   2.124 -0.5867  0.3178 -0.8707
 5863SOL    HW223218   3.188   6.197   2.072 -0.5021 -0.4937 -0.8819
 5863SOL    HW323219   3.106   6.097   2.150 -0.7498  0.6581  0.3653
 5863SOL    MW423220   3.118   6.178   2.120 -0.5971  0.2556 -0.7091
 5864SOL     OW23221   5.395   0.156   1.820  0.3930  0.3375 -0.3281
 5864SOL    HW223222   5.446   0.075   1.810 -0.5015 -0.2396 -0.4010
 5864SOL    HW323223   5.411   0.183   1.911  0.5925  0.0014 -0.2605
 5864SOL    MW423224   5.404   0.149   1.831  0.3013  0.2170 -0.3288
 5865SOL     OW23225   4.649   4.503   0.181 -0.7088 -0.5136 -0.1086
 5865SOL    HW223226   4.611   4.527   0.096 -0.9368 -1.6051 -0.3296
 5865SOL    HW323227   4.621   4.413   0.195  0.6599 -0.8836  0.3847
 5865SOL    MW423228   4.640   4.494   0.172 -0.5583 -0.7064 -0.0727
 5866SOL     OW23229   4.723   0.722   2.881  0.0502  0.3857  0.0662
 5866SOL    HW223230   4.750   0.806   2.844 -0.0555  0.0036 -0.9229
 5866SOL    HW323231   4.792   0.700   2.944 -0.7350  1.9657  1.5770
 5866SOL    MW423232   4.736   0.730   2.884 -0.0674  0.5437  0.1350
 5867SOL     OW23233   3.718   3.500   4.253 -0.5793  0.0515 -0.0080
 5867SOL    HW223234   3.775   3.542   4.318  1.5635 -2.1800 -0.3000
 5867SOL    HW323235   3.684   3.422   4.297  0.9579 -1.5361 -1.4768
 5867SOL    MW423236   3.721   3.495   4.268 -0.0938 -0.4524 -0.2403
 5868SOL     OW23237   6.057   2.532   4.314  0.1512 -0.5902 -0.2253
 5868SOL    HW223238   6.142   2.488   4.319  0.1325 -0.5133  1.2541
 5868SOL    HW323239   6.008   2.498   4.389 -0.2954  1.0482  0.2688
 5868SOL    MW423240   6.062   2.522   4.325  0.0898 -0.3639  0.0351
 5869SOL     OW23241   5.235   0.658   4.190  0.1347 -0.2462  0.1733
 5869SOL    HW223242   5.322   0.619   4.200  0.2339  0.0573  0.5145
 5869SOL    HW323243   5.252   0.750   4.175 -0.1422 -0.0653  0.8964
 5869SOL    MW423244   5.249   0.665   4.190  0.1113 -0.1823  0.3138
 5870SOL     OW23245   0.341   6.110   3.597 -0.6567 -0.7066 -0.3619
 5870SOL    HW223246   0.427   6.078   3.624 -0.3061 -0.1426 -0.7880
 5870SOL    HW323247   0.286   6.100   3.675 -0.0850 -0.6190  0.0574
 5870SOL    MW423248   0.345   6.104   3.611 -0.5350 -0.6207 -0.3628
 5871SOL     OW23249   0.117   2.932   0.512 -0.7790  0.8559 -0.0250
 5871SOL    HW223250   0.028   2.900   0.496 -0.5525 -0.2952  0.8844
 5871SOL    HW323251   0.110   3.027   0.503 -1.7900  0.6838 -1.3699
 5871SOL    MW423252   0.105   2.941   0.509 -0.8825  0.6813 -0.0825
 5872SOL     OW23253   3.947   5.418   5.228 -0.8094 -0.3413  0.5807
 5872SOL    HW223254   3.895   5.402   5.307 -0.4785 -0.8385  0.7081
 5872SOL    HW323255   4.010   5.345   5.226 -1.8096 -1.2392 -0.9761
 5872SOL    MW423256   3.948   5.406   5.238 -0.8977 -0.5253  0.3921
 5873SOL     OW23257   0.636   2.124   1.655  0.0674 -0.2536  0.0588
 5873SOL    HW223258   0.609   2.062   1.588  0.8365 -0.8682  0.3017
 5873SOL    HW323259   0.594   2.207   1.630 -2.1427 -1.1834  0.5312
 5873SOL    MW423260   0.627   2.127   1.643 -0.1227 -0.4574  0.1532
 5874SOL     OW23261   0.513   2.713   0.878  0.6356  0.1241  0.5992
 5874SOL    HW223262   0.600   2.705   0.839 -0.5799 -0.1955 -2.2647
 5874SOL    HW323263   0.489   2.623   0.902  0.8398  0.1339  0.8493
 5874SOL    MW423264   0.522   2.700   0.876  0.5021  0.0832  0.2543
 5875SOL     OW23265   6.099   1.217   1.000 -0.4324 -0.2810  0.3851
 5875SOL    HW223266   6.146   1.293   1.035 -0.0674 -0.6597  0.7279
 5875SOL    HW323267   6.155   1.143   1.021 -0.8366 -0.6573  0.1382
 5875SOL    MW423268   6.113   1.218   1.007 -0.4376 -0.3806  0.3977
 5876SOL     OW23269   1.629   5.140   6.040  0.9894  0.1094 -0.5473
 5876SOL    HW223270   1.609   5.219   5.990  0.5128  0.7583  0.6285
 5876SOL    HW323271   1.676   5.171   6.117 -0.7515 -0.5160  0.8519
 5876SOL    MW423272   1.632   5.154   6.044  0.6968  0.1125 -0.2076
 5877SOL     OW23273   1.220   4.298   3.609 -0.2777 -0.5812 -0.6192
 5877SOL    HW223274   1.283   4.358   3.569 -0.6554  1.2930  1.3746
 5877SOL    HW323275   1.134   4.329   3.578 -0.5427  0.6271  1.1370
 5877SOL    MW423276   1.217   4.310   3.600 -0.3625 -0.1745 -0.1244
 5878SOL     OW23277   3.764   3.451   3.271  0.1627 -0.2544 -0.3541
 5878SOL    HW223278   3.689   3.451   3.212  0.0042 -0.9972 -0.1593
 5878SOL    HW323279   3.760   3.367   3.316  0.4386  0.1829  0.5207
 5878SOL    MW423280   3.754   3.440   3.269  0.1782 -0.2947 -0.2130
 5879SOL     OW23281   2.486   5.506   0.910  0.1948 -0.5165  0.0061
 5879SOL    HW223282   2.544   5.457   0.968 -0.5504 -1.1582  0.2322
 5879SOL    HW323283   2.544   5.548   0.847  0.8591 -1.7842 -0.2512
 5879SOL    MW423284   2.501   5.505   0.909  0.1841 -0.7684  0.0020
 5880SOL     OW23285   4.525   4.967   0.089  0.6038 -0.0564  0.0947
 5880SOL    HW223286   4.443   4.921   0.106  0.8107 -0.1978  0.7268
 5880SOL    HW323287   4.593   4.910   0.126  0.9214  0.4366  0.2733
 5880SOL    MW423288   4.523   4.953   0.096  0.6730 -0.0100  0.2016
 5881SOL     OW23289   0.855   1.051   1.825 -0.1877 -0.1347 -0.0325
 5881SOL    HW223290   0.766   1.035   1.793 -0.7910 -0.6344  1.7606
 5881SOL    HW323291   0.843   1.083   1.915  1.4659 -0.9717  0.5268
 5881SOL    MW423292   0.841   1.053   1.833 -0.0491 -0.3111  0.2779
 5882SOL     OW23293   1.005   1.678   6.404  0.4680 -0.0182 -0.0749
 5882SOL    HW223294   1.009   1.761   6.358  1.2678 -0.2331 -0.4137
 5882SOL    HW323295   1.085   1.632   6.377  0.7417 -0.3259  1.1961
 5882SOL    MW423296   1.016   1.683   6.394  0.6096 -0.0872  0.0481
 5883SOL     OW23297   1.273   1.002   2.544 -0.3223 -0.6728 -0.3378
 5883SOL    HW223298   1.224   0.954   2.477  0.6905 -2.3622  0.0789
 5883SOL    HW323299   1.242   0.966   2.627 -1.2578  1.1099  0.1622
 5883SOL    MW423300   1.262   0.991   2.546 -0.3121 -0.6605 -0.2169
 5884SOL     OW23301   1.631   0.372   6.105  0.1360  0.0615  0.0640
 5884SOL    HW223302   1.577   0.445   6.076 -0.7627  0.4841  2.5550
 5884SOL    HW323303   1.595   0.296   6.060 -0.4739  0.8069 -0.7330
 5884SOL    MW423304   1.619   0.371   6.095 -0.0631  0.2156  0.2875
 5885SOL     OW23305   6.112   3.592   2.559 -1.0430  0.3595  0.4416
 5885SOL    HW223306   6.052   3.525   2.526 -2.8989  1.3850  1.5972
 5885SOL    HW323307   6.091   3.670   2.508  0.1584  0.4510  0.0566
 5885SOL    MW423308   6.101   3.594   2.548 -1.1293  0.5069  0.5433
 5886SOL     OW23309   5.007   0.142   5.579  0.5090  0.2583 -0.1502
 5886SOL    HW223310   4.920   0.115   5.550  0.9159 -3.5248  1.5261
 5886SOL    HW323311   4.993   0.225   5.624 -1.9236  0.5098 -1.2121
 5886SOL    MW423312   4.994   0.149   5.581  0.2417 -0.2077 -0.0691
 5887SOL     OW23313  -0.009   0.917   6.331  0.2519  0.3992  0.3071
 5887SOL    HW223314  -0.045   0.931   6.418 -0.5409 -1.7588  0.3880
 5887SOL    HW323315  -0.048   0.835   6.301  0.1326  1.3067 -2.2945
 5887SOL    MW423316  -0.019   0.908   6.339  0.1316  0.2342 -0.0255
 5888SOL     OW23317   4.387   3.854   1.951 -0.2038  0.0645 -0.5777
 5888SOL    HW223318   4.316   3.826   1.892 -1.0048  0.9331 -0.0573
 5888SOL    HW323319   4.380   3.794   2.026 -0.5299  0.2792 -0.4335
 5888SOL    MW423320   4.377   3.842   1.953 -0.3525  0.2074 -0.4900
 5889SOL     OW23321   4.368   4.611   2.345 -0.4481  0.7804 -0.1423
 5889SOL    HW223322   4.359   4.516   2.339  3.0793  0.2537  0.6294
 5889SOL    HW323323   4.344   4.643   2.259 -3.1227 -0.5685 -0.0144
 5889SOL    MW423324   4.364   4.602   2.333 -0.3356  0.5330 -0.0236
 5890SOL     OW23325   4.731   1.418   4.876 -0.2696  0.3908 -0.1990
 5890SOL    HW223326   4.713   1.428   4.783 -1.3605  0.3884  0.0008
 5890SOL    HW323327   4.645   1.423   4.918  0.1099 -0.5385  0.7313
 5890SOL    MW423328   4.718   1.420   4.869 -0.3635  0.2679 -0.0499
 5891SOL     OW23329   2.706   3.441   0.604 -0.0631  0.5585  0.3098
 5891SOL    HW223330   2.659   3.383   0.664  1.5894 -0.4059  0.7336
 5891SOL    HW323331   2.666   3.527   0.616 -1.3206 -0.1093  1.0457
 5891SOL    MW423332   2.695   3.445   0.613 -0.0110  0.3431  0.4628
 5892SOL     OW23333   2.457   2.324   3.167 -0.1833 -0.1271 -0.0823
 5892SOL    HW223334   2.481   2.412   3.141 -1.4241  0.9146  2.0407
 5892SOL    HW323335   2.419   2.285   3.089 -1.3052  1.8758 -0.5883
 5892SOL    MW423336   2.455   2.330   3.154 -0.4950  0.2746  0.1310
 5893SOL     OW23337   0.881   5.671   5.032 -0.0602 -0.1619  0.3971
 5893SOL    HW223338   0.900   5.750   4.981  2.8959 -0.7076  0.4706
 5893SOL    HW323339   0.787   5.658   5.022 -0.3961  2.5312 -0.8094
 5893SOL    MW423340   0.871   5.680   5.024  0.2855  0.1214  0.2476
 5894SOL     OW23341   5.224   1.784   0.336  0.6869  0.8167  0.2929
 5894SOL    HW223342   5.305   1.760   0.380  1.6472 -0.0123 -1.8147
 5894SOL    HW323343   5.247   1.860   0.283  0.1046  0.5376 -0.3741
 5894SOL    MW423344   5.238   1.791   0.335  0.7367  0.6705 -0.0731
 5895SOL     OW23345   4.748   6.281   3.912  0.1963  0.0780  0.2541
 5895SOL    HW223346   4.745   6.364   3.863  1.3130 -0.5590 -0.9645
 5895SOL    HW323347   4.711   6.303   3.997 -0.6872  1.5341 -0.4529
 5895SOL    MW423348   4.743   6.295   3.916  0.2270  0.1860  0.0000
 5896SOL     OW23349   0.734   3.439   6.403  0.2527 -0.0414 -0.0722
 5896SOL    HW223350   0.736   3.349   6.370  0.3388 -0.0971  0.0855
 5896SOL    HW323351   0.715   3.492   6.326 -0.4792 -0.2580 -0.0479
 5896SOL    MW423352   0.732   3.434   6.389  0.1675 -0.0773 -0.0482
 5897SOL     OW23353   0.268   1.179   3.360 -0.5581  0.2644 -0.3114
 5897SOL    HW223354   0.261   1.231   3.280 -1.5845  0.4710 -0.1037
 5897SOL    HW323355   0.230   1.094   3.337 -2.5887  0.9076  0.4259
 5897SOL    MW423356   0.262   1.174   3.346 -0.9615  0.3765 -0.1867
 5898SOL     OW23357   6.399   6.096   2.008 -0.1582 -0.0217  0.5912
 5898SOL    HW223358   6.388   6.189   2.029  0.3429 -0.3736  2.7129
 5898SOL    HW323359   6.360   6.050   2.082  1.8676 -1.4466  0.8698
 5898SOL    MW423360   6.392   6.102   2.021  0.1752 -0.2561  0.9079
 5899SOL     OW23361   3.431   2.417   4.498 -0.0264  0.1148  0.2026
 5899SOL    HW223362   3.342   2.400   4.467  0.1535 -0.0733 -0.2316
 5899SOL    HW323363   3.482   2.344   4.463  0.4915  0.7702 -0.4495
 5899SOL    MW423364   3.426   2.405   4.489  0.0657  0.1765  0.0593
 5900SOL     OW23365   2.930   4.170   2.629  0.4918 -0.3293 -0.4376
 5900SOL    HW223366   2.851   4.119   2.614  0.2390 -0.5617  1.4153
 5900SOL    HW323367   2.982   4.117   2.688  1.7307  0.1412 -1.0664
 5900SOL    MW423368   2.927   4.156   2.635  0.6219 -0.2979 -0.2761
 5901SOL     OW23369   5.933   2.292   5.885 -0.0127  0.2583  0.4352
 5901SOL    HW223370   6.019   2.292   5.928  0.4989 -0.2777 -0.5370
 5901SOL    HW323371   5.939   2.364   5.822 -0.4034  0.4358  0.6012
 5901SOL    MW423372   5.945   2.302   5.882  0.0033  0.2110  0.3288
 5902SOL     OW23373   5.370   4.004   0.739  0.5147  0.1888 -0.1136
 5902SOL    HW223374   5.461   3.995   0.710  0.6776  1.1214  0.0859
 5902SOL    HW323375   5.370   4.081   0.796 -0.1417 -0.5835  0.9714
 5902SOL    MW423376   5.382   4.013   0.743  0.4496  0.2100  0.0558
 5903SOL     OW23377   3.642   5.662   4.869  0.4809  0.0586  0.8875
 5903SOL    HW223378   3.715   5.639   4.812 -0.8855 -1.7450 -0.2835
 5903SOL    HW323379   3.607   5.742   4.831  0.2313 -0.5537 -0.2419
 5903SOL    MW423380   3.647   5.669   4.857  0.2677 -0.2601  0.5840
 5904SOL     OW23381   5.794   3.924   3.992  0.2803 -0.6277  0.0780
 5904SOL    HW223382   5.885   3.925   3.962  0.6531  0.0156  1.1863
 5904SOL    HW323383   5.797   3.963   4.079 -1.3202  1.1382 -0.5985
 5904SOL    MW423384   5.806   3.929   4.000  0.1183 -0.3098  0.1350
 5905SOL     OW23385   4.115   1.480   5.485 -0.1902  0.4097  0.1263
 5905SOL    HW223386   4.177   1.551   5.467  0.5486  0.2208  1.7466
 5905SOL    HW323387   4.126   1.419   5.413  0.8271  0.8521 -0.1090
 5905SOL    MW423388   4.124   1.482   5.473  0.0415  0.4431  0.3090
 5906SOL     OW23389   0.128   1.298   1.995 -0.4368 -0.2897  0.0416
 5906SOL    HW223390   0.124   1.394   2.001  0.0215 -0.0925 -2.1485
 5906SOL    HW323391   0.220   1.279   1.979 -0.6450 -1.0571 -0.2318
 5906SOL    MW423392   0.139   1.308   1.994 -0.4038 -0.3649 -0.2834
 5907SOL     OW23393   1.880   6.059   0.596  0.3542  0.1037  0.1093
 5907SOL    HW223394   1.962   6.107   0.588  1.2111 -1.4119 -0.6119
 5907SOL    HW323395   1.831   6.106   0.664  1.9685  0.8177  0.8295
 5907SOL    MW423396   1.884   6.072   0.604  0.6802 -0.0021  0.1092
 5908SOL     OW23397   0.532   5.866   0.801  0.4481  0.1232  0.1876
 5908SOL    HW223398   0.451   5.829   0.765  1.3249  0.7944 -2.6891
 5908SOL    HW323399   0.531   5.840   0.893 -1.7348 -2.1531 -0.3758
 5908SOL    MW423400   0.521   5.857   0.808  0.2758 -0.0886 -0.2663
 5909SOL     OW23401   1.605   4.690   0.344  0.4117  0.3599  0.2107
 5909SOL    HW223402   1.688   4.681   0.392 -0.7222  0.0268  2.2249
 5909SOL    HW323403   1.543   4.723   0.410 -1.3996 -0.7411 -0.8671
 5909SOL    MW423404   1.608   4.693   0.359  0.0231  0.1707  0.3343
 5910SOL     OW23405   4.962   5.284   4.351 -0.1594  0.5984  0.0549
 5910SOL    HW223406   5.021   5.358   4.335 -2.2874  2.4899  0.5247
 5910SOL    HW323407   4.968   5.268   4.445  1.3763 -0.8638 -0.2394
 5910SOL    MW423408   4.971   5.291   4.361 -0.2376  0.6551  0.0781
 5911SOL     OW23409   0.093   2.048   2.226  0.3275  0.5769  0.2067
 5911SOL    HW223410   0.117   2.137   2.201  0.2796  0.8198  1.0005
 5911SOL    HW323411   0.030   2.020   2.159  1.0404  0.7903 -0.5728
 5911SOL    MW423412   0.088   2.056   2.213  0.4152  0.6371  0.2086
 5912SOL     OW23413   2.083   3.187   0.539 -0.3376 -0.4691  0.0706
 5912SOL    HW223414   2.014   3.127   0.568 -0.4317 -0.5478 -0.3109
 5912SOL    HW323415   2.071   3.265   0.594 -1.5276  0.0164 -0.8312
 5912SOL    MW423416   2.072   3.189   0.550 -0.5070 -0.4154 -0.0987
 5913SOL     OW23417  -0.003   0.765   4.099  0.0399  0.5922  0.3985
 5913SOL    HW223418  -0.066   0.753   4.169 -1.3667  0.4311 -0.8399
 5913SOL    HW323419   0.033   0.852   4.113  0.0106  0.4417  1.4774
 5913SOL    MW423420  -0.007   0.775   4.110 -0.1495  0.5511  0.3775
 5914SOL     OW23421   1.425   2.884   0.522 -0.2771 -0.4306 -0.2077
 5914SOL    HW223422   1.486   2.952   0.493  0.3306 -0.9069 -0.0497
 5914SOL    HW323423   1.444   2.872   0.615 -1.2442  0.0670  0.0755
 5914SOL    MW423424   1.436   2.892   0.530 -0.3245 -0.4278 -0.1495
 5915SOL     OW23425   5.393   1.114   0.164  0.4216 -0.5439  0.3304
 5915SOL    HW223426   5.435   1.199   0.174 -1.8733  0.6352  0.5070
 5915SOL    HW323427   5.396   1.097   0.070  1.5208 -0.6443  0.3677
 5915SOL    MW423428   5.399   1.123   0.153  0.2638 -0.4016  0.3586
 5916SOL     OW23429   5.110   2.097   3.672  0.3942 -0.3871  0.2049
 5916SOL    HW223430   5.075   2.010   3.692 -0.9065 -0.0161 -0.3819
 5916SOL    HW323431   5.103   2.104   3.577  1.9391 -0.2241  0.0791
 5916SOL    MW423432   5.104   2.087   3.662  0.4264 -0.3166  0.1109
 5917SOL     OW23433   3.430   1.855   3.304 -0.1764 -0.5868 -0.5302
 5917SOL    HW223434   3.354   1.797   3.307  0.1994 -1.2103 -2.1591
 5917SOL    HW323435   3.443   1.874   3.211  0.3660  1.2727 -0.1222
 5917SOL    MW423436   3.422   1.850   3.292 -0.0553 -0.4237 -0.6912
 5918SOL     OW23437   4.449   1.029   3.729  0.6822 -0.0608  0.1696
 5918SOL    HW223438   4.415   0.964   3.668  0.0080  0.2854  0.1634
 5918SOL    HW323439   4.531   1.060   3.689  1.5394 -1.5940  0.6597
 5918SOL    MW423440   4.456   1.025   3.716  0.7063 -0.2174  0.2335
 5919SOL     OW23441   1.683   5.145   4.611 -0.0447 -0.1507 -0.4180
 5919SOL    HW223442   1.690   5.083   4.684  0.2794 -1.6921 -1.7079
 5919SOL    HW323443   1.767   5.192   4.612 -0.4158  0.5244  0.7670
 5919SOL    MW423444   1.695   5.143   4.621 -0.0509 -0.2650 -0.4319
 5920SOL     OW23445   4.034   2.632   6.024 -0.2141  0.3068 -0.0277
 5920SOL    HW223446   4.045   2.561   6.087  2.5341  0.1742 -0.5132
 5920SOL    HW323447   4.050   2.712   6.075  0.0023  0.3298 -0.1278
 5920SOL    MW423448   4.038   2.633   6.039  0.1770  0.2923 -0.1049
 5921SOL     OW23449   0.585   6.032   3.693  1.3236 -0.3034 -0.1010
 5921SOL    HW223450   0.596   6.081   3.774 -0.6681  0.7445 -0.4011
 5921SOL    HW323451   0.557   5.945   3.721  1.0533 -0.0710  0.3553
 5921SOL    MW423452   0.583   6.027   3.707  1.0252 -0.1345 -0.0804
 5922SOL     OW23453   3.353   2.119   2.155  0.4378 -0.4923 -0.1903
 5922SOL    HW223454   3.424   2.082   2.102  0.9313  0.0141  0.1076
 5922SOL    HW323455   3.386   2.116   2.245  0.1074 -0.1898 -0.0574
 5922SOL    MW423456   3.367   2.114   2.160  0.4593 -0.3855 -0.1334
 5923SOL     OW23457   6.391   2.847   4.896  0.5049  0.3197  0.5309
 5923SOL    HW223458   6.325   2.820   4.960  0.0970 -1.8114 -0.7073
 5923SOL    HW323459   6.343   2.854   4.814  1.4390  0.7731  0.0116
 5923SOL    MW423460   6.376   2.844   4.894  0.5743  0.0984  0.2990
 5924SOL     OW23461   5.305   2.884   5.488 -0.5714 -0.4488 -0.3691
 5924SOL    HW223462   5.314   2.828   5.410  0.2087  1.5005 -1.7579
 5924SOL    HW323463   5.339   2.830   5.560 -0.9605 -2.1790 -1.4055
 5924SOL    MW423464   5.311   2.869   5.487 -0.5198 -0.4199 -0.6891
 5925SOL     OW23465   4.097   3.121   0.214  0.0047  0.0814 -0.1430
 5925SOL    HW223466   4.065   3.205   0.248 -0.8679 -0.6874  0.9978
 5925SOL    HW323467   4.017   3.071   0.194  0.5131 -0.3916 -1.0929
 5925SOL    MW423468   4.082   3.126   0.216 -0.0433 -0.0824 -0.1178
 5926SOL     OW23469   3.599   3.028   0.507  0.5524  0.4453 -0.4342
 5926SOL    HW223470   3.682   2.984   0.521  0.0637 -0.7862 -1.2163
 5926SOL    HW323471   3.546   2.964   0.459 -0.2333  1.8472 -1.5157
 5926SOL    MW423472   3.603   3.014   0.502  0.3843  0.4678 -0.6801
 5927SOL     OW23473   5.658   5.360   3.845  0.2636  0.4933  0.2150
 5927SOL    HW223474   5.611   5.368   3.928 -1.0475 -1.5751 -0.2644
 5927SOL    HW323475   5.722   5.290   3.860  0.7839  0.8670 -0.2149
 5927SOL    MW423476   5.660   5.352   3.858  0.1593  0.2697  0.0950
 5928SOL     OW23477   5.886   0.194   0.173  0.1704  0.1119 -0.1123
 5928SOL    HW223478   5.889   0.290   0.171  3.4400  0.0972 -1.3540
 5928SOL    HW323479   5.867   0.168   0.083  2.2386 -0.3282 -0.4797
 5928SOL    MW423480   5.884   0.203   0.161  0.8746  0.0519 -0.3246
 5929SOL     OW23481   2.553   0.079   3.864  0.4951  0.1980 -0.0164
 5929SOL    HW223482   2.629   0.070   3.807  0.3032 -0.8682 -0.1211
 5929SOL    HW323483   2.478   0.084   3.804  0.3284 -0.5178  0.1312
 5929SOL    MW423484   2.553   0.079   3.849  0.4478 -0.0371 -0.0107
 5930SOL     OW23485   1.092   3.477   2.879  0.7636 -0.1970  0.0759
 5930SOL    HW223486   1.113   3.515   2.793 -0.4157  1.1082  0.3372
 5930SOL    HW323487   1.051   3.393   2.858 -2.2460  1.3610 -0.8620
 5930SOL    MW423488   1.090   3.471   2.865  0.2109  0.1808 -0.0134
 5931SOL     OW23489   2.824   4.432   6.333  0.6932  0.7072  0.1624
 5931SOL    HW223490   2.832   4.520   6.370 -0.1921  1.6000 -1.6282
 5931SOL    HW323491   2.812   4.447   6.239  0.8088 -1.3526 -0.2194
 5931SOL    MW423492   2.823   4.446   6.325  0.5917  0.5532 -0.1242
 5932SOL     OW23493   3.926   5.811   2.813 -0.4574  0.5722 -0.1616
 5932SOL    HW223494   3.886   5.870   2.876 -1.7911  1.0940 -1.4282
 5932SOL    HW323495   3.973   5.746   2.866 -0.8004  1.4808  1.3037
 5932SOL    MW423496   3.927   5.810   2.828 -0.6786  0.7609 -0.1354
 5933SOL     OW23497   1.676   3.133   4.302 -0.4267  0.2008 -0.3540
 5933SOL    HW223498   1.711   3.112   4.216  0.6319 -1.7699  0.4789
 5933SOL    HW323499   1.752   3.129   4.360 -1.4908 -1.0609  1.0407
 5933SOL    MW423500   1.691   3.130   4.298 -0.4274 -0.2257 -0.0601
 5934SOL     OW23501   4.743   1.580   0.891  0.7795  0.5038 -0.4732
 5934SOL    HW223502   4.831   1.558   0.924  0.8739  0.8293 -0.5078
 5934SOL    HW323503   4.702   1.495   0.876 -0.3718  0.1784  3.3684
 5934SOL    MW423504   4.749   1.566   0.894  0.6400  0.5038  0.0291
 5935SOL     OW23505   0.767   1.222   2.080  0.1170 -0.7172 -0.7638
 5935SOL    HW223506   0.751   1.313   2.051  0.5544 -0.4525 -0.1819
 5935SOL    HW323507   0.811   1.231   2.164 -1.4141 -1.4811  0.1538
 5935SOL    MW423508   0.770   1.235   2.087 -0.0273 -0.7830 -0.5660
 5936SOL     OW23509   0.387   1.396   1.378  0.1670 -0.2289 -0.0290
 5936SOL    HW223510   0.317   1.418   1.317 -0.5275  1.5839  1.3663
 5936SOL    HW323511   0.378   1.301   1.392 -2.0336 -0.0220  0.1674
 5936SOL    MW423512   0.377   1.386   1.372 -0.2150  0.0376  0.1810
 5937SOL     OW23513   1.396   2.207   0.673 -0.2510 -0.6715  0.3652
 5937SOL    HW223514   1.312   2.164   0.654 -0.8963 -0.1078  1.7656
 5937SOL    HW323515   1.434   2.155   0.744 -1.1792  1.1215  2.2875
 5937SOL    MW423516   1.390   2.194   0.680 -0.4586 -0.3605  0.8036
 5938SOL     OW23517   4.671   6.191   6.399 -0.7458 -0.4688  0.5928
 5938SOL    HW223518   4.707   6.146   6.475  2.6690 -0.4032 -0.7916
 5938SOL    HW323519   4.698   6.283   6.411 -1.0926 -0.2628 -0.1673
 5938SOL    MW423520   4.680   6.197   6.411 -0.3410 -0.4330  0.3098
 5939SOL     OW23521   0.876   1.651   5.174  0.5300  0.3549 -0.9106
 5939SOL    HW223522   0.865   1.706   5.251  1.0656  1.1400 -1.3764
 5939SOL    HW323523   0.810   1.683   5.112  0.6184  0.2592 -1.0553
 5939SOL    MW423524   0.866   1.663   5.176  0.6123  0.4459 -0.9912
 5940SOL     OW23525   6.263   0.820   0.296 -0.2883 -0.2236 -0.4271
 5940SOL    HW223526   6.321   0.888   0.263  0.0622 -0.3991 -0.1804
 5940SOL    HW323527   6.258   0.756   0.224  0.9504 -0.8995  0.0685
 5940SOL    MW423528   6.270   0.820   0.282 -0.0786 -0.3359 -0.3291
 5941SOL     OW23529   3.900   4.721   4.802 -0.0905  0.4080 -0.4747
 5941SOL    HW223530   3.995   4.720   4.805 -0.1157 -0.5220  0.5559
 5941SOL    HW323531   3.877   4.639   4.757 -0.4113 -0.0567  0.4998
 5941SOL    MW423532   3.909   4.710   4.796 -0.1361  0.2240 -0.2101
 5942SOL     OW23533   5.406   1.272   5.042 -0.4093  0.1821 -0.0675
 5942SOL    HW223534   5.379   1.202   4.983 -1.4620 -1.3449  2.0575
 5942SOL    HW323535   5.331   1.285   5.100  0.1126  2.4558  0.1944
 5942SOL    MW423536   5.392   1.264   5.042 -0.4793  0.2806  0.2474
 5943SOL     OW23537   2.690   4.944   0.031 -0.2073 -0.0563 -0.5098
 5943SOL    HW223538   2.713   5.022  -0.019 -0.7926  1.0357  0.8816
 5943SOL    HW323539   2.597   4.931   0.014 -0.5799  0.7488  0.8374
 5943SOL    MW423540   2.681   4.952   0.022 -0.3337  0.1940 -0.1485
 5944SOL     OW23541   3.617   4.817   4.887 -0.8138 -0.4240  0.2159
 5944SOL    HW223542   3.621   4.873   4.964 -0.8480 -0.5765  0.3304
 5944SOL    HW323543   3.707   4.811   4.856 -0.5246 -1.7368  1.2439
 5944SOL    MW423544   3.629   4.823   4.893 -0.7801 -0.6173  0.3666
 5945SOL     OW23545   1.111   5.313   4.485  0.3067 -0.7845 -0.2539
 5945SOL    HW223546   1.135   5.249   4.552 -0.0307  0.1283  0.7664
 5945SOL    HW323547   1.043   5.366   4.526 -0.6367 -0.8388 -1.6855
 5945SOL    MW423548   1.105   5.312   4.499  0.1377 -0.6712 -0.3082
 5946SOL     OW23549   6.000   3.769   5.409  0.0466 -0.3852  0.4812
 5946SOL    HW223550   6.030   3.854   5.442  2.3259 -0.5905 -0.8835
 5946SOL    HW323551   5.910   3.786   5.382  0.6779  1.8551 -0.4880
 5946SOL    MW423552   5.992   3.783   5.410  0.4307 -0.1167  0.1733
 5947SOL     OW23553   1.548   3.610   6.275 -0.5253  0.0327  1.0411
 5947SOL    HW223554   1.592   3.526   6.292  0.0718  0.1053 -0.0245
 5947SOL    HW323555   1.581   3.668   6.343 -1.6702 -0.8184  2.3812
 5947SOL    MW423556   1.558   3.606   6.286 -0.5976 -0.0700  1.0773
 5948SOL     OW23557   5.302   4.061   2.664 -0.2418  0.8069  0.0277
 5948SOL    HW223558   5.331   4.067   2.573 -1.3245  1.2411 -0.3126
 5948SOL    HW323559   5.359   3.996   2.704  1.3513  1.8095 -0.5179
 5948SOL    MW423560   5.313   4.054   2.658 -0.1745  0.9965 -0.0891
 5949SOL     OW23561   1.304   0.805   1.785  0.3622 -0.1761  0.7875
 5949SOL    HW223562   1.351   0.729   1.753 -2.0047 -1.5671  0.4225
 5949SOL    HW323563   1.262   0.775   1.866 -1.3710  0.3888  0.1470
 5949SOL    MW423564   1.304   0.791   1.792 -0.1788 -0.2851  0.6548
 5950SOL     OW23565   1.005   1.359   0.762  0.2670 -0.4119 -0.0420
 5950SOL    HW223566   0.953   1.330   0.838  0.6774 -1.1169 -0.0231
 5950SOL    HW323567   0.952   1.428   0.722 -0.1995 -0.3977  0.5829
 5950SOL    MW423568   0.991   1.364   0.767  0.2596 -0.5030  0.0430
 5951SOL     OW23569   2.064   2.587   0.395 -0.0389  0.4331  0.3314
 5951SOL    HW223570   2.085   2.639   0.473 -1.5011 -0.2073  1.2082
 5951SOL    HW323571   1.988   2.631   0.357  2.0070  2.1034 -2.1519
 5951SOL    MW423572   2.056   2.599   0.400  0.0381  0.5690  0.1195
 5952SOL     OW23573   4.549   2.645   4.843  0.2757  0.4985  0.6777
 5952SOL    HW223574   4.489   2.712   4.810 -0.2426  0.2572  1.1162
 5952SOL    HW323575   4.508   2.562   4.817  1.0567  0.3410 -0.1151
 5952SOL    MW423576   4.535   2.643   4.835  0.3104  0.4459  0.6310
 5953SOL     OW23577   0.740   4.942   4.334 -0.3425  0.2357  0.3754
 5953SOL    HW223578   0.818   4.887   4.339  1.0983  2.2630  3.5516
 5953SOL    HW323579   0.757   5.002   4.262 -0.3267 -1.0960 -0.7785
 5953SOL    MW423580   0.753   4.943   4.326 -0.1503  0.3275  0.6422
 5954SOL     OW23581   2.769   1.298   2.614 -0.0674  0.1046 -0.3606
 5954SOL    HW223582   2.769   1.339   2.527 -0.3289 -1.3566 -1.0813
 5954SOL    HW323583   2.854   1.321   2.651 -0.7778  2.5550 -0.0793
 5954SOL    MW423584   2.781   1.306   2.607 -0.1956  0.2351 -0.4186
 5955SOL     OW23585   3.440   2.700   1.329 -0.0900 -0.4074 -0.3104
 5955SOL    HW223586   3.439   2.781   1.278  0.4746  0.2267  0.6486
 5955SOL    HW323587   3.507   2.646   1.287  1.3658  0.6632  0.5475
 5955SOL    MW423588   3.449   2.704   1.317  0.1766 -0.1825 -0.0707
 5956SOL     OW23589   0.982   4.735   0.183 -0.8117 -0.4910  0.1587
 5956SOL    HW223590   1.000   4.813   0.132  0.0042  0.0936  1.2684
 5956SOL    HW323591   1.014   4.663   0.129  0.1616  0.1187 -0.1101
 5956SOL    MW423592   0.989   4.736   0.169 -0.5757 -0.3334  0.2696
 5957SOL     OW23593   4.918   3.644   4.792  0.1822 -0.1227  0.3721
 5957SOL    HW223594   4.919   3.591   4.713 -1.1476 -2.3682  1.7764
 5957SOL    HW323595   4.869   3.592   4.856 -1.4215  2.8977  1.8064
 5957SOL    MW423596   4.912   3.630   4.790 -0.2049 -0.0204  0.7466
 5958SOL     OW23597   2.676   1.466   0.111 -0.3228 -0.3755  0.3397
 5958SOL    HW223598   2.640   1.552   0.135  0.4590 -0.3096  1.3537
 5958SOL    HW323599   2.603   1.405   0.122 -0.1342 -0.2761  2.5408
 5958SOL    MW423600   2.662   1.469   0.115 -0.1948 -0.3537  0.7639
 5959SOL     OW23601   1.064   2.949   3.686 -0.4138 -0.3031 -0.2336
 5959SOL    HW223602   1.150   2.985   3.710 -0.7457  1.5507 -1.6471
 5959SOL    HW323603   1.040   2.895   3.762  0.8504  1.1734  1.3131
 5959SOL    MW423604   1.072   2.946   3.699 -0.2908  0.1363 -0.2161
 5960SOL     OW23605   4.242   0.627   5.148  0.7090  0.4321  0.5633
 5960SOL    HW223606   4.217   0.719   5.139 -1.9709 -0.3465 -1.1894
 5960SOL    HW323607   4.195   0.597   5.225  1.4340  0.4680  1.0252
 5960SOL    MW423608   4.233   0.635   5.157  0.4510  0.3341  0.3930
 5961SOL     OW23609   5.860   0.166   5.601 -0.0911 -0.8874  0.0046
 5961SOL    HW223610   5.852   0.183   5.507  0.8646 -2.0041 -0.3169
 5961SOL    HW323611   5.771   0.169   5.634 -0.6460 -2.0142 -1.2549
 5961SOL    MW423612   5.847   0.168   5.593 -0.0382 -1.1834 -0.2040
 5962SOL     OW23613   4.088   3.068   3.136  0.2704 -0.3048  0.4086
 5962SOL    HW223614   4.042   2.988   3.162 -0.2805  0.0968  0.7006
 5962SOL    HW323615   4.025   3.116   3.082  0.2671  0.3244  0.9449
 5962SOL    MW423616   4.074   3.064   3.132  0.1973 -0.1688  0.5179
 5963SOL     OW23617   4.930   4.856   2.286  0.3802 -0.2991 -0.3594
 5963SOL    HW223618   4.883   4.775   2.265 -0.6629 -0.3405  1.8912
 5963SOL    HW323619   4.915   4.869   2.379  1.3449  1.9922 -0.4654
 5963SOL    MW423620   4.922   4.847   2.295  0.3698 -0.0022 -0.0765
 5964SOL     OW23621   0.728   5.704   2.292  0.3700 -0.0353 -0.8220
 5964SOL    HW223622   0.765   5.640   2.231  1.2719 -0.4031  0.0936
 5964SOL    HW323623   0.799   5.765   2.310  0.3933 -0.4442  0.5513
 5964SOL    MW423624   0.742   5.704   2.286  0.4921 -0.1378 -0.5200
 5965SOL     OW23625   2.764   0.128   1.194 -0.1644  0.7414  0.4317
 5965SOL    HW223626   2.691   0.082   1.235 -0.5132  0.1681 -0.7934
 5965SOL    HW323627   2.839   0.110   1.252 -0.5383 -0.4210  0.5879
 5965SOL    MW423628   2.764   0.119   1.207 -0.2597  0.5124  0.2907
 5966SOL     OW23629   2.770   2.163   2.389  0.3721  0.1695 -0.2537
 5966SOL    HW223630   2.834   2.201   2.449  1.0131  0.7278 -1.2611
 5966SOL    HW323631   2.686   2.192   2.423  0.7475  0.8067  0.1584
 5966SOL    MW423632   2.767   2.172   2.402  0.5062  0.3272 -0.3322
 5967SOL     OW23633   2.749   3.306   4.642 -0.4881  0.7151  0.0035
 5967SOL    HW223634   2.655   3.314   4.626 -0.7537 -0.4548  0.8453
 5967SOL    HW323635   2.762   3.348   4.727 -0.2285  0.9090 -0.1288
 5967SOL    MW423636   2.738   3.313   4.651 -0.4889  0.5863  0.0971
 5968SOL     OW23637   1.151   1.938   5.753  0.4848  0.0349 -0.7575
 5968SOL    HW223638   1.175   2.015   5.701  1.0491  0.6669  0.3980
 5968SOL    HW323639   1.099   1.974   5.826 -0.3812 -0.8437 -0.9253
 5968SOL    MW423640   1.147   1.953   5.756  0.4450  0.0024 -0.6272
 5969SOL     OW23641   1.012   0.981   0.982  0.0241  0.5739  0.3684
 5969SOL    HW223642   1.106   0.963   0.977  0.1808  0.6188  2.3053
 5969SOL    HW323643   0.972   0.894   0.985 -0.1042  0.5415 -1.4929
 5969SOL    MW423644   1.019   0.967   0.982  0.0279  0.5756  0.3783
 5970SOL     OW23645   6.343   1.446   2.322  0.1318 -0.4085 -0.1234
 5970SOL    HW223646   6.323   1.381   2.254  0.6518  1.5126 -2.2562
 5970SOL    HW323647   6.331   1.530   2.278  0.1448  0.9572  2.3310
 5970SOL    MW423648   6.339   1.448   2.307  0.2021  0.0252 -0.0810
 5971SOL     OW23649   6.279   4.675   6.371  0.0089 -0.2688  0.4235
 5971SOL    HW223650   6.305   4.748   6.315  2.4975  0.9929  2.9707
 5971SOL    HW323651   6.188   4.657   6.346  0.7395  0.4653 -3.5720
 5971SOL    MW423652   6.270   4.682   6.360  0.4336 -0.0055  0.2324
 5972SOL     OW23653   2.688   2.990   3.990 -0.0807 -0.1744  0.0736
 5972SOL    HW223654   2.706   2.994   3.897 -1.2649 -0.5794 -0.1873
 5972SOL    HW323655   2.733   3.066   4.027 -0.0205  0.2668 -0.8960
 5972SOL    MW423656   2.696   3.000   3.983 -0.2290 -0.1696 -0.0887
 5973SOL     OW23657   5.846   3.260   1.835 -0.1159  0.0395  0.4167
 5973SOL    HW223658   5.845   3.212   1.918 -0.3407 -1.4703 -0.4123
 5973SOL    HW323659   5.813   3.347   1.857 -1.7156 -0.8135  1.6580
 5973SOL    MW423660   5.841   3.265   1.849 -0.3566 -0.2723  0.4711
 5974SOL     OW23661   1.925   5.327   4.724  0.4430  0.0953  0.0917
 5974SOL    HW223662   1.935   5.401   4.783  3.1693  0.5123 -0.7484
 5974SOL    HW323663   1.969   5.254   4.769  0.6466 -0.1392 -0.4758
 5974SOL    MW423664   1.932   5.327   4.738  0.8296  0.1194 -0.0940
 5975SOL     OW23665   4.300   2.655   1.430  0.1611  0.2782 -0.1393
 5975SOL    HW223666   4.353   2.734   1.415  2.4881 -1.2351 -0.4225
 5975SOL    HW323667   4.363   2.590   1.460 -1.8263 -1.2717  0.8988
 5975SOL    MW423668   4.316   2.657   1.432  0.2059 -0.1260 -0.0397
 5976SOL     OW23669   4.614   5.881   5.550 -0.0985  0.0935 -0.3129
 5976SOL    HW223670   4.555   5.909   5.480  1.0633  2.1341 -0.5785
 5976SOL    HW323671   4.700   5.874   5.507  0.7040  1.6990  0.8976
 5976SOL    MW423672   4.618   5.884   5.535  0.1607  0.5746 -0.1882
 5977SOL     OW23673   4.305   5.726   1.728  0.3512 -0.0410  1.3618
 5977SOL    HW223674   4.257   5.705   1.808 -0.0687  0.1275  1.1564
 5977SOL    HW323675   4.256   5.798   1.689 -1.8696 -2.6313 -1.1517
 5977SOL    MW423676   4.292   5.733   1.733  0.0028 -0.3606  1.0031
 5978SOL     OW23677   0.249   4.457   0.610  0.1502 -0.5097 -0.1662
 5978SOL    HW223678   0.282   4.425   0.694  0.1510 -0.7787 -0.2669
 5978SOL    HW323679   0.277   4.391   0.546 -0.8749 -0.9245 -0.2014
 5978SOL    MW423680   0.257   4.444   0.612  0.0150 -0.5999 -0.1841
 5979SOL     OW23681   2.048   5.641   5.965 -0.8350  0.5842 -0.1348
 5979SOL    HW223682   2.042   5.576   6.035 -0.1503  1.1062  0.4246
 5979SOL    HW323683   2.025   5.724   6.007 -3.2469  0.5337 -1.1856
 5979SOL    MW423684   2.044   5.644   5.979 -1.0629  0.6464 -0.1996
 5980SOL     OW23685   0.534   3.197   0.136  0.3074 -0.0629  0.0039
 5980SOL    HW223686   0.458   3.140   0.145 -1.4738  1.8975 -1.4581
 5980SOL    HW323687   0.567   3.209   0.225 -1.0254 -1.0733  0.6542
 5980SOL    MW423688   0.529   3.191   0.149 -0.1035  0.0625 -0.1032
 5981SOL     OW23689   5.053   1.552   2.987  0.2005 -0.0983 -0.2537
 5981SOL    HW223690   5.024   1.599   2.908 -0.9799  2.5310  1.5922
 5981SOL    HW323691   4.976   1.502   3.014 -0.3224  1.1450  0.6537
 5981SOL    MW423692   5.039   1.551   2.980 -0.0242  0.4127  0.1095
 5982SOL     OW23693   0.492   5.488   5.442 -0.0534 -0.1106  0.7610
 5982SOL    HW223694   0.494   5.529   5.355  0.6919 -0.7685  0.4561
 5982SOL    HW323695   0.553   5.415   5.435 -0.2501 -0.3780  1.7436
 5982SOL    MW423696   0.500   5.484   5.429  0.0190 -0.2327  0.8505
 5983SOL     OW23697   2.855   1.515   5.881 -0.8111  0.1217  0.2712
 5983SOL    HW223698   2.760   1.521   5.896 -0.7396  0.1156  0.7431
 5983SOL    HW323699   2.881   1.434   5.924 -0.9092 -0.9555 -1.5844
 5983SOL    MW423700   2.846   1.505   5.889 -0.8146 -0.0212  0.0887
 5984SOL     OW23701   5.384   4.088   6.219  0.3642  0.0183  1.3939
 5984SOL    HW223702   5.435   4.088   6.301  0.3968 -1.5207  1.3983
 5984SOL    HW323703   5.428   4.024   6.164  0.5517  1.2876  0.0017
 5984SOL    MW423704   5.397   4.080   6.222  0.3932 -0.0173  1.2108
 5985SOL     OW23705   2.807   5.081   1.280 -0.2630  0.3562 -0.2650
 5985SOL    HW223706   2.853   5.133   1.214 -0.7336  0.3224 -0.6248
 5985SOL    HW323707   2.759   5.145   1.332  2.4900  0.7441  2.0499
 5985SOL    MW423708   2.807   5.096   1.278  0.0381  0.4029 -0.0071
 5986SOL     OW23709   0.438   0.086   5.188 -0.8531 -0.2423  0.1404
 5986SOL    HW223710   0.393   0.054   5.110 -0.2804 -1.7314  0.3770
 5986SOL    HW323711   0.399   0.037   5.260  0.2875 -0.6831  0.4863
 5986SOL    MW423712   0.427   0.075   5.188 -0.6271 -0.4970  0.2172
 5987SOL     OW23713   4.423   1.677   4.244  0.1499 -0.1306  0.6083
 5987SOL    HW223714   4.405   1.718   4.328 -0.2438 -0.7722  0.8448
 5987SOL    HW323715   4.374   1.729   4.180 -0.0113  0.0127  0.8482
 5987SOL    MW423716   4.414   1.689   4.247  0.0767 -0.1964  0.6712
 5988SOL     OW23717   3.559   1.715   4.018 -0.3278 -0.1022 -0.6554
 5988SOL    HW223718   3.495   1.697   3.948 -0.2289 -2.3447 -0.2563
 5988SOL    HW323719   3.637   1.665   3.992 -0.4450 -1.3553  1.2400
 5988SOL    MW423720   3.561   1.706   4.005 -0.3302 -0.5634 -0.3526
 5989SOL     OW23721   4.221   5.739   6.095 -0.1827 -0.1950  0.6265
 5989SOL    HW223722   4.308   5.701   6.086  1.0999  2.5988  0.1544
 5989SOL    HW323723   4.205   5.740   6.189 -0.0037 -1.2715  0.6836
 5989SOL    MW423724   4.230   5.734   6.106  0.0101  0.0316  0.5717
 5990SOL     OW23725   1.637   2.654   6.028 -0.0039 -0.4136  0.4174
 5990SOL    HW223726   1.611   2.592   5.960  1.0752 -0.3451 -0.0792
 5990SOL    HW323727   1.613   2.611   6.110 -1.2952 -0.5076  0.0092
 5990SOL    MW423728   1.630   2.640   6.030 -0.0319 -0.4170  0.2981
 5991SOL     OW23729   0.805   5.517   2.110  0.2152  0.5065  0.0284
 5991SOL    HW223730   0.852   5.449   2.160 -1.0013  0.0993  0.6429
 5991SOL    HW323731   0.875   5.563   2.063  1.1356 -0.7920  0.0504
 5991SOL    MW423732   0.821   5.514   2.111  0.1761  0.2815  0.1124
 5992SOL     OW23733   1.208   5.703   2.967  0.3847 -0.5238 -0.3859
 5992SOL    HW223734   1.115   5.720   2.950  0.6892  2.4153  0.2783
 5992SOL    HW323735   1.252   5.725   2.885  0.5784 -1.2224 -0.4750
 5992SOL    MW423736   1.202   5.709   2.954  0.4504 -0.2282 -0.3100
 5993SOL     OW23737   0.470   5.159   3.961  0.1142  0.1902  0.2122
 5993SOL    HW223738   0.555   5.125   3.987  0.5853  0.8207 -0.4727
 5993SOL    HW323739   0.407   5.094   3.994  0.8988 -0.6385  0.1130
 5993SOL    MW423740   0.473   5.146   3.969  0.2799  0.1641  0.1088
 5994SOL     OW23741   5.946   2.818   3.823 -0.2501 -0.5162  0.3183
 5994SOL    HW223742   5.868   2.842   3.773 -1.0892 -2.0482  0.8181
 5994SOL    HW323743   6.009   2.788   3.758 -0.5939 -0.6072  0.0275
 5994SOL    MW423744   5.944   2.818   3.808 -0.4062 -0.7303  0.3459
 5995SOL     OW23745   5.400   5.586   3.829 -0.0723 -0.2623 -0.0205
 5995SOL    HW223746   5.308   5.610   3.838  0.1536  1.6986 -1.9615
 5995SOL    HW323747   5.425   5.553   3.915 -2.5080 -0.5948  0.6242
 5995SOL    MW423748   5.391   5.585   3.841 -0.3639 -0.0475 -0.1915
 5996SOL     OW23749   4.385   1.408   1.101 -0.4535 -0.0673  0.2698
 5996SOL    HW223750   4.346   1.477   1.047 -1.3613 -0.8882 -0.1532
 5996SOL    HW323751   4.312   1.369   1.148 -0.2629 -1.9205 -0.8562
 5996SOL    MW423752   4.371   1.412   1.100 -0.5481 -0.4201  0.0654
 5997SOL     OW23753   5.935   2.931   2.422  0.7446 -0.3077  0.2828
 5997SOL    HW223754   5.964   2.882   2.499  0.6991 -2.3301 -0.9268
 5997SOL    HW323755   5.842   2.948   2.438  0.9528  0.1547  1.0863
 5997SOL    MW423756   5.926   2.927   2.434  0.7660 -0.5135  0.2292
 5998SOL     OW23757   5.398   1.698   3.351 -0.1467 -0.2465 -0.5827
 5998SOL    HW223758   5.400   1.790   3.324  0.3216  0.6717  2.2067
 5998SOL    HW323759   5.490   1.671   3.350 -0.0729 -0.0730  0.3446
 5998SOL    MW423760   5.411   1.706   3.348 -0.0752 -0.1024 -0.0923
 5999SOL     OW23761   3.915   2.757   3.236  0.4552 -0.0414 -0.3428
 5999SOL    HW223762   3.888   2.843   3.270  2.1755  0.5314 -0.3016
 5999SOL    HW323763   3.982   2.727   3.298 -1.3110 -2.2774  0.6423
 5999SOL    MW423764   3.920   2.765   3.249  0.4492 -0.2609 -0.2074
 6000SOL     OW23765   2.940   1.433   0.204 -0.0103  0.2153 -0.2478
 6000SOL    HW223766   2.996   1.491   0.153  0.1898 -0.2364 -0.5439
 6000SOL    HW323767   2.851   1.465   0.187  0.1528  1.0307  0.3461
 6000SOL    MW423768   2.936   1.445   0.195  0.0376  0.2633 -0.2085
 6001SOL     OW23769   0.361   2.820   5.453  0.1245 -0.2352  0.2828
 6001SOL    HW223770   0.363   2.746   5.514  0.6447 -2.1294 -1.9006
 6001SOL    HW323771   0.443   2.813   5.404 -0.6289  0.6886 -1.1885
 6001SOL    MW423772   0.372   2.809   5.454  0.0937 -0.3632 -0.1994
 6002SOL     OW23773   1.968   2.966   1.461  0.2036  0.0910 -0.6630
 6002SOL    HW223774   1.935   3.016   1.386  0.1505  0.7424 -0.2172
 6002SOL    HW323775   1.996   2.883   1.424  0.4049  0.4967 -1.4442
 6002SOL    MW423776   1.967   2.962   1.446  0.2231  0.2305 -0.7073
 6003SOL     OW23777   2.410   5.998   3.523  0.2241  0.3416 -0.1955
 6003SOL    HW223778   2.332   6.002   3.468  0.0636  1.5256  0.0767
 6003SOL    HW323779   2.482   6.025   3.464  0.4477 -0.7901 -0.4580
 6003SOL    MW423780   2.410   6.002   3.508  0.2324  0.3485 -0.1942
 6004SOL     OW23781   4.621   3.433   5.957  0.3771 -0.2667 -0.5337
 6004SOL    HW223782   4.616   3.345   5.995 -1.2855  0.5299  1.2856
 6004SOL    HW323783   4.684   3.479   6.012  1.2481 -0.3022 -1.4848
 6004SOL    MW423784   4.628   3.428   5.969  0.2726 -0.1663 -0.4191
 6005SOL     OW23785   5.067   1.086   3.041  0.2821  0.0710  0.3635
 6005SOL    HW223786   5.146   1.132   3.073 -0.8009  0.5369  2.5695
 6005SOL    HW323787   5.017   1.154   2.997  0.0004  0.3820  1.1373
 6005SOL    MW423788   5.071   1.101   3.040  0.1020  0.1735  0.7567
 6006SOL     OW23789   2.983   0.669   4.740 -0.4705  0.3378 -0.1968
 6006SOL    HW223790   3.008   0.594   4.794  1.6403  1.6722  0.8138
 6006SOL    HW323791   2.968   0.632   4.653  0.8231 -1.2258  0.1874
 6006SOL    MW423792   2.984   0.654   4.736 -0.0213  0.3076 -0.0128
 6007SOL     OW23793   2.930   5.304   5.765  0.0725  0.3506  0.4243
 6007SOL    HW223794   2.932   5.385   5.716  0.3713  0.1678  0.1339
 6007SOL    HW323795   3.013   5.303   5.814 -0.1596  0.4654  0.8292
 6007SOL    MW423796   2.941   5.314   5.765  0.0813  0.3416  0.4394
 6008SOL     OW23797   0.231   5.017   4.730  0.6548  0.2400  0.2607
 6008SOL    HW223798   0.188   4.993   4.812  1.4413 -1.0568  0.3225
 6008SOL    HW323799   0.236   4.935   4.681 -1.3224  1.2639 -1.8620
 6008SOL    MW423800   0.226   5.003   4.734  0.4977  0.2040 -0.0112
 6009SOL     OW23801   3.376   6.264   0.288 -0.3735  0.3124 -0.2223
 6009SOL    HW223802   3.432   6.233   0.359 -0.3655  1.6857  0.4173
 6009SOL    HW323803   3.433   6.320   0.235 -0.3072 -0.9085 -1.5008
 6009SOL    MW423804   3.391   6.267   0.290 -0.3637  0.3325 -0.3066
 6010SOL     OW23805   0.603   5.734   6.089 -0.8673 -0.1412 -0.0677
 6010SOL    HW223806   0.517   5.759   6.121 -1.3815 -1.8478  0.0188
 6010SOL    HW323807   0.596   5.739   5.993 -0.8485  0.3397 -0.0457
 6010SOL    MW423808   0.591   5.738   6.080 -0.9327 -0.3029 -0.0534
 6011SOL     OW23809   0.658   4.141   2.413  0.0212  0.1757 -0.2030
 6011SOL    HW223810   0.617   4.059   2.385 -1.8778  0.6718  0.9148
 6011SOL    HW323811   0.706   4.119   2.492 -0.6259  0.1410  0.1901
 6011SOL    MW423812   0.659   4.128   2.419 -0.3147  0.2366 -0.0036
 6012SOL     OW23813   1.872   3.006   0.563  0.2268  0.3077  0.6140
 6012SOL    HW223814   1.864   2.950   0.640  0.8173  1.6449  1.6682
 6012SOL    HW323815   1.782   3.018   0.532  0.1338 -2.0111 -0.2674
 6012SOL    MW423816   1.859   3.000   0.569  0.2924  0.1782  0.6368
 6013SOL     OW23817   5.587   3.921   5.173 -0.2924  0.1973 -0.1674
 6013SOL    HW223818   5.587   3.878   5.088  2.5736 -2.3737  0.9597
 6013SOL    HW323819   5.528   3.868   5.227  0.9340 -0.6056  0.4294
 6013SOL    MW423820   5.579   3.909   5.169  0.2476 -0.2479  0.0601
 6014SOL     OW23821   4.927   3.807   5.656  0.4121 -0.3910 -0.1678
 6014SOL    HW223822   4.872   3.817   5.734  1.3321  0.9101  0.3618
 6014SOL    HW323823   5.016   3.803   5.690  0.8845  0.8191 -1.1560
 6014SOL    MW423824   4.931   3.808   5.671  0.5958 -0.0597 -0.2283
 6015SOL     OW23825   5.530   4.447   1.341  0.1772 -0.6642  0.0038
 6015SOL    HW223826   5.499   4.525   1.294 -0.1586  0.1284  1.4565
 6015SOL    HW323827   5.615   4.473   1.375 -0.3727 -0.5346  1.3510
 6015SOL    MW423828   5.537   4.461   1.339  0.0603 -0.5425  0.3732
 6016SOL     OW23829   2.068   0.517   1.979  0.0318 -0.0588  0.0129
 6016SOL    HW223830   2.006   0.582   1.947  1.1530  0.6783 -0.7337
 6016SOL    HW323831   2.085   0.542   2.069  0.1823  0.4639 -0.1608
 6016SOL    MW423832   2.062   0.529   1.987  0.1996  0.1074 -0.1085
 6017SOL     OW23833   6.174   5.558   0.354 -0.6994 -0.6126 -0.8370
 6017SOL    HW223834   6.137   5.476   0.322  0.7517 -1.5621 -0.1936
 6017SOL    HW323835   6.234   5.586   0.285 -0.9115 -0.2807 -0.8893
 6017SOL    MW423836   6.177   5.551   0.341 -0.5359 -0.6941 -0.7590
 6018SOL     OW23837   0.446   1.853   0.406 -0.3227 -0.3720  0.5154
 6018SOL    HW223838   0.393   1.843   0.327  0.5436 -0.0595 -0.1252
 6018SOL    HW323839   0.408   1.791   0.469 -0.8581 -0.8183 -0.2337
 6018SOL    MW423840   0.434   1.844   0.404 -0.2791 -0.3897  0.3321
 6019SOL     OW23841   1.532   2.868   0.154 -0.2598  0.0665  0.1609
 6019SOL    HW223842   1.596   2.905   0.094 -1.2680  1.0675 -0.3331
 6019SOL    HW323843   1.544   2.773   0.146  0.6176  0.2236 -0.5151
 6019SOL    MW423844   1.542   2.860   0.145 -0.2771  0.2193  0.0065
 6020SOL     OW23845   5.347   1.990   1.964 -0.6654 -0.7798  0.2683
 6020SOL    HW223846   5.283   2.056   1.939  0.1685  0.0910  0.3567
 6020SOL    HW323847   5.399   2.032   2.033  2.6165  0.1674 -2.4634
 6020SOL    MW423848   5.346   2.004   1.970 -0.1224 -0.5399 -0.0805
 6021SOL     OW23849   0.375   4.859   1.434 -0.3379  0.1702  0.4768
 6021SOL    HW223850   0.438   4.788   1.418  1.3690  2.0475 -1.9475
 6021SOL    HW323851   0.420   4.919   1.493  0.1395  1.3928 -1.0568
 6021SOL    MW423852   0.389   4.857   1.439 -0.0497  0.5792 -0.0454
 6022SOL     OW23853   1.545   3.595   3.546 -0.3282  0.4439 -0.2058
 6022SOL    HW223854   1.568   3.624   3.634  0.8857 -0.2527 -0.2687
 6022SOL    HW323855   1.541   3.676   3.495 -1.3496  0.8815  0.5399
 6022SOL    MW423856   1.548   3.609   3.551 -0.3028  0.4097 -0.1157
 6023SOL     OW23857   0.415   2.872   4.582 -0.4924 -0.3668  0.3211
 6023SOL    HW223858   0.347   2.816   4.545  0.3998 -1.3673  0.1527
 6023SOL    HW323859   0.431   2.938   4.515 -0.1523 -1.1056 -0.3362
 6023SOL    MW423860   0.408   2.874   4.569 -0.3298 -0.5963  0.2121
 6024SOL     OW23861   5.177   2.563   4.295 -0.0562  0.2588 -0.2669
 6024SOL    HW223862   5.141   2.478   4.320 -0.4494  0.5608  0.1768
 6024SOL    HW323863   5.130   2.586   4.215  0.1533 -0.0064 -0.4699
 6024SOL    MW423864   5.166   2.555   4.287 -0.0804  0.2636 -0.2352
 6025SOL     OW23865   4.564   5.049   5.870 -0.4671 -0.1871 -0.2894
 6025SOL    HW223866   4.535   4.963   5.901 -0.3745  0.0343  0.4326
 6025SOL    HW323867   4.492   5.080   5.815 -0.9019 -0.3404  0.1809
 6025SOL    MW423868   4.551   5.042   5.867 -0.5122 -0.1781 -0.1321
 6026SOL     OW23869   4.463   4.105   6.305 -0.9276 -0.2331 -0.1616
 6026SOL    HW223870   4.442   4.088   6.214 -0.0017 -0.7534 -0.2944
 6026SOL    HW323871   4.541   4.052   6.322 -1.5555 -0.7847  1.1558
 6026SOL    MW423872   4.471   4.096   6.295 -0.8883 -0.3745 -0.0053
 6027SOL     OW23873   3.800   3.923   0.108 -0.0982 -0.1924 -0.9473
 6027SOL    HW223874   3.783   3.858   0.176 -1.0827 -1.5555 -2.4220
 6027SOL    HW323875   3.879   3.893   0.065  0.8984  1.0258 -0.0412
 6027SOL    MW423876   3.808   3.911   0.112 -0.0966 -0.2115 -1.0223
 6028SOL     OW23877   3.482   3.186   4.211 -0.1825 -0.5437  0.4494
 6028SOL    HW223878   3.467   3.265   4.159  1.6037 -2.2880 -3.0256
 6028SOL    HW323879   3.561   3.205   4.262 -0.7897  0.4818  1.0428
 6028SOL    MW423880   3.490   3.199   4.211 -0.0270 -0.6385  0.0692
 6029SOL     OW23881   2.147   4.808   0.417 -0.0072  0.3956 -0.7513
 6029SOL    HW223882   2.231   4.766   0.431  1.0799  2.3855 -0.9396
 6029SOL    HW323883   2.083   4.745   0.450  1.5338 -1.1270 -0.5174
 6029SOL    MW423884   2.149   4.794   0.423  0.3396  0.4572 -0.7453
 6030SOL     OW23885   5.833   4.596   0.297 -0.5376  0.0536  0.2760
 6030SOL    HW223886   5.770   4.631   0.235 -0.6780  1.0650  0.9779
 6030SOL    HW323887   5.845   4.665   0.362  0.0698 -0.7455  1.0453
 6030SOL    MW423888   5.827   4.609   0.298 -0.4760  0.0816  0.4701
 6031SOL     OW23889   2.444   4.458   1.286 -0.7753 -0.1241  0.0811
 6031SOL    HW223890   2.377   4.461   1.355  1.9289  2.0889  2.8984
 6031SOL    HW323891   2.495   4.379   1.305  1.1181  1.4347  2.0281
 6031SOL    MW423892   2.442   4.448   1.298 -0.1687  0.3736  0.7097
 6032SOL     OW23893   3.146   1.644   6.200  0.2931 -0.1748 -0.1934
 6032SOL    HW223894   3.085   1.669   6.130  1.2674  2.4483 -0.1992
 6032SOL    HW323895   3.224   1.698   6.185  1.1024 -0.5976  2.0934
 6032SOL    MW423896   3.148   1.655   6.189  0.5284  0.1155  0.1076
 6033SOL     OW23897   1.027   4.820   5.547 -0.4229 -0.0564 -0.1891
 6033SOL    HW223898   1.103   4.774   5.583 -0.0745  0.3948 -0.3370
 6033SOL    HW323899   0.962   4.751   5.532 -0.6260 -0.2543  1.4114
 6033SOL    MW423900   1.028   4.805   5.550 -0.4038 -0.0230  0.0025
 6034SOL     OW23901   4.425   6.053   3.689 -0.8605 -0.6229 -0.7322
 6034SOL    HW223902   4.333   6.031   3.675 -0.5371  0.0021 -5.2514
 6034SOL    HW323903   4.473   5.975   3.664 -0.0121 -1.2270  2.3511
 6034SOL    MW423904   4.419   6.040   3.684 -0.7059 -0.6202 -0.9217
 6035SOL     OW23905   2.263   4.745   1.436  0.4019 -0.1110  0.0657
 6035SOL    HW223906   2.245   4.651   1.435 -0.5142  0.0546  0.1287
 6035SOL    HW323907   2.181   4.785   1.464  0.6237  0.7435 -0.4557
 6035SOL    MW423908   2.250   4.738   1.439  0.3103  0.0236  0.0052
 6036SOL     OW23909   5.523   5.594   2.265  0.3913 -0.1607 -0.2312
 6036SOL    HW223910   5.598   5.653   2.256  1.4377 -1.0569  1.8619
 6036SOL    HW323911   5.560   5.506   2.254 -0.5589 -0.5755 -0.2223
 6036SOL    MW423912   5.538   5.590   2.262  0.4040 -0.3337  0.0461
 6037SOL     OW23913   5.520   1.265   2.715  0.7615  0.3736 -0.5761
 6037SOL    HW223914   5.470   1.299   2.642 -0.2421  0.2657  0.0354
 6037SOL    HW323915   5.597   1.321   2.721  0.9973  0.2004 -1.8776
 6037SOL    MW423916   5.523   1.276   2.706  0.6602  0.3365 -0.6671
 6038SOL     OW23917   4.731   5.264   5.695  0.3441  0.3805 -0.5194
 6038SOL    HW223918   4.636   5.260   5.686  0.1001  0.1663  1.5243
 6038SOL    HW323919   4.763   5.187   5.648 -0.6677 -0.5465  0.2494
 6038SOL    MW423920   4.723   5.253   5.688  0.1784  0.2299 -0.1483
 6039SOL     OW23921   1.738   6.212   0.786  0.0271  0.2145 -0.0398
 6039SOL    HW223922   1.726   6.270   0.711  0.5577 -0.3841 -0.6006
 6039SOL    HW323923   1.649   6.182   0.807 -0.1876  0.8108 -0.0716
 6039SOL    MW423924   1.725   6.216   0.779  0.0688  0.2142 -0.1180
 6040SOL     OW23925   5.602   5.262   5.273 -0.0690 -0.3442  0.4931
 6040SOL    HW223926   5.624   5.181   5.319  0.4784 -0.5964 -0.2014
 6040SOL    HW323927   5.616   5.242   5.180 -0.0385  0.5108  0.3037
 6040SOL    MW423928   5.606   5.249   5.267  0.0072 -0.2647  0.3765
 6041SOL     OW23929   1.033   6.121   4.208 -0.3791 -0.1131 -0.2374
 6041SOL    HW223930   0.989   6.181   4.267 -1.9960 -0.0638 -1.4341
 6041SOL    HW323931   0.996   6.140   4.121  2.0729 -0.0046 -1.3460
 6041SOL    MW423932   1.023   6.131   4.204 -0.2690 -0.0923 -0.5416
 6042SOL     OW23933   4.188   3.046   1.342 -0.6203  0.3180  0.0655
 6042SOL    HW223934   4.247   3.050   1.417  1.3568 -0.4184 -1.3513
 6042SOL    HW323935   4.231   3.098   1.274 -1.4743 -0.4516 -1.1176
 6042SOL    MW423936   4.201   3.054   1.343 -0.4721  0.1193 -0.2776
 6043SOL     OW23937   2.569   2.150   1.508 -0.7082 -0.6458  0.6822
 6043SOL    HW223938   2.607   2.236   1.492 -0.6464 -0.7054  0.5074
 6043SOL    HW323939   2.642   2.089   1.493 -0.3020 -0.6275  2.3967
 6043SOL    MW423940   2.584   2.153   1.504 -0.6465 -0.6512  0.8853
 6044SOL     OW23941   4.219   0.495   5.612  0.3394 -0.3040  0.2901
 6044SOL    HW223942   4.187   0.497   5.522  1.5928 -1.6347 -0.2267
 6044SOL    HW323943   4.258   0.581   5.626 -0.3731  0.1117 -0.2372
 6044SOL    MW423944   4.220   0.506   5.602  0.4108 -0.4247  0.1524
 6045SOL     OW23945   3.788   6.168   1.751 -0.1993 -0.2880  0.3151
 6045SOL    HW223946   3.726   6.187   1.821  0.5035  1.7779  0.4413
 6045SOL    HW323947   3.740   6.184   1.670 -0.2003  0.0875  0.3891
 6045SOL    MW423948   3.774   6.173   1.750 -0.1067  0.0341  0.3415
 6046SOL     OW23949   3.814   5.970   4.795 -0.2209  0.4794  0.3232
 6046SOL    HW223950   3.760   5.975   4.874  0.5478  1.8558  0.8063
 6046SOL    HW323951   3.758   5.929   4.729 -1.0440 -0.2542  1.4424
 6046SOL    MW423952   3.800   5.966   4.797 -0.2281  0.5642  0.5346
 6047SOL     OW23953   0.793   2.255   3.156  0.0266 -0.4529  0.0876
 6047SOL    HW223954   0.770   2.167   3.187 -1.3703  0.6734  2.5578
 6047SOL    HW323955   0.776   2.253   3.062 -3.6343 -1.8220  0.5993
 6047SOL    MW423956   0.788   2.243   3.148 -0.6407 -0.4850  0.4810
 6048SOL     OW23957   2.534   1.680   4.771  0.1039  0.4400  0.1964
 6048SOL    HW223958   2.479   1.707   4.844 -0.3667  2.6076 -0.8684
 6048SOL    HW323959   2.472   1.641   4.708  0.3535 -0.4878  0.5186
 6048SOL    MW423960   2.518   1.679   4.772  0.0747  0.6036  0.0984
 6049SOL     OW23961   5.300   0.163   3.149 -0.4119 -0.2297  0.4873
 6049SOL    HW223962   5.376   0.220   3.140 -0.0105 -0.9401 -1.0607
 6049SOL    HW323963   5.334   0.083   3.187 -0.3607 -0.5404 -0.1875
 6049SOL    MW423964   5.314   0.160   3.153 -0.3522 -0.3644  0.1940
 6050SOL     OW23965   4.532   6.170   1.341  0.2136 -0.0708 -0.6795
 6050SOL    HW223966   4.471   6.104   1.374  2.1701 -1.1127  1.1197
 6050SOL    HW323967   4.549   6.226   1.417  1.1966  0.4184 -1.2383
 6050SOL    MW423968   4.526   6.169   1.356  0.6015 -0.1437 -0.5158
 6051SOL     OW23969   3.603   4.501   0.725 -0.0034  0.3467  0.0604
 6051SOL    HW223970   3.590   4.417   0.768  0.4076  0.4047  0.3042
 6051SOL    HW323971   3.551   4.496   0.645  2.6986 -1.5096 -1.7667
 6051SOL    MW423972   3.594   4.489   0.720  0.4073  0.1094 -0.1485
 6052SOL     OW23973   0.681   6.389   4.999 -0.5065  0.8559  0.4085
 6052SOL    HW223974   0.657   6.313   5.052  2.5280 -0.6135 -0.1270
 6052SOL    HW323975   0.724   6.448   5.060 -0.6568  1.0311  0.3464
 6052SOL    MW423976   0.684   6.387   5.014 -0.1260  0.6852  0.3296
 6053SOL     OW23977   2.547   2.525   5.215 -0.3174 -0.2150 -0.2450
 6053SOL    HW223978   2.509   2.612   5.228 -0.5302 -0.2252 -0.7718
 6053SOL    HW323979   2.640   2.537   5.232 -0.4105  0.0158  0.1305
 6053SOL    MW423980   2.554   2.538   5.219 -0.3578 -0.1859 -0.2649
 6054SOL     OW23981   4.325   3.864   4.342  0.1516 -0.3066 -0.1286
 6054SOL    HW223982   4.372   3.890   4.422  0.1446  0.8251 -0.4826
 6054SOL    HW323983   4.323   3.943   4.288 -2.4508 -0.1940  0.0072
 6054SOL    MW423984   4.331   3.878   4.346 -0.1926 -0.1424 -0.1574
 6055SOL     OW23985   4.735   0.017   3.142  0.0743 -0.2240  0.7976
 6055SOL    HW223986   4.642   0.041   3.143 -0.5584 -2.3588  2.7960
 6055SOL    HW323987   4.738  -0.063   3.089  0.7346 -0.3339  0.9912
 6055SOL    MW423988   4.723   0.009   3.135  0.0779 -0.5201  1.0868
 6056SOL     OW23989   2.374   2.222   2.925  0.2030 -0.1704 -0.1780
 6056SOL    HW223990   2.323   2.170   2.863 -0.2288 -0.7629  0.6502
 6056SOL    HW323991   2.356   2.313   2.902 -0.7823 -0.3791 -0.2525
 6056SOL    MW423992   2.365   2.227   2.913  0.0160 -0.2761 -0.0785
 6057SOL     OW23993   6.147   3.096   1.074 -0.3258 -0.0080  0.4653
 6057SOL    HW223994   6.212   3.026   1.064  0.6731  0.9906 -0.1817
 6057SOL    HW323995   6.112   3.108   0.986 -0.1726  0.6193  0.4914
 6057SOL    MW423996   6.151   3.088   1.061 -0.1738  0.2065  0.3834
 6058SOL     OW23997   6.196   0.886   4.716  0.6466 -0.3745  0.4762
 6058SOL    HW223998   6.232   0.825   4.651  1.2747 -0.2847  0.7300
 6058SOL    HW323999   6.235   0.857   4.799 -0.7129 -0.9415  0.9418
 6058SOL    MW424000   6.206   0.874   4.719  0.5501 -0.4374  0.5711
 6059SOL     OW24001   2.965   4.528   0.625  0.3482 -0.1744 -0.0339
 6059SOL    HW224002   2.955   4.545   0.719  0.4489  0.1169 -0.0773
 6059SOL    HW324003   3.017   4.601   0.592 -1.5988  0.9539 -0.7430
 6059SOL    MW424004   2.971   4.540   0.633  0.1046  0.0129 -0.1331
 6060SOL     OW24005   1.292   4.875   5.234  0.7095 -0.0397 -0.2741
 6060SOL    HW224006   1.326   4.826   5.159 -1.1904 -0.6953 -0.7587
 6060SOL    HW324007   1.304   4.816   5.309 -0.9962 -1.0719 -0.7547
 6060SOL    MW424008   1.298   4.861   5.234  0.2338 -0.2624 -0.4014
 6061SOL     OW24009   4.276   6.209   0.578  0.9168  0.0343 -0.7382
 6061SOL    HW224010   4.205   6.235   0.520  0.9047  1.1969 -0.2324
 6061SOL    HW324011   4.353   6.257   0.545  0.9083  0.7089  0.1826
 6061SOL    MW424012   4.277   6.219   0.566  0.9140  0.2767 -0.5500
 6062SOL     OW24013   3.699   3.526   6.285 -0.4923 -0.2373 -0.1334
 6062SOL    HW224014   3.661   3.561   6.366  0.6554  0.8847 -0.0503
 6062SOL    HW324015   3.747   3.600   6.248 -0.7729 -0.8237 -1.7075
 6062SOL    MW424016   3.700   3.541   6.291 -0.3779 -0.1666 -0.3301
 6063SOL     OW24017   1.924   0.195   6.248 -0.1036  0.1671  0.1609
 6063SOL    HW224018   1.847   0.178   6.301  0.8156  0.2409  1.5663
 6063SOL    HW324019   1.933   0.291   6.248  0.1252  0.1473  0.2146
 6063SOL    MW424020   1.915   0.206   6.255  0.0479  0.1742  0.3534
 6064SOL     OW24021   4.159   1.770   3.400  0.3980 -0.1714  1.1125
 6064SOL    HW224022   4.171   1.715   3.323 -0.7368 -1.0031  1.5070
 6064SOL    HW324023   4.076   1.815   3.385 -0.0870 -0.7202  2.0628
 6064SOL    MW424024   4.150   1.769   3.388  0.1843 -0.3535  1.2900
 6065SOL     OW24025   2.129   0.264   2.441  0.1052 -0.3840  0.0380
 6065SOL    HW224026   2.219   0.295   2.436  0.1593 -0.3072  1.3406
 6065SOL    HW324027   2.110   0.233   2.352  1.0274  0.6263 -0.5380
 6065SOL    MW424028   2.138   0.264   2.428  0.2340 -0.2406  0.1339
 6066SOL     OW24029   6.013   4.556   0.074  0.1632  0.6757 -0.3120
 6066SOL    HW224030   5.969   4.566   0.158  0.7854  0.7766  0.0045
 6066SOL    HW324031   5.943   4.566   0.009 -0.0713  2.0888  0.1332
 6066SOL    MW424032   5.998   4.558   0.076  0.2143  0.8755 -0.2115
 6067SOL     OW24033   6.140   3.696   2.825  0.1423  0.2634 -0.3862
 6067SOL    HW224034   6.117   3.698   2.732 -0.7780 -1.6405 -0.2511
 6067SOL    HW324035   6.187   3.614   2.836  0.2566  0.4781  0.8499
 6067SOL    MW424036   6.143   3.686   2.814  0.0359  0.0405 -0.2053
 6068SOL     OW24037   5.490   3.660   6.127  0.2643  0.1592  0.9215
 6068SOL    HW224038   5.457   3.587   6.074  2.2417 -1.7845  2.1364
 6068SOL    HW324039   5.426   3.671   6.196 -0.4237  0.0716  0.3062
 6068SOL    MW424040   5.477   3.652   6.129  0.4345 -0.1088  1.0006
 6069SOL     OW24041   1.138   4.987   5.908 -0.1723 -0.0239  0.2702
 6069SOL    HW224042   1.052   5.005   5.870 -0.2810  0.3260  0.6703
 6069SOL    HW324043   1.201   5.011   5.840 -0.3260  1.4711  0.6008
 6069SOL    MW424044   1.135   4.993   5.894 -0.2069  0.2195  0.3666
 6070SOL     OW24045   2.504   5.904   5.139  0.1681  0.2230 -0.3916
 6070SOL    HW224046   2.587   5.870   5.107  0.0016  0.4102 -1.0468
 6070SOL    HW324047   2.449   5.910   5.061 -0.1296  1.0468 -0.1362
 6070SOL    MW424048   2.507   5.901   5.125  0.1068  0.3564 -0.4444
 6071SOL     OW24049   3.602   3.887   3.724 -0.6828  0.3427  0.3124
 6071SOL    HW224050   3.555   3.957   3.679 -1.0258  0.2809  0.5713
 6071SOL    HW324051   3.693   3.915   3.724 -0.6941  0.3960 -0.3251
 6071SOL    MW424052   3.608   3.900   3.718 -0.7295  0.3416  0.2624
 6072SOL     OW24053   2.011   4.934   5.558  0.5354 -0.2222  0.3353
 6072SOL    HW224054   1.985   4.991   5.630  0.9645  0.4773 -0.0554
 6072SOL    HW324055   2.053   4.992   5.494  1.0794 -0.9847 -0.0222
 6072SOL    MW424056   2.013   4.949   5.559  0.6638 -0.2305  0.2366
 6073SOL     OW24057   5.916   4.429   3.186 -0.2154  0.0644  0.7404
 6073SOL    HW224058   5.855   4.452   3.256 -0.2854  0.0880  0.6729
 6073SOL    HW324059   5.985   4.495   3.190  0.0775 -0.2623  1.1481
 6073SOL    MW424060   5.917   4.441   3.195 -0.1860  0.0244  0.7853
 6074SOL     OW24061   2.357   2.515   1.027  0.5728 -0.2312  0.0380
 6074SOL    HW224062   2.421   2.547   1.091  0.7818 -1.3973  0.4394
 6074SOL    HW324063   2.318   2.438   1.069  0.2581 -0.6470 -0.9910
 6074SOL    MW424064   2.360   2.509   1.041  0.5589 -0.4399 -0.0448
 6075SOL     OW24065   3.820   0.790   5.533 -0.1233  0.0442 -0.3206
 6075SOL    HW224066   3.787   0.755   5.616  1.0484  0.1009  0.1906
 6075SOL    HW324067   3.752   0.851   5.504 -0.0168  0.9416  1.2118
 6075SOL    MW424068   3.807   0.794   5.540  0.0453  0.1701 -0.0510
 6076SOL     OW24069   1.771   0.762   3.164  0.1373 -0.5418  0.1862
 6076SOL    HW224070   1.861   0.785   3.185  0.2866 -2.5850  2.2344
 6076SOL    HW324071   1.748   0.817   3.088  2.2365  1.7980  1.1272
 6076SOL    MW424072   1.780   0.772   3.156  0.4339 -0.5027  0.5806
 6077SOL     OW24073   3.286   2.463   0.945 -0.4135  0.2812 -0.2967
 6077SOL    HW224074   3.197   2.499   0.944 -1.1745 -1.3026  1.6002
 6077SOL    HW324075   3.273   2.368   0.937  1.0542 -0.0306  0.6144
 6077SOL    MW424076   3.272   2.455   0.944 -0.3203  0.0311  0.0738
 6078SOL     OW24077   1.048   4.960   1.811  0.4594  0.3412  0.2370
 6078SOL    HW224078   1.027   4.888   1.750 -1.0314 -1.2513  2.4775
 6078SOL    HW324079   1.117   4.924   1.867  1.2771  1.5077 -0.0032
 6078SOL    MW424080   1.054   4.946   1.810  0.3706  0.2850  0.5009
 6079SOL     OW24081   0.127   5.088   3.678 -0.0559  0.2710  0.0025
 6079SOL    HW224082   0.094   5.085   3.588  0.7532  1.3081 -0.3536
 6079SOL    HW324083   0.110   5.178   3.706 -1.3928 -0.3480  1.3444
 6079SOL    MW424084   0.120   5.100   3.670 -0.1256  0.3262  0.1325
 6080SOL     OW24085   3.256   6.067   3.457  0.0222 -0.6651  0.4563
 6080SOL    HW224086   3.211   5.983   3.468  0.4530 -0.7767  1.4974
 6080SOL    HW324087   3.240   6.091   3.366 -1.6141 -1.0043  0.6114
 6080SOL    MW424088   3.248   6.059   3.446 -0.1368 -0.7245  0.6141
 6081SOL     OW24089   2.348   3.127   0.152  0.3408 -0.0844 -0.1667
 6081SOL    HW224090   2.291   3.165   0.218  0.5000 -0.1155 -0.0096
 6081SOL    HW324091   2.362   3.037   0.182  1.9835  0.4569  0.8039
 6081SOL    MW424092   2.343   3.120   0.165  0.5785 -0.0171 -0.0179
 6082SOL     OW24093   5.129   5.808   2.395 -0.3572  0.5374  0.0808
 6082SOL    HW224094   5.153   5.716   2.405 -0.8637  0.1056 -2.1719
 6082SOL    HW324095   5.210   5.856   2.410 -0.4082 -0.0601  2.9930
 6082SOL    MW424096   5.143   5.802   2.399 -0.4308  0.4016  0.1678
 6083SOL     OW24097   1.668   5.094   2.314 -0.2748  0.4279  0.3510
 6083SOL    HW224098   1.661   5.075   2.407  1.1183  1.1712  0.6388
 6083SOL    HW324099   1.742   5.041   2.284 -1.1531 -0.3567 -0.5168
 6083SOL    MW424100   1.677   5.085   2.322 -0.2069  0.4225  0.2745
 6084SOL     OW24101   5.058   0.818   3.498 -0.4540 -0.0302 -0.1707
 6084SOL    HW224102   5.035   0.910   3.491 -0.6288  0.1148  1.7739
 6084SOL    HW324103   5.014   0.776   3.424  0.0899  1.4930 -1.4220
 6084SOL    MW424104   5.049   0.824   3.487 -0.4053  0.1899 -0.0792
 6085SOL     OW24105   1.523   1.003   1.731  0.3841 -0.2541 -0.0891
 6085SOL    HW224106   1.433   0.969   1.722  0.2329 -0.2087  1.0583
 6085SOL    HW324107   1.573   0.954   1.666 -0.3116 -0.9086 -0.1598
 6085SOL    MW424108   1.517   0.992   1.721  0.2724 -0.3345  0.0530
 6086SOL     OW24109   0.259   2.164   0.633  0.2989 -0.3203  0.2271
 6086SOL    HW224110   0.195   2.206   0.576 -2.0891  1.4216  3.7639
 6086SOL    HW324111   0.228   2.074   0.643 -0.4743 -0.0495  0.3490
 6086SOL    MW424112   0.246   2.158   0.627 -0.1182 -0.0547  0.7099
 6087SOL     OW24113   3.191   0.549   0.792 -0.3124  0.2841  0.7502
 6087SOL    HW224114   3.133   0.569   0.866 -1.9869 -0.7071 -0.2296
 6087SOL    HW324115   3.275   0.589   0.815 -0.8343  0.1446  3.1010
 6087SOL    MW424116   3.194   0.557   0.805 -0.6022  0.1349  0.9311
 6088SOL     OW24117   1.184   1.118   0.066 -0.2135 -0.5145 -0.0599
 6088SOL    HW224118   1.135   1.036   0.074 -0.4197 -0.2538  2.4148
 6088SOL    HW324119   1.173   1.160   0.152  1.5141  1.1679 -0.5913
 6088SOL    MW424120   1.176   1.113   0.079 -0.0128 -0.2581  0.1965
 6089SOL     OW24121   1.502   5.011   1.074  0.0594  0.4226  0.4406
 6089SOL    HW224122   1.420   4.973   1.106  0.4386 -1.5747 -0.7587
 6089SOL    HW324123   1.570   4.964   1.123  0.5297  0.3236 -0.2964
 6089SOL    MW424124   1.500   4.999   1.085  0.1715  0.1460  0.1851
 6090SOL     OW24125   4.360   4.563   0.231 -0.6603  0.3715 -0.3562
 6090SOL    HW224126   4.312   4.608   0.301 -0.1285  0.3237  0.0461
 6090SOL    HW324127   4.446   4.543   0.269 -0.4575  0.1020 -0.9337
 6090SOL    MW424128   4.365   4.566   0.245 -0.5634  0.3296 -0.3793
 6091SOL     OW24129   3.379   0.928   5.326  0.2333 -0.0382 -1.0186
 6091SOL    HW224130   3.410   1.004   5.276 -0.0221 -0.8277 -2.4439
 6091SOL    HW324131   3.358   0.863   5.259 -2.0709 -0.4409 -0.0097
 6091SOL    MW424132   3.380   0.929   5.310 -0.1044 -0.1955 -1.0735
 6092SOL     OW24133   2.230   4.259   4.188  0.1700 -0.0682  0.1570
 6092SOL    HW224134   2.248   4.351   4.209 -0.2044  0.0613 -0.0825
 6092SOL    HW324135   2.264   4.210   4.263  0.1895  0.2786  0.3782
 6092SOL    MW424136   2.237   4.265   4.201  0.1232 -0.0053  0.1545
 6093SOL     OW24137   0.296   5.042   1.880 -0.3382  0.0480 -0.0722
 6093SOL    HW224138   0.285   5.119   1.824 -0.7675  2.0610  2.6091
 6093SOL    HW324139   0.353   5.071   1.950 -1.8329 -1.5477  1.9303
 6093SOL    MW424140   0.302   5.056   1.882 -0.5920  0.1031  0.5457
 6094SOL     OW24141   2.626   2.518   2.058  0.6831 -0.0495 -0.1455
 6094SOL    HW224142   2.636   2.565   2.141  3.3850  0.6081 -0.7501
 6094SOL    HW324143   2.654   2.428   2.078  0.2500 -0.1800 -0.1104
 6094SOL    MW424144   2.631   2.512   2.071  0.9824  0.0200 -0.2206
 6095SOL     OW24145   3.038   2.303   4.818 -0.3723 -0.4937 -0.5189
 6095SOL    HW224146   3.120   2.328   4.775 -0.1911  0.0305  0.1024
 6095SOL    HW324147   3.054   2.322   4.911 -1.2750 -0.1810 -0.4237
 6095SOL    MW424148   3.051   2.309   4.825 -0.4675 -0.3833 -0.4244
 6096SOL     OW24149   4.837   3.577   6.428  0.0532  0.1275 -0.1077
 6096SOL    HW224150   4.823   3.525   6.350 -2.1909  0.8065 -0.2216
 6096SOL    HW324151   4.895   3.648   6.400  2.1831 -1.5479 -0.2211
 6096SOL    MW424152   4.843   3.580   6.414  0.0381 -0.0040 -0.1377
 6097SOL     OW24153   3.415   0.509   2.412 -0.1168 -0.1136 -0.1180
 6097SOL    HW224154   3.409   0.446   2.341  0.7139 -0.5344  0.1748
 6097SOL    HW324155   3.412   0.594   2.369 -0.6179 -0.3553 -0.5686
 6097SOL    MW424156   3.414   0.512   2.397 -0.0733 -0.2010 -0.1388
 6098SOL     OW24157   2.586   4.361   2.646  0.1180 -0.1862  0.0782
 6098SOL    HW224158   2.640   4.424   2.693  0.0447 -0.4005  0.4585
 6098SOL    HW324159   2.552   4.304   2.715 -0.3878 -0.2044 -0.1831
 6098SOL    MW424160   2.588   4.362   2.662  0.0416 -0.2169  0.0939
 6099SOL     OW24161   2.316   2.379   5.631  0.4638  0.2292 -0.5759
 6099SOL    HW224162   2.299   2.287   5.650  0.6705  0.5687  1.4864
 6099SOL    HW324163   2.400   2.398   5.673  0.2390  1.4591 -0.6361
 6099SOL    MW424164   2.325   2.369   5.639  0.4614  0.4363 -0.3118
 6100SOL     OW24165   1.709   1.137   4.726 -0.2731 -0.1559 -0.4061
 6100SOL    HW224166   1.724   1.231   4.740  0.0232 -0.3358  0.5322
 6100SOL    HW324167   1.630   1.134   4.671 -1.4540  0.6014  1.1723
 6100SOL    MW424168   1.700   1.149   4.720 -0.3898 -0.0797 -0.0740
 6101SOL     OW24169   1.690   3.252   4.783  0.3761 -0.7693 -0.0608
 6101SOL    HW224170   1.715   3.344   4.796 -0.2288 -0.2712 -1.9809
 6101SOL    HW324171   1.678   3.217   4.871  1.7101  0.6749  0.7531
 6101SOL    MW424172   1.692   3.259   4.796  0.4723 -0.5130 -0.2068
 6102SOL     OW24173   5.893   4.074   5.292  0.3105  0.0013  0.1125
 6102SOL    HW224174   5.866   4.116   5.374  0.3587 -0.4688  0.3675
 6102SOL    HW324175   5.988   4.072   5.297  0.2789 -3.1630  1.6470
 6102SOL    MW424176   5.902   4.079   5.304  0.3127 -0.4782  0.3486
 6103SOL     OW24177   2.841   3.335   5.756 -0.3500 -0.3302  0.0884
 6103SOL    HW224178   2.876   3.247   5.744  0.3679 -0.2254  1.2520
 6103SOL    HW324179   2.829   3.344   5.850 -0.0045  0.9661  0.0362
 6103SOL    MW424180   2.844   3.325   5.766 -0.2097 -0.1453  0.2350
 6104SOL     OW24181   4.280   4.580   5.400  0.4089  0.4004 -0.2073
 6104SOL    HW224182   4.246   4.548   5.484  1.3449  1.8399  0.7668
 6104SOL    HW324183   4.202   4.588   5.345 -0.5262  1.2922  1.1700
 6104SOL    MW424184   4.265   4.577   5.404  0.4090  0.7080  0.1030
 6105SOL     OW24185   3.144   3.003   0.967 -0.0638  0.2774  0.0548
 6105SOL    HW224186   3.133   2.972   0.877  0.5690  0.7857 -0.2059
 6105SOL    HW324187   3.239   3.015   0.977 -0.1772  0.7629  0.6040
 6105SOL    MW424188   3.155   3.000   0.957  0.0047  0.4085  0.0929
 6106SOL     OW24189   3.010   5.820   0.531  0.3237 -0.0004  0.5432
 6106SOL    HW224190   2.916   5.837   0.528  0.2720 -0.3944 -0.5376
 6106SOL    HW324191   3.022   5.743   0.475  1.2039 -0.3727  1.2198
 6106SOL    MW424192   2.999   5.812   0.523  0.4330 -0.1015  0.4899
 6107SOL     OW24193   6.055   5.911   4.565  0.1149  0.1731  0.2288
 6107SOL    HW224194   5.998   5.886   4.638  1.7841 -0.4550  1.3746
 6107SOL    HW324195   6.101   5.989   4.596  0.7181 -0.0046 -0.2027
 6107SOL    MW424196   6.053   5.918   4.579  0.4147  0.0668  0.3231
 6108SOL     OW24197   1.244   0.006   2.726  0.5569 -0.2786  0.2636
 6108SOL    HW224198   1.288   0.058   2.658  1.5036 -0.4697  0.7200
 6108SOL    HW324199   1.241  -0.083   2.691 -0.7069 -0.0173 -0.3468
 6108SOL    MW424200   1.249   0.001   2.712  0.5151 -0.2694  0.2433
 6109SOL     OW24201   2.788   3.267   1.679 -0.9507 -0.2489 -0.2771
 6109SOL    HW224202   2.811   3.208   1.608 -1.1635 -1.4144  0.5886
 6109SOL    HW324203   2.694   3.284   1.667 -0.9878 -0.4508 -0.2722
 6109SOL    MW424204   2.778   3.261   1.668 -0.9836 -0.4293 -0.1622
 6110SOL     OW24205   0.184   1.265   2.353 -0.0066  0.5611 -0.1235
 6110SOL    HW224206   0.103   1.247   2.306  0.4559 -0.2240 -0.6378
 6110SOL    HW324207   0.155   1.281   2.443 -0.7517  0.4534 -0.3331
 6110SOL    MW424208   0.170   1.265   2.359 -0.0439  0.4433 -0.2190
 6111SOL     OW24209   5.063   4.562   4.853 -0.0961 -0.0440 -0.4896
 6111SOL    HW224210   5.127   4.564   4.782 -0.3379  0.4190 -0.6943
 6111SOL    HW324211   5.089   4.486   4.906 -0.3328 -0.8150 -1.4480
 6111SOL    MW424212   5.075   4.552   4.851 -0.1593 -0.0846 -0.6430
 6112SOL     OW24213   0.161   5.141   3.193 -0.0972 -0.7249  0.4361
 6112SOL    HW224214   0.245   5.185   3.191  0.2248 -1.3126  0.6510
 6112SOL    HW324215   0.179   5.053   3.160 -0.8362 -0.5266 -0.5257
 6112SOL    MW424216   0.174   5.135   3.189 -0.1522 -0.7763  0.3376
 6113SOL     OW24217   6.207   0.508   1.534  0.4167 -0.0170 -0.5278
 6113SOL    HW224218   6.218   0.602   1.548 -1.6323  0.2557 -0.4572
 6113SOL    HW324219   6.234   0.468   1.617 -2.0744  0.8319  0.7958
 6113SOL    MW424220   6.212   0.515   1.547 -0.1823  0.1310 -0.3438
 6114SOL     OW24221   2.493   1.281   5.805  0.0244 -0.4245  0.0421
 6114SOL    HW224222   2.426   1.214   5.820 -0.6533  0.4079  0.9045
 6114SOL    HW324223   2.489   1.336   5.883  1.1452  0.1445 -0.2782
 6114SOL    MW424224   2.484   1.279   5.817  0.0829 -0.2396  0.1136
 6115SOL     OW24225   2.067   1.661   3.589  0.4936  0.5909  0.2619
 6115SOL    HW224226   2.012   1.723   3.541  0.0816 -0.3880 -0.5545
 6115SOL    HW324227   2.066   1.582   3.537  3.3929  0.7811 -0.2549
 6115SOL    MW424228   2.059   1.659   3.576  0.8218  0.4869  0.0860
 6116SOL     OW24229   3.995   3.573   3.591 -0.3945 -0.2686 -0.2257
 6116SOL    HW224230   3.978   3.525   3.672 -0.7742 -0.2285 -0.2800
 6116SOL    HW324231   3.909   3.598   3.559 -0.2324 -0.0582 -0.5078
 6116SOL    MW424232   3.982   3.570   3.597 -0.4232 -0.2355 -0.2701
 6117SOL     OW24233   1.276   1.720   5.431  0.6459 -0.2444  0.2403
 6117SOL    HW224234   1.210   1.655   5.454  2.2312 -1.4209  1.6561
 6117SOL    HW324235   1.325   1.680   5.359  0.5250  0.1623 -0.0749
 6117SOL    MW424236   1.274   1.706   5.424  0.8391 -0.3459  0.3855
 6118SOL     OW24237   3.128   3.567   4.491 -0.1668 -0.3241  0.0735
 6118SOL    HW224238   3.161   3.479   4.505 -0.0470 -0.2989 -0.0432
 6118SOL    HW324239   3.075   3.586   4.568 -0.0783 -0.4452  0.1634
 6118SOL    MW424240   3.125   3.558   4.503 -0.1393 -0.3368  0.0699
 6119SOL     OW24241   0.477   4.956   2.691 -0.5387 -0.7945 -0.4964
 6119SOL    HW224242   0.472   5.052   2.695 -0.1035 -0.8176  1.2412
 6119SOL    HW324243   0.470   4.936   2.598 -0.6727  0.9261 -0.8898
 6119SOL    MW424244   0.475   4.966   2.679 -0.4990 -0.5705 -0.3190
 6120SOL     OW24245   6.227   1.399   4.338  0.2392  0.4334 -0.1380
 6120SOL    HW224246   6.297   1.443   4.290 -0.2851 -0.6306 -1.9533
 6120SOL    HW324247   6.149   1.451   4.320  0.1537  0.3850  0.0908
 6120SOL    MW424248   6.226   1.412   4.329  0.1587  0.2866 -0.3473
 6121SOL     OW24249   5.805   2.528   0.559 -0.0563 -0.2913 -0.3790
 6121SOL    HW224250   5.775   2.465   0.494  1.7256 -0.6352 -0.9200
 6121SOL    HW324251   5.883   2.488   0.598 -0.4286  0.4150  1.1713
 6121SOL    MW424252   5.812   2.515   0.555  0.1297 -0.2435 -0.2458
 6122SOL     OW24253   6.191   1.980   0.723  0.5037  0.5623  0.7084
 6122SOL    HW224254   6.100   1.958   0.702  0.5586  1.6586 -0.9172
 6122SOL    HW324255   6.243   1.923   0.666  0.8997 -0.5851  2.1582
 6122SOL    MW424256   6.186   1.970   0.713  0.5632  0.5555  0.6852
 6123SOL     OW24257   0.160   0.323   0.429  0.0452  0.0606 -0.3340
 6123SOL    HW224258   0.098   0.254   0.451  0.1646 -0.5534 -1.7890
 6123SOL    HW324259   0.106   0.402   0.419 -0.1465  0.1018  0.9084
 6123SOL    MW424260   0.145   0.324   0.431  0.0357 -0.0150 -0.3621
 6124SOL     OW24261   4.765   3.808   5.916  0.5068  0.1632  0.0596
 6124SOL    HW224262   4.793   3.897   5.936  0.6997  0.5582 -1.7671
 6124SOL    HW324263   4.683   3.819   5.867  0.7066 -0.6270 -0.4701
 6124SOL    MW424264   4.758   3.821   5.912  0.5586  0.1110 -0.2513
 6125SOL     OW24265   5.856   3.606   2.813  0.5650  0.4415  0.1733
 6125SOL    HW224266   5.931   3.649   2.853  0.9806  0.4551 -0.6086
 6125SOL    HW324267   5.782   3.631   2.868  1.1678  0.2146  1.1002
 6125SOL    MW424268   5.856   3.615   2.825  0.6994  0.4134  0.1924
 6126SOL     OW24269   4.859   4.890   4.798  0.0816 -0.3626  0.0225
 6126SOL    HW224270   4.925   4.856   4.738  0.0426 -1.7313  0.7062
 6126SOL    HW324271   4.906   4.952   4.854  1.1749 -2.3088  1.3924
 6126SOL    MW424272   4.874   4.894   4.797  0.2207 -0.8000  0.2934
 6127SOL     OW24273   5.123   3.598   4.063  0.5777 -0.2004  0.5672
 6127SOL    HW224274   5.090   3.622   3.977 -1.5065 -0.7227  1.1643
 6127SOL    HW324275   5.197   3.657   4.078  0.6413  0.2569 -1.3242
 6127SOL    MW424276   5.129   3.609   4.054  0.3111 -0.2089  0.3964
 6128SOL     OW24277   0.570   3.952   3.253  0.3638 -0.3888 -0.4490
 6128SOL    HW224278   0.584   3.970   3.346  0.2314  1.5859 -0.7743
 6128SOL    HW324279   0.657   3.941   3.217  0.5525  0.8804 -0.4356
 6128SOL    MW424280   0.583   3.953   3.261  0.3712  0.0392 -0.4902
 6129SOL     OW24281   1.821   5.212   1.933  0.2594 -0.0694  0.1017
 6129SOL    HW224282   1.779   5.253   2.009 -0.7507  1.0865 -1.0353
 6129SOL    HW324283   1.843   5.286   1.875  0.8296 -0.9350 -0.8165
 6129SOL    MW424284   1.819   5.227   1.935  0.2013 -0.0311 -0.1694
 6130SOL     OW24285   0.339   0.739   5.407  0.1931 -0.2472 -0.2192
 6130SOL    HW224286   0.431   0.735   5.384  0.5962  3.2792  0.1322
 6130SOL    HW324287   0.312   0.648   5.416  3.3023 -1.4336 -1.4825
 6130SOL    MW424288   0.347   0.727   5.406  0.6565  0.0615 -0.3395
 6131SOL     OW24289   2.610   0.855   4.534  0.0510 -0.3119  0.1558
 6131SOL    HW224290   2.550   0.840   4.461  0.6141 -0.6121 -0.2556
 6131SOL    HW324291   2.631   0.767   4.566 -1.3773 -0.1489  1.6825
 6131SOL    MW424292   2.605   0.841   4.529 -0.0631 -0.3300  0.3030
 6132SOL     OW24293   5.374   3.726   4.497 -0.3298 -0.5082 -0.0048
 6132SOL    HW224294   5.447   3.772   4.455 -0.0475  0.2651  1.2555
 6132SOL    HW324295   5.336   3.672   4.428  0.5493  0.1649 -1.0492
 6132SOL    MW424296   5.378   3.725   4.483 -0.1765 -0.3174  0.0237
 6133SOL     OW24297   2.656   2.320   0.852  0.1233 -0.5713 -0.4027
 6133SOL    HW224298   2.692   2.261   0.786  0.0035 -0.0122 -0.9716
 6133SOL    HW324299   2.563   2.324   0.833  0.0225 -0.7125  0.0437
 6133SOL    MW424300   2.649   2.313   0.841  0.0942 -0.5162 -0.4189
 6134SOL     OW24301   1.281   0.330   1.859  0.3010 -0.1049  0.0866
 6134SOL    HW224302   1.335   0.407   1.841 -0.6680  0.2351 -1.6295
 6134SOL    HW324303   1.191   0.361   1.846 -0.2459 -1.0320  1.3860
 6134SOL    MW424304   1.276   0.344   1.855  0.1010 -0.1823  0.0316
 6135SOL     OW24305   0.870   1.278   6.397 -0.1932  0.1822  0.5426
 6135SOL    HW224306   0.949   1.295   6.346  0.9854  1.3211  2.6555
 6135SOL    HW324307   0.835   1.196   6.361  0.6878  0.7978 -1.8884
 6135SOL    MW424308   0.876   1.270   6.385  0.0786  0.4137  0.5007
 6136SOL     OW24309   5.402   2.563   3.636  0.1157  0.3004 -0.2747
 6136SOL    HW224310   5.333   2.498   3.645 -1.0929  1.4909 -0.6088
 6136SOL    HW324311   5.385   2.627   3.705  1.7748 -0.1247  0.5854
 6136SOL    MW424312   5.390   2.563   3.646  0.1751  0.4014 -0.2053
 6137SOL     OW24313   6.001   2.190   1.631  0.2954  0.2274 -0.2299
 6137SOL    HW224314   5.916   2.162   1.665  0.7745 -1.3994 -0.3153
 6137SOL    HW324315   5.995   2.286   1.628 -1.4290  0.1557  0.0138
 6137SOL    MW424316   5.989   2.199   1.635  0.1311  0.0033 -0.2090
 6138SOL     OW24317   2.005   0.708   1.117 -0.5036 -0.1012 -0.3596
 6138SOL    HW224318   1.919   0.746   1.135 -0.6943  0.4070 -2.1456
 6138SOL    HW324319   2.063   0.750   1.181 -0.8987  2.5659 -1.6068
 6138SOL    MW424320   2.001   0.719   1.128 -0.5809  0.3178 -0.7598
 6139SOL     OW24321   4.236   5.138   4.458 -0.2377 -0.2177 -0.1470
 6139SOL    HW224322   4.274   5.104   4.377 -2.8627  2.1270 -2.5509
 6139SOL    HW324323   4.154   5.089   4.468  0.5646 -1.3058  1.8789
 6139SOL    MW424324   4.230   5.127   4.449 -0.4782 -0.0519 -0.1969
 6140SOL     OW24325   3.571   4.054   5.348  0.7372 -0.0012  0.4969
 6140SOL    HW224326   3.592   4.143   5.377  1.4437 -0.4444  1.3836
 6140SOL    HW324327   3.654   4.017   5.319  0.2452  0.0168 -1.0349
 6140SOL    MW424328   3.585   4.061   5.348  0.7655 -0.0573  0.4118
 6141SOL     OW24329   5.782   2.271   4.789  0.5265  0.0746  0.5232
 6141SOL    HW224330   5.778   2.357   4.830 -0.5002 -0.1942  1.0114
 6141SOL    HW324331   5.699   2.229   4.811  0.8094 -0.8651 -0.1076
 6141SOL    MW424332   5.771   2.277   4.797  0.4284 -0.0849  0.5044
 6142SOL     OW24333   1.629   0.478   3.714 -0.3208  0.1215  0.2959
 6142SOL    HW224334   1.566   0.425   3.763  0.8662  0.8772  2.7890
 6142SOL    HW324335   1.653   0.424   3.639 -0.6684 -2.0155  1.6523
 6142SOL    MW424336   1.623   0.464   3.710 -0.2100 -0.0607  0.8038
 6143SOL     OW24337   4.127   5.660   2.534 -0.6944 -0.6080 -0.0986
 6143SOL    HW224338   4.199   5.633   2.478 -1.1613  1.6547 -1.9600
 6143SOL    HW324339   4.109   5.584   2.589  2.1910 -1.6832 -0.4893
 6143SOL    MW424340   4.134   5.646   2.534 -0.3753 -0.4513 -0.3957
 6144SOL     OW24341   3.189   1.409   4.143  0.2385 -0.8578  0.3153
 6144SOL    HW224342   3.278   1.442   4.134  0.0966  0.5947  3.1749
 6144SOL    HW324343   3.153   1.457   4.218 -2.8273 -1.6922 -0.4854
 6144SOL    MW424344   3.196   1.420   4.152 -0.1847 -0.7762  0.5869
 6145SOL     OW24345   0.440   2.861   3.780 -0.1220  0.0497  0.1223
 6145SOL    HW224346   0.426   2.793   3.714  0.9618 -1.5991  1.4863
 6145SOL    HW324347   0.490   2.929   3.735  0.7340 -1.1045 -0.7289
 6145SOL    MW424348   0.445   2.861   3.766  0.1340 -0.3201  0.1899
 6146SOL     OW24349   5.457   3.195   4.750  0.2789 -0.6548 -0.3521
 6146SOL    HW224350   5.371   3.235   4.736  1.3425  1.5438 -1.1561
 6146SOL    HW324351   5.502   3.257   4.808  1.9344 -0.8259 -1.4049
 6146SOL    MW424352   5.452   3.209   4.756  0.6376 -0.3873 -0.5970
 6147SOL     OW24353   3.459   2.918   1.140 -0.4662  0.2565 -0.5428
 6147SOL    HW224354   3.431   2.880   1.056 -1.8130 -1.8465  0.7572
 6147SOL    HW324355   3.549   2.947   1.125 -0.4180 -0.7626 -2.4965
 6147SOL    MW424356   3.467   2.917   1.127 -0.6375 -0.1554 -0.6291
 6148SOL     OW24357   4.948   3.813   2.471 -0.1940  0.3117  0.2156
 6148SOL    HW224358   4.857   3.821   2.446 -0.3245 -2.0929 -0.3295
 6148SOL    HW324359   4.947   3.754   2.546  0.9543 -0.4271 -0.3200
 6148SOL    MW424360   4.936   3.806   2.478 -0.0597 -0.1031  0.0730
 6149SOL     OW24361   0.937   3.575   4.198 -0.5933  0.0503  0.1342
 6149SOL    HW224362   0.941   3.550   4.291  1.2797 -0.0559  0.0783
 6149SOL    HW324363   0.981   3.503   4.153  1.7733  1.7050 -0.4059
 6149SOL    MW424364   0.943   3.562   4.205 -0.0339  0.2546  0.0556
 6150SOL     OW24365   2.026   1.788   2.154 -0.1478 -0.0115 -0.0676
 6150SOL    HW224366   2.082   1.712   2.172 -1.6827 -1.2177 -0.1461
 6150SOL    HW324367   2.068   1.831   2.080  1.0087 -0.5050  0.2679
 6150SOL    MW424368   2.039   1.783   2.147 -0.1978 -0.2357 -0.0337
 6151SOL     OW24369   1.255   1.541   6.364 -0.8268  0.4397  0.5781
 6151SOL    HW224370   1.331   1.502   6.408  0.7901  1.0959 -1.4282
 6151SOL    HW324371   1.212   1.467   6.322  0.1080  0.3049 -0.1966
 6151SOL    MW424372   1.260   1.526   6.364 -0.4901  0.5085  0.2112
 6152SOL     OW24373   4.736   0.723   4.044 -0.4366 -0.0039  0.6191
 6152SOL    HW224374   4.732   0.721   4.139 -0.4654 -0.6090  0.6152
 6152SOL    HW324375   4.828   0.709   4.023 -0.2876  1.0035  0.5631
 6152SOL    MW424376   4.747   0.721   4.054 -0.4207  0.0492  0.6112
 6153SOL     OW24377   0.611   4.396   2.472  0.0003  0.3387  0.0375
 6153SOL    HW224378   0.626   4.302   2.463  3.7131  0.7905 -0.1385
 6153SOL    HW324379   0.612   4.429   2.382 -2.6917  0.5112 -0.0204
 6153SOL    MW424380   0.613   4.388   2.459  0.1350  0.4211  0.0067
 6154SOL     OW24381   2.376   1.573   4.546 -0.3088  0.2535  0.2142
 6154SOL    HW224382   2.440   1.543   4.482 -0.8431  0.0585 -0.2322
 6154SOL    HW324383   2.314   1.625   4.496 -1.5541 -1.1181  0.2948
 6154SOL    MW424384   2.377   1.576   4.531 -0.5436  0.0468  0.1659
 6155SOL     OW24385   3.245   6.014   1.300  0.2371 -0.2981  0.1005
 6155SOL    HW224386   3.207   6.099   1.277 -2.0136 -1.3524 -0.4227
 6155SOL    HW324387   3.203   5.991   1.383  0.1464 -1.2800 -0.2074
 6155SOL    MW424388   3.234   6.022   1.308 -0.0718 -0.5667 -0.0092
 6156SOL     OW24389   1.777   0.315   3.192 -0.1580  0.1645 -0.2618
 6156SOL    HW224390   1.792   0.328   3.098 -1.3707 -0.7872 -0.6082
 6156SOL    HW324391   1.708   0.377   3.214 -0.4800 -0.2098 -0.2015
 6156SOL    MW424392   1.770   0.325   3.183 -0.3605 -0.0104 -0.2995
 6157SOL     OW24393   5.999   3.851   0.890  0.6481 -0.4905 -0.4565
 6157SOL    HW224394   5.910   3.864   0.921  1.0281 -1.5796  1.2028
 6157SOL    HW324395   5.992   3.777   0.829  0.4684 -0.8501 -0.0058
 6157SOL    MW424396   5.987   3.843   0.886  0.6745 -0.6816 -0.1781
 6158SOL     OW24397   5.825   4.874   5.583  0.3775  0.5045 -0.0202
 6158SOL    HW224398   5.881   4.797   5.585 -0.7057 -0.3801 -1.6166
 6158SOL    HW324399   5.774   4.869   5.664 -0.0729 -0.7830 -0.3571
 6158SOL    MW424400   5.825   4.863   5.594  0.1752  0.2179 -0.2753
 6159SOL     OW24401   3.527   6.007   2.589 -0.0647  0.6033  0.3861
 6159SOL    HW224402   3.448   6.018   2.643  0.7517 -0.3911  1.8311
 6159SOL    HW324403   3.558   5.920   2.610  1.3419  0.9189 -0.3078
 6159SOL    MW424404   3.520   5.997   2.599  0.2286  0.5138  0.4852
 6160SOL     OW24405   4.477   5.263   0.905 -0.1721 -0.4946 -0.5950
 6160SOL    HW224406   4.445   5.257   0.995  0.0858  0.8921 -0.3979
 6160SOL    HW324407   4.415   5.320   0.861  1.3341  1.3155 -0.5002
 6160SOL    MW424408   4.465   5.270   0.911  0.0606 -0.0729 -0.5565
 6161SOL     OW24409   2.123   3.546   2.095 -0.2503  0.4497  0.2470
 6161SOL    HW224410   2.171   3.531   2.177 -0.7121 -0.6959  0.3244
 6161SOL    HW324411   2.163   3.486   2.032 -0.9743  0.1294  0.0800
 6161SOL    MW424412   2.134   3.536   2.098 -0.4067  0.2563  0.2352
 6162SOL     OW24413   1.402   3.665   2.732  0.1851 -0.2799 -0.7184
 6162SOL    HW224414   1.346   3.599   2.690 -0.6538  0.7314 -1.2443
 6162SOL    HW324415   1.472   3.681   2.670 -1.5939  1.9523 -2.3319
 6162SOL    MW424416   1.404   3.659   2.719 -0.1603  0.1480 -1.0007
 6163SOL     OW24417   2.755   5.898   0.505  0.3925 -0.3575  0.1606
 6163SOL    HW224418   2.706   5.924   0.583  0.2322  0.9114 -0.3453
 6163SOL    HW324419   2.769   5.980   0.457 -1.2734 -1.3757 -2.1857
 6163SOL    MW424420   2.751   5.913   0.509  0.1515 -0.3244 -0.2158
 6164SOL     OW24421   3.804   2.529   3.029  0.4593  0.0439 -0.3975
 6164SOL    HW224422   3.860   2.591   2.981 -0.0037  0.1876 -0.7684
 6164SOL    HW324423   3.717   2.543   2.992  0.6268 -2.0480 -1.7486
 6164SOL    MW424424   3.800   2.539   3.017  0.4203 -0.2131 -0.6247
 6165SOL     OW24425   2.477   4.195   1.565 -0.5188 -0.4706 -0.2901
 6165SOL    HW224426   2.536   4.148   1.624 -0.0419  0.6558  0.1693
 6165SOL    HW324427   2.408   4.228   1.622 -0.8862 -0.6574 -0.6185
 6165SOL    MW424428   2.476   4.193   1.580 -0.5044 -0.3466 -0.2728
 6166SOL     OW24429   4.930   0.818   4.461 -0.6526  0.1312  0.5224
 6166SOL    HW224430   5.021   0.788   4.453 -0.1057  2.0286 -1.1095
 6166SOL    HW324431   4.891   0.758   4.525  1.7061 -0.7911  1.2225
 6166SOL    MW424432   4.937   0.806   4.469 -0.2692  0.2599  0.3995
 6167SOL     OW24433   2.283   5.296   0.880  0.6335  0.1529  0.0921
 6167SOL    HW224434   2.210   5.311   0.940  1.0668 -0.5915  0.8287
 6167SOL    HW324435   2.333   5.377   0.882  0.3608  0.3145  0.3574
 6167SOL    MW424436   2.280   5.308   0.888  0.6547  0.0760  0.2243
 6168SOL     OW24437   4.029   2.491   6.267 -0.7452  0.0727 -0.2149
 6168SOL    HW224438   4.107   2.437   6.249 -1.2590 -0.5937 -0.4856
 6168SOL    HW324439   4.060   2.556   6.330  0.4347  0.8180 -1.5065
 6168SOL    MW424440   4.044   2.492   6.273 -0.6573  0.0831 -0.4210
 6169SOL     OW24441   4.523   0.902   3.080 -0.0356 -0.4050  0.3010
 6169SOL    HW224442   4.449   0.934   3.132  0.3362 -0.2691  0.7528
 6169SOL    HW324443   4.538   0.813   3.113 -0.8073 -0.9086 -0.6712
 6169SOL    MW424444   4.515   0.894   3.091 -0.0883 -0.4535  0.2324
 6170SOL     OW24445   3.080   0.590   5.667  0.0130  0.3566 -0.0427
 6170SOL    HW224446   3.050   0.680   5.679 -1.3619 -0.0488 -0.2543
 6170SOL    HW324447   3.167   0.588   5.707 -1.0433  1.1086  2.4785
 6170SOL    MW424448   3.088   0.602   5.674 -0.3078  0.4023  0.2620
 6171SOL     OW24449   0.106   4.808   1.409 -0.0761  0.6625  0.4884
 6171SOL    HW224450   0.200   4.823   1.422  0.0487  0.5524 -0.2220
 6171SOL    HW324451   0.063   4.864   1.473  0.3849  3.4610 -1.4821
 6171SOL    MW424452   0.113   4.817   1.419  0.0012  1.0172  0.1347
 6172SOL     OW24453   0.797   4.089   6.179  0.1191  0.0762  0.1770
 6172SOL    HW224454   0.794   3.994   6.168  0.2508  0.1786 -0.8499
 6172SOL    HW324455   0.708   4.114   6.206  0.5274 -0.5181  2.2240
 6172SOL    MW424456   0.785   4.080   6.181  0.1903  0.0113  0.3116
 6173SOL     OW24457   2.170   3.665   6.163  0.4476 -0.0143  0.4178
 6173SOL    HW224458   2.179   3.658   6.258  0.7982 -0.1604  0.3745
 6173SOL    HW324459   2.111   3.594   6.139  1.3795 -0.7930  0.3752
 6173SOL    MW424460   2.163   3.655   6.173  0.6168 -0.1363  0.4065
 6174SOL     OW24461   2.871   4.121   0.749  0.0365  0.3565 -0.3444
 6174SOL    HW224462   2.806   4.101   0.817 -0.3440  0.9991 -0.5121
 6174SOL    HW324463   2.897   4.035   0.716  1.4384 -0.0775  1.7000
 6174SOL    MW424464   2.866   4.107   0.754  0.1713  0.3840 -0.0968
 6175SOL     OW24465   0.077   5.244   4.650 -0.1723  0.2472  0.2830
 6175SOL    HW224466   0.132   5.169   4.673 -0.7132  0.1851  1.4474
 6175SOL    HW324467   0.107   5.314   4.709 -1.7240  0.0361  1.3708
 6175SOL    MW424468   0.088   5.244   4.661 -0.4484  0.2112  0.5801
 6176SOL     OW24469   4.888   1.133   3.231 -0.3491 -0.0972  0.5847
 6176SOL    HW224470   4.912   1.109   3.321 -0.3599 -1.2490  0.2989
 6176SOL    HW324471   4.969   1.124   3.181 -0.2845  0.7926  0.5194
 6176SOL    MW424472   4.902   1.128   3.237 -0.3420 -0.1318  0.5383
 6177SOL     OW24473   2.652   0.837   0.119 -0.0366 -0.3672 -0.0706
 6177SOL    HW224474   2.579   0.811   0.176 -1.2622  1.3933 -0.7257
 6177SOL    HW324475   2.672   0.927   0.146  0.8620 -0.2912 -0.9422
 6177SOL    MW424476   2.645   0.845   0.130 -0.0797 -0.1249 -0.2720
 6178SOL     OW24477   2.233   5.063   4.872  0.6987  0.3450  0.0835
 6178SOL    HW224478   2.218   5.066   4.777 -0.8274  0.1977  0.3045
 6178SOL    HW324479   2.203   5.149   4.904 -1.5959 -0.6368  0.7756
 6178SOL    MW424480   2.227   5.075   4.864  0.1946  0.1960  0.2039
 6179SOL     OW24481   0.577   3.421   2.978 -0.0766 -0.1155 -0.0645
 6179SOL    HW224482   0.495   3.395   3.020 -0.0341 -0.5813 -0.2603
 6179SOL    HW324483   0.556   3.423   2.885  0.1878 -0.4430 -0.1326
 6179SOL    MW424484   0.563   3.418   2.971 -0.0361 -0.2202 -0.0993
 6180SOL     OW24485   2.642   4.813   2.621 -0.2736 -0.2429 -0.1735
 6180SOL    HW224486   2.702   4.790   2.551 -0.0980 -0.8489  0.1654
 6180SOL    HW324487   2.585   4.880   2.583  0.7713  0.5426 -0.4221
 6180SOL    MW424488   2.642   4.819   2.607 -0.1126 -0.2192 -0.1616
 6181SOL     OW24489   5.761   1.517   1.018 -0.0326 -0.5529  0.4551
 6181SOL    HW224490   5.762   1.602   0.974 -3.2353  1.0026  2.9320
 6181SOL    HW324491   5.837   1.520   1.076 -0.3546  0.8588  0.8482
 6181SOL    MW424492   5.771   1.529   1.020 -0.4977 -0.1614  0.8337
 6182SOL     OW24493   0.292   0.276   4.684  0.4913  0.7924  0.0459
 6182SOL    HW224494   0.373   0.323   4.708  0.7431  0.1885  0.4092
 6182SOL    HW324495   0.263   0.236   4.766 -0.5516  1.5465  0.0663
 6182SOL    MW424496   0.299   0.277   4.698  0.3869  0.8123  0.0965
 6183SOL     OW24497   4.189   1.390   4.117 -0.7407 -0.3735  0.8602
 6183SOL    HW224498   4.180   1.328   4.044 -2.1412  0.7701  0.0075
 6183SOL    HW324499   4.279   1.380   4.145  0.0105 -0.5290 -1.3581
 6183SOL    MW424500   4.199   1.380   4.111 -0.8263 -0.2431  0.4550
 6184SOL     OW24501   0.178   5.687   1.867  0.1444  0.4462 -0.7715
 6184SOL    HW224502   0.139   5.687   1.955 -2.5403 -1.4473 -1.8196
 6184SOL    HW324503   0.170   5.778   1.838 -0.7495  0.7256  0.2486
 6184SOL    MW424504   0.171   5.699   1.875 -0.3277  0.2332 -0.7752
 6185SOL     OW24505   0.485   1.580   3.166  0.4962 -0.4334  0.2873
 6185SOL    HW224506   0.550   1.528   3.120  0.7046 -0.8337  1.0213
 6185SOL    HW324507   0.486   1.665   3.121  2.3990 -0.0229  1.0352
 6185SOL    MW424508   0.493   1.585   3.154  0.7747 -0.4321  0.4828
 6186SOL     OW24509   4.904   5.803   3.444 -0.6581 -0.0832 -0.3977
 6186SOL    HW224510   4.907   5.773   3.535  0.1937  1.8669  0.2637
 6186SOL    HW324511   4.839   5.874   3.444 -0.0097  0.5213 -1.1228
 6186SOL    MW424512   4.895   5.808   3.456 -0.4602  0.2539 -0.4061
 6187SOL     OW24513   2.961   0.444   0.636  0.1609 -0.5978  0.0342
 6187SOL    HW224514   3.051   0.455   0.668  0.1856 -1.6861  0.3769
 6187SOL    HW324515   2.906   0.448   0.714 -0.2271  1.2277 -0.2934
 6187SOL    MW424516   2.966   0.446   0.650  0.1129 -0.5005  0.0362
 6188SOL     OW24517   1.958   1.912   5.844  0.1540  0.3095 -0.3221
 6188SOL    HW224518   1.875   1.868   5.863  0.4798 -0.6683 -1.0601
 6188SOL    HW324519   2.007   1.907   5.926  0.2651 -0.9309 -0.4452
 6188SOL    MW424520   1.954   1.905   5.857  0.2116  0.0168 -0.4357
 6189SOL     OW24521   3.302   3.872   0.233  0.3125  0.5883  0.5450
 6189SOL    HW224522   3.257   3.798   0.192 -0.3570  0.4681  1.4616
 6189SOL    HW324523   3.248   3.948   0.214  0.0348  0.5438  1.1242
 6189SOL    MW424524   3.289   3.872   0.225  0.1875  0.5666  0.7424
 6190SOL     OW24525   4.340   2.239   3.527  0.0595 -0.8961  0.2024
 6190SOL    HW224526   4.268   2.205   3.474 -1.4506  0.5685  1.2165
 6190SOL    HW324527   4.346   2.331   3.503  0.9155 -0.7694  0.8618
 6190SOL    MW424528   4.331   2.247   3.517 -0.0268 -0.6861  0.4232
 6191SOL     OW24529   5.374   4.555   3.266  0.3863 -0.2801 -0.3188
 6191SOL    HW224530   5.460   4.514   3.259  1.0178  0.4014  2.2184
 6191SOL    HW324531   5.350   4.577   3.176  3.8146  1.3874 -0.9718
 6191SOL    MW424532   5.382   4.552   3.254  0.9219  0.0298 -0.0702
 6192SOL     OW24533   5.579   1.627   1.427  0.2240 -0.3534  0.2623
 6192SOL    HW224534   5.523   1.699   1.397 -0.1328 -1.3064 -1.4948
 6192SOL    HW324535   5.619   1.660   1.508 -0.2697  1.6352 -0.2460
 6192SOL    MW424536   5.577   1.641   1.434  0.1118 -0.2168 -0.0366
 6193SOL     OW24537   2.167   3.028   4.032 -0.3666  0.1458  0.2263
 6193SOL    HW224538   2.120   3.111   4.042 -0.6902 -0.1867  1.7898
 6193SOL    HW324539   2.114   2.965   4.080 -0.0743 -0.9651 -0.8693
 6193SOL    MW424540   2.154   3.031   4.040 -0.3707 -0.0446  0.2881
 6194SOL     OW24541   1.423   1.297   0.936 -0.5891  0.0164 -0.2831
 6194SOL    HW224542   1.492   1.242   0.900 -0.0437 -0.6462  1.6155
 6194SOL    HW324543   1.448   1.386   0.913  2.0741  0.0122  1.9689
 6194SOL    MW424544   1.435   1.301   0.928 -0.1657 -0.0716  0.2645
 6195SOL     OW24545   5.850   5.243   2.825 -0.1644  0.0029  0.1466
 6195SOL    HW224546   5.831   5.262   2.917 -0.5631  1.1841 -0.1684
 6195SOL    HW324547   5.917   5.174   2.828 -0.6784 -0.4746  1.3104
 6195SOL    MW424548   5.856   5.236   2.838 -0.2848  0.0958  0.2586
 6196SOL     OW24549   1.984   3.211   4.422  0.1585  0.3711  0.0717
 6196SOL    HW224550   1.993   3.299   4.458 -2.3912  0.5645  0.4387
 6196SOL    HW324551   1.973   3.154   4.498 -1.4507  0.2464 -0.2070
 6196SOL    MW424552   1.984   3.215   4.436 -0.3902  0.3801  0.0833
 6197SOL     OW24553   2.727   3.973   5.324 -0.1077  0.5273  0.3477
 6197SOL    HW224554   2.645   3.923   5.326  0.0085  0.2242 -0.9667
 6197SOL    HW324555   2.700   4.063   5.306 -0.1172  0.1767 -1.6522
 6197SOL    MW424556   2.712   3.978   5.322 -0.0936  0.4411 -0.0896
 6198SOL     OW24557   4.323   1.701   1.278  0.8785  0.3381  0.0886
 6198SOL    HW224558   4.382   1.776   1.277  0.7819  0.4147 -1.0758
 6198SOL    HW324559   4.324   1.668   1.189  1.1392 -1.2360  0.6319
 6198SOL    MW424560   4.331   1.706   1.266  0.9002  0.1405  0.0066
 6199SOL     OW24561   0.492   3.571   0.660  0.0682  0.2510 -0.4539
 6199SOL    HW224562   0.528   3.632   0.595  1.5383 -0.4960 -0.4009
 6199SOL    HW324563   0.492   3.486   0.615  0.9181 -0.2363  0.4211
 6199SOL    MW424564   0.497   3.567   0.645  0.3743  0.0881 -0.3314
 6200SOL     OW24565   1.793   3.916   2.761 -0.5674 -0.0848  0.1728
 6200SOL    HW224566   1.756   3.973   2.829 -0.1733 -1.1520  1.3199
 6200SOL    HW324567   1.718   3.893   2.706 -0.6376  1.9662 -0.6786
 6200SOL    MW424568   1.778   3.921   2.763 -0.5247  0.0450  0.2118
 6201SOL     OW24569   4.587   2.450   4.246  0.4109 -0.2990  0.2492
 6201SOL    HW224570   4.647   2.523   4.231 -1.3238  1.3110  0.7314
 6201SOL    HW324571   4.548   2.469   4.331 -1.5072 -0.7560 -0.4899
 6201SOL    MW424572   4.590   2.462   4.256 -0.0710 -0.1468  0.2153
 6202SOL     OW24573   0.788   0.304   3.824  0.4858 -0.1082  0.2221
 6202SOL    HW224574   0.832   0.223   3.847  1.2484  0.2381  0.0143
 6202SOL    HW324575   0.780   0.302   3.729  2.1817  0.8721  0.0190
 6202SOL    MW424576   0.793   0.293   3.815  0.8102  0.0668  0.1679
 6203SOL     OW24577   6.044   4.582   4.052 -0.2191 -0.6417  0.7264
 6203SOL    HW224578   6.092   4.529   4.116 -0.1996  0.7326  1.9192
 6203SOL    HW324579   5.956   4.546   4.052 -0.6768  0.2881  2.7912
 6203SOL    MW424580   6.039   4.570   4.061 -0.2769 -0.3377  1.1562
 6204SOL     OW24581   1.219   2.519   1.369 -0.0098 -0.2827  0.3040
 6204SOL    HW224582   1.187   2.503   1.457 -1.4629  0.6019 -0.0352
 6204SOL    HW324583   1.219   2.433   1.327  2.9712 -1.1679  1.8016
 6204SOL    MW424584   1.215   2.506   1.375  0.1918 -0.2828  0.4568
 6205SOL     OW24585   0.128   0.866   5.888 -0.2871  0.4422  0.8389
 6205SOL    HW224586   0.040   0.844   5.919 -0.9902  1.7293 -0.1542
 6205SOL    HW324587   0.137   0.819   5.805 -0.9410  2.0331 -0.1780
 6205SOL    MW424588   0.117   0.857   5.881 -0.4661  0.8219  0.5737
 6206SOL     OW24589   3.914   3.940   4.255 -0.2736 -0.2910  0.4938
 6206SOL    HW224590   3.967   3.965   4.179 -1.4486 -0.7864 -0.5239
 6206SOL    HW324591   3.965   3.873   4.299 -0.5913 -1.7383 -1.2188
 6206SOL    MW424592   3.928   3.935   4.251 -0.4706 -0.5473  0.1336
 6207SOL     OW24593   5.361   3.542   4.750 -0.1859 -0.1277  0.2137
 6207SOL    HW224594   5.368   3.596   4.671  0.5036  2.8239  2.1352
 6207SOL    HW324595   5.452   3.522   4.773 -0.3811 -0.9078  0.3320
 6207SOL    MW424596   5.374   3.547   4.742 -0.1207  0.1588  0.4828
 6208SOL     OW24597   3.409   1.263   2.130 -0.2928  0.0859 -0.3633
 6208SOL    HW224598   3.354   1.321   2.077  0.4601  0.3497 -0.8641
 6208SOL    HW324599   3.497   1.272   2.094  0.8896  2.4221  2.6436
 6208SOL    MW424600   3.413   1.272   2.118 -0.0375  0.4290 -0.0327
 6209SOL     OW24601   4.061   1.706   3.647  0.0235  0.2444  0.8157
 6209SOL    HW224602   3.969   1.728   3.628  0.0946 -0.1002  0.0145
 6209SOL    HW324603   4.100   1.693   3.561  0.8396  0.4183  1.1540
 6209SOL    MW424604   4.054   1.708   3.633  0.1405  0.2219  0.7546
 6210SOL     OW24605   0.691   4.455   3.718  0.5676 -0.2272  0.6028
 6210SOL    HW224606   0.709   4.388   3.784  1.9567 -0.2640  0.2124
 6210SOL    HW324607   0.679   4.406   3.636  1.1563 -0.0370  0.3979
 6210SOL    MW424608   0.692   4.440   3.716  0.8285 -0.2070  0.5242
 6211SOL     OW24609   3.561   3.556   1.914  0.1287  0.3000 -0.1334
 6211SOL    HW224610   3.600   3.641   1.892  0.9324  0.1299  0.6109
 6211SOL    HW324611   3.474   3.578   1.947  0.0943  0.7849 -0.5223
 6211SOL    MW424612   3.555   3.570   1.915  0.2302  0.3416 -0.0865
 6212SOL     OW24613   4.401   5.584   0.320 -0.5228  0.1316  0.8406
 6212SOL    HW224614   4.459   5.659   0.326 -0.0959 -0.1905  0.7685
 6212SOL    HW324615   4.397   5.549   0.409 -0.9195  0.3851  0.9246
 6212SOL    MW424616   4.408   5.589   0.332 -0.5188  0.1225  0.8422
 6213SOL     OW24617   2.596   1.643   2.665 -0.5872 -0.2535 -0.2686
 6213SOL    HW224618   2.520   1.673   2.615 -0.5275 -0.7780 -0.6925
 6213SOL    HW324619   2.671   1.665   2.609 -0.3090  1.5166  0.7636
 6213SOL    MW424620   2.596   1.650   2.651 -0.5426 -0.0891 -0.1883
 6214SOL     OW24621   3.058   4.596   3.756 -0.4003  0.8098  0.0243
 6214SOL    HW224622   3.028   4.664   3.816  1.4365  2.3150 -0.6686
 6214SOL    HW324623   3.150   4.616   3.742 -0.1037 -1.1483 -1.1548
 6214SOL    MW424624   3.066   4.607   3.762 -0.1188  0.7501 -0.2227
 6215SOL     OW24625   0.180   4.597   1.732  0.0599 -0.1140  0.4827
 6215SOL    HW224626   0.119   4.538   1.776 -3.0459  1.7131 -1.0463
 6215SOL    HW324627   0.154   4.594   1.640  2.5606  0.5344 -0.3173
 6215SOL    MW424628   0.168   4.589   1.726 -0.0199  0.2126  0.1754
 6216SOL     OW24629   0.422   3.050   1.568  0.5503 -0.3840 -0.3778
 6216SOL    HW224630   0.364   3.068   1.642  0.8043 -0.4218 -0.1698
 6216SOL    HW324631   0.451   2.960   1.582  0.1748 -0.5791 -0.8121
 6216SOL    MW424632   0.418   3.041   1.580  0.5343 -0.4148 -0.4077
 6217SOL     OW24633   0.681   4.713   3.779  0.1137 -0.2480  0.3866
 6217SOL    HW224634   0.592   4.738   3.803  0.1850 -0.3914  0.8020
 6217SOL    HW324635   0.674   4.620   3.754  0.2068 -0.3463  0.7293
 6217SOL    MW424636   0.669   4.704   3.779  0.1354 -0.2798  0.4866
 6218SOL     OW24637   5.036   3.228   5.405  0.1970 -0.3497  0.2268
 6218SOL    HW224638   4.982   3.256   5.331  0.1512 -0.1853  0.3218
 6218SOL    HW324639   5.007   3.139   5.423  1.5040 -1.1153 -1.1601
 6218SOL    MW424640   5.025   3.220   5.398  0.3634 -0.4290  0.0563
 6219SOL     OW24641   4.245   2.051   2.864 -0.0561  0.3539 -0.0592
 6219SOL    HW224642   4.289   2.132   2.891  0.5044 -0.1573  0.6050
 6219SOL    HW324643   4.190   2.077   2.790  2.9163  0.6513 -2.3735
 6219SOL    MW424644   4.243   2.066   2.858  0.4101  0.3257 -0.2769
 6220SOL     OW24645   1.021   4.287   4.075 -0.1511  0.1439 -0.6301
 6220SOL    HW224646   0.972   4.205   4.084 -0.2143  0.2873  0.5671
 6220SOL    HW324647   1.027   4.321   4.164 -1.5096  2.2761 -1.2787
 6220SOL    MW424648   1.015   4.281   4.088 -0.3387  0.4442 -0.5578
 6221SOL     OW24649   1.783   4.198   3.335 -0.3351  0.2735  0.1005
 6221SOL    HW224650   1.806   4.183   3.427  0.2810 -2.1608 -0.3699
 6221SOL    HW324651   1.773   4.110   3.298 -0.7320  1.1806 -2.1330
 6221SOL    MW424652   1.785   4.184   3.342 -0.3062  0.0720 -0.2562
 6222SOL     OW24653   1.258   2.958   5.484 -0.7373  1.1473  0.7545
 6222SOL    HW224654   1.206   2.904   5.425 -2.4112  2.4959  0.9242
 6222SOL    HW324655   1.299   3.023   5.427  2.6376 -1.1331  0.3011
 6222SOL    MW424656   1.256   2.960   5.469 -0.5129  1.0244  0.7171
 6223SOL     OW24657   4.790   1.722   2.403  0.3519 -0.5834 -0.1295
 6223SOL    HW224658   4.838   1.647   2.438 -1.8208 -1.4936  1.1171
 6223SOL    HW324659   4.842   1.798   2.429  1.3817 -1.5239  0.6673
 6223SOL    MW424660   4.803   1.722   2.411  0.2011 -0.8276  0.1401
 6224SOL     OW24661   3.472   1.691   0.011  0.7153 -0.3298  0.1539
 6224SOL    HW224662   3.399   1.638  -0.021  0.5288 -0.1851  0.3391
 6224SOL    HW324663   3.550   1.638  -0.010  0.4773 -1.1200  1.1899
 6224SOL    MW424664   3.473   1.677   0.004  0.6593 -0.4149  0.3150
 6225SOL     OW24665   5.354   1.075   3.196  0.0922 -0.1453  0.1787
 6225SOL    HW224666   5.309   1.052   3.277  0.7203  0.4132  0.7030
 6225SOL    HW324667   5.421   1.007   3.186  0.8795  0.5010  0.8549
 6225SOL    MW424668   5.357   1.063   3.206  0.2789  0.0137  0.3371
 6226SOL     OW24669   1.437   2.978   6.009 -0.1252 -0.7893 -0.7358
 6226SOL    HW224670   1.470   2.918   6.076  0.8659  0.8796  0.3343
 6226SOL    HW324671   1.342   2.967   6.012 -0.0738 -1.0139  0.6959
 6226SOL    MW424672   1.429   2.968   6.018  0.0123 -0.5987 -0.4057
 6227SOL     OW24673   3.892   1.863   0.229  0.2929  0.2742  0.3341
 6227SOL    HW224674   3.903   1.954   0.257  2.6052  0.0260  0.4023
 6227SOL    HW324675   3.936   1.811   0.296  0.1582 -0.8067 -0.3909
 6227SOL    MW424676   3.899   1.868   0.241  0.5802  0.0989  0.2475
 6228SOL     OW24677   2.644   0.273   4.937 -0.2822 -0.0958 -0.6378
 6228SOL    HW224678   2.611   0.235   5.017 -1.9472  0.6444 -0.9374
 6228SOL    HW324679   2.678   0.199   4.887  0.1987 -0.6385  0.4594
 6228SOL    MW424680   2.644   0.259   4.941 -0.4384 -0.0697 -0.5325
 6229SOL     OW24681   1.153   1.249   0.294  0.0369  0.0880  0.2115
 6229SOL    HW224682   1.229   1.297   0.325 -0.4906  0.2535  1.2838
 6229SOL    HW324683   1.080   1.312   0.300 -0.4004 -0.4179  0.2958
 6229SOL    MW424684   1.153   1.264   0.299 -0.0904  0.0431  0.3641
 6230SOL     OW24685   5.531   4.804   2.023  0.3438 -0.2736 -0.2405
 6230SOL    HW224686   5.443   4.839   2.040 -0.9368 -3.3564  0.1461
 6230SOL    HW324687   5.584   4.835   2.096 -0.6046  0.9688 -0.0404
 6230SOL    MW424688   5.526   4.813   2.035  0.0497 -0.5164 -0.1631
 6231SOL     OW24689   5.508   0.506   4.215 -0.7451  0.0575 -0.3434
 6231SOL    HW224690   5.495   0.471   4.127 -4.3746  0.4071 -0.1280
 6231SOL    HW324691   5.489   0.432   4.273 -0.7924  0.4440  0.1358
 6231SOL    MW424692   5.504   0.491   4.211 -1.2302  0.1546 -0.2518
 6232SOL     OW24693   1.119   1.920   1.554  0.5411  0.1275  0.2670
 6232SOL    HW224694   1.065   1.971   1.615 -1.4625 -2.1197  0.5269
 6232SOL    HW324695   1.082   1.939   1.468 -0.0136 -0.6136  0.3334
 6232SOL    MW424696   1.107   1.930   1.551  0.2036 -0.2668  0.3100
 6233SOL     OW24697   1.635   3.738   1.213  0.2257 -0.1699  0.5402
 6233SOL    HW224698   1.568   3.784   1.263  0.8922  0.4689  0.8737
 6233SOL    HW324699   1.684   3.808   1.170 -0.6823 -0.7197 -1.5011
 6233SOL    MW424700   1.633   3.753   1.214  0.1939 -0.1582  0.3149
 6234SOL     OW24701   2.339   4.383   0.916  0.5580  0.2502 -0.6043
 6234SOL    HW224702   2.433   4.395   0.925  0.6957  0.8757 -2.4848
 6234SOL    HW324703   2.301   4.452   0.972  1.1344 -1.0112  1.4417
 6234SOL    MW424704   2.346   4.394   0.925  0.6522  0.1663 -0.5825
 6235SOL     OW24705   0.255   2.520   5.815  0.1768  0.2292  0.3720
 6235SOL    HW224706   0.299   2.513   5.899 -0.3305 -1.8623  0.5096
 6235SOL    HW324707   0.162   2.521   5.837  0.0442 -0.1508 -0.1569
 6235SOL    MW424708   0.248   2.519   5.829  0.0924 -0.0969  0.3203
 6236SOL     OW24709   2.247   6.159   1.406 -0.3002 -0.3751 -0.4970
 6236SOL    HW224710   2.223   6.245   1.441  1.0798  0.4987 -1.5840
 6236SOL    HW324711   2.191   6.097   1.453 -0.1309  0.9427  1.5256
 6236SOL    MW424712   2.236   6.162   1.417 -0.0958 -0.0859 -0.3736
 6237SOL     OW24713   2.251   5.992   0.604  0.8235 -0.0710 -0.0773
 6237SOL    HW224714   2.308   5.914   0.603 -1.9393 -2.2345 -0.1671
 6237SOL    HW324715   2.214   5.992   0.692  0.0708  0.5983 -0.3925
 6237SOL    MW424716   2.254   5.982   0.616  0.3597 -0.2681 -0.1308
 6238SOL     OW24717   3.312   4.060   2.209  0.1277  0.2329 -0.4372
 6238SOL    HW224718   3.405   4.039   2.202  0.0273 -0.0612 -0.9728
 6238SOL    HW324719   3.309   4.155   2.222  0.4995  0.2526 -0.4951
 6238SOL    MW424720   3.324   4.070   2.210  0.1635  0.1967 -0.5155
 6239SOL     OW24721   5.975   2.617   1.892 -0.1163 -0.1830  0.2444
 6239SOL    HW224722   6.025   2.624   1.974 -1.1154  3.4543  0.7162
 6239SOL    HW324723   6.041   2.627   1.823  0.5692 -2.0960  0.5417
 6239SOL    MW424724   5.991   2.619   1.894 -0.1577  0.0445  0.3458
 6240SOL     OW24725   0.352   1.656   5.205 -0.0486  0.7347  0.0105
 6240SOL    HW224726   0.268   1.700   5.210 -0.3136  0.1627  3.9394
 6240SOL    HW324727   0.331   1.563   5.195 -0.1862  0.3136  3.0653
 6240SOL    MW424728   0.338   1.650   5.205 -0.1017  0.6037  0.9319
 6241SOL     OW24729   6.125   3.199   4.962  0.3798 -0.0218 -0.0842
 6241SOL    HW224730   6.098   3.122   5.012 -0.4877 -0.0217 -0.5437
 6241SOL    HW324731   6.220   3.201   4.972  0.3758 -0.9389  0.2375
 6241SOL    MW424732   6.134   3.189   4.970  0.2648 -0.1428 -0.1024
 6242SOL     OW24733   2.737   1.686   4.343  0.2453 -0.0427  0.1742
 6242SOL    HW224734   2.724   1.679   4.249 -0.2019 -0.3230  0.2560
 6242SOL    HW324735   2.688   1.765   4.368 -1.0116 -0.8784  0.4206
 6242SOL    MW424736   2.729   1.696   4.334  0.0205 -0.1899  0.2175
 6243SOL     OW24737   3.609   4.913   3.540 -0.3368  0.2429  0.1637
 6243SOL    HW224738   3.704   4.909   3.544 -0.2521 -0.3637 -1.4973
 6243SOL    HW324739   3.583   4.966   3.615  1.2406 -0.3958  1.1960
 6243SOL    MW424740   3.618   4.919   3.550 -0.1175  0.0786  0.0807
 6244SOL     OW24741   2.457   1.284   0.162  0.2156 -0.6552 -0.0586
 6244SOL    HW224742   2.435   1.217   0.097 -1.8104 -2.4221  2.2617
 6244SOL    HW324743   2.374   1.326   0.182  0.7168 -0.3457  1.5370
 6244SOL    MW424744   2.443   1.280   0.156  0.0144 -0.8475  0.4580
 6245SOL     OW24745   0.005   6.175   2.355  0.2087  0.3249  0.0493
 6245SOL    HW224746   0.052   6.252   2.325  1.5330 -0.7568 -0.8138
 6245SOL    HW324747   0.015   6.176   2.450  0.1542  1.2430  0.0501
 6245SOL    MW424748   0.013   6.185   2.363  0.3763  0.3033 -0.0645
 6246SOL     OW24749   2.444   1.920   0.413  0.4105 -0.4244  0.3687
 6246SOL    HW224750   2.523   1.974   0.408  0.4083 -0.4666 -0.2092
 6246SOL    HW324751   2.466   1.840   0.364 -0.7518  0.5385 -1.8570
 6246SOL    MW424752   2.457   1.916   0.406  0.2569 -0.3029 -0.0012
 6247SOL     OW24753   2.881   1.712   6.073  0.2683 -0.2351 -0.0972
 6247SOL    HW224754   2.812   1.705   6.139  0.8547  0.2754  0.5895
 6247SOL    HW324755   2.878   1.629   6.025  1.3181 -1.6029  2.0473
 6247SOL    MW424756   2.872   1.700   6.075  0.4842 -0.3482  0.2763
 6248SOL     OW24757   3.042   2.050   0.747 -0.4616 -0.3200 -0.1514
 6248SOL    HW224758   3.107   2.059   0.677 -1.2816  1.1277 -0.7819
 6248SOL    HW324759   3.031   1.955   0.757 -0.8743 -0.5903 -2.5433
 6248SOL    MW424760   3.049   2.039   0.739 -0.6242 -0.1647 -0.5502
 6249SOL     OW24761   0.887   5.924   1.000 -0.2667 -0.4431 -0.3239
 6249SOL    HW224762   0.951   5.861   0.967 -0.1844  0.5475 -2.2493
 6249SOL    HW324763   0.803   5.891   0.970 -0.3834 -0.4776  0.0500
 6249SOL    MW424764   0.885   5.911   0.991 -0.2712 -0.3170 -0.5286
 6250SOL     OW24765   5.341   6.176   2.797 -0.2294  0.2875 -0.6710
 6250SOL    HW224766   5.245   6.176   2.796 -0.2361  0.2881 -0.0587
 6250SOL    HW324767   5.366   6.211   2.711 -0.7697  2.0107 -0.1493
 6250SOL    MW424768   5.332   6.180   2.785 -0.3016  0.5150 -0.5214
 6251SOL     OW24769   0.372   3.352   0.534  0.1111  0.5446  0.3589
 6251SOL    HW224770   0.372   3.275   0.592 -0.2354  0.1440 -0.1582
 6251SOL    HW324771   0.282   3.383   0.537  0.3778  1.2647  0.9929
 6251SOL    MW424772   0.360   3.346   0.542  0.1006  0.5868  0.3744
 6252SOL     OW24773   0.763   0.528   3.200  0.0693 -0.7393 -0.7015
 6252SOL    HW224774   0.725   0.442   3.179 -0.4150 -0.1827 -2.2923
 6252SOL    HW324775   0.733   0.547   3.288  0.0922 -2.1519 -0.3639
 6252SOL    MW424776   0.754   0.519   3.209  0.0084 -0.8523 -0.8668
 6253SOL     OW24777   3.054   2.264   5.268 -0.4373 -0.4309  0.0165
 6253SOL    HW224778   3.143   2.261   5.301 -0.6056 -1.1327  0.4295
 6253SOL    HW324779   3.000   2.233   5.341 -1.0623  0.3977 -0.0825
 6253SOL    MW424780   3.059   2.259   5.282 -0.5420 -0.4141  0.0579
 6254SOL     OW24781   1.768   5.302   0.271  0.0910 -0.1663 -0.0868
 6254SOL    HW224782   1.768   5.390   0.232 -0.4495 -0.8827 -1.8256
 6254SOL    HW324783   1.793   5.316   0.362  0.7302  1.7084 -0.5011
 6254SOL    MW424784   1.771   5.315   0.278  0.1040 -0.0135 -0.3709
 6255SOL     OW24785   5.875   4.382   5.718  0.4088 -0.1277  0.5653
 6255SOL    HW224786   5.832   4.462   5.748 -1.0698 -0.7649  0.2812
 6255SOL    HW324787   5.951   4.372   5.775  0.4483  1.2969  0.8022
 6255SOL    MW424788   5.879   4.391   5.729  0.2189 -0.0238  0.5591
 6256SOL     OW24789   1.642   4.472   5.486 -0.3472 -0.0727 -0.9256
 6256SOL    HW224790   1.622   4.561   5.456  0.9134  0.3530 -0.5632
 6256SOL    HW324791   1.631   4.476   5.581  0.5409 -0.0668 -0.8198
 6256SOL    MW424792   1.638   4.484   5.495 -0.0637 -0.0157 -0.8638
 6257SOL     OW24793   2.301   0.439   4.504  0.0722 -0.3803 -0.3726
 6257SOL    HW224794   2.311   0.432   4.599  0.0941 -0.6629 -0.3961
 6257SOL    HW324795   2.208   0.425   4.489 -0.2324  1.3404 -0.2381
 6257SOL    MW424796   2.290   0.436   4.515  0.0349 -0.1906 -0.3580
 6258SOL     OW24797   1.652   4.542   4.860 -0.5547  0.2044  0.2802
 6258SOL    HW224798   1.716   4.608   4.884 -1.4313  0.9466  0.6152
 6258SOL    HW324799   1.579   4.555   4.920 -1.8042  0.5822 -1.2494
 6258SOL    MW424800   1.651   4.552   4.871 -0.8352  0.3522  0.1226
 6259SOL     OW24801   6.069   5.440   4.715  0.0441  0.1151  0.5219
 6259SOL    HW224802   6.145   5.403   4.670  0.2755  2.7181 -1.4953
 6259SOL    HW324803   5.997   5.429   4.653 -0.8878 -0.7853  1.7066
 6259SOL    MW424804   6.069   5.434   4.701 -0.0483  0.3397  0.4121
 6260SOL     OW24805   4.060   6.426   2.762  0.0654  0.2657  0.4189
 6260SOL    HW224806   4.025   6.344   2.726 -1.4715  1.4103 -0.8441
 6260SOL    HW324807   4.147   6.433   2.724  0.4311 -1.0159  0.9603
 6260SOL    MW424808   4.066   6.416   2.752 -0.0891  0.2476  0.3237
 6261SOL     OW24809   2.962   3.771   5.701  0.0845  0.1266  0.1653
 6261SOL    HW224810   2.921   3.685   5.706 -0.1840  0.2260 -0.2264
 6261SOL    HW324811   2.893   3.829   5.668  0.4069  0.3894 -0.0598
 6261SOL    MW424812   2.948   3.768   5.697  0.0916  0.1744  0.0839
 6262SOL     OW24813   0.047   3.296   2.571 -0.6541  0.3996  0.5631
 6262SOL    HW224814   0.141   3.279   2.578 -0.7568 -0.5828 -0.1375
 6262SOL    HW324815   0.022   3.330   2.656  1.0392  4.4664 -0.3295
 6262SOL    MW424816   0.056   3.298   2.583 -0.4442  0.8066  0.3529
 6263SOL     OW24817   4.156   0.200   3.193  0.5024 -0.0328 -0.3826
 6263SOL    HW224818   4.122   0.254   3.121 -0.2480 -0.1314 -0.1117
 6263SOL    HW324819   4.108   0.118   3.186  0.1708  0.0864  0.4464
 6263SOL    MW424820   4.145   0.197   3.183  0.3596 -0.0301 -0.2375
 6264SOL     OW24821   3.709   2.806   0.700  0.6102 -0.2164  0.1606
 6264SOL    HW224822   3.766   2.782   0.773  0.3275 -1.1329  0.1012
 6264SOL    HW324823   3.621   2.805   0.737  0.7126  3.2848  0.7897
 6264SOL    MW424824   3.705   2.803   0.714  0.5864  0.1246  0.2358
 6265SOL     OW24825   2.531   4.736   4.923  0.9085 -0.2923  0.0246
 6265SOL    HW224826   2.509   4.736   5.016  2.4023  0.2761  0.3978
 6265SOL    HW324827   2.526   4.828   4.897 -1.5200 -0.6313 -1.0067
 6265SOL    MW424828   2.528   4.748   4.932  0.7852 -0.2620 -0.0622
 6266SOL     OW24829   3.484   3.708   2.247 -0.0100  0.1134 -0.4467
 6266SOL    HW224830   3.416   3.728   2.182  1.3380 -1.9125 -2.6133
 6266SOL    HW324831   3.446   3.639   2.301 -0.3174  0.2336 -0.5050
 6266SOL    MW424832   3.470   3.702   2.245  0.1273 -0.1380 -0.7403
 6267SOL     OW24833   4.726   3.288   5.724  0.0287 -0.3988  0.1039
 6267SOL    HW224834   4.804   3.334   5.692 -0.0605 -1.5554 -1.9567
 6267SOL    HW324835   4.674   3.356   5.767  1.0973  0.8692 -0.5276
 6267SOL    MW424836   4.730   3.303   5.726  0.1579 -0.3841 -0.2513
 6268SOL     OW24837   4.957   3.853   5.249 -0.4318  1.2174  0.2897
 6268SOL    HW224838   4.888   3.897   5.298 -0.1797  1.5678  0.3333
 6268SOL    HW324839   4.924   3.764   5.236 -0.2874  0.9555  1.5506
 6268SOL    MW424840   4.943   3.847   5.254 -0.3795  1.2291  0.4618
 6269SOL     OW24841   5.899   4.079   1.414  0.2908 -0.0201  0.2342
 6269SOL    HW224842   5.983   4.103   1.376 -0.2116 -0.0681 -0.9632
 6269SOL    HW324843   5.865   4.161   1.451  1.0414 -0.0915  1.1158
 6269SOL    MW424844   5.905   4.093   1.413  0.3235 -0.0359  0.1926
 6270SOL     OW24845   4.296   1.855   0.306  0.3620 -0.2200  0.1666
 6270SOL    HW224846   4.239   1.918   0.349  0.9477 -0.9184  2.0480
 6270SOL    HW324847   4.373   1.906   0.279  0.8542 -0.0883  1.7257
 6270SOL    MW424848   4.299   1.870   0.308  0.5042 -0.2948  0.6206
 6271SOL     OW24849   1.234   6.089   1.823  0.1062 -0.2616 -0.0159
 6271SOL    HW224850   1.207   6.149   1.893  0.9263 -0.5591  0.5661
 6271SOL    HW324851   1.315   6.127   1.788  0.1150 -0.5273 -0.2898
 6271SOL    MW424852   1.241   6.102   1.827  0.2155 -0.3359  0.0247
 6272SOL     OW24853   1.719   3.488   4.460  0.1479  0.1011 -0.2494
 6272SOL    HW224854   1.697   3.460   4.549  2.5142 -1.3463 -0.0425
 6272SOL    HW324855   1.638   3.528   4.427 -0.7874  0.7854  2.5580
 6272SOL    MW424856   1.705   3.490   4.468  0.3367  0.0004  0.1483
 6273SOL     OW24857   0.072   4.083   4.057  0.5534 -0.3171 -0.2339
 6273SOL    HW224858   0.153   4.130   4.036  0.8693 -0.5604  0.4108
 6273SOL    HW324859   0.101   3.995   4.082 -0.0172 -0.8380 -1.2974
 6273SOL    MW424860   0.087   4.078   4.058  0.5198 -0.4179 -0.2891
 6274SOL     OW24861   0.463   5.929   1.221  0.2281  0.3097 -0.1262
 6274SOL    HW224862   0.455   5.923   1.316  0.5262  0.2901 -0.1020
 6274SOL    HW324863   0.502   6.015   1.206 -1.1326  0.9360 -0.3081
 6274SOL    MW424864   0.467   5.940   1.232  0.0879  0.3897 -0.1470
 6275SOL     OW24865   1.914   1.070   2.612 -0.0271  0.5311  0.2374
 6275SOL    HW224866   2.003   1.089   2.582  0.8533 -0.2207  2.2389
 6275SOL    HW324867   1.866   1.151   2.595  1.0605  0.9965 -0.7486
 6275SOL    MW424868   1.919   1.083   2.606  0.2325  0.4933  0.3714
 6276SOL     OW24869   2.106   5.067   5.331 -0.1894 -0.0956  0.0050
 6276SOL    HW224870   2.102   5.162   5.325 -0.9163 -0.0782  0.5601
 6276SOL    HW324871   2.186   5.043   5.285 -0.7230  0.6717 -1.4037
 6276SOL    MW424872   2.116   5.076   5.324 -0.3557  0.0079 -0.1076
 6277SOL     OW24873   2.682   6.130   2.245 -0.0539 -0.3353  0.2174
 6277SOL    HW224874   2.728   6.062   2.195 -0.0411  0.9433 -1.5936
 6277SOL    HW324875   2.750   6.171   2.299  0.0661 -1.2655  0.7998
 6277SOL    MW424876   2.697   6.126   2.246 -0.0364 -0.2893  0.0553
 6278SOL     OW24877   2.069   3.268   5.009 -0.4185  0.1239 -0.0473
 6278SOL    HW224878   2.073   3.177   4.979 -1.0801  0.0537  0.0585
 6278SOL    HW324879   2.135   3.313   4.956  1.9967 -0.9424  1.8505
 6278SOL    MW424880   2.078   3.262   4.998 -0.1871 -0.0260  0.2170
 6279SOL     OW24881   2.071   1.480   5.324 -0.6379  0.4250  0.1199
 6279SOL    HW224882   2.076   1.502   5.417 -0.7123  0.1301  0.1946
 6279SOL    HW324883   1.978   1.487   5.303 -0.7221 -0.2078  0.2449
 6279SOL    MW424884   2.060   1.483   5.334 -0.6588  0.3026  0.1462
 6280SOL     OW24885   3.802   2.822   6.240  0.4819 -0.2891  0.2079
 6280SOL    HW224886   3.812   2.729   6.262  1.9218  0.0142  0.9430
 6280SOL    HW324887   3.708   2.833   6.226 -0.2571 -1.1569  3.5625
 6280SOL    MW424888   3.791   2.811   6.241  0.5744 -0.3636  0.7475
 6281SOL     OW24889   3.630   5.776   5.639  0.5743 -0.1967  0.1826
 6281SOL    HW224890   3.593   5.862   5.618  1.8508  0.1941 -0.5635
 6281SOL    HW324891   3.600   5.758   5.728  1.1091  1.4972  0.7398
 6281SOL    MW424892   3.621   5.785   5.648  0.8133  0.0784  0.1577
 6282SOL     OW24893   3.406   3.578   1.359 -0.0971  0.1012  0.5600
 6282SOL    HW224894   3.329   3.593   1.413 -0.3810  1.3153 -0.1614
 6282SOL    HW324895   3.373   3.573   1.269  0.4347 -1.3845  0.4170
 6282SOL    MW424896   3.392   3.579   1.354 -0.0644  0.0653  0.4459
 6283SOL     OW24897   2.620   4.087   5.827  0.4476  0.1414 -1.1586
 6283SOL    HW224898   2.630   4.025   5.900 -0.0223  0.0748 -1.1446
 6283SOL    HW324899   2.705   4.129   5.819  0.4739  0.2219 -0.5015
 6283SOL    MW424900   2.632   4.084   5.836  0.3891  0.1432 -1.0701
 6284SOL     OW24901   3.729   3.801   5.065  0.0025 -0.2466  0.2149
 6284SOL    HW224902   3.721   3.889   5.029 -2.9211  0.6163  2.5080
 6284SOL    HW324903   3.748   3.815   5.158 -1.8736 -1.9033  0.9231
 6284SOL    MW424904   3.730   3.814   5.073 -0.6308 -0.3513  0.6109
 6285SOL     OW24905   3.898   1.069   3.673 -0.4147  0.4936 -0.3127
 6285SOL    HW224906   3.926   1.125   3.744  1.0422  1.1321 -1.3473
 6285SOL    HW324907   3.867   1.129   3.605 -2.1963 -0.1157 -0.1023
 6285SOL    MW424908   3.897   1.084   3.673 -0.4575  0.4975 -0.4214
 6286SOL     OW24909   5.432   5.372   1.295  0.1216 -0.1173  0.4509
 6286SOL    HW224910   5.490   5.329   1.358  2.1767  0.7176 -0.7768
 6286SOL    HW324911   5.394   5.300   1.244 -1.1280 -0.7640  2.1905
 6286SOL    MW424912   5.434   5.356   1.296  0.2279 -0.0925  0.5185
 6287SOL     OW24913   1.730   6.138   3.763 -0.3939  0.8042 -0.0448
 6287SOL    HW224914   1.694   6.076   3.826 -1.7208  0.9100 -0.6725
 6287SOL    HW324915   1.726   6.223   3.808  0.2514  0.6385  0.3431
 6287SOL    MW424916   1.725   6.141   3.777 -0.4838  0.7963 -0.0765
 6288SOL     OW24917   3.377   5.243   3.894 -0.1255 -0.1965 -0.2859
 6288SOL    HW224918   3.412   5.331   3.888 -2.3304  0.7791  0.1381
 6288SOL    HW324919   3.282   5.255   3.904 -0.5868 -2.6246 -0.9602
 6288SOL    MW424920   3.369   5.256   3.895 -0.4773 -0.3881 -0.3190
 6289SOL     OW24921   4.982   3.976   3.714  0.2036 -0.1116  0.0841
 6289SOL    HW224922   4.969   4.059   3.668 -0.2854  0.1194  0.6175
 6289SOL    HW324923   4.945   3.991   3.801 -1.4749 -1.4096 -0.3316
 6289SOL    MW424924   4.975   3.989   3.720 -0.0824 -0.2524  0.0996
 6290SOL     OW24925   5.816   1.144   5.280 -0.0272  0.0081 -0.4177
 6290SOL    HW224926   5.782   1.200   5.350 -0.3999  2.2167 -2.2420
 6290SOL    HW324927   5.754   1.154   5.208  0.9692 -1.2238 -1.5119
 6290SOL    MW424928   5.804   1.153   5.280  0.0551  0.1370 -0.8028
 6291SOL     OW24929   3.454   5.332   1.679  0.3423 -0.5464 -0.3049
 6291SOL    HW224930   3.378   5.367   1.632  1.0236 -2.2301 -2.9019
 6291SOL    HW324931   3.503   5.409   1.706 -1.1344  0.5444 -0.6159
 6291SOL    MW424932   3.450   5.347   1.676  0.2373 -0.6246 -0.6886
 6292SOL     OW24933   5.385   1.266   3.907 -0.1205  0.5575 -0.3609
 6292SOL    HW224934   5.419   1.356   3.907 -0.4424  0.6864  0.7171
 6292SOL    HW324935   5.290   1.276   3.905 -0.2872  0.3365  2.7650
 6292SOL    MW424936   5.377   1.279   3.907 -0.1849  0.5454  0.1937
 6293SOL     OW24937   1.314   1.352   4.212  0.1636 -0.7805 -0.0032
 6293SOL    HW224938   1.268   1.301   4.144  0.1655 -1.5009  0.5171
 6293SOL    HW324939   1.324   1.439   4.174  0.2052 -1.1808 -0.9486
 6293SOL    MW424940   1.309   1.356   4.198  0.1694 -0.9284 -0.0593
 6294SOL     OW24941   3.234   2.236   3.416  0.0086 -0.1207 -0.1769
 6294SOL    HW224942   3.195   2.205   3.334 -0.8106  1.1046 -0.2776
 6294SOL    HW324943   3.159   2.254   3.473  0.5071  0.4210  0.3234
 6294SOL    MW424944   3.219   2.234   3.413 -0.0337  0.1125 -0.1242
 6295SOL     OW24945   4.724   6.242   6.063  0.5400 -0.4235  0.4171
 6295SOL    HW224946   4.648   6.187   6.043  0.2611  0.3135 -0.6729
 6295SOL    HW324947   4.686   6.319   6.107  0.7407 -0.3660  0.4885
 6295SOL    MW424948   4.709   6.245   6.066  0.5297 -0.3187  0.2827
 6296SOL     OW24949   3.022   5.139   5.567 -0.5926 -0.0775 -0.1063
 6296SOL    HW224950   2.987   5.197   5.634  0.4310  0.3310  0.0952
 6296SOL    HW324951   3.103   5.104   5.605  0.8413  1.3802 -1.6930
 6296SOL    MW424952   3.028   5.142   5.581 -0.2684  0.1687 -0.2891
 6297SOL     OW24953   1.536   4.353   1.687 -0.4961  0.3249 -0.7638
 6297SOL    HW224954   1.627   4.332   1.666 -0.0565 -1.5741  2.4090
 6297SOL    HW324955   1.540   4.440   1.727  0.0443 -0.0115 -0.0666
 6297SOL    MW424956   1.548   4.361   1.689 -0.3668  0.0300 -0.2532
 6298SOL     OW24957   3.567   1.303   2.974  0.8060  0.2493 -0.6382
 6298SOL    HW224958   3.484   1.294   2.928  0.5144 -0.5588  0.0069
 6298SOL    HW324959   3.553   1.374   3.037  0.7947  0.4952 -0.9169
 6298SOL    MW424960   3.554   1.311   2.976  0.7660  0.1751 -0.5898
 6299SOL     OW24961   4.116   1.426   6.343  0.4802 -0.2017  0.2815
 6299SOL    HW224962   4.165   1.386   6.415  0.3295 -0.7012  0.1120
 6299SOL    HW324963   4.093   1.353   6.286  1.8797  0.3641 -1.0670
 6299SOL    MW424964   4.119   1.411   6.345  0.6450 -0.1929  0.0812
 6300SOL     OW24965   2.442   3.225   3.080 -0.0765 -0.0185 -0.6931
 6300SOL    HW224966   2.517   3.266   3.035  0.1910  0.9375  0.5783
 6300SOL    HW324967   2.476   3.202   3.166 -1.6002  1.7113  0.4304
 6300SOL    MW424968   2.457   3.227   3.085 -0.2422  0.3358 -0.3771
 6301SOL     OW24969   4.574   5.412   6.246  0.1758  0.5813 -0.4247
 6301SOL    HW224970   4.527   5.405   6.329 -0.6554 -0.2443 -0.9380
 6301SOL    HW324971   4.649   5.468   6.265  0.3241 -0.0665  1.0297
 6301SOL    MW424972   4.577   5.418   6.259  0.0857  0.3869 -0.3005
 6302SOL     OW24973   5.311   5.416   2.194  0.2506 -0.1317  0.9078
 6302SOL    HW224974   5.362   5.497   2.187 -0.2683  0.1761  0.6007
 6302SOL    HW324975   5.245   5.423   2.124  0.2062 -0.8239  0.8702
 6302SOL    MW424976   5.309   5.428   2.184  0.1763 -0.1824  0.8623
 6303SOL     OW24977   3.126   4.458   4.578  0.3210 -0.2232  0.4016
 6303SOL    HW224978   3.031   4.447   4.570  0.0560  0.6825  1.9200
 6303SOL    HW324979   3.154   4.488   4.492 -0.3482 -3.0203 -0.9130
 6303SOL    MW424980   3.117   4.460   4.566  0.1977 -0.4728  0.4285
 6304SOL     OW24981   0.722   1.365   0.923 -0.1292 -0.1184  0.4808
 6304SOL    HW224982   0.628   1.377   0.938 -0.2420  1.0781 -0.9538
 6304SOL    HW324983   0.764   1.419   0.989 -0.5453  1.7020 -0.6486
 6304SOL    MW424984   0.715   1.374   0.933 -0.1989  0.2796  0.1425
 6305SOL     OW24985   4.553   5.088   4.479  0.0753  0.3662  0.4981
 6305SOL    HW224986   4.578   5.092   4.571  0.3745 -0.4725  0.4581
 6305SOL    HW324987   4.497   5.011   4.472  1.7374 -0.8386 -0.3889
 6305SOL    MW424988   4.549   5.079   4.490  0.3341  0.0966  0.3758
 6306SOL     OW24989   3.503   0.851   4.167  0.2233 -0.0101  0.7545
 6306SOL    HW224990   3.489   0.928   4.222  0.6457  0.1602  0.6260
 6306SOL    HW324991   3.568   0.799   4.214  1.5671  0.7577 -0.1827
 6306SOL    MW424992   3.509   0.855   4.181  0.4564  0.1137  0.6139
 6307SOL     OW24993   4.050   1.473   5.017  0.3810 -0.2421  0.4557
 6307SOL    HW224994   4.091   1.391   5.044 -0.7488 -0.3804  1.8845
 6307SOL    HW324995   4.023   1.459   4.926  2.4056 -0.5442 -0.1394
 6307SOL    MW424996   4.052   1.460   5.009  0.4990 -0.3002  0.5657
 6308SOL     OW24997   1.637   0.204   6.344 -0.4238  0.1262  0.0801
 6308SOL    HW224998   1.594   0.259   6.409  0.7265  0.8420  0.2563
 6308SOL    HW324999   1.628   0.252   6.262 -0.6768 -0.1288 -0.0465
 6308SOL    MW425000   1.630   0.218   6.342 -0.3054  0.1870  0.0866
 6309SOL     OW25001   4.999   3.615   1.153 -0.0192 -0.1188  0.2145
 6309SOL    HW225002   5.064   3.546   1.145  1.0902  0.7895  1.0761
 6309SOL    HW325003   5.010   3.649   1.242  2.1740  3.7248 -1.2786
 6309SOL    MW425004   5.009   3.610   1.164  0.4165  0.5082  0.1312
 6310SOL     OW25005   5.606   3.454   4.821  0.0718  0.7309  0.5245
 6310SOL    HW225006   5.583   3.430   4.910 -0.6350  0.3152  0.2360
 6310SOL    HW325007   5.684   3.402   4.801 -0.4595 -0.0692  0.4940
 6310SOL    MW425008   5.613   3.444   4.830 -0.0916  0.5705  0.4824
 6311SOL     OW25009   1.592   2.178   5.390 -0.1594  0.0984  0.4346
 6311SOL    HW225010   1.618   2.088   5.410 -0.4548 -0.1388 -0.2200
 6311SOL    HW325011   1.645   2.232   5.449  1.5016 -0.3867 -0.5256
 6311SOL    MW425012   1.603   2.173   5.400  0.0208  0.0031  0.2215
 6312SOL     OW25013   0.333   3.905   1.790 -0.4281 -0.0279  0.4919
 6312SOL    HW225014   0.401   3.972   1.792  0.2578 -0.6987  0.0533
 6312SOL    HW325015   0.363   3.837   1.850 -1.4098  0.3081  1.4041
 6312SOL    MW425016   0.346   3.905   1.798 -0.4671 -0.0721  0.5544
 6313SOL     OW25017   4.097   5.277   0.139 -0.0376 -0.6988 -0.8223
 6313SOL    HW225018   4.006   5.290   0.168 -0.2129  1.0786 -2.0445
 6313SOL    HW325019   4.092   5.277   0.044  1.2328 -0.8442 -0.9042
 6313SOL    MW425020   4.084   5.279   0.131  0.1069 -0.4835 -0.9944
 6314SOL     OW25021   3.724   4.964   3.005  0.5189  0.3045  0.1392
 6314SOL    HW225022   3.798   4.904   2.992  0.2033 -0.4619  1.7252
 6314SOL    HW325023   3.658   4.911   3.049 -0.8472  1.0946 -0.8906
 6314SOL    MW425024   3.725   4.949   3.009  0.2970  0.3076  0.2126
 6315SOL     OW25025   4.957   2.085   0.363 -0.3223 -0.0340  0.1169
 6315SOL    HW225026   4.885   2.044   0.410  0.8254 -1.9501  0.2970
 6315SOL    HW325027   4.954   2.177   0.391 -2.5191 -0.0933  0.2823
 6315SOL    MW425028   4.947   2.092   0.373 -0.4608 -0.2946  0.1625
 6316SOL     OW25029   0.858   6.339   1.937 -0.0277  0.5349  0.1348
 6316SOL    HW225030   0.808   6.283   1.997 -0.1146 -0.4657 -0.8289
 6316SOL    HW325031   0.799   6.352   1.863  1.8116 -2.6705 -2.1795
 6316SOL    MW425032   0.843   6.333   1.935  0.2035 -0.0200 -0.2977
 6317SOL     OW25033   4.523   3.356   4.575 -0.1851  0.0614  0.1111
 6317SOL    HW225034   4.479   3.423   4.522 -1.5240 -1.2449 -0.4892
 6317SOL    HW325035   4.482   3.363   4.661 -1.7679 -1.2500 -0.4864
 6317SOL    MW425036   4.512   3.366   4.580 -0.5706 -0.2840 -0.0469
 6318SOL     OW25037   5.829   3.473   6.415  0.0306  0.2353 -0.2640
 6318SOL    HW225038   5.788   3.409   6.356 -0.1824  0.6741 -0.6013
 6318SOL    HW325039   5.922   3.471   6.392 -0.0141  0.2217 -0.4435
 6318SOL    MW425040   5.836   3.464   6.404 -0.0034  0.2914 -0.3322
 6319SOL     OW25041   4.078   4.916   1.745  0.2664 -0.4189  0.2683
 6319SOL    HW225042   4.113   4.890   1.830  0.7406 -2.5333 -0.5279
 6319SOL    HW325043   3.993   4.954   1.765  1.9080  2.8059  2.0359
 6319SOL    MW425044   4.072   4.918   1.759  0.5455 -0.2724  0.3965
 6320SOL     OW25045   0.329   2.983   5.037 -0.2229  0.0957  0.3636
 6320SOL    HW225046   0.397   3.048   5.051 -1.5638  1.2947  1.6401
 6320SOL    HW325047   0.297   3.001   4.948  2.1857 -1.6119 -0.9738
 6320SOL    MW425048   0.333   2.994   5.027 -0.0821  0.0286  0.3556
 6321SOL     OW25049   4.123   5.712   0.981 -0.0101 -0.4246  0.0011
 6321SOL    HW225050   4.184   5.674   1.045 -0.0178 -0.3610  0.0463
 6321SOL    HW325051   4.179   5.746   0.911  0.0277 -0.0845  0.1917
 6321SOL    MW425052   4.139   5.712   0.980 -0.0062 -0.3714  0.0322
 6322SOL     OW25053   1.388   0.463   5.308 -0.1049 -0.6271 -0.1398
 6322SOL    HW225054   1.474   0.421   5.303  0.5630  0.7525 -0.8084
 6322SOL    HW325055   1.408   0.555   5.324 -1.3805  0.0288 -2.0146
 6322SOL    MW425056   1.402   0.470   5.310 -0.1851 -0.3585 -0.4754
 6323SOL     OW25057   3.697   2.632   2.385 -0.0538 -0.4563 -0.4217
 6323SOL    HW225058   3.613   2.594   2.410  0.5210 -0.5189  1.6221
 6323SOL    HW325059   3.730   2.575   2.316 -0.9947 -1.3589 -0.1528
 6323SOL    MW425060   3.690   2.620   2.380 -0.1021 -0.5837 -0.1165
 6324SOL     OW25061   4.009   1.242   0.240  0.1196  0.1942 -0.3632
 6324SOL    HW225062   4.025   1.317   0.298  1.2807 -0.9539  0.8691
 6324SOL    HW325063   3.991   1.169   0.300  1.4401 -1.0532 -1.4168
 6324SOL    MW425064   4.009   1.242   0.256  0.4470 -0.1219 -0.3396
 6325SOL     OW25065   1.284   1.434   3.050 -0.1905  0.0747 -0.4138
 6325SOL    HW225066   1.193   1.424   3.021 -0.3662 -0.3783  0.2688
 6325SOL    HW325067   1.313   1.345   3.068  0.1785  0.2782  0.0076
 6325SOL    MW425068   1.276   1.421   3.048 -0.1650  0.0418 -0.2681
 6326SOL     OW25069   1.838   5.091   6.236  0.0099 -0.1203  0.1859
 6326SOL    HW225070   1.928   5.070   6.261  0.1233  0.5219  0.3290
 6326SOL    HW325071   1.784   5.046   6.301  0.1933 -0.9720 -0.2247
 6326SOL    MW425072   1.843   5.082   6.248  0.0491 -0.1479  0.1506
 6327SOL     OW25073   5.261   4.888   2.078 -0.3505 -0.8705 -0.4474
 6327SOL    HW225074   5.208   4.864   2.002  0.8358 -0.3356 -1.4820
 6327SOL    HW325075   5.258   4.984   2.079  0.2808 -0.8519 -0.2961
 6327SOL    MW425076   5.253   4.898   2.068 -0.1107 -0.7975 -0.5640
 6328SOL     OW25077   0.898   6.014   0.554 -0.0709 -0.6948 -0.5514
 6328SOL    HW225078   0.979   5.986   0.598  0.0256 -0.4658 -0.5844
 6328SOL    HW325079   0.926   6.042   0.467 -0.0110  0.5038 -0.1661
 6328SOL    MW425080   0.913   6.014   0.549 -0.0503 -0.5064 -0.5049
 6329SOL     OW25081   2.576   4.134   6.308  0.0580  0.0004 -0.2655
 6329SOL    HW225082   2.631   4.138   6.386  0.7099 -0.0129 -0.7123
 6329SOL    HW325083   2.539   4.222   6.299  1.3112  0.4862 -0.8720
 6329SOL    MW425084   2.578   4.146   6.317  0.3094  0.0627 -0.4044
 6330SOL     OW25085   3.437   0.798   1.581  0.8776  0.0945  0.0158
 6330SOL    HW225086   3.499   0.776   1.650  0.4884 -1.4644 -0.1045
 6330SOL    HW325087   3.452   0.892   1.565  2.1301  0.0992  1.0262
 6330SOL    MW425088   3.447   0.808   1.588  0.9915 -0.1106  0.1332
 6331SOL     OW25089   6.377   1.866   2.379  0.5274 -0.5931  0.3833
 6331SOL    HW225090   6.368   1.804   2.306  1.6209  0.2590 -0.4948
 6331SOL    HW325091   6.414   1.945   2.340 -0.4988  0.5186  1.5487
 6331SOL    MW425092   6.380   1.868   2.364  0.5363 -0.3340  0.4212
 6332SOL     OW25093   0.672   4.193   2.087 -0.2755 -0.1462 -0.2198
 6332SOL    HW225094   0.686   4.157   2.175  1.2871  1.1750  0.1082
 6332SOL    HW325095   0.576   4.199   2.080 -0.4582 -0.8235  1.1534
 6332SOL    MW425096   0.661   4.189   2.098 -0.0935 -0.0612  0.0046
 6333SOL     OW25097   0.844   4.471   4.362 -0.0161 -0.5069 -0.1515
 6333SOL    HW225098   0.926   4.427   4.341 -0.6433 -1.5172 -0.5755
 6333SOL    HW325099   0.812   4.428   4.441  0.4473  0.7122  0.7318
 6333SOL    MW425100   0.850   4.460   4.369 -0.0377 -0.4793 -0.0909
 6334SOL     OW25101   1.904   1.815   1.301 -0.5985  0.8422 -0.6958
 6334SOL    HW225102   1.831   1.761   1.271 -1.6489  2.1644 -0.6351
 6334SOL    HW325103   1.981   1.761   1.285 -1.5810 -0.6442 -0.6612
 6334SOL    MW425104   1.904   1.801   1.295 -0.8667  0.8206 -0.6833
 6335SOL     OW25105   5.730   4.898   2.227  0.0586 -0.2607 -0.3996
 6335SOL    HW225106   5.808   4.857   2.190  0.7244  1.2170 -0.7022
 6335SOL    HW325107   5.728   4.986   2.187 -1.1847  0.0942  0.3881
 6335SOL    MW425108   5.740   4.904   2.217 -0.0176 -0.0189 -0.3356
 6336SOL     OW25109   1.635   4.881   3.989  0.3807 -0.1987  0.0073
 6336SOL    HW225110   1.596   4.794   3.990  1.6427 -0.8024  1.5644
 6336SOL    HW325111   1.593   4.927   4.062  1.9823 -0.6201  1.2468
 6336SOL    MW425112   1.624   4.875   3.999  0.7585 -0.3339  0.3762
 6337SOL     OW25113   6.347   2.145   4.174 -0.0616  0.4279 -0.1379
 6337SOL    HW225114   6.287   2.077   4.205 -0.3889  0.6971 -0.1721
 6337SOL    HW325115   6.422   2.097   4.141 -0.2672  0.0821 -0.1120
 6337SOL    MW425116   6.349   2.130   4.174 -0.1319  0.4178 -0.1390
 6338SOL     OW25117   2.424   3.082   4.630 -0.3291 -0.4571  0.0473
 6338SOL    HW225118   2.352   3.110   4.574 -0.4196 -2.3807 -0.8545
 6338SOL    HW325119   2.444   3.160   4.683 -3.5815 -0.0516  0.9403
 6338SOL    MW425120   2.417   3.096   4.630 -0.7702 -0.6574  0.0462
 6339SOL     OW25121   6.215   5.363   3.687 -0.0646  0.0720  0.1646
 6339SOL    HW225122   6.163   5.443   3.684 -0.9719 -0.4411  1.2111
 6339SOL    HW325123   6.182   5.309   3.616 -0.2245  0.1853  0.1538
 6339SOL    MW425124   6.204   5.366   3.677 -0.2054  0.0192  0.3013
 6340SOL     OW25125   5.932   2.098   4.268  0.0491 -0.1869 -0.3925
 6340SOL    HW225126   5.952   2.121   4.178 -1.0843  2.1814 -0.1235
 6340SOL    HW325127   5.924   2.182   4.313 -0.7814 -1.2593  1.5979
 6340SOL    MW425128   5.934   2.112   4.262 -0.2100 -0.0159 -0.0944
 6341SOL     OW25129   2.392   1.846   4.958  0.5873  0.0929  0.3980
 6341SOL    HW225130   2.472   1.844   5.011  0.5392  0.1801  0.4735
 6341SOL    HW325131   2.379   1.939   4.938  0.0861  0.1599  1.0191
 6341SOL    MW425132   2.401   1.858   4.962  0.5148  0.1132  0.4899
 6342SOL     OW25133   1.144   5.121   2.231 -0.3185 -0.4973 -0.4200
 6342SOL    HW225134   1.240   5.114   2.232 -0.2262 -0.1964  2.7216
 6342SOL    HW325135   1.119   5.093   2.143  2.6381 -0.5882 -1.3465
 6342SOL    MW425136   1.153   5.117   2.220  0.0838 -0.4696 -0.1277
 6343SOL     OW25137   0.268   0.826   2.066 -0.1403 -0.4341  0.2182
 6343SOL    HW225138   0.265   0.881   1.988  1.1276 -1.9231 -0.9424
 6343SOL    HW325139   0.290   0.886   2.137  1.3522  0.5429 -1.0146
 6343SOL    MW425140   0.270   0.841   2.065  0.2239 -0.5017 -0.0976
 6344SOL     OW25141   0.317   2.139   1.472  0.4014  0.1393 -0.6037
 6344SOL    HW225142   0.327   2.094   1.556  2.3161 -3.2095 -2.3942
 6344SOL    HW325143   0.346   2.228   1.489  0.8319 -0.4517  2.2604
 6344SOL    MW425144   0.322   2.145   1.485  0.7108 -0.3805 -0.4620
 6345SOL     OW25145   2.317   6.026   5.907  0.6356  0.4813  0.4372
 6345SOL    HW225146   2.322   5.979   5.990  1.0120 -0.6343 -0.2026
 6345SOL    HW325147   2.408   6.051   5.888  0.9789 -1.6623 -0.9643
 6345SOL    MW425148   2.330   6.023   5.916  0.7305  0.0513  0.1679
 6346SOL     OW25149   2.880   3.334   6.047 -0.3864  0.6540  0.3011
 6346SOL    HW225150   2.828   3.296   6.118 -0.0751  1.2249  0.8394
 6346SOL    HW325151   2.828   3.410   6.018 -1.3321 -0.5176 -1.2105
 6346SOL    MW425152   2.866   3.339   6.052 -0.4701  0.5748  0.1727
 6347SOL     OW25153   5.352   5.780   1.488 -0.3343  0.1252 -0.2429
 6347SOL    HW225154   5.312   5.734   1.415 -0.4584  0.3794 -0.3346
 6347SOL    HW325155   5.293   5.765   1.562  0.3849 -1.1164  0.1040
 6347SOL    MW425156   5.339   5.772   1.488 -0.2558 -0.0051 -0.2092
 6348SOL     OW25157   5.660   0.510   1.579 -0.1272 -0.4764  0.3671
 6348SOL    HW225158   5.566   0.528   1.572  0.0692  1.3248  1.6531
 6348SOL    HW325159   5.670   0.471   1.667  0.3424 -0.6086  0.2557
 6348SOL    MW425160   5.649   0.507   1.590 -0.0393 -0.2562  0.5220
 6349SOL     OW25161   2.839   4.330   4.069  0.3934 -0.6478 -0.2183
 6349SOL    HW225162   2.921   4.335   4.020 -0.0089  0.9277 -0.7872
 6349SOL    HW325163   2.779   4.284   4.011  0.0929  0.6737 -0.9873
 6349SOL    MW425164   2.842   4.324   4.055  0.3007 -0.2656 -0.3949
 6350SOL     OW25165   5.218   4.482   5.655  0.3843  0.6105 -0.2559
 6350SOL    HW225166   5.216   4.392   5.623 -1.4108  0.2247  0.8333
 6350SOL    HW325167   5.219   4.535   5.575 -1.6692 -0.3453 -0.9895
 6350SOL    MW425168   5.218   4.477   5.640 -0.1235  0.4335 -0.2090
 6351SOL     OW25169   6.390   0.145   3.435 -0.6965  0.0367  0.0470
 6351SOL    HW225170   6.374   0.057   3.468  1.0802 -0.4655 -0.3173
 6351SOL    HW325171   6.484   0.159   3.448 -0.9621  1.9286  0.2031
 6351SOL    MW425172   6.400   0.135   3.441 -0.4972  0.2200  0.0196
 6352SOL     OW25173   3.433   4.488   2.746 -0.4803 -0.3842 -0.5389
 6352SOL    HW225174   3.389   4.571   2.725 -1.1198 -0.0888  1.7079
 6352SOL    HW325175   3.424   4.435   2.666 -1.3810  1.1523 -1.4995
 6352SOL    MW425176   3.426   4.492   2.732 -0.6835 -0.1425 -0.3692
 6353SOL     OW25177   0.407   5.708   4.558 -0.1536 -0.2421  0.0901
 6353SOL    HW225178   0.446   5.751   4.482 -0.0806 -0.4033  0.0354
 6353SOL    HW325179   0.437   5.618   4.553  1.0659  0.0793  1.1394
 6353SOL    MW425180   0.416   5.702   4.547  0.0169 -0.2210  0.2213
 6354SOL     OW25181   4.026   6.188   3.697 -0.4999  0.1213 -0.0421
 6354SOL    HW225182   4.037   6.282   3.681  0.6948 -0.3060 -1.9567
 6354SOL    HW325183   3.938   6.181   3.735 -1.4173  1.8244 -1.6894
 6354SOL    MW425184   4.016   6.200   3.700 -0.4633  0.2896 -0.5120
 6355SOL     OW25185   4.386   2.071   1.410  0.2711 -0.2094  0.6797
 6355SOL    HW225186   4.422   2.016   1.340 -3.3183  0.7944 -2.2626
 6355SOL    HW325187   4.317   2.018   1.450 -1.0098  0.9174  0.0354
 6355SOL    MW425188   4.382   2.057   1.406 -0.3715  0.0717  0.2065
 6356SOL     OW25189   2.418   3.421   2.171  0.0064  0.3929 -0.3994
 6356SOL    HW225190   2.459   3.494   2.126 -0.4904  1.2957  0.5740
 6356SOL    HW325191   2.488   3.384   2.225 -0.2986  1.6024  0.8573
 6356SOL    MW425192   2.433   3.425   2.172 -0.0994  0.6716 -0.1052
 6357SOL     OW25193   1.870   1.544   4.552  0.3694  0.0285 -0.2729
 6357SOL    HW225194   1.862   1.638   4.569  2.1587  0.4045 -1.2604
 6357SOL    HW325195   1.946   1.516   4.602 -0.6120 -1.1077  0.6557
 6357SOL    MW425196   1.879   1.553   4.560  0.4760 -0.0718 -0.2807
 6358SOL     OW25197   2.662   3.288   3.779  0.1369 -0.0519  0.4269
 6358SOL    HW225198   2.641   3.203   3.740 -0.3500  0.1063  0.3336
 6358SOL    HW325199   2.736   3.320   3.727 -1.0826  0.5652 -1.0050
 6358SOL    MW425200   2.669   3.281   3.767 -0.0883  0.0504  0.2257
 6359SOL     OW25201   0.466   3.931   1.528  0.0360 -0.0179  0.3995
 6359SOL    HW225202   0.434   3.883   1.604 -1.2476  0.3422  0.1043
 6359SOL    HW325203   0.399   3.917   1.461  0.9478 -0.0056 -0.5483
 6359SOL    MW425204   0.453   3.923   1.529 -0.0131  0.0313  0.2355
 6360SOL     OW25205   2.562   6.138   4.095  0.2003 -0.3769 -0.0972
 6360SOL    HW225206   2.475   6.109   4.122 -0.2121  1.5435  0.8140
 6360SOL    HW325207   2.559   6.233   4.102  2.2381 -0.2325 -0.5101
 6360SOL    MW425208   2.550   6.146   4.099  0.4148 -0.1045 -0.0315
 6361SOL     OW25209   2.000   4.263   1.108  0.4792 -0.1762 -0.0413
 6361SOL    HW225210   2.066   4.194   1.103 -0.3740 -1.0202  0.2889
 6361SOL    HW325211   1.919   4.219   1.133 -0.1009  0.9295  0.1157
 6361SOL    MW425212   1.998   4.248   1.110  0.2901 -0.1417  0.0230
 6362SOL     OW25213   6.026   3.117   4.701  0.3777 -0.2308 -0.3605
 6362SOL    HW225214   6.094   3.108   4.634 -0.9991  0.7382 -1.9437
 6362SOL    HW325215   6.074   3.145   4.779  1.9147 -0.5053 -1.1532
 6362SOL    MW425216   6.042   3.119   4.702  0.3988 -0.1392 -0.6739
 6363SOL     OW25217   3.515   5.771   4.051  0.1263 -0.5453  0.5374
 6363SOL    HW225218   3.601   5.750   4.014  0.3034  0.2879  0.4481
 6363SOL    HW325219   3.512   5.726   4.135  0.5050 -0.8724  0.3754
 6363SOL    MW425220   3.526   5.762   4.057  0.1996 -0.4785  0.5042
 6364SOL     OW25221   5.404   5.312   5.474 -0.2995 -0.2395  0.3306
 6364SOL    HW225222   5.481   5.319   5.418 -0.3655  0.4088  0.3144
 6364SOL    HW325223   5.437   5.273   5.555 -0.0211 -0.3081  0.1866
 6364SOL    MW425224   5.419   5.308   5.477 -0.2715 -0.1631  0.3094
 6365SOL     OW25225   1.473   5.292   1.044  0.2189 -0.0344 -0.0268
 6365SOL    HW225226   1.480   5.197   1.051  0.0737  0.0744  2.1527
 6365SOL    HW325227   1.563   5.323   1.042  0.3039 -0.2305 -2.1576
 6365SOL    MW425228   1.485   5.284   1.044  0.2109 -0.0459 -0.0204
 6366SOL     OW25229   0.959   5.404   1.464 -0.3464 -0.4293 -0.2031
 6366SOL    HW225230   0.941   5.409   1.558  0.8863  0.6677  0.0088
 6366SOL    HW325231   0.875   5.423   1.422 -0.8682 -0.7580  0.6758
 6366SOL    MW425232   0.946   5.407   1.471 -0.2526 -0.3279 -0.0592
 6367SOL     OW25233   0.031   4.544   2.198 -0.5086  0.3000  0.2372
 6367SOL    HW225234   0.119   4.505   2.192 -0.4714  0.4275 -0.0601
 6367SOL    HW325235   0.045   4.637   2.179 -0.8227  0.1767 -0.6222
 6367SOL    MW425236   0.045   4.551   2.195 -0.5452  0.3006  0.0846
 6368SOL     OW25237   0.761   3.865   5.790  0.3432  0.2205  0.2516
 6368SOL    HW225238   0.815   3.824   5.857  1.1364 -1.6184 -1.4163
 6368SOL    HW325239   0.768   3.807   5.714 -1.6594  1.4602 -0.9811
 6368SOL    MW425240   0.769   3.852   5.789  0.1836  0.1415 -0.1311
 6369SOL     OW25241   4.271   5.664   3.091 -0.1519  0.0992 -0.0769
 6369SOL    HW225242   4.229   5.740   3.131 -0.7309  0.1154 -0.7023
 6369SOL    HW325243   4.289   5.605   3.165 -2.2971 -0.4041  0.1071
 6369SOL    MW425244   4.268   5.666   3.106 -0.5113  0.0350 -0.1352
 6370SOL     OW25245   5.637   0.013   4.706  0.2845  0.4274  0.6693
 6370SOL    HW225246   5.684  -0.045   4.646  2.1926  1.2136  1.3247
 6370SOL    HW325247   5.570   0.054   4.651  0.6430 -0.3959 -0.4311
 6370SOL    MW425248   5.635   0.011   4.691  0.5836  0.4225  0.6106
 6371SOL     OW25249   1.647   5.698   1.449 -0.0419 -0.3341  0.0992
 6371SOL    HW225250   1.740   5.676   1.437  0.0873  0.7276 -0.9887
 6371SOL    HW325251   1.609   5.693   1.361 -0.8506 -0.0445  0.4209
 6371SOL    MW425252   1.655   5.694   1.436 -0.1316 -0.1558 -0.0019
 6372SOL     OW25253   1.948   0.846   2.842 -0.2952  0.6656 -0.0185
 6372SOL    HW225254   1.855   0.867   2.843 -0.6451 -0.5253 -1.6768
 6372SOL    HW325255   1.957   0.775   2.906 -1.1806 -1.2949 -1.9179
 6372SOL    MW425256   1.937   0.839   2.850 -0.4582  0.2498 -0.4879
 6373SOL     OW25257   0.447   2.980   0.390 -0.1589 -0.4870 -0.2175
 6373SOL    HW225258   0.387   3.043   0.349  0.0541  0.1865  0.4945
 6373SOL    HW325259   0.422   2.980   0.482 -0.7307 -2.1117 -0.3476
 6373SOL    MW425260   0.436   2.989   0.396 -0.2063 -0.6125 -0.1407
 6374SOL     OW25261   2.135   2.012   4.620 -0.3259 -0.0741 -0.2154
 6374SOL    HW225262   2.076   1.937   4.629 -1.3438  0.8712  1.6747
 6374SOL    HW325263   2.077   2.088   4.627  1.0237  0.8908  0.8361
 6374SOL    MW425264   2.119   2.012   4.622 -0.2821  0.1779  0.1727
 6375SOL     OW25265   5.482   0.783   2.492  0.2555  0.1256 -0.0489
 6375SOL    HW225266   5.393   0.769   2.458  0.1639 -0.4603  0.4265
 6375SOL    HW325267   5.538   0.735   2.431  0.0139 -1.7081  1.1063
 6375SOL    MW425268   5.478   0.775   2.479  0.2115 -0.1937  0.1663
 6376SOL     OW25269   2.482   3.105   4.273 -0.2673  0.3354  0.2307
 6376SOL    HW225270   2.495   3.147   4.189 -0.1299 -1.9236 -0.9498
 6376SOL    HW325271   2.563   3.056   4.289 -1.1619 -1.1566  0.4685
 6376SOL    MW425272   2.494   3.104   4.264 -0.3672 -0.1595  0.1063
 6377SOL     OW25273   5.919   0.741   6.353 -0.8532  0.1167 -0.7741
 6377SOL    HW225274   5.831   0.777   6.346 -0.6791  0.9960  1.0135
 6377SOL    HW325275   5.969   0.786   6.284 -1.4574  0.7355 -0.8189
 6377SOL    MW425276   5.914   0.752   6.343 -0.9099  0.3143 -0.5441
 6378SOL     OW25277   0.085   0.876   5.373  0.2392  0.6506 -0.7445
 6378SOL    HW225278   0.176   0.845   5.368 -0.2882 -0.7741 -2.3920
 6378SOL    HW325279   0.070   0.918   5.288 -0.3598  1.7621 -0.1048
 6378SOL    MW425280   0.095   0.878   5.361  0.0906  0.6093 -0.8775
 6379SOL     OW25281   1.363   3.167   2.433  0.6398 -0.1009 -0.6231
 6379SOL    HW225282   1.402   3.196   2.351 -0.3217  0.9436 -0.7349
 6379SOL    HW325283   1.355   3.072   2.424 -1.4899  0.1707 -2.7150
 6379SOL    MW425284   1.367   3.158   2.421  0.2320  0.0727 -0.9139
 6380SOL     OW25285   0.864   1.661   3.133 -0.4591 -0.5801  1.0254
 6380SOL    HW225286   0.828   1.662   3.222 -2.3838  1.9068  0.3056
 6380SOL    HW325287   0.814   1.593   3.088 -0.3568 -0.9562  1.4624
 6380SOL    MW425288   0.853   1.652   3.139 -0.6995 -0.3016  0.9881
 6381SOL     OW25289   3.556   2.066   2.770  0.1429  0.2992 -0.4629
 6381SOL    HW225290   3.586   2.114   2.848  0.9536 -1.1008  0.1154
 6381SOL    HW325291   3.462   2.081   2.768 -0.0926 -0.5845  1.4894
 6381SOL    MW425292   3.548   2.075   2.780  0.2188 -0.0021 -0.1291
 6382SOL     OW25293   5.717   0.589   3.089  0.7624  0.1883 -0.1729
 6382SOL    HW225294   5.665   0.550   3.019 -0.4349  0.8302  0.3327
 6382SOL    HW325295   5.763   0.662   3.047  1.5122 -0.5632 -0.6866
 6382SOL    MW425296   5.716   0.594   3.074  0.7034  0.1738 -0.1739
 6383SOL     OW25297   0.875   1.169   2.986 -0.0790 -0.0231 -0.1112
 6383SOL    HW225298   0.794   1.191   2.940  0.5957  0.8203 -0.9574
 6383SOL    HW325299   0.922   1.252   2.992  1.1704 -0.6719 -0.5625
 6383SOL    MW425300   0.871   1.183   2.980  0.1749  0.0026 -0.2824
 6384SOL     OW25301   4.080   1.164   5.676  0.0556 -0.5826  0.5135
 6384SOL    HW225302   4.100   1.126   5.591 -0.9891  0.7185 -0.3567
 6384SOL    HW325303   4.007   1.224   5.659  0.7393  0.7613  2.0556
 6384SOL    MW425304   4.073   1.167   5.663  0.0080 -0.2337  0.6021
 6385SOL     OW25305   4.778   6.046   1.369  0.0468 -0.1261  0.2419
 6385SOL    HW225306   4.690   6.076   1.390  0.1553  0.6931 -0.4284
 6385SOL    HW325307   4.827   6.126   1.351  0.2359 -0.7000 -2.0095
 6385SOL    MW425308   4.773   6.060   1.370  0.0861 -0.0937 -0.1436
 6386SOL     OW25309   3.933   5.045   5.048 -0.5145  0.4607 -0.6730
 6386SOL    HW225310   3.936   4.959   5.090  0.0455  0.2243 -1.1765
 6386SOL    HW325311   3.840   5.068   5.046 -0.5486  0.5516  0.8143
 6386SOL    MW425312   3.921   5.037   5.053 -0.4451  0.4415 -0.5432
 6387SOL     OW25313   1.610   2.370   5.052 -0.2282  0.2918 -0.1136
 6387SOL    HW225314   1.680   2.431   5.030 -0.3675  1.2553  1.8967
 6387SOL    HW325315   1.586   2.393   5.141  0.3423 -3.3064  1.1180
 6387SOL    MW425316   1.616   2.381   5.060 -0.1713 -0.0558  0.3141
 6388SOL     OW25317   1.376   4.319   0.055  0.5799 -0.2960  0.2227
 6388SOL    HW225318   1.435   4.356   0.120 -0.1431  0.8452  0.2493
 6388SOL    HW325319   1.330   4.248   0.101  1.0806 -0.4238  0.5320
 6388SOL    MW425320   1.378   4.314   0.069  0.5506 -0.1623  0.2670
 6389SOL     OW25321   2.280   5.689   1.106 -0.1300  0.6794 -0.0725
 6389SOL    HW225322   2.303   5.604   1.144 -1.8910  0.2240  0.0847
 6389SOL    HW325323   2.364   5.728   1.082  0.8379 -0.3733  1.3897
 6389SOL    MW425324   2.294   5.683   1.108 -0.2347  0.4805  0.1412
 6390SOL     OW25325   4.635   5.881   4.010 -0.1795 -0.1478  0.1172
 6390SOL    HW225326   4.667   5.796   4.039  0.3041 -0.2296 -0.6554
 6390SOL    HW325327   4.634   5.934   4.090  0.7127 -0.5004  0.3741
 6390SOL    MW425328   4.639   5.877   4.025  0.0020 -0.2051  0.0492
 6391SOL     OW25329   6.177   2.298   5.572  0.5973  0.5508 -0.3822
 6391SOL    HW225330   6.116   2.344   5.630 -0.3900 -2.2967  1.0528
 6391SOL    HW325331   6.128   2.286   5.491 -1.0189 -1.8568  0.8109
 6391SOL    MW425332   6.162   2.302   5.569  0.2538 -0.1426 -0.0354
 6392SOL     OW25333   4.682   5.756   4.409  0.4512  1.2293 -0.4532
 6392SOL    HW225334   4.670   5.762   4.504  2.0288 -0.0823 -0.1262
 6392SOL    HW325335   4.610   5.701   4.379  0.0510  1.4950 -0.0128
 6392SOL    MW425336   4.671   5.750   4.418  0.6065  1.0913 -0.3519
 6393SOL     OW25337   5.713   1.163   6.287 -0.3890  0.6126 -0.3395
 6393SOL    HW225338   5.659   1.225   6.335  0.0681  2.0239 -1.5764
 6393SOL    HW325339   5.784   1.140   6.347 -3.1399 -2.7117  2.0539
 6393SOL    MW425340   5.715   1.168   6.301 -0.6916  0.3602 -0.1869
 6394SOL     OW25341   5.600   5.804   4.559 -0.0439 -0.7445  0.1798
 6394SOL    HW225342   5.536   5.734   4.570 -0.4006 -0.6594 -1.1775
 6394SOL    HW325343   5.684   5.762   4.573 -0.2409 -1.5127 -0.8551
 6394SOL    MW425344   5.602   5.790   4.562 -0.1169 -0.8346 -0.1359
 6395SOL     OW25345   1.545   5.820   3.764  0.1119  0.3915 -0.1502
 6395SOL    HW225346   1.562   5.874   3.841  0.9933  0.7863 -0.6107
 6395SOL    HW325347   1.608   5.749   3.769  0.4022  0.6054 -0.6814
 6395SOL    MW425348   1.555   5.818   3.775  0.2665  0.4718 -0.2811
 6396SOL     OW25349   1.019   5.379   3.505 -0.4233  0.1748  0.5964
 6396SOL    HW225350   0.936   5.366   3.550  0.2676  0.0398  1.8622
 6396SOL    HW325351   1.053   5.290   3.492  0.7144  0.2921  2.4177
 6396SOL    MW425352   1.012   5.366   3.509 -0.1821  0.1725  1.0037
 6397SOL     OW25353   2.004   0.690   3.996  0.2858 -0.0633  0.3577
 6397SOL    HW225354   1.915   0.723   3.981  0.7441  0.9263 -0.3488
 6397SOL    HW325355   2.004   0.662   4.088 -1.7796 -3.5265 -0.5035
 6397SOL    MW425356   1.992   0.691   4.006  0.0738 -0.3897  0.1509
 6398SOL     OW25357   2.510   3.326   0.785  0.4063 -0.6170 -0.1864
 6398SOL    HW225358   2.586   3.293   0.833 -0.9312  0.3519  2.8115
 6398SOL    HW325359   2.435   3.308   0.842 -1.3616  0.4760 -2.0156
 6398SOL    MW425360   2.510   3.319   0.799 -0.0034 -0.3450 -0.0322
 6399SOL     OW25361   1.227   4.655   0.607  0.2672  0.1204  0.8826
 6399SOL    HW225362   1.262   4.596   0.675  0.4525  0.5070  1.1299
 6399SOL    HW325363   1.225   4.602   0.528 -0.7897 -0.6198  1.3718
 6399SOL    MW425364   1.231   4.640   0.606  0.1522  0.0737  0.9798
 6400SOL     OW25365   4.236   1.874   1.530 -0.5013 -0.2768 -0.3709
 6400SOL    HW225366   4.143   1.888   1.547 -0.1911  0.3143  1.0018
 6400SOL    HW325367   4.245   1.779   1.519 -0.8969 -0.6937  2.2614
 6400SOL    MW425368   4.225   1.863   1.531 -0.5126 -0.2538  0.1575
 6401SOL     OW25369   3.005   5.197   1.100 -0.3029  0.4182  0.6644
 6401SOL    HW225370   3.078   5.139   1.078  0.9039  2.2182 -0.3331
 6401SOL    HW325371   2.957   5.207   1.017 -1.2337 -0.1056  1.1234
 6401SOL    MW425372   3.008   5.190   1.086 -0.2665  0.5866  0.5934
 6402SOL     OW25373   1.176   2.259   1.570  0.3483 -0.1929 -0.4067
 6402SOL    HW225374   1.083   2.281   1.567  0.4799  0.3196 -1.0867
 6402SOL    HW325375   1.196   2.231   1.481  0.6867 -0.9853 -0.0845
 6402SOL    MW425376   1.166   2.259   1.558  0.4103 -0.2298 -0.4539
 6403SOL     OW25377   0.689   4.859   1.807  0.3604 -0.1682  0.0963
 6403SOL    HW225378   0.642   4.903   1.878  1.9908  1.7233  0.0950
 6403SOL    HW325379   0.665   4.767   1.817 -1.3086  0.3475  1.6181
 6403SOL    MW425380   0.679   4.853   1.818  0.3553  0.1494  0.2969
 6404SOL     OW25381   5.630   4.937   0.915 -0.1661 -0.0275  0.4213
 6404SOL    HW225382   5.552   4.980   0.880  0.5093 -0.2227 -1.4283
 6404SOL    HW325383   5.638   4.970   1.005 -2.0000  0.4775  0.4243
 6404SOL    MW425384   5.621   4.947   0.922 -0.3190  0.0134  0.1777
 6405SOL     OW25385   3.109   2.288   5.841 -0.3989 -0.0008 -0.6253
 6405SOL    HW225386   3.102   2.353   5.910 -0.9871  0.5048 -1.1460
 6405SOL    HW325387   3.196   2.251   5.850 -0.2849  0.4331  0.0549
 6405SOL    MW425388   3.119   2.291   5.851 -0.4615  0.1231 -0.6043
 6406SOL     OW25389   3.244   1.438   1.994 -0.4501 -0.1651  0.1219
 6406SOL    HW225390   3.187   1.436   1.917  1.3489 -0.1570 -1.2965
 6406SOL    HW325391   3.268   1.531   2.002 -0.0781 -0.2691  0.2337
 6406SOL    MW425392   3.240   1.450   1.985 -0.1637 -0.1777 -0.0505
 6407SOL     OW25393   1.436   0.856   4.580  0.0750  0.5298 -0.8680
 6407SOL    HW225394   1.350   0.869   4.619  0.1011  0.7363 -0.8801
 6407SOL    HW325395   1.419   0.842   4.487  0.0762  0.8456 -0.9156
 6407SOL    MW425396   1.423   0.856   4.573  0.0786  0.5987 -0.8759
 6408SOL     OW25397   2.399   0.273   0.018 -0.5782  0.0092 -0.5754
 6408SOL    HW225398   2.352   0.347   0.056 -1.1259 -0.6867  0.1486
 6408SOL    HW325399   2.353   0.196   0.053  1.8725 -0.7492  1.2264
 6408SOL    MW425400   2.386   0.272   0.028 -0.3271 -0.1827 -0.2421
 6409SOL     OW25401   0.742   4.937   3.601 -0.0638 -0.0298 -0.2187
 6409SOL    HW225402   0.767   5.008   3.659 -0.1408 -0.9975  1.0380
 6409SOL    HW325403   0.728   4.862   3.659  1.1611 -1.3957 -1.5911
 6409SOL    MW425404   0.743   4.936   3.616  0.0877 -0.3377 -0.2340
 6410SOL     OW25405   4.528   3.596   2.508 -0.1128 -0.2911 -0.3126
 6410SOL    HW225406   4.464   3.529   2.533  2.3142 -2.4460  0.6388
 6410SOL    HW325407   4.592   3.549   2.455  1.6403  1.2763  0.3063
 6410SOL    MW425408   4.528   3.581   2.505  0.4387 -0.3686 -0.1054
 6411SOL     OW25409   2.065   6.269   5.184 -0.5718 -0.4411 -0.0019
 6411SOL    HW225410   2.134   6.287   5.119 -0.8080  0.4269 -0.0326
 6411SOL    HW325411   2.104   6.295   5.267  0.7517 -4.0803  0.7038
 6411SOL    MW425412   2.079   6.275   5.186 -0.4284 -0.8067  0.0871
 6412SOL     OW25413   4.380   2.851   3.690  0.0250  0.7855  0.1707
 6412SOL    HW225414   4.356   2.804   3.769 -0.3681  0.7813  0.0509
 6412SOL    HW325415   4.475   2.857   3.693  0.3137 -1.8599 -0.8443
 6412SOL    MW425416   4.389   2.846   3.701  0.0112  0.4359  0.0210
 6413SOL     OW25417   2.486   3.483   2.711  0.4421 -0.1975  0.1744
 6413SOL    HW225418   2.577   3.453   2.710  0.4662 -0.1229 -0.9700
 6413SOL    HW325419   2.488   3.569   2.670  0.0588  0.4734  1.5076
 6413SOL    MW425420   2.498   3.490   2.705  0.3947 -0.0991  0.1993
 6414SOL     OW25421   1.126   5.273   1.883  0.0182  0.3155  0.0739
 6414SOL    HW225422   1.208   5.265   1.932 -1.0195  0.6809  1.9684
 6414SOL    HW325423   1.061   5.231   1.939 -1.0098 -0.5197 -1.6871
 6414SOL    MW425424   1.128   5.267   1.897 -0.2543  0.2535  0.0915
 6415SOL     OW25425   0.912   2.354   1.527 -0.4029 -0.4453  0.1705
 6415SOL    HW225426   0.917   2.441   1.568 -0.9320 -0.5053  0.3715
 6415SOL    HW325427   0.833   2.358   1.473 -0.0010 -0.5462 -0.4410
 6415SOL    MW425428   0.902   2.366   1.525 -0.4197 -0.4665  0.1164
 6416SOL     OW25429   2.204   4.133   0.959  0.2983  0.5092 -0.1308
 6416SOL    HW225430   2.234   4.223   0.949  1.0420  0.7355  3.1716
 6416SOL    HW325431   2.285   4.083   0.973 -0.2078 -0.4618 -0.5845
 6416SOL    MW425432   2.219   4.138   0.959  0.3297  0.4110  0.2450
 6417SOL     OW25433   4.996   1.064   2.587 -0.2630  0.1720  0.4271
 6417SOL    HW225434   4.918   1.053   2.641 -1.0900 -0.5885 -0.8872
 6417SOL    HW325435   4.975   1.137   2.529 -0.8440 -1.3099 -1.3135
 6417SOL    MW425436   4.983   1.072   2.586 -0.4488 -0.1239  0.0240
 6418SOL     OW25437   1.127   5.911   4.675  0.7651  0.0934  0.3470
 6418SOL    HW225438   1.141   6.004   4.690 -0.1760  0.5559 -1.4787
 6418SOL    HW325439   1.034   5.897   4.694  0.7004 -0.2844 -0.2292
 6418SOL    MW425440   1.117   5.921   4.680  0.6324  0.1046  0.0301
 6419SOL     OW25441   3.788   4.035   6.203  0.3714 -0.0906  0.7150
 6419SOL    HW225442   3.793   4.129   6.188 -0.9609  0.5142  3.4577
 6419SOL    HW325443   3.695   4.014   6.196  0.7952 -1.5165 -1.2142
 6419SOL    MW425444   3.777   4.045   6.200  0.2515 -0.1989  0.8223
 6420SOL     OW25445   5.433   0.961   2.836 -0.3261 -0.1753  0.3270
 6420SOL    HW225446   5.395   0.908   2.906 -1.8354  0.9695  0.4352
 6420SOL    HW325447   5.358   0.987   2.783  0.3225  1.9940  0.3867
 6420SOL    MW425448   5.418   0.957   2.838 -0.4397  0.2620  0.3491
 6421SOL     OW25449   1.813   2.145   6.079  0.2085 -0.0736  0.0081
 6421SOL    HW225450   1.816   2.124   5.985 -0.6961 -0.8329  0.1381
 6421SOL    HW325451   1.869   2.222   6.087  1.3629 -0.7770 -0.9423
 6421SOL    MW425452   1.821   2.152   6.067  0.2414 -0.2666 -0.1001
 6422SOL     OW25453   2.443   0.301   0.708 -0.4431  0.5009  0.3545
 6422SOL    HW225454   2.451   0.327   0.800 -0.8063  0.9338  0.2621
 6422SOL    HW325455   2.504   0.358   0.662  0.3557 -0.2619  0.4165
 6422SOL    MW425456   2.452   0.312   0.714 -0.3856  0.4574  0.3505
 6423SOL     OW25457   3.357   0.262   5.458  0.4862  0.5531  0.3619
 6423SOL    HW225458   3.271   0.223   5.445 -1.0085  4.0807 -1.9581
 6423SOL    HW325459   3.414   0.215   5.396 -0.1802 -0.5906  0.5856
 6423SOL    MW425460   3.353   0.250   5.448  0.2011  0.8676  0.0853
 6424SOL     OW25461   4.744   2.403   3.946  0.8421 -0.9664 -0.2382
 6424SOL    HW225462   4.778   2.364   3.865 -0.4357 -0.1920 -1.2122
 6424SOL    HW325463   4.679   2.340   3.977  2.6112 -2.1283  1.2444
 6424SOL    MW425464   4.740   2.390   3.939  0.9069 -1.0175 -0.1711
 6425SOL     OW25465   5.546   5.976   1.248  0.7686 -0.1035 -0.3444
 6425SOL    HW225466   5.473   6.005   1.193  1.8586 -0.2190 -1.9225
 6425SOL    HW325467   5.514   5.986   1.338 -2.7027 -4.0260 -0.8867
 6425SOL    MW425468   5.532   5.981   1.253  0.4544 -0.6362 -0.6242
 6426SOL     OW25469   0.418   0.423   1.248 -0.0188  0.0469 -0.2905
 6426SOL    HW225470   0.434   0.439   1.341  0.2916 -0.3793 -0.2655
 6426SOL    HW325471   0.386   0.507   1.214  1.1277  0.5936 -0.0787
 6426SOL    MW425472   0.416   0.436   1.256  0.1734  0.0628 -0.2593
 6427SOL     OW25473   4.463   5.284   5.633  0.1575  0.2203 -0.1834
 6427SOL    HW225474   4.426   5.295   5.546 -0.2305  0.0530 -0.0470
 6427SOL    HW325475   4.418   5.350   5.687  1.0792  0.9556 -0.3044
 6427SOL    MW425476   4.452   5.294   5.629  0.2279  0.2953 -0.1814
 6428SOL     OW25477   3.360   1.019   1.964 -0.1011 -0.0744 -0.0616
 6428SOL    HW225478   3.275   1.007   1.921 -0.3950  0.5398  0.3267
 6428SOL    HW325479   3.343   1.085   2.031  0.2296 -1.3867  1.3599
 6428SOL    MW425480   3.346   1.026   1.967 -0.0963 -0.1665  0.1772
 6429SOL     OW25481   2.080   5.448   3.379  0.2942 -0.6599  0.2765
 6429SOL    HW225482   2.000   5.398   3.364  0.0136  0.2106 -1.3899
 6429SOL    HW325483   2.148   5.382   3.387 -0.1922 -1.3742 -1.0166
 6429SOL    MW425484   2.078   5.433   3.378  0.1930 -0.6393 -0.1140
 6430SOL     OW25485   6.057   3.742   0.245  0.0897 -0.2277 -0.4873
 6430SOL    HW225486   6.074   3.758   0.152  0.9880 -1.0309 -0.4796
 6430SOL    HW325487   5.965   3.767   0.258 -0.9273 -2.7413 -2.2190
 6430SOL    MW425488   6.047   3.748   0.235  0.0740 -0.6653 -0.7147
 6431SOL     OW25489   2.221   6.128   3.991 -0.5953 -0.7186 -0.5517
 6431SOL    HW225490   2.262   6.153   3.908  1.5955  0.4539  0.7915
 6431SOL    HW325491   2.137   6.175   3.991 -0.0482  0.3067 -1.5277
 6431SOL    MW425492   2.215   6.138   3.980 -0.2341 -0.4286 -0.5033
 6432SOL     OW25493   1.940   2.798   2.687 -0.2585  0.2905  0.0391
 6432SOL    HW225494   1.944   2.736   2.614  0.1929 -0.4539  0.6696
 6432SOL    HW325495   1.904   2.878   2.649  0.7052  0.1865 -1.1716
 6432SOL    MW425496   1.936   2.800   2.672 -0.0718  0.1786 -0.0374
 6433SOL     OW25497   0.856   6.352   1.372  0.4767 -0.1474 -0.0227
 6433SOL    HW225498   0.875   6.290   1.302  0.7518 -0.8881  0.6867
 6433SOL    HW325499   0.797   6.416   1.332 -0.4740 -1.3169 -0.5645
 6433SOL    MW425500   0.851   6.352   1.357  0.3876 -0.3995 -0.0006
 6434SOL     OW25501   5.702   3.602   3.690 -0.2494  0.5953  0.1353
 6434SOL    HW225502   5.766   3.659   3.647 -0.0187  0.7806  0.7045
 6434SOL    HW325503   5.621   3.654   3.692 -0.1361  0.7673  0.3307
 6434SOL    MW425504   5.700   3.617   3.685 -0.2040  0.6424  0.2362
 6435SOL     OW25505   5.642   5.342   2.223  0.8971 -0.1990  0.5764
 6435SOL    HW225506   5.658   5.272   2.160  0.3775  0.6506 -0.5178
 6435SOL    HW325507   5.585   5.301   2.289 -0.1259 -0.5892 -0.5078
 6435SOL    MW425508   5.636   5.327   2.224  0.6936 -0.1384  0.2890
 6436SOL     OW25509   0.589   1.040   5.472 -0.6867  0.5596  0.2476
 6436SOL    HW225510   0.650   1.088   5.527 -1.3312  0.3443  1.1753
 6436SOL    HW325511   0.537   0.989   5.533  0.3070 -1.7530 -0.6955
 6436SOL    MW425512   0.590   1.039   5.487 -0.6406  0.2261  0.2456
 6437SOL     OW25513   6.173   5.722   1.164  0.4908 -0.1456  0.5104
 6437SOL    HW225514   6.115   5.749   1.093  0.8138  0.6658  0.5346
 6437SOL    HW325515   6.118   5.729   1.243  0.2556 -0.6255  0.3884
 6437SOL    MW425516   6.158   5.727   1.165  0.5024 -0.1019  0.4975
 6438SOL     OW25517   2.255   2.971   0.589  0.4059  0.2754 -0.4474
 6438SOL    HW225518   2.198   3.027   0.537  1.9305  0.6580 -1.8145
 6438SOL    HW325519   2.219   2.883   0.579 -0.5913  0.6553 -0.3027
 6438SOL    MW425520   2.243   2.967   0.581  0.4755  0.3760 -0.6087
 6439SOL     OW25521   0.651   0.507   1.872  0.2322  0.7752  0.6158
 6439SOL    HW225522   0.641   0.593   1.833 -0.6696  1.0708  1.4566
 6439SOL    HW325523   0.562   0.481   1.897 -0.1993 -2.0576 -2.9588
 6439SOL    MW425524   0.638   0.515   1.870  0.0563  0.4404  0.2551
 6440SOL     OW25525   6.159   2.904   2.231 -0.8669  0.2743  0.2847
 6440SOL    HW225526   6.108   2.892   2.151 -0.8760  0.9800  0.1845
 6440SOL    HW325527   6.094   2.921   2.299 -0.7796  1.1841  0.1550
 6440SOL    MW425528   6.144   2.904   2.229 -0.8566  0.4875  0.2543
 6441SOL     OW25529   1.928   4.073   2.049  0.1205  0.4182 -0.0489
 6441SOL    HW225530   2.012   4.068   2.003 -0.9681  0.6380 -2.2170
 6441SOL    HW325531   1.872   4.011   2.003 -1.0095  0.4979  1.1695
 6441SOL    MW425532   1.932   4.064   2.037 -0.1722  0.4577 -0.1742
 6442SOL     OW25533   0.620   5.177   1.455  0.6377 -0.3501  0.7130
 6442SOL    HW225534   0.586   5.151   1.540 -0.4981 -2.2977 -0.2790
 6442SOL    HW325535   0.545   5.216   1.410  0.3962 -2.1105 -0.4729
 6442SOL    MW425536   0.606   5.179   1.460  0.4560 -0.8394  0.4257
 6443SOL     OW25537   0.966   5.968   5.523 -0.3268 -0.0105  0.5754
 6443SOL    HW225538   0.999   6.024   5.452  0.0795 -0.2665  0.5651
 6443SOL    HW325539   0.883   6.010   5.548 -2.0001 -1.4792 -1.9982
 6443SOL    MW425540   0.959   5.981   5.517 -0.4939 -0.2380  0.2345
 6444SOL     OW25541   1.175   3.769   2.410  0.5349 -0.0660  0.4715
 6444SOL    HW225542   1.256   3.771   2.360 -0.7207 -0.6642 -1.7315
 6444SOL    HW325543   1.193   3.823   2.487  2.8587  0.1661 -0.1593
 6444SOL    MW425544   1.188   3.776   2.413  0.6758 -0.1143  0.0976
 6445SOL     OW25545   5.203   1.917   4.041 -0.2718 -0.3444 -0.2757
 6445SOL    HW225546   5.197   1.873   3.957  2.4799 -1.1955 -0.1427
 6445SOL    HW325547   5.290   1.957   4.041 -0.8174  1.0076  1.5481
 6445SOL    MW425548   5.214   1.916   4.030  0.0193 -0.2783 -0.0175
 6446SOL     OW25549   1.914   6.062   0.944 -0.1414 -0.0585  0.1769
 6446SOL    HW225550   1.867   6.124   0.888 -0.7674 -1.8667 -1.4030
 6446SOL    HW325551   1.846   6.010   0.986  0.3841 -0.4442  0.5704
 6446SOL    MW425552   1.899   6.064   0.942 -0.1546 -0.3479  0.0204
 6447SOL     OW25553   2.837   0.009   2.839  0.7205  0.0313 -0.0649
 6447SOL    HW225554   2.796  -0.076   2.853  0.0210  0.2485 -0.7214
 6447SOL    HW325555   2.859   0.040   2.926  0.6577 -0.6660  0.2031
 6447SOL    MW425556   2.835   0.002   2.852  0.6199 -0.0320 -0.1162
 6448SOL     OW25557   4.281   4.745   3.243  0.5591  0.0852  0.2319
 6448SOL    HW225558   4.315   4.655   3.243 -1.1902 -0.6573 -1.6172
 6448SOL    HW325559   4.341   4.793   3.300  3.0197 -1.6825 -0.6797
 6448SOL    MW425560   4.293   4.739   3.251  0.6530 -0.2460 -0.1323
 6449SOL     OW25561   2.010   4.036   3.088  0.0276 -0.5340 -0.0197
 6449SOL    HW225562   1.939   3.988   3.130  0.4068 -1.4322 -0.3905
 6449SOL    HW325563   2.083   3.975   3.088 -0.1875 -0.8855 -2.7474
 6449SOL    MW425564   2.010   4.022   3.094  0.0493 -0.6989 -0.4285
 6450SOL     OW25565   2.969   0.587   2.610  0.0043 -0.0538  0.1599
 6450SOL    HW225566   2.964   0.594   2.515 -0.1622 -1.0835  0.0760
 6450SOL    HW325567   3.011   0.502   2.625  0.3094  0.2338  1.0067
 6450SOL    MW425568   2.974   0.577   2.600  0.0226 -0.1517  0.2606
 6451SOL     OW25569   4.681   2.077   0.008 -0.0826 -0.1984 -0.1285
 6451SOL    HW225570   4.774   2.097   0.021  0.0867 -0.9570 -0.1230
 6451SOL    HW325571   4.679   2.023  -0.071 -0.6547  0.8228 -0.8246
 6451SOL    MW425572   4.693   2.072   0.000 -0.1358 -0.1637 -0.2196
 6452SOL     OW25573   2.172   4.598   1.034 -0.0819 -0.2021  0.2199
 6452SOL    HW225574   2.222   4.673   1.069 -0.5750 -0.0311  0.5695
 6452SOL    HW325575   2.108   4.578   1.103 -0.2383 -0.6676 -0.0599
 6452SOL    MW425576   2.170   4.605   1.048 -0.1676 -0.2410  0.2291
 6453SOL     OW25577   2.871   6.315   2.367 -0.2448  1.2001 -0.2994
 6453SOL    HW225578   2.907   6.358   2.290  0.7353  0.3160 -0.3642
 6453SOL    HW325579   2.832   6.385   2.419 -0.8453  1.8128 -1.5515
 6453SOL    MW425580   2.870   6.330   2.364 -0.1947  1.1643 -0.4731
 6454SOL     OW25581   1.774   4.775   5.632  0.0063 -0.6279  0.0609
 6454SOL    HW225582   1.857   4.808   5.597  0.4579 -0.7079  1.0057
 6454SOL    HW325583   1.760   4.826   5.712  0.3817 -2.2267  1.2019
 6454SOL    MW425584   1.783   4.786   5.638  0.1154 -0.8494  0.3361
 6455SOL     OW25585   2.782   0.413   1.131  0.2143 -0.1130 -0.3494
 6455SOL    HW225586   2.773   0.323   1.162  0.9086  0.0832  0.4643
 6455SOL    HW325587   2.841   0.454   1.194  0.2284  0.8035 -0.9430
 6455SOL    MW425588   2.788   0.407   1.144  0.3077  0.0338 -0.3203
 6456SOL     OW25589   1.807   3.640   1.848 -0.0711 -0.2282 -0.2300
 6456SOL    HW225590   1.764   3.625   1.764  0.4579 -3.4865 -0.0522
 6456SOL    HW325591   1.896   3.667   1.825  0.0098 -0.9034 -0.7326
 6456SOL    MW425592   1.813   3.642   1.834  0.0094 -0.7471 -0.2729
 6457SOL     OW25593   2.740   1.002   0.929 -0.1169  0.0380 -0.3757
 6457SOL    HW225594   2.728   1.002   0.834  0.8109  0.5027 -0.4999
 6457SOL    HW325595   2.826   1.043   0.943 -0.0980 -0.3179  0.6425
 6457SOL    MW425596   2.750   1.007   0.919  0.0080  0.0523 -0.2577
 6458SOL     OW25597   4.793   5.365   3.999  0.6347  0.6642 -0.4289
 6458SOL    HW225598   4.780   5.303   4.071 -0.9076  0.8130 -0.5439
 6458SOL    HW325599   4.774   5.450   4.037 -1.6711  0.6167 -1.3059
 6458SOL    MW425600   4.788   5.368   4.013  0.1270  0.6775 -0.5598
 6459SOL     OW25601   3.903   5.368   1.350 -0.6500 -0.0721  0.3661
 6459SOL    HW225602   3.818   5.383   1.391 -1.3710 -2.9382  0.1299
 6459SOL    HW325603   3.885   5.309   1.276  1.2389  1.2266 -1.2423
 6459SOL    MW425604   3.890   5.362   1.346 -0.4959 -0.2789  0.1227
 6460SOL     OW25605   6.327   4.720   2.738 -0.2462 -0.2605 -0.1183
 6460SOL    HW225606   6.334   4.717   2.643 -1.2427 -2.9227 -0.1909
 6460SOL    HW325607   6.233   4.718   2.756 -0.0673 -1.3473  0.8884
 6460SOL    MW425608   6.316   4.719   2.728 -0.3541 -0.7551  0.0049
 6461SOL     OW25609   5.120   2.316   0.966  0.3640 -0.4236 -0.1393
 6461SOL    HW225610   5.092   2.397   1.007 -1.2281 -0.9389 -0.1489
 6461SOL    HW325611   5.201   2.339   0.920 -1.0981  1.6851 -1.8838
 6461SOL    MW425612   5.127   2.329   0.965 -0.0390 -0.2133 -0.3707
 6462SOL     OW25613   5.855   5.917   4.766 -0.0129  0.0813  0.4244
 6462SOL    HW225614   5.856   5.831   4.723  0.0653  0.2109  0.1599
 6462SOL    HW325615   5.762   5.937   4.777 -0.0410 -0.7584  1.9789
 6462SOL    MW425616   5.843   5.908   4.761 -0.0063 -0.0124  0.5946
 6463SOL     OW25617   4.109   2.674   0.051  0.1167 -0.1743 -0.1562
 6463SOL    HW225618   4.200   2.659   0.078 -0.1989  0.0908  1.0716
 6463SOL    HW325619   4.080   2.748   0.103 -1.5716 -1.7412  1.2455
 6463SOL    MW425620   4.117   2.682   0.061 -0.1477 -0.3461  0.1908
 6464SOL     OW25621   1.772   2.061   2.849 -0.3279  0.4837  0.5215
 6464SOL    HW225622   1.701   2.043   2.788 -0.8655 -0.8524  1.4980
 6464SOL    HW325623   1.763   1.995   2.917  1.2873  0.8767  1.1721
 6464SOL    MW425624   1.762   2.050   2.850 -0.1857  0.3593  0.7361
 6465SOL     OW25625   4.379   0.975   6.075  0.0710 -0.0643 -0.0243
 6465SOL    HW225626   4.310   1.007   6.133 -1.1623  0.1653 -1.5545
 6465SOL    HW325627   4.378   0.880   6.086 -0.6052 -0.0745 -0.1373
 6465SOL    MW425628   4.370   0.966   6.084 -0.1809 -0.0354 -0.2411
 6466SOL     OW25629   0.799   2.553   4.784 -0.2894  0.1550 -0.4482
 6466SOL    HW225630   0.804   2.462   4.755 -1.2239  0.5953 -2.1315
 6466SOL    HW325631   0.705   2.574   4.780 -0.0193  1.3603 -0.6665
 6466SOL    MW425632   0.787   2.544   4.780 -0.3771  0.3721 -0.6991
 6467SOL     OW25633   3.967   3.460   1.230  0.2419 -0.1602 -0.1980
 6467SOL    HW225634   3.942   3.373   1.259 -1.6090 -0.9131 -3.4789
 6467SOL    HW325635   3.887   3.512   1.240  0.8331  0.7136  0.1154
 6467SOL    MW425636   3.953   3.456   1.235  0.0757 -0.1443 -0.5895
 6468SOL     OW25637   5.690   4.693   2.803  0.1114  0.6150 -0.5255
 6468SOL    HW225638   5.620   4.707   2.739  0.1052  2.8012 -0.1149
 6468SOL    HW325639   5.771   4.710   2.754  0.2149  0.5403 -0.3799
 6468SOL    MW425640   5.691   4.697   2.788  0.1242  0.8936 -0.4521
 6469SOL     OW25641   6.185   0.885   2.440  0.2392  0.3004 -0.2602
 6469SOL    HW225642   6.160   0.808   2.490 -0.3490 -0.6494 -1.9321
 6469SOL    HW325643   6.250   0.929   2.494  1.1191 -1.7313  0.4347
 6469SOL    MW425644   6.190   0.881   2.454  0.2777 -0.0930 -0.3891
 6470SOL     OW25645   6.267   1.765   1.661  0.0911  0.0007 -0.6948
 6470SOL    HW225646   6.188   1.805   1.697 -1.4922 -1.9355 -1.8205
 6470SOL    HW325647   6.259   1.777   1.566  0.9189 -0.6318 -0.8567
 6470SOL    MW425648   6.255   1.772   1.653 -0.0086 -0.3382 -0.8647
 6471SOL     OW25649   0.211   0.668   1.544 -0.0659 -0.1347 -0.8607
 6471SOL    HW225650   0.203   0.573   1.528  1.1767 -0.2933 -0.6593
 6471SOL    HW325651   0.285   0.695   1.490 -0.6032  0.7930 -1.1462
 6471SOL    MW425652   0.220   0.659   1.535  0.0272 -0.0332 -0.8718
 6472SOL     OW25653   0.791   1.520   0.077  0.2924  0.3400 -0.0983
 6472SOL    HW225654   0.798   1.433   0.037 -0.2580  0.1911  0.1131
 6472SOL    HW325655   0.861   1.571   0.037 -0.7348  0.4366 -1.8757
 6472SOL    MW425656   0.801   1.515   0.067  0.0842  0.3331 -0.3049
 6473SOL     OW25657   0.163   0.030   2.914 -0.4529 -0.2529 -0.4452
 6473SOL    HW225658   0.100   0.033   2.986  0.3576  0.5752  0.2619
 6473SOL    HW325659   0.189   0.122   2.901 -0.2685 -0.4462 -1.5047
 6473SOL    MW425660   0.158   0.043   2.922 -0.3216 -0.1692 -0.4917
 6474SOL     OW25661   1.694   5.858   0.636  0.1241  0.2737  0.0471
 6474SOL    HW225662   1.756   5.928   0.613 -0.0102  0.7077  0.9839
 6474SOL    HW325663   1.733   5.816   0.712 -0.6252  0.4012  0.5032
 6474SOL    MW425664   1.708   5.862   0.643  0.0075  0.3478  0.2308
 6475SOL     OW25665   0.166   3.167   3.510  0.4192 -0.1900 -0.4475
 6475SOL    HW225666   0.245   3.113   3.521  0.4345 -0.3546 -1.3156
 6475SOL    HW325667   0.095   3.104   3.499  0.3847 -0.0382 -1.1073
 6475SOL    MW425668   0.167   3.152   3.510  0.4167 -0.1917 -0.6491
 6476SOL     OW25669   6.239   2.273   3.395  0.4767  0.0790  0.3010
 6476SOL    HW225670   6.328   2.244   3.374  0.7814 -0.0164  1.6325
 6476SOL    HW325671   6.197   2.196   3.432  0.3253  0.5257  1.0733
 6476SOL    MW425672   6.245   2.259   3.397  0.4969  0.1253  0.5786
 6477SOL     OW25673   2.416   2.865   3.662  0.1123  0.1994 -0.0442
 6477SOL    HW225674   2.403   2.905   3.748 -1.7274 -0.4627  0.0270
 6477SOL    HW325675   2.438   2.939   3.605 -1.5893  1.1309  0.4206
 6477SOL    MW425676   2.417   2.880   3.666 -0.3549  0.2349  0.0265
 6478SOL     OW25677   0.965   3.961   5.455  0.8305 -0.0897 -0.2201
 6478SOL    HW225678   1.035   3.896   5.452  1.3387  0.3582  1.2362
 6478SOL    HW325679   1.004   4.039   5.414  0.2697 -0.6129 -1.8312
 6478SOL    MW425680   0.980   3.963   5.449  0.8236 -0.0996 -0.2405
 6479SOL     OW25681   2.193   1.530   5.940  0.3983  0.7631  0.3227
 6479SOL    HW225682   2.251   1.555   5.868  1.0039  0.3226  0.6504
 6479SOL    HW325683   2.165   1.613   5.978  0.0028  1.0033 -0.4655
 6479SOL    MW425684   2.197   1.544   5.935  0.4260  0.7367  0.2620
 6480SOL     OW25685   4.928   2.211   6.056 -0.2526  0.6206  0.2156
 6480SOL    HW225686   4.902   2.286   6.109  1.6874  0.1119  2.0150
 6480SOL    HW325687   5.015   2.235   6.022  0.3140 -0.6888  0.6648
 6480SOL    MW425688   4.936   2.224   6.058  0.0781  0.3807  0.5123
 6481SOL     OW25689   4.866   2.277   3.714  0.5151 -0.1681  0.0999
 6481SOL    HW225690   4.938   2.217   3.696  0.1423 -0.9294  1.0310
 6481SOL    HW325691   4.890   2.358   3.670  1.4914 -0.7048 -0.3791
 6481SOL    MW425692   4.878   2.280   3.706  0.5948 -0.3394  0.1595
 6482SOL     OW25693   1.045   3.443   3.442  0.0837  0.3056  0.2498
 6482SOL    HW225694   1.127   3.464   3.488 -0.1376 -0.1918  0.8783
 6482SOL    HW325695   1.070   3.442   3.350  0.7165  0.4976  0.4093
 6482SOL    MW425696   1.059   3.446   3.436  0.1380  0.2653  0.3537
 6483SOL     OW25697   0.237   2.697   4.411 -0.2975 -0.0049 -0.8667
 6483SOL    HW225698   0.198   2.649   4.338 -0.2280 -1.2311 -0.1210
 6483SOL    HW325699   0.316   2.737   4.375 -0.4947 -0.2399 -1.5650
 6483SOL    MW425700   0.242   2.696   4.397 -0.3144 -0.1977 -0.8604
 6484SOL     OW25701   3.749   4.276   3.527 -0.0981  0.2551  0.6262
 6484SOL    HW225702   3.796   4.358   3.542 -1.3941  1.5842 -1.9230
 6484SOL    HW325703   3.817   4.215   3.497  0.2553  1.9388 -2.3633
 6484SOL    MW425704   3.764   4.279   3.525 -0.2225  0.6526 -0.1046
 6485SOL     OW25705   3.387   4.973   0.471  0.3675 -0.1707 -0.2608
 6485SOL    HW225706   3.408   4.953   0.562  2.5981  0.1361 -0.6560
 6485SOL    HW325707   3.327   5.047   0.476 -0.3409 -0.7783  0.9440
 6485SOL    MW425708   3.382   4.980   0.483  0.5684 -0.2104 -0.1539
 6486SOL     OW25709   2.027   3.314   1.376 -0.4316  0.4935 -0.4703
 6486SOL    HW225710   2.061   3.296   1.464 -0.9158 -1.2065 -0.5873
 6486SOL    HW325711   1.970   3.389   1.387  0.5435  1.1259  0.4103
 6486SOL    MW425712   2.024   3.321   1.389 -0.3668  0.3526 -0.3695
 6487SOL     OW25713   5.342   4.974   6.090  0.6166 -0.7240  0.1712
 6487SOL    HW225714   5.381   4.905   6.037  1.8960 -0.9510  1.3543
 6487SOL    HW325715   5.395   4.977   6.170 -0.7404  0.1592  1.0933
 6487SOL    MW425716   5.354   4.966   6.094  0.6064 -0.6374  0.4490
 6488SOL     OW25717   0.428   6.097   4.877  0.0405 -0.2389 -0.3954
 6488SOL    HW225718   0.371   6.169   4.850  0.8190  0.9064  0.9157
 6488SOL    HW325719   0.501   6.100   4.816 -0.3324 -0.4569 -0.8579
 6488SOL    MW425720   0.430   6.107   4.866  0.0940 -0.1165 -0.2834
 6489SOL     OW25721   4.241   6.129   5.718  0.2407  0.1086  0.4105
 6489SOL    HW225722   4.285   6.044   5.714  1.3719  0.6895 -0.2753
 6489SOL    HW325723   4.307   6.188   5.755 -0.9278  0.4672  2.0109
 6489SOL    MW425724   4.256   6.126   5.723  0.2358  0.2325  0.5312
 6490SOL     OW25725   3.393   0.544   3.554 -0.0958  0.8090 -0.1747
 6490SOL    HW225726   3.480   0.559   3.591 -0.7118  0.1299  1.6885
 6490SOL    HW325727   3.390   0.599   3.476  1.7512  1.3657  0.0963
 6490SOL    MW425728   3.404   0.553   3.549  0.0666  0.7928  0.1069
 6491SOL     OW25729   4.790   3.332   4.777 -0.1167 -0.2387 -0.3191
 6491SOL    HW225730   4.740   3.285   4.844 -0.4036 -0.4411 -0.6646
 6491SOL    HW325731   4.745   3.309   4.695  1.0209 -1.0582 -0.7348
 6491SOL    MW425732   4.777   3.323   4.775 -0.0045 -0.3735 -0.4196
 6492SOL     OW25733   6.302   0.748   5.904 -0.2018  0.1701  0.5011
 6492SOL    HW225734   6.354   0.667   5.906 -1.0529 -0.5042 -1.4791
 6492SOL    HW325735   6.222   0.724   5.857 -0.9682  1.9141  0.8268
 6492SOL    MW425736   6.298   0.734   5.898 -0.4152  0.3112  0.2828
 6493SOL     OW25737   6.224   6.039   1.783 -0.3618  1.0907 -0.1816
 6493SOL    HW225738   6.296   6.062   1.841  0.3656 -1.4275  0.0290
 6493SOL    HW325739   6.147   6.037   1.840 -0.0005  0.5915  0.3032
 6493SOL    MW425740   6.223   6.042   1.798 -0.2181  0.6926 -0.0899
 6494SOL     OW25741   2.398   0.345   2.431 -0.1811 -0.2470  0.9528
 6494SOL    HW225742   2.429   0.259   2.403  0.2682  0.4421 -0.8130
 6494SOL    HW325743   2.402   0.399   2.352 -1.9501  0.9897  1.6380
 6494SOL    MW425744   2.402   0.341   2.417 -0.3552  0.0071  0.8102
 6495SOL     OW25745   2.458   1.141   5.151 -0.3255 -0.2670 -0.8021
 6495SOL    HW225746   2.514   1.082   5.101  0.6574  0.2006 -0.2862
 6495SOL    HW325747   2.519   1.202   5.193 -1.0595 -0.7901  1.1671
 6495SOL    MW425748   2.474   1.141   5.150 -0.2927 -0.2743 -0.4742
 6496SOL     OW25749   3.189   5.022   4.296 -0.4875 -0.2827  0.3224
 6496SOL    HW225750   3.180   5.116   4.315 -2.4075 -0.2450 -0.5572
 6496SOL    HW325751   3.151   4.979   4.372  0.3707 -0.3824  0.7143
 6496SOL    MW425752   3.183   5.029   4.309 -0.6276 -0.2909  0.2581
 6497SOL     OW25753   4.814   6.091   4.905  0.3191  0.1308 -0.2447
 6497SOL    HW225754   4.837   6.021   4.844  0.8809 -0.0767  0.2006
 6497SOL    HW325755   4.872   6.163   4.881 -0.4188  0.5362 -0.8558
 6497SOL    MW425756   4.825   6.091   4.894  0.2959  0.1569 -0.2666
 6498SOL     OW25757   1.630   1.699   2.681  0.4037  0.0129  0.0545
 6498SOL    HW225758   1.703   1.680   2.740  0.0113 -2.0057 -0.0104
 6498SOL    HW325759   1.667   1.687   2.593  0.3496  0.3933 -0.0188
 6498SOL    MW425760   1.645   1.695   2.677  0.3448 -0.2032  0.0363
 6499SOL     OW25761   5.765   2.134   1.098 -0.1917 -0.2365  0.0064
 6499SOL    HW225762   5.845   2.183   1.117 -1.0744  1.1712  0.2663
 6499SOL    HW325763   5.770   2.114   1.005 -0.3105  1.3943 -0.3960
 6499SOL    MW425764   5.776   2.138   1.088 -0.3238  0.1644 -0.0124
 6500SOL     OW25765   4.439   6.002   4.604 -0.3444  0.1909 -0.0913
 6500SOL    HW225766   4.394   6.085   4.595 -0.4058  0.2047  0.2932
 6500SOL    HW325767   4.380   5.937   4.566  0.2407  0.4709 -1.5249
 6500SOL    MW425768   4.426   6.004   4.598 -0.2753  0.2297 -0.2297
 6501SOL     OW25769   4.067   4.453   5.074  0.4873 -0.1953  0.0395
 6501SOL    HW225770   4.087   4.371   5.118  0.6289 -0.9360 -1.3537
 6501SOL    HW325771   4.051   4.515   5.145  1.0498 -1.2496  1.1221
 6501SOL    MW425772   4.068   4.451   5.089  0.5802 -0.4321 -0.0014
 6502SOL     OW25773   6.229   0.008   1.120 -0.3066  0.5646  0.9564
 6502SOL    HW225774   6.238  -0.080   1.155 -0.9029  0.7753  1.6672
 6502SOL    HW325775   6.191  -0.005   1.033  2.9003 -0.0728 -0.4665
 6502SOL    MW425776   6.225  -0.005   1.113  0.0378  0.5083  0.8625
 6503SOL     OW25777   0.851   5.537   5.302 -0.2063  0.4047 -0.5429
 6503SOL    HW225778   0.946   5.542   5.292  0.2564 -2.6274  1.1024
 6503SOL    HW325779   0.823   5.471   5.239 -1.2278  1.1227 -0.8680
 6503SOL    MW425780   0.860   5.529   5.293 -0.2800  0.0994 -0.3687
 6504SOL     OW25781   1.040   1.650   1.728  0.0087  0.0728 -0.2075
 6504SOL    HW225782   1.037   1.579   1.792 -1.2778 -0.6705 -1.0254
 6504SOL    HW325783   1.105   1.711   1.761  0.1712 -0.8408  1.2159
 6504SOL    MW425784   1.048   1.649   1.740 -0.1396 -0.1458 -0.1276
 6505SOL     OW25785   4.887   5.333   6.407 -0.2486  0.9308  0.3084
 6505SOL    HW225786   4.847   5.402   6.355  1.7640  0.8620 -1.4769
 6505SOL    HW325787   4.977   5.361   6.419  0.8827 -1.6979 -1.2154
 6505SOL    MW425788   4.893   5.346   6.402  0.1662  0.5749 -0.1282
 6506SOL     OW25789   6.065   6.340   4.416 -0.1303 -0.4043 -0.6675
 6506SOL    HW225790   5.991   6.280   4.410 -0.5819  0.1343 -0.5657
 6506SOL    HW325791   6.041   6.402   4.485  0.6092 -0.4892 -0.3213
 6506SOL    MW425792   6.052   6.340   4.424 -0.0923 -0.3444 -0.6084
 6507SOL     OW25793   2.738   2.522   5.686 -0.6709  0.3729 -0.5384
 6507SOL    HW225794   2.749   2.460   5.614 -0.4296 -0.3335  0.0967
 6507SOL    HW325795   2.695   2.472   5.755 -0.2014  0.8279  0.0983
 6507SOL    MW425796   2.733   2.508   5.686 -0.5771  0.3397 -0.3706
 6508SOL     OW25797   1.316   1.399   3.613  0.4692 -0.7819  0.4171
 6508SOL    HW225798   1.348   1.371   3.527  0.4584 -1.7616  0.7263
 6508SOL    HW325799   1.375   1.470   3.639  0.2866 -0.2610 -0.5249
 6508SOL    MW425800   1.328   1.405   3.605  0.4437 -0.8424  0.3336
 6509SOL     OW25801   4.807   5.590   1.127 -0.1074  0.0770  0.2402
 6509SOL    HW225802   4.730   5.557   1.173  0.4081 -1.4225  0.0795
 6509SOL    HW325803   4.855   5.511   1.099  1.8345  0.9452  0.9067
 6509SOL    MW425804   4.803   5.575   1.129  0.2168 -0.0063  0.3069
 6510SOL     OW25805   4.217   2.869   0.269 -0.0056  0.6652 -0.3826
 6510SOL    HW225806   4.194   2.959   0.246 -0.3152  1.2388  1.9543
 6510SOL    HW325807   4.133   2.827   0.288  0.1912  0.0539 -0.8249
 6510SOL    MW425808   4.203   2.875   0.268 -0.0205  0.6602 -0.1327
 6511SOL     OW25809   5.106   5.448   2.699 -0.3080 -0.0093 -0.4276
 6511SOL    HW225810   5.141   5.478   2.615 -0.1286  4.6972  1.0573
 6511SOL    HW325811   5.175   5.393   2.735  1.5352  1.4354 -1.5538
 6511SOL    MW425812   5.120   5.445   2.693 -0.0412  0.8023 -0.3802
 6512SOL     OW25813   2.475   4.730   4.109 -0.2891  0.6251  0.3118
 6512SOL    HW225814   2.483   4.823   4.130  0.0846  0.7129 -0.1966
 6512SOL    HW325815   2.566   4.701   4.096 -0.4822  0.5036 -0.8437
 6512SOL    MW425816   2.488   4.739   4.110 -0.2653  0.6206  0.0923
 6513SOL     OW25817   5.152   4.797   0.359 -0.2751  0.3500  0.1163
 6513SOL    HW225818   5.098   4.848   0.419  0.1790  0.4450  0.4532
 6513SOL    HW325819   5.147   4.844   0.276 -0.7476  0.3262  0.1278
 6513SOL    MW425820   5.144   4.810   0.356 -0.2775  0.3594  0.1623
 6514SOL     OW25821   1.834   0.656   3.740  0.7562  0.2875  0.4680
 6514SOL    HW225822   1.775   0.580   3.737  1.3536 -0.1558 -1.6890
 6514SOL    HW325823   1.921   0.618   3.756  0.9886  0.5572 -0.1428
 6514SOL    MW425824   1.838   0.641   3.742  0.8657  0.2646  0.1029
 6515SOL     OW25825   4.468   1.981   4.215  0.1183 -0.1560  0.1883
 6515SOL    HW225826   4.392   2.037   4.231 -2.1335 -2.8730 -0.2202
 6515SOL    HW325827   4.498   1.956   4.302  1.2994  1.7433  0.3856
 6515SOL    MW425828   4.462   1.985   4.228 -0.0230 -0.2639  0.1604
 6516SOL     OW25829   2.139   0.495   0.440  0.5763 -0.0801  0.4692
 6516SOL    HW225830   2.121   0.498   0.534 -0.6236 -1.2988  0.3041
 6516SOL    HW325831   2.234   0.488   0.434  0.6275 -0.6228  1.6117
 6516SOL    MW425832   2.149   0.495   0.452  0.4247 -0.3125  0.5982
 6517SOL     OW25833   2.740   5.846   6.036 -1.0363 -0.0511  0.5768
 6517SOL    HW225834   2.815   5.887   5.995 -2.3070  1.5848 -0.2333
 6517SOL    HW325835   2.769   5.824   6.125  0.6239 -0.2620 -0.0015
 6517SOL    MW425836   2.753   5.848   6.042 -0.9849  0.1369  0.3936
 6518SOL     OW25837   0.669   2.990   3.400 -0.3678  0.1895  0.4391
 6518SOL    HW225838   0.731   2.930   3.441 -0.6586 -1.6171 -1.5680
 6518SOL    HW325839   0.720   3.066   3.376  0.1216  0.6114  2.6462
 6518SOL    MW425840   0.684   2.992   3.402 -0.3416  0.0068  0.4655
 6519SOL     OW25841   3.454   2.818   0.380 -0.1467 -0.0989  0.5878
 6519SOL    HW225842   3.383   2.793   0.438  0.8656 -1.7028  1.2001
 6519SOL    HW325843   3.483   2.737   0.340 -1.4899  1.0343 -3.1168
 6519SOL    MW425844   3.449   2.804   0.383 -0.1904 -0.1610  0.1798
 6520SOL     OW25845   2.252   0.792   6.283 -0.0446 -0.3420  0.0649
 6520SOL    HW225846   2.176   0.736   6.264 -0.6274  0.3126  0.4079
 6520SOL    HW325847   2.268   0.839   6.201 -0.4471  0.0200  0.1897
 6520SOL    MW425848   2.244   0.791   6.270 -0.1746 -0.2078  0.1266
 6521SOL     OW25849   5.834   5.257   1.268 -0.4969 -0.5797 -0.2134
 6521SOL    HW225850   5.928   5.255   1.248 -0.1078  1.0084  1.1693
 6521SOL    HW325851   5.800   5.327   1.212 -0.1764  1.0857  1.5664
 6521SOL    MW425852   5.842   5.266   1.258 -0.4033 -0.1504  0.2039
 6522SOL     OW25853   1.642   1.184   0.564 -0.4360 -0.3009  0.3940
 6522SOL    HW225854   1.630   1.195   0.659 -0.9616 -0.8771  0.3992
 6522SOL    HW325855   1.677   1.096   0.554  0.5216  0.0882  0.1048
 6522SOL    MW425856   1.645   1.174   0.575 -0.3790 -0.3256  0.3565
 6523SOL     OW25857   3.137   6.102   5.788  0.0003 -0.6080 -0.0474
 6523SOL    HW225858   3.184   6.031   5.834  2.0263  0.0040 -1.0408
 6523SOL    HW325859   3.161   6.181   5.836  0.5013 -0.2151 -0.9173
 6523SOL    MW425860   3.147   6.103   5.800  0.3337 -0.4754 -0.2932
 6524SOL     OW25861   4.523   4.074   3.703 -0.0416  1.0126  0.4833
 6524SOL    HW225862   4.557   3.985   3.699 -0.1685  0.9269  1.2455
 6524SOL    HW325863   4.567   4.114   3.778 -0.3419  1.4399  0.4379
 6524SOL    MW425864   4.533   4.068   3.712 -0.0980  1.0576  0.5779
 6525SOL     OW25865   5.165   5.220   5.757 -0.2848 -0.2291  0.2233
 6525SOL    HW225866   5.237   5.203   5.818  1.8945 -1.4177 -2.4578
 6525SOL    HW325867   5.172   5.314   5.737 -0.4537 -0.0254  1.0714
 6525SOL    MW425868   5.175   5.230   5.763 -0.0196 -0.3590 -0.0185
 6526SOL     OW25869   5.737   5.797   0.917  0.0278 -0.0381  0.0354
 6526SOL    HW225870   5.687   5.879   0.914 -2.4407 -1.4887 -1.8228
 6526SOL    HW325871   5.716   5.760   1.002  0.0271  0.5542  0.3041
 6526SOL    MW425872   5.728   5.803   0.928 -0.2980 -0.1514 -0.1743
 6527SOL     OW25873   2.468   2.581   3.090  0.2975 -0.2573  0.2120
 6527SOL    HW225874   2.381   2.570   3.051 -0.2977  0.1524  1.3834
 6527SOL    HW325875   2.469   2.670   3.123  0.5471 -0.7656  1.6446
 6527SOL    MW425876   2.456   2.591   3.089  0.2519 -0.2703  0.5556
 6528SOL     OW25877   5.312   4.731   4.138  0.6774 -0.0961  0.5901
 6528SOL    HW225878   5.272   4.672   4.073  1.3314  0.5835 -0.4643
 6528SOL    HW325879   5.390   4.766   4.094  1.3615  0.0779  1.9085
 6528SOL    MW425880   5.317   4.728   4.123  0.8539  0.0165  0.6249
 6529SOL     OW25881   0.366   4.177   3.673  0.2683  0.4881 -0.2992
 6529SOL    HW225882   0.274   4.169   3.644 -0.2068  1.3485  0.9216
 6529SOL    HW325883   0.391   4.266   3.649  0.9470  0.1095 -1.0335
 6529SOL    MW425884   0.357   4.188   3.666  0.2952  0.5517 -0.2350
 6530SOL     OW25885   3.974   1.217   6.184 -0.2938  0.5984  0.4180
 6530SOL    HW225886   3.903   1.233   6.246 -0.8158  0.7992 -0.2228
 6530SOL    HW325887   3.953   1.271   6.109  0.4654  0.5445  0.1538
 6530SOL    MW425888   3.962   1.226   6.183 -0.2625  0.6178  0.2986
 6531SOL     OW25889   3.520   0.079   2.946  0.5764 -0.3035  0.1335
 6531SOL    HW225890   3.461   0.142   2.989  0.7250 -0.4071  0.4907
 6531SOL    HW325891   3.607   0.103   2.977  0.9597  1.0000 -1.7959
 6531SOL    MW425892   3.523   0.091   2.956  0.6466 -0.1452 -0.0739
 6532SOL     OW25893   1.917   4.514   3.493 -0.1462  0.1089 -0.4683
 6532SOL    HW225894   1.969   4.497   3.571  0.1147  1.4543 -0.3203
 6532SOL    HW325895   1.949   4.451   3.428  0.3632 -0.3149  0.1884
 6532SOL    MW425896   1.928   4.504   3.495 -0.0446  0.2305 -0.3621
 6533SOL     OW25897   0.854   5.462   0.541 -0.2675 -0.0933  0.5309
 6533SOL    HW225898   0.861   5.528   0.610  1.2347 -0.3570  0.6726
 6533SOL    HW325899   0.761   5.444   0.534 -0.7283  2.1458  0.3833
 6533SOL    MW425900   0.843   5.468   0.550 -0.1301  0.1673  0.5302
 6534SOL     OW25901   3.838   4.198   4.440  0.6385 -0.0301 -0.2771
 6534SOL    HW225902   3.761   4.250   4.414  1.2903  0.9554 -0.2782
 6534SOL    HW325903   3.847   4.133   4.370 -0.2393 -0.2122 -0.2342
 6534SOL    MW425904   3.829   4.196   4.427  0.6087  0.0759 -0.2716
 6535SOL     OW25905   2.017   5.008   3.017 -0.7357  0.5335 -0.4807
 6535SOL    HW225906   2.033   4.992   3.110 -1.1269 -2.1022 -0.7868
 6535SOL    HW325907   2.099   5.046   2.985  0.5868 -1.4562  0.3561
 6535SOL    MW425908   2.030   5.011   3.025 -0.6128 -0.0768 -0.4107
 6536SOL     OW25909   5.895   6.300   1.763 -0.6206  0.1728  0.1985
 6536SOL    HW225910   5.977   6.329   1.804  0.1419 -1.4682 -0.0907
 6536SOL    HW325911   5.844   6.264   1.836 -0.5231 -0.0075  0.1785
 6536SOL    MW425912   5.899   6.299   1.778 -0.5071 -0.0675  0.1577
 6537SOL     OW25913   3.466   5.589   3.327 -0.3688  0.6054 -0.3934
 6537SOL    HW225914   3.548   5.615   3.369 -0.3685 -0.4119  0.2827
 6537SOL    HW325915   3.425   5.671   3.302  1.1267  1.1291 -1.2858
 6537SOL    MW425916   3.472   5.603   3.329 -0.1714  0.5403 -0.4219
 6538SOL     OW25917   2.613   2.814   1.777 -0.5640  0.0145 -0.4085
 6538SOL    HW225918   2.583   2.723   1.772  0.1890 -0.2493 -0.2264
 6538SOL    HW325919   2.708   2.808   1.779 -0.4549  0.8794 -1.7903
 6538SOL    MW425920   2.621   2.801   1.777 -0.4503  0.0938 -0.5668
 6539SOL     OW25921   0.055   1.762   4.316  0.2184  0.0754  0.7828
 6539SOL    HW225922   0.037   1.678   4.273  0.0108 -0.1668  1.3302
 6539SOL    HW325923   0.092   1.817   4.247 -1.3353  0.1334 -0.0708
 6539SOL    MW425924   0.057   1.758   4.301 -0.0140  0.0511  0.7424
 6540SOL     OW25925   2.764   0.977   3.785  0.4976  0.0958 -0.3031
 6540SOL    HW225926   2.823   1.049   3.762 -0.1896  1.0144  0.7165
 6540SOL    HW325927   2.821   0.901   3.794  1.3573  0.6995 -0.5475
 6540SOL    MW425928   2.779   0.977   3.783  0.5204  0.2966 -0.2008
 6541SOL     OW25929   4.011   1.426   0.458 -0.0540 -0.1243 -0.1618
 6541SOL    HW225930   4.072   1.415   0.531 -0.2931 -0.9892 -0.0727
 6541SOL    HW325931   3.925   1.405   0.496 -0.3681  0.7738 -0.3597
 6541SOL    MW425932   4.007   1.422   0.473 -0.1270 -0.1199 -0.1762
 6542SOL     OW25933   0.953   5.814   6.351  0.0361  0.7098 -0.4145
 6542SOL    HW225934   1.009   5.857   6.286  1.3044 -2.5337 -1.7159
 6542SOL    HW325935   0.911   5.743   6.302 -2.3416  0.7193  1.4304
 6542SOL    MW425936   0.955   5.810   6.336 -0.1103  0.2831 -0.3428
 6543SOL     OW25937   0.321   3.343   3.057  0.2912  0.4240  0.5670
 6543SOL    HW225938   0.300   3.378   3.143 -0.6700 -0.6980  0.8183
 6543SOL    HW325939   0.250   3.372   3.001 -0.2104 -0.5944  0.6492
 6543SOL    MW425940   0.309   3.351   3.061  0.0982  0.1416  0.6110
 6544SOL     OW25941   2.235   5.426   0.267  0.1284 -0.0954 -0.2600
 6544SOL    HW225942   2.195   5.351   0.311  0.5547 -0.4622 -0.4834
 6544SOL    HW325943   2.329   5.406   0.266  0.2291  0.3700 -0.4584
 6544SOL    MW425944   2.243   5.413   0.272  0.1980 -0.0824 -0.3157
 6545SOL     OW25945   3.557   1.996   4.028 -0.0019  0.0028 -0.5212
 6545SOL    HW225946   3.526   1.997   3.938 -4.5543 -1.1377  0.7668
 6545SOL    HW325947   3.587   1.906   4.042 -1.2580 -0.4259 -0.4321
 6545SOL    MW425948   3.557   1.984   4.018 -0.7682 -0.2042 -0.3395
 6546SOL     OW25949   0.531   1.625   6.301  0.1712  0.5865 -0.9290
 6546SOL    HW225950   0.549   1.702   6.354 -0.5934 -0.5301  1.0530
 6546SOL    HW325951   0.479   1.657   6.227 -1.0988  1.8005  0.4582
 6546SOL    MW425952   0.527   1.639   6.298 -0.0972  0.5993 -0.4845
 6547SOL     OW25953   0.029   3.896   0.464  0.3706  0.1288 -0.2289
 6547SOL    HW225954   0.080   3.817   0.448  0.4383 -0.3826  2.1356
 6547SOL    HW325955  -0.040   3.869   0.524  0.3277  1.8120  0.5576
 6547SOL    MW425956   0.027   3.882   0.470  0.3738  0.2834  0.1868
 6548SOL     OW25957   5.810   0.401   2.811  0.0368  0.1111  0.1124
 6548SOL    HW225958   5.811   0.385   2.717  0.4271 -1.0269  0.2867
 6548SOL    HW325959   5.822   0.314   2.850  2.5600  0.8578  1.1860
 6548SOL    MW425960   5.811   0.387   2.804  0.4212  0.0595  0.2771
 6549SOL     OW25961   1.731   2.259   0.907  0.1500 -0.1069 -0.2120
 6549SOL    HW225962   1.819   2.236   0.877  0.5571 -0.3998  1.1456
 6549SOL    HW325963   1.679   2.180   0.892  0.8944 -1.0624  1.9025
 6549SOL    MW425964   1.736   2.246   0.901  0.3019 -0.2716  0.2461
 6550SOL     OW25965   2.925   3.401   2.927  0.0611 -0.3243  0.2106
 6550SOL    HW225966   2.891   3.370   3.010  1.7549  0.4128  1.2335
 6550SOL    HW325967   2.953   3.490   2.944 -0.9351  0.3841 -1.5782
 6550SOL    MW425968   2.924   3.408   2.940  0.1531 -0.1336  0.1096
 6551SOL     OW25969   6.018   4.851   4.021  0.1827  0.0204 -0.9093
 6551SOL    HW225970   6.030   4.759   4.042  0.6550  0.0678 -0.9544
 6551SOL    HW325971   5.924   4.865   4.025  0.1136 -0.4543 -0.8651
 6551SOL    MW425972   6.008   4.841   4.025  0.2359 -0.0360 -0.9094
 6552SOL     OW25973   3.208   1.898   2.264 -0.1265  0.1219  0.0458
 6552SOL    HW225974   3.217   1.823   2.207 -0.0887  0.3702 -0.2786
 6552SOL    HW325975   3.228   1.973   2.208 -0.6790  0.4123  0.2309
 6552SOL    MW425976   3.212   1.898   2.249 -0.1944  0.1930  0.0274
 6553SOL     OW25977   5.841   3.119   3.182 -0.2556 -0.4008 -0.0903
 6553SOL    HW225978   5.868   3.035   3.218 -2.0825 -0.7992  0.4731
 6553SOL    HW325979   5.868   3.183   3.248 -0.0636 -0.6904  0.1169
 6553SOL    MW425980   5.848   3.117   3.195 -0.4713 -0.4916  0.0114
 6554SOL     OW25981   2.769   0.131   3.673 -0.2011  0.4688  0.0992
 6554SOL    HW225982   2.860   0.119   3.702 -0.3446  1.7294  1.1860
 6554SOL    HW325983   2.767   0.220   3.639 -1.5149  1.3052  2.1851
 6554SOL    MW425984   2.781   0.141   3.673 -0.3933  0.7454  0.5178
 6555SOL     OW25985   4.621   3.262   1.896  0.3088 -0.0096  0.0894
 6555SOL    HW225986   4.583   3.333   1.948  1.4772  0.1954  0.6775
 6555SOL    HW325987   4.596   3.283   1.806 -1.8229 -0.4170  0.5342
 6555SOL    MW425988   4.612   3.274   1.891  0.1817 -0.0363  0.2257
 6556SOL     OW25989   4.156   1.989   4.529  0.1542  0.7691 -0.1792
 6556SOL    HW225990   4.201   2.042   4.463  0.3029  0.2643 -0.4866
 6556SOL    HW325991   4.063   1.999   4.509  0.2043  0.5386 -0.5288
 6556SOL    MW425992   4.149   1.997   4.518  0.1804  0.6721 -0.2659
 6557SOL     OW25993   3.308   2.828   2.198  0.4754 -0.4883  0.3439
 6557SOL    HW225994   3.346   2.812   2.112  0.1542 -0.2641  0.1587
 6557SOL    HW325995   3.309   2.743   2.241  2.6647 -0.2130  0.9548
 6557SOL    MW425996   3.313   2.815   2.193  0.7219 -0.4224  0.4000
 6558SOL     OW25997   2.318   6.076   4.238  0.2687 -0.3557 -0.2486
 6558SOL    HW225998   2.266   6.111   4.165 -1.1880 -1.4080  0.2423
 6558SOL    HW325999   2.331   6.150   4.296 -1.5413 -0.2520  0.0812
 6558SOL    MW426000   2.313   6.090   4.236 -0.1623 -0.4809 -0.1403
 6559SOL     OW26001   1.192   3.642   4.431  0.1451 -0.1236  0.3521
 6559SOL    HW226002   1.265   3.593   4.468  0.8329 -0.0199 -0.8278
 6559SOL    HW326003   1.201   3.631   4.336 -0.2103  1.5289  0.0986
 6559SOL    MW426004   1.202   3.634   4.423  0.1890  0.1081  0.1630
 6560SOL     OW26005   0.593   3.753   1.283  0.0355  0.2753  0.0977
 6560SOL    HW226006   0.609   3.700   1.205  1.6939 -0.8029  1.1072
 6560SOL    HW326007   0.521   3.811   1.258  0.8811  0.3720 -2.4198
 6560SOL    MW426008   0.585   3.754   1.270  0.3659  0.1458 -0.1013
 6561SOL     OW26009   6.108   5.065   6.401 -0.4351 -0.1803  0.1295
 6561SOL    HW226010   6.160   5.105   6.471 -1.0217 -0.0855  0.5141
 6561SOL    HW326011   6.171   5.012   6.352  0.1287  0.3390  0.2792
 6561SOL    MW426012   6.123   5.064   6.404 -0.4381 -0.0993  0.2000
 6562SOL     OW26013   0.470   0.909   3.736  0.2185 -0.3071 -0.2320
 6562SOL    HW226014   0.506   0.993   3.710 -0.3759 -0.1891 -0.6898
 6562SOL    HW326015   0.381   0.929   3.767  0.5454 -0.5804  0.9565
 6562SOL    MW426016   0.463   0.922   3.737  0.1832 -0.3276 -0.1356
 6563SOL     OW26017   4.069   1.196   2.698 -0.1727 -0.0011  0.4305
 6563SOL    HW226018   4.145   1.170   2.750  0.0825 -1.0504 -0.4338
 6563SOL    HW326019   4.022   1.258   2.754  1.2021  0.5065  1.0572
 6563SOL    MW426020   4.072   1.201   2.712  0.0424 -0.0726  0.3991
 6564SOL     OW26021   2.400   1.974   0.870  0.7267  0.1017 -0.2795
 6564SOL    HW226022   2.389   1.909   0.939 -0.0559  0.0985 -0.3975
 6564SOL    HW326023   2.490   1.962   0.839  0.7914 -0.4879  0.1323
 6564SOL    MW426024   2.411   1.964   0.875  0.6320  0.0235 -0.2407
 6565SOL     OW26025   5.783   4.538   3.383 -0.0684  0.0980 -0.6966
 6565SOL    HW226026   5.709   4.480   3.397  0.1904  0.5363  4.2226
 6565SOL    HW326027   5.748   4.626   3.396  0.8753  0.4816 -0.6147
 6565SOL    MW426028   5.769   4.542   3.387  0.0903  0.2064 -0.0368
 6566SOL     OW26029   4.527   5.524   2.050  0.0253  0.4180  0.0363
 6566SOL    HW226030   4.525   5.583   2.126 -1.1765 -0.7712  0.9662
 6566SOL    HW326031   4.437   5.524   2.017  0.1089 -0.5522 -0.2192
 6566SOL    MW426032   4.515   5.532   2.056 -0.1222  0.1331  0.1253
 6567SOL     OW26033   6.040   4.722   4.531 -0.6175  0.0766 -0.1377
 6567SOL    HW226034   6.095   4.786   4.486 -0.5086  0.0676 -0.0165
 6567SOL    HW326035   6.095   4.644   4.539  0.3268  0.9173  2.4017
 6567SOL    MW426036   6.054   4.720   4.526 -0.4786  0.1863  0.2133
 6568SOL     OW26037   0.720   0.515   2.566 -0.1114 -0.3165 -0.5456
 6568SOL    HW226038   0.791   0.521   2.502 -0.4750 -2.4862 -1.2444
 6568SOL    HW326039   0.759   0.472   2.642 -0.0947  0.7499  0.0714
 6568SOL    MW426040   0.734   0.510   2.567 -0.1572 -0.4621 -0.5564
 6569SOL     OW26041   5.561   2.142   4.882 -1.4698  0.3414  0.3673
 6569SOL    HW226042   5.618   2.075   4.919 -1.3459  1.3687  2.1420
 6569SOL    HW326043   5.491   2.093   4.838  0.1144 -0.9354 -0.8546
 6569SOL    MW426044   5.559   2.127   4.881 -1.2444  0.3085  0.4402
 6570SOL     OW26045   3.386   4.053   1.534  0.2281 -0.2626  0.1217
 6570SOL    HW226046   3.401   3.983   1.598  1.4511  0.4103  0.5974
 6570SOL    HW326047   3.437   4.127   1.567 -0.9476  0.8339 -0.4240
 6570SOL    MW426048   3.395   4.054   1.547  0.2343 -0.0292  0.1125
 6571SOL     OW26049   0.115   2.304   1.282 -0.4189 -0.0055  0.1220
 6571SOL    HW226050   0.187   2.359   1.252 -1.6622  1.0237 -1.1037
 6571SOL    HW326051   0.040   2.330   1.229 -1.1027 -2.8995 -0.5333
 6571SOL    MW426052   0.115   2.315   1.271 -0.6732 -0.2516 -0.1262
 6572SOL     OW26053   5.971   1.168   3.507 -0.0564 -0.1745 -0.3276
 6572SOL    HW226054   6.045   1.220   3.538 -1.6390  2.3320 -0.4699
 6572SOL    HW326055   5.950   1.110   3.580  0.5582  0.7769  0.6331
 6572SOL    MW426056   5.978   1.168   3.520 -0.1841  0.2818 -0.2196
 6573SOL     OW26057   3.621   6.348   0.132 -0.0428  0.0506 -0.5337
 6573SOL    HW226058   3.622   6.363   0.037 -0.7122  2.8930 -0.1787
 6573SOL    HW326059   3.636   6.434   0.170  0.0110 -0.9862  1.9891
 6573SOL    MW426060   3.623   6.361   0.124 -0.1241  0.2888 -0.1540
 6574SOL     OW26061   0.736   2.317   4.971 -0.1153  0.0645 -0.3769
 6574SOL    HW226062   0.795   2.378   5.014  0.5144 -0.5204 -0.3882
 6574SOL    HW326063   0.684   2.371   4.911 -1.4865  1.0057  1.5624
 6574SOL    MW426064   0.737   2.332   4.969 -0.2131  0.1116 -0.1225
 6575SOL     OW26065   6.278   6.386   3.831 -0.2291 -0.7238  0.0255
 6575SOL    HW226066   6.199   6.439   3.842  0.6590  0.3466  1.7571
 6575SOL    HW326067   6.274   6.357   3.740 -2.8951 -1.2344  0.2134
 6575SOL    MW426068   6.267   6.389   3.821 -0.4636 -0.6500  0.2787
 6576SOL     OW26069   2.078   1.024   5.508  0.3754 -0.3219 -0.1749
 6576SOL    HW226070   2.088   1.119   5.515  0.0430 -0.2374 -0.7908
 6576SOL    HW326071   1.986   1.011   5.483  0.0945 -0.8676  1.0326
 6576SOL    MW426072   2.067   1.035   5.506  0.2945 -0.3827 -0.0969
 6577SOL     OW26073   3.049   4.916   2.015 -0.3425 -0.2123  0.3852
 6577SOL    HW226074   3.025   4.984   2.078 -0.5466 -0.1451  0.2380
 6577SOL    HW326075   3.143   4.903   2.027 -0.3419 -0.0478  0.5559
 6577SOL    MW426076   3.058   4.923   2.025 -0.3694 -0.1817  0.3883
 6578SOL     OW26077   1.190   2.607   4.617  0.4855  0.2470  0.1350
 6578SOL    HW226078   1.175   2.698   4.594 -0.3141  0.8344  2.7056
 6578SOL    HW326079   1.138   2.557   4.554 -1.1660  1.6889  0.3068
 6578SOL    MW426080   1.181   2.612   4.606  0.1621  0.5147  0.4968
 6579SOL     OW26081   4.747   1.797   5.915 -0.0261  0.2392  0.3920
 6579SOL    HW226082   4.680   1.866   5.912  0.0699  0.4220  1.7903
 6579SOL    HW326083   4.830   1.844   5.905  0.0839  0.4457  2.0085
 6579SOL    MW426084   4.749   1.813   5.913  0.0011  0.2905  0.7897
 6580SOL     OW26085   5.810   1.549   6.405  0.3184  0.1012 -0.5890
 6580SOL    HW226086   5.852   1.610   6.345 -0.0041  3.4448  2.2633
 6580SOL    HW326087   5.876   1.530   6.472 -0.5953 -0.0344  0.3175
 6580SOL    MW426088   5.824   1.554   6.406  0.1553  0.5244 -0.0931
 6581SOL     OW26089   3.001   2.820   4.690  0.2666  0.0642 -0.5196
 6581SOL    HW226090   2.978   2.907   4.658 -0.2904  0.6040  1.2308
 6581SOL    HW326091   2.917   2.777   4.706  0.5368 -0.5767 -0.7833
 6581SOL    MW426092   2.987   2.826   4.688  0.2287  0.0508 -0.3235
 6582SOL     OW26093   6.033   5.577   3.658  0.1505 -0.1706 -0.5961
 6582SOL    HW226094   5.946   5.539   3.649 -1.0775  2.2283  0.2250
 6582SOL    HW326095   6.017   5.667   3.684  2.8290  1.1672 -2.9853
 6582SOL    MW426096   6.019   5.584   3.660  0.3418  0.3224 -0.8030
 6583SOL     OW26097   4.964   3.998   2.182 -0.2303  0.2222 -0.3850
 6583SOL    HW226098   4.913   4.076   2.205  0.2385  0.5778 -0.5460
 6583SOL    HW326099   5.047   4.032   2.151  0.3067 -0.3709  0.3619
 6583SOL    MW426100   4.968   4.013   2.181 -0.0976  0.1908 -0.3077
 6584SOL     OW26101   1.129   3.701   0.008  0.1965 -0.2355  0.1700
 6584SOL    HW226102   1.204   3.645  -0.012  0.0955  0.3509 -2.0990
 6584SOL    HW326103   1.093   3.665   0.088  1.0781 -2.4298 -0.3558
 6584SOL    MW426104   1.134   3.689   0.016  0.2995 -0.4477 -0.1987
 6585SOL     OW26105   2.008   2.834   3.104 -0.1841  0.0338 -0.8331
 6585SOL    HW226106   2.059   2.907   3.071 -0.3972  0.5172 -0.1234
 6585SOL    HW326107   2.070   2.761   3.109 -0.1403 -0.0427 -2.2075
 6585SOL    MW426108   2.023   2.834   3.100 -0.2065  0.0875 -0.9208
 6586SOL     OW26109   1.716   3.296   1.188  0.4668  0.0737 -0.4009
 6586SOL    HW226110   1.785   3.231   1.203 -1.8183 -2.0147  2.1737
 6586SOL    HW326111   1.641   3.245   1.158 -0.8413  1.8359 -0.2960
 6586SOL    MW426112   1.715   3.281   1.186 -0.0073  0.0307 -0.0474
 6587SOL     OW26113   3.379   1.639   3.806  0.2669  0.0738  0.2018
 6587SOL    HW226114   3.385   1.544   3.817 -0.0269 -0.0302 -0.4745
 6587SOL    HW326115   3.288   1.654   3.779  0.7061  0.3841 -1.1856
 6587SOL    MW426116   3.367   1.628   3.804  0.2861  0.1010 -0.0704
 6588SOL     OW26117   5.064   5.101   0.863  0.2357  0.4191  0.6121
 6588SOL    HW226118   4.976   5.135   0.877 -0.7095 -0.4488 -2.3645
 6588SOL    HW326119   5.068   5.083   0.769  2.9812 -1.2639  0.9297
 6588SOL    MW426120   5.053   5.103   0.852  0.4732  0.0825  0.2613
 6589SOL     OW26121   2.752   1.931   3.242 -0.2855  0.1826  0.3483
 6589SOL    HW226122   2.737   1.883   3.161  0.4155  0.1886  0.2093
 6589SOL    HW326123   2.720   1.873   3.311  0.7681 -0.5934  0.2041
 6589SOL    MW426124   2.746   1.917   3.241 -0.0540  0.0810  0.3109
 6590SOL     OW26125   3.133   5.782   5.657  0.3182 -0.8810  0.2628
 6590SOL    HW226126   3.177   5.698   5.641  0.4550 -0.6722 -0.5034
 6590SOL    HW326127   3.182   5.845   5.603 -1.8854 -0.9067 -1.9602
 6590SOL    MW426128   3.145   5.779   5.648  0.0455 -0.8568 -0.1316
 6591SOL     OW26129   5.139   4.142   5.790 -0.3773 -0.1785  0.1493
 6591SOL    HW226130   5.232   4.142   5.808 -0.4894  0.5886  0.7878
 6591SOL    HW326131   5.133   4.155   5.695  0.1565 -0.3688  0.0861
 6591SOL    MW426132   5.150   4.144   5.780 -0.3216 -0.1024  0.2252
 6592SOL     OW26133   1.705   6.101   5.376  0.0354 -0.3045 -0.0438
 6592SOL    HW226134   1.778   6.040   5.388  1.3016  1.1550 -0.0275
 6592SOL    HW326135   1.740   6.171   5.323 -0.3822  1.9992  2.4790
 6592SOL    MW426136   1.719   6.102   5.371  0.1473  0.1920  0.2912
 6593SOL     OW26137   4.375   4.112   0.517 -0.5052 -0.1255 -0.2300
 6593SOL    HW226138   4.366   4.202   0.487 -0.1748 -0.5940 -1.8347
 6593SOL    HW326139   4.453   4.113   0.573 -3.0787  1.4683  3.6902
 6593SOL    MW426140   4.384   4.124   0.520 -0.8011  0.0230  0.0755
 6594SOL     OW26141   5.850   5.777   1.538 -0.2484  0.5935  0.0018
 6594SOL    HW226142   5.858   5.745   1.448  2.2301  0.0207  0.3713
 6594SOL    HW326143   5.868   5.871   1.532 -2.7634  1.1382 -0.3959
 6594SOL    MW426144   5.853   5.785   1.525 -0.2532  0.5898 -0.0019
 6595SOL     OW26145   4.658   0.293   2.416 -0.5002 -0.1533  0.7616
 6595SOL    HW226146   4.732   0.232   2.419 -0.9233 -0.7500 -0.4354
 6595SOL    HW326147   4.615   0.276   2.332  0.5959  3.2578 -0.6716
 6595SOL    MW426148   4.662   0.283   2.405 -0.4114  0.2180  0.4146
 6596SOL     OW26149   2.233   5.183   3.290 -0.2412 -0.4131  0.1279
 6596SOL    HW226150   2.181   5.103   3.301  0.9027 -1.0721  0.9731
 6596SOL    HW326151   2.293   5.163   3.219 -1.5102  0.5839 -1.3046
 6596SOL    MW426152   2.234   5.170   3.282 -0.2577 -0.3685  0.0504
 6597SOL     OW26153   1.997   6.270   6.004 -0.5714 -0.1124  0.5398
 6597SOL    HW226154   1.951   6.195   5.965  1.3662 -1.2610  0.2870
 6597SOL    HW326155   2.073   6.283   5.947 -0.8134  2.0345  0.6348
 6597SOL    MW426156   2.001   6.261   5.991 -0.3477  0.0193  0.5190
 6598SOL     OW26157   1.656   4.947   4.817  0.2495 -0.0708  0.2821
 6598SOL    HW226158   1.586   4.957   4.881 -0.6452 -1.5226 -0.4346
 6598SOL    HW326159   1.707   4.872   4.849 -0.1715 -0.7660 -0.6516
 6598SOL    MW426160   1.653   4.939   4.830  0.0759 -0.3540  0.0644
 6599SOL     OW26161   3.423   4.492   0.133  1.2443  0.1101 -0.1955
 6599SOL    HW226162   3.510   4.526   0.112  0.7480  2.1617  0.7372
 6599SOL    HW326163   3.438   4.425   0.199  2.0866  1.8688  1.5150
 6599SOL    MW426164   3.436   4.488   0.139  1.2900  0.6128  0.1532
 6600SOL     OW26165   5.180   1.158   1.868 -0.4394 -0.6059  0.0001
 6600SOL    HW226166   5.176   1.212   1.788 -0.9869  0.9929  1.0491
 6600SOL    HW326167   5.235   1.084   1.844  0.6434  0.5971 -1.4353
 6600SOL    MW426168   5.187   1.156   1.854 -0.3688 -0.2362 -0.0509
 6601SOL     OW26169   6.009   2.808   0.476 -0.7632  0.1135  0.2624
 6601SOL    HW226170   5.987   2.720   0.447 -0.9991 -0.8247  3.0676
 6601SOL    HW326171   5.926   2.856   0.472 -1.3359 -0.7155  1.7419
 6601SOL    MW426172   5.995   2.803   0.471 -0.8699 -0.1197  0.8277
 6602SOL     OW26173   5.509   1.096   5.302 -0.1325  0.4393  0.3800
 6602SOL    HW226174   5.506   1.167   5.239 -0.7304 -1.1313 -1.4538
 6602SOL    HW326175   5.425   1.051   5.293  0.5967 -1.0944  0.7457
 6602SOL    MW426176   5.498   1.099   5.293 -0.1152  0.0297  0.1863
 6603SOL     OW26177   0.016   6.060   6.290  0.0212 -0.5630  0.1438
 6603SOL    HW226178  -0.045   6.133   6.277  3.1157  2.0591 -0.9336
 6603SOL    HW326179   0.028   6.056   6.385  0.3778  0.8904  0.1808
 6603SOL    MW426180   0.009   6.069   6.301  0.4765 -0.0253  0.0066
 6604SOL     OW26181   2.204   4.473   1.465  0.3650  0.0277  0.5718
 6604SOL    HW226182   2.226   4.423   1.544 -1.6679  1.9050  2.4435
 6604SOL    HW326183   2.121   4.435   1.436  0.2379  0.4851  0.3410
 6604SOL    MW426184   2.196   4.461   1.472  0.0800  0.3358  0.7883
 6605SOL     OW26185   6.187   1.502   1.391  0.0750 -0.0779 -0.0977
 6605SOL    HW226186   6.256   1.510   1.457  1.1566 -0.3014 -1.1647
 6605SOL    HW326187   6.106   1.520   1.439  0.7275 -1.0879  1.4811
 6605SOL    MW426188   6.185   1.505   1.406  0.3038 -0.2406 -0.0302
 6606SOL     OW26189   0.163   2.269   5.426  0.2079  0.0804  0.5023
 6606SOL    HW226190   0.238   2.227   5.469  0.3813  0.0501  0.1725
 6606SOL    HW326191   0.108   2.299   5.499  0.0947 -0.6874  0.7525
 6606SOL    MW426192   0.166   2.267   5.442  0.2158 -0.0249  0.4918
 6607SOL     OW26193   4.531   2.696   0.362 -0.3904 -0.4696 -0.8338
 6607SOL    HW226194   4.574   2.658   0.438 -1.5576 -0.4998 -0.1575
 6607SOL    HW326195   4.575   2.779   0.348  0.3501 -0.8194 -0.6058
 6607SOL    MW426196   4.542   2.702   0.370 -0.4467 -0.5197 -0.7145
 6608SOL     OW26197   3.132   2.563   3.730 -0.3251  0.2908  0.0310
 6608SOL    HW226198   3.213   2.553   3.681  0.0088 -0.6255  0.7451
 6608SOL    HW326199   3.137   2.651   3.768  0.9442 -0.2073  1.1079
 6608SOL    MW426200   3.143   2.574   3.729 -0.1136  0.1042  0.2673
 6609SOL     OW26201   5.457   1.552   6.356 -0.0049  0.3651  0.1583
 6609SOL    HW226202   5.518   1.624   6.339  0.5060 -0.5994 -2.5827
 6609SOL    HW326203   5.414   1.536   6.272 -1.9675 -0.8890  1.3279
 6609SOL    MW426204   5.460   1.559   6.343 -0.1964  0.0724 -0.0491
 6610SOL     OW26205   6.250   4.409   0.067  0.2131  0.3049 -1.0646
 6610SOL    HW226206   6.157   4.425   0.084  0.4402 -0.2241  1.0122
 6610SOL    HW326207   6.289   4.497   0.059 -0.1637  0.6057  0.1260
 6610SOL    MW426208   6.243   4.423   0.068  0.1933  0.2748 -0.6335
 6611SOL     OW26209   2.732   1.967   1.197 -0.5055  0.1638 -0.3261
 6611SOL    HW226210   2.739   1.973   1.293 -0.5505  0.4560 -0.3412
 6611SOL    HW326211   2.669   1.896   1.182  1.6827 -1.9543 -0.1682
 6611SOL    MW426212   2.725   1.958   1.208 -0.2227 -0.0771 -0.3073
 6612SOL     OW26213   4.392   2.742   6.302 -0.3441 -0.7991  0.4875
 6612SOL    HW226214   4.302   2.752   6.270 -0.0550  0.6192  0.0346
 6612SOL    HW326215   4.403   2.815   6.363  0.6673 -0.6618  0.1458
 6612SOL    MW426216   4.381   2.753   6.306 -0.1725 -0.5938  0.3827
 6613SOL     OW26217   1.811   5.023   2.796  0.0006 -0.4596 -0.1084
 6613SOL    HW226218   1.838   5.111   2.823  0.6725 -1.1246  1.5165
 6613SOL    HW326219   1.837   4.966   2.869 -0.9168 -1.9373 -0.8800
 6613SOL    MW426220   1.818   5.027   2.809 -0.0318 -0.7423  0.0042
 6614SOL     OW26221   5.076   0.956   5.591 -0.2978 -0.0747 -0.2026
 6614SOL    HW226222   5.018   1.013   5.541 -1.4600 -0.1134  1.0470
 6614SOL    HW326223   5.122   1.015   5.651  0.5622 -0.1128 -0.8207
 6614SOL    MW426224   5.074   0.971   5.593 -0.3377 -0.0848 -0.1193
 6615SOL     OW26225   2.247   3.558   2.360  0.9655  0.3212 -0.1433
 6615SOL    HW226226   2.328   3.532   2.317  1.9413  1.3057  1.0254
 6615SOL    HW326227   2.228   3.487   2.422 -0.1945 -0.8762 -1.7909
 6615SOL    MW426228   2.255   3.546   2.363  0.9412  0.2931 -0.2065
 6616SOL     OW26229   2.106   0.475   5.295  0.2117 -0.3447 -0.4781
 6616SOL    HW226230   2.119   0.383   5.271  1.9938  0.2835 -2.2172
 6616SOL    HW326231   2.147   0.524   5.224 -0.0088  1.7944  0.7852
 6616SOL    MW426232   2.113   0.469   5.283  0.4177  0.0204 -0.5409
 6617SOL     OW26233   6.189   5.666   4.529 -0.0737  0.1908 -0.5898
 6617SOL    HW226234   6.138   5.746   4.544  1.7356  1.1948  0.4540
 6617SOL    HW326235   6.165   5.609   4.603 -0.9163 -0.0418 -1.0189
 6617SOL    MW426236   6.179   5.669   4.541  0.0539  0.2926 -0.5087
 6618SOL     OW26237   5.590   4.011   3.819  0.4293 -0.2390  0.6951
 6618SOL    HW226238   5.570   3.933   3.767 -1.3925 -0.7891  2.1015
 6618SOL    HW326239   5.664   3.985   3.874  1.9205  0.1234 -1.0499
 6618SOL    MW426240   5.597   3.997   3.819  0.3857 -0.2638  0.6504
 6619SOL     OW26241   5.626   3.307   3.050  0.1773  0.1756  0.3588
 6619SOL    HW226242   5.568   3.268   2.984  1.3285 -0.1581 -0.4953
 6619SOL    HW326243   5.714   3.282   3.022  0.9301  2.7886  0.1720
 6619SOL    MW426244   5.630   3.298   3.037  0.4286  0.4763  0.2215
 6620SOL     OW26245   3.513   6.355   5.278 -0.5571 -0.2421 -0.1223
 6620SOL    HW226246   3.525   6.272   5.231 -0.1746 -0.1348 -0.2178
 6620SOL    HW326247   3.419   6.374   5.269 -0.4388 -0.0551 -1.1304
 6620SOL    MW426248   3.502   6.346   5.271 -0.4910 -0.2033 -0.2679
 6621SOL     OW26249   1.965   0.132   2.830 -0.1850 -0.4397  0.0932
 6621SOL    HW226250   2.042   0.136   2.772 -0.7654  0.5571 -0.6568
 6621SOL    HW326251   2.000   0.107   2.915  1.3130  1.9968  0.2898
 6621SOL    MW426252   1.980   0.129   2.833 -0.0639  0.0133  0.0202
 6622SOL     OW26253   1.001   4.863   3.136 -0.5426  0.0481  0.4376
 6622SOL    HW226254   0.993   4.769   3.117 -0.9971  0.0957  0.4020
 6622SOL    HW326255   0.980   4.906   3.054  1.5828  0.1389 -0.1198
 6622SOL    MW426256   0.997   4.856   3.123 -0.3221  0.0663  0.3593
 6623SOL     OW26257   5.666   0.359   1.082  0.1087  0.3381  0.0520
 6623SOL    HW226258   5.684   0.351   0.988  2.8219 -0.4478  0.5705
 6623SOL    HW326259   5.694   0.447   1.105 -0.3970  0.4729  0.1571
 6623SOL    MW426260   5.672   0.369   1.072  0.4000  0.2522  0.1343
 6624SOL     OW26261   0.686   5.614   3.860  0.7076  0.7588  0.3142
 6624SOL    HW226262   0.644   5.586   3.941  1.1453 -0.1572  0.2324
 6624SOL    HW326263   0.779   5.619   3.882  1.0464 -1.0563 -0.5277
 6624SOL    MW426264   0.693   5.611   3.874  0.8100  0.3985  0.1923
 6625SOL     OW26265   3.477   3.599   5.842  0.2044  0.3860  0.8522
 6625SOL    HW226266   3.519   3.539   5.905 -0.7424 -2.8354 -1.3029
 6625SOL    HW326267   3.518   3.577   5.758 -1.3458  1.6650 -0.2884
 6625SOL    MW426268   3.488   3.588   5.839 -0.1250  0.1298  0.4174
 6626SOL     OW26269   2.081   6.237   3.690 -0.2977  0.3057  0.7658
 6626SOL    HW226270   2.016   6.176   3.724 -0.6640  0.5586  0.5265
 6626SOL    HW326271   2.057   6.322   3.727 -2.2767  1.1251 -2.0568
 6626SOL    MW426272   2.069   6.240   3.699 -0.6071  0.4472  0.3618
 6627SOL     OW26273   5.965   4.243   2.442 -0.7428 -0.3074 -0.8200
 6627SOL    HW226274   5.941   4.157   2.474 -0.0192 -0.4230 -0.5619
 6627SOL    HW326275   6.000   4.289   2.519 -2.8037  0.8764 -0.5265
 6627SOL    MW426276   5.967   4.238   2.456 -0.9192 -0.1664 -0.7472
 6628SOL     OW26277   0.823   0.740   5.500  0.3190 -0.6855 -0.1709
 6628SOL    HW226278   0.745   0.707   5.455 -2.1166  1.7597  1.9180
 6628SOL    HW326279   0.861   0.663   5.542 -1.3121 -1.8606 -0.7274
 6628SOL    MW426280   0.818   0.725   5.499 -0.2175 -0.5179  0.0312
 6629SOL     OW26281   0.978   1.078   2.747 -0.3313 -0.3664  0.4239
 6629SOL    HW226282   0.965   0.983   2.738 -0.6664 -0.3453  0.6672
 6629SOL    HW326283   0.945   1.099   2.834  0.9465 -0.2205  0.8849
 6629SOL    MW426284   0.972   1.068   2.757 -0.2069 -0.3444  0.5168
 6630SOL     OW26285   6.263   3.753   4.089 -0.4031  0.2434 -0.0543
 6630SOL    HW226286   6.237   3.822   4.028  0.9339  0.4885 -0.3748
 6630SOL    HW326287   6.180   3.713   4.116 -1.0049 -0.6591 -2.8986
 6630SOL    MW426288   6.248   3.757   4.084 -0.3061  0.1567 -0.4718
 6631SOL     OW26289   2.398   4.623   0.480  0.4037 -0.4412 -0.0473
 6631SOL    HW226290   2.428   4.689   0.541  1.3091 -0.5840 -0.3293
 6631SOL    HW326291   2.337   4.569   0.531  0.1255  0.2334  0.3466
 6631SOL    MW426292   2.394   4.624   0.495  0.4864 -0.3710 -0.0325
 6632SOL     OW26293   0.927   2.464   5.073  0.3538  0.1803  0.1341
 6632SOL    HW226294   0.962   2.517   5.002  0.6480  1.3774  1.1351
 6632SOL    HW326295   0.946   2.514   5.152  0.8880 -1.5648  1.1580
 6632SOL    MW426296   0.934   2.478   5.074  0.4631  0.1080  0.4013
 6633SOL     OW26297   3.664   4.915   6.399 -0.0998 -0.2133 -0.2507
 6633SOL    HW226298   3.709   4.841   6.440  0.2238 -0.0224 -0.2589
 6633SOL    HW326299   3.730   4.955   6.342 -0.5925 -0.5681 -1.0821
 6633SOL    MW426300   3.679   4.911   6.397 -0.1221 -0.2349 -0.3615
 6634SOL     OW26301   3.894   5.342   2.277 -0.2354 -0.1981  0.2639
 6634SOL    HW226302   3.847   5.397   2.214  0.4386  0.4452  0.3168
 6634SOL    HW326303   3.824   5.294   2.324 -0.8359  0.7038  0.3082
 6634SOL    MW426304   3.878   5.343   2.275 -0.2257  0.0057  0.2767
 6635SOL     OW26305   3.871   4.787   4.186  0.1988 -0.0655  0.0359
 6635SOL    HW226306   3.918   4.706   4.204  0.5311  0.4599  1.7728
 6635SOL    HW326307   3.940   4.854   4.180 -0.1650  0.3322  0.2129
 6635SOL    MW426308   3.886   4.785   4.188  0.1946  0.0562  0.2884
 6636SOL     OW26309   4.463   3.925   0.799  0.9511 -0.0088 -0.3223
 6636SOL    HW226310   4.401   3.852   0.796  1.2224 -0.2255 -0.7152
 6636SOL    HW326311   4.424   3.987   0.861 -0.0701  0.2360 -1.1819
 6636SOL    MW426312   4.450   3.923   0.807  0.8521 -0.0051 -0.4875
 6637SOL     OW26313   4.067   3.172   4.705  0.0189  0.2086 -0.4263
 6637SOL    HW226314   4.152   3.134   4.680  0.3596  0.3041  0.5707
 6637SOL    HW326315   4.087   3.228   4.780 -1.0815 -0.4892  0.3960
 6637SOL    MW426316   4.081   3.175   4.711 -0.0814  0.1292 -0.1862
 6638SOL     OW26317   6.265   3.796   1.305 -0.1921 -0.5590 -0.1595
 6638SOL    HW226318   6.295   3.709   1.332 -1.1491 -0.5771  0.8692
 6638SOL    HW326319   6.236   3.838   1.386  0.9071  0.9971 -0.5291
 6638SOL    MW426320   6.265   3.790   1.319 -0.1734 -0.3560 -0.0726
 6639SOL     OW26321   5.110   1.780   1.004 -0.3851  0.4093  0.0446
 6639SOL    HW226322   5.033   1.837   1.007 -1.8133 -1.3787 -0.8259
 6639SOL    HW326323   5.153   1.802   0.922 -1.3923 -0.2951 -0.6949
 6639SOL    MW426324   5.105   1.791   0.994 -0.7064  0.0805 -0.1678
 6640SOL     OW26325   4.582   3.013   5.452  0.2641  0.2069 -0.9357
 6640SOL    HW226326   4.604   2.945   5.389 -0.4200 -1.1523  0.2179
 6640SOL    HW326327   4.508   2.976   5.502  0.3004  1.5227  0.1471
 6640SOL    MW426328   4.575   2.999   5.451  0.1787  0.2012 -0.6406
 6641SOL     OW26329   4.334   3.414   2.544 -0.1301 -0.4762 -0.3647
 6641SOL    HW226330   4.275   3.486   2.521  0.6923  0.5429  0.6199
 6641SOL    HW326331   4.352   3.426   2.637 -0.0312 -2.0241 -0.1566
 6641SOL    MW426332   4.329   3.425   2.553 -0.0085 -0.5460 -0.2073
 6642SOL     OW26333   5.163   2.593   4.731 -0.6024 -0.2477 -0.5500
 6642SOL    HW226334   5.070   2.569   4.724 -1.6203  3.0256  0.0071
 6642SOL    HW326335   5.168   2.642   4.813  1.7247 -0.5921 -0.4353
 6642SOL    MW426336   5.151   2.596   4.741 -0.4297  0.1387 -0.4614
 6643SOL     OW26337   3.474   6.390   1.583  0.1433 -0.4253 -0.0398
 6643SOL    HW226338   3.545   6.448   1.611  2.4214 -2.7940 -0.5060
 6643SOL    HW326339   3.418   6.445   1.529  1.5205  1.6066  0.4862
 6643SOL    MW426340   3.476   6.405   1.580  0.6255 -0.4697 -0.0319
 6644SOL     OW26341   1.973   1.706   0.158 -0.4346  0.6249 -0.2605
 6644SOL    HW226342   2.038   1.744   0.099  0.7368  0.5339  0.9358
 6644SOL    HW326343   1.982   1.755   0.240 -0.4346 -0.7493  0.5930
 6644SOL    MW426344   1.982   1.717   0.161 -0.2801  0.4316  0.0099
 6645SOL     OW26345   4.177   2.057   0.474  0.7702 -0.2934 -0.0543
 6645SOL    HW226346   4.247   2.120   0.491  0.7373 -0.1080 -0.6007
 6645SOL    HW326347   4.142   2.037   0.561  0.9297  0.2682  0.1440
 6645SOL    MW426348   4.182   2.062   0.488  0.7869 -0.1948 -0.1002
 6646SOL     OW26349   5.646   1.965   5.740  0.1369  0.0089 -0.6491
 6646SOL    HW226350   5.654   1.898   5.808  0.1733  0.0289 -0.6338
 6646SOL    HW326351   5.694   1.930   5.665  1.2114  0.5648 -0.2306
 6646SOL    MW426352   5.653   1.952   5.739  0.2835  0.0849 -0.5919
 6647SOL     OW26353   5.149   5.131   1.499 -0.3529 -0.3024 -0.3265
 6647SOL    HW226354   5.202   5.090   1.567  0.1364  0.7469 -0.0564
 6647SOL    HW326355   5.124   5.216   1.535 -2.5328 -0.8852 -0.3043
 6647SOL    MW426356   5.153   5.137   1.512 -0.5759 -0.2408 -0.2879
 6648SOL     OW26357   1.023   1.737   0.257  0.1058 -0.0710  0.3065
 6648SOL    HW226358   1.045   1.727   0.165  0.7938  1.9172  0.2059
 6648SOL    HW326359   0.928   1.753   0.258  0.0410 -0.4502 -0.0287
 6648SOL    MW426360   1.013   1.738   0.245  0.1880  0.1413  0.2490
 6649SOL     OW26361   0.594   5.505   0.431 -0.1526 -0.3972  0.2544
 6649SOL    HW226362   0.546   5.547   0.502 -0.5719 -0.5955  0.0922
 6649SOL    HW326363   0.531   5.499   0.359 -0.5491 -2.4313  0.6808
 6649SOL    MW426364   0.579   5.510   0.431 -0.2602 -0.6917  0.2892
 6650SOL     OW26365   1.581   3.866   3.472 -0.4141  0.3911  0.5515
 6650SOL    HW226366   1.611   3.870   3.562  1.1325 -1.1133  0.1641
 6650SOL    HW326367   1.659   3.882   3.420 -0.9661 -0.2392 -0.5140
 6650SOL    MW426368   1.595   3.869   3.477 -0.2829  0.1094  0.3598
 6651SOL     OW26369   1.315   0.921   5.510 -0.4502 -0.2173  0.1057
 6651SOL    HW226370   1.245   0.867   5.473 -1.6909  1.8282 -0.6792
 6651SOL    HW326371   1.334   0.986   5.443  2.8636 -1.1605 -0.0623
 6651SOL    MW426372   1.308   0.923   5.497 -0.1767 -0.0719 -0.0200
 6652SOL     OW26373   1.716   1.646   2.410  0.0913 -0.2471 -0.8443
 6652SOL    HW226374   1.808   1.628   2.428  0.2478  0.9070 -0.4369
 6652SOL    HW326375   1.686   1.569   2.361  0.5578 -1.9266  1.3044
 6652SOL    MW426376   1.724   1.633   2.406  0.1735 -0.3164 -0.5071
 6653SOL     OW26377   3.205   0.441   4.523  0.1872  0.1497  0.1499
 6653SOL    HW226378   3.264   0.491   4.466  1.3009 -0.3392  0.8241
 6653SOL    HW326379   3.119   0.479   4.509  0.6667  0.9039 -0.8674
 6653SOL    MW426380   3.202   0.452   4.514  0.3974  0.1847  0.1046
 6654SOL     OW26381   0.248   4.570   4.807 -0.4108  0.5053 -0.2330
 6654SOL    HW226382   0.185   4.499   4.794 -0.0224  0.2393 -0.7115
 6654SOL    HW326383   0.334   4.527   4.799 -0.0784  0.3326  3.1273
 6654SOL    MW426384   0.251   4.555   4.804 -0.3157  0.4474  0.1472
 6655SOL     OW26385   4.846   4.162   5.324 -0.1149  0.4765 -0.2699
 6655SOL    HW226386   4.774   4.155   5.261 -0.1312 -2.2243 -0.0791
 6655SOL    HW326387   4.851   4.255   5.344 -2.1675  1.0224 -1.8782
 6655SOL    MW426388   4.837   4.173   5.318 -0.3879  0.1922 -0.4569
 6656SOL     OW26389   4.660   6.308   3.501 -0.2883  0.2453 -0.1466
 6656SOL    HW226390   4.576   6.331   3.539 -0.7201 -0.4054 -0.6758
 6656SOL    HW326391   4.712   6.274   3.574 -0.1691  1.4649  0.3436
 6656SOL    MW426392   4.656   6.306   3.515 -0.3296  0.3203 -0.1518
 6657SOL     OW26393   4.295   3.073   6.415 -0.1804 -0.2474  0.4083
 6657SOL    HW226394   4.273   3.120   6.335 -0.9792 -1.7626 -0.3109
 6657SOL    HW326395   4.221   3.089   6.473  0.0267  0.1984  0.5555
 6657SOL    MW426396   4.283   3.081   6.412 -0.2585 -0.3885  0.3328
 6658SOL     OW26397   2.230   4.235   4.689  0.5417 -0.3054  0.0658
 6658SOL    HW226398   2.140   4.269   4.684  0.2287 -1.2312 -3.0475
 6658SOL    HW326399   2.275   4.294   4.749 -1.5392  1.7198 -0.2112
 6658SOL    MW426400   2.224   4.247   4.696  0.2259 -0.1603 -0.3815
 6659SOL     OW26401   0.257   2.497   3.180 -0.3847  0.4130 -0.3742
 6659SOL    HW226402   0.231   2.510   3.271  0.1167  3.0188 -0.5170
 6659SOL    HW326403   0.352   2.507   3.180 -0.5107  1.9926 -1.3404
 6659SOL    MW426404   0.266   2.500   3.192 -0.3352  0.9652 -0.5205
 6660SOL     OW26405   0.522   5.067   2.261  0.0354 -0.2420  0.1127
 6660SOL    HW226406   0.484   4.999   2.318  0.6426 -0.7832 -0.1137
 6660SOL    HW326407   0.595   5.103   2.312 -0.2721  0.2300  0.2220
 6660SOL    MW426408   0.527   5.062   2.275  0.0749 -0.2511  0.0972
 6661SOL     OW26409   0.489   0.430   3.648  0.1864  0.1731 -0.6746
 6661SOL    HW226410   0.513   0.416   3.557 -0.1478 -3.2751 -0.3712
 6661SOL    HW326411   0.394   0.435   3.648  0.1872  0.2144 -0.5364
 6661SOL    MW426412   0.480   0.429   3.636  0.1424 -0.2764 -0.6164
 6662SOL     OW26413   2.040   0.701   2.606 -0.0262  0.1958 -0.0939
 6662SOL    HW226414   1.985   0.623   2.607 -0.4163  0.4199 -1.4262
 6662SOL    HW326415   2.015   0.750   2.684 -0.7587 -0.3465  0.0188
 6662SOL    MW426416   2.030   0.697   2.616 -0.1743  0.1538 -0.2548
 6663SOL     OW26417   3.601   0.902   3.498 -0.5925  0.3613  0.4027
 6663SOL    HW226418   3.576   0.918   3.589  1.1374  0.7907  0.8348
 6663SOL    HW326419   3.689   0.866   3.503 -1.1208 -1.2556 -1.0351
 6663SOL    MW426420   3.609   0.900   3.511 -0.4339  0.2047  0.2700
 6664SOL     OW26421   1.151   2.151   5.553 -0.1377  0.1504  0.0567
 6664SOL    HW226422   1.159   2.102   5.472  0.8519  0.6132 -0.1446
 6664SOL    HW326423   1.085   2.219   5.534  0.0655  0.2347 -0.3474
 6664SOL    MW426424   1.143   2.154   5.540  0.0197  0.2226 -0.0232
 6665SOL     OW26425   4.953   5.086   2.840  0.1550 -0.2992 -0.5993
 6665SOL    HW226426   4.953   4.990   2.841 -0.7607 -0.3275 -1.4459
 6665SOL    HW326427   4.909   5.110   2.921  0.2878 -0.5941 -0.4363
 6665SOL    MW426428   4.947   5.076   2.851  0.0517 -0.3419 -0.6895
 6666SOL     OW26429   6.166   0.224   0.126 -0.1290 -0.0346  0.0351
 6666SOL    HW226430   6.072   0.211   0.132 -0.1277  0.3502  1.4228
 6666SOL    HW326431   6.190   0.263   0.211  1.2293  0.1315 -0.3971
 6666SOL    MW426432   6.157   0.227   0.138  0.0504  0.0381  0.1612
 6667SOL     OW26433   4.467   5.373   1.504  0.4344  0.0314 -0.2342
 6667SOL    HW226434   4.384   5.416   1.528 -0.3084 -1.4084 -0.1254
 6667SOL    HW326435   4.522   5.385   1.582  0.1802  0.6073 -0.1314
 6667SOL    MW426436   4.463   5.380   1.518  0.3029 -0.0826 -0.2063
 6668SOL     OW26437   5.582   1.805   1.028  0.3419 -0.4176 -0.2011
 6668SOL    HW226438   5.574   1.900   1.017  3.0814 -0.1309 -0.4887
 6668SOL    HW326439   5.537   1.768   0.952 -2.0165  0.5149  0.6433
 6668SOL    MW426440   5.575   1.813   1.017  0.3922 -0.2567 -0.1277
 6669SOL     OW26441   1.534   3.945   3.093 -0.2277 -0.3507 -0.1296
 6669SOL    HW226442   1.611   3.897   3.124  0.0540 -0.3986 -0.8782
 6669SOL    HW326443   1.519   4.011   3.160 -0.3594 -1.1982  0.7003
 6669SOL    MW426444   1.542   3.947   3.106 -0.2079 -0.4688 -0.1189
 6670SOL     OW26445   3.142   1.456   3.539 -0.3733  0.3009  0.2553
 6670SOL    HW226446   3.224   1.440   3.492 -0.8658  0.2273 -0.5999
 6670SOL    HW326447   3.113   1.368   3.566 -0.3007  0.2995  0.3275
 6670SOL    MW426448   3.149   1.442   3.536 -0.4287  0.2910  0.1520
 6671SOL     OW26449   4.180   6.083   2.343 -0.1085 -0.0707 -0.4760
 6671SOL    HW226450   4.126   6.014   2.380  0.0688 -0.1635 -0.3882
 6671SOL    HW326451   4.127   6.119   2.271 -0.8540  0.7702  0.4739
 6671SOL    MW426452   4.166   6.078   2.338 -0.1834  0.0280 -0.3391
 6672SOL     OW26453   5.553   3.812   4.938 -0.2800  0.1567 -0.1786
 6672SOL    HW226454   5.622   3.824   4.872 -0.8151 -1.2031 -1.0263
 6672SOL    HW326455   5.480   3.865   4.906 -0.6950 -0.8503 -0.9467
 6672SOL    MW426456   5.553   3.821   4.925 -0.4053 -0.1556 -0.3918
 6673SOL     OW26457   6.158   5.929   5.442 -0.2092  0.0429  0.1882
 6673SOL    HW226458   6.235   5.978   5.474 -1.6009  1.6405  1.2671
 6673SOL    HW326459   6.157   5.946   5.348  0.9046 -0.2264  0.1093
 6673SOL    MW426460   6.168   5.938   5.434 -0.2459  0.2182  0.3201
 6674SOL     OW26461   2.816   1.553   1.868  0.4731 -0.1230 -0.4761
 6674SOL    HW226462   2.746   1.568   1.804  0.6434 -0.5995 -0.7840
 6674SOL    HW326463   2.804   1.621   1.934 -0.4357 -0.3660 -0.3898
 6674SOL    MW426464   2.805   1.564   1.868  0.3756 -0.2179 -0.5053
 6675SOL     OW26465   5.629   0.007   4.306 -0.3974  0.0635 -0.2884
 6675SOL    HW226466   5.713  -0.032   4.279 -0.6326 -1.0126  0.4839
 6675SOL    HW326467   5.572  -0.068   4.322 -0.9826  0.7333  0.8783
 6675SOL    MW426468   5.633  -0.008   4.304 -0.5056  0.0099 -0.0326
 6676SOL     OW26469   4.085   3.302   5.961  0.0296 -0.4401 -0.6028
 6676SOL    HW226470   4.102   3.250   5.882 -0.4455 -1.8669  0.2001
 6676SOL    HW326471   3.992   3.288   5.979  0.0169  0.2813 -0.0574
 6676SOL    MW426472   4.075   3.294   5.953 -0.0348 -0.5331 -0.4249
 6677SOL     OW26473   6.408   5.728   0.086 -0.0868  0.1823 -0.0370
 6677SOL    HW226474   6.367   5.644   0.063  1.8982 -0.4402 -1.5570
 6677SOL    HW326475   6.448   5.758   0.005  1.7533  1.1261  1.1569
 6677SOL    MW426476   6.408   5.721   0.072  0.4179  0.2247 -0.0800
 6678SOL     OW26477   4.142   0.630   2.456  0.4298 -0.3045 -0.9108
 6678SOL    HW226478   4.151   0.538   2.482  1.6958 -0.0526 -0.3888
 6678SOL    HW326479   4.230   0.656   2.431 -0.3581  0.0704 -3.5707
 6678SOL    MW426480   4.155   0.621   2.456  0.4929 -0.2218 -1.1929
 6679SOL     OW26481   1.615   2.598   2.998  0.2432 -0.1320 -0.3150
 6679SOL    HW226482   1.620   2.530   3.065 -1.2173 -0.0167 -0.0708
 6679SOL    HW326483   1.703   2.635   2.996  0.1127  0.4887  2.1902
 6679SOL    MW426484   1.628   2.594   3.006  0.0333 -0.0349  0.0478
 6680SOL     OW26485   0.804   0.049   3.564 -0.3219 -0.1908 -0.7393
 6680SOL    HW226486   0.826  -0.003   3.487  1.6353 -0.9093  0.2432
 6680SOL    HW326487   0.717   0.019   3.590 -0.8369 -0.2214 -2.4029
 6680SOL    MW426488   0.795   0.039   3.558 -0.1316 -0.2896 -0.8292
 6681SOL     OW26489   0.036   3.887   3.586  0.4103 -0.4776 -0.4705
 6681SOL    HW226490  -0.031   3.829   3.550  0.7350 -1.4125  0.4006
 6681SOL    HW326491   0.002   3.913   3.672  1.2117 -1.0946  0.0522
 6681SOL    MW426492   0.023   3.883   3.593  0.5588 -0.6823 -0.2866
 6682SOL     OW26493   1.207   1.411   1.868  0.0833 -0.4566  0.2491
 6682SOL    HW226494   1.173   1.323   1.853 -0.8803  0.0529 -0.7227
 6682SOL    HW326495   1.262   1.429   1.792 -0.5157  0.1367 -0.0560
 6682SOL    MW426496   1.209   1.402   1.856 -0.1229 -0.3111  0.0806
 6683SOL     OW26497   4.950   1.956   4.570 -0.3024  0.2472 -0.4762
 6683SOL    HW226498   4.869   1.994   4.538  0.2644  3.2439  1.2505
 6683SOL    HW326499   4.929   1.926   4.659  0.3775  0.6929 -0.1594
 6683SOL    MW426500   4.937   1.957   4.577 -0.1379  0.7014 -0.2066
 6684SOL     OW26501   5.084   5.740   5.686  0.4346  0.1989  0.1396
 6684SOL    HW226502   5.107   5.745   5.779 -0.1954  1.5124  0.2461
 6684SOL    HW326503   4.989   5.732   5.685  0.3547  1.0524 -0.3905
 6684SOL    MW426504   5.075   5.740   5.698  0.3410  0.4848  0.0837
 6685SOL     OW26505   5.881   0.862   0.243 -0.0510  0.6484 -0.4540
 6685SOL    HW226506   5.931   0.808   0.183 -0.6983  0.8296 -1.1671
 6685SOL    HW326507   5.793   0.823   0.243  0.3486 -0.4310  1.7224
 6685SOL    MW426508   5.876   0.849   0.235 -0.0837  0.5299 -0.2609
 6686SOL     OW26509   2.022   5.803   3.055 -0.5803 -0.3495 -0.3336
 6686SOL    HW226510   1.970   5.725   3.037 -0.0114 -1.0467  0.9570
 6686SOL    HW326511   2.052   5.792   3.145  2.4734 -0.3963 -1.2440
 6686SOL    MW426512   2.020   5.791   3.064 -0.1023 -0.4477 -0.2835
 6687SOL     OW26513   2.101   2.222   5.390  0.1324 -0.4051  0.3446
 6687SOL    HW226514   2.081   2.302   5.439 -2.8090  0.2623 -1.6750
 6687SOL    HW326515   2.102   2.153   5.456  2.2645  1.1384  2.0739
 6687SOL    MW426516   2.098   2.224   5.405  0.0256 -0.1134  0.3063
 6688SOL     OW26517   0.867   3.988   4.855  0.0444 -0.4560  0.3555
 6688SOL    HW226518   0.943   4.028   4.812  0.1384  0.7675  1.5578
 6688SOL    HW326519   0.906   3.927   4.918  0.0059 -0.3510  0.4810
 6688SOL    MW426520   0.882   3.986   4.858  0.0518 -0.2807  0.5307
 6689SOL     OW26521   1.198   3.029   0.426 -0.0485 -0.1758  0.0956
 6689SOL    HW226522   1.265   2.992   0.483 -1.0539  0.1006  1.4893
 6689SOL    HW326523   1.247   3.058   0.348  1.5695  0.6401  1.3523
 6689SOL    MW426524   1.213   3.028   0.423  0.0323 -0.0317  0.4453
 6690SOL     OW26525   0.711   2.215   0.101  0.3038 -0.2060  0.8018
 6690SOL    HW226526   0.647   2.187   0.167  0.0548  0.3539  0.8036
 6690SOL    HW326527   0.748   2.295   0.138 -0.1493  0.3522  0.0655
 6690SOL    MW426528   0.707   2.222   0.115  0.2112 -0.0585  0.7049
 6691SOL     OW26529   4.662   3.173   4.430  0.8003  0.0624 -0.6520
 6691SOL    HW226530   4.604   3.236   4.470  1.6403  0.7632 -0.5106
 6691SOL    HW326531   4.747   3.217   4.424  1.2662 -0.8368 -1.0820
 6691SOL    MW426532   4.666   3.187   4.434  0.9726  0.0362 -0.6900
 6692SOL     OW26533   6.323   5.333   4.267 -0.2256  0.2263 -0.6877
 6692SOL    HW226534   6.335   5.238   4.278 -1.2608 -0.0488 -1.7147
 6692SOL    HW326535   6.390   5.358   4.203 -1.5126 -0.3033 -2.3117
 6692SOL    MW426536   6.334   5.324   4.260 -0.5320  0.1201 -1.0375
 6693SOL     OW26537   1.933   3.486   3.211 -0.2151  0.5582  0.3050
 6693SOL    HW226538   1.902   3.468   3.122 -0.9244  0.1556  0.6263
 6693SOL    HW326539   2.003   3.423   3.225 -1.1973 -0.5055  0.6108
 6693SOL    MW426540   1.938   3.476   3.201 -0.4383  0.3648  0.3877
 6694SOL     OW26541   6.068   5.035   3.123  0.4194  0.4031 -0.4320
 6694SOL    HW226542   6.150   4.988   3.138 -1.1019 -2.8283 -1.2019
 6694SOL    HW326543   6.002   4.981   3.168 -1.5530  1.6017 -1.7608
 6694SOL    MW426544   6.070   5.021   3.131 -0.0416  0.1349 -0.7089
 6695SOL     OW26545   3.453   0.481   1.736  0.0528 -0.4357  0.0584
 6695SOL    HW226546   3.473   0.443   1.651 -0.0683  1.1660 -0.7270
 6695SOL    HW326547   3.534   0.524   1.763 -0.0443 -0.5467  0.5356
 6695SOL    MW426548   3.466   0.482   1.728  0.0240 -0.2390  0.0178
 6696SOL     OW26549   4.757   5.513   4.601 -0.1901 -0.1979 -0.3992
 6696SOL    HW226550   4.848   5.513   4.630 -0.2134 -2.1606 -0.2030
 6696SOL    HW326551   4.760   5.483   4.510 -0.5200  1.3529 -0.9454
 6696SOL    MW426552   4.769   5.509   4.593 -0.2367 -0.2522 -0.4454
 6697SOL     OW26553   5.472   1.423   1.618 -0.4775  0.0540  0.2196
 6697SOL    HW226554   5.528   1.348   1.597 -2.3595 -1.0476 -1.2543
 6697SOL    HW326555   5.482   1.482   1.544 -0.9661  0.0061  0.1065
 6697SOL    MW426556   5.480   1.421   1.605 -0.7903 -0.0977  0.0102
 6698SOL     OW26557   1.739   5.394   5.005 -0.2961 -0.0027  0.0713
 6698SOL    HW226558   1.741   5.302   4.978 -1.1232 -0.2339  0.7636
 6698SOL    HW326559   1.659   5.428   4.965 -0.4425  0.1885  0.5300
 6698SOL    MW426560   1.728   5.386   4.996 -0.4245 -0.0079  0.2231
 6699SOL     OW26561   2.872   0.118   5.310  0.2428  0.3044  0.3001
 6699SOL    HW226562   2.820   0.186   5.352 -0.4041  1.4093 -2.1633
 6699SOL    HW326563   2.956   0.120   5.357 -1.1062 -0.0967  2.9643
 6699SOL    MW426564   2.876   0.127   5.322 -0.0205  0.3973  0.3266
 6700SOL     OW26565   3.156   1.939   3.757  0.4357 -0.2238  0.6670
 6700SOL    HW226566   3.239   1.960   3.716 -0.8419  2.8817 -0.6458
 6700SOL    HW326567   3.174   1.945   3.851  1.3063  2.8068  0.4286
 6700SOL    MW426568   3.169   1.943   3.764  0.3820  0.5858  0.4623
 6701SOL     OW26569   3.609   1.408   5.615 -0.2576 -0.4408 -0.4133
 6701SOL    HW226570   3.599   1.360   5.697  0.7695  0.8383  0.5035
 6701SOL    HW326571   3.610   1.500   5.641  0.0536 -0.0111 -1.8662
 6701SOL    MW426572   3.608   1.414   5.629 -0.0810 -0.2153 -0.4840
 6702SOL     OW26573   3.120   4.362   3.935  0.4708  0.0229 -0.1779
 6702SOL    HW226574   3.128   4.450   3.899  0.5351  0.0754 -0.0378
 6702SOL    HW326575   3.088   4.308   3.863 -2.0602  0.6560  0.3619
 6702SOL    MW426576   3.116   4.366   3.921  0.1453  0.1134 -0.0882
 6703SOL     OW26577   1.036   1.045   5.225  0.0858 -0.1817  0.0184
 6703SOL    HW226578   1.114   0.989   5.232  0.3099  0.1367  0.1160
 6703SOL    HW326579   0.963   0.987   5.246  0.3549 -0.3276  0.5668
 6703SOL    MW426580   1.037   1.030   5.228  0.1509 -0.1589  0.1036
 6704SOL     OW26581   5.705   1.793   5.943  0.2934  0.9079 -0.0516
 6704SOL    HW226582   5.797   1.808   5.963  0.5045 -0.5208  0.1602
 6704SOL    HW326583   5.665   1.774   6.028  0.5156 -1.8315 -0.4703
 6704SOL    MW426584   5.712   1.793   5.957  0.3506  0.3580 -0.0789
 6705SOL     OW26585   3.188   1.713   3.344 -0.6384 -0.1138  0.0293
 6705SOL    HW226586   3.140   1.795   3.354 -0.9685 -0.4049  0.9337
 6705SOL    HW326587   3.121   1.648   3.326 -0.2316  0.0696 -2.5112
 6705SOL    MW426588   3.173   1.715   3.343 -0.6283 -0.1280 -0.1866
 6706SOL     OW26589   1.077   4.318   2.894 -0.0584  0.7077 -0.1441
 6706SOL    HW226590   1.154   4.269   2.923 -1.0435 -0.5081  0.4871
 6706SOL    HW326591   1.076   4.396   2.948  0.2376  0.2855  0.4858
 6706SOL    MW426592   1.087   4.322   2.905 -0.1493  0.4916  0.0223
 6707SOL     OW26593   6.014   3.507   1.070 -0.1547  0.2238  0.6301
 6707SOL    HW226594   6.096   3.461   1.051 -1.0286 -1.0757 -0.2191
 6707SOL    HW326595   6.038   3.599   1.075  0.8364  0.3326 -3.2070
 6707SOL    MW426596   6.028   3.513   1.069 -0.1393  0.0667  0.0118
 6708SOL     OW26597   1.903   4.613   1.189  0.4161 -0.0282 -0.1660
 6708SOL    HW226598   1.847   4.596   1.113  0.5191 -0.5000 -0.1362
 6708SOL    HW326599   1.860   4.686   1.233  0.4845  0.4124 -0.8035
 6708SOL    MW426600   1.890   4.620   1.184  0.4387 -0.0323 -0.2462
 6709SOL     OW26601   1.546   1.237   5.144 -0.5606  0.1424 -0.2420
 6709SOL    HW226602   1.625   1.183   5.149 -2.0148 -2.0214  0.6897
 6709SOL    HW326603   1.577   1.326   5.163  1.2700 -1.0173  2.9400
 6709SOL    MW426604   1.561   1.242   5.147 -0.5110 -0.2961  0.3007
 6710SOL     OW26605   4.554   4.705   3.867  0.0506 -0.1873 -0.3827
 6710SOL    HW226606   4.535   4.617   3.836  1.1935 -0.5162 -0.1759
 6710SOL    HW326607   4.643   4.722   3.838  0.5513  0.1446  1.2761
 6710SOL    MW426608   4.563   4.696   3.859  0.2675 -0.1869 -0.1366
 6711SOL     OW26609   2.930   4.837   5.810 -0.0729 -0.7613 -0.0033
 6711SOL    HW226610   2.853   4.824   5.865 -0.3100  0.5941 -0.0001
 6711SOL    HW326611   2.974   4.751   5.811 -1.9476 -1.7838 -0.6144
 6711SOL    MW426612   2.926   4.824   5.818 -0.3515 -0.7173 -0.0835
 6712SOL     OW26613   5.945   4.271   4.120  0.1504  0.2586  0.0898
 6712SOL    HW226614   6.005   4.226   4.180 -0.9532  0.6623  1.5513
 6712SOL    HW326615   5.883   4.316   4.178 -2.0117 -0.7255 -1.3700
 6712SOL    MW426616   5.945   4.271   4.136 -0.2805  0.1820  0.0900
 6713SOL     OW26617   6.412   2.500   5.875 -0.3995 -0.1089  0.1111
 6713SOL    HW226618   6.357   2.578   5.868 -2.0071 -1.1895 -0.0439
 6713SOL    HW326619   6.353   2.433   5.911  1.5018 -0.7080  2.3363
 6713SOL    MW426620   6.397   2.501   5.878 -0.3608 -0.3305  0.3842
 6714SOL     OW26621   1.389   1.657   5.161  0.1048 -0.1796 -0.0763
 6714SOL    HW226622   1.297   1.635   5.143  0.0746 -1.0368  1.0189
 6714SOL    HW326623   1.393   1.752   5.149 -0.7374 -0.2248 -0.8824
 6714SOL    MW426624   1.377   1.667   5.157 -0.0103 -0.2987 -0.0382
 6715SOL     OW26625   2.491   6.091   0.501  0.1526  0.2349  0.3049
 6715SOL    HW226626   2.526   6.125   0.583  1.8739 -0.4555 -0.0946
 6715SOL    HW326627   2.411   6.044   0.527  0.2233  0.7149  1.4634
 6715SOL    MW426628   2.485   6.089   0.515  0.3890  0.2071  0.4050
 6716SOL     OW26629   0.814   5.455   0.063  0.1768 -0.2496 -0.5145
 6716SOL    HW226630   0.825   5.521  -0.006 -1.1333 -0.2367 -0.7286
 6716SOL    HW326631   0.721   5.432   0.060  0.4186 -1.3927  0.2182
 6716SOL    MW426632   0.803   5.461   0.053  0.0358 -0.3987 -0.4461
 6717SOL     OW26633   0.252   0.890   6.229 -0.3006  0.8233 -0.0890
 6717SOL    HW226634   0.180   0.937   6.270 -0.1433  0.2793  0.8501
 6717SOL    HW326635   0.319   0.956   6.213  0.1504  0.8512  1.7337
 6717SOL    MW426636   0.251   0.905   6.232 -0.2204  0.7552  0.2754
 6718SOL     OW26637   0.379   3.469   2.766  0.3348  0.0316  0.2880
 6718SOL    HW226638   0.321   3.498   2.837  0.0385  0.5782 -0.1726
 6718SOL    HW326639   0.368   3.374   2.764  1.3485 -0.1618  1.8428
 6718SOL    MW426640   0.370   3.460   2.775  0.4295  0.0782  0.4324
 6719SOL     OW26641   3.605   3.111   6.105 -0.1037  0.3472 -0.2153
 6719SOL    HW226642   3.544   3.142   6.039  0.5911 -0.0676 -1.0606
 6719SOL    HW326643   3.573   3.024   6.129 -0.1436  0.3444 -0.2781
 6719SOL    MW426644   3.593   3.104   6.100 -0.0173  0.2921 -0.3351
 6720SOL     OW26645   5.206   0.421   3.170 -0.5069  0.1252  0.2303
 6720SOL    HW226646   5.215   0.326   3.179 -0.8830 -0.0433 -0.9886
 6720SOL    HW326647   5.293   0.455   3.188 -0.0977 -0.5513 -0.4244
 6720SOL    MW426648   5.218   0.413   3.174 -0.5025  0.0137 -0.0169
 6721SOL     OW26649   2.424   0.841   1.899 -0.5110  0.2403 -0.0906
 6721SOL    HW226650   2.431   0.750   1.929 -1.2116  0.0494 -0.4976
 6721SOL    HW326651   2.463   0.841   1.812 -1.5283  0.0859 -0.5578
 6721SOL    MW426652   2.430   0.829   1.892 -0.7376  0.1948 -0.2059
 6722SOL     OW26653   5.034   5.503   4.591  0.5712 -0.0398 -0.6303
 6722SOL    HW226654   5.061   5.428   4.643 -2.2675 -2.0760 -1.8472
 6722SOL    HW326655   5.022   5.573   4.656  3.6675 -0.3852  0.4846
 6722SOL    MW426656   5.036   5.503   4.607  0.6052 -0.3540 -0.6437
 6723SOL     OW26657   0.150   3.612   3.685  0.2623  0.0512  0.1930
 6723SOL    HW226658   0.091   3.578   3.618  0.5023  2.3380 -1.3089
 6723SOL    HW326659   0.101   3.682   3.727 -0.3924 -2.1731  3.4982
 6723SOL    MW426660   0.136   3.617   3.682  0.2076  0.0595  0.4309
 6724SOL     OW26661   4.367   2.440   1.812  0.1358 -0.2163 -0.8207
 6724SOL    HW226662   4.442   2.499   1.804  0.5334 -0.5569  0.2594
 6724SOL    HW326663   4.397   2.358   1.773  0.1258 -0.1796 -0.9057
 6724SOL    MW426664   4.381   2.437   1.806  0.1869 -0.2564 -0.6894
 6725SOL     OW26665   3.101   0.292   3.713 -0.3244 -0.3416 -0.1904
 6725SOL    HW226666   3.197   0.291   3.716 -0.2711 -1.5446 -1.2235
 6725SOL    HW326667   3.080   0.269   3.622 -1.5896 -0.8828  0.2097
 6725SOL    MW426668   3.111   0.289   3.701 -0.4843 -0.5717 -0.2739
 6726SOL     OW26669   1.741   6.054   1.742  0.3094 -0.3439 -0.6151
 6726SOL    HW226670   1.765   6.057   1.649  1.6059 -2.6584 -0.4115
 6726SOL    HW326671   1.761   5.965   1.769 -0.6108  0.1134  1.7691
 6726SOL    MW426672   1.747   6.043   1.733  0.3591 -0.5889 -0.2737
 6727SOL     OW26673   2.611   5.449   2.075 -0.3701  0.3329 -0.2683
 6727SOL    HW226674   2.701   5.424   2.095  0.0053  1.5101 -0.3926
 6727SOL    HW326675   2.600   5.534   2.119 -1.1883  0.5242 -0.8268
 6727SOL    MW426676   2.621   5.457   2.083 -0.4285  0.5135 -0.3584
 6728SOL     OW26677   1.139   2.294   0.939  0.2868  0.2549 -0.5719
 6728SOL    HW226678   1.229   2.278   0.969  0.7014  0.8335 -1.4615
 6728SOL    HW326679   1.150   2.346   0.860 -0.8152 -0.4759 -1.2221
 6728SOL    MW426680   1.153   2.299   0.933  0.1961  0.2348 -0.7750
 6729SOL     OW26681   6.244   1.330   0.591 -0.1854 -0.6606 -0.0167
 6729SOL    HW226682   6.218   1.339   0.499  0.2093  0.4636 -0.0318
 6729SOL    HW326683   6.163   1.307   0.636 -0.2772 -1.7577 -0.7126
 6729SOL    MW426684   6.230   1.328   0.585 -0.1454 -0.6570 -0.1105
 6730SOL     OW26685   3.036   6.215   0.242 -0.1096  0.0508 -0.5875
 6730SOL    HW226686   3.079   6.159   0.307  0.1057  0.2091 -0.5909
 6730SOL    HW326687   3.090   6.208   0.164 -0.0760  0.2678 -0.5851
 6730SOL    MW426688   3.049   6.207   0.241 -0.0767  0.1003 -0.5876
 6731SOL     OW26689   0.597   6.159   1.203  0.8806  0.4316  0.6524
 6731SOL    HW226690   0.687   6.128   1.214  0.7264 -0.1020  0.4684
 6731SOL    HW326691   0.575   6.200   1.287  1.3167  0.6255  0.6746
 6731SOL    MW426692   0.606   6.160   1.216  0.9178  0.3868  0.6311
 6732SOL     OW26693   2.499   1.121   1.005  0.1032  0.0325 -0.7136
 6732SOL    HW226694   2.586   1.089   0.979 -0.4245 -0.9238 -1.3351
 6732SOL    HW326695   2.471   1.176   0.932  0.0333  0.0573 -0.6677
 6732SOL    MW426696   2.507   1.124   0.992  0.0244 -0.0904 -0.7895
 6733SOL     OW26697   0.138   5.038   2.680 -0.7299  0.6042 -0.2003
 6733SOL    HW226698   0.094   5.021   2.763 -0.7180  0.5884 -0.1970
 6733SOL    HW326699   0.212   4.977   2.679 -1.1883  0.0385 -0.5797
 6733SOL    MW426700   0.142   5.028   2.691 -0.7888  0.5275 -0.2499
 6734SOL     OW26701   2.507   6.066   1.474  0.0918 -0.7920  0.2878
 6734SOL    HW226702   2.426   6.109   1.446 -0.2621 -1.5140  0.1682
 6734SOL    HW326703   2.563   6.068   1.396 -0.1525 -1.0773  0.1015
 6734SOL    MW426704   2.503   6.072   1.460  0.0129 -0.9249  0.2474
 6735SOL     OW26705   2.382   1.709   2.514 -0.0190 -0.5661  0.0708
 6735SOL    HW226706   2.319   1.725   2.584 -2.5437 -0.0071 -2.1800
 6735SOL    HW326707   2.402   1.796   2.479 -0.0300 -0.9401 -0.9109
 6735SOL    MW426708   2.377   1.723   2.519 -0.3536 -0.5417 -0.3557
 6736SOL     OW26709   0.840   4.564   6.246 -0.0116 -0.4149 -0.3094
 6736SOL    HW226710   0.893   4.644   6.245 -1.5067  0.6118 -1.4528
 6736SOL    HW326711   0.876   4.511   6.174 -0.9334  0.6055 -1.5817
 6736SOL    MW426712   0.852   4.568   6.236 -0.3305 -0.1448 -0.6281
 6737SOL     OW26713   2.723   5.563   5.167  0.8037  0.3564  0.2332
 6737SOL    HW226714   2.670   5.532   5.240 -0.4148 -2.3657 -1.6790
 6737SOL    HW326715   2.798   5.504   5.164  1.0389  0.6737 -0.5175
 6737SOL    MW426716   2.726   5.551   5.176  0.6740  0.0391 -0.1182
 6738SOL     OW26717   0.474   0.630   2.138  0.3816  0.4152 -0.9365
 6738SOL    HW226718   0.392   0.678   2.129 -0.4701 -1.2380 -2.5776
 6738SOL    HW326719   0.538   0.681   2.088 -0.4131  0.1039 -2.3127
 6738SOL    MW426720   0.472   0.643   2.130  0.1644  0.1560 -1.3346
 6739SOL     OW26721   5.749   2.405   1.616 -0.5290  0.0795  0.1270
 6739SOL    HW226722   5.766   2.362   1.699 -1.1301  1.2231  0.8686
 6739SOL    HW326723   5.833   2.447   1.593 -1.2216  2.7584  2.0060
 6739SOL    MW426724   5.762   2.405   1.624 -0.6997  0.5838  0.4727
 6740SOL     OW26725   6.008   5.772   0.949  0.5727 -0.1111  0.1876
 6740SOL    HW226726   6.030   5.688   0.908  0.7631 -0.5831  1.2061
 6740SOL    HW326727   5.913   5.779   0.940  0.7262  0.3375 -1.2931
 6740SOL    MW426728   5.998   5.762   0.942  0.6181 -0.1142  0.1266
 6741SOL     OW26729   1.263   2.397   3.277  0.0510 -0.0098  0.2844
 6741SOL    HW226730   1.232   2.487   3.267 -1.4973 -0.2123  2.4541
 6741SOL    HW326731   1.188   2.344   3.249  0.2675 -0.5769  0.7675
 6741SOL    MW426732   1.249   2.402   3.272 -0.1247 -0.1114  0.6344
 6742SOL     OW26733   0.234   1.391   6.161 -0.1680 -0.4138 -0.3061
 6742SOL    HW226734   0.240   1.373   6.067  1.0469  1.1475 -0.5618
 6742SOL    HW326735   0.142   1.377   6.182 -0.5791 -0.2234 -1.8577
 6742SOL    MW426736   0.223   1.387   6.151 -0.0620 -0.1827 -0.5446
 6743SOL     OW26737   3.527   0.733   1.323  0.7206  0.3099 -0.2580
 6743SOL    HW226738   3.551   0.735   1.415  1.1258 -1.6754 -0.2691
 6743SOL    HW326739   3.558   0.816   1.288  0.9165  0.9199  1.2961
 6743SOL    MW426740   3.534   0.744   1.330  0.7999  0.1284 -0.0544
 6744SOL     OW26741   3.133   4.752   0.551 -0.1246  0.4683 -0.5846
 6744SOL    HW226742   3.101   4.802   0.476  1.5130  2.0079 -0.3477
 6744SOL    HW326743   3.163   4.819   0.613  1.3252 -0.7967  0.1428
 6744SOL    MW426744   3.133   4.768   0.549  0.2827  0.5045 -0.4573
 6745SOL     OW26745   4.111   2.465   3.160  0.5676  0.2653 -0.1693
 6745SOL    HW226746   4.099   2.488   3.068 -0.3410  0.9789  0.1208
 6745SOL    HW326747   4.189   2.514   3.187  2.7574 -2.2840 -1.3252
 6745SOL    MW426748   4.120   2.475   3.152  0.7367  0.0231 -0.2835
 6746SOL     OW26749   5.701   2.332   3.051 -0.0046  0.2300 -0.0035
 6746SOL    HW226750   5.677   2.393   2.981 -0.4928  0.6393  0.5142
 6746SOL    HW326751   5.791   2.307   3.031 -0.0913  0.4540 -0.6983
 6746SOL    MW426752   5.710   2.337   3.039 -0.0805  0.3135 -0.0269
 6747SOL     OW26753   4.707   0.143   2.884 -0.3727  0.1373 -0.4959
 6747SOL    HW226754   4.746   0.129   2.971  0.6093  1.0767 -0.7503
 6747SOL    HW326755   4.649   0.219   2.896 -1.1191 -0.4436 -0.4119
 6747SOL    MW426756   4.705   0.151   2.897 -0.3416  0.1846 -0.5183
 6748SOL     OW26757   0.131   4.868   4.362 -0.5487 -0.3142  0.1175
 6748SOL    HW226758   0.118   4.789   4.310  0.8043 -0.5860  0.1567
 6748SOL    HW326759   0.180   4.838   4.439 -0.0413  0.5647  0.1467
 6748SOL    MW426760   0.136   4.853   4.365 -0.3032 -0.2341  0.1265
 6749SOL     OW26761   0.994   2.016   5.983  0.7573 -0.3565  0.0774
 6749SOL    HW226762   0.904   2.048   5.978  0.3268 -1.2520  1.6099
 6749SOL    HW326763   1.040   2.080   6.036  1.4370  0.8756 -1.8898
 6749SOL    MW426764   0.988   2.028   5.989  0.7901 -0.3121  0.0200
 6750SOL     OW26765   3.547   4.838   3.178  0.3054 -0.1411 -0.4206
 6750SOL    HW226766   3.567   4.749   3.205 -0.6990 -0.4527 -0.6590
 6750SOL    HW326767   3.486   4.870   3.245  0.1926  0.1555 -0.6634
 6750SOL    MW426768   3.542   4.830   3.191  0.1580 -0.1431 -0.4841
 6751SOL     OW26769   3.269   0.095   4.725 -0.2342  0.8352 -0.1401
 6751SOL    HW226770   3.224   0.082   4.642 -0.2411  0.0825 -0.0243
 6751SOL    HW326771   3.362   0.099   4.701 -0.0621 -1.3116 -0.0094
 6751SOL    MW426772   3.275   0.094   4.711 -0.2124  0.4527 -0.1076
 6752SOL     OW26773   4.707   0.131   5.571 -0.3837 -0.3735  0.1939
 6752SOL    HW226774   4.714   0.149   5.477 -2.2135 -0.2373  0.0650
 6752SOL    HW326775   4.642   0.062   5.578  1.1307 -1.7774  1.2535
 6752SOL    MW426776   4.700   0.124   5.559 -0.4253 -0.5408  0.3167
 6753SOL     OW26777   5.801   5.412   3.615  0.4727  0.3726 -0.3921
 6753SOL    HW226778   5.814   5.325   3.577 -1.9125  0.2091 -1.0101
 6753SOL    HW326779   5.762   5.395   3.701  2.5000  0.8344  0.6912
 6753SOL    MW426780   5.798   5.399   3.621  0.4254  0.4119 -0.3307
 6754SOL     OW26781   0.172   3.220   5.151  0.4361 -0.0788  0.4824
 6754SOL    HW226782   0.092   3.248   5.196  0.1299  0.6307 -0.4521
 6754SOL    HW326783   0.174   3.125   5.161  0.3745  0.0555  1.9558
 6754SOL    MW426784   0.162   3.211   5.158  0.3876  0.0326  0.5535
 6755SOL     OW26785   6.413   0.483   5.901  0.5589 -0.2735 -0.5212
 6755SOL    HW226786   6.445   0.438   5.979 -1.0570  0.1745  0.4494
 6755SOL    HW326787   6.485   0.478   5.838  1.2641 -2.1583  0.3788
 6755SOL    MW426788   6.426   0.476   5.903  0.4388 -0.4630 -0.2744
 6756SOL     OW26789   1.532   4.233   3.828  0.2349 -0.2399 -0.0074
 6756SOL    HW226790   1.547   4.140   3.842  0.9592 -0.2207 -0.5815
 6756SOL    HW326791   1.459   4.255   3.886  0.1703 -1.1227  0.2561
 6756SOL    MW426792   1.524   4.224   3.838  0.3220 -0.3539 -0.0484
 6757SOL     OW26793   5.589   5.997   4.819 -0.0009 -0.2391 -0.1584
 6757SOL    HW226794   5.565   5.906   4.836  2.5517 -1.2504 -1.4874
 6757SOL    HW326795   5.610   6.033   4.905 -0.3641 -1.0922  0.2983
 6757SOL    MW426796   5.588   5.990   4.833  0.2879 -0.4851 -0.2735
 6758SOL     OW26797   6.324   2.554   1.068  0.1178  0.0441  0.1207
 6758SOL    HW226798   6.259   2.614   1.030  0.9200  0.3074 -0.8825
 6758SOL    HW326799   6.396   2.612   1.095  1.0117 -0.4566 -1.0926
 6758SOL    MW426800   6.325   2.570   1.066  0.3416  0.0127 -0.1718
 6759SOL     OW26801   0.510   0.989   0.765  0.2408 -0.1750  0.0058
 6759SOL    HW226802   0.518   0.976   0.670 -0.7647 -1.1423  0.0264
 6759SOL    HW326803   0.595   1.023   0.792  0.6403 -0.1609 -1.2017
 6759SOL    MW426804   0.522   0.992   0.756  0.1608 -0.3008 -0.1508
 6760SOL     OW26805   1.122   3.392   6.108 -0.0843  0.0114  0.0117
 6760SOL    HW226806   1.163   3.402   6.022  1.5953 -1.6811  0.5610
 6760SOL    HW326807   1.092   3.480   6.130 -0.8293  0.4321 -2.4128
 6760SOL    MW426808   1.124   3.405   6.100  0.0390 -0.1564 -0.2357
 6761SOL     OW26809   0.984   2.131   1.348 -0.1478 -0.3087  0.0530
 6761SOL    HW226810   0.937   2.050   1.369  0.4338 -0.6294  0.1485
 6761SOL    HW326811   0.946   2.196   1.406 -1.0684 -0.3629 -0.4796
 6761SOL    MW426812   0.973   2.129   1.358 -0.1925 -0.3581 -0.0046
 6762SOL     OW26813   1.024   4.673   2.777  0.0870  0.3317 -0.3038
 6762SOL    HW226814   1.094   4.739   2.769  1.2680 -0.9490 -0.8938
 6762SOL    HW326815   0.991   4.662   2.688 -0.6923  0.7052 -0.0756
 6762SOL    MW426816   1.029   4.681   2.765  0.1400  0.2120 -0.3515
 6763SOL     OW26817   3.969   3.309   4.453  0.0135  0.3752  0.5341
 6763SOL    HW226818   4.018   3.248   4.509  0.1405  0.9032  1.0081
 6763SOL    HW326819   3.938   3.377   4.513  1.3480  1.7158 -0.2188
 6763SOL    MW426820   3.972   3.310   4.468  0.2064  0.6217  0.4973
 6764SOL     OW26821   4.185   0.973   1.401  0.0668 -0.4597  0.0103
 6764SOL    HW226822   4.253   1.018   1.351 -0.0407 -0.1011  0.1851
 6764SOL    HW326823   4.103   1.015   1.375 -0.0680 -0.7581 -0.0513
 6764SOL    MW426824   4.183   0.985   1.391  0.0348 -0.4518  0.0253
 6765SOL     OW26825   0.156   2.692   6.114 -0.3387  0.9425  0.2360
 6765SOL    HW226826   0.178   2.598   6.117  1.3599  1.2811 -0.3502
 6765SOL    HW326827   0.146   2.717   6.206  1.4758  0.6452  0.5544
 6765SOL    MW426828   0.158   2.683   6.127  0.1248  0.9479  0.2007
 6766SOL     OW26829   4.089   2.068   2.647  0.4424  0.2989 -0.4675
 6766SOL    HW226830   4.091   1.999   2.581  2.5720 -0.4665  0.2985
 6766SOL    HW326831   4.077   2.149   2.596  2.9816 -0.1625 -2.0065
 6766SOL    MW426832   4.088   2.070   2.631  1.0584  0.1370 -0.5695
 6767SOL     OW26833   3.427   0.759   2.323  0.1448 -0.4598  0.3402
 6767SOL    HW226834   3.459   0.785   2.237 -0.5366 -0.7455 -0.0069
 6767SOL    HW326835   3.344   0.805   2.333 -0.9589 -2.2298 -0.1793
 6767SOL    MW426836   3.420   0.768   2.313 -0.0907 -0.7311  0.2259
 6768SOL     OW26837   4.256   3.995   1.663 -0.3300  0.0144  0.0494
 6768SOL    HW226838   4.290   4.019   1.577 -0.9019  1.2378  0.1276
 6768SOL    HW326839   4.199   4.069   1.686 -1.7266 -1.1982  0.6112
 6768SOL    MW426840   4.253   4.008   1.654 -0.5897  0.0158  0.1338
 6769SOL     OW26841   3.138   6.227   2.443 -0.3317  0.5989 -0.2543
 6769SOL    HW226842   3.056   6.269   2.419 -0.2684  0.4459 -0.7545
 6769SOL    HW326843   3.112   6.147   2.490 -0.4600  0.7456 -0.0767
 6769SOL    MW426844   3.124   6.222   2.446 -0.3403  0.5981 -0.2969
 6770SOL     OW26845   4.848   4.176   2.762 -0.0125  0.3446  0.0847
 6770SOL    HW226846   4.768   4.123   2.763  0.2319 -0.0711  1.9223
 6770SOL    HW326847   4.910   4.125   2.710 -0.4525 -0.1240  0.0100
 6770SOL    MW426848   4.846   4.162   2.755 -0.0383  0.2279  0.3173
 6771SOL     OW26849   3.149   4.215   6.066  0.3820  0.4062 -0.1533
 6771SOL    HW226850   3.230   4.264   6.080  0.1631  0.7026  0.0707
 6771SOL    HW326851   3.168   4.127   6.100  0.2728  0.7574  0.8429
 6771SOL    MW426852   3.162   4.210   6.072  0.3387  0.4916  0.0077
 6772SOL     OW26853   1.169   2.056   3.991 -0.1033 -0.3088 -0.0860
 6772SOL    HW226854   1.179   2.058   3.896  1.0654 -1.1627  0.0005
 6772SOL    HW326855   1.079   2.086   4.006  0.5801  2.6807 -1.2631
 6772SOL    MW426856   1.159   2.060   3.981  0.1411 -0.0271 -0.2299
 6773SOL     OW26857   0.412   5.215   4.280  0.3753  0.1562  0.1457
 6773SOL    HW226858   0.437   5.141   4.336 -0.8458 -0.5912 -0.2469
 6773SOL    HW326859   0.321   5.233   4.304  0.0055  0.1723 -1.2030
 6773SOL    MW426860   0.403   5.208   4.291  0.1654  0.0597 -0.0841
 6774SOL     OW26861   6.353   1.042   2.601 -0.0454 -0.2830 -0.4802
 6774SOL    HW226862   6.435   1.004   2.566  0.8086  1.2402 -0.2098
 6774SOL    HW326863   6.356   1.133   2.573 -1.0915  0.0775  0.5574
 6774SOL    MW426864   6.364   1.049   2.593 -0.0707 -0.0345 -0.3076
 6775SOL     OW26865   0.045   5.741   2.541  0.4603 -0.1765 -1.1166
 6775SOL    HW226866   0.119   5.731   2.481  1.4249  2.8763 -0.6147
 6775SOL    HW326867   0.078   5.709   2.625  0.2149 -1.3966 -1.4630
 6775SOL    MW426868   0.059   5.736   2.544  0.5552  0.0653 -1.0961
 6776SOL     OW26869   5.434   0.525   4.538 -0.2175 -0.3893  0.7595
 6776SOL    HW226870   5.482   0.568   4.467 -1.3175 -0.7973 -0.2587
 6776SOL    HW326871   5.413   0.438   4.503 -0.2419 -0.8287  1.8292
 6776SOL    MW426872   5.438   0.519   4.524 -0.3659 -0.5011  0.7663
 6777SOL     OW26873   5.604   1.302   3.546 -0.1029  0.3561  0.4342
 6777SOL    HW226874   5.655   1.383   3.556  0.7185 -0.0877 -0.1286
 6777SOL    HW326875   5.614   1.257   3.630 -0.2240  0.6290  0.6002
 6777SOL    MW426876   5.612   1.307   3.558 -0.0105  0.3336  0.3818
 6778SOL     OW26877   4.838   4.697   3.882 -0.0703 -0.2682 -0.2963
 6778SOL    HW226878   4.886   4.721   3.803  0.5985  0.4530  0.3144
 6778SOL    HW326879   4.857   4.604   3.895  0.8095 -0.0979 -0.3114
 6778SOL    MW426880   4.847   4.688   3.873  0.1340 -0.1506 -0.2177
 6779SOL     OW26881   1.615   5.974   2.054 -0.0067 -0.1587 -0.6042
 6779SOL    HW226882   1.591   5.911   1.986 -0.4700 -2.8038  1.8030
 6779SOL    HW326883   1.695   5.939   2.091  2.1448  3.0584 -1.8294
 6779SOL    MW426884   1.622   5.961   2.050  0.2160 -0.0832 -0.4483
 6780SOL     OW26885   2.209   3.520   4.356 -0.1324  0.2809  0.2085
 6780SOL    HW226886   2.123   3.551   4.385  0.5223  1.0677  1.4265
 6780SOL    HW326887   2.218   3.433   4.395 -0.6705 -0.1201 -0.5461
 6780SOL    MW426888   2.199   3.513   4.365 -0.1170  0.3318  0.2697
 6781SOL     OW26889   1.079   3.393   4.064 -0.2498 -0.0223 -0.3676
 6781SOL    HW226890   1.020   3.392   3.988 -1.2392 -1.9196  0.3632
 6781SOL    HW326891   1.095   3.300   4.083  0.9214  0.4340  1.0417
 6781SOL    MW426892   1.073   3.380   4.056 -0.2258 -0.2124 -0.0853
 6782SOL     OW26893   4.653   0.659   1.345  0.7276 -0.0818 -0.3911
 6782SOL    HW226894   4.623   0.740   1.387  1.5556 -0.3363  0.7275
 6782SOL    HW326895   4.737   0.683   1.304  1.4111 -0.5588  0.6829
 6782SOL    MW426896   4.660   0.673   1.345  0.9270 -0.1783 -0.1018
 6783SOL     OW26897   1.425   0.180   4.216  0.2422 -0.5225  0.1627
 6783SOL    HW226898   1.456   0.112   4.156  2.4944  0.7139 -0.1788
 6783SOL    HW326899   1.379   0.243   4.160 -0.6760 -1.0726  0.2819
 6783SOL    MW426900   1.423   0.179   4.201  0.4182 -0.4319  0.1334
 6784SOL     OW26901   2.394   3.924   6.233  0.5778  0.0189  0.2346
 6784SOL    HW226902   2.438   4.002   6.268 -0.4330 -0.2101  2.1908
 6784SOL    HW326903   2.313   3.957   6.195  0.2699 -0.0311  0.8345
 6784SOL    MW426904   2.389   3.938   6.233  0.4038 -0.0179  0.5718
 6785SOL     OW26905   1.513   2.048   5.866 -0.0774  0.3464  0.0816
 6785SOL    HW226906   1.601   2.072   5.835  0.3345  0.7208  1.4394
 6785SOL    HW326907   1.495   1.963   5.827  0.7771  0.4006 -0.4425
 6785SOL    MW426908   1.522   2.040   5.857  0.0897  0.4030  0.1916
 6786SOL     OW26909   4.793   3.913   1.991 -0.4833 -0.3322 -0.0134
 6786SOL    HW226910   4.718   3.972   1.990  0.4167  0.8600  0.5025
 6786SOL    HW326911   4.842   3.939   2.069  1.5702  0.3594 -1.4689
 6786SOL    MW426912   4.789   3.924   2.001 -0.0936 -0.0837 -0.1374
 6787SOL     OW26913   4.816   5.248   4.612 -0.4616  0.0085 -0.1217
 6787SOL    HW226914   4.754   5.321   4.604  1.7503  1.7483 -2.7714
 6787SOL    HW326915   4.844   5.251   4.703 -1.3117  1.6891  0.1213
 6787SOL    MW426916   4.811   5.258   4.623 -0.2819  0.4598 -0.4392
 6788SOL     OW26917   3.467   5.937   4.853  0.3593  0.3913 -0.1234
 6788SOL    HW226918   3.418   5.885   4.917 -0.0568  3.2391  2.0474
 6788SOL    HW326919   3.400   5.985   4.805  0.8314  0.7419 -0.4382
 6788SOL    MW426920   3.452   5.936   4.855  0.3667  0.8133  0.1215
 6789SOL     OW26921   6.152   5.997   2.555 -0.2590 -0.2271 -0.9104
 6789SOL    HW226922   6.178   6.085   2.582 -1.6714  0.8560 -2.7768
 6789SOL    HW326923   6.105   5.962   2.630 -0.2752  0.9007 -0.3668
 6789SOL    MW426924   6.149   6.004   2.568 -0.4475  0.0646 -1.0849
 6790SOL     OW26925   0.595   1.038   2.963 -0.1831  0.2067 -0.3277
 6790SOL    HW226926   0.504   1.012   2.950 -0.1288  0.5863 -1.5338
 6790SOL    HW326927   0.645   0.987   2.899  0.1836  1.5836 -1.1806
 6790SOL    MW426928   0.590   1.028   2.953 -0.1275  0.4385 -0.5994
 6791SOL     OW26929   3.152   3.579   5.603 -0.2348  0.2178  0.7968
 6791SOL    HW226930   3.072   3.629   5.617  0.0151  0.8294  0.0901
 6791SOL    HW326931   3.213   3.641   5.562  0.0434 -0.6743 -0.1839
 6791SOL    MW426932   3.150   3.594   5.599 -0.1651  0.1808  0.5742
 6792SOL     OW26933   2.105   4.430   5.508 -0.1164  0.4125 -0.6390
 6792SOL    HW226934   2.044   4.381   5.453 -0.3067  1.3781 -1.2965
 6792SOL    HW326935   2.143   4.496   5.450  1.4663 -0.0761 -0.2120
 6792SOL    MW426936   2.102   4.432   5.493  0.0673  0.4754 -0.6694
 6793SOL     OW26937   3.453   4.571   4.289  0.2361  0.0521  0.2366
 6793SOL    HW226938   3.505   4.612   4.220 -0.4254  0.3169 -0.1172
 6793SOL    HW326939   3.487   4.607   4.371 -0.8993  2.0350 -0.0958
 6793SOL    MW426940   3.464   4.581   4.291 -0.0009  0.3487  0.1461
 6794SOL     OW26941   4.644   0.350   3.481  0.1410 -0.2602  0.4307
 6794SOL    HW226942   4.598   0.353   3.565  2.5562  1.8151  1.8405
 6794SOL    HW326943   4.703   0.275   3.489 -1.2248 -1.4561 -0.3964
 6794SOL    MW426944   4.646   0.341   3.493  0.2795 -0.1442  0.5076
 6795SOL     OW26945   3.862   2.471   2.214 -0.6086  0.6890 -0.5153
 6795SOL    HW226946   3.948   2.513   2.216  0.1233 -0.7704  0.0767
 6795SOL    HW326947   3.864   2.415   2.136 -0.8766  0.3603 -0.2872
 6795SOL    MW426948   3.874   2.469   2.204 -0.5474  0.4531 -0.4071
 6796SOL     OW26949   0.256   3.386   3.893  0.3163  0.2911  0.8300
 6796SOL    HW226950   0.304   3.436   3.960 -0.6732  0.8077  1.1641
 6796SOL    HW326951   0.209   3.453   3.843  1.0415 -0.0860 -0.4010
 6796SOL    MW426952   0.256   3.402   3.896  0.2814  0.3095  0.7117
 6797SOL     OW26953   0.470   1.360   3.523  0.1769 -0.0865  0.0807
 6797SOL    HW226954   0.378   1.337   3.522  0.1511  0.0053 -1.0079
 6797SOL    HW326955   0.471   1.456   3.518  0.3391 -0.1269 -0.6866
 6797SOL    MW426956   0.458   1.370   3.522  0.1949 -0.0797 -0.1642
 6798SOL     OW26957   0.748   5.050   2.789 -0.1785 -0.1231  0.3943
 6798SOL    HW226958   0.707   4.976   2.743 -0.9178 -0.7466  1.9817
 6798SOL    HW326959   0.682   5.078   2.852  0.2354  1.6981  0.0683
 6798SOL    MW426960   0.733   5.044   2.791 -0.2214  0.0349  0.5607
 6799SOL     OW26961   5.291   2.600   2.628 -0.3683  0.5636 -0.0480
 6799SOL    HW226962   5.327   2.643   2.550 -0.4008  2.3107  0.8450
 6799SOL    HW326963   5.200   2.582   2.606 -0.8800  2.6551  0.1412
 6799SOL    MW426964   5.284   2.603   2.615 -0.4401  1.0701  0.0948
 6800SOL     OW26965   4.408   1.498   3.488  0.2629 -0.4539 -0.4167
 6800SOL    HW226966   4.420   1.420   3.433 -0.7250 -0.0473 -1.2355
 6800SOL    HW326967   4.408   1.571   3.427  0.0334  0.0923  0.2219
 6800SOL    MW426968   4.410   1.497   3.473  0.1023 -0.3281 -0.4405
 6801SOL     OW26969   5.200   3.859   2.333 -0.5347  0.3646  0.1999
 6801SOL    HW226970   5.212   3.825   2.244 -0.5051 -0.0622  0.3648
 6801SOL    HW326971   5.107   3.844   2.352 -0.0232 -2.1001  1.2585
 6801SOL    MW426972   5.189   3.852   2.324 -0.4633 -0.0169  0.3613
 6802SOL     OW26973   1.287   1.953   0.864 -0.2231  0.5093 -0.0863
 6802SOL    HW226974   1.221   2.005   0.817 -1.3678 -0.4948  0.3755
 6802SOL    HW326975   1.365   1.957   0.808 -0.7181  1.5715 -0.7282
 6802SOL    MW426976   1.289   1.961   0.850 -0.4395  0.5170 -0.1101
 6803SOL     OW26977   1.132   4.502   0.098  0.4495  0.9185 -0.2219
 6803SOL    HW226978   1.102   4.413   0.115  0.7237  0.8925  0.1455
 6803SOL    HW326979   1.208   4.492   0.041  0.1774  0.9454 -0.5896
 6803SOL    MW426980   1.138   4.489   0.093  0.4498  0.9186 -0.2219
 6804SOL     OW26981   4.357   6.129   0.230  0.0465  0.2113  0.9172
 6804SOL    HW226982   4.271   6.171   0.224 -0.2123  0.0006  2.7471
 6804SOL    HW326983   4.380   6.109   0.139 -1.4391  1.0510  0.3233
 6804SOL    MW426984   4.349   6.132   0.217 -0.1837  0.2943  1.0803
 6805SOL     OW26985   0.883   3.811   2.391 -0.8389 -0.0195  0.2504
 6805SOL    HW226986   0.968   3.772   2.374 -0.7351  0.4273 -0.2684
 6805SOL    HW326987   0.836   3.807   2.308 -0.8970  0.7756  0.2354
 6805SOL    MW426988   0.888   3.805   2.378 -0.8328  0.1444  0.1800
 6806SOL     OW26989   5.277   1.426   0.162 -0.2044  1.3524 -0.1978
 6806SOL    HW226990   5.208   1.382   0.113  1.2852 -1.5575  0.0944
 6806SOL    HW326991   5.322   1.480   0.098 -0.4663  0.3735 -1.2222
 6806SOL    MW426992   5.274   1.428   0.147 -0.0424  0.8393 -0.2944
 6807SOL     OW26993   3.605   4.443   2.044 -0.1620 -0.1368 -0.7708
 6807SOL    HW226994   3.531   4.413   2.096  1.1168 -0.1882  1.1204
 6807SOL    HW326995   3.653   4.363   2.022  1.6112  0.0858  1.7323
 6807SOL    MW426996   3.602   4.429   2.048  0.2407 -0.1142 -0.1910
 6808SOL     OW26997   3.962   5.154   3.870  0.0201 -0.8624 -0.4205
 6808SOL    HW226998   3.877   5.146   3.827 -1.1930  0.2422  1.6138
 6808SOL    HW326999   3.955   5.232   3.925  1.6623 -1.8054  1.2848
 6808SOL    MW427000   3.950   5.163   3.872  0.0767 -0.8411  0.0729
 6809SOL     OW27001   0.010   2.338   5.641 -0.6556  0.1295  0.0517
 6809SOL    HW227002  -0.004   2.401   5.712 -1.3410 -0.5527  0.5399
 6809SOL    HW327003  -0.075   2.330   5.599 -0.7340 -0.9175  0.3802
 6809SOL    MW427004  -0.003   2.345   5.645 -0.7564 -0.0987  0.1594
 6810SOL     OW27005   6.251   0.237   6.119 -0.4485 -0.2143  0.5714
 6810SOL    HW227006   6.260   0.253   6.025 -1.7348  1.6523  0.7060
 6810SOL    HW327007   6.183   0.170   6.125 -0.3474 -0.3566  0.1568
 6810SOL    MW427008   6.243   0.231   6.107 -0.6048  0.0132  0.5344
 6811SOL     OW27009   5.199   4.932   3.218  0.0517  0.2227 -0.3379
 6811SOL    HW227010   5.153   4.852   3.192  0.7501  0.0710 -1.1663
 6811SOL    HW327011   5.226   4.971   3.135  1.1975  0.4333  0.1157
 6811SOL    MW427012   5.196   4.926   3.203  0.2950  0.2304 -0.3874
 6812SOL     OW27013   5.914   6.325   2.250 -0.0743  0.2585 -0.2449
 6812SOL    HW227014   5.981   6.257   2.253 -1.5981 -1.2885  1.4171
 6812SOL    HW327015   5.854   6.296   2.180  0.0928  0.7417 -0.5924
 6812SOL    MW427016   5.915   6.312   2.241 -0.2533  0.1181 -0.0715
 6813SOL     OW27017   2.024   4.872   1.492 -0.0194  0.0612 -0.6707
 6813SOL    HW227018   2.019   4.968   1.490 -1.1619  0.0538  0.6461
 6813SOL    HW327019   1.940   4.844   1.528  1.0868 -1.3322  0.9986
 6813SOL    MW427020   2.012   4.881   1.497 -0.0242 -0.1236 -0.2767
 6814SOL     OW27021   1.068   4.172   5.258 -0.1746  0.1830 -0.2971
 6814SOL    HW227022   0.996   4.176   5.196  0.0647  0.4558 -0.5598
 6814SOL    HW327023   1.103   4.261   5.260 -0.5192  0.3162  0.6317
 6814SOL    MW427024   1.063   4.185   5.250 -0.1885  0.2366 -0.2092
 6815SOL     OW27025   2.479   2.743   3.980 -0.4337  0.4342  0.0596
 6815SOL    HW227026   2.509   2.830   4.006  1.7309  0.5758 -2.4566
 6815SOL    HW327027   2.384   2.747   3.987 -0.3959  2.9755  0.0854
 6815SOL    MW427028   2.471   2.755   3.984 -0.1432  0.7882 -0.2690
 6816SOL     OW27029   3.895   6.291   5.146 -0.4032  0.4191  0.5955
 6816SOL    HW227030   3.851   6.223   5.196  1.0207 -1.2129 -0.2432
 6816SOL    HW327031   3.938   6.345   5.212  0.9049 -1.3076  1.2473
 6816SOL    MW427032   3.895   6.289   5.161 -0.0427 -0.0241  0.5709
 6817SOL     OW27033   5.629   4.359   0.897 -0.0046  0.1068  0.6759
 6817SOL    HW227034   5.563   4.425   0.918  1.9113  2.1875  0.4789
 6817SOL    HW327035   5.644   4.313   0.980 -0.1052  1.1273  1.2814
 6817SOL    MW427036   5.622   4.362   0.911  0.2349  0.5160  0.7298
 6818SOL     OW27037   1.760   4.567   5.183 -0.0670 -0.0086  0.0611
 6818SOL    HW227038   1.684   4.596   5.233  0.1649  1.7150 -0.5149
 6818SOL    HW327039   1.734   4.484   5.144 -1.0779 -0.2080  1.1323
 6818SOL    MW427040   1.747   4.560   5.185 -0.1698  0.1925  0.1264
 6819SOL     OW27041   4.853   3.089   5.902  0.2001  0.4699 -0.2365
 6819SOL    HW227042   4.922   3.035   5.863 -0.1226 -0.2669  0.1831
 6819SOL    HW327043   4.809   3.128   5.827 -1.3128 -2.0366 -0.7917
 6819SOL    MW427044   4.856   3.087   5.887 -0.0421  0.0420 -0.2544
 6820SOL     OW27045   3.285   3.933   3.579 -0.0924  0.7733 -0.0168
 6820SOL    HW227046   3.339   3.974   3.511 -2.2276  3.6555 -0.1327
 6820SOL    HW327047   3.240   4.006   3.622 -2.3800 -1.3095  1.4072
 6820SOL    MW427048   3.286   3.948   3.576 -0.6759  0.8788  0.1558
 6821SOL     OW27049   5.970   4.776   2.154 -0.3163  0.2786 -0.1820
 6821SOL    HW227050   6.005   4.835   2.088 -0.7967 -0.0890 -0.7802
 6821SOL    HW327051   5.975   4.689   2.113  0.1601 -0.0637  0.5880
 6821SOL    MW427052   5.975   4.772   2.140 -0.3168  0.1849 -0.1593
 6822SOL     OW27053   4.316   3.689   0.331  0.0791  0.1056 -0.2594
 6822SOL    HW227054   4.269   3.620   0.282  1.5584 -1.2720  0.1776
 6822SOL    HW327055   4.377   3.725   0.267 -0.6005  0.9492 -0.4470
 6822SOL    MW427056   4.318   3.684   0.316  0.1846  0.0352 -0.2265
 6823SOL     OW27057   5.148   0.848   0.240 -0.2885 -0.0235 -0.1926
 6823SOL    HW227058   5.121   0.938   0.219 -0.8073 -0.0817  0.2011
 6823SOL    HW327059   5.108   0.795   0.171 -0.5958 -0.0295 -0.0130
 6823SOL    MW427060   5.139   0.853   0.228 -0.3975 -0.0320 -0.1170
 6824SOL     OW27061   3.013   0.861   5.696  0.0354 -0.4051  0.5390
 6824SOL    HW227062   3.057   0.883   5.614 -0.0397 -2.0379  0.0182
 6824SOL    HW327063   3.021   0.939   5.750 -2.0992  1.6844 -1.9173
 6824SOL    MW427064   3.020   0.874   5.692 -0.2562 -0.3448  0.1462
 6825SOL     OW27065   0.735   5.858   0.119  1.2127  0.5377 -0.1344
 6825SOL    HW227066   0.799   5.860   0.048  1.5641 -1.3619  0.0824
 6825SOL    HW327067   0.772   5.799   0.184 -0.6872 -0.5638  0.0466
 6825SOL    MW427068   0.748   5.850   0.118  1.0084  0.1418 -0.0819
 6826SOL     OW27069   5.383   3.129   4.236  0.3725 -0.6824  0.0518
 6826SOL    HW227070   5.391   3.033   4.237 -0.6704 -0.7751  0.1719
 6826SOL    HW327071   5.334   3.150   4.315  2.4891  0.1637  1.2330
 6826SOL    MW427072   5.378   3.119   4.247  0.5141 -0.5830  0.2235
 6827SOL     OW27073   0.127   0.925   3.290  0.0848  0.0160 -0.0065
 6827SOL    HW227074   0.122   0.946   3.197  1.1754  2.1582  0.3497
 6827SOL    HW327075   0.215   0.887   3.301  1.7329  3.6426  0.7107
 6827SOL    MW427076   0.138   0.923   3.279  0.4462  0.7771  0.1351
 6828SOL     OW27077   1.582   3.899   2.095 -0.3031 -0.0290  0.2834
 6828SOL    HW227078   1.632   3.929   2.019  0.6282 -1.2951  0.3589
 6828SOL    HW327079   1.643   3.908   2.168 -1.7784  3.0065  1.3273
 6828SOL    MW427080   1.597   3.904   2.095 -0.3749  0.2044  0.4311
 6829SOL     OW27081   3.205   5.787   3.496 -0.2366  0.2733 -0.5432
 6829SOL    HW227082   3.120   5.815   3.529 -0.3340 -1.5201  0.9114
 6829SOL    HW327083   3.206   5.692   3.511  2.1254  0.2833 -0.2664
 6829SOL    MW427084   3.194   5.778   3.502  0.0622  0.0380 -0.3147
 6830SOL     OW27085   2.218   2.866   2.550  0.2190  0.6743 -0.1488
 6830SOL    HW227086   2.191   2.943   2.501 -2.1822 -1.1480 -1.9462
 6830SOL    HW327087   2.139   2.837   2.596  1.0649 -0.6786  0.5460
 6830SOL    MW427088   2.204   2.872   2.550  0.0138  0.2554 -0.2943
 6831SOL     OW27089   5.123   5.311   4.748  0.5307  0.0011 -0.0218
 6831SOL    HW227090   5.181   5.339   4.819  1.2657  0.8670 -0.9349
 6831SOL    HW327091   5.146   5.219   4.733 -0.8078 -0.7151  1.9584
 6831SOL    MW427092   5.134   5.303   4.755  0.4511  0.0208  0.1190
 6832SOL     OW27093   5.463   4.571   0.943  0.2919 -0.3842 -0.0240
 6832SOL    HW227094   5.466   4.619   1.026  4.2136 -1.9692  0.9518
 6832SOL    HW327095   5.489   4.635   0.877 -0.1990  0.2179  0.3562
 6832SOL    MW427096   5.467   4.586   0.945  0.7446 -0.5139  0.1549
 6833SOL     OW27097   3.541   0.491   5.215 -0.1366 -0.3062  0.3339
 6833SOL    HW227098   3.469   0.505   5.277  0.3604 -0.5177  0.9750
 6833SOL    HW327099   3.585   0.576   5.210 -0.8966  0.0501 -0.6860
 6833SOL    MW427100   3.537   0.504   5.223 -0.1713 -0.2871  0.2839
 6834SOL     OW27101   2.380   3.363   6.402  0.4539  0.7408 -0.3108
 6834SOL    HW227102   2.335   3.303   6.462 -0.1969  0.6156 -0.9083
 6834SOL    HW327103   2.470   3.365   6.434  0.1739  0.5081  0.5394
 6834SOL    MW427104   2.386   3.355   6.414  0.3311  0.6936 -0.2775
 6835SOL     OW27105   3.502   4.275   0.281  0.7039  0.0293 -0.3962
 6835SOL    HW227106   3.493   4.206   0.215  1.0047  1.3410 -1.8539
 6835SOL    HW327107   3.594   4.271   0.306  0.4301 -0.9619  0.5443
 6835SOL    MW427108   3.513   4.265   0.275  0.7074  0.0716 -0.4644
 6836SOL     OW27109   4.020   4.085   5.448  0.1520  0.2211  0.0055
 6836SOL    HW227110   4.091   4.096   5.512  0.8258  0.9134 -0.8342
 6836SOL    HW327111   4.059   4.031   5.380  0.1021  1.1541 -0.7791
 6836SOL    MW427112   4.035   4.079   5.448  0.2343  0.4356 -0.2088
 6837SOL     OW27113   5.533   2.323   6.171 -0.0820  1.0451  0.1860
 6837SOL    HW227114   5.522   2.229   6.154  1.4057  0.7654  0.7093
 6837SOL    HW327115   5.571   2.328   6.258  0.0256  2.1324  0.0902
 6837SOL    MW427116   5.536   2.311   6.180  0.1285  1.1516  0.2424
 6838SOL     OW27117   1.621   0.796   2.667 -0.5020  0.4292 -0.1662
 6838SOL    HW227118   1.616   0.837   2.754 -1.9066  1.2949 -0.6158
 6838SOL    HW327119   1.538   0.750   2.658  1.0707 -2.7778  0.3622
 6838SOL    MW427120   1.610   0.796   2.678 -0.4798  0.1203 -0.1558
 6839SOL     OW27121   2.187   2.402   4.666 -0.2911 -0.6078  0.0249
 6839SOL    HW227122   2.233   2.319   4.650 -0.9215 -0.8276 -0.7634
 6839SOL    HW327123   2.190   2.447   4.582  0.2238  0.2757  0.5037
 6839SOL    MW427124   2.193   2.397   4.653 -0.3063 -0.5203 -0.0159
 6840SOL     OW27125   4.073   5.262   0.935 -0.6425  0.5054 -0.1579
 6840SOL    HW227126   4.006   5.328   0.956 -0.6683  0.0322  1.3549
 6840SOL    HW327127   4.032   5.179   0.960  0.2184  0.1343  0.0224
 6840SOL    MW427128   4.059   5.260   0.941 -0.5323  0.3940  0.0655
 6841SOL     OW27129   3.166   5.568   4.878  0.0382 -0.2529 -0.1618
 6841SOL    HW227130   3.215   5.638   4.920  1.2357  0.4982 -2.5842
 6841SOL    HW327131   3.209   5.487   4.908  1.1014  0.2723 -0.2256
 6841SOL    MW427132   3.178   5.566   4.887  0.3365 -0.0845 -0.4898
 6842SOL     OW27133   0.743   4.050   2.674 -0.3606 -0.0891 -0.1069
 6842SOL    HW227134   0.768   4.141   2.691  0.3523  0.1135 -2.0488
 6842SOL    HW327135   0.816   3.998   2.709 -1.4013 -0.0895  2.3223
 6842SOL    MW427136   0.756   4.055   2.681 -0.4039 -0.0625 -0.0426
 6843SOL     OW27137   2.387   2.276   0.772  0.2729 -0.6150 -0.1141
 6843SOL    HW227138   2.375   2.197   0.824 -0.4892 -1.0117 -0.8873
 6843SOL    HW327139   2.382   2.248   0.681 -2.6641  0.6533 -0.4401
 6843SOL    MW427140   2.385   2.262   0.767 -0.2152 -0.5000 -0.2591
 6844SOL     OW27141   3.703   0.979   2.300  0.0514  0.8171  0.1891
 6844SOL    HW227142   3.619   1.007   2.337 -0.0466  2.2239 -1.0213
 6844SOL    HW327143   3.681   0.907   2.242 -0.2911  1.0236  0.0602
 6844SOL    MW427144   3.689   0.974   2.297 -0.0067  1.0299  0.0124
 6845SOL     OW27145   3.877   2.957   0.506 -0.0894  0.4134 -0.0532
 6845SOL    HW227146   3.866   2.955   0.410 -0.0151 -1.4174 -0.0566
 6845SOL    HW327147   3.864   2.866   0.533 -2.1430  1.2010  1.9298
 6845SOL    MW427148   3.874   2.945   0.497 -0.3505  0.2758  0.2080
 6846SOL     OW27149   5.429   2.671   3.046 -0.2654  0.4941 -0.0856
 6846SOL    HW227150   5.359   2.630   2.995 -0.2590  1.0367 -0.5348
 6846SOL    HW327151   5.408   2.650   3.137 -0.3205 -0.4148 -0.2991
 6846SOL    MW427152   5.417   2.663   3.051 -0.2718  0.4458 -0.1730
 6847SOL     OW27153   6.089   2.038   3.510 -0.3711 -0.3120 -0.3718
 6847SOL    HW227154   6.045   2.055   3.594 -2.0808  0.0929 -1.2953
 6847SOL    HW327155   6.086   1.942   3.501  0.5993 -0.4265  0.4130
 6847SOL    MW427156   6.083   2.027   3.520 -0.4686 -0.2737 -0.3901
 6848SOL     OW27157   2.457   5.147   0.027 -0.0224 -0.7487  0.6196
 6848SOL    HW227158   2.411   5.063   0.039 -1.2892  0.1889  2.9890
 6848SOL    HW327159   2.388   5.209   0.003  0.2448  0.2769  2.3049
 6848SOL    MW427160   2.442   5.144   0.026 -0.1543 -0.4897  1.1545
 6849SOL     OW27161   4.123   4.202   5.166 -0.5068  0.4387  0.4231
 6849SOL    HW227162   4.114   4.128   5.106  2.4496  0.7765 -0.6007
 6849SOL    HW327163   4.177   4.168   5.238 -2.3432  0.5993  1.9496
 6849SOL    MW427164   4.129   4.188   5.168 -0.3591  0.5045  0.4894
 6850SOL     OW27165   4.250   5.283   5.453 -0.4786 -0.3859 -0.2782
 6850SOL    HW227166   4.166   5.266   5.496  0.2277 -0.6419  1.0450
 6850SOL    HW327167   4.240   5.247   5.365 -2.2587  0.8827 -0.6697
 6850SOL    MW427168   4.238   5.276   5.447 -0.6203 -0.2523 -0.1553
 6851SOL     OW27169   0.069   4.800   1.120 -0.4649  0.4913 -0.4102
 6851SOL    HW227170   0.047   4.817   1.212 -3.2646  0.4395 -0.9846
 6851SOL    HW327171   0.050   4.882   1.075 -0.0132  0.2310 -1.0800
 6851SOL    MW427172   0.063   4.813   1.126 -0.7747  0.4501 -0.5743
 6852SOL     OW27173   4.145   1.312   2.002 -0.3497  0.5191  0.1983
 6852SOL    HW227174   4.127   1.380   1.937  0.0225  1.0003  0.5992
 6852SOL    HW327175   4.210   1.350   2.060  1.6049 -0.9956 -0.9018
 6852SOL    MW427176   4.151   1.326   2.001 -0.0427  0.3828  0.1061
 6853SOL     OW27177   6.098   1.253   5.482  0.1995  0.2505 -0.5241
 6853SOL    HW227178   6.178   1.231   5.530 -0.9221 -0.0290  1.3295
 6853SOL    HW327179   6.105   1.348   5.467  0.8980  0.2180 -0.4430
 6853SOL    MW427180   6.109   1.263   5.486  0.1437  0.2093 -0.2689
 6854SOL     OW27181   0.008   5.268   5.536  0.0569  0.0722 -0.1286
 6854SOL    HW227182   0.043   5.318   5.609  1.9056  0.2873 -1.0783
 6854SOL    HW327183   0.057   5.186   5.537 -2.4161 -1.5020  0.9641
 6854SOL    MW427184   0.019   5.264   5.546 -0.0255 -0.1071 -0.1098
 6855SOL     OW27185   3.686   1.147   1.808  0.3568  0.1206  0.0139
 6855SOL    HW227186   3.679   1.097   1.726 -0.7161 -0.1555  0.2582
 6855SOL    HW327187   3.716   1.083   1.873 -0.4311 -0.0857  0.1925
 6855SOL    MW427188   3.689   1.132   1.806  0.1113  0.0570  0.0697
 6856SOL     OW27189   4.179   4.922   5.298  0.0844  0.7111  0.7198
 6856SOL    HW227190   4.156   5.005   5.256 -1.5146  0.7077  1.5251
 6856SOL    HW327191   4.274   4.923   5.302  0.1725  1.7856 -0.7115
 6856SOL    MW427192   4.188   4.933   5.293 -0.1149  0.8524  0.6372
 6857SOL     OW27193   3.953   2.414   5.741  0.7539  0.0536  0.1977
 6857SOL    HW227194   3.908   2.497   5.726 -0.8387 -0.5431  1.3888
 6857SOL    HW327195   3.960   2.407   5.836 -0.9902 -2.0781  0.2396
 6857SOL    MW427196   3.948   2.424   5.751  0.3137 -0.3064  0.3604
 6858SOL     OW27197   3.939   0.403   2.766 -0.0588  0.1524  0.3579
 6858SOL    HW227198   3.996   0.388   2.691  1.1876  0.7711  1.1433
 6858SOL    HW327199   3.873   0.464   2.734  1.0037  1.1389 -0.0199
 6858SOL    MW427200   3.938   0.409   2.752  0.2458  0.3642  0.4117
 6859SOL     OW27201   0.333   6.198   1.993 -0.1003 -0.2771  0.0881
 6859SOL    HW227202   0.343   6.203   2.088 -0.1319 -0.3827  0.0966
 6859SOL    HW327203   0.315   6.106   1.975  1.8097 -0.6306 -0.2045
 6859SOL    MW427204   0.332   6.186   2.003  0.1475 -0.3377  0.0506
 6860SOL     OW27205   2.534   5.106   4.587 -0.1752  0.4410 -0.1426
 6860SOL    HW227206   2.454   5.071   4.627 -1.9692  2.1704 -2.0256
 6860SOL    HW327207   2.537   5.197   4.614  0.5301  0.6952 -1.0267
 6860SOL    MW427208   2.524   5.113   4.596 -0.3188  0.7027 -0.5077
 6861SOL     OW27209   2.280   2.476   2.891 -0.1581 -1.3126  0.4874
 6861SOL    HW227210   2.187   2.453   2.893 -0.0680 -1.6738  0.7422
 6861SOL    HW327211   2.302   2.481   2.798 -1.0237  1.3020  0.3491
 6861SOL    MW427212   2.271   2.473   2.879 -0.2604 -1.0153  0.5028
 6862SOL     OW27213   2.782   0.627   3.238  0.4260 -0.1340  0.1782
 6862SOL    HW227214   2.788   0.681   3.317  1.0031 -1.6497  1.2086
 6862SOL    HW327215   2.873   0.606   3.217  0.2860  0.3612 -0.9940
 6862SOL    MW427216   2.795   0.632   3.245  0.4837 -0.2687  0.1595
 6863SOL     OW27217   2.173   1.744   1.267  0.2926  0.7967  0.1119
 6863SOL    HW227218   2.249   1.775   1.217 -0.3202  0.3733 -1.1212
 6863SOL    HW327219   2.204   1.741   1.358  2.1149 -0.4845 -0.5013
 6863SOL    MW427220   2.187   1.748   1.272  0.4522  0.5718 -0.1317
 6864SOL     OW27221   3.681   0.484   2.342 -0.0385 -0.4490 -0.0815
 6864SOL    HW227222   3.603   0.479   2.397  0.5147  0.6661  0.8342
 6864SOL    HW327223   3.736   0.551   2.383  0.9206 -0.4310 -1.3238
 6864SOL    MW427224   3.678   0.492   2.355  0.1610 -0.2995 -0.1246
 6865SOL     OW27225   4.854   1.024   6.237 -0.3843  0.0329 -0.3260
 6865SOL    HW227226   4.948   1.010   6.237 -0.5663 -2.7527  3.2019
 6865SOL    HW327227   4.820   0.958   6.176 -0.1215 -0.2273 -0.1953
 6865SOL    MW427228   4.862   1.013   6.229 -0.3736 -0.3690  0.1567
 6866SOL     OW27229   4.790   4.925   4.470 -0.1960  0.1310 -0.4937
 6866SOL    HW227230   4.843   4.946   4.547 -1.5944 -2.5871  1.3610
 6866SOL    HW327231   4.714   4.983   4.477 -0.2675 -0.0290  0.1604
 6866SOL    MW427232   4.787   4.936   4.481 -0.3899 -0.2488 -0.1627
 6867SOL     OW27233   3.623   1.000   3.957 -0.1086  0.1333  0.4194
 6867SOL    HW227234   3.587   0.963   4.037 -0.7411  0.2636  0.2030
 6867SOL    HW327235   3.585   0.947   3.887 -1.4672  1.5097  0.0697
 6867SOL    MW427236   3.613   0.988   3.958 -0.3713  0.3321  0.3447
 6868SOL     OW27237   1.042   2.987   2.167  0.2415  0.8733 -0.0902
 6868SOL    HW227238   0.990   2.908   2.175  1.9946 -0.2069  1.5302
 6868SOL    HW327239   1.038   3.027   2.254 -0.4166  2.4907 -0.8103
 6868SOL    MW427240   1.035   2.982   2.179  0.3860  0.9442  0.0286
 6869SOL     OW27241   0.157   0.257   4.145  0.4657 -0.1768  0.1951
 6869SOL    HW227242   0.104   0.316   4.091 -0.4289 -0.4314  0.7607
 6869SOL    HW327243   0.234   0.309   4.168 -0.1597  0.6733  0.4253
 6869SOL    MW427244   0.160   0.272   4.141  0.2652 -0.0983  0.3001
 6870SOL     OW27245   0.410   2.500   4.572 -0.4959 -0.3498 -0.5981
 6870SOL    HW227246   0.350   2.550   4.516 -1.2155  0.7754  1.0802
 6870SOL    HW327247   0.496   2.511   4.531 -0.9702  0.6055 -1.3828
 6870SOL    MW427248   0.414   2.508   4.559 -0.6534 -0.0753 -0.4802
 6871SOL     OW27249   5.138   4.251   5.503  0.0674 -0.5622 -0.5746
 6871SOL    HW227250   5.062   4.285   5.456 -1.2251 -1.6898  0.6080
 6871SOL    HW327251   5.206   4.243   5.436 -0.3427  1.8997 -1.3601
 6871SOL    MW427252   5.137   4.254   5.488 -0.1572 -0.3862 -0.5222
 6872SOL     OW27253   4.398   5.950   0.921 -0.6167 -0.2698 -0.5986
 6872SOL    HW227254   4.416   6.041   0.901 -0.4094 -0.1352  0.1625
 6872SOL    HW327255   4.371   5.911   0.838  1.3431 -0.0381 -1.3899
 6872SOL    MW427256   4.397   5.957   0.908 -0.3308 -0.2215 -0.6026
 6873SOL     OW27257   1.948   1.500   2.101 -0.2581  0.0805  0.3140
 6873SOL    HW227258   1.974   1.498   2.193 -1.3734 -1.6625  0.6499
 6873SOL    HW327259   1.967   1.411   2.069 -0.6026  0.4323 -0.9151
 6873SOL    MW427260   1.954   1.488   2.109 -0.4507 -0.1030  0.1962
 6874SOL     OW27261   3.012   6.387   0.943  0.5839  0.2717 -0.2863
 6874SOL    HW227262   3.080   6.381   0.876 -0.8260 -0.9661 -1.6984
 6874SOL    HW327263   2.944   6.326   0.914 -0.7361  0.7768  1.5344
 6874SOL    MW427264   3.012   6.378   0.930  0.2237  0.1751 -0.2324
 6875SOL     OW27265   4.799   0.250   0.945  0.3892 -0.4815  0.2388
 6875SOL    HW227266   4.858   0.211   0.880  0.7820  0.0066  0.2979
 6875SOL    HW327267   4.839   0.335   0.965 -1.0922  0.4940 -0.7841
 6875SOL    MW427268   4.812   0.256   0.939  0.2456 -0.2884  0.1116
 6876SOL     OW27269   3.348   3.821   2.692 -0.0988  0.0340 -0.0541
 6876SOL    HW227270   3.329   3.727   2.693  2.1633 -0.4770 -0.3591
 6876SOL    HW327271   3.306   3.853   2.612 -0.2006 -0.8752 -0.3767
 6876SOL    MW427272   3.340   3.813   2.682  0.1862 -0.1534 -0.1369
 6877SOL     OW27273   3.368   3.137   1.268 -0.5592 -0.1914  0.1045
 6877SOL    HW227274   3.439   3.197   1.290 -0.4206  0.2498 -1.4210
 6877SOL    HW327275   3.410   3.069   1.215 -1.0301 -0.7160  0.3933
 6877SOL    MW427276   3.383   3.136   1.264 -0.6030 -0.2024 -0.0587
 6878SOL     OW27277   1.195   2.730   3.557  0.0744  0.1377 -0.3285
 6878SOL    HW227278   1.140   2.808   3.568 -0.1075 -0.2433  2.0251
 6878SOL    HW327279   1.159   2.667   3.619  1.3396 -1.1966 -0.8986
 6878SOL    MW427280   1.183   2.732   3.567  0.2173 -0.0886 -0.0932
 6879SOL     OW27281   5.545   5.152   5.678 -0.4067  0.3928  0.1237
 6879SOL    HW227282   5.487   5.158   5.754 -0.1580  0.6668  0.2954
 6879SOL    HW327283   5.632   5.170   5.713 -0.2097 -0.0357 -0.1284
 6879SOL    MW427284   5.549   5.155   5.693 -0.3479  0.3724  0.1131
 6880SOL     OW27285   2.152   0.797   0.414  0.0013 -0.1712 -0.5411
 6880SOL    HW227286   2.147   0.702   0.413  0.4223 -0.2528  1.3844
 6880SOL    HW327287   2.084   0.825   0.474  1.7550  0.5245  1.2389
 6880SOL    MW427288   2.143   0.788   0.421  0.2883 -0.0902 -0.0522
 6881SOL     OW27289   3.190   4.275   3.315  0.1564  0.3289 -0.1412
 6881SOL    HW227290   3.165   4.360   3.280  0.6177  0.4541 -0.1739
 6881SOL    HW327291   3.235   4.295   3.397 -0.4660  0.0664  0.2717
 6881SOL    MW427292   3.192   4.289   3.322  0.1351  0.3108 -0.0910
 6882SOL     OW27293   5.195   4.686   5.418  0.4501  0.1075 -0.7197
 6882SOL    HW227294   5.204   4.772   5.376 -0.2587 -0.5726 -2.3364
 6882SOL    HW327295   5.270   4.636   5.387  1.6696  0.5208  1.3506
 6882SOL    MW427296   5.206   4.691   5.408  0.5175  0.0723 -0.6599
 6883SOL     OW27297   0.753   0.862   2.327  0.0323 -0.0391  0.2502
 6883SOL    HW227298   0.775   0.817   2.245  1.9995  0.4308  0.4846
 6883SOL    HW327299   0.698   0.935   2.300 -1.1474 -1.1059 -0.3884
 6883SOL    MW427300   0.749   0.865   2.313  0.1362 -0.1179  0.1969
 6884SOL     OW27301   2.701   0.054   0.916  0.0007 -0.6157  0.5427
 6884SOL    HW227302   2.607   0.036   0.919 -0.8400  2.6421 -1.5028
 6884SOL    HW327303   2.722   0.089   1.003 -0.3460 -2.4031  1.3868
 6884SOL    MW427304   2.692   0.056   0.928 -0.1559 -0.4217  0.3841
 6885SOL     OW27305   2.870   2.163   4.253 -0.1303  0.5607 -0.2783
 6885SOL    HW227306   2.838   2.205   4.333  0.2672  1.4060 -0.5533
 6885SOL    HW327307   2.900   2.077   4.282  1.9178  1.5875  0.8983
 6885SOL    MW427308   2.870   2.158   4.267  0.1924  0.8077 -0.1594
 6886SOL     OW27309   1.012   3.601   0.264  0.5963 -0.3416 -0.7331
 6886SOL    HW227310   0.992   3.511   0.237  0.2191 -0.2701 -0.6939
 6886SOL    HW327311   0.928   3.646   0.262  0.0003 -0.9925  3.2315
 6886SOL    MW427312   0.999   3.595   0.260  0.4679 -0.4181 -0.2048
 6887SOL     OW27313   1.567   3.997   4.385  0.0856  0.1147 -0.2264
 6887SOL    HW227314   1.513   3.932   4.432  1.0642 -1.6043 -1.3548
 6887SOL    HW327315   1.531   4.081   4.410 -1.3698 -0.8724  1.1880
 6887SOL    MW427316   1.555   3.999   4.395  0.0227 -0.2424 -0.1887
 6888SOL     OW27317   1.814   1.875   5.249  0.4755  0.1039 -0.3936
 6888SOL    HW227318   1.898   1.852   5.209  1.8704  1.5564  1.5308
 6888SOL    HW327319   1.802   1.968   5.226  1.0084  0.7929  1.8737
 6888SOL    MW427320   1.824   1.885   5.241  0.7299  0.3865  0.1594
 6889SOL     OW27321   0.121   4.136   2.117  0.5231  0.2662 -0.2126
 6889SOL    HW227322   0.044   4.143   2.173 -0.1109  1.5115 -1.2195
 6889SOL    HW327323   0.192   4.116   2.178 -0.3877  0.2129  0.8660
 6889SOL    MW427324   0.120   4.134   2.133  0.3193  0.4235 -0.2031
 6890SOL     OW27325   4.329   0.741   4.873 -0.1676 -0.1716  0.3092
 6890SOL    HW227326   4.292   0.661   4.835  1.9578 -0.7119 -0.7190
 6890SOL    HW327327   4.356   0.793   4.798  1.3304  0.1081  1.0229
 6890SOL    MW427328   4.327   0.738   4.858  0.3105 -0.2060  0.2677
 6891SOL     OW27329   4.916   5.640   1.392  0.6362 -0.0319  0.2766
 6891SOL    HW227330   4.847   5.639   1.459  1.7842 -0.9373  1.5185
 6891SOL    HW327331   4.872   5.612   1.312 -0.3226 -1.3786  1.2092
 6891SOL    MW427332   4.901   5.636   1.391  0.6612 -0.3290  0.5635
 6892SOL     OW27333   2.997   2.620   5.726  0.6186 -0.5309  0.0264
 6892SOL    HW227334   2.907   2.587   5.735  0.4999 -0.1299  0.3679
 6892SOL    HW327335   3.010   2.629   5.632  0.1045 -0.0771 -0.0082
 6892SOL    MW427336   2.987   2.617   5.715  0.5351 -0.4182  0.0669
 6893SOL     OW27337   1.404   5.155   4.600  0.4454  0.0957 -0.0477
 6893SOL    HW227338   1.377   5.070   4.568 -0.1411 -0.0714  0.8730
 6893SOL    HW327339   1.497   5.161   4.575  0.1641 -0.2401 -1.2689
 6893SOL    MW427340   1.413   5.145   4.592  0.3309  0.0294 -0.0873
 6894SOL     OW27341   4.046   3.627   2.873  0.0247  0.5178  0.1894
 6894SOL    HW227342   4.035   3.608   2.966  0.5175  0.3371  0.2151
 6894SOL    HW327343   4.131   3.590   2.851 -0.1412  0.4547 -0.3638
 6894SOL    MW427344   4.056   3.620   2.882  0.0678  0.4856  0.1198
 6895SOL     OW27345   5.999   3.097   6.048 -0.0990 -0.0889  1.3351
 6895SOL    HW227346   5.967   3.007   6.035  0.6961 -0.4578  1.8768
 6895SOL    HW327347   6.081   3.087   6.096  0.1817  0.9161  1.0925
 6895SOL    MW427348   6.005   3.084   6.053  0.0430 -0.0050  1.3746
 6896SOL     OW27349   1.781   3.315   2.159  0.5570 -0.1789  0.6707
 6896SOL    HW227350   1.819   3.300   2.072  0.2469  0.0258  0.4971
 6896SOL    HW327351   1.795   3.408   2.175 -2.7287  0.6908 -0.8174
 6896SOL    MW427352   1.788   3.325   2.150  0.0826 -0.0371  0.4515
 6897SOL     OW27353   3.439   5.070   6.020 -0.3701  0.5034  0.1324
 6897SOL    HW227354   3.373   5.022   5.969  0.7814 -1.9383  0.8255
 6897SOL    HW327355   3.496   5.003   6.056  1.7509  2.4555  0.6680
 6897SOL    MW427356   3.438   5.055   6.018  0.0616  0.4388  0.2945
 6898SOL     OW27357   3.704   1.872   4.697  0.3180 -0.6669  0.8197
 6898SOL    HW227358   3.736   1.868   4.787  1.0880 -0.0270  0.5860
 6898SOL    HW327359   3.725   1.786   4.660  3.0442  0.1147  0.2824
 6898SOL    MW427360   3.711   1.860   4.704  0.7793 -0.4794  0.7180
 6899SOL     OW27361   1.495   2.799   3.914  0.5131  0.2130 -0.3296
 6899SOL    HW227362   1.462   2.747   3.840 -1.6592  1.4341 -0.3270
 6899SOL    HW327363   1.468   2.750   3.991  0.1335  0.4004 -0.3405
 6899SOL    MW427364   1.487   2.786   3.914  0.1764  0.3988 -0.3307
 6900SOL     OW27365   3.087   0.203   5.455  0.5626 -0.0293 -0.2993
 6900SOL    HW227366   3.030   0.253   5.514  0.2953 -0.5021 -0.1503
 6900SOL    HW327367   3.116   0.129   5.507  0.6541 -0.2338 -0.6377
 6900SOL    MW427368   3.083   0.200   5.470  0.5394 -0.1186 -0.3243
 6901SOL     OW27369   4.432   4.052   2.572 -0.4006  0.1937  0.2410
 6901SOL    HW227370   4.378   4.044   2.651 -2.0230  0.5638 -0.7907
 6901SOL    HW327371   4.468   4.140   2.577 -2.5206  1.1793 -0.6053
 6901SOL    MW427372   4.429   4.062   2.583 -0.8944  0.3726 -0.0068
 6902SOL     OW27373   2.977   1.017   5.246  0.1246  0.5104  0.3615
 6902SOL    HW227374   3.006   0.976   5.165 -0.4123 -0.6586  0.7479
 6902SOL    HW327375   2.972   1.110   5.225  1.2964  0.3923 -0.5511
 6902SOL    MW427376   2.981   1.024   5.233  0.2084  0.3406  0.2921
 6903SOL     OW27377   2.361   5.449   1.658  0.0339 -0.0884 -0.2336
 6903SOL    HW227378   2.298   5.457   1.729  1.5115 -1.3578  1.3109
 6903SOL    HW327379   2.366   5.355   1.641 -0.4547  0.2023 -2.2191
 6903SOL    MW427380   2.354   5.437   1.665  0.1644 -0.2175 -0.2918
 6904SOL     OW27381   2.538   0.837   3.909 -0.1133 -0.8130 -0.1688
 6904SOL    HW227382   2.605   0.905   3.914  0.0746 -1.0912  1.4424
 6904SOL    HW327383   2.477   0.868   3.842  1.7073 -0.6546 -1.8401
 6904SOL    MW427384   2.538   0.850   3.901  0.1517 -0.8288 -0.1768
 6905SOL     OW27385   2.222   4.383   6.014 -0.0128  0.1316  0.1925
 6905SOL    HW227386   2.232   4.466   5.968 -1.0599  0.3154  0.2810
 6905SOL    HW327387   2.181   4.325   5.951 -1.9874  0.5478  1.0229
 6905SOL    MW427388   2.218   4.386   6.000 -0.4115  0.2108  0.3137
 6906SOL     OW27389   3.998   0.525   5.043  0.6256 -0.8708  0.5928
 6906SOL    HW227390   4.087   0.551   5.067  1.1623  0.4580 -2.3212
 6906SOL    HW327391   4.010   0.459   4.975 -0.5530 -0.0110 -0.4989
 6906SOL    MW427392   4.012   0.520   5.037  0.5409 -0.5820  0.0643
 6907SOL     OW27393   2.992   5.452   3.979  0.2193 -0.2822  0.3823
 6907SOL    HW227394   3.058   5.521   3.977 -0.4827  0.4047  0.0784
 6907SOL    HW327395   2.926   5.480   3.915 -0.2937 -1.0178  0.5702
 6907SOL    MW427396   2.992   5.465   3.970  0.0590 -0.2886  0.3670
 6908SOL     OW27397   2.246   1.132   4.840 -0.5121  0.0043  0.0596
 6908SOL    HW227398   2.275   1.041   4.838 -1.4688 -0.3291  0.7197
 6908SOL    HW327399   2.180   1.135   4.909 -0.8341  1.0984 -0.2688
 6908SOL    MW427400   2.241   1.120   4.849 -0.6808  0.1046  0.1034
 6909SOL     OW27401   6.394   5.909   2.244  0.4351  0.2169 -0.5739
 6909SOL    HW227402   6.416   5.987   2.295  0.6496  0.6775 -1.3518
 6909SOL    HW327403   6.363   5.846   2.309  0.2416  0.9528  0.0626
 6909SOL    MW427404   6.393   5.911   2.259  0.4379  0.3748 -0.5925
 6910SOL     OW27405   0.097   0.678   3.521 -0.2377 -0.2805  1.0011
 6910SOL    HW227406   0.188   0.689   3.547 -0.2982  1.5265  0.5987
 6910SOL    HW327407   0.100   0.627   3.440  0.3462 -0.8052  1.3456
 6910SOL    MW427408   0.109   0.673   3.513 -0.1687 -0.1113  0.9935
 6911SOL     OW27409   1.939   2.304   1.657 -0.4898  0.1946 -0.2573
 6911SOL    HW227410   1.886   2.368   1.705 -0.0181  0.3041  0.1289
 6911SOL    HW327411   1.898   2.298   1.571 -2.8560 -1.8391  0.8845
 6911SOL    MW427412   1.927   2.312   1.652 -0.7398 -0.0593 -0.0557
 6912SOL     OW27413   5.701   1.295   2.182  0.0194  0.4442 -0.0495
 6912SOL    HW227414   5.638   1.349   2.230 -0.7879 -1.7957  1.5412
 6912SOL    HW327415   5.785   1.312   2.226  0.0345  1.3052 -0.3812
 6912SOL    MW427416   5.704   1.305   2.194 -0.0851  0.2623  0.1166
 6913SOL     OW27417   2.172   0.823   1.296  0.5172 -0.2053 -0.2487
 6913SOL    HW227418   2.189   0.773   1.376  1.9679  0.7697  0.0937
 6913SOL    HW327419   2.132   0.904   1.326 -3.0013 -1.5353 -0.8960
 6913SOL    MW427420   2.169   0.827   1.310  0.2444 -0.2521 -0.2889
 6914SOL     OW27421   5.402   4.920   3.618 -0.1627 -0.6769  0.3629
 6914SOL    HW227422   5.389   4.952   3.529  1.3631 -0.2237  0.2747
 6914SOL    HW327423   5.340   4.971   3.671  2.4394  2.9864  0.2973
 6914SOL    MW427424   5.392   4.931   3.613  0.3819 -0.1337  0.3426
 6915SOL     OW27425   1.286   0.197   1.592  0.1331  0.4029  0.3353
 6915SOL    HW227426   1.279   0.261   1.663 -1.1916  0.3793  0.2485
 6915SOL    HW327427   1.288   0.251   1.513 -1.4234  0.3461  0.2370
 6915SOL    MW427428   1.285   0.213   1.591 -0.2471  0.3923  0.3109
 6916SOL     OW27429   4.726   5.467   4.305  0.0740  0.2840 -0.7435
 6916SOL    HW227430   4.796   5.402   4.313  0.6676  0.9746 -0.1788
 6916SOL    HW327431   4.645   5.417   4.312  0.5233 -0.3008  0.6276
 6916SOL    MW427432   4.724   5.452   4.307  0.2116  0.2980 -0.4881
 6917SOL     OW27433   2.426   4.866   0.073 -0.7329  0.3745 -0.2014
 6917SOL    HW227434   2.334   4.873   0.097 -0.3199 -0.4349  1.8077
 6917SOL    HW327435   2.450   4.777   0.095  1.1153  1.2449  1.6058
 6917SOL    MW427436   2.417   4.855   0.079 -0.4346  0.3825  0.3021
 6918SOL     OW27437   5.920   1.402   4.773 -0.8179  0.0490 -0.6999
 6918SOL    HW227438   5.994   1.360   4.728  0.1728  0.1882  0.7508
 6918SOL    HW327439   5.935   1.495   4.759  0.8798  0.2547  1.8733
 6918SOL    MW427440   5.932   1.409   4.765 -0.4632  0.0945 -0.1690
 6919SOL     OW27441   3.499   5.146   4.133 -0.1989 -0.1132 -0.0717
 6919SOL    HW227442   3.448   5.182   4.061 -0.2110 -1.7846 -0.9444
 6919SOL    HW327443   3.453   5.066   4.158 -0.1766  0.3992  1.8019
 6919SOL    MW427444   3.486   5.140   4.127 -0.1975 -0.2661  0.0603
 6920SOL     OW27445   2.990   2.258   2.965 -0.8636  0.0303  0.2141
 6920SOL    HW227446   2.922   2.313   2.925 -0.4647 -0.0859 -0.6480
 6920SOL    HW327447   3.072   2.292   2.930 -0.4474  0.2817  1.3863
 6920SOL    MW427448   2.991   2.269   2.955 -0.7561  0.0482  0.2550
 6921SOL     OW27449   0.192   5.074   5.608 -0.5903 -0.4570  0.3371
 6921SOL    HW227450   0.227   4.986   5.596  2.0210  0.4885  0.4586
 6921SOL    HW327451   0.245   5.112   5.678  0.6213  2.3061 -1.9020
 6921SOL    MW427452   0.203   5.067   5.616 -0.0859  0.0323  0.0577
 6922SOL     OW27453   3.944   5.875   3.442  0.1684 -0.1354  0.3098
 6922SOL    HW227454   3.920   5.898   3.532  0.9625 -0.5758  0.6436
 6922SOL    HW327455   3.882   5.807   3.417 -1.9888  2.0386 -0.5658
 6922SOL    MW427456   3.933   5.869   3.451 -0.0115  0.0933  0.2383
 6923SOL     OW27457   0.572   2.787   4.006  0.7243 -0.1323  0.3479
 6923SOL    HW227458   0.647   2.847   4.008  1.4215 -0.9272 -0.6570
 6923SOL    HW327459   0.512   2.827   3.944  1.0602 -0.3135 -0.1016
 6923SOL    MW427460   0.574   2.800   3.998  0.8606 -0.2611  0.1560
 6924SOL     OW27461   6.039   5.410   5.709 -0.0157 -0.3017 -0.2171
 6924SOL    HW227462   6.034   5.414   5.613 -0.4223 -0.9488 -0.2263
 6924SOL    HW327463   6.133   5.408   5.728  0.0819  0.7266 -0.5585
 6924SOL    MW427464   6.051   5.410   5.699 -0.0564 -0.2514 -0.2634
 6925SOL     OW27465   2.136   2.231   3.500  0.0267  0.3645  0.3578
 6925SOL    HW227466   2.061   2.277   3.538  0.6224  0.1437  1.8666
 6925SOL    HW327467   2.163   2.285   3.427 -2.2221 -0.0627 -0.8823
 6925SOL    MW427468   2.130   2.244   3.496 -0.1914  0.2790  0.3933
 6926SOL     OW27469   0.317   4.228   4.881  0.5049  0.1010  0.6795
 6926SOL    HW227470   0.384   4.291   4.857  0.3035  0.2616  0.5340
 6926SOL    HW327471   0.309   4.171   4.804  1.3131 -0.6563  1.1320
 6926SOL    MW427472   0.325   4.229   4.868  0.5849  0.0223  0.7200
 6927SOL     OW27473   6.207   5.757   3.183  0.0310 -0.0241  0.6111
 6927SOL    HW227474   6.247   5.682   3.140 -0.7046 -0.8532  1.3372
 6927SOL    HW327475   6.198   5.823   3.113  2.0550 -0.0181  0.3042
 6927SOL    MW427476   6.211   5.756   3.168  0.2010 -0.1327  0.6664
 6928SOL     OW27477   4.771   1.385   3.344 -0.0400 -0.5165 -0.0992
 6928SOL    HW227478   4.747   1.464   3.392 -0.7955 -0.5851 -0.3486
 6928SOL    HW327479   4.737   1.313   3.397  0.7020 -0.6896  0.1593
 6928SOL    MW427480   4.763   1.386   3.357 -0.0418 -0.5484 -0.0980
 6929SOL     OW27481   3.665   4.204   3.251 -0.2014  0.2289  0.7608
 6929SOL    HW227482   3.723   4.246   3.314  1.2857  0.3359 -0.6159
 6929SOL    HW327483   3.604   4.274   3.224  0.8809  0.9404  0.0891
 6929SOL    MW427484   3.664   4.219   3.255  0.1376  0.3369  0.4906
 6930SOL     OW27485   4.736   4.300   1.511 -0.0791 -0.3909 -0.1930
 6930SOL    HW227486   4.758   4.378   1.460 -1.2147 -0.7960 -1.3570
 6930SOL    HW327487   4.778   4.314   1.595  0.9531  0.8079 -0.8696
 6930SOL    MW427488   4.744   4.312   1.515 -0.0927 -0.2862 -0.4358
 6931SOL     OW27489   4.572   0.850   1.557  0.4556 -0.2077 -0.2067
 6931SOL    HW227490   4.569   0.941   1.587  0.0453 -0.3244  0.1223
 6931SOL    HW327491   4.623   0.804   1.623 -0.5697 -0.4926  0.4132
 6931SOL    MW427492   4.578   0.856   1.570  0.2662 -0.2607 -0.0815
 6932SOL     OW27493   2.091   5.332   5.289 -0.3591 -0.5695  0.2512
 6932SOL    HW227494   2.056   5.337   5.378  1.8172  0.1000  1.1110
 6932SOL    HW327495   2.180   5.364   5.296 -0.1544 -0.4448 -2.2102
 6932SOL    MW427496   2.098   5.337   5.302 -0.0449 -0.4647  0.0399
 6933SOL     OW27497   0.602   1.472   0.521 -0.2782  0.0315 -0.2632
 6933SOL    HW227498   0.671   1.518   0.569 -1.2125 -0.1424  1.3473
 6933SOL    HW327499   0.597   1.517   0.437 -1.0755  2.8767  1.1585
 6933SOL    MW427500   0.610   1.484   0.516 -0.5066  0.3839  0.1369
 6934SOL     OW27501   1.627   3.606   1.638 -0.4201 -0.3995 -0.2012
 6934SOL    HW227502   1.579   3.634   1.716  0.9274 -1.9058  1.2817
 6934SOL    HW327503   1.579   3.530   1.606 -0.4103 -0.3955 -0.2260
 6934SOL    MW427504   1.614   3.599   1.644 -0.2411 -0.5977 -0.0088
 6935SOL     OW27505   4.671   1.069   1.901 -0.0125 -0.7105 -0.2956
 6935SOL    HW227506   4.709   1.056   1.814 -0.6200  0.2247 -0.7207
 6935SOL    HW327507   4.585   1.106   1.885 -0.0564 -0.3291  0.7118
 6935SOL    MW427508   4.665   1.072   1.888 -0.0985 -0.5368 -0.2188
 6936SOL     OW27509   1.365   1.157   3.777  0.0326 -0.5360 -0.5640
 6936SOL    HW227510   1.373   1.244   3.738  0.4762 -0.9411 -1.4203
 6936SOL    HW327511   1.455   1.123   3.777 -0.1211 -0.9415 -0.1206
 6936SOL    MW427512   1.378   1.164   3.772  0.0708 -0.6429 -0.6185
 6937SOL     OW27513   5.121   3.435   2.555 -0.0592  0.2084  0.3725
 6937SOL    HW227514   5.155   3.398   2.637 -0.4523  1.5910  1.1855
 6937SOL    HW327515   5.139   3.529   2.562  0.4730  0.2743 -1.4213
 6937SOL    MW427516   5.128   3.443   2.567 -0.0409  0.3995  0.2431
 6938SOL     OW27517   1.579   2.431   3.234  0.1377 -0.0801 -0.2015
 6938SOL    HW227518   1.532   2.436   3.318 -0.0492  0.0622 -0.3140
 6938SOL    HW327519   1.671   2.444   3.258  0.2313 -1.2623  0.1305
 6938SOL    MW427520   1.585   2.433   3.248  0.1254 -0.2173 -0.1726
 6939SOL     OW27521   3.646   4.565   3.265  0.1527 -0.1583 -0.0361
 6939SOL    HW227522   3.715   4.590   3.203  0.7470  1.8557  1.3389
 6939SOL    HW327523   3.674   4.603   3.348 -0.9872 -2.1483  1.3408
 6939SOL    MW427524   3.659   4.573   3.268  0.0807 -0.1551  0.3269
 6940SOL     OW27525   5.967   4.784   5.206  0.0899 -0.0923  0.0713
 6940SOL    HW227526   6.028   4.815   5.138  0.2931  0.5894  0.5533
 6940SOL    HW327527   5.893   4.749   5.157  0.6216 -0.4251 -0.5211
 6940SOL    MW427528   5.966   4.784   5.190  0.1868 -0.0462  0.0567
 6941SOL     OW27529   1.684   0.264   0.658 -0.1608 -0.1080 -0.0709
 6941SOL    HW227530   1.623   0.190   0.666 -0.1022  0.0372  2.3198
 6941SOL    HW327531   1.707   0.265   0.565 -1.3736 -2.1109 -0.4675
 6941SOL    MW427532   1.679   0.254   0.646 -0.3131 -0.3531  0.1922
 6942SOL     OW27533   3.411   4.879   4.211 -0.3103 -0.5994  0.4385
 6942SOL    HW227534   3.380   4.817   4.145  0.1607 -1.3215  0.8856
 6942SOL    HW327535   3.332   4.923   4.241 -0.4793  0.1420 -0.9937
 6942SOL    MW427536   3.397   4.877   4.206 -0.2705 -0.5969  0.3086
 6943SOL     OW27537   0.556   0.005   3.753  0.5800  0.2870  0.7080
 6943SOL    HW227538   0.512  -0.019   3.671  2.5288 -0.3662 -0.1913
 6943SOL    HW327539   0.560  -0.077   3.803  1.7100  0.0980  0.3210
 6943SOL    MW427540   0.550  -0.009   3.749  0.9862  0.1759  0.5383
 6944SOL     OW27541   0.746   3.410   1.111  0.2640  0.3420  0.5150
 6944SOL    HW227542   0.804   3.359   1.054 -1.2384  1.0765 -1.8634
 6944SOL    HW327543   0.663   3.362   1.110 -0.2845  1.2575  0.6527
 6944SOL    MW427544   0.742   3.397   1.103 -0.0066  0.5597  0.2194
 6945SOL     OW27545   0.174   4.629   5.081 -0.1075  0.4971  0.3604
 6945SOL    HW227546   0.189   4.541   5.117 -0.1979 -0.0366 -0.8255
 6945SOL    HW327547   0.210   4.624   4.992 -0.1481  1.6602  0.2671
 6945SOL    MW427548   0.181   4.616   5.074 -0.1248  0.5801  0.1917
 6946SOL     OW27549   2.644   5.915   0.757 -0.6187 -0.0089 -0.3522
 6946SOL    HW227550   2.577   5.958   0.811 -0.4198  1.1334 -0.9828
 6946SOL    HW327551   2.621   5.822   0.760 -0.9198  0.0758  1.2572
 6946SOL    MW427552   2.632   5.909   0.765 -0.6322  0.1530 -0.2231
 6947SOL     OW27553   1.362   5.172   1.382  0.2341 -0.0767  0.4587
 6947SOL    HW227554   1.336   5.142   1.469 -0.3913 -0.8009  0.0360
 6947SOL    HW327555   1.457   5.158   1.379  0.2677  0.0093  1.0387
 6947SOL    MW427556   1.371   5.166   1.393  0.1560 -0.1609  0.4795
 6948SOL     OW27557   3.074   3.814   3.390  0.1286 -0.7637  0.2926
 6948SOL    HW227558   3.127   3.850   3.461 -0.7800 -0.8980  1.0656
 6948SOL    HW327559   3.009   3.881   3.372  0.3661 -0.7225 -0.4419
 6948SOL    MW427560   3.072   3.827   3.397  0.0401 -0.7760  0.2977
 6949SOL     OW27561   1.818   3.029   5.213 -0.2518 -0.0263 -0.1597
 6949SOL    HW227562   1.790   2.943   5.244  1.5312  0.2456  2.5002
 6949SOL    HW327563   1.775   3.090   5.273  0.0177  0.8265 -0.8269
 6949SOL    MW427564   1.808   3.026   5.225  0.0190  0.1221  0.1032
 6950SOL     OW27565   4.873   1.835   4.823 -0.0427  0.4918 -0.3800
 6950SOL    HW227566   4.780   1.828   4.847 -0.4565  0.0126 -2.0216
 6950SOL    HW327567   4.914   1.877   4.899 -0.9456 -2.4208  1.9211
 6950SOL    MW427568   4.866   1.840   4.836 -0.2164  0.0443 -0.2930
 6951SOL     OW27569   5.384   4.070   4.246  0.2785  0.0491  0.0654
 6951SOL    HW227570   5.333   4.096   4.323  1.8630  0.5044  1.0162
 6951SOL    HW327571   5.444   4.003   4.279  0.9760  0.2458 -0.7635
 6951SOL    MW427572   5.385   4.065   4.261  0.5796  0.1351  0.0815
 6952SOL     OW27573   5.112   6.288   4.031  0.0168  0.0847  1.0005
 6952SOL    HW227574   5.115   6.192   4.036 -0.2168 -0.1969 -2.2719
 6952SOL    HW327575   5.204   6.314   4.030  0.1050 -0.2350  0.4503
 6952SOL    MW427576   5.124   6.279   4.032 -0.0024  0.0054  0.4961
 6953SOL     OW27577   1.231   3.702   1.348  0.4849 -0.5420  0.5310
 6953SOL    HW227578   1.308   3.746   1.384  0.0116  0.9711 -0.2241
 6953SOL    HW327579   1.193   3.655   1.422  1.5900 -0.5195  1.1321
 6953SOL    MW427580   1.236   3.702   1.362  0.5683 -0.3394  0.5107
 6954SOL     OW27581   4.411   2.822   4.189  0.7441 -0.7805 -0.1039
 6954SOL    HW227582   4.357   2.871   4.251  1.0161 -2.4208  1.4962
 6954SOL    HW327583   4.496   2.867   4.189  0.6055 -0.5201  0.3851
 6954SOL    MW427584   4.415   2.835   4.197  0.7617 -0.9625  0.1717
 6955SOL     OW27585   1.111   4.486   1.282 -0.0117  0.0245  0.6411
 6955SOL    HW227586   1.175   4.558   1.282 -0.9024  0.8636  2.2398
 6955SOL    HW327587   1.093   4.471   1.189  0.9133  1.2178  0.2331
 6955SOL    MW427588   1.117   4.494   1.270 -0.0071  0.2926  0.7982
 6956SOL     OW27589   2.334   5.545   3.197 -0.2385  0.1379  0.0527
 6956SOL    HW227590   2.314   5.634   3.225 -0.0525  0.8381 -1.8910
 6956SOL    HW327591   2.256   5.515   3.151 -0.3634 -0.7804  0.8379
 6956SOL    MW427592   2.321   5.553   3.195 -0.2304  0.1091 -0.1001
 6957SOL     OW27593   3.445   1.533   4.220 -0.4349 -0.4085 -0.0572
 6957SOL    HW227594   3.413   1.607   4.272  0.4025  0.0151 -0.1401
 6957SOL    HW327595   3.471   1.572   4.136 -2.0800 -1.1231 -0.9700
 6957SOL    MW427596   3.444   1.548   4.216 -0.5415 -0.4469 -0.1886
 6958SOL     OW27597   0.560   5.452   6.155  0.4904  0.4266  0.2369
 6958SOL    HW227598   0.623   5.414   6.094 -1.3581  0.0836 -1.5826
 6958SOL    HW327599   0.569   5.547   6.143  0.6825  0.3792  0.0034
 6958SOL    MW427600   0.569   5.459   6.145  0.2719  0.3751 -0.0340
 6959SOL     OW27601   4.025   3.772   6.430  0.0317  0.1684 -0.5215
 6959SOL    HW227602   4.036   3.697   6.487  0.3983 -0.4669 -1.4091
 6959SOL    HW327603   4.104   3.824   6.443 -1.1641  1.6011  1.7509
 6959SOL    MW427604   4.037   3.769   6.439 -0.0777  0.2736 -0.3388
 6960SOL     OW27605   3.648   4.841   5.758  0.1663  0.1577 -0.1562
 6960SOL    HW227606   3.622   4.876   5.673 -0.1733 -0.1542 -0.1828
 6960SOL    HW327607   3.635   4.747   5.751  0.8016  0.0503  0.0125
 6960SOL    MW427608   3.643   4.834   5.746  0.2053  0.1024 -0.1374
 6961SOL     OW27609   6.255   1.005   2.909  0.0332 -0.0549  0.0856
 6961SOL    HW227610   6.341   0.986   2.946  0.0554 -2.6693 -1.0850
 6961SOL    HW327611   6.273   1.025   2.817 -0.5088  0.9797  0.1854
 6961SOL    MW427612   6.269   1.005   2.902 -0.0353 -0.2633 -0.0557
 6962SOL     OW27613   5.585   3.874   4.357 -0.3858  0.4896  0.1334
 6962SOL    HW227614   5.671   3.837   4.339 -0.6110  0.4209 -0.8573
 6962SOL    HW327615   5.601   3.943   4.422  0.3071  0.0065  0.4837
 6962SOL    MW427616   5.598   3.878   4.363 -0.3241  0.4168  0.0489
 6963SOL     OW27617   5.424   3.174   2.427 -0.3888 -0.4518 -0.3896
 6963SOL    HW227618   5.380   3.114   2.487 -1.2928 -1.0655 -1.6242
 6963SOL    HW327619   5.353   3.227   2.390  0.1717  0.0425 -0.7762
 6963SOL    MW427620   5.409   3.173   2.430 -0.4341 -0.4676 -0.6035
 6964SOL     OW27621   1.590   3.369   0.667 -0.2368 -0.8403 -0.0614
 6964SOL    HW227622   1.549   3.282   0.666 -0.6540 -0.6679  0.7459
 6964SOL    HW327623   1.524   3.426   0.705  0.6258 -0.4934  0.9912
 6964SOL    MW427624   1.576   3.365   0.672 -0.1780 -0.7718  0.1840
 6965SOL     OW27625   2.941   3.674   4.721  0.7008 -0.5770 -0.5793
 6965SOL    HW227626   3.011   3.739   4.725 -0.0571  0.2517 -0.4369
 6965SOL    HW327627   2.871   3.717   4.671 -0.7727 -0.3227  1.5532
 6965SOL    MW427628   2.941   3.688   4.715  0.4064 -0.4341 -0.2792
 6966SOL     OW27629   0.545   0.259   3.391  0.3322  0.0780  0.5372
 6966SOL    HW227630   0.519   0.173   3.425  0.6955 -0.3142 -0.1614
 6966SOL    HW327631   0.634   0.271   3.422  0.5504 -0.1382  0.0016
 6966SOL    MW427632   0.553   0.249   3.400  0.4089 -0.0023  0.3744
 6967SOL     OW27633   3.170   5.675   1.334 -0.0994 -0.1841 -0.2238
 6967SOL    HW227634   3.193   5.668   1.242 -0.4283 -2.5035 -0.1991
 6967SOL    HW327635   3.084   5.633   1.340  0.6332 -1.5672  1.3654
 6967SOL    MW427636   3.162   5.668   1.323 -0.0462 -0.6726 -0.0108
 6968SOL     OW27637   4.907   1.225   5.079  0.3262  0.0789 -0.3471
 6968SOL    HW227638   4.944   1.199   4.994 -0.7493  0.4456 -0.9572
 6968SOL    HW327639   4.902   1.320   5.075  1.2805  0.1800  0.5864
 6968SOL    MW427640   4.911   1.234   5.067  0.3102  0.1406 -0.3045
 6969SOL     OW27641   4.345   4.710   2.633 -0.1899 -0.3957  0.0166
 6969SOL    HW227642   4.335   4.617   2.653 -2.2890 -0.9820 -3.0477
 6969SOL    HW327643   4.366   4.713   2.540 -1.4318  2.2062 -0.2847
 6969SOL    MW427644   4.347   4.698   2.623 -0.6307 -0.1298 -0.4275
 6970SOL     OW27645   2.172   3.687   5.573  0.1152 -0.4204  0.2267
 6970SOL    HW227646   2.229   3.676   5.497 -0.3139 -0.7454 -0.0540
 6970SOL    HW327647   2.232   3.691   5.648  0.4718 -1.5031  0.0103
 6970SOL    MW427648   2.187   3.686   5.573  0.1057 -0.6062  0.1611
 6971SOL     OW27649   5.644   4.774   3.070 -0.4588  0.0955 -0.2808
 6971SOL    HW227650   5.565   4.828   3.061 -0.2067  0.4015 -0.7056
 6971SOL    HW327651   5.692   4.789   2.988  1.2783  1.8914  0.9996
 6971SOL    MW427652   5.640   4.783   3.058 -0.1963  0.3728 -0.1679
 6972SOL     OW27653   1.110   4.376   5.527  0.1490 -0.7649 -0.4095
 6972SOL    HW227654   1.141   4.394   5.438  1.3667 -1.0899 -0.0750
 6972SOL    HW327655   1.186   4.339   5.571  0.4078  1.8685  1.5537
 6972SOL    MW427656   1.124   4.373   5.521  0.3438 -0.4604 -0.1063
 6973SOL     OW27657   2.245   2.120   5.709  0.3938  0.1773  0.2560
 6973SOL    HW227658   2.298   2.053   5.753 -1.3609 -0.3496  1.6789
 6973SOL    HW327659   2.210   2.174   5.780  0.4332  1.6090 -0.7703
 6973SOL    MW427660   2.248   2.118   5.724  0.1675  0.2967  0.3083
 6974SOL     OW27661   2.014   4.675   5.184 -0.3759  0.9503  0.4726
 6974SOL    HW227662   1.936   4.620   5.189  1.4041 -1.6574  2.4996
 6974SOL    HW327663   1.989   4.756   5.228 -1.3213 -0.8134  3.4969
 6974SOL    MW427664   2.000   4.678   5.190 -0.2658  0.3736  1.1391
 6975SOL     OW27665   4.287   3.504   1.814 -0.1823 -0.1517  0.1458
 6975SOL    HW227666   4.239   3.484   1.895  0.3236 -2.1771 -0.0032
 6975SOL    HW327667   4.378   3.506   1.841  0.1309 -2.2854 -0.5614
 6975SOL    MW427668   4.292   3.502   1.829 -0.0742 -0.7004  0.0329
 6976SOL     OW27669   4.875   3.887   0.243 -0.4136  0.3543 -0.5213
 6976SOL    HW227670   4.935   3.832   0.194  2.2217  1.8668  0.7778
 6976SOL    HW327671   4.856   3.960   0.184 -1.7781 -0.5636 -1.2647
 6976SOL    MW427672   4.880   3.890   0.229 -0.2459  0.4328 -0.4480
 6977SOL     OW27673   0.361   0.119   3.152 -0.1248 -0.2136  0.3600
 6977SOL    HW227674   0.291   0.061   3.180 -1.3070  0.8386 -0.3231
 6977SOL    HW327675   0.318   0.202   3.132  1.5189  0.9341  1.3220
 6977SOL    MW427676   0.346   0.123   3.153 -0.0639  0.0767  0.3968
 6978SOL     OW27677   5.424   5.561   5.164 -0.8744  0.1771 -0.3559
 6978SOL    HW227678   5.479   5.504   5.217 -2.3933 -0.0823  1.0160
 6978SOL    HW327679   5.454   5.650   5.186  0.3227 -0.0114 -1.1663
 6978SOL    MW427680   5.435   5.565   5.174 -0.9168  0.1180 -0.2818
 6979SOL     OW27681   6.258   5.178   0.166 -0.0520 -0.1815 -0.4226
 6979SOL    HW227682   6.220   5.192   0.253  1.5642 -0.9527  0.4427
 6979SOL    HW327683   6.327   5.114   0.180  0.7404  0.2420 -2.1598
 6979SOL    MW427684   6.262   5.172   0.180  0.2658 -0.2274 -0.5377
 6980SOL     OW27685   2.804   2.823   0.314  0.1996  0.1671 -0.0525
 6980SOL    HW227686   2.798   2.890   0.246 -3.6331 -0.2840 -0.4056
 6980SOL    HW327687   2.817   2.741   0.265  0.5451  0.1690  0.0323
 6980SOL    MW427688   2.805   2.821   0.298 -0.2605  0.1078 -0.0879
 6981SOL     OW27689   5.311   5.853   4.500  0.0888 -0.5259 -0.4316
 6981SOL    HW227690   5.218   5.848   4.477 -0.1004 -0.0656  0.1981
 6981SOL    HW327691   5.321   5.787   4.569 -0.8034  2.3476  2.7143
 6981SOL    MW427692   5.300   5.843   4.506 -0.0539 -0.0861  0.0666
 6982SOL     OW27693   3.397   4.327   1.285 -0.7208 -0.5181  0.0368
 6982SOL    HW227694   3.374   4.305   1.195  0.7888 -0.8851 -0.2822
 6982SOL    HW327695   3.318   4.305   1.335 -1.8376  0.3460 -1.2545
 6982SOL    MW427696   3.383   4.321   1.280 -0.6690 -0.4525 -0.1756
 6983SOL     OW27697   0.731   6.010   2.955  0.4630  0.2368  0.1802
 6983SOL    HW227698   0.770   5.948   3.016 -2.3657 -1.8526  0.0610
 6983SOL    HW327699   0.738   5.967   2.869 -0.1334  0.8218 -0.1715
 6983SOL    MW427700   0.737   5.996   2.951  0.0111  0.0383  0.1180
 6984SOL     OW27701   1.374   3.903   0.069 -0.6241 -0.0411 -0.2342
 6984SOL    HW227702   1.463   3.937   0.059 -0.6331 -0.3295 -1.4547
 6984SOL    HW327703   1.325   3.976   0.106 -0.3435  0.8622 -1.5684
 6984SOL    MW427704   1.379   3.917   0.073 -0.5883  0.0400 -0.5713
 6985SOL     OW27705   5.388   3.931   3.983 -0.4211 -0.1290 -0.2667
 6985SOL    HW227706   5.446   3.978   3.924  0.2622 -1.3295 -0.5799
 6985SOL    HW327707   5.391   3.981   4.065  3.6448 -1.7950  0.8570
 6985SOL    MW427708   5.396   3.944   3.986  0.2055 -0.5072 -0.1598
 6986SOL     OW27709   5.835   4.904   3.241  0.0186 -0.1320 -0.4643
 6986SOL    HW227710   5.781   4.854   3.181  1.1795 -0.0701 -1.6010
 6986SOL    HW327711   5.815   4.868   3.328 -1.9399  0.0176 -0.8098
 6986SOL    MW427712   5.825   4.893   3.245 -0.0866 -0.1041 -0.6598
 6987SOL     OW27713   0.185   5.824   5.831 -0.0138 -0.2906  0.9033
 6987SOL    HW227714   0.201   5.809   5.738  2.4998  0.0259  1.1937
 6987SOL    HW327715   0.098   5.863   5.835 -0.1192 -0.1780 -1.3253
 6987SOL    MW427716   0.176   5.827   5.820  0.3039 -0.2340  0.6475
 6988SOL     OW27717   3.226   6.034   4.222  0.1067  0.6143  0.1598
 6988SOL    HW227718   3.197   6.124   4.235  1.3337  0.9940  0.4233
 6988SOL    HW327719   3.322   6.040   4.217  0.1885 -0.6283 -0.1988
 6988SOL    MW427720   3.235   6.047   4.223  0.2794  0.5004  0.1473
 6989SOL     OW27721   2.272   3.171   3.623 -0.0151 -0.0278  0.2677
 6989SOL    HW227722   2.176   3.172   3.618  0.0231  1.1540 -0.6041
 6989SOL    HW327723   2.291   3.132   3.708 -1.3430  1.6422  1.4118
 6989SOL    MW427724   2.262   3.166   3.634 -0.1853  0.3484  0.3037
 6990SOL     OW27725   0.825   4.180   3.267 -0.1367  0.4623  0.1652
 6990SOL    HW227726   0.791   4.213   3.350 -0.2841  1.7111 -0.3782
 6990SOL    HW327727   0.919   4.198   3.271 -0.3175  1.6269 -0.4155
 6990SOL    MW427728   0.833   4.187   3.279 -0.1800  0.7807  0.0169
 6991SOL     OW27729   5.567   3.190   6.121 -0.1388  0.4662  0.1808
 6991SOL    HW227730   5.656   3.197   6.153 -0.3893  1.9143  0.6410
 6991SOL    HW327731   5.514   3.236   6.186 -1.1992 -0.1925 -0.1876
 6991SOL    MW427732   5.571   3.197   6.134 -0.3118  0.5703  0.1929
 6992SOL     OW27733   0.670   2.347   4.426 -0.3754 -0.3121 -0.9088
 6992SOL    HW227734   0.713   2.374   4.344 -1.2595  1.1356 -0.9215
 6992SOL    HW327735   0.743   2.332   4.486  0.2538 -0.5583 -1.7060
 6992SOL    MW427736   0.686   2.349   4.423 -0.4090 -0.1536 -1.0157
 6993SOL     OW27737   5.133   5.730   5.167  0.2465  0.2335 -0.2511
 6993SOL    HW227738   5.158   5.819   5.192 -0.0695  0.1667  0.3195
 6993SOL    HW327739   5.043   5.739   5.135 -0.1331 -0.0188  0.7056
 6993SOL    MW427740   5.124   5.743   5.166  0.1548  0.1914 -0.0496
 6994SOL     OW27741   0.040   4.528   3.361  0.0531 -0.1025 -0.3621
 6994SOL    HW227742  -0.043   4.575   3.376 -0.8561 -1.8465  0.3168
 6994SOL    HW327743   0.013   4.438   3.342  1.8268 -0.8740  0.6132
 6994SOL    MW427744   0.025   4.523   3.360  0.1671 -0.4344 -0.1438
 6995SOL     OW27745   2.029   5.603   1.682  0.6466  0.1950  0.3456
 6995SOL    HW227746   2.086   5.658   1.628  0.1375  1.2642  0.8602
 6995SOL    HW327747   2.088   5.540   1.722  1.3676  0.8321  0.3224
 6995SOL    MW427748   2.044   5.602   1.680  0.6746  0.4201  0.4104
 6996SOL     OW27749   5.904   2.501   6.303 -0.0627  0.5610  0.2190
 6996SOL    HW227750   5.892   2.591   6.332 -1.3024 -0.1344  2.1150
 6996SOL    HW327751   5.837   2.488   6.235 -0.5073  0.8297  0.5968
 6996SOL    MW427752   5.893   2.511   6.298 -0.2849  0.5047  0.5190
 6997SOL     OW27753   4.801   2.237   4.256  0.1581  0.1754 -0.7910
 6997SOL    HW227754   4.735   2.302   4.278  1.4768  1.6076 -0.8929
 6997SOL    HW327755   4.768   2.194   4.177 -2.3738 -1.7617  1.1458
 6997SOL    MW427756   4.788   2.240   4.248 -0.0020  0.1088 -0.5489
 6998SOL     OW27757   5.992   2.132   4.892 -0.0979  0.7341  0.2618
 6998SOL    HW227758   6.042   2.212   4.910 -1.3400  1.5651  0.1551
 6998SOL    HW327759   5.908   2.163   4.859 -1.1415 -0.5763  1.5529
 6998SOL    MW427760   5.988   2.147   4.890 -0.3995  0.6708  0.4180
 6999SOL     OW27761   5.621   5.720   1.156  0.2857  0.0443 -0.7350
 6999SOL    HW227762   5.580   5.796   1.196 -0.4142 -1.6135  1.9554
 6999SOL    HW327763   5.562   5.696   1.085 -1.2567  0.1507  0.4560
 6999SOL    MW427764   5.608   5.727   1.152 -0.0102 -0.1604 -0.2229
 7000SOL     OW27765   0.758   1.711   0.814 -0.5771  1.5162  0.2032
 7000SOL    HW227766   0.806   1.642   0.859  1.5172  0.9283 -2.6674
 7000SOL    HW327767   0.815   1.788   0.819 -0.3472  1.4735 -1.2073
 7000SOL    MW427768   0.772   1.712   0.820 -0.2705  1.4330 -0.3616
 7001SOL     OW27769   3.288   3.069   5.575  0.5870  0.1240  0.1877
 7001SOL    HW227770   3.309   2.987   5.618  0.0316 -0.7985 -1.2238
 7001SOL    HW327771   3.248   3.123   5.644 -1.3494 -1.7165  0.6152
 7001SOL    MW427772   3.285   3.065   5.590  0.2583 -0.2405  0.0578
 7002SOL     OW27773   1.187   1.169   4.008 -0.2269  0.7741 -0.3194
 7002SOL    HW227774   1.109   1.170   3.952 -0.5164 -1.7699 -0.0758
 7002SOL    HW327775   1.260   1.154   3.948 -0.1809  0.9535 -0.3098
 7002SOL    MW427776   1.186   1.167   3.993 -0.2591  0.4621 -0.2860
 7003SOL     OW27777   2.524   2.142   2.520 -0.2438  0.2048 -0.1132
 7003SOL    HW227778   2.479   2.132   2.605  1.4609 -1.9656  0.6148
 7003SOL    HW327779   2.474   2.087   2.460 -0.8805  0.9862 -0.3252
 7003SOL    MW427780   2.511   2.133   2.524 -0.1029  0.0215 -0.0451
 7004SOL     OW27781   1.737   4.676   3.634  0.8386  0.4800  0.6846
 7004SOL    HW227782   1.785   4.619   3.574  0.3981  0.5445  0.2652
 7004SOL    HW327783   1.782   4.666   3.718  0.3009 -1.0794  0.8109
 7004SOL    MW427784   1.749   4.667   3.637  0.7095  0.2828  0.6460
 7005SOL     OW27785   2.343   4.325   3.252  0.0957 -0.0728 -0.0893
 7005SOL    HW227786   2.389   4.409   3.250 -1.1092  0.6014 -0.1467
 7005SOL    HW327787   2.413   4.260   3.262  0.8919  1.0471  2.2555
 7005SOL    MW427788   2.358   4.327   3.253  0.0417  0.1639  0.2125
 7006SOL     OW27789   2.577   6.422   4.540 -0.5416  0.0771  0.3737
 7006SOL    HW227790   2.517   6.354   4.509 -0.1972 -0.3758  0.6770
 7006SOL    HW327791   2.612   6.461   4.461  0.1855 -0.9330  0.1799
 7006SOL    MW427792   2.573   6.418   4.526 -0.4002 -0.1159  0.3881
 7007SOL     OW27793   1.012   3.355   1.645 -0.1913  0.4692  0.4177
 7007SOL    HW227794   0.926   3.396   1.647 -0.0329  0.8263  0.0869
 7007SOL    HW327795   1.036   3.344   1.737 -0.7087  0.1019  0.5174
 7007SOL    MW427796   1.004   3.359   1.658 -0.2387  0.4678  0.3872
 7008SOL     OW27797   0.401   0.352   2.541  0.4913 -0.4806 -0.2267
 7008SOL    HW227798   0.462   0.366   2.468  1.8429  1.7950  1.2279
 7008SOL    HW327799   0.327   0.306   2.501  2.0802 -1.2236 -2.5690
 7008SOL    MW427800   0.399   0.347   2.526  0.8793 -0.2784 -0.3438
 7009SOL     OW27801   2.331   2.276   1.960 -0.5236  0.6560  0.2188
 7009SOL    HW227802   2.319   2.250   1.868  2.7140  0.0691 -0.1347
 7009SOL    HW327803   2.384   2.356   1.955  0.5455  0.0573  1.5707
 7009SOL    MW427804   2.336   2.283   1.947  0.0446  0.4996  0.3505
 7010SOL     OW27805   1.858   4.335   4.315 -0.8411 -0.3702  0.3668
 7010SOL    HW227806   1.922   4.406   4.316 -0.6675 -0.4304 -1.8457
 7010SOL    HW327807   1.910   4.256   4.300 -1.3644 -0.4306 -1.3254
 7010SOL    MW427808   1.873   4.334   4.313 -0.8873 -0.3861 -0.1484
 7011SOL     OW27809   2.430   0.007   2.687 -0.6645  0.0837  0.0673
 7011SOL    HW227810   2.523   0.005   2.667 -0.8900 -0.7773 -0.9337
 7011SOL    HW327811   2.424   0.064   2.764  0.6814  0.1177  0.1718
 7011SOL    MW427812   2.441   0.014   2.695 -0.5167 -0.0254 -0.0509
 7012SOL     OW27813   1.534   5.987   6.300  0.3489  0.3281  0.5532
 7012SOL    HW227814   1.471   6.041   6.347 -1.2421 -2.0883  1.3934
 7012SOL    HW327815   1.592   5.953   6.369 -0.4818 -1.2713  0.5205
 7012SOL    MW427816   1.533   5.989   6.316  0.0294 -0.2017  0.6597
 7013SOL     OW27817   6.058   3.457   0.314  0.2580  0.5038  0.2138
 7013SOL    HW227818   6.054   3.468   0.409  1.0341 -0.6077  0.3998
 7013SOL    HW327819   6.084   3.543   0.281  1.3390  0.5506  1.1333
 7013SOL    MW427820   6.061   3.469   0.322  0.5031  0.3633  0.3596
 7014SOL     OW27821   5.627   2.645   1.325  0.2882 -0.1202  0.1373
 7014SOL    HW227822   5.642   2.674   1.415  0.4532  0.4065 -0.0601
 7014SOL    HW327823   5.616   2.726   1.275 -1.8654 -0.4077  0.0343
 7014SOL    MW427824   5.627   2.660   1.330  0.0259 -0.0886  0.0976
 7015SOL     OW27825   0.198   2.047   1.920 -0.1491 -0.0498  0.1657
 7015SOL    HW227826   0.232   2.035   2.009 -1.1314 -2.8693  0.2414
 7015SOL    HW327827   0.271   2.025   1.863 -0.0041  0.1602  0.2664
 7015SOL    MW427828   0.212   2.043   1.925 -0.2596 -0.3941  0.1889
 7016SOL     OW27829   3.822   4.448   4.972  0.6023  0.1375  0.1493
 7016SOL    HW227830   3.914   4.471   4.983  0.7648  0.1118 -0.9787
 7016SOL    HW327831   3.814   4.427   4.879 -0.8006  1.2773 -0.0194
 7016SOL    MW427832   3.833   4.448   4.961  0.4387  0.2844 -0.0218
 7017SOL     OW27833   3.159   5.945   2.276 -0.6111  0.1065  0.2561
 7017SOL    HW227834   3.247   5.979   2.263 -1.5246  1.9601 -1.4966
 7017SOL    HW327835   3.143   5.956   2.369  1.7954 -2.4381  1.1144
 7017SOL    MW427836   3.169   5.951   2.286 -0.4141  0.0153  0.1381
 7018SOL     OW27837   0.339   3.286   2.233  0.0834 -0.3253  0.0182
 7018SOL    HW227838   0.355   3.343   2.309  1.0636  0.0036 -0.4216
 7018SOL    HW327839   0.265   3.327   2.188  0.5672  0.4252 -0.1117
 7018SOL    MW427840   0.331   3.299   2.237  0.2766 -0.1829 -0.0570
 7019SOL     OW27841   5.642   2.648   5.669 -0.1428 -0.2333 -0.3520
 7019SOL    HW227842   5.681   2.715   5.613 -0.3950 -0.8011 -1.2315
 7019SOL    HW327843   5.660   2.565   5.624  0.7002 -0.8329  1.0231
 7019SOL    MW427844   5.650   2.646   5.655 -0.0649 -0.3874 -0.2866
 7020SOL     OW27845   3.830   6.302   1.252  0.3870 -0.1300 -0.4444
 7020SOL    HW227846   3.903   6.252   1.288  0.5765  1.4221  1.5562
 7020SOL    HW327847   3.849   6.393   1.276 -0.9216  0.6610 -2.1582
 7020SOL    MW427848   3.842   6.308   1.260  0.2393  0.1791 -0.4065
 7021SOL     OW27849   5.563   4.147   6.408  0.1799 -0.1106 -0.2217
 7021SOL    HW227850   5.652   4.182   6.398  0.0671 -0.2247 -1.9785
 7021SOL    HW327851   5.523   4.203   6.474  1.8008 -0.6041  1.2800
 7021SOL    MW427852   5.570   4.159   6.415  0.3789 -0.1907 -0.2554
 7022SOL     OW27853   3.976   1.401   4.740  0.0283  0.5164  0.1470
 7022SOL    HW227854   4.041   1.420   4.673  0.4262  1.6096  0.8106
 7022SOL    HW327855   3.900   1.454   4.716 -0.6649 -0.8213 -0.6723
 7022SOL    MW427856   3.975   1.411   4.728 -0.0107  0.4841  0.1265
 7023SOL     OW27857   2.124   2.321   0.406 -0.2191  0.3797 -0.0832
 7023SOL    HW227858   2.088   2.409   0.410 -0.5662  0.2615 -0.5264
 7023SOL    HW327859   2.158   2.312   0.317  2.4261  1.0578  0.7568
 7023SOL    MW427860   2.124   2.331   0.395  0.0841  0.4536 -0.0309
 7024SOL     OW27861   6.166   5.096   0.780  0.0198 -0.0712  0.2323
 7024SOL    HW227862   6.156   5.015   0.729  0.1172 -0.9055  1.4933
 7024SOL    HW327863   6.246   5.136   0.745  0.5973 -1.0935  0.3244
 7024SOL    MW427864   6.176   5.091   0.769  0.1089 -0.3162  0.4108
 7025SOL     OW27865   5.645   3.976   0.683 -0.3072 -0.1174 -0.7545
 7025SOL    HW227866   5.619   3.908   0.622  1.6855 -0.5826 -1.1394
 7025SOL    HW327867   5.655   3.931   0.767  3.1753 -0.9039 -1.4374
 7025SOL    MW427868   5.643   3.961   0.686  0.4152 -0.2826 -0.8954
 7026SOL     OW27869   1.559   1.651   0.982  0.3626 -0.6917  0.5161
 7026SOL    HW227870   1.482   1.699   1.012  1.0466  2.4805 -2.1965
 7026SOL    HW327871   1.615   1.645   1.059 -0.1313  2.3838  1.2598
 7026SOL    MW427872   1.556   1.657   0.996  0.3877  0.1326  0.2563
 7027SOL     OW27873   2.640   0.373   4.605  0.1010  0.1022 -0.4100
 7027SOL    HW227874   2.594   0.414   4.532 -1.1602 -1.1689 -0.3600
 7027SOL    HW327875   2.580   0.381   4.679  0.5927 -0.2731  0.0348
 7027SOL    MW427876   2.626   0.380   4.605 -0.0005 -0.1150 -0.3447
 7028SOL     OW27877   0.105   3.871   4.289  0.3703  0.1716  0.9408
 7028SOL    HW227878   0.020   3.828   4.303  0.4965  0.0914  1.4805
 7028SOL    HW327879   0.134   3.839   4.204  0.1095 -0.2314  0.9970
 7028SOL    MW427880   0.097   3.861   4.280  0.3525  0.1078  1.0194
 7029SOL     OW27881   0.463   1.335   2.905 -0.7728  0.0923 -0.3519
 7029SOL    HW227882   0.415   1.413   2.877 -1.6203 -0.2959 -0.0461
 7029SOL    HW327883   0.450   1.273   2.833 -0.3238  0.1479 -0.4792
 7029SOL    MW427884   0.455   1.337   2.891 -0.8254  0.0484 -0.3283
 7030SOL     OW27885   6.030   4.182   0.682 -0.0951  0.0379  0.0604
 7030SOL    HW227886   5.936   4.200   0.687 -0.1504 -0.2413  0.0465
 7030SOL    HW327887   6.060   4.189   0.773 -0.2231 -0.3610  0.1377
 7030SOL    MW427888   6.022   4.185   0.695 -0.1193 -0.0516  0.0687
 7031SOL     OW27889   0.830   2.590   2.553  0.0892  0.3204  0.2851
 7031SOL    HW227890   0.911   2.619   2.511 -0.7936 -0.0317 -1.7304
 7031SOL    HW327891   0.822   2.498   2.530 -0.0749 -0.0909  1.8628
 7031SOL    MW427892   0.840   2.582   2.545 -0.0489  0.2197  0.2273
 7032SOL     OW27893   2.541   6.413   4.123  0.2787 -0.3879  0.8287
 7032SOL    HW227894   2.610   6.462   4.167  0.0682 -0.6945  1.5124
 7032SOL    HW327895   2.554   6.433   4.030  1.8999 -1.2020  0.8381
 7032SOL    MW427896   2.552   6.422   4.116  0.4648 -0.5358  0.9201
 7033SOL     OW27897   0.229   2.988   1.127 -0.3547  0.4244 -0.7135
 7033SOL    HW227898   0.266   3.044   1.196 -0.2763 -1.0293  0.4936
 7033SOL    HW327899   0.214   3.047   1.053 -0.0419  1.9699  0.4005
 7033SOL    MW427900   0.232   3.003   1.127 -0.3031  0.4365 -0.4073
 7034SOL     OW27901   5.602   0.745   0.263  0.5500  0.0614  0.6868
 7034SOL    HW227902   5.613   0.655   0.293  3.1227  0.0973  0.0831
 7034SOL    HW327903   5.520   0.774   0.303  1.0644 -1.6353  3.2314
 7034SOL    MW427904   5.593   0.737   0.273  0.9573 -0.1577  0.9429
 7035SOL     OW27905   1.442   5.501   0.073  0.2736  0.5509  0.0287
 7035SOL    HW227906   1.495   5.509   0.152  0.0997  1.3535  0.0716
 7035SOL    HW327907   1.353   5.523   0.101  0.3860  1.9154 -0.5824
 7035SOL    MW427908   1.438   5.505   0.087  0.2655  0.8368 -0.0463
 7036SOL     OW27909   5.382   6.271   3.911  0.7830  0.5852  0.7015
 7036SOL    HW227910   5.476   6.256   3.901  0.6975  1.1729 -1.8221
 7036SOL    HW327911   5.348   6.265   3.821 -1.5829  0.4662  1.5414
 7036SOL    MW427912   5.390   6.268   3.898  0.4596  0.6470  0.4794
 7037SOL     OW27913   4.022   0.049   1.743  0.2337  0.1390 -0.0879
 7037SOL    HW227914   4.105   0.078   1.781  1.0355  0.0357 -1.6727
 7037SOL    HW327915   4.041  -0.038   1.709 -0.9895 -0.5566  0.9153
 7037SOL    MW427916   4.035   0.041   1.744  0.1781  0.0336 -0.1646
 7038SOL     OW27917   3.592   2.210   4.778  0.0972 -0.0205 -0.7625
 7038SOL    HW227918   3.675   2.193   4.734 -0.1643  1.2489 -1.8126
 7038SOL    HW327919   3.601   2.170   4.864  0.6970 -2.4128 -1.8715
 7038SOL    MW427920   3.604   2.202   4.784  0.1418 -0.1686 -1.0474
 7039SOL     OW27921   2.243   2.310   1.180  0.1692 -0.4201  0.1543
 7039SOL    HW227922   2.289   2.231   1.209  0.4480 -0.8921 -1.4782
 7039SOL    HW327923   2.156   2.303   1.219  0.2462 -1.4611  0.1664
 7039SOL    MW427924   2.238   2.298   1.189  0.2161 -0.6198 -0.0595
 7040SOL     OW27925   4.687   2.102   4.890 -0.0273  0.4252 -0.9981
 7040SOL    HW227926   4.602   2.141   4.909 -0.7979 -0.8026 -1.7463
 7040SOL    HW327927   4.669   2.008   4.885  1.7247 -0.0615  0.6132
 7040SOL    MW427928   4.673   2.094   4.892  0.1022  0.1990 -0.8842
 7041SOL     OW27929   5.049   6.201   0.135 -0.3141  0.4146  0.0729
 7041SOL    HW227930   4.963   6.161   0.142 -0.6160  1.1682  0.8020
 7041SOL    HW327931   5.036   6.291   0.165  0.3497  1.0601 -1.5013
 7041SOL    MW427932   5.036   6.207   0.140 -0.2664  0.5992 -0.0386
 7042SOL     OW27933   6.339   3.312   3.133 -0.4583 -0.0111 -0.2838
 7042SOL    HW227934   6.404   3.363   3.180 -0.1146 -1.3173  0.7460
 7042SOL    HW327935   6.258   3.323   3.184 -0.1999 -1.0438  0.4036
 7042SOL    MW427936   6.337   3.320   3.146 -0.3789 -0.3197 -0.0572
 7043SOL     OW27937   4.531   5.689   5.767  0.3470  0.2381  0.1415
 7043SOL    HW227938   4.506   5.724   5.681  1.2943 -1.2538 -0.7927
 7043SOL    HW327939   4.594   5.619   5.747  2.0270  1.0701  2.1481
 7043SOL    MW427940   4.536   5.684   5.753  0.6937  0.1510  0.2830
 7044SOL     OW27941   0.479   5.556   0.939  0.4661 -0.0924  0.2341
 7044SOL    HW227942   0.398   5.570   0.987  0.1644  1.1431 -0.5694
 7044SOL    HW327943   0.498   5.463   0.950 -2.6471 -1.1575 -1.9526
 7044SOL    MW427944   0.471   5.546   0.947  0.0156 -0.0699 -0.1604
 7045SOL     OW27945   0.819   6.202   1.600  0.1440  0.9754  0.2342
 7045SOL    HW227946   0.833   6.261   1.526  0.8683  2.4428  1.5117
 7045SOL    HW327947   0.902   6.156   1.610 -0.6002 -0.7923 -1.1398
 7045SOL    MW427948   0.832   6.204   1.591  0.1414  0.9358  0.2215
 7046SOL     OW27949   2.621   2.741   5.547 -0.1157 -0.1775 -0.2430
 7046SOL    HW227950   2.540   2.690   5.554 -0.5520  0.2013 -2.1285
 7046SOL    HW327951   2.689   2.682   5.580 -0.4184 -2.5332 -3.4243
 7046SOL    MW427952   2.620   2.726   5.552 -0.2132 -0.4383 -0.9115
 7047SOL     OW27953   1.304   4.807   0.247  0.2695 -0.6146 -0.4306
 7047SOL    HW227954   1.382   4.823   0.193 -0.4741  0.8641 -1.1351
 7047SOL    HW327955   1.282   4.716   0.230  1.7943 -1.0351 -0.2820
 7047SOL    MW427956   1.312   4.797   0.237  0.3726 -0.4750 -0.5040
 7048SOL     OW27957   5.900   3.961   1.907  0.2872  0.5520 -0.5563
 7048SOL    HW227958   5.839   4.024   1.945  1.4455 -0.2266  3.0297
 7048SOL    HW327959   5.933   4.004   1.828 -1.8475  2.7055 -0.3946
 7048SOL    MW427960   5.896   3.975   1.902  0.1584  0.7334 -0.0619
 7049SOL     OW27961   6.058   6.011   6.048 -0.1265 -0.1826  0.1286
 7049SOL    HW227962   5.985   6.009   5.987  0.2780 -0.6318 -0.3461
 7049SOL    HW327963   6.017   5.993   6.134 -0.5526 -0.5840 -0.1500
 7049SOL    MW427964   6.043   6.008   6.051 -0.1294 -0.2948  0.0292
 7050SOL     OW27965   0.265   5.605   6.038  0.3652 -0.6117 -0.3724
 7050SOL    HW227966   0.227   5.676   5.988  1.4549  0.4340  0.2250
 7050SOL    HW327967   0.284   5.643   6.124 -0.3494 -2.0240  0.4508
 7050SOL    MW427968   0.263   5.619   6.043  0.4147 -0.6601 -0.1850
 7051SOL     OW27969   6.018   5.002   2.834 -0.1472  0.4437 -0.3537
 7051SOL    HW227970   6.091   5.029   2.778 -1.1378  1.3055 -1.2731
 7051SOL    HW327971   6.050   5.015   2.924  1.5686 -1.2227 -0.6462
 7051SOL    MW427972   6.032   5.007   2.839 -0.0515  0.3376 -0.5136
 7052SOL     OW27973   6.313   1.477   5.105 -0.2119  0.4831  0.2482
 7052SOL    HW227974   6.282   1.507   5.019  0.7821 -1.6842 -0.9443
 7052SOL    HW327975   6.238   1.430   5.142 -0.8502  1.9583  0.8815
 7052SOL    MW427976   6.299   1.475   5.099 -0.1650  0.3918  0.1744
 7053SOL     OW27977   1.793   2.144   5.144  0.0084  0.2544  0.0266
 7053SOL    HW227978   1.853   2.173   5.076  1.5767 -0.9127  0.8257
 7053SOL    HW327979   1.737   2.220   5.161  0.8047  1.1684 -1.2338
 7053SOL    MW427980   1.794   2.158   5.138  0.3204  0.2210 -0.0342
 7054SOL     OW27981   5.779   4.514   6.353 -0.2495 -0.3643 -0.5362
 7054SOL    HW227982   5.712   4.514   6.421  2.0954  3.1204  2.1404
 7054SOL    HW327983   5.825   4.431   6.364 -1.6038 -1.0274  0.2932
 7054SOL    MW427984   5.777   4.503   6.364 -0.1188  0.0080 -0.0736
 7055SOL     OW27985   5.533   0.411   3.674  0.1994  0.5419  0.5699
 7055SOL    HW227986   5.472   0.339   3.658  1.3030 -0.5369  1.0576
 7055SOL    HW327987   5.529   0.426   3.768  2.3748 -1.1722  1.0174
 7055SOL    MW427988   5.524   0.403   3.684  0.6321  0.1734  0.6933
 7056SOL     OW27989   4.356   4.118   5.314 -0.4881  0.0293 -0.0796
 7056SOL    HW227990   4.429   4.096   5.256 -0.2999  0.3426  0.0373
 7056SOL    HW327991   4.385   4.093   5.401 -0.1935  0.9087  0.0816
 7056SOL    MW427992   4.369   4.112   5.318 -0.4244  0.1867 -0.0429
 7057SOL     OW27993   2.184   3.793   4.700 -0.0298  0.2404 -0.1867
 7057SOL    HW227994   2.091   3.776   4.715 -0.1992  0.0900 -1.3177
 7057SOL    HW327995   2.228   3.749   4.772 -0.7747 -0.7154 -0.2893
 7057SOL    MW427996   2.177   3.785   4.711 -0.1504  0.0945 -0.3495
 7058SOL     OW27997   5.843   5.660   4.628  0.3317  0.0941  0.1670
 7058SOL    HW227998   5.798   5.626   4.705  1.0703  0.3422  0.7276
 7058SOL    HW327999   5.857   5.584   4.572 -1.3231  0.1063 -0.3281
 7058SOL    MW428000   5.839   5.646   4.631  0.2108  0.1285  0.1756
 7059SOL     OW28001   6.173   0.288   0.404  0.5519  0.2534 -0.2480
 7059SOL    HW228002   6.153   0.379   0.428  1.4921  0.6006 -0.7171
 7059SOL    HW328003   6.091   0.241   0.420 -0.3594  1.4281 -1.2443
 7059SOL    MW428004   6.160   0.294   0.409  0.5557  0.4542 -0.4413
 7060SOL     OW28005   2.596   3.028   5.521  0.0912 -0.1096 -0.0382
 7060SOL    HW228006   2.590   3.026   5.425  0.4179 -2.6298 -0.0870
 7060SOL    HW328007   2.635   2.943   5.543 -0.5842  0.1539  2.3746
 7060SOL    MW428008   2.601   3.016   5.511  0.0452 -0.4073  0.2737
 7061SOL     OW28009   6.321   3.702   4.412  0.2039  0.1505  0.0790
 7061SOL    HW228010   6.379   3.646   4.464  0.2929 -0.9150 -1.1028
 7061SOL    HW328011   6.233   3.673   4.435  0.1222  1.3688  1.4357
 7061SOL    MW428012   6.317   3.691   4.422  0.2049  0.1707  0.1021
 7062SOL     OW28013   3.030   3.078   5.977 -0.7291  0.0526 -0.2433
 7062SOL    HW228014   3.012   2.989   6.008  0.1193 -0.3351 -0.8077
 7062SOL    HW328015   3.009   3.135   6.052 -0.0255 -0.7361  0.5814
 7062SOL    MW428016   3.025   3.074   5.991 -0.5243 -0.1026 -0.2089
 7063SOL     OW28017   1.435   3.296   4.396 -0.1490  0.5107  0.5800
 7063SOL    HW228018   1.502   3.343   4.346  2.8284 -1.3288  2.5501
 7063SOL    HW328019   1.476   3.213   4.419 -2.8840 -0.4176  2.5507
 7063SOL    MW428020   1.449   3.291   4.393 -0.1170  0.1456  1.1000
 7064SOL     OW28021   4.768   3.503   3.069  0.0821 -0.0911  0.0040
 7064SOL    HW228022   4.852   3.524   3.027 -0.3153  1.2977 -0.1546
 7064SOL    HW328023   4.757   3.570   3.136 -0.6590 -0.5783  0.3880
 7064SOL    MW428024   4.778   3.514   3.072 -0.0681  0.0279  0.0338
 7065SOL     OW28025   1.650   2.023   1.328  0.3496 -0.0166 -0.2042
 7065SOL    HW228026   1.677   2.111   1.354 -0.6042  0.7990 -1.8074
 7065SOL    HW328027   1.555   2.024   1.335  0.2547 -0.5605 -1.2258
 7065SOL    MW428028   1.641   2.035   1.332  0.2112  0.0193 -0.5506
 7066SOL     OW28029   3.970   6.287   3.367  0.2722 -0.1256 -0.8130
 7066SOL    HW228030   4.061   6.302   3.393 -0.5462  0.3821  2.0772
 7066SOL    HW328031   3.973   6.208   3.314  2.3881 -0.0833 -0.8580
 7066SOL    MW428032   3.983   6.279   3.364  0.4434 -0.0531 -0.4376
 7067SOL     OW28033   4.236   0.138   4.689 -0.2569 -0.2243  0.7954
 7067SOL    HW228034   4.217   0.045   4.702 -0.4204 -0.3495 -0.2620
 7067SOL    HW328035   4.195   0.160   4.606 -0.6141  0.9192  1.2416
 7067SOL    MW428036   4.228   0.129   4.680 -0.3256 -0.0900  0.7148
 7068SOL     OW28037   2.108   5.579   5.170 -0.3742  0.0149 -0.4397
 7068SOL    HW228038   2.171   5.623   5.227  1.0972 -1.5545 -0.7793
 7068SOL    HW328039   2.095   5.493   5.211 -2.4077  0.3255 -0.3282
 7068SOL    MW428040   2.114   5.573   5.183 -0.4483 -0.1512 -0.4698
 7069SOL     OW28041   6.324   2.798   6.067 -0.2078  0.4239 -0.6116
 7069SOL    HW228042   6.342   2.887   6.036 -1.4535  0.7050 -0.5647
 7069SOL    HW328043   6.406   2.751   6.052  1.1503  2.0687  1.1814
 7069SOL    MW428044   6.337   2.804   6.061 -0.1930  0.6780 -0.3689
 7070SOL     OW28045   4.384   4.338   1.647 -0.5029 -0.1299 -0.0098
 7070SOL    HW228046   4.324   4.265   1.665  0.2638 -0.8576 -0.2998
 7070SOL    HW328047   4.452   4.329   1.713 -1.1776  1.2532  0.9092
 7070SOL    MW428048   4.385   4.327   1.658 -0.4908 -0.0435  0.0732
 7071SOL     OW28049   2.964   5.851   3.994 -0.3627 -0.5475 -0.4437
 7071SOL    HW228050   2.941   5.861   4.086 -0.7526  0.5429 -0.6497
 7071SOL    HW328051   3.033   5.784   3.994  1.2864  1.0538  0.8857
 7071SOL    MW428052   2.970   5.843   4.006 -0.1965 -0.1924 -0.2955
 7072SOL     OW28053   3.061   4.773   2.390  1.1915  0.1312  0.2141
 7072SOL    HW228054   3.079   4.679   2.397  2.6010  0.3470 -0.1979
 7072SOL    HW328055   3.138   4.809   2.347  0.7852  1.5254  0.5970
 7072SOL    MW428056   3.074   4.765   2.385  1.3238  0.3436  0.2103
 7073SOL     OW28057   3.141   0.552   0.177  0.2496 -0.8923  0.2746
 7073SOL    HW228058   3.104   0.524   0.093  1.0936 -1.2735  0.0124
 7073SOL    HW328059   3.072   0.534   0.241 -1.6683  2.3426 -0.6887
 7073SOL    MW428060   3.127   0.546   0.175  0.1079 -0.5158  0.1129
 7074SOL     OW28061   1.682   2.515   4.303 -0.1534  0.2262 -0.2148
 7074SOL    HW228062   1.603   2.566   4.286 -1.5323 -1.7721 -0.1372
 7074SOL    HW328063   1.734   2.525   4.224 -0.7154  1.1688 -0.4799
 7074SOL    MW428064   1.678   2.523   4.290 -0.4095  0.0869 -0.2395
 7075SOL     OW28065   3.198   3.602   1.570 -0.4031 -0.2106  0.3288
 7075SOL    HW228066   3.160   3.525   1.529  0.6290 -1.3822  1.4930
 7075SOL    HW328067   3.221   3.574   1.658 -1.6697  1.9502  1.4426
 7075SOL    MW428068   3.196   3.588   1.576 -0.4340 -0.0801  0.6293
 7076SOL     OW28069   5.107   4.917   6.217 -0.2405  0.6958 -0.2331
 7076SOL    HW228070   5.189   4.934   6.172  0.3245  1.2969  0.9645
 7076SOL    HW328071   5.039   4.949   6.158  0.6106  5.1098  0.8136
 7076SOL    MW428072   5.109   4.923   6.203 -0.0537  1.3575  0.0630
 7077SOL     OW28073   4.841   5.584   2.764 -0.5366 -0.5150  0.0313
 7077SOL    HW228074   4.809   5.561   2.851 -1.5182  0.1370 -0.1380
 7077SOL    HW328075   4.935   5.562   2.766 -0.5743 -0.6299  1.2003
 7077SOL    MW428076   4.849   5.578   2.776 -0.6711 -0.4442  0.1632
 7078SOL     OW28077   6.295   1.223   3.133 -0.4580 -0.2364  0.2027
 7078SOL    HW228078   6.330   1.137   3.111 -0.9709 -0.1840 -0.8500
 7078SOL    HW328079   6.349   1.252   3.207  1.2765 -0.4633 -0.9145
 7078SOL    MW428080   6.307   1.216   3.140 -0.2968 -0.2594 -0.0836
 7079SOL     OW28081   0.123   4.589   0.057 -0.0803  0.3418  0.2547
 7079SOL    HW228082   0.097   4.607  -0.034 -1.5293 -1.4512  0.2605
 7079SOL    HW328083   0.196   4.648   0.072 -0.3119  1.2787 -1.8140
 7079SOL    MW428084   0.129   4.599   0.047 -0.3021  0.2288 -0.0175
 7080SOL     OW28085   6.272   5.330   5.846  0.5171 -0.5027 -0.3011
 7080SOL    HW228086   6.311   5.266   5.786  1.9674  2.1061 -2.3338
 7080SOL    HW328087   6.344   5.354   5.905 -0.0543 -0.7875  0.5303
 7080SOL    MW428088   6.287   5.324   5.846  0.6330 -0.1961 -0.4596
 7081SOL     OW28089   1.388   3.511   4.580  0.0279 -0.3698 -0.7825
 7081SOL    HW228090   1.470   3.530   4.628  0.3398  1.2895 -1.8911
 7081SOL    HW328091   1.401   3.423   4.545  0.4114 -1.0218  0.8965
 7081SOL    MW428092   1.401   3.502   4.582  0.1196 -0.2369 -0.7072
 7082SOL     OW28093   1.431   5.756   5.855 -0.2545  0.5738  0.3263
 7082SOL    HW228094   1.519   5.791   5.848 -0.9057  2.1715 -0.3197
 7082SOL    HW328095   1.410   5.762   5.948  0.8087 -1.1993  0.7361
 7082SOL    MW428096   1.440   5.762   5.866 -0.2001  0.5506  0.2952
 7083SOL     OW28097   6.066   4.527   4.857  0.0367 -0.2335  0.0537
 7083SOL    HW228098   5.987   4.582   4.855  0.0021 -0.2859 -1.8501
 7083SOL    HW328099   6.094   4.529   4.949 -2.7688 -1.0994  1.0238
 7083SOL    MW428100   6.059   4.535   4.869 -0.3380 -0.3547 -0.0695
 7084SOL     OW28101   5.335   2.797   1.101  0.3902  0.4860 -0.1057
 7084SOL    HW228102   5.349   2.820   1.193 -1.0056  0.0845  0.2272
 7084SOL    HW328103   5.412   2.744   1.078 -0.3008 -1.3644  1.5361
 7084SOL    MW428104   5.347   2.793   1.110  0.1149  0.1889  0.1548
 7085SOL     OW28105   0.099   5.966   5.093  0.0724 -0.4562 -0.3398
 7085SOL    HW228106   0.089   6.033   5.025 -0.1582 -0.5591 -0.4086
 7085SOL    HW328107   0.044   5.998   5.166  1.0255  0.1102  0.1520
 7085SOL    MW428108   0.090   5.979   5.094  0.1677 -0.3950 -0.2840
 7086SOL     OW28109   5.422   0.187   0.602 -0.4169  0.0597  0.0921
 7086SOL    HW228110   5.489   0.167   0.536 -1.6414 -1.5371 -0.7351
 7086SOL    HW328111   5.397   0.278   0.584  1.7216  0.8260  0.6607
 7086SOL    MW428112   5.427   0.196   0.591 -0.2963 -0.0499  0.0579
 7087SOL     OW28113   4.078   4.376   2.747  0.0506 -0.0218 -0.4658
 7087SOL    HW228114   4.047   4.292   2.714  0.7702  0.7004 -3.2249
 7087SOL    HW328115   4.169   4.383   2.716  0.3999  1.2851  0.7064
 7087SOL    MW428116   4.086   4.366   2.739  0.1916  0.2459 -0.6752
 7088SOL     OW28117   4.584   0.638   4.784 -0.5826  0.0436 -0.0105
 7088SOL    HW228118   4.589   0.601   4.873 -2.0452 -0.5680 -0.1501
 7088SOL    HW328119   4.516   0.705   4.790  0.5674  1.2881 -0.2757
 7088SOL    MW428120   4.576   0.642   4.797 -0.6238  0.1271 -0.0639
 7089SOL     OW28121   5.350   0.035   6.240 -0.2733  0.0836  0.3597
 7089SOL    HW228122   5.340   0.077   6.155 -1.0756  0.0454  0.4259
 7089SOL    HW328123   5.416   0.087   6.285 -0.4186  0.5772  0.0049
 7089SOL    MW428124   5.358   0.047   6.235 -0.3983  0.1437  0.3216
 7090SOL     OW28125   5.271   6.218   3.667  0.0187  0.0823  0.5244
 7090SOL    HW228126   5.234   6.132   3.646  0.1081  0.2050 -0.1725
 7090SOL    HW328127   5.195   6.276   3.673  0.1011  0.8821 -3.4296
 7090SOL    MW428128   5.256   6.214   3.665  0.0413  0.2040 -0.0893
 7091SOL     OW28129   2.171   4.703   2.476 -0.4480 -0.4714 -0.5099
 7091SOL    HW228130   2.133   4.768   2.535  0.1934  0.4102 -1.0429
 7091SOL    HW328131   2.245   4.667   2.525  2.4438  2.8933 -1.9872
 7091SOL    MW428132   2.176   4.707   2.491  0.0182  0.0888 -0.7751
 7092SOL     OW28133   0.909   4.713   2.513 -0.6787  0.0746  0.0967
 7092SOL    HW228134   0.816   4.698   2.501 -0.4751 -0.3491 -1.0497
 7092SOL    HW328135   0.927   4.793   2.465 -0.2766 -0.3948 -0.5592
 7092SOL    MW428136   0.899   4.721   2.505 -0.5988 -0.0433 -0.1411
 7093SOL     OW28137   0.347   4.587   4.166 -0.2259  0.2961  0.3715
 7093SOL    HW228138   0.300   4.590   4.082  2.9505 -1.8346 -1.7641
 7093SOL    HW328139   0.359   4.678   4.191 -0.3125  1.0962 -2.1919
 7093SOL    MW428140   0.342   4.599   4.158  0.1818  0.1205 -0.2485
 7094SOL     OW28141   2.749   4.384   4.337  0.5561  0.2180 -0.3391
 7094SOL    HW228142   2.674   4.328   4.357  0.9264  0.3048  1.5019
 7094SOL    HW328143   2.782   4.353   4.253 -2.0610  0.7498 -1.6770
 7094SOL    MW428144   2.743   4.373   4.329  0.2596  0.2996 -0.2727
 7095SOL     OW28145   3.033   2.504   2.031  0.3721  0.5108 -0.0600
 7095SOL    HW228146   2.979   2.564   1.980  1.3861  0.5896 -1.0938
 7095SOL    HW328147   3.121   2.513   1.994  0.8418 -0.5516  0.7204
 7095SOL    MW428148   3.038   2.513   2.019  0.5678  0.3810 -0.0934
 7096SOL     OW28149   2.348   0.753   2.512 -0.4324  0.1975  0.2461
 7096SOL    HW228150   2.369   0.787   2.425 -0.0984  2.1377  1.0234
 7096SOL    HW328151   2.253   0.740   2.511 -0.3963 -0.0558 -0.4767
 7096SOL    MW428152   2.338   0.756   2.501 -0.3836  0.4201  0.2533
 7097SOL     OW28153   4.287   5.946   3.988 -0.1814 -0.4413  0.0454
 7097SOL    HW228154   4.370   5.973   3.947 -0.0654  1.2761  1.2995
 7097SOL    HW328155   4.226   6.016   3.966 -1.1086 -1.3033 -0.1986
 7097SOL    MW428156   4.290   5.959   3.979 -0.2884 -0.3284  0.1787
 7098SOL     OW28157   3.611   5.245   0.327 -0.4190  0.0029 -0.2271
 7098SOL    HW228158   3.637   5.155   0.306 -0.4252 -0.1669  0.4695
 7098SOL    HW328159   3.684   5.299   0.295 -1.1179 -0.0868 -2.0998
 7098SOL    MW428160   3.624   5.240   0.320 -0.5120 -0.0313 -0.3823
 7099SOL     OW28161   4.935   1.934   3.043 -0.0365  0.0365 -0.7163
 7099SOL    HW228162   4.992   1.876   3.092  0.8671  0.8652 -0.7500
 7099SOL    HW328163   4.930   1.895   2.955  0.2566 -0.1801 -0.6352
 7099SOL    MW428164   4.942   1.921   3.038  0.1214  0.1173 -0.7101
 7100SOL     OW28165   5.721   0.799   5.822  0.1852  0.1660  0.1230
 7100SOL    HW228166   5.768   0.865   5.873  0.7903 -0.5046  0.4415
 7100SOL    HW328167   5.716   0.723   5.880  1.1506 -0.7212 -0.9093
 7100SOL    MW428168   5.726   0.798   5.837  0.3924 -0.0395  0.0288
 7101SOL     OW28169   2.639   5.626   0.701 -0.2443 -0.5128 -0.4490
 7101SOL    HW228170   2.617   5.577   0.622  1.2607  0.7881 -1.7520
 7101SOL    HW328171   2.705   5.572   0.745 -1.1945 -1.3115  0.0223
 7101SOL    MW428172   2.645   5.612   0.696 -0.1711 -0.4465 -0.5587
 7102SOL     OW28173   4.824   6.143   2.714  0.3585  0.8146 -0.3646
 7102SOL    HW228174   4.904   6.180   2.752  1.7964 -1.0195 -1.4478
 7102SOL    HW328175   4.774   6.112   2.790  1.5091  0.4258  0.2584
 7102SOL    MW428176   4.828   6.144   2.729  0.7000  0.5213 -0.4253
 7103SOL     OW28177   3.253   4.532   2.085  0.8132  0.0905  0.2713
 7103SOL    HW228178   3.307   4.540   2.006  2.2279 -2.4107  0.8725
 7103SOL    HW328179   3.169   4.570   2.060  1.1440 -0.7471 -2.5165
 7103SOL    MW428180   3.249   4.538   2.071  1.0435 -0.3500 -0.0172
 7104SOL     OW28181   4.629   1.647   5.096  0.3624  0.5080 -0.0637
 7104SOL    HW228182   4.694   1.625   5.163  0.0484 -0.8992 -0.1869
 7104SOL    HW328183   4.548   1.604   5.126  0.7161 -2.0592 -2.3308
 7104SOL    MW428184   4.627   1.638   5.109  0.3676 -0.0163 -0.3791
 7105SOL     OW28185   1.671   4.301   5.095 -0.2846 -0.3344  0.1800
 7105SOL    HW228186   1.605   4.319   5.028  0.5169 -0.1975 -0.6007
 7105SOL    HW328187   1.751   4.284   5.045  0.3274 -0.2517  1.1109
 7105SOL    MW428188   1.673   4.301   5.080 -0.0981 -0.3054  0.1998
 7106SOL     OW28189   4.886   6.025   4.267  0.0162  0.1708 -0.3270
 7106SOL    HW228190   4.935   6.024   4.185  0.3805 -0.2807 -0.1127
 7106SOL    HW328191   4.909   5.942   4.310 -1.7689 -0.5551 -0.6968
 7106SOL    MW428192   4.896   6.014   4.262 -0.1712  0.0154 -0.3475
 7107SOL     OW28193   4.364   6.411   5.197  0.3382 -0.2721  0.1996
 7107SOL    HW228194   4.429   6.379   5.134  0.9536 -0.5020  0.9306
 7107SOL    HW328195   4.406   6.485   5.240 -0.8611  1.2038 -1.0723
 7107SOL    MW428196   4.378   6.416   5.194  0.2612 -0.1077  0.1283
 7108SOL     OW28197   0.950   2.288   4.172 -0.0845  0.7099  0.1976
 7108SOL    HW228198   0.968   2.267   4.080  2.1506 -2.3975  1.1811
 7108SOL    HW328199   0.870   2.340   4.169 -1.3576 -1.0920 -3.3599
 7108SOL    MW428200   0.942   2.292   4.159  0.0424  0.0622 -0.1420
 7109SOL     OW28201  -0.005   2.997   1.276 -0.0631 -0.3535 -0.6557
 7109SOL    HW228202   0.066   2.998   1.211 -0.8432  0.5528 -1.5234
 7109SOL    HW328203   0.032   3.045   1.351 -0.2488  1.4943 -1.6884
 7109SOL    MW428204   0.009   3.004   1.278 -0.1906  0.0099 -0.9064
 7110SOL     OW28205   0.088   0.461   3.982  0.3026  0.1143 -0.7956
 7110SOL    HW228206   0.129   0.533   4.030 -1.5988  1.2524 -0.8135
 7110SOL    HW328207   0.046   0.503   3.907 -0.2904 -1.1028 -1.1718
 7110SOL    MW428208   0.088   0.476   3.978 -0.0265  0.1039 -0.8476
 7111SOL     OW28209   2.028   0.924   0.632 -0.3223  0.2646  0.0950
 7111SOL    HW228210   2.021   0.893   0.723  0.9672 -1.6315 -0.3805
 7111SOL    HW328211   1.937   0.928   0.601 -0.7477  0.4096  1.2913
 7111SOL    MW428212   2.015   0.920   0.640 -0.2083  0.0336  0.1901
 7112SOL     OW28213   3.349   1.332   0.258  0.5440 -0.2188 -0.0530
 7112SOL    HW228214   3.400   1.263   0.216 -0.1350 -0.4562 -0.5038
 7112SOL    HW328215   3.359   1.408   0.201 -0.9719 -0.7455 -1.0798
 7112SOL    MW428216   3.357   1.333   0.245  0.2544 -0.3196 -0.2480
 7113SOL     OW28217   6.418   4.952   2.898  0.4264 -0.1123 -0.0729
 7113SOL    HW228218   6.406   4.868   2.854 -1.3656  0.2323 -0.3170
 7113SOL    HW328219   6.390   4.936   2.988 -0.3142  0.2924 -0.2189
 7113SOL    MW428220   6.413   4.939   2.904  0.0923 -0.0134 -0.1243
 7114SOL     OW28221   0.932   3.791   4.008 -0.0146  0.0409  0.5397
 7114SOL    HW228222   1.014   3.771   3.962  0.3928  0.1063  1.2207
 7114SOL    HW328223   0.921   3.718   4.069 -0.6226 -0.1171  0.2494
 7114SOL    MW428224   0.941   3.778   4.010 -0.0411  0.0287  0.5912
 7115SOL     OW28225   5.739   2.235   5.294 -0.2269  0.1600 -0.4216
 7115SOL    HW228226   5.700   2.300   5.235  0.3979  0.7504 -0.2122
 7115SOL    HW328227   5.667   2.204   5.348 -0.4241  1.1821 -0.0776
 7115SOL    MW428228   5.725   2.240   5.293 -0.1705  0.3727 -0.3486
 7116SOL     OW28229   2.908   0.205   3.081  0.1383 -0.1942 -0.2990
 7116SOL    HW228230   2.833   0.264   3.073 -0.9870 -1.4142  0.6915
 7116SOL    HW328231   2.893   0.158   3.163  0.2035 -2.8690 -1.6976
 7116SOL    MW428232   2.896   0.207   3.091 -0.0015 -0.7081 -0.3529
 7117SOL     OW28233   0.794   4.220   0.875  0.6388 -0.2713  0.2975
 7117SOL    HW228234   0.853   4.220   0.800 -0.2447  1.5070 -0.4590
 7117SOL    HW328235   0.785   4.312   0.899 -0.5411 -0.6385  1.4256
 7117SOL    MW428236   0.800   4.232   0.868  0.3665 -0.0851  0.3466
 7118SOL     OW28237   2.960   2.452   1.356  0.2791 -0.0834 -0.1815
 7118SOL    HW228238   2.946   2.392   1.429 -2.6984  0.8468  0.1440
 7118SOL    HW328239   3.034   2.506   1.384  0.2986 -0.8487  1.3699
 7118SOL    MW428240   2.968   2.451   1.370 -0.1112 -0.0617  0.0661
 7119SOL     OW28241   1.832   0.123   4.683  0.2583 -0.0587 -0.3031
 7119SOL    HW228242   1.800   0.089   4.599 -0.5097  0.8701 -0.4105
 7119SOL    HW328243   1.889   0.196   4.658  1.1706 -0.6788 -0.0542
 7119SOL    MW428244   1.835   0.128   4.668  0.2773 -0.0180 -0.2844
 7120SOL     OW28245   5.948   1.450   3.376  0.1063 -0.9327 -0.4519
 7120SOL    HW228246   5.974   1.398   3.452 -0.9289  2.6590  2.6910
 7120SOL    HW328247   6.030   1.483   3.340  0.5341 -0.5651  0.8151
 7120SOL    MW428248   5.962   1.447   3.381  0.0261 -0.4103  0.1299
 7121SOL     OW28249   2.897   1.275   4.356 -0.3803 -0.0987  0.2735
 7121SOL    HW228250   2.931   1.190   4.384  0.5948  0.7312  1.7217
 7121SOL    HW328251   2.805   1.258   4.336 -0.4481 -1.3143  1.4614
 7121SOL    MW428252   2.889   1.261   4.357 -0.2606 -0.1496  0.6213
 7122SOL     OW28253   1.412   2.269   5.695  0.0377  0.5940 -0.1185
 7122SOL    HW228254   1.430   2.194   5.751 -0.9391  0.1435 -0.3827
 7122SOL    HW328255   1.335   2.243   5.644  0.6966  1.1171 -1.4375
 7122SOL    MW428256   1.404   2.256   5.696 -0.0042  0.6036 -0.3274
 7123SOL     OW28257   3.561   3.613   3.653 -0.0179  0.5416 -0.0339
 7123SOL    HW228258   3.590   3.699   3.685 -0.2039  0.8365 -0.6459
 7123SOL    HW328259   3.589   3.552   3.721  0.3310  1.0558  0.2948
 7123SOL    MW428260   3.568   3.616   3.666  0.0036  0.6484 -0.0713
 7124SOL     OW28261   1.432   3.582   0.753  0.1185  0.4139  0.4436
 7124SOL    HW228262   1.516   3.614   0.786  1.2076 -0.0324 -1.7378
 7124SOL    HW328263   1.423   3.623   0.667 -0.8495 -1.2489 -0.2899
 7124SOL    MW428264   1.442   3.592   0.746  0.1345  0.1356  0.0590
 7125SOL     OW28265   5.677   5.816   3.067  0.0972  0.4876  0.5106
 7125SOL    HW228266   5.605   5.870   3.102 -1.1638 -0.6665 -0.2044
 7125SOL    HW328267   5.743   5.818   3.136 -1.5764 -0.2763  2.2275
 7125SOL    MW428268   5.676   5.824   3.081 -0.2900  0.2345  0.6428
 7126SOL     OW28269   0.381   1.953   2.924  0.2142  0.3877 -0.1944
 7126SOL    HW228270   0.436   2.029   2.904  2.1575 -1.0535 -0.5984
 7126SOL    HW328271   0.339   1.931   2.841  0.7441  0.1941 -0.4157
 7126SOL    MW428272   0.383   1.960   2.911  0.5405  0.1720 -0.2769
 7127SOL     OW28273   0.258   0.031   4.555  0.3153 -0.1433  0.0111
 7127SOL    HW228274   0.201   0.050   4.481  0.6000 -1.1208 -0.4748
 7127SOL    HW328275   0.262   0.113   4.604  0.0566  0.4929 -1.0004
 7127SOL    MW428276   0.251   0.044   4.552  0.3187 -0.1883 -0.1864
 7128SOL     OW28277   0.156   0.346   3.130  0.6243 -0.2188 -0.0826
 7128SOL    HW228278   0.195   0.379   3.210  0.2472  1.3827 -0.5269
 7128SOL    HW328279   0.148   0.423   3.073 -3.6903 -0.2056  0.1854
 7128SOL    MW428280   0.160   0.360   3.133  0.0053 -0.0057 -0.1059
 7129SOL     OW28281   0.241   4.890   3.079 -0.3166  0.1911 -0.0244
 7129SOL    HW228282   0.327   4.896   3.119 -0.8463  1.9771  0.9588
 7129SOL    HW328283   0.206   4.806   3.109  0.1457  0.5456  1.5610
 7129SOL    MW428284   0.248   4.880   3.088 -0.3255  0.4735  0.3145
 7130SOL     OW28285   6.399   4.503   4.571 -0.0511 -0.2870 -0.4523
 7130SOL    HW228286   6.481   4.513   4.522 -0.5391 -0.0986 -1.2483
 7130SOL    HW328287   6.417   4.432   4.633  2.2958  2.7679  2.8076
 7130SOL    MW428288   6.412   4.495   4.573  0.1941  0.1409 -0.1273
 7131SOL     OW28289   5.120   1.756   4.444 -0.1685 -0.7072 -0.0651
 7131SOL    HW228290   5.200   1.752   4.496 -0.7204 -0.7515  0.7870
 7131SOL    HW328291   5.075   1.834   4.476  0.1523  0.0837 -1.4623
 7131SOL    MW428292   5.125   1.766   4.455 -0.1990 -0.6087 -0.1370
 7132SOL     OW28293   2.055   3.554   1.124  0.3263 -0.0471 -0.2673
 7132SOL    HW228294   2.019   3.520   1.206  1.6731 -2.3158 -0.5174
 7132SOL    HW328295   2.059   3.649   1.136 -2.3704 -0.0195  1.0556
 7132SOL    MW428296   2.051   3.562   1.136  0.1482 -0.3428 -0.1257
 7133SOL     OW28297   2.329   3.961   3.715 -0.2266  0.7467  0.4134
 7133SOL    HW228298   2.413   3.970   3.670 -0.8543  2.5815 -0.4837
 7133SOL    HW328299   2.341   4.008   3.798 -0.0895  0.2126  0.6985
 7133SOL    MW428300   2.342   3.968   3.720 -0.2913  0.9183  0.3326
 7134SOL     OW28301   3.214   2.839   3.033 -0.0126  0.2644 -0.0485
 7134SOL    HW228302   3.137   2.817   2.980 -0.6953  0.3655  0.8821
 7134SOL    HW328303   3.214   2.775   3.104  0.3247  0.7419  0.3917
 7134SOL    MW428304   3.204   2.827   3.036 -0.0581  0.3408  0.1323
 7135SOL     OW28305   3.464   2.508   2.511  0.2709  0.7991  0.2835
 7135SOL    HW228306   3.405   2.540   2.580 -1.2294 -0.3403 -0.4239
 7135SOL    HW328307   3.521   2.445   2.556 -1.8929 -1.3390  0.2387
 7135SOL    MW428308   3.464   2.504   2.526 -0.2126  0.3666  0.1842
 7136SOL     OW28309   4.159   4.071   0.708  0.5830  0.2849 -0.3446
 7136SOL    HW228310   4.234   4.066   0.648  0.4914  1.6407 -0.6009
 7136SOL    HW328311   4.117   4.154   0.688 -2.2543 -1.3130 -1.6387
 7136SOL    MW428312   4.164   4.081   0.698  0.1965  0.2529 -0.5492
 7137SOL     OW28313   1.508   3.494   5.978 -0.1202  0.8027  0.1134
 7137SOL    HW228314   1.507   3.498   6.074 -0.0681  1.4969  0.0919
 7137SOL    HW328315   1.512   3.586   5.950 -2.4230  0.7549 -0.5866
 7137SOL    MW428316   1.508   3.507   5.987 -0.4172  0.8880  0.0182
 7138SOL     OW28317   1.495   0.305   0.126 -0.2410  0.1344 -0.0564
 7138SOL    HW228318   1.505   0.401   0.124 -0.1306  0.1971  2.0129
 7138SOL    HW328319   1.402   0.291   0.138 -0.2793 -0.0324 -0.5358
 7138SOL    MW428320   1.484   0.316   0.127 -0.2315  0.1206  0.1534
 7139SOL     OW28321   6.398   5.697   3.714  0.1199  0.2824  0.0098
 7139SOL    HW228322   6.351   5.700   3.630 -0.2195  0.6677  0.2091
 7139SOL    HW328323   6.484   5.660   3.692  0.5903  1.7374 -0.7817
 7139SOL    MW428324   6.403   5.693   3.700  0.1372  0.5252 -0.0683
 7140SOL     OW28325   6.229   2.734   3.717 -0.5770  0.5697  0.3369
 7140SOL    HW228326   6.203   2.820   3.687 -1.2144  0.2592 -0.0092
 7140SOL    HW328327   6.174   2.673   3.669 -0.2825 -0.0268  0.7298
 7140SOL    MW428328   6.219   2.737   3.707 -0.6222  0.4500  0.3430
 7141SOL     OW28329   5.731   3.748   5.400 -0.2262 -0.4355  0.3247
 7141SOL    HW228330   5.710   3.668   5.447 -2.4099 -0.4803 -0.5988
 7141SOL    HW328331   5.700   3.732   5.310  1.6979  0.4924 -0.5583
 7141SOL    MW428332   5.724   3.736   5.394 -0.2605 -0.3190  0.0863
 7142SOL     OW28333   1.224   3.819   3.180  0.7368 -0.8131 -0.3420
 7142SOL    HW228334   1.272   3.858   3.107  0.0070 -0.4163 -0.6220
 7142SOL    HW328335   1.150   3.775   3.139 -0.5322  0.6624  0.2317
 7142SOL    MW428336   1.220   3.819   3.165  0.4731 -0.5661 -0.3033
 7143SOL     OW28337   1.100   5.658   5.281 -0.3191 -0.3796 -0.9130
 7143SOL    HW228338   1.170   5.665   5.346 -0.2965 -0.7775 -0.8923
 7143SOL    HW328339   1.086   5.748   5.251 -1.1680 -0.0016  0.5095
 7143SOL    MW428340   1.107   5.671   5.285 -0.4281 -0.3822 -0.7226
 7144SOL     OW28341   5.082   5.008   5.589 -0.6283  0.0505 -0.6170
 7144SOL    HW228342   5.097   5.079   5.652 -2.6612  1.9498 -2.1010
 7144SOL    HW328343   5.119   5.041   5.507  0.7632 -1.8011 -0.7874
 7144SOL    MW428344   5.088   5.022   5.586 -0.7129  0.0568 -0.8353
 7145SOL     OW28345   2.927   4.625   1.359 -0.4806  0.2587 -0.5611
 7145SOL    HW228346   2.976   4.697   1.320  0.6063 -0.5958 -0.8261
 7145SOL    HW328347   2.837   4.656   1.364  0.2004  2.1698  0.6260
 7145SOL    MW428348   2.922   4.638   1.355 -0.2474  0.3981 -0.4395
 7146SOL     OW28349   5.389   1.332   2.457 -0.1842  0.6363 -0.5599
 7146SOL    HW228350   5.375   1.239   2.439  1.0267  0.0011  1.4738
 7146SOL    HW328351   5.305   1.362   2.492  0.1205 -0.3824  1.1775
 7146SOL    MW428352   5.376   1.324   2.459  0.0158  0.4181 -0.0624
 7147SOL     OW28353   4.671   4.134   1.201  0.2041 -0.1897 -0.2269
 7147SOL    HW228354   4.666   4.050   1.156  2.8716  0.1196 -1.2697
 7147SOL    HW328355   4.712   4.193   1.138  3.7797  0.3487  2.2883
 7147SOL    MW428356   4.676   4.130   1.187  1.0278 -0.0778 -0.0327
 7148SOL     OW28357   1.695   5.577   2.257 -0.6714 -0.5114  0.3041
 7148SOL    HW228358   1.692   5.599   2.350 -1.5567  0.2848  0.1021
 7148SOL    HW328359   1.615   5.614   2.220 -0.3792 -0.8853 -0.7680
 7148SOL    MW428360   1.684   5.585   2.264 -0.7497 -0.4557  0.1360
 7149SOL     OW28361   0.847   4.574   0.372 -0.4091  0.1116 -0.3093
 7149SOL    HW228362   0.908   4.624   0.317  0.8456 -1.0321  0.0046
 7149SOL    HW328363   0.901   4.507   0.413 -1.4758  0.3722  1.6505
 7149SOL    MW428364   0.863   4.572   0.370 -0.3843 -0.0049 -0.0093
 7150SOL     OW28365   0.092   2.564   4.193  0.3307  0.8362 -0.2820
 7150SOL    HW228366   0.037   2.635   4.158  0.4755  0.5256 -1.1839
 7150SOL    HW328367   0.030   2.504   4.234  0.1456  1.1826 -0.0490
 7150SOL    MW428368   0.076   2.565   4.193  0.3254  0.8409 -0.3702
 7151SOL     OW28369   1.431   3.302   2.929  0.4284 -0.1714  0.0695
 7151SOL    HW228370   1.431   3.397   2.919  0.8494 -0.2693 -1.0814
 7151SOL    HW328371   1.524   3.280   2.943  0.3692 -0.4373  0.0462
 7151SOL    MW428372   1.443   3.312   2.929  0.4761 -0.2194 -0.0854
 7152SOL     OW28373   1.182   6.145   1.011  0.6291 -0.7300 -0.2742
 7152SOL    HW228374   1.274   6.173   1.019 -0.0200  1.3434  0.6348
 7152SOL    HW328375   1.163   6.101   1.095  1.2161 -2.7301 -1.1215
 7152SOL    MW428376   1.192   6.143   1.023  0.6209 -0.7203 -0.2661
 7153SOL     OW28377   1.651   5.059   3.757 -0.1115  0.3316  0.1547
 7153SOL    HW228378   1.651   4.994   3.828 -0.3572  0.0008 -0.1441
 7153SOL    HW328379   1.686   5.138   3.797  0.9218 -0.1953  0.3357
 7153SOL    MW428380   1.656   5.061   3.772 -0.0076  0.2185  0.1392
 7154SOL     OW28381   4.737   1.844   6.194  0.1740  0.0045 -0.0982
 7154SOL    HW228382   4.719   1.848   6.100  1.3652  1.8768 -0.3112
 7154SOL    HW328383   4.832   1.835   6.200  0.1253  0.0151  0.9234
 7154SOL    MW428384   4.747   1.843   6.183  0.3247  0.2530  0.0085
 7155SOL     OW28385   2.266   1.005   0.190 -0.4626  0.4359 -0.0401
 7155SOL    HW228386   2.346   0.970   0.151  0.0392  0.7624  0.6740
 7155SOL    HW328387   2.295   1.046   0.271 -1.5329 -0.6086  0.9193
 7155SOL    MW428388   2.280   1.005   0.195 -0.5376  0.3412  0.1807
 7156SOL     OW28389   2.457   6.319   3.256 -0.2835 -0.0044 -0.8306
 7156SOL    HW228390   2.492   6.232   3.278  0.7537  0.6865  0.3368
 7156SOL    HW328391   2.497   6.378   3.320 -1.9872  1.1527 -0.7700
 7156SOL    MW428392   2.467   6.315   3.268 -0.3714  0.2394 -0.6686
 7157SOL     OW28393   5.208   4.773   1.286  0.7237 -0.0086 -0.6263
 7157SOL    HW228394   5.195   4.681   1.265 -0.4088  0.2339 -1.0900
 7157SOL    HW328395   5.152   4.820   1.224  1.2945  0.9951 -0.4135
 7157SOL    MW428396   5.199   4.767   1.275  0.6496  0.1558 -0.6594
 7158SOL     OW28397   0.106   6.170   2.631 -0.0477 -0.3826 -0.0482
 7158SOL    HW228398   0.192   6.128   2.636  0.3852  0.6051  1.4267
 7158SOL    HW328399   0.080   6.183   2.722 -1.2166  0.4104 -0.4708
 7158SOL    MW428400   0.114   6.166   2.644 -0.1448 -0.1476  0.0907
 7159SOL     OW28401   3.813   2.269   6.190 -0.4981 -0.3304 -0.0621
 7159SOL    HW228402   3.799   2.176   6.175 -2.6268  0.2821 -2.5677
 7159SOL    HW328403   3.867   2.297   6.116  0.2184  0.4303  0.7327
 7159SOL    MW428404   3.818   2.260   6.178 -0.6845 -0.1492 -0.2878
 7160SOL     OW28405   0.161   0.289   2.443  0.3137  0.3677 -0.1025
 7160SOL    HW228406   0.112   0.225   2.495  2.6582 -1.7974 -0.3018
 7160SOL    HW328407   0.138   0.268   2.353 -1.9923  2.6052 -0.1334
 7160SOL    MW428408   0.152   0.278   2.438  0.3188  0.3772 -0.1329
 7161SOL     OW28409   1.088   0.088   1.378  0.2813  0.0604  0.4005
 7161SOL    HW228410   1.023   0.018   1.388 -0.0750  0.5189  1.3994
 7161SOL    HW328411   1.140   0.084   1.458  1.5871 -0.3773 -0.4351
 7161SOL    MW428412   1.087   0.078   1.390  0.4066  0.0631  0.4221
 7162SOL     OW28413   0.611   0.350   2.833 -0.2502  0.0398  0.7167
 7162SOL    HW228414   0.606   0.304   2.917  1.3109 -1.2793  0.1354
 7162SOL    HW328415   0.584   0.440   2.854 -1.1587 -0.5679  2.3440
 7162SOL    MW428416   0.607   0.356   2.847 -0.1641 -0.2145  0.8547
 7163SOL     OW28417   5.273   3.081   1.703  0.5089 -0.1618  0.7800
 7163SOL    HW228418   5.187   3.063   1.664  0.4718  0.4125  0.5997
 7163SOL    HW328419   5.279   3.017   1.774 -0.2289  0.0384  1.0378
 7163SOL    MW428420   5.262   3.070   1.707  0.4067 -0.0596  0.7902
 7164SOL     OW28421   2.386   1.940   6.124  0.5163 -0.5908 -0.0837
 7164SOL    HW228422   2.311   1.986   6.162  1.0645  0.1320  0.1455
 7164SOL    HW328423   2.448   2.010   6.104  1.8883 -1.3239  1.4039
 7164SOL    MW428424   2.384   1.955   6.126  0.7697 -0.5921  0.1428
 7165SOL     OW28425   1.360   1.144   5.347 -0.0892 -0.2234  0.1329
 7165SOL    HW228426   1.437   1.169   5.297  0.0657 -1.3337 -0.2080
 7165SOL    HW328427   1.328   1.226   5.384  0.6117  0.4106 -0.6255
 7165SOL    MW428428   1.366   1.158   5.345  0.0237 -0.2862 -0.0121
 7166SOL     OW28429   4.598   1.836   4.902 -0.2242 -0.4745 -0.1252
 7166SOL    HW228430   4.516   1.803   4.866  0.1917 -3.4077  1.3311
 7166SOL    HW328431   4.620   1.774   4.972  1.6257  2.0091  1.6589
 7166SOL    MW428432   4.590   1.823   4.906  0.0748 -0.5338  0.3023
 7167SOL     OW28433   0.094   4.688   0.518 -0.3475 -0.2448 -0.3477
 7167SOL    HW228434   0.131   4.610   0.559  0.7323 -0.5763 -1.8657
 7167SOL    HW328435   0.026   4.654   0.459 -0.8898  0.0971  0.0736
 7167SOL    MW428436   0.090   4.673   0.515 -0.2766 -0.2434 -0.4924
 7168SOL     OW28437   3.935   6.235   4.286 -0.2302 -0.3524  0.7480
 7168SOL    HW228438   3.890   6.178   4.223  0.2208  0.9183 -0.7742
 7168SOL    HW328439   3.986   6.174   4.341 -1.8436 -1.6098  0.9299
 7168SOL    MW428440   3.936   6.219   4.285 -0.3836 -0.3507  0.5711
 7169SOL     OW28441   3.656   2.920   2.294 -0.0025  0.3096 -0.1718
 7169SOL    HW228442   3.689   2.835   2.322 -4.4063 -1.0272  1.7967
 7169SOL    HW328443   3.642   2.968   2.376 -0.1998  1.8679 -1.0884
 7169SOL    MW428444   3.659   2.915   2.309 -0.6096  0.3388 -0.0330
 7170SOL     OW28445   5.081   2.655   5.165  0.2002  0.7774  0.1160
 7170SOL    HW228446   5.056   2.737   5.208  2.0098  1.9107 -0.8656
 7170SOL    HW328447   5.125   2.683   5.084  1.0033 -1.1615 -0.1651
 7170SOL    MW428448   5.084   2.669   5.160  0.5449  0.6711 -0.0506
 7171SOL     OW28449   6.140   1.127   2.035 -0.0907 -0.1287  0.6909
 7171SOL    HW228450   6.054   1.161   2.010 -0.3308 -1.5033 -0.5137
 7171SOL    HW328451   6.196   1.148   1.960 -0.6396 -3.6606 -0.9073
 7171SOL    MW428452   6.136   1.134   2.022 -0.1948 -0.7760  0.3211
 7172SOL     OW28453   2.298   4.114   4.414  0.0151 -0.0478  0.1589
 7172SOL    HW228454   2.274   4.154   4.497  0.8147  1.5582 -0.3486
 7172SOL    HW328455   2.301   4.020   4.433  1.0578  0.3373  2.1592
 7172SOL    MW428456   2.295   4.107   4.427  0.2582  0.2149  0.3559
 7173SOL     OW28457   4.266   4.425   0.640 -0.2845  0.1217  0.0425
 7173SOL    HW228458   4.252   4.466   0.725  1.4835  0.5173  0.1836
 7173SOL    HW328459   4.190   4.369   0.628 -1.9340  2.1326  0.6069
 7173SOL    MW428460   4.254   4.423   0.650 -0.2689  0.4392  0.1356
 7174SOL     OW28461   0.020   2.413   0.861  0.0268  0.1047 -0.0271
 7174SOL    HW228462  -0.047   2.344   0.858  1.4910 -1.5839  2.4977
 7174SOL    HW328463  -0.020   2.483   0.911 -0.1531 -0.5708  0.7996
 7174SOL    MW428464   0.006   2.413   0.867  0.1963 -0.2072  0.4151
 7175SOL     OW28465   5.388   2.020   3.665 -0.3004 -0.2259  0.3700
 7175SOL    HW228466   5.303   2.032   3.706  0.1518 -0.3764  1.4020
 7175SOL    HW328467   5.380   2.059   3.579 -2.4464 -3.1417 -0.9159
 7175SOL    MW428468   5.376   2.026   3.659 -0.5239 -0.6305  0.3365
 7176SOL     OW28469   5.261   2.049   0.916 -0.0595 -0.5217 -0.1818
 7176SOL    HW228470   5.191   2.054   0.851 -1.1438  1.0204  1.0397
 7176SOL    HW328471   5.300   2.136   0.917  0.8414 -0.9199  0.2614
 7176SOL    MW428472   5.257   2.061   0.908 -0.0837 -0.3708  0.0378
 7177SOL     OW28473   3.927   1.126   4.699  0.4399 -0.9122  0.2562
 7177SOL    HW228474   3.856   1.084   4.747  1.4790 -0.9175  1.8703
 7177SOL    HW328475   3.931   1.214   4.735  0.3332 -0.4307 -0.8618
 7177SOL    MW428476   3.918   1.132   4.710  0.5629 -0.8494  0.3217
 7178SOL     OW28477   3.823   6.323   5.629 -0.2551  0.2600 -0.2190
 7178SOL    HW228478   3.853   6.244   5.583  0.6994 -0.6391  1.7995
 7178SOL    HW328479   3.903   6.375   5.640 -0.4881  0.5124  0.3022
 7178SOL    MW428480   3.838   6.319   5.624 -0.1599  0.1747  0.1161
 7179SOL     OW28481   1.006   3.644   6.199  0.0526 -0.3468  0.1250
 7179SOL    HW228482   1.039   3.675   6.283 -2.0202 -0.3667  0.9988
 7179SOL    HW328483   1.071   3.674   6.135 -0.0518  2.7269  1.3003
 7179SOL    MW428484   1.019   3.652   6.202 -0.2346  0.0561  0.3954
 7180SOL     OW28485   3.679   3.160   2.943  0.4149  0.4298  0.0055
 7180SOL    HW228486   3.632   3.192   3.020  0.5568  0.6196  0.0159
 7180SOL    HW328487   3.653   3.220   2.873 -0.7475 -0.5401 -0.4094
 7180SOL    MW428488   3.670   3.172   2.944  0.2802  0.3269 -0.0479
 7181SOL     OW28489   2.326   1.810   1.899  0.9399 -0.3057 -0.2950
 7181SOL    HW228490   2.269   1.870   1.948  3.3739 -0.4533  3.0404
 7181SOL    HW328491   2.369   1.865   1.834  1.4253  1.1405  1.1946
 7181SOL    MW428492   2.324   1.825   1.897  1.3250 -0.1344  0.3416
 7182SOL     OW28493   4.933   1.312   1.736  0.4455 -0.3284  0.9155
 7182SOL    HW228494   4.951   1.345   1.648  0.6705 -1.1338  0.6496
 7182SOL    HW328495   4.887   1.229   1.721 -0.6615  0.1423  1.5690
 7182SOL    MW428496   4.929   1.305   1.722  0.3292 -0.3726  0.9667
 7183SOL     OW28497   4.625   2.498   2.099 -0.0949  0.1121  0.1549
 7183SOL    HW228498   4.581   2.413   2.094  1.6956 -0.9018  0.8836
 7183SOL    HW328499   4.553   2.561   2.108 -1.4327 -1.3817  0.4792
 7183SOL    MW428500   4.610   2.495   2.099 -0.0352 -0.2188  0.2938
 7184SOL     OW28501   6.300   1.312   6.353 -0.1109  0.1653 -0.5368
 7184SOL    HW228502   6.333   1.328   6.441 -1.1230 -1.4711  0.1758
 7184SOL    HW328503   6.367   1.256   6.312 -0.4850 -0.5584 -0.1734
 7184SOL    MW428504   6.313   1.307   6.359 -0.2938 -0.1461 -0.3949
 7185SOL     OW28505   1.335   2.717   2.156  0.0079  0.5659  0.1626
 7185SOL    HW228506   1.408   2.738   2.098  0.1986 -0.1814  0.1266
 7185SOL    HW328507   1.359   2.634   2.196  0.0397  1.2270  1.5741
 7185SOL    MW428508   1.348   2.709   2.154  0.0373  0.5546  0.3441
 7186SOL     OW28509   6.035   1.769   5.707 -0.4429  0.4992 -0.7759
 7186SOL    HW228510   6.024   1.864   5.706  0.6171  0.6522 -0.2413
 7186SOL    HW328511   6.119   1.754   5.662  0.5258  0.0282  1.0514
 7186SOL    MW428512   6.045   1.779   5.701 -0.1753  0.4572 -0.4643
 7187SOL     OW28513   0.874   2.810   3.475  0.3776 -0.1034  0.2939
 7187SOL    HW228514   0.844   2.725   3.510 -2.4657  0.8332  0.3669
 7187SOL    HW328515   0.906   2.857   3.552  0.3361 -0.4580  0.5342
 7187SOL    MW428516   0.874   2.805   3.490 -0.0031 -0.0266  0.3352
 7188SOL     OW28517   2.837   3.547   5.586  0.3876 -0.0107 -0.6708
 7188SOL    HW228518   2.750   3.586   5.582  0.6011  0.5769  0.1705
 7188SOL    HW328519   2.823   3.462   5.629  0.2442  0.1218 -0.4562
 7188SOL    MW428520   2.824   3.541   5.591  0.3968  0.0843 -0.5315
 7189SOL     OW28521   1.523   4.933   1.808  0.2383  0.2086  0.2675
 7189SOL    HW228522   1.486   5.015   1.776 -0.5436 -0.0769  0.4113
 7189SOL    HW328523   1.460   4.866   1.781 -0.1644 -0.1067  1.8696
 7189SOL    MW428524   1.510   4.935   1.801  0.0820  0.1293  0.4978
 7190SOL     OW28525   2.903   5.783   0.808 -0.4280 -0.0008 -0.0379
 7190SOL    HW228526   2.982   5.827   0.775  0.9962 -1.6635  0.9718
 7190SOL    HW328527   2.833   5.815   0.752  1.1412  0.7186 -1.7020
 7190SOL    MW428528   2.904   5.793   0.796 -0.0330 -0.1253 -0.1243
 7191SOL     OW28529   5.380   5.896   6.019 -1.0694 -0.7603  0.0182
 7191SOL    HW228530   5.430   5.830   5.973 -0.1862 -0.3945  0.4193
 7191SOL    HW328531   5.309   5.848   6.062  0.2976 -1.6597  1.3619
 7191SOL    MW428532   5.377   5.881   6.019 -0.7725 -0.8307  0.2484
 7192SOL     OW28533   1.537   3.643   5.548  0.2415 -0.4856 -0.1502
 7192SOL    HW228534   1.532   3.681   5.636 -0.1589 -1.2473  0.1595
 7192SOL    HW328535   1.447   3.618   5.527 -0.3193  2.6500 -2.1355
 7192SOL    MW428536   1.525   3.645   5.557  0.1147 -0.1724 -0.3713
 7193SOL     OW28537   3.923   1.871   5.408 -0.2072  0.1024  0.2757
 7193SOL    HW228538   3.992   1.905   5.351 -0.9563 -0.8288 -1.2722
 7193SOL    HW328539   3.906   1.783   5.374 -1.3710 -0.1172  1.3609
 7193SOL    MW428540   3.930   1.864   5.396 -0.4596 -0.0494  0.2147
 7194SOL     OW28541   1.801   5.974   4.129 -0.4574  0.8832 -0.3586
 7194SOL    HW228542   1.854   5.913   4.076 -0.9849  1.7019 -1.8970
 7194SOL    HW328543   1.832   5.961   4.218  0.3037 -0.7446 -0.8177
 7194SOL    MW428544   1.812   5.964   4.134 -0.4266  0.7765 -0.6221
 7195SOL     OW28545   6.137   1.286   4.608  0.3863 -0.3075  0.4487
 7195SOL    HW228546   6.171   1.330   4.530 -0.5557 -0.1830  0.1031
 7195SOL    HW328547   6.058   1.242   4.578 -1.1902  1.4800  1.7823
 7195SOL    MW428548   6.131   1.286   4.594  0.0540 -0.0552  0.5790
 7196SOL     OW28549   2.053   0.865   2.210 -0.1647  0.0673  0.7287
 7196SOL    HW228550   2.055   0.891   2.118  0.1664  2.7135  1.4149
 7196SOL    HW328551   1.962   0.879   2.238  0.2291  1.6560  1.3590
 7196SOL    MW428552   2.041   0.870   2.202 -0.0691  0.6260  0.9024
 7197SOL     OW28553   1.672   3.339   3.578 -0.3825  0.3723  0.2901
 7197SOL    HW228554   1.613   3.413   3.566  0.0705  0.6823 -0.0641
 7197SOL    HW328555   1.759   3.379   3.584  0.1045 -0.2424 -1.8777
 7197SOL    MW428556   1.676   3.354   3.577 -0.2585  0.3321 -0.0426
 7198SOL     OW28557   4.478   0.280   6.111 -0.0195 -0.3632  0.1790
 7198SOL    HW228558   4.414   0.229   6.061  0.5339 -1.3254  0.4375
 7198SOL    HW328559   4.543   0.306   6.046  0.3696 -1.0812  0.2743
 7198SOL    MW428560   4.478   0.277   6.096  0.1049 -0.5849  0.2257
 7199SOL     OW28561   6.422   1.868   5.458  0.2082  0.1775  0.2241
 7199SOL    HW228562   6.432   1.869   5.363 -0.2794 -1.0960  0.1470
 7199SOL    HW328563   6.351   1.930   5.475 -0.0321  0.0481 -0.2890
 7199SOL    MW428564   6.414   1.876   5.448  0.1121 -0.0076  0.1462
 7200SOL     OW28565   2.254   0.166   0.357 -0.0385 -0.0052  0.2406
 7200SOL    HW228566   2.271   0.072   0.350  1.2978  0.2432 -0.1365
 7200SOL    HW328567   2.180   0.182   0.299 -0.1956 -0.8036  0.2126
 7200SOL    MW428568   2.247   0.156   0.348  0.1171 -0.0777  0.1872
 7201SOL     OW28569   4.353   2.542   0.210  0.1525 -0.0855  0.2576
 7201SOL    HW228570   4.290   2.499   0.268 -0.0567 -0.1648 -0.0240
 7201SOL    HW328571   4.403   2.600   0.267 -0.0195 -0.1973  0.5246
 7201SOL    MW428572   4.351   2.544   0.225  0.1022 -0.1107  0.2557
 7202SOL     OW28573   3.848   0.695   2.473  0.2532  0.3347 -0.5049
 7202SOL    HW228574   3.943   0.690   2.478  0.2165 -0.2344 -0.1843
 7202SOL    HW328575   3.830   0.763   2.408  0.8740  0.5447 -0.4613
 7202SOL    MW428576   3.858   0.703   2.465  0.3302  0.2873 -0.4569
 7203SOL     OW28577   5.700   5.120   6.299  0.2162  0.5887  0.5712
 7203SOL    HW228578   5.619   5.069   6.310  1.0729 -1.3692 -1.4701
 7203SOL    HW328579   5.670   5.211   6.293 -1.8959 -0.1022 -0.3978
 7203SOL    MW428580   5.685   5.125   6.300  0.0506  0.2392  0.1740
 7204SOL     OW28581   1.355   2.010   1.313 -0.5642 -0.2554 -0.0542
 7204SOL    HW228582   1.345   1.926   1.267 -1.3192 -0.8434  1.1449
 7204SOL    HW328583   1.368   1.986   1.405  0.6129  0.9055  0.1175
 7204SOL    MW428584   1.356   1.996   1.319 -0.5085 -0.1798  0.1266
 7205SOL     OW28585   2.842   3.979   6.200 -0.2127  0.2842  0.1353
 7205SOL    HW228586   2.864   4.029   6.279 -1.0012  0.4100  0.2823
 7205SOL    HW328587   2.924   3.975   6.151  0.3261  0.0579  1.0367
 7205SOL    MW428588   2.856   3.985   6.204 -0.2457  0.2710  0.2736
 7206SOL     OW28589   2.219   1.527   0.373  0.2168 -0.0041 -0.2995
 7206SOL    HW228590   2.170   1.531   0.455  0.1217  0.4386 -0.3760
 7206SOL    HW328591   2.306   1.496   0.399 -0.6238 -2.7293 -0.4074
 7206SOL    MW428592   2.224   1.523   0.387  0.0933 -0.3053 -0.3238
 7207SOL     OW28593   1.825   1.697   0.513 -0.1501  0.1360 -0.2122
 7207SOL    HW228594   1.919   1.716   0.516 -0.1664  0.3482 -0.8739
 7207SOL    HW328595   1.792   1.749   0.440 -0.3102 -1.8921 -1.6641
 7207SOL    MW428596   1.833   1.706   0.504 -0.1734 -0.1036 -0.4910
 7208SOL     OW28597   5.224   5.457   0.940  0.4978 -0.1550 -0.0515
 7208SOL    HW228598   5.142   5.424   0.976  0.3833  1.3718  1.1855
 7208SOL    HW328599   5.212   5.453   0.845 -0.1234 -2.0238  0.0690
 7208SOL    MW428600   5.212   5.452   0.932  0.4007 -0.2001  0.1276
 7209SOL     OW28601   1.762   4.701   2.825 -0.1136 -0.7315  0.2706
 7209SOL    HW228602   1.751   4.610   2.850 -1.9023 -0.9556 -1.1063
 7209SOL    HW328603   1.716   4.709   2.741  2.3160  0.8112 -1.0440
 7209SOL    MW428604   1.755   4.690   2.817 -0.0291 -0.5575 -0.0845
 7210SOL     OW28605   4.087   1.385   3.362 -0.2575 -0.1575  0.0797
 7210SOL    HW228606   4.114   1.423   3.446  3.4395 -0.5885 -0.7230
 7210SOL    HW328607   4.087   1.459   3.301 -2.4497  0.0656  0.2706
 7210SOL    MW428608   4.090   1.400   3.365 -0.0590 -0.1850 -0.0010
 7211SOL     OW28609   1.513   2.452   1.956  0.1969  0.1334  0.1329
 7211SOL    HW228610   1.563   2.437   2.036 -2.3551 -0.1983  1.7460
 7211SOL    HW328611   1.499   2.547   1.954 -1.1150 -0.0306  0.9779
 7211SOL    MW428612   1.518   2.463   1.966 -0.3129  0.0680  0.4572
 7212SOL     OW28613   6.378   3.892   5.768  0.8283  0.7786 -0.0883
 7212SOL    HW228614   6.377   3.980   5.807 -0.9080  0.1078  1.5415
 7212SOL    HW328615   6.290   3.858   5.783  0.6757 -0.3452 -2.9344
 7212SOL    MW428616   6.366   3.899   5.775  0.5791  0.5418 -0.2488
 7213SOL     OW28617   1.070   5.042   5.381 -0.0424 -0.1698 -0.0347
 7213SOL    HW228618   1.123   4.994   5.317 -0.4069  1.1846 -1.4164
 7213SOL    HW328619   1.058   4.981   5.454  1.0160 -1.4978 -0.9399
 7213SOL    MW428620   1.075   5.028   5.382  0.0491 -0.1663 -0.3364
 7214SOL     OW28621   5.386   5.607   4.645  0.2709  0.0166  0.0688
 7214SOL    HW228622   5.347   5.587   4.731 -1.5308  0.2562 -0.6397
 7214SOL    HW328623   5.385   5.524   4.598 -0.1238  0.1866 -0.2280
 7214SOL    MW428624   5.380   5.594   4.650 -0.0189  0.0706 -0.0638
 7215SOL     OW28625   2.193   1.322   0.853  0.3491 -0.0657 -0.0306
 7215SOL    HW228626   2.156   1.282   0.775 -0.6316 -0.1093  0.4462
 7215SOL    HW328627   2.179   1.258   0.922 -1.8175  1.2853  0.8850
 7215SOL    MW428628   2.186   1.309   0.852 -0.0662  0.1068  0.1531
 7216SOL     OW28629   5.950   6.376   5.728 -0.4140 -0.1758  0.3579
 7216SOL    HW228630   5.945   6.324   5.648  0.0076  0.3681 -0.0300
 7216SOL    HW328631   5.932   6.465   5.700 -0.7071 -0.0421  0.9459
 7216SOL    MW428632   5.947   6.381   5.714 -0.3971 -0.0864  0.3843
 7217SOL     OW28633   0.990   6.050   5.911 -0.1219  0.1025 -0.3283
 7217SOL    HW228634   1.065   6.084   5.862  0.3710 -1.3426 -0.6486
 7217SOL    HW328635   0.978   5.961   5.876 -0.1383 -0.7648  1.7266
 7217SOL    MW428636   0.999   6.043   5.900 -0.0590 -0.2026 -0.0995
 7218SOL     OW28637   1.997   5.232   0.106 -0.4245 -0.0192 -0.1452
 7218SOL    HW228638   1.975   5.141   0.087 -1.7141  0.1879  0.3049
 7218SOL    HW328639   1.924   5.264   0.158 -0.7793  1.7400 -1.6247
 7218SOL    MW428640   1.985   5.224   0.110 -0.6415  0.2403 -0.2810
 7219SOL     OW28641   0.813   0.659   0.427 -0.0576 -0.1166 -0.3412
 7219SOL    HW228642   0.866   0.587   0.460 -0.2819 -0.2357 -0.2382
 7219SOL    HW328643   0.873   0.733   0.421 -0.1288  0.0441  0.8033
 7219SOL    MW428644   0.828   0.659   0.430 -0.0966 -0.1111 -0.1766
 7220SOL     OW28645   1.229   1.678   4.580 -0.6007  0.1977  1.4687
 7220SOL    HW228646   1.271   1.738   4.518  0.7531  0.3191  2.4850
 7220SOL    HW328647   1.294   1.663   4.648 -0.4886 -3.2011  0.8025
 7220SOL    MW428648   1.243   1.684   4.581 -0.4073 -0.2347  1.5149
 7221SOL     OW28649   0.763   5.320   5.139 -0.1391 -0.1132 -0.0372
 7221SOL    HW228650   0.778   5.226   5.155 -1.6095 -0.0905  1.7662
 7221SOL    HW328651   0.669   5.327   5.125 -0.3333  1.2993  1.6577
 7221SOL    MW428652   0.753   5.308   5.139 -0.3587  0.0761  0.4244
 7222SOL     OW28653   4.525   2.244   2.119 -0.1210 -0.4704 -0.1242
 7222SOL    HW228654   4.610   2.233   2.160 -0.1106 -1.9514 -0.4960
 7222SOL    HW328655   4.472   2.289   2.185  0.9539  0.5350  0.0794
 7222SOL    MW428656   4.529   2.249   2.133  0.0221 -0.5332 -0.1464
 7223SOL     OW28657   2.364   6.261   4.432  0.0014  0.1448 -0.4569
 7223SOL    HW228658   2.378   6.218   4.517 -0.1641  0.0006 -0.5025
 7223SOL    HW328659   2.295   6.325   4.449 -1.1839 -0.9838 -0.8433
 7223SOL    MW428660   2.357   6.264   4.446 -0.1769 -0.0231 -0.5139
 7224SOL     OW28661   3.873   4.197   4.734  0.2403 -0.0029 -0.1379
 7224SOL    HW228662   3.878   4.193   4.638 -0.1140 -2.5440 -0.0947
 7224SOL    HW328663   3.943   4.139   4.764 -0.3874 -0.1201  1.1381
 7224SOL    MW428664   3.883   4.189   4.725  0.1107 -0.3536  0.0361
 7225SOL     OW28665   3.069   2.471   6.049  0.0820  0.5846 -0.1850
 7225SOL    HW228666   3.000   2.534   6.033 -0.1791  0.0171 -1.4247
 7225SOL    HW328667   3.052   2.438   6.137 -1.5581  0.0651 -0.6720
 7225SOL    MW428668   3.058   2.475   6.058 -0.1689  0.4412 -0.4128
 7226SOL     OW28669   6.347   1.508   0.854  0.2781 -0.3880  0.0128
 7226SOL    HW228670   6.353   1.445   0.925  4.0198 -1.3821 -0.9703
 7226SOL    HW328671   6.377   1.591   0.891  0.3142 -0.4221  0.0586
 7226SOL    MW428672   6.352   1.511   0.868  0.7766 -0.5237 -0.1109
 7227SOL     OW28673   1.914   3.802   3.503 -0.1286  0.1082 -0.3899
 7227SOL    HW228674   1.913   3.833   3.594  0.0828 -2.3244  0.5242
 7227SOL    HW328675   2.006   3.781   3.487 -0.2002  0.3401 -1.1144
 7227SOL    MW428676   1.926   3.803   3.513 -0.1102 -0.1822 -0.3649
 7228SOL     OW28677   5.415   2.644   3.355  0.3402 -0.2593  0.3558
 7228SOL    HW228678   5.402   2.611   3.444  0.0188  1.0205  0.8174
 7228SOL    HW328679   5.507   2.670   3.352 -0.0207  1.1597  0.8630
 7228SOL    MW428680   5.425   2.643   3.366  0.2501  0.0968  0.4836
 7229SOL     OW28681   2.908   1.910   3.639  1.2425  0.0359 -0.0284
 7229SOL    HW228682   2.975   1.927   3.705  2.5639  0.5102 -1.4492
 7229SOL    HW328683   2.863   1.994   3.627  0.7623 -0.1389  0.5063
 7229SOL    MW428684   2.911   1.923   3.646  1.3535  0.0754 -0.1453
 7230SOL     OW28685   5.290   3.135   0.941 -0.1105 -0.8972 -0.3970
 7230SOL    HW228686   5.275   3.176   0.856  2.1984 -0.4543 -0.6501
 7230SOL    HW328687   5.322   3.047   0.920  2.3862 -0.1249 -0.1208
 7230SOL    MW428688   5.292   3.128   0.927  0.5235 -0.7369 -0.3939
 7231SOL     OW28689   5.028   2.815   1.289  0.1046 -0.5895  0.0139
 7231SOL    HW228690   5.093   2.753   1.255 -0.5950 -2.1832  1.4293
 7231SOL    HW328691   4.948   2.763   1.298 -0.4210  0.4253  1.5628
 7231SOL    MW428692   5.026   2.800   1.286 -0.0571 -0.6659  0.4050
 7232SOL     OW28693   6.099   0.643   2.542 -0.4139  0.1073  0.0350
 7232SOL    HW228694   6.158   0.647   2.617  0.0292 -0.4437 -0.2696
 7232SOL    HW328695   6.020   0.688   2.570 -0.2406 -0.0712  0.8226
 7232SOL    MW428696   6.097   0.650   2.555 -0.3326  0.0111  0.0988
 7233SOL     OW28697   4.543   2.960   0.553 -0.1146 -0.1675  0.0361
 7233SOL    HW228698   4.626   2.915   0.567  0.0912 -0.1711 -1.0531
 7233SOL    HW328699   4.477   2.893   0.564  0.1727 -0.6944 -1.2682
 7233SOL    MW428700   4.545   2.945   0.556 -0.0495 -0.2375 -0.2797
 7234SOL     OW28701   1.081   0.215   5.109  0.4314 -0.4514 -0.6213
 7234SOL    HW228702   1.049   0.261   5.031 -2.0652 -1.7391 -0.4398
 7234SOL    HW328703   1.095   0.125   5.080  0.8916 -0.6173  0.0912
 7234SOL    MW428704   1.078   0.209   5.094  0.1627 -0.6432 -0.5033
 7235SOL     OW28705   2.457   0.750   1.631  0.0885  0.5665  0.5656
 7235SOL    HW228706   2.476   0.810   1.559 -2.2076  1.8890  0.9498
 7235SOL    HW328707   2.490   0.665   1.602 -1.1601  0.9336 -2.2939
 7235SOL    MW428708   2.464   0.747   1.618 -0.3792  0.7894  0.2390
 7236SOL     OW28709   5.821   0.748   0.979 -0.2810  0.1909  0.1463
 7236SOL    HW228710   5.864   0.825   1.014 -0.0174 -0.6956  1.8586
 7236SOL    HW328711   5.733   0.750   1.015  0.2550 -1.1803  1.6979
 7236SOL    MW428712   5.815   0.758   0.988 -0.1755 -0.1070  0.5769
 7237SOL     OW28713   3.373   3.932   5.182  0.4637  0.1472  0.4548
 7237SOL    HW228714   3.428   3.939   5.261 -0.5813 -1.7742  1.4184
 7237SOL    HW328715   3.351   3.839   5.176 -0.9639  0.5362 -1.1042
 7237SOL    MW428716   3.377   3.921   5.192  0.1375 -0.0549  0.3763
 7238SOL     OW28717   0.768   4.502   3.133  0.0185  0.0437 -0.1771
 7238SOL    HW228718   0.858   4.527   3.116 -0.6703  1.9591 -1.2510
 7238SOL    HW328719   0.750   4.534   3.222 -0.2576  1.7443 -0.8098
 7238SOL    MW428720   0.777   4.509   3.143 -0.1088  0.5208 -0.4023
 7239SOL     OW28721   1.448   1.138   0.154 -0.3156 -0.6677 -0.2006
 7239SOL    HW228722   1.464   1.043   0.156  1.6557 -0.3881 -0.4024
 7239SOL    HW328723   1.358   1.147   0.123 -0.1059 -2.4467 -1.4626
 7239SOL    MW428724   1.438   1.126   0.150 -0.0278 -0.8655 -0.3937
 7240SOL     OW28725   4.730   5.365   1.639 -0.1954  0.6495  0.4443
 7240SOL    HW228726   4.749   5.459   1.636  1.2971  0.3576 -1.5169
 7240SOL    HW328727   4.711   5.347   1.731  0.4379  2.6928  1.0314
 7240SOL    MW428728   4.730   5.375   1.650  0.0851  0.8806  0.2630
 7241SOL     OW28729   2.471   1.330   0.809 -0.0811  0.1788 -0.0172
 7241SOL    HW228730   2.485   1.324   0.715 -0.4599  0.0887 -0.0673
 7241SOL    HW328731   2.376   1.334   0.819 -0.0142  1.5057  0.2760
 7241SOL    MW428732   2.460   1.330   0.798 -0.1223  0.3420  0.0148
 7242SOL     OW28733   4.098   5.531   2.187  0.4620  0.1910 -0.4361
 7242SOL    HW228734   4.048   5.606   2.157  0.8960  0.9744  0.7179
 7242SOL    HW328735   4.032   5.465   2.209  0.1029  0.0210 -1.9254
 7242SOL    MW428736   4.083   5.532   2.186  0.4719  0.2720 -0.4804
 7243SOL     OW28737   0.318   1.830   0.171 -0.0339  0.3043 -0.2645
 7243SOL    HW228738   0.278   1.750   0.135 -0.2076 -0.8045  2.2321
 7243SOL    HW328739   0.389   1.850   0.110  0.4977 -2.2021 -0.5861
 7243SOL    MW428740   0.322   1.822   0.158  0.0133 -0.1727  0.0224
 7244SOL     OW28741   0.142   6.212   1.672  0.3201  0.2875 -0.3064
 7244SOL    HW228742   0.126   6.259   1.754 -1.5355  0.4653 -0.7268
 7244SOL    HW328743   0.056   6.180   1.645  1.1066 -0.9517 -1.4906
 7244SOL    MW428744   0.129   6.214   1.679  0.1791  0.1475 -0.5181
 7245SOL     OW28745   5.002   2.325   2.818 -0.2359 -0.2844 -0.0009
 7245SOL    HW228746   5.031   2.235   2.833  1.2022  0.0547 -0.5347
 7245SOL    HW328747   4.924   2.334   2.873 -1.3575 -2.3140 -1.1517
 7245SOL    MW428748   4.996   2.314   2.827 -0.1942 -0.5074 -0.2232
 7246SOL     OW28749   2.036   0.050   3.091 -0.1049 -0.0926 -0.2651
 7246SOL    HW228750   1.945   0.023   3.106  0.8053 -1.7407  3.2551
 7246SOL    HW328751   2.072  -0.018   3.034 -0.6631 -0.2411 -0.4458
 7246SOL    MW428752   2.029   0.037   3.085 -0.0584 -0.3296  0.1755
 7247SOL     OW28753   0.660   1.851   3.517  1.0100  0.6561 -0.0261
 7247SOL    HW228754   0.699   1.800   3.589  1.7959 -0.0728 -0.9339
 7247SOL    HW328755   0.727   1.851   3.449 -0.2976 -0.0307 -1.3768
 7247SOL    MW428756   0.674   1.844   3.518  0.9412  0.4693 -0.3241
 7248SOL     OW28757   2.664   1.870   0.792 -0.0536 -0.1309 -0.2159
 7248SOL    HW228758   2.698   1.834   0.873 -0.7617 -1.7441 -0.6051
 7248SOL    HW328759   2.687   1.806   0.725  1.9205  1.8761 -1.6456
 7248SOL    MW428760   2.672   1.857   0.794  0.1134 -0.0790 -0.4559
 7249SOL     OW28761   0.543   1.836   4.684 -0.0770  0.0071  0.3661
 7249SOL    HW228762   0.470   1.787   4.721 -0.7067 -0.2011 -1.1191
 7249SOL    HW328763   0.524   1.843   4.591  1.2456  0.9216  0.1278
 7249SOL    MW428764   0.531   1.831   4.677  0.0144  0.1003  0.1387
 7250SOL     OW28765   3.242   4.446   5.637 -0.3663 -0.5740 -0.5420
 7250SOL    HW228766   3.304   4.395   5.690  0.1101  0.5891  0.0377
 7250SOL    HW328767   3.297   4.500   5.580 -0.7533  1.6780  1.0986
 7250SOL    MW428768   3.258   4.446   5.636 -0.3545 -0.1234 -0.2490
 7251SOL     OW28769   1.879   5.700   0.233 -0.3948  0.4611  0.4104
 7251SOL    HW228770   1.804   5.760   0.226 -1.5782 -1.0474 -0.6176
 7251SOL    HW328771   1.955   5.755   0.217 -1.3616  1.8541  0.3725
 7251SOL    MW428772   1.879   5.715   0.230 -0.6785  0.4459  0.2698
 7252SOL     OW28773   5.587   2.375   4.480  0.4535 -0.3370 -0.1887
 7252SOL    HW228774   5.589   2.460   4.437 -0.6941 -0.3077 -0.2266
 7252SOL    HW328775   5.539   2.391   4.561 -0.0389 -0.9942 -0.3391
 7252SOL    MW428776   5.581   2.388   4.485  0.2371 -0.4199 -0.2136
 7253SOL     OW28777   2.133   1.536   4.677  0.0957  0.0619  0.0880
 7253SOL    HW228778   2.225   1.536   4.652 -0.0752  2.5449 -0.8374
 7253SOL    HW328779   2.134   1.514   4.770  1.4810 -1.1729 -0.1756
 7253SOL    MW428780   2.145   1.534   4.686  0.2559  0.2265 -0.0689
 7254SOL     OW28781   5.777   5.818   4.186 -0.0867 -0.0211 -0.3542
 7254SOL    HW228782   5.795   5.838   4.094  2.7968 -1.2478 -0.1647
 7254SOL    HW328783   5.766   5.723   4.188 -1.8951  0.1679  0.3706
 7254SOL    MW428784   5.778   5.808   4.174  0.0551 -0.1580 -0.2335
 7255SOL     OW28785   2.142   0.076   2.631  0.0303 -0.3724  0.3392
 7255SOL    HW228786   2.123   0.146   2.568 -0.9867  0.5613  1.6297
 7255SOL    HW328787   2.238   0.067   2.629  0.2212  1.3524  0.4324
 7255SOL    MW428788   2.152   0.084   2.622 -0.0787 -0.0216  0.5217
 7256SOL     OW28789   2.472   6.285   2.982 -0.0737  0.0755  0.5339
 7256SOL    HW228790   2.486   6.301   3.075  0.2369  0.3207  0.4480
 7256SOL    HW328791   2.435   6.367   2.949  0.3624  0.1963  0.3322
 7256SOL    MW428792   2.469   6.298   2.990  0.0248  0.1238  0.4960
 7257SOL     OW28793   4.536   1.875   1.288 -0.1721 -0.4807 -0.0634
 7257SOL    HW228794   4.594   1.853   1.215  1.4710 -0.9560  1.3284
 7257SOL    HW328795   4.556   1.810   1.356 -1.5642  0.0138  0.8743
 7257SOL    MW428796   4.546   1.863   1.288 -0.1389 -0.4782  0.2439
 7258SOL     OW28797   2.856   0.690   6.319 -0.0811 -0.3432  0.1721
 7258SOL    HW228798   2.814   0.776   6.315 -0.0080 -0.2507  1.2011
 7258SOL    HW328799   2.898   0.680   6.234  0.0320  0.7017  0.0941
 7258SOL    MW428800   2.856   0.700   6.307 -0.0566 -0.1931  0.2976
 7259SOL     OW28801   4.635   0.429   0.494 -0.2417  0.7909 -0.2400
 7259SOL    HW228802   4.658   0.439   0.586 -2.2103 -0.0678  0.3819
 7259SOL    HW328803   4.560   0.486   0.481  0.0650  0.9647 -1.3476
 7259SOL    MW428804   4.628   0.438   0.504 -0.4609  0.7005 -0.3041
 7260SOL     OW28805   5.815   1.007   2.419  0.2734 -0.0812  0.4020
 7260SOL    HW228806   5.856   1.070   2.479 -0.0450  2.9661 -2.2825
 7260SOL    HW328807   5.723   1.007   2.444  0.4297 -0.2332  1.0011
 7260SOL    MW428808   5.808   1.016   2.430  0.2520  0.3008  0.1269
 7261SOL     OW28809   2.543   5.742   2.632  0.8605  0.0957 -0.0666
 7261SOL    HW228810   2.450   5.765   2.629  0.6493 -0.7591 -0.4636
 7261SOL    HW328811   2.544   5.646   2.626  1.6597 -0.1025  2.1957
 7261SOL    MW428812   2.531   5.732   2.631  0.9381 -0.0433  0.1795
 7262SOL     OW28813   3.170   3.025   4.075 -0.6036 -0.6191  0.2126
 7262SOL    HW228814   3.242   3.060   4.024  2.1942  0.2188  4.2814
 7262SOL    HW328815   3.124   3.102   4.109 -1.6572 -1.1259  0.0051
 7262SOL    MW428816   3.173   3.040   4.073 -0.3735 -0.5754  0.7220
 7263SOL     OW28817   5.594   4.028   3.152 -0.5665  0.1707  0.0321
 7263SOL    HW228818   5.543   4.107   3.138  0.5873  1.2212  1.4487
 7263SOL    HW328819   5.627   4.004   3.065 -1.9982  0.4682 -0.6117
 7263SOL    MW428820   5.592   4.035   3.139 -0.6032  0.3486  0.1340
 7264SOL     OW28821   0.139   0.634   6.149 -0.3557  0.3713 -0.3622
 7264SOL    HW228822   0.156   0.721   6.185 -1.3606  0.1954  0.5748
 7264SOL    HW328823   0.130   0.578   6.226  1.2112 -0.7702 -0.9564
 7264SOL    MW428824   0.140   0.638   6.164 -0.2816  0.1975 -0.3170
 7265SOL     OW28825   1.986   4.263   6.193 -0.3632 -0.4000  0.0002
 7265SOL    HW228826   1.916   4.247   6.257  0.0966 -2.5807  0.0252
 7265SOL    HW328827   2.015   4.352   6.212 -0.5715 -0.7979  2.5274
 7265SOL    MW428828   1.981   4.273   6.204 -0.3300 -0.7402  0.3369
 7266SOL     OW28829   4.143   3.713   3.952  0.5622 -0.2401  0.2913
 7266SOL    HW228830   4.146   3.638   4.012 -2.0311  0.3262  1.2353
 7266SOL    HW328831   4.060   3.704   3.906  1.0111  1.1425 -0.8707
 7266SOL    MW428832   4.132   3.702   3.953  0.2793  0.0170  0.2625
 7267SOL     OW28833   3.602   4.018   1.954 -0.0036 -0.3544 -0.1277
 7267SOL    HW228834   3.526   4.055   1.908  0.9739  2.1550  0.1021
 7267SOL    HW328835   3.588   4.040   2.046  1.2703  0.7370 -0.1636
 7267SOL    MW428836   3.590   4.026   1.960  0.2935  0.1207 -0.1021
 7268SOL     OW28837   4.912   5.800   3.722  0.4196 -0.0154 -0.7344
 7268SOL    HW228838   4.893   5.880   3.771  1.4696 -1.7474  2.8438
 7268SOL    HW328839   4.835   5.745   3.735  0.0963  0.0050 -2.3729
 7268SOL    MW428840   4.899   5.803   3.730  0.5155 -0.2412 -0.4785
 7269SOL     OW28841   5.791   4.857   0.135 -0.3949  0.2363  0.4813
 7269SOL    HW228842   5.710   4.907   0.144 -0.9001 -0.3069 -0.8537
 7269SOL    HW328843   5.809   4.857   0.042  1.7105  1.1854  0.8290
 7269SOL    MW428844   5.783   4.864   0.124 -0.1838  0.2899  0.3511
 7270SOL     OW28845   0.051   5.682   2.088  0.0519  0.0939  0.2153
 7270SOL    HW228846  -0.025   5.626   2.070  1.0445 -0.5076 -2.4938
 7270SOL    HW328847   0.013   5.763   2.122 -1.6699 -0.7363  0.4111
 7270SOL    MW428848   0.036   5.685   2.090 -0.0443 -0.0950 -0.1163
 7271SOL     OW28849   4.303   3.774   1.113 -0.2115  0.0982  0.1875
 7271SOL    HW228850   4.233   3.715   1.083 -0.5456  0.5151  0.1337
 7271SOL    HW328851   4.370   3.715   1.149 -0.4994 -0.3192  0.0524
 7271SOL    MW428852   4.302   3.758   1.114 -0.2936  0.0981  0.1626
 7272SOL     OW28853   3.251   5.041   5.169  0.0482  0.3351 -0.1862
 7272SOL    HW228854   3.290   4.981   5.232  0.6853  0.7239 -0.2022
 7272SOL    HW328855   3.289   5.015   5.085  1.8185  1.9417  0.0491
 7272SOL    MW428856   3.261   5.030   5.166  0.3659  0.5984 -0.1573
 7273SOL     OW28857   0.860   0.994   4.180  0.0303  0.2500  0.4368
 7273SOL    HW228858   0.954   0.996   4.198  0.0636 -1.5577  0.6115
 7273SOL    HW328859   0.819   0.976   4.265 -0.3372 -0.6438  0.0888
 7273SOL    MW428860   0.867   0.992   4.194 -0.0138 -0.1064  0.4139
 7274SOL     OW28861   5.062   1.165   4.201  0.0382 -0.2032 -0.6651
 7274SOL    HW228862   5.143   1.116   4.211  2.3895  3.5416  0.5671
 7274SOL    HW328863   4.997   1.098   4.176  2.2828 -4.2474  2.9251
 7274SOL    MW428864   5.064   1.149   4.199  0.6446 -0.2427 -0.0288
 7275SOL     OW28865   5.877   0.372   1.838  0.7156  0.3044  0.0955
 7275SOL    HW228866   5.782   0.377   1.853  1.0337  1.8747  2.0091
 7275SOL    HW328867   5.886   0.317   1.760 -1.7058 -0.7046  0.4321
 7275SOL    MW428868   5.866   0.366   1.830  0.4381  0.3785  0.3924
 7276SOL     OW28869   2.493   5.698   4.408  0.1098  0.2284 -0.5739
 7276SOL    HW228870   2.407   5.739   4.420  0.6038  1.4300 -1.0226
 7276SOL    HW328871   2.554   5.759   4.449  0.7542 -0.6656 -0.1740
 7276SOL    MW428872   2.489   5.711   4.415  0.2600  0.2690 -0.5804
 7277SOL     OW28873   6.002   5.519   4.023 -0.4759 -0.2450 -0.0324
 7277SOL    HW228874   6.033   5.505   4.113  1.7454 -3.6529 -1.1253
 7277SOL    HW328875   6.074   5.567   3.981 -0.1109 -1.3416 -0.6893
 7277SOL    MW428876   6.016   5.524   4.030 -0.1346 -0.8393 -0.2633
 7278SOL     OW28877   5.513   5.861   3.864 -0.3903  0.3894  0.0977
 7278SOL    HW228878   5.585   5.801   3.879  0.7564  1.8733  0.7700
 7278SOL    HW328879   5.482   5.839   3.776  3.0113  1.7547 -1.6351
 7278SOL    MW428880   5.518   5.850   3.854  0.2098  0.7653 -0.0422
 7279SOL     OW28881   4.614   3.862   5.209  0.2974 -0.1206  0.2867
 7279SOL    HW228882   4.663   3.899   5.136  3.4019 -1.1408  1.6703
 7279SOL    HW328883   4.561   3.792   5.171 -0.2160  1.0712 -1.2921
 7279SOL    MW428884   4.613   3.858   5.195  0.6393 -0.0980  0.2610
 7280SOL     OW28885   4.253   4.108   3.744  0.1252  0.5413  0.2478
 7280SOL    HW228886   4.195   4.037   3.715 -1.2842  1.3856  0.9098
 7280SOL    HW328887   4.341   4.072   3.734 -0.5093 -0.8935 -0.5047
 7280SOL    MW428888   4.257   4.094   3.739 -0.1445  0.4634  0.2358
 7281SOL     OW28889   3.107   0.180   0.291  0.1215 -0.1471  0.1829
 7281SOL    HW228890   3.033   0.219   0.338 -0.4248  1.4339 -1.8477
 7281SOL    HW328891   3.067   0.121   0.227  0.7917 -1.3651  0.8508
 7281SOL    MW428892   3.092   0.177   0.289  0.1378 -0.0992  0.0031
 7282SOL     OW28893   0.429   1.670   4.919 -0.1770 -0.0019 -0.1602
 7282SOL    HW228894   0.356   1.724   4.888  0.2003  1.7105  1.7001
 7282SOL    HW328895   0.414   1.661   5.013  0.1702 -2.6518 -0.2837
 7282SOL    MW428896   0.417   1.676   4.928 -0.0814 -0.1256  0.0690
 7283SOL     OW28897   2.322   0.411   3.753  0.2582  0.1080  0.4887
 7283SOL    HW228898   2.299   0.332   3.803  0.9338  0.1487  0.8715
 7283SOL    HW328899   2.410   0.433   3.783  0.2083  0.8091  0.1243
 7283SOL    MW428900   2.331   0.403   3.764  0.3407  0.2058  0.4911
 7284SOL     OW28901   5.037   2.519   2.619 -0.3015 -0.7434  0.0156
 7284SOL    HW228902   4.964   2.581   2.626  0.8747  0.6332  0.5892
 7284SOL    HW328903   5.018   2.452   2.685 -0.9455 -0.2784  0.3149
 7284SOL    MW428904   5.025   2.519   2.629 -0.2313 -0.5004  0.1307
 7285SOL     OW28905   2.958   0.570   4.481  0.1900 -0.2617 -0.4051
 7285SOL    HW228906   2.968   0.647   4.425 -0.3580 -0.1300 -0.3232
 7285SOL    HW328907   2.904   0.510   4.430 -0.9534  0.1619  0.2713
 7285SOL    MW428908   2.952   0.572   4.467 -0.0332 -0.1884 -0.3051
 7286SOL     OW28909   2.175   3.774   2.970  0.3194  0.6845 -0.1612
 7286SOL    HW228910   2.154   3.742   3.057  3.3057  0.8837  0.7421
 7286SOL    HW328911   2.232   3.706   2.933  0.7089  1.5357 -1.1600
 7286SOL    MW428912   2.180   3.761   2.976  0.7648  0.8231 -0.1738
 7287SOL     OW28913   1.439   2.364   0.013 -0.3667  0.1238  0.3012
 7287SOL    HW228914   1.356   2.384   0.057  0.6687  0.8755  1.9571
 7287SOL    HW328915   1.478   2.295   0.066  0.2877  0.0851 -0.2255
 7287SOL    MW428916   1.433   2.358   0.026 -0.1437  0.2179  0.4502
 7288SOL     OW28917   2.539   0.614   3.726  0.0628 -0.4429  0.2971
 7288SOL    HW228918   2.539   0.696   3.774 -1.0590 -1.4090  2.0538
 7288SOL    HW328919   2.632   0.596   3.710  0.3001  1.7920 -1.3834
 7288SOL    MW428920   2.552   0.622   3.730 -0.0539 -0.2755  0.3071
 7289SOL     OW28921   6.323   2.775   4.144  0.1909 -0.0058 -0.1518
 7289SOL    HW228922   6.272   2.799   4.221 -1.2152  4.2392 -2.1401
 7289SOL    HW328923   6.264   2.722   4.091  0.3976 -1.0381  0.6120
 7289SOL    MW428924   6.309   2.771   4.147  0.0327  0.4181 -0.3134
 7290SOL     OW28925   1.571   4.339   0.893 -0.3047 -0.1719 -0.4003
 7290SOL    HW228926   1.569   4.257   0.845  0.3537 -0.7580  0.5334
 7290SOL    HW328927   1.499   4.333   0.955 -1.5998  0.8792 -1.7212
 7290SOL    MW428928   1.561   4.328   0.895 -0.3887 -0.1105 -0.4514
 7291SOL     OW28929   6.210   2.114   4.691 -0.5203 -0.3287  0.4950
 7291SOL    HW228930   6.181   2.075   4.609 -1.3240  0.8039  0.2203
 7291SOL    HW328931   6.138   2.099   4.752 -0.2059 -0.5859  0.8057
 7291SOL    MW428932   6.197   2.107   4.688 -0.5848 -0.2132  0.4998
 7292SOL     OW28933   3.727   4.547   1.729  0.0309  0.3797 -0.3511
 7292SOL    HW228934   3.798   4.562   1.791  1.3751  0.2181 -1.7762
 7292SOL    HW328935   3.768   4.562   1.643 -1.7415  0.5615 -1.1982
 7292SOL    MW428936   3.742   4.551   1.726 -0.0256  0.3824 -0.6509
 7293SOL     OW28937   0.411   2.058   3.850 -0.5652 -0.0222 -0.3926
 7293SOL    HW228938   0.339   2.030   3.792 -0.3976 -0.2374 -0.4969
 7293SOL    HW328939   0.467   1.981   3.857 -1.3323 -0.4589  1.2215
 7293SOL    MW428940   0.409   2.044   3.843 -0.6443 -0.1082 -0.1934
 7294SOL     OW28941   1.535   0.736   4.937 -0.2140  0.0469 -0.5465
 7294SOL    HW228942   1.558   0.828   4.922 -2.5559  0.9087  0.6681
 7294SOL    HW328943   1.454   0.724   4.888 -0.7236 -0.9342  0.5065
 7294SOL    MW428944   1.527   0.747   4.929 -0.5902  0.0311 -0.2473
 7295SOL     OW28945   6.135   2.636   3.998  0.4033 -0.2721  0.2522
 7295SOL    HW228946   6.145   2.541   4.011  0.7464 -0.1155  1.2309
 7295SOL    HW328947   6.157   2.650   3.906 -0.2895 -1.2279 -0.0755
 7295SOL    MW428948   6.139   2.625   3.988  0.3571 -0.3775  0.3381
 7296SOL     OW28949   1.203   2.049   3.365  0.2050 -0.5730  0.3325
 7296SOL    HW228950   1.251   2.067   3.284 -0.2125  0.5348  0.3227
 7296SOL    HW328951   1.117   2.020   3.336  0.4697 -1.4313  0.3717
 7296SOL    MW428952   1.198   2.047   3.351  0.1849 -0.5401  0.3363
 7297SOL     OW28953   4.113   1.655   2.049  0.2231 -0.1390  0.1244
 7297SOL    HW228954   4.122   1.745   2.082  3.4898 -0.9767  2.0565
 7297SOL    HW328955   4.069   1.608   2.120 -0.5282 -0.2777 -0.4308
 7297SOL    MW428956   4.109   1.661   2.063  0.5550 -0.2679  0.3061
 7298SOL     OW28957   6.033   1.883   0.135  0.3853 -0.7856  0.8391
 7298SOL    HW228958   6.080   1.803   0.157  2.8362  0.9032  2.3390
 7298SOL    HW328959   6.100   1.939   0.096 -0.9725  0.9329  0.8549
 7298SOL    MW428960   6.048   1.880   0.133  0.5295 -0.3361  1.0391
 7299SOL     OW28961   4.997   5.190   0.358 -0.6165 -0.5606  0.0039
 7299SOL    HW228962   4.923   5.237   0.320  0.5670 -0.0122 -1.7576
 7299SOL    HW328963   5.069   5.205   0.297  1.2188 -0.3424  2.1000
 7299SOL    MW428964   4.996   5.198   0.345 -0.2182 -0.4595  0.0480
 7300SOL     OW28965   4.745   0.709   0.366 -0.3238  0.2013 -0.0308
 7300SOL    HW228966   4.764   0.798   0.334  1.3176 -0.5515 -1.2917
 7300SOL    HW328967   4.792   0.652   0.305  0.6350 -1.4422  2.1254
 7300SOL    MW428968   4.754   0.714   0.354  0.0192 -0.1149  0.0873
 7301SOL     OW28969   2.681   4.589   2.292 -0.5232 -0.4691 -0.1664
 7301SOL    HW228970   2.680   4.684   2.303 -0.3356 -0.8096  4.5949
 7301SOL    HW328971   2.591   4.561   2.308  0.0755 -1.2288  2.3368
 7301SOL    MW428972   2.669   4.598   2.295 -0.4194 -0.6142  0.7920
 7302SOL     OW28973   0.856   0.609   0.160 -0.6972  0.0557 -0.3120
 7302SOL    HW228974   0.946   0.643   0.155 -0.4334 -0.4581  0.7226
 7302SOL    HW328975   0.836   0.609   0.253 -1.9204  0.5125 -0.5609
 7302SOL    MW428976   0.866   0.614   0.172 -0.8238  0.0482 -0.2083
 7303SOL     OW28977   1.990   0.011   0.706  0.3333 -0.4127  0.0674
 7303SOL    HW228978   2.041  -0.062   0.670  1.6816  0.6419 -0.2672
 7303SOL    HW328979   2.050   0.085   0.701 -0.1206  0.2051  2.7322
 7303SOL    MW428980   2.005   0.011   0.700  0.4513 -0.1921  0.3749
 7304SOL     OW28981   0.058   2.879   4.547 -0.0963  0.1201 -0.2910
 7304SOL    HW228982   0.059   2.952   4.486 -1.1332 -0.1980 -0.7039
 7304SOL    HW328983   0.112   2.812   4.505 -1.8694 -0.5947 -1.5288
 7304SOL    MW428984   0.065   2.879   4.534 -0.4670 -0.0162 -0.5088
 7305SOL     OW28985   5.118   1.289   1.149 -0.4480 -0.3201  0.0335
 7305SOL    HW228986   5.153   1.336   1.224  1.0857 -0.6371 -0.4583
 7305SOL    HW328987   5.089   1.205   1.185  1.4587 -0.9947  0.1096
 7305SOL    MW428988   5.119   1.284   1.163  0.0059 -0.4509 -0.0213
 7306SOL     OW28989   5.879   5.772   5.251  0.2709  0.0871  0.3139
 7306SOL    HW228990   5.971   5.768   5.277  0.6283  2.6290 -0.2616
 7306SOL    HW328991   5.830   5.771   5.333  0.6928 -2.1583  0.6025
 7306SOL    MW428992   5.885   5.772   5.265  0.3737  0.1262  0.2761
 7307SOL     OW28993   0.400   1.385   2.185  0.4014 -0.0846  0.3922
 7307SOL    HW228994   0.320   1.369   2.234  1.4779 -0.1330  2.2387
 7307SOL    HW328995   0.399   1.479   2.167  1.2354  0.4861  2.9612
 7307SOL    MW428996   0.389   1.396   2.189  0.6535 -0.0157  0.9748
 7308SOL     OW28997   1.862   1.527   2.820  0.4887 -0.0830 -0.4649
 7308SOL    HW228998   1.848   1.455   2.758  1.2019 -1.0489  0.4477
 7308SOL    HW328999   1.907   1.486   2.894 -2.0054  0.5899  1.5960
 7308SOL    MW429000   1.866   1.512   2.822  0.2537 -0.1217 -0.0726
 7309SOL     OW29001   4.382   1.873   5.755 -0.1040  0.1074  0.0288
 7309SOL    HW229002   4.397   1.782   5.782  0.7378  0.4363  0.6910
 7309SOL    HW329003   4.437   1.925   5.812 -1.3388  1.1291  0.3433
 7309SOL    MW429004   4.391   1.868   5.766 -0.1559  0.2856  0.1577
 7310SOL     OW29005   3.371   5.947   0.474  0.0550 -0.0577 -0.6339
 7310SOL    HW229006   3.398   5.951   0.382  0.5876  0.6468 -0.4544
 7310SOL    HW329007   3.298   6.009   0.480  1.7427  1.9787 -0.0322
 7310SOL    MW429008   3.365   5.956   0.463  0.3479  0.3039 -0.5309
 7311SOL     OW29009   5.767   4.572   4.097  0.1298 -0.2497  0.0705
 7311SOL    HW229010   5.694   4.623   4.131  0.1694  0.6045 -1.0586
 7311SOL    HW329011   5.737   4.481   4.097 -0.0483 -0.2241  1.8429
 7311SOL    MW429012   5.754   4.567   4.102  0.1115 -0.1336  0.1554
 7312SOL     OW29013   5.428   3.472   3.855  0.3726 -0.2916  0.1305
 7312SOL    HW229014   5.430   3.531   3.931 -1.3266 -2.5121  2.0413
 7312SOL    HW329015   5.376   3.398   3.884 -0.2700 -1.3077 -3.2531
 7312SOL    MW429016   5.422   3.470   3.869  0.0636 -0.7186 -0.0638
 7313SOL     OW29017   1.745   0.802   3.965  0.3186 -0.0869  0.3993
 7313SOL    HW229018   1.757   0.740   3.893  0.0687  0.0210  0.2621
 7313SOL    HW329019   1.708   0.880   3.923  0.4843  0.0975  0.5936
 7313SOL    MW429020   1.742   0.804   3.950  0.3075 -0.0483  0.4068
 7314SOL     OW29021   4.002   2.143   5.689 -0.2308 -0.2751 -0.4170
 7314SOL    HW229022   3.974   2.102   5.771  0.6295  1.6684  0.9442
 7314SOL    HW329023   3.974   2.235   5.698  0.9832  0.2665 -1.7553
 7314SOL    MW429024   3.995   2.150   5.701  0.0429  0.0528 -0.4140
 7315SOL     OW29025   4.320   2.904   3.206 -0.1771  0.2797  0.5002
 7315SOL    HW229026   4.289   2.921   3.295 -0.9443 -0.3986  0.3751
 7315SOL    HW329027   4.274   2.968   3.151  0.5849  0.9536  0.6241
 7315SOL    MW429028   4.310   2.915   3.211 -0.1778  0.2791  0.5000
 7316SOL     OW29029   0.883   4.050   4.108  0.3330  0.2417 -0.1662
 7316SOL    HW229030   0.812   4.034   4.170  0.7790 -0.3943  0.1902
 7316SOL    HW329031   0.876   3.978   4.044  1.7913 -0.9350  0.9289
 7316SOL    MW429032   0.873   4.038   4.108  0.5842  0.0026  0.0253
 7317SOL     OW29033   3.744   0.299   4.051  0.2881 -0.1066  0.4514
 7317SOL    HW229034   3.839   0.302   4.052  0.2787  0.6191  1.8491
 7317SOL    HW329035   3.723   0.216   4.008  1.5354 -0.2024 -0.0053
 7317SOL    MW429036   3.754   0.289   4.046  0.4514 -0.0235  0.5755
 7318SOL     OW29037   5.568   5.723   0.029 -0.1787 -0.2534  0.0523
 7318SOL    HW229038   5.597   5.663   0.097 -1.0780 -0.0320  0.6466
 7318SOL    HW329039   5.645   5.774   0.008  0.4761 -1.2779 -0.1158
 7318SOL    MW429040   5.582   5.722   0.035 -0.2109 -0.3593  0.1085
 7319SOL     OW29041   2.792   3.152   4.997 -0.3109 -0.1030  1.0696
 7319SOL    HW229042   2.848   3.211   5.047 -0.5273  0.5842  0.5291
 7319SOL    HW329043   2.852   3.085   4.962  0.3737  1.1659 -0.3118
 7319SOL    MW429044   2.808   3.151   4.999 -0.2492  0.1551  0.8160
 7320SOL     OW29045   5.079   2.949   5.831  0.1302  0.4252 -0.3075
 7320SOL    HW229046   5.137   3.002   5.777  0.0281  1.6046  0.6825
 7320SOL    HW329047   5.071   2.866   5.785  1.0817  0.9295 -1.4129
 7320SOL    MW429048   5.085   2.945   5.818  0.2423  0.6473 -0.3227
 7321SOL     OW29049   4.182   3.367   0.707 -0.2848  0.2886  0.7503
 7321SOL    HW229050   4.150   3.287   0.664 -0.5581  0.6223  0.3216
 7321SOL    HW329051   4.171   3.351   0.800 -0.8811  0.0472  0.6425
 7321SOL    MW429052   4.176   3.354   0.713 -0.3995  0.3008  0.6795
 7322SOL     OW29053   4.975   1.451   1.449 -0.2263  0.1995  0.0026
 7322SOL    HW229054   4.995   1.543   1.431 -1.3498  0.7564  1.3933
 7322SOL    HW329055   5.057   1.405   1.433  0.5937  1.5692  0.1128
 7322SOL    MW429056   4.988   1.457   1.445 -0.2663  0.4537  0.2007
 7323SOL     OW29057   6.176   1.819   5.014  0.0286 -0.1176 -0.1307
 7323SOL    HW229058   6.092   1.819   4.967  0.4075  0.5375 -0.8225
 7323SOL    HW329059   6.173   1.898   5.068 -0.5091 -0.9956  1.1800
 7323SOL    MW429060   6.165   1.829   5.014  0.0076 -0.1470 -0.0490
 7324SOL     OW29061   0.374   3.408   2.484  0.0704 -0.8270 -0.3331
 7324SOL    HW229062   0.350   3.462   2.559 -0.7698 -0.6582 -0.6990
 7324SOL    HW329063   0.456   3.367   2.508  1.3914  1.5249 -0.4729
 7324SOL    MW429064   0.381   3.410   2.497  0.1338 -0.4944 -0.3998
 7325SOL     OW29065   5.601   5.241   4.543 -0.2766  0.0245 -0.5955
 7325SOL    HW229066   5.595   5.151   4.512 -0.0787 -0.1999 -0.0101
 7325SOL    HW329067   5.665   5.283   4.485  2.1165 -1.1068  1.0410
 7325SOL    MW429068   5.609   5.235   4.532  0.0653 -0.1544 -0.3024
 7326SOL     OW29069   0.396   1.234   1.956 -0.6382 -0.6576 -0.2258
 7326SOL    HW229070   0.423   1.273   1.873 -1.5932 -0.8909 -0.6554
 7326SOL    HW329071   0.424   1.297   2.023 -1.6791  0.5377 -0.8691
 7326SOL    MW429072   0.403   1.247   1.954 -0.9015 -0.5307 -0.3674
 7327SOL     OW29073   5.752   1.193   0.420 -0.5744 -0.2625 -0.0433
 7327SOL    HW229074   5.848   1.193   0.419 -0.5689 -0.4443  0.2711
 7327SOL    HW329075   5.729   1.181   0.513 -0.9022  0.3527 -0.0367
 7327SOL    MW429076   5.762   1.192   0.432 -0.6170 -0.2053 -0.0010
 7328SOL     OW29077   3.647   4.530   3.780 -0.3810  0.1941 -0.1650
 7328SOL    HW229078   3.714   4.499   3.841  0.2456  0.4644 -0.7018
 7328SOL    HW329079   3.692   4.535   3.696 -1.0062  0.6419 -0.4812
 7328SOL    MW429080   3.662   4.526   3.777 -0.3808  0.2888 -0.2776
 7329SOL     OW29081   5.137   1.310   5.827 -0.0228  0.2974 -0.2409
 7329SOL    HW229082   5.091   1.391   5.848 -4.2799 -1.7307 -0.6881
 7329SOL    HW329083   5.150   1.268   5.912  0.3580  0.5196 -0.1843
 7329SOL    MW429084   5.133   1.315   5.841 -0.5342  0.0591 -0.2924
 7330SOL     OW29085   2.866   3.997   3.351  0.1920  0.0049 -0.3053
 7330SOL    HW229086   2.818   3.963   3.276 -0.3528 -0.4979  0.2596
 7330SOL    HW329087   2.874   4.091   3.334 -3.0243  0.5736  0.6338
 7330SOL    MW429088   2.861   4.005   3.339 -0.3042  0.0136 -0.1069
 7331SOL     OW29089   5.445   4.976   3.355  0.9426 -0.5006  0.0118
 7331SOL    HW229090   5.384   4.965   3.282  0.8268 -0.1004  0.0467
 7331SOL    HW329091   5.502   5.048   3.327  0.5795 -0.0103  0.5289
 7331SOL    MW429092   5.444   4.984   3.341  0.8794 -0.3831  0.0847
 7332SOL     OW29093   0.127   6.168   3.102 -0.1560 -0.3682 -0.2003
 7332SOL    HW229094   0.188   6.109   3.145  1.1939 -1.6504 -3.5412
 7332SOL    HW329095   0.130   6.248   3.154  1.1947 -1.7902  2.0675
 7332SOL    MW429096   0.136   6.171   3.114  0.2003 -0.7250 -0.3419
 7333SOL     OW29097   3.360   4.555   3.755  0.5365 -0.0810  0.0494
 7333SOL    HW229098   3.354   4.525   3.665 -0.9401  1.4511 -0.4179
 7333SOL    HW329099   3.447   4.529   3.784  0.8422 -1.0419 -1.6430
 7333SOL    MW429100   3.370   4.548   3.747  0.3820 -0.0056 -0.2356
 7334SOL     OW29101   5.262   3.982   1.260  0.4012 -0.0792 -0.0383
 7334SOL    HW229102   5.211   3.944   1.189  1.4410 -0.4547 -0.6010
 7334SOL    HW329103   5.279   4.072   1.232 -1.5118  0.6729  1.0044
 7334SOL    MW429104   5.258   3.989   1.247  0.2860 -0.0295  0.0250
 7335SOL     OW29105   0.712   0.032   2.656  0.1024  0.2706  0.1569
 7335SOL    HW229106   0.785   0.014   2.715  0.4564  0.8743 -0.0865
 7335SOL    HW329107   0.686  -0.054   2.623 -0.0492 -0.0638  1.1287
 7335SOL    MW429108   0.719   0.018   2.659  0.1291  0.3061  0.2530
 7336SOL     OW29109   2.841   5.158   0.875  0.3750  0.3942 -0.0367
 7336SOL    HW229110   2.803   5.070   0.865  0.6852  0.1065  1.1689
 7336SOL    HW329111   2.837   5.195   0.787 -1.4666 -0.1252 -0.2235
 7336SOL    MW429112   2.835   5.151   0.862  0.1729  0.2877  0.0977
 7337SOL     OW29113   4.881   2.104   5.434 -0.6196  0.4853 -0.0309
 7337SOL    HW229114   4.962   2.090   5.483 -0.2311  3.6962  0.4243
 7337SOL    HW329115   4.812   2.076   5.495  0.0271  0.7645  0.8634
 7337SOL    MW429116   4.882   2.098   5.449 -0.4830  0.9457  0.1472
 7338SOL     OW29117   0.204   2.054   3.475  0.6070 -0.2251  0.0762
 7338SOL    HW229118   0.164   2.128   3.431  0.2369  0.3621  1.3516
 7338SOL    HW329119   0.290   2.044   3.433  0.7456  1.0683  0.0244
 7338SOL    MW429120   0.210   2.062   3.464  0.5764  0.0230  0.2376
 7339SOL     OW29121   1.715   2.504   0.672  0.1383 -0.3083 -0.6687
 7339SOL    HW229122   1.726   2.410   0.654  0.3384 -0.1605 -1.3631
 7339SOL    HW329123   1.796   2.530   0.714 -0.6110 -0.8100  1.1673
 7339SOL    MW429124   1.727   2.495   0.675  0.0658 -0.3550 -0.5180
 7340SOL     OW29125   2.523   0.917   3.396 -0.3486 -0.3532  0.6023
 7340SOL    HW229126   2.503   1.007   3.421  1.4880  0.2214  0.1558
 7340SOL    HW329127   2.472   0.863   3.456 -0.6146  0.9869  1.6287
 7340SOL    MW429128   2.514   0.921   3.407 -0.1413 -0.1006  0.6788
 7341SOL     OW29129   5.257   4.122   0.519 -0.2535  0.0290 -0.5355
 7341SOL    HW229130   5.163   4.111   0.507 -0.3028  0.9375 -1.1568
 7341SOL    HW329131   5.278   4.070   0.596 -1.0357 -1.2270 -1.1413
 7341SOL    MW429132   5.247   4.114   0.527 -0.3632 -0.0169 -0.6974
 7342SOL     OW29133   2.515   4.958   5.936 -0.3417  0.3012 -0.3010
 7342SOL    HW229134   2.557   4.985   5.854  0.8891 -1.0204 -0.1418
 7342SOL    HW329135   2.529   5.032   5.995  1.4609  0.0739 -0.3807
 7342SOL    MW429136   2.523   4.971   5.933  0.0585  0.0968 -0.2905
 7343SOL     OW29137   6.119   4.127   6.157 -0.1695 -0.8719  0.5189
 7343SOL    HW229138   6.062   4.105   6.083  1.0174 -1.6358 -0.1879
 7343SOL    HW329139   6.101   4.219   6.174 -0.0406 -0.5177 -1.1128
 7343SOL    MW429140   6.109   4.136   6.150  0.0041 -0.9259  0.2104
 7344SOL     OW29141   4.375   4.048   1.430 -0.1359 -0.5275  0.1005
 7344SOL    HW229142   4.419   4.131   1.412  1.5512 -1.3816  0.1204
 7344SOL    HW329143   4.444   3.982   1.426 -1.3122 -1.8664  0.7451
 7344SOL    MW429144   4.390   4.050   1.427 -0.0685 -0.8168  0.1882
 7345SOL     OW29145   1.650   4.786   6.143  0.4460 -0.1006  0.1866
 7345SOL    HW229146   1.575   4.842   6.126  0.9050  0.7341  0.8182
 7345SOL    HW329147   1.723   4.831   6.100  0.5475 -1.0264 -0.6286
 7345SOL    MW429148   1.650   4.799   6.135  0.5200 -0.1126  0.1624
 7346SOL     OW29149   2.625   5.990   6.301  0.2678 -0.3102 -0.1168
 7346SOL    HW229150   2.720   5.999   6.304  0.1189  1.2611  0.6059
 7346SOL    HW329151   2.607   5.911   6.353  1.1397 -0.3453  0.1450
 7346SOL    MW429152   2.635   5.981   6.308  0.3632 -0.1076  0.0131
 7347SOL     OW29153   4.049   4.572   4.155 -0.5447  0.3643  0.0439
 7347SOL    HW229154   4.121   4.551   4.214 -1.7687  1.5928  2.0697
 7347SOL    HW329155   3.993   4.495   4.156  0.1331 -0.1531 -0.6479
 7347SOL    MW429156   4.051   4.559   4.163 -0.6168  0.4581  0.2199
 7348SOL     OW29157   4.770   5.652   4.068 -0.6610 -0.4601  0.0101
 7348SOL    HW229158   4.745   5.605   4.147 -0.7422 -1.0554 -0.3649
 7348SOL    HW329159   4.847   5.703   4.094 -2.1045  1.2854  1.1434
 7348SOL    MW429160   4.777   5.653   4.082 -0.8622 -0.3084  0.1102
 7349SOL     OW29161   3.396   4.340   2.221 -0.1873 -0.2486  0.1388
 7349SOL    HW229162   3.401   4.329   2.316  1.0135  0.3948  0.1774
 7349SOL    HW329163   3.331   4.409   2.208 -0.6984 -0.6648  0.4635
 7349SOL    MW429164   3.388   4.348   2.232 -0.0963 -0.2186  0.1867
 7350SOL     OW29165   5.641   2.154   4.324  0.0044 -0.4098  0.4762
 7350SOL    HW229166   5.620   2.224   4.386 -0.3476 -1.5522  1.7003
 7350SOL    HW329167   5.736   2.153   4.320  0.0050  0.3801  0.1552
 7350SOL    MW429168   5.651   2.163   4.332 -0.0420 -0.4563  0.5953
 7351SOL     OW29169   2.061   6.076   1.200  0.2998  0.2061 -0.2984
 7351SOL    HW229170   2.014   6.102   1.120  0.9714 -0.7005 -1.0168
 7351SOL    HW329171   2.152   6.096   1.180  0.5085 -0.3299  0.1174
 7351SOL    MW429172   2.067   6.082   1.187  0.4160  0.0158 -0.3383
 7352SOL     OW29173   1.161   1.023   3.589 -0.0774 -0.0625 -0.6678
 7352SOL    HW229174   1.245   1.007   3.631 -0.4234  0.5574  0.2628
 7352SOL    HW329175   1.140   0.939   3.546  1.0992 -0.1574 -1.0996
 7352SOL    MW429176   1.169   1.010   3.589  0.0322  0.0068 -0.6020
 7353SOL     OW29177   4.815   2.773   4.500 -0.5092  0.3364 -0.5689
 7353SOL    HW229178   4.843   2.703   4.559 -0.4897 -0.5178 -1.5713
 7353SOL    HW329179   4.770   2.835   4.557 -0.9679 -0.7220  0.2577
 7353SOL    MW429180   4.813   2.772   4.516 -0.5671  0.0841 -0.5921
 7354SOL     OW29181   5.171   2.580   1.180  0.4345 -0.6575 -0.1333
 7354SOL    HW229182   5.242   2.532   1.224  0.8115  0.0139  0.0084
 7354SOL    HW329183   5.216   2.647   1.128 -0.1322  1.6273  2.1074
 7354SOL    MW429184   5.186   2.583   1.179  0.4095 -0.2674  0.1810
 7355SOL     OW29185   0.363   0.362   5.235 -0.1727  0.7384  0.8655
 7355SOL    HW229186   0.280   0.376   5.189  0.6390  2.3139 -0.2177
 7355SOL    HW329187   0.385   0.270   5.219 -0.9734  0.6986 -0.1157
 7355SOL    MW429188   0.355   0.352   5.227 -0.1713  0.9410  0.5931
 7356SOL     OW29189   4.163   2.212   3.907 -0.0355 -0.1927  0.0705
 7356SOL    HW229190   4.250   2.194   3.871 -0.0455 -2.4286  1.0035
 7356SOL    HW329191   4.160   2.307   3.916  2.9421 -0.1131  1.4346
 7356SOL    MW429192   4.174   2.222   3.904  0.3560 -0.4772  0.3736
 7357SOL     OW29193   4.873   4.413   5.114 -0.2578 -0.4575 -0.3089
 7357SOL    HW229194   4.871   4.493   5.060  1.3307 -1.2914 -1.6693
 7357SOL    HW329195   4.827   4.348   5.062  0.7702 -1.1223 -0.3958
 7357SOL    MW429196   4.867   4.415   5.100  0.0874 -0.6552 -0.4999
 7358SOL     OW29197   4.257   1.277   0.099  0.3407 -0.2748  0.1616
 7358SOL    HW229198   4.294   1.343   0.157  0.8304  0.1734 -0.6418
 7358SOL    HW329199   4.178   1.247   0.145  0.4928  0.3567  0.8641
 7358SOL    MW429200   4.251   1.282   0.113  0.4254 -0.1323  0.1483
 7359SOL     OW29201   0.437   5.597   0.637 -0.1082 -0.0585  0.0491
 7359SOL    HW229202   0.465   5.562   0.721  0.5809  1.0256  0.2849
 7359SOL    HW329203   0.344   5.616   0.648  0.0988  0.5861  0.7531
 7359SOL    MW429204   0.429   5.595   0.650  0.0101  0.1695  0.1731
 7360SOL     OW29205   1.795   1.111   5.168 -0.4952 -0.0708 -0.4183
 7360SOL    HW229206   1.780   1.036   5.110  1.1673  0.3994 -1.5686
 7360SOL    HW329207   1.864   1.161   5.123  1.5323 -0.1330  2.3899
 7360SOL    MW429208   1.802   1.108   5.154 -0.0083 -0.0170 -0.1996
 7361SOL     OW29209   0.291   3.753   4.480 -0.4038 -0.2461  0.8101
 7361SOL    HW229210   0.255   3.758   4.569 -1.2293 -2.2334  0.6464
 7361SOL    HW329211   0.232   3.805   4.426 -1.6716 -1.4831  0.9548
 7361SOL    MW429212   0.279   3.760   4.485 -0.6800 -0.6715  0.8076
 7362SOL     OW29213   6.051   1.210   1.366 -0.4427 -0.4395 -0.2364
 7362SOL    HW229214   5.975   1.258   1.333 -0.3171  0.1658  0.3386
 7362SOL    HW329215   6.065   1.245   1.454  0.3602 -0.7099 -0.2481
 7362SOL    MW429216   6.043   1.221   1.373 -0.3202 -0.3953 -0.1621
 7363SOL     OW29217   1.713   1.792   2.170 -0.1555  0.3993 -0.2097
 7363SOL    HW229218   1.805   1.799   2.143 -0.0859  0.9434  0.1531
 7363SOL    HW329219   1.717   1.752   2.257 -0.2527  0.5349 -0.1427
 7363SOL    MW429220   1.726   1.788   2.178 -0.1591  0.4890 -0.1530
 7364SOL     OW29221   5.594   0.143   5.694  0.3295 -0.2550 -0.2243
 7364SOL    HW229222   5.567   0.115   5.781 -0.1731 -0.6351 -0.4916
 7364SOL    HW329223   5.602   0.061   5.644  2.1388 -0.1690 -0.1259
 7364SOL    MW429224   5.592   0.128   5.699  0.5019 -0.2938 -0.2466
 7365SOL     OW29225   2.307   1.155   0.436 -0.4254 -0.2380 -0.0175
 7365SOL    HW229226   2.383   1.210   0.453  1.7689 -3.3865  1.3383
 7365SOL    HW329227   2.243   1.180   0.503  0.9356 -0.0925  1.2595
 7365SOL    MW429228   2.308   1.166   0.447  0.0437 -0.6342  0.3299
 7366SOL     OW29229   0.804   4.683   2.037 -0.9166  0.0752 -0.0780
 7366SOL    HW229230   0.798   4.740   1.961 -2.6035 -0.8862 -0.7320
 7366SOL    HW329231   0.723   4.632   2.035 -1.6240  0.8540  3.0644
 7366SOL    MW429232   0.792   4.683   2.027 -1.2325  0.0511  0.2503
 7367SOL     OW29233   2.970   4.791   2.899  0.0918 -0.0279  0.1495
 7367SOL    HW229234   2.900   4.741   2.940 -0.2492 -0.1296 -0.5555
 7367SOL    HW329235   3.012   4.837   2.972 -0.3450 -0.4061  0.6456
 7367SOL    MW429236   2.967   4.791   2.914 -0.0108 -0.0912  0.1219
 7368SOL     OW29237   5.463   1.180   1.190  0.5594  0.0615 -0.0387
 7368SOL    HW229238   5.522   1.110   1.160  1.3491  0.2138  1.1137
 7368SOL    HW329239   5.517   1.259   1.188  0.0176  0.4316 -0.1781
 7368SOL    MW429240   5.478   1.181   1.185  0.5921  0.1304  0.0949
 7369SOL     OW29241   6.015   3.321   2.170  0.1642 -0.2938 -0.6581
 7369SOL    HW229242   5.984   3.352   2.255  0.0134 -1.1449 -0.3920
 7369SOL    HW329243   6.085   3.258   2.191  0.7309  0.1393 -1.1939
 7369SOL    MW429244   6.020   3.316   2.184  0.2191 -0.3490 -0.6937
 7370SOL     OW29245   1.371   4.299   5.628 -0.0502  0.2275  0.4018
 7370SOL    HW229246   1.354   4.261   5.714  0.1642  1.1707  0.8740
 7370SOL    HW329247   1.465   4.311   5.625  0.1004 -1.0217 -0.5068
 7370SOL    MW429248   1.381   4.296   5.639 -0.0021  0.1871  0.3442
 7371SOL     OW29249   4.857   6.121   3.602  0.1219  0.0768  0.3475
 7371SOL    HW229250   4.784   6.063   3.578 -0.8217  0.4917  2.0397
 7371SOL    HW329251   4.890   6.086   3.684  1.3691  0.3414 -0.0162
 7371SOL    MW429252   4.852   6.109   3.610  0.1620  0.1665  0.5228
 7372SOL     OW29253   5.160   4.446   0.792  0.4040 -0.0494 -0.6895
 7372SOL    HW229254   5.128   4.405   0.712  1.5837 -3.7194  0.5160
 7372SOL    HW329255   5.219   4.515   0.762 -1.1821  0.4359 -2.9088
 7372SOL    MW429256   5.164   4.450   0.777  0.3504 -0.4696 -0.8232
 7373SOL     OW29257   6.419   1.542   4.193 -0.0875  0.4536  0.3662
 7373SOL    HW229258   6.430   1.535   4.098 -3.4653 -1.5771 -0.0298
 7373SOL    HW329259   6.482   1.479   4.228 -0.5528 -0.6792 -0.7365
 7373SOL    MW429260   6.429   1.533   4.185 -0.5946  0.0362  0.1685
 7374SOL     OW29261   5.000   0.007   3.345  0.5947 -0.7050 -0.4577
 7374SOL    HW229262   4.938   0.025   3.275  0.3597 -0.2335 -0.1315
 7374SOL    HW329263   5.056  -0.063   3.310  0.6282 -0.3223 -1.1957
 7374SOL    MW429264   4.999  -0.000   3.331  0.5681 -0.5923 -0.5121
 7375SOL     OW29265   1.759   0.436   1.055  0.1519 -0.0393 -0.1115
 7375SOL    HW229266   1.692   0.368   1.057 -0.4006  0.5135  1.0628
 7375SOL    HW329267   1.803   0.424   0.971 -0.3672 -1.4194 -0.2094
 7375SOL    MW429268   1.756   0.426   1.044  0.0105 -0.1484  0.0305
 7376SOL     OW29269   5.256   3.106   5.666 -0.3038  0.1621  0.1655
 7376SOL    HW229270   5.342   3.093   5.707 -0.8737 -0.3666  1.2329
 7376SOL    HW329271   5.259   3.052   5.587  0.2020 -0.1989  0.4240
 7376SOL    MW429272   5.268   3.097   5.661 -0.3123  0.0447  0.3404
 7377SOL     OW29273   2.513   4.359   0.618 -0.4547  0.0974 -0.3585
 7377SOL    HW229274   2.555   4.425   0.562  0.6979 -0.2321  0.0936
 7377SOL    HW329275   2.422   4.358   0.589 -0.3454  1.4067 -0.8271
 7377SOL    MW429276   2.507   4.367   0.607 -0.2882  0.2267 -0.3607
 7378SOL     OW29277   2.897   0.185   0.528  0.0111  0.4291 -0.0274
 7378SOL    HW229278   2.924   0.274   0.552  3.2166 -0.4246 -0.0920
 7378SOL    HW329279   2.842   0.198   0.451  1.0366  2.3500 -0.5258
 7378SOL    MW429280   2.893   0.199   0.521  0.5693  0.5699 -0.1017
 7379SOL     OW29281   1.475   4.192   3.255  0.0102 -0.4223 -0.1576
 7379SOL    HW229282   1.446   4.167   3.343  0.0701  0.3996  0.0965
 7379SOL    HW329283   1.511   4.280   3.265 -1.1219  0.1895 -1.2338
 7379SOL    MW429284   1.476   4.200   3.268 -0.1313 -0.2331 -0.2661
 7380SOL     OW29285   3.693   3.260   4.376  0.4966  0.8689  0.1344
 7380SOL    HW229286   3.789   3.269   4.378  0.8189 -1.7343 -0.1058
 7380SOL    HW329287   3.667   3.260   4.468  0.8698  0.4211  0.2430
 7380SOL    MW429288   3.703   3.261   4.389  0.5884  0.4664  0.1171
 7381SOL     OW29289   3.880   0.853   0.723 -0.2341  0.6650  0.6556
 7381SOL    HW229290   3.930   0.773   0.705  0.0839  1.2415 -1.3867
 7381SOL    HW329291   3.947   0.922   0.729 -0.5690  0.9305  1.4499
 7381SOL    MW429292   3.896   0.852   0.721 -0.2364  0.7761  0.4910
 7382SOL     OW29293   0.376   2.332   2.895 -0.1274 -0.0619  0.8143
 7382SOL    HW229294   0.370   2.302   2.986  2.3424  1.7728  1.6646
 7382SOL    HW329295   0.418   2.417   2.900  1.2507 -0.4408 -2.1514
 7382SOL    MW429296   0.380   2.339   2.908  0.3803  0.1302  0.5352
 7383SOL     OW29297   6.021   0.914   5.066 -0.0371 -0.3636  1.1020
 7383SOL    HW229298   6.075   0.952   5.135 -0.0364 -0.5754  1.2179
 7383SOL    HW329299   6.000   0.988   5.009 -2.7218  0.5209  3.0473
 7383SOL    MW429300   6.025   0.929   5.067 -0.3912 -0.2749  1.3739
 7384SOL     OW29301   0.626   4.492   0.133  0.1562  0.3251 -0.6601
 7384SOL    HW229302   0.702   4.444   0.100  0.6497  0.7155 -0.1074
 7384SOL    HW329303   0.654   4.583   0.133 -1.1564  0.8141 -2.7873
 7384SOL    MW429304   0.640   4.498   0.128  0.0481  0.4411 -0.8678
 7385SOL     OW29305   4.487   2.296   4.951  0.5654 -0.3434  0.1991
 7385SOL    HW229306   4.420   2.251   5.002  1.8408 -0.3330  1.9869
 7385SOL    HW329307   4.536   2.347   5.016  1.4125  0.7864 -1.2547
 7385SOL    MW429308   4.485   2.297   4.967  0.8454 -0.1930  0.2431
 7386SOL     OW29309   2.340   1.401   6.322  0.2731  0.5081  0.2141
 7386SOL    HW229310   2.271   1.415   6.257  0.5685 -1.1567 -0.5271
 7386SOL    HW329311   2.293   1.391   6.405 -0.4350 -0.7538 -0.3036
 7386SOL    MW429312   2.324   1.401   6.324  0.2186  0.1219  0.0480
 7387SOL     OW29313   0.824   3.039   0.759  0.3810  0.0680  0.8052
 7387SOL    HW229314   0.870   3.099   0.700  0.0305  0.1907  0.6483
 7387SOL    HW329315   0.809   2.960   0.706 -2.3518  1.1444 -0.2551
 7387SOL    MW429316   0.828   3.036   0.744 -0.0258  0.2262  0.6446
 7388SOL     OW29317   6.069   2.448   3.682 -0.5354  0.2138 -0.2152
 7388SOL    HW229318   5.997   2.406   3.727  0.2462 -1.1712 -0.1985
 7388SOL    HW329319   6.031   2.480   3.600 -1.0048 -1.2436 -0.5971
 7388SOL    MW429320   6.055   2.447   3.677 -0.4942 -0.1612 -0.2634
 7389SOL     OW29321   1.987   5.629   1.062 -0.2312 -0.7386 -0.0888
 7389SOL    HW229322   2.005   5.535   1.070 -0.2278 -0.8777 -1.5670
 7389SOL    HW329323   2.073   5.670   1.071  0.2844 -1.1143 -2.5530
 7389SOL    MW429324   2.001   5.622   1.065 -0.1627 -0.8065 -0.6089
 7390SOL     OW29325   1.836   5.421   1.723  0.5897 -0.2705 -0.0354
 7390SOL    HW229326   1.904   5.486   1.707  2.1228 -1.5592  0.9866
 7390SOL    HW329327   1.757   5.472   1.737  2.0817  1.5679  2.6951
 7390SOL    MW429328   1.835   5.436   1.723  0.9888 -0.1980  0.4597
 7391SOL     OW29329   1.803   1.465   4.297  0.0167  0.1356 -0.1262
 7391SOL    HW229330   1.798   1.555   4.264  2.0785  0.1895 -0.4453
 7391SOL    HW329331   1.817   1.475   4.391  0.5288  0.1617 -0.2039
 7391SOL    MW429332   1.804   1.478   4.305  0.3563  0.1461 -0.1786
 7392SOL     OW29333   2.622   5.512   0.023 -0.3250 -0.2440  0.6944
 7392SOL    HW229334   2.581   5.597   0.009 -0.5459 -0.5088 -0.3509
 7392SOL    HW329335   2.697   5.530   0.080  2.5867  1.5473 -3.1583
 7392SOL    MW429336   2.627   5.525   0.028  0.0301 -0.0426  0.0482
 7393SOL     OW29337   3.470   4.276   0.816 -0.5372  0.0316  0.3961
 7393SOL    HW229338   3.474   4.207   0.751 -1.8000 -0.4221  0.7570
 7393SOL    HW329339   3.395   4.330   0.789  0.7165  1.5505 -0.1492
 7393SOL    MW429340   3.460   4.274   0.804 -0.5384  0.1722  0.3718
 7394SOL     OW29341   1.184   6.158   5.753 -0.3257  0.4486  0.0971
 7394SOL    HW229342   1.207   6.069   5.726 -1.3621  0.5489 -1.1882
 7394SOL    HW329343   1.254   6.183   5.814  0.7506 -0.7164 -0.6055
 7394SOL    MW429344   1.196   6.149   5.758 -0.3204  0.3081 -0.1652
 7395SOL     OW29345   5.267   5.136   1.251  0.1725 -0.0866  0.0889
 7395SOL    HW229346   5.247   5.141   1.345  0.8072 -0.3725  0.2487
 7395SOL    HW329347   5.205   5.073   1.216 -1.9017  1.9865 -0.2238
 7395SOL    MW429348   5.256   5.129   1.259 -0.0174  0.1492  0.0687
 7396SOL     OW29349   3.549   1.557   3.579 -0.1543  0.0558  0.3670
 7396SOL    HW229350   3.503   1.474   3.592 -2.8320  1.4690  0.5852
 7396SOL    HW329351   3.516   1.613   3.649  1.2862  1.4439 -0.0170
 7396SOL    MW429352   3.539   1.553   3.590 -0.3175  0.4254  0.3451
 7397SOL     OW29353   5.851   2.356   3.828  0.0321  0.2376  0.1944
 7397SOL    HW229354   5.773   2.376   3.777 -0.2872  1.1353  1.0029
 7397SOL    HW329355   5.838   2.402   3.911 -0.8958 -3.5060  2.3775
 7397SOL    MW429356   5.839   2.364   3.832 -0.1324 -0.1379  0.5891
 7398SOL     OW29357   2.755   1.569   6.297 -0.0347  0.0973  0.2361
 7398SOL    HW229358   2.664   1.578   6.269 -0.7946  2.3036  2.9817
 7398SOL    HW329359   2.750   1.520   6.380  1.3327 -0.0866  0.2372
 7398SOL    MW429360   2.742   1.564   6.304  0.0455  0.3641  0.5985
 7399SOL     OW29361   3.621   2.388   0.691  0.3548  0.3707  0.7432
 7399SOL    HW229362   3.650   2.341   0.612  1.5874 -0.7248  1.8057
 7399SOL    HW329363   3.537   2.427   0.666  0.2063 -0.8264 -0.7791
 7399SOL    MW429364   3.614   2.387   0.677  0.4979  0.0682  0.6825
 7400SOL     OW29365   4.368   2.546   2.722  0.3632  0.1803  0.0646
 7400SOL    HW229366   4.282   2.576   2.694  0.6504  0.8840 -0.0829
 7400SOL    HW329367   4.414   2.626   2.748  1.1425 -0.1340 -0.3226
 7400SOL    MW429368   4.363   2.561   2.722  0.5039  0.2317 -0.0059
 7401SOL     OW29369   0.345   0.882   4.332 -0.1547  0.0082  0.1013
 7401SOL    HW229370   0.395   0.909   4.409  0.2374 -0.1763 -0.0847
 7401SOL    HW329371   0.363   0.788   4.324 -0.9629 -0.1729  0.3493
 7401SOL    MW429372   0.354   0.873   4.341 -0.2096 -0.0401  0.1095
 7402SOL     OW29373   4.547   4.370   3.871  0.1265  0.6727 -0.1556
 7402SOL    HW229374   4.465   4.394   3.828 -1.4222 -2.5100  0.7454
 7402SOL    HW329375   4.525   4.364   3.964  1.2533 -0.5948  0.0673
 7402SOL    MW429376   4.533   4.372   3.877  0.0709  0.0855 -0.0073
 7403SOL     OW29377   4.319   5.482   3.344 -0.2268  0.0636 -0.4377
 7403SOL    HW229378   4.408   5.516   3.339 -0.5746  0.8197 -1.9372
 7403SOL    HW329379   4.330   5.387   3.342  0.5773  0.1290  0.2888
 7403SOL    MW429380   4.332   5.474   3.343 -0.1666  0.1720 -0.5397
 7404SOL     OW29381   6.377   0.793   0.571  0.1962 -0.2967  0.1582
 7404SOL    HW229382   6.363   0.847   0.493 -0.3976  0.8289  1.0272
 7404SOL    HW329383   6.460   0.824   0.607  1.3977 -2.0316 -0.9696
 7404SOL    MW429384   6.387   0.804   0.565  0.2764 -0.3771  0.1241
 7405SOL     OW29385   2.059   0.669   4.692 -0.7535 -1.1301  0.5132
 7405SOL    HW229386   2.010   0.629   4.764 -1.8393 -0.3849  0.2119
 7405SOL    HW329387   2.060   0.762   4.712  0.0746 -1.0746  0.2261
 7405SOL    MW429388   2.052   0.676   4.704 -0.7875 -1.0245  0.4356
 7406SOL     OW29389   2.566   3.882   4.360  0.5174  0.0218 -0.0082
 7406SOL    HW229390   2.476   3.853   4.370  0.4120 -0.3839 -1.7212
 7406SOL    HW329391   2.560   3.977   4.348  0.4339  0.1433  0.9197
 7406SOL    MW429392   2.553   3.891   4.360  0.4925 -0.0157 -0.1118
 7407SOL     OW29393   5.877   0.540   5.552 -0.2948  0.4397  0.3600
 7407SOL    HW229394   5.864   0.624   5.596 -0.4453  0.8543 -0.4465
 7407SOL    HW329395   5.799   0.531   5.496 -0.6497 -0.6041  1.0036
 7407SOL    MW429396   5.865   0.550   5.550 -0.3615  0.3567  0.3385
 7408SOL     OW29397   1.886   3.188   3.125  0.4087  0.1704 -0.4230
 7408SOL    HW229398   1.825   3.127   3.083 -1.6238 -0.1377  2.6397
 7408SOL    HW329399   1.836   3.269   3.134  0.6990  0.1941  1.3485
 7408SOL    MW429400   1.871   3.190   3.121  0.1788  0.1329  0.2148
 7409SOL     OW29401   6.186   2.685   0.811  0.0454 -0.0052 -0.3641
 7409SOL    HW229402   6.197   2.660   0.719  1.1283  1.9372 -0.8239
 7409SOL    HW329403   6.261   2.741   0.829  0.2044 -0.8586  1.9315
 7409SOL    MW429404   6.198   2.689   0.801  0.2092  0.1385 -0.1219
 7410SOL     OW29405   2.573   2.573   1.228 -0.2030  0.1230 -0.0524
 7410SOL    HW229406   2.620   2.556   1.146  1.4003  2.4861  0.3054
 7410SOL    HW329407   2.587   2.494   1.280  3.2034  0.5858 -0.0932
 7410SOL    MW429408   2.581   2.560   1.224  0.4579  0.4958 -0.0106
 7411SOL     OW29409   0.501   4.062   0.012  0.4241 -0.0436 -0.2522
 7411SOL    HW229410   0.568   3.994   0.017 -0.7480 -1.1798  0.5375
 7411SOL    HW329411   0.533   4.122  -0.055  1.9517 -0.8426 -0.2890
 7411SOL    MW429412   0.514   4.061   0.004  0.4710 -0.2989 -0.1529
 7412SOL     OW29413   3.358   1.949   3.034  0.2175 -0.1309 -0.0733
 7412SOL    HW229414   3.283   1.990   3.078 -0.7355  0.1867 -1.8932
 7412SOL    HW329415   3.421   2.020   3.024 -0.0296  0.0724 -0.2126
 7412SOL    MW429416   3.356   1.963   3.038  0.0591 -0.0622 -0.3318
 7413SOL     OW29417   0.856   3.195   5.131 -0.0239 -0.9365 -0.4558
 7413SOL    HW229418   0.797   3.270   5.121 -1.7817 -2.2659 -0.6146
 7413SOL    HW329419   0.828   3.153   5.213  0.9812 -1.3922 -0.3264
 7413SOL    MW429420   0.844   3.199   5.141 -0.1232 -1.1720 -0.4597
 7414SOL     OW29421   2.015   3.863   6.410  0.0331 -0.2932 -0.1577
 7414SOL    HW229422   2.011   3.930   6.479 -0.1064 -1.5438  1.1011
 7414SOL    HW329423   1.988   3.782   6.454  0.8256 -1.3109 -1.4632
 7414SOL    MW429424   2.011   3.861   6.425  0.1193 -0.5925 -0.1639
 7415SOL     OW29425   4.704   3.881   3.067 -0.0967  0.0609  0.3622
 7415SOL    HW229426   4.790   3.861   3.031  0.4429  1.5837  0.7016
 7415SOL    HW329427   4.693   3.820   3.140  1.4383  0.8866  1.3504
 7415SOL    MW429428   4.714   3.871   3.072  0.1770  0.3707  0.5373
 7416SOL     OW29429   3.577   2.829   1.525 -0.3182 -0.4577 -0.2729
 7416SOL    HW229430   3.633   2.871   1.460 -1.3193  2.3481  0.5688
 7416SOL    HW329431   3.497   2.806   1.477  0.6427 -2.6356 -0.9944
 7416SOL    MW429432   3.574   2.831   1.510 -0.3235 -0.3749 -0.2570
 7417SOL     OW29433   6.171   0.135   2.925  0.4407 -0.0248  0.0339
 7417SOL    HW229434   6.231   0.145   2.999  0.0252  2.2402  0.1314
 7417SOL    HW329435   6.178   0.218   2.878 -0.6194 -0.7577 -1.4862
 7417SOL    MW429436   6.180   0.147   2.928  0.2460  0.1773 -0.1538
 7418SOL     OW29437   3.142   5.098   0.220  0.5651  0.2116 -0.7187
 7418SOL    HW229438   3.124   5.010   0.254  1.1894  0.5660  0.5957
 7418SOL    HW329439   3.205   5.084   0.150 -1.4356 -0.6268 -2.4606
 7418SOL    MW429440   3.148   5.084   0.216  0.3835  0.1478 -0.7751
 7419SOL     OW29441   3.993   1.633   1.343  0.5030 -0.0933 -0.1298
 7419SOL    HW229442   4.016   1.656   1.253 -0.2703  1.6528  0.0741
 7419SOL    HW329443   3.900   1.609   1.338  0.2029  0.9257  0.3297
 7419SOL    MW429444   3.984   1.633   1.331  0.3614  0.2715 -0.0423
 7420SOL     OW29445   1.867   0.100   0.945  0.1295 -0.3223  0.1798
 7420SOL    HW229446   1.782   0.143   0.951 -0.0366 -0.6116 -0.0277
 7420SOL    HW329447   1.872   0.070   0.854  0.8497  0.4916 -0.0649
 7420SOL    MW429448   1.856   0.102   0.934  0.2026 -0.2531  0.1201
 7421SOL     OW29449   4.634   1.587   0.130  0.4498  0.1258  0.3682
 7421SOL    HW229450   4.606   1.648   0.062 -0.2950 -1.7202 -1.0637
 7421SOL    HW329451   4.552   1.551   0.165  0.8643  0.2700  1.5484
 7421SOL    MW429452   4.619   1.590   0.126  0.4062 -0.0987  0.3350
 7422SOL     OW29453   1.773   2.770   3.954  0.0189  0.4861 -0.3268
 7422SOL    HW229454   1.677   2.763   3.953 -0.2127  2.6103  1.1739
 7422SOL    HW329455   1.800   2.715   4.028  0.1252 -1.1689 -1.5448
 7422SOL    MW429456   1.764   2.762   3.964  0.0024  0.5480 -0.2895
 7423SOL     OW29457   4.058   1.595   2.726 -0.2143  0.6058 -0.3660
 7423SOL    HW229458   3.973   1.557   2.705  0.2164 -2.2575  2.4124
 7423SOL    HW329459   4.039   1.687   2.746 -2.8752 -0.1735  1.1476
 7423SOL    MW429460   4.045   1.602   2.726 -0.5085  0.1252  0.2003
 7424SOL     OW29461   3.227   2.614   5.865  0.0068 -0.1975  0.6246
 7424SOL    HW229462   3.189   2.571   5.942 -1.9227 -1.1606 -0.7804
 7424SOL    HW329463   3.156   2.615   5.801  2.0885 -1.2254 -1.8693
 7424SOL    MW429464   3.212   2.609   5.867  0.0269 -0.4602  0.1102
 7425SOL     OW29465   1.729   1.888   0.301  0.4686  0.2395  0.5105
 7425SOL    HW229466   1.804   1.947   0.286 -0.1100  0.5425 -1.4664
 7425SOL    HW329467   1.656   1.947   0.320 -0.0853  0.1982 -1.3502
 7425SOL    MW429468   1.729   1.904   0.302  0.3192  0.2741  0.0042
 7426SOL     OW29469   2.896   3.910   0.341  0.1517 -0.3560  0.9394
 7426SOL    HW229470   2.854   3.995   0.330  0.2561 -0.3818  0.2988
 7426SOL    HW329471   2.826   3.847   0.329  0.1508 -0.3734  1.0315
 7426SOL    MW429472   2.881   3.913   0.338  0.1654 -0.3617  0.8670
 7427SOL     OW29473   1.261   3.663   5.188  0.1344  0.2705  0.0582
 7427SOL    HW229474   1.242   3.687   5.279  0.7515  1.3298 -0.0781
 7427SOL    HW329475   1.320   3.731   5.157  0.1704 -0.2450 -1.0538
 7427SOL    MW429476   1.266   3.675   5.196  0.2206  0.3422 -0.1065
 7428SOL     OW29477   3.749   0.265   0.669 -0.0442 -0.2603  0.0628
 7428SOL    HW229478   3.716   0.348   0.704 -0.7344  0.9874 -3.1513
 7428SOL    HW329479   3.840   0.261   0.697  0.5801  2.6178 -1.2136
 7428SOL    MW429480   3.757   0.276   0.677 -0.0529  0.2841 -0.5297
 7429SOL     OW29481   0.500   4.384   2.728 -0.4162  0.2072 -0.0544
 7429SOL    HW229482   0.415   4.345   2.707 -0.9144  1.8238 -1.3084
 7429SOL    HW329483   0.543   4.395   2.643  1.3184 -1.0743  0.6045
 7429SOL    MW429484   0.494   4.381   2.714 -0.2531  0.2514 -0.1329
 7430SOL     OW29485   2.694   2.271   2.111 -0.2537 -0.2454  0.5248
 7430SOL    HW229486   2.708   2.244   2.201  1.2047 -0.8414  0.1413
 7430SOL    HW329487   2.637   2.203   2.075  0.2772 -0.7573  0.6318
 7430SOL    MW429488   2.688   2.258   2.118  0.0087 -0.3916  0.4883
 7431SOL     OW29489   5.232   3.296   0.727  0.0365 -0.4074  0.4013
 7431SOL    HW229490   5.165   3.302   0.659  0.7992 -0.0166 -0.3465
 7431SOL    HW329491   5.311   3.333   0.685  0.2888  0.7249  1.8022
 7431SOL    MW429492   5.234   3.302   0.712  0.1704 -0.2064  0.4874
 7432SOL     OW29493   5.479   3.311   5.042 -1.2089  0.1850  0.0825
 7432SOL    HW229494   5.558   3.276   5.083 -1.0826  0.7474  0.3318
 7432SOL    HW329495   5.422   3.235   5.031 -0.2116 -0.4370 -1.1241
 7432SOL    MW429496   5.482   3.296   5.046 -1.0607  0.1772 -0.0438
 7433SOL     OW29497   2.386   0.726   1.140  0.4314 -0.3894 -0.0590
 7433SOL    HW229498   2.317   0.770   1.190 -1.1627 -0.5251 -2.0031
 7433SOL    HW329499   2.407   0.788   1.070 -0.1874 -1.7591 -1.4873
 7433SOL    MW429500   2.380   0.740   1.138  0.1395 -0.5880 -0.5040
 7434SOL     OW29501   4.368   5.707   5.518 -0.3172  0.5441 -0.3361
 7434SOL    HW229502   4.416   5.661   5.449 -0.0959 -1.2861  0.9396
 7434SOL    HW329503   4.293   5.651   5.537 -0.1271  0.7423  1.1872
 7434SOL    MW429504   4.365   5.694   5.511 -0.2629  0.3288  0.0332
 7435SOL     OW29505   3.590   1.958   0.217 -0.2171 -0.5974 -0.4484
 7435SOL    HW229506   3.588   1.937   0.310  0.6025 -1.1659 -0.5508
 7435SOL    HW329507   3.679   1.936   0.189 -0.2686  0.1477 -1.2363
 7435SOL    MW429508   3.601   1.952   0.225 -0.1157 -0.5741 -0.5658
 7436SOL     OW29509   2.467   5.122   1.023 -0.3334  0.3577 -0.5457
 7436SOL    HW229510   2.449   5.122   1.117  0.4287  0.9022 -0.3926
 7436SOL    HW329511   2.391   5.165   0.983 -2.0039 -2.3203 -0.4762
 7436SOL    MW429512   2.455   5.128   1.030 -0.4532  0.0762 -0.5163
 7437SOL     OW29513   6.364   5.910   3.913 -0.0949 -0.2088 -0.0760
 7437SOL    HW229514   6.383   5.835   3.856  0.2742 -0.2178  0.0591
 7437SOL    HW329515   6.288   5.952   3.872  0.4425  0.0433 -0.8324
 7437SOL    MW429516   6.356   5.906   3.900  0.0247 -0.1768 -0.1580
 7438SOL     OW29517   1.147   6.266   3.431  0.1251 -0.4180 -0.1101
 7438SOL    HW229518   1.158   6.360   3.416  0.6550 -0.5449 -0.5644
 7438SOL    HW329519   1.097   6.260   3.512  0.1904  0.2552 -0.0156
 7438SOL    MW429520   1.142   6.277   3.440  0.2036 -0.3459 -0.1576
 7439SOL     OW29521   4.290   1.818   3.930 -0.1720 -0.3316  0.5227
 7439SOL    HW229522   4.214   1.763   3.911 -0.8309  0.6752  0.1578
 7439SOL    HW329523   4.289   1.885   3.861  1.6496 -0.9059 -0.0962
 7439SOL    MW429524   4.280   1.820   3.918 -0.0186 -0.2745  0.3929
 7440SOL     OW29525   4.528   4.683   0.431 -0.3065 -0.7353  0.3860
 7440SOL    HW229526   4.485   4.768   0.444 -1.3598 -1.0832 -0.6820
 7440SOL    HW329527   4.581   4.695   0.352  1.2302 -0.4560  1.4251
 7440SOL    MW429528   4.530   4.696   0.422 -0.2427 -0.7443  0.3822
 7441SOL     OW29529   3.951   0.665   5.906  0.0355 -0.2152  0.3745
 7441SOL    HW229530   3.866   0.697   5.937  0.4813 -1.2305  2.9105
 7441SOL    HW329531   3.946   0.570   5.917  1.0094 -0.4237 -0.8128
 7441SOL    MW429532   3.939   0.657   5.912  0.2228 -0.3767  0.5525
 7442SOL     OW29533   4.486   3.584   0.509 -0.4781 -0.2116  0.0502
 7442SOL    HW229534   4.422   3.623   0.449 -0.6635  0.3557  0.6032
 7442SOL    HW329535   4.530   3.659   0.549  1.0485 -0.5813 -0.8378
 7442SOL    MW429536   4.483   3.599   0.506 -0.3012 -0.1855  0.0060
 7443SOL     OW29537   2.606   4.207   4.691 -0.1624 -0.3243 -0.0912
 7443SOL    HW229538   2.547   4.270   4.731  0.5699  0.6937 -0.5746
 7443SOL    HW329539   2.569   4.122   4.714 -1.9588  0.2733 -0.5855
 7443SOL    MW429540   2.593   4.204   4.699 -0.3028 -0.1111 -0.2202
 7444SOL     OW29541   2.769   3.397   2.682  0.4193  0.2983 -0.7734
 7444SOL    HW229542   2.804   3.320   2.636 -0.1526  0.5092 -1.5841
 7444SOL    HW329543   2.825   3.407   2.759 -0.1246 -1.5774 -0.0579
 7444SOL    MW429544   2.781   3.388   2.686  0.2721  0.0787 -0.7860
 7445SOL     OW29545   6.059   6.086   0.913  0.4559 -0.4233  0.2109
 7445SOL    HW229546   6.014   6.149   0.970  0.0431 -0.3167 -0.2227
 7445SOL    HW329547   6.042   6.001   0.954 -1.8816 -0.6313 -0.9646
 7445SOL    MW429548   6.051   6.083   0.926  0.0931 -0.4367 -0.0014
 7446SOL     OW29549   6.149   5.138   5.038  0.4566  0.2005  0.0166
 7446SOL    HW229550   6.229   5.168   4.995  0.1840 -0.5762 -1.0877
 7446SOL    HW329551   6.147   5.043   5.022 -0.1588  0.0499  0.9250
 7446SOL    MW429552   6.159   5.129   5.030  0.3395  0.0781 -0.0092
 7447SOL     OW29553   1.788   1.273   1.720 -0.0311 -0.0252  0.4403
 7447SOL    HW229554   1.793   1.253   1.627  1.8075 -0.3960  0.5753
 7447SOL    HW329555   1.694   1.276   1.739 -0.4531  0.2831 -1.4488
 7447SOL    MW429556   1.776   1.271   1.710  0.1558 -0.0335  0.2089
 7448SOL     OW29557   1.170   5.997   0.698  0.3066  0.5764 -0.4329
 7448SOL    HW229558   1.211   5.918   0.663  0.1560  1.1413 -1.9477
 7448SOL    HW329559   1.196   5.999   0.790 -1.4923 -2.3994  0.2648
 7448SOL    MW429560   1.179   5.987   0.706  0.0494  0.2583 -0.5407
 7449SOL     OW29561   6.000   2.095   6.294  0.0801 -0.2544 -0.4942
 7449SOL    HW229562   6.055   2.050   6.229 -0.6922 -0.2592 -1.1482
 7449SOL    HW329563   5.931   2.032   6.314  0.4010 -0.3215  0.4780
 7449SOL    MW429564   5.998   2.081   6.288  0.0206 -0.2639 -0.4522
 7450SOL     OW29565   2.368   3.867   5.854 -0.0596 -0.4248 -0.0671
 7450SOL    HW229566   2.443   3.843   5.909 -1.9765 -1.7759  2.1194
 7450SOL    HW329567   2.333   3.783   5.824 -1.8778  0.0506  0.6330
 7450SOL    MW429568   2.373   3.853   5.857 -0.5524 -0.5403  0.3138
 7451SOL     OW29569   0.396   2.694   0.067  0.1641 -0.3129 -0.2747
 7451SOL    HW229570   0.442   2.768   0.030 -0.9542  0.8228  0.5148
 7451SOL    HW329571   0.374   2.721   0.156  0.1331 -1.7755  0.1874
 7451SOL    MW429572   0.399   2.707   0.074  0.0124 -0.3561 -0.1096
 7452SOL     OW29573   1.680   0.408   2.590 -0.6324 -0.7225  0.7138
 7452SOL    HW229574   1.766   0.440   2.619 -1.5717  0.5605  2.2759
 7452SOL    HW329575   1.626   0.411   2.669 -1.9041 -2.3261 -0.0526
 7452SOL    MW429576   1.684   0.413   2.604 -0.9241 -0.7648  0.8188
 7453SOL     OW29577   2.233   6.105   2.249 -0.0089  0.4861 -0.7539
 7453SOL    HW229578   2.240   6.063   2.163 -1.3293 -1.0082 -0.1756
 7453SOL    HW329579   2.321   6.100   2.285 -0.0880 -1.8475 -0.7331
 7453SOL    MW429580   2.246   6.099   2.243 -0.1936 -0.0189 -0.6749
 7454SOL     OW29581   2.653   2.520   3.967 -0.4557  0.2136 -0.2668
 7454SOL    HW229582   2.610   2.604   3.952 -1.8243 -0.4481 -0.1532
 7454SOL    HW329583   2.606   2.481   4.040  0.6006 -0.3714  0.1257
 7454SOL    MW429584   2.641   2.526   3.975 -0.4969  0.0491 -0.2001
 7455SOL     OW29585   2.927   1.495   5.614 -0.3979 -0.4291 -0.3283
 7455SOL    HW229586   2.896   1.500   5.705  4.6229  0.3999  1.6268
 7455SOL    HW329587   2.972   1.411   5.609 -1.8254 -1.1322 -2.6429
 7455SOL    MW429588   2.929   1.485   5.626  0.0762 -0.4125 -0.3757
 7456SOL     OW29589   0.528   2.099   0.283 -0.4012 -0.0246 -0.0868
 7456SOL    HW229590   0.440   2.132   0.265 -0.6447  0.7371  2.1162
 7456SOL    HW329591   0.515   2.011   0.317  0.0066 -1.2616 -2.9088
 7456SOL    MW429592   0.515   2.092   0.285 -0.3796 -0.0874 -0.1685
 7457SOL     OW29593   1.403   4.997   2.265  0.0558 -0.5094  0.6165
 7457SOL    HW229594   1.393   4.957   2.351  2.5034 -0.7429  0.8797
 7457SOL    HW329595   1.496   5.021   2.261 -0.1953  0.3271 -1.6073
 7457SOL    MW429596   1.414   4.995   2.276  0.3456 -0.4298  0.3578
 7458SOL     OW29597   6.044   0.425   2.105 -0.5431 -0.2168 -0.6553
 7458SOL    HW229598   6.070   0.513   2.135  0.5564 -0.6340 -0.3462
 7458SOL    HW329599   5.955   0.437   2.072 -0.6962  0.8709  0.0725
 7458SOL    MW429600   6.035   0.438   2.105 -0.4183 -0.1283 -0.5185
 7459SOL     OW29601   0.557   5.525   2.708  0.1423  0.4112 -0.5961
 7459SOL    HW229602   0.608   5.483   2.778  0.1163 -1.5592 -1.6722
 7459SOL    HW329603   0.466   5.504   2.729  0.1300 -0.1328 -1.1719
 7459SOL    MW429604   0.552   5.517   2.720  0.1372  0.0795 -0.8140
 7460SOL     OW29605   1.891   4.563   6.000 -0.6009 -0.3071 -0.2747
 7460SOL    HW229606   1.810   4.519   6.027 -0.1314 -1.2141 -0.3006
 7460SOL    HW329607   1.901   4.540   5.908  2.1872 -4.3827  0.7860
 7460SOL    MW429608   1.881   4.554   5.991 -0.1711 -0.9645 -0.1382
 7461SOL     OW29609   3.839   5.091   1.849 -0.5968  0.0761 -0.2747
 7461SOL    HW229610   3.838   5.143   1.768  0.8401  0.0227 -0.3612
 7461SOL    HW329611   3.777   5.020   1.832 -2.0988  1.3499 -0.4076
 7461SOL    MW429612   3.831   5.088   1.836 -0.6054  0.2371 -0.3037
 7462SOL     OW29613   0.250   4.778   4.587  0.0133  0.0439 -0.1712
 7462SOL    HW229614   0.222   4.689   4.607 -1.5600  0.7891  1.1871
 7462SOL    HW329615   0.338   4.785   4.625 -0.8556 -0.2031  2.0671
 7462SOL    MW429616   0.258   4.767   4.595 -0.3089  0.1096  0.3033
 7463SOL     OW29617   0.006   1.798   0.265  0.3072  0.1673 -0.1493
 7463SOL    HW229618   0.073   1.855   0.228  0.0834  0.3860 -0.2234
 7463SOL    HW329619  -0.030   1.751   0.191  0.5572 -0.1401 -0.0750
 7463SOL    MW429620   0.010   1.800   0.251  0.3106  0.1556 -0.1493
 7464SOL     OW29621   3.185   4.514   4.319 -0.2078 -0.1895 -0.5874
 7464SOL    HW229622   3.136   4.589   4.285 -1.0541 -1.0760 -1.3968
 7464SOL    HW329623   3.277   4.540   4.311 -0.3635 -0.1710 -3.2184
 7464SOL    MW429624   3.191   4.527   4.313 -0.3400 -0.3040 -1.0413
 7465SOL     OW29625   2.903   0.844   1.585 -0.4518 -0.0761 -0.8583
 7465SOL    HW229626   2.981   0.852   1.530 -0.8349  0.2570 -1.3552
 7465SOL    HW329627   2.885   0.932   1.616  0.4499 -0.4282  0.7883
 7465SOL    MW429628   2.911   0.856   1.581 -0.3834 -0.0786 -0.7066
 7466SOL     OW29629   2.115   3.833   1.134  0.5512 -0.5313 -0.6147
 7466SOL    HW229630   2.198   3.787   1.126  0.0229 -1.3344 -1.6435
 7466SOL    HW329631   2.098   3.869   1.047  0.6682  1.1682  0.0191
 7466SOL    MW429632   2.124   3.832   1.122  0.4969 -0.4131 -0.6668
 7467SOL     OW29633   5.232   1.804   5.113 -0.3831  0.4594  0.0097
 7467SOL    HW229634   5.209   1.741   5.045 -0.8900  0.0279  0.5656
 7467SOL    HW329635   5.245   1.886   5.067  0.5880 -0.1099 -0.7742
 7467SOL    MW429636   5.231   1.806   5.098 -0.3219  0.3273 -0.0204
 7468SOL     OW29637   4.897   3.573   5.301 -0.1380 -0.7164 -0.0541
 7468SOL    HW229638   4.850   3.566   5.384 -2.1293  0.0500 -1.0398
 7468SOL    HW329639   4.989   3.559   5.323 -0.5904 -0.2793  2.3112
 7468SOL    MW429640   4.903   3.570   5.315 -0.4604 -0.5576  0.1279
 7469SOL     OW29641   5.593   5.416   6.006  0.0471  0.3872 -0.5077
 7469SOL    HW229642   5.565   5.452   5.922  0.1821  0.5153 -0.4975
 7469SOL    HW329643   5.688   5.410   6.000  0.0449  0.2494 -0.4223
 7469SOL    MW429644   5.602   5.420   5.994  0.0646  0.3859 -0.4951
 7470SOL     OW29645   0.404   6.275   1.665  0.5845 -0.8420 -0.1395
 7470SOL    HW229646   0.321   6.226   1.663  0.2710 -0.4049  1.3523
 7470SOL    HW329647   0.462   6.222   1.720  0.5536 -0.0179  0.6988
 7470SOL    MW429648   0.401   6.261   1.672  0.5391 -0.6756  0.1679
 7471SOL     OW29649   4.433   5.647   4.340  0.2634 -0.6459 -0.0453
 7471SOL    HW229650   4.422   5.611   4.253 -0.3344  0.2031 -0.3331
 7471SOL    HW329651   4.404   5.577   4.399  1.1573 -1.4145 -0.4842
 7471SOL    MW429652   4.428   5.633   4.337  0.3025 -0.6353 -0.1412
 7472SOL     OW29653   1.796   1.048   5.445 -0.5199  0.1868  0.5207
 7472SOL    HW229654   1.820   1.132   5.484  3.1301  0.5239 -1.9289
 7472SOL    HW329655   1.795   1.066   5.351  0.3773 -2.4983 -0.0665
 7472SOL    MW429656   1.799   1.062   5.438  0.0801 -0.1230  0.1200
 7473SOL     OW29657   1.600   2.816   1.447  0.7925 -0.1780  0.1151
 7473SOL    HW229658   1.593   2.909   1.471  0.2662 -0.6985  2.1471
 7473SOL    HW329659   1.532   2.804   1.380  0.1796  0.6877  0.5584
 7473SOL    MW429660   1.590   2.827   1.441  0.6422 -0.1325  0.4417
 7474SOL     OW29661   5.416   4.445   2.679  0.2515 -0.0876 -0.2728
 7474SOL    HW229662   5.493   4.403   2.639 -0.2908 -1.0116 -0.3886
 7474SOL    HW329663   5.342   4.414   2.626 -0.2970  0.0309  0.4114
 7474SOL    MW429664   5.417   4.435   2.666  0.1076 -0.1939 -0.1978
 7475SOL     OW29665   4.872   3.324   5.215  0.0258  0.2630  0.6489
 7475SOL    HW229666   4.800   3.301   5.274  0.3626 -1.3870  0.4667
 7475SOL    HW329667   4.880   3.419   5.223  0.3117  0.1099  3.5828
 7475SOL    MW429668   4.864   3.333   5.224  0.1079  0.0251  1.0119
 7476SOL     OW29669   5.812   5.168   0.153  0.0524 -0.7993 -0.4425
 7476SOL    HW229670   5.768   5.170   0.069 -0.9546  0.6025  0.0712
 7476SOL    HW329671   5.878   5.099   0.145  2.1862  1.3626 -3.4779
 7476SOL    MW429672   5.815   5.159   0.141  0.2011 -0.3291 -0.7753
 7477SOL     OW29673   2.706   2.859   1.041  0.2320 -0.0802 -0.1926
 7477SOL    HW229674   2.783   2.814   1.074  1.4140  1.4877 -0.6597
 7477SOL    HW329675   2.730   2.885   0.952 -0.3656  1.4418  0.0564
 7477SOL    MW429676   2.719   2.857   1.033  0.3091  0.3275 -0.2214
 7478SOL     OW29677   2.436   2.420   6.282  0.7359  0.1565  0.4005
 7478SOL    HW229678   2.370   2.484   6.308  0.6120 -0.0224  0.5265
 7478SOL    HW329679   2.414   2.341   6.331  1.3714  0.2584  0.8585
 7478SOL    MW429680   2.425   2.418   6.292  0.8034  0.1464  0.4776
 7479SOL     OW29681   5.690   6.396   0.552  0.2015  0.4343  0.1352
 7479SOL    HW229682   5.622   6.339   0.516  0.5723 -0.6596  1.0914
 7479SOL    HW329683   5.707   6.460   0.482 -2.3237  1.2439  0.1718
 7479SOL    MW429684   5.683   6.397   0.538 -0.0828  0.3968  0.2662
 7480SOL     OW29685   5.415   5.933   0.146  0.5223  0.2823 -0.3173
 7480SOL    HW229686   5.472   5.885   0.087 -0.0969  0.0436 -0.7377
 7480SOL    HW329687   5.419   5.884   0.228 -0.3314 -0.6853 -0.8259
 7480SOL    MW429688   5.423   5.920   0.149  0.3279  0.1231 -0.4399
 7481SOL     OW29689   0.219   5.108   6.289 -0.0676 -0.3082  0.2272
 7481SOL    HW229690   0.256   5.057   6.361  1.0409 -0.5713 -0.5034
 7481SOL    HW329691   0.166   5.175   6.332  1.5727  0.3165  1.3473
 7481SOL    MW429692   0.217   5.110   6.304  0.2951 -0.2605  0.2786
 7482SOL     OW29693   5.012   4.147   4.851 -0.1497 -0.1336 -0.1340
 7482SOL    HW229694   5.099   4.131   4.886 -0.5738 -0.5407  0.7694
 7482SOL    HW329695   4.989   4.066   4.805 -0.5133 -0.4869  0.6441
 7482SOL    MW429696   5.020   4.134   4.850 -0.2536 -0.2339  0.0879
 7483SOL     OW29697   2.365   3.716   1.131  0.4140  0.2451 -0.3108
 7483SOL    HW229698   2.438   3.745   1.187  0.6455  1.5115 -1.2266
 7483SOL    HW329699   2.380   3.622   1.120 -0.1074 -0.2380  2.3876
 7483SOL    MW429700   2.377   3.707   1.137  0.3758  0.3484 -0.0756
 7484SOL     OW29701   3.010   3.756   2.724 -0.1842  0.5999  0.6034
 7484SOL    HW229702   3.035   3.847   2.738 -0.8815  0.9465 -0.3058
 7484SOL    HW329703   3.091   3.706   2.740  0.8119  1.5698 -1.0933
 7484SOL    MW429704   3.024   3.762   2.728 -0.1448  0.7736  0.2596
 7485SOL     OW29705   5.513   4.932   4.752  0.0680  0.5802 -0.1927
 7485SOL    HW229706   5.435   4.987   4.742  0.1410  0.6740 -0.2528
 7485SOL    HW329707   5.499   4.859   4.691  0.6581  1.3205 -1.2464
 7485SOL    MW429708   5.501   4.929   4.742  0.1555  0.6902 -0.3397
 7486SOL     OW29709   1.108   0.590   0.683 -0.4414  0.1862 -0.1372
 7486SOL    HW229710   1.197   0.589   0.717 -0.3639 -1.6626 -0.2913
 7486SOL    HW329711   1.118   0.592   0.588 -0.5466 -0.3370 -0.1629
 7486SOL    MW429712   1.121   0.590   0.675 -0.4450 -0.1267 -0.1609
 7487SOL     OW29713   5.697   1.290   4.642  0.5327 -0.0760 -0.0884
 7487SOL    HW229714   5.631   1.351   4.610 -0.6862  0.0351  2.4185
 7487SOL    HW329715   5.755   1.343   4.696  1.6951 -0.4944 -0.8892
 7487SOL    MW429716   5.696   1.305   4.645  0.5252 -0.1165  0.1367
 7488SOL     OW29717   1.946   1.533   1.830 -0.3051  0.1088 -0.1647
 7488SOL    HW229718   1.973   1.532   1.923 -0.8443  1.5033  0.0332
 7488SOL    HW329719   1.942   1.441   1.805  0.8501 -0.2653  0.9074
 7488SOL    MW429720   1.949   1.521   1.839 -0.2238  0.2434  0.0029
 7489SOL     OW29721   1.243   4.254   0.710 -0.8357 -0.1057 -0.4267
 7489SOL    HW229722   1.148   4.255   0.701 -0.9928  0.7482  1.0090
 7489SOL    HW329723   1.261   4.183   0.772 -0.5914  0.1057 -0.2514
 7489SOL    MW429724   1.233   4.245   0.717 -0.8242  0.0349 -0.2141
 7490SOL     OW29725   1.519   5.570   5.249 -0.4636  0.0204  0.0684
 7490SOL    HW229726   1.454   5.502   5.232 -0.9344  0.6413 -0.6732
 7490SOL    HW329727   1.602   5.524   5.254 -0.9346 -0.7670  0.8828
 7490SOL    MW429728   1.521   5.555   5.247 -0.5878 -0.0016  0.0780
 7491SOL     OW29729   5.664   2.101   2.375 -0.4439  0.2128 -0.4442
 7491SOL    HW229730   5.733   2.043   2.341 -2.0761 -1.5902 -0.8745
 7491SOL    HW329731   5.597   2.100   2.307 -0.7160  2.3731 -0.2871
 7491SOL    MW429732   5.665   2.093   2.361 -0.6951  0.2600 -0.4803
 7492SOL     OW29733   0.058   6.003   3.496  0.4006 -0.0090  0.3734
 7492SOL    HW229734   0.128   6.001   3.431  0.8082  2.6586  0.5998
 7492SOL    HW329735   0.103   5.998   3.580 -0.0219 -1.9981  0.5314
 7492SOL    MW429736   0.073   6.002   3.499  0.3986  0.0805  0.4241
 7493SOL     OW29737   5.718   1.607   2.532 -0.0442 -0.1288  0.3852
 7493SOL    HW229738   5.747   1.550   2.604 -0.6030 -2.2758 -0.9851
 7493SOL    HW329739   5.783   1.677   2.530  0.4402 -0.4457  2.4554
 7493SOL    MW429740   5.730   1.608   2.542 -0.0540 -0.4539  0.4776
 7494SOL     OW29741   4.903   1.059   5.394 -0.4215  0.0305  0.0918
 7494SOL    HW229742   4.821   1.028   5.432 -0.7726 -0.4474 -1.0338
 7494SOL    HW329743   4.929   0.991   5.332  2.0987 -1.0466  2.0942
 7494SOL    MW429744   4.896   1.046   5.391 -0.1353 -0.1746  0.2075
 7495SOL     OW29745   2.754   0.822   3.488 -0.1835  0.1188 -0.0387
 7495SOL    HW229746   2.819   0.880   3.528 -0.8460 -1.3465  3.6134
 7495SOL    HW329747   2.684   0.880   3.458 -0.5869  1.3678  2.9965
 7495SOL    MW429748   2.753   0.838   3.489 -0.3242  0.0902  0.8436
 7496SOL     OW29749   4.245   5.805   3.445  0.3882  0.6229  0.3172
 7496SOL    HW229750   4.198   5.852   3.514 -0.2567  1.4001 -0.6175
 7496SOL    HW329751   4.193   5.727   3.429 -0.9976  1.7658 -1.1223
 7496SOL    MW429752   4.232   5.801   3.452  0.1203  0.8762  0.0040
 7497SOL     OW29753   3.471   6.351   3.761 -0.4594  0.5546  0.2695
 7497SOL    HW229754   3.458   6.256   3.760  2.5399  0.0341  0.8817
 7497SOL    HW329755   3.560   6.363   3.728 -0.2140  3.0079  1.6146
 7497SOL    MW429756   3.481   6.340   3.757 -0.0313  0.8097  0.5278
 7498SOL     OW29757   5.306   6.363   5.716  0.6370  0.3498  0.1023
 7498SOL    HW229758   5.239   6.418   5.756  0.9496  0.1276  0.9378
 7498SOL    HW329759   5.297   6.278   5.758  0.7486  0.0073 -0.5447
 7498SOL    MW429760   5.296   6.359   5.727  0.6930  0.2753  0.1272
 7499SOL     OW29761   0.983   0.214   0.978  0.3026  0.7699 -0.1113
 7499SOL    HW229762   0.986   0.235   0.885 -0.9625 -0.1664 -0.3859
 7499SOL    HW329763   1.068   0.176   0.997  1.4992  3.1504 -0.2974
 7499SOL    MW429764   0.994   0.212   0.968  0.2936  0.9605 -0.1721
 7500SOL     OW29765   4.998   6.369   4.899 -0.2182 -0.6461  0.2575
 7500SOL    HW229766   4.940   6.431   4.943  0.1023  0.7242 -1.1689
 7500SOL    HW329767   5.073   6.361   4.957 -0.0231  0.7378  0.2205
 7500SOL    MW429768   5.000   6.376   4.912 -0.1502 -0.2827  0.0644
 7501SOL     OW29769   2.684   6.417   1.875 -0.0858 -0.0930  0.5830
 7501SOL    HW229770   2.773   6.403   1.906 -0.7089 -0.5095  2.2586
 7501SOL    HW329771   2.683   6.508   1.845  0.8078  0.0242  0.8792
 7501SOL    MW429772   2.696   6.427   1.875 -0.0502 -0.1325  0.8431
 7502SOL     OW29773   1.834   5.018   0.539 -0.1138 -0.7160 -0.2584
 7502SOL    HW229774   1.910   5.076   0.538  0.7429 -1.7801  0.3840
 7502SOL    HW329775   1.766   5.069   0.582  0.5541 -0.1070  0.1001
 7502SOL    MW429776   1.835   5.032   0.545  0.0874 -0.7760 -0.1263
 7503SOL     OW29777   4.382   2.669   2.127 -0.4207  0.9438 -0.7836
 7503SOL    HW229778   4.390   2.758   2.162  0.0169  0.2181  1.1025
 7503SOL    HW329779   4.298   2.638   2.161  0.8406 -0.4210  1.2943
 7503SOL    MW429780   4.372   2.677   2.136 -0.1965  0.6680 -0.2606
 7504SOL     OW29781   4.050   5.513   5.722 -0.7433 -0.3268 -0.1637
 7504SOL    HW229782   4.142   5.504   5.747 -0.0186 -1.1415 -2.8547
 7504SOL    HW329783   4.001   5.500   5.804  1.5016  0.8799  1.4866
 7504SOL    MW429784   4.056   5.510   5.736 -0.3515 -0.2750 -0.3010
 7505SOL     OW29785   3.231   3.568   2.712 -0.2753 -0.5380  0.1420
 7505SOL    HW229786   3.181   3.518   2.648 -0.7285 -0.9620  0.8072
 7505SOL    HW329787   3.261   3.503   2.776  1.9671 -0.4518 -0.7190
 7505SOL    MW429788   3.228   3.553   2.712 -0.0392 -0.5826  0.1161
 7506SOL     OW29789   5.979   4.035   5.941  0.1377  0.4493  0.3953
 7506SOL    HW229790   6.023   3.956   5.908  0.6630  0.4566  1.0541
 7506SOL    HW329791   6.023   4.107   5.896 -2.1611  0.3215 -2.3458
 7506SOL    MW429792   5.991   4.034   5.931 -0.0963  0.4334  0.1206
 7507SOL     OW29793   2.060   2.908   3.777 -0.0083  0.3793  0.6148
 7507SOL    HW229794   2.075   2.981   3.837 -0.5914  2.0787 -1.1907
 7507SOL    HW329795   1.965   2.896   3.777  0.0905 -0.4737  0.9783
 7507SOL    MW429796   2.050   2.916   3.785 -0.0722  0.4910  0.4245
 7508SOL     OW29797   1.269   0.436   5.066 -0.3034  0.4171 -0.2696
 7508SOL    HW229798   1.218   0.357   5.083  0.3219 -0.5372 -2.4272
 7508SOL    HW329799   1.332   0.439   5.138  0.1041 -1.4631 -0.4816
 7508SOL    MW429800   1.271   0.426   5.078 -0.1671  0.0431 -0.5823
 7509SOL     OW29801   0.791   4.181   1.354 -0.7739 -0.6377 -0.4813
 7509SOL    HW229802   0.718   4.196   1.414 -0.2701 -1.3309  0.3256
 7509SOL    HW329803   0.868   4.211   1.402 -0.5777  0.6508 -1.5626
 7509SOL    MW429804   0.791   4.187   1.368 -0.6816 -0.5592 -0.5175
 7510SOL     OW29805   4.760   4.714   6.040 -0.2362  0.5712 -0.4211
 7510SOL    HW229806   4.830   4.691   6.101 -1.1628 -1.5011 -0.0702
 7510SOL    HW329807   4.795   4.690   5.954 -0.2827  0.1282 -0.3161
 7510SOL    MW429808   4.774   4.708   6.037 -0.3646  0.2393 -0.3610
 7511SOL     OW29809   3.367   2.596   3.548 -0.2538  0.5911 -0.3725
 7511SOL    HW229810   3.452   2.573   3.587 -0.4426  1.1285  0.3587
 7511SOL    HW329811   3.379   2.686   3.517  0.0764 -0.0025 -2.0972
 7511SOL    MW429812   3.380   2.605   3.549 -0.2352  0.5837 -0.5036
 7512SOL     OW29813   1.431   2.259   1.002  0.0214 -0.9016 -0.4711
 7512SOL    HW229814   1.493   2.302   0.944 -0.2341 -0.7190 -0.6127
 7512SOL    HW329815   1.455   2.166   0.999 -0.7028 -1.0653 -1.7710
 7512SOL    MW429816   1.442   2.252   0.994 -0.1078 -0.8991 -0.6613
 7513SOL     OW29817   1.187   4.691   4.510  0.2724 -0.0366 -0.2587
 7513SOL    HW229818   1.184   4.717   4.602 -1.4657 -0.1193 -0.2516
 7513SOL    HW329819   1.280   4.693   4.487  0.5286  3.2881  0.5446
 7513SOL    MW429820   1.199   4.694   4.519  0.0769  0.3912 -0.1517
 7514SOL     OW29821   2.418   3.878   3.347  0.3966  0.4463  0.0365
 7514SOL    HW229822   2.328   3.848   3.364  0.4134  1.1107  1.4592
 7514SOL    HW329823   2.425   3.880   3.251 -0.6105 -1.0274 -0.0935
 7514SOL    MW429824   2.407   3.874   3.336  0.2659  0.3395  0.2071
 7515SOL     OW29825   1.748   6.054   4.609  0.3734  0.2125  0.2466
 7515SOL    HW229826   1.675   5.996   4.632  1.1505 -1.5301 -1.3402
 7515SOL    HW329827   1.709   6.140   4.597 -1.2060 -0.4241  0.6444
 7515SOL    MW429828   1.733   6.057   4.610  0.2676 -0.1014  0.0897
 7516SOL     OW29829   1.349   6.225   3.957  0.1732 -0.2003  0.1813
 7516SOL    HW229830   1.311   6.140   3.937  0.7828 -0.9630  2.0935
 7516SOL    HW329831   1.275   6.285   3.955 -0.5164 -1.0269  0.2665
 7516SOL    MW429832   1.334   6.222   3.954  0.1626 -0.4100  0.4448
 7517SOL     OW29833   5.557   4.567   0.111  0.3985 -0.5852  0.4729
 7517SOL    HW229834   5.506   4.586   0.189  0.0883  0.1827  0.0975
 7517SOL    HW329835   5.520   4.624   0.043 -0.1094 -2.0583 -0.5514
 7517SOL    MW429836   5.546   4.577   0.112  0.2905 -0.6783  0.2882
 7518SOL     OW29837   2.980   4.443   0.353  0.0341  0.5126  0.0722
 7518SOL    HW229838   2.956   4.351   0.349  1.8373  0.0333 -0.2534
 7518SOL    HW329839   2.992   4.460   0.447 -2.5063  1.0685  0.3745
 7518SOL    MW429840   2.978   4.433   0.365 -0.0631  0.5227  0.0691
 7519SOL     OW29841   2.880   2.720   3.250 -0.0060 -0.0595  0.1092
 7519SOL    HW229842   2.824   2.654   3.291  1.5846 -1.7212 -0.2913
 7519SOL    HW329843   2.969   2.692   3.270  0.7366  1.4713 -0.8793
 7519SOL    MW429844   2.884   2.708   3.258  0.3018 -0.0768 -0.0741
 7520SOL     OW29845   1.347   6.390   5.971  0.1379 -0.0784  0.2909
 7520SOL    HW229846   1.435   6.424   5.956 -0.1286  1.3810  1.6579
 7520SOL    HW329847   1.359   6.297   5.988  1.3914  0.0582  0.2135
 7520SOL    MW429848   1.360   6.382   5.971  0.2681  0.1322  0.4611
 7521SOL     OW29849   4.905   0.436   3.793 -0.3095  0.0175 -0.2805
 7521SOL    HW229850   4.956   0.355   3.799 -0.4819 -0.3084 -2.4588
 7521SOL    HW329851   4.970   0.504   3.771 -0.0567  0.6602  2.2067
 7521SOL    MW429852   4.920   0.435   3.791 -0.2989  0.0593 -0.2397
 7522SOL     OW29853   2.689   3.154   2.823 -0.7705  0.0442 -0.0002
 7522SOL    HW229854   2.693   3.244   2.856  0.5077 -0.0568  0.1945
 7522SOL    HW329855   2.596   3.138   2.807 -1.2168  0.8142  1.6016
 7522SOL    MW429856   2.678   3.164   2.825 -0.6607  0.1325  0.2368
 7523SOL     OW29857   2.145   3.259   0.287  0.5574 -0.0171  0.0245
 7523SOL    HW229858   2.119   3.237   0.376 -0.2144 -0.3321 -0.2709
 7523SOL    HW329859   2.113   3.348   0.273 -2.4074 -1.1360 -1.0665
 7523SOL    MW429860   2.138   3.268   0.296  0.0644 -0.2063 -0.1584
 7524SOL     OW29861   1.644   5.134   1.365 -0.1179 -0.1108  0.9968
 7524SOL    HW229862   1.644   5.045   1.329  0.0262 -0.6984  2.3819
 7524SOL    HW329863   1.704   5.183   1.308 -0.4634 -0.7949  0.0064
 7524SOL    MW429864   1.652   5.129   1.352 -0.1445 -0.2786  1.0489
 7525SOL     OW29865   3.541   0.124   3.942 -0.0968 -0.1199 -0.1163
 7525SOL    HW229866   3.507   0.063   3.877 -0.7347  0.1773 -0.0720
 7525SOL    HW329867   3.463   0.161   3.983  0.2663  0.8744 -0.2918
 7525SOL    MW429868   3.526   0.121   3.939 -0.1331  0.0505 -0.1336
 7526SOL     OW29869   5.481   2.145   2.173 -0.0334 -0.0151 -0.2655
 7526SOL    HW229870   5.535   2.216   2.139  0.5627  1.3387  3.1670
 7526SOL    HW329871   5.396   2.186   2.189 -0.0721 -0.3845  0.5181
 7526SOL    MW429872   5.477   2.160   2.171  0.0402  0.1148  0.2908
 7527SOL     OW29873   1.789   6.351   1.145 -0.4169  0.3384  0.2426
 7527SOL    HW229874   1.768   6.258   1.151 -0.2684  0.2823 -0.0914
 7527SOL    HW329875   1.802   6.367   1.051  1.5300  0.2655  0.4620
 7527SOL    MW429876   1.788   6.341   1.133 -0.1405  0.3214  0.2275
 7528SOL     OW29877   3.359   2.819   1.909 -0.1281 -0.7563  0.1335
 7528SOL    HW229878   3.357   2.844   1.817 -1.8159 -2.0249 -0.2197
 7528SOL    HW329879   3.331   2.727   1.910 -0.6023 -0.6307  1.9390
 7528SOL    MW429880   3.355   2.810   1.897 -0.4134 -0.9071  0.3251
 7529SOL     OW29881   6.106   3.871   2.489  0.0111 -0.3978 -0.2789
 7529SOL    HW229882   6.196   3.891   2.465  0.4113 -3.5738 -2.0645
 7529SOL    HW329883   6.055   3.899   2.413 -0.4990  1.0722  0.5816
 7529SOL    MW429884   6.111   3.877   2.475 -0.0034 -0.6229 -0.4009
 7530SOL     OW29885   2.586   3.613   2.014 -0.1332  0.2389 -0.0833
 7530SOL    HW229886   2.559   3.699   2.046 -1.1121 -0.5167  1.2311
 7530SOL    HW329887   2.680   3.609   2.034  0.2449  1.5169 -1.4475
 7530SOL    MW429888   2.595   3.624   2.021 -0.2125  0.3078 -0.0899
 7531SOL     OW29889   0.925   3.599   3.659  0.0922  0.2097  0.0206
 7531SOL    HW229890   0.960   3.550   3.584  1.6049  1.2109  0.0405
 7531SOL    HW329891   0.974   3.681   3.659  1.1407 -0.3089  2.9116
 7531SOL    MW429892   0.936   3.603   3.649  0.4301  0.2734  0.4047
 7532SOL     OW29893   4.189   3.566   5.998 -0.0833  0.3944  0.0331
 7532SOL    HW229894   4.143   3.482   5.995 -0.5616  0.6608 -3.2741
 7532SOL    HW329895   4.119   3.632   6.000  0.2259  0.7363 -0.2954
 7532SOL    MW429896   4.174   3.563   5.998 -0.1056  0.4747 -0.4466
 7533SOL     OW29897   4.016   6.307   0.943 -0.1307 -0.0295 -0.1797
 7533SOL    HW229898   3.981   6.230   0.898  1.5851 -0.1594 -1.4211
 7533SOL    HW329899   4.036   6.277   1.031  0.3745 -1.0031 -0.6022
 7533SOL    MW429900   4.014   6.293   0.949  0.1624 -0.1751 -0.3992
 7534SOL     OW29901   3.602   5.182   2.876 -0.3711  0.0795  0.4323
 7534SOL    HW229902   3.652   5.101   2.883  1.3677  1.2282  2.3431
 7534SOL    HW329903   3.639   5.240   2.943 -2.8541  1.7862  0.5019
 7534SOL    MW429904   3.613   5.179   2.886 -0.4693  0.4562  0.6936
 7535SOL     OW29905   5.202   5.225   0.155 -0.7413 -0.1211  0.9757
 7535SOL    HW229906   5.214   5.150   0.097 -2.1583  0.1191  0.3245
 7535SOL    HW329907   5.291   5.255   0.174 -0.1894  0.5045 -2.0612
 7535SOL    MW429908   5.216   5.219   0.150 -0.8555 -0.0069  0.4891
 7536SOL     OW29909   1.889   1.281   1.446  0.2862  0.0221 -0.0605
 7536SOL    HW229910   1.905   1.366   1.486 -0.6407  0.1019  0.1590
 7536SOL    HW329911   1.821   1.297   1.380 -1.4860 -0.8870  1.4517
 7536SOL    MW429912   1.882   1.294   1.443 -0.0699 -0.0873  0.1680
 7537SOL     OW29913   2.241   4.043   2.787  0.2356  0.0471 -0.6222
 7537SOL    HW229914   2.176   4.006   2.847  1.8114  0.0707  1.1807
 7537SOL    HW329915   2.244   3.981   2.714  0.8492 -2.0306  1.0425
 7537SOL    MW429916   2.233   4.030   2.785  0.5245 -0.2239 -0.1647
 7538SOL     OW29917   5.601   4.696   4.296  0.4578 -0.2800  0.5511
 7538SOL    HW229918   5.682   4.689   4.345  0.4831 -1.1511  0.4087
 7538SOL    HW329919   5.553   4.616   4.318  0.4783 -0.6992 -0.8313
 7538SOL    MW429920   5.605   4.684   4.305  0.4638 -0.4502  0.3499
 7539SOL     OW29921   1.709   5.854   5.840 -0.6564 -0.6863 -0.3566
 7539SOL    HW229922   1.717   5.792   5.913  0.1067 -1.8898 -1.4372
 7539SOL    HW329923   1.787   5.909   5.847 -0.0530 -1.4612 -0.8513
 7539SOL    MW429924   1.720   5.853   5.851 -0.4761 -0.9473 -0.5644
 7540SOL     OW29925   0.538   3.099   5.940  0.7706  0.3560 -0.3511
 7540SOL    HW229926   0.442   3.103   5.939  0.7454  0.1111 -1.7286
 7540SOL    HW329927   0.558   3.027   5.880  1.8165  0.3432  0.0081
 7540SOL    MW429928   0.528   3.090   5.932  0.9053  0.3220 -0.4855
 7541SOL     OW29929   6.175   4.804   1.255  0.1094 -0.0046  0.2174
 7541SOL    HW229930   6.089   4.812   1.212 -0.1598 -0.9252  0.5532
 7541SOL    HW329931   6.159   4.831   1.345 -0.4022 -2.3335  0.8978
 7541SOL    MW429932   6.161   4.808   1.261  0.0064 -0.4333  0.3515
 7542SOL     OW29933   5.880   5.051   0.972 -0.1027  0.0379  0.1214
 7542SOL    HW229934   5.886   5.146   0.977  0.9422  0.2718 -3.2750
 7542SOL    HW329935   5.800   5.035   0.922  0.1050 -0.8294  0.0506
 7542SOL    MW429936   5.870   5.061   0.966  0.0626 -0.0457 -0.3360
 7543SOL     OW29937   0.767   2.972   3.977 -0.4269  0.2990 -0.2744
 7543SOL    HW229938   0.854   2.940   3.954 -0.1477  0.6995  0.2262
 7543SOL    HW329939   0.734   3.009   3.895 -0.2103 -0.0215 -0.5140
 7543SOL    MW429940   0.774   2.972   3.963 -0.3615  0.3096 -0.2400
 7544SOL     OW29941   1.597   4.046   5.832  0.3692  0.5892  0.0110
 7544SOL    HW229942   1.658   4.118   5.844  0.7508  0.0812  1.1925
 7544SOL    HW329943   1.510   4.085   5.847  0.5455  0.8676  0.3106
 7544SOL    MW429944   1.593   4.061   5.835  0.4428  0.5589  0.2064
 7545SOL     OW29945   5.453   2.179   0.408  0.7812 -0.0763 -0.0062
 7545SOL    HW229946   5.387   2.170   0.340  1.6442  2.2598 -1.2833
 7545SOL    HW329947   5.408   2.226   0.479  0.7349  0.4573 -0.3808
 7545SOL    MW429948   5.438   2.184   0.408  0.8890  0.3023 -0.2241
 7546SOL     OW29949   3.421   5.086   1.430 -0.3959  0.4587  0.4364
 7546SOL    HW229950   3.385   5.025   1.495  1.9337 -0.7130  0.7093
 7546SOL    HW329951   3.492   5.130   1.476  0.5672  0.4277 -0.9742
 7546SOL    MW429952   3.425   5.084   1.445  0.0386  0.3000  0.2863
 7547SOL     OW29953   1.601   4.437   3.267 -0.1680 -0.3892  0.3486
 7547SOL    HW229954   1.631   4.415   3.179 -0.9601 -1.3372  0.3003
 7547SOL    HW329955   1.667   4.400   3.325  0.0847 -0.2165  0.1723
 7547SOL    MW429956   1.614   4.430   3.263 -0.2392 -0.4915  0.3190
 7548SOL     OW29957   3.701   1.076   5.910  0.1936 -0.0674 -0.2209
 7548SOL    HW229958   3.794   1.057   5.898 -0.1721 -2.0010 -0.1838
 7548SOL    HW329959   3.666   1.077   5.821 -0.3362 -2.7171 -0.1062
 7548SOL    MW429960   3.709   1.074   5.896  0.0754 -0.6721 -0.2009
 7549SOL     OW29961   4.480   2.460   1.428  0.0910  0.2128  0.1343
 7549SOL    HW229962   4.547   2.527   1.441 -0.3848  0.9871 -1.2569
 7549SOL    HW329963   4.481   2.442   1.334 -0.4983 -0.9940  0.3422
 7549SOL    MW429964   4.489   2.467   1.418 -0.0495  0.1558 -0.0219
 7550SOL     OW29965   5.622   3.255   4.244 -0.0989  0.5802  0.1708
 7550SOL    HW229966   5.636   3.301   4.161 -1.7044  1.3441  0.2952
 7550SOL    HW329967   5.551   3.194   4.226 -0.2256  0.5056  0.8966
 7550SOL    MW429968   5.615   3.253   4.230 -0.3275  0.6711  0.2830
 7551SOL     OW29969   4.353   1.629   5.924  0.3417 -0.0862 -0.5669
 7551SOL    HW229970   4.385   1.560   5.983  0.9829  2.0405  1.7525
 7551SOL    HW329971   4.259   1.612   5.916  0.2273 -0.4823  1.1204
 7551SOL    MW429972   4.345   1.617   5.931  0.4112  0.1421 -0.0383
 7552SOL     OW29973   0.603   0.751   2.536  0.1962  0.1519 -1.2229
 7552SOL    HW229974   0.650   0.776   2.456  1.7715  0.0489 -0.3614
 7552SOL    HW329975   0.642   0.667   2.561  0.0213  0.3923 -0.1153
 7552SOL    MW429976   0.615   0.743   2.528  0.3810  0.1700 -0.9631
 7553SOL     OW29977   1.892   3.256   1.897 -0.1319 -0.2686 -0.5845
 7553SOL    HW229978   1.918   3.164   1.901 -1.0192 -0.5497  3.5088
 7553SOL    HW329979   1.973   3.305   1.909  0.1940 -0.5271 -1.6491
 7553SOL    MW429980   1.906   3.250   1.899 -0.2060 -0.3398 -0.1849
 7554SOL     OW29981   0.190   5.556   1.625 -0.3137 -0.2888  0.1360
 7554SOL    HW229982   0.105   5.526   1.593 -1.1429  3.9103 -2.4374
 7554SOL    HW329983   0.169   5.617   1.696  0.3267  1.3232 -0.9735
 7554SOL    MW429984   0.176   5.560   1.630 -0.3386  0.4779 -0.3499
 7555SOL     OW29985   4.099   0.149   0.427 -0.7245 -0.1081 -0.0059
 7555SOL    HW229986   4.052   0.201   0.362 -0.5373 -2.3292 -2.0492
 7555SOL    HW329987   4.191   0.173   0.414 -0.8086  0.5694  0.5536
 7555SOL    MW429988   4.105   0.159   0.417 -0.7109 -0.3118 -0.2017
 7556SOL     OW29989   5.574   0.824   5.498 -0.1191  0.2573 -0.0280
 7556SOL    HW229990   5.479   0.812   5.501 -0.3725  1.6873 -1.1848
 7556SOL    HW329991   5.588   0.913   5.530  0.7759  0.2694 -0.4231
 7556SOL    MW429992   5.563   0.834   5.502 -0.0344  0.4476 -0.2328
 7557SOL     OW29993   5.620   4.524   6.121 -0.5561 -0.6534 -0.2553
 7557SOL    HW229994   5.650   4.492   6.206 -0.7536 -1.3549 -0.4397
 7557SOL    HW329995   5.571   4.450   6.085 -0.4735 -0.3564 -0.9749
 7557SOL    MW429996   5.617   4.510   6.128 -0.5712 -0.7068 -0.3745
 7558SOL     OW29997   5.899   3.335   3.350 -0.5864  0.3565 -0.1269
 7558SOL    HW229998   5.968   3.382   3.303 -0.2412 -2.2204 -2.4968
 7558SOL    HW329999   5.939   3.309   3.432  0.6705  0.4818 -0.6746
 7558SOL    MW430000   5.913   3.338   3.354 -0.3751  0.0330 -0.5119
 7559SOL     OW30001   1.478   0.398   2.806  0.0673 -0.1618  0.0789
 7559SOL    HW230002   1.384   0.397   2.789 -0.0124 -1.8051  0.4401
 7559SOL    HW330003   1.490   0.466   2.872 -0.7946  0.3350 -0.2583
 7559SOL    MW430004   1.467   0.407   2.812 -0.0570 -0.3130  0.0821
 7560SOL     OW30005   5.862   2.548   4.011 -0.1389  0.3633 -0.1959
 7560SOL    HW230006   5.811   2.611   3.961  0.2553  0.6718 -0.2135
 7560SOL    HW330007   5.953   2.578   4.003  0.5182 -1.8426 -2.7765
 7560SOL    MW430008   5.867   2.560   4.003 -0.0002  0.1130 -0.5387
 7561SOL     OW30009   2.951   4.890   1.613  0.1257  0.3790 -0.1605
 7561SOL    HW230010   3.008   4.933   1.676  0.9233  0.5220 -0.9494
 7561SOL    HW330011   2.980   4.799   1.612  0.6065  0.5285 -0.8280
 7561SOL    MW430012   2.962   4.884   1.621  0.2944  0.4176 -0.3527
 7562SOL     OW30013   0.698   6.377   5.818 -0.1991  0.3477  0.1178
 7562SOL    HW230014   0.789   6.385   5.848  0.1222 -0.3742 -0.6189
 7562SOL    HW330015   0.672   6.289   5.845 -0.5035  0.3649 -0.1185
 7562SOL    MW430016   0.707   6.366   5.826 -0.1969  0.2547 -0.0106
 7563SOL     OW30017   3.493   0.977   6.093  0.5876 -0.0403 -0.1913
 7563SOL    HW230018   3.569   1.016   6.051  0.7504 -0.5457 -0.3684
 7563SOL    HW330019   3.530   0.926   6.166  0.4822 -0.8071 -0.6629
 7563SOL    MW430020   3.508   0.975   6.097  0.5952 -0.2082 -0.2769
 7564SOL     OW30021   4.513   2.126   2.475  0.0476  0.4364  0.5995
 7564SOL    HW230022   4.524   2.076   2.556  0.8876  0.1914  0.3480
 7564SOL    HW330023   4.506   2.217   2.503 -1.4897  0.2104  1.0645
 7564SOL    MW430024   4.514   2.131   2.490 -0.0444  0.3743  0.6277
 7565SOL     OW30025   0.168   1.574   3.561 -0.1488 -0.3524 -0.0801
 7565SOL    HW230026   0.090   1.599   3.612 -0.0150 -0.8138  0.3541
 7565SOL    HW330027   0.229   1.647   3.574 -0.4076 -0.1088 -0.2135
 7565SOL    MW430028   0.165   1.587   3.570 -0.1653 -0.3811 -0.0404
 7566SOL     OW30029   1.712   0.792   4.319  0.0710  0.2455  0.0892
 7566SOL    HW230030   1.757   0.869   4.284  1.8953 -1.0042 -0.4729
 7566SOL    HW330031   1.663   0.757   4.245 -0.5947  0.7473  0.2907
 7566SOL    MW430032   1.712   0.797   4.305  0.2239  0.1468  0.0416
 7567SOL     OW30033   4.849   0.183   5.996  0.0041  0.4623  0.0356
 7567SOL    HW230034   4.776   0.139   5.954  0.3785  0.5053 -0.6724
 7567SOL    HW330035   4.891   0.233   5.926  0.2484  1.0620  0.5916
 7567SOL    MW430036   4.845   0.184   5.981  0.0857  0.5471  0.0155
 7568SOL     OW30037   4.780   1.553   0.374 -0.5261  0.0415 -0.3046
 7568SOL    HW230038   4.773   1.457   0.370 -0.0195  0.0294 -1.9941
 7568SOL    HW330039   4.723   1.584   0.304 -0.8210  1.0005  0.3405
 7568SOL    MW430040   4.772   1.544   0.364 -0.4982  0.1664 -0.4424
 7569SOL     OW30041   5.619   3.950   5.546  0.0900 -0.1172 -0.3457
 7569SOL    HW230042   5.548   3.893   5.575 -0.1825  0.1259 -0.5261
 7569SOL    HW330043   5.666   3.899   5.480 -1.2268  0.5123 -1.8266
 7569SOL    MW430044   5.616   3.936   5.541 -0.1197 -0.0021 -0.5649
 7570SOL     OW30045   5.482   2.248   1.169  0.2995 -0.1844  0.1054
 7570SOL    HW230046   5.553   2.206   1.218 -0.9076  0.6012  2.6696
 7570SOL    HW330047   5.413   2.182   1.166 -0.0964  0.2002  0.5943
 7570SOL    MW430048   5.483   2.233   1.175  0.0880 -0.0300  0.5082
 7571SOL     OW30049   0.207   2.766   3.875 -0.2676 -0.1355 -0.1043
 7571SOL    HW230050   0.156   2.818   3.936  0.5113  0.0175  0.4255
 7571SOL    HW330051   0.274   2.826   3.842  1.4403 -1.0686  1.4605
 7571SOL    MW430052   0.209   2.781   3.878  0.0605 -0.2384  0.1721
 7572SOL     OW30053   0.622   4.683   2.994  0.4678  0.5861  0.2164
 7572SOL    HW230054   0.683   4.643   3.056  1.7102  1.3226 -0.4894
 7572SOL    HW330055   0.582   4.755   3.043 -0.5776 -0.4789  0.9795
 7572SOL    MW430056   0.625   4.687   3.008  0.4938  0.5427  0.2240
 7573SOL     OW30057   4.741   5.143   0.655  0.4876 -0.7756  0.0918
 7573SOL    HW230058   4.701   5.056   0.656  0.3237 -0.7001  1.3290
 7573SOL    HW330059   4.676   5.198   0.612  1.1317 -1.4786 -1.9080
 7573SOL    MW430060   4.727   5.138   0.649  0.5509 -0.8584 -0.0089
 7574SOL     OW30061   1.459   4.246   4.893  0.5693 -0.1620 -0.0617
 7574SOL    HW230062   1.509   4.172   4.856  0.6348 -0.7303  1.1364
 7574SOL    HW330063   1.374   4.209   4.916  1.4748 -0.6008  3.0459
 7574SOL    MW430064   1.454   4.231   4.891  0.6974 -0.2949  0.5064
 7575SOL     OW30065   6.141   0.873   1.310 -0.3601 -0.8753 -0.6908
 7575SOL    HW230066   6.148   0.844   1.401  2.3350 -1.0737 -0.8841
 7575SOL    HW330067   6.164   0.795   1.259 -0.7115 -0.4554 -1.5053
 7575SOL    MW430068   6.145   0.859   1.315 -0.0509 -0.8461 -0.8238
 7576SOL     OW30069   3.745   0.141   3.192  0.1780  0.1349  0.1527
 7576SOL    HW230070   3.691   0.088   3.251 -0.9086  1.9008  0.8087
 7576SOL    HW330071   3.698   0.224   3.184  0.9967  0.4360 -2.1515
 7576SOL    MW430072   3.732   0.145   3.199  0.1426  0.4076 -0.0647
 7577SOL     OW30073   4.451   0.344   2.598  0.2702 -0.4159  0.1039
 7577SOL    HW230074   4.508   0.309   2.530  0.8744 -0.7473  0.7719
 7577SOL    HW330075   4.504   0.342   2.677 -0.3816  0.0910  0.5613
 7577SOL    MW430076   4.465   0.339   2.599  0.2639 -0.3927  0.2524
 7578SOL     OW30077   4.579   4.793   1.272 -0.6067 -0.2120 -0.3312
 7578SOL    HW230078   4.518   4.720   1.265 -1.5221  0.3508  1.1460
 7578SOL    HW330079   4.534   4.867   1.232  0.5948 -0.5491 -2.4504
 7578SOL    MW430080   4.565   4.794   1.266 -0.5690 -0.1822 -0.4159
 7579SOL     OW30081   0.120   1.767   2.947 -0.3827 -0.5940  0.1710
 7579SOL    HW230082   0.182   1.804   3.009 -0.2710 -1.3463  0.5234
 7579SOL    HW330083   0.038   1.760   2.995 -0.6857  0.1863 -0.2233
 7579SOL    MW430084   0.117   1.771   2.961 -0.4079 -0.5903  0.1655
 7580SOL     OW30085   1.094   3.326   1.232  0.3006  0.2362 -0.7497
 7580SOL    HW230086   1.035   3.274   1.178 -0.5798  1.7429 -1.2845
 7580SOL    HW330087   1.174   3.333   1.179  0.2482 -0.1358 -0.8865
 7580SOL    MW430088   1.097   3.320   1.218  0.1775  0.3859 -0.8383
 7581SOL     OW30089   0.362   5.212   5.808  0.2728 -0.4277  0.2631
 7581SOL    HW230090   0.451   5.178   5.809 -0.1345 -1.5392  0.3351
 7581SOL    HW330091   0.344   5.236   5.898  0.3938 -0.4959  0.3054
 7581SOL    MW430092   0.371   5.211   5.820  0.2350 -0.5833  0.2782
 7582SOL     OW30093   1.965   4.416   4.729 -0.0772  0.4225 -0.2423
 7582SOL    HW230094   1.871   4.425   4.712 -0.0403  2.1227  0.3137
 7582SOL    HW330095   2.007   4.470   4.662  0.5855 -1.0164 -1.0437
 7582SOL    MW430096   1.958   4.424   4.718  0.0151  0.4570 -0.2747
 7583SOL     OW30097   0.710   2.259   5.510 -0.6407 -0.7775 -0.3244
 7583SOL    HW230098   0.615   2.261   5.498 -0.5261 -0.7641 -1.3363
 7583SOL    HW330099   0.739   2.188   5.452 -0.1937 -1.9528  1.2580
 7583SOL    MW430100   0.701   2.250   5.501 -0.5666 -0.9308 -0.2491
 7584SOL     OW30101   2.083   2.904   6.209 -0.2090 -0.3900 -0.0786
 7584SOL    HW230102   2.067   2.866   6.295  1.3027 -1.5609 -0.2625
 7584SOL    HW330103   2.015   2.867   6.153 -0.5211 -0.4994  0.3635
 7584SOL    MW430104   2.072   2.894   6.213 -0.0507 -0.5589 -0.0445
 7585SOL     OW30105   3.181   4.906   3.579  0.4463 -0.1080 -0.0394
 7585SOL    HW230106   3.164   5.000   3.586  0.5070 -0.2104  3.3797
 7585SOL    HW330107   3.264   4.899   3.532  0.4377  1.5200 -0.3408
 7585SOL    MW430108   3.190   4.917   3.574  0.4532  0.0933  0.3720
 7586SOL     OW30109   3.020   2.294   1.138  0.3250  0.3622 -0.3238
 7586SOL    HW230110   3.013   2.360   1.207 -0.4407  0.3143 -0.3482
 7586SOL    HW330111   2.933   2.254   1.134  1.2448 -1.9413  0.9700
 7586SOL    MW430112   3.008   2.298   1.147  0.3453  0.0520 -0.1563
 7587SOL     OW30113   5.970   0.115   4.616  0.0866 -0.2761 -0.3996
 7587SOL    HW230114   5.894   0.146   4.567  0.0194 -0.0232 -0.1335
 7587SOL    HW330115   6.013   0.194   4.648 -1.0535 -0.4476  1.7624
 7587SOL    MW430116   5.965   0.129   4.614 -0.0727 -0.2653 -0.0793
 7588SOL     OW30117   0.279   0.027   4.018  0.0889  0.1788 -0.4417
 7588SOL    HW230118   0.323   0.001   4.099 -1.4554 -0.3038  0.2767
 7588SOL    HW330119   0.224   0.101   4.043  0.8072  1.0700 -1.4244
 7588SOL    MW430120   0.277   0.033   4.032 -0.0201  0.2327 -0.4766
 7589SOL     OW30121   3.106   5.667   5.359 -0.0283 -0.2757  0.2720
 7589SOL    HW230122   3.185   5.715   5.335 -1.0736  0.5284 -1.8560
 7589SOL    HW330123   3.043   5.734   5.384 -0.3056 -0.8419  1.1307
 7589SOL    MW430124   3.108   5.682   5.359 -0.2028 -0.2443  0.1045
 7590SOL     OW30125   0.917   3.385   3.829 -0.5144 -0.5073 -0.2110
 7590SOL    HW230126   0.927   3.471   3.789 -0.8797  0.0198  0.8135
 7590SOL    HW330127   0.937   3.323   3.758  1.1030  0.4080 -0.6124
 7590SOL    MW430128   0.921   3.388   3.814 -0.3492 -0.3170 -0.1288
 7591SOL     OW30129   0.715   1.131   5.769  0.5411  0.2370 -0.4266
 7591SOL    HW230130   0.775   1.059   5.749  2.8888  1.1227  2.6459
 7591SOL    HW330131   0.771   1.208   5.771 -1.2070  1.5451  0.1118
 7591SOL    MW430132   0.730   1.131   5.767  0.6202  0.5265  0.0498
 7592SOL     OW30133   5.951   3.334   5.201 -0.4112 -0.1412 -0.0408
 7592SOL    HW230134   5.886   3.310   5.135  0.0175  1.3351 -1.0614
 7592SOL    HW330135   6.035   3.320   5.157 -0.1238  2.6925 -0.6030
 7592SOL    MW430136   5.954   3.329   5.186 -0.3167  0.4274 -0.2496
 7593SOL     OW30137  -0.001   0.540   1.100  0.4422  0.1658  0.4559
 7593SOL    HW230138  -0.029   0.626   1.131 -0.2067  1.0766 -2.4209
 7593SOL    HW330139  -0.080   0.486   1.102  0.2018  0.4746 -0.3465
 7593SOL    MW430140  -0.015   0.544   1.105  0.3249  0.3267 -0.0295
 7594SOL     OW30141   2.203   1.087   3.088  0.4618  0.0955 -0.2994
 7594SOL    HW230142   2.248   1.015   3.046 -0.7247  0.2758 -1.9493
 7594SOL    HW330143   2.144   1.122   3.022 -2.2817 -0.2553  1.7655
 7594SOL    MW430144   2.201   1.082   3.074 -0.0567  0.0730 -0.2446
 7595SOL     OW30145   3.480   2.191   6.221 -0.1942 -0.0579 -0.1082
 7595SOL    HW230146   3.441   2.271   6.256 -1.3608 -1.1090  1.0976
 7595SOL    HW330147   3.482   2.204   6.126 -1.8879  0.7408 -0.0619
 7595SOL    MW430148   3.475   2.203   6.213 -0.5716 -0.0912  0.0570
 7596SOL     OW30149   4.107   0.490   5.333  0.1587  0.3325  0.4352
 7596SOL    HW230150   4.021   0.532   5.326 -0.6841 -1.6253 -2.1166
 7596SOL    HW330151   4.100   0.410   5.281  2.7360 -1.2844  2.3366
 7596SOL    MW430152   4.095   0.485   5.325  0.3875 -0.1391  0.3494
 7597SOL     OW30153   4.845   5.691   3.184  0.2712 -0.2840  0.7116
 7597SOL    HW230154   4.822   5.774   3.143  2.7567  0.2026  0.1698
 7597SOL    HW330155   4.836   5.708   3.278 -0.4988  0.1614  0.5691
 7597SOL    MW430156   4.841   5.704   3.191  0.4975 -0.1610  0.6213
 7598SOL     OW30157   4.170   5.392   4.305 -0.0734 -0.1415 -0.3700
 7598SOL    HW230158   4.262   5.393   4.331 -0.6200 -0.0531  1.7387
 7598SOL    HW330159   4.134   5.313   4.346 -1.1159  0.2693 -0.4516
 7598SOL    MW430160   4.177   5.382   4.314 -0.2831 -0.0757 -0.1026
 7599SOL     OW30161   1.154   3.988   1.959 -0.2868 -0.1768  0.3214
 7599SOL    HW230162   1.078   3.938   1.928 -1.6049  1.2133  1.1993
 7599SOL    HW330163   1.189   4.030   1.880 -0.8738 -0.2490  0.0237
 7599SOL    MW430164   1.149   3.987   1.944 -0.5382 -0.0029  0.3979
 7600SOL     OW30165   2.145   1.472   2.675 -0.1108 -0.0741 -0.0355
 7600SOL    HW230166   2.212   1.438   2.616  0.0179 -1.1899  0.7274
 7600SOL    HW330167   2.117   1.397   2.726  0.3782  1.0243  1.9293
 7600SOL    MW430168   2.150   1.458   2.674 -0.0293 -0.0764  0.3244
 7601SOL     OW30169   0.514   4.130   0.275  0.4780 -0.1308 -0.1922
 7601SOL    HW230170   0.445   4.193   0.296  1.3597  0.7893  0.0108
 7601SOL    HW330171   0.495   4.103   0.185  0.3460  0.7712 -0.4450
 7601SOL    MW430172   0.502   4.135   0.266  0.5769  0.1096 -0.1988
 7602SOL     OW30173   3.562   1.311   1.017  0.2172  0.1570  0.3998
 7602SOL    HW230174   3.513   1.300   0.935 -0.2898 -0.4627  0.7798
 7602SOL    HW330175   3.578   1.405   1.023 -2.0746  0.5641  0.9020
 7602SOL    MW430176   3.558   1.322   1.007 -0.1521  0.1290  0.5162
 7603SOL     OW30177   1.552   1.553   4.430  0.0316  0.5302  0.1409
 7603SOL    HW230178   1.597   1.485   4.379 -0.0290  0.8309 -0.3148
 7603SOL    HW330179   1.478   1.507   4.470 -0.7391  0.5641 -1.1546
 7603SOL    MW430180   1.548   1.538   4.428 -0.0781  0.5743 -0.0902
 7604SOL     OW30181   4.890   4.844   5.801 -0.3009  0.1924 -0.0089
 7604SOL    HW230182   4.884   4.887   5.887 -0.5601  2.1457 -0.9372
 7604SOL    HW330183   4.983   4.846   5.779 -0.0211 -1.6596  0.8210
 7604SOL    MW430184   4.901   4.850   5.809 -0.2982  0.2058 -0.0219
 7605SOL     OW30185   3.408   3.898   0.907 -0.2492 -0.0148 -0.2444
 7605SOL    HW230186   3.388   3.986   0.940  0.4802 -0.7116  2.2455
 7605SOL    HW330187   3.324   3.852   0.910 -1.4471  1.3599 -4.7236
 7605SOL    MW430188   3.394   3.903   0.911 -0.3110  0.0746 -0.5069
 7606SOL     OW30189   6.234   2.072   2.724  0.1458  0.2992  0.1433
 7606SOL    HW230190   6.208   2.163   2.740  0.1190  0.5429 -1.2236
 7606SOL    HW330191   6.329   2.074   2.722  0.1243  0.6078 -1.5142
 7606SOL    MW430192   6.243   2.084   2.726  0.1395  0.3721 -0.2557
 7607SOL     OW30193   2.929   1.194   4.860 -0.9788  0.2007 -0.0571
 7607SOL    HW230194   2.896   1.105   4.847 -0.2839  0.0037 -0.5332
 7607SOL    HW330195   2.879   1.247   4.798 -0.5513 -0.0658 -0.6446
 7607SOL    MW430196   2.918   1.189   4.850 -0.8307  0.1395 -0.1974
 7608SOL     OW30197   4.791   5.704   2.375 -0.2956  0.3627 -0.4207
 7608SOL    HW230198   4.706   5.720   2.333 -1.6804 -0.4556  1.9282
 7608SOL    HW330199   4.814   5.787   2.416 -0.5859  0.2432 -0.0118
 7608SOL    MW430200   4.783   5.717   2.375 -0.5166  0.2390 -0.0568
 7609SOL     OW30201   0.446   1.582   3.822  0.7508  0.0910  0.7010
 7609SOL    HW230202   0.496   1.511   3.862 -1.0173 -0.2221  2.5328
 7609SOL    HW330203   0.355   1.552   3.824  0.1477  1.7267 -0.0457
 7609SOL    MW430204   0.441   1.568   3.827  0.4379  0.2655  0.8442
 7610SOL     OW30205   4.273   1.022   3.097  0.2316 -0.3177 -0.1637
 7610SOL    HW230206   4.239   1.073   3.172 -0.3785 -0.4215 -0.3607
 7610SOL    HW330207   4.209   0.952   3.086  1.8951 -2.1317  1.1360
 7610SOL    MW430208   4.260   1.020   3.106  0.3706 -0.5707 -0.0182
 7611SOL     OW30209   0.043   0.723   4.700  0.2995  0.2855  0.1557
 7611SOL    HW230210   0.128   0.763   4.720 -0.2824  1.2870  0.6779
 7611SOL    HW330211   0.065   0.634   4.672  1.5574  0.6779 -0.1743
 7611SOL    MW430212   0.057   0.716   4.699  0.3887  0.4694  0.1810
 7612SOL     OW30213   1.979   0.962   1.652  0.4200  0.4673 -0.6644
 7612SOL    HW230214   2.049   0.896   1.656  0.4785  0.4897 -1.3022
 7612SOL    HW330215   1.985   0.998   1.564  0.4209  1.3667 -0.3075
 7612SOL    MW430216   1.989   0.958   1.641  0.4278  0.5889 -0.7015
 7613SOL     OW30217   3.727   2.010   5.517  0.0235 -0.8885  0.4097
 7613SOL    HW230218   3.645   1.969   5.491 -0.6451  0.6097  0.0416
 7613SOL    HW330219   3.794   1.967   5.463 -0.8282 -0.6005 -0.9055
 7613SOL    MW430220   3.725   1.999   5.506 -0.1771 -0.6528  0.1876
 7614SOL     OW30221   4.072   2.784   4.634  0.3337  0.3189  0.4017
 7614SOL    HW230222   4.056   2.693   4.611  2.1123  0.0972 -0.0625
 7614SOL    HW330223   4.055   2.788   4.728 -2.0455  0.0894  0.0577
 7614SOL    MW430224   4.067   2.773   4.643  0.2545  0.2593  0.2951
 7615SOL     OW30225   1.831   3.074   4.622 -0.6152  0.7261  0.0440
 7615SOL    HW230226   1.797   3.128   4.693  1.7099  0.1031  1.7643
 7615SOL    HW330227   1.775   2.996   4.623 -0.1730  0.3809  1.7741
 7615SOL    MW430228   1.819   3.071   4.632 -0.2501  0.5984  0.4992
 7616SOL     OW30229   0.295   0.644   1.128 -0.1363 -0.4174  0.1253
 7616SOL    HW230230   0.208   0.606   1.116  0.7142 -2.4166 -0.1488
 7616SOL    HW330231   0.319   0.675   1.040 -1.6330  2.8006  0.7066
 7616SOL    MW430232   0.287   0.643   1.115 -0.2216 -0.2566  0.1658
 7617SOL     OW30233   3.984   2.213   0.907  0.0394  0.5471  0.0942
 7617SOL    HW230234   3.924   2.287   0.912 -1.5561 -0.7522  2.0191
 7617SOL    HW330235   4.047   2.229   0.977 -0.2944  0.1503  0.4978
 7617SOL    MW430236   3.984   2.225   0.917 -0.2151  0.3234  0.4014
 7618SOL     OW30237   3.830   0.122   3.714 -0.6820 -0.9762 -0.1191
 7618SOL    HW230238   3.780   0.135   3.634 -0.0117  1.1041 -0.2677
 7618SOL    HW330239   3.922   0.122   3.685 -0.3735  0.8887  0.7072
 7618SOL    MW430240   3.836   0.124   3.700 -0.5529 -0.4556 -0.0297
 7619SOL     OW30241   4.947   5.365   3.236 -0.4985 -0.3250 -0.0045
 7619SOL    HW230242   4.855   5.394   3.232 -0.3886 -0.0449 -2.7107
 7619SOL    HW330243   4.942   5.274   3.263 -1.4852 -0.0805  0.7316
 7619SOL    MW430244   4.934   5.357   3.239 -0.6142 -0.2558 -0.2645
 7620SOL     OW30245   1.610   5.697   6.371  0.0347 -0.2316 -0.2439
 7620SOL    HW230246   1.694   5.653   6.378 -0.2084 -0.5283  1.0094
 7620SOL    HW330247   1.546   5.632   6.400 -0.7120 -0.2000 -1.6851
 7620SOL    MW430248   1.613   5.682   6.375 -0.0959 -0.2665 -0.2687
 7621SOL     OW30249   4.612   2.936   5.961 -0.1405 -0.1269  0.3379
 7621SOL    HW230250   4.697   2.962   5.924 -0.7878 -1.0038 -1.8590
 7621SOL    HW330251   4.635   2.891   6.043  1.5713 -0.9200 -0.5245
 7621SOL    MW430252   4.626   2.934   5.967 -0.0000 -0.3473 -0.0657
 7622SOL     OW30253   6.191   5.675   3.940 -0.5995 -0.1296  0.2926
 7622SOL    HW230254   6.247   5.650   3.866  0.8291  0.4366  1.1462
 7622SOL    HW330255   6.251   5.707   4.006 -1.9776  0.8731  1.1244
 7622SOL    MW430256   6.206   5.676   3.939 -0.5929  0.0774  0.5150
 7623SOL     OW30257   1.685   2.398   1.749 -0.3657  0.4276  0.7108
 7623SOL    HW230258   1.662   2.350   1.829 -0.4846  0.0933  0.4777
 7623SOL    HW330259   1.623   2.471   1.747  0.1397  0.8966  1.3332
 7623SOL    MW430260   1.674   2.402   1.760 -0.3147  0.4454  0.7622
 7624SOL     OW30261   2.277   6.358   2.141 -0.0047  0.6443 -0.2583
 7624SOL    HW230262   2.253   6.279   2.190 -0.6625  0.7333 -0.4314
 7624SOL    HW330263   2.373   6.363   2.149  0.0075  0.0162  0.0315
 7624SOL    MW430264   2.287   6.349   2.149 -0.0898  0.5732 -0.2429
 7625SOL     OW30265   0.136   5.607   2.780  0.5995  0.3047  0.0427
 7625SOL    HW230266   0.202   5.547   2.816  0.9350  0.0364 -0.9633
 7625SOL    HW330267   0.160   5.693   2.815  0.8105  0.0343  0.5821
 7625SOL    MW430268   0.148   5.610   2.789  0.6716  0.2336 -0.0188
 7626SOL     OW30269   5.416   4.311   6.056  0.0621 -0.0476  0.5918
 7626SOL    HW230270   5.418   4.255   5.978 -2.1386  1.7510 -0.8902
 7626SOL    HW330271   5.412   4.250   6.129  0.9757 -1.8015 -0.7498
 7626SOL    MW430272   5.416   4.296   6.055 -0.1077 -0.0417  0.2193
 7627SOL     OW30273   6.371   3.312   4.713 -0.2711 -0.7482 -0.0489
 7627SOL    HW230274   6.366   3.243   4.647 -1.3931 -0.7899  0.0559
 7627SOL    HW330275   6.410   3.270   4.789 -2.7420 -1.8942  0.7123
 7627SOL    MW430276   6.375   3.298   4.714 -0.7452 -0.9049  0.0653
 7628SOL     OW30277   0.477   6.396   3.479  0.4040 -0.1822  0.0298
 7628SOL    HW230278   0.510   6.333   3.415  1.9972  0.3909  0.2405
 7628SOL    HW330279   0.382   6.395   3.467  0.6003 -0.6834 -1.7641
 7628SOL    MW430280   0.469   6.388   3.469  0.6401 -0.1727 -0.1791
 7629SOL     OW30281   0.217   2.700   5.240  0.2494  0.4358  0.0059
 7629SOL    HW230282   0.145   2.679   5.299 -0.7835 -0.1390 -1.3859
 7629SOL    HW330283   0.277   2.752   5.293 -0.9439  0.5203  1.3550
 7629SOL    MW430284   0.215   2.704   5.255 -0.0444  0.3711  0.0003
 7630SOL     OW30285   5.971   6.053   0.568 -0.4125  0.8172 -0.1390
 7630SOL    HW230286   6.049   6.002   0.590 -0.0000  1.3200 -0.4170
 7630SOL    HW330287   5.986   6.081   0.478 -0.9503  0.8581 -0.2193
 7630SOL    MW430288   5.983   6.050   0.559 -0.4290  0.8890 -0.1862
 7631SOL     OW30289   4.434   1.234   1.910  0.3117  0.3064 -0.3098
 7631SOL    HW230290   4.456   1.327   1.918  0.1545  0.3731 -0.6123
 7631SOL    HW330291   4.368   1.218   1.978  1.6510 -0.0195  0.9595
 7631SOL    MW430292   4.428   1.244   1.920  0.4676  0.2722 -0.1822
 7632SOL     OW30293   0.059   2.763   3.113  0.0806  0.1219  0.1889
 7632SOL    HW230294   0.136   2.716   3.081  1.4374  2.1434  0.3135
 7632SOL    HW330295   0.093   2.824   3.178 -1.6603  0.9369  0.3997
 7632SOL    MW430296   0.073   2.765   3.117  0.0299  0.4961  0.2332
 7633SOL     OW30297   1.860   4.927   2.187 -0.1103  0.2852  0.1234
 7633SOL    HW230298   1.827   4.902   2.101 -1.3294  0.9229  0.3719
 7633SOL    HW330299   1.954   4.938   2.175 -0.4593  2.0106 -1.5749
 7633SOL    MW430300   1.868   4.925   2.174 -0.3172  0.5970 -0.0679
 7634SOL     OW30301   2.384   4.343   5.364 -0.3685 -0.2679  0.1251
 7634SOL    HW230302   2.476   4.346   5.389 -0.2554 -0.3517 -0.2772
 7634SOL    HW330303   2.352   4.260   5.398 -0.2306 -0.3540  0.0437
 7634SOL    MW430304   2.392   4.333   5.372 -0.3354 -0.2903  0.0613
 7635SOL     OW30305   4.540   3.415   0.167 -0.1960  0.5821  0.5421
 7635SOL    HW230306   4.631   3.387   0.174 -0.3794 -0.2861 -0.3876
 7635SOL    HW330307   4.495   3.366   0.237  0.1276  1.4535  1.3884
 7635SOL    MW430308   4.546   3.405   0.177 -0.1775  0.5825  0.5311
 7636SOL     OW30309   1.494   2.474   0.377 -0.2866 -0.1564 -0.4998
 7636SOL    HW230310   1.440   2.396   0.365 -0.0552 -0.3789 -0.1060
 7636SOL    HW330311   1.444   2.529   0.438 -1.0897  0.6223 -1.8039
 7636SOL    MW430312   1.480   2.471   0.383 -0.3620 -0.0830 -0.6199
 7637SOL     OW30313   3.831   2.991   4.752  0.0859  0.7778 -0.3931
 7637SOL    HW230314   3.834   2.910   4.701  0.1020 -0.1545  1.0277
 7637SOL    HW330315   3.913   3.035   4.731  1.5383 -1.0470  1.0488
 7637SOL    MW430316   3.842   2.986   4.742  0.2796  0.4140 -0.0154
 7638SOL     OW30317   1.240   0.596   5.707 -0.0629 -0.2979  0.5166
 7638SOL    HW230318   1.146   0.580   5.697  0.3400 -1.6851 -1.5070
 7638SOL    HW330319   1.282   0.516   5.676  1.8258  0.6016  0.6094
 7638SOL    MW430320   1.233   0.584   5.702  0.2395 -0.3622  0.2619
 7639SOL     OW30321   0.263   5.346   4.865  0.1571  0.9852  0.0165
 7639SOL    HW230322   0.260   5.442   4.871 -1.1644  1.0104 -0.6948
 7639SOL    HW330323   0.329   5.328   4.799  0.8347  1.3711  0.5672
 7639SOL    MW430324   0.271   5.356   4.857  0.0722  1.0395 -0.0047
 7640SOL     OW30325   5.204   1.255   1.608 -0.2791  0.1167  0.0711
 7640SOL    HW230326   5.252   1.332   1.638 -0.9457  0.9668 -0.9852
 7640SOL    HW330327   5.255   1.221   1.535  0.0000 -0.4611  0.5158
 7640SOL    MW430328   5.217   1.260   1.603 -0.3302  0.1526 -0.0096
 7641SOL     OW30329   1.083   5.177   3.786  0.0594 -1.2310  0.1777
 7641SOL    HW230330   1.093   5.144   3.696 -0.4747 -1.0054  0.0267
 7641SOL    HW330331   1.116   5.266   3.782  0.7521 -1.4718  0.3943
 7641SOL    MW430332   1.088   5.184   3.774  0.0803 -1.2330  0.1864
 7642SOL     OW30333   2.468   1.632   3.218 -0.0212  0.7253 -0.1482
 7642SOL    HW230334   2.416   1.709   3.244  0.0900  1.0201 -0.7712
 7642SOL    HW330335   2.414   1.589   3.153 -0.4612 -0.2100  0.8085
 7642SOL    MW430336   2.454   1.637   3.213 -0.0646  0.6408 -0.1042
 7643SOL     OW30337   4.121   0.887   3.791 -0.2184 -0.4341 -0.1669
 7643SOL    HW230338   4.027   0.879   3.777 -0.4275  1.8433 -0.5746
 7643SOL    HW330339   4.151   0.943   3.720  0.9999  0.8247  1.2567
 7643SOL    MW430340   4.113   0.894   3.780 -0.0852  0.0324 -0.0329
 7644SOL     OW30341   0.318   1.845   2.642 -0.1660  0.0014 -0.2276
 7644SOL    HW230342   0.225   1.828   2.657 -0.1203  0.1000  0.1903
 7644SOL    HW330343   0.321   1.934   2.607 -0.1987  0.1405  0.1247
 7644SOL    MW430344   0.306   1.854   2.639 -0.1643  0.0327 -0.1260
 7645SOL     OW30345   3.315   6.104   3.722  0.2987  0.1059 -0.1312
 7645SOL    HW230346   3.287   6.085   3.632 -0.3088  0.6002 -0.0575
 7645SOL    HW330347   3.238   6.081   3.776  1.0680 -1.3795  0.4102
 7645SOL    MW430348   3.301   6.098   3.717  0.3200 -0.0249 -0.0500
 7646SOL     OW30349   4.093   2.018   0.732 -0.1094 -0.2704 -0.4644
 7646SOL    HW230350   4.063   2.092   0.785  2.3573  0.1129  0.5470
 7646SOL    HW330351   4.144   1.964   0.793  0.9355 -1.0214 -1.9394
 7646SOL    MW430352   4.095   2.020   0.747  0.3539 -0.3189 -0.5256
 7647SOL     OW30353   3.748   2.136   2.088  0.1858 -0.0337 -0.0038
 7647SOL    HW230354   3.669   2.094   2.055 -0.9894  0.6032  1.8086
 7647SOL    HW330355   3.773   2.199   2.020 -1.4040  0.3819 -0.2403
 7647SOL    MW430356   3.741   2.139   2.075 -0.1790  0.1052  0.2041
 7648SOL     OW30357   2.912   3.070   5.714  0.2151 -0.2166 -0.0808
 7648SOL    HW230358   2.957   3.081   5.630 -1.5569  0.9042 -0.9565
 7648SOL    HW330359   2.979   3.089   5.780  1.3551  0.0385 -1.2610
 7648SOL    MW430360   2.927   3.074   5.711  0.1317 -0.0350 -0.3521
 7649SOL     OW30361   3.959   0.356   4.338  0.4598  0.6538 -0.4092
 7649SOL    HW230362   3.890   0.422   4.338  0.3211  0.5366  0.9692
 7649SOL    HW330363   3.969   0.331   4.246 -0.6660  1.3613 -0.7368
 7649SOL    MW430364   3.951   0.361   4.326  0.2929  0.7317 -0.2706
 7650SOL     OW30365   1.188   1.863   1.834  0.9610  0.2513 -0.3842
 7650SOL    HW230366   1.188   1.910   1.750 -1.0810  2.1176  0.5772
 7650SOL    HW330367   1.280   1.860   1.860  1.6726 -0.5261 -2.7220
 7650SOL    MW430368   1.200   1.869   1.826  0.7855  0.3950 -0.5658
 7651SOL     OW30369   3.494   3.036   1.693 -0.0557 -0.1772  0.1691
 7651SOL    HW230370   3.523   3.118   1.655 -2.6642  1.1419  0.8214
 7651SOL    HW330371   3.522   2.969   1.631  0.5622  1.3675 -1.2878
 7651SOL    MW430372   3.501   3.038   1.680 -0.3183  0.2007  0.0629
 7652SOL     OW30373   3.472   5.480   5.860  0.5797  0.5500  0.7513
 7652SOL    HW230374   3.471   5.434   5.944  0.7956  0.4268  0.6852
 7652SOL    HW330375   3.519   5.422   5.801 -1.4414 -0.3554 -0.0257
 7652SOL    MW430376   3.478   5.467   5.863  0.3415  0.4143  0.6400
 7653SOL     OW30377   0.260   4.359   2.473 -0.2119 -0.2624 -0.3679
 7653SOL    HW230378   0.248   4.427   2.540 -1.4359  0.4633 -1.2733
 7653SOL    HW330379   0.289   4.407   2.395  0.7785 -1.0421 -0.4973
 7653SOL    MW430380   0.262   4.374   2.471 -0.2427 -0.2695 -0.5044
 7654SOL     OW30381   6.094   4.776   5.899 -0.9386 -0.5928 -0.3501
 7654SOL    HW230382   6.187   4.765   5.915 -0.6478 -0.6710 -1.8875
 7654SOL    HW330383   6.082   4.870   5.886 -1.0997 -0.5637  0.0103
 7654SOL    MW430384   6.104   4.787   5.899 -0.9215 -0.5993 -0.5054
 7655SOL     OW30385   3.298   0.944   2.685  0.1791 -0.3559  0.5551
 7655SOL    HW230386   3.326   1.035   2.682  0.0654 -0.2310  2.2237
 7655SOL    HW330387   3.368   0.896   2.642  0.2816  0.5009 -0.2635
 7655SOL    MW430388   3.311   0.950   2.679  0.1776 -0.2264  0.6673
 7656SOL     OW30389   3.867   3.968   3.699  0.0401  0.4929 -0.4201
 7656SOL    HW230390   3.912   3.884   3.703  1.1721  1.0339 -1.1202
 7656SOL    HW330391   3.908   4.013   3.625 -0.2785  1.7999  0.1767
 7656SOL    MW430392   3.879   3.963   3.690  0.1474  0.7367 -0.4337
 7657SOL     OW30393   3.305   1.701   4.386 -0.4677 -0.3688 -0.6008
 7657SOL    HW230394   3.270   1.675   4.471  0.7166  0.5035  0.1987
 7657SOL    HW330395   3.229   1.705   4.328 -1.0126 -3.1500 -0.1927
 7657SOL    MW430396   3.290   1.698   4.390 -0.3834 -0.6206 -0.4415
 7658SOL     OW30397   1.944   4.900   2.584 -0.4217  0.5621 -0.2163
 7658SOL    HW230398   1.907   4.822   2.543 -1.1856  0.5198  0.5243
 7658SOL    HW330399   1.882   4.923   2.653  2.3227 -1.4045  3.3105
 7658SOL    MW430400   1.931   4.893   2.588 -0.1604  0.2970  0.3467
 7659SOL     OW30401   2.077   2.739   4.176 -0.4094 -0.5090  0.5868
 7659SOL    HW230402   2.151   2.750   4.236 -0.0393 -1.0138  0.2299
 7659SOL    HW330403   2.117   2.734   4.089 -0.9364  0.1006  0.3099
 7659SOL    MW430404   2.092   2.740   4.173 -0.4301 -0.4951  0.5032
 7660SOL     OW30405   3.396   5.131   3.624 -0.0293  0.3133 -0.3448
 7660SOL    HW230406   3.367   5.152   3.713 -2.6914 -0.3786 -0.9603
 7660SOL    HW330407   3.400   5.216   3.580 -0.6417  0.4931 -0.0692
 7660SOL    MW430408   3.392   5.145   3.630 -0.4613  0.2457 -0.3897
 7661SOL     OW30409   1.686   1.419   2.276  0.5991 -0.1314  0.1490
 7661SOL    HW230410   1.767   1.368   2.272  0.2643 -0.6408 -0.3720
 7661SOL    HW330411   1.639   1.395   2.196 -0.4885 -0.5668  0.8820
 7661SOL    MW430412   1.690   1.409   2.265  0.4114 -0.2561  0.1770
 7662SOL     OW30413   2.629   2.111   0.409  0.3293  0.0182 -0.3705
 7662SOL    HW230414   2.684   2.135   0.484 -0.6091  0.0086  0.3482
 7662SOL    HW330415   2.553   2.169   0.417 -0.0377 -0.3782 -0.9986
 7662SOL    MW430416   2.626   2.122   0.420  0.1571 -0.0353 -0.3585
 7663SOL     OW30417   2.147   5.033   6.322 -0.3991  0.2975  0.4696
 7663SOL    HW230418   2.142   4.961   6.259  1.1088  0.3693  0.2332
 7663SOL    HW330419   2.179   4.993   6.402  1.6812  0.8787 -0.0265
 7663SOL    MW430420   2.150   5.019   6.324  0.0743  0.3837  0.3730
 7664SOL     OW30421   5.194   4.380   3.593  0.4055 -0.4960  0.1278
 7664SOL    HW230422   5.259   4.324   3.550  0.6381  0.2519 -0.5127
 7664SOL    HW330423   5.236   4.466   3.598 -0.9448  0.2896 -1.3255
 7664SOL    MW430424   5.208   4.384   3.588  0.2581 -0.2936 -0.1484
 7665SOL     OW30425   2.618   5.333   4.077 -0.5732 -0.5060 -0.6149
 7665SOL    HW230426   2.695   5.356   4.130 -2.1396 -0.9872  2.0831
 7665SOL    HW330427   2.642   5.251   4.034  0.3374 -0.8199  0.4351
 7665SOL    MW430428   2.631   5.325   4.079 -0.6597 -0.6109 -0.1204
 7666SOL     OW30429   0.378   1.431   0.670 -0.0975  0.4425 -0.0177
 7666SOL    HW230430   0.416   1.418   0.757  1.6210  1.4198 -0.5687
 7666SOL    HW330431   0.454   1.443   0.613 -1.2143  2.3860 -1.2157
 7666SOL    MW430432   0.393   1.431   0.674 -0.0181  0.8279 -0.2485
 7667SOL     OW30433   3.090   5.513   2.511 -0.5010 -0.3614  0.0931
 7667SOL    HW230434   3.180   5.500   2.481 -0.4919  1.5903 -0.8857
 7667SOL    HW330435   3.098   5.531   2.605  0.1723  0.0161 -0.0287
 7667SOL    MW430436   3.102   5.514   2.519 -0.4109 -0.0541 -0.0521
 7668SOL     OW30437   0.761   3.621   3.150 -0.0484  0.2659 -0.2777
 7668SOL    HW230438   0.710   3.590   3.075 -1.4644  0.9140  0.3677
 7668SOL    HW330439   0.745   3.555   3.219  1.3742 -0.4153 -0.5581
 7668SOL    MW430440   0.752   3.608   3.149 -0.0475  0.2616 -0.2296
 7669SOL     OW30441   5.170   3.344   5.827  0.6922 -0.0330 -0.3484
 7669SOL    HW230442   5.181   3.262   5.779 -1.5159  0.2148 -1.4436
 7669SOL    HW330443   5.113   3.322   5.900  0.2111  0.4797 -0.5612
 7669SOL    MW430444   5.164   3.330   5.830  0.3374  0.0674 -0.5210
 7670SOL     OW30445   1.262   5.719   1.020 -0.2416  0.4373 -0.5617
 7670SOL    HW230446   1.323   5.774   0.972 -0.0902  0.6072 -0.1823
 7670SOL    HW330447   1.183   5.719   0.966  0.4964 -0.8119 -1.6782
 7670SOL    MW430448   1.259   5.727   1.007 -0.1243  0.2949 -0.6590
 7671SOL     OW30449   5.680   1.115   0.702  0.2806  0.4445 -0.5882
 7671SOL    HW230450   5.700   1.196   0.748 -0.3650  1.0113 -1.2755
 7671SOL    HW330451   5.764   1.069   0.696  0.7485  1.2971 -0.6521
 7671SOL    MW430452   5.694   1.119   0.707  0.2571  0.6318 -0.6874
 7672SOL     OW30453   5.495   6.290   3.471 -0.4880  0.2920 -0.1536
 7672SOL    HW230454   5.445   6.283   3.552  0.3718  1.3539  0.4952
 7672SOL    HW330455   5.567   6.348   3.492  0.3236 -0.2069 -1.4171
 7672SOL    MW430456   5.498   6.297   3.484 -0.2675  0.3663 -0.2347
 7673SOL     OW30457   3.216   3.403   5.395 -0.1282 -0.4730  0.1627
 7673SOL    HW230458   3.163   3.453   5.456 -1.0809 -1.7850  0.4491
 7673SOL    HW330459   3.199   3.443   5.310  0.2332  0.5676  0.5631
 7673SOL    MW430460   3.207   3.415   5.392 -0.2062 -0.5088  0.2533
 7674SOL     OW30461   3.149   4.314   1.956 -0.1301 -0.0412  0.4168
 7674SOL    HW230462   3.180   4.381   2.016 -1.5066  0.4935  0.5736
 7674SOL    HW330463   3.066   4.283   1.994 -0.5764 -0.3242 -0.7277
 7674SOL    MW430464   3.142   4.319   1.969 -0.3706 -0.0080  0.2865
 7675SOL     OW30465   2.653   5.908   4.826  0.3842  1.0677  0.1546
 7675SOL    HW230466   2.560   5.898   4.847 -0.1668 -3.4097 -3.0549
 7675SOL    HW330467   2.698   5.862   4.897 -0.2761 -0.2995 -0.2601
 7675SOL    MW430468   2.647   5.900   4.838  0.2244  0.2965 -0.3236
 7676SOL     OW30469   3.342   5.108   2.920  0.1669  0.2001  0.2005
 7676SOL    HW230470   3.273   5.153   2.872  0.7280 -0.5409 -1.3350
 7676SOL    HW330471   3.423   5.149   2.890  0.4875  0.4545  1.3315
 7676SOL    MW430472   3.344   5.120   2.910  0.2832  0.1359  0.1471
 7677SOL     OW30473   2.694   3.583   3.326  0.0163  0.2623 -0.2837
 7677SOL    HW230474   2.760   3.601   3.393 -0.9344  1.1512  0.4442
 7677SOL    HW330475   2.613   3.570   3.375 -0.4501 -0.3798 -1.1923
 7677SOL    MW430476   2.692   3.584   3.342 -0.1707  0.2949 -0.3076
 7678SOL     OW30477   0.340   1.408   4.118 -0.6326  0.0968 -0.0087
 7678SOL    HW230478   0.406   1.361   4.168  1.3367  1.3565 -1.2962
 7678SOL    HW330479   0.355   1.500   4.140 -1.3440  0.4726 -1.0406
 7678SOL    MW430480   0.351   1.414   4.128 -0.4667  0.3126 -0.3147
 7679SOL     OW30481   2.090   1.474   4.207  1.0083  0.3661  0.1098
 7679SOL    HW230482   2.130   1.396   4.246  0.9335  0.3496  0.1550
 7679SOL    HW330483   1.996   1.463   4.223  1.1660  1.7870  2.5935
 7679SOL    MW430484   2.083   1.462   4.214  1.0193  0.5514  0.4435
 7680SOL     OW30485   5.279   5.096   2.424  0.0566 -0.1236  0.2676
 7680SOL    HW230486   5.249   5.007   2.441 -0.9027 -0.1236 -1.2637
 7680SOL    HW330487   5.199   5.145   2.403  0.5916  1.0575  0.8644
 7680SOL    MW430488   5.264   5.091   2.423  0.0006  0.0322  0.1443
 7681SOL     OW30489   6.028   1.878   5.370  0.0190 -0.2033  0.1045
 7681SOL    HW230490   6.058   1.792   5.341 -0.9972 -0.0852 -1.3383
 7681SOL    HW330491   6.017   1.929   5.290 -0.1147  1.0459  0.8867
 7681SOL    MW430492   6.031   1.874   5.356 -0.1327 -0.0229  0.0174
 7682SOL     OW30493   4.830   4.629   1.689  0.6890 -0.0212 -0.4869
 7682SOL    HW230494   4.875   4.562   1.637  0.1107 -0.0600 -0.9472
 7682SOL    HW330495   4.749   4.646   1.641  0.3167  0.2180  0.2114
 7682SOL    MW430496   4.826   4.623   1.676  0.5636  0.0052 -0.4555
 7683SOL     OW30497   5.010   0.456   4.527  0.2836 -0.0504  0.6189
 7683SOL    HW230498   4.957   0.511   4.585 -0.2395 -1.5865  1.6589
 7683SOL    HW330499   5.091   0.506   4.515 -1.1443  2.1344 -0.6451
 7683SOL    MW430500   5.014   0.470   4.533  0.0262  0.0352  0.5894
 7684SOL     OW30501   6.001   2.595   4.988  0.0591  0.5424  0.2175
 7684SOL    HW230502   5.912   2.607   4.955  0.2703 -1.1687 -1.1033
 7684SOL    HW330503   5.990   2.556   5.075 -0.5455 -1.9892 -0.9078
 7684SOL    MW430504   5.988   2.592   4.995  0.0072 -0.0173 -0.1053
 7685SOL     OW30505   0.856   2.340   2.487 -0.9209 -0.6614  0.4405
 7685SOL    HW230506   0.840   2.280   2.414  1.2621 -0.5977 -0.1387
 7685SOL    HW330507   0.846   2.286   2.565 -0.0413 -1.5302 -0.0342
 7685SOL    MW430508   0.852   2.325   2.487 -0.5168 -0.7676  0.3014
 7686SOL     OW30509   5.581   4.968   1.515 -0.2442 -0.0450 -0.0659
 7686SOL    HW230510   5.575   5.064   1.516  0.9660  0.0375  0.2235
 7686SOL    HW330511   5.637   4.948   1.440  2.7155 -0.2810  2.0595
 7686SOL    MW430512   5.587   4.978   1.505  0.3060 -0.0653  0.2527
 7687SOL     OW30513   4.171   3.834   3.339  0.1315  0.1009 -0.2641
 7687SOL    HW230514   4.098   3.796   3.291 -0.3671  0.4121  0.2441
 7687SOL    HW330515   4.233   3.762   3.350 -0.1743 -0.2067 -0.5473
 7687SOL    MW430516   4.170   3.819   3.334  0.0253  0.1014 -0.2344
 7688SOL     OW30517   4.671   1.298   5.255 -0.1552 -0.1513  0.2394
 7688SOL    HW230518   4.718   1.224   5.216  0.2269  0.4339 -0.4388
 7688SOL    HW330519   4.739   1.364   5.268 -0.7700  0.6880 -0.7033
 7688SOL    MW430520   4.687   1.297   5.251 -0.1859  0.0367  0.0255
 7689SOL     OW30521   1.041   3.334   4.446  0.0131  0.2341  0.1883
 7689SOL    HW230522   1.034   3.280   4.368  1.8854  1.7841 -1.1805
 7689SOL    HW330523   1.132   3.323   4.475 -0.6831 -0.4660  2.3355
 7689SOL    MW430524   1.052   3.326   4.440  0.1683  0.3462  0.2910
 7690SOL     OW30525   4.896   0.375   1.333 -0.7795  0.4140 -0.2977
 7690SOL    HW230526   4.875   0.426   1.412 -1.7552 -1.4160  0.6904
 7690SOL    HW330527   4.841   0.297   1.340  1.3662 -1.2712 -1.2125
 7690SOL    MW430528   4.886   0.372   1.344 -0.6252 -0.0498 -0.2881
 7691SOL     OW30529   5.264   1.042   2.620  0.6326  0.0272 -0.0368
 7691SOL    HW230530   5.169   1.030   2.611  0.4437  0.7819  0.7783
 7691SOL    HW330531   5.298   1.034   2.531 -0.2983  0.5698 -0.4532
 7691SOL    MW430532   5.256   1.039   2.607  0.4849  0.1984  0.0158
 7692SOL     OW30533  -0.003   4.253   2.555 -0.2937 -0.0991 -0.4650
 7692SOL    HW230534  -0.049   4.331   2.525  0.6765  0.2471 -1.0746
 7692SOL    HW330535   0.088   4.267   2.530 -0.0058 -1.1736 -0.0768
 7692SOL    MW430536   0.003   4.265   2.548 -0.1277 -0.1952 -0.4942
 7693SOL     OW30537   6.205   6.194   4.047  0.2421  0.3639  0.5289
 7693SOL    HW230538   6.117   6.169   4.017 -0.5573  1.5372  1.8138
 7693SOL    HW330539   6.245   6.234   3.970 -0.2844 -0.3224 -0.1192
 7693SOL    MW430540   6.199   6.196   4.033  0.0671  0.4281  0.6129
 7694SOL     OW30541   4.840   5.526   5.992  0.1398  0.1602  0.2361
 7694SOL    HW230542   4.919   5.577   6.004 -0.4900  0.7437  2.2810
 7694SOL    HW330543   4.870   5.436   5.977  1.2379 -0.0800  3.2448
 7694SOL    MW430544   4.854   5.521   5.991  0.2016  0.2055  0.9028
 7695SOL     OW30545   3.869   0.990   3.252 -0.0956 -0.1839  0.5426
 7695SOL    HW230546   3.828   1.025   3.173 -0.8905  0.5579  1.2595
 7695SOL    HW330547   3.809   0.921   3.282  0.7008 -1.1410 -0.0314
 7695SOL    MW430548   3.856   0.986   3.246 -0.0954 -0.2123  0.5614
 7696SOL     OW30549   3.998   3.904   2.917 -0.2519  0.4746 -0.6634
 7696SOL    HW230550   4.021   3.818   2.880  2.7029  0.7804  0.1671
 7696SOL    HW330551   3.930   3.938   2.859  0.7721 -1.0866 -2.9291
 7696SOL    MW430552   3.992   3.897   2.904  0.2730  0.3090 -0.8528
 7697SOL     OW30553   2.288   5.244   2.061 -0.2937 -0.2603 -0.2094
 7697SOL    HW230554   2.334   5.277   2.139  0.1587  1.0578 -1.0078
 7697SOL    HW330555   2.208   5.205   2.096  0.1079 -0.0770  0.9586
 7697SOL    MW430556   2.283   5.243   2.076 -0.1810 -0.0623 -0.1606
 7698SOL     OW30557   5.115   2.771   3.257 -0.1425 -0.2346 -0.0214
 7698SOL    HW230558   5.096   2.801   3.346  0.1178  0.8531 -0.3231
 7698SOL    HW330559   5.210   2.770   3.251 -0.1525 -0.6191 -0.1934
 7698SOL    MW430560   5.125   2.775   3.268 -0.1095 -0.1418 -0.0839
 7699SOL     OW30561   0.686   0.791   2.037  0.3119  0.7286  0.3392
 7699SOL    HW230562   0.780   0.784   2.021  0.1766 -0.1022 -0.1548
 7699SOL    HW330563   0.655   0.852   1.971  0.3796  0.3853 -0.0115
 7699SOL    MW430564   0.695   0.798   2.027  0.3030  0.5737  0.2277
 7700SOL     OW30565   2.155   2.262   5.926  0.4232  0.2652 -0.2878
 7700SOL    HW230566   2.083   2.305   5.972  0.7330  0.4073  0.0795
 7700SOL    HW330567   2.231   2.318   5.943  0.6766 -0.0259 -0.4368
 7700SOL    MW430568   2.156   2.275   5.934  0.4975  0.2455 -0.2590
 7701SOL     OW30569   5.319   0.508   2.042  1.2208  0.2805 -0.1316
 7701SOL    HW230570   5.225   0.490   2.041  1.0288  1.2174 -0.3073
 7701SOL    HW330571   5.340   0.518   2.135  0.9948  0.7558 -0.1258
 7701SOL    MW430572   5.309   0.507   2.054  1.1656  0.4668 -0.1540
 7702SOL     OW30573   3.383   5.539   1.908 -0.1651  0.4571  0.2780
 7702SOL    HW230574   3.316   5.497   1.855  0.7350 -0.1579 -0.3964
 7702SOL    HW330575   3.446   5.574   1.845  0.5701  0.3168  0.9154
 7702SOL    MW430576   3.383   5.538   1.893  0.0507  0.3574  0.2731
 7703SOL     OW30577   6.232   0.761   5.321  0.6249  0.2731  0.1455
 7703SOL    HW230578   6.206   0.766   5.413 -1.2784  0.9719 -0.3766
 7703SOL    HW330579   6.273   0.846   5.303 -0.4756  0.7847 -0.0340
 7703SOL    MW430580   6.234   0.773   5.331  0.2286  0.4328  0.0529
 7704SOL     OW30581   6.395   0.141   0.498  0.1767  0.0615 -0.7311
 7704SOL    HW230582   6.396   0.154   0.593  0.2228 -0.0790 -0.7116
 7704SOL    HW330583   6.329   0.203   0.466  1.8042  1.8167 -0.8616
 7704SOL    MW430584   6.386   0.151   0.507  0.3975  0.2745 -0.7458
 7705SOL     OW30585   3.233   1.166   4.025 -0.0660  0.8351  0.0324
 7705SOL    HW230586   3.152   1.125   4.054  0.3485  0.6738  1.0110
 7705SOL    HW330587   3.218   1.260   4.037  0.0098  0.7847  0.5504
 7705SOL    MW430588   3.220   1.173   4.030 -0.0013  0.8072  0.2299
 7706SOL     OW30589   1.711   1.950   3.100  0.1814  0.1542  0.5036
 7706SOL    HW230590   1.717   1.857   3.120 -0.0572  0.0128 -0.0647
 7706SOL    HW330591   1.618   1.967   3.088  0.3599  0.0127 -1.4084
 7706SOL    MW430592   1.700   1.940   3.101  0.1734  0.1169  0.1763
 7707SOL     OW30593   1.869   1.003   4.235 -0.0780 -0.4661 -0.5588
 7707SOL    HW230594   1.920   0.998   4.316  0.6314  2.0939 -0.7561
 7707SOL    HW330595   1.806   1.073   4.251  0.2177  0.2445 -2.2540
 7707SOL    MW430596   1.867   1.012   4.248  0.0546 -0.0345 -0.8085
 7708SOL     OW30597   4.027   4.299   0.771 -0.1039 -0.5192  0.0641
 7708SOL    HW230598   4.069   4.335   0.850 -0.8167  0.1169  0.1707
 7708SOL    HW330599   3.975   4.372   0.737 -1.2310 -1.3159  0.0201
 7708SOL    MW430600   4.026   4.313   0.777 -0.3466 -0.5404  0.0723
 7709SOL     OW30601   1.163   6.023   2.382 -0.2843 -0.1198 -0.1192
 7709SOL    HW230602   1.155   6.111   2.348 -1.1611 -0.3122 -0.4256
 7709SOL    HW330603   1.238   5.986   2.335  0.8714  0.8380  0.8845
 7709SOL    MW430604   1.172   6.029   2.371 -0.2475 -0.0188 -0.0272
 7710SOL     OW30605   5.500   5.832   2.639 -0.1785 -0.1652  0.0311
 7710SOL    HW230606   5.530   5.748   2.603 -2.1802 -0.1451 -1.8918
 7710SOL    HW330607   5.454   5.808   2.719 -0.3083 -0.8572 -0.2400
 7710SOL    MW430608   5.498   5.818   2.645 -0.4597 -0.2538 -0.2584
 7711SOL     OW30609   2.438   3.110   2.729 -0.2686 -0.2256  0.5245
 7711SOL    HW230610   2.391   3.031   2.757 -1.6932  0.0385 -0.9448
 7711SOL    HW330611   2.381   3.182   2.757 -0.7609  0.1045 -1.1777
 7711SOL    MW430612   2.424   3.109   2.736 -0.5215 -0.1472  0.1061
 7712SOL     OW30613   1.316   3.195   3.543 -0.0272  0.0490  0.2541
 7712SOL    HW230614   1.386   3.168   3.484  1.4940 -0.8531  2.3467
 7712SOL    HW330615   1.319   3.291   3.541 -0.4147  0.0603 -1.5089
 7712SOL    MW430616   1.325   3.204   3.535  0.1224 -0.0685  0.2976
 7713SOL     OW30617   2.538   5.862   3.078 -0.2269  0.3620  0.0793
 7713SOL    HW230618   2.463   5.884   3.132  0.0938  1.0415  0.2586
 7713SOL    HW330619   2.514   5.893   2.990 -0.6477 -0.5194 -0.1218
 7713SOL    MW430620   2.525   5.869   3.073 -0.2402  0.3354  0.0764
 7714SOL     OW30621   1.935   4.550   5.717 -0.3229 -0.1838  0.2641
 7714SOL    HW230622   1.884   4.617   5.671 -0.3383 -0.3924 -0.0255
 7714SOL    HW330623   1.993   4.515   5.650 -1.2932 -1.4506  0.0667
 7714SOL    MW430624   1.936   4.555   5.702 -0.4529 -0.3784  0.1999
 7715SOL     OW30625   1.364   3.534   3.183 -0.6136 -0.3170 -0.4415
 7715SOL    HW230626   1.331   3.621   3.205 -0.6669 -0.8355  1.7120
 7715SOL    HW330627   1.286   3.478   3.183 -0.2577 -0.8598  1.0267
 7715SOL    MW430628   1.349   3.538   3.186 -0.5736 -0.4571  0.0363
 7716SOL     OW30629   3.976   4.138   1.279 -0.3156  0.8328  0.1397
 7716SOL    HW230630   4.046   4.073   1.269 -2.3519 -1.3842 -0.5457
 7716SOL    HW330631   3.910   4.114   1.214 -1.2372  3.6028 -0.0996
 7716SOL    MW430632   3.976   4.126   1.269 -0.7058  0.9058  0.0177
 7717SOL     OW30633   2.620   1.081   1.736 -0.4001 -0.1863 -0.3062
 7717SOL    HW230634   2.702   1.105   1.691 -1.7439 -0.3769 -3.0591
 7717SOL    HW330635   2.581   1.166   1.759 -0.9659  0.0737 -2.0559
 7717SOL    MW430636   2.626   1.096   1.733 -0.6520 -0.1771 -0.9002
 7718SOL     OW30637   3.453   5.436   2.637 -0.2911  0.7280 -0.2539
 7718SOL    HW230638   3.369   5.411   2.675 -1.0816  1.4035 -1.5173
 7718SOL    HW330639   3.435   5.449   2.544  1.2246  0.8427 -0.5574
 7718SOL    MW430640   3.440   5.434   2.630 -0.1954  0.8323 -0.4607
 7719SOL     OW30641   2.113   1.295   5.613  0.5944 -0.3226  0.6195
 7719SOL    HW230642   2.189   1.353   5.623 -0.2572  0.8116  0.6018
 7719SOL    HW330643   2.038   1.354   5.610 -0.1792 -1.3333 -0.9844
 7719SOL    MW430644   2.113   1.310   5.614  0.3800 -0.3063  0.4056
 7720SOL     OW30645   3.755   4.788   0.675 -1.0118 -0.5706  0.2492
 7720SOL    HW230646   3.785   4.864   0.725  0.3939  0.3005 -1.7715
 7720SOL    HW330647   3.814   4.718   0.702  0.4129  0.1500 -0.8380
 7720SOL    MW430648   3.767   4.789   0.685 -0.6384 -0.3606 -0.1608
 7721SOL     OW30649   5.089   4.703   3.117 -0.0761 -0.0040 -0.1071
 7721SOL    HW230650   5.158   4.644   3.087  0.6353  0.1129  1.1996
 7721SOL    HW330651   5.015   4.645   3.137  1.3588 -0.8794  3.3831
 7721SOL    MW430652   5.088   4.688   3.116  0.2071 -0.1041  0.5258
 7722SOL     OW30653   5.431   2.972   0.170 -0.1257 -0.0078 -0.2469
 7722SOL    HW230654   5.433   3.066   0.149 -0.5594  0.3333  1.1598
 7722SOL    HW330655   5.411   2.969   0.263 -0.3507 -1.5213 -0.3302
 7722SOL    MW430656   5.429   2.984   0.179 -0.2126 -0.1625 -0.0723
 7723SOL     OW30657   5.195   4.296   0.014  0.1217 -0.1912  0.1038
 7723SOL    HW230658   5.189   4.320   0.106 -2.5278 -2.4406  0.6632
 7723SOL    HW330659   5.104   4.287  -0.014  0.8725 -0.6606 -2.4434
 7723SOL    MW430660   5.182   4.298   0.022 -0.1288 -0.5500 -0.1585
 7724SOL     OW30661   0.082   0.972   5.098  0.6884  0.6903 -0.0537
 7724SOL    HW230662   0.061   1.064   5.115  0.1621  0.5849 -0.1103
 7724SOL    HW330663   0.010   0.941   5.043  1.8766  0.7716 -1.7210
 7724SOL    MW430664   0.070   0.980   5.093  0.7757  0.6871 -0.2812
 7725SOL     OW30665   0.716   0.898   2.756 -0.0376  0.0958 -0.3297
 7725SOL    HW230666   0.679   0.872   2.672 -1.3322  0.7385  0.0114
 7725SOL    HW330667   0.788   0.837   2.771  0.2545  0.0089 -1.9242
 7725SOL    MW430668   0.721   0.887   2.747 -0.1699  0.1691 -0.4951
 7726SOL     OW30669   4.563   3.264   2.501  0.2742 -0.1788 -0.8106
 7726SOL    HW230670   4.622   3.335   2.474 -1.3397  1.4382 -0.2150
 7726SOL    HW330671   4.475   3.299   2.488 -0.5797 -1.2279  1.6445
 7726SOL    MW430672   4.559   3.278   2.496 -0.0514 -0.1039 -0.4081
 7727SOL     OW30673   2.739   1.866   5.890 -0.1505  0.4953  0.3231
 7727SOL    HW230674   2.714   1.943   5.941 -0.2627 -0.2320  1.4078
 7727SOL    HW330675   2.782   1.809   5.953 -1.4997 -1.0240 -0.0745
 7727SOL    MW430676   2.741   1.869   5.905 -0.3433  0.1989  0.4138
 7728SOL     OW30677   0.925   3.187   3.616 -0.1942 -0.1714 -0.1454
 7728SOL    HW230678   0.974   3.105   3.624  1.3110  0.5276 -1.4693
 7728SOL    HW330679   0.924   3.204   3.521 -1.2271  0.8981  0.0487
 7728SOL    MW430680   0.932   3.178   3.604 -0.1319  0.0619 -0.2945
 7729SOL     OW30681   2.503   0.605   3.135 -0.1046  0.7343 -0.2911
 7729SOL    HW230682   2.569   0.574   3.197  0.6938  0.4225 -1.2701
 7729SOL    HW330683   2.513   0.548   3.059 -1.4961  0.6978 -0.4774
 7729SOL    MW430684   2.513   0.593   3.133 -0.1828  0.6884 -0.4449
 7730SOL     OW30685   4.700   0.462   4.393 -0.2486  0.2334 -0.0339
 7730SOL    HW230686   4.744   0.400   4.335  0.0617  0.6406 -0.2349
 7730SOL    HW330687   4.715   0.426   4.481 -2.3706 -1.4499 -0.2848
 7730SOL    MW430688   4.708   0.449   4.397 -0.4876  0.0650 -0.0935
 7731SOL     OW30689   4.202   1.950   3.687 -0.4128  0.0537  0.1697
 7731SOL    HW230690   4.254   1.950   3.607 -0.7109 -0.5907 -0.0273
 7731SOL    HW330691   4.148   1.871   3.681 -2.6716  1.5555 -0.4431
 7731SOL    MW430692   4.202   1.939   3.676 -0.7502  0.1669  0.0628
 7732SOL     OW30693   5.364   0.533   5.653 -0.1742 -0.0013  0.0323
 7732SOL    HW230694   5.440   0.484   5.686  0.0829  1.1489  1.2209
 7732SOL    HW330695   5.338   0.486   5.574  1.8097 -0.3961 -0.4415
 7732SOL    MW430696   5.371   0.520   5.647  0.1215  0.0983  0.1266
 7733SOL     OW30697   3.935   5.136   4.294  0.3949  0.5147  0.1857
 7733SOL    HW230698   3.887   5.216   4.317 -2.4673 -0.3327 -2.1715
 7733SOL    HW330699   3.925   5.079   4.371 -0.1739  1.3332  0.7297
 7733SOL    MW430700   3.927   5.139   4.307 -0.0578  0.5109 -0.0535
 7734SOL     OW30701   5.384   3.786   5.304 -0.1442  0.1414  0.4486
 7734SOL    HW230702   5.347   3.698   5.302 -1.1225  0.5475 -0.0371
 7734SOL    HW330703   5.383   3.810   5.397  0.3906 -0.4584  0.6150
 7734SOL    MW430704   5.379   3.778   5.316 -0.2027  0.1159  0.4065
 7735SOL     OW30705   2.144   4.958   0.802  0.0127 -0.1671 -0.1855
 7735SOL    HW230706   2.214   4.896   0.779  0.5557  0.3078  0.1658
 7735SOL    HW330707   2.165   5.037   0.752  0.4077  0.3850  0.8306
 7735SOL    MW430708   2.156   4.960   0.792  0.1365 -0.0316 -0.0051
 7736SOL     OW30709   5.918   0.912   1.801  0.3444  0.4916 -0.0675
 7736SOL    HW230710   5.903   0.942   1.711 -1.3361  1.9240  0.6464
 7736SOL    HW330711   5.918   0.816   1.794  0.3284  0.5658 -1.5830
 7736SOL    MW430712   5.916   0.903   1.788  0.1205  0.6904 -0.1733
 7737SOL     OW30713   5.328   5.461   4.907 -0.2819  0.3898  0.1476
 7737SOL    HW230714   5.357   5.511   4.983 -0.1072  2.9465 -1.4820
 7737SOL    HW330715   5.409   5.424   4.871 -0.3931 -1.0431  1.2540
 7737SOL    MW430716   5.343   5.463   4.912 -0.2735  0.5381  0.0786
 7738SOL     OW30717   5.013   1.499   2.412 -0.2409 -0.2188 -0.2257
 7738SOL    HW230718   4.994   1.406   2.403  0.6408 -0.6690  1.9456
 7738SOL    HW330719   5.060   1.506   2.494  1.5488  1.8985 -1.3255
 7738SOL    MW430720   5.017   1.488   2.421  0.1115  0.0011 -0.0844
 7739SOL     OW30721   6.226   5.264   2.590 -0.6260 -0.1678  0.0456
 7739SOL    HW230722   6.289   5.309   2.534 -0.5360 -0.5988 -0.2030
 7739SOL    HW330723   6.149   5.321   2.590 -0.4746  0.0375 -0.1800
 7739SOL    MW430724   6.224   5.277   2.582 -0.5941 -0.1975 -0.0169
 7740SOL     OW30725   6.055   3.944   0.550  0.0809 -0.5722 -0.3363
 7740SOL    HW230726   5.980   3.961   0.493 -0.9638 -2.4648  0.3701
 7740SOL    HW330727   6.048   4.009   0.620 -1.0050 -0.8413 -0.1883
 7740SOL    MW430728   6.045   3.955   0.551 -0.2002 -0.8574 -0.2236
 7741SOL     OW30729   1.901   0.448   6.118  0.1245 -0.1324  0.3197
 7741SOL    HW230730   1.927   0.438   6.027 -3.0789  0.8647 -0.8534
 7741SOL    HW330731   1.805   0.439   6.117 -0.0504  0.1345  3.5519
 7741SOL    MW430732   1.891   0.446   6.106 -0.3213  0.0344  0.5914
 7742SOL     OW30733   4.178   3.637   2.477  0.1630 -0.2986 -0.2525
 7742SOL    HW230734   4.114   3.632   2.406  0.4808 -0.9287 -0.5032
 7742SOL    HW330735   4.208   3.727   2.475  0.9785 -0.5679 -1.6460
 7742SOL    MW430736   4.173   3.648   2.467  0.3126 -0.4173 -0.4694
 7743SOL     OW30737   5.292   5.864   0.822  0.3806  0.4604  0.2110
 7743SOL    HW230738   5.295   5.944   0.771 -0.2246  1.1153  1.1677
 7743SOL    HW330739   5.200   5.854   0.846  0.1862 -1.3042 -1.0786
 7743SOL    MW430740   5.280   5.873   0.818  0.2751  0.3140  0.1670
 7744SOL     OW30741   1.275   1.319   0.676  0.6983  0.5732 -0.1164
 7744SOL    HW230742   1.182   1.340   0.682  0.7723  1.2644 -1.1493
 7744SOL    HW330743   1.295   1.273   0.757 -0.3141  1.3330  0.5834
 7744SOL    MW430744   1.266   1.316   0.687  0.5745  0.7646 -0.1603
 7745SOL     OW30745   4.244   3.899   2.380 -0.1921 -0.3646  0.4120
 7745SOL    HW230746   4.302   3.952   2.434  0.9147  0.8163 -1.7871
 7745SOL    HW330747   4.231   3.951   2.301 -1.8664 -1.9226 -0.4088
 7745SOL    MW430748   4.250   3.913   2.376 -0.2670 -0.4144  0.0136
 7746SOL     OW30749   0.532   0.404   4.761 -0.0034  0.2587  0.1108
 7746SOL    HW230750   0.613   0.377   4.718  0.3433  2.3834 -0.7007
 7746SOL    HW330751   0.536   0.364   4.848  1.5650 -0.2661 -0.1718
 7746SOL    MW430752   0.543   0.395   4.767  0.2493  0.4698 -0.0335
 7747SOL     OW30753   5.264   3.224   3.358 -0.4221  0.2047  0.4164
 7747SOL    HW230754   5.353   3.192   3.344 -0.1245  1.4471 -0.7006
 7747SOL    HW330755   5.250   3.216   3.452  1.2376  0.9008  0.7496
 7747SOL    MW430756   5.274   3.219   3.368 -0.1638  0.4605  0.3130
 7748SOL     OW30757   0.815   4.100   3.637 -0.0686 -0.5000 -0.4534
 7748SOL    HW230758   0.737   4.062   3.598 -0.1212  0.1400 -0.9841
 7748SOL    HW330759   0.885   4.039   3.615 -0.3234 -0.8017 -0.4362
 7748SOL    MW430760   0.814   4.087   3.629 -0.1091 -0.4553 -0.5211
 7749SOL     OW30761   2.744   6.105   4.355 -0.1252 -0.5851 -0.0662
 7749SOL    HW230762   2.682   6.100   4.282 -0.3539 -0.7079  0.1354
 7749SOL    HW330763   2.804   6.032   4.339  0.1564 -0.2783 -0.4302
 7749SOL    MW430764   2.744   6.094   4.343 -0.1182 -0.5609 -0.0876
 7750SOL     OW30765   2.600   0.865   1.434  0.8105  0.1865  0.1343
 7750SOL    HW230766   2.617   0.868   1.340  1.1926 -2.6218  0.0357
 7750SOL    HW330767   2.685   0.846   1.473  0.6786  1.4540  1.1069
 7750SOL    MW430768   2.613   0.863   1.427  0.8435 -0.0168  0.2496
 7751SOL     OW30769   6.417   6.249   0.664 -0.0281  0.2673  0.6085
 7751SOL    HW230770   6.349   6.273   0.600 -0.1667 -0.2051  0.5777
 7751SOL    HW330771   6.378   6.178   0.715  0.8764 -0.8399 -0.1869
 7751SOL    MW430772   6.403   6.243   0.662  0.0729  0.0589  0.4995
 7752SOL     OW30773   5.876   4.000   0.335 -0.4690  0.6392 -0.7920
 7752SOL    HW230774   5.809   4.068   0.333 -0.2656  0.8234 -1.3501
 7752SOL    HW330775   5.910   3.996   0.246  0.7105  0.9874 -0.3742
 7752SOL    MW430776   5.871   4.009   0.323 -0.2866  0.7095 -0.8105
 7753SOL     OW30777   5.071   5.087   4.163 -0.3831  0.0483  0.2043
 7753SOL    HW230778   5.015   5.143   4.218 -1.9979  0.0388 -1.3554
 7753SOL    HW330779   5.015   5.013   4.139 -0.2030  0.7110 -2.5302
 7753SOL    MW430780   5.057   5.085   4.167 -0.5724  0.1345 -0.3623
 7754SOL     OW30781   2.119   6.421   4.518  0.2726  0.3850  0.0182
 7754SOL    HW230782   2.164   6.498   4.485  0.5443  0.0968 -0.2917
 7754SOL    HW330783   2.046   6.408   4.457  0.0765  0.5416  0.2161
 7754SOL    MW430784   2.115   6.429   4.505  0.2826  0.3676  0.0034
 7755SOL     OW30785   6.236   4.586   1.070  0.0539 -0.0665  0.2036
 7755SOL    HW230786   6.260   4.672   1.106 -2.7066  0.0868  1.9788
 7755SOL    HW330787   6.187   4.608   0.990 -1.4923  0.1553  1.1618
 7755SOL    MW430788   6.233   4.600   1.064 -0.5143 -0.0170  0.5642
 7756SOL     OW30789   3.794   2.766   1.211 -0.2145  0.5102  0.1315
 7756SOL    HW230790   3.879   2.791   1.247  1.6263 -1.0545 -2.7571
 7756SOL    HW330791   3.791   2.671   1.218 -1.5047  0.4946 -0.3090
 7756SOL    MW430792   3.805   2.757   1.217 -0.1419  0.3017 -0.3077
 7757SOL     OW30793   5.451   1.953   4.383  0.1668  0.2582 -0.6821
 7757SOL    HW230794   5.368   2.002   4.378  0.3855  1.0276  1.8964
 7757SOL    HW330795   5.516   2.019   4.407  0.7550 -0.9536  1.3254
 7757SOL    MW430796   5.448   1.969   4.386  0.2733  0.1998 -0.0770
 7758SOL     OW30797   3.151   4.271   1.407 -0.0839  0.2834  0.2309
 7758SOL    HW230798   3.151   4.293   1.500  0.3395 -0.7044  0.4704
 7758SOL    HW330799   3.131   4.178   1.404  1.8564 -0.1526 -0.5331
 7758SOL    MW430800   3.148   4.262   1.419  0.2280  0.0955  0.1617
 7759SOL     OW30801   3.583   1.686   5.743  0.4075 -0.3186 -0.0545
 7759SOL    HW230802   3.508   1.739   5.772 -0.5318 -2.7547  2.2851
 7759SOL    HW330803   3.656   1.748   5.741 -0.2959  0.9121  3.9541
 7759SOL    MW430804   3.582   1.701   5.746  0.1908 -0.4776  0.7831
 7760SOL     OW30805   5.572   0.535   0.036 -0.1147  0.1387  0.0275
 7760SOL    HW230806   5.494   0.505  -0.011 -1.4108  0.9558  1.5644
 7760SOL    HW330807   5.547   0.620   0.071  1.0217 -0.1628  1.6570
 7760SOL    MW430808   5.559   0.542   0.034 -0.1357  0.2067  0.4453
 7761SOL     OW30809   5.445   5.302   0.241 -0.2378 -0.1314  0.1776
 7761SOL    HW230810   5.464   5.305   0.334 -1.5646  1.4772  0.4479
 7761SOL    HW330811   5.507   5.363   0.202 -0.8063  0.5223  0.2662
 7761SOL    MW430812   5.455   5.311   0.248 -0.4879  0.1671  0.2249
 7762SOL     OW30813   2.376   0.316   3.463  0.6954  0.1294  0.5131
 7762SOL    HW230814   2.407   0.330   3.552  0.0646 -0.7296  0.8869
 7762SOL    HW330815   2.456   0.308   3.410  1.0879 -0.2734  1.1538
 7762SOL    MW430816   2.391   0.317   3.468  0.6639 -0.0371  0.6469
 7763SOL     OW30817   5.561   6.120   5.764  0.1765 -0.4752  0.2557
 7763SOL    HW230818   5.607   6.151   5.842  1.9932  0.4768 -1.1257
 7763SOL    HW330819   5.541   6.200   5.715 -0.1446 -1.1102 -0.6736
 7763SOL    MW430820   5.564   6.134   5.768  0.3738 -0.4334 -0.0492
 7764SOL     OW30821   3.823   1.476   3.721 -0.3498  0.3866 -0.4903
 7764SOL    HW230822   3.746   1.419   3.722 -0.2652  0.2747  0.0379
 7764SOL    HW330823   3.840   1.491   3.628 -0.7409  0.0502 -0.6226
 7764SOL    MW430824   3.815   1.471   3.709 -0.3902  0.3275 -0.4381
 7765SOL     OW30825   1.237   6.343   0.737  0.2042  0.5010 -0.2635
 7765SOL    HW230826   1.155   6.343   0.787  1.2662  0.3361  1.5739
 7765SOL    HW330827   1.213   6.310   0.651 -1.1217 -2.8341  1.2109
 7765SOL    MW430828   1.223   6.339   0.732  0.1694  0.0392  0.1735
 7766SOL     OW30829   5.366   1.989   4.755 -0.0501  0.4148  0.4712
 7766SOL    HW230830   5.394   1.914   4.702  0.7256  1.5687 -0.8310
 7766SOL    HW330831   5.334   2.052   4.691  0.1218  1.5269  1.4550
 7766SOL    MW430832   5.366   1.987   4.740  0.0749  0.7138  0.4292
 7767SOL     OW30833   3.361   3.499   2.409 -0.4255 -0.6035 -0.3946
 7767SOL    HW230834   3.275   3.467   2.436 -0.6220 -0.0878 -0.4026
 7767SOL    HW330835   3.414   3.496   2.488 -1.0138  0.9579  0.1006
 7767SOL    MW430836   3.357   3.494   2.423 -0.5290 -0.3294 -0.3303
 7768SOL     OW30837   4.134   0.845   2.048 -0.1292  0.0002 -0.1573
 7768SOL    HW230838   4.211   0.810   2.004  0.2805 -0.2853  0.7630
 7768SOL    HW330839   4.168   0.882   2.130 -1.0300 -0.5622  0.4803
 7768SOL    MW430840   4.149   0.846   2.053 -0.1940 -0.1117  0.0482
 7769SOL     OW30841   6.249   4.605   3.846 -0.0090 -0.5552 -0.3513
 7769SOL    HW230842   6.318   4.540   3.862  0.8614  0.0812 -1.4223
 7769SOL    HW330843   6.184   4.587   3.914  0.7044 -1.8662  0.0255
 7769SOL    MW430844   6.249   4.594   3.857  0.1999 -0.6442 -0.4429
 7770SOL     OW30845   5.395   1.552   3.113 -0.6391  0.2137  0.2712
 7770SOL    HW230846   5.477   1.586   3.078 -2.1713  1.9527 -1.9648
 7770SOL    HW330847   5.361   1.623   3.168 -1.3123  0.1378 -0.0331
 7770SOL    MW430848   5.401   1.566   3.116 -0.9300  0.4331 -0.0640
 7771SOL     OW30849   5.187   2.354   5.071  0.3534  0.6368 -0.3530
 7771SOL    HW230850   5.105   2.381   5.029 -0.5395  0.3502  1.1259
 7771SOL    HW330851   5.201   2.264   5.039 -0.1581  0.5255 -0.2858
 7771SOL    MW430852   5.178   2.345   5.061  0.1681  0.5843 -0.1490
 7772SOL     OW30853   3.765   0.926   4.477 -0.2876 -0.1290  0.2091
 7772SOL    HW230854   3.703   0.869   4.431 -0.7936  0.6011 -0.0252
 7772SOL    HW330855   3.848   0.878   4.473 -0.4471 -0.3427 -0.9741
 7772SOL    MW430856   3.768   0.912   4.470 -0.3754 -0.0609  0.0221
 7773SOL     OW30857   3.956   4.617   3.866  0.5477  0.0916  0.1693
 7773SOL    HW230858   3.984   4.596   3.955  0.7916 -2.3239 -0.4063
 7773SOL    HW330859   4.030   4.666   3.829  1.8186 -1.5547  0.3813
 7773SOL    MW430860   3.970   4.621   3.873  0.7475 -0.4443  0.1213
 7774SOL     OW30861   4.825   1.752   5.525 -0.0787  0.0423  0.4198
 7774SOL    HW230862   4.756   1.692   5.552  0.6776 -0.7655  0.6038
 7774SOL    HW330863   4.795   1.838   5.554 -0.9823 -0.2961  0.5209
 7774SOL    MW430864   4.812   1.755   5.532 -0.0982 -0.1090  0.4574
 7775SOL     OW30865   2.033   5.981   2.399  0.3952 -0.0934  0.2730
 7775SOL    HW230866   2.112   6.018   2.359 -0.0915  1.8789  1.0387
 7775SOL    HW330867   1.963   6.040   2.373 -0.7191 -1.3323  0.3276
 7775SOL    MW430868   2.034   5.993   2.390  0.1840  0.0034  0.3813
 7776SOL     OW30869   2.617   0.080   6.261  0.0118  0.3004  0.2039
 7776SOL    HW230870   2.674   0.030   6.319  2.2843  1.9043 -0.4927
 7776SOL    HW330871   2.631   0.171   6.288 -1.0440  0.8489 -1.0192
 7776SOL    MW430872   2.627   0.086   6.272  0.1723  0.5843 -0.0494
 7777SOL     OW30873   2.224   5.716   1.511  0.2623 -0.4749 -0.5888
 7777SOL    HW230874   2.305   5.692   1.467  1.6914  0.7846  1.1874
 7777SOL    HW330875   2.195   5.796   1.467  0.1341 -0.7741 -1.0474
 7777SOL    MW430876   2.231   5.724   1.500  0.4339 -0.3482 -0.4150
 7778SOL     OW30877   4.613   3.889   3.428 -0.2478 -0.2176  0.1882
 7778SOL    HW230878   4.522   3.907   3.407 -0.6689 -0.5346  1.6707
 7778SOL    HW330879   4.631   3.804   3.386  0.1132  0.9180 -2.1057
 7778SOL    MW430880   4.604   3.880   3.420 -0.2558 -0.1096  0.0812
 7779SOL     OW30881   3.297   1.069   4.519 -0.2572 -0.3730 -0.1597
 7779SOL    HW230882   3.327   1.062   4.428 -1.8388  0.1147 -0.7718
 7779SOL    HW330883   3.287   1.163   4.534 -0.1495 -0.4602  0.4595
 7779SOL    MW430884   3.299   1.081   4.509 -0.4517 -0.3201 -0.1588
 7780SOL     OW30885   1.583   6.307   4.999  0.3487  0.1942  0.2489
 7780SOL    HW230886   1.513   6.350   5.049  0.6371 -0.3440  1.1578
 7780SOL    HW330887   1.569   6.334   4.909 -0.0649  1.3826  0.6494
 7780SOL    MW430888   1.572   6.316   4.994  0.3322  0.2800  0.4217
 7781SOL     OW30889   5.910   3.232   0.701  0.6101  0.1196  0.4227
 7781SOL    HW230890   5.956   3.314   0.682 -1.0168  0.9312 -0.2202
 7781SOL    HW330891   5.864   3.248   0.783 -0.0009 -0.0036  0.1145
 7781SOL    MW430892   5.910   3.245   0.709  0.3149  0.2104  0.2972
 7782SOL     OW30893   4.319   6.024   4.266 -0.1249  0.3481  0.1177
 7782SOL    HW230894   4.302   5.966   4.192  0.0226  0.4824 -0.0230
 7782SOL    HW330895   4.407   6.000   4.295 -0.6762 -0.5794  1.0575
 7782SOL    MW430896   4.329   6.013   4.260 -0.1781  0.2434  0.2231
 7783SOL     OW30897   4.533   4.141   4.888  0.2828  0.2115  0.3474
 7783SOL    HW230898   4.496   4.052   4.886  1.4870 -0.3031  0.0595
 7783SOL    HW330899   4.458   4.198   4.872 -0.7450 -0.6590  1.7908
 7783SOL    MW430900   4.518   4.137   4.885  0.3061  0.0288  0.4999
 7784SOL     OW30901   1.021   5.096   1.062 -0.2146 -0.1912  0.0145
 7784SOL    HW230902   1.100   5.067   1.106  0.3525  3.0023  1.3569
 7784SOL    HW330903   0.950   5.078   1.124 -0.1582 -0.5604 -0.0286
 7784SOL    MW430904   1.022   5.090   1.076 -0.1324  0.1814  0.1859
 7785SOL     OW30905   1.675   2.789   5.338 -0.2211 -0.4475  0.2769
 7785SOL    HW230906   1.728   2.717   5.373  0.6988 -0.3575 -0.8976
 7785SOL    HW330907   1.633   2.827   5.416  0.1134 -1.5711  1.0356
 7785SOL    MW430908   1.676   2.784   5.353 -0.0556 -0.5838  0.2221
 7786SOL     OW30909   1.476   5.782   0.467  0.0479  0.5775  0.2192
 7786SOL    HW230910   1.438   5.846   0.406  1.3140  1.1577  0.0004
 7786SOL    HW330911   1.563   5.817   0.487  0.9142 -1.2331 -0.1553
 7786SOL    MW430912   1.483   5.795   0.461  0.3293  0.4152  0.1409
 7787SOL     OW30913   1.969   4.427   4.012 -0.1852  0.1135 -0.1774
 7787SOL    HW230914   2.027   4.351   4.014  0.5050  0.6007 -0.9406
 7787SOL    HW330915   1.987   4.472   4.096  1.8487  1.1623 -1.0907
 7787SOL    MW430916   1.979   4.423   4.024  0.1742  0.3162 -0.3986
 7788SOL     OW30917   3.789   0.039   4.960 -0.2154  0.5651 -0.0078
 7788SOL    HW230918   3.835  -0.035   4.999  2.5590  1.4841 -1.3127
 7788SOL    HW330919   3.702   0.004   4.940  0.6084 -1.9938  0.4305
 7788SOL    MW430920   3.783   0.025   4.963  0.2593  0.3488 -0.1221
 7789SOL     OW30921   4.441   5.875   0.282 -0.5160 -0.4055  0.1868
 7789SOL    HW230922   4.530   5.871   0.246  0.0106 -0.2298  1.4098
 7789SOL    HW330923   4.411   5.964   0.261 -0.9353 -0.8893 -1.3867
 7789SOL    MW430924   4.449   5.887   0.274 -0.5018 -0.4461  0.1406
 7790SOL     OW30925   4.080   2.546   3.722  0.7614 -0.0746 -0.6611
 7790SOL    HW230926   4.002   2.501   3.756  0.2089  0.7600 -0.7979
 7790SOL    HW330927   4.151   2.516   3.778  0.3294 -0.7991 -0.4907
 7790SOL    MW430928   4.079   2.536   3.734  0.6315 -0.0601 -0.6567
 7791SOL     OW30929   5.223   2.211   1.888 -0.1837 -0.5201  0.3947
 7791SOL    HW230930   5.140   2.253   1.910  1.3450  1.1675  3.4790
 7791SOL    HW330931   5.271   2.277   1.839  0.4500 -0.3755  1.1958
 7791SOL    MW430932   5.218   2.225   1.884  0.1016 -0.2784  0.9073
 7792SOL     OW30933   0.481   2.365   2.224  0.2372 -0.9038 -0.2685
 7792SOL    HW230934   0.555   2.399   2.175  0.4997  0.2562  0.8842
 7792SOL    HW330935   0.417   2.435   2.223  0.2983 -0.7958  1.1296
 7792SOL    MW430936   0.482   2.378   2.217  0.2799 -0.7365  0.0681
 7793SOL     OW30937   5.918   2.861   3.271  0.0553  0.5081  0.1187
 7793SOL    HW230938   5.832   2.819   3.278 -1.2789  2.7797 -1.3873
 7793SOL    HW330939   5.959   2.818   3.195 -0.2176  0.2232  0.1315
 7793SOL    MW430940   5.912   2.849   3.262 -0.1567  0.7702 -0.0783
 7794SOL     OW30941   4.472   0.615   2.574 -0.9691 -0.3329  0.3992
 7794SOL    HW230942   4.479   0.651   2.663  1.1668  1.3701 -0.3545
 7794SOL    HW330943   4.468   0.520   2.587 -0.7011 -0.1325  2.3196
 7794SOL    MW430944   4.472   0.607   2.588 -0.6519 -0.0818  0.5531
 7795SOL     OW30945   3.023   2.713   5.093 -0.4322 -0.6481  0.2109
 7795SOL    HW230946   2.973   2.688   5.171 -0.0978  1.3069  1.1167
 7795SOL    HW330947   3.095   2.650   5.089 -1.9558 -2.4567 -0.1394
 7795SOL    MW430948   3.026   2.702   5.103 -0.5891 -0.6288  0.2842
 7796SOL     OW30949   5.134   3.018   0.023 -0.0351 -0.0008 -0.1058
 7796SOL    HW230950   5.136   2.924   0.038  0.7069 -0.0298 -0.3360
 7796SOL    HW330951   5.214   3.036  -0.027 -0.6125  0.6187 -0.8458
 7796SOL    MW430952   5.145   3.008   0.018 -0.0134  0.0771 -0.2338
 7797SOL     OW30953   0.419   0.745   0.885 -0.7041  0.4663  0.1451
 7797SOL    HW230954   0.463   0.728   0.802  1.3897  0.7637  1.1223
 7797SOL    HW330955   0.410   0.841   0.888 -2.4330  0.3642 -0.4870
 7797SOL    MW430956   0.423   0.756   0.874 -0.6560  0.4921  0.1907
 7798SOL     OW30957   4.572   6.164   3.249  0.2319 -0.7198  0.2649
 7798SOL    HW230958   4.589   6.229   3.317 -1.6360  1.3338 -1.0877
 7798SOL    HW330959   4.642   6.178   3.185 -2.0597  2.7320 -1.8141
 7798SOL    MW430960   4.583   6.175   3.249 -0.3169  0.0066 -0.1879
 7799SOL     OW30961   2.507   5.636   2.287  0.3356 -0.0763 -0.2826
 7799SOL    HW230962   2.568   5.695   2.331 -2.0182  2.8149 -0.5536
 7799SOL    HW330963   2.463   5.692   2.222 -2.7081 -1.9016  0.0457
 7799SOL    MW430964   2.509   5.651   2.284 -0.3765  0.0644 -0.2751
 7800SOL     OW30965   0.286   3.682   1.134  0.1074 -0.2581 -0.1583
 7800SOL    HW230966   0.373   3.655   1.103 -0.5482 -2.4532 -0.2761
 7800SOL    HW330967   0.290   3.670   1.229  0.3664  1.0788  0.0181
 7800SOL    MW430968   0.298   3.677   1.143  0.0551 -0.3714 -0.1505
 7801SOL     OW30969   1.629   1.674   1.615 -0.3580  0.3094 -0.0885
 7801SOL    HW230970   1.620   1.768   1.600  1.0874  0.8712  2.0545
 7801SOL    HW330971   1.651   1.667   1.708  1.3112 -2.0128 -0.5730
 7801SOL    MW430972   1.631   1.686   1.626  0.0530  0.0771  0.1303
 7802SOL     OW30973   6.143   1.404   3.583  0.3887 -0.3433 -0.5224
 7802SOL    HW230974   6.216   1.342   3.590  0.6475 -0.0003 -0.0393
 7802SOL    HW330975   6.136   1.441   3.672 -1.5614 -1.6846 -0.0712
 7802SOL    MW430976   6.152   1.401   3.596  0.1655 -0.4750 -0.3991
 7803SOL     OW30977   6.406   1.129   0.499  0.4945 -0.8408 -0.3890
 7803SOL    HW230978   6.494   1.135   0.537 -0.0592 -0.9615  0.9683
 7803SOL    HW330979   6.365   1.213   0.521 -0.5435 -1.7044  1.1778
 7803SOL    MW430980   6.412   1.141   0.507  0.2845 -0.9707 -0.0032
 7804SOL     OW30981   6.011   0.406   3.818  0.3551 -0.0238  0.4462
 7804SOL    HW230982   5.936   0.409   3.879  1.1305 -1.1050  1.4915
 7804SOL    HW330983   5.970   0.405   3.731 -0.8475 -0.1566  0.9812
 7804SOL    MW430984   5.995   0.406   3.815  0.2988 -0.1840  0.6547
 7805SOL     OW30985   1.377   2.250   2.298  0.1473  0.3892  0.2543
 7805SOL    HW230986   1.309   2.264   2.363 -1.2298 -0.0633 -1.0354
 7805SOL    HW330987   1.441   2.193   2.341 -1.4494 -1.0977  0.7563
 7805SOL    MW430988   1.377   2.244   2.312 -0.2451  0.1334  0.1504
 7806SOL     OW30989   0.442   6.307   0.944 -0.5835 -0.5030 -0.6141
 7806SOL    HW230990   0.497   6.293   1.021 -1.7286 -0.3846  0.2502
 7806SOL    HW330991   0.481   6.251   0.876 -0.5285 -1.8961  0.5272
 7806SOL    MW430992   0.454   6.298   0.945 -0.7273 -0.6712 -0.3495
 7807SOL     OW30993   3.308   0.727   6.049 -0.0727  0.4826 -0.2931
 7807SOL    HW230994   3.334   0.639   6.024  0.4799  0.8422 -1.0435
 7807SOL    HW330995   3.219   0.718   6.082 -0.2546 -0.2663 -0.9598
 7807SOL    MW430996   3.300   0.714   6.050 -0.0238  0.4312 -0.4800
 7808SOL     OW30997   0.795   5.478   5.759 -0.4334 -1.1628 -0.4278
 7808SOL    HW230998   0.852   5.516   5.692  0.5125  0.0797  0.9990
 7808SOL    HW330999   0.741   5.551   5.788 -1.5111 -1.9200 -0.5043
 7808SOL    MW431000   0.796   5.493   5.754 -0.4508 -1.0988 -0.2496
 7809SOL     OW31001   5.702   2.729   3.351 -0.5958  0.2108 -0.1547
 7809SOL    HW231002   5.665   2.799   3.298 -1.9399 -0.2248  0.1626
 7809SOL    HW331003   5.719   2.657   3.289  1.6995  1.0972 -0.6512
 7809SOL    MW431004   5.700   2.728   3.336 -0.4703  0.2703 -0.1783
 7810SOL     OW31005   3.529   3.308   3.114  0.0220 -0.5227 -0.3886
 7810SOL    HW231006   3.501   3.307   3.205 -1.4743 -0.3045 -0.8100
 7810SOL    HW331007   3.517   3.399   3.086  1.2807 -0.3995 -0.5847
 7810SOL    MW431008   3.523   3.320   3.122 -0.0094 -0.4777 -0.4700
 7811SOL     OW31009   2.436   2.826   3.191 -0.3076 -0.2301 -0.9930
 7811SOL    HW231010   2.384   2.777   3.256 -0.5814 -0.1685 -1.1654
 7811SOL    HW331011   2.371   2.873   3.139 -0.0682 -0.0422 -1.1207
 7811SOL    MW431012   2.421   2.825   3.193 -0.3121 -0.1972 -1.0326
 7812SOL     OW31013   6.002   1.624   6.210 -0.1759  0.2482  0.5116
 7812SOL    HW231014   5.988   1.689   6.142  0.9483 -0.8402 -0.8084
 7812SOL    HW331015   5.952   1.547   6.181 -0.0237 -0.0962  1.1335
 7812SOL    MW431016   5.994   1.622   6.197 -0.0075  0.0592  0.4194
 7813SOL     OW31017   4.929   2.900   5.224  0.3496 -0.2007  0.4987
 7813SOL    HW231018   4.969   2.899   5.311 -0.7523 -1.3350  1.0322
 7813SOL    HW331019   4.836   2.882   5.241  0.2448 -1.1836 -0.9559
 7813SOL    MW431020   4.922   2.897   5.238  0.1904 -0.4801  0.3772
 7814SOL     OW31021   5.295   3.697   1.858 -0.0895  0.0984 -0.2227
 7814SOL    HW231022   5.359   3.660   1.919 -0.4722 -0.4675 -0.1558
 7814SOL    HW331023   5.222   3.636   1.861 -0.0917  0.0365 -1.2856
 7814SOL    MW431024   5.294   3.684   1.866 -0.1403  0.0156 -0.3541
 7815SOL     OW31025   2.495   1.163   3.516 -0.6369  0.3869  0.2983
 7815SOL    HW231026   2.437   1.238   3.518  0.0213  0.9485 -0.7835
 7815SOL    HW331027   2.518   1.147   3.608 -0.1777  1.9909  0.4810
 7815SOL    MW431028   2.490   1.171   3.529 -0.4895  0.6726  0.1797
 7816SOL     OW31029   4.121   2.810   6.227  0.0019 -0.0442 -0.0812
 7816SOL    HW231030   4.086   2.898   6.234  0.1506  0.0802 -0.8528
 7816SOL    HW331031   4.108   2.772   6.315  0.7920  1.0515  0.5265
 7816SOL    MW431032   4.115   2.816   6.240  0.1258  0.1168 -0.1028
 7817SOL     OW31033   1.405   0.642   0.790 -0.2003 -0.0361 -0.1810
 7817SOL    HW231034   1.423   0.597   0.873 -0.6306 -0.1160 -0.1279
 7817SOL    HW331035   1.456   0.593   0.725  1.1114  0.7618  0.2052
 7817SOL    MW431036   1.414   0.629   0.793 -0.0840  0.0586 -0.1230
 7818SOL     OW31037   0.009   1.356   4.799 -0.1792 -0.1283 -0.2875
 7818SOL    HW231038  -0.025   1.269   4.779  1.8480 -1.0820  0.2317
 7818SOL    HW331039  -0.069   1.407   4.821 -1.3800 -1.8717 -0.2868
 7818SOL    MW431040  -0.006   1.352   4.799 -0.0702 -0.4841 -0.2189
 7819SOL     OW31041   2.290   4.846   1.159  0.0315  0.4740  0.1371
 7819SOL    HW231042   2.382   4.849   1.132 -0.1968 -1.4089 -1.0446
 7819SOL    HW331043   2.294   4.823   1.252  0.8116 -1.9958 -0.4182
 7819SOL    MW431044   2.303   4.844   1.168  0.1043 -0.1003 -0.0921
 7820SOL     OW31045   2.095   3.771   1.910  0.2350  0.2952 -0.2264
 7820SOL    HW231046   2.124   3.695   1.961 -4.0756 -0.8543  0.9341
 7820SOL    HW331047   2.145   3.845   1.945  2.9708 -1.5726  0.1514
 7820SOL    MW431048   2.105   3.771   1.921  0.0272 -0.1029 -0.0234
 7821SOL     OW31049   6.052   0.132   3.836 -0.5081 -0.2648  0.7376
 7821SOL    HW231050   6.056   0.227   3.826 -0.4945 -0.2362  1.0091
 7821SOL    HW331051   6.036   0.118   3.929  0.0998 -0.5414  0.8061
 7821SOL    MW431052   6.050   0.143   3.847 -0.4261 -0.2975  0.7825
 7822SOL     OW31053   0.254   3.216   6.280  0.4315  0.2288 -0.2498
 7822SOL    HW231054   0.343   3.180   6.281  0.0287 -0.7972  1.6942
 7822SOL    HW331055   0.251   3.273   6.356 -0.0564  1.7130 -1.3305
 7822SOL    MW431056   0.266   3.219   6.290  0.3139  0.2892 -0.1359
 7823SOL     OW31057   0.887   0.346   2.743  0.2857  0.1682 -0.0047
 7823SOL    HW231058   0.795   0.321   2.755  0.8771 -2.2451  0.0693
 7823SOL    HW331059   0.912   0.303   2.661  1.4928  0.3614  0.2518
 7823SOL    MW431060   0.878   0.337   2.734  0.5230 -0.1248  0.0389
 7824SOL     OW31061   3.275   2.965   0.076 -0.0474  0.1335 -0.3558
 7824SOL    HW231062   3.203   2.905   0.096 -0.2316 -0.0755 -1.5597
 7824SOL    HW331063   3.338   2.911   0.028 -0.3176  0.9362 -1.6606
 7824SOL    MW431064   3.274   2.950   0.072 -0.1074  0.2119 -0.6868
 7825SOL     OW31065   0.986   2.067   0.999  0.5390 -0.0168 -0.0378
 7825SOL    HW231066   0.904   2.108   1.026  1.8721  1.2686  2.4412
 7825SOL    HW331067   1.045   2.141   0.982  2.4142 -0.7714  2.5486
 7825SOL    MW431068   0.983   2.082   1.001  0.9623  0.0533  0.6305
 7826SOL     OW31069   0.786   2.359   1.805 -0.1132  0.5025 -0.5179
 7826SOL    HW231070   0.861   2.399   1.850 -1.2622  1.4935  0.6059
 7826SOL    HW331071   0.825   2.301   1.740  1.6551 -0.5695  1.3800
 7826SOL    MW431072   0.801   2.357   1.802 -0.0315  0.4918 -0.1193
 7827SOL     OW31073   1.228   1.004   4.846 -0.1454  0.2039  0.2709
 7827SOL    HW231074   1.280   1.079   4.876  1.0215 -0.7103  0.6137
 7827SOL    HW331075   1.269   0.929   4.888 -1.8316 -0.5527  0.6210
 7827SOL    MW431076   1.241   1.004   4.855 -0.2139 -0.0165  0.3623
 7828SOL     OW31077   5.786   6.138   2.950  0.4223  0.2245 -0.1430
 7828SOL    HW231078   5.759   6.066   2.893  1.7035 -0.3890 -0.0113
 7828SOL    HW331079   5.705   6.186   2.968 -0.7710 -2.0455  0.9819
 7828SOL    MW431080   5.772   6.135   2.945  0.4339 -0.1559  0.0228
 7829SOL     OW31081   4.618   6.116   0.589 -0.6121 -0.1739 -0.3832
 7829SOL    HW231082   4.599   6.023   0.577 -0.0086 -0.5004  0.9418
 7829SOL    HW331083   4.566   6.140   0.667  0.8035  0.0642  0.5150
 7829SOL    MW431084   4.608   6.107   0.598 -0.3457 -0.1855 -0.0899
 7830SOL     OW31085   5.773   2.467   1.176 -0.2737 -0.2685  0.2330
 7830SOL    HW231086   5.745   2.538   1.233  2.8243  0.3017  1.1843
 7830SOL    HW331087   5.764   2.388   1.230 -0.5801 -0.1908  0.3012
 7830SOL    MW431088   5.768   2.466   1.191  0.0946 -0.1830  0.3675
 7831SOL     OW31089   2.589   6.080   3.348 -0.5680 -0.9102 -0.4224
 7831SOL    HW231090   2.639   6.010   3.306  1.5393 -0.3036  0.9147
 7831SOL    HW331091   2.655   6.143   3.375 -1.9500 -0.5030  2.3004
 7831SOL    MW431092   2.604   6.079   3.346 -0.4723 -0.7764  0.1133
 7832SOL     OW31093   4.254   1.155   4.541  0.5943 -0.0805  0.2041
 7832SOL    HW231094   4.324   1.137   4.478  0.5002  1.0400 -0.2341
 7832SOL    HW331095   4.174   1.152   4.490  0.5369  1.0867  0.2063
 7832SOL    MW431096   4.253   1.152   4.526  0.5743  0.2213  0.1466
 7833SOL     OW31097   2.338   1.206   1.265 -0.5112  0.2778 -0.4696
 7833SOL    HW231098   2.369   1.153   1.338 -1.3146 -0.1086 -0.3909
 7833SOL    HW331099   2.404   1.195   1.197 -0.3639 -0.3382 -0.2328
 7833SOL    MW431100   2.351   1.198   1.266 -0.5977  0.1456 -0.4280
 7834SOL     OW31101   1.413   4.596   6.379  0.2151 -0.0053 -0.0472
 7834SOL    HW231102   1.428   4.501   6.380  1.7069  0.1948 -0.5718
 7834SOL    HW331103   1.365   4.612   6.298 -1.8032 -0.5114  0.9863
 7834SOL    MW431104   1.409   4.585   6.369  0.1457 -0.0457  0.0199
 7835SOL     OW31105   0.827   2.880   4.687  0.2162 -0.0831 -0.9686
 7835SOL    HW231106   0.807   2.917   4.774  0.2811 -1.8640 -0.1486
 7835SOL    HW331107   0.838   2.957   4.631 -0.1642  1.1245  0.5135
 7835SOL    MW431108   0.826   2.895   4.691  0.1746 -0.1588 -0.6649
 7836SOL     OW31109   0.717   1.867   0.509  0.6025 -0.1969  0.3643
 7836SOL    HW231110   0.771   1.787   0.513  1.5492  0.3986 -0.0966
 7836SOL    HW331111   0.627   1.835   0.507  0.9076 -1.2052  1.6786
 7836SOL    MW431112   0.713   1.852   0.509  0.7677 -0.2514  0.4769
 7837SOL     OW31113   4.844   5.699   5.101 -0.0876 -0.6901  0.0312
 7837SOL    HW231114   4.792   5.777   5.121  1.9391  0.7118  0.1288
 7837SOL    HW331115   4.841   5.647   5.182 -0.6944 -0.2771  0.2844
 7837SOL    MW431116   4.837   5.703   5.115  0.0998 -0.4506  0.0775
 7838SOL     OW31117   5.606   3.267   5.545  0.6073  0.4711 -0.5017
 7838SOL    HW231118   5.592   3.224   5.461  0.4678  1.3280 -0.9326
 7838SOL    HW331119   5.535   3.236   5.600 -0.3964  1.3257 -1.2838
 7838SOL    MW431120   5.595   3.257   5.541  0.4565  0.6969 -0.6617
 7839SOL     OW31121   3.119   2.604   4.577 -0.1168  0.4134  0.1015
 7839SOL    HW231122   3.178   2.626   4.504 -0.5634  0.5624 -0.2220
 7839SOL    HW331123   3.085   2.688   4.606 -1.9149  0.2075 -1.2094
 7839SOL    MW431124   3.122   2.618   4.571 -0.4130  0.4059 -0.1142
 7840SOL     OW31125   1.593   5.182   5.526 -0.0596  0.1991 -0.8403
 7840SOL    HW231126   1.504   5.215   5.516 -0.3778 -1.2394 -3.7122
 7840SOL    HW331127   1.642   5.224   5.456  1.3535  0.2943  0.1599
 7840SOL    MW431128   1.588   5.192   5.516  0.0849  0.0219 -1.0872
 7841SOL     OW31129   3.002   0.979   2.957 -0.5195  0.0476 -0.5604
 7841SOL    HW231130   2.914   1.015   2.945  0.0593  1.6253 -0.3653
 7841SOL    HW331131   3.016   0.924   2.881 -1.2113  0.7876 -1.2412
 7841SOL    MW431132   2.992   0.976   2.946 -0.5344  0.3534 -0.6245
 7842SOL     OW31133   5.978   5.197   1.952 -0.3045  0.3890  0.4421
 7842SOL    HW231134   6.015   5.109   1.942 -0.5150  0.3303  0.1760
 7842SOL    HW331135   5.992   5.218   2.044  0.5174  0.4225  0.3226
 7842SOL    MW431136   5.985   5.188   1.962 -0.2238  0.3857  0.3912
 7843SOL     OW31137   3.912   1.888   2.845 -0.2487  0.6460  0.5324
 7843SOL    HW231138   3.850   1.841   2.789  0.2898  0.1999  0.2973
 7843SOL    HW331139   3.949   1.955   2.789  0.3590  0.1400  0.3121
 7843SOL    MW431140   3.909   1.890   2.830 -0.0975  0.5204  0.4723
 7844SOL     OW31141   1.603   1.523   2.964 -0.2274 -0.0774 -0.2747
 7844SOL    HW231142   1.616   1.454   3.029  0.0095  0.0748 -0.1613
 7844SOL    HW331143   1.683   1.523   2.912  0.4024  1.1183  0.6621
 7844SOL    MW431144   1.615   1.514   2.965 -0.1131  0.1004 -0.1361
 7845SOL     OW31145   2.077   2.716   1.390 -0.3919  0.5177 -0.1664
 7845SOL    HW231146   2.095   2.699   1.297 -1.1025 -1.3739 -0.0193
 7845SOL    HW331147   1.998   2.664   1.408  1.0381 -1.0461  2.0256
 7845SOL    MW431148   2.069   2.707   1.380 -0.2970  0.0618  0.1422
 7846SOL     OW31149   3.260   5.977   5.504  0.1342 -0.3039 -0.2667
 7846SOL    HW231150   3.224   6.062   5.480 -0.0402 -0.2956  0.0260
 7846SOL    HW331151   3.336   5.997   5.558  1.9018 -0.2625 -2.6216
 7846SOL    MW431152   3.265   5.991   5.508  0.3444 -0.2974 -0.5388
 7847SOL     OW31153   6.203   1.682   2.595 -0.1838 -1.1664 -0.0306
 7847SOL    HW231154   6.297   1.698   2.594 -0.1890 -1.1410 -0.5928
 7847SOL    HW331155   6.195   1.588   2.613 -0.0301 -1.2644 -0.4521
 7847SOL    MW431156   6.214   1.672   2.597 -0.1642 -1.1760 -0.1604
 7848SOL     OW31157   1.837   1.272   5.596 -0.1359 -0.6720 -0.0981
 7848SOL    HW231158   1.793   1.227   5.669 -1.5611 -1.1720 -1.2130
 7848SOL    HW331159   1.829   1.365   5.618  0.7821 -0.8536  1.0982
 7848SOL    MW431160   1.830   1.278   5.609 -0.2028 -0.7619 -0.0874
 7849SOL     OW31161   4.848   4.611   2.182  0.0858  0.1410 -0.1046
 7849SOL    HW231162   4.772   4.597   2.238  1.3336 -0.5193  1.4901
 7849SOL    HW331163   4.816   4.592   2.093 -2.0747  1.7205  0.2507
 7849SOL    MW431164   4.834   4.607   2.177 -0.0346  0.2623  0.1526
 7850SOL     OW31165   5.348   0.585   3.546  0.0564  0.2701 -0.2169
 7850SOL    HW231166   5.428   0.548   3.584  1.2734  3.1440  0.3429
 7850SOL    HW331167   5.379   0.640   3.475 -1.7305 -0.5747 -1.7205
 7850SOL    MW431168   5.363   0.588   3.542 -0.0188  0.5378 -0.3414
 7851SOL     OW31169   3.652   0.319   5.775  0.0782 -0.5618 -0.0636
 7851SOL    HW231170   3.606   0.281   5.849  1.1387  1.9460  2.0641
 7851SOL    HW331171   3.743   0.327   5.804  0.4050  1.0918 -1.3302
 7851SOL    MW431172   3.658   0.315   5.789  0.2612 -0.0128  0.0500
 7852SOL     OW31173   4.376   2.558   0.698  0.6729  0.1087 -0.0672
 7852SOL    HW231174   4.368   2.629   0.635  0.0631  0.8611  0.8344
 7852SOL    HW331175   4.292   2.512   0.694  0.9266 -0.3380 -0.3723
 7852SOL    MW431176   4.364   2.561   0.689  0.6259  0.1490  0.0115
 7853SOL     OW31177   3.346   6.324   4.512  0.2287  0.0199  0.0371
 7853SOL    HW231178   3.405   6.372   4.570  1.1290 -0.7591 -0.1947
 7853SOL    HW331179   3.400   6.252   4.478 -0.2613  0.4186 -1.7312
 7853SOL    MW431180   3.361   6.321   4.515  0.2829 -0.0303 -0.2268
 7854SOL     OW31181   3.991   3.898   2.509 -0.4530 -0.1679  0.1442
 7854SOL    HW231182   3.942   3.891   2.427  0.1789 -1.0002 -0.1770
 7854SOL    HW331183   4.082   3.909   2.482 -0.2338 -0.4933  0.7291
 7854SOL    MW431184   3.996   3.898   2.495 -0.3407 -0.3206  0.1790
 7855SOL     OW31185   4.414   6.222   4.086 -0.5565  0.2445  0.3561
 7855SOL    HW231186   4.507   6.238   4.105 -0.0091 -0.9996 -1.0483
 7855SOL    HW331187   4.390   6.151   4.146 -0.9603  1.3426  1.5366
 7855SOL    MW431188   4.423   6.215   4.096 -0.5376  0.2252  0.3266
 7856SOL     OW31189   3.172   6.226   6.420  0.1025  0.5704 -0.4429
 7856SOL    HW231190   3.222   6.150   6.391  2.6337  1.9117  0.1207
 7856SOL    HW331191   3.233   6.299   6.412 -1.3591  2.1177  1.5717
 7856SOL    MW431192   3.187   6.226   6.415  0.2436  0.9515 -0.1027
 7857SOL     OW31193   0.686   3.425   5.395  0.6988  0.1125  0.0584
 7857SOL    HW231194   0.641   3.384   5.469  1.2817 -1.4352 -0.3936
 7857SOL    HW331195   0.617   3.473   5.349  0.6127  2.4868  2.4344
 7857SOL    MW431196   0.671   3.426   5.399  0.7644  0.2215  0.3123
 7858SOL     OW31197   1.731   3.799   2.307 -0.4633  0.1215 -0.4514
 7858SOL    HW231198   1.805   3.800   2.368  0.8176  0.9741 -1.9378
 7858SOL    HW331199   1.741   3.716   2.260 -0.6475  0.0768 -0.4100
 7858SOL    MW431200   1.742   3.788   2.309 -0.3186  0.2281 -0.6420
 7859SOL     OW31201   1.797   5.981   1.479 -0.0903 -0.1784 -0.3837
 7859SOL    HW231202   1.781   5.998   1.386  0.2886  0.7869 -0.2755
 7859SOL    HW331203   1.760   5.894   1.494 -2.1621  0.5609 -0.9334
 7859SOL    MW431204   1.790   5.971   1.469 -0.3136  0.0465 -0.4419
 7860SOL     OW31205   0.115   6.350   3.746 -0.3038 -0.2159  0.3760
 7860SOL    HW231206   0.030   6.359   3.790 -0.6348 -2.5414  0.3505
 7860SOL    HW331207   0.161   6.432   3.765 -2.2993  0.8350  0.9211
 7860SOL    MW431208   0.110   6.362   3.754 -0.6107 -0.3841  0.4445
 7861SOL     OW31209   5.969   5.675   1.822 -0.1873  0.3381  0.1307
 7861SOL    HW231210   5.928   5.687   1.737  1.1328  1.1125 -0.4258
 7861SOL    HW331211   6.046   5.620   1.805  1.2033  2.1015  0.4398
 7861SOL    MW431212   5.974   5.669   1.809  0.1704  0.6729  0.0980
 7862SOL     OW31213   1.579   4.141   0.377  0.2716  0.5515  0.0964
 7862SOL    HW231214   1.611   4.058   0.412 -1.1576 -0.0924 -0.0559
 7862SOL    HW331215   1.650   4.203   0.395  0.6142 -0.2811  1.8997
 7862SOL    MW431216   1.593   4.138   0.384  0.1282  0.3567  0.3142
 7863SOL     OW31217   6.022   5.340   0.701 -0.1725 -0.1845  0.3523
 7863SOL    HW231218   6.041   5.252   0.735  0.8211 -0.4191 -0.7331
 7863SOL    HW331219   6.085   5.397   0.746  1.1704 -0.5013 -1.0461
 7863SOL    MW431220   6.033   5.336   0.711  0.1358 -0.2572  0.0246
 7864SOL     OW31221   2.807   0.412   4.275 -0.5285  0.1749 -0.1636
 7864SOL    HW231222   2.834   0.396   4.184 -1.1299  2.3948 -0.7948
 7864SOL    HW331223   2.714   0.432   4.269 -0.3393  1.4376  0.7917
 7864SOL    MW431224   2.799   0.413   4.262 -0.5829  0.6344 -0.1208
 7865SOL     OW31225   1.518   6.102   4.303  0.1567  0.4509  0.2916
 7865SOL    HW231226   1.428   6.125   4.326  0.2727  0.8247  0.3754
 7865SOL    HW331227   1.535   6.022   4.352 -0.0587  0.4945  0.4426
 7865SOL    MW431228   1.508   6.095   4.312  0.1436  0.5060  0.3226
 7866SOL     OW31229   4.454   1.477   0.558 -0.0229  0.0079  0.0125
 7866SOL    HW231230   4.377   1.517   0.599  0.8142  1.4926  0.1712
 7866SOL    HW331231   4.496   1.428   0.629  0.0436  0.4953  0.3097
 7866SOL    MW431232   4.449   1.476   0.573  0.0963  0.2681  0.0727
 7867SOL     OW31233   2.113   5.850   4.001  0.0799 -0.3076 -0.4895
 7867SOL    HW231234   2.157   5.935   4.005 -1.1409  0.3063  0.9832
 7867SOL    HW331235   2.109   5.829   3.908  1.0692  0.8799 -0.8274
 7867SOL    MW431236   2.119   5.858   3.989  0.0493 -0.0699 -0.3398
 7868SOL     OW31237   5.882   1.820   3.924 -0.1964 -0.3139 -0.1056
 7868SOL    HW231238   5.898   1.801   4.016 -1.2590  1.4774  0.5070
 7868SOL    HW331239   5.787   1.807   3.913 -0.4598  1.5416 -0.3531
 7868SOL    MW431240   5.871   1.816   3.935 -0.3714  0.1673 -0.0574
 7869SOL     OW31241   1.422   0.541   1.784  0.2599  0.3600  0.0878
 7869SOL    HW231242   1.490   0.522   1.719  1.6298 -0.5102  1.6726
 7869SOL    HW331243   1.471   0.563   1.863 -1.3503  1.9084  0.7158
 7869SOL    MW431244   1.437   0.542   1.786  0.2282  0.4495  0.3798
 7870SOL     OW31245   6.003   2.873   4.102 -0.3603 -0.2812  0.2825
 7870SOL    HW231246   6.072   2.811   4.080 -0.5235 -0.2433 -0.3625
 7870SOL    HW331247   5.957   2.888   4.020 -0.9255 -0.0443  0.6358
 7870SOL    MW431248   6.006   2.867   4.089 -0.4564 -0.2450  0.2440
 7871SOL     OW31249   1.891   3.789   4.685  0.4134  0.2695  0.2751
 7871SOL    HW231250   1.857   3.766   4.771 -1.4157 -1.3448 -0.8016
 7871SOL    HW331251   1.856   3.877   4.668  0.6650  0.5346  1.1094
 7871SOL    MW431252   1.882   3.798   4.694  0.2053  0.0915  0.2431
 7872SOL     OW31253   0.361   5.845   3.464  0.0722 -0.4644  0.8564
 7872SOL    HW231254   0.345   5.938   3.479  0.4238 -0.3025  0.2867
 7872SOL    HW331255   0.403   5.815   3.545 -0.3901 -0.2177  1.1900
 7872SOL    MW431256   0.365   5.853   3.477  0.0576 -0.4105  0.8253
 7873SOL     OW31257   2.494   4.993   4.876 -0.5456 -0.2832  0.2008
 7873SOL    HW231258   2.401   5.007   4.856 -0.0656 -0.7535 -2.9390
 7873SOL    HW331259   2.524   5.078   4.909 -1.9053  0.1155  0.5009
 7873SOL    MW431260   2.485   5.006   4.877 -0.6616 -0.2926 -0.1739
 7874SOL     OW31261   6.296   2.900   2.897 -0.0563  0.3866  0.8643
 7874SOL    HW231262   6.332   2.889   2.985  0.7649 -2.1063  0.2813
 7874SOL    HW331263   6.361   2.861   2.839 -0.7363  1.6742 -0.8572
 7874SOL    MW431264   6.309   2.893   2.901 -0.0377  0.2276  0.5602
 7875SOL     OW31265   2.750   3.860   4.624  0.0526  0.3766  0.3347
 7875SOL    HW231266   2.748   3.832   4.532 -1.4195 -0.1072  0.4891
 7875SOL    HW331267   2.791   3.946   4.622  0.0146  0.3842 -0.7843
 7875SOL    MW431268   2.755   3.868   4.612 -0.1466  0.3138  0.2074
 7876SOL     OW31269   3.748   3.671   3.437 -0.5267  0.2039 -0.7069
 7876SOL    HW231270   3.673   3.643   3.490 -1.0563 -0.4194 -1.7462
 7876SOL    HW331271   3.757   3.602   3.371  1.5967 -0.2613 -0.0062
 7876SOL    MW431272   3.739   3.658   3.435 -0.3164  0.0603 -0.7516
 7877SOL     OW31273   1.225   0.587   1.209 -0.2566  0.1253 -0.1344
 7877SOL    HW231274   1.174   0.518   1.253 -1.5428  0.7346 -0.5995
 7877SOL    HW331275   1.232   0.656   1.274 -0.3178  0.1764 -0.1822
 7877SOL    MW431276   1.219   0.587   1.223 -0.4343  0.2124 -0.2021
 7878SOL     OW31277   3.879   0.906   5.068 -0.1493 -0.3667 -0.0315
 7878SOL    HW231278   3.834   0.849   5.130  0.4343  0.6253  1.3540
 7878SOL    HW331279   3.813   0.972   5.044 -0.0746 -0.1460  0.3579
 7878SOL    MW431280   3.864   0.907   5.073 -0.0625 -0.2067  0.2027
 7879SOL     OW31281   3.625   5.392   4.157  0.3043 -0.1685 -0.0102
 7879SOL    HW231282   3.596   5.302   4.149  1.2638 -0.6521  1.5766
 7879SOL    HW331283   3.662   5.413   4.071 -0.9268 -0.8849 -0.7436
 7879SOL    MW431284   3.627   5.383   4.145  0.2685 -0.3268  0.1024
 7880SOL     OW31285   1.642   5.647   2.509 -0.2540 -0.6138  0.0358
 7880SOL    HW231286   1.628   5.741   2.522 -0.9888 -0.8607  1.1598
 7880SOL    HW331287   1.576   5.605   2.565 -0.9347 -1.8009 -1.6005
 7880SOL    MW431288   1.631   5.654   2.518 -0.4408 -0.8030 -0.0318
 7881SOL     OW31289   2.695   6.028   1.897  0.3907 -0.3372  0.2499
 7881SOL    HW231290   2.616   6.071   1.863  0.2380 -1.0980 -0.3838
 7881SOL    HW331291   2.762   6.096   1.896  0.1538 -0.1069 -0.7312
 7881SOL    MW431292   2.693   6.042   1.892  0.3393 -0.4072  0.0368
 7882SOL     OW31293   3.836   4.013   1.078 -0.3749 -0.2188  0.2582
 7882SOL    HW231294   3.816   4.064   1.000 -0.1527 -1.1031 -0.3800
 7882SOL    HW331295   3.756   3.963   1.095 -0.9820  1.1102  1.5086
 7882SOL    MW431296   3.823   4.013   1.070 -0.4257 -0.1601  0.3389
 7883SOL     OW31297   3.623   3.440   6.030 -0.5049  0.3959  0.4871
 7883SOL    HW231298   3.635   3.460   6.122 -1.0636  0.1239  0.6252
 7883SOL    HW331299   3.674   3.359   6.016  0.3915  0.9723  0.3141
 7883SOL    MW431300   3.631   3.432   6.040 -0.4604  0.4360  0.4825
 7884SOL     OW31301   0.282   1.368   3.135  0.3101  0.4320  0.3630
 7884SOL    HW231302   0.346   1.330   3.076 -0.4173 -1.9186  0.9858
 7884SOL    HW331303   0.312   1.458   3.149  0.7775  0.9416 -3.1214
 7884SOL    MW431304   0.294   1.375   3.129  0.2758  0.1891 -0.0145
 7885SOL     OW31305   4.873   2.596   4.697  0.3514  0.3835 -0.0435
 7885SOL    HW231306   4.842   2.645   4.773 -2.9236  0.4217 -1.2692
 7885SOL    HW331307   4.819   2.517   4.697  1.6349 -0.5292 -1.2837
 7885SOL    MW431308   4.862   2.592   4.707  0.0887  0.2681 -0.3688
 7886SOL     OW31309   4.172   0.905   5.137 -0.2975  0.5400 -0.6520
 7886SOL    HW231310   4.147   0.904   5.045 -1.5862  0.5794 -0.3177
 7886SOL    HW331311   4.093   0.933   5.183 -0.0316 -0.6298  0.5672
 7886SOL    MW431312   4.158   0.908   5.131 -0.4324  0.3909 -0.4471
 7887SOL     OW31313   2.957   0.040   0.125  0.0347  0.1846  0.1972
 7887SOL    HW231314   2.991  -0.043   0.160 -1.1158 -0.4364 -0.0951
 7887SOL    HW331315   2.879   0.058   0.177 -0.9037 -0.0274 -1.0816
 7887SOL    MW431316   2.951   0.031   0.136 -0.2409  0.0747 -0.0101
 7888SOL     OW31317   1.180   6.164   4.772 -0.2368  0.1108  0.0873
 7888SOL    HW231318   1.101   6.163   4.825 -1.0085 -3.0536 -0.9124
 7888SOL    HW331319   1.251   6.146   4.834 -0.6218  0.3076  0.5926
 7888SOL    MW431320   1.179   6.162   4.787 -0.3894 -0.2807  0.0221
 7889SOL     OW31321   5.978   5.937   1.918  0.4080  0.7274  0.0710
 7889SOL    HW231322   5.885   5.958   1.925  0.3808  0.6384 -0.0113
 7889SOL    HW331323   5.980   5.852   1.873  0.3601 -1.0312  3.1482
 7889SOL    MW431324   5.966   5.928   1.913  0.3981  0.4837  0.4661
 7890SOL     OW31325   3.777   5.699   0.602  0.3569 -0.2438  0.4303
 7890SOL    HW231326   3.771   5.607   0.628 -0.1139  0.5720  3.5060
 7890SOL    HW331327   3.690   5.721   0.571  0.5242 -0.8548 -0.5164
 7890SOL    MW431328   3.765   5.690   0.601  0.3169 -0.2168  0.7112
 7891SOL     OW31329   3.870   3.418   0.516  0.2741  0.3940 -0.0417
 7891SOL    HW231330   3.783   3.423   0.557  0.6524 -1.0964  1.0228
 7891SOL    HW331331   3.921   3.485   0.562 -0.2756  1.2534 -0.6446
 7891SOL    MW431332   3.865   3.428   0.528  0.2515  0.3108  0.0192
 7892SOL     OW31333   4.656   6.316   4.172  0.3613 -0.1912 -0.1252
 7892SOL    HW231334   4.636   6.311   4.265  0.6498  0.5932 -0.0102
 7892SOL    HW331335   4.743   6.357   4.168  0.1452  0.2304 -0.7441
 7892SOL    MW431336   4.665   6.321   4.183  0.3709 -0.0321 -0.1917
 7893SOL     OW31337   2.293   3.693   0.573  0.5858  0.2551 -0.7142
 7893SOL    HW231338   2.338   3.611   0.554  1.7991  0.0563  2.3863
 7893SOL    HW331339   2.363   3.755   0.593 -0.3886  1.3846 -0.6649
 7893SOL    MW431340   2.308   3.690   0.573  0.6173  0.3779 -0.2986
 7894SOL     OW31341   0.570   0.932   6.350 -0.4405 -0.4741  0.4578
 7894SOL    HW231342   0.527   0.990   6.288  0.6422  0.0123  0.1288
 7894SOL    HW331343   0.569   0.980   6.433  0.7854  0.2231  0.1029
 7894SOL    MW431344   0.565   0.946   6.353 -0.1359 -0.3179  0.3676
 7895SOL     OW31345   6.201   0.785   1.568 -0.4975 -0.4092 -0.1406
 7895SOL    HW231346   6.121   0.837   1.579  0.1174  0.3986  0.6597
 7895SOL    HW331347   6.247   0.794   1.651  0.2074 -1.2699 -0.4174
 7895SOL    MW431348   6.197   0.793   1.580 -0.3233 -0.4162 -0.0715
 7896SOL     OW31349   3.441   4.595   1.893 -0.5384  0.0145  0.0205
 7896SOL    HW231350   3.520   4.541   1.900 -1.2166 -1.0835 -0.4930
 7896SOL    HW331351   3.430   4.611   1.800 -0.5052  0.8114  0.1472
 7896SOL    MW431352   3.450   4.590   1.882 -0.6235 -0.0252 -0.0305
 7897SOL     OW31353   5.327   2.517   1.547  0.0513  0.0237 -0.9574
 7897SOL    HW231354   5.351   2.468   1.468 -0.2879 -1.4459 -0.1886
 7897SOL    HW331355   5.234   2.498   1.559 -0.1097  0.9456 -0.6836
 7897SOL    MW431356   5.318   2.508   1.538 -0.0147 -0.0485 -0.8199
 7898SOL     OW31357   1.096   3.109   4.043  0.4791  0.3183  0.4780
 7898SOL    HW231358   1.135   3.073   3.962 -2.3058 -2.5097  0.1830
 7898SOL    HW331359   1.127   3.050   4.112  0.9051  1.2852  1.1398
 7898SOL    MW431360   1.105   3.096   4.041  0.1679  0.0728  0.5264
 7899SOL     OW31361   2.285   3.854   1.710  0.1476 -0.1486  0.2318
 7899SOL    HW231362   2.244   3.791   1.769 -0.5346  0.7875  0.7686
 7899SOL    HW331363   2.372   3.869   1.747  0.8917 -1.8461 -0.6996
 7899SOL    MW431364   2.291   3.847   1.722  0.1558 -0.2491  0.1797
 7900SOL     OW31365   4.907   4.203   3.038  0.0176 -0.1935 -0.6868
 7900SOL    HW231366   4.835   4.177   3.096 -1.1266  0.4014 -1.7841
 7900SOL    HW331367   4.869   4.203   2.951  1.8575 -1.6254 -1.5473
 7900SOL    MW431368   4.893   4.200   3.034  0.1093 -0.3039 -0.9451
 7901SOL     OW31369   0.616   5.792   1.045  0.2672  0.0359 -0.7602
 7901SOL    HW231370   0.557   5.831   1.109  0.2739  0.7491 -1.1789
 7901SOL    HW331371   0.598   5.698   1.050 -0.0102  0.1172  0.0013
 7901SOL    MW431372   0.606   5.784   1.054  0.2314  0.1407 -0.7150
 7902SOL     OW31373   4.743   5.814   0.240  0.1183 -0.1569 -0.0827
 7902SOL    HW231374   4.821   5.801   0.294 -0.2072 -1.1746  0.1695
 7902SOL    HW331375   4.772   5.795   0.151  0.2528 -0.1588 -0.0380
 7902SOL    MW431376   4.757   5.810   0.235  0.0931 -0.2914 -0.0435
 7903SOL     OW31377   4.005   3.479   3.122  0.3747  0.2741  0.1076
 7903SOL    HW231378   3.984   3.391   3.092  0.0254 -0.0077  1.1376
 7903SOL    HW331379   3.920   3.518   3.143  0.5089  0.9422 -0.5412
 7903SOL    MW431380   3.991   3.472   3.120  0.3463  0.3251  0.1579
 7904SOL     OW31381   5.721   4.424   5.169  0.1895  0.0811 -0.6296
 7904SOL    HW231382   5.681   4.504   5.202  0.0768 -0.3091  0.1933
 7904SOL    HW331383   5.809   4.423   5.206  0.9528  0.8553 -2.3076
 7904SOL    MW431384   5.727   4.434   5.178  0.2753  0.1317 -0.7424
 7905SOL     OW31385   2.265   2.974   1.139 -0.3582  0.2751  0.0473
 7905SOL    HW231386   2.231   3.029   1.209 -0.2196 -0.6422  0.8588
 7905SOL    HW331387   2.360   2.977   1.152 -0.3073  0.3944 -0.3388
 7905SOL    MW431388   2.273   2.982   1.150 -0.3332  0.1698  0.1034
 7906SOL     OW31389   0.971   6.394   5.836 -0.7539 -0.4006 -0.0379
 7906SOL    HW231390   0.993   6.305   5.807 -2.1246 -0.6337 -0.4315
 7906SOL    HW331391   1.003   6.399   5.926 -0.1111 -1.0803 -0.2249
 7906SOL    MW431392   0.978   6.383   5.844 -0.8499 -0.5210 -0.1145
 7907SOL     OW31393   2.098   0.868   5.091  0.5867  0.1254 -0.1887
 7907SOL    HW231394   2.132   0.947   5.134  0.1958  1.5128 -2.2642
 7907SOL    HW331395   2.163   0.847   5.024 -0.4516  0.1152 -1.2184
 7907SOL    MW431396   2.111   0.876   5.088  0.3981  0.3071 -0.5984
 7908SOL     OW31397   4.376   0.309   6.390  0.0834 -0.3374  0.2206
 7908SOL    HW231398   4.436   0.367   6.437 -0.1978  0.1532 -0.0156
 7908SOL    HW331399   4.396   0.322   6.298 -0.0792 -0.5111  0.1594
 7908SOL    MW431400   4.386   0.318   6.384  0.0249 -0.2956  0.1813
 7909SOL     OW31401   2.564   1.721   5.734  0.4633 -0.4251 -0.0133
 7909SOL    HW231402   2.597   1.656   5.672 -0.1112 -0.0014 -0.7896
 7909SOL    HW331403   2.642   1.762   5.771  0.8140 -0.5946 -0.5589
 7909SOL    MW431404   2.578   1.718   5.730  0.4338 -0.3916 -0.1877
 7910SOL     OW31405   0.002   0.834   4.454 -0.4660 -0.5071 -0.0398
 7910SOL    HW231406   0.001   0.929   4.462  2.2247 -0.4414  0.5038
 7910SOL    HW331407   0.015   0.802   4.543 -0.0906 -1.3131 -0.3719
 7910SOL    MW431408   0.004   0.842   4.467 -0.0615 -0.6048 -0.0119
 7911SOL     OW31409   3.169   5.665   3.971  0.1960 -0.3868  0.7639
 7911SOL    HW231410   3.243   5.678   3.912 -0.3531 -0.2876  0.0709
 7911SOL    HW331411   3.197   5.701   4.055 -0.2882  3.0095 -0.3622
 7911SOL    MW431412   3.182   5.671   3.974  0.0597  0.0744  0.5239
 7912SOL     OW31413   5.985   6.101   0.291 -0.2339 -0.0726  0.1263
 7912SOL    HW231414   5.916   6.162   0.267 -1.2399 -2.0332 -2.3821
 7912SOL    HW331415   6.066   6.148   0.272 -0.9685  0.5731 -1.5298
 7912SOL    MW431416   5.987   6.116   0.286 -0.4635 -0.2461 -0.4232
 7913SOL     OW31417   3.139   6.222   5.433  0.3847  0.0277 -0.1595
 7913SOL    HW231418   3.052   6.222   5.394 -0.0360 -1.3551  0.6947
 7913SOL    HW331419   3.136   6.288   5.502 -0.6123 -1.2546  1.0873
 7913SOL    MW431420   3.127   6.231   5.437  0.1977 -0.3239  0.1177
 7914SOL     OW31421   0.078   5.331   4.054  0.0538 -0.1569 -0.3230
 7914SOL    HW231422   0.165   5.370   4.045  0.2179 -0.5454 -0.4424
 7914SOL    HW331423   0.094   5.237   4.060 -0.1319 -0.0931  2.4813
 7914SOL    MW431424   0.092   5.324   4.053  0.0510 -0.1998  0.0312
 7915SOL     OW31425   0.059   2.081   5.727 -0.1984 -0.1226 -0.4649
 7915SOL    HW231426   0.062   2.044   5.639  0.2227  0.4207 -0.6848
 7915SOL    HW331427   0.040   2.174   5.713 -1.8812 -0.3305  0.1022
 7915SOL    MW431428   0.057   2.088   5.713 -0.3649 -0.0783 -0.4191
 7916SOL     OW31429   4.593   1.541   1.193 -0.5841  0.1585  0.1468
 7916SOL    HW231430   4.520   1.489   1.161  0.6220 -0.3405 -2.0137
 7916SOL    HW331431   4.576   1.629   1.159 -0.8834  0.3841  0.8654
 7916SOL    MW431432   4.581   1.546   1.184 -0.4644  0.1224 -0.0434
 7917SOL     OW31433   1.588   6.428   1.627  0.2749  0.1780 -0.3951
 7917SOL    HW231434   1.592   6.488   1.702 -0.1204  1.8783 -1.6705
 7917SOL    HW331435   1.678   6.399   1.614  0.5494  0.8393 -0.0050
 7917SOL    MW431436   1.600   6.432   1.635  0.2590  0.4896 -0.5119
 7918SOL     OW31437   1.021   1.824   3.762 -0.0226  0.5362  0.2473
 7918SOL    HW231438   1.064   1.752   3.809  0.3080 -0.0154 -0.8683
 7918SOL    HW331439   1.084   1.896   3.766  0.3902  0.2019 -0.1095
 7918SOL    MW431440   1.035   1.824   3.769  0.0755  0.4194  0.0531
 7919SOL     OW31441   4.643   4.561   2.340  0.3103  0.0405  0.1440
 7919SOL    HW231442   4.664   4.616   2.416 -1.0794  0.8159 -0.0204
 7919SOL    HW331443   4.548   4.561   2.335  0.3684  0.8982 -2.2527
 7919SOL    MW431444   4.633   4.568   2.350  0.1346  0.2560 -0.1939
 7920SOL     OW31445   3.929   4.484   3.287 -0.1568 -0.3306  0.0758
 7920SOL    HW231446   3.942   4.454   3.197  0.9726 -2.1391  0.7897
 7920SOL    HW331447   3.992   4.555   3.299 -0.9887  0.5871 -0.8249
 7920SOL    MW431448   3.939   4.490   3.277 -0.1175 -0.4481  0.0512
 7921SOL     OW31449   5.087   6.066   1.241 -0.2441 -0.2730 -0.1520
 7921SOL    HW231450   5.116   6.065   1.332  1.5145  0.5832 -0.6662
 7921SOL    HW331451   5.043   5.981   1.230  0.4074 -0.8258  1.2047
 7921SOL    MW431452   5.085   6.054   1.252  0.0739 -0.2330 -0.0409
 7922SOL     OW31453   3.283   2.546   5.339  0.5137  0.4970 -0.4741
 7922SOL    HW231454   3.339   2.600   5.395 -1.5452  2.0960  0.1752
 7922SOL    HW331455   3.309   2.456   5.358  0.3837  1.0021  2.5587
 7922SOL    MW431456   3.294   2.541   5.349  0.2249  0.7746  0.0117
 7923SOL     OW31457   4.968   5.076   3.303  0.0112 -0.5858  0.7198
 7923SOL    HW231458   4.984   5.111   3.391 -0.5395 -0.3528  0.7317
 7923SOL    HW331459   5.055   5.051   3.271  0.2527 -0.3940  1.2127
 7923SOL    MW431460   4.982   5.077   3.310 -0.0296 -0.5298  0.7864
 7924SOL     OW31461   4.635   4.225   0.232 -0.0431  0.4594  0.2841
 7924SOL    HW231462   4.555   4.174   0.236 -0.5346  1.0500 -1.1361
 7924SOL    HW331463   4.687   4.183   0.163  0.4291  0.6741  0.5026
 7924SOL    MW431464   4.631   4.213   0.223 -0.0456  0.5656  0.1255
 7925SOL     OW31465   3.749   3.840   0.523  0.2111  0.2819 -0.0364
 7925SOL    HW231466   3.679   3.803   0.576  0.5669  0.0677  0.2925
 7925SOL    HW331467   3.829   3.818   0.570  0.4049  2.0607  0.5728
 7925SOL    MW431468   3.750   3.832   0.536  0.2836  0.4883  0.0874
 7926SOL     OW31469   5.137   4.993   3.730  0.1097 -0.6910  0.3335
 7926SOL    HW231470   5.116   5.069   3.675 -2.4901 -1.0499  0.7052
 7926SOL    HW331471   5.151   5.030   3.817  1.3614 -0.4186  0.0352
 7926SOL    MW431472   5.136   5.008   3.734 -0.0682 -0.7024  0.3432
 7927SOL     OW31473   4.062   2.205   6.412  0.1564  0.2384  0.0227
 7927SOL    HW231474   4.147   2.217   6.455 -0.6435  0.0368  1.7423
 7927SOL    HW331475   4.047   2.110   6.417 -0.0272  0.2385 -0.5562
 7927SOL    MW431476   4.071   2.194   6.419  0.0267  0.2118  0.1732
 7928SOL     OW31477   5.396   4.778   5.900  0.4118  0.4805  0.0392
 7928SOL    HW231478   5.313   4.793   5.854  0.7546  1.3043 -0.3263
 7928SOL    HW331479   5.405   4.683   5.902 -0.3079  0.3958 -0.3454
 7928SOL    MW431480   5.386   4.768   5.894  0.3620  0.5780 -0.0598
 7929SOL     OW31481   4.557   4.151   5.570  0.0546  0.3320  0.5236
 7929SOL    HW231482   4.633   4.098   5.596  0.0761  0.1673  0.1276
 7929SOL    HW331483   4.514   4.172   5.653 -0.6941 -1.4093  0.6191
 7929SOL    MW431484   4.561   4.147   5.584 -0.0414  0.0805  0.4840
 7930SOL     OW31485   0.257   2.752   1.839 -1.0018 -0.2830  0.5814
 7930SOL    HW231486   0.320   2.822   1.855  0.4389 -1.1582 -0.8908
 7930SOL    HW331487   0.215   2.775   1.756  1.5391 -2.4101 -1.4877
 7930SOL    MW431488   0.260   2.764   1.830 -0.4765 -0.6791  0.1142
 7931SOL     OW31489   0.421   2.683   3.557  0.0142  0.4594  0.2306
 7931SOL    HW231490   0.363   2.609   3.573 -0.8715  1.5457  2.5260
 7931SOL    HW331491   0.382   2.729   3.482 -0.1843 -0.6359 -0.3499
 7931SOL    MW431492   0.408   2.679   3.549 -0.1289  0.4582  0.4568
 7932SOL     OW31493   0.315   0.812   4.768  0.2195  0.0490  0.0099
 7932SOL    HW231494   0.319   0.902   4.801  0.2173 -0.1669  0.6063
 7932SOL    HW331495   0.390   0.804   4.710  1.3323 -0.1365  1.4139
 7932SOL    MW431496   0.325   0.823   4.765  0.3660 -0.0039  0.2738
 7933SOL     OW31497   1.532   2.724   1.905  0.5304 -0.5198  0.0297
 7933SOL    HW231498   1.488   2.707   1.821 -1.4458  0.6799  0.7735
 7933SOL    HW331499   1.619   2.685   1.894 -0.3203 -2.0577 -1.8930
 7933SOL    MW431500   1.538   2.717   1.892  0.1575 -0.5644 -0.1258
 7934SOL     OW31501   5.322   0.721   0.870  0.3175  0.2078 -0.2945
 7934SOL    HW231502   5.384   0.785   0.904  1.1108  0.1002 -1.4679
 7934SOL    HW331503   5.365   0.686   0.791  0.4784 -2.6149  0.9240
 7934SOL    MW431504   5.336   0.725   0.864  0.4434 -0.1788 -0.2885
 7935SOL     OW31505   6.354   0.391   1.740 -0.0262  0.0581  0.2339
 7935SOL    HW231506   6.324   0.330   1.808  1.1466 -1.1944 -0.3304
 7935SOL    HW331507   6.397   0.462   1.789 -0.0889 -0.3152  0.8448
 7935SOL    MW431508   6.356   0.392   1.756  0.1203 -0.1564  0.2400
 7936SOL     OW31509   2.972   0.900   3.247 -0.5643  0.4008  0.4653
 7936SOL    HW231510   2.925   0.931   3.170  1.2612  2.8358  0.1929
 7936SOL    HW331511   2.953   0.964   3.315  3.0364  2.2334  0.0109
 7936SOL    MW431512   2.964   0.913   3.245  0.1516  0.9639  0.3694
 7937SOL     OW31513   0.363   0.462   3.294 -0.0617 -0.4393 -0.5175
 7937SOL    HW231514   0.441   0.408   3.302  2.4875  2.9103 -0.4253
 7937SOL    HW331515   0.388   0.531   3.232 -2.1611  2.0067  1.1496
 7937SOL    MW431516   0.377   0.464   3.287 -0.0023  0.3254 -0.2854
 7938SOL     OW31517   3.688   5.642   1.083  0.0996  0.4374 -0.4124
 7938SOL    HW231518   3.722   5.698   1.152  1.5207  0.7792 -1.3542
 7938SOL    HW331519   3.631   5.580   1.129  1.8823 -0.0720  1.2540
 7938SOL    MW431520   3.685   5.641   1.098  0.5223  0.4153 -0.3168
 7939SOL     OW31521   4.447   6.340   1.824  0.1889  0.4857 -0.1849
 7939SOL    HW231522   4.450   6.251   1.858  0.7373  0.8347  0.7105
 7939SOL    HW331523   4.435   6.330   1.729  0.0194 -0.5271 -0.0609
 7939SOL    MW431524   4.446   6.327   1.816  0.2389  0.3981 -0.0504
 7940SOL     OW31525   4.016   6.149   1.395 -0.5875  0.4434  0.0400
 7940SOL    HW231526   4.077   6.222   1.402 -0.0845  0.1350 -1.0499
 7940SOL    HW331527   4.063   6.075   1.434 -0.6861  0.4458  0.1666
 7940SOL    MW431528   4.030   6.148   1.401 -0.5341  0.4030 -0.0871
 7941SOL     OW31529   0.340   5.432   4.046 -0.1991 -0.2876 -0.4993
 7941SOL    HW231530   0.363   5.479   3.965  0.0042  1.5785  0.5904
 7941SOL    HW331531   0.381   5.346   4.036  1.3731  0.5459 -1.6178
 7941SOL    MW431532   0.349   5.427   4.034  0.0352  0.0686 -0.5031
 7942SOL     OW31533   5.199   4.907   5.258  0.2387  0.2518 -0.1179
 7942SOL    HW231534   5.276   4.889   5.203 -0.5828 -1.3476 -0.8087
 7942SOL    HW331535   5.209   4.998   5.284  1.0470  0.8664 -2.3675
 7942SOL    MW431536   5.210   4.917   5.254  0.2370  0.1219 -0.5058
 7943SOL     OW31537   3.849   2.506   4.093 -0.7508 -0.3454 -0.5165
 7943SOL    HW231538   3.844   2.601   4.083 -0.5268 -0.3541 -0.7118
 7943SOL    HW331539   3.932   2.490   4.137 -0.3032 -0.5186 -1.4110
 7943SOL    MW431540   3.859   2.516   4.098 -0.6622 -0.3694 -0.6603
 7944SOL     OW31541   3.883   0.124   0.889 -0.1560  0.0312 -0.1361
 7944SOL    HW231542   3.827   0.156   0.960  0.6800  1.4815 -0.0800
 7944SOL    HW331543   3.921   0.043   0.923  1.6714  1.6119  1.8848
 7944SOL    MW431544   3.881   0.118   0.903  0.1954  0.4311  0.1379
 7945SOL     OW31545   6.414   6.012   0.138 -0.7557 -0.7038 -0.4565
 7945SOL    HW231546   6.490   6.008   0.195 -0.1809  1.3279 -0.9864
 7945SOL    HW331547   6.391   5.921   0.121  3.2817 -1.5071 -2.5760
 7945SOL    MW431548   6.421   6.000   0.144 -0.1472 -0.5417 -0.8060
 7946SOL     OW31549   6.058   4.726   2.838 -0.7803 -0.3389 -0.2092
 7946SOL    HW231550   6.031   4.694   2.752 -0.2870  1.2780 -1.0257
 7946SOL    HW331551   6.028   4.817   2.840  2.1269  0.7175 -0.0833
 7946SOL    MW431552   6.050   4.734   2.827 -0.3317  0.0138 -0.3003
 7947SOL     OW31553   6.239   1.874   4.261 -0.5954 -0.3518  0.3716
 7947SOL    HW231554   6.321   1.836   4.294 -1.2262 -0.9502  1.2753
 7947SOL    HW331555   6.196   1.910   4.339 -1.3794 -0.3838 -0.0412
 7947SOL    MW431556   6.244   1.874   4.276 -0.7821 -0.4350  0.4364
 7948SOL     OW31557   4.261   1.563   2.912 -0.1610  0.0138 -0.0714
 7948SOL    HW231558   4.328   1.505   2.877 -0.3867 -1.3388  1.6121
 7948SOL    HW331559   4.184   1.549   2.857  0.2931  0.0152 -0.7166
 7948SOL    MW431560   4.260   1.554   2.900 -0.1309 -0.1645  0.0656
 7949SOL     OW31561   2.492   3.902   0.666 -0.3173 -0.2503 -0.1563
 7949SOL    HW231562   2.548   3.825   0.678  0.8843  0.5118 -0.7569
 7949SOL    HW331563   2.550   3.969   0.631 -1.2177  1.1499  0.9595
 7949SOL    MW431564   2.507   3.900   0.663 -0.2776  0.0350 -0.0883
 7950SOL     OW31565   5.477   1.127   4.118 -0.5324 -0.0382  0.2195
 7950SOL    HW231566   5.441   1.195   4.061  0.5399  2.4122  2.2256
 7950SOL    HW331567   5.566   1.113   4.085 -0.3231  0.5054  0.5282
 7950SOL    MW431568   5.484   1.134   4.106 -0.3633  0.3568  0.5249
 7951SOL     OW31569   4.822   4.256   0.421 -0.0549  0.0434  0.3229
 7951SOL    HW231570   4.773   4.237   0.501  0.2602 -0.1153  0.4793
 7951SOL    HW331571   4.759   4.238   0.351  0.0850 -1.1848  0.4778
 7951SOL    MW431572   4.807   4.251   0.422  0.0051 -0.1396  0.3640
 7952SOL     OW31573   1.357   4.900   4.934  0.2603 -0.2636 -0.5966
 7952SOL    HW231574   1.348   4.994   4.919 -1.1954 -0.2116  0.3145
 7952SOL    HW331575   1.289   4.861   4.879  0.3234 -0.7142 -0.3554
 7952SOL    MW431576   1.347   4.908   4.925  0.0765 -0.3162 -0.4446
 7953SOL     OW31577   5.744   3.491   0.912 -0.2683 -0.5086 -0.1259
 7953SOL    HW231578   5.680   3.420   0.914 -0.2976 -0.4865 -0.2890
 7953SOL    HW331579   5.823   3.454   0.952  0.0066 -0.9107 -1.0168
 7953SOL    MW431580   5.746   3.477   0.918 -0.2359 -0.5587 -0.2649
 7954SOL     OW31581   2.642   5.284   1.849 -0.0890  0.0103 -0.0926
 7954SOL    HW231582   2.560   5.235   1.858  0.8199 -1.4098  0.7108
 7954SOL    HW331583   2.646   5.339   1.928 -0.0680 -0.2365  0.0798
 7954SOL    MW431584   2.631   5.285   1.861  0.0337 -0.2096  0.0361
 7955SOL     OW31585   3.477   3.194   0.687 -0.5178  0.6452  0.2788
 7955SOL    HW231586   3.520   3.131   0.630 -1.0544  1.5992 -1.2511
 7955SOL    HW331587   3.388   3.200   0.653 -0.8934  1.1239  1.3238
 7955SOL    MW431588   3.471   3.187   0.675 -0.6382  0.8342  0.2148
 7956SOL     OW31589   5.312   6.081   1.828 -1.1386 -0.2466 -0.2825
 7956SOL    HW231590   5.387   6.088   1.769 -0.8605 -0.7197  0.0132
 7956SOL    HW331591   5.336   6.132   1.905 -0.2054 -2.0936  0.7364
 7956SOL    MW431592   5.325   6.088   1.830 -0.9788 -0.5527 -0.1091
 7957SOL     OW31593   6.015   3.150   2.953 -0.2011  0.1629 -0.2013
 7957SOL    HW231594   5.957   3.149   3.029 -3.3827 -1.5216 -2.3760
 7957SOL    HW331595   6.017   3.059   2.924  3.0960  0.3017 -0.6952
 7957SOL    MW431596   6.007   3.138   2.959 -0.1859 -0.0410 -0.5534
 7958SOL     OW31597   0.956   2.404   6.214  0.0463  0.2565 -0.5328
 7958SOL    HW231598   0.984   2.320   6.179  3.1160 -0.7824  3.6003
 7958SOL    HW331599   1.035   2.458   6.215 -0.2800  0.8569  2.5249
 7958SOL    MW431600   0.970   2.400   6.210  0.4083  0.1986  0.4160
 7959SOL     OW31601   5.577   1.759   2.215 -0.4280 -0.5743  0.1572
 7959SOL    HW231602   5.574   1.663   2.223  2.9399 -0.7088  1.5503
 7959SOL    HW331603   5.532   1.790   2.294  1.2755 -1.1555  1.4210
 7959SOL    MW431604   5.570   1.750   2.227  0.2411 -0.6687  0.5078
 7960SOL     OW31605   6.376   3.040   3.158  0.1505 -0.5818  0.2611
 7960SOL    HW231606   6.471   3.033   3.150  0.2521 -0.1153  0.9077
 7960SOL    HW331607   6.358   3.134   3.149 -0.3396 -0.7546 -0.6642
 7960SOL    MW431608   6.386   3.052   3.156  0.0993 -0.5430  0.2243
 7961SOL     OW31609   4.798   4.866   1.942 -0.0054 -0.2830  0.1808
 7961SOL    HW231610   4.711   4.839   1.971  0.0735 -0.4419  0.2729
 7961SOL    HW331611   4.785   4.951   1.900 -0.0545  0.1442  1.0417
 7961SOL    MW431612   4.785   4.873   1.940 -0.0015 -0.2476  0.3065
 7962SOL     OW31613   5.167   6.321   0.873 -0.1361  0.0624  0.1378
 7962SOL    HW231614   5.261   6.341   0.879 -0.1380  0.0344  0.2680
 7962SOL    HW331615   5.143   6.295   0.962  0.2887 -2.4244 -0.4133
 7962SOL    MW431616   5.176   6.320   0.885 -0.0803 -0.2694  0.0823
 7963SOL     OW31617   5.284   3.244   3.968  0.2371 -0.1702  0.3939
 7963SOL    HW231618   5.193   3.246   3.939  0.1307  0.9258  0.7620
 7963SOL    HW331619   5.279   3.227   4.062  0.5314 -2.4057  0.0741
 7963SOL    MW431620   5.271   3.242   3.977  0.2619 -0.3205  0.4003
 7964SOL     OW31621   3.991   1.115   1.608  0.6442  0.0396 -0.1833
 7964SOL    HW231622   3.932   1.040   1.620 -0.5464  0.9060 -0.5128
 7964SOL    HW331623   4.055   1.105   1.678  0.2957 -1.0906  0.0052
 7964SOL    MW431624   3.992   1.104   1.619  0.4411  0.0048 -0.2019
 7965SOL     OW31625   5.917   2.480   5.229  0.3056  0.0002  0.2746
 7965SOL    HW231626   5.825   2.469   5.252  0.4216  0.7760  1.1871
 7965SOL    HW331627   5.957   2.514   5.309  1.7884 -2.1961  0.5650
 7965SOL    MW431628   5.910   2.483   5.243  0.5166 -0.1872  0.4333
 7966SOL     OW31629   1.633   4.958   5.334 -0.0280 -0.8726 -0.0634
 7966SOL    HW231630   1.595   5.009   5.263  0.0876 -0.9704 -0.1959
 7966SOL    HW331631   1.614   5.009   5.413 -0.1208 -0.7443 -0.1681
 7966SOL    MW431632   1.625   4.971   5.335 -0.0250 -0.8686 -0.0947
 7967SOL     OW31633   5.085   5.931   2.645  0.7023  0.7432 -0.4835
 7967SOL    HW231634   5.071   5.875   2.568  2.7740  0.3982 -0.6535
 7967SOL    HW331635   5.016   5.905   2.706  0.1931 -0.3321 -1.4793
 7967SOL    MW431636   5.074   5.920   2.643  0.9084  0.5558 -0.6373
 7968SOL     OW31637   1.257   0.861   2.787  0.1892 -0.1881 -0.0192
 7968SOL    HW231638   1.177   0.857   2.841  0.8723  2.4041  1.3458
 7968SOL    HW331639   1.329   0.857   2.850  1.0883 -0.2526 -1.0214
 7968SOL    MW431640   1.256   0.860   2.802  0.3980  0.1454  0.0287
 7969SOL     OW31641   5.204   1.790   0.739 -0.3498 -0.0253  0.1565
 7969SOL    HW231642   5.222   1.873   0.694 -2.0264 -0.8889 -2.3070
 7969SOL    HW331643   5.136   1.748   0.686 -0.2342 -2.5733  1.8514
 7969SOL    MW431644   5.198   1.796   0.726 -0.5558 -0.4754  0.0551
 7970SOL     OW31645   4.403   1.443   0.277  0.4317  0.6104  0.0839
 7970SOL    HW231646   4.430   1.434   0.368  1.5325 -0.0772 -0.3013
 7970SOL    HW331647   4.343   1.518   0.278 -0.1832  0.1399  1.4895
 7970SOL    MW431648   4.398   1.452   0.289  0.4958  0.4576  0.2185
 7971SOL     OW31649   6.265   6.334   3.545 -0.2962  0.3699  0.4199
 7971SOL    HW231650   6.179   6.377   3.545 -0.3528  0.2866 -0.6173
 7971SOL    HW331651   6.260   6.270   3.474  0.5319  0.1695  0.5322
 7971SOL    MW431652   6.253   6.332   3.535 -0.1944  0.3325  0.2979
 7972SOL     OW31653   3.132   3.931   6.127 -0.0442 -1.0689  0.0825
 7972SOL    HW231654   3.146   3.906   6.035 -0.6545 -2.4936  0.3605
 7972SOL    HW331655   3.220   3.929   6.166  0.3480  0.3738 -0.6326
 7972SOL    MW431656   3.146   3.928   6.120 -0.0730 -1.0666  0.0248
 7973SOL     OW31657   1.326   0.252   0.551 -0.4055  0.2648  0.0496
 7973SOL    HW231658   1.258   0.280   0.613 -2.5507 -3.0861 -0.5346
 7973SOL    HW331659   1.378   0.188   0.600 -1.7206 -1.9359 -1.2610
 7973SOL    MW431660   1.324   0.247   0.566 -0.8620 -0.4677 -0.2004
 7974SOL     OW31661   4.263   5.570   1.153 -0.0550 -0.3142  0.4496
 7974SOL    HW231662   4.344   5.615   1.178 -0.3002  0.7344 -0.5374
 7974SOL    HW331663   4.292   5.485   1.119  0.6016 -0.0708  0.3898
 7974SOL    MW431664   4.278   5.565   1.152 -0.0007 -0.1437  0.3115
 7975SOL     OW31665   5.439   1.618   0.415  0.2512 -0.2532 -0.2519
 7975SOL    HW231666   5.507   1.635   0.480  0.7662  1.9036 -1.2542
 7975SOL    HW331667   5.485   1.616   0.332 -0.9152  2.4731 -1.0984
 7975SOL    MW431668   5.454   1.620   0.413  0.1652  0.3910 -0.4958
 7976SOL     OW31669   2.142   4.382   2.607 -0.1724  0.0253 -0.4343
 7976SOL    HW231670   2.205   4.448   2.636  0.9659  0.6515 -3.8776
 7976SOL    HW331671   2.094   4.358   2.686  3.1303  0.8593  2.0548
 7976SOL    MW431672   2.144   4.387   2.621  0.4136  0.2180 -0.5602
 7977SOL     OW31673   3.675   1.655   4.400  0.5564 -0.0918  0.8503
 7977SOL    HW231674   3.598   1.609   4.432 -0.5746  0.5172 -0.8442
 7977SOL    HW331675   3.696   1.613   4.317 -1.0444  2.7574 -1.2144
 7977SOL    MW431676   3.668   1.644   4.393  0.1960  0.3645  0.3543
 7978SOL     OW31677   0.098   0.488   4.591  0.8636 -0.7217  0.0040
 7978SOL    HW231678   0.164   0.429   4.627  1.8381 -0.1311 -0.7410
 7978SOL    HW331679   0.125   0.501   4.500 -0.5074 -0.7558 -0.4378
 7978SOL    MW431680   0.110   0.482   4.584  0.8113 -0.6483 -0.1526
 7979SOL     OW31681   2.822   4.109   3.658 -0.3768 -0.3442 -0.1584
 7979SOL    HW231682   2.844   4.020   3.686  2.8445  0.1517 -0.6971
 7979SOL    HW331683   2.853   4.114   3.568 -1.2012  1.1361 -0.3930
 7979SOL    MW431684   2.829   4.098   3.650 -0.0606 -0.0834 -0.2605
 7980SOL     OW31685  -0.007   1.847   3.415 -0.1859 -0.0662 -0.0748
 7980SOL    HW231686  -0.044   1.811   3.496 -0.1104  1.2092  0.5395
 7980SOL    HW331687   0.040   1.926   3.442  2.2818 -1.1078 -0.9423
 7980SOL    MW431688  -0.005   1.852   3.429  0.1497 -0.0354 -0.1082
 7981SOL     OW31689   4.077   5.818   5.864 -0.4363 -0.4966 -0.2503
 7981SOL    HW231690   4.133   5.842   5.790 -0.7175  1.5728  0.1491
 7981SOL    HW331691   4.137   5.777   5.926 -0.1196 -1.8888 -1.4054
 7981SOL    MW431692   4.093   5.816   5.862 -0.4317 -0.4073 -0.3500
 7982SOL     OW31693   3.382   4.899   6.422 -0.0932 -0.7604 -0.1605
 7982SOL    HW231694   3.469   4.870   6.395  1.5227  2.0776  1.5810
 7982SOL    HW331695   3.374   4.872   6.513 -0.9985 -0.8362 -0.2457
 7982SOL    MW431696   3.392   4.891   6.431  0.0006 -0.3960  0.0580
 7983SOL     OW31697   2.656   3.083   5.255  0.1397 -0.0219 -0.0525
 7983SOL    HW231698   2.611   3.082   5.170  1.8707 -0.0899 -1.0029
 7983SOL    HW331699   2.719   3.012   5.250  1.0204  0.6584  0.8681
 7983SOL    MW431700   2.658   3.074   5.243  0.4843  0.0589 -0.0564
 7984SOL     OW31701   1.224   1.978   5.323 -0.0065 -0.0988 -0.4247
 7984SOL    HW231702   1.317   1.995   5.304 -0.1279  0.3545 -0.6184
 7984SOL    HW331703   1.226   1.901   5.380  0.5755  0.7637  0.7694
 7984SOL    MW431704   1.237   1.970   5.328  0.0542  0.0748 -0.2927
 7985SOL     OW31705   4.873   5.566   5.340  0.0252  0.4563  0.0096
 7985SOL    HW231706   4.804   5.541   5.401 -2.3412  1.6615 -1.9710
 7985SOL    HW331707   4.916   5.484   5.316  1.1396 -0.0370  3.2684
 7985SOL    MW431708   4.870   5.552   5.345 -0.1400  0.5503  0.1782
 7986SOL     OW31709   0.245   3.591   0.803  0.1700  0.1688 -0.3171
 7986SOL    HW231710   0.327   3.577   0.756  0.6226 -0.6962  0.6970
 7986SOL    HW331711   0.256   3.676   0.846  0.0569  0.6023 -1.1331
 7986SOL    MW431712   0.258   3.601   0.803  0.2148  0.1119 -0.2909
 7987SOL     OW31713   2.359   0.966   5.490  0.3770  0.6789  0.0569
 7987SOL    HW231714   2.360   1.055   5.456 -0.4569 -0.3953 -3.1067
 7987SOL    HW331715   2.267   0.945   5.503  0.5563  0.2081  0.6534
 7987SOL    MW431716   2.347   0.975   5.487  0.2907  0.4751 -0.2818
 7988SOL     OW31717   5.105   1.509   2.133  0.3026 -0.2808  0.0408
 7988SOL    HW231718   5.075   1.513   2.224  0.1105 -1.2589  0.0287
 7988SOL    HW331719   5.156   1.589   2.122 -1.6302  1.0780  0.2883
 7988SOL    MW431720   5.108   1.520   2.144  0.0222 -0.2306  0.0718
 7989SOL     OW31721   4.379   5.007   3.573  0.1419 -0.1489 -0.2816
 7989SOL    HW231722   4.428   4.931   3.540  0.0999 -0.6185  0.6877
 7989SOL    HW331723   4.304   4.969   3.619  1.1976  0.3294  2.0102
 7989SOL    MW431724   4.375   4.992   3.575  0.2757 -0.1478  0.1487
 7990SOL     OW31725   0.654   6.184   2.066 -0.7965 -0.0897  0.0133
 7990SOL    HW231726   0.577   6.231   2.100 -0.7615 -1.2352  1.7836
 7990SOL    HW331727   0.664   6.109   2.125  1.9586  0.2681  0.1106
 7990SOL    MW431728   0.645   6.180   2.078 -0.4284 -0.1936  0.2597
 7991SOL     OW31729   3.564   0.269   4.817  0.1111  0.8223 -0.2026
 7991SOL    HW231730   3.554   0.189   4.766  0.5002 -0.4866  1.6611
 7991SOL    HW331731   3.522   0.249   4.901  0.6349  2.4116  0.4766
 7991SOL    MW431732   3.557   0.256   4.822  0.2315  0.8593  0.1329
 7992SOL     OW31733   2.335   4.656   3.261 -0.5546  0.6576 -0.1778
 7992SOL    HW231734   2.257   4.670   3.315  0.0965 -0.2924  1.0797
 7992SOL    HW331735   2.304   4.662   3.171 -2.5850 -2.0709  0.2397
 7992SOL    MW431736   2.321   4.659   3.256 -0.7366  0.1723  0.0432
 7993SOL     OW31737   0.676   6.337   2.365  0.3309 -0.0992 -0.0706
 7993SOL    HW231738   0.761   6.295   2.376 -0.1117 -1.0653 -0.2576
 7993SOL    HW331739   0.696   6.430   2.350  1.2651  0.0250  1.7042
 7993SOL    MW431740   0.690   6.344   2.364  0.3957 -0.2103  0.1389
 7994SOL     OW31741   0.511   4.691   2.207  0.5726 -0.0882 -0.1723
 7994SOL    HW231742   0.477   4.688   2.118 -0.6518  0.9171  0.2373
 7994SOL    HW331743   0.583   4.628   2.207 -0.1157 -0.9360 -1.5735
 7994SOL    MW431744   0.516   4.682   2.196  0.3202 -0.0674 -0.3032
 7995SOL     OW31745   6.374   6.401   2.792  0.2090  0.1124 -0.1023
 7995SOL    HW231746   6.303   6.442   2.842  0.4635 -0.6895  0.9337
 7995SOL    HW331747   6.454   6.432   2.834  0.5295  1.3381 -1.5201
 7995SOL    MW431748   6.375   6.411   2.804  0.2849  0.1683 -0.1527
 7996SOL     OW31749   5.460   3.954   1.565 -0.2764 -1.2530 -0.2171
 7996SOL    HW231750   5.467   3.919   1.476 -0.2753 -2.2426  0.1579
 7996SOL    HW331751   5.421   4.040   1.554 -0.6859 -1.5425 -1.1448
 7996SOL    MW431752   5.456   3.960   1.552 -0.3303 -1.4217 -0.2900
 7997SOL     OW31753   5.522   6.135   0.458  0.1331  0.3503  0.2745
 7997SOL    HW231754   5.460   6.127   0.530 -0.2345 -0.7119 -0.1378
 7997SOL    HW331755   5.564   6.049   0.453  0.2247  0.4415 -0.7101
 7997SOL    MW431756   5.519   6.122   0.467  0.0967  0.2222  0.0902
 7998SOL     OW31757   0.821   3.250   1.412  0.8989 -0.0644  0.6082
 7998SOL    HW231758   0.793   3.252   1.321 -0.4851 -0.7912  0.9854
 7998SOL    HW331759   0.881   3.324   1.421  1.1225 -0.0407 -0.9013
 7998SOL    MW431760   0.825   3.260   1.402  0.7458 -0.1572  0.4588
 7999SOL     OW31761   4.313   2.651   5.492  0.4818  0.0040  0.3115
 7999SOL    HW231762   4.321   2.736   5.535 -0.3194  0.9467 -1.3059
 7999SOL    HW331763   4.272   2.670   5.408 -2.5746 -2.3156  1.0743
 7999SOL    MW431764   4.309   2.665   5.486 -0.0272 -0.1777  0.1988
 8000SOL     OW31765   0.706   3.193   3.023  0.0805  0.0674 -0.1190
 8000SOL    HW231766   0.742   3.219   3.108  0.5116  0.1428 -0.3211
 8000SOL    HW331767   0.653   3.268   2.996  0.2990  0.2203 -0.1204
 8000SOL    MW431768   0.704   3.206   3.031  0.1662  0.0975 -0.1458
 8001SOL     OW31769   0.815   3.137   6.087 -0.0713  0.3305 -0.3028
 8001SOL    HW231770   0.785   3.162   6.175 -3.3005  1.6279 -1.6091
 8001SOL    HW331771   0.819   3.220   6.039  0.8342 -0.4444 -1.6349
 8001SOL    MW431772   0.811   3.152   6.093 -0.3778  0.3994 -0.6509
 8002SOL     OW31773   4.413   4.455   4.475  0.5927  0.4985 -0.1984
 8002SOL    HW231774   4.490   4.495   4.516  0.2412  0.6505  0.3170
 8002SOL    HW331775   4.394   4.511   4.400 -0.5633  1.9701  1.1419
 8002SOL    MW431776   4.421   4.468   4.470  0.3938  0.7128  0.0465
 8003SOL     OW31777   3.642   3.549   5.610 -0.5882  0.1515  0.1307
 8003SOL    HW231778   3.734   3.577   5.613  0.0130 -1.0203 -3.1461
 8003SOL    HW331779   3.644   3.456   5.634 -0.9690  0.1799  0.2860
 8003SOL    MW431780   3.654   3.541   5.614 -0.5591  0.0007 -0.2811
 8004SOL     OW31781   3.873   2.720   2.581  0.3403  0.2278 -0.3820
 8004SOL    HW231782   3.881   2.811   2.607  1.2976 -0.2538  1.2056
 8004SOL    HW331783   3.808   2.719   2.511 -1.4152  1.8427  1.1235
 8004SOL    MW431784   3.866   2.732   2.575  0.2350  0.3773  0.0261
 8005SOL     OW31785   4.820   6.380   5.179  0.2725 -0.1597 -0.5549
 8005SOL    HW231786   4.754   6.315   5.205  0.0819 -0.1388 -0.9836
 8005SOL    HW331787   4.903   6.343   5.210  0.0466 -0.1171  0.1182
 8005SOL    MW431788   4.822   6.367   5.187  0.2175 -0.1513 -0.5227
 8006SOL     OW31789   4.237   2.779   5.267 -0.2858 -0.2835  0.4639
 8006SOL    HW231790   4.276   2.866   5.263  0.9327 -0.6674  2.4420
 8006SOL    HW331791   4.294   2.725   5.213 -1.7494  0.2972 -1.8113
 8006SOL    MW431792   4.249   2.784   5.260 -0.3182 -0.2575  0.4247
 8007SOL     OW31793   5.575   1.599   5.698  0.2683 -0.6920  0.5126
 8007SOL    HW231794   5.662   1.597   5.657 -0.4535  3.0731 -1.7039
 8007SOL    HW331795   5.591   1.625   5.788  1.5014 -1.3315  0.4931
 8007SOL    MW431796   5.588   1.603   5.704  0.3358 -0.2796  0.2176
 8008SOL     OW31797   5.683   4.235   1.133  0.1401 -0.2242  0.4107
 8008SOL    HW231798   5.770   4.272   1.146  0.2560 -0.6644  0.9221
 8008SOL    HW331799   5.694   4.141   1.150  0.0900 -0.7073 -1.8737
 8008SOL    MW431800   5.696   4.227   1.137  0.1488 -0.3460  0.1768
 8009SOL     OW31801   1.472   5.093   5.144 -0.4218 -0.4611 -0.4438
 8009SOL    HW231802   1.392   5.043   5.157 -0.4620 -0.2667  0.0645
 8009SOL    HW331803   1.457   5.142   5.062 -1.1417  0.1811  0.0564
 8009SOL    MW431804   1.459   5.093   5.135 -0.5221 -0.3507 -0.3107
 8010SOL     OW31805   2.816   4.170   0.337  0.3967  0.5072  0.3140
 8010SOL    HW231806   2.750   4.181   0.405 -0.1597 -1.2386  0.0886
 8010SOL    HW331807   2.779   4.214   0.260 -0.5862 -0.5716  0.1532
 8010SOL    MW431808   2.803   4.178   0.336  0.1936  0.1345  0.2631
 8011SOL     OW31809   4.256   2.243   5.833  0.5445 -0.0506 -0.2951
 8011SOL    HW231810   4.209   2.241   5.750  0.0462  0.9521 -0.0543
 8011SOL    HW331811   4.231   2.327   5.873  1.7200  0.0312  0.3139
 8011SOL    MW431812   4.247   2.254   5.828  0.6339  0.0925 -0.1830
 8012SOL     OW31813   4.899   6.295   0.808 -0.3031 -0.3091 -0.4091
 8012SOL    HW231814   4.880   6.213   0.762 -0.3250  0.3227 -1.5503
 8012SOL    HW331815   4.994   6.304   0.804 -0.3101 -0.2188 -0.3782
 8012SOL    MW431816   4.909   6.285   0.801 -0.3069 -0.2138 -0.5556
 8013SOL     OW31817   5.695   5.252   5.007  0.2739  0.2770 -0.3814
 8013SOL    HW231818   5.782   5.292   4.999  0.7731 -0.7203 -0.0894
 8013SOL    HW331819   5.647   5.283   4.930  1.0560  0.4191 -0.8231
 8013SOL    MW431820   5.700   5.261   4.996  0.4430  0.1642 -0.4011
 8014SOL     OW31821   2.525   3.642   2.941  0.3560 -0.1111 -0.4481
 8014SOL    HW231822   2.510   3.585   2.866 -1.6891 -0.3643  0.0928
 8014SOL    HW331823   2.587   3.708   2.910  0.4241 -0.8721 -1.9892
 8014SOL    MW431824   2.532   3.643   2.927  0.0952 -0.2449 -0.5801
 8015SOL     OW31825   3.016   5.938   5.106 -0.4525  0.5772  0.5909
 8015SOL    HW231826   3.009   6.016   5.052 -1.1859  0.4748  0.5323
 8015SOL    HW331827   3.013   5.971   5.196  2.6134  0.9346  0.6535
 8015SOL    MW431828   3.015   5.953   5.111 -0.1447  0.6108  0.5914
 8016SOL     OW31829   0.480   3.512   3.657  0.0204 -0.3345  0.3161
 8016SOL    HW231830   0.410   3.475   3.711 -1.1455 -0.8690 -1.4785
 8016SOL    HW331831   0.450   3.599   3.634 -0.3559 -0.7672 -0.9153
 8016SOL    MW431832   0.467   3.518   3.661 -0.1831 -0.4621 -0.0831
 8017SOL     OW31833   1.421   0.128   5.324  0.1114  0.2977 -0.1921
 8017SOL    HW231834   1.438   0.075   5.401 -0.5316  0.3349 -0.0225
 8017SOL    HW331835   1.335   0.168   5.339 -0.6800 -0.8028 -1.5310
 8017SOL    MW431836   1.412   0.127   5.336 -0.0778  0.1574 -0.3464
 8018SOL     OW31837   5.440   5.079   3.852 -0.1537  0.0450  0.3946
 8018SOL    HW231838   5.356   5.124   3.849 -1.3547 -2.1097 -1.9747
 8018SOL    HW331839   5.486   5.109   3.774  0.8640  0.3912  1.1026
 8018SOL    MW431840   5.435   5.089   3.841 -0.1779 -0.1936  0.1754
 8019SOL     OW31841   4.014   5.765   1.874 -0.5879  0.2881 -0.0828
 8019SOL    HW231842   3.977   5.750   1.961  3.5338 -0.1557  1.8349
 8019SOL    HW331843   4.049   5.854   1.878 -0.3781  0.2787 -1.3310
 8019SOL    MW431844   4.013   5.775   1.886 -0.0164  0.2283  0.0055
 8020SOL     OW31845   0.933   4.532   5.770  0.3327 -0.8408  0.1011
 8020SOL    HW231846   0.837   4.532   5.770  0.3106  0.3244 -0.3878
 8020SOL    HW331847   0.957   4.479   5.693  0.1083 -1.7894  0.6716
 8020SOL    MW431848   0.924   4.525   5.760  0.3002 -0.8122  0.1119
 8021SOL     OW31849   0.893   0.486   1.032 -0.3654  0.6126 -0.5486
 8021SOL    HW231850   0.939   0.402   1.026 -0.3631  0.6687 -1.3941
 8021SOL    HW331851   0.963   0.551   1.025 -0.4973  0.6927 -1.1278
 8021SOL    MW431852   0.909   0.484   1.030 -0.3825  0.6306 -0.7366
 8022SOL     OW31853   2.136   6.240   0.298 -0.4385  0.6531  0.2557
 8022SOL    HW231854   2.226   6.271   0.287  0.0551 -0.8146  0.0463
 8022SOL    HW331855   2.084   6.300   0.245  0.5127  1.0058 -0.3048
 8022SOL    MW431856   2.141   6.252   0.290 -0.2479  0.5060  0.1541
 8023SOL     OW31857   5.011   3.279   3.885  0.2699 -0.4338  0.1667
 8023SOL    HW231858   4.938   3.285   3.947 -0.8225 -2.2842 -0.8395
 8023SOL    HW331859   5.021   3.368   3.852 -2.1158 -0.2449 -0.2571
 8023SOL    MW431860   5.003   3.292   3.889 -0.1890 -0.6530 -0.0220
 8024SOL     OW31861   3.908   1.674   1.840 -0.0281 -0.3045 -0.3346
 8024SOL    HW231862   3.967   1.743   1.812  1.3736 -1.3386 -0.0400
 8024SOL    HW331863   3.961   1.594   1.838 -1.7460 -1.4892 -1.2486
 8024SOL    MW431864   3.923   1.672   1.836 -0.0698 -0.5972 -0.4163
 8025SOL     OW31865   4.764   1.046   4.362  0.5308 -0.2933 -0.7355
 8025SOL    HW231866   4.760   1.014   4.272 -3.3467 -0.9276 -0.5341
 8025SOL    HW331867   4.837   0.999   4.402  1.5296 -0.9609 -3.1861
 8025SOL    MW431868   4.773   1.036   4.356  0.1510 -0.4651 -1.0322
 8026SOL     OW31869   2.521   2.084   5.502  0.1860 -0.2757  0.1489
 8026SOL    HW231870   2.454   2.038   5.450 -1.4487 -0.4600  2.2535
 8026SOL    HW331871   2.517   2.175   5.472 -0.0184 -0.5591 -0.7074
 8026SOL    MW431872   2.511   2.090   5.491 -0.0566 -0.3374  0.3136
 8027SOL     OW31873   5.241   0.907   4.530 -0.0110 -0.0025 -0.1340
 8027SOL    HW231874   5.239   0.812   4.516 -3.7867 -0.2850  1.1542
 8027SOL    HW331875   5.211   0.919   4.620 -1.0693  2.4205 -0.7124
 8027SOL    MW431876   5.237   0.896   4.540 -0.6488  0.2799 -0.0404
 8028SOL     OW31877   1.388   5.646   4.347  0.4961  0.2978  0.3281
 8028SOL    HW231878   1.394   5.551   4.361  0.5821  0.3481  0.6456
 8028SOL    HW331879   1.368   5.655   4.254  0.4626 -0.0334  0.3007
 8028SOL    MW431880   1.386   5.634   4.337  0.5031  0.2608  0.3664
 8029SOL     OW31881   0.242   0.352   0.715 -0.5555 -0.2428  0.1635
 8029SOL    HW231882   0.225   0.329   0.624  0.5073  0.0919 -0.1387
 8029SOL    HW331883   0.182   0.424   0.734 -1.3523 -0.8521 -0.0057
 8029SOL    MW431884   0.232   0.358   0.706 -0.5204 -0.2790  0.1013
 8030SOL     OW31885   5.032   5.385   3.850 -0.0914 -0.6110  0.7510
 8030SOL    HW231886   5.065   5.468   3.884 -1.8879  1.3147 -1.8048
 8030SOL    HW331887   4.961   5.361   3.909  1.6504 -1.4806  2.6321
 8030SOL    MW431888   5.027   5.393   3.862 -0.0986 -0.4716  0.6620
 8031SOL     OW31889   2.370   0.175   4.455  0.0664  0.5460  0.0784
 8031SOL    HW231890   2.369   0.270   4.469  1.0221  0.4391  1.0283
 8031SOL    HW331891   2.426   0.142   4.525 -0.4272 -0.7450 -0.1177
 8031SOL    MW431892   2.377   0.183   4.466  0.1274  0.3616  0.1778
 8032SOL     OW31893   0.046   1.550   1.348 -0.1602  0.2061  0.0086
 8032SOL    HW231894   0.065   1.474   1.294  0.1056 -0.0072  0.3974
 8032SOL    HW331895  -0.027   1.593   1.304  0.7807  0.6739 -1.1456
 8032SOL    MW431896   0.039   1.546   1.335 -0.0010  0.2397 -0.0924
 8033SOL     OW31897   2.498   3.348   1.670 -0.1084 -0.9162  0.1119
 8033SOL    HW231898   2.470   3.270   1.623  3.4981 -3.3345  1.5950
 8033SOL    HW331899   2.469   3.334   1.760 -0.5314  0.1204  0.1568
 8033SOL    MW431900   2.490   3.336   1.675  0.3116 -1.0985  0.3135
 8034SOL     OW31901   1.487   6.395   6.379 -0.3564  0.4052 -0.2610
 8034SOL    HW231902   1.512   6.340   6.305 -0.8210  0.3311 -0.3710
 8034SOL    HW331903   1.554   6.464   6.383  0.4661 -0.4001  0.1405
 8034SOL    MW431904   1.499   6.397   6.370 -0.3092  0.2892 -0.2226
 8035SOL     OW31905   5.709   6.213   0.265  0.3117 -0.1248 -0.4690
 8035SOL    HW231906   5.639   6.181   0.322  1.1740  0.3226  0.8860
 8035SOL    HW331907   5.663   6.259   0.195 -0.8038 -1.2055 -0.4980
 8035SOL    MW431908   5.694   6.215   0.263  0.2783 -0.2083 -0.2941
 8036SOL     OW31909   4.381   1.405   4.917  0.3424  0.2287  0.3388
 8036SOL    HW231910   4.291   1.405   4.886  0.3017  0.1055  0.4503
 8036SOL    HW331911   4.424   1.335   4.867  0.7442  1.2079 -0.7255
 8036SOL    MW431912   4.375   1.396   4.907  0.3900  0.3417  0.2131
 8037SOL     OW31913   2.826   2.878   5.261 -0.0370  0.2770  0.0577
 8037SOL    HW231914   2.915   2.888   5.293  0.6446 -1.2754 -1.1797
 8037SOL    HW331915   2.809   2.784   5.266 -1.5284  0.5207  0.0754
 8037SOL    MW431916   2.835   2.867   5.266 -0.1439  0.1043 -0.1033
 8038SOL     OW31917   1.185   2.965   5.898 -0.9612  0.3168  0.2150
 8038SOL    HW231918   1.115   2.956   5.963 -0.1614  0.1427  1.0697
 8038SOL    HW331919   1.166   2.896   5.833 -0.9952 -0.4188  0.9947
 8038SOL    MW431920   1.173   2.954   5.898 -0.8602  0.1968  0.4306
 8039SOL     OW31921   3.921   5.779   1.450  0.2638 -0.2019 -0.2325
 8039SOL    HW231922   3.969   5.707   1.409  0.8847  0.0396  0.0482
 8039SOL    HW331923   3.885   5.829   1.377  0.9789 -0.0334 -0.4820
 8039SOL    MW431924   3.923   5.776   1.435  0.4401 -0.1478 -0.2284
 8040SOL     OW31925   2.662   4.078   0.934 -0.8351  0.0634  1.0127
 8040SOL    HW231926   2.589   4.020   0.912  1.6393 -2.8682 -0.2763
 8040SOL    HW331927   2.688   4.050   1.022  0.8765 -1.5561  0.0749
 8040SOL    MW431928   2.656   4.067   0.943 -0.2828 -0.5371  0.7189
 8041SOL     OW31929   0.967   2.975   5.504 -0.1979 -0.0045 -0.2443
 8041SOL    HW231930   0.948   3.048   5.563 -2.2346 -1.2559  0.7917
 8041SOL    HW331931   1.036   3.008   5.446  0.9278  1.7707  1.9241
 8041SOL    MW431932   0.973   2.989   5.504 -0.3181  0.0646  0.1785
 8042SOL     OW31933   5.742   4.627   5.880  0.3481  0.2721  0.2092
 8042SOL    HW231934   5.708   4.614   5.969  1.9379  0.4643  0.8818
 8042SOL    HW331935   5.710   4.713   5.854  1.1540  0.8931  1.2301
 8042SOL    MW431936   5.733   4.636   5.888  0.6642  0.3794  0.4326
 8043SOL     OW31937   4.816   5.192   0.918 -0.4063  0.0424  0.1262
 8043SOL    HW231938   4.767   5.114   0.945 -0.6161  0.5783  1.3306
 8043SOL    HW331939   4.808   5.193   0.822 -0.0676 -1.6298  0.0312
 8043SOL    MW431940   4.809   5.182   0.909 -0.3893 -0.1075  0.2726
 8044SOL     OW31941   5.932   6.121   3.187 -0.3316 -0.5690  0.0062
 8044SOL    HW231942   5.869   6.067   3.235 -0.6306 -0.6211 -0.4372
 8044SOL    HW331943   5.889   6.139   3.103 -0.4952  0.8794  0.3795
 8044SOL    MW431944   5.918   6.116   3.182 -0.3927 -0.3848 -0.0031
 8045SOL     OW31945   0.723   0.197   2.277 -1.0388  0.0602  0.4186
 8045SOL    HW231946   0.786   0.213   2.207 -0.9630  0.2500  0.5282
 8045SOL    HW331947   0.675   0.280   2.284 -1.0523  0.0380  0.5849
 8045SOL    MW431948   0.725   0.210   2.269 -1.0305  0.0823  0.4550
 8046SOL     OW31949   0.265   1.950   5.283 -0.7027 -0.0245 -0.1104
 8046SOL    HW231950   0.281   1.956   5.189 -0.6827  2.4551 -0.0246
 8046SOL    HW331951   0.352   1.941   5.322 -0.7068 -0.9884 -0.3083
 8046SOL    MW431952   0.278   1.950   5.276 -0.7006  0.1754 -0.1252
 8047SOL     OW31953   1.437   4.350   4.211 -0.5629  0.2713  0.0699
 8047SOL    HW231954   1.525   4.359   4.173 -0.9488 -0.0388 -0.9029
 8047SOL    HW331955   1.385   4.309   4.142 -0.6498 -2.8508  1.7918
 8047SOL    MW431956   1.442   4.346   4.197 -0.6253 -0.1815  0.1687
 8048SOL     OW31957   5.555   0.239   6.299  0.3180  0.0040 -0.2527
 8048SOL    HW231958   5.563   0.305   6.231  1.9217 -1.5148 -1.6392
 8048SOL    HW331959   5.645   0.212   6.318 -0.2671 -2.0502 -0.0753
 8048SOL    MW431960   5.568   0.244   6.292  0.4524 -0.4674 -0.4122
 8049SOL     OW31961   0.996   4.122   6.377  0.1484 -0.2403 -0.0577
 8049SOL    HW231962   0.940   4.106   6.300 -0.9812  0.4723  0.5881
 8049SOL    HW331963   1.084   4.131   6.341 -0.4079  0.4317 -1.3148
 8049SOL    MW431964   1.000   4.121   6.362 -0.0740 -0.0576 -0.1384
 8050SOL     OW31965   1.922   4.786   0.725  0.1577 -0.3576  0.4120
 8050SOL    HW231966   2.007   4.813   0.759 -0.2470 -0.4480  1.5654
 8050SOL    HW331967   1.905   4.846   0.653  1.6400 -1.0013 -0.5053
 8050SOL    MW431968   1.931   4.798   0.720  0.2999 -0.4545  0.4432
 8051SOL     OW31969   5.942   5.488   5.448 -0.3094  1.4664 -0.2494
 8051SOL    HW231970   6.021   5.542   5.448 -0.5243  1.8050  0.7334
 8051SOL    HW331971   5.956   5.425   5.377  0.5152  1.9806 -0.5658
 8051SOL    MW431972   5.954   5.487   5.438 -0.2290  1.5789 -0.1615
 8052SOL     OW31973   2.208   2.715   4.686  0.2869  0.3041  0.7285
 8052SOL    HW231974   2.261   2.670   4.621  0.1746 -1.0618  1.5503
 8052SOL    HW331975   2.271   2.758   4.743  0.4332  0.3012  0.5700
 8052SOL    MW431976   2.223   2.715   4.685  0.2913  0.1235  0.8160
 8053SOL     OW31977   1.574   2.586   0.145 -0.6975  0.4934 -0.2458
 8053SOL    HW231978   1.562   2.551   0.233 -1.0521  1.5156  0.1269
 8053SOL    HW331979   1.529   2.523   0.088  0.2190 -0.6014  0.2004
 8053SOL    MW431980   1.566   2.573   0.149 -0.6233  0.4838 -0.1377
 8054SOL     OW31981   3.519   1.656   5.281 -0.5573 -0.3283 -0.1733
 8054SOL    HW231982   3.591   1.640   5.220  0.5918  0.5777  0.9064
 8054SOL    HW331983   3.454   1.589   5.258  0.7985 -1.4609 -0.8792
 8054SOL    MW431984   3.520   1.645   5.270 -0.2268 -0.3582 -0.1240
 8055SOL     OW31985   5.717   2.607   0.300  0.0854 -0.4928 -0.5060
 8055SOL    HW231986   5.673   2.647   0.375  0.5724  1.2174 -1.0973
 8055SOL    HW331987   5.662   2.629   0.225 -0.3685 -2.1446 -0.7000
 8055SOL    MW431988   5.704   2.615   0.300  0.0898 -0.4851 -0.6096
 8056SOL     OW31989   2.505   2.898   1.518  0.4811  0.0896  0.2962
 8056SOL    HW231990   2.515   2.882   1.612  0.7088 -2.9021 -0.1581
 8056SOL    HW331991   2.438   2.836   1.490 -1.7546  2.8524 -1.1211
 8056SOL    MW431992   2.497   2.888   1.527  0.2162  0.0594  0.0493
 8057SOL     OW31993   0.644   6.202   3.909 -0.1313 -0.3115 -0.1654
 8057SOL    HW231994   0.736   6.220   3.929 -0.1982 -1.4040  1.2741
 8057SOL    HW331995   0.602   6.192   3.994 -1.4517 -0.4835 -0.8134
 8057SOL    MW431996   0.651   6.203   3.923 -0.3143 -0.4784 -0.0609
 8058SOL     OW31997   6.400   5.590   5.880  0.6938 -0.0049 -0.2705
 8058SOL    HW231998   6.316   5.630   5.859  1.5277  1.5398 -0.7874
 8058SOL    HW331999   6.453   5.662   5.915  2.1852 -0.6924 -1.0285
 8058SOL    MW432000   6.396   5.605   5.882  1.0006  0.1082 -0.4387
 8059SOL     OW32001   1.980   3.777   2.448 -0.5265 -0.0616  0.7524
 8059SOL    HW232002   2.045   3.785   2.518  1.5930  0.0965 -1.1271
 8059SOL    HW332003   1.997   3.691   2.409  2.1981  1.8964 -3.0235
 8059SOL    MW432004   1.991   3.766   2.452  0.1126  0.2176  0.0063
 8060SOL     OW32005   4.250   6.350   0.819  0.2349 -0.0313  0.3120
 8060SOL    HW232006   4.251   6.297   0.739  0.5600  0.1253  0.2092
 8060SOL    HW332007   4.167   6.329   0.861  0.6098 -1.0493  0.5594
 8060SOL    MW432008   4.240   6.341   0.814  0.3273 -0.1450  0.3311
 8061SOL     OW32009   4.064   2.790   1.344  0.0551  0.1561 -0.1316
 8061SOL    HW232010   4.080   2.885   1.339 -0.1897  0.2455  0.6125
 8061SOL    HW332011   4.147   2.753   1.373  1.0247 -0.1986 -3.0419
 8061SOL    MW432012   4.077   2.798   1.348  0.1507  0.1211 -0.4174
 8062SOL     OW32013   6.393   0.931   3.604  0.0813 -0.0626  0.0545
 8062SOL    HW232014   6.436   0.850   3.576 -0.1746  0.2966 -1.4411
 8062SOL    HW332015   6.341   0.905   3.680 -0.2273 -1.3834 -0.5826
 8062SOL    MW432016   6.392   0.917   3.611  0.0068 -0.1895 -0.2269
 8063SOL     OW32017   5.610   0.050   5.973 -0.0651  0.6029 -0.5779
 8063SOL    HW232018   5.633  -0.042   5.966 -2.8984 -0.5003  2.1956
 8063SOL    HW332019   5.690   0.093   6.002  0.3916 -1.7874  2.1515
 8063SOL    MW432020   5.624   0.044   5.976 -0.3787  0.1420  0.1482
 8064SOL     OW32021   5.321   3.438   5.580  0.6800 -0.3677 -0.1250
 8064SOL    HW232022   5.263   3.423   5.655  0.1254  1.2624 -0.1872
 8064SOL    HW332023   5.384   3.502   5.613  1.0924 -0.4610 -0.7353
 8064SOL    MW432024   5.322   3.445   5.594  0.6612 -0.1650 -0.2137
 8065SOL     OW32025   5.503   5.746   4.909 -0.3175 -0.1703 -0.1975
 8065SOL    HW232026   5.512   5.753   5.004 -0.3655  0.5073 -0.2420
 8065SOL    HW332027   5.409   5.759   4.892 -0.1064  1.1812 -0.4536
 8065SOL    MW432028   5.492   5.748   4.919 -0.2960  0.0974 -0.2372
 8066SOL     OW32029   3.783   4.584   3.527  1.2157 -0.2919 -0.4919
 8066SOL    HW232030   3.796   4.678   3.536  1.3573 -0.4227  0.8895
 8066SOL    HW332031   3.841   4.559   3.454  0.5006  0.8051 -1.4684
 8066SOL    MW432032   3.793   4.593   3.518  1.1400 -0.1644 -0.4385
 8067SOL     OW32033   0.087   0.135   0.184 -0.0213  0.2232  0.1348
 8067SOL    HW232034   0.003   0.092   0.165 -0.4043  0.8878  0.3047
 8067SOL    HW332035   0.113   0.099   0.268 -0.5399  0.6154  0.4699
 8067SOL    MW432036   0.079   0.124   0.192 -0.1403  0.3626  0.2014
 8068SOL     OW32037   3.132   1.397   5.211  0.8991  0.0116 -0.7301
 8068SOL    HW232038   3.044   1.398   5.172 -1.1012  3.9224  3.0503
 8068SOL    HW332039   3.134   1.316   5.263 -1.2331  0.6280  0.4289
 8068SOL    MW432040   3.120   1.386   5.213  0.3539  0.6089 -0.0784
 8069SOL     OW32041   0.183   0.017   1.127  0.3852 -0.1770  0.3384
 8069SOL    HW232042   0.094   0.050   1.138 -0.0826 -0.8923 -1.0338
 8069SOL    HW332043   0.203   0.032   1.034  2.3441  1.4827  0.9519
 8069SOL    MW432044   0.174   0.023   1.116  0.5819 -0.0524  0.2383
 8070SOL     OW32045   4.848   5.238   4.893 -0.4330 -0.6239  0.1648
 8070SOL    HW232046   4.791   5.192   4.955 -1.3104 -0.5407 -0.5595
 8070SOL    HW332047   4.937   5.216   4.922 -0.7300  1.0187  2.6858
 8070SOL    MW432048   4.852   5.229   4.905 -0.5879 -0.3962  0.4019
 8071SOL     OW32049   0.889   5.020   6.190 -0.5279  0.0105  0.4620
 8071SOL    HW232050   0.822   5.012   6.259 -2.2009  1.1182 -0.9536
 8071SOL    HW332051   0.848   4.980   6.113  0.7812 -0.0058 -0.2422
 8071SOL    MW432052   0.875   5.014   6.189 -0.5759  0.1545  0.1823
 8072SOL     OW32053   0.807   5.808   3.450 -0.4207  0.5579  0.1641
 8072SOL    HW232054   0.769   5.895   3.432 -0.2823  1.0222  1.9226
 8072SOL    HW332055   0.900   5.825   3.461 -0.4039  0.2093  0.5977
 8072SOL    MW432056   0.814   5.822   3.449 -0.4002  0.5732  0.4533
 8073SOL     OW32057   3.358   2.125   0.185 -0.2185  0.3759  0.1033
 8073SOL    HW232058   3.335   2.153   0.273 -2.5904  0.5282 -0.4733
 8073SOL    HW332059   3.434   2.068   0.196 -1.5485 -1.0875  2.4628
 8073SOL    MW432060   3.365   2.122   0.198 -0.7069  0.2029  0.3385
 8074SOL     OW32061   3.525   5.502   1.265 -0.5301  0.3280 -0.0198
 8074SOL    HW232062   3.451   5.454   1.228 -1.0960 -0.5629  2.0763
 8074SOL    HW332063   3.485   5.569   1.320  0.1989 -0.0027  0.9418
 8074SOL    MW432064   3.510   5.504   1.268 -0.5085  0.1668  0.3836
 8075SOL     OW32065   6.144   4.853   4.999 -0.5192 -0.4591  0.4524
 8075SOL    HW232066   6.089   4.831   4.924  0.6793 -1.7416 -0.0948
 8075SOL    HW332067   6.233   4.847   4.966 -0.0005  0.1023  1.6954
 8075SOL    MW432068   6.148   4.849   4.985 -0.2926 -0.5543  0.5442
 8076SOL     OW32069   5.503   4.295   4.540  0.4859  0.2867 -0.2544
 8076SOL    HW232070   5.507   4.335   4.626  0.0069  0.7524 -0.4404
 8076SOL    HW332071   5.413   4.311   4.510  0.7267  0.3722 -0.9517
 8076SOL    MW432072   5.492   4.302   4.547  0.4545  0.3594 -0.3709
 8077SOL     OW32073   5.624   2.986   4.666  0.2632  0.2216  0.0357
 8077SOL    HW232074   5.642   3.030   4.583 -2.8232  0.8896 -0.3865
 8077SOL    HW332075   5.579   3.052   4.719  0.8035 -0.6795  1.6833
 8077SOL    MW432076   5.621   3.001   4.662 -0.0727  0.1908  0.1974
 8078SOL     OW32077   2.796   6.165   0.412  0.0597  0.4691 -0.3126
 8078SOL    HW232078   2.888   6.170   0.387 -0.0059 -1.9475 -1.2856
 8078SOL    HW332079   2.795   6.185   0.506  1.4846  0.9542 -0.3842
 8078SOL    MW432080   2.808   6.168   0.421  0.2391  0.2143 -0.4504
 8079SOL     OW32081   6.064   0.071   3.516 -0.1720 -0.6135 -0.4239
 8079SOL    HW232082   6.048   0.042   3.427 -0.9872  0.6532 -0.7058
 8079SOL    HW332083   6.071   0.166   3.510 -1.3988 -0.3920  1.0085
 8079SOL    MW432084   6.063   0.079   3.504 -0.4414 -0.4171 -0.2721
 8080SOL     OW32085   6.259   6.249   6.195 -0.1035 -0.3448 -0.7020
 8080SOL    HW232086   6.327   6.316   6.188  1.7709 -1.8753  1.1384
 8080SOL    HW332087   6.181   6.289   6.159  0.5238  3.3374  1.5684
 8080SOL    MW432088   6.258   6.263   6.189  0.2266 -0.0609 -0.1597
 8081SOL     OW32089   3.582   4.321   4.752 -0.1352  0.4517  0.6317
 8081SOL    HW232090   3.561   4.313   4.659  2.7679  2.2502 -0.2923
 8081SOL    HW332091   3.643   4.249   4.769  0.4243  0.9427  0.7464
 8081SOL    MW432092   3.587   4.311   4.742  0.3216  0.7537  0.5249
 8082SOL     OW32093   5.815   5.088   3.552 -0.3137  0.0153  0.3272
 8082SOL    HW232094   5.747   5.050   3.606 -1.1049  1.1126  0.1394
 8082SOL    HW332095   5.888   5.025   3.556 -0.9300 -0.6483  1.3897
 8082SOL    MW432096   5.816   5.075   3.559 -0.4994  0.0725  0.4426
 8083SOL     OW32097   4.732   0.112   3.796  0.1351  0.0698 -0.2930
 8083SOL    HW232098   4.762   0.132   3.708  1.2582  0.2048  0.1081
 8083SOL    HW332099   4.664   0.177   3.814  3.0964  3.1866  0.6665
 8083SOL    MW432100   4.727   0.123   3.787  0.6740  0.4989 -0.1135
 8084SOL     OW32101   3.080   4.833   5.203 -0.2895 -0.5165  0.4061
 8084SOL    HW232102   3.103   4.797   5.288  2.0946 -0.3429 -0.0711
 8084SOL    HW332103   3.138   4.909   5.192  0.6224 -1.4400 -1.9698
 8084SOL    MW432104   3.091   4.838   5.213  0.1453 -0.6154  0.0297
 8085SOL     OW32105   4.126   1.064   3.999 -0.0495 -0.1140  0.1450
 8085SOL    HW232106   4.055   1.120   3.966  1.0421  0.4895 -1.2537
 8085SOL    HW332107   4.135   0.995   3.934  0.5465 -0.2845  0.4001
 8085SOL    MW432108   4.118   1.062   3.986  0.1732 -0.0569 -0.0059
 8086SOL     OW32109   4.528   3.650   1.299 -0.4181  0.0243  0.3863
 8086SOL    HW232110   4.547   3.704   1.376  0.9212  0.6968 -0.3648
 8086SOL    HW332111   4.499   3.566   1.334 -0.6459  0.5934  1.6022
 8086SOL    MW432112   4.527   3.646   1.313 -0.2715  0.1881  0.4476
 8087SOL     OW32113   4.784   6.336   5.812  0.3154 -0.1444 -0.2821
 8087SOL    HW232114   4.732   6.417   5.812  1.6660  0.7770 -1.1347
 8087SOL    HW332115   4.768   6.297   5.897  0.7579  1.8044  0.7603
 8087SOL    MW432116   4.775   6.342   5.823  0.5520  0.2343 -0.2570
 8088SOL     OW32117   1.386   5.475   1.305  0.0132 -0.0901 -0.3980
 8088SOL    HW232118   1.407   5.387   1.273  0.0997  1.2122 -4.3862
 8088SOL    HW332119   1.294   5.487   1.283  0.5299  1.4938 -1.9103
 8088SOL    MW432120   1.377   5.465   1.298  0.0928  0.2907 -1.1237
 8089SOL     OW32121   5.396   0.541   6.233 -0.2754  0.1061 -0.0985
 8089SOL    HW232122   5.474   0.525   6.180  0.5872  0.4015  1.0684
 8089SOL    HW332123   5.379   0.634   6.224  0.2207  0.2692  0.6049
 8089SOL    MW432124   5.404   0.551   6.225 -0.0961  0.1666  0.1483
 8090SOL     OW32125   1.321   0.970   1.141 -0.1807 -0.5962 -0.1274
 8090SOL    HW232126   1.298   1.061   1.123 -0.5987 -0.9269 -1.3979
 8090SOL    HW332127   1.360   0.939   1.059 -2.5116 -2.2977 -0.7009
 8090SOL    MW432128   1.323   0.978   1.128 -0.5434 -0.8643 -0.3707
 8091SOL     OW32129   6.138   4.187   0.939  0.0136  0.2971 -0.2615
 8091SOL    HW232130   6.212   4.247   0.953  0.9745 -0.6179 -1.2138
 8091SOL    HW332131   6.159   4.111   0.993  0.0438 -0.1908 -0.9524
 8091SOL    MW432132   6.151   4.185   0.948  0.1444  0.1120 -0.4783
 8092SOL     OW32133   0.966   4.934   5.005  0.1640 -0.9297  0.0747
 8092SOL    HW232134   0.894   4.986   4.971 -0.3451  0.1132  2.5245
 8092SOL    HW332135   1.034   4.998   5.027  1.5682 -1.8142 -1.4443
 8092SOL    MW432136   0.966   4.949   5.004  0.2821 -0.9088  0.1975
 8093SOL     OW32137   4.179   5.283   2.439  0.2328  0.0750  0.1618
 8093SOL    HW232138   4.115   5.331   2.492 -0.7820 -0.3724 -0.6285
 8093SOL    HW332139   4.241   5.247   2.503  0.8209  2.1026  0.7950
 8093SOL    MW432140   4.179   5.285   2.455  0.1765  0.2835  0.1411
 8094SOL     OW32141   2.113   2.041   0.977 -0.1080  0.5233  0.5945
 8094SOL    HW232142   2.073   1.960   0.945  0.9262 -0.7136  2.2399
 8094SOL    HW332143   2.206   2.022   0.981  0.4978  2.7101 -1.3556
 8094SOL    MW432144   2.120   2.027   0.974  0.1083  0.6486  0.5543
 8095SOL     OW32145   5.758   4.371   4.858 -0.2674  0.3749  0.2756
 8095SOL    HW232146   5.716   4.286   4.845  0.8069 -0.2313  0.6239
 8095SOL    HW332147   5.738   4.393   4.949 -2.2626  1.4957 -0.3804
 8095SOL    MW432148   5.750   4.362   4.868 -0.3889  0.4428  0.2350
 8096SOL     OW32149   2.113   0.938   3.939 -0.1546  0.2733  0.0439
 8096SOL    HW232150   2.091   0.847   3.959  2.2991  0.2055  3.3403
 8096SOL    HW332151   2.033   0.987   3.959 -1.1635 -1.0172 -0.6658
 8096SOL    MW432152   2.100   0.933   3.945  0.0361  0.0941  0.3852
 8097SOL     OW32153   3.257   1.376   6.121 -0.2213 -0.1675 -0.2208
 8097SOL    HW232154   3.314   1.445   6.087  0.2667 -0.7538 -0.6037
 8097SOL    HW332155   3.177   1.422   6.147  1.4136  1.1763  3.0398
 8097SOL    MW432156   3.254   1.391   6.120  0.0588 -0.0676  0.1588
 8098SOL     OW32157   3.736   1.743   2.705  0.1232  0.5298  0.0553
 8098SOL    HW232158   3.645   1.765   2.726 -0.6265 -1.5423 -0.8259
 8098SOL    HW332159   3.744   1.759   2.611  0.5637  0.3008  0.0508
 8098SOL    MW432160   3.725   1.748   2.696  0.0824  0.2262 -0.0616
 8099SOL     OW32161   0.514   0.262   0.094  0.1520  0.0947 -0.3430
 8099SOL    HW232162   0.476   0.176   0.074  0.0100  0.1859 -0.4667
 8099SOL    HW332163   0.497   0.314   0.016  1.9325 -0.3306 -1.0744
 8099SOL    MW432164   0.507   0.258   0.081  0.3682  0.0506 -0.4558
 8100SOL     OW32165   2.789   4.458   5.645 -0.0802  0.3822 -0.5036
 8100SOL    HW232166   2.700   4.442   5.676  0.4129 -1.0701  0.2335
 8100SOL    HW332167   2.785   4.444   5.551 -0.1889 -1.9669 -0.2079
 8100SOL    MW432168   2.776   4.454   5.637 -0.0295 -0.1194 -0.3674
 8101SOL     OW32169   3.244   2.374   2.894  0.2288 -0.0624  0.5455
 8101SOL    HW232170   3.266   2.300   2.837 -0.6700  1.3524 -1.8116
 8101SOL    HW332171   3.270   2.451   2.843 -1.1121  1.3107  1.8575
 8101SOL    MW432172   3.250   2.374   2.880 -0.0667  0.3054  0.4076
 8102SOL     OW32173   3.273   3.390   4.730  0.2357 -0.1959  0.4376
 8102SOL    HW232174   3.232   3.468   4.766 -0.3720 -0.2262 -0.1520
 8102SOL    HW332175   3.228   3.317   4.773 -0.7665 -0.2385 -0.6225
 8102SOL    MW432176   3.262   3.390   4.740  0.0233 -0.2055  0.2199
 8103SOL     OW32177   0.424   2.244   3.389 -0.1617 -0.2782  0.0672
 8103SOL    HW232178   0.509   2.205   3.410  1.1943  2.1845 -0.4427
 8103SOL    HW332179   0.392   2.277   3.473  0.1642  0.1934  0.0099
 8103SOL    MW432180   0.431   2.243   3.403  0.0602  0.1090 -0.0077
 8104SOL     OW32181   6.120   1.756   3.496 -0.1077  0.4168  0.4190
 8104SOL    HW232182   6.041   1.736   3.546 -2.1380  1.8085 -1.9924
 8104SOL    HW332183   6.108   1.712   3.412  0.2008  2.9525 -1.0753
 8104SOL    MW432184   6.108   1.748   3.491 -0.3349  0.9350 -0.0963
 8105SOL     OW32185   5.890   2.530   2.829 -0.4852  0.3356  0.0612
 8105SOL    HW232186   5.800   2.562   2.830  0.3289  2.8929 -0.4442
 8105SOL    HW332187   5.941   2.602   2.790  1.7028 -1.2310 -0.1769
 8105SOL    MW432188   5.885   2.544   2.824 -0.0891  0.4663 -0.0369
 8106SOL     OW32189   0.113   3.503   1.867 -0.2050  0.0056  0.6024
 8106SOL    HW232190   0.116   3.432   1.802 -3.0723 -0.7870  1.2071
 8106SOL    HW332191   0.022   3.531   1.867  0.4153  2.2599  1.9736
 8106SOL    MW432192   0.101   3.497   1.858 -0.5015  0.1984  0.8631
 8107SOL     OW32193   3.940   2.047   3.756 -0.1622  0.3513  0.2189
 8107SOL    HW232194   4.034   2.043   3.742 -0.3031  0.6882 -0.9237
 8107SOL    HW332195   3.928   2.024   3.848  1.0241  0.2369  0.3541
 8107SOL    MW432196   3.951   2.044   3.766 -0.0243  0.3806  0.0860
 8108SOL     OW32197   2.234   4.467   0.053  0.1108 -0.0578 -0.3109
 8108SOL    HW232198   2.194   4.499  -0.028 -0.7983 -1.4847 -0.4660
 8108SOL    HW332199   2.245   4.373   0.039  0.7445 -0.1848  0.9053
 8108SOL    MW432200   2.230   4.459   0.041  0.0745 -0.2628 -0.1709
 8109SOL     OW32201   2.602   5.525   0.440  0.1445  0.2155 -0.1072
 8109SOL    HW232202   2.693   5.514   0.414  0.3828  2.1268 -0.2384
 8109SOL    HW332203   2.553   5.467   0.382  1.3164 -1.6106  0.6437
 8109SOL    MW432204   2.607   5.516   0.429  0.3306  0.2267 -0.0255
 8110SOL     OW32205   0.085   5.340   3.765 -0.1478  0.3662 -0.1801
 8110SOL    HW232206   0.010   5.362   3.709 -0.1962  2.2807  0.5832
 8110SOL    HW332207   0.049   5.338   3.853  0.6219  0.9208  0.1556
 8110SOL    MW432208   0.070   5.342   3.769 -0.0526  0.6920 -0.0351
 8111SOL     OW32209   0.613   0.739   1.680 -0.1606 -0.4097  0.3921
 8111SOL    HW232210   0.604   0.802   1.609  1.0300 -0.0419  0.5535
 8111SOL    HW332211   0.634   0.657   1.636  1.1439 -0.0593  0.3373
 8111SOL    MW432212   0.614   0.737   1.665  0.1686 -0.3150  0.4061
 8112SOL     OW32213   1.645   5.440   0.615 -0.2051  0.4812 -0.0805
 8112SOL    HW232214   1.591   5.439   0.536  0.6802  0.1679 -0.6998
 8112SOL    HW332215   1.721   5.494   0.592  0.1679  0.2152  0.4838
 8112SOL    MW432216   1.648   5.447   0.602 -0.0391  0.4047 -0.0877
 8113SOL     OW32217   3.054   0.435   4.896 -0.6035  0.3801  0.1873
 8113SOL    HW232218   3.101   0.384   4.962 -1.0778  0.1337  0.3334
 8113SOL    HW332219   3.009   0.370   4.842 -0.5793  0.6042 -0.1071
 8113SOL    MW432220   3.055   0.420   4.897 -0.6629  0.3772  0.1678
 8114SOL     OW32221   4.688   3.275   5.441  0.0731  0.2683  0.1773
 8114SOL    HW232222   4.713   3.286   5.533 -0.5136  0.5530  0.3042
 8114SOL    HW332223   4.634   3.196   5.440  1.9935 -1.1285 -0.3020
 8114SOL    MW432224   4.684   3.266   5.453  0.2490  0.1216  0.1308
 8115SOL     OW32225   0.251   5.353   2.450  0.0446 -0.1481  0.4815
 8115SOL    HW232226   0.263   5.281   2.389 -1.5219 -0.3341  0.3612
 8115SOL    HW332227   0.305   5.329   2.526  2.3560  0.2994 -0.9137
 8115SOL    MW432228   0.260   5.341   2.452  0.1429 -0.1136  0.2815
 8116SOL     OW32229   4.200   0.838   3.433  0.0204  0.1772 -0.2588
 8116SOL    HW232230   4.285   0.821   3.473  0.2681 -0.4123 -1.0349
 8116SOL    HW332231   4.151   0.756   3.443 -1.8380  1.4660  3.4053
 8116SOL    MW432232   4.204   0.825   3.440 -0.1921  0.2695  0.1222
 8117SOL     OW32233   1.582   5.519   3.398 -0.2940  0.2817 -0.2010
 8117SOL    HW232234   1.666   5.557   3.423  0.4788 -1.3114 -0.2514
 8117SOL    HW332235   1.525   5.536   3.473  0.0446  1.4216 -0.1872
 8117SOL    MW432236   1.586   5.526   3.411 -0.1474  0.2219 -0.2058
 8118SOL     OW32237   3.539   5.435   3.741  0.1338  0.8267 -0.9223
 8118SOL    HW232238   3.487   5.419   3.663  1.1744  0.7271 -1.6101
 8118SOL    HW332239   3.515   5.524   3.768 -0.2512  0.8511 -1.3340
 8118SOL    MW432240   3.529   5.445   3.735  0.2203  0.8168 -1.0674
 8119SOL     OW32241   2.817   3.723   6.210 -0.1605 -0.2239 -0.0041
 8119SOL    HW232242   2.905   3.692   6.190 -0.2549 -1.5471  1.4920
 8119SOL    HW332243   2.827   3.818   6.217  1.0513 -0.3138 -0.2888
 8119SOL    MW432244   2.830   3.732   6.209 -0.0131 -0.4104  0.1557
 8120SOL     OW32245   1.908   2.815   3.366  0.2659 -0.1509 -0.3978
 8120SOL    HW232246   1.870   2.902   3.376 -0.3865 -0.4568 -0.1091
 8120SOL    HW332247   1.931   2.809   3.274 -0.7239 -0.0790 -0.6658
 8120SOL    MW432248   1.906   2.825   3.355  0.0492 -0.1817 -0.3951
 8121SOL     OW32249   4.741   3.349   4.114  0.4662 -0.2158 -0.0678
 8121SOL    HW232250   4.680   3.282   4.083  0.7829  0.3156 -1.9552
 8121SOL    HW332251   4.722   3.425   4.059 -0.3381  1.5219  2.4531
 8121SOL    MW432252   4.730   3.350   4.103  0.4019  0.0835  0.0158
 8122SOL     OW32253   4.381   3.256   2.125  0.1696 -0.7959 -0.1801
 8122SOL    HW232254   4.337   3.190   2.072 -0.9010 -0.2485 -0.0187
 8122SOL    HW332255   4.319   3.273   2.197  1.8313 -1.9680  1.6237
 8122SOL    MW432256   4.367   3.250   2.128  0.2476 -0.8783  0.0792
 8123SOL     OW32257   5.079   1.011   1.581  0.1124  0.1969  0.4433
 8123SOL    HW232258   5.148   0.960   1.624 -2.2602  0.7301  5.7213
 8123SOL    HW332259   5.102   1.102   1.598 -0.1916  0.5392 -0.8868
 8123SOL    MW432260   5.091   1.016   1.589 -0.2408  0.3124  0.9641
 8124SOL     OW32261   4.819   1.699   4.407  0.0303  0.0011 -0.0001
 8124SOL    HW232262   4.783   1.648   4.334 -3.3023 -0.8598  2.0385
 8124SOL    HW332263   4.902   1.657   4.427 -0.8972 -2.3614 -0.7408
 8124SOL    MW432264   4.825   1.687   4.400 -0.5318 -0.4242  0.1712
 8125SOL     OW32265   5.835   1.883   2.337  0.0322  0.6697  0.3688
 8125SOL    HW232266   5.760   1.830   2.308 -0.0617 -0.0674  1.8789
 8125SOL    HW332267   5.836   1.874   2.432  1.4059  1.5471  0.4679
 8125SOL    MW432268   5.825   1.875   2.346  0.2011  0.6882  0.5811
 8126SOL     OW32269   4.027   5.280   1.620  0.0236  0.5600  0.5983
 8126SOL    HW232270   4.097   5.345   1.617  0.5867 -0.0606 -1.0478
 8126SOL    HW332271   3.985   5.285   1.533 -0.3715 -0.7643  0.6857
 8126SOL    MW432272   4.031   5.289   1.608  0.0458  0.3034  0.3926
 8127SOL     OW32273   5.608   0.754   2.720  0.2997 -0.1051 -0.4066
 8127SOL    HW232274   5.574   0.821   2.778  0.9153  0.5344 -0.7599
 8127SOL    HW332275   5.544   0.748   2.649  0.7222  0.8534 -0.8994
 8127SOL    MW432276   5.595   0.762   2.718  0.4367  0.1057 -0.5182
 8128SOL     OW32277   5.873   1.835   0.379 -0.3308 -0.3150  0.3279
 8128SOL    HW232278   5.938   1.863   0.314  0.5149  0.1085  1.3305
 8128SOL    HW332279   5.789   1.840   0.332  0.2628 -0.1109 -0.7527
 8128SOL    MW432280   5.871   1.839   0.364 -0.1409 -0.2321  0.3176
 8129SOL     OW32281   3.831   5.147   3.187 -0.2017 -0.3240 -0.2054
 8129SOL    HW232282   3.791   5.097   3.116  0.2666  1.3571 -1.7339
 8129SOL    HW332283   3.759   5.162   3.248 -0.3710 -2.7278  0.2807
 8129SOL    MW432284   3.816   5.142   3.185 -0.1622 -0.4194 -0.3429
 8130SOL     OW32285   2.465   4.300   0.274  0.2438  0.0073 -0.1142
 8130SOL    HW232286   2.509   4.372   0.319  0.6072 -0.7730  0.8049
 8130SOL    HW332287   2.456   4.231   0.340 -0.5272 -0.6184 -0.8419
 8130SOL    MW432288   2.469   4.300   0.289  0.1900 -0.1782 -0.0889
 8131SOL     OW32289   3.320   3.778   3.929 -0.0538 -0.2813 -0.5186
 8131SOL    HW232290   3.342   3.776   3.836  2.1211 -0.0649 -0.0763
 8131SOL    HW332291   3.269   3.699   3.944  0.2578 -0.7329 -1.7515
 8131SOL    MW432292   3.316   3.767   3.919  0.2742 -0.3123 -0.6229
 8132SOL     OW32293   2.347   4.090   5.022  0.4443 -0.0125  0.4537
 8132SOL    HW232294   2.354   4.184   5.038  2.2210  0.2707 -1.5919
 8132SOL    HW332295   2.264   4.079   4.976  1.0873  0.8635 -0.9710
 8132SOL    MW432296   2.337   4.101   5.018  0.7635  0.1404 -0.0041
 8133SOL     OW32297   3.830   4.700   3.070 -0.0583 -0.1392 -0.2229
 8133SOL    HW232298   3.908   4.688   3.016 -0.0072 -0.3237 -0.1073
 8133SOL    HW332299   3.759   4.662   3.019  0.5004 -3.6002  1.3153
 8133SOL    MW432300   3.831   4.694   3.056  0.0222 -0.6202 -0.0047
 8134SOL     OW32301   2.427   1.401   4.139  0.4736 -0.6374  0.0692
 8134SOL    HW232302   2.368   1.334   4.173  0.6947 -1.6548 -1.4263
 8134SOL    HW332303   2.499   1.352   4.101  1.4793  0.5328  0.3924
 8134SOL    MW432304   2.429   1.386   4.138  0.6354 -0.6173 -0.0855
 8135SOL     OW32305   1.277   2.685   2.554  0.1865  0.2506  0.3024
 8135SOL    HW232306   1.351   2.624   2.544 -0.6770 -0.6668 -0.7431
 8135SOL    HW332307   1.285   2.718   2.644  2.5486  1.1025 -0.1434
 8135SOL    MW432308   1.288   2.681   2.565  0.3843  0.2420  0.1056
 8136SOL     OW32309   0.048   5.947   0.546 -0.0312  0.7922 -0.4887
 8136SOL    HW232310   0.084   5.927   0.459  2.2202 -0.7358  0.6948
 8136SOL    HW332311   0.079   6.035   0.565 -2.7560  2.2335 -2.2339
 8136SOL    MW432312   0.057   5.956   0.537 -0.0937  0.7807 -0.5628
 8137SOL     OW32313   5.621   0.756   1.935 -0.2868 -0.3628  0.0412
 8137SOL    HW232314   5.659   0.832   1.890  0.3627  1.0598  2.7417
 8137SOL    HW332315   5.567   0.795   2.005 -1.5580 -2.4240  0.2863
 8137SOL    MW432316   5.619   0.771   1.938 -0.3688 -0.4470  0.4298
 8138SOL     OW32317   2.871   2.144   5.749 -0.2371 -0.0725  0.3115
 8138SOL    HW232318   2.896   2.058   5.714 -0.1481  0.1333 -0.1467
 8138SOL    HW332319   2.950   2.177   5.791 -0.4992 -0.5592  1.2092
 8138SOL    MW432320   2.885   2.137   5.750 -0.2599 -0.1095  0.3695
 8139SOL     OW32321   0.445   4.556   5.591  0.2764 -0.1420  0.4567
 8139SOL    HW232322   0.522   4.553   5.649  0.3178 -0.8731  0.3709
 8139SOL    HW332323   0.479   4.589   5.508  0.7050 -1.3794  0.1200
 8139SOL    MW432324   0.460   4.560   5.588  0.3384 -0.4017  0.4009
 8140SOL     OW32325   3.001   4.755   3.975 -0.6605 -0.3350 -0.1326
 8140SOL    HW232326   2.971   4.845   3.990 -0.8402 -0.3368 -0.4734
 8140SOL    HW332327   3.095   4.758   3.993 -0.6839 -0.1009 -0.0423
 8140SOL    MW432328   3.009   4.767   3.979 -0.6873 -0.3043 -0.1656
 8141SOL     OW32329   3.319   4.907   3.817  0.8345 -0.0921 -0.0899
 8141SOL    HW232330   3.406   4.870   3.798 -0.0626 -1.4723 -1.8224
 8141SOL    HW332331   3.269   4.893   3.737 -2.0177 -2.3878  1.8635
 8141SOL    MW432332   3.324   4.900   3.804  0.3398 -0.5771 -0.0607
 8142SOL     OW32333   2.464   3.933   5.595 -0.0082 -0.0403 -0.1086
 8142SOL    HW232334   2.556   3.953   5.614 -0.1906 -0.1631  0.9588
 8142SOL    HW332335   2.425   3.915   5.681 -0.9484 -0.3375 -0.5850
 8142SOL    MW432336   2.471   3.933   5.609 -0.1563 -0.0957 -0.0306
 8143SOL     OW32337   4.662   5.256   1.153 -0.0482  0.1733 -0.5589
 8143SOL    HW232338   4.676   5.248   1.059  0.4864 -0.7586 -0.4166
 8143SOL    HW332339   4.733   5.206   1.192 -0.3974  0.3534  0.3353
 8143SOL    MW432340   4.673   5.248   1.146 -0.0238  0.0741 -0.4221
 8144SOL     OW32341   2.174   5.670   5.737  0.3124  0.2060  0.3905
 8144SOL    HW232342   2.179   5.765   5.730  0.1062  0.2260  0.5039
 8144SOL    HW332343   2.123   5.654   5.816 -1.3957  0.0165 -0.6972
 8144SOL    MW432344   2.168   5.680   5.746  0.0598  0.1836  0.2620
 8145SOL     OW32345   4.100   2.600   2.170  0.3359 -0.3089  0.3498
 8145SOL    HW232346   4.109   2.525   2.111 -0.7636 -0.6389  0.5725
 8145SOL    HW332347   4.096   2.676   2.112 -0.8406 -0.6385 -0.0407
 8145SOL    MW432348   4.100   2.600   2.155  0.0356 -0.3959  0.3276
 8146SOL     OW32349   0.915   3.243   2.834 -0.4382 -0.2454  0.1752
 8146SOL    HW232350   0.855   3.219   2.905 -0.2102  0.6273  0.6784
 8146SOL    HW332351   0.928   3.162   2.785 -2.2197 -0.3994 -0.0903
 8146SOL    MW432352   0.909   3.229   2.837 -0.6431 -0.1505  0.2066
 8147SOL     OW32353   0.522   0.994   0.501 -0.3465  0.0322 -0.2714
 8147SOL    HW232354   0.534   0.931   0.430 -0.5294  0.4388 -0.6663
 8147SOL    HW332355   0.576   1.069   0.477 -0.0339 -0.0141  0.2557
 8147SOL    MW432356   0.531   0.995   0.489 -0.3294  0.0798 -0.2540
 8148SOL     OW32357   0.787   2.066   5.335  0.4964  0.2011  0.6399
 8148SOL    HW232358   0.804   1.976   5.365  1.3816  0.5152  1.1092
 8148SOL    HW332359   0.867   2.092   5.290  1.3149  1.6569  2.7425
 8148SOL    MW432360   0.800   2.057   5.333  0.7212  0.4346  0.9792
 8149SOL     OW32361   4.011   0.005   5.344 -0.0239 -0.1377  0.0158
 8149SOL    HW232362   4.009   0.084   5.398 -0.2105  0.6923 -1.1778
 8149SOL    HW332363   4.077  -0.051   5.386  0.8700  1.0829  0.2974
 8149SOL    MW432364   4.019   0.008   5.357  0.0694  0.1328 -0.1045
 8150SOL     OW32365   4.668   0.953   1.249  0.0543  0.1778 -0.0276
 8150SOL    HW232366   4.730   1.025   1.235  0.3213  0.0796  0.6345
 8150SOL    HW332367   4.586   0.996   1.275 -0.4707  0.3704 -1.8659
 8150SOL    MW432368   4.665   0.968   1.250  0.0203  0.1903 -0.1828
 8151SOL     OW32369   1.193   2.128   0.006 -0.4119 -0.1013  0.1035
 8151SOL    HW232370   1.191   2.220   0.034 -1.3306 -0.6363  1.9424
 8151SOL    HW332371   1.244   2.084   0.073  0.7474 -0.8420 -1.2116
 8151SOL    MW432372   1.199   2.135   0.018 -0.3802 -0.2696  0.1726
 8152SOL     OW32373   3.762   3.158   5.135 -0.4015  0.9186  0.5076
 8152SOL    HW232374   3.730   3.237   5.179  0.0534  1.6796 -0.4893
 8152SOL    HW332375   3.712   3.155   5.053  2.4812  2.5503 -1.4524
 8152SOL    MW432376   3.751   3.168   5.130  0.0389  1.2343  0.1175
 8153SOL     OW32377   1.898   3.495   3.780  0.4575  0.3367 -0.1049
 8153SOL    HW232378   1.962   3.514   3.849  0.0526 -1.1160  0.7183
 8153SOL    HW332379   1.942   3.519   3.699  0.3907  3.5952  0.6781
 8153SOL    MW432380   1.912   3.501   3.779  0.3953  0.5749  0.1071
 8154SOL     OW32381   3.275   3.002   3.248  0.0718 -0.7035 -0.1838
 8154SOL    HW232382   3.242   3.087   3.217 -0.0845 -0.5939  0.2681
 8154SOL    HW332383   3.244   2.939   3.183 -0.5264 -0.5204 -0.0810
 8154SOL    MW432384   3.266   3.005   3.235 -0.0278 -0.6649 -0.1106
 8155SOL     OW32385   4.842   6.145   2.270  0.4507  0.4237  0.0651
 8155SOL    HW232386   4.855   6.081   2.339  0.9059  0.0069 -0.3947
 8155SOL    HW332387   4.752   6.175   2.281  0.4889  0.2919  0.7738
 8155SOL    MW432388   4.832   6.141   2.280  0.5158  0.3513  0.0979
 8156SOL     OW32389   4.815   1.439   3.061  0.4175 -0.2013 -0.2996
 8156SOL    HW232390   4.791   1.398   3.144 -2.2990 -1.2601 -1.4890
 8156SOL    HW332391   4.755   1.513   3.052  0.0455 -0.6338 -1.6780
 8156SOL    MW432392   4.804   1.443   3.071  0.0100 -0.3980 -0.6384
 8157SOL     OW32393   2.595   0.157   1.679  0.1289  0.0530  0.5856
 8157SOL    HW232394   2.589   0.071   1.637 -1.1752  0.6415 -0.5169
 8157SOL    HW332395   2.669   0.200   1.636  0.2869 -0.2116  0.5878
 8157SOL    MW432396   2.604   0.152   1.668 -0.0223  0.0957  0.4404
 8158SOL     OW32397   2.564   3.885   2.118 -0.0109  0.1173 -0.1906
 8158SOL    HW232398   2.488   3.888   2.177  0.1738  0.4373  0.0286
 8158SOL    HW332399   2.640   3.894   2.175  0.2291 -0.8932 -0.3348
 8158SOL    MW432400   2.564   3.886   2.133  0.0451  0.0262 -0.1807
 8159SOL     OW32401   3.934   1.846   1.554  0.2303 -0.1444  0.2096
 8159SOL    HW232402   3.942   1.787   1.478  1.0794  0.6755 -0.3542
 8159SOL    HW332403   3.864   1.906   1.530 -0.1527 -0.4820  0.4827
 8159SOL    MW432404   3.926   1.846   1.541  0.2918 -0.0808  0.1712
 8160SOL     OW32405   1.475   0.086   0.725  0.4316  0.1857 -0.7106
 8160SOL    HW232406   1.536   0.012   0.733 -0.2630 -0.3551 -0.3861
 8160SOL    HW332407   1.388   0.047   0.727  0.0295  1.0743  0.2087
 8160SOL    MW432408   1.472   0.071   0.726  0.2869  0.2316 -0.5465
 8161SOL     OW32409   4.412   5.940   2.213 -0.7276 -0.2721 -0.0345
 8161SOL    HW232410   4.457   5.946   2.129  0.3251  0.3882  0.5635
 8161SOL    HW332411   4.328   5.984   2.198 -0.4744  0.0080 -0.6840
 8161SOL    MW432412   4.407   5.946   2.200 -0.5553 -0.1480 -0.0413
 8162SOL     OW32413   4.189   6.058   1.075 -0.7369 -0.0525  0.2949
 8162SOL    HW232414   4.259   6.004   1.040  0.2751 -0.7345  3.0593
 8162SOL    HW332415   4.109   6.009   1.057 -0.3194 -0.1996 -1.2294
 8162SOL    MW432416   4.188   6.045   1.068 -0.5483 -0.1619  0.4585
 8163SOL     OW32417   0.217   1.998   5.023 -0.7902  0.3069 -0.4704
 8163SOL    HW232418   0.280   2.047   4.971  1.2469 -1.7890 -0.1289
 8163SOL    HW332419   0.148   1.973   4.961  0.9990 -1.1337 -1.9834
 8163SOL    MW432420   0.216   2.001   5.008 -0.2854 -0.1597 -0.6250
 8164SOL     OW32421   2.661   4.242   3.888 -0.2421 -0.5610  0.0098
 8164SOL    HW232422   2.620   4.316   3.844  1.3850 -0.2795 -1.1186
 8164SOL    HW332423   2.696   4.188   3.817 -1.1024 -2.2676  0.8222
 8164SOL    MW432424   2.661   4.245   3.873 -0.1410 -0.7490 -0.0319
 8165SOL     OW32425   4.606   5.051   4.747  0.1462  0.2312 -0.3271
 8165SOL    HW232426   4.700   5.068   4.754  0.5376 -1.7959 -0.1440
 8165SOL    HW332427   4.596   4.958   4.770 -1.8079  0.1943 -1.1175
 8165SOL    MW432428   4.617   5.041   4.751 -0.0600 -0.0411 -0.4072
 8166SOL     OW32429   4.621   6.248   4.447 -0.6245 -0.4178  0.1715
 8166SOL    HW232430   4.545   6.265   4.503  0.5008 -1.9625  2.2768
 8166SOL    HW332431   4.626   6.153   4.441 -0.4420 -0.3150 -2.2749
 8166SOL    MW432432   4.611   6.238   4.453 -0.4520 -0.6080  0.1265
 8167SOL     OW32433   4.635   2.877   3.832  0.0228  0.0619  0.4238
 8167SOL    HW232434   4.716   2.915   3.865  0.8959 -0.7225 -0.7340
 8167SOL    HW332435   4.629   2.792   3.877 -1.3096  0.9864  2.1175
 8167SOL    MW432436   4.645   2.871   3.842 -0.0378  0.0804  0.4945
 8168SOL     OW32437   0.651   2.691   1.298 -0.0945 -0.0775 -0.0362
 8168SOL    HW232438   0.577   2.746   1.275 -0.7551 -0.2321  1.5962
 8168SOL    HW332439   0.709   2.696   1.222 -2.1869 -0.7292 -1.7536
 8168SOL    MW432440   0.649   2.699   1.285 -0.4577 -0.1839 -0.0474
 8169SOL     OW32441   0.182   4.150   0.131 -0.9990 -0.0174  0.5562
 8169SOL    HW232442   0.197   4.065   0.089  0.7423  1.0420 -1.1328
 8169SOL    HW332443   0.087   4.163   0.126 -1.1850 -1.3873 -0.0721
 8169SOL    MW432444   0.171   4.140   0.125 -0.7938 -0.0584  0.2504
 8170SOL     OW32445   4.872   4.749   0.809 -0.0648  0.7583  0.0626
 8170SOL    HW232446   4.964   4.776   0.819  0.2009  0.2007 -0.8293
 8170SOL    HW332447   4.856   4.752   0.715 -1.0587  1.1440  0.2373
 8170SOL    MW432448   4.882   4.753   0.798 -0.1609  0.7356 -0.0321
 8171SOL     OW32449   1.165   3.678   2.062  0.4162  0.2959 -0.6610
 8171SOL    HW232450   1.215   3.750   2.101 -0.6942  0.4142  0.6635
 8171SOL    HW332451   1.127   3.715   1.982  0.0144  1.1497 -0.0930
 8171SOL    MW432452   1.166   3.692   2.057  0.2167  0.4242 -0.4113
 8172SOL     OW32453   2.540   3.274   4.871 -0.6212 -0.0180 -0.3220
 8172SOL    HW232454   2.525   3.333   4.945  0.3393  1.0470 -0.9411
 8172SOL    HW332455   2.611   3.217   4.900 -0.9174 -0.2557 -0.0625
 8172SOL    MW432456   2.548   3.274   4.884 -0.5336  0.0911 -0.3695
 8173SOL     OW32457   2.472   1.426   2.806 -0.0536  0.2441 -0.3160
 8173SOL    HW232458   2.536   1.488   2.772 -0.6090  0.2704 -1.3484
 8173SOL    HW332459   2.515   1.341   2.799 -0.3089  0.1948 -1.5226
 8173SOL    MW432460   2.486   1.423   2.801 -0.1606  0.2410 -0.6114
 8174SOL     OW32461   6.243   4.799   0.205  0.1972 -0.1492 -0.5902
 8174SOL    HW232462   6.286   4.721   0.242 -0.6222 -1.1654 -1.7143
 8174SOL    HW332463   6.215   4.772   0.118  0.6327  1.6862 -1.3421
 8174SOL    MW432464   6.245   4.785   0.198  0.1465 -0.0412 -0.8377
 8175SOL     OW32465   3.189   2.196   0.945  0.4691 -0.2226 -0.4765
 8175SOL    HW232466   3.120   2.226   1.004 -0.4283 -1.9585 -0.5879
 8175SOL    HW332467   3.144   2.145   0.878  1.8137 -1.0672 -0.7786
 8175SOL    MW432468   3.174   2.193   0.944  0.5281 -0.5631 -0.5311
 8176SOL     OW32469   2.772   5.939   5.761 -0.2915 -0.3535 -0.3529
 8176SOL    HW232470   2.814   6.011   5.714 -1.5401 -0.4006 -1.5845
 8176SOL    HW332471   2.813   5.860   5.727  0.8149 -0.2924  0.7342
 8176SOL    MW432472   2.783   5.938   5.751 -0.3102 -0.3517 -0.3720
 8177SOL     OW32473   3.397   4.618   0.526 -0.2745  0.2491  0.1972
 8177SOL    HW232474   3.311   4.642   0.493  0.5463  1.1516 -1.3873
 8177SOL    HW332475   3.415   4.682   0.595 -0.7451  0.2176  0.3532
 8177SOL    MW432476   3.388   4.629   0.531 -0.2283  0.3640  0.0087
 8178SOL     OW32477   1.325   0.291   3.128  0.7987  0.4306  0.0283
 8178SOL    HW232478   1.400   0.237   3.105  1.3979  0.5121  1.6817
 8178SOL    HW332479   1.251   0.231   3.126  0.7822  0.4399 -2.0523
 8178SOL    MW432480   1.325   0.276   3.125  0.8756  0.4426 -0.0281
 8179SOL     OW32481   5.651   4.528   1.716  0.4768  0.0312  0.1585
 8179SOL    HW232482   5.604   4.518   1.799  1.3981 -0.7834  0.6123
 8179SOL    HW332483   5.669   4.621   1.709  1.7170 -0.0503  1.6612
 8179SOL    MW432484   5.647   4.539   1.726  0.7619 -0.0871  0.4167
 8180SOL     OW32485   5.455   6.167   1.434  0.0007  0.1596 -0.0923
 8180SOL    HW232486   5.360   6.153   1.433 -0.0915  0.5761  1.1783
 8180SOL    HW332487   5.467   6.255   1.399 -0.2004  0.6171  0.9581
 8180SOL    MW432488   5.444   6.176   1.429 -0.0380  0.2749  0.2139
 8181SOL     OW32489   6.161   0.407   6.314 -0.4235  0.2221  0.1796
 8181SOL    HW232490   6.160   0.364   6.400 -1.6565  0.5021  0.3270
 8181SOL    HW332491   6.194   0.340   6.254 -0.1782 -0.1914  0.7612
 8181SOL    MW432492   6.165   0.392   6.318 -0.5538  0.2045  0.2758
 8182SOL     OW32493   5.772   4.097   6.136 -0.0389  0.6318 -0.2821
 8182SOL    HW232494   5.844   4.084   6.075  1.4341 -0.0667  1.4958
 8182SOL    HW332495   5.724   4.015   6.135 -0.5490  0.9288 -1.1158
 8182SOL    MW432496   5.775   4.085   6.128  0.0881  0.5788 -0.1575
 8183SOL     OW32497   0.742   3.079   5.376 -0.2882  0.1225 -0.2028
 8183SOL    HW232498   0.834   3.058   5.397 -0.2513 -0.0373 -0.5237
 8183SOL    HW332499   0.713   3.132   5.450 -0.5408 -1.5237  0.9343
 8183SOL    MW432500   0.750   3.083   5.389 -0.3167 -0.1158 -0.0951
 8184SOL     OW32501   1.210   1.292   5.858 -0.0880 -0.1524  0.2822
 8184SOL    HW232502   1.305   1.297   5.858 -0.0435  0.0863 -2.0447
 8184SOL    HW332503   1.189   1.220   5.798 -1.3878 -0.4364  1.0232
 8184SOL    MW432504   1.220   1.283   5.850 -0.2536 -0.1584  0.0730
 8185SOL     OW32505   1.330   4.485   4.773 -0.7798 -0.2242 -0.3584
 8185SOL    HW232506   1.363   4.407   4.818  1.7241  0.4923 -0.8498
 8185SOL    HW332507   1.296   4.452   4.690  1.3686 -0.7161 -1.0986
 8185SOL    MW432508   1.330   4.470   4.768 -0.1660 -0.1946 -0.5209
 8186SOL     OW32509   6.282   2.317   0.018 -0.0619  0.0219  0.5631
 8186SOL    HW232510   6.220   2.321   0.091 -0.1020 -0.4234  0.5549
 8186SOL    HW332511   6.227   2.317  -0.060 -0.0260  0.2693  0.5357
 8186SOL    MW432512   6.267   2.318   0.018 -0.0624 -0.0042  0.5584
 8187SOL     OW32513   3.555   2.739   3.989 -0.8997  0.2952  0.3209
 8187SOL    HW232514   3.571   2.767   3.899 -1.8170 -1.0334 -0.2856
 8187SOL    HW332515   3.483   2.677   3.982  0.9374 -2.1369  1.5929
 8187SOL    MW432516   3.548   2.734   3.976 -0.7783 -0.2010  0.4087
 8188SOL     OW32517   1.851   4.085   2.539 -0.8938  0.0130 -0.2555
 8188SOL    HW232518   1.844   4.015   2.603  2.7950 -0.5733 -0.2625
 8188SOL    HW332519   1.912   4.051   2.473 -1.1649  2.2064 -1.7541
 8188SOL    MW432520   1.858   4.071   2.539 -0.4429  0.2251 -0.4542
 8189SOL     OW32521   5.401   1.847   0.046 -0.4014 -0.5656  0.0192
 8189SOL    HW232522   5.410   1.938   0.018 -0.5185 -0.9369 -1.3121
 8189SOL    HW332523   5.313   1.823   0.020 -0.1574 -1.2418 -0.2007
 8189SOL    MW432524   5.391   1.856   0.039 -0.3846 -0.7038 -0.1855
 8190SOL     OW32525   2.763   5.024   4.457 -0.5278  0.0867  0.0679
 8190SOL    HW232526   2.678   5.045   4.496 -0.1942  0.8514  0.4165
 8190SOL    HW332527   2.747   5.030   4.363 -0.6769  1.0669  0.1367
 8190SOL    MW432528   2.749   5.028   4.450 -0.5035  0.3169  0.1229
 8191SOL     OW32529   3.193   4.255   4.774 -0.0804 -0.0875 -0.0788
 8191SOL    HW232530   3.199   4.171   4.726 -0.1754 -0.6473  0.8719
 8191SOL    HW332531   3.174   4.319   4.706 -1.4339 -1.0411 -0.6541
 8191SOL    MW432532   3.192   4.252   4.758 -0.2715 -0.2872 -0.0293
 8192SOL     OW32533   0.565   4.237   6.211 -0.2162  0.0455  0.7520
 8192SOL    HW232534   0.479   4.231   6.171  0.1665 -0.5674 -0.0275
 8192SOL    HW332535   0.571   4.326   6.245 -0.7540  0.4206 -0.1234
 8192SOL    MW432536   0.555   4.248   6.210 -0.2367  0.0142  0.5336
 8193SOL     OW32537   2.464   5.707   1.789  0.0686  0.1664  0.4375
 8193SOL    HW232538   2.418   5.627   1.766 -0.2434  0.5328 -0.2480
 8193SOL    HW332539   2.421   5.775   1.737  1.6892  0.4505 -0.6187
 8193SOL    MW432540   2.452   5.705   1.779  0.2413  0.2523  0.2077
 8194SOL     OW32541   1.072   2.996   6.178 -0.1720  0.3764 -0.2617
 8194SOL    HW232542   1.001   3.059   6.195 -0.4284 -0.0574  0.3152
 8194SOL    HW332543   1.133   3.009   6.250  0.9311  1.5496 -1.3692
 8194SOL    MW432544   1.071   3.006   6.190 -0.0603  0.4739 -0.3317
 8195SOL     OW32545   2.739   4.545   4.848 -0.7437  0.1782  0.4507
 8195SOL    HW232546   2.658   4.586   4.878 -0.7925  1.1510 -0.9254
 8195SOL    HW332547   2.801   4.557   4.920 -1.3519  0.8841  0.8653
 8195SOL    MW432548   2.737   4.552   4.861 -0.8304  0.3997  0.3239
 8196SOL     OW32549   3.447   1.975   4.639  0.1991 -0.6533  0.6109
 8196SOL    HW232550   3.466   2.069   4.645  1.8256 -0.8157 -0.9622
 8196SOL    HW332551   3.533   1.933   4.640 -0.2700 -1.8644 -1.7260
 8196SOL    MW432552   3.461   1.982   4.640  0.3518 -0.8345  0.0950
 8197SOL     OW32553   3.462   4.845   2.544  0.0707 -0.1774  0.1002
 8197SOL    HW232554   3.418   4.884   2.619 -1.8869 -0.8802 -0.6283
 8197SOL    HW332555   3.392   4.824   2.482  1.3019 -2.2163 -0.7301
 8197SOL    MW432556   3.447   4.847   2.546 -0.0251 -0.5391 -0.1055
 8198SOL     OW32557   5.381   4.614   0.338 -0.2035  0.5460 -0.2095
 8198SOL    HW232558   5.310   4.678   0.344 -0.2772  0.3899  0.8688
 8198SOL    HW332559   5.342   4.532   0.371 -0.2484 -0.1950 -2.0013
 8198SOL    MW432560   5.367   4.611   0.343 -0.2191  0.4277 -0.3037
 8199SOL     OW32561   4.633   1.263   2.476 -0.5166  0.6017  0.1128
 8199SOL    HW232562   4.586   1.180   2.481 -2.3829  1.6170  0.3315
 8199SOL    HW332563   4.585   1.313   2.410  1.5260  0.9619 -1.1852
 8199SOL    MW432564   4.621   1.258   2.468 -0.4933  0.7832 -0.0296
 8200SOL     OW32565   5.896   4.501   5.384 -0.2451 -0.3714 -0.0357
 8200SOL    HW232566   5.873   4.422   5.433 -3.1884  0.5686  0.3097
 8200SOL    HW332567   5.956   4.548   5.442  1.3807 -2.1516 -0.1481
 8200SOL    MW432568   5.901   4.496   5.399 -0.4189 -0.4822 -0.0050
 8201SOL     OW32569   6.154   0.851   1.954  0.2833  0.1029  0.3063
 8201SOL    HW232570   6.072   0.846   1.904  0.6321 -3.6044 -0.1693
 8201SOL    HW332571   6.162   0.943   1.978 -3.6259  0.7623 -0.2755
 8201SOL    MW432572   6.144   0.863   1.951 -0.1864 -0.2993  0.1668
 8202SOL     OW32573   1.876   4.651   0.440  0.0817 -0.0613  0.0735
 8202SOL    HW232574   1.910   4.593   0.508  1.8030  2.2540  1.3178
 8202SOL    HW332575   1.932   4.636   0.365 -0.3195 -0.9222 -0.0616
 8202SOL    MW432576   1.888   4.642   0.439  0.2559  0.1306  0.2198
 8203SOL     OW32577   5.682   4.991   5.087  0.1895  0.1143  0.2514
 8203SOL    HW232578   5.741   5.011   5.160 -0.0309 -0.4375  0.5847
 8203SOL    HW332579   5.699   5.061   5.023 -1.1401  1.8548  1.6957
 8203SOL    MW432580   5.692   5.003   5.088 -0.0150  0.2711  0.4859
 8204SOL     OW32581   0.343   6.121   5.743 -0.4372  0.3586 -0.6980
 8204SOL    HW232582   0.376   6.211   5.750  2.4247 -0.6154 -0.6196
 8204SOL    HW332583   0.248   6.130   5.755 -0.3463  3.4202 -1.3272
 8204SOL    MW432584   0.335   6.134   5.745 -0.0476  0.6341 -0.7706
 8205SOL     OW32585   3.550   3.584   4.784  0.3011 -0.5510 -0.2657
 8205SOL    HW232586   3.524   3.673   4.808  3.0175  0.4018 -0.6049
 8205SOL    HW332587   3.484   3.556   4.720 -0.2620  1.4451 -0.6011
 8205SOL    MW432588   3.538   3.592   4.778  0.5852 -0.1619 -0.3547
 8206SOL     OW32589   2.348   0.036   3.671 -0.0347 -0.0878  0.2175
 8206SOL    HW232590   2.352  -0.059   3.681  0.7566 -0.1927 -0.9025
 8206SOL    HW332591   2.267   0.052   3.622  0.6017 -0.3488 -0.9742
 8206SOL    MW432592   2.338   0.026   3.666  0.1537 -0.1361 -0.0875
 8207SOL     OW32593   1.925   4.225   4.933  0.5421  0.0694 -0.4535
 8207SOL    HW232594   1.989   4.154   4.929 -1.0360 -1.5003  0.6403
 8207SOL    HW332595   1.948   4.282   4.860  3.6376  0.0219  0.3368
 8207SOL    MW432596   1.937   4.223   4.923  0.7423 -0.1440 -0.2049
 8208SOL     OW32597   2.359   0.719   4.133 -0.2626  0.2693  0.0357
 8208SOL    HW232598   2.395   0.773   4.063  0.9591 -0.3748  0.1433
 8208SOL    HW332599   2.356   0.631   4.096 -0.2875  0.0477  0.5627
 8208SOL    MW432600   2.363   0.715   4.119 -0.1047  0.1551  0.1195
 8209SOL     OW32601   1.364   0.033   5.072  0.2012  0.3874  0.2645
 8209SOL    HW232602   1.391   0.054   5.161  0.8800 -0.4272  0.2671
 8209SOL    HW332603   1.283  -0.016   5.081  0.8023 -0.5926  0.5164
 8209SOL    MW432604   1.357   0.029   5.085  0.3701  0.1506  0.2980
 8210SOL     OW32605   4.419   1.523   6.306 -0.3007  0.7555 -0.2430
 8210SOL    HW232606   4.436   1.480   6.222 -1.6779  1.1283 -0.7463
 8210SOL    HW332607   4.325   1.512   6.320 -0.5158  2.6685  0.1223
 8210SOL    MW432608   4.409   1.516   6.297 -0.5108  1.0571 -0.2612
 8211SOL     OW32609   4.862   1.251   6.068 -0.8345 -0.2826 -0.0767
 8211SOL    HW232610   4.831   1.340   6.083  0.8345  0.0043  2.0307
 8211SOL    HW332611   4.809   1.197   6.127  0.3536 -0.2262  1.0700
 8211SOL    MW432612   4.851   1.255   6.078 -0.4575 -0.2373  0.3526
 8212SOL     OW32613   5.155   0.426   6.231  0.0512 -0.2353 -0.5478
 8212SOL    HW232614   5.153   0.359   6.163  1.3443 -0.4519 -0.3889
 8212SOL    HW332615   5.248   0.446   6.243 -0.3080  2.0780 -1.0743
 8212SOL    MW432616   5.167   0.420   6.224  0.1744  0.0414 -0.5963
 8213SOL     OW32617   0.353   0.782   0.027 -0.1849 -0.2214 -0.1497
 8213SOL    HW232618   0.446   0.795   0.007  0.1520 -0.4853  1.1581
 8213SOL    HW332619   0.307   0.822  -0.048  0.9661 -0.0005 -0.7699
 8213SOL    MW432620   0.360   0.789   0.014  0.0114 -0.2271 -0.0590
 8214SOL     OW32621   5.678   1.345   5.463 -0.7748  0.5521  0.5464
 8214SOL    HW232622   5.745   1.410   5.482 -1.7693  1.5300  0.7737
 8214SOL    HW332623   5.624   1.384   5.394  1.1828 -1.8281 -2.6352
 8214SOL    MW432624   5.680   1.359   5.456 -0.6477  0.3671  0.1566
 8215SOL     OW32625   0.350   1.474   0.250 -0.1659 -0.4425 -0.7669
 8215SOL    HW232626   0.269   1.499   0.293  0.1701 -0.2718 -0.2253
 8215SOL    HW332627   0.345   1.378   0.245 -0.9231 -0.3680 -1.7969
 8215SOL    MW432628   0.339   1.464   0.255 -0.2214 -0.4101 -0.8314
 8216SOL     OW32629   6.309   6.050   0.845 -0.9080 -0.3153  0.3411
 8216SOL    HW232630   6.343   5.985   0.907 -1.4874 -0.8034  0.1598
 8216SOL    HW332631   6.223   6.074   0.881  0.0389  1.7353  1.4089
 8216SOL    MW432632   6.302   6.045   0.858 -0.8595 -0.1092  0.4581
 8217SOL     OW32633   2.921   2.412   4.512  0.4999 -0.0836  0.2555
 8217SOL    HW232634   2.869   2.451   4.442 -0.8365 -0.8829  0.7703
 8217SOL    HW332635   2.978   2.483   4.542  0.2490  0.5929 -0.8380
 8217SOL    MW432636   2.922   2.427   4.507  0.2905 -0.0998  0.1792
 8218SOL     OW32637   5.285   3.936   4.858  0.2204 -0.0435 -0.0020
 8218SOL    HW232638   5.249   3.916   4.771  1.5299 -2.0709 -0.1504
 8218SOL    HW332639   5.255   3.864   4.913  0.9541  0.2290  0.7649
 8218SOL    MW432640   5.276   3.923   4.853  0.4900 -0.2751  0.0796
 8219SOL     OW32641   1.560   0.579   2.029  0.4916 -0.1167  0.3774
 8219SOL    HW232642   1.488   0.554   2.087 -0.3358  2.3229  0.5091
 8219SOL    HW332643   1.637   0.537   2.068 -0.8873 -3.7888 -0.4245
 8219SOL    MW432644   1.561   0.570   2.042  0.2005 -0.2793  0.2890
 8220SOL     OW32645   4.583   5.776   0.697  0.1648 -0.1891 -0.3733
 8220SOL    HW232646   4.662   5.730   0.670  0.0426 -1.2906  1.0260
 8220SOL    HW332647   4.588   5.779   0.793 -0.7511  1.0770 -0.3378
 8220SOL    MW432648   4.594   5.770   0.707  0.0279 -0.1674 -0.1840
 8221SOL     OW32649   1.684   6.413   3.814  0.3384  0.3406  0.5381
 8221SOL    HW232650   1.596   6.430   3.781 -0.0950 -0.3577  1.2990
 8221SOL    HW332651   1.736   6.489   3.785 -0.7205  1.2246  0.8766
 8221SOL    MW432652   1.679   6.426   3.806  0.1415  0.3651  0.6831
 8222SOL     OW32653   4.671   4.121   3.186  0.2015 -0.4209  0.2619
 8222SOL    HW232654   4.695   4.034   3.155 -0.4116 -0.6254  0.3552
 8222SOL    HW332655   4.679   4.115   3.281  0.7637 -0.1896  0.2326
 8222SOL    MW432656   4.675   4.109   3.194  0.1948 -0.4174  0.2703
 8223SOL     OW32657   0.215   6.137   0.832  0.1916 -0.6036 -0.1237
 8223SOL    HW232658   0.135   6.186   0.814  0.0016 -1.1114 -0.7106
 8223SOL    HW332659   0.276   6.201   0.867 -1.1514 -0.5971  2.3840
 8223SOL    MW432660   0.212   6.152   0.834 -0.0107 -0.6697  0.1297
 8224SOL     OW32661   2.111   5.622   4.680 -0.5602  0.1223 -0.3255
 8224SOL    HW232662   2.073   5.612   4.593  1.8922 -0.1200 -1.4369
 8224SOL    HW332663   2.138   5.714   4.684  0.3864 -0.1516 -0.2840
 8224SOL    MW432664   2.109   5.633   4.669 -0.1117  0.0542 -0.4666
 8225SOL     OW32665   0.138   2.754   6.380 -0.1583 -0.4067  0.4133
 8225SOL    HW232666   0.218   2.706   6.401 -0.8952 -1.6967  0.3488
 8225SOL    HW332667   0.154   2.842   6.414  1.3089 -0.6178  0.3329
 8225SOL    MW432668   0.151   2.759   6.387 -0.0619 -0.6048  0.3942
 8226SOL     OW32669   1.243   5.886   5.710  0.1297 -0.0860 -0.2291
 8226SOL    HW232670   1.301   5.843   5.773 -1.3926 -0.7332  0.7690
 8226SOL    HW332671   1.266   5.846   5.626  1.2268 -0.2075  0.1105
 8226SOL    MW432672   1.254   5.875   5.707  0.0736 -0.1874 -0.0526
 8227SOL     OW32673   1.488   4.243   4.465  0.0022 -0.3070  0.2701
 8227SOL    HW232674   1.406   4.256   4.513 -0.7870 -1.1976 -0.7763
 8227SOL    HW332675   1.469   4.275   4.377  1.1745  0.5746  0.3103
 8227SOL    MW432676   1.475   4.249   4.460  0.0527 -0.3082  0.1374
 8228SOL     OW32677   0.433   4.866   2.416  0.1805 -0.3452  0.6875
 8228SOL    HW232678   0.453   4.799   2.351 -0.4322 -1.8915  2.0155
 8228SOL    HW332679   0.338   4.860   2.428  0.2007  0.3387  1.2771
 8228SOL    MW432680   0.423   4.856   2.409  0.1023 -0.4590  0.9405
 8229SOL     OW32681   2.404   2.205   5.146 -0.2572  0.2100 -0.1509
 8229SOL    HW232682   2.424   2.252   5.227  0.4413 -0.1221 -0.1232
 8229SOL    HW332683   2.312   2.180   5.155 -0.1524  0.0644  0.5941
 8229SOL    MW432684   2.395   2.208   5.158 -0.1512  0.1470 -0.0490
 8230SOL     OW32685   4.930   0.985   5.867 -0.2710  0.3662 -0.2704
 8230SOL    HW232686   4.966   0.918   5.809  2.6517  0.1180  1.6152
 8230SOL    HW332687   4.860   0.940   5.915 -1.0855 -0.0961 -1.8181
 8230SOL    MW432688   4.926   0.970   5.866  0.0071  0.2725 -0.2258
 8231SOL     OW32689   1.235   1.511   1.438 -0.2619 -1.0602  0.7310
 8231SOL    HW232690   1.253   1.555   1.521  0.5821 -2.1832  1.1661
 8231SOL    HW332691   1.159   1.557   1.403 -0.1038 -0.0096  1.7076
 8231SOL    MW432692   1.227   1.523   1.444 -0.1297 -1.0698  0.9173
 8232SOL     OW32693   1.169   2.270   2.798 -0.1816  0.0750  0.1176
 8232SOL    HW232694   1.205   2.184   2.817  1.9575  1.3327  2.4366
 8232SOL    HW332695   1.177   2.280   2.703  1.0632 -1.6331  0.0074
 8232SOL    MW432696   1.175   2.260   2.788  0.2648  0.0156  0.4090
 8233SOL     OW32697   0.536   4.517   1.421 -0.1670 -0.4666  0.3060
 8233SOL    HW232698   0.625   4.518   1.454 -0.5838  0.3431  1.4938
 8233SOL    HW332699   0.542   4.479   1.333  1.7448  2.1199 -0.7952
 8233SOL    MW432700   0.548   4.512   1.414  0.0303 -0.0185  0.3174
 8234SOL     OW32701   2.914   4.270   3.406 -0.1436 -0.1515  0.0746
 8234SOL    HW232702   2.907   4.353   3.452  0.1467 -0.6475  1.0494
 8234SOL    HW332703   3.008   4.254   3.399 -0.1910 -0.2325 -0.4246
 8234SOL    MW432704   2.926   4.279   3.411 -0.1116 -0.2276  0.1374
 8235SOL     OW32705   5.943   2.293   2.159  0.4857  0.5494 -0.2090
 8235SOL    HW232706   6.024   2.262   2.200  1.1285  0.7149 -1.3031
 8235SOL    HW332707   5.894   2.333   2.230  1.7512  1.1982  0.3324
 8235SOL    MW432708   5.947   2.294   2.173  0.7375  0.6569 -0.2819
 8236SOL     OW32709   0.412   4.323   4.235  0.0642  0.5348  0.0358
 8236SOL    HW232710   0.373   4.286   4.156 -0.7874  1.2162  0.1198
 8236SOL    HW332711   0.408   4.418   4.220  0.6336  0.6419  0.5536
 8236SOL    MW432712   0.406   4.331   4.222  0.0270  0.6389  0.1152
 8237SOL     OW32713   4.527   4.804   3.382 -0.1594 -0.3504 -0.0022
 8237SOL    HW232714   4.527   4.711   3.363  1.1844 -0.3762  0.0366
 8237SOL    HW332715   4.589   4.842   3.319  1.0178  0.1751  1.4051
 8237SOL    MW432716   4.535   4.797   3.371  0.1732 -0.2845  0.1886
 8238SOL     OW32717   3.872   2.552   3.457 -0.3176 -0.2212 -0.2151
 8238SOL    HW232718   3.894   2.477   3.402 -0.7913  1.0655 -2.2582
 8238SOL    HW332719   3.848   2.621   3.396  1.1707  1.9963  1.5462
 8238SOL    MW432720   3.871   2.551   3.442 -0.1838  0.2411 -0.2523
 8239SOL     OW32721   1.082   1.493   2.322  0.1721 -0.0640 -0.2651
 8239SOL    HW232722   1.034   1.575   2.325  2.2994  1.2430  0.4201
 8239SOL    HW332723   1.101   1.472   2.413  0.3472 -0.8744 -0.4782
 8239SOL    MW432724   1.078   1.501   2.334  0.4759  0.0016 -0.2028
 8240SOL     OW32725   1.951   0.772   6.045  0.2290  0.0113 -0.7675
 8240SOL    HW232726   1.928   0.825   5.969 -1.4179 -1.4236 -1.3138
 8240SOL    HW332727   2.031   0.726   6.019  0.6978  0.8836 -0.9188
 8240SOL    MW432728   1.959   0.773   6.032  0.0735 -0.0630 -0.8595
 8241SOL     OW32729   1.737   4.667   1.435 -0.7708 -0.1378 -0.4390
 8241SOL    HW232730   1.748   4.762   1.435 -0.5829 -0.1371 -2.3285
 8241SOL    HW332731   1.801   4.636   1.499  0.8839  0.8515 -1.5315
 8241SOL    MW432732   1.747   4.675   1.444 -0.5277 -0.0072 -0.8324
 8242SOL     OW32733   5.194   0.719   5.926 -0.1104  0.5122 -0.0676
 8242SOL    HW232734   5.269   0.751   5.877 -0.7613  0.2939 -1.2515
 8242SOL    HW332735   5.196   0.624   5.914 -0.3501  0.4679  0.2238
 8242SOL    MW432736   5.204   0.710   5.918 -0.2279  0.4776 -0.1853
 8243SOL     OW32737   5.745   3.932   1.197 -0.2360 -0.0930 -0.1095
 8243SOL    HW232738   5.818   3.962   1.250 -0.4414  0.5382 -0.1785
 8243SOL    HW332739   5.679   3.905   1.262 -0.3160  0.2583 -0.0422
 8243SOL    MW432740   5.746   3.932   1.213 -0.2737  0.0366 -0.1098
 8244SOL     OW32741   5.677   4.326   3.983 -0.0710 -0.1166  0.1567
 8244SOL    HW232742   5.768   4.300   3.968 -0.1427  0.4485 -1.5124
 8244SOL    HW332743   5.636   4.319   3.896 -1.0342  1.7847  0.4089
 8244SOL    MW432744   5.684   4.321   3.969 -0.2075  0.2088 -0.0302
 8245SOL     OW32745   1.619   1.924   5.510  0.1916 -0.0256  0.1976
 8245SOL    HW232746   1.552   1.858   5.529  0.1405 -0.1966 -0.5695
 8245SOL    HW332747   1.701   1.874   5.509  0.1729 -0.0452 -0.2123
 8245SOL    MW432748   1.621   1.908   5.512  0.1824 -0.0508  0.0423
 8246SOL     OW32749   5.784   0.383   3.550 -0.0178  0.7652 -0.0416
 8246SOL    HW232750   5.809   0.448   3.485  0.7501 -0.0841 -0.6166
 8246SOL    HW332751   5.698   0.412   3.581 -1.0973  0.4178 -2.5027
 8246SOL    MW432752   5.776   0.395   3.546 -0.0589  0.6073 -0.4422
 8247SOL     OW32753   0.811   5.991   5.044 -0.4786  0.0136 -0.2248
 8247SOL    HW232754   0.721   6.019   5.064 -0.9655 -1.9464  0.5621
 8247SOL    HW332755   0.836   5.937   5.118  0.4858 -1.3695 -1.5049
 8247SOL    MW432756   0.802   5.988   5.056 -0.4156 -0.4274 -0.2898
 8248SOL     OW32757   5.714   3.804   6.098 -0.5955 -0.6936 -0.4162
 8248SOL    HW232758   5.765   3.777   6.175 -1.4942 -0.6034  0.2417
 8248SOL    HW332759   5.634   3.751   6.104  0.5186 -2.9074 -2.9524
 8248SOL    MW432760   5.710   3.793   6.109 -0.5671 -0.9738 -0.6640
 8249SOL     OW32761   1.775   5.275   5.756 -0.6584 -0.2994 -0.2522
 8249SOL    HW232762   1.719   5.208   5.716 -1.3435 -0.4673  0.9402
 8249SOL    HW332763   1.733   5.358   5.733  0.3553 -0.2240 -1.9826
 8249SOL    MW432764   1.762   5.277   5.748 -0.6150 -0.3116 -0.3231
 8250SOL     OW32765   6.177   4.461   0.366 -0.3265  0.3604 -0.2144
 8250SOL    HW232766   6.120   4.392   0.332 -1.5670  1.8128 -1.1952
 8250SOL    HW332767   6.142   4.481   0.453  1.4620 -1.7809  1.1018
 8250SOL    MW432768   6.165   4.454   0.373 -0.2542  0.2695 -0.1702
 8251SOL     OW32769   4.816   5.963   3.035 -0.6697 -0.0231  0.4325
 8251SOL    HW232770   4.909   5.984   3.047 -0.4648 -1.2635  1.2505
 8251SOL    HW332771   4.813   5.909   2.957 -1.2733  3.2763 -2.0384
 8251SOL    MW432772   4.828   5.958   3.026 -0.7223  0.2486  0.2144
 8252SOL     OW32773   2.865   2.406   5.055 -0.0651  0.3158 -0.1278
 8252SOL    HW232774   2.833   2.423   4.966 -0.3540  0.2092 -0.0469
 8252SOL    HW332775   2.829   2.320   5.077 -1.0337  0.8705  0.5584
 8252SOL    MW432776   2.856   2.397   5.046 -0.2310  0.3750 -0.0266
 8253SOL     OW32777   6.273   0.641   3.229  0.0953 -0.1773  0.2679
 8253SOL    HW232778   6.248   0.592   3.307 -1.3961 -0.6105 -0.4456
 8253SOL    HW332779   6.265   0.733   3.254  0.1051 -0.3096  0.7636
 8253SOL    MW432780   6.268   0.646   3.242 -0.1002 -0.2519  0.2391
 8254SOL     OW32781   1.979   3.138   0.044 -0.0019  0.1771 -0.1766
 8254SOL    HW232782   1.917   3.066   0.054  0.1645 -0.0676 -0.8523
 8254SOL    HW332783   2.055   3.111   0.096 -0.3359  0.3403  0.4061
 8254SOL    MW432784   1.981   3.125   0.052 -0.0240  0.1663 -0.1889
 8255SOL     OW32785   3.422   0.258   1.915 -0.1515 -0.2322 -0.0516
 8255SOL    HW232786   3.444   0.322   1.848 -0.2745  0.7259  0.8086
 8255SOL    HW332787   3.406   0.177   1.866 -1.0572  0.6422 -1.2579
 8255SOL    MW432788   3.423   0.256   1.899 -0.2872  0.0096 -0.0973
 8256SOL     OW32789   0.361   0.078   5.548  0.5563  0.2416  0.1855
 8256SOL    HW232790   0.365   0.056   5.641  0.0333 -3.4203 -0.4824
 8256SOL    HW332791   0.269   0.063   5.525  0.8165  0.4509 -1.0370
 8256SOL    MW432792   0.349   0.073   5.557  0.5216 -0.2140 -0.0639
 8257SOL     OW32793   4.200   2.380   2.036 -0.2140 -0.1764  0.0823
 8257SOL    HW232794   4.277   2.389   1.979  0.6910 -1.2640  1.0777
 8257SOL    HW332795   4.230   2.324   2.108 -1.0874  1.7620  2.0556
 8257SOL    MW432796   4.214   2.374   2.038 -0.2098 -0.0642  0.4740
 8258SOL     OW32797   5.848   5.935   3.400 -0.4849 -0.2441 -0.1872
 8258SOL    HW232798   5.852   5.845   3.368 -0.2485  0.3542 -1.9023
 8258SOL    HW332799   5.759   5.944   3.436 -0.6848 -0.9872 -0.4836
 8258SOL    MW432800   5.837   5.924   3.401 -0.4801 -0.2632 -0.4526
 8259SOL     OW32801   1.437   0.506   1.044  0.1853  0.6635 -0.2171
 8259SOL    HW232802   1.385   0.546   1.113 -0.1307 -0.9159  0.4814
 8259SOL    HW332803   1.396   0.422   1.028  2.3381 -0.5256  0.1753
 8259SOL    MW432804   1.425   0.500   1.051  0.4277  0.2982 -0.0732
 8260SOL     OW32805   4.513   4.223   5.844  0.4779  0.2563 -0.3620
 8260SOL    HW232806   4.508   4.165   5.921  1.1800  1.1433  0.3745
 8260SOL    HW332807   4.429   4.269   5.844  0.3387  0.0056 -0.3296
 8260SOL    MW432808   4.501   4.221   5.854  0.5522  0.3402 -0.2605
 8261SOL     OW32809   0.503   4.498   6.308 -0.6587  0.2158 -0.4975
 8261SOL    HW232810   0.549   4.506   6.392  0.6344  0.0218 -1.1614
 8261SOL    HW332811   0.413   4.477   6.332 -0.1539 -0.5473  0.8300
 8261SOL    MW432812   0.497   4.496   6.323 -0.4215  0.0895 -0.4099
 8262SOL     OW32813   5.571   6.070   2.300 -0.7125  0.5086  0.0318
 8262SOL    HW232814   5.496   6.056   2.357  0.1444  3.3897  2.0865
 8262SOL    HW332815   5.646   6.067   2.358  0.2443  3.1241 -0.9456
 8262SOL    MW432816   5.571   6.068   2.315 -0.4732  1.2338  0.1740
 8263SOL     OW32817   4.149   0.527   4.466 -0.4584  0.3411  0.0533
 8263SOL    HW232818   4.160   0.500   4.558  0.2716 -2.4105 -0.7514
 8263SOL    HW332819   4.080   0.470   4.433  0.0069  0.5868 -1.3798
 8263SOL    MW432820   4.142   0.516   4.474 -0.3007  0.0105 -0.2420
 8264SOL     OW32821   0.558   2.859   2.929  0.1795  0.1651 -0.2947
 8264SOL    HW232822   0.541   2.882   3.021  0.4713  1.2226 -0.4982
 8264SOL    HW332823   0.624   2.921   2.901 -0.2530  0.1559 -1.3691
 8264SOL    MW432824   0.564   2.870   2.938  0.1609  0.3034 -0.4633
 8265SOL     OW32825   1.841   1.507   4.996 -0.2380  0.0380 -0.0944
 8265SOL    HW232826   1.788   1.497   5.075 -0.2905  1.1053  0.0299
 8265SOL    HW332827   1.790   1.463   4.927 -0.0600 -1.1368  0.5049
 8265SOL    MW432828   1.827   1.500   4.997 -0.2215  0.0238  0.0011
 8266SOL     OW32829   3.963   3.810   1.409  0.2859 -0.1459 -0.2103
 8266SOL    HW232830   3.897   3.776   1.348  1.4043  0.0845 -1.5938
 8266SOL    HW332831   4.022   3.861   1.354  1.6694 -0.3995  0.9900
 8266SOL    MW432832   3.962   3.812   1.394  0.6160 -0.1489 -0.2345
 8267SOL     OW32833   4.128   3.484   2.050  0.3140  0.0332  0.3894
 8267SOL    HW232834   4.117   3.403   2.099  0.1609 -0.1618  0.0342
 8267SOL    HW332835   4.041   3.503   2.015  0.8880 -1.1173 -1.8062
 8267SOL    MW432836   4.115   3.476   2.052  0.3695 -0.1443  0.0528
 8268SOL     OW32837   1.278   1.631   3.318 -0.5393 -0.6428 -0.2124
 8268SOL    HW232838   1.224   1.657   3.243  0.2796  0.3407 -0.4886
 8268SOL    HW332839   1.217   1.634   3.393 -0.8824  0.4925 -0.5080
 8268SOL    MW432840   1.263   1.635   3.318 -0.4765 -0.3632 -0.2878
 8269SOL     OW32841   3.736   3.296   0.106 -0.0166 -0.2815  0.8166
 8269SOL    HW232842   3.708   3.228   0.044  0.3151  0.1849  0.1413
 8269SOL    HW332843   3.656   3.317   0.155 -0.1179 -1.1715  1.0575
 8269SOL    MW432844   3.721   3.289   0.104  0.0138 -0.3374  0.7593
 8270SOL     OW32845   1.989   1.541   1.078  0.0437 -0.3230 -0.9020
 8270SOL    HW232846   1.984   1.623   1.029 -1.5168  0.8166  1.0256
 8270SOL    HW332847   2.057   1.557   1.144 -0.1273 -0.6528 -0.6441
 8270SOL    MW432848   1.997   1.554   1.080 -0.1848 -0.2161 -0.6136
 8271SOL     OW32849   1.724   5.750   5.570  0.3406  0.0993 -0.7709
 8271SOL    HW232850   1.638   5.763   5.532 -0.9152 -0.9089  1.5484
 8271SOL    HW332851   1.721   5.796   5.653  0.4383 -3.3590  1.3645
 8271SOL    MW432852   1.713   5.758   5.576  0.1878 -0.4900 -0.1832
 8272SOL     OW32853   4.126   6.157   3.968  0.7546 -0.6173 -0.0142
 8272SOL    HW232854   4.121   6.188   3.877  0.2271  1.2736  0.6132
 8272SOL    HW332855   4.172   6.226   4.015 -2.2749  0.3142  1.8595
 8272SOL    MW432856   4.131   6.170   3.962  0.2853 -0.2449  0.3158
 8273SOL     OW32857   3.290   1.374   1.410 -0.0690 -0.3975 -0.0228
 8273SOL    HW232858   3.295   1.446   1.474 -1.6204  0.4896 -0.8255
 8273SOL    HW332859   3.377   1.370   1.371  0.1632  0.7743  0.3370
 8273SOL    MW432860   3.302   1.383   1.413 -0.2430 -0.1259 -0.0813
 8274SOL     OW32861   4.968   4.818   2.871  0.5060  0.4730  0.7760
 8274SOL    HW232862   4.968   4.748   2.805 -0.8892  0.0333  1.1949
 8274SOL    HW332863   5.033   4.790   2.936  1.0102  0.3006  0.2070
 8274SOL    MW432864   4.976   4.805   2.871  0.3885  0.3923  0.7562
 8275SOL     OW32865   4.035   2.313   5.997 -0.1424 -0.4219 -0.0031
 8275SOL    HW232866   4.106   2.285   6.056  1.0081  0.8277 -0.7349
 8275SOL    HW332867   4.004   2.232   5.957 -0.5016 -1.2179  1.8005
 8275SOL    MW432868   4.041   2.298   5.999 -0.0380 -0.3621  0.1383
 8276SOL     OW32869   4.554   2.614   2.380 -0.0045 -0.2534 -0.0995
 8276SOL    HW232870   4.492   2.632   2.309  0.4353  0.3155 -0.3538
 8276SOL    HW332871   4.640   2.619   2.338  0.2330 -4.6660 -0.5943
 8276SOL    MW432872   4.557   2.617   2.365  0.0849 -0.7605 -0.1983
 8277SOL     OW32873   0.086   1.184   5.489 -0.7514 -0.2402 -0.3399
 8277SOL    HW232874   0.136   1.183   5.571 -0.5071  0.3104 -0.4762
 8277SOL    HW332875   0.071   1.277   5.472  1.6011 -0.1441 -2.3759
 8277SOL    MW432876   0.090   1.196   5.498 -0.4088 -0.1549 -0.6265
 8278SOL     OW32877   6.261   0.386   4.637  0.2561 -0.5098  0.0995
 8278SOL    HW232878   6.257   0.314   4.574  0.1796  0.1973 -0.7278
 8278SOL    HW332879   6.343   0.432   4.615 -0.4873  0.5970 -0.4551
 8278SOL    MW432880   6.271   0.383   4.625  0.1479 -0.2705 -0.0828
 8279SOL     OW32881   6.347   4.547   1.941 -0.4555 -0.1637 -1.1177
 8279SOL    HW232882   6.382   4.525   2.027  1.7546  0.8593 -1.6857
 8279SOL    HW332883   6.281   4.480   1.924  0.0073 -1.1671  0.7803
 8279SOL    MW432884   6.343   4.535   1.950 -0.1029 -0.1611 -0.9422
 8280SOL     OW32885   1.362   0.418   4.477 -0.1730 -0.3116  0.3935
 8280SOL    HW232886   1.317   0.428   4.561  0.5632 -0.8047  0.8543
 8280SOL    HW332887   1.454   0.408   4.500  0.3032  1.4956 -0.5870
 8280SOL    MW432888   1.368   0.418   4.491 -0.0131 -0.1382  0.3250
 8281SOL     OW32889   4.782   1.270   0.392  0.3422 -0.0659  0.0913
 8281SOL    HW232890   4.874   1.260   0.366  0.8025  0.7434  1.3100
 8281SOL    HW332891   4.783   1.260   0.487 -0.8059  0.1325  0.1333
 8281SOL    MW432892   4.794   1.267   0.401  0.2515  0.0671  0.2576
 8282SOL     OW32893   5.380   5.652   3.242  0.1443 -0.3192 -0.1212
 8282SOL    HW232894   5.417   5.740   3.233 -0.6205 -0.0441 -0.6461
 8282SOL    HW332895   5.286   5.666   3.251 -0.1899 -1.1489 -1.8694
 8282SOL    MW432896   5.372   5.666   3.242 -0.0007 -0.3924 -0.4211
 8283SOL     OW32897   1.554   5.308   4.177 -0.0115  0.3593 -0.0236
 8283SOL    HW232898   1.509   5.305   4.092 -0.7567  0.1972  0.3667
 8283SOL    HW332899   1.544   5.219   4.212  0.5092  0.3591  0.1213
 8283SOL    MW432900   1.546   5.296   4.170 -0.0411  0.3379  0.0470
 8284SOL     OW32901   4.303   1.235   3.813  0.9022  0.2312  0.1894
 8284SOL    HW232902   4.241   1.279   3.756  0.1792  1.5077  1.8553
 8284SOL    HW332903   4.341   1.166   3.759 -0.9717  0.2766 -1.2860
 8284SOL    MW432904   4.300   1.232   3.799  0.5595  0.4056  0.2145
 8285SOL     OW32905   5.793   3.034   5.593 -0.2078  0.3317 -0.2733
 8285SOL    HW232906   5.861   3.022   5.658  1.9555 -0.0984 -2.4664
 8285SOL    HW332907   5.738   3.104   5.628  2.9802  2.7035  0.3861
 8285SOL    MW432908   5.794   3.041   5.606  0.4982  0.5879 -0.4756
 8286SOL     OW32909   1.665   2.836   2.172  0.3074  0.2890 -0.1002
 8286SOL    HW232910   1.685   2.792   2.089  1.8400  0.0414  0.3532
 8286SOL    HW332911   1.652   2.764   2.234  0.8231  0.4591  0.2143
 8286SOL    MW432912   1.666   2.821   2.169  0.5777  0.2788  0.0011
 8287SOL     OW32913   4.553   0.656   3.258 -0.0669 -0.3067 -0.0154
 8287SOL    HW232914   4.592   0.578   3.218 -1.7491 -1.4270  0.4167
 8287SOL    HW332915   4.461   0.651   3.235 -0.3793  1.0711  0.8306
 8287SOL    MW432916   4.546   0.645   3.250 -0.3301 -0.2727  0.1532
 8288SOL     OW32917   3.182   5.956   2.975 -0.0465  0.6143 -0.0426
 8288SOL    HW232918   3.243   5.927   3.043  0.4125  2.0018  0.1641
 8288SOL    HW332919   3.238   5.994   2.907 -0.4430 -1.3593 -1.5587
 8288SOL    MW432920   3.198   5.957   2.975 -0.0383  0.5370 -0.2154
 8289SOL     OW32921   4.992   5.589   1.905  0.1408 -0.1581 -0.1723
 8289SOL    HW232922   5.035   5.657   1.955  1.0987 -1.3467  0.6678
 8289SOL    HW332923   5.051   5.514   1.909 -0.8087 -1.0106 -1.1908
 8289SOL    MW432924   5.005   5.588   1.912  0.1419 -0.4274 -0.1958
 8290SOL     OW32925   3.040   3.239   4.257  0.4133 -0.0371  0.0237
 8290SOL    HW232926   3.117   3.245   4.314 -0.0404  1.0427  0.5493
 8290SOL    HW332927   2.969   3.280   4.307 -0.1459  0.3662 -1.0632
 8290SOL    MW432928   3.041   3.245   4.271  0.2797  0.1586 -0.0504
 8291SOL     OW32929   1.270   1.260   1.171  0.2275  0.3674 -0.0745
 8291SOL    HW232930   1.329   1.256   1.247  0.0972 -2.2095 -0.0442
 8291SOL    HW332931   1.328   1.280   1.097  0.8966 -0.3961  0.2253
 8291SOL    MW432932   1.285   1.262   1.171  0.2986 -0.0734 -0.0310
 8292SOL     OW32933   4.211   5.248   0.586  0.9914  0.1589  0.3638
 8292SOL    HW232934   4.117   5.239   0.604  0.9799 -0.0343  0.2106
 8292SOL    HW332935   4.241   5.314   0.648  0.9407 -0.4534  1.0499
 8292SOL    MW432936   4.203   5.255   0.597  0.9832  0.0527  0.4341
 8293SOL     OW32937   4.830   2.654   2.309 -0.0240  0.4442 -0.1892
 8293SOL    HW232938   4.811   2.661   2.403  0.4433 -0.2095 -0.0393
 8293SOL    HW332939   4.836   2.745   2.279  1.6319  0.7094  0.7998
 8293SOL    MW432940   4.828   2.667   2.318  0.2561  0.3929 -0.0390
 8294SOL     OW32941   6.145   3.691   3.772 -0.4555  0.3486 -0.4677
 8294SOL    HW232942   6.122   3.753   3.842  1.8153  0.9895 -0.2188
 8294SOL    HW332943   6.113   3.607   3.803 -0.0861  0.7371  1.0630
 8294SOL    MW432944   6.138   3.688   3.785 -0.1072  0.4844 -0.2329
 8295SOL     OW32945   4.322   0.001   5.684 -0.1932  0.0177 -0.3933
 8295SOL    HW232946   4.380  -0.015   5.610 -0.5579  1.4264 -1.0084
 8295SOL    HW332947   4.234  -0.016   5.650 -0.5936  2.8067 -1.0298
 8295SOL    MW432948   4.318  -0.003   5.670 -0.2942  0.5716 -0.5584
 8296SOL     OW32949   5.035   6.190   4.441 -0.0978  0.3365  0.5986
 8296SOL    HW232950   4.991   6.220   4.520  1.3083  0.5954  1.3192
 8296SOL    HW332951   4.975   6.127   4.402 -1.9811  2.1281  0.4413
 8296SOL    MW432952   5.021   6.186   4.446 -0.1607  0.6071  0.6729
 8297SOL     OW32953   0.673   2.156   3.450 -0.1772 -0.0130 -0.2056
 8297SOL    HW232954   0.649   2.095   3.520  0.0967  1.8871  1.6506
 8297SOL    HW332955   0.703   2.234   3.496  1.2783  0.8575 -2.4821
 8297SOL    MW432956   0.674   2.158   3.465  0.0510  0.3525 -0.2610
 8298SOL     OW32957   3.562   3.632   0.081  0.4052 -0.1473 -0.4081
 8298SOL    HW232958   3.503   3.561   0.106 -0.3511  0.3803 -0.6488
 8298SOL    HW332959   3.626   3.637   0.152  1.2186 -1.8596 -0.9754
 8298SOL    MW432960   3.563   3.624   0.094  0.4128 -0.3036 -0.5147
 8299SOL     OW32961   5.737   2.582   4.828  0.0913  0.4178 -0.1210
 8299SOL    HW232962   5.659   2.632   4.853 -0.6325  0.1886 -1.8206
 8299SOL    HW332963   5.761   2.614   4.741  1.3759 -0.1399 -0.0065
 8299SOL    MW432964   5.730   2.593   4.820  0.1653  0.3140 -0.3301
 8300SOL     OW32965   5.638   1.243   3.123 -0.2031  0.1329 -0.0765
 8300SOL    HW232966   5.699   1.314   3.102 -0.8756  0.5833 -0.6079
 8300SOL    HW332967   5.679   1.195   3.194  0.8051  0.3617 -0.4959
 8300SOL    MW432968   5.651   1.246   3.130 -0.1588  0.2225 -0.2019
 8301SOL     OW32969   6.136   3.497   3.215  0.6823  0.3233 -0.2476
 8301SOL    HW232970   6.220   3.525   3.252 -0.0402  0.8445  1.0461
 8301SOL    HW332971   6.106   3.572   3.165  0.6938  0.3604 -0.1993
 8301SOL    MW432972   6.143   3.510   3.213  0.5885  0.3969 -0.0706
 8302SOL     OW32973   3.324   0.921   1.069 -0.2709 -0.1606 -0.2745
 8302SOL    HW232974   3.343   1.000   1.121 -0.4548 -0.2463 -0.0753
 8302SOL    HW332975   3.284   0.954   0.989 -0.7269 -0.0685 -0.0166
 8302SOL    MW432976   3.321   0.936   1.065 -0.3553 -0.1597 -0.2142
 8303SOL     OW32977   3.671   6.219   3.017 -0.5589  0.8559 -0.1484
 8303SOL    HW232978   3.743   6.269   3.054 -1.9925  2.4484  0.6037
 8303SOL    HW332979   3.647   6.267   2.938 -2.3071  1.7557  0.8736
 8303SOL    MW432980   3.678   6.232   3.012 -0.9787  1.1847  0.0857
 8304SOL     OW32981   5.931   0.947   2.160  0.6080 -0.6357  0.7000
 8304SOL    HW232982   5.885   0.983   2.235 -1.0839 -0.5510 -0.3341
 8304SOL    HW332983   6.021   0.978   2.170 -0.5223  3.3026  0.3096
 8304SOL    MW432984   5.937   0.956   2.171  0.2357 -0.1049  0.5120
 8305SOL     OW32985   1.509   3.276   2.202  0.5154  0.2666 -0.2921
 8305SOL    HW232986   1.454   3.334   2.149 -0.2297  0.0046  0.1857
 8305SOL    HW332987   1.598   3.295   2.172  0.0761 -0.4709 -2.2374
 8305SOL    MW432988   1.514   3.286   2.191  0.3591  0.1347 -0.4857
 8306SOL     OW32989   4.161   3.547   0.139 -0.3463  0.4165 -0.1493
 8306SOL    HW232990   4.216   3.498   0.077 -0.5676 -1.4294  1.0311
 8306SOL    HW332991   4.098   3.482   0.171  0.8635  0.7525  3.3144
 8306SOL    MW432992   4.160   3.532   0.135 -0.2159  0.2173  0.4634
 8307SOL     OW32993   6.131   4.567   5.142 -0.1822 -0.0204 -0.0368
 8307SOL    HW232994   6.095   4.480   5.160 -0.6006  0.1211 -0.1692
 8307SOL    HW332995   6.070   4.627   5.185 -0.0224  0.2179 -0.1443
 8307SOL    MW432996   6.118   4.563   5.150 -0.2163  0.0297 -0.0684
 8308SOL     OW32997   1.269   4.749   1.348 -0.2337  0.3952 -0.0735
 8308SOL    HW232998   1.354   4.786   1.369  0.2609 -0.0894 -1.1649
 8308SOL    HW332999   1.225   4.741   1.433  0.8341  0.5436  0.5139
 8308SOL    MW433000   1.274   4.753   1.362 -0.0275  0.3509 -0.1400
 8309SOL     OW33001   1.802   3.525   1.021  0.0551 -0.6901 -0.3628
 8309SOL    HW233002   1.781   3.457   1.085  1.1141 -0.0426  0.7068
 8309SOL    HW333003   1.895   3.541   1.033 -0.3460  1.6120  0.0613
 8309SOL    MW433004   1.811   3.518   1.031  0.1419 -0.3009 -0.1657
 8310SOL     OW33005   5.129   0.216   6.044 -0.1862  0.3665  0.5351
 8310SOL    HW233006   5.196   0.193   5.980 -0.1432  1.5747  0.1173
 8310SOL    HW333007   5.049   0.176   6.010  0.1076 -0.1591  0.4555
 8310SOL    MW433008   5.127   0.208   6.031 -0.1417  0.4565  0.4695
 8311SOL     OW33009   0.350   3.463   5.126 -0.3177  0.0215  0.2234
 8311SOL    HW233010   0.278   3.519   5.097 -1.4466 -0.4773  1.8948
 8311SOL    HW333011   0.312   3.375   5.126  0.4067 -0.2998  0.7444
 8311SOL    MW433012   0.335   3.458   5.122 -0.3711 -0.0867  0.5127
 8312SOL     OW33013   1.448   4.689   4.063 -0.3958  0.1064  0.2073
 8312SOL    HW233014   1.401   4.628   4.006 -2.2089  0.3925  1.3462
 8312SOL    HW333015   1.447   4.648   4.149  0.4743  0.6614  0.4970
 8312SOL    MW433016   1.442   4.675   4.067 -0.5203  0.2174  0.3958
 8313SOL     OW33017   4.558   0.273   2.173  0.0005 -0.2149 -0.4018
 8313SOL    HW233018   4.532   0.365   2.171  0.2103 -0.1060  0.9946
 8313SOL    HW333019   4.626   0.266   2.105  1.7457  1.2618  1.0719
 8313SOL    MW433020   4.564   0.284   2.164  0.2585 -0.0057 -0.0232
 8314SOL     OW33021   2.198   3.060   0.850  0.0094 -0.5989  0.0143
 8314SOL    HW233022   2.256   3.007   0.905 -0.9204 -2.5399 -0.7557
 8314SOL    HW333023   2.236   3.054   0.762  0.4221  0.8627  0.0749
 8314SOL    MW433024   2.210   3.052   0.845 -0.0588 -0.6621 -0.0793
 8315SOL     OW33025   1.090   0.691   0.964  0.0731  0.4036  0.2304
 8315SOL    HW233026   1.134   0.663   0.884 -0.0321 -0.9671  0.6357
 8315SOL    HW333027   1.155   0.680   1.033 -0.5320 -0.5360  0.6598
 8315SOL    MW433028   1.104   0.686   0.962 -0.0206  0.0988  0.3405
 8316SOL     OW33029   1.463   1.611   4.159 -0.4433 -0.4007  0.2709
 8316SOL    HW233030   1.413   1.689   4.135 -0.3204 -0.1953  0.6778
 8316SOL    HW333031   1.481   1.621   4.253 -1.6985 -1.6128  0.6912
 8316SOL    MW433032   1.459   1.622   4.168 -0.5927 -0.5336  0.3800
 8317SOL     OW33033   4.371   1.061   4.315  0.4006 -0.5155 -0.1533
 8317SOL    HW233034   4.389   0.968   4.301  3.5306  0.1023 -0.8714
 8317SOL    HW333035   4.386   1.102   4.230  1.9013  0.9826  0.7718
 8317SOL    MW433036   4.375   1.054   4.302  1.0116 -0.2363 -0.1260
 8318SOL     OW33037   2.918   3.356   0.173  0.2797 -0.1486 -0.1637
 8318SOL    HW233038   2.936   3.419   0.103 -0.1536  0.9068  0.6517
 8318SOL    HW333039   2.986   3.288   0.162  2.9754  2.1597  0.9682
 8318SOL    MW433040   2.929   3.355   0.163  0.5782  0.2952  0.0932
 8319SOL     OW33041   4.770   4.420   2.679  0.2405 -0.9924  0.4872
 8319SOL    HW233042   4.727   4.439   2.762  0.7083 -0.6245  0.6492
 8319SOL    HW333043   4.815   4.336   2.694 -0.4171 -1.3862  0.3123
 8319SOL    MW433044   4.770   4.411   2.691  0.2155 -0.9958  0.4855
 8320SOL     OW33045   1.804   3.636   0.596  0.3653 -0.0699  1.0389
 8320SOL    HW233046   1.741   3.647   0.666  1.1662 -0.0591  1.7766
 8320SOL    HW333047   1.854   3.718   0.595 -0.0024  0.1580  0.0732
 8320SOL    MW433048   1.803   3.648   0.605  0.4225 -0.0384  1.0088
 8321SOL     OW33049   5.443   4.247   2.213  0.0971  0.0363 -0.4229
 8321SOL    HW233050   5.419   4.195   2.290 -0.9881 -0.6173 -1.1805
 8321SOL    HW333051   5.407   4.334   2.231  1.6722  0.4879  0.7210
 8321SOL    MW433052   5.435   4.251   2.226  0.1617  0.0096 -0.3719
 8322SOL     OW33053   0.523   2.334   3.874  0.3335  0.2145  0.3069
 8322SOL    HW233054   0.518   2.239   3.872  0.3266  0.1989  0.9209
 8322SOL    HW333055   0.483   2.359   3.958  1.4296  0.6779  0.7169
 8322SOL    MW433056   0.517   2.325   3.885  0.4772  0.2736  0.4420
 8323SOL     OW33057   4.969   3.064   2.515 -0.3493  0.6390 -0.4760
 8323SOL    HW233058   5.029   3.026   2.451 -0.7532 -0.1644 -0.3797
 8323SOL    HW333059   4.945   2.992   2.573  1.5784  1.6994  1.8805
 8323SOL    MW433060   4.974   3.050   2.515 -0.1482  0.6729 -0.1524
 8324SOL     OW33061   3.442   1.350   0.772 -0.0660  0.1655  0.5213
 8324SOL    HW233062   3.346   1.355   0.776 -0.0574  0.2747  0.5846
 8324SOL    HW333063   3.460   1.321   0.683 -0.0873  1.8883 -0.0780
 8324SOL    MW433064   3.431   1.347   0.761 -0.0677  0.4072  0.4506
 8325SOL     OW33065   0.539   0.281   5.538  0.0011  0.5230 -0.5005
 8325SOL    HW233066   0.475   0.210   5.530  1.7122 -1.0443 -0.9980
 8325SOL    HW333067   0.568   0.297   5.449  1.3670  0.1347 -0.1514
 8325SOL    MW433068   0.534   0.273   5.525  0.4071  0.2650 -0.5201
 8326SOL     OW33069   5.316   5.854   4.069  0.0942 -0.5508 -0.5687
 8326SOL    HW233070   5.376   5.853   3.995  0.3271 -1.0571 -0.3812
 8326SOL    HW333071   5.366   5.815   4.141  0.1307  0.6203  0.0732
 8326SOL    MW433072   5.330   5.849   4.069  0.1297 -0.4631 -0.4593
 8327SOL     OW33073   5.405   0.055   4.527  0.0956 -0.6339 -0.7311
 8327SOL    HW233074   5.336   0.055   4.594  0.3837 -0.0691 -0.4265
 8327SOL    HW333075   5.393  -0.028   4.481 -0.4114 -0.8149 -0.2938
 8327SOL    MW433076   5.394   0.044   4.530  0.0667 -0.5833 -0.6332
 8328SOL     OW33077   3.694   4.837   1.876 -0.3145  0.4099  0.4180
 8328SOL    HW233078   3.683   4.823   1.782  2.2555  1.3400 -0.1042
 8328SOL    HW333079   3.640   4.769   1.917  0.6714 -1.8459 -1.7735
 8328SOL    MW433080   3.685   4.826   1.869  0.1547  0.2350  0.0599
 8329SOL     OW33081   0.757   0.165   5.644  0.1910 -0.1933 -0.3298
 8329SOL    HW233082   0.736   0.096   5.708  0.7590 -0.0978 -0.0356
 8329SOL    HW333083   0.672   0.204   5.622 -0.0651 -0.5669 -0.0246
 8329SOL    MW433084   0.743   0.161   5.649  0.2321 -0.2300 -0.2507
 8330SOL     OW33085   5.430   5.640   3.556 -0.2771 -0.1925 -0.1077
 8330SOL    HW233086   5.416   5.628   3.650 -1.0774  1.2265 -0.0180
 8330SOL    HW333087   5.375   5.574   3.515 -0.8849 -0.0173  0.4123
 8330SOL    MW433088   5.421   5.630   3.563 -0.4629  0.0179 -0.0273
 8331SOL     OW33089   5.052   0.811   2.954 -0.2074  0.2706 -0.2530
 8331SOL    HW233090   5.096   0.782   2.875 -0.3319  0.3585 -0.3560
 8331SOL    HW333091   5.052   0.906   2.948  0.6885  0.3237  0.3500
 8331SOL    MW433092   5.057   0.820   2.943 -0.1056  0.2892 -0.1870
 8332SOL     OW33093   6.070   2.580   2.156  0.6948  0.7458  0.5088
 8332SOL    HW233094   6.003   2.622   2.210 -0.4748  0.1464 -0.4193
 8332SOL    HW333095   6.037   2.490   2.143 -0.2752  1.4486 -3.0118
 8332SOL    MW433096   6.056   2.573   2.161  0.4125  0.7594 -0.0782
 8333SOL     OW33097   3.903   6.359   2.337  0.2368  0.5006 -0.0026
 8333SOL    HW233098   3.987   6.343   2.380  0.5084  0.7896 -0.4164
 8333SOL    HW333099   3.870   6.439   2.376  0.2615  0.5111 -0.0040
 8333SOL    MW433100   3.910   6.367   2.348  0.2759  0.5401 -0.0574
 8334SOL     OW33101   0.889   1.972   3.344 -0.0255 -0.2401 -0.5533
 8334SOL    HW233102   0.861   1.948   3.256 -0.9789 -1.3817  0.0299
 8334SOL    HW333103   0.817   2.022   3.380  1.3840  2.4787 -1.2541
 8334SOL    MW433104   0.876   1.975   3.337  0.0346 -0.0320 -0.5688
 8335SOL     OW33105   2.917   3.084   3.522  0.3475  0.0198 -0.3049
 8335SOL    HW233106   2.905   3.041   3.437  1.6920 -0.4002 -0.3063
 8335SOL    HW333107   2.848   3.047   3.577 -0.4346  0.1673 -1.1613
 8335SOL    MW433108   2.906   3.073   3.518  0.4217 -0.0162 -0.4181
 8336SOL     OW33109   3.765   0.294   5.080 -0.1609 -0.0473  0.0316
 8336SOL    HW233110   3.837   0.328   5.134 -1.2709  0.4394  1.2657
 8336SOL    HW333111   3.801   0.216   5.039  0.7864 -0.3705  1.3984
 8336SOL    MW433112   3.780   0.289   5.082 -0.1824 -0.0257  0.3747
 8337SOL     OW33113   2.390   0.484   2.671 -0.3061 -0.1241 -0.0719
 8337SOL    HW233114   2.402   0.434   2.591 -0.8062  0.8764 -0.7925
 8337SOL    HW333115   2.364   0.571   2.642  0.8622  0.6776  1.1395
 8337SOL    MW433116   2.388   0.489   2.657 -0.2179  0.1137 -0.0071
 8338SOL     OW33117   1.699   5.666   6.056 -0.1804 -0.3972  0.2086
 8338SOL    HW233118   1.781   5.625   6.083 -0.5892 -1.1158  0.3685
 8338SOL    HW333119   1.661   5.701   6.136 -0.3219 -0.5914  0.2265
 8338SOL    MW433120   1.705   5.665   6.070 -0.2530 -0.5176  0.2320
 8339SOL     OW33121   2.287   1.504   3.020 -1.0793  0.0126  0.0178
 8339SOL    HW233122   2.195   1.483   3.000 -0.9752 -0.7458  0.2846
 8339SOL    HW333123   2.335   1.474   2.943 -0.8300 -1.6225  0.7675
 8339SOL    MW433124   2.281   1.497   3.007 -1.0327 -0.3032  0.1520
 8340SOL     OW33125   2.211   5.113   5.918 -1.0134 -0.1096 -0.3157
 8340SOL    HW233126   2.279   5.052   5.947  0.2137  1.3213 -0.0741
 8340SOL    HW333127   2.246   5.151   5.837 -2.4294 -0.7841 -1.2995
 8340SOL    MW433128   2.225   5.110   5.911 -1.0383 -0.0098 -0.4136
 8341SOL     OW33129   2.377   6.098   5.390  0.1748 -0.9446 -0.1632
 8341SOL    HW233130   2.419   6.076   5.474  1.0833 -0.2623 -0.4272
 8341SOL    HW333131   2.379   6.016   5.340  0.4020 -1.1433  0.1625
 8341SOL    MW433132   2.383   6.084   5.395  0.3246 -0.8808 -0.1551
 8342SOL     OW33133   6.096   1.487   3.852  0.3607 -0.0439  0.0197
 8342SOL    HW233134   6.060   1.413   3.901 -0.7335  0.5108  0.0871
 8342SOL    HW333135   6.120   1.551   3.920  0.5286 -0.0017 -0.0791
 8342SOL    MW433136   6.094   1.486   3.868  0.2385  0.0348  0.0155
 8343SOL     OW33137   4.169   5.814   5.229 -0.1472  0.0991  0.4242
 8343SOL    HW233138   4.209   5.803   5.315  1.9081  0.3275 -0.4630
 8343SOL    HW333139   4.223   5.879   5.184 -1.1012 -0.0880 -1.0929
 8343SOL    MW433140   4.181   5.821   5.234 -0.0019  0.1045  0.1070
 8344SOL     OW33141   0.446   2.364   4.160  0.2443 -0.6029  0.1563
 8344SOL    HW233142   0.393   2.418   4.102  1.5537 -0.6424 -1.1466
 8344SOL    HW333143   0.391   2.349   4.237 -1.0152  0.6201 -0.4691
 8344SOL    MW433144   0.432   2.369   4.163  0.2509 -0.4468 -0.0981
 8345SOL     OW33145   6.022   2.648   3.479 -0.3344  0.1866  0.4115
 8345SOL    HW233146   5.978   2.706   3.417  0.0539  0.9290  0.8090
 8345SOL    HW333147   6.103   2.623   3.435 -0.5331 -0.1094  0.2132
 8345SOL    MW433148   6.027   2.652   3.465 -0.3094  0.2455  0.4378
 8346SOL     OW33149   1.832   4.710   2.387 -0.6093  0.0993 -0.1102
 8346SOL    HW233150   1.851   4.761   2.308 -3.4373  0.7495 -0.4987
 8346SOL    HW333151   1.830   4.620   2.357 -0.1055  0.1912 -0.4313
 8346SOL    MW433152   1.834   4.705   2.373 -0.9159  0.1972 -0.2038
 8347SOL     OW33153   4.763   5.100   1.796 -0.3976  0.5376 -0.1626
 8347SOL    HW233154   4.720   5.161   1.856 -0.0628  1.9409 -1.2964
 8347SOL    HW333155   4.692   5.060   1.746 -0.5361  1.1068 -0.4226
 8347SOL    MW433156   4.748   5.103   1.797 -0.3717  0.7979 -0.3465
 8348SOL     OW33157   5.341   5.989   2.458  0.6438  0.3539 -0.2117
 8348SOL    HW233158   5.385   5.942   2.528  0.1923 -0.7207 -0.6231
 8348SOL    HW333159   5.318   6.074   2.496 -0.9875 -0.7568  1.4757
 8348SOL    MW433160   5.344   5.994   2.472  0.3690  0.0656 -0.0434
 8349SOL     OW33161   4.787   2.922   5.682 -0.3238  0.1098 -0.1032
 8349SOL    HW233162   4.772   2.828   5.672 -0.4766  0.2069 -0.8559
 8349SOL    HW333163   4.716   2.962   5.632 -1.0081  0.6480  1.2520
 8349SOL    MW433164   4.776   2.915   5.674 -0.4342  0.1936 -0.0237
 8350SOL     OW33165   3.653   1.583   0.954 -0.4529 -0.5048  0.2656
 8350SOL    HW233166   3.734   1.566   0.906 -0.8011  0.5660 -0.7635
 8350SOL    HW333167   3.635   1.676   0.939 -1.9034 -0.7346  0.4000
 8350SOL    MW433168   3.661   1.593   0.945 -0.6902 -0.3938  0.1476
 8351SOL     OW33169   5.251   1.468   4.385  0.1258 -0.1106 -0.1640
 8351SOL    HW233170   5.189   1.498   4.319  0.1638  0.4685  0.0550
 8351SOL    HW333171   5.219   1.383   4.412 -0.7235  0.2945  0.1305
 8351SOL    MW433172   5.239   1.461   4.380  0.0188  0.0193 -0.0962
 8352SOL     OW33173   0.998   3.147   0.104 -0.0141  0.0767 -0.1268
 8352SOL    HW233174   0.990   3.216   0.170 -3.4466 -1.0721  0.9133
 8352SOL    HW333175   1.063   3.179   0.043  0.0862  3.2504  1.4288
 8352SOL    MW433176   1.005   3.160   0.105 -0.4537  0.3439  0.2156
 8353SOL     OW33177   3.060   4.025   1.774 -0.3306 -0.2805 -0.1803
 8353SOL    HW233178   3.020   4.033   1.687 -0.1580  0.8174 -0.1749
 8353SOL    HW333179   3.144   3.982   1.758 -0.4861 -0.4727 -0.4965
 8353SOL    MW433180   3.066   4.020   1.760 -0.3283 -0.1610 -0.2213
 8354SOL     OW33181   2.739   3.211   6.258  0.4900 -0.4480  0.4706
 8354SOL    HW233182   2.667   3.150   6.274 -1.0000  1.0568 -0.1704
 8354SOL    HW333183   2.744   3.263   6.338  0.7957 -0.4839  0.4745
 8354SOL    MW433184   2.730   3.210   6.271  0.3337 -0.2542  0.3865
 8355SOL     OW33185   1.465   4.643   5.042  0.1483 -0.5465 -0.6743
 8355SOL    HW233186   1.482   4.657   5.136 -0.0364 -0.5198 -0.6447
 8355SOL    HW333187   1.462   4.732   5.005  1.8524 -0.5867 -1.0011
 8355SOL    MW433188   1.467   4.657   5.050  0.3488 -0.5483 -0.7135
 8356SOL     OW33189   6.172   2.997   3.347 -0.2216 -0.8979  0.4318
 8356SOL    HW233190   6.114   2.945   3.293 -0.0184  0.7186 -1.4472
 8356SOL    HW333191   6.251   3.009   3.294  0.4925 -0.2853  1.5774
 8356SOL    MW433192   6.175   2.992   3.333 -0.1006 -0.6038  0.3350
 8357SOL     OW33193   0.894   5.416   1.053 -0.2068 -0.1422  0.2093
 8357SOL    HW233194   0.929   5.336   1.093  0.0997  0.0027  0.2361
 8357SOL    HW333195   0.882   5.393   0.961 -1.9700 -0.8305  0.5611
 8357SOL    MW433196   0.897   5.403   1.046 -0.3990 -0.2139  0.2592
 8358SOL     OW33197   5.713   4.475   2.178  0.5210 -0.8223 -0.1834
 8358SOL    HW233198   5.686   4.535   2.248  2.3242  0.5207 -0.5645
 8358SOL    HW333199   5.648   4.488   2.109  0.8343  0.7081 -0.2345
 8358SOL    MW433200   5.701   4.485   2.178  0.8003 -0.4432 -0.2405
 8359SOL     OW33201   5.314   0.819   3.350 -0.3601  0.1296  0.5414
 8359SOL    HW233202   5.230   0.828   3.395 -0.3143 -1.0437  0.9030
 8359SOL    HW333203   5.373   0.878   3.396 -0.7584  0.2686  0.8771
 8359SOL    MW433204   5.310   0.828   3.362 -0.4066 -0.0069  0.6334
 8360SOL     OW33205   1.143   4.501   4.997 -0.2651 -0.2409 -0.0294
 8360SOL    HW233206   1.224   4.515   4.948  0.1923 -0.5045  0.6416
 8360SOL    HW333207   1.096   4.433   4.949 -0.4612  0.4524 -0.8554
 8360SOL    MW433208   1.147   4.494   4.984 -0.2306 -0.1842 -0.0498
 8361SOL     OW33209   1.654   0.723   3.408 -0.4338 -0.3234 -0.3823
 8361SOL    HW233210   1.676   0.755   3.320  0.6513  2.1915  0.7130
 8361SOL    HW333211   1.737   0.726   3.456 -0.9787 -1.7976  0.7270
 8361SOL    MW433212   1.668   0.727   3.402 -0.3625 -0.1861 -0.0914
 8362SOL     OW33213   0.982   5.043   2.928  0.5947 -0.2925  0.1998
 8362SOL    HW233214   0.908   5.064   2.872  0.9291  2.4864  0.6351
 8362SOL    HW333215   1.054   5.024   2.867  0.2054 -0.3386 -0.2514
 8362SOL    MW433216   0.982   5.043   2.913  0.5875  0.0681  0.1977
 8363SOL     OW33217   6.265   6.391   4.695  0.0223  0.5676 -0.1171
 8363SOL    HW233218   6.272   6.449   4.619  1.2821  0.4792 -0.0878
 8363SOL    HW333219   6.298   6.307   4.664 -0.5473  0.2212  0.2115
 8363SOL    MW433220   6.270   6.388   4.681  0.1133  0.5103 -0.0699
 8364SOL     OW33221   3.098   1.293   2.422 -0.1902 -0.0969 -0.2508
 8364SOL    HW233222   3.025   1.351   2.399 -0.6847  0.1727  1.7978
 8364SOL    HW333223   3.075   1.209   2.381 -1.9869 -0.1952  0.8323
 8364SOL    MW433224   3.085   1.289   2.413 -0.4925 -0.0743  0.1624
 8365SOL     OW33225   4.783   4.673   4.256 -0.1917 -0.3814 -0.5660
 8365SOL    HW233226   4.766   4.706   4.344  0.0805 -1.0931 -0.2456
 8365SOL    HW333227   4.735   4.590   4.252  0.6637 -0.8701 -0.7261
 8365SOL    MW433228   4.774   4.667   4.267 -0.0429 -0.5397 -0.5449
 8366SOL     OW33229   5.604   0.753   4.165  0.5450  0.3478  0.2744
 8366SOL    HW233230   5.696   0.746   4.137  0.0812  0.2876 -1.3090
 8366SOL    HW333231   5.577   0.662   4.181  0.4675  0.2733 -0.2682
 8366SOL    MW433232   5.613   0.740   4.164  0.4736  0.3300 -0.0061
 8367SOL     OW33233   4.020   5.905   2.490  0.0608 -0.4652  0.4501
 8367SOL    HW233234   4.053   5.817   2.509 -0.9118 -0.7041  1.1159
 8367SOL    HW333235   4.034   5.954   2.571  1.1535  0.1862 -0.1099
 8367SOL    MW433236   4.027   5.900   2.503  0.0767 -0.4108  0.4640
 8368SOL     OW33237   2.766   4.110   4.942  0.0311 -0.6758 -0.2763
 8368SOL    HW233238   2.731   4.178   4.885  2.1819 -0.4634 -1.4308
 8368SOL    HW333239   2.708   4.035   4.928  0.3407 -0.5424 -2.5732
 8368SOL    MW433240   2.754   4.109   4.933  0.3557 -0.6302 -0.7317
 8369SOL     OW33241   1.965   1.855   2.969  0.2406 -0.1699  0.3183
 8369SOL    HW233242   1.951   1.792   3.040 -3.3035  0.1429  0.1149
 8369SOL    HW333243   1.924   1.936   3.000  1.2679  0.8663 -0.9327
 8369SOL    MW433244   1.958   1.857   2.982 -0.0915  0.0081  0.1264
 8370SOL     OW33245   3.273   4.275   0.447  0.4958  0.0970  0.5095
 8370SOL    HW233246   3.205   4.250   0.385  0.4880 -0.5401  0.7626
 8370SOL    HW333247   3.354   4.277   0.396  1.0108 -3.2808  0.9812
 8370SOL    MW433248   3.275   4.272   0.432  0.5627 -0.4327  0.6051
 8371SOL     OW33249   1.205   5.910   2.019 -0.1249 -0.0319  0.1844
 8371SOL    HW233250   1.281   5.931   2.073 -1.4127  1.7176  1.4361
 8371SOL    HW333251   1.226   5.948   1.933  0.5005  0.2430  0.4479
 8371SOL    MW433252   1.218   5.918   2.015 -0.2123  0.2352  0.3843
 8372SOL     OW33253   2.236   1.325   2.175  0.0860 -0.5383  0.1334
 8372SOL    HW233254   2.320   1.370   2.162  0.6307 -1.5978 -0.1184
 8372SOL    HW333255   2.260   1.239   2.210 -0.7879 -1.3989 -1.2828
 8372SOL    MW433256   2.250   1.320   2.178  0.0426 -0.7917 -0.0867
 8373SOL     OW33257   4.355   6.045   2.694  0.7524 -1.1070 -0.7554
 8373SOL    HW233258   4.382   6.129   2.730  2.9268 -2.2096  0.3817
 8373SOL    HW333259   4.277   6.021   2.744  0.8856 -0.3529 -0.1721
 8373SOL    MW433260   4.348   6.053   2.705  1.0568 -1.1530 -0.5284
 8374SOL     OW33261   1.786   4.937   3.539  0.0305 -0.2969  0.4853
 8374SOL    HW233262   1.735   4.856   3.538 -1.1158  0.4059 -0.1618
 8374SOL    HW333263   1.755   4.983   3.617 -1.3911  0.7587 -0.6564
 8374SOL    MW433264   1.775   4.932   3.549 -0.3083 -0.0649  0.2493
 8375SOL     OW33265   2.622   0.421   6.229  0.2138 -0.7360  0.3586
 8375SOL    HW233266   2.674   0.404   6.308 -0.2096  1.2323  1.1227
 8375SOL    HW333267   2.579   0.506   6.246  0.8002  0.2063 -2.3351
 8375SOL    MW433268   2.623   0.430   6.242  0.2353 -0.3520  0.1040
 8376SOL     OW33269   0.981   5.755   2.592 -0.3020  0.0424  0.1865
 8376SOL    HW233270   0.935   5.727   2.671 -1.4604 -1.2756 -0.9121
 8376SOL    HW333271   0.923   5.820   2.553  0.1660  0.5300  0.2820
 8376SOL    MW433272   0.967   5.760   2.597 -0.3931 -0.0672  0.0542
 8377SOL     OW33273   2.852   4.268   1.679  0.4535 -0.5289 -0.1426
 8377SOL    HW233274   2.788   4.317   1.627  1.7345  2.4372  0.8346
 8377SOL    HW333275   2.809   4.185   1.699 -1.7691  0.0227 -2.2083
 8377SOL    MW433276   2.838   4.264   1.675  0.3293 -0.0648 -0.2862
 8378SOL     OW33277   3.289   2.198   4.193  0.3489  0.2180 -0.0179
 8378SOL    HW233278   3.249   2.246   4.264  0.8023 -0.9193  1.0411
 8378SOL    HW333279   3.324   2.119   4.234  0.6559 -0.4452 -1.4935
 8378SOL    MW433280   3.289   2.194   4.207  0.4492 -0.0196 -0.0729
 8379SOL     OW33281   2.146   4.488   2.161  0.0415  0.6349 -0.4742
 8379SOL    HW233282   2.152   4.423   2.231 -0.7044  0.5628 -0.4612
 8379SOL    HW333283   2.052   4.505   2.154  0.0851  0.4485 -1.6308
 8379SOL    MW433284   2.134   4.481   2.169 -0.0512  0.6008 -0.6251
 8380SOL     OW33285   4.974   5.511   3.577 -0.1097 -0.8149  0.0122
 8380SOL    HW233286   5.023   5.489   3.657 -0.7868 -1.3237  0.2960
 8380SOL    HW333287   5.042   5.532   3.513  0.5561 -2.5498  0.0802
 8380SOL    MW433288   4.990   5.511   3.579 -0.1112 -1.1109  0.0586
 8381SOL     OW33289   2.072   2.630   5.109  0.0366  0.1345  0.2412
 8381SOL    HW233290   2.138   2.591   5.051  0.7536  0.0051  1.1301
 8381SOL    HW333291   2.073   2.723   5.087  0.5054  0.1300  0.2385
 8381SOL    MW433292   2.081   2.637   5.098  0.1930  0.1168  0.3581
 8382SOL     OW33293   2.864   4.013   1.962  0.5779 -0.5560 -0.0253
 8382SOL    HW233294   2.939   4.019   1.904  0.2674 -2.6791 -0.7204
 8382SOL    HW333295   2.876   4.084   2.025  3.1390 -0.8178 -0.1272
 8382SOL    MW433296   2.875   4.023   1.963  0.8749 -0.8706 -0.1305
 8383SOL     OW33297   3.203   5.345   5.462  0.2675  0.2143  0.6176
 8383SOL    HW233298   3.138   5.278   5.487  0.3436 -0.1945 -0.2250
 8383SOL    HW333299   3.217   5.330   5.368  0.1563  1.5368  0.3700
 8383SOL    MW433300   3.196   5.334   5.453  0.2629  0.3349  0.4738
 8384SOL     OW33301   1.576   6.254   3.543  0.0894  0.1599  0.2926
 8384SOL    HW233302   1.614   6.212   3.620  1.8472 -0.2784 -0.7384
 8384SOL    HW333303   1.524   6.187   3.501  2.1611 -0.8398 -0.8607
 8384SOL    MW433304   1.574   6.240   3.547  0.5946 -0.0299  0.0044
 8385SOL     OW33305   0.235   4.506   2.720 -0.1078  0.2286  0.4817
 8385SOL    HW233306   0.329   4.517   2.736 -0.2414  2.0725  0.2591
 8385SOL    HW333307   0.198   4.594   2.733 -1.9142 -0.5793  1.1952
 8385SOL    MW433308   0.243   4.519   2.724 -0.3638  0.3653  0.5464
 8386SOL     OW33309   6.337   3.406   3.824  0.2800  0.6901 -0.1486
 8386SOL    HW233310   6.381   3.476   3.872  3.4538 -1.0983 -0.1714
 8386SOL    HW333311   6.363   3.420   3.732 -0.4252  0.3989 -0.4007
 8386SOL    MW433312   6.346   3.417   3.818  0.6057  0.4157 -0.1849
 8387SOL     OW33313   6.289   3.224   4.050  0.3200 -0.2876  0.0142
 8387SOL    HW233314   6.300   3.250   3.959 -1.2317 -0.1213 -0.1442
 8387SOL    HW333315   6.301   3.304   4.100 -1.3390  0.1580 -0.2485
 8387SOL    MW433316   6.292   3.238   4.045 -0.1036 -0.2069 -0.0414
 8388SOL     OW33317   5.981   5.563   2.082  0.0758 -0.4637  0.5753
 8388SOL    HW233318   5.994   5.656   2.103  0.6742  0.0267 -1.7327
 8388SOL    HW333319   5.924   5.564   2.005  0.1743 -2.0243  0.4569
 8388SOL    MW433320   5.975   5.575   2.075  0.1678 -0.6049  0.2552
 8389SOL     OW33321   4.409   0.907   0.226 -0.1451 -0.0017 -0.0691
 8389SOL    HW233322   4.319   0.930   0.249 -0.3008  1.1621 -1.6608
 8389SOL    HW333323   4.458   0.987   0.241  0.7646 -0.7810  1.3017
 8389SOL    MW433324   4.403   0.921   0.231 -0.0456  0.0490 -0.0983
 8390SOL     OW33325   1.980   5.568   2.345 -0.2756 -0.0879  0.3908
 8390SOL    HW233326   1.982   5.617   2.427 -1.3697  1.2849 -0.3598
 8390SOL    HW333327   1.888   5.553   2.327 -0.0902  0.0968 -0.8438
 8390SOL    MW433328   1.968   5.573   2.353 -0.3955  0.1175  0.1289
 8391SOL     OW33329   4.884   2.493   6.104  0.4591 -0.9971  0.6820
 8391SOL    HW233330   4.899   2.543   6.184  1.5246  0.5143 -0.4096
 8391SOL    HW333331   4.953   2.522   6.044 -3.6929  2.7014 -3.0210
 8391SOL    MW433332   4.896   2.504   6.107  0.0519 -0.3097  0.0494
 8392SOL     OW33333   0.021   0.565   0.395 -0.6751 -0.6368 -0.0331
 8392SOL    HW233334  -0.065   0.607   0.401 -0.0898  0.8634 -1.4463
 8392SOL    HW333335   0.081   0.627   0.436 -0.1217 -1.2436  0.0939
 8392SOL    MW433336   0.017   0.578   0.401 -0.5249 -0.5189 -0.2028
 8393SOL     OW33337   4.242   5.802   0.730 -0.5810  0.7120 -0.6550
 8393SOL    HW233338   4.198   5.722   0.699 -0.2564 -0.2961  1.3176
 8393SOL    HW333339   4.241   5.861   0.654 -3.1535 -0.1743 -1.4309
 8393SOL    MW433340   4.236   5.799   0.716 -0.8776  0.4621 -0.4971
 8394SOL     OW33341   4.965   3.103   1.280  0.3280 -0.5688  0.2412
 8394SOL    HW233342   4.983   3.009   1.284 -2.3454 -1.2343 -1.1716
 8394SOL    HW333343   4.978   3.127   1.188 -1.6725 -0.2345 -0.0041
 8394SOL    MW433344   4.969   3.094   1.269 -0.2887 -0.6125  0.0224
 8395SOL     OW33345   2.874   5.391   3.589 -0.0258 -0.2334 -0.5667
 8395SOL    HW233346   2.804   5.402   3.524  0.5007  0.2872 -1.0489
 8395SOL    HW333347   2.841   5.437   3.667 -0.0571  0.3445 -0.9160
 8395SOL    MW433348   2.860   5.399   3.591  0.0396 -0.0885 -0.6764
 8396SOL     OW33349   2.417   1.665   5.409 -0.1130 -0.0034  0.8150
 8396SOL    HW233350   2.401   1.638   5.499  1.6609 -0.1831  1.1085
 8396SOL    HW333351   2.508   1.641   5.392 -0.3224  0.2779 -0.9416
 8396SOL    MW433352   2.426   1.658   5.419  0.0934  0.0100  0.6220
 8397SOL     OW33353   3.307   4.835   2.009 -0.2855 -0.2757 -0.1537
 8397SOL    HW233354   3.361   4.762   1.981 -0.5688 -0.9263  0.9340
 8397SOL    HW333355   3.357   4.913   1.984 -0.0950 -0.8159 -1.5506
 8397SOL    MW433356   3.321   4.836   2.002 -0.2978 -0.4328 -0.1945
 8398SOL     OW33357   3.022   3.545   2.096 -0.0347  0.4190  0.2575
 8398SOL    HW233358   3.102   3.545   2.043 -0.7784 -3.0546 -1.1426
 8398SOL    HW333359   2.956   3.586   2.040 -0.5562 -2.2654 -1.2780
 8398SOL    MW433360   3.024   3.550   2.082 -0.2017 -0.3935 -0.1299
 8399SOL     OW33361   3.519   2.633   4.649 -0.5936 -0.1942 -0.4500
 8399SOL    HW233362   3.502   2.611   4.741 -0.4984 -1.1302 -0.6480
 8399SOL    HW333363   3.505   2.551   4.602  0.6502 -0.0467 -1.1132
 8399SOL    MW433364   3.515   2.619   4.655 -0.4169 -0.2982 -0.5636
 8400SOL     OW33365   2.396   4.838   0.682 -0.0783  0.0813  0.4236
 8400SOL    HW233366   2.424   4.800   0.765  3.0041  0.9909 -0.0941
 8400SOL    HW333367   2.470   4.890   0.652 -1.1899  0.0774 -2.7563
 8400SOL    MW433368   2.409   4.840   0.689  0.1817  0.2008 -0.0643
 8401SOL     OW33369   3.342   2.847   5.752 -0.2012  0.1233  0.2271
 8401SOL    HW233370   3.292   2.783   5.803 -0.2772  0.1519  0.1885
 8401SOL    HW333371   3.420   2.864   5.805  0.4026 -0.9020 -0.3134
 8401SOL    MW433372   3.346   2.841   5.766 -0.1316 -0.0082  0.1507
 8402SOL     OW33373   1.244   4.158   6.250 -0.7050 -0.3984 -0.3834
 8402SOL    HW233374   1.321   4.198   6.290 -0.4887  1.7451 -2.6587
 8402SOL    HW333375   1.270   4.068   6.233  0.4092 -0.3872  1.0563
 8402SOL    MW433376   1.258   4.151   6.253 -0.5294 -0.1141 -0.4936
 8403SOL     OW33377   4.082   1.245   0.959 -0.1710 -0.3074 -0.5124
 8403SOL    HW233378   3.986   1.249   0.956 -0.2079  0.4185  0.8105
 8403SOL    HW333379   4.101   1.164   1.006 -0.1506 -0.2823 -0.4769
 8403SOL    MW433380   4.072   1.235   0.965 -0.1732 -0.2083 -0.3331
 8404SOL     OW33381   6.267   0.198   1.921  0.3475  0.5172  0.1828
 8404SOL    HW233382   6.329   0.139   1.963  0.9720  0.1056 -1.2711
 8404SOL    HW333383   6.193   0.202   1.982  1.0252 -0.4013  1.1007
 8404SOL    MW433384   6.265   0.191   1.934  0.5193  0.3417  0.1121
 8405SOL     OW33385   5.677   2.936   2.190 -0.2207  0.4472 -0.6090
 8405SOL    HW233386   5.687   2.963   2.281 -0.8401 -0.1164 -0.3751
 8405SOL    HW333387   5.734   2.996   2.141  0.4037  0.5122  0.1824
 8405SOL    MW433388   5.686   2.948   2.195 -0.2201  0.3814 -0.4737
 8406SOL     OW33389   0.941   5.307   6.121  0.3173 -0.2561 -0.1397
 8406SOL    HW233390   0.940   5.216   6.151  1.4590  0.0067  0.7529
 8406SOL    HW333391   1.007   5.350   6.175  0.4023  0.9189 -1.1300
 8406SOL    MW433392   0.949   5.301   6.132  0.4791 -0.0664 -0.1526
 8407SOL     OW33393   5.833   0.417   0.551 -0.3413 -0.0609 -0.0489
 8407SOL    HW233394   5.862   0.329   0.526 -0.1019  0.3568 -1.3013
 8407SOL    HW333395   5.775   0.402   0.626 -1.5039 -1.4508 -1.1555
 8407SOL    MW433396   5.829   0.403   0.557 -0.4631 -0.1891 -0.3602
 8408SOL     OW33397   3.633   2.554   3.636  0.1830  0.0241 -0.3916
 8408SOL    HW233398   3.602   2.467   3.661  2.0032 -0.0295  2.1115
 8408SOL    HW333399   3.713   2.538   3.586 -0.0080  0.2687 -0.7864
 8408SOL    MW433400   3.639   2.541   3.633  0.3980  0.0493 -0.1134
 8409SOL     OW33401   0.415   0.898   5.609 -0.0409 -0.3144  0.2289
 8409SOL    HW233402   0.380   0.826   5.556  0.8214 -1.1170  0.7191
 8409SOL    HW333403   0.429   0.859   5.696 -0.3868  0.6819  0.7466
 8409SOL    MW433404   0.412   0.883   5.614  0.0272 -0.2889  0.3619
 8410SOL     OW33405   5.392   5.427   1.802 -0.1741 -0.8288 -0.0774
 8410SOL    HW233406   5.404   5.337   1.832 -0.8651 -1.1699 -0.8038
 8410SOL    HW333407   5.469   5.474   1.836  0.5855 -1.8555 -0.3426
 8410SOL    MW433408   5.404   5.422   1.810 -0.1651 -1.0092 -0.2082
 8411SOL     OW33409   0.323   5.743   6.281 -0.2660 -0.3727 -0.3824
 8411SOL    HW233410   0.366   5.818   6.322 -0.5585  0.7425 -2.0191
 8411SOL    HW333411   0.230   5.767   6.279 -0.8362 -2.0882  1.7112
 8411SOL    MW433412   0.317   5.756   6.286 -0.3798 -0.4519 -0.3221
 8412SOL     OW33413   0.768   1.248   4.133 -0.1694 -0.3760  0.4476
 8412SOL    HW233414   0.811   1.164   4.146 -0.1123 -0.4868 -0.3817
 8412SOL    HW333415   0.826   1.312   4.175 -1.0265 -0.8892  2.5643
 8412SOL    MW433416   0.781   1.245   4.140 -0.2750 -0.4583  0.6175
 8413SOL     OW33417   1.508   3.634   4.314 -0.6566  0.2224 -0.6819
 8413SOL    HW233418   1.440   3.618   4.249 -1.1254  0.6793 -0.3134
 8413SOL    HW333419   1.565   3.699   4.274 -1.9786  1.9265  0.0433
 8413SOL    MW433420   1.507   3.640   4.300 -0.8929  0.5075 -0.5376
 8414SOL     OW33421   2.975   5.019   4.071  0.0615  0.2207 -0.1579
 8414SOL    HW233422   2.891   5.000   4.113  0.5439 -1.0031  0.3161
 8414SOL    HW333423   3.040   5.003   4.139  0.6751  1.3323 -0.4648
 8414SOL    MW433424   2.973   5.014   4.085  0.2061  0.2059 -0.1358
 8415SOL     OW33425   2.811   3.230   4.075  0.3873 -0.1008  0.3873
 8415SOL    HW233426   2.865   3.275   4.010 -1.7905  1.3055 -0.5803
 8415SOL    HW333427   2.872   3.209   4.146  2.2197  1.2584 -0.6768
 8415SOL    MW433428   2.826   3.233   4.076  0.3417  0.2641  0.1192
 8416SOL     OW33429   0.811   3.687   2.087  0.0816  0.1898 -0.3273
 8416SOL    HW233430   0.859   3.704   2.006  1.4462 -0.7351  0.2284
 8416SOL    HW333431   0.861   3.616   2.129 -3.3346 -2.8725 -0.9851
 8416SOL    MW433432   0.824   3.680   2.082 -0.1891 -0.3362 -0.3408
 8417SOL     OW33433   4.445   1.686   3.289 -0.1599  0.1508  0.4438
 8417SOL    HW233434   4.432   1.736   3.208 -1.7012 -0.2707  0.3933
 8417SOL    HW333435   4.539   1.667   3.291 -0.2626 -1.1517 -2.0680
 8417SOL    MW433436   4.456   1.690   3.278 -0.3768 -0.0767  0.1058
 8418SOL     OW33437   5.172   2.913   4.020 -0.2214 -0.1489 -0.2651
 8418SOL    HW233438   5.179   2.958   3.935  1.6293  0.8495  0.3496
 8418SOL    HW333439   5.244   2.849   4.018  0.5021  0.5878  0.9108
 8418SOL    MW433440   5.183   2.910   4.008  0.1182  0.0801 -0.0289
 8419SOL     OW33441   1.144   1.192   4.436 -0.5547  0.2055  0.0083
 8419SOL    HW233442   1.146   1.108   4.482 -1.4351 -0.3115 -0.8558
 8419SOL    HW333443   1.055   1.225   4.448  0.1027  1.5996  1.3125
 8419SOL    MW433444   1.133   1.185   4.443 -0.5841  0.3212  0.0664
 8420SOL     OW33445   0.404   1.677   4.150  0.3249 -0.5068 -0.1658
 8420SOL    HW233446   0.498   1.677   4.135  0.5731  0.4342  1.1660
 8420SOL    HW333447   0.367   1.708   4.067  1.1052 -1.5618 -0.9413
 8420SOL    MW433448   0.411   1.681   4.137  0.4606 -0.5219 -0.0924
 8421SOL     OW33449   5.687   5.645   3.460  0.0591 -0.2753 -0.0131
 8421SOL    HW233450   5.594   5.643   3.482  0.2327 -2.5596  0.7356
 8421SOL    HW333451   5.727   5.580   3.518  1.9710 -0.0852 -1.0376
 8421SOL    MW433452   5.680   5.636   3.471  0.3343 -0.5516 -0.0495
 8422SOL     OW33453   5.073   2.422   1.542  0.4419 -0.4433 -0.0019
 8422SOL    HW233454   5.020   2.487   1.587 -0.1115 -1.0801  0.2919
 8422SOL    HW333455   5.019   2.394   1.468  0.6813 -0.5538 -0.1387
 8422SOL    MW433456   5.059   2.427   1.538  0.4005 -0.5419  0.0188
 8423SOL     OW33457   2.567   2.951   2.242  0.7467 -0.1633 -0.0825
 8423SOL    HW233458   2.652   2.978   2.206  1.4830  0.8162  2.2253
 8423SOL    HW333459   2.504   2.972   2.172  2.4600 -2.4555 -2.5458
 8423SOL    MW433460   2.570   2.957   2.228  1.0699 -0.3365 -0.1030
 8424SOL     OW33461   2.609   4.361   0.893  0.0124 -0.1205  0.5237
 8424SOL    HW233462   2.572   4.348   0.805  0.9826  0.4777  0.0040
 8424SOL    HW333463   2.651   4.277   0.913  0.5212  0.0072  0.0372
 8424SOL    MW433464   2.610   4.348   0.884  0.2075 -0.0247  0.3910
 8425SOL     OW33465   3.588   0.202   5.289  0.1793  0.2235  0.1616
 8425SOL    HW233466   3.627   0.115   5.291  2.7929  1.1463 -2.8444
 8425SOL    HW333467   3.653   0.257   5.245 -2.6424  3.0339 -0.8993
 8425SOL    MW433468   3.601   0.198   5.283  0.1519  0.7161 -0.3750
 8426SOL     OW33469   1.692   5.467   5.572 -0.9190 -0.4493 -0.2788
 8426SOL    HW233470   1.705   5.562   5.572 -3.1757 -0.0646 -1.8746
 8426SOL    HW333471   1.687   5.443   5.479 -1.0986 -2.0200  0.1073
 8426SOL    MW433472   1.693   5.477   5.560 -1.2404 -0.6058 -0.4384
 8427SOL     OW33473   4.412   4.853   4.600  0.0958 -0.0211  0.0388
 8427SOL    HW233474   4.353   4.823   4.531  0.5952  0.1393 -0.4565
 8427SOL    HW333475   4.494   4.808   4.583 -0.0156 -0.6300  1.0205
 8427SOL    MW433476   4.415   4.843   4.589  0.1470 -0.0802  0.1030
 8428SOL     OW33477   5.436   2.951   1.390  0.4719 -0.3666 -0.3907
 8428SOL    HW233478   5.357   3.002   1.374  1.9693  1.9235 -0.9674
 8428SOL    HW333479   5.413   2.894   1.463 -1.2075  1.4087  0.5630
 8428SOL    MW433480   5.423   2.950   1.398  0.4479  0.1698 -0.3410
 8429SOL     OW33481   1.549   6.286   4.511 -0.1612  0.2630 -0.4213
 8429SOL    HW233482   1.614   6.346   4.474  0.6844 -0.2793  0.1837
 8429SOL    HW333483   1.536   6.219   4.443 -0.1377  0.3991 -0.5603
 8429SOL    MW433484   1.556   6.285   4.497 -0.0465  0.2094 -0.3598
 8430SOL     OW33485   1.473   5.309   3.038  0.0655  0.0493  0.2535
 8430SOL    HW233486   1.510   5.248   2.974  2.9232  0.3478  1.4576
 8430SOL    HW333487   1.543   5.322   3.102 -1.5171  2.2480  1.7004
 8430SOL    MW433488   1.487   5.303   3.038  0.2338  0.3788  0.6033
 8431SOL     OW33489   2.938   4.504   6.048 -0.4049 -0.0058  0.1430
 8431SOL    HW233490   2.970   4.539   5.965 -0.8058 -0.7560 -0.3367
 8431SOL    HW333491   2.875   4.436   6.023 -1.8506  0.9222  1.0485
 8431SOL    MW433492   2.934   4.500   6.034 -0.6485  0.0177  0.1992
 8432SOL     OW33493   1.873   2.002   2.518 -0.1464 -0.2020  0.0690
 8432SOL    HW233494   1.892   1.938   2.586 -1.6523 -0.1420  0.5682
 8432SOL    HW333495   1.778   2.009   2.516 -0.0512  1.4988 -0.4627
 8432SOL    MW433496   1.863   1.995   2.526 -0.3325  0.0303  0.0647
 8433SOL     OW33497   1.418   4.595   4.340 -0.0817  0.1553  0.1266
 8433SOL    HW233498   1.508   4.593   4.374 -0.0996 -1.1978  0.1356
 8433SOL    HW333499   1.400   4.505   4.315 -0.7254  0.7819 -1.7880
 8433SOL    MW433500   1.427   4.583   4.341 -0.1690  0.0594 -0.1248
 8434SOL     OW33501   4.277   3.306   3.474 -0.2232 -0.4659  0.2274
 8434SOL    HW233502   4.201   3.352   3.438  0.5874  0.6407 -0.1593
 8434SOL    HW333503   4.330   3.285   3.397  0.3104 -0.3738  0.5687
 8434SOL    MW433504   4.274   3.309   3.459 -0.0459 -0.3078  0.2214
 8435SOL     OW33505   2.750   0.805   5.041 -0.0791 -0.2980 -0.5932
 8435SOL    HW233506   2.842   0.830   5.032  0.6397 -2.8337 -1.4119
 8435SOL    HW333507   2.726   0.830   5.130  1.8025 -0.6484  0.0572
 8435SOL    MW433508   2.759   0.811   5.051  0.2640 -0.6788 -0.6154
 8436SOL     OW33509   3.325   6.177   1.973 -0.4171  0.4261 -0.0813
 8436SOL    HW233510   3.320   6.144   1.884  2.5142  1.6070 -0.8079
 8436SOL    HW333511   3.395   6.125   2.014 -0.0842  1.4698  0.7166
 8436SOL    MW433512   3.334   6.166   1.967  0.0135  0.7196 -0.0719
 8437SOL     OW33513   6.403   4.585   0.293 -0.3264 -0.6989 -0.1542
 8437SOL    HW233514   6.329   4.525   0.299  1.0112 -2.4514 -0.4435
 8437SOL    HW333515   6.440   4.569   0.206  0.1719  0.4183 -0.1653
 8437SOL    MW433516   6.398   4.575   0.282 -0.0842 -0.7827 -0.1938
 8438SOL     OW33517   5.920   4.247   2.981  0.0533  0.2245 -0.3765
 8438SOL    HW233518   5.921   4.308   2.908  2.5575 -0.3271 -0.9148
 8438SOL    HW333519   5.914   4.303   3.059 -1.8924  0.8539 -0.9336
 8438SOL    MW433520   5.919   4.263   2.982  0.1270  0.2348 -0.5211
 8439SOL     OW33521   5.440   1.555   3.934 -0.0438  1.3230 -0.1792
 8439SOL    HW233522   5.351   1.589   3.925 -0.5142  0.0358 -0.7094
 8439SOL    HW333523   5.450   1.540   4.028 -1.0913 -0.2105 -0.2627
 8439SOL    MW433524   5.429   1.557   3.945 -0.2441  0.9509 -0.2602
 8440SOL     OW33525   1.361   3.298   4.124  0.3407 -0.3905  0.0359
 8440SOL    HW233526   1.406   3.217   4.099  1.5627 -0.0315  0.9753
 8440SOL    HW333527   1.353   3.293   4.219 -0.2977  0.2357  0.0200
 8440SOL    MW433528   1.366   3.287   4.133  0.4177 -0.2605  0.1578
 8441SOL     OW33529   2.733   1.623   4.056 -0.1233  0.3647  0.6800
 8441SOL    HW233530   2.824   1.603   4.033 -0.0482  0.1569  1.1343
 8441SOL    HW333531   2.681   1.589   3.983  0.1637  0.5125  0.4039
 8441SOL    MW433532   2.738   1.616   4.043 -0.0755  0.3568  0.7035
 8442SOL     OW33533   5.823   3.645   3.941  0.3245  0.0036 -0.0633
 8442SOL    HW233534   5.799   3.736   3.955  2.4242  0.4186  1.3040
 8442SOL    HW333535   5.799   3.627   3.851 -2.3800  1.1265  0.3348
 8442SOL    MW433536   5.817   3.654   3.931  0.2447  0.2065  0.1696
 8443SOL     OW33537   1.335   3.850   0.759  0.2137  0.2549 -0.1288
 8443SOL    HW233538   1.371   3.766   0.785  0.9143  0.5969  0.0525
 8443SOL    HW333539   1.386   3.875   0.681  1.8814  1.7196  1.3434
 8443SOL    MW433540   1.347   3.842   0.752  0.5261  0.4932  0.0893
 8444SOL     OW33541   4.870   3.342   4.388 -0.3970  0.0462 -0.5078
 8444SOL    HW233542   4.962   3.317   4.379 -0.6308 -0.5566 -1.3195
 8444SOL    HW333543   4.836   3.344   4.298 -1.4989 -1.0180 -0.1572
 8444SOL    MW433544   4.877   3.339   4.375 -0.5732 -0.1737 -0.5686
 8445SOL     OW33545   1.175   0.341   4.089 -0.0058 -0.5659  0.2828
 8445SOL    HW233546   1.088   0.318   4.122 -0.8496  3.0787  1.0254
 8445SOL    HW333547   1.159   0.372   4.000  0.5356  0.1336  0.4277
 8445SOL    MW433548   1.161   0.342   4.082 -0.0457  0.0073  0.3999
 8446SOL     OW33549   2.356   2.182   4.659 -0.1588 -0.5683  0.8722
 8446SOL    HW233550   2.395   2.175   4.746  1.1557 -1.9870  0.2195
 8446SOL    HW333551   2.284   2.119   4.660 -1.9977  1.4157  1.7849
 8446SOL    MW433552   2.352   2.172   4.671 -0.2280 -0.4937  0.9065
 8447SOL     OW33553   5.152   2.044   6.140  0.1399 -0.3782  0.7181
 8447SOL    HW233554   5.081   2.101   6.111 -0.3125 -2.3733 -2.6802
 8447SOL    HW333555   5.108   1.967   6.175  0.5726 -1.2602 -0.6100
 8447SOL    MW433556   5.137   2.041   6.141  0.1373 -0.7578  0.0945
 8448SOL     OW33557   3.616   3.430   3.862  0.6576  0.8036  0.3575
 8448SOL    HW233558   3.610   3.335   3.851  0.4194  0.8307  0.2660
 8448SOL    HW333559   3.558   3.449   3.935  0.8945  0.8492  0.5367
 8448SOL    MW433560   3.608   3.420   3.870  0.6574  0.8132  0.3690
 8449SOL     OW33561   0.900   1.830   5.697 -0.1720 -0.1559  0.0152
 8449SOL    HW233562   0.977   1.882   5.722 -0.4052 -0.5530  1.6641
 8449SOL    HW333563   0.826   1.890   5.709 -0.2226 -0.1258 -0.4472
 8449SOL    MW433564   0.901   1.845   5.702 -0.2095 -0.2043  0.1718
 8450SOL     OW33565   1.953   4.388   1.338 -0.5924  0.0417  0.4545
 8450SOL    HW233566   1.988   4.342   1.261  2.4678 -0.7246  2.1370
 8450SOL    HW333567   1.921   4.471   1.303  1.4395  0.0804 -1.6081
 8450SOL    MW433568   1.954   4.393   1.323  0.0794 -0.0543  0.4044
 8451SOL     OW33569   2.694   5.678   4.224  0.1575  0.3215 -0.0415
 8451SOL    HW233570   2.657   5.723   4.149 -0.8194  0.0507  0.2659
 8451SOL    HW333571   2.628   5.686   4.293  0.6629 -0.1803  0.5221
 8451SOL    MW433572   2.681   5.685   4.223  0.0953  0.2196  0.0734
 8452SOL     OW33573   4.830   1.287   3.706 -0.6431 -0.2557 -0.7111
 8452SOL    HW233574   4.750   1.254   3.665 -2.1774  0.0158  1.8639
 8452SOL    HW333575   4.817   1.382   3.710 -0.6765 -0.2992  0.5926
 8452SOL    MW433576   4.818   1.295   3.701 -0.8500 -0.2256 -0.1993
 8453SOL     OW33577   1.572   4.026   6.134 -0.5753  0.0786  0.7977
 8453SOL    HW233578   1.593   4.027   6.040 -0.7058 -0.2089  0.7624
 8453SOL    HW333579   1.640   3.970   6.172  1.3486  2.6511  1.3547
 8453SOL    MW433580   1.583   4.019   6.126 -0.3387  0.3801  0.8665
 8454SOL     OW33581   1.057   5.743   0.866  0.2027  0.2643  0.1570
 8454SOL    HW233582   1.110   5.761   0.788 -0.4838 -0.1756 -0.4284
 8454SOL    HW333583   0.985   5.688   0.833 -1.5182  2.1461  0.6118
 8454SOL    MW433584   1.054   5.738   0.851 -0.1149  0.4545  0.1398
 8455SOL     OW33585   2.593   2.521   1.784 -0.0841  0.3876  0.0545
 8455SOL    HW233586   2.595   2.527   1.880 -2.8332 -1.9282  0.3873
 8455SOL    HW333587   2.675   2.478   1.761 -0.7590 -1.9729  1.7523
 8455SOL    MW433588   2.604   2.516   1.794 -0.5358 -0.2294  0.3224
 8456SOL     OW33589   5.600   2.881   3.130 -0.3069 -0.1733  0.3235
 8456SOL    HW233590   5.517   2.837   3.112 -1.9134  2.2791  1.1857
 8456SOL    HW333591   5.575   2.965   3.167  2.5496  1.3844 -0.9482
 8456SOL    MW433592   5.586   2.886   3.132 -0.1419  0.3558  0.2695
 8457SOL     OW33593   5.277   0.844   3.780  0.1724 -0.5565  0.5332
 8457SOL    HW233594   5.215   0.771   3.780  0.7440 -1.0543 -0.3887
 8457SOL    HW333595   5.233   0.912   3.832 -0.7874 -1.1907  0.5861
 8457SOL    MW433596   5.263   0.843   3.787  0.1211 -0.7058  0.4185
 8458SOL     OW33597   4.190   2.844   1.784 -0.1867  0.1167 -0.8176
 8458SOL    HW233598   4.274   2.825   1.824  0.7158  3.0833 -1.0241
 8458SOL    HW333599   4.154   2.759   1.761  2.3427 -1.2966  0.0816
 8458SOL    MW433600   4.196   2.830   1.786  0.2661  0.3216 -0.7262
 8459SOL     OW33601   3.349   4.366   2.515 -0.5636  0.3244 -0.5940
 8459SOL    HW233602   3.273   4.422   2.500 -1.8100 -0.7566  1.2903
 8459SOL    HW333603   3.312   4.283   2.544  1.3325  0.2974  2.0731
 8459SOL    MW433604   3.334   4.362   2.517 -0.4779  0.1782  0.0065
 8460SOL     OW33605   2.130   5.306   4.952  0.4009  0.4125 -0.0274
 8460SOL    HW233606   2.065   5.316   5.022  1.0937 -1.2458  0.9108
 8460SOL    HW333607   2.207   5.351   4.986  1.0923 -1.3296  0.8239
 8460SOL    MW433608   2.131   5.313   4.966  0.5835 -0.0361  0.2087
 8461SOL     OW33609   1.270   3.608   4.154 -0.2343  0.0126 -0.3820
 8461SOL    HW233610   1.250   3.677   4.091 -0.5230  0.7322  0.4648
 8461SOL    HW333611   1.206   3.539   4.135 -1.7423  1.1139  0.4661
 8461SOL    MW433612   1.259   3.608   4.143 -0.4714  0.2528 -0.1584
 8462SOL     OW33613   0.195   3.823   4.033  0.0728 -0.3483  0.2794
 8462SOL    HW233614   0.143   3.757   3.988  2.7728 -2.1821 -0.4019
 8462SOL    HW333615   0.234   3.875   3.963 -0.1579  0.4774  0.7440
 8462SOL    MW433616   0.193   3.821   4.018  0.3986 -0.4813  0.2508
 8463SOL     OW33617   4.953   0.513   0.988  0.1017 -0.1106 -0.1120
 8463SOL    HW233618   5.045   0.492   1.002 -0.2642 -2.1854 -0.4888
 8463SOL    HW333619   4.926   0.558   1.068  0.6635 -2.3640  1.4285
 8463SOL    MW433620   4.961   0.516   1.000  0.1276 -0.6817  0.0415
 8464SOL     OW33621   3.495   2.368   4.084 -0.6211  0.0641 -0.1287
 8464SOL    HW233622   3.450   2.295   4.128  1.9849 -0.1659  2.5280
 8464SOL    HW333623   3.489   2.440   4.147  2.6082 -0.0294  0.4581
 8464SOL    MW433624   3.489   2.368   4.098  0.1488  0.0214  0.2992
 8465SOL     OW33625   2.155   5.947   0.855 -0.1096 -1.3205  0.0213
 8465SOL    HW233626   2.076   5.996   0.880 -0.8765 -2.4837 -0.0068
 8465SOL    HW333627   2.224   5.982   0.911 -1.3627 -2.4932  2.4982
 8465SOL    MW433628   2.153   5.958   0.866 -0.3761 -1.6287  0.3444
 8466SOL     OW33629   0.579   3.772   2.541 -0.2848  0.5434 -0.3094
 8466SOL    HW233630   0.634   3.834   2.493  1.3954 -2.1277 -2.0941
 8466SOL    HW333631   0.590   3.689   2.495 -3.1848 -0.9334  1.3539
 8466SOL    MW433632   0.588   3.769   2.529 -0.4458 -0.0039 -0.3254
 8467SOL     OW33633   0.440   3.044   3.529 -0.0843 -0.3586  0.4700
 8467SOL    HW233634   0.525   3.045   3.486 -0.4509  1.2429 -0.3185
 8467SOL    HW333635   0.453   3.094   3.610 -0.5005  0.9803 -0.2432
 8467SOL    MW433636   0.453   3.051   3.534 -0.1876  0.0294  0.2719
 8468SOL     OW33637   1.438   1.797   5.745 -0.2714  0.1494  0.4115
 8468SOL    HW233638   1.448   1.761   5.833 -1.0577 -0.9870  0.0501
 8468SOL    HW333639   1.353   1.840   5.746 -0.7865 -0.8413 -0.1166
 8468SOL    MW433640   1.428   1.798   5.756 -0.4431 -0.1312  0.2942
 8469SOL     OW33641   2.887   3.240   1.946  0.2707 -0.0176 -0.1875
 8469SOL    HW233642   2.977   3.225   1.916  0.1947  1.2529 -1.1291
 8469SOL    HW333643   2.838   3.256   1.866 -0.6651 -0.0026  0.3814
 8469SOL    MW433644   2.893   3.240   1.931  0.1372  0.1520 -0.2367
 8470SOL     OW33645   5.482   4.713   1.203  0.0199  0.0590 -0.1718
 8470SOL    HW233646   5.400   4.762   1.210  0.6491  0.9209  2.0397
 8470SOL    HW333647   5.548   4.769   1.244  1.4820 -1.1195 -0.8061
 8470SOL    MW433648   5.480   4.727   1.210  0.2958  0.0173  0.0363
 8471SOL     OW33649   4.590   2.635   3.967  0.1528  0.5864 -0.2108
 8471SOL    HW233650   4.648   2.559   3.964 -1.0548 -0.3653 -1.8900
 8471SOL    HW333651   4.572   2.649   4.060  0.1337 -1.4281  0.1303
 8471SOL    MW433652   4.595   2.627   3.979 -0.0091  0.1951 -0.3873
 8472SOL     OW33653   1.944   2.403   6.067 -0.7029 -0.1122  0.1045
 8472SOL    HW233654   1.876   2.430   6.129  0.1948  1.0670  0.6255
 8472SOL    HW333655   1.945   2.473   6.001 -0.8179 -0.7448 -0.5821
 8472SOL    MW433656   1.935   2.416   6.066 -0.5996 -0.0401  0.0826
 8473SOL     OW33657   2.316   1.904   4.288  0.1767  0.0356 -0.1030
 8473SOL    HW233658   2.362   1.839   4.235 -0.0040  0.8261 -1.2676
 8473SOL    HW333659   2.261   1.853   4.347  2.0450 -0.9137  0.8893
 8473SOL    MW433660   2.315   1.889   4.289  0.3994  0.0147 -0.1258
 8474SOL     OW33661   2.222   3.779   2.627 -0.3499 -0.0080 -0.4263
 8474SOL    HW233662   2.189   3.689   2.621  0.7793 -0.3969 -1.0540
 8474SOL    HW333663   2.317   3.771   2.619 -0.1836  1.1981  0.0602
 8474SOL    MW433664   2.230   3.766   2.625 -0.1790  0.0998 -0.4449
 8475SOL     OW33665   5.498   3.836   1.301 -0.2887 -0.4697  0.6197
 8475SOL    HW233666   5.533   3.759   1.256 -0.5910 -0.0464 -0.3697
 8475SOL    HW333667   5.433   3.872   1.240 -0.0261  0.6696  0.9860
 8475SOL    MW433668   5.494   3.831   1.287 -0.2939 -0.2635  0.5375
 8476SOL     OW33669   2.528   1.525   5.016  0.3801  0.4118 -0.4952
 8476SOL    HW233670   2.589   1.516   5.089  1.4371  0.8456 -1.2979
 8476SOL    HW333671   2.457   1.464   5.036  1.0044  0.0061  0.5328
 8476SOL    MW433672   2.527   1.516   5.028  0.6019  0.4155 -0.4655
 8477SOL     OW33673   1.878   4.619   1.706 -0.1017 -0.1170 -0.2624
 8477SOL    HW233674   1.965   4.622   1.747 -0.4058  0.7092  0.3552
 8477SOL    HW333675   1.831   4.693   1.745 -1.3237 -0.9713 -0.0410
 8477SOL    MW433676   1.884   4.629   1.717 -0.3031 -0.1207 -0.1517
 8478SOL     OW33677   2.636   1.331   5.264 -0.2022 -0.6616  0.1240
 8478SOL    HW233678   2.710   1.327   5.204 -1.0327  0.6145 -1.0532
 8478SOL    HW333679   2.664   1.282   5.341  1.5023 -0.9746 -0.6589
 8478SOL    MW433680   2.649   1.324   5.266 -0.0869 -0.5345 -0.1346
 8479SOL     OW33681   2.388   3.412   0.556 -0.4370 -0.2467 -0.0337
 8479SOL    HW233682   2.452   3.390   0.623  0.2228 -0.9355 -0.8673
 8479SOL    HW333683   2.424   3.375   0.475 -1.8829 -0.6544 -0.5240
 8479SOL    MW433684   2.401   3.404   0.554 -0.5408 -0.3914 -0.2084
 8480SOL     OW33685   4.879   2.653   6.333  0.1790  0.3051 -0.3516
 8480SOL    HW233686   4.858   2.633   6.424 -0.7364  0.4056 -0.5267
 8480SOL    HW333687   4.825   2.730   6.313  0.0702  0.0460 -1.0909
 8480SOL    MW433688   4.869   2.661   6.343  0.0439  0.2842 -0.4723
 8481SOL     OW33689   2.095   5.106   1.642 -0.3676  0.1756 -0.1033
 8481SOL    HW233690   2.086   5.054   1.722 -0.8344 -0.7387 -0.7323
 8481SOL    HW333691   2.012   5.152   1.633 -0.6833 -0.4636 -0.5553
 8481SOL    MW433692   2.083   5.105   1.651 -0.4709 -0.0293 -0.2460
 8482SOL     OW33693   2.499   0.576   1.951 -0.3261  0.6559 -0.3328
 8482SOL    HW233694   2.581   0.528   1.955  0.0575  1.2316 -1.0571
 8482SOL    HW333695   2.432   0.508   1.942  0.0603  0.1817  0.2844
 8482SOL    MW433696   2.501   0.561   1.950 -0.2245  0.6693 -0.3469
 8483SOL     OW33697   0.156   3.541   2.924  0.1664 -0.1930  0.7359
 8483SOL    HW233698   0.061   3.535   2.910 -0.0183  1.0378  1.3099
 8483SOL    HW333699   0.179   3.628   2.893  0.9118 -0.0426  1.6708
 8483SOL    MW433700   0.146   3.551   2.918  0.2404 -0.0108  0.9350
 8484SOL     OW33701   3.879   4.556   5.535 -0.5318  0.8477 -0.2216
 8484SOL    HW233702   3.789   4.569   5.504 -1.2303  0.7771  1.6974
 8484SOL    HW333703   3.897   4.631   5.590  0.4643  0.6725 -0.2902
 8484SOL    MW433704   3.870   4.567   5.538 -0.4925  0.8153  0.0226
 8485SOL     OW33705   1.990   1.025   1.369 -0.1431 -0.5676  0.3924
 8485SOL    HW233706   1.953   1.111   1.389  0.3478  0.0909 -1.2958
 8485SOL    HW333707   1.943   0.996   1.291 -0.7877 -2.1762  1.3501
 8485SOL    MW433708   1.979   1.032   1.361 -0.1634 -0.6929  0.2960
 8486SOL     OW33709   0.760   3.647   5.598  0.0742  0.2179  0.6514
 8486SOL    HW233710   0.780   3.710   5.530 -0.0550 -1.9512 -1.5296
 8486SOL    HW333711   0.669   3.620   5.581 -0.0188 -0.2505  1.7791
 8486SOL    MW433712   0.751   3.652   5.587  0.0449 -0.1301  0.5124
 8487SOL     OW33713   1.017   5.795   5.834  0.3408  0.3308 -0.1141
 8487SOL    HW233714   1.088   5.842   5.791  2.1436 -1.7694  0.4233
 8487SOL    HW333715   1.003   5.717   5.780 -0.1455 -0.3036  0.9039
 8487SOL    MW433716   1.024   5.791   5.821  0.5145 -0.0300  0.0911
 8488SOL     OW33717   0.760   0.058   1.020  0.4751 -0.0213  0.6123
 8488SOL    HW233718   0.832   0.121   1.022  0.4345  0.1558 -1.2483
 8488SOL    HW333719   0.794  -0.016   0.971 -0.6314  0.1384 -0.4447
 8488SOL    MW433720   0.774   0.057   1.014  0.3238  0.0231  0.2273
 8489SOL     OW33721   1.016   1.148   3.780  0.0258 -0.3428 -0.4050
 8489SOL    HW233722   1.069   1.104   3.713  1.1142  0.6400 -0.2043
 8489SOL    HW333723   1.004   1.237   3.746 -0.5375 -0.2198  0.1005
 8489SOL    MW433724   1.021   1.153   3.766  0.0951 -0.1969 -0.3118
 8490SOL     OW33725   0.105   0.014   5.549  0.6590  0.3201  0.0780
 8490SOL    HW233726   0.073   0.101   5.571 -1.7802 -0.4716 -0.0805
 8490SOL    HW333727   0.094  -0.037   5.629  1.2437 -0.0739 -0.0880
 8490SOL    MW433728   0.099   0.019   5.562  0.4143  0.1637  0.0352
 8491SOL     OW33729   0.303   2.551   2.286  0.1532  0.5837 -0.3797
 8491SOL    HW233730   0.296   2.554   2.381 -3.0986 -1.5771 -0.3989
 8491SOL    HW333731   0.255   2.628   2.256 -0.3666  0.2977 -0.2836
 8491SOL    MW433732   0.296   2.562   2.295 -0.3444  0.2609 -0.3695
 8492SOL     OW33733   1.757   5.694   0.861 -0.0760 -0.9696 -0.3899
 8492SOL    HW233734   1.662   5.693   0.865 -0.3010  1.3243 -2.7681
 8492SOL    HW333735   1.785   5.716   0.950 -1.7764 -0.9895  0.1832
 8492SOL    MW433736   1.748   5.696   0.873 -0.3301 -0.6696 -0.6280
 8493SOL     OW33737   5.984   0.937   3.250  0.1726  0.1940 -0.3959
 8493SOL    HW233738   6.066   0.907   3.289  0.2198  0.3348 -0.3840
 8493SOL    HW333739   5.990   1.033   3.253 -1.2087  0.2820  2.2569
 8493SOL    MW433740   5.996   0.946   3.256 -0.0034  0.2242 -0.0443
 8494SOL     OW33741   4.110   4.533   0.048 -0.2629 -0.1268  0.0962
 8494SOL    HW233742   4.201   4.544   0.075  0.1085 -0.6978 -0.8641
 8494SOL    HW333743   4.084   4.618   0.013 -0.5711  0.4556  1.6547
 8494SOL    MW433744   4.118   4.545   0.047 -0.2545 -0.1253  0.1752
 8495SOL     OW33745   0.837   6.208   6.291  0.5393  0.1426 -0.5100
 8495SOL    HW233746   0.781   6.150   6.240  0.1885 -0.2260  0.2781
 8495SOL    HW333747   0.784   6.286   6.305  0.2349 -0.1799  0.1795
 8495SOL    MW433748   0.823   6.211   6.286  0.4529  0.0514 -0.3150
 8496SOL     OW33749   5.641   5.545   2.976 -0.1846  0.3516 -0.5263
 8496SOL    HW233750   5.653   5.638   2.994  2.3628  0.4743 -2.2815
 8496SOL    HW333751   5.730   5.508   2.981 -1.3086 -2.4656  2.1876
 8496SOL    MW433752   5.655   5.552   2.979  0.0032 -0.0039 -0.3998
 8497SOL     OW33753   0.048   5.139   0.408  0.0225 -0.3322 -0.1646
 8497SOL    HW233754   0.074   5.212   0.351  0.6227 -1.0453 -0.8191
 8497SOL    HW333755   0.044   5.178   0.495  2.3555  0.0549 -0.1591
 8497SOL    MW433756   0.051   5.154   0.412  0.4095 -0.3752 -0.2502
 8498SOL     OW33757   6.006   1.375   2.240  0.4369 -0.1404  0.4391
 8498SOL    HW233758   6.042   1.329   2.315 -1.1061 -0.5214  0.9776
 8498SOL    HW333759   6.002   1.467   2.267 -1.2605 -0.4305  1.3596
 8498SOL    MW433760   6.010   1.381   2.253  0.0094 -0.2289  0.6316
 8499SOL     OW33761   1.612   4.021   5.548  0.0139  0.2033 -0.3255
 8499SOL    HW233762   1.682   4.067   5.501  0.9091 -0.9039 -0.1259
 8499SOL    HW333763   1.631   4.036   5.641 -0.5510  0.6546 -0.2771
 8499SOL    MW433764   1.624   4.029   5.554  0.0575  0.1168 -0.2928
 8500SOL     OW33765   3.332   2.843   4.602 -0.3970 -0.3061 -0.7114
 8500SOL    HW233766   3.292   2.859   4.687 -1.3357  1.5761 -1.4597
 8500SOL    HW333767   3.380   2.761   4.614 -0.2202  0.0654  1.7154
 8500SOL    MW433768   3.333   2.834   4.615 -0.4975 -0.0087 -0.4900
 8501SOL     OW33769   0.813   5.817   3.122  0.6120  0.1102 -0.5613
 8501SOL    HW233770   0.902   5.850   3.136  0.7683 -0.5265  0.0100
 8501SOL    HW333771   0.803   5.748   3.188 -0.4795  0.5184 -0.2838
 8501SOL    MW433772   0.823   5.812   3.133  0.4886  0.0801 -0.4493
 8502SOL     OW33773   3.758   5.376   2.997  0.1081  0.1959  0.1772
 8502SOL    HW233774   3.844   5.355   2.962 -0.3186  0.9861 -1.4032
 8502SOL    HW333775   3.718   5.432   2.931 -1.8872 -0.6994  0.5645
 8502SOL    MW433776   3.764   5.381   2.984 -0.2114  0.1820  0.0198
 8503SOL     OW33777   6.182   1.064   5.273  0.1452  0.0190  0.1085
 8503SOL    HW233778   6.259   1.119   5.281 -1.1361  2.2491 -1.7477
 8503SOL    HW333779   6.112   1.114   5.315 -0.2952 -2.2045  2.2684
 8503SOL    MW433780   6.183   1.078   5.279 -0.0820  0.0199  0.1486
 8504SOL     OW33781   0.563   4.696   1.167 -0.9311  0.2090  0.3812
 8504SOL    HW233782   0.574   4.673   1.075 -1.0808  3.5402 -0.5910
 8504SOL    HW333783   0.639   4.658   1.210  0.5957  0.7868 -1.6305
 8504SOL    MW433784   0.574   4.688   1.161 -0.7494  0.7248 -0.0125
 8505SOL     OW33785   6.150   3.934   4.643 -0.4348 -0.1453  0.3203
 8505SOL    HW233786   6.203   4.013   4.629 -0.7581 -0.0354 -0.3016
 8505SOL    HW333787   6.061   3.960   4.620 -0.4448 -0.8610 -0.5286
 8505SOL    MW433788   6.145   3.948   4.638 -0.4788 -0.2252  0.1262
 8506SOL     OW33789   2.865   1.426   2.371  0.0946 -0.7642  0.3027
 8506SOL    HW233790   2.781   1.418   2.326 -0.4484 -1.4539  1.3865
 8506SOL    HW333791   2.874   1.519   2.390 -0.7307 -0.7636  0.7114
 8506SOL    MW433792   2.855   1.437   2.367 -0.0860 -0.8552  0.4996
 8507SOL     OW33793   5.354   5.777   0.354  0.6430  0.7070  0.3334
 8507SOL    HW233794   5.288   5.709   0.341 -0.3145  1.3592  1.5039
 8507SOL    HW333795   5.414   5.740   0.419  0.9826  0.4213 -0.1365
 8507SOL    MW433796   5.353   5.763   0.361  0.5615  0.7553  0.4259
 8508SOL     OW33797   1.250   1.043   0.487 -0.1776  0.4014  0.0764
 8508SOL    HW233798   1.314   1.113   0.473  1.5426 -1.1569 -0.1443
 8508SOL    HW333799   1.173   1.071   0.437  0.8095  1.6512 -0.8110
 8508SOL    MW433800   1.248   1.056   0.479  0.1796  0.3607 -0.0698
 8509SOL     OW33801   3.439   1.231   0.519  0.4161 -0.0884  0.1347
 8509SOL    HW233802   3.349   1.201   0.529  0.4840 -0.3122  0.0818
 8509SOL    HW333803   3.436   1.292   0.445 -0.0638  1.4686  1.3831
 8509SOL    MW433804   3.427   1.235   0.511  0.3618  0.0875  0.2925
 8510SOL     OW33805   0.780   1.072   3.438 -1.0564 -0.4474  0.6429
 8510SOL    HW233806   0.735   1.090   3.356 -0.2541 -0.6000  0.1655
 8510SOL    HW333807   0.775   0.977   3.448  1.4163 -0.8153 -0.7706
 8510SOL    MW433808   0.773   1.062   3.429 -0.6243 -0.5161  0.3934
 8511SOL     OW33809   4.847   4.606   3.188  0.7274  0.1428  0.1232
 8511SOL    HW233810   4.828   4.699   3.173  0.6521  0.7835  3.3503
 8511SOL    HW333811   4.765   4.571   3.223  1.0725 -0.8863 -0.0833
 8511SOL    MW433812   4.834   4.614   3.191  0.7630  0.0916  0.5217
 8512SOL     OW33813   3.047   2.282   3.646  0.4461  0.5160 -0.1922
 8512SOL    HW233814   3.062   2.363   3.694  3.7633 -0.7479  1.2507
 8512SOL    HW333815   3.067   2.213   3.710 -1.3852 -1.4848 -1.6098
 8512SOL    MW433816   3.051   2.283   3.661  0.6421  0.0853 -0.1889
 8513SOL     OW33817   2.861   1.157   2.075 -0.2773  0.4128  0.5083
 8513SOL    HW233818   2.913   1.141   2.154 -1.2586  0.5750  1.2160
 8513SOL    HW333819   2.821   1.072   2.056  1.3929 -0.1111 -0.9374
 8513SOL    MW433820   2.863   1.144   2.083 -0.1864  0.3651  0.4109
 8514SOL     OW33821   5.169   0.116   2.107 -0.2800  0.3578  0.1468
 8514SOL    HW233822   5.108   0.184   2.078  0.1065  1.3961  1.6493
 8514SOL    HW333823   5.116   0.055   2.157 -0.2504  0.7789  0.6975
 8514SOL    MW433824   5.154   0.117   2.110 -0.2251  0.5503  0.4177
 8515SOL     OW33825   0.977   1.788   4.731 -0.2949  0.2871 -0.3904
 8515SOL    HW233826   1.041   1.747   4.673 -1.2740 -0.5381 -0.9140
 8515SOL    HW333827   0.965   1.876   4.696  0.7731  0.5733 -0.0919
 8515SOL    MW433828   0.984   1.794   4.719 -0.2831  0.2160 -0.4201
 8516SOL     OW33829   5.393   0.582   1.550 -0.6533  0.2515  0.1890
 8516SOL    HW233830   5.356   0.494   1.543 -2.0601  0.8331 -0.0554
 8516SOL    HW333831   5.385   0.604   1.642 -0.9348  0.3757  0.1368
 8516SOL    MW433832   5.387   0.573   1.561 -0.8760  0.3446  0.1499
 8517SOL     OW33833   4.969   2.153   4.770  0.2628 -0.1504 -0.5483
 8517SOL    HW233834   4.978   2.096   4.694  0.3391 -1.4100  0.3818
 8517SOL    HW333835   4.877   2.146   4.795  0.1417  0.5888 -0.7663
 8517SOL    MW433836   4.958   2.145   4.763  0.2569 -0.2190 -0.4544
 8518SOL     OW33837   5.936   0.376   5.174  0.5754 -0.7678  0.6856
 8518SOL    HW233838   5.917   0.326   5.094 -0.4747 -2.0887  1.7002
 8518SOL    HW333839   5.984   0.452   5.144  0.3476 -1.3097 -1.1935
 8518SOL    MW433840   5.940   0.379   5.159  0.4068 -1.0136  0.5716
 8519SOL     OW33841   6.358   4.195   5.558  0.6799  0.2776  0.1339
 8519SOL    HW233842   6.349   4.204   5.653 -1.1062 -0.0661  0.0326
 8519SOL    HW333843   6.323   4.276   5.522  1.0780  0.2876 -0.2422
 8519SOL    MW433844   6.352   4.207   5.565  0.4968  0.2336  0.0709
 8520SOL     OW33845   2.802   0.611   3.659  0.0682  0.3286  0.0414
 8520SOL    HW233846   2.776   0.683   3.602 -1.3508 -0.7109 -0.6739
 8520SOL    HW333847   2.864   0.651   3.721  0.2552  1.8726 -1.0867
 8520SOL    MW433848   2.807   0.626   3.660 -0.0944  0.3952 -0.2018
 8521SOL     OW33849   1.018   6.332   0.905  0.0648 -0.1931  0.4059
 8521SOL    HW233850   1.058   6.247   0.928  1.8559  0.3504 -0.4719
 8521SOL    HW333851   0.967   6.314   0.826  1.9430 -0.1495 -0.8816
 8521SOL    MW433852   1.017   6.318   0.898  0.5489 -0.1156  0.1202
 8522SOL     OW33853   5.686   4.240   3.418  0.5574 -0.2594 -0.0484
 8522SOL    HW233854   5.735   4.165   3.383 -0.5039 -1.1406  0.2762
 8522SOL    HW333855   5.595   4.221   3.395 -0.0093 -0.1646  1.8999
 8522SOL    MW433856   5.680   4.227   3.410  0.3426 -0.3632  0.2515
 8523SOL     OW33857   1.558   1.125   1.300  0.5945  0.1125  0.5262
 8523SOL    HW233858   1.503   1.151   1.374  2.2770 -0.0172  1.8786
 8523SOL    HW333859   1.520   1.043   1.270  0.1157 -0.0600  1.5426
 8523SOL    MW433860   1.546   1.117   1.306  0.7534  0.0726  0.8387
 8524SOL     OW33861   3.940   1.072   0.455 -0.4101 -0.0461  0.0316
 8524SOL    HW233862   3.973   1.088   0.544 -0.4114 -2.5375  0.5760
 8524SOL    HW333863   3.845   1.073   0.465 -0.4562  1.3319 -0.3313
 8524SOL    MW433864   3.932   1.074   0.468 -0.4163 -0.1930  0.0555
 8525SOL     OW33865   2.606   0.587   4.935  0.2040 -0.2626  0.3869
 8525SOL    HW233866   2.668   0.514   4.942 -0.3214 -0.5696  3.0863
 8525SOL    HW333867   2.641   0.653   4.994 -0.8147  0.5243  0.1366
 8525SOL    MW433868   2.619   0.586   4.944  0.0003 -0.1993  0.7100
 8526SOL     OW33869   3.129   6.420   5.637 -0.0268  0.3956 -0.3229
 8526SOL    HW233870   3.034   6.431   5.625  0.0195  0.2701 -0.8106
 8526SOL    HW333871   3.138   6.394   5.729 -0.2711  2.9039  0.4864
 8526SOL    MW433872   3.117   6.418   5.648 -0.0529  0.7100 -0.2805
 8527SOL     OW33873   3.391   1.582   2.440 -0.6683 -0.0956  0.0694
 8527SOL    HW233874   3.385   1.626   2.525 -0.5833  0.5015 -0.2271
 8527SOL    HW333875   3.428   1.648   2.382  0.8870 -1.0398 -0.0509
 8527SOL    MW433876   3.395   1.597   2.443 -0.4519 -0.1414  0.0144
 8528SOL     OW33877   3.802   0.514   1.048 -0.2293 -0.0650 -0.4851
 8528SOL    HW233878   3.771   0.425   1.065 -0.9632  0.1477 -0.6633
 8528SOL    HW333879   3.889   0.517   1.087 -0.4221 -0.6943  0.0123
 8528SOL    MW433880   3.809   0.502   1.056 -0.3516 -0.1200 -0.4429
 8529SOL     OW33881   3.506   5.412   3.119 -0.3353 -0.1476 -0.0446
 8529SOL    HW233882   3.599   5.400   3.102 -0.1349  0.1409  0.8096
 8529SOL    HW333883   3.502   5.479   3.187 -1.1661 -0.1605 -0.0680
 8529SOL    MW433884   3.518   5.419   3.125 -0.4185 -0.1112  0.0650
 8530SOL     OW33885   6.367   5.404   0.962 -0.2714  0.0902 -0.0894
 8530SOL    HW233886   6.416   5.485   0.948 -0.4456 -0.1522 -2.5210
 8530SOL    HW333887   6.381   5.383   1.054  3.3799  0.5628 -0.3850
 8530SOL    MW433888   6.375   5.412   0.972  0.1874  0.1206 -0.4492
 8531SOL     OW33889   2.502   0.505   1.482 -0.2613 -0.0788  0.3164
 8531SOL    HW233890   2.593   0.530   1.496 -0.4494  1.1471 -0.5069
 8531SOL    HW333891   2.497   0.483   1.389 -0.2360 -2.7976  0.8671
 8531SOL    MW433892   2.513   0.505   1.472 -0.2828 -0.2757  0.2804
 8532SOL     OW33893   2.440   0.795   0.292  0.6963  0.6800 -0.2455
 8532SOL    HW233894   2.485   0.828   0.369  0.0444  0.5226  0.2107
 8532SOL    HW333895   2.351   0.831   0.299  0.7935  1.1554 -1.2289
 8532SOL    MW433896   2.434   0.804   0.303  0.6231  0.7220 -0.3151
 8533SOL     OW33897   3.421   1.365   3.827 -0.1514 -0.3887  0.4103
 8533SOL    HW233898   3.494   1.332   3.878  1.1861  0.7418 -0.6758
 8533SOL    HW333899   3.397   1.292   3.769 -0.5542 -1.0862  1.4222
 8533SOL    MW433900   3.427   1.351   3.826 -0.0281 -0.3316  0.4005
 8534SOL     OW33901   4.113   6.326   2.480  0.0853 -0.0174 -0.1340
 8534SOL    HW233902   4.172   6.401   2.488  2.0167 -1.5169  0.4216
 8534SOL    HW333903   4.166   6.257   2.439 -1.1032 -1.5968  0.8497
 8534SOL    MW433904   4.128   6.327   2.476  0.1833 -0.4236  0.0691
 8535SOL     OW33905   3.907   2.783   2.960 -0.1515  0.7710  0.2649
 8535SOL    HW233906   3.884   2.767   3.051 -2.0714 -3.6068 -0.7380
 8535SOL    HW333907   3.824   2.807   2.918  0.4165  1.2556 -0.6241
 8535SOL    MW433908   3.893   2.784   2.966 -0.3298  0.2574  0.0153
 8536SOL     OW33909   4.093   2.634   4.236  0.4011 -0.0962 -0.3306
 8536SOL    HW233910   4.131   2.574   4.301 -0.8356  0.3586  0.8573
 8536SOL    HW333911   4.119   2.721   4.266 -1.3918  0.2155  0.4317
 8536SOL    MW433912   4.102   2.637   4.249  0.0014  0.0050 -0.0733
 8537SOL     OW33913   4.693   5.504   5.573 -0.5039 -0.2495 -0.0756
 8537SOL    HW233914   4.763   5.556   5.613  0.1266 -1.0378 -0.1351
 8537SOL    HW333915   4.713   5.414   5.597 -1.7157 -0.4558  0.2243
 8537SOL    MW433916   4.705   5.499   5.581 -0.5806 -0.3808 -0.0439
 8538SOL     OW33917   4.550   2.026   5.947  0.6889 -0.3844  0.2404
 8538SOL    HW233918   4.573   2.114   5.917 -1.4861  0.2971  0.3847
 8538SOL    HW333919   4.519   2.038   6.037 -3.2431 -0.5600 -0.9190
 8538SOL    MW433920   4.549   2.039   5.955 -0.1168 -0.3177  0.1065
 8539SOL     OW33921   3.169   2.291   3.953  0.4785 -0.6147 -0.5428
 8539SOL    HW233922   3.206   2.249   4.031  0.9855 -0.7966 -0.8701
 8539SOL    HW333923   3.075   2.285   3.965  0.5123  0.9876  0.9351
 8539SOL    MW433924   3.162   2.284   3.965  0.5498 -0.4273 -0.3910
 8540SOL     OW33925   4.013   0.505   3.788  0.6494  0.5793  0.1918
 8540SOL    HW233926   3.999   0.599   3.800  1.2335  0.7548 -0.4181
 8540SOL    HW333927   3.925   0.469   3.779  0.3371  0.8474  1.8510
 8540SOL    MW433928   4.000   0.513   3.788  0.6853  0.6378  0.3302
 8541SOL     OW33929   4.957   5.514   2.258 -0.0137  0.3058 -0.0988
 8541SOL    HW233930   4.991   5.569   2.187 -2.0389  2.3995  0.4014
 8541SOL    HW333931   4.917   5.577   2.318 -0.5080 -1.6165  1.6811
 8541SOL    MW433932   4.957   5.530   2.257 -0.3461  0.3284  0.2020
 8542SOL     OW33933   5.638   3.610   5.141  0.0627 -0.5666  0.2738
 8542SOL    HW233934   5.584   3.663   5.082  1.0004  1.0580  0.8013
 8542SOL    HW333935   5.584   3.533   5.160 -1.0277 -0.2132 -1.1752
 8542SOL    MW433936   5.623   3.607   5.135  0.0425 -0.3056  0.1522
 8543SOL     OW33937   3.854   2.966   3.438 -0.4950  0.9221 -0.4237
 8543SOL    HW233938   3.766   2.996   3.460  0.7145  4.0053  0.8249
 8543SOL    HW333939   3.881   2.911   3.511 -0.2183  2.7747  0.9337
 8543SOL    MW433940   3.846   2.963   3.450 -0.2989  1.5733 -0.0799
 8544SOL     OW33941   4.716   0.746   5.245  0.2693  0.5869 -0.3444
 8544SOL    HW233942   4.710   0.680   5.175  2.0567  0.0120 -0.0160
 8544SOL    HW333943   4.724   0.829   5.198  4.3211  0.0131 -1.0999
 8544SOL    MW433944   4.717   0.748   5.229  1.0397  0.4353 -0.4007
 8545SOL     OW33945   2.689   0.632   4.658  0.4363 -0.6162 -0.3233
 8545SOL    HW233946   2.676   0.538   4.645 -1.1642 -0.4213 -0.3544
 8545SOL    HW333947   2.699   0.642   4.753  1.2146 -0.8732 -0.3743
 8545SOL    MW433948   2.689   0.621   4.669  0.3278 -0.6244 -0.3342
 8546SOL     OW33949   5.669   6.047   5.113 -0.4920  0.0406  0.0888
 8546SOL    HW233950   5.752   6.053   5.159  0.2811  0.6121 -1.3090
 8546SOL    HW333951   5.632   6.135   5.118 -0.8045 -0.1006  0.3190
 8546SOL    MW433952   5.675   6.059   5.120 -0.4313  0.0974 -0.0653
 8547SOL     OW33953   1.125   3.427   0.500  0.6192  0.4969 -0.2779
 8547SOL    HW233954   1.053   3.488   0.483  0.8550  1.1897  1.0445
 8547SOL    HW333955   1.083   3.340   0.500 -0.3496  0.9361  1.0420
 8547SOL    MW433956   1.110   3.423   0.498  0.5225  0.6463  0.0707
 8548SOL     OW33957   3.349   6.326   4.060 -0.3111  0.1178 -0.0274
 8548SOL    HW233958   3.366   6.318   3.966 -0.9798  0.2769 -0.1663
 8548SOL    HW333959   3.430   6.361   4.097 -0.1288  0.2811 -0.5834
 8548SOL    MW433960   3.362   6.330   4.053 -0.3753  0.1604 -0.1190
 8549SOL     OW33961   3.058   4.215   0.902 -0.3091 -0.0517 -0.0003
 8549SOL    HW233962   2.995   4.178   0.841 -0.0240 -1.6184  0.6145
 8549SOL    HW333963   3.010   4.284   0.947 -1.3713 -0.7288 -0.0580
 8549SOL    MW433964   3.043   4.219   0.900 -0.4117 -0.3477  0.0732
 8550SOL     OW33965   3.286   3.295   4.399 -0.0715 -0.1415 -0.0536
 8550SOL    HW233966   3.261   3.224   4.459  1.6728  0.6720  1.7462
 8550SOL    HW333967   3.330   3.251   4.327  0.9801 -0.9199  1.0318
 8550SOL    MW433968   3.288   3.279   4.397  0.2974 -0.1369  0.3271
 8551SOL     OW33969   3.727   3.417   1.751  0.3812  0.0514 -0.5293
 8551SOL    HW233970   3.654   3.462   1.793  1.0483  1.0627 -0.4336
 8551SOL    HW333971   3.747   3.344   1.811  2.4424  2.4470  1.9558
 8551SOL    MW433972   3.720   3.413   1.764  0.7412  0.5009 -0.1888
 8552SOL     OW33973   1.613   1.863   3.863  0.0799 -0.0048 -0.0141
 8552SOL    HW233974   1.676   1.795   3.885  0.1574 -0.8455 -2.5299
 8552SOL    HW333975   1.532   1.816   3.843 -1.5315  1.0562  3.2584
 8552SOL    MW433976   1.611   1.848   3.863 -0.1225  0.0243  0.0857
 8553SOL     OW33977   4.360   2.886   2.833 -0.1838  0.2946 -0.4727
 8553SOL    HW233978   4.270   2.856   2.825 -1.1827  2.8139  0.2480
 8553SOL    HW333979   4.403   2.857   2.753 -1.2175 -2.1532 -0.2063
 8553SOL    MW433980   4.354   2.878   2.822 -0.4519  0.3041 -0.3424
 8554SOL     OW33981   2.920   1.895   4.324 -0.2927  0.5768 -0.2678
 8554SOL    HW233982   2.987   1.843   4.279 -0.2505  0.9031 -0.5890
 8554SOL    HW333983   2.867   1.831   4.370 -0.1495  0.2593 -0.5384
 8554SOL    MW433984   2.922   1.880   4.324 -0.2683  0.5780 -0.3459
 8555SOL     OW33985   0.811   0.152   6.086  0.8510  0.1894  0.2703
 8555SOL    HW233986   0.816   0.211   6.011  0.5730 -0.8902 -0.6202
 8555SOL    HW333987   0.886   0.093   6.076 -0.0826 -0.9855 -0.0682
 8555SOL    MW433988   0.822   0.152   6.075  0.6912 -0.1081  0.1081
 8556SOL     OW33989   0.598   5.866   1.856  0.2192 -0.1734  0.5512
 8556SOL    HW233990   0.591   5.954   1.821  0.1408  0.0755  1.1906
 8556SOL    HW333991   0.692   5.848   1.855  0.1430 -0.6776 -1.0076
 8556SOL    MW433992   0.610   5.875   1.851  0.1988 -0.2071  0.4299
 8557SOL     OW33993   0.757   5.117   0.911  0.0231  0.0788  0.4275
 8557SOL    HW233994   0.794   5.113   1.000  0.3908 -0.9810  0.2393
 8557SOL    HW333995   0.823   5.164   0.860  0.1453  0.0437  0.5511
 8557SOL    MW433996   0.771   5.123   0.916  0.0877 -0.0657  0.4190
 8558SOL     OW33997   1.642   3.421   0.401  0.0876  0.2265  0.1684
 8558SOL    HW233998   1.612   3.399   0.489 -1.3645  2.0341  0.1720
 8558SOL    HW333999   1.693   3.501   0.412  0.2576  0.2277 -0.5798
 8558SOL    MW434000   1.645   3.428   0.414 -0.0816  0.4651  0.0702
 8559SOL     OW34001   3.045   0.130   3.930  0.1189 -0.6341 -0.2382
 8559SOL    HW234002   3.061   0.174   3.847  0.2490  0.1210  0.1777
 8559SOL    HW334003   3.058   0.037   3.911  0.2868 -0.4569 -1.0229
 8559SOL    MW434004   3.049   0.123   3.917  0.1582 -0.5111 -0.2868
 8560SOL     OW34005   2.477   3.128   2.455  0.2183 -0.1990  0.1213
 8560SOL    HW234006   2.506   3.053   2.404  1.6164 -0.3743  1.0997
 8560SOL    HW334007   2.474   3.095   2.545  1.0259  0.9455  0.5887
 8560SOL    MW434008   2.480   3.114   2.460  0.5093 -0.0711  0.3120
 8561SOL     OW34009   1.340   1.361   4.565  0.4695  0.3304  0.0830
 8561SOL    HW234010   1.303   1.380   4.651  1.4637 -0.5392  0.7273
 8561SOL    HW334011   1.268   1.320   4.516  0.1860 -0.0811  0.8390
 8561SOL    MW434012   1.326   1.358   4.570  0.5633  0.1614  0.2678
 8562SOL     OW34013   3.726   0.555   4.960 -0.4848 -0.1428  0.0896
 8562SOL    HW234014   3.728   0.463   4.986  1.7710 -1.3137 -3.5025
 8562SOL    HW334015   3.816   0.585   4.971 -1.1633  1.6490  1.0806
 8562SOL    MW434016   3.738   0.547   4.965 -0.2767 -0.0609 -0.2536
 8563SOL     OW34017   2.367   5.153   1.581 -0.2237  0.0784 -0.4543
 8563SOL    HW234018   2.395   5.066   1.610 -0.6635 -0.2129 -0.8930
 8563SOL    HW334019   2.272   5.153   1.594 -0.6335 -0.5086 -2.9617
 8563SOL    MW434020   2.358   5.141   1.587 -0.3358 -0.0375 -0.8430
 8564SOL     OW34021   5.107   2.707   5.699  0.2724  0.0337  0.1062
 8564SOL    HW234022   5.146   2.625   5.668  0.5474 -0.6963  2.2061
 8564SOL    HW334023   5.016   2.685   5.717  0.3548  0.1665  0.7056
 8564SOL    MW434024   5.100   2.693   5.697  0.3195 -0.0451  0.4623
 8565SOL     OW34025   1.994   5.663   4.927 -0.0287 -0.3314  0.6265
 8565SOL    HW234026   2.057   5.634   4.993 -0.9924 -3.1844  0.4287
 8565SOL    HW334027   2.026   5.625   4.845 -0.0787  1.2884 -0.1984
 8565SOL    MW434028   2.007   5.654   4.925 -0.1624 -0.4941  0.4916
 8566SOL     OW34029   2.035   4.492   0.265 -0.2176  0.0210 -0.1262
 8566SOL    HW234030   2.103   4.480   0.199  1.7557  0.7250  1.6789
 8566SOL    HW334031   2.028   4.406   0.307  0.3820  0.2287  0.4139
 8566SOL    MW434032   2.043   4.479   0.262  0.1219  0.1413  0.1832
 8567SOL     OW34033   4.474   4.278   1.352 -0.1542  0.7167 -0.4263
 8567SOL    HW234034   4.525   4.313   1.425 -0.0391 -0.0348 -0.1368
 8567SOL    HW334035   4.537   4.229   1.300 -0.8868 -2.0009  1.0619
 8567SOL    MW434036   4.489   4.277   1.355 -0.2357  0.2590 -0.1918
 8568SOL     OW34037   0.060   6.160   5.816  0.1254  0.6247  0.1688
 8568SOL    HW234038   0.040   6.125   5.729  0.1460  1.4704 -0.1899
 8568SOL    HW334039  -0.004   6.120   5.874 -0.5445  0.8424 -0.4156
 8568SOL    MW434040   0.049   6.150   5.812  0.0397  0.7650  0.0443
 8569SOL     OW34041   0.199   5.638   3.560 -1.0032  0.9109 -0.0061
 8569SOL    HW234042   0.188   5.590   3.477  1.6250 -1.9359  1.0954
 8569SOL    HW334043   0.244   5.719   3.535 -1.1793  0.5914 -1.4592
 8569SOL    MW434044   0.204   5.642   3.546 -0.6797  0.4932 -0.0525
 8570SOL     OW34045   5.000   5.765   0.365 -0.1142 -0.0981  0.5382
 8570SOL    HW234046   5.048   5.847   0.351  0.8303 -0.7960 -0.4808
 8570SOL    HW334047   4.980   5.765   0.459  0.0540  1.1917  0.5951
 8570SOL    MW434048   5.004   5.776   0.376  0.0326 -0.0200  0.4113
 8571SOL     OW34049   0.426   3.984   1.207 -0.1487  0.3696 -0.6788
 8571SOL    HW234050   0.349   3.989   1.151 -1.1730  0.5306  0.7148
 8571SOL    HW334051   0.447   4.075   1.227  1.3330  0.4256 -2.2294
 8571SOL    MW434052   0.419   3.997   1.202 -0.0884  0.3982 -0.6995
 8572SOL     OW34053   3.842   4.283   5.268  0.5858 -1.0017 -0.1059
 8572SOL    HW234054   3.899   4.232   5.325 -0.1108 -2.4369 -0.6472
 8572SOL    HW334055   3.901   4.344   5.222  1.5850 -1.9960 -0.1719
 8572SOL    MW434056   3.857   4.285   5.269  0.6257 -1.3222 -0.1860
 8573SOL     OW34057   2.310   5.387   1.205 -0.0030 -0.0473 -0.6660
 8573SOL    HW234058   2.352   5.438   1.274  1.0121 -0.7535 -0.7365
 8573SOL    HW334059   2.342   5.298   1.218 -1.1181 -0.5214 -1.0346
 8573SOL    MW434060   2.320   5.382   1.216 -0.0162 -0.2030 -0.7239
 8574SOL     OW34061   0.045   1.444   5.429 -0.2590  0.6728 -0.2804
 8574SOL    HW234062  -0.050   1.451   5.423 -0.5659 -1.8490  0.4242
 8574SOL    HW334063   0.065   1.467   5.520 -0.7506 -2.3997  0.7423
 8574SOL    MW434064   0.035   1.448   5.441 -0.3643 -0.0653 -0.0525
 8575SOL     OW34065   4.507   2.313   6.355  0.1244 -0.3468 -0.2282
 8575SOL    HW234066   4.554   2.340   6.434 -1.0179 -0.4130  0.5034
 8575SOL    HW334067   4.529   2.220   6.345  1.4276  0.0074 -0.8427
 8575SOL    MW434068   4.516   2.304   6.364  0.1456 -0.3088 -0.2127
 8576SOL     OW34069   2.398   0.957   0.642 -0.6472  0.0399 -0.2106
 8576SOL    HW234070   2.335   0.914   0.583  1.0423  0.0401 -2.1354
 8576SOL    HW334071   2.390   1.050   0.621 -0.2182  0.0646 -0.2680
 8576SOL    MW434072   2.389   0.963   0.631 -0.3677  0.0432 -0.4721
 8577SOL     OW34073   5.548   0.228   2.075  0.2218  0.3479 -0.0547
 8577SOL    HW234074   5.538   0.215   2.169 -0.2722  0.3267 -0.1073
 8577SOL    HW334075   5.628   0.181   2.052 -0.2860 -0.6311  0.1504
 8577SOL    MW434076   5.557   0.220   2.084  0.0896  0.2160 -0.0346
 8578SOL     OW34077   5.379   2.412   4.719 -0.1895  0.2285  0.6435
 8578SOL    HW234078   5.399   2.414   4.812  0.7512  0.7718  0.4369
 8578SOL    HW334079   5.304   2.471   4.709  0.0959  0.6429  0.9652
 8578SOL    MW434080   5.372   2.420   4.730 -0.0277  0.3549  0.6587
 8579SOL     OW34081   3.922   6.422   4.664 -0.3836 -0.0976 -0.7827
 8579SOL    HW234082   3.885   6.491   4.720  0.6719  0.7672 -1.1128
 8579SOL    HW334083   3.943   6.467   4.582 -1.5128 -1.2583 -1.7366
 8579SOL    MW434084   3.920   6.437   4.660 -0.3934 -0.1366 -0.9521
 8580SOL     OW34085   4.675   5.181   4.181  0.4738  0.4596  0.0233
 8580SOL    HW234086   4.727   5.149   4.255 -1.2360  0.3413  1.2383
 8580SOL    HW334087   4.645   5.101   4.137 -1.0797  0.4007  1.1049
 8580SOL    MW434088   4.678   5.166   4.185  0.0433  0.4362  0.3263
 8581SOL     OW34089   0.473   5.220   5.045  0.7332 -0.0038 -0.0560
 8581SOL    HW234090   0.426   5.154   5.096 -0.8938  1.1819  0.0779
 8581SOL    HW334091   0.404   5.263   4.994  1.7475  1.5592 -0.1617
 8581SOL    MW434092   0.458   5.217   5.045  0.6524  0.3588 -0.0523
 8582SOL     OW34093   2.088   0.207   5.254 -0.1365 -0.0490  0.2498
 8582SOL    HW234094   1.993   0.200   5.263 -0.1547  1.2730  1.5037
 8582SOL    HW334095   2.123   0.166   5.333  0.2608  0.8276  0.5413
 8582SOL    MW434096   2.080   0.201   5.266 -0.0865  0.2410  0.4537
 8583SOL     OW34097   2.399   5.866   6.135 -0.1300  0.0298  0.6178
 8583SOL    HW234098   2.405   5.772   6.117  0.5340  0.7238 -3.8239
 8583SOL    HW334099   2.488   5.898   6.128 -0.5148  1.1847  0.8301
 8583SOL    MW434100   2.411   5.858   6.131 -0.0932  0.2738  0.0598
 8584SOL     OW34101   1.046   1.397   3.670  0.1275 -0.3643  0.2565
 8584SOL    HW234102   1.133   1.432   3.651 -0.3845  0.5249 -0.5286
 8584SOL    HW334103   0.998   1.408   3.588 -0.8546 -0.4540  0.8076
 8584SOL    MW434104   1.051   1.403   3.656 -0.0696 -0.2588  0.2256
 8585SOL     OW34105   3.173   3.231   5.795  0.0456  0.4826 -0.2124
 8585SOL    HW234106   3.130   3.190   5.870  0.8260 -1.5913 -0.8480
 8585SOL    HW334107   3.105   3.286   5.756 -1.5161 -1.2679 -0.0991
 8585SOL    MW434108   3.158   3.233   5.799 -0.0575 -0.0220 -0.2813
 8586SOL     OW34109   3.343   1.275   2.549 -0.4356 -0.2243  0.2684
 8586SOL    HW234110   3.258   1.280   2.506 -0.0945 -3.4692 -1.0296
 8586SOL    HW334111   3.394   1.346   2.508 -2.5329  2.1540  1.4740
 8586SOL    MW434112   3.339   1.285   2.538 -0.6673 -0.3386  0.2562
 8587SOL     OW34113   4.712   4.505   2.959 -0.2099 -0.6602  0.0091
 8587SOL    HW234114   4.656   4.444   3.008 -0.0545 -0.7533  0.0703
 8587SOL    HW334115   4.788   4.517   3.015 -0.1492 -0.5660 -0.0947
 8587SOL    MW434116   4.715   4.498   2.973 -0.1814 -0.6600  0.0035
 8588SOL     OW34117   5.190   3.510   0.927  0.4157  0.4241 -0.0684
 8588SOL    HW234118   5.195   3.435   0.868  0.7351 -0.5587  1.1594
 8588SOL    HW334119   5.178   3.585   0.869  1.8032 -0.3539 -1.4629
 8588SOL    MW434120   5.189   3.510   0.911  0.6409  0.1917 -0.0904
 8589SOL     OW34121   4.703   2.635   5.485  0.3123  0.1680  0.0492
 8589SOL    HW234122   4.784   2.584   5.479 -0.0161 -0.3189 -0.3530
 8589SOL    HW334123   4.633   2.569   5.479 -0.1137  0.5123  1.0160
 8589SOL    MW434124   4.704   2.619   5.483  0.2128  0.1492  0.1237
 8590SOL     OW34125   4.797   5.558   6.287  0.2074 -0.4778  0.0393
 8590SOL    HW234126   4.812   5.568   6.193  0.3240 -0.1281  0.0936
 8590SOL    HW334127   4.813   5.645   6.323  1.5991 -0.9198  0.5740
 8590SOL    MW434128   4.801   5.571   6.279  0.4064 -0.4900  0.1170
 8591SOL     OW34129   4.896   1.499   1.961  0.0401  0.7136 -0.5036
 8591SOL    HW234130   4.961   1.493   2.031 -1.7885 -0.5120  1.1624
 8591SOL    HW334131   4.939   1.457   1.886  1.0566 -0.3779  0.6382
 8591SOL    MW434132   4.911   1.493   1.960 -0.0670  0.4078 -0.1331
 8592SOL     OW34133   1.513   3.888   0.530 -0.1049  0.4545  0.5928
 8592SOL    HW234134   1.570   3.829   0.480 -0.0098 -0.0172  1.2466
 8592SOL    HW334135   1.434   3.894   0.476  0.3541  0.7047 -0.0676
 8592SOL    MW434136   1.510   3.881   0.516 -0.0318  0.4253  0.5919
 8593SOL     OW34137   3.093   3.657   6.188 -0.3530 -0.4757 -0.5622
 8593SOL    HW234138   3.104   3.751   6.177 -0.0061 -0.3763  0.4902
 8593SOL    HW334139   3.137   3.618   6.113  0.2393  0.1788 -0.5670
 8593SOL    MW434140   3.100   3.664   6.177 -0.2291 -0.3762 -0.4240
 8594SOL     OW34141   2.551   0.048   3.456 -0.1546 -0.0021 -0.6055
 8594SOL    HW234142   2.493   0.058   3.531 -0.8381 -0.8299 -1.0176
 8594SOL    HW334143   2.613  -0.020   3.482  0.4295  0.6247 -0.3071
 8594SOL    MW434144   2.552   0.040   3.470 -0.1677 -0.0286 -0.6205
 8595SOL     OW34145   2.711   6.038   5.312 -0.1412  0.4104 -0.2846
 8595SOL    HW234146   2.655   6.017   5.237  0.1157  0.8258 -0.5997
 8595SOL    HW334147   2.762   6.114   5.283  1.9824 -1.0930 -0.7278
 8595SOL    MW434148   2.710   6.045   5.298  0.1729  0.2669 -0.3846
 8596SOL     OW34149   3.921   5.166   0.542 -0.0239  0.6220 -0.1315
 8596SOL    HW234150   3.906   5.112   0.465 -0.5384 -1.1853  1.1568
 8596SOL    HW334151   3.891   5.112   0.615  1.2055  1.9302  1.4197
 8596SOL    MW434152   3.915   5.152   0.542  0.0704  0.5561  0.2431
 8597SOL     OW34153   4.055   1.478   4.338 -0.3573 -0.0322 -0.1683
 8597SOL    HW234154   4.109   1.462   4.261  0.0625  0.2789  0.0521
 8597SOL    HW334155   4.024   1.392   4.365 -0.4079 -0.1535 -0.6135
 8597SOL    MW434156   4.058   1.465   4.332 -0.3086 -0.0072 -0.1980
 8598SOL     OW34157   5.392   3.473   5.948  0.5932 -0.4548 -0.0008
 8598SOL    HW234158   5.444   3.398   5.978 -0.1095 -1.8395 -2.0333
 8598SOL    HW334159   5.309   3.435   5.920 -0.5659  1.3866  0.7429
 8598SOL    MW434160   5.388   3.458   5.948  0.3476 -0.3945 -0.1708
 8599SOL     OW34161   1.429   2.403   5.270  0.4467  0.1178 -0.0669
 8599SOL    HW234162   1.346   2.379   5.229 -1.0381  0.7548  2.3177
 8599SOL    HW334163   1.447   2.330   5.330  0.8347  0.6495  0.4684
 8599SOL    MW434164   1.420   2.390   5.273  0.3020  0.2720  0.3183
 8600SOL     OW34165   0.173   4.841   2.394  0.4381  0.2996 -0.1203
 8600SOL    HW234166   0.151   4.832   2.302 -0.7327 -1.0372  0.2495
 8600SOL    HW334167   0.099   4.888   2.432  1.0040  1.0145  0.1163
 8600SOL    MW434168   0.160   4.846   2.387  0.3583  0.2176 -0.0403
 8601SOL     OW34169   6.031   0.011   2.475 -0.6426  0.0955  0.5206
 8601SOL    HW234170   6.000  -0.041   2.400  1.7128  1.2351 -1.3835
 8601SOL    HW334171   6.092  -0.047   2.520 -1.3351 -0.2618  1.0118
 8601SOL    MW434172   6.035  -0.004   2.471 -0.4232  0.1988  0.3342
 8602SOL     OW34173   2.292   4.662   4.795  0.3509  0.6230  0.6198
 8602SOL    HW234174   2.360   4.698   4.852 -1.2244  1.0952  2.3031
 8602SOL    HW334175   2.236   4.611   4.854  0.1220 -1.1239 -0.9924
 8602SOL    MW434176   2.293   4.660   4.811  0.1129  0.4548  0.6291
 8603SOL     OW34177   6.164   4.028   5.373 -0.1465 -0.2799 -0.1065
 8603SOL    HW234178   6.227   3.957   5.363 -0.3256 -0.5687  0.7334
 8603SOL    HW334179   6.200   4.082   5.444 -0.1496  0.3184 -0.5519
 8603SOL    MW434180   6.177   4.026   5.381 -0.1706 -0.2390 -0.0545
 8604SOL     OW34181   5.215   2.516   2.903  0.4464  0.4483 -0.1906
 8604SOL    HW234182   5.153   2.444   2.890  1.4242 -0.5752  0.6306
 8604SOL    HW334183   5.244   2.539   2.815  0.3661 -0.4001 -0.4463
 8604SOL    MW434184   5.211   2.510   2.890  0.5648  0.2013 -0.1159
 8605SOL     OW34185   5.921   2.872   2.833 -0.3570 -0.5528 -0.0061
 8605SOL    HW234186   5.933   2.807   2.764 -1.7489  0.3247 -1.1269
 8605SOL    HW334187   5.829   2.865   2.857  0.0679 -0.7635  1.7324
 8605SOL    MW434188   5.911   2.862   2.827 -0.4846 -0.4648  0.0754
 8606SOL     OW34189   2.522   5.777   0.021 -0.3757  0.5911 -0.4154
 8606SOL    HW234190   2.516   5.800   0.113 -0.0878 -1.2158  0.1032
 8606SOL    HW334191   2.432   5.759  -0.006 -0.3724  0.3011 -0.2412
 8606SOL    MW434192   2.510   5.778   0.029 -0.3373  0.3144 -0.3240
 8607SOL     OW34193   5.269   1.146   0.403  0.1537 -0.1632  0.2130
 8607SOL    HW234194   5.317   1.104   0.332 -1.0384 -1.9794  0.3956
 8607SOL    HW334195   5.271   1.081   0.474 -1.1015  0.3950  0.7936
 8607SOL    MW434196   5.275   1.132   0.403 -0.1692 -0.3292  0.3137
 8608SOL     OW34197   0.011   1.999   4.523  0.4771  0.2388  0.5253
 8608SOL    HW234198  -0.030   2.072   4.569  0.2697  1.4774 -1.5052
 8608SOL    HW334199  -0.027   1.921   4.563 -0.7498  1.2619  1.4461
 8608SOL    MW434200   0.001   1.999   4.535  0.2879  0.5372  0.3789
 8609SOL     OW34201   4.061   3.039   2.250  0.0636  0.0878 -0.0980
 8609SOL    HW234202   4.100   2.997   2.326 -0.3030  0.7984  0.4889
 8609SOL    HW334203   4.059   2.970   2.183 -0.6608 -0.8836  0.8920
 8609SOL    MW434204   4.066   3.024   2.251 -0.0803  0.0534  0.1100
 8610SOL     OW34205   3.690   1.213   4.513 -0.4116  0.0823  0.2167
 8610SOL    HW234206   3.675   1.220   4.607 -0.6818 -0.1710  0.1947
 8610SOL    HW334207   3.712   1.120   4.499  0.6681  0.3302  0.1722
 8610SOL    MW434208   3.691   1.201   4.523 -0.3048  0.0816  0.2079
 8611SOL     OW34209   5.739   3.243   0.466  0.2345 -0.3390 -0.3333
 8611SOL    HW234210   5.758   3.325   0.421 -0.6573  0.1117  0.0947
 8611SOL    HW334211   5.803   3.239   0.538 -0.1943  0.3534  0.0963
 8611SOL    MW434212   5.750   3.253   0.470  0.0603 -0.1881 -0.2201
 8612SOL     OW34213   5.495   3.377   0.521  0.2004  0.4218 -0.2687
 8612SOL    HW234214   5.450   3.320   0.459 -0.1397 -1.5961  1.7210
 8612SOL    HW334215   5.579   3.335   0.537 -0.2946  0.0744  1.6914
 8612SOL    MW434216   5.500   3.364   0.515  0.0902  0.1097  0.2524
 8613SOL     OW34217   2.059   1.484   0.605  0.9931 -0.8571  0.2824
 8613SOL    HW234218   1.974   1.519   0.579  2.8779  2.0902 -2.8552
 8613SOL    HW334219   2.085   1.537   0.680  0.7837 -0.4494  0.0731
 8613SOL    MW434220   2.051   1.496   0.611  1.2142 -0.4145 -0.1592
 8614SOL     OW34221   5.079   1.039   1.294 -0.2614  0.7367  0.5959
 8614SOL    HW234222   5.022   1.051   1.370  0.4035 -0.0482  1.2290
 8614SOL    HW334223   5.019   1.018   1.222 -0.8643  1.1238  0.9766
 8614SOL    MW434224   5.064   1.038   1.295 -0.2532  0.6843  0.7297
 8615SOL     OW34225   2.848   5.296   2.886  0.0710 -0.5892 -0.1893
 8615SOL    HW234226   2.818   5.209   2.858  2.1046 -0.8082 -2.0104
 8615SOL    HW334227   2.879   5.282   2.975  2.7947 -2.5038 -1.2804
 8615SOL    MW434228   2.848   5.282   2.894  0.6986 -0.8707 -0.5735
 8616SOL     OW34229   2.578   1.165   2.802  0.1249 -0.2641 -0.0452
 8616SOL    HW234230   2.639   1.115   2.857  1.7112 -0.5414 -1.9275
 8616SOL    HW334231   2.632   1.196   2.729 -1.8272  0.2577 -1.3417
 8616SOL    MW434232   2.593   1.162   2.800  0.0766 -0.2318 -0.4646
 8617SOL     OW34233   0.454   2.029   0.984  0.3342  0.5183 -0.2455
 8617SOL    HW234234   0.399   2.101   0.952 -1.6940 -1.0507 -0.4782
 8617SOL    HW334235   0.466   1.972   0.908 -0.4013 -0.7442  0.5423
 8617SOL    MW434236   0.448   2.031   0.970 -0.0304  0.1447 -0.1723
 8618SOL     OW34237   5.407   2.787   5.730 -0.2178 -0.1806 -0.6947
 8618SOL    HW234238   5.467   2.714   5.712 -0.1783 -0.2579 -0.2489
 8618SOL    HW334239   5.347   2.754   5.797  1.0386  0.8231  1.0135
 8618SOL    MW434240   5.407   2.773   5.736 -0.0469 -0.0584 -0.4105
 8619SOL     OW34241   0.787   5.797   5.332  0.6655  0.1987 -0.1360
 8619SOL    HW234242   0.820   5.708   5.319 -0.4324 -0.3317  0.5320
 8619SOL    HW334243   0.840   5.833   5.403  1.2981  0.1903 -0.5938
 8619SOL    MW434244   0.798   5.790   5.339  0.6041  0.1276 -0.1083
 8620SOL     OW34245   5.621   1.700   3.041  0.3074 -0.4587  0.6212
 8620SOL    HW234246   5.667   1.679   3.123  1.3709 -0.5514  0.0303
 8620SOL    HW334247   5.668   1.649   2.974  1.2518  1.6721 -0.4625
 8620SOL    MW434248   5.633   1.690   3.043  0.5723 -0.1898  0.4003
 8621SOL     OW34249   5.535   0.752   3.877  0.0846  0.5381 -0.3002
 8621SOL    HW234250   5.552   0.765   3.971  1.7756  0.2167 -0.5293
 8621SOL    HW334251   5.441   0.761   3.869 -0.3525 -1.2213  1.7352
 8621SOL    MW434252   5.525   0.755   3.889  0.2501  0.2636 -0.0619
 8622SOL     OW34253   1.043   0.766   3.941  0.2586  0.3429  0.2569
 8622SOL    HW234254   0.995   0.827   3.995  0.6323  1.1933 -0.3473
 8622SOL    HW334255   0.978   0.703   3.910 -0.0914  0.3211  1.0351
 8622SOL    MW434256   1.028   0.765   3.944  0.2617  0.4522  0.2799
 8623SOL     OW34257   4.458   4.353   4.122  0.3387  0.2608 -0.1643
 8623SOL    HW234258   4.519   4.349   4.195 -1.6025 -0.6166  1.5227
 8623SOL    HW334259   4.424   4.263   4.114 -2.4943  1.1469  0.6462
 8623SOL    MW434260   4.462   4.340   4.130 -0.2912  0.2620  0.1652
 8624SOL     OW34261   4.969   2.042   3.957  0.0069 -0.6482  0.0653
 8624SOL    HW234262   5.046   2.001   3.998 -0.0726 -1.2096 -0.3435
 8624SOL    HW334263   4.903   1.972   3.954 -1.5739  0.5227  3.0388
 8624SOL    MW434264   4.970   2.027   3.962 -0.2121 -0.5678  0.4037
 8625SOL     OW34265   3.396   5.857   3.142 -0.8461  0.1449  0.1826
 8625SOL    HW234266   3.476   5.815   3.111 -0.3467  1.0845  0.1419
 8625SOL    HW334267   3.426   5.916   3.211 -1.0589  2.5004 -1.5853
 8625SOL    MW434268   3.411   5.859   3.147 -0.8083  0.5796 -0.0560
 8626SOL     OW34269   5.237   6.166   2.231  0.0154  0.4596 -0.1012
 8626SOL    HW234270   5.171   6.235   2.224  0.4349  0.8396 -0.3524
 8626SOL    HW334271   5.188   6.085   2.222 -0.3427  0.7526 -0.8792
 8626SOL    MW434272   5.222   6.165   2.229  0.0235  0.5484 -0.2370
 8627SOL     OW34273   3.797   1.981   0.720 -0.1540 -0.0710 -0.0790
 8627SOL    HW234274   3.892   1.985   0.735  0.0699 -0.5207 -1.2556
 8627SOL    HW334275   3.762   2.057   0.766  0.8962  0.6547 -0.4459
 8627SOL    MW434276   3.805   1.992   0.728  0.0141 -0.0346 -0.2827
 8628SOL     OW34277   5.735   0.243   4.476 -0.5439  0.2657  0.5549
 8628SOL    HW234278   5.766   0.302   4.407 -1.0399 -0.2838 -0.1540
 8628SOL    HW334279   5.686   0.176   4.429  0.3709 -0.9620  1.2986
 8628SOL    MW434280   5.733   0.242   4.460 -0.4886  0.0312  0.5595
 8629SOL     OW34281   6.233   3.158   2.796 -0.0047 -0.0491 -0.6955
 8629SOL    HW234282   6.268   3.074   2.826 -0.5198 -0.1073 -0.2428
 8629SOL    HW334283   6.160   3.176   2.856 -0.7562  0.0713 -1.6292
 8629SOL    MW434284   6.228   3.149   2.808 -0.1718 -0.0409 -0.7589
 8630SOL     OW34285   4.913   0.745   0.013  0.3703  0.0303 -0.3488
 8630SOL    HW234286   4.867   0.828   0.025  2.6467  1.2596  0.4666
 8630SOL    HW334287   4.965   0.758  -0.067 -0.7943 -1.4064 -1.3875
 8630SOL    MW434288   4.914   0.758   0.004  0.5170  0.0030 -0.3783
 8631SOL     OW34289   4.491   0.449   1.419 -0.4237 -0.6516  0.2532
 8631SOL    HW234290   4.454   0.413   1.338  1.3286 -0.8904 -0.4690
 8631SOL    HW334291   4.557   0.512   1.390 -2.7954  2.7145  1.4590
 8631SOL    MW434292   4.495   0.453   1.404 -0.5054 -0.2390  0.3170
 8632SOL     OW34293   5.282   1.194   4.450 -0.0049 -0.1479 -0.2193
 8632SOL    HW234294   5.362   1.198   4.398 -0.2125  0.3893 -0.5139
 8632SOL    HW334295   5.257   1.101   4.448 -0.3710 -0.0462 -1.6641
 8632SOL    MW434296   5.289   1.182   4.443 -0.0806 -0.0636 -0.4488
 8633SOL     OW34297   6.202   2.773   0.155 -0.4660 -0.0683 -0.4167
 8633SOL    HW234298   6.149   2.704   0.197  1.1430 -1.5200 -0.6425
 8633SOL    HW334299   6.142   2.847   0.145 -1.3978 -0.2342  2.8620
 8633SOL    MW434300   6.187   2.773   0.159 -0.3766 -0.2817 -0.0139
 8634SOL     OW34301   5.760   2.448   6.077 -0.1261 -0.4968  0.3386
 8634SOL    HW234302   5.681   2.399   6.099  0.7481 -1.8201  0.6481
 8634SOL    HW334303   5.804   2.395   6.012 -1.2871  2.0400 -2.7804
 8634SOL    MW434304   5.755   2.435   6.072 -0.1639 -0.3367 -0.0321
 8635SOL     OW34305   1.298   3.439   3.863  0.8511  0.5291  0.3715
 8635SOL    HW234306   1.381   3.436   3.911  0.4297  1.7586  1.2204
 8635SOL    HW334307   1.239   3.384   3.913  1.3054 -0.9113 -0.6094
 8635SOL    MW434308   1.301   3.431   3.876  0.8554  0.5013  0.3541
 8636SOL     OW34309   6.275   1.974   3.205 -0.0539  0.1466  0.4230
 8636SOL    HW234310   6.183   1.949   3.199  0.0051 -0.1667  0.7962
 8636SOL    HW334311   6.305   1.938   3.289 -0.2359  2.3111  1.4847
 8636SOL    MW434312   6.267   1.966   3.215 -0.0701  0.3909  0.6123
 8637SOL     OW34313   2.209   3.969   0.310 -0.0495 -0.1453 -0.5647
 8637SOL    HW234314   2.129   3.969   0.258  0.0787  2.0366 -0.8504
 8637SOL    HW334315   2.280   3.972   0.245  0.2744 -1.4001 -0.2998
 8637SOL    MW434316   2.208   3.970   0.294  0.0101 -0.0230 -0.5674
 8638SOL     OW34317   6.282   4.223   4.926 -0.0370  0.0688  0.4110
 8638SOL    HW234318   6.189   4.218   4.903  0.1471  1.2217 -0.6367
 8638SOL    HW334319   6.282   4.235   5.021 -1.0857  2.6507  0.1646
 8638SOL    MW434320   6.270   4.224   4.936 -0.1510  0.5615  0.2402
 8639SOL     OW34321   6.073   2.265   5.304  0.6818 -0.2443 -0.3324
 8639SOL    HW234322   6.158   2.305   5.288  0.0651  3.0344  3.0390
 8639SOL    HW334323   6.010   2.325   5.263 -0.1092 -1.1451 -0.4752
 8639SOL    MW434324   6.076   2.278   5.297  0.4961  0.0695  0.0936
 8640SOL     OW34325   1.873   1.133   2.962 -0.0144  0.4810 -0.3522
 8640SOL    HW234326   1.784   1.159   2.938 -0.9157 -2.0350 -0.0531
 8640SOL    HW334327   1.867   1.110   3.054  1.1166  0.8420 -0.1717
 8640SOL    MW434328   1.861   1.133   2.971  0.0159  0.1967 -0.2889
 8641SOL     OW34329   1.550   3.738   5.813 -0.0260  0.1947 -0.3876
 8641SOL    HW234330   1.539   3.832   5.829 -0.0656  0.5757 -2.3295
 8641SOL    HW334331   1.644   3.725   5.808 -0.0352  0.2856 -0.8482
 8641SOL    MW434332   1.561   3.749   5.814 -0.0324  0.2570 -0.7046
 8642SOL     OW34333   4.900   3.943   4.538  0.0249 -0.0055 -0.2128
 8642SOL    HW234334   4.917   4.025   4.493  1.3896  0.6932  1.4513
 8642SOL    HW334335   4.987   3.910   4.563 -0.6274  0.4238  3.1146
 8642SOL    MW434336   4.913   3.949   4.535  0.1189  0.1433  0.4458
 8643SOL     OW34337   1.605   2.878   2.569 -0.3367  0.6024  0.1258
 8643SOL    HW234338   1.544   2.905   2.501  0.0957  0.9533 -0.1342
 8643SOL    HW334339   1.671   2.948   2.570  0.6783 -0.3198 -0.4073
 8643SOL    MW434340   1.606   2.891   2.560 -0.1458  0.5270  0.0212
 8644SOL     OW34341   0.460   2.362   1.566  0.4584  0.0164  0.0181
 8644SOL    HW234342   0.420   2.388   1.649  0.3097 -0.5021  0.1180
 8644SOL    HW334343   0.461   2.441   1.512  1.6190  0.6565  0.9252
 8644SOL    MW434344   0.455   2.376   1.570  0.5919  0.0324  0.1509
 8645SOL     OW34345   1.272   4.632   5.444  0.1694 -0.0425  0.1923
 8645SOL    HW234346   1.247   4.584   5.523  1.3893 -1.1190 -0.0246
 8645SOL    HW334347   1.230   4.584   5.373 -0.2134  0.3968  0.1210
 8645SOL    MW434348   1.263   4.619   5.445  0.2798 -0.1265  0.1543
 8646SOL     OW34349   4.151   2.381   0.341  0.4026  0.3809 -0.1320
 8646SOL    HW234350   4.084   2.379   0.409 -0.6066  1.1178 -1.0549
 8646SOL    HW334351   4.102   2.376   0.259  1.4915  0.7409 -0.8304
 8646SOL    MW434352   4.136   2.380   0.339  0.4131  0.5257 -0.3459
 8647SOL     OW34353   4.792   4.704   5.022  0.1296 -0.4023 -0.8286
 8647SOL    HW234354   4.865   4.716   5.083  1.3496 -1.9778 -1.8906
 8647SOL    HW334355   4.811   4.765   4.950 -0.3500  0.1644 -0.4833
 8647SOL    MW434356   4.804   4.714   5.020  0.2273 -0.5354 -0.9231
 8648SOL     OW34357   4.630   2.308   3.502 -1.0331 -0.2943 -0.6860
 8648SOL    HW234358   4.677   2.296   3.585 -3.6170  1.4521  1.1998
 8648SOL    HW334359   4.554   2.250   3.508 -1.9642  0.8252 -1.1913
 8648SOL    MW434360   4.626   2.299   3.514 -1.4968  0.0838 -0.5038
 8649SOL     OW34361   0.401   5.113   5.411  0.1808  0.0083 -0.3002
 8649SOL    HW234362   0.327   5.112   5.471  0.8021 -1.4255  0.4947
 8649SOL    HW334363   0.463   5.175   5.450 -0.3199  0.7495 -0.6506
 8649SOL    MW434364   0.399   5.121   5.424  0.1967 -0.0830 -0.2415
 8650SOL     OW34365   0.398   0.798   5.878  0.4911  0.2837 -0.1185
 8650SOL    HW234366   0.412   0.752   5.961  1.2808  1.6470  0.5344
 8650SOL    HW334367   0.312   0.839   5.888  1.2132  1.7140  0.7043
 8650SOL    MW434368   0.388   0.797   5.890  0.6905  0.6523  0.0762
 8651SOL     OW34369   6.345   0.201   3.157  0.7410 -0.3070 -0.0206
 8651SOL    HW234370   6.420   0.261   3.155  1.3610 -1.0879 -0.8135
 8651SOL    HW334371   6.338   0.176   3.249  1.5615 -0.3567  0.0417
 8651SOL    MW434372   6.354   0.206   3.169  0.9311 -0.4166 -0.1170
 8652SOL     OW34373   1.808   1.337   2.632 -0.2950 -0.4721 -0.3713
 8652SOL    HW234374   1.839   1.379   2.552 -0.2964  0.2050 -0.0264
 8652SOL    HW334375   1.713   1.343   2.626 -0.3419 -1.5472 -0.9021
 8652SOL    MW434376   1.800   1.344   2.621 -0.3014 -0.5247 -0.3958
 8653SOL     OW34377   2.371   4.351   5.100 -0.0428 -0.0345  0.1341
 8653SOL    HW234378   2.300   4.414   5.093 -0.9189 -1.0520 -0.3934
 8653SOL    HW334379   2.382   4.339   5.195 -0.1992  0.5336  0.2289
 8653SOL    MW434380   2.363   4.357   5.112 -0.1791 -0.0938  0.0770
 8654SOL     OW34381   5.429   2.904   5.127 -0.3094 -0.2003 -0.1618
 8654SOL    HW234382   5.383   2.835   5.174 -0.6017  0.4370  0.4911
 8654SOL    HW334383   5.467   2.959   5.195  1.8576 -0.9771 -0.6556
 8654SOL    MW434384   5.428   2.902   5.142 -0.0621 -0.2187 -0.1408
 8655SOL     OW34385   2.752   0.115   2.453  0.3599  0.0413 -0.0812
 8655SOL    HW234386   2.806   0.185   2.416  1.5518 -0.8016  0.0160
 8655SOL    HW334387   2.735   0.144   2.543 -0.1292  0.7436 -0.3937
 8655SOL    MW434388   2.757   0.128   2.460  0.4526  0.0228 -0.1096
 8656SOL     OW34389   6.248   3.231   1.987  0.3042 -0.1742 -0.3336
 8656SOL    HW234390   6.243   3.305   2.048  1.2602 -0.5522  0.2352
 8656SOL    HW334391   6.342   3.214   1.979  0.1542 -4.0200  2.9194
 8656SOL    MW434392   6.260   3.239   1.994  0.4105 -0.7315  0.1707
 8657SOL     OW34393   6.222   5.913   0.603  0.2140 -0.6310 -0.4575
 8657SOL    HW234394   6.228   5.967   0.681  0.9501 -1.5829  0.1776
 8657SOL    HW334395   6.312   5.908   0.570  0.1896 -1.5626 -0.4164
 8657SOL    MW434396   6.235   5.919   0.609  0.3079 -0.8795 -0.3683
 8658SOL     OW34397   2.411   3.630   1.549  0.5089 -0.2352  0.5179
 8658SOL    HW234398   2.476   3.603   1.613 -1.2406  0.3051  2.6283
 8658SOL    HW334399   2.369   3.707   1.588 -1.1847 -0.3682 -0.8964
 8658SOL    MW434400   2.414   3.637   1.562  0.0546 -0.1814  0.6098
 8659SOL     OW34401   2.576   2.703   5.923  0.2601  0.5243 -0.1174
 8659SOL    HW234402   2.634   2.765   5.879  0.1393  0.6075 -0.1593
 8659SOL    HW334403   2.488   2.730   5.897  0.2305 -2.3509 -3.9652
 8659SOL    MW434404   2.572   2.715   5.914  0.2403  0.1559 -0.6306
 8660SOL     OW34405   0.731   4.758   2.755 -0.3944 -0.4536  0.1712
 8660SOL    HW234406   0.687   4.719   2.830  0.9740 -2.2065  0.1409
 8660SOL    HW334407   0.824   4.737   2.768  0.2121  1.4173 -0.7313
 8660SOL    MW434408   0.738   4.750   2.766 -0.1339 -0.4381  0.0481
 8661SOL     OW34409   1.442   0.977   4.096  0.3767  0.1478 -0.2582
 8661SOL    HW234410   1.411   0.917   4.163 -0.0649  0.6302 -0.0152
 8661SOL    HW334411   1.532   0.998   4.120  0.8445 -1.0925 -0.8394
 8661SOL    MW434412   1.449   0.972   4.108  0.3802  0.0478 -0.3028
 8662SOL     OW34413   6.291   2.263   1.142 -0.3038 -0.1272 -0.4744
 8662SOL    HW234414   6.274   2.175   1.109 -2.0038  0.0134 -0.0553
 8662SOL    HW334415   6.255   2.321   1.075 -1.2279  0.2013  0.2943
 8662SOL    MW434416   6.284   2.259   1.129 -0.6500 -0.0653 -0.3177
 8663SOL     OW34417   2.460   1.926   1.682  0.1083  0.0373  0.2500
 8663SOL    HW234418   2.553   1.903   1.684  0.4397  1.2726  2.1088
 8663SOL    HW334419   2.459   2.014   1.643 -0.4889 -0.6431 -1.3212
 8663SOL    MW434420   2.472   1.935   1.678  0.0732  0.1105  0.2880
 8664SOL     OW34421   3.459   0.299   2.229 -0.4354 -0.1547  0.0717
 8664SOL    HW234422   3.520   0.226   2.220  1.6991  1.5901 -0.4802
 8664SOL    HW334423   3.447   0.330   2.139 -1.5331  0.0301  0.2737
 8664SOL    MW434424   3.465   0.293   2.216 -0.2986  0.0999  0.0255
 8665SOL     OW34425   5.193   5.157   5.382 -0.3837  0.2365  0.0087
 8665SOL    HW234426   5.274   5.207   5.396 -0.3685  0.2562 -0.1444
 8665SOL    HW334427   5.136   5.217   5.334 -0.3557  0.0981 -0.1968
 8665SOL    MW434428   5.196   5.171   5.377 -0.3780  0.2208 -0.0386
 8666SOL     OW34429   2.568   3.772   1.329  0.0602  0.1068 -0.9161
 8666SOL    HW234430   2.649   3.732   1.360 -0.9090 -0.8616  0.5353
 8666SOL    HW334431   2.502   3.745   1.394 -1.3181  1.2853 -1.7638
 8666SOL    MW434432   2.570   3.763   1.342 -0.2495  0.1345 -0.8364
 8667SOL     OW34433   4.630   5.540   4.978 -0.3625 -0.3846 -0.3782
 8667SOL    HW234434   4.587   5.481   5.040  0.1607 -0.5778 -0.1915
 8667SOL    HW334435   4.672   5.606   5.033  0.9737 -1.1397 -0.4536
 8667SOL    MW434436   4.630   5.541   4.993 -0.1172 -0.5097 -0.3635
 8668SOL     OW34437   0.418   3.990   2.136 -0.1471  0.5276  0.3384
 8668SOL    HW234438   0.388   4.051   2.203 -0.6132 -0.5229  1.1114
 8668SOL    HW334439   0.350   3.922   2.133  0.1180  0.2926 -0.8465
 8668SOL    MW434440   0.405   3.989   2.145 -0.1736  0.3580  0.2841
 8669SOL     OW34441   5.835   0.749   2.541  0.0314  0.2102 -0.2687
 8669SOL    HW234442   5.764   0.739   2.606  0.1566  0.2574 -0.1229
 8669SOL    HW334443   5.842   0.844   2.528 -0.1821  0.1868 -0.5634
 8669SOL    MW434444   5.826   0.760   2.548  0.0197  0.2133 -0.2884
 8670SOL     OW34445   0.786   1.525   4.637  0.0586  0.1388 -0.8633
 8670SOL    HW234446   0.695   1.516   4.663  0.7796  0.0955  2.0308
 8670SOL    HW334447   0.810   1.615   4.661  1.7896 -1.0482  2.5702
 8670SOL    MW434448   0.777   1.536   4.644  0.3821 -0.0235 -0.0285
 8671SOL     OW34449   2.904   0.181   5.038  0.0645 -0.3374 -0.0214
 8671SOL    HW234450   2.830   0.240   5.022 -1.6161 -2.5477 -0.8687
 8671SOL    HW334451   2.893   0.153   5.129  0.1723 -0.3024  0.0034
 8671SOL    MW434452   2.893   0.185   5.048 -0.1430 -0.6244 -0.1299
 8672SOL     OW34453   6.081   5.486   4.315  0.7698 -0.1224 -0.1202
 8672SOL    HW234454   6.106   5.559   4.372  1.3778 -0.7713  0.4617
 8672SOL    HW334455   6.161   5.434   4.306  0.5695 -0.2671 -1.2279
 8672SOL    MW434456   6.095   5.489   4.321  0.8236 -0.2271 -0.1896
 8673SOL     OW34457   1.683   0.890   1.518 -0.0565  0.2068  0.5800
 8673SOL    HW234458   1.770   0.850   1.526 -0.4113 -0.3590  1.8888
 8673SOL    HW334459   1.693   0.955   1.449  1.2439 -0.2804  0.2759
 8673SOL    MW434460   1.696   0.893   1.510  0.0682  0.0679  0.7126
 8674SOL     OW34461   4.401   4.733   0.707 -0.3557  0.0146  0.1641
 8674SOL    HW234462   4.388   4.706   0.616  0.1816 -0.5812  0.2629
 8674SOL    HW334463   4.422   4.827   0.701  0.1345 -0.1236 -0.3620
 8674SOL    MW434464   4.402   4.742   0.694 -0.2201 -0.0822  0.1077
 8675SOL     OW34465   3.431   1.071   2.370  0.0329 -0.3104  0.6036
 8675SOL    HW234466   3.409   1.130   2.298  0.9806 -0.5345  0.1086
 8675SOL    HW334467   3.425   1.126   2.448  1.8491  0.7458  0.0652
 8675SOL    MW434468   3.427   1.086   2.371  0.3976 -0.2006  0.4672
 8676SOL     OW34469   1.734   5.469   4.553 -0.1681  0.2754 -0.3693
 8676SOL    HW234470   1.728   5.531   4.480 -1.8224  0.7276  0.0966
 8676SOL    HW334471   1.667   5.403   4.534 -0.0310 -0.0683  0.3151
 8676SOL    MW434472   1.724   5.469   4.541 -0.3682  0.2897 -0.2175
 8677SOL     OW34473   4.438   0.327   4.580 -0.2220 -0.1748 -0.6626
 8677SOL    HW234474   4.490   0.269   4.524 -1.0648 -0.1259 -1.5390
 8677SOL    HW334475   4.374   0.269   4.622  1.1762 -0.4088  1.2575
 8677SOL    MW434476   4.436   0.311   4.578 -0.1487 -0.1993 -0.5249
 8678SOL     OW34477   3.440   5.052   4.648 -0.5920  0.0458 -0.3536
 8678SOL    HW234478   3.486   5.114   4.704 -0.7938  1.2235 -1.4647
 8678SOL    HW334479   3.509   5.002   4.605 -0.4024  0.1956 -0.2243
 8678SOL    MW434480   3.455   5.054   4.650 -0.5936  0.2210 -0.4831
 8679SOL     OW34481   2.850   5.734   4.565 -0.1388  0.0670  0.4891
 8679SOL    HW234482   2.937   5.774   4.573  1.1916 -2.7131  1.3370
 8679SOL    HW334483   2.826   5.711   4.654 -0.9884 -0.7148  0.0730
 8679SOL    MW434484   2.859   5.736   4.578 -0.0753 -0.4029  0.5461
 8680SOL     OW34485   1.851   2.277   1.388 -0.9090  0.2286  0.4340
 8680SOL    HW234486   1.830   2.343   1.323 -3.6297 -0.3160  0.6641
 8680SOL    HW334487   1.901   2.210   1.340 -0.4677  1.1460 -0.4088
 8680SOL    MW434488   1.855   2.277   1.373 -1.2097  0.2778  0.3532
 8681SOL     OW34489   1.262   4.818   2.809 -0.0660  0.1014  0.3114
 8681SOL    HW234490   1.224   4.892   2.762  1.0210  0.7821  0.4681
 8681SOL    HW334491   1.297   4.856   2.890 -1.0298 -0.8895  1.2344
 8681SOL    MW434492   1.262   4.833   2.814 -0.0498  0.0604  0.4538
 8682SOL     OW34493   1.032   5.738   0.410  0.2237  0.2572  0.3845
 8682SOL    HW234494   1.059   5.785   0.331  0.9422 -0.2254  0.3327
 8682SOL    HW334495   0.948   5.699   0.387 -0.7639  2.1136  0.6836
 8682SOL    MW434496   1.025   5.739   0.396  0.1882  0.4385  0.4171
 8683SOL     OW34497   2.409   0.550   5.419 -0.0233 -0.1704 -0.4419
 8683SOL    HW234498   2.435   0.611   5.489 -0.0349  0.4882 -0.9957
 8683SOL    HW334499   2.313   0.547   5.425  0.0423 -0.9948  0.2855
 8683SOL    MW434500   2.399   0.558   5.429 -0.0162 -0.1923 -0.4190
 8684SOL     OW34501   2.936   6.204   5.003  0.6388  0.2181 -0.0312
 8684SOL    HW234502   2.994   6.268   4.962 -0.2243  0.6087 -0.6844
 8684SOL    HW334503   2.872   6.183   4.935  1.3740 -1.9800 -0.1078
 8684SOL    MW434504   2.935   6.210   4.989  0.6219 -0.0204 -0.1275
 8685SOL     OW34505   4.975   4.300   5.945  0.4616  0.2912 -0.1352
 8685SOL    HW234506   4.903   4.309   5.883 -1.6736 -3.0605  1.5293
 8685SOL    HW334507   5.045   4.259   5.894  0.0088  0.6508 -1.0749
 8685SOL    MW434508   4.975   4.296   5.930  0.1201 -0.1036 -0.0395
 8686SOL     OW34509   2.278   1.630   5.699 -0.4583 -0.0044 -0.4228
 8686SOL    HW234510   2.285   1.725   5.706  1.2636 -0.1508  0.7084
 8686SOL    HW334511   2.188   1.614   5.671 -1.4832  1.8670  1.4970
 8686SOL    MW434512   2.267   1.640   5.697 -0.3663  0.2232 -0.0202
 8687SOL     OW34513   2.532   2.089   1.992 -0.1245  0.0067  0.2740
 8687SOL    HW234514   2.456   2.146   2.005  0.0534  0.2281  0.3504
 8687SOL    HW334515   2.558   2.106   1.901 -0.6473 -0.6600 -0.0101
 8687SOL    MW434516   2.525   2.099   1.982 -0.1700 -0.0520  0.2466
 8688SOL     OW34517   5.350   5.344   4.520 -0.7596 -0.4752  0.1813
 8688SOL    HW234518   5.437   5.304   4.510 -0.2180  0.5912  0.3848
 8688SOL    HW334519   5.307   5.291   4.586 -0.8851 -1.9931 -1.0773
 8688SOL    MW434520   5.356   5.332   4.528 -0.7047 -0.5348  0.0421
 8689SOL     OW34521   5.426   2.550   4.144 -0.4416  0.1050  0.1496
 8689SOL    HW234522   5.353   2.559   4.204  0.7415 -0.3906  1.7400
 8689SOL    HW334523   5.501   2.528   4.200  0.5269 -1.3328 -1.5954
 8689SOL    MW434524   5.426   2.548   4.159 -0.1577 -0.1501  0.1292
 8690SOL     OW34525   0.506   0.628   2.870 -0.2832 -0.4063  0.3845
 8690SOL    HW234526   0.571   0.688   2.833  1.1557  0.1253  3.4964
 8690SOL    HW334527   0.423   0.657   2.832  0.8186  1.2582 -0.9208
 8690SOL    MW434528   0.504   0.640   2.860  0.0520 -0.1165  0.6229
 8691SOL     OW34529   0.939   4.336   4.896  0.7123 -0.2660  0.3800
 8691SOL    HW234530   0.893   4.296   4.970  0.5712 -2.9385 -1.0360
 8691SOL    HW334531   0.981   4.262   4.851 -2.1527  0.5254 -4.3036
 8691SOL    MW434532   0.939   4.321   4.900  0.3157 -0.5142 -0.4248
 8692SOL     OW34533   3.068   4.822   4.757 -0.0011 -0.1128  0.1141
 8692SOL    HW234534   3.071   4.836   4.663 -0.6256  1.0976  0.2562
 8692SOL    HW334535   2.980   4.849   4.783 -0.3052 -1.6812  0.8760
 8692SOL    MW434536   3.057   4.827   4.748 -0.1236 -0.1600  0.2334
 8693SOL     OW34537   0.658   3.396   3.854 -0.1241 -0.0980 -0.3097
 8693SOL    HW234538   0.621   3.442   3.779 -1.2403 -0.0735  0.2406
 8693SOL    HW334539   0.751   3.387   3.833 -0.1766  1.0414 -1.1124
 8693SOL    MW434540   0.666   3.401   3.841 -0.2783  0.0555 -0.3430
 8694SOL     OW34541   4.212   0.480   4.102  0.2059 -0.0972  0.3737
 8694SOL    HW234542   4.228   0.564   4.058 -0.6139  0.0394  0.3238
 8694SOL    HW334543   4.256   0.489   4.186 -1.0268  0.9293  0.9457
 8694SOL    MW434544   4.220   0.493   4.107 -0.0649  0.0562  0.4426
 8695SOL     OW34545   3.355   5.805   5.276 -0.0978  0.2426  0.0926
 8695SOL    HW234546   3.448   5.788   5.293  0.3717  3.3826  1.4011
 8695SOL    HW334547   3.331   5.871   5.341 -3.0016  0.2179 -0.8396
 8695SOL    MW434548   3.364   5.812   5.287 -0.4190  0.6536  0.1422
 8696SOL     OW34549   3.351   3.575   1.085 -0.2036 -0.4058  0.2538
 8696SOL    HW234550   3.440   3.585   1.051 -0.1877 -0.2228  0.3488
 8696SOL    HW334551   3.309   3.513   1.025 -0.0130 -0.4888  0.2071
 8696SOL    MW434552   3.357   3.568   1.073 -0.1764 -0.3926  0.2602
 8697SOL     OW34553   4.036   4.563   4.496  0.8216 -0.0293 -0.5891
 8697SOL    HW234554   4.052   4.475   4.464  0.8899 -0.0788 -0.4194
 8697SOL    HW334555   3.950   4.558   4.540  1.7342 -0.5124  1.2391
 8697SOL    MW434556   4.026   4.551   4.498  0.9511 -0.0996 -0.3255
 8698SOL     OW34557   3.485   4.813   0.698  0.1841  0.3401 -0.5418
 8698SOL    HW234558   3.453   4.788   0.785  1.0692 -0.0208 -0.3036
 8698SOL    HW334559   3.581   4.810   0.707  0.3364  2.4640 -0.8918
 8698SOL    MW434560   3.494   4.809   0.711  0.3210  0.5727 -0.5566
 8699SOL     OW34561   4.319   5.485   5.799 -0.5075 -1.0338  0.6967
 8699SOL    HW234562   4.378   5.561   5.788 -0.9312 -0.8232 -0.2265
 8699SOL    HW334563   4.291   5.490   5.890 -0.2905 -0.2461  0.7318
 8699SOL    MW434564   4.323   5.496   5.809 -0.5348 -0.9021  0.5795
 8700SOL     OW34565   4.966   3.381   5.628 -0.3603 -0.0505 -0.1130
 8700SOL    HW234566   4.991   3.321   5.557 -0.1627  2.0517 -1.9466
 8700SOL    HW334567   5.040   3.377   5.689  1.6745  1.3075 -2.2769
 8700SOL    MW434568   4.979   3.372   5.627 -0.0657  0.4060 -0.6404
 8701SOL     OW34569   3.775   5.874   3.703  0.2924  0.3708  0.0550
 8701SOL    HW234570   3.680   5.863   3.695  0.1422  0.7851  1.0967
 8701SOL    HW334571   3.796   5.835   3.788  1.1045  0.0137 -0.3061
 8701SOL    MW434572   3.765   5.867   3.713  0.3797  0.3783  0.1448
 8702SOL     OW34573   6.145   5.987   3.027  0.2602  0.4134 -0.2460
 8702SOL    HW234574   6.099   5.967   2.946  0.0111 -0.5823  0.1311
 8702SOL    HW334575   6.079   6.028   3.083  0.6860  2.0552 -0.8955
 8702SOL    MW434576   6.130   5.990   3.024  0.2835  0.4987 -0.2819
 8703SOL     OW34577   4.507   2.077   3.659  0.6118  0.5040  0.0873
 8703SOL    HW234578   4.430   2.084   3.603  0.0820 -0.0053  0.7451
 8703SOL    HW334579   4.486   2.131   3.735  0.3779 -0.6222  0.8432
 8703SOL    MW434580   4.494   2.085   3.662  0.5110  0.2882  0.2738
 8704SOL     OW34581   3.436   3.624   3.209 -0.1147 -0.6688 -0.2380
 8704SOL    HW234582   3.462   3.716   3.216  0.2412 -0.3121 -3.9711
 8704SOL    HW334583   3.344   3.627   3.182 -0.4549 -1.4845  0.7752
 8704SOL    MW434584   3.427   3.637   3.206 -0.1126 -0.7294 -0.5968
 8705SOL     OW34585   4.853   2.385   3.347  0.1972  0.7393 -0.1945
 8705SOL    HW234586   4.781   2.332   3.381  1.1514  0.0005  0.7198
 8705SOL    HW334587   4.844   2.379   3.252 -1.0543  0.8202 -0.1009
 8705SOL    MW434588   4.842   2.377   3.339  0.1579  0.6525 -0.0615
 8706SOL     OW34589   1.161   2.813   0.904  0.2665 -1.2309 -0.0282
 8706SOL    HW234590   1.221   2.740   0.921  0.3129 -1.2048 -0.0779
 8706SOL    HW334591   1.121   2.831   0.989 -0.9045 -2.3240 -0.3190
 8706SOL    MW434592   1.164   2.806   0.918  0.1182 -1.3717 -0.0731
 8707SOL     OW34593   1.671   3.674   3.198 -0.3234  0.8574 -0.1719
 8707SOL    HW234594   1.695   3.590   3.236  1.0132  1.4071  0.2645
 8707SOL    HW334595   1.610   3.652   3.127 -0.1737 -0.4501  0.0877
 8707SOL    MW434596   1.666   3.660   3.193 -0.1273  0.7574 -0.0800
 8708SOL     OW34597   3.630   0.161   2.639 -0.5044 -0.1815  0.0855
 8708SOL    HW234598   3.551   0.212   2.659  0.8208  1.7278  0.7916
 8708SOL    HW334599   3.655   0.122   2.723  1.5475  2.6650  0.9401
 8708SOL    MW434600   3.623   0.163   2.653 -0.0588  0.4460  0.2914
 8709SOL     OW34601   1.779   2.550   5.423  0.4730 -0.5768 -0.8698
 8709SOL    HW234602   1.793   2.489   5.350  1.7621 -0.1140 -1.0499
 8709SOL    HW334603   1.698   2.521   5.464  0.9318 -2.2779 -1.0780
 8709SOL    MW434604   1.771   2.538   5.419  0.7036 -0.7402 -0.9210
 8710SOL     OW34605   3.569   3.819   2.884 -0.4491  0.1677  0.1179
 8710SOL    HW234606   3.638   3.869   2.841 -1.0838 -0.1271 -1.2814
 8710SOL    HW334607   3.491   3.832   2.830 -1.1239 -0.7111  0.8339
 8710SOL    MW434608   3.568   3.827   2.872 -0.6219  0.0129  0.0278
 8711SOL     OW34609   4.014   6.166   2.112 -0.4337  0.0123 -0.0917
 8711SOL    HW234610   3.981   6.250   2.080 -2.3215 -0.2545  1.0055
 8711SOL    HW334611   3.939   6.107   2.106  0.1305 -0.9292  1.5266
 8711SOL    MW434612   4.000   6.169   2.107 -0.6084 -0.1471  0.2666
 8712SOL     OW34613   4.836   3.424   2.000  0.4920  0.7176  0.2855
 8712SOL    HW234614   4.884   3.469   1.931 -0.0262  1.1621  0.2119
 8712SOL    HW334615   4.771   3.371   1.954 -0.2684  1.4934  0.4431
 8712SOL    MW434616   4.834   3.423   1.985  0.3233  0.8786  0.2966
 8713SOL     OW34617   5.949   0.154   0.472 -0.0548 -0.1642  0.7393
 8713SOL    HW234618   5.968   0.074   0.521  2.1767 -0.5212 -0.5709
 8713SOL    HW334619   5.905   0.125   0.393 -1.3268  0.1726  1.2936
 8713SOL    MW434620   5.946   0.140   0.468  0.0718 -0.1669  0.6396
 8714SOL     OW34621   6.337   4.907   0.513 -0.1210 -0.0038  0.2111
 8714SOL    HW234622   6.424   4.867   0.516 -0.2486 -0.2599  0.6496
 8714SOL    HW334623   6.354   5.001   0.505  0.1805 -0.1771 -1.5023
 8714SOL    MW434624   6.351   4.914   0.512 -0.0981 -0.0605  0.0429
 8715SOL     OW34625   6.122   2.384   4.887 -0.6906 -0.9132  0.0371
 8715SOL    HW234626   6.214   2.386   4.912 -0.9233 -1.7326  1.0636
 8715SOL    HW334627   6.085   2.465   4.923 -0.1062  0.1307 -1.6158
 8715SOL    MW434628   6.129   2.395   4.895 -0.6442 -0.8836 -0.0456
 8716SOL     OW34629   4.779   2.630   2.588 -0.4720 -0.2855  0.0404
 8716SOL    HW234630   4.763   2.717   2.624 -1.6181 -0.5820  0.2955
 8716SOL    HW334631   4.737   2.570   2.650  0.1714 -1.0081 -0.2097
 8716SOL    MW434632   4.771   2.634   2.601 -0.5384 -0.4199  0.0411
 8717SOL     OW34633   4.292   4.708   1.256  0.1963 -0.3978  0.1732
 8717SOL    HW234634   4.250   4.622   1.261 -0.5992 -0.1774 -1.8123
 8717SOL    HW334635   4.301   4.735   1.347  0.1256 -2.4084  0.8338
 8717SOL    MW434636   4.288   4.700   1.268  0.0820 -0.6340 -0.0016
 8718SOL     OW34637   2.689   2.360   1.354  0.5247 -0.9821 -0.2576
 8718SOL    HW234638   2.708   2.302   1.279 -0.2418 -0.6428 -0.7311
 8718SOL    HW334639   2.760   2.424   1.353 -0.5715  0.3309 -2.0624
 8718SOL    MW434640   2.701   2.361   1.344  0.2790 -0.7641 -0.5582
 8719SOL     OW34641   3.635   4.496   2.957 -0.1672 -0.0468 -0.4375
 8719SOL    HW234642   3.667   4.407   2.944 -0.4872 -0.2503  0.1387
 8719SOL    HW334643   3.578   4.511   2.881  1.4775  0.4395 -1.6445
 8719SOL    MW434644   3.632   4.486   2.945  0.0076 -0.0095 -0.5207
 8720SOL     OW34645   3.558   6.379   2.436  0.6957  0.0046 -0.3733
 8720SOL    HW234646   3.587   6.468   2.455 -0.4723  0.7206 -1.7151
 8720SOL    HW334647   3.464   6.381   2.456  0.3901 -0.5178 -1.6764
 8720SOL    MW434648   3.549   6.391   2.442  0.5013  0.0302 -0.7223
 8721SOL     OW34649   0.974   5.573   3.215  0.5519 -0.5521  0.0184
 8721SOL    HW234650   0.914   5.550   3.286  0.3912 -0.2983 -0.0345
 8721SOL    HW334651   1.060   5.544   3.246  0.6537  0.5053  0.7660
 8721SOL    MW434652   0.978   5.566   3.228  0.5441 -0.3791  0.1100
 8722SOL     OW34653   2.852   0.473   5.096  0.0892 -0.4346  1.0928
 8722SOL    HW234654   2.910   0.464   5.020 -1.9291 -1.9941 -0.3605
 8722SOL    HW334655   2.911   0.493   5.168  2.0440  1.6470 -0.9402
 8722SOL    MW434656   2.868   0.474   5.095  0.0808 -0.3657  0.6329
 8723SOL     OW34657   5.281   3.989   3.470 -0.1889  0.2861  0.0283
 8723SOL    HW234658   5.261   3.946   3.553  0.4505  0.5906  0.3450
 8723SOL    HW334659   5.195   4.007   3.431 -0.4728 -0.7798  0.1314
 8723SOL    MW434660   5.267   3.986   3.476 -0.1420  0.1856  0.0837
 8724SOL     OW34661   4.706   2.006   5.632  0.8016  0.8693  0.0922
 8724SOL    HW234662   4.763   2.011   5.709  1.2725  0.7478 -0.2395
 8724SOL    HW334663   4.663   2.091   5.629 -0.6695  0.2313  1.5665
 8724SOL    MW434664   4.708   2.018   5.642  0.6696  0.7691  0.2430
 8725SOL     OW34665   1.223   2.273   1.289  0.1004  0.9365 -0.2521
 8725SOL    HW234666   1.288   2.203   1.291  0.6826  1.4908  1.2156
 8725SOL    HW334667   1.139   2.227   1.284  0.5074  0.1550  0.0157
 8725SOL    MW434668   1.220   2.258   1.288  0.2309  0.9065 -0.0231
 8726SOL     OW34669   5.903   2.320   2.655 -0.3806 -0.2868  0.8025
 8726SOL    HW234670   5.859   2.345   2.574  0.0345 -0.6707  0.4549
 8726SOL    HW334671   5.865   2.378   2.721 -1.5301 -0.7040  0.5438
 8726SOL    MW434672   5.892   2.331   2.653 -0.4775 -0.3925  0.7225
 8727SOL     OW34673   4.205   4.257   4.861  0.3215  0.3481 -0.5811
 8727SOL    HW234674   4.180   4.268   4.953  1.6531 -0.7686 -0.0539
 8727SOL    HW334675   4.223   4.346   4.831  0.7762  0.6583  0.5356
 8727SOL    MW434676   4.204   4.271   4.870  0.5572  0.2417 -0.3642
 8728SOL     OW34677   1.147   1.087   5.681 -0.0938 -0.0088  0.1395
 8728SOL    HW234678   1.073   1.034   5.708 -0.0166 -0.0201  0.3279
 8728SOL    HW334679   1.200   1.028   5.627 -0.2174 -0.0022  0.0091
 8728SOL    MW434680   1.144   1.072   5.677 -0.0999 -0.0094  0.1472
 8729SOL     OW34681   6.200   2.053   5.144  0.2305  0.1725  0.0349
 8729SOL    HW234682   6.140   2.112   5.189 -0.2485  0.8064 -1.3676
 8729SOL    HW334683   6.287   2.084   5.169 -0.0194  1.0754 -0.1651
 8729SOL    MW434684   6.203   2.065   5.153  0.1343  0.3752 -0.1766
 8730SOL     OW34685   2.166   2.479   1.748 -0.1522 -0.3656 -0.1162
 8730SOL    HW234686   2.251   2.463   1.707 -1.2190 -1.1561 -2.2136
 8730SOL    HW334687   2.112   2.405   1.720 -1.3788 -0.1998  1.6550
 8730SOL    MW434688   2.170   2.467   1.739 -0.4548 -0.4480 -0.1593
 8731SOL     OW34689   2.464   2.972   1.967 -0.3822  0.2755 -0.1722
 8731SOL    HW234690   2.527   2.953   1.897 -0.4273 -3.8965  0.6678
 8731SOL    HW334691   2.389   2.916   1.947 -1.6317  1.1782  1.7045
 8731SOL    MW434692   2.462   2.963   1.955 -0.5530 -0.1559  0.1862
 8732SOL     OW34693   3.737   0.910   4.751  0.0555 -0.5390  0.0684
 8732SOL    HW234694   3.812   0.859   4.784  0.3095 -1.0518 -1.2247
 8732SOL    HW334695   3.754   0.919   4.657 -0.6725  0.8029  0.0440
 8732SOL    MW434696   3.749   0.904   4.743 -0.0070 -0.4296 -0.1054
 8733SOL     OW34697   3.687   6.063   0.140 -0.4581  0.5225  0.3097
 8733SOL    HW234698   3.662   6.154   0.124  0.7092  0.9725  0.8860
 8733SOL    HW334699   3.740   6.067   0.219 -0.0685 -0.6166  0.1226
 8733SOL    MW434700   3.691   6.075   0.148 -0.2527  0.4316  0.3610
 8734SOL     OW34701   0.413   2.098   2.125  0.5670 -0.2545  0.2106
 8734SOL    HW234702   0.493   2.084   2.073  1.0361 -0.7307  1.0395
 8734SOL    HW334703   0.433   2.175   2.178  0.7228 -0.7593  0.8895
 8734SOL    MW434704   0.426   2.106   2.125  0.6495 -0.3839  0.4096
 8735SOL     OW34705   6.408   1.519   1.748 -0.2176  0.0878  0.2575
 8735SOL    HW234706   6.350   1.585   1.711  0.4994 -0.0882 -1.2431
 8735SOL    HW334707   6.350   1.455   1.789 -0.9906  0.7171  0.1612
 8735SOL    MW434708   6.393   1.520   1.749 -0.2250  0.1476  0.0468
 8736SOL     OW34709   3.604   4.070   2.234  0.1125 -0.4532 -0.1873
 8736SOL    HW234710   3.670   4.007   2.262  0.7103 -0.1498 -0.8750
 8736SOL    HW334711   3.606   4.138   2.302  0.4744 -0.4686 -0.1808
 8736SOL    MW434712   3.613   4.071   2.247  0.2391 -0.4152 -0.2772
 8737SOL     OW34713   0.817   1.773   5.414  0.4752 -0.2906  0.0760
 8737SOL    HW234714   0.744   1.712   5.421 -0.5357  0.8204 -0.5242
 8737SOL    HW334715   0.848   1.784   5.504 -0.4492 -0.3653  0.4126
 8737SOL    MW434716   0.812   1.766   5.427  0.2198 -0.1539  0.0412
 8738SOL     OW34717   2.851   5.640   4.833  0.0887  0.4176 -0.0048
 8738SOL    HW234718   2.813   5.692   4.904  0.1222 -1.0426  1.1420
 8738SOL    HW334719   2.945   5.637   4.853 -0.0994 -1.2356  0.7717
 8738SOL    MW434720   2.859   5.646   4.845  0.0683  0.0068  0.2489
 8739SOL     OW34721   0.297   3.643   6.350  0.0489  0.0366  0.7166
 8739SOL    HW234722   0.340   3.679   6.272  0.9712 -0.8302  0.8022
 8739SOL    HW334723   0.367   3.598   6.397 -0.7177 -0.3550  1.5075
 8739SOL    MW434724   0.312   3.642   6.346  0.0694 -0.1294  0.8323
 8740SOL     OW34725   0.025   3.125   1.528 -0.6314 -0.1864  0.3538
 8740SOL    HW234726   0.072   3.190   1.580 -0.9300 -0.2649  0.7278
 8740SOL    HW334727  -0.068   3.141   1.548 -0.6748 -1.3867  1.2533
 8740SOL    MW434728   0.019   3.136   1.538 -0.6765 -0.3551  0.5218
 8741SOL     OW34729   3.154   4.956   5.965  0.0337 -0.3525  0.3221
 8741SOL    HW234730   3.076   4.924   5.920  0.1166 -1.2301  0.7784
 8741SOL    HW334731   3.172   4.890   6.032  0.7178  0.2290  0.7311
 8741SOL    MW434732   3.146   4.943   5.968  0.1349 -0.3915  0.4363
 8742SOL     OW34733   3.571   4.797   3.848 -0.0465  0.3369 -0.2530
 8742SOL    HW234734   3.659   4.835   3.839 -0.5252  1.3664 -0.7672
 8742SOL    HW334735   3.577   4.713   3.804  0.8736  0.0711  0.3385
 8742SOL    MW434736   3.584   4.791   3.841  0.0118  0.4376 -0.2428
 8743SOL     OW34737   3.178   2.327   2.225 -0.7712  0.5143 -0.3604
 8743SOL    HW234738   3.225   2.246   2.206 -2.6213 -0.7948  0.3459
 8743SOL    HW334739   3.159   2.364   2.138  1.1496  0.8972 -0.6700
 8743SOL    MW434740   3.182   2.321   2.211 -0.7619  0.3921 -0.3080
 8744SOL     OW34741   5.546   1.291   5.957 -0.0655  0.1339  0.1360
 8744SOL    HW234742   5.505   1.330   5.879 -0.3167 -0.8873 -0.2628
 8744SOL    HW334743   5.540   1.359   6.024  0.4232  1.1430 -0.8213
 8744SOL    MW434744   5.540   1.305   5.955 -0.0342  0.1323 -0.0429
 8745SOL     OW34745   3.968   5.010   1.015 -0.1456 -0.4801 -0.4787
 8745SOL    HW234746   3.932   5.032   1.101 -1.4028 -0.9540 -0.8567
 8745SOL    HW334747   4.052   4.968   1.034  0.3520  0.8596  0.4300
 8745SOL    MW434748   3.974   5.008   1.029 -0.2458 -0.3659 -0.4087
 8746SOL     OW34749   4.570   4.068   1.957 -0.0716  0.2924 -0.5092
 8746SOL    HW234750   4.497   4.008   1.940 -0.5952  0.5040  0.8412
 8746SOL    HW334751   4.567   4.083   2.051 -0.3601  2.9554 -0.8621
 8746SOL    MW434752   4.560   4.062   1.967 -0.1788  0.6716 -0.3776
 8747SOL     OW34753   5.069   2.629   3.835 -0.1198  0.1267  0.5776
 8747SOL    HW234754   5.024   2.592   3.759  1.8941 -1.9944  0.2969
 8747SOL    HW334755   5.090   2.719   3.808  1.8150 -0.9846 -2.0894
 8747SOL    MW434756   5.066   2.636   3.821  0.4012 -0.2998  0.1887
 8748SOL     OW34757   4.570   1.009   2.276  0.1198  0.6298  0.3792
 8748SOL    HW234758   4.572   0.967   2.362 -0.8378  0.0644  0.1411
 8748SOL    HW334759   4.560   0.937   2.214  0.2314  1.0763 -0.1652
 8748SOL    MW434760   4.569   0.994   2.279  0.0082  0.6141  0.2760
 8749SOL     OW34761   0.807   4.761   4.035 -0.0737 -0.4632 -0.1679
 8749SOL    HW234762   0.774   4.707   3.964 -1.7463 -2.3257  1.8923
 8749SOL    HW334763   0.893   4.724   4.056 -0.9056 -1.9402  0.7640
 8749SOL    MW434764   0.814   4.749   4.028 -0.4041 -0.9038  0.2269
 8750SOL     OW34765   0.933   6.426   0.377 -0.5842 -0.4335 -0.2697
 8750SOL    HW234766   0.873   6.457   0.310  0.9589  1.5354 -0.8491
 8750SOL    HW334767   1.018   6.463   0.353  0.6715 -2.1786  1.1103
 8750SOL    MW434768   0.936   6.435   0.365 -0.2149 -0.4040 -0.1641
 8751SOL     OW34769   3.303   4.126   5.456  0.1994 -0.2211  0.6366
 8751SOL    HW234770   3.307   4.099   5.548 -0.0985  0.3969  0.8430
 8751SOL    HW334771   3.363   4.067   5.410  1.0724  0.0676  1.3758
 8751SOL    MW434772   3.311   4.115   5.462  0.2753 -0.1015  0.7613
 8752SOL     OW34773   1.787   2.914   1.698  0.5758 -0.8370 -0.1076
 8752SOL    HW234774   1.836   2.920   1.616  0.7061 -2.1284 -0.1460
 8752SOL    HW334775   1.800   2.824   1.727 -0.0390 -0.5947  0.9834
 8752SOL    MW434776   1.795   2.903   1.691  0.5119 -0.9754  0.0313
 8753SOL     OW34777   4.334   5.010   4.237 -0.1942 -0.9388  0.2001
 8753SOL    HW234778   4.412   4.957   4.221  0.9976  1.3803 -2.5839
 8753SOL    HW334779   4.267   4.970   4.181  0.8819  0.6919 -2.4156
 8753SOL    MW434780   4.336   4.997   4.227  0.1050 -0.4177 -0.5123
 8754SOL     OW34781   5.570   6.428   1.394 -0.2480 -0.0600 -0.1628
 8754SOL    HW234782   5.556   6.520   1.370 -0.5853 -0.2389 -0.6888
 8754SOL    HW334783   5.649   6.428   1.447  0.3444  0.4089 -1.0186
 8754SOL    MW434784   5.578   6.440   1.397 -0.2143 -0.0218 -0.3451
 8755SOL     OW34785   5.502   5.932   5.591 -0.0362  0.0723 -0.4431
 8755SOL    HW234786   5.544   5.997   5.647 -0.5639 -0.2183  0.2982
 8755SOL    HW334787   5.409   5.958   5.589  0.0580  0.3958 -1.6286
 8755SOL    MW434788   5.495   5.944   5.598 -0.0934  0.0767 -0.5017
 8756SOL     OW34789   5.465   5.927   3.208 -0.2139 -0.2652 -0.0784
 8756SOL    HW234790   5.409   5.935   3.130 -1.7144 -2.9379  0.5890
 8756SOL    HW334791   5.405   5.933   3.281  1.2553  2.8183  1.0456
 8756SOL    MW434792   5.450   5.929   3.207 -0.2180 -0.2110  0.1579
 8757SOL     OW34793   5.051   4.728   3.691 -0.0675 -0.3932 -0.4320
 8757SOL    HW234794   5.063   4.821   3.674  0.8368 -0.4257 -0.0217
 8757SOL    HW334795   5.056   4.686   3.605 -1.6952  0.0323 -0.7760
 8757SOL    MW434796   5.053   4.734   3.678 -0.1630 -0.3414 -0.4233
 8758SOL     OW34797   6.169   2.800   4.371  0.0315 -0.1047 -0.2589
 8758SOL    HW234798   6.166   2.812   4.466  0.4191  1.1416 -0.3789
 8758SOL    HW334799   6.118   2.721   4.355  1.2030 -1.1788  1.1131
 8758SOL    MW434800   6.162   2.791   4.381  0.2372 -0.0820 -0.0937
 8759SOL     OW34801   0.233   1.108   1.733 -0.4534  0.0173  0.3121
 8759SOL    HW234802   0.269   1.020   1.729  0.5151  0.4151 -0.0486
 8759SOL    HW334803   0.281   1.156   1.665 -1.4041  0.6650  0.0824
 8759SOL    MW434804   0.244   1.103   1.723 -0.4511  0.1552  0.2342
 8760SOL     OW34805   5.437   3.787   0.928 -0.6998 -0.2180 -0.0029
 8760SOL    HW234806   5.416   3.705   0.885  4.3502 -1.5240 -0.5913
 8760SOL    HW334807   5.413   3.854   0.864 -3.3757 -1.1904 -0.1647
 8760SOL    MW434808   5.431   3.785   0.914 -0.3865 -0.5186 -0.1019
 8761SOL     OW34809   5.521   3.494   4.310 -0.4221  0.2381 -0.7109
 8761SOL    HW234810   5.568   3.411   4.297  0.0504  0.7001 -2.2009
 8761SOL    HW334811   5.451   3.492   4.244 -0.8968  0.6852 -0.2274
 8761SOL    MW434812   5.518   3.483   4.300 -0.4224  0.3580 -0.8437
 8762SOL     OW34813   0.047   5.773   4.764  0.2168 -0.4388 -0.1758
 8762SOL    HW234814   0.029   5.764   4.670 -0.5884 -0.1921 -0.0510
 8762SOL    HW334815  -0.039   5.785   4.804  0.6910  2.0157  0.3000
 8762SOL    MW434816   0.034   5.774   4.757  0.1731 -0.0824 -0.0966
 8763SOL     OW34817   2.566   0.050   5.453  0.4690  0.4111  0.1525
 8763SOL    HW234818   2.528   0.014   5.374 -1.5797  0.5341  1.0197
 8763SOL    HW334819   2.527   0.137   5.461  1.1386  0.6543  0.9816
 8763SOL    MW434820   2.556   0.057   5.444  0.2871  0.4594  0.3763
 8764SOL     OW34821   5.769   6.227   4.571 -0.5393  0.2044 -0.3280
 8764SOL    HW234822   5.787   6.181   4.654  0.2061  0.9027 -0.0850
 8764SOL    HW334823   5.712   6.167   4.523 -1.1938 -0.1085  0.7922
 8764SOL    MW434824   5.764   6.213   4.576 -0.5273  0.2552 -0.1482
 8765SOL     OW34825   3.722   6.240   4.666 -0.1025 -0.1164 -0.6387
 8765SOL    HW234826   3.804   6.290   4.670 -1.4325  2.1573  0.6815
 8765SOL    HW334827   3.730   6.176   4.737 -0.0359  1.1272  0.5227
 8765SOL    MW434828   3.734   6.239   4.676 -0.2692  0.3476 -0.3113
 8766SOL     OW34829   2.038   3.934   1.383 -0.7424 -0.1015  0.1062
 8766SOL    HW234830   2.116   3.968   1.427 -1.3192  3.2506 -1.1696
 8766SOL    HW334831   2.072   3.887   1.307  0.0660 -1.7269  1.4075
 8766SOL    MW434832   2.053   3.932   1.379 -0.7119  0.1263  0.1095
 8767SOL     OW34833   4.762   5.880   5.975 -0.2232 -0.0956 -0.2622
 8767SOL    HW234834   4.672   5.913   5.967 -0.6147 -0.3542  2.2361
 8767SOL    HW334835   4.803   5.936   6.040  0.7495 -1.2985  0.2093
 8767SOL    MW434836   4.755   5.892   5.982 -0.1465 -0.2885  0.1296
 8768SOL     OW34837   5.139   1.107   6.021 -0.1926  0.1853  0.3829
 8768SOL    HW234838   5.208   1.061   5.973 -1.4846 -1.9640  0.4398
 8768SOL    HW334839   5.059   1.087   5.972 -1.4941 -1.6361  2.9970
 8768SOL    MW434840   5.137   1.098   6.008 -0.5348 -0.3386  0.7353
 8769SOL     OW34841   3.164   5.456   6.098 -0.1563  0.1343  0.1396
 8769SOL    HW234842   3.254   5.434   6.076 -0.3283  0.2972 -0.7568
 8769SOL    HW334843   3.156   5.435   6.192  1.3825  2.0046  0.7428
 8769SOL    MW434844   3.175   5.450   6.108  0.0240  0.4026  0.1009
 8770SOL     OW34845   5.472   4.388   4.796  0.4742 -0.3374 -0.1501
 8770SOL    HW234846   5.498   4.461   4.851 -0.0437  1.1744 -1.8220
 8770SOL    HW334847   5.437   4.323   4.857 -1.2422  1.7618  1.2060
 8770SOL    MW434848   5.471   4.389   4.811  0.1794  0.1390 -0.1918
 8771SOL     OW34849   0.261   1.398   5.224 -0.0890 -0.8993 -0.8071
 8771SOL    HW234850   0.333   1.344   5.257 -0.1595 -0.1996  0.5744
 8771SOL    HW334851   0.210   1.419   5.303 -0.9127 -0.0850 -1.5442
 8771SOL    MW434852   0.264   1.393   5.239 -0.2069 -0.6996 -0.7221
 8772SOL     OW34853   1.183   0.022   1.108 -0.1502 -0.2237  0.2067
 8772SOL    HW234854   1.115  -0.032   1.070 -2.2161  2.3260 -0.0359
 8772SOL    HW334855   1.147   0.050   1.193  1.0559  0.3151  0.5707
 8772SOL    MW434856   1.169   0.019   1.114 -0.2637  0.1838  0.2227
 8773SOL     OW34857   0.577   1.039   3.239 -0.1573  0.5523  0.5701
 8773SOL    HW234858   0.500   0.985   3.255  0.0725  0.1179  0.2471
 8773SOL    HW334859   0.587   1.038   3.144 -0.2641  1.3322  0.5414
 8773SOL    MW434860   0.568   1.032   3.228 -0.1410  0.5979  0.5237
 8774SOL     OW34861   1.025   2.141   5.189  0.2090 -0.1222 -0.2641
 8774SOL    HW234862   1.079   2.066   5.212  0.2047  0.1096  0.5040
 8774SOL    HW334863   1.086   2.214   5.183  0.2896 -0.2686 -1.5016
 8774SOL    MW434864   1.040   2.141   5.191  0.2191 -0.1109 -0.3260
 8775SOL     OW34865   1.391   5.910   0.863  0.5374 -0.3243  0.0357
 8775SOL    HW234866   1.438   5.839   0.820  1.3077 -0.8979  1.7133
 8775SOL    HW334867   1.448   5.986   0.854  0.7737 -0.4825  0.1953
 8775SOL    MW434868   1.405   5.911   0.856  0.6702 -0.4209  0.2781
 8776SOL     OW34869   3.877   0.406   5.941 -0.3797  0.4004 -0.0286
 8776SOL    HW234870   3.959   0.370   5.907 -0.9641 -0.8443 -0.1721
 8776SOL    HW334871   3.882   0.392   6.035 -0.2482  0.7320  0.0166
 8776SOL    MW434872   3.889   0.400   5.949 -0.4394  0.2799 -0.0416
 8777SOL     OW34873   3.198   4.781   6.196  0.7437 -0.1661  0.5004
 8777SOL    HW234874   3.103   4.781   6.212  0.9838 -1.4394  2.1652
 8777SOL    HW334875   3.236   4.809   6.280  1.9678 -3.5748  1.2423
 8777SOL    MW434876   3.190   4.785   6.209  0.9369 -0.7838  0.8180
 8778SOL     OW34877   0.269   5.500   6.416  0.1334 -0.2179 -0.0502
 8778SOL    HW234878   0.279   5.588   6.378 -1.6046 -0.1028 -0.3035
 8778SOL    HW334879   0.352   5.484   6.461  1.0013  0.9948 -1.1396
 8778SOL    MW434880   0.282   5.510   6.417  0.0186 -0.0427 -0.2273
 8779SOL     OW34881   5.588   5.371   2.771 -0.1067  0.3694  0.4570
 8779SOL    HW234882   5.674   5.331   2.778  0.6401  1.7268 -0.6137
 8779SOL    HW334883   5.589   5.442   2.835 -0.3780  0.4852  0.3352
 8779SOL    MW434884   5.599   5.375   2.781 -0.0440  0.5638  0.2997
 8780SOL     OW34885   4.458   5.039   1.192 -0.1659  0.2900  0.0724
 8780SOL    HW234886   4.452   5.057   1.286 -0.5771  2.7068 -0.3470
 8780SOL    HW334887   4.531   5.094   1.162 -1.0326  0.7579 -1.2566
 8780SOL    MW434888   4.467   5.049   1.200 -0.3345  0.6706 -0.1583
 8781SOL     OW34889   0.746   3.014   0.390  0.0778  0.2610  0.3757
 8781SOL    HW234890   0.651   3.018   0.379  0.1770 -1.2326 -1.6231
 8781SOL    HW334891   0.760   2.944   0.453 -0.1483  0.9091  1.1589
 8781SOL    MW434892   0.736   3.005   0.397  0.0611  0.1494  0.2153
 8782SOL     OW34893   3.097   2.968   1.723 -0.2242 -0.0746 -0.2799
 8782SOL    HW234894   3.149   2.949   1.645  0.4734 -1.6423  0.5189
 8782SOL    HW334895   3.026   2.904   1.720  0.1771 -0.5847  0.6865
 8782SOL    MW434896   3.094   2.957   1.712 -0.0792 -0.3487 -0.0470
 8783SOL     OW34897   0.171   6.417   1.896 -0.0347  0.2192 -0.5602
 8783SOL    HW234898   0.194   6.499   1.940  2.5833 -0.2531 -0.9190
 8783SOL    HW334899   0.233   6.353   1.930 -0.9377 -1.2368 -1.5499
 8783SOL    MW434900   0.182   6.420   1.907  0.1916 -0.0352 -0.7381
 8784SOL     OW34901   0.215   4.086   0.595  0.1744  0.2497  0.5074
 8784SOL    HW234902   0.154   4.118   0.662 -2.0862  1.2819 -1.8456
 8784SOL    HW334903   0.165   4.019   0.548  1.2692  0.3305 -0.8189
 8784SOL    MW434904   0.200   4.082   0.597  0.0206  0.3965  0.0220
 8785SOL     OW34905   3.505   1.501   4.921  0.5507 -0.0475 -0.3301
 8785SOL    HW234906   3.455   1.557   4.862  0.8982  0.1852 -0.4060
 8785SOL    HW334907   3.512   1.417   4.876  1.1082  0.2303 -0.7768
 8785SOL    MW434908   3.500   1.497   4.908  0.6701  0.0199 -0.3991
 8786SOL     OW34909   4.839   4.399   3.900  0.5521  0.1181 -0.3120
 8786SOL    HW234910   4.744   4.397   3.896  0.4940  2.1986 -1.0583
 8786SOL    HW334911   4.868   4.346   3.825  0.0417 -1.1472  0.3479
 8786SOL    MW434912   4.830   4.392   3.890  0.4771  0.2257 -0.3234
 8787SOL     OW34913   5.721   5.926   2.790  0.4057 -0.6488  0.4912
 8787SOL    HW234914   5.687   5.882   2.868  1.0487 -1.3916  0.3713
 8787SOL    HW334915   5.656   5.909   2.722  0.8169 -1.7729  0.3481
 8787SOL    MW434916   5.708   5.918   2.791  0.5448 -0.8951  0.4565
 8788SOL     OW34917   0.884   1.548   0.586 -0.1428  0.0182  0.2760
 8788SOL    HW234918   0.958   1.606   0.607  0.1272 -0.3543  0.3689
 8788SOL    HW334919   0.910   1.506   0.504 -0.2993 -0.0347  0.2548
 8788SOL    MW434920   0.897   1.550   0.578 -0.1278 -0.0379  0.2855
 8789SOL     OW34921   1.413   4.902   4.476 -0.2870  0.4574 -0.0142
 8789SOL    HW234922   1.347   4.870   4.415  0.7824 -0.9831 -0.4816
 8789SOL    HW334923   1.452   4.822   4.513  0.4083  1.2848  1.0948
 8789SOL    MW434924   1.410   4.887   4.473 -0.0541  0.3765  0.0705
 8790SOL     OW34925   4.174   1.760   4.363  0.6954  0.1969 -0.3366
 8790SOL    HW234926   4.160   1.821   4.436  0.2458 -0.0681 -0.1976
 8790SOL    HW334927   4.125   1.682   4.387  1.4591 -0.3165 -0.4032
 8790SOL    MW434928   4.166   1.758   4.376  0.7369  0.0942 -0.3271
 8791SOL     OW34929   4.527   4.817   4.148  0.0284 -1.2176 -0.1061
 8791SOL    HW234930   4.516   4.788   4.057  1.0257  0.8133 -0.9214
 8791SOL    HW334931   4.619   4.800   4.167  0.5230  0.8443 -0.4479
 8791SOL    MW434932   4.538   4.811   4.139  0.2253 -0.6776 -0.2587
 8792SOL     OW34933   5.068   2.977   3.462 -0.4034  0.2120  0.6737
 8792SOL    HW234934   5.086   3.018   3.377 -1.3092 -0.0265  0.3499
 8792SOL    HW334935   5.000   3.033   3.501  0.9986  1.1453  1.8899
 8792SOL    MW434936   5.061   2.990   3.456 -0.3379  0.3037  0.7914
 8793SOL     OW34937   2.135   5.353   3.671  0.3097  0.0364 -0.2474
 8793SOL    HW234938   2.211   5.304   3.639  1.0307  0.1769  1.1599
 8793SOL    HW334939   2.161   5.383   3.758 -0.8520  1.2727 -0.2947
 8793SOL    MW434940   2.148   5.350   3.678  0.2516  0.2181 -0.0680
 8794SOL     OW34941   6.199   2.309   5.984 -0.1066  0.0318 -0.0150
 8794SOL    HW234942   6.186   2.331   6.076 -0.9448 -2.3244  0.5057
 8794SOL    HW334943   6.263   2.239   5.985  0.9175  0.8928 -1.3795
 8794SOL    MW434944   6.206   2.303   5.996 -0.0820 -0.1655 -0.1263
 8795SOL     OW34945   1.001   3.914   0.127 -0.0279 -0.0862  0.3163
 8795SOL    HW234946   1.061   3.851   0.089  0.3638  0.5545 -0.1565
 8795SOL    HW334947   1.001   3.988   0.066 -0.1150  0.5706  1.0857
 8795SOL    MW434948   1.009   3.916   0.114  0.0123  0.0850  0.3554
 8796SOL     OW34949   4.602   5.497   1.293 -0.4910  0.2020  0.4419
 8796SOL    HW234950   4.624   5.421   1.239  0.9465  1.2784 -0.5761
 8796SOL    HW334951   4.583   5.461   1.379 -2.7823 -1.5806 -0.6900
 8796SOL    MW434952   4.602   5.483   1.297 -0.6037  0.1088  0.1583
 8797SOL     OW34953   0.996   3.845   4.439  0.1117 -0.2070 -0.2237
 8797SOL    HW234954   0.988   3.880   4.351  0.6176 -1.2663 -0.7050
 8797SOL    HW334955   1.045   3.763   4.429 -0.4865 -0.7419  0.9362
 8797SOL    MW434956   1.001   3.839   4.426  0.0996 -0.4173 -0.1342
 8798SOL     OW34957   1.172   2.368   5.114 -0.6012  0.5288  0.7280
 8798SOL    HW234958   1.205   2.348   5.026 -0.5546 -1.5548  1.1654
 8798SOL    HW334959   1.086   2.408   5.098 -1.6142 -1.8369 -0.2959
 8798SOL    MW434960   1.165   2.370   5.100 -0.7287 -0.0582  0.6506
 8799SOL     OW34961   3.422   3.250   1.965 -0.2213 -0.0907 -0.2889
 8799SOL    HW234962   3.498   3.193   1.950  1.0895  1.5770 -0.2203
 8799SOL    HW334963   3.459   3.338   1.971 -2.0611  0.6533  0.7931
 8799SOL    MW434964   3.437   3.254   1.964 -0.2911  0.2275 -0.1371
 8800SOL     OW34965   1.960   2.662   2.442 -0.4213  0.3418 -0.9345
 8800SOL    HW234966   1.959   2.572   2.410  1.0710  0.3463 -1.0665
 8800SOL    HW334967   2.008   2.711   2.375  0.1505  0.9241 -0.1219
 8800SOL    MW434968   1.967   2.657   2.429 -0.1489  0.4192 -0.8447
 8801SOL     OW34969   4.552   2.185   2.834  0.5178  0.0428 -0.4414
 8801SOL    HW234970   4.529   2.188   2.927  2.3108  0.0991  0.0342
 8801SOL    HW334971   4.559   2.276   2.807  2.9455  0.0908  0.1865
 8801SOL    MW434972   4.550   2.197   2.842  1.0747  0.0566 -0.2958
 8802SOL     OW34973   5.404   0.313   4.368 -0.0485  0.0591  0.1635
 8802SOL    HW234974   5.361   0.248   4.313  2.8419  0.0194 -2.3409
 8802SOL    HW334975   5.444   0.262   4.438  1.2394 -0.8250 -1.1481
 8802SOL    MW434976   5.404   0.298   4.370  0.5028 -0.0628 -0.3400
 8803SOL     OW34977   3.051   1.231   5.545 -0.1992  0.2246 -0.0921
 8803SOL    HW234978   3.129   1.286   5.535 -0.7055  0.7139 -1.5247
 8803SOL    HW334979   3.078   1.145   5.512 -0.1023  0.2514 -0.0823
 8803SOL    MW434980   3.065   1.227   5.539 -0.2532  0.2927 -0.2798
 8804SOL     OW34981   5.453   4.481   5.338 -0.0119 -0.3734  0.7214
 8804SOL    HW234982   5.467   4.393   5.373  0.2090 -1.1859 -1.2709
 8804SOL    HW334983   5.516   4.536   5.385 -0.2526 -1.2148  2.1022
 8804SOL    MW434984   5.463   4.477   5.349 -0.0145 -0.5916  0.6408
 8805SOL     OW34985   6.113   4.402   2.641 -0.0875 -0.5986 -0.1157
 8805SOL    HW234986   6.169   4.391   2.717 -0.7349 -0.4950  0.3836
 8805SOL    HW334987   6.172   4.435   2.573  0.2485  0.5260  0.7003
 8805SOL    MW434988   6.128   4.405   2.642 -0.1286 -0.4365  0.0578
 8806SOL     OW34989   4.297   0.790   1.600 -0.2429  0.4159 -0.3733
 8806SOL    HW234990   4.242   0.831   1.533 -0.0940  0.3104 -0.5617
 8806SOL    HW334991   4.386   0.816   1.578 -0.3213  1.7377  0.7387
 8806SOL    MW434992   4.301   0.799   1.588 -0.2336  0.5763 -0.2514
 8807SOL     OW34993   2.264   5.084   0.405  0.1829  0.4142 -0.1592
 8807SOL    HW234994   2.213   5.011   0.440  0.7705  0.6377  1.2060
 8807SOL    HW334995   2.355   5.058   0.418  0.4079  0.7897 -0.9547
 8807SOL    MW434996   2.269   5.071   0.411  0.2901  0.4932 -0.0840
 8808SOL     OW34997   4.958   5.096   2.157 -0.0711  0.4796  0.0628
 8808SOL    HW234998   4.926   5.009   2.177 -2.6443  1.3995  0.2716
 8808SOL    HW334999   5.000   5.126   2.238  4.1161 -1.7223 -0.9588
 8808SOL    MW435000   4.960   5.089   2.170  0.1419  0.3105 -0.0444
 8809SOL     OW35001   1.579   2.540   6.278 -0.1301  0.3592  0.0840
 8809SOL    HW235002   1.518   2.474   6.312 -1.0515  0.9393 -0.4021
 8809SOL    HW335003   1.524   2.616   6.261  0.5503  0.5639 -1.3218
 8809SOL    MW435004   1.564   2.541   6.280 -0.1619  0.4627 -0.1656
 8810SOL     OW35005   3.202   5.836   5.919  0.3900 -0.4788  0.1707
 8810SOL    HW235006   3.148   5.826   5.841  3.2767  3.4123 -2.7461
 8810SOL    HW335007   3.147   5.887   5.979 -0.6124 -0.1893 -0.9426
 8810SOL    MW435008   3.188   5.842   5.917  0.6386  0.0728 -0.3610
 8811SOL     OW35009   3.834   0.765   2.161  0.0063 -0.5661  0.9168
 8811SOL    HW235010   3.782   0.687   2.138  0.7845 -0.6768 -0.6454
 8811SOL    HW335011   3.919   0.729   2.189  0.2116 -0.3180  0.6261
 8811SOL    MW435012   3.839   0.750   2.162  0.1361 -0.5480  0.6723
 8812SOL     OW35013   2.228   4.785   5.614 -0.0034  0.0033 -0.1682
 8812SOL    HW235014   2.148   4.837   5.613  0.0336  0.0543 -0.6953
 8812SOL    HW335015   2.299   4.850   5.616  0.0434 -0.0113  2.8517
 8812SOL    MW435016   2.227   4.801   5.614  0.0076  0.0081  0.1607
 8813SOL     OW35017   1.907   0.532   4.210  0.9275  0.0446  0.1164
 8813SOL    HW235018   1.887   0.571   4.295  1.8056  1.7701 -0.4225
 8813SOL    HW335019   1.823   0.500   4.178  0.0156  2.1564  0.2886
 8813SOL    MW435020   1.894   0.533   4.217  0.9230  0.5509  0.0680
 8814SOL     OW35021   5.250   2.189   4.611 -0.5430 -0.3253  0.1103
 8814SOL    HW235022   5.164   2.231   4.619 -0.1483  0.5258  0.0320
 8814SOL    HW335023   5.312   2.260   4.628  0.1530 -0.8286 -0.3079
 8814SOL    MW435024   5.247   2.204   4.614 -0.3991 -0.2794  0.0448
 8815SOL     OW35025   5.106   0.106   6.351 -0.0808 -0.1067 -0.1059
 8815SOL    HW235026   5.040   0.150   6.298 -0.1240 -0.1028 -0.0502
 8815SOL    HW335027   5.180   0.092   6.292 -0.7102 -1.5099 -0.6184
 8815SOL    MW435028   5.107   0.110   6.336 -0.1695 -0.2913 -0.1661
 8816SOL     OW35029   5.780   1.884   5.508  0.1814  0.3014  0.9465
 8816SOL    HW235030   5.865   1.885   5.465  0.4707  0.4423  1.5126
 8816SOL    HW335031   5.717   1.871   5.437  0.7768 -1.5014  0.7240
 8816SOL    MW435032   5.783   1.883   5.493  0.2981  0.0821  0.9918
 8817SOL     OW35033   2.965   0.532   1.302  0.6094  0.3654  0.9764
 8817SOL    HW235034   3.045   0.480   1.311  1.5373  0.8555 -2.7785
 8817SOL    HW335035   2.994   0.613   1.260 -1.8289  0.5502 -0.5081
 8817SOL    MW435036   2.980   0.536   1.298  0.4101  0.4544  0.2851
 8818SOL     OW35037   0.747   0.368   5.002  0.4528 -0.1158  0.7713
 8818SOL    HW235038   0.676   0.431   5.017 -0.5093 -1.2561  1.2052
 8818SOL    HW335039   0.750   0.317   5.083 -0.1356 -1.9083 -0.2790
 8818SOL    MW435040   0.738   0.370   5.015  0.2483 -0.5028  0.6899
 8819SOL     OW35041   2.760   0.574   0.135 -0.3691  0.0204 -0.0934
 8819SOL    HW235042   2.792   0.611   0.053  0.0584 -1.8912 -0.8354
 8819SOL    HW335043   2.719   0.648   0.180  1.1975  1.5643 -1.0868
 8819SOL    MW435044   2.759   0.589   0.130 -0.1060 -0.0281 -0.3224
 8820SOL     OW35045   0.016   1.844   6.108 -0.3503  0.4173 -1.0393
 8820SOL    HW235046  -0.004   1.808   6.022  0.1741  0.4774 -1.1864
 8820SOL    HW335047   0.026   1.938   6.093 -0.2699  0.4304 -0.9104
 8820SOL    MW435048   0.014   1.852   6.095 -0.2705  0.4270 -1.0417
 8821SOL     OW35049   6.412   5.668   0.877  0.1482 -0.4075  0.5648
 8821SOL    HW235050   6.402   5.752   0.923  0.9084  0.1070 -0.1891
 8821SOL    HW335051   6.486   5.681   0.818  0.8788 -1.9204  1.0982
 8821SOL    MW435052   6.420   5.681   0.876  0.3449 -0.5392  0.5357
 8822SOL     OW35053   0.104   2.673   1.208  0.3928  0.4682  0.3952
 8822SOL    HW235054   0.138   2.757   1.175 -1.6914  0.5971 -1.6616
 8822SOL    HW335055   0.090   2.689   1.302  2.9400  1.3599  0.6963
 8822SOL    MW435056   0.106   2.686   1.216  0.4539  0.6028  0.1635
 8823SOL     OW35057   1.181   2.641   3.174 -0.0385 -0.1699  0.2072
 8823SOL    HW235058   1.130   2.714   3.209 -1.5156  0.2041 -2.4149
 8823SOL    HW335059   1.131   2.612   3.097  2.9580 -0.8007 -1.6528
 8823SOL    MW435060   1.167   2.646   3.168  0.1619 -0.2038 -0.3842
 8824SOL     OW35061   5.294   2.883   6.003 -0.1869  0.1137 -0.2035
 8824SOL    HW235062   5.264   2.814   6.061  0.9759 -0.8919 -0.7463
 8824SOL    HW335063   5.219   2.901   5.946 -1.4233  1.2916  1.7090
 8824SOL    MW435064   5.280   2.876   6.003 -0.1966  0.1364 -0.0228
 8825SOL     OW35065   4.998   2.892   1.554  0.6211  0.4349  0.6236
 8825SOL    HW235066   5.029   2.862   1.468  0.7428  0.8756  0.5141
 8825SOL    HW335067   4.975   2.811   1.600 -2.1363  0.2947 -0.8121
 8825SOL    MW435068   4.999   2.877   1.548  0.2734  0.4746  0.4197
 8826SOL     OW35069   1.975   4.493   0.666  0.2504 -0.1931  0.3938
 8826SOL    HW235070   1.953   4.586   0.674 -1.8415 -0.4825 -1.0918
 8826SOL    HW335071   1.940   4.453   0.745 -1.5113 -0.1077 -0.3035
 8826SOL    MW435072   1.967   4.500   0.677 -0.2580 -0.2200  0.1058
 8827SOL     OW35073   4.793   2.820   0.595  0.3887 -0.4763 -0.1453
 8827SOL    HW235074   4.808   2.750   0.659  0.5467 -0.3289 -0.0186
 8827SOL    HW335075   4.848   2.893   0.626 -0.1295 -0.1363 -0.0247
 8827SOL    MW435076   4.802   2.821   0.607  0.3412 -0.4120 -0.1127
 8828SOL     OW35077   2.946   5.885   3.276 -0.1089 -0.0528 -0.2451
 8828SOL    HW235078   2.899   5.931   3.206  0.1203  1.5361  0.5990
 8828SOL    HW335079   2.912   5.924   3.357  2.1226  0.6787  0.4198
 8828SOL    MW435080   2.935   5.897   3.277  0.2158  0.2533 -0.0460
 8829SOL     OW35081   5.821   2.735   4.295 -0.8114  0.4303 -0.0193
 8829SOL    HW235082   5.873   2.806   4.259  0.1736  0.7569  1.8824
 8829SOL    HW335083   5.852   2.657   4.249  0.7314  0.7530  0.4090
 8829SOL    MW435084   5.832   2.734   4.284 -0.4779  0.5159  0.2881
 8830SOL     OW35085   3.908   4.513   0.442 -0.4419 -0.4113  0.4518
 8830SOL    HW235086   3.863   4.429   0.437 -1.4148  0.1779 -2.0884
 8830SOL    HW335087   3.839   4.578   0.424  0.5104  0.8719  1.2478
 8830SOL    MW435088   3.893   4.511   0.439 -0.4447 -0.1642  0.2217
 8831SOL     OW35089   0.612   3.124   1.244  0.3048  0.2177  0.2244
 8831SOL    HW235090   0.564   3.133   1.326  0.2534 -0.8294  0.3250
 8831SOL    HW335091   0.600   3.032   1.219  2.4763 -0.1622  0.3835
 8831SOL    MW435092   0.604   3.113   1.251  0.5845  0.0294  0.2586
 8832SOL     OW35093   3.081   4.199   3.693 -0.7941  0.1180 -0.4930
 8832SOL    HW235094   3.102   4.124   3.748 -1.4672  0.8623  0.8361
 8832SOL    HW335095   2.985   4.202   3.691 -0.8650 -1.0180 -3.3543
 8832SOL    MW435096   3.071   4.190   3.700 -0.8922  0.0663 -0.6952
 8833SOL     OW35097   2.158   0.315   4.818 -0.4120  0.4417  0.5056
 8833SOL    HW235098   2.251   0.334   4.831 -0.6271  1.5528  0.5507
 8833SOL    HW335099   2.139   0.245   4.879  0.2951  0.5288  0.8351
 8833SOL    MW435100   2.168   0.308   4.828 -0.3471  0.5998  0.5550
 8834SOL     OW35101   1.703   1.958   1.058 -0.0338 -0.4895  0.1633
 8834SOL    HW235102   1.694   1.989   1.148  1.5872  0.7722 -0.0613
 8834SOL    HW335103   1.794   1.931   1.051  0.0749  0.1572 -1.2915
 8834SOL    MW435104   1.714   1.959   1.069  0.1944 -0.2377 -0.0582
 8835SOL     OW35105   0.093   2.405   6.289 -0.2536 -0.8647  0.2284
 8835SOL    HW235106   0.110   2.315   6.316  0.9421 -0.9306 -0.6620
 8835SOL    HW335107   0.038   2.441   6.359  0.3695 -1.8706  1.2797
 8835SOL    MW435108   0.088   2.398   6.302 -0.0136 -1.0061  0.2496
 8836SOL     OW35109   5.577   2.939   3.996  0.3729 -0.2984  0.3898
 8836SOL    HW235110   5.616   2.865   3.949 -0.3242 -1.2917  1.3203
 8836SOL    HW335111   5.639   3.010   3.984  2.1899 -1.6303  1.2905
 8836SOL    MW435112   5.590   2.938   3.988  0.5206 -0.6052  0.6314
 8837SOL     OW35113   0.994   4.924   3.406 -0.4190  0.4781 -0.7405
 8837SOL    HW235114   0.955   4.877   3.332  0.4072 -2.6681  0.6614
 8837SOL    HW335115   0.925   4.923   3.473 -0.2397  0.9409 -0.5480
 8837SOL    MW435116   0.979   4.917   3.405 -0.2863  0.1241 -0.5301
 8838SOL     OW35117   0.313   4.335   1.658 -0.0586  0.4447  0.0971
 8838SOL    HW235118   0.308   4.426   1.687  1.2223  0.7972 -0.6854
 8838SOL    HW335119   0.232   4.295   1.690  0.1290  1.4165  1.9289
 8838SOL    MW435120   0.302   4.342   1.666  0.1352  0.6194  0.2356
 8839SOL     OW35121   5.646   0.129   4.034 -0.2309  0.2207  0.6778
 8839SOL    HW235122   5.648   0.066   4.106  0.4029  0.4163  0.8360
 8839SOL    HW335123   5.553   0.144   4.019 -0.4084 -0.9832  0.4300
 8839SOL    MW435124   5.634   0.123   4.042 -0.1707  0.0877  0.6660
 8840SOL     OW35125   4.534   4.325   1.872 -0.6052  0.1472  0.7336
 8840SOL    HW235126   4.563   4.240   1.905 -0.6534 -0.4039 -0.5832
 8840SOL    HW335127   4.616   4.374   1.858  0.0470 -1.6827 -3.7277
 8840SOL    MW435128   4.549   4.321   1.874 -0.5255 -0.1670 -0.0287
 8841SOL     OW35129   3.545   2.562   2.922  0.3814  0.8079 -0.2872
 8841SOL    HW235130   3.515   2.505   2.992  1.2280  1.7980  0.9411
 8841SOL    HW335131   3.555   2.505   2.846 -1.5737 -0.0958  0.0939
 8841SOL    MW435132   3.543   2.547   2.922  0.2352  0.8193 -0.0749
 8842SOL     OW35133   1.382   4.585   2.692 -0.2005  0.1651 -0.4222
 8842SOL    HW235134   1.347   4.658   2.742  1.2328 -0.9683  2.4288
 8842SOL    HW335135   1.305   4.530   2.675 -0.7182  0.5243  0.6570
 8842SOL    MW435136   1.367   4.587   2.696 -0.0797  0.0629  0.0963
 8843SOL     OW35137   2.948   3.693   2.996  0.0337 -0.0098 -0.6019
 8843SOL    HW235138   2.981   3.747   2.924 -1.3749 -0.2648 -1.4928
 8843SOL    HW335139   3.020   3.687   3.057  1.8210 -0.9798 -2.6609
 8843SOL    MW435140   2.962   3.699   2.994  0.0837 -0.1714 -0.9911
 8844SOL     OW35141   3.425   0.608   4.984 -0.3253  0.0813  0.4085
 8844SOL    HW235142   3.380   0.549   4.924 -0.4857  0.7174 -0.1141
 8844SOL    HW335143   3.470   0.551   5.046 -0.3976 -0.5857 -0.1462
 8844SOL    MW435144   3.425   0.593   4.984 -0.3560  0.0772  0.2664
 8845SOL     OW35145   6.329   1.152   1.365  0.0410 -0.0673  0.5991
 8845SOL    HW235146   6.234   1.166   1.369  0.1736  0.6614  2.3430
 8845SOL    HW335147   6.350   1.109   1.447  1.5756  2.4961  1.6784
 8845SOL    MW435148   6.319   1.148   1.376  0.2609  0.3670  0.9716
 8846SOL     OW35149   2.840   5.173   1.694 -0.2715 -0.7798 -0.0361
 8846SOL    HW235150   2.787   5.213   1.763  1.0332 -1.3074  1.3340
 8846SOL    HW335151   2.888   5.247   1.656 -0.4844 -0.5653  0.1071
 8846SOL    MW435152   2.839   5.188   1.698 -0.1274 -0.8211  0.1636
 8847SOL     OW35153   4.235   2.918   3.471  0.6522 -0.1914 -0.3707
 8847SOL    HW235154   4.166   2.969   3.513 -0.2915  0.3107 -2.3939
 8847SOL    HW335155   4.279   2.872   3.543 -0.8898  0.5518  1.1073
 8847SOL    MW435156   4.232   2.918   3.486  0.3242 -0.0271 -0.4426
 8848SOL     OW35157   5.246   2.681   6.224 -0.2301  0.4737 -0.4281
 8848SOL    HW235158   5.328   2.719   6.256 -0.1413  1.6547 -1.9422
 8848SOL    HW335159   5.188   2.682   6.301  0.9485  0.2472  0.4908
 8848SOL    MW435160   5.249   2.686   6.238 -0.0629  0.5997 -0.5066
 8849SOL     OW35161   6.210   2.070   0.354  0.9779 -0.0919 -0.2795
 8849SOL    HW235162   6.264   2.031   0.422  2.4374 -0.3115 -1.5253
 8849SOL    HW335163   6.247   2.037   0.272  0.9875  2.2915 -1.2991
 8849SOL    MW435164   6.222   2.060   0.352  1.1717  0.1936 -0.5784
 8850SOL     OW35165   5.474   3.450   5.319  0.2453  0.2862  0.0224
 8850SOL    HW235166   5.438   3.413   5.400  1.9240  0.1296  0.7237
 8850SOL    HW335167   5.415   3.418   5.251 -1.5726  0.9293  1.2198
 8850SOL    MW435168   5.461   3.441   5.321  0.2269  0.3504  0.2729
 8851SOL     OW35169   2.132   0.334   1.418 -0.1164  0.7321  0.7243
 8851SOL    HW235170   2.202   0.279   1.383 -1.4953 -1.1969  0.8943
 8851SOL    HW335171   2.089   0.371   1.341 -0.9912 -0.7789  0.4511
 8851SOL    MW435172   2.136   0.332   1.403 -0.4137  0.2782  0.7107
 8852SOL     OW35173   3.643   0.717   1.815 -0.0134  0.3788 -0.1110
 8852SOL    HW235174   3.728   0.750   1.785  0.1287  0.0672 -0.0428
 8852SOL    HW335175   3.638   0.743   1.907 -0.6239  1.7006 -0.4859
 8852SOL    MW435176   3.653   0.725   1.823 -0.0752  0.5121 -0.1515
 8853SOL     OW35177   4.570   2.667   2.929 -0.0045 -0.1366 -0.3854
 8853SOL    HW235178   4.565   2.760   2.911 -0.4980  0.0290  0.5498
 8853SOL    HW335179   4.645   2.658   2.989 -0.0601 -0.3158 -0.3424
 8853SOL    MW435180   4.579   2.678   2.935 -0.0770 -0.1384 -0.2563
 8854SOL     OW35181   2.226   1.259   4.342  0.0025  0.4504  0.1327
 8854SOL    HW235182   2.231   1.170   4.308 -2.2211  0.1351  0.4836
 8854SOL    HW335183   2.275   1.256   4.425  1.4819  0.0700 -0.7056
 8854SOL    MW435184   2.233   1.247   4.349 -0.0957  0.3586  0.0684
 8855SOL     OW35185   0.015   6.069   4.157 -0.2207  0.3062  0.1442
 8855SOL    HW235186  -0.013   5.997   4.101 -0.3623 -0.6368  1.3868
 8855SOL    HW335187  -0.053   6.136   4.147 -0.9451 -0.4062  0.2233
 8855SOL    MW435188   0.003   6.069   4.148 -0.3350  0.0878  0.3185
 8856SOL     OW35189   4.913   0.812   3.219 -0.5519 -0.1562 -0.9312
 8856SOL    HW235190   4.952   0.817   3.132  0.8569  1.0606 -0.2704
 8856SOL    HW335191   4.868   0.896   3.230  0.0387  0.0724 -0.1624
 8856SOL    MW435192   4.912   0.824   3.209 -0.2881  0.0345 -0.7426
 8857SOL     OW35193   0.365   4.160   3.307 -0.7298 -0.4916 -0.3632
 8857SOL    HW235194   0.297   4.111   3.354  1.1234 -1.3563  1.6368
 8857SOL    HW335195   0.431   4.094   3.285  1.1540  0.7865  1.0631
 8857SOL    MW435196   0.365   4.145   3.311 -0.2367 -0.4370  0.0889
 8858SOL     OW35197   0.804   5.066   5.365  0.1847  0.5412  0.1680
 8858SOL    HW235198   0.897   5.085   5.362 -0.4188  4.0307 -1.4718
 8858SOL    HW335199   0.794   4.984   5.316  2.2969  0.2087  0.2232
 8858SOL    MW435200   0.815   5.057   5.358  0.3837  0.9577 -0.0410
 8859SOL     OW35201   0.203   3.815   2.166 -0.4482  0.5117 -0.2480
 8859SOL    HW235202   0.238   3.758   2.097 -0.2615  0.9758 -0.5368
 8859SOL    HW335203   0.182   3.755   2.237 -1.8935 -0.1656 -1.1901
 8859SOL    MW435204   0.205   3.799   2.166 -0.6142  0.4835 -0.4104
 8860SOL     OW35205   4.796   1.365   1.252 -0.2629 -0.3562  0.3689
 8860SOL    HW235206   4.848   1.424   1.307 -0.9528  0.3652  0.2695
 8860SOL    HW335207   4.719   1.417   1.228 -0.9409 -1.3332  0.3673
 8860SOL    MW435208   4.793   1.380   1.256 -0.4434 -0.3899  0.3556
 8861SOL     OW35209   5.262   5.069   4.721 -0.4091  0.1856 -0.1565
 8861SOL    HW235210   5.243   4.995   4.778 -0.9103  0.8948  0.6143
 8861SOL    HW335211   5.256   5.033   4.632 -0.7953 -0.6612  0.2022
 8861SOL    MW435212   5.259   5.055   4.716 -0.5262  0.1674 -0.0075
 8862SOL     OW35213   5.559   5.333   4.797 -0.1375  0.0005 -0.2222
 8862SOL    HW235214   5.610   5.414   4.790  1.8753 -1.1962 -0.1788
 8862SOL    HW335215   5.569   5.291   4.712  0.1233 -0.9168  0.2511
 8862SOL    MW435216   5.567   5.338   4.785  0.1625 -0.2784 -0.1540
 8863SOL     OW35217   4.461   3.387   0.733  0.3247 -0.0700 -0.3041
 8863SOL    HW235218   4.472   3.470   0.687  0.3331  0.7109  1.0647
 8863SOL    HW335219   4.367   3.369   0.730  0.0636  0.9416  0.9535
 8863SOL    MW435220   4.450   3.396   0.727  0.2914  0.1665  0.0424
 8864SOL     OW35221   2.441   6.387   0.894  0.5338 -0.0309 -0.2496
 8864SOL    HW235222   2.463   6.334   0.818  3.0636  0.0541  0.3203
 8864SOL    HW335223   2.348   6.405   0.885  0.6226 -0.5072 -3.0049
 8864SOL    MW435224   2.432   6.383   0.883  0.8793 -0.0825 -0.5380
 8865SOL     OW35225   2.499   5.361   0.239  0.2046 -0.5258 -0.3044
 8865SOL    HW235226   2.483   5.286   0.181 -1.0853  1.2581 -2.4404
 8865SOL    HW335227   2.530   5.430   0.180 -2.5272  1.8491  0.7848
 8865SOL    MW435228   2.501   5.360   0.223 -0.3260  0.0229 -0.4425
 8866SOL     OW35229   3.968   3.372   0.254  0.4366  0.1146  0.3026
 8866SOL    HW235230   3.929   3.393   0.339  1.2501  0.3754  0.6204
 8866SOL    HW335231   3.894   3.350   0.199 -0.0944 -0.1625  1.1115
 8866SOL    MW435232   3.953   3.372   0.258  0.4739  0.1124  0.4512
 8867SOL     OW35233   1.380   0.645   2.625  0.2288 -0.0461 -0.6803
 8867SOL    HW235234   1.319   0.678   2.691 -0.4223 -0.2891 -1.1505
 8867SOL    HW335235   1.364   0.699   2.548 -0.1345 -0.7782 -1.1342
 8867SOL    MW435236   1.370   0.656   2.623  0.0950 -0.1747 -0.8022
 8868SOL     OW35237   1.987   2.413   2.366  0.0168 -0.0430 -0.0753
 8868SOL    HW235238   1.987   2.391   2.273  2.2273  1.3703 -0.5072
 8868SOL    HW335239   2.029   2.339   2.408  1.0664  0.2647 -0.5464
 8868SOL    MW435240   1.993   2.400   2.359  0.4470  0.1840 -0.1944
 8869SOL     OW35241   0.243   1.111   0.548  0.4320 -0.1584 -0.3264
 8869SOL    HW235242   0.239   1.206   0.534  0.9655 -0.1189 -0.2429
 8869SOL    HW335243   0.331   1.087   0.520  0.5470 -0.5171  0.3464
 8869SOL    MW435244   0.254   1.121   0.542  0.5176 -0.2005 -0.2266
 8870SOL     OW35245   0.821   1.560   3.976 -0.4437  0.4665 -0.5966
 8870SOL    HW235246   0.839   1.527   4.064 -0.8574  2.1974  0.1768
 8870SOL    HW335247   0.778   1.487   3.931  1.9345 -1.3018 -0.1925
 8870SOL    MW435248   0.818   1.546   3.981 -0.1845  0.4615 -0.4412
 8871SOL     OW35249   6.044   3.740   3.120 -0.4012 -0.5202 -0.1390
 8871SOL    HW235250   6.063   3.752   3.027 -0.9241 -2.4952 -0.5671
 8871SOL    HW335251   6.118   3.779   3.165 -0.3174  0.8155 -1.3600
 8871SOL    MW435252   6.056   3.747   3.114 -0.4591 -0.6045 -0.3566
 8872SOL     OW35253   1.606   1.694   4.668  0.3327  0.4249  0.2295
 8872SOL    HW235254   1.544   1.767   4.661 -0.0721  0.0248 -0.6661
 8872SOL    HW335255   1.606   1.656   4.580  1.7496  0.3206  0.2614
 8872SOL    MW435256   1.598   1.698   4.655  0.4662  0.3583  0.1156
 8873SOL     OW35257   0.973   5.414   4.986 -0.2052  0.0018  0.0526
 8873SOL    HW235258   0.954   5.503   5.015 -0.1861 -0.3693  1.2310
 8873SOL    HW335259   0.892   5.365   5.001 -1.0727  0.3162 -2.8735
 8873SOL    MW435260   0.960   5.419   4.992 -0.3172 -0.0057 -0.1780
 8874SOL     OW35261   3.783   2.873   5.768  0.2429 -0.2298  0.1666
 8874SOL    HW235262   3.849   2.892   5.835 -0.6301  0.4661  0.8682
 8874SOL    HW335263   3.794   2.943   5.704  0.3182 -0.2310  0.1776
 8874SOL    MW435264   3.793   2.885   5.768  0.1377 -0.1381  0.2606
 8875SOL     OW35265   0.154   0.019   0.823  0.5818 -0.0918 -0.2305
 8875SOL    HW235266   0.238   0.006   0.780 -0.0788  0.4371 -1.7321
 8875SOL    HW335267   0.089  -0.016   0.762 -0.2977 -0.5842  0.9426
 8875SOL    MW435268   0.157   0.013   0.810  0.3786 -0.0870 -0.2739
 8876SOL     OW35269   3.078   5.903   1.497  0.0333 -0.9019  0.2973
 8876SOL    HW235270   3.122   5.838   1.442  1.6616 -0.6358  1.2173
 8876SOL    HW335271   3.102   5.880   1.586 -1.2152 -0.3560  0.7922
 8876SOL    MW435272   3.087   5.892   1.501  0.0834 -0.7948  0.4840
 8877SOL     OW35273   0.646   4.356   3.452 -0.8373  0.4993 -0.4591
 8877SOL    HW235274   0.567   4.397   3.418 -0.1624  2.1688 -0.0803
 8877SOL    HW335275   0.717   4.416   3.427 -0.0638  0.7047  2.0134
 8877SOL    MW435276   0.645   4.369   3.444 -0.6462  0.7467 -0.0829
 8878SOL     OW35277   1.405   1.316   0.426  0.0599 -0.0202 -0.8102
 8878SOL    HW235278   1.373   1.315   0.516  0.2585  0.2947 -0.7347
 8878SOL    HW335279   1.487   1.267   0.430  0.6797  1.0002 -0.5807
 8878SOL    MW435280   1.412   1.309   0.438  0.1679  0.1560 -0.7700
 8879SOL     OW35281   0.190   2.667   4.800  0.5545  0.0009 -0.0234
 8879SOL    HW235282   0.220   2.614   4.874 -0.8375  0.4843  0.9176
 8879SOL    HW335283   0.203   2.757   4.829 -0.9128  0.2032  0.0406
 8879SOL    MW435284   0.196   2.672   4.814  0.1773  0.0914  0.1092
 8880SOL     OW35285   4.949   1.995   5.063  0.1725  0.2002 -0.5503
 8880SOL    HW235286   4.913   2.078   5.093 -0.9973 -0.0233 -1.2853
 8880SOL    HW335287   4.907   1.929   5.119  2.6726  0.1642  1.5127
 8880SOL    MW435288   4.939   1.997   5.075  0.3480  0.1660 -0.3751
 8881SOL     OW35289   0.970   2.597   1.635 -0.3782 -0.9500  0.1653
 8881SOL    HW235290   0.937   2.666   1.576 -1.8535 -0.9766  0.9064
 8881SOL    HW335291   0.932   2.619   1.720 -0.8476 -2.6526  0.4290
 8881SOL    MW435292   0.961   2.609   1.639 -0.6347 -1.1782  0.2979
 8882SOL     OW35293   6.206   2.912   2.588 -0.4128  0.3481  0.2728
 8882SOL    HW235294   6.286   2.958   2.563 -0.8457  0.3315 -1.2379
 8882SOL    HW335295   6.215   2.899   2.683  0.7124  1.6025  0.3815
 8882SOL    MW435296   6.218   2.917   2.597 -0.3215  0.5114  0.0878
 8883SOL     OW35297   4.924   0.717   1.796 -0.4841 -0.7686  0.3716
 8883SOL    HW235298   4.951   0.805   1.824  1.2195 -1.9412  2.8046
 8883SOL    HW335299   4.830   0.715   1.810 -0.2475  0.0277  2.3984
 8883SOL    MW435300   4.915   0.729   1.802 -0.2281 -0.8182  0.9600
 8884SOL     OW35301   4.647   0.945   0.960 -0.2983  0.0894  0.0491
 8884SOL    HW235302   4.587   1.019   0.971  1.0066  1.1782  0.2712
 8884SOL    HW335303   4.710   0.955   1.032 -0.4697 -1.6406  0.4711
 8884SOL    MW435304   4.647   0.956   0.971 -0.1488  0.0048  0.1341
 8885SOL     OW35305   2.416   0.534   0.378  0.7876  0.5082 -0.5813
 8885SOL    HW235306   2.486   0.499   0.433 -0.0737  1.2630  1.0982
 8885SOL    HW335307   2.439   0.626   0.366 -0.8008  1.2913  1.6564
 8885SOL    MW435308   2.428   0.542   0.384  0.4644  0.7111 -0.0645
 8886NA      NA35309   0.314   0.214   1.155  0.5666 -0.1278  0.2617
 8887NA      NA35310   1.033   4.818   0.599 -0.3318  0.3676 -0.1108
 8888NA      NA35311   2.877   2.229   4.649  0.3772  0.1657  0.4152
 8889NA      NA35312   5.397   1.314   3.181 -0.1103  0.1457  0.1509
 8890NA      NA35313   3.883   2.345   6.389  0.3115 -0.1109  0.0990
 8891NA      NA35314   5.330   1.377   0.420 -0.1752 -0.1963  0.1501
 8892NA      NA35315   1.919   1.115   1.820 -0.1061 -0.8904  0.5390
   6.42920   6.42920   6.42920
