A-SYNC WITH FASUDIL
35315
  121NASP     N    1   4.372   1.107   1.852 -0.1110  0.9297 -0.1791
  121NASP    H1    2   4.450   1.043   1.857 -1.0555 -0.1788  1.3528
  121NASP    H2    3   4.287   1.053   1.840 -0.2666  1.3378 -0.9896
  121NASP    H3    4   4.362   1.164   1.935 -1.5065 -0.8032  0.9097
  121NASP    CA    5   4.389   1.181   1.728  0.1388  0.3451 -0.4655
  121NASP    HA    6   4.434   1.113   1.656 -1.1426  0.6168 -1.5569
  121NASP    CB    7   4.261   1.235   1.661  0.0007  0.2241 -0.3235
  121NASP   HB1    8   4.293   1.272   1.564  1.1860 -1.8254 -0.7670
  121NASP   HB2    9   4.225   1.326   1.711 -0.7649  0.8932 -2.0310
  121NASP    CG   10   4.150   1.131   1.645 -0.0465  0.0226  0.0084
  121NASP   OD1   11   4.045   1.165   1.585  0.5020  0.3348  0.4608
  121NASP   OD2   12   4.163   1.019   1.698 -0.5117  0.2435  0.4771
  121NASP     C   13   4.490   1.296   1.748 -0.4971 -0.0606 -0.1381
  121NASP     O   14   4.521   1.342   1.861  0.2522 -0.1941  0.0475
  122ASN      N   15   4.552   1.347   1.640 -0.1753  0.1359  0.1000
  122ASN      H   16   4.530   1.316   1.546 -0.0667  1.8461 -0.5266
  122ASN     CA   17   4.660   1.444   1.652  0.1067 -0.2254  0.2725
  122ASN     HA   18   4.733   1.401   1.721  2.2304  2.0651 -0.3925
  122ASN     CB   19   4.731   1.471   1.515  0.5954 -0.1916 -0.5442
  122ASN    HB1   20   4.663   1.516   1.443 -1.1529 -1.0614  0.4995
  122ASN    HB2   21   4.768   1.376   1.477  2.6824  1.9068 -4.3941
  122ASN     CG   22   4.857   1.561   1.525 -0.1159  0.4733  0.0932
  122ASN    OD1   23   4.859   1.675   1.566 -0.3933 -0.2097 -0.0312
  122ASN    ND2   24   4.971   1.512   1.488  0.4014  0.7648  0.8238
  122ASN   HD21   25   5.044   1.578   1.513  1.1907 -0.4368  1.8033
  122ASN   HD22   26   4.986   1.419   1.452 -0.3411  0.0198  2.3506
  122ASN      C   27   4.614   1.580   1.718  0.0292 -0.0402  0.3231
  122ASN      O   28   4.504   1.632   1.696  0.0048  0.6314  0.4033
  123GLU      N   29   4.696   1.637   1.806  0.1763 -0.2751 -0.1180
  123GLU      H   30   4.787   1.595   1.812  0.5039 -0.3451 -3.4275
  123GLU     CA   31   4.659   1.758   1.883 -0.2323  0.6007  0.5901
  123GLU     HA   32   4.563   1.740   1.930 -0.9576 -1.7591 -1.5842
  123GLU     CB   33   4.749   1.791   1.994  0.2529 -0.5154 -0.2198
  123GLU    HB1   34   4.732   1.893   2.031 -0.2502 -1.2994  1.8763
  123GLU    HB2   35   4.852   1.790   1.959  1.4274  1.2933  2.7416
  123GLU     CG   36   4.730   1.690   2.103  0.0319  0.1385 -0.5347
  123GLU    HG1   37   4.746   1.586   2.074 -1.2517 -0.9539  2.2649
  123GLU    HG2   38   4.627   1.705   2.137  0.6131  3.3254  0.0964
  123GLU     CD   39   4.823   1.711   2.222  0.5125 -0.2728  0.1872
  123GLU    OE1   40   4.821   1.617   2.309  0.5825 -0.5967  0.0996
  123GLU    OE2   41   4.894   1.815   2.224  0.4437 -0.0846 -0.1237
  123GLU      C   42   4.640   1.884   1.803  0.2159  0.1216  0.0833
  123GLU      O   43   4.559   1.972   1.843 -0.8214 -0.3130  0.9402
  124ALA      N   44   4.712   1.894   1.693 -0.0531 -0.7780  0.2250
  124ALA      H   45   4.776   1.818   1.680 -0.4315 -1.1849  0.6820
  124ALA     CA   46   4.722   2.021   1.611  0.5766  0.1831 -0.4757
  124ALA     HA   47   4.724   2.106   1.678  0.1411  0.5192 -0.8827
  124ALA     CB   48   4.855   2.007   1.538  0.1912  0.4054  0.8750
  124ALA    HB1   49   4.857   2.095   1.474  0.6497  0.2214  0.6299
  124ALA    HB2   50   4.864   1.917   1.477  0.7553  2.8516 -3.0118
  124ALA    HB3   51   4.944   2.018   1.601  0.9639  1.9766 -0.4099
  124ALA      C   52   4.606   2.046   1.515  0.1479  0.4117  0.9538
  124ALA      O   53   4.616   2.148   1.446 -0.0789  0.2938  0.4245
  125TYR      N   54   4.506   1.965   1.515 -1.3698 -0.2181  0.0094
  125TYR      H   55   4.510   1.883   1.574 -2.9339 -0.1293  0.2858
  125TYR     CA   56   4.392   1.990   1.422  0.6883 -0.4021  1.2447
  125TYR     HA   57   4.428   2.028   1.326  0.0034 -3.4139 -0.3385
  125TYR     CB   58   4.312   1.868   1.402 -0.3826  0.0014  0.6837
  125TYR    HB1   59   4.207   1.886   1.377 -0.6507 -3.2445 -0.9870
  125TYR    HB2   60   4.302   1.820   1.499  1.6919  0.2980  1.0834
  125TYR     CG   61   4.371   1.769   1.302  0.7091  0.0895 -0.0393
  125TYR    CD1   62   4.407   1.637   1.345  0.4720  0.6615 -0.4778
  125TYR    HD1   63   4.404   1.602   1.447  2.9048 -1.6631 -1.0944
  125TYR    CE1   64   4.463   1.547   1.254  0.6353  0.7410  0.2917
  125TYR    HE1   65   4.498   1.450   1.289 -0.3608  0.0310 -0.6219
  125TYR     CZ   66   4.482   1.578   1.122 -0.7834 -0.3113 -0.8073
  125TYR     OH   67   4.555   1.493   1.045 -0.3827  0.0709  0.4196
  125TYR     HH   68   4.563   1.409   1.092 -0.6749  0.1760  0.6569
  125TYR    CE2   69   4.443   1.710   1.079  0.2189  0.0938 -0.5445
  125TYR    HE2   70   4.449   1.741   0.975 -3.4997  0.4442 -0.8068
  125TYR    CD2   71   4.392   1.808   1.168  0.3571  0.3178 -0.2392
  125TYR    HD2   72   4.372   1.909   1.139  1.1934  0.1142 -1.6076
  125TYR      C   73   4.296   2.097   1.485 -0.6100  0.7674 -0.7079
  125TYR      O   74   4.292   2.115   1.606  0.1836 -0.0578 -0.4340
  126GLU      N   75   4.235   2.173   1.400  1.2885 -0.1211  0.1942
  126GLU      H   76   4.264   2.158   1.305 -0.2668 -0.4569 -0.2584
  126GLU     CA   77   4.161   2.292   1.433  0.2587  0.5635  0.5643
  126GLU     HA   78   4.218   2.347   1.507 -1.3461  2.5703  0.4207
  126GLU     CB   79   4.144   2.385   1.313  0.0496  0.5331 -0.2398
  126GLU    HB1   80   4.058   2.447   1.337 -0.1984 -0.2573  0.9529
  126GLU    HB2   81   4.128   2.338   1.216 -0.3199 -1.8933  0.9248
  126GLU     CG   82   4.273   2.468   1.300  0.2768 -0.3632  0.6155
  126GLU    HG1   83   4.356   2.410   1.260  3.8053  2.7710  2.7695
  126GLU    HG2   84   4.315   2.501   1.395  0.9007 -0.5016  0.3915
  126GLU     CD   85   4.257   2.588   1.199 -0.2924  0.2999 -0.0664
  126GLU    OE1   86   4.180   2.586   1.103 -0.6035 -0.0554 -0.5130
  126GLU    OE2   87   4.324   2.689   1.232 -0.2713 -0.0010  0.2764
  126GLU      C   88   4.028   2.258   1.504 -0.5764  0.1072  0.0162
  126GLU      O   89   4.005   2.334   1.598  0.5779  0.3583  0.4962
  127MET      N   90   3.966   2.146   1.475 -0.5673  0.5847 -0.0921
  127MET      H   91   4.009   2.094   1.400  1.7921  2.7701 -0.3728
  127MET     CA   92   3.872   2.074   1.566 -0.0145  0.4517  0.3266
  127MET     HA   93   3.839   2.139   1.647  0.9242 -1.0607  2.0163
  127MET     CB   94   3.743   2.042   1.490 -0.5502 -0.0404  0.1337
  127MET    HB1   95   3.683   1.982   1.558 -0.3402 -0.3675  0.0329
  127MET    HB2   96   3.757   1.978   1.402 -0.4401 -2.3715  1.7652
  127MET     CG   97   3.655   2.166   1.455 -0.1185  0.9586  0.2051
  127MET    HG1   98   3.690   2.211   1.362  0.5250  1.4730  0.6965
  127MET    HG2   99   3.659   2.237   1.537  0.0850 -0.0329  1.0685
  127MET     SD  100   3.497   2.108   1.433  0.1670  0.0162  0.1193
  127MET     CE  101   3.413   2.263   1.449 -0.1332 -0.2594 -0.2745
  127MET    HE1  102   3.468   2.323   1.377  3.1205 -0.9171  1.4401
  127MET    HE2  103   3.428   2.296   1.552  1.6177 -0.5689 -0.4022
  127MET    HE3  104   3.309   2.253   1.418 -0.3271 -0.3063  0.3681
  127MET      C  105   3.938   1.951   1.633 -0.4886 -0.0137 -0.0003
  127MET      O  106   3.948   1.851   1.564  0.5174  0.0567  0.4338
  128PRO      N  107   3.982   1.953   1.762  0.0722 -0.1788  0.9612
  128PRO     CD  108   3.989   2.068   1.846 -0.2402  0.3037  0.2181
  128PRO    HD1  109   3.892   2.111   1.874 -0.8375  0.4005 -1.8336
  128PRO    HD2  110   4.051   2.142   1.795  0.1230 -0.1085  0.0641
  128PRO     CG  111   4.053   2.043   1.982  0.5680  0.0383 -0.0302
  128PRO    HG1  112   3.979   2.011   2.055  1.1767  1.3038  1.1914
  128PRO    HG2  113   4.112   2.122   2.030 -1.4673  0.4915  1.8880
  128PRO     CB  114   4.129   1.918   1.946  0.3631  0.7555 -0.2657
  128PRO    HB1  115   4.230   1.946   1.917  0.7024  1.4918  1.4654
  128PRO    HB2  116   4.136   1.856   2.036 -0.8601  0.8499 -0.0759
  128PRO     CA  117   4.058   1.847   1.830 -0.2137 -0.4635  0.1060
  128PRO     HA  118   4.145   1.826   1.767  0.3139  3.3681 -0.7073
  128PRO      C  119   3.969   1.736   1.873 -0.7807  0.2682 -0.1163
  128PRO      O  120   3.861   1.761   1.924  0.0022 -1.0914 -0.3480
  129SER      N  121   4.011   1.608   1.856  0.3529  0.2354 -0.9485
  129SER      H  122   4.107   1.588   1.833  0.3910 -2.2168  0.9688
  129SER     CA  123   3.914   1.500   1.887 -0.3198  0.2405 -0.4538
  129SER     HA  124   3.817   1.524   1.845 -0.1689  1.2322 -0.2590
  129SER     CB  125   3.957   1.379   1.808  0.5260  0.0190 -0.7076
  129SER    HB1  126   3.878   1.303   1.806  0.8956 -0.6243 -6.0285
  129SER    HB2  127   4.043   1.330   1.854 -0.7538 -2.3432 -0.6795
  129SER     OG  128   3.986   1.400   1.673 -0.1835  0.5053  0.1972
  129SER    HG1  129   4.017   1.322   1.626  1.0935 -0.2053  2.0843
  129SER      C  130   3.901   1.469   2.040  1.0489  0.3069 -0.8909
  129SER      O  131   4.003   1.456   2.103  0.2070 -0.2884  0.0504
  130GLU      N  132   3.781   1.456   2.092  0.4078 -0.7218 -0.3991
  130GLU      H  133   3.700   1.464   2.032  0.2406 -1.3884 -0.2742
  130GLU     CA  134   3.756   1.423   2.229  0.3177 -0.0799 -0.1384
  130GLU     HA  135   3.845   1.396   2.285  0.6484 -2.0356 -1.4981
  130GLU     CB  136   3.683   1.539   2.295  0.3426  0.2045 -0.2966
  130GLU    HB1  137   3.634   1.491   2.379 -0.1090 -1.6380 -1.5519
  130GLU    HB2  138   3.604   1.577   2.231 -1.3543 -0.2470  1.4490
  130GLU     CG  139   3.776   1.651   2.345 -0.6965  1.1196  0.4870
  130GLU    HG1  140   3.720   1.742   2.367 -1.7036  0.8045 -0.6570
  130GLU    HG2  141   3.849   1.673   2.266 -0.1900 -0.1753  0.5758
  130GLU     CD  142   3.851   1.607   2.473  0.3326 -0.1420  0.3030
  130GLU    OE1  143   3.794   1.547   2.562  0.5194  0.2927 -0.0523
  130GLU    OE2  144   3.964   1.648   2.487  0.4912  0.2430 -0.0868
  130GLU      C  145   3.663   1.305   2.237 -0.5785  0.3783 -0.3155
  130GLU      O  146   3.552   1.297   2.186  0.2921 -0.0302 -0.3777
  131GLU      N  147   3.710   1.200   2.308 -0.5295 -0.2060 -0.6431
  131GLU      H  148   3.803   1.210   2.347 -0.6329 -2.7179  0.4296
  131GLU     CA  149   3.638   1.077   2.341  0.3073  0.0699 -0.0765
  131GLU     HA  150   3.632   1.012   2.254  0.1342  1.4947 -1.1731
  131GLU     CB  151   3.724   0.998   2.439 -0.1027  0.1101  0.0671
  131GLU    HB1  152   3.670   0.907   2.466  1.0489 -0.9319 -0.9658
  131GLU    HB2  153   3.747   1.062   2.524 -0.1818  1.2666 -0.7697
  131GLU     CG  154   3.864   0.956   2.393 -0.2620 -0.1548 -0.4923
  131GLU    HG1  155   3.916   1.044   2.355 -1.2880  1.0333  0.7452
  131GLU    HG2  156   3.845   0.894   2.306 -0.4609 -1.6388  0.5725
  131GLU     CD  157   3.952   0.878   2.496 -0.3181 -0.0780  0.0027
  131GLU    OE1  158   3.912   0.863   2.611  0.2208  0.6528  0.0481
  131GLU    OE2  159   4.061   0.839   2.452 -0.1363 -0.0848 -0.7907
  131GLU      C  160   3.500   1.092   2.400  1.1211  0.5899  0.5427
  131GLU      O  161   3.472   1.188   2.471 -0.3710 -0.5340 -0.2164
  132GLY      N  162   3.417   0.989   2.391 -0.2182 -0.1806 -0.2708
  132GLY      H  163   3.454   0.918   2.331 -1.3995  0.8280 -2.3057
  132GLY     CA  164   3.283   0.988   2.441  0.2880 -0.2207  0.1052
  132GLY    HA1  165   3.266   1.053   2.527  3.0272 -0.6313  1.0589
  132GLY    HA2  166   3.272   0.893   2.493 -2.3979  0.3835  0.8198
  132GLY      C  167   3.175   1.009   2.335 -0.0689 -0.2819 -0.0480
  132GLY      O  168   3.058   1.024   2.374 -0.0126  0.5140 -0.1676
  133TYR      N  169   3.209   1.000   2.206  0.1296  0.3104 -0.3345
  133TYR      H  170   3.300   0.965   2.178 -0.4759 -2.6241  1.0262
  133TYR     CA  171   3.114   1.013   2.101  0.3021  0.3312  0.2833
  133TYR     HA  172   3.090   1.118   2.086 -1.2430  0.1223  1.0108
  133TYR     CB  173   3.177   0.957   1.973  0.4228  0.7326  0.2825
  133TYR    HB1  174   3.095   0.963   1.901 -0.7185  1.5442  1.5904
  133TYR    HB2  175   3.208   0.854   1.988  1.5597  1.1078  0.6428
  133TYR     CG  176   3.285   1.043   1.903  0.0884  0.6689 -0.0732
  133TYR    CD1  177   3.318   1.171   1.943  0.1727 -0.2916  0.4444
  133TYR    HD1  178   3.275   1.202   2.038 -4.2287 -2.0965 -0.7238
  133TYR    CE1  179   3.417   1.247   1.882  0.3650  0.1187 -0.1559
  133TYR    HE1  180   3.444   1.342   1.926  0.5731 -0.4792  1.0419
  133TYR     CZ  181   3.473   1.195   1.762  0.2282 -0.3707  0.0621
  133TYR     OH  182   3.577   1.265   1.708 -0.5982  0.0887 -0.1102
  133TYR     HH  183   3.579   1.356   1.741 -1.0926 -0.0935  0.4365
  133TYR    CE2  184   3.435   1.072   1.716 -0.8903  0.2560  0.3315
  133TYR    HE2  185   3.485   1.032   1.628  0.1643  0.2800  0.9144
  133TYR    CD2  186   3.339   0.998   1.777  0.5540  0.0384  0.3508
  133TYR    HD2  187   3.316   0.895   1.753  0.4092 -0.1707  1.3281
  133TYR      C  188   2.980   0.946   2.129 -0.1186 -0.3512  0.1830
  133TYR      O  189   2.976   0.822   2.152 -0.2881 -0.8306  0.4678
  134GLN      N  190   2.864   1.014   2.112 -0.1786 -0.3955 -0.7460
  134GLN      H  191   2.867   1.111   2.082  1.5883  0.4671  1.8211
  134GLN     CA  192   2.736   0.947   2.114 -0.2756 -0.2628 -0.5637
  134GLN     HA  193   2.731   0.879   2.200  1.2369 -0.9895 -1.0281
  134GLN     CB  194   2.624   1.048   2.125  0.2151  0.5216 -0.4830
  134GLN    HB1  195   2.527   0.998   2.128  0.3222  0.3331  1.1793
  134GLN    HB2  196   2.629   1.121   2.044  3.3377 -0.4177 -1.2702
  134GLN     CG  197   2.626   1.125   2.259  0.0366 -0.1898 -0.6235
  134GLN    HG1  198   2.720   1.180   2.257  0.2763 -0.5753 -0.2044
  134GLN    HG2  199   2.635   1.057   2.345 -0.2394 -0.3057 -0.6844
  134GLN     CD  200   2.510   1.222   2.281 -0.4020 -0.4043 -0.1190
  134GLN    OE1  201   2.481   1.262   2.398 -0.3692  0.2729  0.3701
  134GLN    NE2  202   2.437   1.258   2.180 -0.8498  0.0629  0.3001
  134GLN   HE21  203   2.361   1.322   2.198  0.0551  0.7688  1.9333
  134GLN   HE22  204   2.459   1.196   2.103  1.3168  1.2633 -0.1346
  134GLN      C  205   2.710   0.856   1.988 -0.4751 -0.0047  0.1839
  134GLN      O  206   2.612   0.867   1.916  0.2707  0.1692 -0.6333
  135ASP      N  207   2.808   0.771   1.950 -0.3914 -0.0233  0.7523
  135ASP      H  208   2.875   0.752   2.024 -1.0916  0.2640  1.4802
  135ASP     CA  209   2.827   0.692   1.824 -0.3750 -0.3503 -0.4720
  135ASP     HA  210   2.832   0.762   1.741 -0.8609 -0.0299 -0.2340
  135ASP     CB  211   2.962   0.620   1.835  0.0437 -0.5411  0.3248
  135ASP    HB1  212   3.034   0.700   1.851  0.9937 -1.2145 -0.4596
  135ASP    HB2  213   2.991   0.569   1.743  0.2944 -1.2499  0.7837
  135ASP     CG  214   2.982   0.526   1.953  0.5832 -0.7101 -0.0345
  135ASP    OD1  215   3.091   0.465   1.962 -0.2509 -0.3253 -0.4020
  135ASP    OD2  216   2.903   0.520   2.050  0.6218 -0.2149 -0.7170
  135ASP      C  217   2.719   0.588   1.787  0.5155 -0.1250  0.0509
  135ASP      O  218   2.727   0.551   1.669  0.6064 -0.7602  0.2280
  136TYR      N  219   2.629   0.545   1.871  0.5501 -0.4367 -0.5103
  136TYR      H  220   2.619   0.581   1.965 -0.9196  0.3951 -0.9565
  136TYR     CA  221   2.515   0.455   1.842  0.0478 -0.3068 -0.2305
  136TYR     HA  222   2.470   0.480   1.746 -0.1612  1.0046  0.1938
  136TYR     CB  223   2.559   0.312   1.850 -0.9640  0.3653  0.1158
  136TYR    HB1  224   2.617   0.294   1.941  0.9714  0.1759 -1.0982
  136TYR    HB2  225   2.637   0.293   1.776 -1.3218 -1.3861  0.1446
  136TYR     CG  226   2.456   0.211   1.821 -0.1179  0.3937 -0.4738
  136TYR    CD1  227   2.403   0.192   1.695  0.5500 -0.1692 -0.3178
  136TYR    HD1  228   2.430   0.253   1.610 -0.8425 -0.7600 -1.2270
  136TYR    CE1  229   2.311   0.088   1.677  0.2199 -0.6483  0.0280
  136TYR    HE1  230   2.254   0.080   1.586 -1.7246 -1.7635  1.2547
  136TYR     CZ  231   2.267   0.008   1.788  0.1446 -0.3028  1.1384
  136TYR     OH  232   2.175  -0.087   1.760  0.3854  0.0964 -0.2437
  136TYR     HH  233   2.169  -0.153   1.829  0.3083 -0.3698 -0.6933
  136TYR    CE2  234   2.327   0.029   1.916 -0.5735 -0.1250  0.2479
  136TYR    HE2  235   2.310  -0.025   2.008  0.7373 -0.3394  0.3829
  136TYR    CD2  236   2.421   0.132   1.930  0.1428  0.5144 -0.7738
  136TYR    HD2  237   2.469   0.145   2.026  0.0335  1.0509 -0.7917
  136TYR      C  238   2.401   0.480   1.944 -0.4644 -0.4310  0.4913
  136TYR      O  239   2.427   0.512   2.060  0.0442 -0.5546 -0.6909
  137GLU      N  240   2.282   0.488   1.888 -0.5509 -0.2012  0.2840
  137GLU      H  241   2.282   0.453   1.793  2.2987 -1.2542  0.5821
  137GLU     CA  242   2.157   0.478   1.962  0.8991 -0.1505 -0.4768
  137GLU     HA  243   2.181   0.488   2.068  1.4405  0.8164 -0.6691
  137GLU     CB  244   2.080   0.604   1.930 -0.5594  0.0732 -0.8140
  137GLU    HB1  245   2.070   0.618   1.823  2.6694  1.9968 -1.0142
  137GLU    HB2  246   2.145   0.680   1.974 -1.3962 -0.7092  2.0346
  137GLU     CG  247   1.948   0.610   2.006  0.1243 -0.1345  0.5620
  137GLU    HG1  248   1.957   0.581   2.110 -0.3126 -2.7387 -0.0485
  137GLU    HG2  249   1.886   0.534   1.957  0.1602  0.3198 -0.1993
  137GLU     CD  250   1.878   0.746   1.990 -0.4290  0.0937 -0.4869
  137GLU    OE1  251   1.787   0.790   2.064  0.5682 -0.5229  0.6742
  137GLU    OE2  252   1.918   0.823   1.902  0.4358  0.3098  0.4301
  137GLU      C  253   2.085   0.342   1.932  0.5600 -0.1037  0.2182
  137GLU      O  254   2.040   0.320   1.817  0.4590 -0.6073  0.0587
  138PRO      N  255   2.070   0.249   2.030 -0.0291 -0.8694 -0.3257
  138PRO     CD  256   2.125   0.252   2.167 -0.2306 -0.0199 -0.1803
  138PRO    HD1  257   2.107   0.341   2.229  0.0219 -1.1696  1.6323
  138PRO    HD2  258   2.233   0.244   2.165 -0.1985  0.5560 -2.0686
  138PRO     CG  259   2.067   0.126   2.232  0.1852 -0.1232 -0.1912
  138PRO    HG1  260   1.984   0.157   2.296 -0.9486 -0.6020 -1.3909
  138PRO    HG2  261   2.140   0.067   2.288  0.8559 -0.7903 -1.7086
  138PRO     CB  262   2.010   0.034   2.127 -0.2650  0.1003 -0.3739
  138PRO    HB1  263   2.086  -0.040   2.099 -0.5204 -0.3669  0.1503
  138PRO    HB2  264   1.922  -0.011   2.171 -0.3492  0.1948 -0.4451
  138PRO     CA  265   1.983   0.129   2.004  0.4032 -0.4270  0.4745
  138PRO     HA  266   2.021   0.081   1.914  0.1318 -1.4134  0.8653
  138PRO      C  267   1.832   0.154   1.980  0.0875  0.5772 -0.0499
  138PRO      O  268   1.780   0.258   2.021  0.0363  0.3222  0.1760
  139GLU      N  269   1.754   0.058   1.927  0.2735  0.7037 -0.5800
  139GLU      H  270   1.800  -0.024   1.892  2.0011  2.0459 -1.6296
  139GLU     CA  271   1.606   0.061   1.922  0.3140  0.7115 -0.1940
  139GLU     HA  272   1.577   0.164   1.944  0.3245  0.9148 -1.1036
  139GLU     CB  273   1.545   0.020   1.781  0.8142  0.0277  0.5399
  139GLU    HB1  274   1.436   0.024   1.785  0.8886  2.4123  2.0305
  139GLU    HB2  275   1.579  -0.078   1.748  0.3361  0.6391 -1.9363
  139GLU     CG  276   1.576   0.121   1.679 -0.9139  0.3729  0.5128
  139GLU    HG1  277   1.681   0.150   1.689 -1.2485  1.0816  2.5130
  139GLU    HG2  278   1.525   0.215   1.699 -0.6957  0.8819 -1.1249
  139GLU     CD  279   1.554   0.070   1.529  0.0471  0.0733  0.4140
  139GLU    OE1  280   1.534  -0.048   1.498  0.3315  0.3228 -0.0021
  139GLU    OE2  281   1.533   0.157   1.445  0.4553 -0.4009 -0.4892
  139GLU      C  282   1.550  -0.027   2.036  0.0372 -0.5718 -0.0272
  139GLU      O  283   1.457  -0.102   2.010  0.3662 -0.4496  0.3620
  140CALA     N  284   1.598  -0.009   2.157 -0.0709 -0.8391 -0.1358
  140CALA     H  285   1.655   0.073   2.168 -1.6281  0.1894  0.5838
  140CALA    CA  286   1.587  -0.103   2.271  0.5824 -0.2721 -0.4017
  140CALA    HA  287   1.665  -0.178   2.262  1.2790  0.2295  1.0387
  140CALA    CB  288   1.634  -0.023   2.396 -0.7855 -0.0096 -0.5184
  140CALA   HB1  289   1.738   0.002   2.378 -0.2812 -1.9282 -0.4507
  140CALA   HB2  290   1.636  -0.090   2.482  0.3296  2.0277  1.1354
  140CALA   HB3  291   1.563   0.054   2.426 -4.2441 -2.3936 -1.9296
  140CALA     C  292   1.454  -0.179   2.291  0.1770  0.3414  0.2926
  140CALA   OC1  293   1.347  -0.113   2.318 -0.2324 -0.4544 -0.1605
  140CALA   OC2  294   1.466  -0.303   2.293  0.4905  0.2774  0.5295
  141FAS      C  295   2.652   1.324   1.495 -0.0777 -0.0070 -0.2489
  141FAS     C1  296   2.527   1.293   1.597 -0.1186  0.0989  0.7801
  141FAS      N  297   2.514   1.383   1.715 -0.3261  0.6270  0.1044
  141FAS     C2  298   2.628   1.369   1.810 -0.1313 -0.3366 -0.4702
  141FAS     C3  299   2.762   1.416   1.752  0.4939 -0.3110 -0.2230
  141FAS     N1  300   2.837   1.319   1.676 -0.1529  0.2170  0.1797
  141FAS     C4  301   2.783   1.257   1.550 -0.2823 -0.0117 -0.1079
  141FAS      S  302   2.926   1.198   1.763  0.6142 -0.4664  0.3636
  141FAS      O  303   3.005   1.270   1.866 -0.6743 -0.4687  0.6993
  141FAS     O1  304   2.817   1.112   1.814 -0.0967 -0.3214 -0.0771
  141FAS     C5  305   3.026   1.130   1.638 -0.1520 -0.1403  0.3178
  141FAS     C6  306   3.022   0.992   1.633  0.3461  0.2962 -0.0565
  141FAS     C7  307   3.094   0.926   1.536 -0.3003 -0.1902 -0.1401
  141FAS     C8  308   3.196   0.992   1.466 -0.5797 -0.8476  0.1700
  141FAS     C9  309   3.204   1.134   1.474  0.0757 -0.0408 -0.2300
  141FAS    C10  310   3.121   1.204   1.566  0.6412  0.1618 -0.4124
  141FAS    C11  311   3.135   1.340   1.581  0.7659 -0.1045 -0.2533
  141FAS    C12  312   3.244   1.399   1.514 -0.0502  0.9122 -0.2578
  141FAS     N2  313   3.326   1.337   1.426  0.0259 -0.0047 -0.9334
  141FAS    C13  314   3.299   1.206   1.404 -0.2132 -0.5985 -0.1451
  141FAS      H  315   2.665   1.431   1.473 -1.5146  0.3762  0.5906
  141FAS     H1  316   2.616   1.281   1.401 -2.4630 -1.6908  1.3155
  141FAS     H2  317   2.525   1.188   1.626  0.0590 -0.2225 -0.3283
  141FAS     H3  318   2.441   1.312   1.532  1.4749 -0.3287 -1.5571
  141FAS     H4  319   2.491   1.479   1.685 -2.2017  0.4330  0.7822
  141FAS     H5  320   2.638   1.264   1.837 -0.7256 -0.1122  0.7136
  141FAS     H6  321   2.600   1.417   1.904  1.1481 -1.6306  0.6214
  141FAS     H7  322   2.827   1.437   1.838 -0.0463 -0.5661  0.2544
  141FAS     H8  323   2.749   1.511   1.698 -1.4533  1.2183  2.6892
  141FAS     H9  324   2.771   1.150   1.569  0.9037 -0.2059 -0.3582
  141FAS    H10  325   2.858   1.266   1.470 -0.2429  1.1539  0.0318
  141FAS    H11  326   2.947   0.935   1.688 -0.9323  0.1065 -1.8916
  141FAS    H12  327   3.088   0.819   1.517  0.0546  0.1689 -2.6332
  141FAS    H13  328   3.263   0.938   1.400 -1.0240  0.4458 -1.3857
  141FAS    H14  329   3.078   1.409   1.642 -0.0229 -0.2726 -0.7771
  141FAS    H15  330   3.249   1.507   1.525  1.5411  0.7366  1.0690
  141FAS    H16  331   3.370   1.157   1.337 -0.3454 -0.4105 -0.4254
  141FAS    H17  332   2.423   1.357   1.756 -0.6134  2.1445  0.4936
  142SOL     OW  333   0.811   3.572   1.762 -0.2402  0.6248 -0.0088
  142SOL    HW2  334   0.746   3.536   1.823  0.5979  1.8424  1.6774
  142SOL    HW3  335   0.834   3.499   1.705 -1.4522 -0.4126  0.7858
  142SOL    MW4  336   0.805   3.558   1.763 -0.2896  0.6486  0.3185
  143SOL     OW  337   4.127   1.041   6.221  0.4051 -0.2816 -0.1371
  143SOL    HW2  338   4.064   1.000   6.280  0.5790  0.7449  0.7926
  143SOL    HW3  339   4.122   0.989   6.141 -1.5453 -0.2868 -0.0543
  143SOL    MW4  340   4.118   1.029   6.218  0.1707 -0.1468 -0.0035
  144SOL     OW  341   3.762   0.947   0.635 -0.0472  0.7493 -0.0044
  144SOL    HW2  342   3.715   1.025   0.604  0.7233  0.7081 -1.3303
  144SOL    HW3  343   3.775   0.894   0.557  0.2879 -0.2747  0.7264
  144SOL    MW4  344   3.758   0.950   0.621  0.0987  0.6088 -0.0829
  145SOL     OW  345   0.623   1.316   0.493  0.7211  0.1241 -0.4192
  145SOL    HW2  346   0.612   1.223   0.513  1.6520  0.0138 -0.3487
  145SOL    HW3  347   0.583   1.327   0.407  1.0317 -0.4484 -0.6439
  145SOL    MW4  348   0.616   1.305   0.485  0.8849  0.0340 -0.4395
  146SOL     OW  349   1.933   2.259   5.373  0.2432  0.1571  0.3813
  146SOL    HW2  350   1.845   2.222   5.362  0.8005 -1.4764  1.1320
  146SOL    HW3  351   1.992   2.192   5.340  1.2373  1.3447 -0.3595
  146SOL    MW4  352   1.929   2.245   5.367  0.4479  0.0983  0.3826
  147SOL     OW  353   1.561   4.071   4.687  0.5592  0.0796 -0.8247
  147SOL    HW2  354   1.516   4.156   4.686  0.0997 -0.0837  1.2114
  147SOL    HW3  355   1.556   4.040   4.597 -0.9153  1.3724 -1.2316
  147SOL    MW4  356   1.555   4.078   4.675  0.3040  0.2286 -0.6097
  148SOL     OW  357   6.056   5.838   3.271  0.1310 -0.0152 -0.5600
  148SOL    HW2  358   5.991   5.794   3.326 -0.2849 -0.0317 -1.0539
  148SOL    HW3  359   6.004   5.898   3.217  0.6879  1.0928  0.1006
  148SOL    MW4  360   6.040   5.840   3.271  0.1496  0.1288 -0.5380
  149SOL     OW  361   0.195   0.140   5.701  0.1364  0.4769  0.2471
  149SOL    HW2  362   0.126   0.130   5.637 -0.0053 -1.3131  0.6467
  149SOL    HW3  363   0.255   0.068   5.685  0.9830  0.9653  1.0529
  149SOL    MW4  364   0.194   0.129   5.691  0.2294  0.3052  0.4061
  150SOL     OW  365   3.203   1.053   3.098 -0.4864  0.4227  0.3537
  150SOL    HW2  366   3.198   1.096   3.184  0.4500  0.6194  0.3164
  150SOL    HW3  367   3.173   1.120   3.036  1.2735  1.1788  0.2588
  150SOL    MW4  368   3.199   1.068   3.101 -0.1306  0.5484  0.3362
  151SOL     OW  369   0.026   2.551   3.720  0.3430  0.4494  0.4142
  151SOL    HW2  370  -0.047   2.490   3.732  0.4506  0.5734  1.7477
  151SOL    HW3  371   0.089   2.528   3.788  1.8547 -0.0559 -1.0938
  151SOL    MW4  372   0.025   2.540   3.730  0.5567  0.3991  0.3912
  152SOL     OW  373   3.062   5.383   2.090 -0.0284  0.6281  0.0263
  152SOL    HW2  374   3.049   5.404   2.182 -0.0895 -1.4289  0.5376
  152SOL    HW3  375   2.980   5.407   2.048  0.0230  1.6388  0.4711
  152SOL    MW4  376   3.050   5.389   2.097 -0.0297  0.4900  0.1524
  153SOL     OW  377   3.737   4.327   1.475  0.0516 -0.5948 -0.4633
  153SOL    HW2  378   3.707   4.396   1.415  1.0884 -1.7653 -2.4546
  153SOL    HW3  379   3.806   4.369   1.526 -0.1415  0.1558 -0.7961
  153SOL    MW4  380   3.742   4.342   1.473  0.1629 -0.6502 -0.7700
  154SOL     OW  381   5.434   2.518   5.280  0.1850  0.4719 -0.0377
  154SOL    HW2  382   5.395   2.456   5.341  0.6690  0.3770  0.1762
  154SOL    HW3  383   5.459   2.466   5.204 -2.9830  0.9751 -1.6065
  154SOL    MW4  384   5.432   2.503   5.278 -0.1691  0.5257 -0.2164
  155SOL     OW  385   2.066   6.053   2.627  0.2430 -0.2973 -0.0513
  155SOL    HW2  386   1.975   6.049   2.654  0.1838 -0.9232 -0.3230
  155SOL    HW3  387   2.112   6.088   2.703 -0.4004  1.3685 -0.3868
  155SOL    MW4  388   2.060   6.057   2.641  0.1503 -0.1601 -0.1314
  156SOL     OW  389   4.564   1.200   1.087 -0.0891 -0.0608  0.0091
  156SOL    HW2  390   4.495   1.154   1.136 -0.5502  0.5577 -0.0435
  156SOL    HW3  391   4.578   1.147   1.009 -0.7106 -0.0405 -0.1197
  156SOL    MW4  392   4.556   1.187   1.083 -0.2320  0.0234 -0.0148
  157SOL     OW  393   1.275   4.429   1.643  0.2865 -0.1158 -0.1999
  157SOL    HW2  394   1.348   4.435   1.705 -0.4880  1.0082  0.6388
  157SOL    HW3  395   1.241   4.518   1.638 -0.8038 -0.5511 -0.8745
  157SOL    MW4  396   1.280   4.442   1.650  0.0405 -0.0250 -0.1783
  158SOL     OW  397   2.170   1.804   4.711 -0.1375  0.0233 -0.0242
  158SOL    HW2  398   2.124   1.785   4.793 -0.1871 -0.2027 -0.1032
  158SOL    HW3  399   2.132   1.743   4.648  0.0369  0.0641 -0.1698
  158SOL    MW4  400   2.159   1.793   4.713 -0.1210 -0.0011 -0.0538
  159SOL     OW  401   2.297   5.885   5.203 -0.1708  0.1942  0.3984
  159SOL    HW2  402   2.271   5.969   5.240  0.4445 -0.2050  1.8144
  159SOL    HW3  403   2.234   5.822   5.239  1.9903 -0.6234  3.0738
  159SOL    MW4  404   2.285   5.888   5.213  0.1955  0.0336  0.9382
  160SOL     OW  405   5.262   2.386   6.196  0.5904 -0.5463  0.0539
  160SOL    HW2  406   5.330   2.385   6.128  0.5820  1.0924 -0.0065
  160SOL    HW3  407   5.181   2.403   6.149  0.3553 -0.9223  0.3136
  160SOL    MW4  408   5.261   2.388   6.181  0.5583 -0.3797  0.0802
  161SOL     OW  409   4.919   4.697   4.661  0.5952 -0.2935 -0.3848
  161SOL    HW2  410   4.999   4.707   4.610  0.3305  1.8915 -0.4386
  161SOL    HW3  411   4.941   4.731   4.748  0.2172 -1.3334  0.1366
  161SOL    MW4  412   4.932   4.703   4.666  0.5104 -0.1424 -0.3231
  162SOL     OW  413   4.662   0.356   3.681  0.3097 -0.6537  0.4298
  162SOL    HW2  414   4.620   0.323   3.602  0.5470 -2.5187  1.0217
  162SOL    HW3  415   4.644   0.288   3.747  0.2478  0.7698  1.9326
  162SOL    MW4  416   4.654   0.342   3.680  0.3328 -0.7120  0.7062
  163SOL     OW  417   1.970   3.978   0.778  0.1145 -0.2178  0.2559
  163SOL    HW2  418   1.950   3.899   0.727 -1.3672 -0.3448  1.0051
  163SOL    HW3  419   1.898   4.038   0.759  1.8245  1.5326 -1.3082
  163SOL    MW4  420   1.958   3.976   0.769  0.1446 -0.0036  0.1484
  164SOL     OW  421   1.277   5.795   6.270 -0.1489 -0.0446 -0.5636
  164SOL    HW2  422   1.372   5.808   6.266  0.1752 -1.4666  1.1971
  164SOL    HW3  423   1.253   5.769   6.181  1.4532 -1.5454 -0.6165
  164SOL    MW4  424   1.287   5.793   6.258  0.1053 -0.4302 -0.3383
  165SOL     OW  425   3.403   0.220   5.268 -0.2560 -0.1272 -0.2847
  165SOL    HW2  426   3.308   0.210   5.275 -0.4737  1.1529 -1.1380
  165SOL    HW3  427   3.420   0.310   5.295  0.9596 -0.8994  1.7161
  165SOL    MW4  428   3.393   0.231   5.272 -0.1243 -0.0602 -0.1333
  166SOL     OW  429   4.984   5.209   5.685  0.2069 -0.3159 -0.1757
  166SOL    HW2  430   4.942   5.284   5.644 -0.6325 -0.4287  0.4681
  166SOL    HW3  431   4.990   5.231   5.778  1.7920 -0.2068 -0.2735
  166SOL    MW4  432   4.979   5.222   5.692  0.3053 -0.3164 -0.1037
  167SOL     OW  433   4.179   6.214   1.431  0.0662 -0.0189 -0.1374
  167SOL    HW2  434   4.191   6.236   1.523 -0.1390 -3.4927  0.8353
  167SOL    HW3  435   4.086   6.226   1.414 -0.2846 -1.3397  0.7468
  167SOL    MW4  436   4.168   6.219   1.441 -0.0072 -0.6515  0.1076
  168SOL     OW  437   0.307   5.574   4.537  0.6180 -0.5640  0.0760
  168SOL    HW2  438   0.393   5.601   4.505 -0.0092 -0.8184 -1.9461
  168SOL    HW3  439   0.267   5.654   4.570  2.0681 -0.6526  2.2843
  168SOL    MW4  440   0.313   5.588   4.537  0.7266 -0.6092  0.1006
  169SOL     OW  441   3.162   5.272   3.647  0.6131  0.6563  0.1740
  169SOL    HW2  442   3.180   5.356   3.604  1.5861 -0.5886 -1.9937
  169SOL    HW3  443   3.243   5.250   3.692  0.3337  0.8815  0.8034
  169SOL    MW4  444   3.175   5.280   3.647  0.7046  0.5218 -0.0289
  170SOL     OW  445   0.470   5.775   4.854  0.0374  0.1506 -0.3841
  170SOL    HW2  446   0.487   5.684   4.831  4.8137  0.6028  0.4562
  170SOL    HW3  447   0.384   5.774   4.897  0.2179 -4.0360  0.2114
  170SOL    MW4  448   0.461   5.763   4.856  0.6914 -0.3421 -0.1947
  171SOL     OW  449   0.108   5.106   6.376 -0.2729  0.1922  0.0020
  171SOL    HW2  450   0.081   5.034   6.318  0.3607 -0.4341  0.4627
  171SOL    HW3  451   0.176   5.152   6.328 -0.0381 -0.0768  0.0723
  171SOL    MW4  452   0.113   5.102   6.362 -0.1583  0.0740  0.0720
  172SOL     OW  453   3.016   2.048   5.653 -0.5683  0.3471 -0.6125
  172SOL    HW2  454   2.951   2.084   5.713 -1.6227 -0.3669 -1.2869
  172SOL    HW3  455   3.063   1.982   5.704 -0.1312  1.1012 -0.0238
  172SOL    MW4  456   3.014   2.044   5.667 -0.6497  0.3524 -0.6238
  173SOL     OW  457   0.972   0.920   1.342  0.3370  0.3000 -0.7552
  173SOL    HW2  458   1.016   0.929   1.258  0.4655  1.1332 -0.6136
  173SOL    HW3  459   0.881   0.942   1.324  0.4330  0.8212 -0.6136
  173SOL    MW4  460   0.966   0.924   1.329  0.3666  0.4787 -0.7178
  174SOL     OW  461   5.395   3.748   0.703 -0.0913 -0.2146 -0.0208
  174SOL    HW2  462   5.357   3.834   0.716 -1.7024 -0.8124 -0.5889
  174SOL    HW3  463   5.418   3.718   0.791 -2.7842 -0.6107  0.6404
  174SOL    MW4  464   5.393   3.755   0.716 -0.6592 -0.3457 -0.0085
  175SOL     OW  465   4.852   1.843   3.348  0.0318 -0.1288 -0.4957
  175SOL    HW2  466   4.892   1.778   3.290  0.9358 -1.1087  1.1419
  175SOL    HW3  467   4.766   1.806   3.370 -0.0578 -0.0505 -0.7074
  175SOL    MW4  468   4.846   1.829   3.343  0.1392 -0.2478 -0.3075
  176SOL     OW  469   1.501   3.100   1.602  0.0934 -0.2140  0.1702
  176SOL    HW2  470   1.578   3.071   1.652  1.4184  0.9501 -1.1201
  176SOL    HW3  471   1.489   3.031   1.536 -0.5532 -0.8479  0.9290
  176SOL    MW4  472   1.510   3.087   1.600  0.1829 -0.1441  0.1001
  177SOL     OW  473   4.400   4.883   2.316  0.3004  0.3780  0.2170
  177SOL    HW2  474   4.384   4.793   2.345  0.0921 -0.2588 -1.7031
  177SOL    HW3  475   4.462   4.918   2.380  2.4099 -1.9986 -0.3394
  177SOL    MW4  476   4.406   4.876   2.328  0.5512 -0.0196 -0.1098
  178SOL     OW  477   6.018   2.361   3.600  0.0578  0.5585 -0.2278
  178SOL    HW2  478   6.105   2.338   3.631  0.0849  2.4241  1.2488
  178SOL    HW3  479   5.967   2.280   3.608  1.2474 -0.1495  0.3528
  178SOL    MW4  480   6.023   2.347   3.605  0.2183  0.7112  0.0436
  179SOL     OW  481   5.129   2.749   4.525 -0.0752 -0.0906 -0.5649
  179SOL    HW2  482   5.040   2.767   4.555 -0.1773  2.1700 -1.9753
  179SOL    HW3  483   5.120   2.735   4.431  1.0143 -0.2683 -0.6600
  179SOL    MW4  484   5.116   2.749   4.517  0.0550  0.1842 -0.7635
  180SOL     OW  485   5.965   0.581   1.166 -0.3143  0.5695  0.4612
  180SOL    HW2  486   6.052   0.574   1.127 -1.0035 -2.5976 -0.8000
  180SOL    HW3  487   5.957   0.503   1.222 -2.8715 -0.1145 -0.7056
  180SOL    MW4  488   5.975   0.569   1.168 -0.7426  0.0614  0.1408
  181SOL     OW  489   1.790   2.838   6.203  0.0618 -0.0739 -0.1052
  181SOL    HW2  490   1.794   2.787   6.284 -0.5356  0.3560  0.2117
  181SOL    HW3  491   1.710   2.809   6.160  0.3048 -0.2000 -0.4728
  181SOL    MW4  492   1.780   2.828   6.208  0.0150 -0.0338 -0.1119
  182SOL     OW  493   3.306   1.821   4.433  0.0454 -0.2783 -0.1246
  182SOL    HW2  494   3.331   1.906   4.468  1.9729 -0.1597 -1.6597
  182SOL    HW3  495   3.333   1.758   4.500  2.4939  0.0432 -0.7082
  182SOL    MW4  496   3.313   1.824   4.446  0.6228 -0.2203 -0.4042
  183SOL     OW  497   6.406   2.164   5.221  0.1788 -0.3284 -0.8151
  183SOL    HW2  498   6.364   2.147   5.305 -0.7797  2.5205 -0.6286
  183SOL    HW3  499   6.349   2.122   5.156  0.8826 -2.4706 -0.1443
  183SOL    MW4  500   6.393   2.156   5.223  0.1452 -0.2351 -0.7020
  184SOL     OW  501   0.576   5.148   5.316  0.5467 -0.0425 -0.1153
  184SOL    HW2  502   0.665   5.129   5.348  1.3916  0.8197 -1.8262
  184SOL    HW3  503   0.562   5.084   5.246 -1.1930 -1.7689  1.6712
  184SOL    MW4  504   0.586   5.137   5.311  0.4286 -0.1565 -0.1053
  185SOL     OW  505   3.802   0.438   1.610  0.3354  0.3125  0.1384
  185SOL    HW2  506   3.816   0.513   1.553  0.5648  0.1582 -0.0112
  185SOL    HW3  507   3.713   0.410   1.592 -0.2168  1.3264  1.1203
  185SOL    MW4  508   3.792   0.444   1.600  0.2928  0.4259  0.2482
  186SOL     OW  509   0.211   5.705   2.699 -0.4088  0.2104  0.5815
  186SOL    HW2  510   0.221   5.793   2.661 -0.8327  0.3630  0.8229
  186SOL    HW3  511   0.223   5.719   2.793  0.6004 -0.1622  0.5232
  186SOL    MW4  512   0.214   5.719   2.706 -0.3316  0.1814  0.6056
  187SOL     OW  513   5.932   4.222   1.239 -0.2681 -0.1883 -0.0572
  187SOL    HW2  514   5.950   4.279   1.165  1.1303 -1.3020 -0.6126
  187SOL    HW3  515   5.840   4.238   1.260  0.1116  2.3958 -0.0463
  187SOL    MW4  516   5.922   4.232   1.232 -0.0335  0.0057 -0.1291
  188SOL     OW  517   5.044   5.546   2.083 -0.2676 -0.3555  0.2097
  188SOL    HW2  518   5.133   5.524   2.110 -0.4167 -0.6721  0.4431
  188SOL    HW3  519   5.048   5.640   2.063  0.3898 -0.5858 -0.8449
  188SOL    MW4  520   5.056   5.555   2.084 -0.2006 -0.4277  0.1014
  189SOL     OW  521   1.450   0.210   2.665  0.2971 -0.2294 -0.1983
  189SOL    HW2  522   1.454   0.119   2.638  0.6128 -0.5742  0.9349
  189SOL    HW3  523   1.542   0.237   2.673  0.2059  0.2623 -0.7614
  189SOL    MW4  524   1.463   0.202   2.663  0.3267 -0.2100 -0.1231
  190SOL     OW  525   1.102   5.878   3.646  0.2816 -0.2172 -0.2448
  190SOL    HW2  526   1.071   5.824   3.719 -2.0448  1.1130 -0.1459
  190SOL    HW3  527   1.179   5.923   3.681  1.1708 -2.0304  0.2558
  190SOL    MW4  528   1.108   5.877   3.661  0.0920 -0.2809 -0.1657
  191SOL     OW  529   3.616   2.172   4.824 -0.2918  0.0567 -0.2117
  191SOL    HW2  530   3.550   2.103   4.823 -0.2752  0.0395 -0.1067
  191SOL    HW3  531   3.675   2.148   4.896  0.6387 -0.7046 -1.1848
  191SOL    MW4  532   3.615   2.160   4.833 -0.1668 -0.0460 -0.3263
  192SOL     OW  533   0.391   5.923   0.158 -0.6413 -0.9030 -0.1845
  192SOL    HW2  534   0.330   5.942   0.087  0.6909  1.9802 -0.6800
  192SOL    HW3  535   0.391   6.002   0.212  0.0468 -2.1842  1.8121
  192SOL    MW4  536   0.383   5.936   0.156 -0.3747 -0.6916  0.0135
  193SOL     OW  537   1.769   4.460   2.026 -0.4473  0.9874  0.6760
  193SOL    HW2  538   1.832   4.460   2.098  1.2405 -3.1736 -0.5460
  193SOL    HW3  539   1.821   4.483   1.948 -0.6206 -1.1622 -0.1405
  193SOL    MW4  540   1.784   4.463   2.025 -0.2475  0.1548  0.4070
  194SOL     OW  541   2.936   3.934   4.040 -0.5780  0.2075  0.4425
  194SOL    HW2  542   2.928   3.966   3.951  4.6813 -2.6134 -1.5193
  194SOL    HW3  543   2.980   4.005   4.087 -0.4868  0.5364 -0.1285
  194SOL    MW4  544   2.941   3.948   4.035  0.1279 -0.1213  0.1083
  195SOL     OW  545   0.860   2.721   3.340  0.0980 -0.6339  0.2211
  195SOL    HW2  546   0.945   2.697   3.303 -0.0043 -0.9591  0.1951
  195SOL    HW3  547   0.810   2.755   3.265  0.4002  0.1034  0.3429
  195SOL    MW4  548   0.865   2.722   3.325  0.1244 -0.5795  0.2337
  196SOL     OW  549   0.355   5.244   0.308 -0.8466  0.2195 -0.2412
  196SOL    HW2  550   0.439   5.200   0.303 -1.1142 -0.3177 -0.1259
  196SOL    HW3  551   0.361   5.297   0.388  0.1136  1.7889 -1.2948
  196SOL    MW4  552   0.367   5.245   0.318 -0.7552  0.3557 -0.3650
  197SOL     OW  553   3.099   4.906   5.019  0.3718 -0.0849  0.1436
  197SOL    HW2  554   3.012   4.919   5.057  0.0371  0.2740 -0.7175
  197SOL    HW3  555   3.143   4.990   5.029  1.1408 -0.6252  1.7868
  197SOL    MW4  556   3.093   4.919   5.025  0.4291 -0.1088  0.2468
  198SOL     OW  557   5.811   2.068   0.637  0.7950  0.2965 -0.4959
  198SOL    HW2  558   5.807   2.160   0.662  0.4158 -0.3352  2.0826
  198SOL    HW3  559   5.761   2.063   0.555  1.2118  2.4196 -0.9349
  198SOL    MW4  560   5.804   2.079   0.630  0.8000  0.4933 -0.2136
  199SOL     OW  561   5.604   1.926   5.949  0.5524 -0.1590 -0.4756
  199SOL    HW2  562   5.530   1.984   5.933  2.3332  2.0676 -1.1511
  199SOL    HW3  563   5.590   1.852   5.890 -0.9126  0.3632 -0.8281
  199SOL    MW4  564   5.592   1.924   5.939  0.5940  0.2037 -0.6112
  200SOL     OW  565   6.241   3.668   3.718  0.1220 -0.5069  0.2375
  200SOL    HW2  566   6.287   3.713   3.789 -0.7080  0.7255  0.0241
  200SOL    HW3  567   6.196   3.737   3.670  1.0014 -1.2420 -1.7839
  200SOL    MW4  568   6.241   3.683   3.721  0.1285 -0.4413 -0.0574
  201SOL     OW  569   1.403   5.468   5.036  0.3173 -0.3152 -0.2666
  201SOL    HW2  570   1.423   5.400   5.100 -0.0362 -2.3349 -2.2019
  201SOL    HW3  571   1.308   5.464   5.024  0.2413  0.7917 -0.1449
  201SOL    MW4  572   1.393   5.459   5.043  0.2606 -0.4356 -0.5059
  202SOL     OW  573   0.288   3.430   4.767  0.0314 -0.0540 -0.3624
  202SOL    HW2  574   0.346   3.491   4.813  0.2020 -0.4281 -0.0795
  202SOL    HW3  575   0.270   3.361   4.830 -1.5123  0.5425 -0.1129
  202SOL    MW4  576   0.293   3.429   4.781 -0.1497 -0.0246 -0.2921
  203SOL     OW  577   1.089   4.033   2.970 -0.4952 -0.3809  0.1279
  203SOL    HW2  578   1.142   4.112   2.968  0.6831 -1.1424 -2.2578
  203SOL    HW3  579   1.147   3.966   3.007 -1.9963  0.0625  3.7421
  203SOL    MW4  580   1.104   4.034   2.975 -0.5378 -0.4229  0.2900
  204SOL     OW  581   0.675   6.386   1.466 -0.4554  0.1311 -0.1645
  204SOL    HW2  582   0.721   6.464   1.437 -0.5796  0.5598  0.7368
  204SOL    HW3  583   0.644   6.408   1.554 -0.9846 -0.7279 -0.1222
  204SOL    MW4  584   0.677   6.399   1.474 -0.5416  0.0743 -0.0400
  205SOL     OW  585   5.820   4.778   4.114  0.4197  0.0509 -0.3388
  205SOL    HW2  586   5.823   4.695   4.161  1.7805  0.1876 -0.1492
  205SOL    HW3  587   5.817   4.844   4.183  0.0560  0.1841 -0.4812
  205SOL    MW4  588   5.820   4.776   4.129  0.5513  0.0865 -0.3325
  206SOL     OW  589   0.507   0.504   4.925 -0.6183  0.0235 -0.3355
  206SOL    HW2  590   0.563   0.511   5.003 -0.9315 -0.5660 -0.0511
  206SOL    HW3  591   0.554   0.552   4.858  0.3030 -0.5749 -0.1366
  206SOL    MW4  592   0.521   0.511   4.927 -0.5380 -0.1332 -0.2717
  207SOL     OW  593   1.482   3.233   0.657  0.3336 -0.4762  0.3308
  207SOL    HW2  594   1.426   3.184   0.598  1.4280 -0.3790 -0.8399
  207SOL    HW3  595   1.532   3.165   0.704  0.1207 -0.5307  0.4807
  207SOL    MW4  596   1.481   3.218   0.655  0.4499 -0.4706  0.1961
  208SOL     OW  597   1.821   5.587   2.966 -0.0476 -0.0382  0.7967
  208SOL    HW2  598   1.829   5.518   2.901  0.6402  0.5621  0.2415
  208SOL    HW3  599   1.778   5.544   3.040  0.1241 -0.9924  0.3604
  208SOL    MW4  600   1.816   5.572   2.968  0.0658 -0.0849  0.6659
  209SOL     OW  601   2.289   0.864   3.168 -0.2537 -0.0060  0.1560
  209SOL    HW2  602   2.256   0.904   3.248 -1.6694  1.0985 -0.9393
  209SOL    HW3  603   2.369   0.913   3.147 -0.9212  0.9879 -0.1195
  209SOL    MW4  604   2.295   0.876   3.176 -0.5286  0.2709 -0.0248
  210SOL     OW  605   4.314   5.237   2.367  0.1328  0.4054 -0.4608
  210SOL    HW2  606   4.256   5.309   2.341 -0.8880 -1.1424 -2.7784
  210SOL    HW3  607   4.382   5.236   2.299 -0.0077 -0.9381 -0.6106
  210SOL    MW4  608   4.315   5.247   2.355 -0.0204  0.0239 -0.7863
  211SOL     OW  609   2.689   3.936   3.282  0.5557 -0.5994  0.2901
  211SOL    HW2  610   2.632   3.906   3.212  0.0904  1.0929 -0.1071
  211SOL    HW3  611   2.778   3.921   3.249  0.3426  0.3015 -0.7454
  211SOL    MW4  612   2.693   3.930   3.268  0.4662 -0.2572  0.1011
  212SOL     OW  613   0.992   2.086   4.552  0.6349 -0.1134 -0.1324
  212SOL    HW2  614   0.913   2.106   4.501  0.7127  1.3739  0.2904
  212SOL    HW3  615   1.061   2.074   4.486  0.3662  0.0260 -0.4398
  212SOL    MW4  616   0.991   2.087   4.537  0.6097  0.1012 -0.1171
  213SOL     OW  617   5.432   1.808   1.515  0.7579 -0.0177 -0.2313
  213SOL    HW2  618   5.339   1.810   1.493  0.7278 -3.0799 -0.8109
  213SOL    HW3  619   5.435   1.803   1.610  0.3396  0.2301 -0.2043
  213SOL    MW4  620   5.420   1.808   1.525  0.6988 -0.3891 -0.3042
  214SOL     OW  621   2.685   2.312   5.014 -0.7105  0.2378  0.2363
  214SOL    HW2  622   2.760   2.254   5.002  1.4230  2.6270  1.0505
  214SOL    HW3  623   2.633   2.271   5.083 -0.4071 -1.6786 -0.6204
  214SOL    MW4  624   2.688   2.299   5.021 -0.3890  0.3002  0.2307
  215SOL     OW  625   1.915   4.220   5.653  0.3314  0.3220 -0.1312
  215SOL    HW2  626   1.898   4.138   5.699  1.5807 -0.0060 -0.2347
  215SOL    HW3  627   1.828   4.259   5.642 -0.3791 -1.3424 -0.7860
  215SOL    MW4  628   1.901   4.214   5.658  0.4025  0.0591 -0.2313
  216SOL     OW  629   3.912   3.073   6.383 -0.3955  0.0542  0.6921
  216SOL    HW2  630   3.961   3.149   6.351 -0.4271  0.1637  0.9017
  216SOL    HW3  631   3.894   3.093   6.475 -1.9643  0.6020  0.2845
  216SOL    MW4  632   3.916   3.086   6.391 -0.6066  0.1409  0.6660
  217SOL     OW  633   3.088   6.020   5.969  0.4853  0.4275  0.1136
  217SOL    HW2  634   3.011   5.989   6.019  0.9075 -0.1485  0.4261
  217SOL    HW3  635   3.094   6.113   5.990 -1.5296  1.0735 -1.7793
  217SOL    MW4  636   3.079   6.028   5.979  0.2752  0.4367 -0.0949
  218SOL     OW  637   2.391   0.997   6.244 -0.0459 -0.4634 -0.0820
  218SOL    HW2  638   2.374   0.902   6.249 -0.9653 -0.4365 -1.8222
  218SOL    HW3  639   2.340   1.026   6.169  0.5510  1.3666  0.1746
  218SOL    MW4  640   2.382   0.988   6.235 -0.0885 -0.2184 -0.2778
  219SOL     OW  641   0.736   1.491   2.852 -0.5242 -0.0077  0.2370
  219SOL    HW2  642   0.746   1.539   2.770  0.7120  1.3741  1.1543
  219SOL    HW3  643   0.650   1.517   2.885 -0.7686 -0.1055 -0.3046
  219SOL    MW4  644   0.726   1.500   2.846 -0.3933  0.1617  0.2865
  220SOL     OW  645   6.401   5.553   2.701 -0.3161  0.1972  0.4974
  220SOL    HW2  646   6.346   5.599   2.765 -0.9819  2.1934 -1.3768
  220SOL    HW3  647   6.484   5.600   2.704 -0.7476  1.0886 -0.9069
  220SOL    MW4  648   6.405   5.565   2.710 -0.4609  0.5782  0.0648
  221SOL     OW  649   2.383   0.952   0.893  0.0367 -0.0393  0.1910
  221SOL    HW2  650   2.405   1.004   0.816 -1.2867 -0.7575 -0.7067
  221SOL    HW3  651   2.377   0.862   0.862 -0.3537 -0.3700  1.1691
  221SOL    MW4  652   2.385   0.947   0.879 -0.1894 -0.1777  0.2016
  222SOL     OW  653   0.192   3.220   3.909  0.2424  0.7755  0.4859
  222SOL    HW2  654   0.250   3.264   3.971 -0.6880  2.0778  0.4671
  222SOL    HW3  655   0.111   3.270   3.912 -0.4919 -0.3156 -0.3480
  222SOL    MW4  656   0.189   3.233   3.917  0.0228  0.8034  0.3734
  223SOL     OW  657   1.695   5.515   0.548 -0.0328 -0.1699  0.2804
  223SOL    HW2  658   1.692   5.572   0.471 -0.2286  1.3469  1.3816
  223SOL    HW3  659   1.785   5.521   0.580  0.1403 -1.0658 -0.0003
  223SOL    MW4  660   1.706   5.523   0.542 -0.0358 -0.0880  0.3887
  224SOL     OW  661   4.701   2.155   5.554  0.0451 -0.3327  0.1730
  224SOL    HW2  662   4.718   2.185   5.465 -2.3294  0.8609  0.0355
  224SOL    HW3  663   4.751   2.216   5.609  0.5982 -0.3503 -0.2991
  224SOL    MW4  664   4.710   2.167   5.550 -0.1952 -0.1776  0.0926
  225SOL     OW  665   5.302   6.288   3.721  0.5616 -0.0772  0.2674
  225SOL    HW2  666   5.322   6.194   3.717  1.5363  0.1308  0.0716
  225SOL    HW3  667   5.294   6.306   3.815 -0.4355 -0.5109  0.2767
  225SOL    MW4  668   5.304   6.278   3.733  0.5586 -0.1070  0.2428
  226SOL     OW  669   4.041   1.553   2.748  0.6502  0.5115 -0.5405
  226SOL    HW2  670   3.987   1.585   2.675 -1.4167  1.4959  1.3125
  226SOL    HW3  671   4.104   1.494   2.706 -0.8743  0.4874 -3.0424
  226SOL    MW4  672   4.042   1.549   2.733  0.1763  0.6382 -0.6261
  227SOL     OW  673   1.987   4.471   2.221  0.3568 -0.4804 -0.6108
  227SOL    HW2  674   2.059   4.534   2.215  0.9512 -1.2028 -1.2579
  227SOL    HW3  675   1.967   4.468   2.315  0.6329  0.3165 -0.5165
  227SOL    MW4  676   1.994   4.478   2.233  0.4716 -0.4706 -0.6837
  228SOL     OW  677   2.194   1.896   0.156  0.6188 -0.2343 -0.4387
  228SOL    HW2  678   2.274   1.939   0.126  0.5359  0.2966  0.0876
  228SOL    HW3  679   2.128   1.920   0.091  0.7404 -0.1633 -0.5361
  228SOL    MW4  680   2.196   1.905   0.143  0.6239 -0.1549 -0.3821
  229SOL     OW  681   1.561   2.764   0.913 -0.0893 -0.2086  0.5498
  229SOL    HW2  682   1.583   2.671   0.919 -1.2100 -0.6249 -1.1536
  229SOL    HW3  683   1.467   2.769   0.928 -0.1911  0.5296 -0.2091
  229SOL    MW4  684   1.552   2.753   0.916 -0.2506 -0.1662  0.2249
  230SOL     OW  685   1.875   4.509   2.485 -0.4065 -0.6146 -0.7488
  230SOL    HW2  686   1.957   4.529   2.529 -0.4157  0.1316 -1.0544
  230SOL    HW3  687   1.844   4.593   2.452 -1.9014 -0.6776  0.3819
  230SOL    MW4  688   1.882   4.523   2.486 -0.6050 -0.5245 -0.6399
  231SOL     OW  689   0.219   1.193   0.764  0.3387 -0.3359  0.0128
  231SOL    HW2  690   0.181   1.159   0.845  0.9529 -0.9700  0.0442
  231SOL    HW3  691   0.313   1.179   0.774  0.3478 -1.2465 -1.1789
  231SOL    MW4  692   0.227   1.187   0.776  0.4210 -0.5397 -0.1403
  232SOL     OW  693   5.027   4.302   4.527  0.3377  0.2977 -0.0886
  232SOL    HW2  694   5.009   4.328   4.617 -0.7166  1.1825 -0.5281
  232SOL    HW3  695   5.017   4.207   4.527 -0.9522  0.4125  0.4620
  232SOL    MW4  696   5.023   4.293   4.539  0.0284  0.4296 -0.0739
  233SOL     OW  697   2.556   5.501   4.796 -0.1522  0.9536  0.0535
  233SOL    HW2  698   2.503   5.545   4.729 -0.4565 -0.4032 -0.6161
  233SOL    HW3  699   2.493   5.451   4.848  0.3777  0.0090 -0.2132
  233SOL    MW4  700   2.541   5.500   4.794 -0.1224  0.6500 -0.0701
  234SOL     OW  701   1.869   0.712   1.210 -0.1208 -0.2513 -0.3018
  234SOL    HW2  702   1.882   0.807   1.213 -1.4288 -0.0130 -1.2404
  234SOL    HW3  703   1.817   0.698   1.131 -1.0098 -1.6220  0.4981
  234SOL    MW4  704   1.864   0.723   1.200 -0.4107 -0.4007 -0.3201
  235SOL     OW  705   3.659   1.768   3.617 -0.3375 -0.2554 -0.1120
  235SOL    HW2  706   3.583   1.826   3.627  0.3534  0.5328  0.7511
  235SOL    HW3  707   3.734   1.823   3.641  0.4059 -1.3266  0.0661
  235SOL    MW4  708   3.659   1.783   3.621 -0.1483 -0.2927  0.0254
  236SOL     OW  709   2.584   5.591   2.303  0.5438  0.9329 -0.2626
  236SOL    HW2  710   2.517   5.569   2.368  1.1572  0.3093  0.1683
  236SOL    HW3  711   2.628   5.508   2.286  1.3416  1.3794 -0.3970
  236SOL    MW4  712   2.581   5.577   2.309  0.7300  0.9095 -0.2235
  237SOL     OW  713   2.057   4.526   6.028  0.0709 -0.5288 -0.1696
  237SOL    HW2  714   2.028   4.592   5.965 -2.5663 -2.3896 -1.0942
  237SOL    HW3  715   2.121   4.474   5.979 -0.1367 -0.4889 -0.4912
  237SOL    MW4  716   2.062   4.528   6.013 -0.3045 -0.7691 -0.3340
  238SOL     OW  717   5.679   2.765   5.302  0.3806  0.1454 -0.1770
  238SOL    HW2  718   5.593   2.762   5.260 -0.6297  1.3199  1.6812
  238SOL    HW3  719   5.691   2.678   5.340 -1.1683  0.6587  1.6571
  238SOL    MW4  720   5.670   2.754   5.301  0.0430  0.3681  0.3101
  239SOL     OW  721   1.593   3.585   3.098 -0.0966  0.6340 -0.6114
  239SOL    HW2  722   1.592   3.505   3.152  1.1889 -0.1572 -1.7206
  239SOL    HW3  723   1.685   3.603   3.082 -0.3541  2.4513 -0.2826
  239SOL    MW4  724   1.605   3.577   3.103  0.0390  0.7694 -0.7144
  240SOL     OW  725   2.856   5.745   5.610  0.1288 -0.5628  0.3970
  240SOL    HW2  726   2.917   5.701   5.669  1.5393 -0.9864 -1.2744
  240SOL    HW3  727   2.892   5.833   5.599  0.0867 -0.6067 -0.1118
  240SOL    MW4  728   2.869   5.751   5.616  0.3093 -0.6244  0.1093
  241SOL     OW  729   1.033   0.966   4.808 -0.9169  0.0402  0.2053
  241SOL    HW2  730   0.952   0.927   4.774 -1.1453  0.0700  0.7030
  241SOL    HW3  731   1.006   1.051   4.841 -0.2402  1.1172 -1.8202
  241SOL    MW4  732   1.019   0.972   4.807 -0.8577  0.1862  0.0037
  242SOL     OW  733   0.727   2.639   4.409 -0.0921 -0.0787  0.2945
  242SOL    HW2  734   0.754   2.670   4.322 -1.9785  1.9784  0.3616
  242SOL    HW3  735   0.783   2.563   4.425  0.6439 -0.2491 -2.5058
  242SOL    MW4  736   0.738   2.633   4.399 -0.2439  0.1702 -0.0661
  243SOL     OW  737   2.792   4.212   6.421 -0.5308  0.3813  0.0358
  243SOL    HW2  738   2.875   4.245   6.456 -0.9324  0.6738  0.7395
  243SOL    HW3  739   2.818   4.151   6.353  0.2440  1.6818 -0.8894
  243SOL    MW4  740   2.807   4.208   6.417 -0.4815  0.5915  0.0065
  244SOL     OW  741   4.030   4.231   4.371  0.0589  0.1872  0.3245
  244SOL    HW2  742   4.092   4.169   4.333  0.9190  1.2422 -0.0454
  244SOL    HW3  743   4.084   4.292   4.421 -0.7094  0.9550  0.2438
  244SOL    MW4  744   4.045   4.231   4.373  0.0710  0.4277  0.2650
  245SOL     OW  745   5.504   0.222   1.656  0.8567 -0.3193  0.1060
  245SOL    HW2  746   5.422   0.257   1.691  0.1943 -1.2898 -0.4290
  245SOL    HW3  747   5.559   0.212   1.734  1.1236  1.9099  0.2820
  245SOL    MW4  748   5.500   0.225   1.671  0.8046 -0.1532  0.0586
  246SOL     OW  749   1.004   1.469   3.579 -0.1064  0.5824 -0.2387
  246SOL    HW2  750   0.913   1.474   3.608 -0.5137 -0.5850 -1.2710
  246SOL    HW3  751   1.001   1.423   3.495  1.4567  0.3403 -0.1956
  246SOL    MW4  752   0.992   1.464   3.572  0.0461  0.3964 -0.3692
  247SOL     OW  753   6.124   1.646   6.199  0.3945  0.0691  0.8346
  247SOL    HW2  754   6.205   1.654   6.248 -0.1190 -0.0554  1.7245
  247SOL    HW3  755   6.055   1.650   6.265 -0.3113 -0.2610  0.1413
  247SOL    MW4  756   6.125   1.647   6.214  0.2337  0.0091  0.8606
  248SOL     OW  757   0.556   3.649   5.266 -0.2929  0.8100  0.3370
  248SOL    HW2  758   0.509   3.568   5.245 -0.8905  1.0211  0.8352
  248SOL    HW3  759   0.554   3.654   5.361  0.9645  0.6978  0.3813
  248SOL    MW4  760   0.549   3.639   5.275 -0.2059  0.8230  0.4086
  249SOL     OW  761   1.372   1.302   4.082  0.3301 -0.0865 -0.1124
  249SOL    HW2  762   1.414   1.362   4.144  1.2483  0.3410 -1.1122
  249SOL    HW3  763   1.281   1.298   4.110  0.8553 -0.4209  1.6487
  249SOL    MW4  764   1.365   1.310   4.094  0.5205 -0.0742 -0.0119
  250SOL     OW  765   0.332   2.793   1.448 -0.1774  0.3905  0.1292
  250SOL    HW2  766   0.384   2.858   1.402 -0.1387  0.6354  0.5117
  250SOL    HW3  767   0.344   2.712   1.398  1.2182  0.2378  0.6537
  250SOL    MW4  768   0.340   2.791   1.436  0.0118  0.4026  0.2489
  251SOL     OW  769   2.317   2.235   0.673  0.0344 -0.2539 -0.0804
  251SOL    HW2  770   2.262   2.264   0.746 -0.6362 -0.4015 -0.5210
  251SOL    HW3  771   2.390   2.297   0.672 -0.7478  0.6739 -0.2380
  251SOL    MW4  772   2.319   2.247   0.683 -0.1572 -0.1510 -0.1593
  252SOL     OW  773   4.729   3.952   4.307  0.8496 -0.3563  0.3944
  252SOL    HW2  774   4.788   3.991   4.243  0.4110 -0.0242  0.1873
  252SOL    HW3  775   4.692   4.026   4.355  0.5966 -0.5599  0.5179
  252SOL    MW4  776   4.732   3.967   4.305  0.7583 -0.3393  0.3834
  253SOL     OW  777   1.433   3.281   1.836 -0.1785 -0.2370 -0.6208
  253SOL    HW2  778   1.508   3.288   1.895  0.9984  0.5042 -2.1433
  253SOL    HW3  779   1.457   3.210   1.776  0.3796  1.4701 -2.5229
  253SOL    MW4  780   1.446   3.273   1.835  0.0504  0.0860 -1.0727
  254SOL     OW  781   5.443   3.261   2.593  0.6225  0.2178  0.2624
  254SOL    HW2  782   5.500   3.213   2.653 -0.3729 -0.2891  0.8264
  254SOL    HW3  783   5.464   3.353   2.609  1.0755  0.0487  0.6742
  254SOL    MW4  784   5.453   3.267   2.603  0.5510  0.1286  0.3911
  255SOL     OW  785   4.389   0.842   1.742  0.2543  0.2494 -0.1301
  255SOL    HW2  786   4.297   0.867   1.745  0.0907 -0.2027  3.8428
  255SOL    HW3  787   4.388   0.746   1.742  0.8190  0.1904 -2.4710
  255SOL    MW4  788   4.377   0.833   1.743  0.3072  0.1820  0.0852
  256SOL     OW  789   1.230   1.894   1.969  0.3994  0.2948 -0.2140
  256SOL    HW2  790   1.304   1.834   1.963  0.6018  0.5963 -0.8937
  256SOL    HW3  791   1.162   1.845   2.016  1.3939  0.3947  1.4057
  256SOL    MW4  792   1.231   1.880   1.974  0.5574  0.3478 -0.0900
  257SOL     OW  793   6.119   1.166   4.565  0.1679 -0.1701  0.5647
  257SOL    HW2  794   6.115   1.211   4.649  1.2611 -0.8055  0.9701
  257SOL    HW3  795   6.210   1.173   4.538 -0.2863  0.5732 -0.8968
  257SOL    MW4  796   6.131   1.173   4.572  0.2522 -0.1558  0.4254
  258SOL     OW  797   3.665   4.844   4.673 -0.0175  0.2476 -0.1772
  258SOL    HW2  798   3.626   4.807   4.594  0.3241  1.5783 -0.9973
  258SOL    HW3  799   3.590   4.880   4.721 -0.1517 -0.0368 -0.1667
  258SOL    MW4  800   3.650   4.844   4.669  0.0099  0.3856 -0.2840
  259SOL     OW  801   6.379   0.973   1.382  0.0265 -0.5593 -0.5479
  259SOL    HW2  802   6.419   0.906   1.327 -1.9406 -2.0738 -0.2462
  259SOL    HW3  803   6.329   1.028   1.320 -1.4704 -1.7358 -0.4502
  259SOL    MW4  804   6.377   0.972   1.366 -0.4305 -0.9144 -0.4952
  260SOL     OW  805   1.254   0.196   5.765  0.5506  0.2320 -0.1444
  260SOL    HW2  806   1.254   0.103   5.788  0.2251 -0.4893 -2.7347
  260SOL    HW3  807   1.163   0.223   5.778 -0.0393 -0.6325 -2.0762
  260SOL    MW4  808   1.242   0.187   5.770  0.4298  0.0228 -0.7410
  261SOL     OW  809   3.078   2.377   4.253  0.3401  0.4385  0.2186
  261SOL    HW2  810   3.148   2.416   4.201  1.2517  0.2795  1.2828
  261SOL    HW3  811   3.068   2.437   4.327  2.6173 -1.8339  2.5705
  261SOL    MW4  812   3.086   2.390   4.256  0.7609  0.1177  0.6693
  262SOL     OW  813   4.678   2.994   3.733 -0.0578 -0.1595  0.2863
  262SOL    HW2  814   4.748   3.058   3.738 -0.2111  0.0344 -0.0107
  262SOL    HW3  815   4.717   2.913   3.764 -0.3141  0.4291  2.2767
  262SOL    MW4  816   4.692   2.992   3.738 -0.1118 -0.0563  0.5097
  263SOL     OW  817   2.560   5.324   2.805 -0.5874 -0.4031  0.1132
  263SOL    HW2  818   2.537   5.264   2.876 -1.2175 -1.0920 -0.6579
  263SOL    HW3  819   2.643   5.362   2.832 -0.9759 -0.3925  1.3817
  263SOL    MW4  820   2.568   5.321   2.818 -0.7218 -0.4926  0.1788
  264SOL     OW  821   1.749   0.319   2.278  0.1772  0.4272 -0.0627
  264SOL    HW2  822   1.715   0.405   2.253  0.8815  0.6107 -0.4282
  264SOL    HW3  823   1.779   0.281   2.196 -0.2403 -0.2235  0.0831
  264SOL    MW4  824   1.749   0.326   2.264  0.2151  0.3655 -0.0916
  265SOL     OW  825   2.796   4.755   1.128  0.8037  0.1263 -0.2485
  265SOL    HW2  826   2.759   4.782   1.212 -0.3754 -2.1328  0.0391
  265SOL    HW3  827   2.736   4.791   1.062  0.6404  0.2712 -0.0198
  265SOL    MW4  828   2.783   4.763   1.130  0.6266 -0.1526 -0.1804
  266SOL     OW  829   2.083   1.978   2.159 -0.5215  0.1465  0.5496
  266SOL    HW2  830   2.083   1.992   2.064 -1.4851  0.1344  0.5429
  266SOL    HW3  831   2.102   2.064   2.196 -1.0780  0.3497  0.3698
  266SOL    MW4  832   2.085   1.991   2.151 -0.7221  0.1717  0.5250
  267SOL     OW  833   2.219   0.184   4.767  0.2788 -0.1770 -0.1737
  267SOL    HW2  834   2.266   0.222   4.693 -0.2412 -0.2988 -0.5666
  267SOL    HW3  835   2.150   0.132   4.728 -0.8644  0.8469  0.4093
  267SOL    MW4  836   2.216   0.182   4.752  0.0594 -0.0580 -0.1487
  268SOL     OW  837   6.042   0.089   1.343 -0.4376 -0.0711  0.7214
  268SOL    HW2  838   6.114   0.080   1.405 -0.0140 -1.1732  0.0912
  268SOL    HW3  839   5.964   0.100   1.397  0.3676  2.9928  1.4328
  268SOL    MW4  840   6.041   0.089   1.358 -0.2755  0.1877  0.7321
  269SOL     OW  841   4.189   2.054   2.542  0.4206  0.3294  0.0287
  269SOL    HW2  842   4.169   1.976   2.593 -2.6088  0.8147 -0.2431
  269SOL    HW3  843   4.246   2.023   2.471 -1.5964 -1.9355 -0.7360
  269SOL    MW4  844   4.194   2.040   2.539 -0.2452  0.0946 -0.1081
  270SOL     OW  845   1.024   1.779   2.626 -0.4022 -0.3984 -0.8111
  270SOL    HW2  846   1.071   1.854   2.589  1.9941 -2.0203 -1.2781
  270SOL    HW3  847   1.089   1.736   2.682 -1.8815 -1.8361 -0.1391
  270SOL    MW4  848   1.039   1.784   2.628 -0.2812 -0.8020 -0.7841
  271SOL     OW  849   4.565   5.025   1.255  0.1108 -0.4648  0.1944
  271SOL    HW2  850   4.642   4.970   1.269  1.3682  1.0778 -0.2788
  271SOL    HW3  851   4.509   4.974   1.198  0.9686 -1.4791  0.2227
  271SOL    MW4  852   4.568   5.011   1.250  0.3898 -0.3951  0.1357
  272SOL     OW  853   2.068   6.392   3.751 -0.1014  0.0202 -0.7025
  272SOL    HW2  854   2.156   6.420   3.778 -0.3858  0.3917 -0.1494
  272SOL    HW3  855   2.083   6.310   3.705  0.8038  1.3116 -2.8463
  272SOL    MW4  856   2.082   6.385   3.749 -0.0195  0.2396 -0.9124
  273SOL     OW  857   0.430   2.645   2.844  0.4745  0.1711 -0.1409
  273SOL    HW2  858   0.340   2.650   2.812  0.4760 -0.2412 -0.2139
  273SOL    HW3  859   0.459   2.736   2.848 -0.0189  0.3227  0.0897
  273SOL    MW4  860   0.422   2.658   2.841  0.4096  0.1367 -0.1201
  274SOL     OW  861   4.675   5.976   1.826  0.2009 -0.4488  0.5913
  274SOL    HW2  862   4.638   5.920   1.759  0.7283 -1.1656  0.8908
  274SOL    HW3  863   4.630   6.060   1.815  1.2774 -0.0919 -1.5749
  274SOL    MW4  864   4.665   5.980   1.816  0.4125 -0.4963  0.3450
  275SOL     OW  865   4.961   0.161   2.057  0.5809  0.2914  0.1028
  275SOL    HW2  866   4.987   0.173   1.966 -2.3558 -0.7932 -0.9862
  275SOL    HW3  867   4.979   0.069   2.076 -0.2497  0.1162  0.0768
  275SOL    MW4  868   4.967   0.151   2.048  0.0839  0.1252 -0.0443
  276SOL     OW  869   2.440   0.298   2.981 -0.3314 -0.0132 -0.4567
  276SOL    HW2  870   2.375   0.252   2.928 -1.5206  2.3655 -1.1920
  276SOL    HW3  871   2.391   0.330   3.057  0.3930  0.3106 -0.1192
  276SOL    MW4  872   2.425   0.296   2.984 -0.3927  0.3434 -0.5092
  277SOL     OW  873   5.445   4.002   3.152 -0.5414 -0.1442  0.3253
  277SOL    HW2  874   5.410   3.977   3.238 -2.2123 -0.2462 -0.3450
  277SOL    HW3  875   5.422   4.094   3.143 -0.5276 -0.1819 -0.0949
  277SOL    MW4  876   5.437   4.011   3.163 -0.7601 -0.1626  0.1814
  278SOL     OW  877   1.068   1.436   6.403  0.2627 -0.0960 -0.3928
  278SOL    HW2  878   1.127   1.505   6.371  0.5501  1.3130  2.7410
  278SOL    HW3  879   0.986   1.451   6.356  0.9432  1.0510 -1.2813
  278SOL    MW4  880   1.065   1.447   6.393  0.3904  0.2412 -0.0966
  279SOL     OW  881   4.473   5.659   0.785  0.6852  0.2276  0.0156
  279SOL    HW2  882   4.529   5.584   0.763  1.8152  1.3020 -0.9439
  279SOL    HW3  883   4.411   5.665   0.711 -0.8432 -1.0298  1.1294
  279SOL    MW4  884   4.472   5.650   0.772  0.6326  0.2034  0.0359
  280SOL     OW  885   1.274   1.136   6.064 -0.7015  0.0134  0.0086
  280SOL    HW2  886   1.280   1.220   6.018 -0.3749 -0.1341 -0.2240
  280SOL    HW3  887   1.363   1.121   6.096 -0.0601 -1.5284 -2.2474
  280SOL    MW4  888   1.287   1.145   6.062 -0.5738 -0.2095 -0.3198
  281SOL     OW  889   2.011   4.769   6.217  0.1540 -0.5197 -0.0829
  281SOL    HW2  890   2.048   4.687   6.183  1.0741  0.0842 -0.5929
  281SOL    HW3  891   2.058   4.783   6.299  0.4745 -0.1616 -0.3282
  281SOL    MW4  892   2.022   4.760   6.224  0.3177 -0.3928 -0.1825
  282SOL     OW  893   2.175   4.042   3.592 -0.1850  0.0996 -0.0760
  282SOL    HW2  894   2.271   4.035   3.597 -0.2712 -0.9404  0.5550
  282SOL    HW3  895   2.155   4.035   3.499  0.2706 -1.2787 -0.0901
  282SOL    MW4  896   2.185   4.040   3.580 -0.1363 -0.2195  0.0054
  283SOL     OW  897   4.840   0.729   0.906  0.7361 -0.1702  0.5201
  283SOL    HW2  898   4.825   0.823   0.920  1.8618 -0.4335  5.4003
  283SOL    HW3  899   4.785   0.686   0.972 -0.1615 -3.1174 -1.9079
  283SOL    MW4  900   4.831   0.736   0.917  0.7662 -0.5938  0.8437
  284SOL     OW  901   1.618   5.168   2.079  0.5428 -0.5593  0.2828
  284SOL    HW2  902   1.582   5.212   2.157 -0.3680 -1.0127  0.1312
  284SOL    HW3  903   1.670   5.236   2.035 -0.2289  0.1582  0.4562
  284SOL    MW4  904   1.620   5.183   2.083  0.3208 -0.5244  0.2857
  285SOL     OW  905   3.164   6.008   4.131 -0.2399  0.8546 -0.0390
  285SOL    HW2  906   3.219   5.930   4.133 -2.0192 -0.4495  0.5988
  285SOL    HW3  907   3.195   6.058   4.055  0.8276 -0.5540 -0.5643
  285SOL    MW4  908   3.175   6.004   4.121 -0.3338  0.4967 -0.0242
  286SOL     OW  909   5.769   2.916   3.812  0.1863  0.3887  0.2856
  286SOL    HW2  910   5.859   2.919   3.844  0.1000 -2.8718  1.2290
  286SOL    HW3  911   5.777   2.888   3.720  0.1567  0.6217  0.2124
  286SOL    MW4  912   5.782   2.913   3.804  0.1710 -0.0107  0.4004
  287SOL     OW  913   4.541   4.864   3.398 -0.7289 -0.0341  0.5591
  287SOL    HW2  914   4.587   4.948   3.396 -1.8304  0.5963  0.9916
  287SOL    HW3  915   4.570   4.822   3.479 -0.4044  0.0545  0.4891
  287SOL    MW4  916   4.551   4.869   3.408 -0.8314  0.0607  0.6070
  288SOL     OW  917   3.100   4.135   2.648  0.3408 -0.1610 -0.0202
  288SOL    HW2  918   3.157   4.099   2.580  2.6987  0.1418  1.7018
  288SOL    HW3  919   3.021   4.162   2.600  2.9533  2.7693 -3.2235
  288SOL    MW4  920   3.097   4.134   2.632  0.9966  0.2656 -0.2156
  289SOL     OW  921   0.915   5.381   5.046 -0.7814  0.0005  0.4898
  289SOL    HW2  922   0.886   5.310   4.989 -1.8670  0.4246  0.4886
  289SOL    HW3  923   0.870   5.458   5.013 -1.4616  0.2497  1.9140
  289SOL    MW4  924   0.905   5.382   5.034 -1.0144  0.0893  0.6775
  290SOL     OW  925   1.898   2.010   0.699  0.8248 -0.1293  0.7042
  290SOL    HW2  926   1.834   2.072   0.664  1.1487  1.5316  2.8651
  290SOL    HW3  927   1.977   2.025   0.647  0.5309  0.3941  0.4031
  290SOL    MW4  928   1.900   2.020   0.688  0.8288  0.1589  0.9495
  291SOL     OW  929   0.589   2.951   0.482  0.0448  0.0001  0.4067
  291SOL    HW2  930   0.671   2.926   0.525  0.4560 -0.4312 -0.6206
  291SOL    HW3  931   0.581   3.045   0.501  0.6819  0.0129  0.6615
  291SOL    MW4  932   0.599   2.960   0.490  0.1831 -0.0551  0.3047
  292SOL     OW  933   0.298   3.889   3.104 -0.2095  0.4507 -0.0894
  292SOL    HW2  934   0.292   3.890   3.009 -0.5025 -1.7264 -0.1639
  292SOL    HW3  935   0.381   3.844   3.122  1.0073  2.8509  0.7522
  292SOL    MW4  936   0.308   3.883   3.094 -0.0876  0.4801  0.0118
  293SOL     OW  937   3.392   5.022   0.989  0.8072  0.3148  0.1632
  293SOL    HW2  938   3.395   5.056   0.900  1.3816 -0.2199 -0.0268
  293SOL    HW3  939   3.457   4.951   0.990 -0.5848 -1.0039  0.4472
  293SOL    MW4  940   3.401   5.017   0.978  0.6993  0.0702  0.1756
  294SOL     OW  941   3.592   4.141   4.090 -0.0489  0.2399  0.4360
  294SOL    HW2  942   3.654   4.146   4.163  0.2369 -1.2533  0.3361
  294SOL    HW3  943   3.594   4.227   4.050  0.0277  1.0061  2.0026
  294SOL    MW4  944   3.600   4.153   4.095 -0.0011  0.1440  0.6295
  295SOL     OW  945   2.083   3.487   6.187 -0.3076  0.7222  0.4480
  295SOL    HW2  946   2.005   3.534   6.214  0.1267  0.6887  1.8591
  295SOL    HW3  947   2.053   3.398   6.170 -0.6852  0.8644  0.3716
  295SOL    MW4  948   2.069   3.482   6.188 -0.3001  0.7365  0.6241
  296SOL     OW  949   0.072   4.690   0.372  0.0936 -0.1676  0.1227
  296SOL    HW2  950   0.108   4.619   0.319 -1.6699  0.4989 -2.1162
  296SOL    HW3  951   0.078   4.768   0.316 -1.8891  0.5738  0.8368
  296SOL    MW4  952   0.078   4.691   0.358 -0.4007  0.0182 -0.0785
  297SOL     OW  953   0.276   1.863   2.022 -0.4067  0.1581  0.0807
  297SOL    HW2  954   0.232   1.798   1.968 -0.0294  0.0245 -0.0715
  297SOL    HW3  955   0.348   1.814   2.064 -0.5678  0.3071  0.5380
  297SOL    MW4  956   0.280   1.848   2.020 -0.3782  0.1601  0.1210
  298SOL     OW  957   0.825   1.370   2.410  0.6122 -0.1053  0.4458
  298SOL    HW2  958   0.831   1.445   2.351 -2.3443  0.0339  0.1956
  298SOL    HW3  959   0.864   1.298   2.361 -0.0500  0.4250 -0.9166
  298SOL    MW4  960   0.831   1.370   2.396  0.1348 -0.0170  0.2330
  299SOL     OW  961   4.304   2.342   4.400  0.0297 -0.2308  0.0662
  299SOL    HW2  962   4.380   2.391   4.369 -0.5920  0.5740 -0.2198
  299SOL    HW3  963   4.330   2.250   4.392 -0.0488 -0.1010 -2.8712
  299SOL    MW4  964   4.317   2.336   4.395 -0.0627 -0.1075 -0.3591
  300SOL     OW  965   1.682   2.034   4.385 -0.2782 -0.3847 -0.3560
  300SOL    HW2  966   1.672   2.129   4.377 -1.2283 -0.4118  0.3655
  300SOL    HW3  967   1.651   2.000   4.301  0.9425 -0.0249 -0.9808
  300SOL    MW4  968   1.677   2.042   4.373 -0.2425 -0.3408 -0.3432
  301SOL     OW  969   0.710   1.008   1.380 -0.5945  0.2060 -0.5834
  301SOL    HW2  970   0.691   0.945   1.449  0.7638 -1.0424 -1.2890
  301SOL    HW3  971   0.756   1.079   1.425 -0.1821 -0.3509 -0.1102
  301SOL    MW4  972   0.714   1.009   1.395 -0.3609 -0.0322 -0.6141
  302SOL     OW  973   1.233   1.402   4.736 -0.2954  0.0781 -0.4714
  302SOL    HW2  974   1.291   1.335   4.770 -1.4386 -0.4860  0.4381
  302SOL    HW3  975   1.223   1.380   4.643 -0.8714 -1.2053 -0.1318
  302SOL    MW4  976   1.239   1.391   4.728 -0.5222 -0.1656 -0.3066
  303SOL     OW  977   4.344   2.661   3.622 -0.3156 -0.0399 -0.8803
  303SOL    HW2  978   4.306   2.649   3.535 -2.6735  3.6871 -0.6356
  303SOL    HW3  979   4.431   2.697   3.606  0.5968 -2.3655 -1.5515
  303SOL    MW4  980   4.350   2.664   3.608 -0.5063  0.1450 -0.9366
  304SOL     OW  981   4.639   3.733   6.338 -0.6251 -0.0787 -0.1461
  304SOL    HW2  982   4.666   3.691   6.420 -1.1924 -0.7999 -0.3122
  304SOL    HW3  983   4.719   3.741   6.287 -0.5251 -1.1566 -0.1844
  304SOL    MW4  984   4.653   3.728   6.342 -0.6868 -0.3161 -0.1730
  305SOL     OW  985   0.117   3.425   3.497 -0.3569 -0.1120  0.0673
  305SOL    HW2  986   0.036   3.398   3.540  0.5619 -1.2165  1.2060
  305SOL    HW3  987   0.164   3.477   3.562  0.8106 -1.3469  0.2814
  305SOL    MW4  988   0.113   3.428   3.511 -0.0816 -0.4206  0.2458
  306SOL     OW  989   6.082   4.358   3.958 -0.1620 -0.0893 -0.3079
  306SOL    HW2  990   6.039   4.443   3.962  1.6546  0.8771 -0.2547
  306SOL    HW3  991   6.048   4.318   3.878  0.0354  1.3225 -1.1363
  306SOL    MW4  992   6.072   4.364   3.948  0.1037  0.2245 -0.4101
  307SOL     OW  993   0.600   3.285   1.503  0.5584 -0.2425 -0.2395
  307SOL    HW2  994   0.691   3.315   1.511  1.2494 -2.6002  3.7400
  307SOL    HW3  995   0.565   3.293   1.592 -3.2219  0.5527 -1.6434
  307SOL    MW4  996   0.608   3.290   1.516  0.1508 -0.4486  0.1004
  308SOL     OW  997   3.888   5.695   4.436  0.0387 -0.2639  0.2262
  308SOL    HW2  998   3.917   5.689   4.527 -2.0738  0.9558  1.0525
  308SOL    HW3  999   3.805   5.648   4.434 -0.8634  1.2860 -0.6094
  308SOL    MW4 1000   3.881   5.688   4.448 -0.3590  0.1015  0.2250
  309SOL     OW 1001   0.472   2.282   4.826  1.0402 -0.3101  0.1072
  309SOL    HW2 1002   0.404   2.321   4.881  0.4300 -1.1605 -0.0130
  309SOL    HW3 1003   0.426   2.213   4.778  1.2318  1.2128 -2.4355
  309SOL    MW4 1004   0.457   2.278   4.827  0.9849 -0.2214 -0.2441
  310SOL     OW 1005   6.036   4.077   2.173 -0.6688 -0.0311 -0.6150
  310SOL    HW2 1006   6.010   4.050   2.261  2.2913 -2.5793 -0.3275
  310SOL    HW3 1007   6.054   4.171   2.181 -0.4932 -0.1929  1.5213
  310SOL    MW4 1008   6.035   4.086   2.186 -0.2551 -0.3887 -0.2952
  311SOL     OW 1009   4.982   2.426   0.446  0.5096  0.0482 -0.2529
  311SOL    HW2 1010   5.051   2.360   0.449 -0.3460 -0.9058 -0.9249
  311SOL    HW3 1011   4.945   2.425   0.534  1.1458  0.3599  0.0271
  311SOL    MW4 1012   4.986   2.417   0.458  0.4807 -0.0366 -0.3046
  312SOL     OW 1013   5.979   4.000   5.631 -0.0746  0.2354  0.4520
  312SOL    HW2 1014   5.984   4.091   5.661  1.7917 -0.5969  3.0591
  312SOL    HW3 1015   5.888   3.989   5.603 -0.1120  3.1107 -0.9011
  312SOL    MW4 1016   5.967   4.011   5.631  0.1667  0.5049  0.6174
  313SOL     OW 1017   2.104   4.988   4.123  0.6561 -0.1882 -0.3064
  313SOL    HW2 1018   2.097   4.893   4.122  2.1904 -0.3353 -0.9380
  313SOL    HW3 1019   2.118   5.010   4.216 -0.9741 -0.4313  0.0179
  313SOL    MW4 1020   2.105   4.978   4.135  0.6435 -0.2397 -0.3469
  314SOL     OW 1021   0.686   0.036   1.748  0.4361 -0.0201  0.4038
  314SOL    HW2 1022   0.761   0.041   1.808  0.8503  1.5988 -0.1725
  314SOL    HW3 1023   0.612   0.011   1.804  1.4190 -1.8661  0.9434
  314SOL    MW4 1024   0.686   0.034   1.763  0.6204 -0.0500  0.3990
  315SOL     OW 1025   1.894   4.359   4.875  0.5602  0.3711  1.0008
  315SOL    HW2 1026   1.878   4.266   4.858 -0.3791  0.3760  1.7382
  315SOL    HW3 1027   1.984   4.363   4.906  1.0104 -0.1242 -0.1565
  315SOL    MW4 1028   1.904   4.347   4.877  0.4957  0.3064  0.9454
  316SOL     OW 1029   4.003   0.230   2.608 -0.1388 -0.2388  0.1619
  316SOL    HW2 1030   4.097   0.240   2.626  0.2127 -2.0889 -0.4185
  316SOL    HW3 1031   3.963   0.307   2.647  1.5829  0.4133  0.7504
  316SOL    MW4 1032   4.010   0.241   2.615  0.1347 -0.3969  0.1630
  317SOL     OW 1033   3.099   0.764   0.413 -0.2221  1.0876  0.1815
  317SOL    HW2 1034   3.175   0.751   0.470 -0.1096  0.3667 -0.1311
  317SOL    HW3 1035   3.024   0.746   0.470 -0.1136  0.4644  0.1277
  317SOL    MW4 1036   3.099   0.760   0.428 -0.1929  0.9102  0.1332
  318SOL     OW 1037   5.020   3.034   3.462  0.2265 -0.4451 -0.1241
  318SOL    HW2 1038   5.034   3.023   3.368 -0.6608  2.5250 -0.7291
  318SOL    HW3 1039   4.930   3.005   3.476  0.5620 -1.4675 -0.0587
  318SOL    MW4 1040   5.010   3.029   3.452  0.1537 -0.1881 -0.1953
  319SOL     OW 1041   5.373   3.817   3.812 -0.6559  0.3840 -0.8582
  319SOL    HW2 1042   5.339   3.893   3.858 -0.4862  0.4566 -0.8536
  319SOL    HW3 1043   5.438   3.852   3.751 -0.3655  0.2108 -0.6490
  319SOL    MW4 1044   5.377   3.832   3.810 -0.5952  0.3707 -0.8300
  320SOL     OW 1045   2.085   5.685   1.112  0.1196  0.0768 -0.0350
  320SOL    HW2 1046   2.134   5.755   1.155  0.8786 -1.4366  1.7322
  320SOL    HW3 1047   2.134   5.667   1.032  1.7901 -0.4960  1.0448
  320SOL    MW4 1048   2.098   5.692   1.107  0.4402 -0.1984  0.3406
  321SOL     OW 1049   5.687   2.478   2.998 -0.2883  0.3178 -0.0912
  321SOL    HW2 1050   5.755   2.483   2.931 -0.7995  2.4228 -0.5303
  321SOL    HW3 1051   5.645   2.564   2.995 -2.5739 -0.7094  0.5928
  321SOL    MW4 1052   5.690   2.490   2.989 -0.6573  0.4600 -0.0589
  322SOL     OW 1053   3.908   5.797   2.608 -0.3219 -0.0141 -0.6434
  322SOL    HW2 1054   3.876   5.824   2.522 -2.1794 -1.3274 -0.4092
  322SOL    HW3 1055   3.859   5.717   2.629  0.7262 -0.2329  1.2536
  322SOL    MW4 1056   3.898   5.790   2.599 -0.4287 -0.2162 -0.3622
  323SOL     OW 1057   1.538   6.235   4.314 -0.2755  0.6534  0.1636
  323SOL    HW2 1058   1.513   6.290   4.239 -0.4125  3.1847  1.9328
  323SOL    HW3 1059   1.633   6.242   4.319 -0.2880  0.7015  0.3538
  323SOL    MW4 1060   1.547   6.243   4.305 -0.2952  0.9937  0.4221
  324SOL     OW 1061   5.795   0.523   4.147  0.0705  0.2669 -0.5192
  324SOL    HW2 1062   5.883   0.545   4.177  0.3371 -1.3504  0.0268
  324SOL    HW3 1063   5.769   0.448   4.201 -0.6541 -0.8260 -2.2756
  324SOL    MW4 1064   5.803   0.516   4.158  0.0101 -0.0907 -0.6789
  325SOL     OW 1065   3.997   1.982   1.224  0.1021 -0.4918  0.4214
  325SOL    HW2 1066   3.963   1.894   1.242 -1.4799 -0.0570 -0.2242
  325SOL    HW3 1067   4.054   1.971   1.148 -2.9850 -0.5303 -2.1403
  325SOL    MW4 1068   4.000   1.969   1.216 -0.5140 -0.4395 -0.0018
  326SOL     OW 1069   2.081   2.492   2.080 -0.9656 -0.3588 -0.3440
  326SOL    HW2 1070   2.163   2.485   2.130 -0.6656  0.8511 -0.6332
  326SOL    HW3 1071   2.108   2.481   1.989 -0.8295  1.6348 -0.5996
  326SOL    MW4 1072   2.096   2.490   2.074 -0.9081  0.0639 -0.4159
  327SOL     OW 1073   6.300   2.879   2.214 -0.8630 -0.2335  0.5873
  327SOL    HW2 1074   6.360   2.818   2.259 -0.8522 -0.7625 -0.1270
  327SOL    HW3 1075   6.304   2.853   2.122 -0.6526  1.0327  0.2182
  327SOL    MW4 1076   6.308   2.867   2.208 -0.8338 -0.1362  0.4444
  328SOL     OW 1077   1.113   2.925   5.471 -0.3481 -0.2742 -0.1557
  328SOL    HW2 1078   1.054   2.935   5.397 -0.8952  0.6137  0.3833
  328SOL    HW3 1079   1.128   2.830   5.477  0.6303 -0.2785 -2.0746
  328SOL    MW4 1080   1.107   2.913   5.462 -0.2912 -0.1576 -0.3377
  329SOL     OW 1081   2.353   1.161   5.341  0.1713  1.0604 -0.4001
  329SOL    HW2 1082   2.294   1.150   5.266 -0.4542  1.5133  0.0160
  329SOL    HW3 1083   2.324   1.243   5.382  0.1431  0.5307  0.6558
  329SOL    MW4 1084   2.341   1.170   5.336  0.0851  1.0502 -0.2059
  330SOL     OW 1085   3.677   3.473   4.349  0.5807  0.9201 -0.2611
  330SOL    HW2 1086   3.723   3.531   4.409  0.3794 -0.8555  1.7389
  330SOL    HW3 1087   3.584   3.496   4.360  0.5780  0.8605 -0.1491
  330SOL    MW4 1088   3.671   3.484   4.359  0.5538  0.6780  0.0176
  331SOL     OW 1089   3.111   5.519   0.228  0.2220 -0.5098 -0.5405
  331SOL    HW2 1090   3.173   5.550   0.293  1.1187  1.6214 -2.2780
  331SOL    HW3 1091   3.025   5.539   0.264  0.5088 -2.1907  1.2590
  331SOL    MW4 1092   3.108   5.526   0.241  0.3782 -0.4504 -0.5323
  332SOL     OW 1093   5.617   5.117   4.136  0.3011  0.1463  0.1927
  332SOL    HW2 1094   5.549   5.115   4.203  0.7350  0.3684  0.6485
  332SOL    HW3 1095   5.601   5.039   4.082  0.6682 -0.7151  1.2874
  332SOL    MW4 1096   5.606   5.106   4.138  0.4068  0.0620  0.3973
  333SOL     OW 1097   0.235   0.337   0.671 -0.4041  0.1993 -0.1066
  333SOL    HW2 1098   0.262   0.266   0.611  0.4134 -0.8287  1.4191
  333SOL    HW3 1099   0.310   0.397   0.672 -1.3251  1.4766 -1.8604
  333SOL    MW4 1100   0.249   0.335   0.663 -0.4178  0.2322 -0.1367
  334SOL     OW 1101   5.201   4.565   1.506 -0.6926  0.1285  0.2715
  334SOL    HW2 1102   5.200   4.477   1.468  0.1609  0.0184  0.5063
  334SOL    HW3 1103   5.144   4.559   1.583 -2.7296  0.4348 -1.1162
  334SOL    MW4 1104   5.193   4.553   1.511 -0.8488  0.1544  0.1194
  335SOL     OW 1105   3.809   5.635   0.663  0.0754 -0.5880 -0.5912
  335SOL    HW2 1106   3.756   5.688   0.604 -0.2413  0.8101  0.8679
  335SOL    HW3 1107   3.791   5.545   0.637 -1.6747 -0.0934 -1.2565
  335SOL    MW4 1108   3.799   5.631   0.652 -0.1973 -0.3383 -0.4865
  336SOL     OW 1109   3.669   4.574   2.274  0.0557  0.9375  0.2950
  336SOL    HW2 1110   3.751   4.615   2.247  2.6934 -3.1890  1.0758
  336SOL    HW3 1111   3.656   4.604   2.365  0.3852  2.0005  0.0064
  336SOL    MW4 1112   3.678   4.584   2.283  0.4472  0.5333  0.3600
  337SOL     OW 1113   5.137   0.553   1.977  0.0413 -0.6246 -0.3424
  337SOL    HW2 1114   5.044   0.574   1.987 -0.0278  0.3671 -2.5347
  337SOL    HW3 1115   5.177   0.585   2.058 -1.4390 -0.5551  0.4008
  337SOL    MW4 1116   5.130   0.560   1.989 -0.1631 -0.4846 -0.5336
  338SOL     OW 1117   3.084   2.778   0.948  0.3254 -0.2086  0.7894
  338SOL    HW2 1118   3.155   2.804   0.890  0.5723 -1.4682  0.4979
  338SOL    HW3 1119   3.030   2.857   0.957  2.2332  1.0614  1.7928
  338SOL    MW4 1120   3.086   2.792   0.942  0.6097 -0.2072  0.8833
  339SOL     OW 1121   3.529   4.252   5.643 -0.5260 -0.0231  0.0354
  339SOL    HW2 1122   3.506   4.175   5.591  1.0868 -1.1265  0.8499
  339SOL    HW3 1123   3.618   4.274   5.616 -0.0101 -0.0239  1.5921
  339SOL    MW4 1124   3.538   4.245   5.633 -0.2451 -0.1688  0.3483
  340SOL     OW 1125   5.649   4.557   3.847 -0.0966  0.0588  0.7165
  340SOL    HW2 1126   5.658   4.486   3.783 -0.3814  0.2694  0.4375
  340SOL    HW3 1127   5.736   4.564   3.887 -0.0631 -0.4407  0.7452
  340SOL    MW4 1128   5.662   4.548   3.844 -0.1298  0.0207  0.6834
  341SOL     OW 1129   0.833   2.289   3.058  0.0495  0.2698 -0.2151
  341SOL    HW2 1130   0.902   2.222   3.067 -0.0429  0.1850 -0.1338
  341SOL    HW3 1131   0.848   2.348   3.132  1.7054  1.7892 -1.6709
  341SOL    MW4 1132   0.844   2.288   3.069  0.2558  0.4590 -0.3965
  342SOL     OW 1133   6.322   5.446   4.950  0.0860 -0.3613  0.1552
  342SOL    HW2 1134   6.289   5.501   4.879 -0.7233  0.6664  1.2765
  342SOL    HW3 1135   6.384   5.502   4.996 -0.4164 -0.5370  1.0586
  342SOL    MW4 1136   6.325   5.461   4.947 -0.0871 -0.2489  0.4223
  343SOL     OW 1137   3.046   0.024   2.209 -0.1105 -0.5141 -0.0926
  343SOL    HW2 1138   3.095   0.104   2.193  0.6294 -1.2808 -2.0261
  343SOL    HW3 1139   3.077  -0.007   2.294  1.6724 -0.1879 -0.5874
  343SOL    MW4 1140   3.056   0.030   2.218  0.2224 -0.5722 -0.4130
  344SOL     OW 1141   5.593   0.127   1.906  0.1756 -0.4940  0.4933
  344SOL    HW2 1142   5.629   0.039   1.912 -0.7084 -0.8810  0.2053
  344SOL    HW3 1143   5.657   0.182   1.952  0.2829 -1.4107  1.4789
  344SOL    MW4 1144   5.606   0.123   1.913  0.0731 -0.6660  0.5854
  345SOL     OW 1145   2.427   4.666   2.236  0.6123  0.1596  0.9235
  345SOL    HW2 1146   2.418   4.637   2.327  0.4548  0.1223  0.8953
  345SOL    HW3 1147   2.469   4.593   2.191 -2.9575 -1.5695  0.0330
  345SOL    MW4 1148   2.432   4.653   2.242  0.1205 -0.0734  0.8023
  346SOL     OW 1149   2.761   6.286   2.203  0.8117  0.6596  0.3726
  346SOL    HW2 1150   2.804   6.354   2.151  1.0986 -0.4308 -0.8690
  346SOL    HW3 1151   2.823   6.266   2.273  1.1322  1.0227  0.1956
  346SOL    MW4 1152   2.775   6.292   2.205  0.8918  0.5636  0.1854
  347SOL     OW 1153   3.290   0.630   3.227  0.3551 -0.0322 -0.3108
  347SOL    HW2 1154   3.268   0.709   3.277  0.8437  0.7126 -1.2326
  347SOL    HW3 1155   3.276   0.558   3.288 -1.4770  0.6418  0.1381
  347SOL    MW4 1156   3.286   0.631   3.241  0.1779  0.1550 -0.3732
  348SOL     OW 1157   0.526   5.304   6.037 -0.1429 -0.1213  0.1101
  348SOL    HW2 1158   0.589   5.235   6.017 -0.9408  0.0284 -3.8758
  348SOL    HW3 1159   0.445   5.257   6.058  0.1795 -0.3435  0.8717
  348SOL    MW4 1160   0.524   5.288   6.037 -0.2056 -0.1309 -0.3153
  349SOL     OW 1161   5.490   2.105   0.893  0.9970  1.2884 -0.0895
  349SOL    HW2 1162   5.555   2.176   0.896  1.0439  1.4301 -2.2374
  349SOL    HW3 1163   5.425   2.136   0.830  0.0344  0.1918  0.3347
  349SOL    MW4 1164   5.490   2.119   0.885  0.8762  1.1624 -0.3169
  350SOL     OW 1165   1.255   3.713   4.012  0.7169 -0.2692  0.5946
  350SOL    HW2 1166   1.214   3.682   3.932  1.9287  1.0487 -0.6100
  350SOL    HW3 1167   1.218   3.800   4.027 -0.5228 -1.0327  2.2899
  350SOL    MW4 1168   1.245   3.721   4.004  0.7132 -0.1960  0.6594
  351SOL     OW 1169   0.263   4.830   4.442 -0.0758  0.3127 -0.1948
  351SOL    HW2 1170   0.175   4.835   4.406  0.4715  1.7445 -1.4167
  351SOL    HW3 1171   0.254   4.859   4.533 -0.9051  0.1889 -0.2352
  351SOL    MW4 1172   0.250   4.834   4.449 -0.1130  0.4853 -0.3614
  352SOL     OW 1173   0.405   4.239   5.983  0.2331  0.1226  0.6311
  352SOL    HW2 1174   0.426   4.151   6.015 -2.3512 -0.5542  0.6933
  352SOL    HW3 1175   0.416   4.234   5.888 -0.1919 -0.3562  0.6063
  352SOL    MW4 1176   0.410   4.227   5.975 -0.1640 -0.0299  0.6360
  353SOL     OW 1177   4.301   1.020   3.126 -0.1912 -0.3771  0.2570
  353SOL    HW2 1178   4.222   0.999   3.076  0.1924  0.3278 -0.6785
  353SOL    HW3 1179   4.269   1.067   3.203 -0.7379 -0.8255  0.3122
  353SOL    MW4 1180   4.287   1.024   3.129 -0.2127 -0.3432  0.1408
  354SOL     OW 1181   3.752   1.156   3.278 -0.0991  0.1471  0.6541
  354SOL    HW2 1182   3.706   1.181   3.358 -0.2466  0.8879  0.3498
  354SOL    HW3 1183   3.733   1.227   3.217 -0.8146 -0.8714 -0.3577
  354SOL    MW4 1184   3.743   1.168   3.280 -0.2129  0.1105  0.4805
  355SOL     OW 1185   2.451   6.377   3.364  0.1779  0.2739  0.3143
  355SOL    HW2 1186   2.456   6.368   3.268  0.8809 -1.3559  0.4643
  355SOL    HW3 1187   2.542   6.375   3.393 -0.0218  0.9707  1.0236
  355SOL    MW4 1188   2.463   6.375   3.355  0.2443  0.1508  0.4276
  356SOL     OW 1189   0.431   3.581   3.899 -0.4041  0.3098  0.0211
  356SOL    HW2 1190   0.394   3.641   3.964 -0.5067 -0.4751  0.7032
  356SOL    HW3 1191   0.355   3.553   3.847 -0.1885  1.7169 -1.1321
  356SOL    MW4 1192   0.416   3.585   3.900 -0.3892  0.3919 -0.0410
  357SOL     OW 1193   3.017   5.998   4.528  0.7681 -0.6627  0.5669
  357SOL    HW2 1194   3.060   6.068   4.479  0.3975 -0.9032 -0.1056
  357SOL    HW3 1195   2.985   5.938   4.462 -1.1813 -0.1697  0.9863
  357SOL    MW4 1196   3.018   6.000   4.513  0.4620 -0.6294  0.5335
  358SOL     OW 1197   1.420   1.316   3.808 -0.3192 -0.5212 -0.0324
  358SOL    HW2 1198   1.429   1.322   3.903 -0.5758  0.3115 -0.0561
  358SOL    HW3 1199   1.483   1.249   3.782  1.1621  0.6389  0.4960
  358SOL    MW4 1200   1.429   1.308   3.817 -0.1576 -0.2583  0.0342
  359SOL     OW 1201   4.940   3.816   0.203  0.0152  0.6134 -1.0395
  359SOL    HW2 1202   4.849   3.849   0.208 -0.5890 -0.9174 -1.4944
  359SOL    HW3 1203   4.961   3.790   0.292 -0.1130  0.6543 -0.9967
  359SOL    MW4 1204   4.930   3.817   0.215 -0.0814  0.4169 -1.0939
  360SOL     OW 1205   1.341   1.966   2.742 -0.3746  0.0648  0.6298
  360SOL    HW2 1206   1.279   1.949   2.670 -0.7213  0.1432  0.9068
  360SOL    HW3 1207   1.393   2.041   2.713  0.1422 -0.5083  0.0457
  360SOL    MW4 1208   1.340   1.973   2.729 -0.3522 -0.0005  0.5893
  361SOL     OW 1209   1.764   2.396   0.089  0.2742  0.0737  0.4125
  361SOL    HW2 1210   1.826   2.369   0.156  0.0825  0.8488  0.9101
  361SOL    HW3 1211   1.797   2.480   0.058 -0.0074  0.0392  0.0064
  361SOL    MW4 1212   1.777   2.404   0.094  0.2118  0.1714  0.4245
  362SOL     OW 1213   3.889   1.932   3.710 -0.3562 -0.4384  0.0335
  362SOL    HW2 1214   3.902   1.963   3.620  0.5016 -1.5282 -0.2375
  362SOL    HW3 1215   3.846   2.005   3.755 -0.3643  0.2956 -1.1383
  362SOL    MW4 1216   3.885   1.946   3.704 -0.2441 -0.4854 -0.1569
  363SOL     OW 1217   1.241   4.756   6.249 -0.4035 -0.0002  0.3033
  363SOL    HW2 1218   1.290   4.824   6.204 -0.5438  0.9140  1.4945
  363SOL    HW3 1219   1.166   4.739   6.193  0.1387  0.1086 -0.4768
  363SOL    MW4 1220   1.238   4.763   6.236 -0.3504  0.1348  0.3575
  364SOL     OW 1221   4.971   5.991   5.237  0.1039 -0.5676 -0.7105
  364SOL    HW2 1222   4.943   6.009   5.147 -1.1902 -1.5672 -0.5421
  364SOL    HW3 1223   4.897   6.021   5.290  0.8939  0.0904  0.0429
  364SOL    MW4 1224   4.957   5.997   5.232  0.0374 -0.6126 -0.5889
  365SOL     OW 1225   5.548   0.050   6.281 -0.0582  0.5080  0.0851
  365SOL    HW2 1226   5.596   0.058   6.199  1.5100  0.5712  0.9540
  365SOL    HW3 1227   5.502  -0.033   6.275  1.9349 -0.6572  0.0362
  365SOL    MW4 1228   5.549   0.040   6.270  0.4117  0.3626  0.1933
  366SOL     OW 1229   1.585   3.609   2.719  0.0171  0.2421  0.0655
  366SOL    HW2 1230   1.503   3.653   2.697  0.7935  0.8865 -1.7952
  366SOL    HW3 1231   1.560   3.538   2.778 -2.1157 -0.4677 -1.5627
  366SOL    MW4 1232   1.571   3.605   2.724 -0.1619  0.2334 -0.3948
  367SOL     OW 1233   2.840   3.138   1.756  0.8704 -0.1237 -0.4270
  367SOL    HW2 1234   2.843   3.043   1.770 -0.8097 -0.1926 -0.4236
  367SOL    HW3 1235   2.840   3.149   1.661  0.1002 -0.1747 -0.4359
  367SOL    MW4 1236   2.841   3.127   1.746  0.5471 -0.1395 -0.4278
  368SOL     OW 1237   0.740   2.779   3.089 -0.3396  0.3099 -0.3307
  368SOL    HW2 1238   0.666   2.839   3.075 -1.2473 -0.8932 -0.8703
  368SOL    HW3 1239   0.791   2.785   3.008  1.2414  2.5065  0.7155
  368SOL    MW4 1240   0.737   2.788   3.076 -0.2508  0.4410 -0.2639
  369SOL     OW 1241   2.865   1.638   5.198 -0.0609  0.1305 -0.2898
  369SOL    HW2 1242   2.802   1.608   5.262  1.3968 -0.3333  0.9960
  369SOL    HW3 1243   2.919   1.562   5.178  0.8514  0.7760 -0.4095
  369SOL    MW4 1244   2.864   1.624   5.204  0.2518  0.1545 -0.1359
  370SOL     OW 1245   2.323   4.858   5.909  0.4416  0.3742 -0.8807
  370SOL    HW2 1246   2.299   4.920   5.978 -0.2077 -1.3595  0.5229
  370SOL    HW3 1247   2.337   4.775   5.955 -2.5866 -1.5586 -3.0448
  370SOL    MW4 1248   2.322   4.855   5.924 -0.0436 -0.1095 -0.9810
  371SOL     OW 1249   2.259   1.027   5.583  0.1863  0.2348  0.3049
  371SOL    HW2 1250   2.298   1.069   5.506 -0.5652 -0.5688 -0.5447
  371SOL    HW3 1251   2.260   0.934   5.562 -0.8601  0.0788  0.8662
  371SOL    MW4 1252   2.264   1.020   5.570 -0.0509  0.1082  0.2669
  372SOL     OW 1253   5.987   5.599   3.686 -0.2021  0.1849  0.0603
  372SOL    HW2 1254   5.920   5.601   3.754  1.4442  0.0731  1.7679
  372SOL    HW3 1255   6.005   5.506   3.673 -0.3629  0.2136 -0.3899
  372SOL    MW4 1256   5.981   5.587   3.693 -0.0061  0.1740  0.2262
  373SOL     OW 1257   3.358   2.623   2.998  0.0888 -0.1967 -0.1756
  373SOL    HW2 1258   3.420   2.578   3.055  1.8018 -0.0383 -1.8110
  373SOL    HW3 1259   3.405   2.701   2.968 -2.1959  1.8925  1.2598
  373SOL    MW4 1260   3.373   2.627   3.002  0.0133  0.0998 -0.2020
  374SOL     OW 1261   2.650   4.088   0.999  0.0091  0.0618 -0.2472
  374SOL    HW2 1262   2.636   4.179   0.971 -0.2795  1.0894  2.8494
  374SOL    HW3 1263   2.569   4.066   1.046  0.8239 -1.1357  0.6240
  374SOL    MW4 1264   2.637   4.097   1.001  0.0786  0.0394  0.2763
  375SOL     OW 1265   0.967   2.252   0.874  0.0483 -0.2653 -0.6002
  375SOL    HW2 1266   1.011   2.169   0.895 -1.3720 -0.3484  2.6614
  375SOL    HW3 1267   1.038   2.314   0.862  1.1420 -1.3154  0.1614
  375SOL    MW4 1268   0.982   2.249   0.875  0.0052 -0.4148 -0.0694
  376SOL     OW 1269   0.292   5.234   6.209 -0.6585 -0.2596 -0.6765
  376SOL    HW2 1270   0.250   5.280   6.137  0.6511  0.9517 -0.7131
  376SOL    HW3 1271   0.319   5.304   6.269 -1.0114 -1.1876  0.6118
  376SOL    MW4 1272   0.290   5.250   6.208 -0.5322 -0.2222 -0.5113
  377SOL     OW 1273   2.009   3.207   6.103  0.3836  0.1849  0.0184
  377SOL    HW2 1274   2.069   3.151   6.152  1.0441  0.5934 -0.3256
  377SOL    HW3 1275   2.009   3.172   6.014  0.9439  0.8345 -0.2450
  377SOL    MW4 1276   2.017   3.195   6.098  0.5446  0.3245 -0.0617
  378SOL     OW 1277   5.036   5.069   6.376 -0.0695  0.3088 -0.7370
  378SOL    HW2 1278   4.984   5.065   6.295  0.0052  1.4372 -0.8627
  378SOL    HW3 1279   5.117   5.023   6.355 -0.4312 -0.2162 -1.0013
  378SOL    MW4 1280   5.040   5.063   6.362 -0.1073  0.3884 -0.7885
  379SOL     OW 1281   6.306   6.077   4.076 -0.3881 -0.2789 -0.0680
  379SOL    HW2 1282   6.386   6.091   4.127 -0.3777 -0.9393  0.0984
  379SOL    HW3 1283   6.253   6.155   4.093  0.2678  0.2265 -0.2793
  379SOL    MW4 1284   6.309   6.089   4.085 -0.3002 -0.2993 -0.0739
  380SOL     OW 1285   4.009   1.901   0.294 -0.2653 -0.8880 -0.1958
  380SOL    HW2 1286   4.010   1.847   0.216 -0.3655 -2.0675  0.5886
  380SOL    HW3 1287   3.918   1.902   0.322 -0.1743 -0.8054  0.1096
  380SOL    MW4 1288   3.997   1.894   0.288 -0.2665 -1.0327 -0.0520
  381SOL     OW 1289   0.956   0.724   2.038  0.1017  0.4276 -0.4822
  381SOL    HW2 1290   0.895   0.653   2.055  0.3932 -0.2096 -1.9277
  381SOL    HW3 1291   1.039   0.681   2.017  0.2685  1.1598 -1.4442
  381SOL    MW4 1292   0.959   0.709   2.037  0.1622  0.4401 -0.7999
  382SOL     OW 1293   0.249   5.585   5.910  0.4477 -0.2842  0.2706
  382SOL    HW2 1294   0.181   5.626   5.857 -0.5740 -0.6288  1.2836
  382SOL    HW3 1295   0.301   5.534   5.847  0.3103  0.6597 -0.6390
  382SOL    MW4 1296   0.247   5.584   5.894  0.2948 -0.2051  0.2843
  383SOL     OW 1297   2.354   4.271   3.421 -0.1310 -0.1124 -0.3095
  383SOL    HW2 1298   2.429   4.263   3.480 -0.1629 -1.0961 -0.3730
  383SOL    HW3 1299   2.282   4.300   3.476  0.1719  0.3520 -0.1508
  383SOL    MW4 1300   2.354   4.274   3.436 -0.0953 -0.1809 -0.2969
  384SOL     OW 1301   5.123   5.313   1.569 -0.2227 -0.1594 -0.4930
  384SOL    HW2 1302   5.151   5.261   1.644 -1.9093 -2.2720 -1.2195
  384SOL    HW3 1303   5.041   5.355   1.598  1.2418  2.4823  0.1765
  384SOL    MW4 1304   5.116   5.312   1.583 -0.2520 -0.0896 -0.5005
  385SOL     OW 1305   1.804   5.886   0.812 -0.1760 -0.9172  0.1516
  385SOL    HW2 1306   1.737   5.931   0.760  0.9114 -1.1140 -1.4767
  385SOL    HW3 1307   1.779   5.904   0.903 -0.8545  1.4006 -0.4119
  385SOL    MW4 1308   1.792   5.894   0.817 -0.1221 -0.6374 -0.1376
  386SOL     OW 1309   5.282   0.031   0.110  0.5396 -0.3527 -0.2154
  386SOL    HW2 1310   5.198   0.042   0.156 -0.0779  0.3374 -1.4578
  386SOL    HW3 1311   5.257   0.013   0.019  1.7574  0.3512 -0.7026
  386SOL    MW4 1312   5.267   0.030   0.104  0.6188 -0.1688 -0.4436
  387SOL     OW 1313   6.433   2.166   1.746 -0.6110  0.8939  0.3493
  387SOL    HW2 1314   6.485   2.246   1.748 -0.6058  0.8870  2.0193
  387SOL    HW3 1315   6.346   2.194   1.776 -0.4074  0.1568  1.6624
  387SOL    MW4 1316   6.428   2.180   1.750 -0.5834  0.7957  0.7429
  388SOL     OW 1317   1.722   0.153   0.633 -0.1001  0.8019  0.4213
  388SOL    HW2 1318   1.800   0.098   0.623  0.4673  1.3054  1.8360
  388SOL    HW3 1319   1.701   0.147   0.726 -1.4959  1.0427  0.1364
  388SOL    MW4 1320   1.729   0.145   0.644 -0.2094  0.9001  0.5704
  389SOL     OW 1321   4.238   2.018   0.580  0.1011 -0.4745  0.0403
  389SOL    HW2 1322   4.262   1.957   0.650  0.4241 -0.5378 -0.1253
  389SOL    HW3 1323   4.145   2.002   0.566 -0.5521  1.1255  2.0366
  389SOL    MW4 1324   4.229   2.008   0.588  0.0575 -0.2718  0.2819
  390SOL     OW 1325   6.026   0.301   5.715  0.6088  0.2008  0.0499
  390SOL    HW2 1326   5.936   0.291   5.747  0.0227 -2.3606 -2.0075
  390SOL    HW3 1327   6.023   0.381   5.663 -0.3899  0.3577  0.3137
  390SOL    MW4 1328   6.014   0.310   5.712  0.3997 -0.1164 -0.1867
  391SOL     OW 1329   2.048   3.813   2.760  0.3945 -0.1996  0.2078
  391SOL    HW2 1330   2.022   3.795   2.670 -1.5213 -2.0856  1.0698
  391SOL    HW3 1331   2.019   3.903   2.776  1.5274  0.4610 -1.2730
  391SOL    MW4 1332   2.040   3.823   2.751  0.2912 -0.3613  0.1261
  392SOL     OW 1333   2.253   6.168   2.286 -0.0987  0.1366 -0.1475
  392SOL    HW2 1334   2.324   6.231   2.293  0.0796 -0.1556  0.7896
  392SOL    HW3 1335   2.180   6.207   2.333  0.5821 -1.1114  2.1023
  392SOL    MW4 1336   2.253   6.181   2.293  0.0147 -0.0666  0.2730
  393SOL     OW 1337   4.761   1.019   0.449  0.4674 -0.2473 -0.0232
  393SOL    HW2 1338   4.786   1.063   0.530 -0.4014 -1.2750  0.8256
  393SOL    HW3 1339   4.833   0.959   0.431 -0.5201 -1.9763  1.4950
  393SOL    MW4 1340   4.774   1.017   0.457  0.2225 -0.6110  0.2891
  394SOL     OW 1341   1.960   4.737   3.946 -0.0963  1.0937 -0.4881
  394SOL    HW2 1342   1.959   4.832   3.932  0.2703  1.0909 -0.5530
  394SOL    HW3 1343   1.870   4.709   3.929 -0.5339  1.6125  0.8122
  394SOL    MW4 1344   1.948   4.746   3.942 -0.1056  1.1618 -0.3251
  395SOL     OW 1345   4.672   3.330   1.961 -0.0218 -0.1758 -0.4129
  395SOL    HW2 1346   4.674   3.338   1.865 -0.0628  0.9885 -0.3286
  395SOL    HW3 1347   4.587   3.366   1.986  0.4647  0.6087  0.1450
  395SOL    MW4 1348   4.661   3.336   1.951  0.0370  0.0813 -0.3281
  396SOL     OW 1349   5.844   1.241   3.011  0.2221  0.9042 -0.1282
  396SOL    HW2 1350   5.903   1.244   3.086  0.7058 -3.1623 -0.1095
  396SOL    HW3 1351   5.902   1.243   2.935  0.4401 -1.9161 -0.1313
  396SOL    MW4 1352   5.860   1.242   3.011  0.3147 -0.0044 -0.1262
  397SOL     OW 1353   5.510   0.041   3.782  0.7754 -0.1901 -0.0521
  397SOL    HW2 1354   5.440  -0.016   3.750  1.5732 -1.2363  0.0435
  397SOL    HW3 1355   5.543   0.085   3.704  1.0115 -0.8248 -0.3154
  397SOL    MW4 1356   5.505   0.040   3.768  0.9118 -0.4119 -0.0742
  398SOL     OW 1357   0.260   1.526   1.201  0.0765 -0.0846 -0.2935
  398SOL    HW2 1358   0.183   1.539   1.144  0.1562  0.0871 -0.3623
  398SOL    HW3 1359   0.266   1.431   1.210 -0.1997 -0.0968 -0.2139
  398SOL    MW4 1360   0.250   1.515   1.194  0.0505 -0.0636 -0.2921
  399SOL     OW 1361   2.241   5.545   1.353  0.0467 -0.0705 -0.4338
  399SOL    HW2 1362   2.218   5.530   1.445 -0.5410  2.2461 -0.1353
  399SOL    HW3 1363   2.171   5.501   1.304 -0.6457  0.2016  0.2785
  399SOL    MW4 1364   2.228   5.537   1.359 -0.1222  0.2710 -0.3004
  400SOL     OW 1365   4.182   5.366   3.238 -0.3692  0.6832 -1.2080
  400SOL    HW2 1366   4.165   5.289   3.293 -1.9317  0.6875 -1.6376
  400SOL    HW3 1367   4.148   5.342   3.152 -0.2006  1.5925 -1.5392
  400SOL    MW4 1368   4.176   5.353   3.234 -0.5531  0.8038 -1.3083
  401SOL     OW 1369   3.765   0.356   6.357  0.4940  0.2946  0.7509
  401SOL    HW2 1370   3.824   0.323   6.425  0.4559 -0.0898  0.5951
  401SOL    HW3 1371   3.782   0.450   6.355  2.5831 -0.0441 -0.6816
  401SOL    MW4 1372   3.775   0.364   6.366  0.7646  0.1992  0.5413
  402SOL     OW 1373   2.401   0.181   5.846  0.1262 -0.1663  0.4281
  402SOL    HW2 1374   2.410   0.093   5.810  0.4080  0.0661 -0.0858
  402SOL    HW3 1375   2.475   0.190   5.906 -0.1527 -0.4366  0.8121
  402SOL    MW4 1376   2.412   0.171   5.849  0.1266 -0.1713  0.4110
  403SOL     OW 1377   0.873   0.298   5.105  0.0883 -0.6137  0.2254
  403SOL    HW2 1378   0.908   0.293   5.194  1.2235 -0.4603 -0.1989
  403SOL    HW3 1379   0.939   0.255   5.051  0.1377  0.6492 -0.7401
  403SOL    MW4 1380   0.887   0.291   5.110  0.2445 -0.4268  0.0421
  404SOL     OW 1381   5.747   1.264   4.142 -0.0617 -0.4847  0.2733
  404SOL    HW2 1382   5.693   1.228   4.071 -1.1741  1.1112  0.2648
  404SOL    HW3 1383   5.694   1.254   4.221  1.0118 -1.8937  0.8606
  404SOL    MW4 1384   5.733   1.258   4.143 -0.0669 -0.4600  0.3497
  405SOL     OW 1385   0.219   3.579   3.709  0.2521  0.3161  0.0057
  405SOL    HW2 1386   0.185   3.660   3.671 -0.1039 -0.1061 -0.5925
  405SOL    HW3 1387   0.147   3.546   3.762 -0.4701 -0.7748 -1.5601
  405SOL    MW4 1388   0.205   3.585   3.711  0.1098  0.1165 -0.2798
  406SOL     OW 1389   2.364   0.169   3.507 -0.0280  0.2520  0.6245
  406SOL    HW2 1390   2.299   0.152   3.575  1.1900  1.3046  2.1237
  406SOL    HW3 1391   2.376   0.084   3.463 -1.1995 -0.3275  1.3910
  406SOL    MW4 1392   2.357   0.155   3.510 -0.0219  0.3144  0.9235
  407SOL     OW 1393   0.395   3.465   5.105  0.2909 -0.2503 -0.1211
  407SOL    HW2 1394   0.448   3.386   5.112 -0.6311 -1.2875 -3.2309
  407SOL    HW3 1395   0.330   3.457   5.174  0.8369 -1.6922  0.2509
  407SOL    MW4 1396   0.394   3.454   5.115  0.2413 -0.5774 -0.4823
  408SOL     OW 1397   3.619   4.024   0.112 -0.0207  0.5303  0.2168
  408SOL    HW2 1398   3.655   3.971   0.183  1.3328  1.1692  0.0383
  408SOL    HW3 1399   3.623   3.967   0.035  0.9908  0.7160  0.1225
  408SOL    MW4 1400   3.624   4.009   0.111  0.2913  0.6391  0.1808
  409SOL     OW 1401   4.520   0.347   4.188  0.1005 -0.1811 -0.1101
  409SOL    HW2 1402   4.614   0.334   4.205  0.2471  1.5340  0.5319
  409SOL    HW3 1403   4.515   0.433   4.146 -1.0764 -0.8466 -1.4195
  409SOL    MW4 1404   4.532   0.357   4.185 -0.0354 -0.0426 -0.1981
  410SOL     OW 1405   1.089   1.664   2.995 -0.8946  0.4037 -0.1578
  410SOL    HW2 1406   1.124   1.621   2.917  0.0784 -1.4903  1.2302
  410SOL    HW3 1407   1.104   1.601   3.065 -1.7504  2.0307  1.5662
  410SOL    MW4 1408   1.096   1.650   2.994 -0.8791  0.3685  0.2528
  411SOL     OW 1409   4.328   5.301   1.809 -0.9944  0.1432 -0.6508
  411SOL    HW2 1410   4.337   5.329   1.900  1.0460 -2.9124  0.2584
  411SOL    HW3 1411   4.323   5.382   1.759 -0.6351  1.9547  2.0517
  411SOL    MW4 1412   4.329   5.315   1.815 -0.6778 -0.0209 -0.1742
  412SOL     OW 1413   6.196   5.293   5.201 -0.4085  0.2703 -0.8486
  412SOL    HW2 1414   6.254   5.301   5.277  0.7854 -0.2072 -1.6844
  412SOL    HW3 1415   6.226   5.361   5.141 -1.3208  0.6121 -0.9297
  412SOL    MW4 1416   6.208   5.303   5.203 -0.3713  0.2524 -0.9695
  413SOL     OW 1417   3.997   3.868   2.428 -0.0381  0.1565  0.2021
  413SOL    HW2 1418   4.052   3.946   2.416  0.8038 -0.4385  0.1468
  413SOL    HW3 1419   4.009   3.845   2.520 -1.7560  1.1638  0.7384
  413SOL    MW4 1420   4.006   3.875   2.439 -0.1537  0.2109  0.2656
  414SOL     OW 1421   4.259   0.296   3.383  0.3415  0.5699  0.4723
  414SOL    HW2 1422   4.353   0.302   3.398  0.2593  1.4327  0.7158
  414SOL    HW3 1423   4.222   0.371   3.431 -0.3728  0.7765 -0.3691
  414SOL    MW4 1424   4.266   0.307   3.391  0.2364  0.7110  0.3934
  415SOL     OW 1425   1.793   2.899   5.214  0.0362  1.0037  0.5221
  415SOL    HW2 1426   1.747   2.874   5.294  0.7488  2.5132  1.4286
  415SOL    HW3 1427   1.849   2.972   5.239  0.4819  1.3464 -1.2994
  415SOL    MW4 1428   1.794   2.905   5.228  0.1890  1.2481  0.4014
  416SOL     OW 1429   4.657   2.012   5.922  0.9435 -0.5176  0.2761
  416SOL    HW2 1430   4.673   1.993   6.014 -2.1395 -3.1855  0.4266
  416SOL    HW3 1431   4.615   2.099   5.923 -0.0414 -0.9705  1.5498
  416SOL    MW4 1432   4.654   2.021   5.934  0.4068 -0.9294  0.4640
  417SOL     OW 1433   0.352   0.634   3.854 -0.3353  0.0536 -0.3358
  417SOL    HW2 1434   0.440   0.654   3.886  0.0159  0.9415 -1.7832
  417SOL    HW3 1435   0.309   0.719   3.847 -0.6598 -0.1930 -1.4388
  417SOL    MW4 1436   0.358   0.648   3.858 -0.3318  0.1382 -0.6723
  418SOL     OW 1437   0.652   2.187   3.893 -0.6504 -0.0788  0.1806
  418SOL    HW2 1438   0.655   2.214   3.985  0.0267  1.4525 -0.2650
  418SOL    HW3 1439   0.711   2.111   3.888  1.0087  1.1325  0.6142
  418SOL    MW4 1440   0.660   2.180   3.904 -0.3421  0.2830  0.1790
  419SOL     OW 1441   0.735   0.600   3.169  0.1036 -0.4160 -0.2088
  419SOL    HW2 1442   0.714   0.635   3.256 -1.8358  0.8948 -1.1372
  419SOL    HW3 1443   0.651   0.571   3.134  0.5555  0.6051 -2.2975
  419SOL    MW4 1444   0.721   0.601   3.176 -0.0927 -0.1084 -0.6068
  420SOL     OW 1445   4.642   0.481   2.154  0.3044 -0.4101 -0.3227
  420SOL    HW2 1446   4.641   0.436   2.239  2.8636  1.8561  1.0743
  420SOL    HW3 1447   4.572   0.547   2.161  0.7040 -0.0295  0.1938
  420SOL    MW4 1448   4.633   0.484   2.166  0.6948 -0.0609 -0.0703
  421SOL     OW 1449   5.546   1.952   3.481  0.3609  0.4712 -0.3354
  421SOL    HW2 1450   5.588   2.036   3.459  1.5716  0.2397  0.9698
  421SOL    HW3 1451   5.524   1.960   3.574  0.8563 -0.7997 -0.0935
  421SOL    MW4 1452   5.549   1.964   3.490  0.5860  0.2730 -0.1313
  422SOL     OW 1453   0.266   6.315   4.374 -0.3542  0.8465 -0.1059
  422SOL    HW2 1454   0.207   6.243   4.352  0.4765  0.5863 -1.5917
  422SOL    HW3 1455   0.293   6.351   4.290  1.2423  1.2549  0.5513
  422SOL    MW4 1456   0.262   6.310   4.360 -0.0340  0.8660 -0.2153
  423SOL     OW 1457   2.026   5.402   1.145 -0.3239 -0.6230  0.2326
  423SOL    HW2 1458   2.039   5.496   1.141 -2.7607 -0.2554 -1.1055
  423SOL    HW3 1459   2.021   5.383   1.239  1.2040  0.3756  0.5471
  423SOL    MW4 1460   2.027   5.412   1.157 -0.4438 -0.4427  0.0975
  424SOL     OW 1461   5.516   2.816   0.641  0.5944  0.1055  0.7772
  424SOL    HW2 1462   5.484   2.760   0.711 -0.8955 -1.4885 -1.0389
  424SOL    HW3 1463   5.596   2.773   0.610  0.4150 -0.0549  0.5291
  424SOL    MW4 1464   5.522   2.803   0.646  0.3741 -0.1260  0.5049
  425SOL     OW 1465   2.231   3.040   3.775  0.0256  0.1986  0.0220
  425SOL    HW2 1466   2.268   2.956   3.799 -0.6238  0.1179  0.7657
  425SOL    HW3 1467   2.143   3.040   3.813 -0.4764  0.6780 -1.0816
  425SOL    MW4 1468   2.224   3.029   3.783 -0.1263  0.2512 -0.0255
  426SOL     OW 1469   0.761   4.950   0.667  0.1111  0.3108  0.3215
  426SOL    HW2 1470   0.815   5.019   0.704 -1.6496  1.3970  0.9741
  426SOL    HW3 1471   0.740   4.981   0.579 -0.2326  0.3453  0.4157
  426SOL    MW4 1472   0.765   4.963   0.660 -0.1666  0.4586  0.4200
  427SOL     OW 1473   0.574   5.217   6.392  0.4351  0.2843  0.3615
  427SOL    HW2 1474   0.626   5.248   6.466  0.0777  1.7125  0.0506
  427SOL    HW3 1475   0.563   5.295   6.337  0.3783 -0.6615 -1.0061
  427SOL    MW4 1476   0.579   5.231   6.395  0.3805  0.3479  0.1401
  428SOL     OW 1477   0.657   1.291   5.781  0.2912 -0.0047 -0.4135
  428SOL    HW2 1478   0.749   1.301   5.756  0.2612 -2.1947 -1.5900
  428SOL    HW3 1479   0.610   1.281   5.698 -0.4080 -3.0969  0.2450
  428SOL    MW4 1480   0.663   1.291   5.767  0.1950 -0.7016 -0.4818
  429SOL     OW 1481   5.932   4.698   5.848 -0.2513 -0.1240  0.2249
  429SOL    HW2 1482   6.018   4.660   5.832 -0.2003  0.9307 -2.6333
  429SOL    HW3 1483   5.945   4.792   5.838 -1.4332  0.2290  1.5741
  429SOL    MW4 1484   5.945   4.706   5.844 -0.4005  0.0617  0.0258
  430SOL     OW 1485   3.607   3.915   2.822 -0.2690 -0.0435 -0.3516
  430SOL    HW2 1486   3.528   3.885   2.777  0.7899 -0.7533 -1.8186
  430SOL    HW3 1487   3.581   3.997   2.864 -1.1550  1.1018 -2.9301
  430SOL    MW4 1488   3.593   3.922   2.821 -0.2462  0.0140 -0.8854
  431SOL     OW 1489   2.291   5.480   3.060  0.4227 -0.0483 -0.0643
  431SOL    HW2 1490   2.251   5.565   3.044 -0.8707 -0.8302 -1.2097
  431SOL    HW3 1491   2.357   5.471   2.990 -1.6535 -1.2732 -2.0048
  431SOL    MW4 1492   2.294   5.490   3.048 -0.0219 -0.3131 -0.4714
  432SOL     OW 1493   5.285   6.107   1.070 -0.2397  0.1317 -0.6401
  432SOL    HW2 1494   5.279   6.140   0.980  0.4744  1.0226 -0.3755
  432SOL    HW3 1495   5.210   6.146   1.115  0.6851  1.5495 -0.2914
  432SOL    MW4 1496   5.274   6.116   1.064 -0.0234  0.4363 -0.5592
  433SOL     OW 1497   0.569   4.164   3.750  0.9681 -0.3010 -0.1164
  433SOL    HW2 1498   0.658   4.138   3.771  0.1883 -2.5280  0.7793
  433SOL    HW3 1499   0.521   4.155   3.833 -0.0416  1.1729 -0.4924
  433SOL    MW4 1500   0.574   4.160   3.764  0.7320 -0.4004 -0.0479
  434SOL     OW 1501   3.411   3.760   2.435  0.1078  0.2172 -0.2641
  434SOL    HW2 1502   3.428   3.730   2.346  0.1593 -1.0562  0.1454
  434SOL    HW3 1503   3.378   3.682   2.480  2.0145  0.2708  1.3647
  434SOL    MW4 1504   3.409   3.746   2.429  0.3662  0.0563  0.0049
  435SOL     OW 1505   1.549   2.011   5.155 -0.0473 -0.0779  0.1017
  435SOL    HW2 1506   1.618   1.992   5.092 -1.2513 -0.7788 -1.0448
  435SOL    HW3 1507   1.596   2.041   5.233  1.4912  0.6308 -1.0402
  435SOL    MW4 1508   1.564   2.013   5.157 -0.0032 -0.0768 -0.2002
  436SOL     OW 1509   2.761   1.835   2.808 -0.4291  0.2420  0.2612
  436SOL    HW2 1510   2.838   1.891   2.810 -1.6460  2.1674 -1.9393
  436SOL    HW3 1511   2.691   1.888   2.846 -1.2301 -0.4947 -0.1349
  436SOL    MW4 1512   2.762   1.849   2.813 -0.6954  0.3989 -0.0814
  437SOL     OW 1513   3.094   5.807   0.876 -0.0763 -0.1715  0.3676
  437SOL    HW2 1514   3.155   5.872   0.840  1.5281 -1.1605  1.1691
  437SOL    HW3 1515   3.053   5.851   0.950  1.6692 -0.2994  1.4730
  437SOL    MW4 1516   3.097   5.821   0.881  0.3656 -0.3189  0.6192
  438SOL     OW 1517   2.621   2.349   1.851  0.0018  0.7184  0.1012
  438SOL    HW2 1518   2.652   2.280   1.910 -1.7380  1.4860  2.0495
  438SOL    HW3 1519   2.700   2.395   1.824  1.0120 -0.7956  0.3397
  438SOL    MW4 1520   2.635   2.346   1.856 -0.0945  0.6199  0.3897
  439SOL     OW 1521   4.503   1.201   1.388  0.1854  0.3364  0.0509
  439SOL    HW2 1522   4.526   1.116   1.424 -1.5951 -0.1465  0.1422
  439SOL    HW3 1523   4.438   1.182   1.320 -1.4041  1.6887  1.1152
  439SOL    MW4 1524   4.497   1.187   1.384 -0.2593  0.4511  0.2034
  440SOL     OW 1525   5.476   4.875   0.483  0.0415 -0.1176 -0.0514
  440SOL    HW2 1526   5.424   4.837   0.554  2.2040  1.8714  2.8850
  440SOL    HW3 1527   5.449   4.967   0.481  0.1271 -0.1045 -1.7799
  440SOL    MW4 1528   5.466   4.882   0.492  0.3381  0.1466  0.1080
  441SOL     OW 1529   5.343   3.985   2.336  0.5827  0.1072 -0.2264
  441SOL    HW2 1530   5.367   4.039   2.411 -0.5169 -1.7529  1.5499
  441SOL    HW3 1531   5.274   4.035   2.292 -1.0874 -0.1817  1.9074
  441SOL    MW4 1532   5.337   3.999   2.340  0.2172 -0.1763  0.2895
  442SOL     OW 1533   2.165   4.613   1.492  0.5257 -0.0486  0.5088
  442SOL    HW2 1534   2.106   4.673   1.445  0.2648 -0.7064 -0.0186
  442SOL    HW3 1535   2.106   4.549   1.533  0.8441 -0.3672  0.4682
  442SOL    MW4 1536   2.149   4.613   1.491  0.5333 -0.1774  0.4339
  443SOL     OW 1537   2.149   5.246   6.307 -0.1628  0.0499  0.4741
  443SOL    HW2 1538   2.139   5.325   6.254  0.4950  0.0060  0.2705
  443SOL    HW3 1539   2.088   5.183   6.268 -0.4973  0.3715  0.4709
  443SOL    MW4 1540   2.140   5.248   6.295 -0.1202  0.0865  0.4468
  444SOL     OW 1541   1.909   4.703   0.346  0.4074 -0.0604 -0.3505
  444SOL    HW2 1542   1.976   4.771   0.347  0.3543 -0.0087 -0.3348
  444SOL    HW3 1543   1.898   4.679   0.438 -1.3840  1.6800 -0.0404
  444SOL    MW4 1544   1.916   4.709   0.358  0.1640  0.1761 -0.3075
  445SOL     OW 1545   4.136   6.199   6.325  0.1555  0.3444  0.2460
  445SOL    HW2 1546   4.172   6.133   6.266  0.2076  0.4624  0.1432
  445SOL    HW3 1547   4.098   6.265   6.267 -1.8125 -0.6130  0.3446
  445SOL    MW4 1548   4.136   6.199   6.310 -0.0973  0.2337  0.2454
  446SOL     OW 1549   5.451   4.207   2.084 -0.0661  0.2003  0.7834
  446SOL    HW2 1550   5.467   4.165   2.000  1.4063  0.2230  1.0413
  446SOL    HW3 1551   5.510   4.282   2.085  0.4634 -0.2092  2.1385
  446SOL    MW4 1552   5.461   4.212   2.073  0.1981  0.1492  0.9962
  447SOL     OW 1553   2.024   6.240   2.420  0.2495  0.5684  0.4499
  447SOL    HW2 1554   2.037   6.178   2.491  1.1021  1.4639  1.1043
  447SOL    HW3 1555   2.022   6.326   2.463 -1.0574  1.0012 -0.4115
  447SOL    MW4 1556   2.026   6.243   2.435  0.1895  0.7436  0.4226
  448SOL     OW 1557   4.761   3.885   2.686 -0.2009  0.2942 -0.3392
  448SOL    HW2 1558   4.825   3.881   2.615  0.5423  0.2872  0.3115
  448SOL    HW3 1559   4.780   3.968   2.730  0.9064 -0.7296  1.2391
  448SOL    MW4 1560   4.772   3.896   2.683  0.0433  0.1582 -0.0451
  449SOL     OW 1561   5.169   5.434   5.196 -0.2120  0.0423  0.3159
  449SOL    HW2 1562   5.225   5.482   5.257  0.2446  1.1982 -0.9374
  449SOL    HW3 1563   5.086   5.423   5.242  1.1150 -2.1388  2.4156
  449SOL    MW4 1564   5.165   5.439   5.210  0.0233 -0.0930  0.4276
  450SOL     OW 1565   3.237   5.924   4.737  0.0738 -0.5720 -0.1063
  450SOL    HW2 1566   3.316   5.891   4.694  0.3879 -1.1722  0.8892
  450SOL    HW3 1567   3.166   5.903   4.677  0.6899  0.2262 -1.1468
  450SOL    MW4 1568   3.238   5.917   4.724  0.1965 -0.5459 -0.1122
  451SOL     OW 1569   2.001   1.029   0.412  0.3224  0.6119 -0.1708
  451SOL    HW2 1570   2.091   1.006   0.434  0.4601  0.2624 -1.0446
  451SOL    HW3 1571   1.983   0.983   0.330 -0.7107  0.5476  0.0702
  451SOL    MW4 1572   2.010   1.020   0.404  0.2042  0.5573 -0.2543
  452SOL     OW 1573   3.592   4.848   0.936  0.7343 -0.1154  0.4784
  452SOL    HW2 1574   3.630   4.791   1.003  3.4332 -0.9146 -1.5459
  452SOL    HW3 1575   3.563   4.788   0.866 -1.9524  0.6942  0.7738
  452SOL    MW4 1576   3.593   4.832   0.935  0.7359 -0.1140  0.2503
  453SOL     OW 1577   6.117   2.662   4.377  0.1366  0.3045 -0.3830
  453SOL    HW2 1578   6.184   2.660   4.309 -0.0143 -0.4866 -0.5102
  453SOL    HW3 1579   6.055   2.593   4.353  0.5013 -0.5227  0.9846
  453SOL    MW4 1580   6.117   2.653   4.365  0.1648  0.0910 -0.2193
  454SOL     OW 1581   0.820   1.581   2.603 -0.1025  0.1581  0.6428
  454SOL    HW2 1582   0.835   1.513   2.538  0.1923  0.6232  0.2118
  454SOL    HW3 1583   0.905   1.626   2.611 -0.2239  0.3188  1.1008
  454SOL    MW4 1584   0.833   1.578   2.596 -0.0796  0.2407  0.6464
  455SOL     OW 1585   5.708   1.831   1.105  0.5438 -0.1965  0.8332
  455SOL    HW2 1586   5.702   1.833   1.201  0.1882  2.1083  0.8152
  455SOL    HW3 1587   5.619   1.846   1.075  0.4994 -1.7596  0.0899
  455SOL    MW4 1588   5.696   1.833   1.114  0.4910 -0.0986  0.7328
  456SOL     OW 1589   5.153   2.919   5.444  0.1143 -0.2394  0.0427
  456SOL    HW2 1590   5.215   2.939   5.373 -0.5505  0.2688 -0.4118
  456SOL    HW3 1591   5.155   2.824   5.452  0.2558 -0.2982 -0.6121
  456SOL    MW4 1592   5.162   2.909   5.435  0.0452 -0.1801 -0.1036
  457SOL     OW 1593   2.868   2.491   4.693 -0.4814  0.2269 -0.3893
  457SOL    HW2 1594   2.957   2.523   4.709 -0.3395  0.2364 -1.1794
  457SOL    HW3 1595   2.868   2.402   4.729  1.1349 -1.4257 -3.9729
  457SOL    MW4 1596   2.880   2.484   4.700 -0.2494  0.0101 -0.9664
  458SOL     OW 1597   3.674   2.662   0.126  0.1908 -0.2508  0.0109
  458SOL    HW2 1598   3.698   2.619   0.208 -2.2398  1.0502  1.5244
  458SOL    HW3 1599   3.579   2.674   0.132  0.0303  0.4810 -2.7197
  458SOL    MW4 1600   3.664   2.658   0.138 -0.1511  0.0174 -0.1497
  459SOL     OW 1601   1.592   1.295   6.291  0.2303  0.1633  1.0821
  459SOL    HW2 1602   1.631   1.375   6.255 -0.6542  0.7821  1.4632
  459SOL    HW3 1603   1.514   1.325   6.337 -0.6411 -1.0320  0.4268
  459SOL    MW4 1604   1.587   1.310   6.292 -0.0013  0.0873  1.0459
  460SOL     OW 1605   5.928   3.573   4.578  0.2140 -0.4073  0.3782
  460SOL    HW2 1606   5.970   3.598   4.496 -0.6351  0.7650  0.2663
  460SOL    HW3 1607   5.846   3.622   4.579 -1.4239 -3.0002  0.3544
  460SOL    MW4 1608   5.923   3.583   4.568 -0.1141 -0.5947  0.3603
  461SOL     OW 1609   5.632   4.095   3.400 -0.2538  0.1128 -0.4049
  461SOL    HW2 1610   5.628   4.076   3.306 -1.0363 -0.3383 -0.2974
  461SOL    HW3 1611   5.541   4.113   3.424 -0.2966 -1.1437  0.5213
  461SOL    MW4 1612   5.619   4.095   3.391 -0.3627 -0.1125 -0.2685
  462SOL     OW 1613   4.025   1.908   5.464  0.2711  0.0815 -0.1944
  462SOL    HW2 1614   4.029   2.002   5.483  0.3174  0.3379 -1.3898
  462SOL    HW3 1615   4.068   1.867   5.539  0.0652  0.9978  0.4450
  462SOL    MW4 1616   4.031   1.915   5.476  0.2500  0.2362 -0.2677
  463SOL     OW 1617   4.522   0.202   3.957  0.1362 -1.1864 -0.5609
  463SOL    HW2 1618   4.510   0.251   4.038 -1.1783 -0.9346 -0.8861
  463SOL    HW3 1619   4.613   0.173   3.960  0.6866  0.5009  0.0593
  463SOL    MW4 1620   4.532   0.205   3.968  0.0354 -0.9306 -0.5220
  464SOL     OW 1621   5.800   3.870   1.437  0.3189  0.6014 -0.0997
  464SOL    HW2 1622   5.884   3.876   1.391 -0.1890 -1.2036 -1.3202
  464SOL    HW3 1623   5.823   3.885   1.529  1.9469  0.3448 -0.4298
  464SOL    MW4 1624   5.814   3.873   1.443  0.4667  0.3294 -0.3043
  465SOL     OW 1625   2.032   5.789   1.977 -0.2180 -0.3971  0.1198
  465SOL    HW2 1626   2.084   5.867   1.960 -0.6916 -0.1091 -0.0089
  465SOL    HW3 1627   1.941   5.819   1.975 -0.4054 -0.9538  0.0314
  465SOL    MW4 1628   2.027   5.803   1.975 -0.3052 -0.4326  0.0912
  466SOL     OW 1629   2.961   1.016   1.212 -0.4335  0.4440 -0.1114
  466SOL    HW2 1630   2.918   0.969   1.284  0.7633  0.8455  0.8815
  466SOL    HW3 1631   3.034   0.960   1.187 -0.4753  0.6066 -0.6124
  466SOL    MW4 1632   2.965   1.002   1.218 -0.2811  0.5185 -0.0465
  467SOL     OW 1633   4.737   4.974   2.231 -0.0955 -0.1904 -0.1735
  467SOL    HW2 1634   4.738   4.922   2.150 -2.0503 -2.0339  0.8957
  467SOL    HW3 1635   4.762   4.912   2.299  1.7694  1.3915  0.7009
  467SOL    MW4 1636   4.741   4.959   2.229 -0.1074 -0.2249  0.0829
  468SOL     OW 1637   0.816   1.895   2.793 -0.4751 -0.5545  0.0939
  468SOL    HW2 1638   0.873   1.830   2.751 -0.4209  0.2746 -1.1622
  468SOL    HW3 1639   0.806   1.964   2.728 -0.5512  0.7018  1.3841
  468SOL    MW4 1640   0.822   1.895   2.779 -0.4780 -0.2793  0.0984
  469SOL     OW 1641   3.889   4.535   1.575  0.4209  0.0863 -0.7683
  469SOL    HW2 1642   3.826   4.607   1.569  0.4827  0.1666 -0.4820
  469SOL    HW3 1643   3.885   4.508   1.667  0.2012 -0.4535 -0.9299
  469SOL    MW4 1644   3.880   4.541   1.586  0.4000  0.0257 -0.7519
  470SOL     OW 1645   1.643   3.989   0.453 -0.1246  0.0654  0.4154
  470SOL    HW2 1646   1.666   4.081   0.439  2.0288 -0.5072 -0.0954
  470SOL    HW3 1647   1.547   3.988   0.447 -0.2284  2.2958  0.6718
  470SOL    MW4 1648   1.633   4.001   0.450  0.1458  0.2841  0.3818
  471SOL     OW 1649   1.573   4.127   2.654  0.3666  0.1258  0.0531
  471SOL    HW2 1650   1.597   4.153   2.743 -0.4820  2.0035 -0.2176
  471SOL    HW3 1651   1.605   4.199   2.598  0.1573 -0.6258 -1.0747
  471SOL    MW4 1652   1.581   4.140   2.658  0.2270  0.2744 -0.1314
  472SOL     OW 1653   3.166   6.038   6.302 -0.1136  0.6444  0.4466
  472SOL    HW2 1654   3.184   6.079   6.387  0.9587 -2.4638  1.8645
  472SOL    HW3 1655   3.073   6.015   6.307 -0.4299  1.7784  0.1122
  472SOL    MW4 1656   3.156   6.041   6.314 -0.0139  0.3840  0.5896
  473SOL     OW 1657   4.196   2.955   4.344 -0.1595 -0.1580  0.2423
  473SOL    HW2 1658   4.105   2.985   4.338  0.4704  1.7123 -4.6777
  473SOL    HW3 1659   4.195   2.868   4.305  0.4005  1.0685 -2.7414
  473SOL    MW4 1660   4.184   2.948   4.338 -0.0025  0.2506 -0.8005
  474SOL     OW 1661   5.643   5.981   0.713 -0.2885  0.1305 -0.3548
  474SOL    HW2 1662   5.610   6.071   0.714 -1.1855 -0.1640  1.4379
  474SOL    HW3 1663   5.688   5.971   0.797 -0.5532 -1.2143 -0.3472
  474SOL    MW4 1664   5.644   5.992   0.724 -0.4418 -0.0858 -0.1173
  475SOL     OW 1665   3.204   2.533   3.885 -0.0582 -0.5149  0.4911
  475SOL    HW2 1666   3.136   2.598   3.905 -0.0692 -0.7743  1.3393
  475SOL    HW3 1667   3.156   2.450   3.881 -0.2196 -0.3632 -1.6595
  475SOL    MW4 1668   3.188   2.531   3.887 -0.0810 -0.5291  0.3193
  476SOL     OW 1669   3.871   0.832   2.019  0.3498 -0.1111  0.5496
  476SOL    HW2 1670   3.891   0.919   2.053 -0.3011  0.0962  0.4309
  476SOL    HW3 1671   3.779   0.838   1.992  0.5519 -0.5770 -0.2685
  476SOL    MW4 1672   3.861   0.844   2.020  0.2906 -0.1453  0.4260
  477SOL     OW 1673   2.424   4.506   1.833 -0.1086 -0.0297 -0.3900
  477SOL    HW2 1674   2.455   4.466   1.752 -0.2610  1.2097 -1.0759
  477SOL    HW3 1675   2.348   4.453   1.858 -0.2232 -0.2597 -1.1973
  477SOL    MW4 1676   2.418   4.493   1.826 -0.1438  0.1035 -0.5870
  478SOL     OW 1677   1.010   4.270   3.773  0.2842  0.3027  0.1280
  478SOL    HW2 1678   1.005   4.351   3.721  0.7473 -1.1355 -2.3509
  478SOL    HW3 1679   1.076   4.217   3.727  1.7613 -0.5930  3.0499
  478SOL    MW4 1680   1.018   4.274   3.760  0.5402 -0.0053  0.1865
  479SOL     OW 1681   1.893   2.503   2.832  0.3871 -1.0836 -0.6663
  479SOL    HW2 1682   1.822   2.566   2.820  0.6632 -0.9182 -1.4837
  479SOL    HW3 1683   1.951   2.545   2.896 -1.1979 -2.0610  1.5452
  479SOL    MW4 1684   1.891   2.517   2.839  0.2144 -1.1907 -0.4824
  480SOL     OW 1685   0.028   0.686   2.846 -0.2712 -0.2513  0.4174
  480SOL    HW2 1686   0.041   0.726   2.760 -2.5775 -0.0731  0.0818
  480SOL    HW3 1687   0.070   0.746   2.907 -0.1907  0.5879 -0.4380
  480SOL    MW4 1688   0.035   0.699   2.843 -0.5648 -0.1171  0.2602
  481SOL     OW 1689   3.053   3.252   0.012  0.1430  0.0687  0.2778
  481SOL    HW2 1690   3.129   3.194   0.024  0.3521  0.2381 -0.1885
  481SOL    HW3 1691   2.996   3.233   0.087  1.0357  0.5505  1.1010
  481SOL    MW4 1692   3.056   3.241   0.023  0.2884  0.1547  0.3249
  482SOL     OW 1693   4.103   0.716   0.259 -0.0823 -0.3477  0.6719
  482SOL    HW2 1694   4.091   0.809   0.279 -0.8127 -0.0186 -1.1405
  482SOL    HW3 1695   4.198   0.704   0.256  0.0690  0.8706 -1.1999
  482SOL    MW4 1696   4.114   0.727   0.261 -0.1587 -0.1435  0.1858
  483SOL     OW 1697   4.468   5.691   4.680 -0.4576 -0.1193  0.0713
  483SOL    HW2 1698   4.395   5.749   4.660 -0.6307 -0.8109 -1.5089
  483SOL    HW3 1699   4.431   5.603   4.672  0.9914 -0.5953 -3.3182
  483SOL    MW4 1700   4.453   5.687   4.676 -0.2893 -0.2733 -0.5844
  484SOL     OW 1701   3.828   0.516   3.597 -0.2906  0.5348  0.4623
  484SOL    HW2 1702   3.742   0.493   3.561 -0.9057  0.6787  1.7676
  484SOL    HW3 1703   3.881   0.438   3.581 -1.0289 -0.0427  0.7463
  484SOL    MW4 1704   3.824   0.502   3.590 -0.4692  0.4776  0.6720
  485SOL     OW 1705   5.811   1.687   2.367 -0.2548  0.0071 -0.8589
  485SOL    HW2 1706   5.778   1.659   2.282 -0.6121  1.2837 -1.1640
  485SOL    HW3 1707   5.901   1.657   2.370 -0.8569 -1.9453 -0.7739
  485SOL    MW4 1708   5.818   1.679   2.356 -0.3814 -0.0820 -0.8879
  486SOL     OW 1709   0.967   4.372   1.808  0.0297 -0.1570  0.3662
  486SOL    HW2 1710   0.948   4.345   1.898  1.9544 -0.0105  0.8581
  486SOL    HW3 1711   1.021   4.300   1.773 -0.7633 -0.2450 -0.7009
  486SOL    MW4 1712   0.972   4.359   1.815  0.1790 -0.1493  0.2903
  487SOL     OW 1713   4.186   0.992   5.200 -0.5724  0.3199  0.1096
  487SOL    HW2 1714   4.101   0.959   5.230 -0.9363 -1.3362 -2.4010
  487SOL    HW3 1715   4.212   0.931   5.131  1.2943  2.4460 -1.2100
  487SOL    MW4 1716   4.179   0.979   5.195 -0.3741  0.3819 -0.3957
  488SOL     OW 1717   0.942   1.310   3.359  0.2204  0.0264  0.0514
  488SOL    HW2 1718   0.924   1.267   3.275  1.1250 -1.1906  0.4638
  488SOL    HW3 1719   0.870   1.281   3.416 -0.0582  0.3708 -0.1165
  488SOL    MW4 1720   0.930   1.301   3.355  0.3030 -0.0888  0.0837
  489SOL     OW 1721   6.105   2.665   5.778 -0.1898 -0.2115  0.0277
  489SOL    HW2 1722   6.168   2.673   5.706  0.8633 -0.1484  0.9334
  489SOL    HW3 1723   6.075   2.754   5.794 -1.6876 -0.4185 -1.3988
  489SOL    MW4 1724   6.110   2.678   5.770 -0.2485 -0.2305 -0.0410
  490SOL     OW 1725   3.380   5.053   4.606  0.1442  0.1009  0.2937
  490SOL    HW2 1726   3.387   4.999   4.685 -0.1063  0.4412  0.5481
  490SOL    HW3 1727   3.287   5.070   4.597  0.1987  0.2835  0.0666
  490SOL    MW4 1728   3.369   5.048   4.615  0.1184  0.1699  0.2973
  491SOL     OW 1729   3.184   0.109   5.958 -0.0683 -0.3638 -0.2774
  491SOL    HW2 1730   3.120   0.075   6.021 -2.5977  0.6798 -2.0818
  491SOL    HW3 1731   3.131   0.158   5.895  2.5195  0.1572 -2.2158
  491SOL    MW4 1732   3.168   0.111   5.958 -0.0606 -0.1574 -0.7712
  492SOL     OW 1733   2.877   3.533   0.357 -0.1415  0.0370 -0.5049
  492SOL    HW2 1734   2.972   3.547   0.362 -0.0569 -0.7690  0.6666
  492SOL    HW3 1735   2.867   3.460   0.296  0.1806 -1.2849  0.9642
  492SOL    MW4 1736   2.889   3.525   0.350 -0.0878 -0.2438 -0.1565
  493SOL     OW 1737   4.855   6.294   0.004 -0.1069 -0.0445  0.4684
  493SOL    HW2 1738   4.771   6.321   0.040  0.1094 -1.1949  1.9167
  493SOL    HW3 1739   4.861   6.201   0.024  1.4910  0.0035  0.3547
  493SOL    MW4 1740   4.844   6.285   0.011  0.1325 -0.1900  0.6445
  494SOL     OW 1741   3.291   6.300   0.780 -0.1009 -0.6711 -0.5317
  494SOL    HW2 1742   3.361   6.323   0.841  0.0319 -2.5670  0.0748
  494SOL    HW3 1743   3.286   6.205   0.783 -3.1225 -0.5936 -0.1120
  494SOL    MW4 1744   3.300   6.291   0.788 -0.4820 -0.9110 -0.3963
  495SOL     OW 1745   0.136   3.322   0.898  0.5561 -0.0397 -0.1139
  495SOL    HW2 1746   0.146   3.230   0.923 -3.1502 -1.3532 -2.6175
  495SOL    HW3 1747   0.156   3.324   0.804 -0.6388  1.4639 -0.3732
  495SOL    MW4 1748   0.140   3.310   0.889 -0.0906 -0.0146 -0.4784
  496SOL     OW 1749   3.925   0.135   0.953 -0.3370  0.4043 -0.4337
  496SOL    HW2 1750   3.994   0.158   0.891  0.8301  0.2471  0.7530
  496SOL    HW3 1751   3.970   0.085   1.021 -1.6857  0.0586  0.2355
  496SOL    MW4 1752   3.940   0.132   0.954 -0.3610  0.3380 -0.1888
  497SOL     OW 1753   2.190   3.124   1.466  0.4971 -0.1306  0.1269
  497SOL    HW2 1754   2.193   3.191   1.534 -0.5081  0.4811 -0.4146
  497SOL    HW3 1755   2.249   3.157   1.397 -0.1394  0.3002 -0.2198
  497SOL    MW4 1756   2.198   3.137   1.466  0.2805  0.0069  0.0097
  498SOL     OW 1757   5.417   2.800   4.867  0.8184  0.5892  0.5069
  498SOL    HW2 1758   5.430   2.743   4.792  1.2584  0.5994  0.5709
  498SOL    HW3 1759   5.322   2.805   4.878  0.7836 -0.8363  1.0295
  498SOL    MW4 1760   5.406   2.793   4.859  0.8719  0.4025  0.5843
  499SOL     OW 1761   6.358   2.566   1.262 -0.4656 -0.2412  0.6425
  499SOL    HW2 1762   6.321   2.509   1.196  0.1412 -0.9249  0.8731
  499SOL    HW3 1763   6.327   2.530   1.345 -0.8084  0.3060  0.7600
  499SOL    MW4 1764   6.349   2.554   1.265 -0.4308 -0.2592  0.6884
  500SOL     OW 1765   4.270   2.763   1.472 -0.2068 -0.5715  0.0315
  500SOL    HW2 1766   4.299   2.741   1.384  0.6797 -0.9866  0.4213
  500SOL    HW3 1767   4.326   2.713   1.530 -0.0833  0.4870  0.8659
  500SOL    MW4 1768   4.281   2.754   1.468 -0.0735 -0.4866  0.1930
  501SOL     OW 1769   5.759   2.086   3.123  0.6254  0.6189  0.1102
  501SOL    HW2 1770   5.843   2.065   3.163  0.6494  1.1760  0.3586
  501SOL    HW3 1771   5.705   2.117   3.195 -1.5864 -4.4796  1.1318
  501SOL    MW4 1772   5.763   2.087   3.137  0.3368  0.0198  0.2777
  502SOL     OW 1773   0.832   2.717   0.853  0.1564  0.4408  0.1861
  502SOL    HW2 1774   0.821   2.748   0.763 -0.9751  0.1946  0.2253
  502SOL    HW3 1775   0.797   2.789   0.907 -0.9349 -0.1849  0.3406
  502SOL    MW4 1776   0.826   2.731   0.848 -0.1369  0.3258  0.2116
  503SOL     OW 1777   2.914   2.846   6.062  0.2475  0.0420  0.0357
  503SOL    HW2 1778   2.878   2.797   6.136  0.8471 -0.2314  0.1501
  503SOL    HW3 1779   2.961   2.919   6.103  0.1989  0.1448 -0.0925
  503SOL    MW4 1780   2.916   2.849   6.077  0.3202  0.0195  0.0339
  504SOL     OW 1781   1.386   6.180   5.624  0.0978  0.2957  0.0808
  504SOL    HW2 1782   1.411   6.087   5.624 -0.4335  0.1520 -0.3503
  504SOL    HW3 1783   1.326   6.189   5.550 -0.3925  0.8407  0.5385
  504SOL    MW4 1784   1.382   6.169   5.615 -0.0370  0.3487  0.0843
  505SOL     OW 1785   5.456   0.290   5.571  0.0476  0.1204 -0.4979
  505SOL    HW2 1786   5.550   0.280   5.556 -0.2236 -0.5226 -1.8286
  505SOL    HW3 1787   5.450   0.327   5.660  1.5722  0.7562 -0.6356
  505SOL    MW4 1788   5.467   0.294   5.581  0.2130  0.1194 -0.6916
  506SOL     OW 1789   4.713   0.970   4.381 -0.3972  0.5938 -0.6370
  506SOL    HW2 1790   4.685   0.906   4.315 -1.8099  1.4285 -0.8894
  506SOL    HW3 1791   4.660   0.948   4.458 -2.1464  2.4260 -1.2288
  506SOL    MW4 1792   4.702   0.958   4.383 -0.8144  0.9457 -0.7484
  507SOL     OW 1793   4.942   1.195   0.331 -0.4927  0.3870 -0.5872
  507SOL    HW2 1794   4.893   1.150   0.400 -0.4973 -0.8173 -1.3607
  507SOL    HW3 1795   4.878   1.256   0.293 -0.9516 -0.1058 -0.6087
  507SOL    MW4 1796   4.927   1.197   0.335 -0.5539  0.1631 -0.6921
  508SOL     OW 1797   1.932   0.019   1.632 -0.1870 -0.0457 -0.1526
  508SOL    HW2 1798   2.016   0.000   1.673  0.5428 -0.0870 -1.6225
  508SOL    HW3 1799   1.894  -0.067   1.613  0.0570 -0.0421 -0.6872
  508SOL    MW4 1800   1.938   0.005   1.635 -0.0585 -0.0507 -0.4171
  509SOL     OW 1801   2.283   2.533   3.185  0.1108 -0.6054  0.0914
  509SOL    HW2 1802   2.245   2.562   3.268  0.3029 -1.3756  0.4607
  509SOL    HW3 1803   2.262   2.440   3.180 -0.9446 -0.3135 -1.3227
  509SOL    MW4 1804   2.275   2.524   3.195 -0.0031 -0.6685 -0.0465
  510SOL     OW 1805   4.344   3.246   0.997 -0.0433 -0.0869  0.3549
  510SOL    HW2 1806   4.291   3.324   1.010  0.2851  0.0207  1.0669
  510SOL    HW3 1807   4.287   3.186   0.949 -0.3863  0.4861  0.0447
  510SOL    MW4 1808   4.329   3.248   0.992 -0.0452  0.0029  0.4079
  511SOL     OW 1809   6.047   0.767   1.380  0.1243  0.0586  0.2111
  511SOL    HW2 1810   6.006   0.688   1.345  0.1308  0.6685 -1.2507
  511SOL    HW3 1811   6.128   0.736   1.420 -1.4136 -1.1027  2.6885
  511SOL    MW4 1812   6.052   0.752   1.381 -0.0778 -0.0141  0.3451
  512SOL     OW 1813   3.835   4.804   4.888 -0.0174  0.3835 -0.6287
  512SOL    HW2 1814   3.925   4.799   4.856  0.1786  0.7391 -0.1351
  512SOL    HW3 1815   3.783   4.821   4.809  0.1298 -1.5883 -1.2075
  512SOL    MW4 1816   3.840   4.805   4.873  0.0279  0.1702 -0.6399
  513SOL     OW 1817   3.762   2.297   5.440 -0.0050 -0.0351 -0.0885
  513SOL    HW2 1818   3.813   2.373   5.411  1.4861 -0.7576  0.5801
  513SOL    HW3 1819   3.749   2.245   5.360 -0.6370  0.6721 -0.4613
  513SOL    MW4 1820   3.767   2.301   5.426  0.1083 -0.0371 -0.0495
  514SOL     OW 1821   5.105   5.083   2.480 -0.1351  0.0369 -1.0456
  514SOL    HW2 1822   5.113   5.175   2.506  0.7078 -0.5168  0.8683
  514SOL    HW3 1823   5.043   5.045   2.542  0.8734 -1.0440 -0.6361
  514SOL    MW4 1824   5.098   5.090   2.492  0.1091 -0.1788 -0.7391
  515SOL     OW 1825   0.934   4.056   3.185 -0.4319 -0.1312 -0.4761
  515SOL    HW2 1826   0.984   4.045   3.104  0.1030 -2.7852  0.1034
  515SOL    HW3 1827   0.855   4.004   3.171 -0.8666  0.3048  0.3030
  515SOL    MW4 1828   0.930   4.048   3.173 -0.4187 -0.4238 -0.2969
  516SOL     OW 1829   0.179   0.091   0.280  0.6119 -0.4844 -0.0853
  516SOL    HW2 1830   0.233   0.063   0.206 -0.4682 -0.4068 -0.9315
  516SOL    HW3 1831   0.171   0.013   0.335 -1.9135 -1.8427 -2.1362
  516SOL    MW4 1832   0.185   0.077   0.277  0.1362 -0.6534 -0.4676
  517SOL     OW 1833   1.567   3.351   1.477  0.5326  0.0769  0.1436
  517SOL    HW2 1834   1.545   3.259   1.494  1.0729 -0.3556 -1.3696
  517SOL    HW3 1835   1.542   3.365   1.385 -0.8593  1.8568  0.7222
  517SOL    MW4 1836   1.561   3.341   1.467  0.4203  0.2547  0.0203
  518SOL     OW 1837   3.684   1.786   5.513  0.6784 -0.3045  0.1995
  518SOL    HW2 1838   3.738   1.707   5.513  0.6199 -0.4375  2.7545
  518SOL    HW3 1839   3.725   1.842   5.579 -0.3612  1.0303 -0.2560
  518SOL    MW4 1840   3.697   1.783   5.522  0.5335 -0.1459  0.4765
  519SOL     OW 1841   3.115   5.469   2.368  0.3096  0.2898 -0.2308
  519SOL    HW2 1842   3.203   5.463   2.405  1.4823  0.0096 -2.8633
  519SOL    HW3 1843   3.094   5.563   2.374  1.6371  0.6899 -1.3300
  519SOL    MW4 1844   3.124   5.481   2.374  0.6395  0.3056 -0.7232
  520SOL     OW 1845   0.928   5.519   0.003  0.1645  0.1559 -0.1229
  520SOL    HW2 1846   0.868   5.584  -0.033  0.0416 -0.2002 -0.5609
  520SOL    HW3 1847   0.873   5.462   0.057 -0.3159 -1.4574 -2.1858
  520SOL    MW4 1848   0.913   5.520   0.005  0.0849 -0.1040 -0.4529
  521SOL     OW 1849   2.697   3.074   3.041  0.0429 -0.3693 -0.1511
  521SOL    HW2 1850   2.727   3.150   2.992  0.8223  0.0806  0.9669
  521SOL    HW3 1851   2.634   3.109   3.104  1.4572 -0.3761  1.3300
  521SOL    MW4 1852   2.693   3.089   3.043  0.3323 -0.3109  0.1918
  522SOL     OW 1853   6.039   6.154   6.124  0.7420  0.1356  0.0749
  522SOL    HW2 1854   6.094   6.178   6.200  0.5601  0.8009  0.0068
  522SOL    HW3 1855   6.041   6.059   6.123  0.5118  0.1033  1.0978
  522SOL    MW4 1856   6.047   6.145   6.134  0.6876  0.2191  0.2009
  523SOL     OW 1857   5.539   1.706   4.223 -0.1667  0.1567  0.5045
  523SOL    HW2 1858   5.477   1.650   4.175 -0.8930  0.6019  0.9057
  523SOL    HW3 1859   5.550   1.783   4.167 -1.2644  0.8244  1.1663
  523SOL    MW4 1860   5.532   1.709   4.209 -0.4073  0.3036  0.6447
  524SOL     OW 1861   1.155   1.111   1.441  0.0164 -0.2419 -0.0845
  524SOL    HW2 1862   1.074   1.066   1.419 -1.0823  1.0049  1.1223
  524SOL    HW3 1863   1.215   1.092   1.369 -1.0248 -1.9746 -0.5379
  524SOL    MW4 1864   1.153   1.103   1.429 -0.2659 -0.3060  0.0149
  525SOL     OW 1865   1.103   2.072   5.869 -0.3158 -0.1987  0.4142
  525SOL    HW2 1866   1.099   1.981   5.838 -1.8674 -1.0463  2.8155
  525SOL    HW3 1867   1.039   2.118   5.815 -1.7086 -1.2418  1.1140
  525SOL    MW4 1868   1.094   2.066   5.858 -0.7042 -0.4482  0.8233
  526SOL     OW 1869   5.089   0.003   4.468  0.4780 -0.4860 -0.5342
  526SOL    HW2 1870   5.075   0.079   4.525  0.7582 -0.3597 -0.6304
  526SOL    HW3 1871   5.016   0.005   4.407  0.5110 -0.2643 -0.5669
  526SOL    MW4 1872   5.078   0.013   4.468  0.5193 -0.4401 -0.5512
  527SOL     OW 1873   3.097   3.305   5.752 -0.0055 -0.1172  0.1288
  527SOL    HW2 1874   3.115   3.234   5.814 -0.8334 -1.3085 -0.9556
  527SOL    HW3 1875   3.019   3.277   5.704  0.1295  1.1467 -0.9039
  527SOL    MW4 1876   3.089   3.292   5.754 -0.0969 -0.1076 -0.1505
  528SOL     OW 1877   4.429   5.049   5.903  0.1229 -0.1894 -0.0707
  528SOL    HW2 1878   4.472   4.997   5.971  1.1663 -0.6620 -1.0707
  528SOL    HW3 1879   4.479   5.131   5.900 -2.3978  1.6361  2.5373
  528SOL    MW4 1880   4.441   5.053   5.912 -0.0720 -0.0109  0.1415
  529SOL     OW 1881   5.988   2.553   5.521  0.9179 -0.0516  0.0242
  529SOL    HW2 1882   6.040   2.558   5.602  2.1029 -0.2202 -0.7060
  529SOL    HW3 1883   6.030   2.615   5.462 -0.3849  0.6006 -0.2298
  529SOL    MW4 1884   6.001   2.562   5.524  0.9024  0.0122 -0.1057
  530SOL     OW 1885   6.324   2.752   3.225 -0.3368 -0.0788  0.6918
  530SOL    HW2 1886   6.387   2.755   3.153 -0.4017 -0.2593  0.6259
  530SOL    HW3 1887   6.372   2.787   3.300 -0.0784 -0.4276  0.6957
  530SOL    MW4 1888   6.339   2.757   3.226 -0.3113 -0.1486  0.6836
  531SOL     OW 1889   6.284   6.362   3.499  0.4750 -0.3601 -0.7913
  531SOL    HW2 1890   6.267   6.441   3.551 -0.7265 -0.5013 -0.9362
  531SOL    HW3 1891   6.238   6.378   3.416  0.0291 -1.2998 -0.7344
  531SOL    MW4 1892   6.276   6.374   3.495  0.2576 -0.5028 -0.8029
  532SOL     OW 1893   1.721   1.451   0.585  0.3324  0.6815 -0.7144
  532SOL    HW2 1894   1.709   1.508   0.660  0.1190 -0.1065 -0.1300
  532SOL    HW3 1895   1.796   1.487   0.538  0.0937  1.5270 -0.4599
  532SOL    MW4 1896   1.729   1.463   0.588  0.2727  0.6891 -0.6038
  533SOL     OW 1897   0.526   0.208   2.116  0.2493  0.1166  0.3100
  533SOL    HW2 1898   0.437   0.205   2.082 -0.1832  0.5472  1.3599
  533SOL    HW3 1899   0.577   0.248   2.046 -0.5324  0.5687 -0.0113
  533SOL    MW4 1900   0.521   0.213   2.103  0.0891  0.2331  0.4061
  534SOL     OW 1901   5.463   2.150   1.753  0.0878 -0.3222 -0.6634
  534SOL    HW2 1902   5.523   2.149   1.678  0.2725  3.3862 -0.7447
  534SOL    HW3 1903   5.376   2.160   1.714 -0.0175 -0.2917 -0.4189
  534SOL    MW4 1904   5.460   2.151   1.738  0.0983  0.1711 -0.6419
  535SOL     OW 1905   2.322   5.621   6.315 -0.0681  0.0550 -0.0384
  535SOL    HW2 1906   2.312   5.695   6.255  0.2629 -1.0401 -1.4932
  535SOL    HW3 1907   2.339   5.546   6.258  0.3996 -1.0067  1.4458
  535SOL    MW4 1908   2.323   5.621   6.300  0.0373 -0.2295 -0.0345
  536SOL     OW 1909   0.373   2.314   6.389 -0.2140 -0.1642 -0.1035
  536SOL    HW2 1910   0.369   2.222   6.414 -0.2230  0.3992  2.2102
  536SOL    HW3 1911   0.285   2.348   6.403  0.0345  0.4328  0.0820
  536SOL    MW4 1912   0.361   2.307   6.394 -0.1824 -0.0111  0.2262
  537SOL     OW 1913   0.930   3.191   4.943 -0.6926  0.3493  0.0728
  537SOL    HW2 1914   0.941   3.286   4.945 -0.2435  0.3008  0.0269
  537SOL    HW3 1915   0.945   3.167   4.851 -0.7011  0.2233  0.1040
  537SOL    MW4 1916   0.934   3.200   4.931 -0.6345  0.3263  0.0709
  538SOL     OW 1917   1.545   2.754   3.177 -0.0718  0.3285 -0.1570
  538SOL    HW2 1918   1.508   2.751   3.089  0.0546  0.8932 -0.2344
  538SOL    HW3 1919   1.496   2.824   3.221  2.4839  2.8537 -1.0121
  538SOL    MW4 1920   1.534   2.763   3.172  0.2820  0.7362 -0.2800
  539SOL     OW 1921   3.526   1.542   1.784  0.1514  0.1488  0.1902
  539SOL    HW2 1922   3.452   1.568   1.729  0.8122  0.6791 -0.4637
  539SOL    HW3 1923   3.500   1.569   1.872 -0.0597  1.1847 -0.1672
  539SOL    MW4 1924   3.512   1.549   1.788  0.2107  0.3555  0.0568
  540SOL     OW 1925   1.251   1.494   1.182 -0.3134 -0.3486 -0.3546
  540SOL    HW2 1926   1.320   1.442   1.141 -1.3722 -0.9301 -1.4815
  540SOL    HW3 1927   1.226   1.445   1.260 -0.5832 -1.0200 -0.8498
  540SOL    MW4 1928   1.257   1.481   1.187 -0.4887 -0.5139 -0.5686
  541SOL     OW 1929   3.138   3.488   6.320 -0.2247  0.1913 -0.6006
  541SOL    HW2 1930   3.106   3.415   6.373 -0.7387  0.7578 -0.1190
  541SOL    HW3 1931   3.173   3.550   6.383  0.5816  0.1946 -1.0346
  541SOL    MW4 1932   3.138   3.486   6.335 -0.1861  0.2665 -0.5943
  542SOL     OW 1933   6.059   2.796   1.680 -0.5072 -0.1133 -0.6800
  542SOL    HW2 1934   6.005   2.867   1.645  0.4984  0.3681 -1.3141
  542SOL    HW3 1935   6.149   2.820   1.655 -0.0243 -1.0086  0.1373
  542SOL    MW4 1936   6.064   2.808   1.672 -0.3108 -0.1679 -0.6558
  543SOL     OW 1937   1.796   5.129   4.941 -0.3448 -0.8184  0.5059
  543SOL    HW2 1938   1.755   5.176   5.014  1.2177  0.2797  0.7051
  543SOL    HW3 1939   1.889   5.147   4.949 -0.0763 -1.0704 -1.4990
  543SOL    MW4 1940   1.803   5.138   4.952 -0.1032 -0.7068  0.2677
  544SOL     OW 1941   5.918   3.851   2.690 -0.0286  0.4311 -0.5888
  544SOL    HW2 1942   5.923   3.779   2.627 -1.3734  1.2139 -1.6457
  544SOL    HW3 1943   5.896   3.809   2.773 -1.9910 -0.3029 -1.4390
  544SOL    MW4 1944   5.916   3.836   2.692 -0.4650  0.4375 -0.8404
  545SOL     OW 1945   6.028   2.696   3.077  0.2734  0.0823 -0.2974
  545SOL    HW2 1946   6.014   2.646   2.996  0.3047  0.2358 -0.3979
  545SOL    HW3 1947   5.940   2.724   3.103  0.1406 -0.8374  0.2845
  545SOL    MW4 1948   6.014   2.693   3.069  0.2600 -0.0188 -0.2339
  546SOL     OW 1949   1.674   0.520   3.568 -0.1565  0.2104  0.5784
  546SOL    HW2 1950   1.579   0.527   3.566 -0.2104 -0.4694  0.3821
  546SOL    HW3 1951   1.704   0.573   3.494 -0.4120  0.0694  0.3716
  546SOL    MW4 1952   1.665   0.528   3.558 -0.1973  0.1021  0.5252
  547SOL     OW 1953   0.633   2.823   4.612 -0.3258 -0.0858 -0.1828
  547SOL    HW2 1954   0.591   2.894   4.563  0.2282  0.5604  0.2593
  547SOL    HW3 1955   0.676   2.770   4.545  0.7828  1.0289 -0.3840
  547SOL    MW4 1956   0.633   2.825   4.597 -0.1065  0.1465 -0.1510
  548SOL     OW 1957   2.497   6.273   4.501  0.2476 -0.1624 -0.3270
  548SOL    HW2 1958   2.443   6.345   4.534 -0.2907 -0.7271  0.0349
  548SOL    HW3 1959   2.587   6.300   4.518  0.0240  0.1685  0.3335
  548SOL    MW4 1960   2.502   6.286   4.508  0.1470 -0.1932 -0.1921
  549SOL     OW 1961   3.452   5.700   4.223 -0.0141 -0.0159 -0.0002
  549SOL    HW2 1962   3.497   5.772   4.268  0.1447 -1.7767  2.9475
  549SOL    HW3 1963   3.360   5.727   4.220  0.4005  1.3960 -1.4052
  549SOL    MW4 1964   3.446   5.713   4.229  0.0616 -0.0619  0.2033
  550SOL     OW 1965   5.397   0.668   4.665  0.3074  0.4619 -0.2726
  550SOL    HW2 1966   5.388   0.575   4.642 -2.4590  0.7089 -0.4929
  550SOL    HW3 1967   5.480   0.673   4.713  0.3085 -2.2122  0.1470
  550SOL    MW4 1968   5.407   0.656   4.668 -0.0575  0.1417 -0.2463
  551SOL     OW 1969   1.982   1.329   5.286 -0.3962 -0.4790 -0.2835
  551SOL    HW2 1970   1.997   1.317   5.380 -2.3611 -1.8709 -0.0869
  551SOL    HW3 1971   2.035   1.260   5.245  0.9770  0.5334 -0.2930
  551SOL    MW4 1972   1.991   1.318   5.293 -0.4743 -0.5291 -0.2588
  552SOL     OW 1973   6.283   1.104   1.161 -0.0381  0.1093  0.2779
  552SOL    HW2 1974   6.260   1.021   1.120  1.5378  0.2647 -1.0601
  552SOL    HW3 1975   6.203   1.155   1.160 -0.3202 -0.2872 -1.7475
  552SOL    MW4 1976   6.270   1.100   1.156  0.1326  0.0775 -0.1659
  553SOL     OW 1977   0.351   1.251   5.052  0.2016 -0.1366  0.3625
  553SOL    HW2 1978   0.279   1.210   5.004 -0.2962  2.1464 -0.9590
  553SOL    HW3 1979   0.416   1.181   5.061 -0.3656 -1.1098 -2.2628
  553SOL    MW4 1980   0.350   1.236   5.047  0.0611  0.0362 -0.1582
  554SOL     OW 1981   0.846   4.499   3.410 -0.4116 -0.1137 -0.2816
  554SOL    HW2 1982   0.886   4.579   3.378  1.9017 -0.4600  1.4833
  554SOL    HW3 1983   0.876   4.431   3.349 -1.2646  0.1147 -0.9853
  554SOL    MW4 1984   0.855   4.500   3.398 -0.2189 -0.1293 -0.1415
  555SOL     OW 1985   2.915   2.742   1.451 -0.1118 -0.4976 -0.3427
  555SOL    HW2 1986   2.969   2.684   1.505 -0.8364 -0.3767  0.5485
  555SOL    HW3 1987   2.960   2.826   1.452 -1.2036  0.1689  2.0092
  555SOL    MW4 1988   2.928   2.745   1.458 -0.3515 -0.3937  0.0852
  556SOL     OW 1989   2.521   1.391   6.051  0.0428  0.4022  0.0570
  556SOL    HW2 1990   2.604   1.382   6.004 -0.3118  0.1764 -0.5421
  556SOL    HW3 1991   2.546   1.412   6.140  0.7311  0.8456 -0.2350
  556SOL    MW4 1992   2.535   1.392   6.056  0.0868  0.4309 -0.0606
  557SOL     OW 1993   3.085   0.230   3.123 -0.0169  0.1604 -0.1435
  557SOL    HW2 1994   3.166   0.239   3.174  0.7580 -0.8971 -1.1446
  557SOL    HW3 1995   3.028   0.298   3.158  0.2957 -0.8171  2.4849
  557SOL    MW4 1996   3.088   0.240   3.134  0.1266 -0.1081  0.0712
  558SOL     OW 1997   1.297   2.139   2.048 -0.5078  0.3540 -0.2388
  558SOL    HW2 1998   1.302   2.180   1.962  0.1707 -0.4433 -0.5938
  558SOL    HW3 1999   1.280   2.046   2.030 -1.5738  0.3788  0.5304
  558SOL    MW4 2000   1.296   2.132   2.034 -0.5589  0.2520 -0.1841
  559SOL     OW 2001   6.398   5.298   0.436  0.2289  0.2124 -0.0274
  559SOL    HW2 2002   6.437   5.264   0.356  0.5339 -1.3951  0.7634
  559SOL    HW3 2003   6.372   5.220   0.485  4.0332  0.7740  3.4652
  559SOL    MW4 2004   6.400   5.284   0.432  0.7711  0.0744  0.5377
  560SOL     OW 2005   1.961   3.522   4.518 -0.3311  0.3782  0.5540
  560SOL    HW2 2006   2.047   3.553   4.490 -0.9286  3.0286  1.3727
  560SOL    HW3 2007   1.914   3.508   4.436  0.3911  0.4370  0.1190
  560SOL    MW4 2008   1.966   3.524   4.503 -0.3146  0.7356  0.6046
  561SOL     OW 2009   1.373   5.799   3.888 -0.3688  0.4217 -0.5368
  561SOL    HW2 2010   1.284   5.766   3.879 -0.0121 -0.5935 -0.5485
  561SOL    HW3 2011   1.389   5.847   3.807 -0.2064 -1.1734 -1.5030
  561SOL    MW4 2012   1.364   5.801   3.876 -0.3003  0.0773 -0.6658
  562SOL     OW 2013   3.318   4.626   2.945 -0.5423  0.1596 -0.8688
  562SOL    HW2 2014   3.281   4.594   3.027 -0.1795 -0.8042 -1.0720
  562SOL    HW3 2015   3.411   4.640   2.965 -0.5180  0.2308 -1.0297
  562SOL    MW4 2016   3.326   4.624   2.959 -0.4912  0.0418 -0.9168
  563SOL     OW 2017   4.025   1.288   6.199 -0.1517  0.3942 -0.0589
  563SOL    HW2 2018   4.062   1.334   6.123 -2.3483 -0.6197 -1.8517
  563SOL    HW3 2019   4.063   1.201   6.195 -0.9684  0.0551 -0.5597
  563SOL    MW4 2020   4.035   1.283   6.189 -0.5493  0.2157 -0.3615
  564SOL     OW 2021   2.500   4.272   5.281  0.2718  0.4661  0.7137
  564SOL    HW2 2022   2.408   4.280   5.304  0.2257  0.3302  0.5770
  564SOL    HW3 2023   2.525   4.359   5.247 -0.0741  0.2153 -0.2201
  564SOL    MW4 2024   2.491   4.285   5.279  0.2201  0.4151  0.5725
  565SOL     OW 2025   5.621   3.829   0.130 -0.7015  0.3104  0.0567
  565SOL    HW2 2026   5.527   3.828   0.111 -0.7189  1.9384 -0.0710
  565SOL    HW3 2027   5.660   3.875   0.056  0.2950 -0.9067 -0.2014
  565SOL    MW4 2028   5.614   3.835   0.118 -0.5723  0.3646  0.0058
  566SOL     OW 2029   3.490   5.517   2.745  0.0640 -0.1451  0.5907
  566SOL    HW2 2030   3.544   5.570   2.687  0.4269  0.0103  1.0692
  566SOL    HW3 2031   3.402   5.556   2.739 -0.2300 -0.9667 -0.9090
  566SOL    MW4 2032   3.485   5.529   2.737  0.0731 -0.2330  0.4559
  567SOL     OW 2033   6.206   4.571   2.338  1.1571  0.5695 -0.0050
  567SOL    HW2 2034   6.135   4.609   2.390  0.7386  0.8058 -0.7398
  567SOL    HW3 2035   6.267   4.643   2.324  1.1923  0.5460  0.0272
  567SOL    MW4 2036   6.205   4.585   2.343  1.1066  0.5976 -0.0977
  568SOL     OW 2037   1.901   1.056   3.588 -0.5611  0.0217  0.2429
  568SOL    HW2 2038   1.915   0.965   3.564 -0.6520  0.1750 -0.3886
  568SOL    HW3 2039   1.965   1.072   3.659  0.9789  0.0815 -1.0978
  568SOL    MW4 2040   1.911   1.046   3.594 -0.3699  0.0498 -0.0173
  569SOL     OW 2041   5.658   5.845   2.431  0.4336  0.3318 -0.3383
  569SOL    HW2 2042   5.717   5.920   2.441  1.0591 -0.1589 -0.3123
  569SOL    HW3 2043   5.668   5.796   2.512  1.2680 -0.6489 -1.0092
  569SOL    MW4 2044   5.667   5.849   2.443  0.6262  0.1377 -0.4234
  570SOL     OW 2045   0.397   5.076   4.346  0.0405 -0.1974  0.4577
  570SOL    HW2 2046   0.387   5.152   4.403  0.3004  0.3816 -0.2435
  570SOL    HW3 2047   0.346   5.007   4.388  1.5775 -0.3017  2.2777
  570SOL    MW4 2048   0.389   5.077   4.359  0.2775 -0.1348  0.6053
  571SOL     OW 2049   4.419   1.984   2.396 -0.7087  0.1592  0.0239
  571SOL    HW2 2050   4.416   1.975   2.301 -0.8757 -1.8138  0.1848
  571SOL    HW3 2051   4.445   1.898   2.428  0.1037  0.9908  1.7409
  571SOL    MW4 2052   4.422   1.971   2.388 -0.6236  0.0086  0.2717
  572SOL     OW 2053   3.908   5.037   6.277  0.6820 -0.3904 -0.8173
  572SOL    HW2 2054   3.849   5.101   6.237 -0.5929  0.2577  1.8963
  572SOL    HW3 2055   3.979   5.089   6.314 -2.0098  0.2741  4.4302
  572SOL    MW4 2056   3.910   5.052   6.277  0.1586 -0.2172  0.2331
  573SOL     OW 2057   2.464   5.292   5.172  0.7221 -0.1322  0.1720
  573SOL    HW2 2058   2.537   5.345   5.205  0.9426 -1.1025  1.3012
  573SOL    HW3 2059   2.464   5.214   5.227  0.5514 -1.4349 -1.5879
  573SOL    MW4 2060   2.474   5.289   5.184  0.7287 -0.4321  0.0888
  574SOL     OW 2061   0.055   0.623   6.034 -0.4355 -0.0566  0.6865
  574SOL    HW2 2062  -0.018   0.642   5.975  0.1660  0.3483  0.0624
  574SOL    HW3 2063   0.047   0.529   6.051 -1.4645  0.0926  1.1388
  574SOL    MW4 2064   0.044   0.613   6.028 -0.4919  0.0165  0.6638
  575SOL     OW 2065   5.670   5.933   5.455 -0.4069  0.3304 -0.2227
  575SOL    HW2 2066   5.647   5.969   5.369  0.4155  1.3235 -0.0450
  575SOL    HW3 2067   5.723   6.001   5.496 -0.5781 -0.2425  0.9797
  575SOL    MW4 2068   5.674   5.947   5.449 -0.3210  0.3859 -0.0406
  576SOL     OW 2069   5.066   2.724   3.916 -0.5141  0.1769 -0.1908
  576SOL    HW2 2070   5.115   2.668   3.976 -0.6334  0.5027  0.2138
  576SOL    HW3 2071   5.113   2.808   3.918 -0.9604  0.4263  0.0390
  576SOL    MW4 2072   5.079   2.728   3.924 -0.5887  0.2528 -0.1071
  577SOL     OW 2073   1.047   0.117   2.516  0.2987  0.5532 -0.5967
  577SOL    HW2 2074   0.974   0.058   2.502  1.2707 -0.7472 -0.4262
  577SOL    HW3 2075   1.106   0.101   2.442 -0.1619  2.5335 -1.4508
  577SOL    MW4 2076   1.045   0.107   2.505  0.3662  0.6429 -0.6869
  578SOL     OW 2077   5.502   2.387   2.405  0.3398 -0.1435  0.1452
  578SOL    HW2 2078   5.440   2.350   2.342 -0.7258  0.9732  0.5051
  578SOL    HW3 2079   5.587   2.377   2.363  0.1232 -2.8695  0.1860
  578SOL    MW4 2080   5.505   2.381   2.391  0.1706 -0.3558  0.1981
  579SOL     OW 2081   3.694   2.911   0.452 -0.4032  0.1651 -0.0229
  579SOL    HW2 2082   3.738   2.901   0.537 -0.0106  0.2276 -0.2168
  579SOL    HW3 2083   3.660   3.001   0.453 -0.0054  0.3178 -0.1136
  579SOL    MW4 2084   3.695   2.922   0.463 -0.2989  0.1935 -0.0604
  580SOL     OW 2085   6.336   1.705   4.057  0.1326 -0.0459  0.4038
  580SOL    HW2 2086   6.339   1.609   4.049  2.1325 -0.0881  1.2103
  580SOL    HW3 2087   6.417   1.735   4.017 -0.8363  1.4139 -0.5560
  580SOL    MW4 2088   6.347   1.696   4.051  0.2686  0.1411  0.3836
  581SOL     OW 2089   3.425   1.917   3.696  0.5697 -0.0142  0.8541
  581SOL    HW2 2090   3.444   2.006   3.665 -0.4076  0.3044  1.1226
  581SOL    HW3 2091   3.446   1.919   3.789 -0.0293  0.1249  0.9922
  581SOL    MW4 2092   3.430   1.929   3.704  0.3617  0.0462  0.9077
  582SOL     OW 2093   3.473   6.078   0.499 -0.3915 -0.2419  0.6078
  582SOL    HW2 2094   3.420   6.156   0.479 -1.0387 -1.0548 -1.0784
  582SOL    HW3 2095   3.505   6.093   0.588 -1.5747  1.3369  0.8186
  582SOL    MW4 2096   3.470   6.090   0.508 -0.6330 -0.1409  0.4131
  583SOL     OW 2097   1.143   0.038   0.720 -0.3017  0.0452  0.2982
  583SOL    HW2 2098   1.228   0.077   0.703  0.2481 -1.1599  0.2060
  583SOL    HW3 2099   1.137   0.032   0.815  0.1254 -0.6966  0.2911
  583SOL    MW4 2100   1.153   0.042   0.730 -0.1728 -0.2116  0.2851
  584SOL     OW 2101   6.025   5.149   0.984 -0.0305  0.2331  0.4278
  584SOL    HW2 2102   6.045   5.156   0.890 -1.2500  1.5610  0.2353
  584SOL    HW3 2103   6.103   5.108   1.022 -0.5337 -2.9010 -1.5212
  584SOL    MW4 2104   6.038   5.145   0.977 -0.2578 -0.0052  0.1453
  585SOL     OW 2105   2.651   5.658   3.035 -0.4391 -0.4602  0.5623
  585SOL    HW2 2106   2.648   5.736   2.980  1.3592 -0.7504 -0.0069
  585SOL    HW3 2107   2.577   5.669   3.095  0.3676  2.2449  1.2224
  585SOL    MW4 2108   2.641   5.670   3.036 -0.0954 -0.1416  0.5743
  586SOL     OW 2109   2.087   0.471   3.026  0.2140 -0.0784  0.1682
  586SOL    HW2 2110   2.110   0.488   2.935 -0.9349 -1.1163 -0.3499
  586SOL    HW3 2111   2.166   0.493   3.075  0.5036  1.5989 -0.9333
  586SOL    MW4 2112   2.100   0.476   3.020  0.1006  0.0060 -0.0455
  587SOL     OW 2113   1.936   3.944   1.678  0.2569 -0.1236  0.3545
  587SOL    HW2 2114   1.879   3.906   1.611  1.6226  0.9375 -1.5029
  587SOL    HW3 2115   1.888   3.931   1.760 -2.6841  0.7504 -1.0885
  587SOL    MW4 2116   1.922   3.937   1.680  0.0491  0.1317 -0.0809
  588SOL     OW 2117   1.204   2.498   1.606  0.9054 -0.2293  0.4355
  588SOL    HW2 2118   1.187   2.523   1.515 -0.3103  0.3442  0.8038
  588SOL    HW3 2119   1.171   2.409   1.613  0.9848 -0.2680  0.3232
  588SOL    MW4 2120   1.198   2.489   1.595  0.7555 -0.1588  0.4692
  589SOL     OW 2121   3.875   5.417   4.711 -0.0665 -0.1095 -0.1126
  589SOL    HW2 2122   3.882   5.407   4.616 -2.0877  0.7571 -0.4088
  589SOL    HW3 2123   3.815   5.491   4.723 -2.2054 -1.9889  1.7795
  589SOL    MW4 2124   3.868   5.425   4.700 -0.6153 -0.2432  0.0979
  590SOL     OW 2125   1.783   0.131   0.062 -0.1390 -0.2370  0.2165
  590SOL    HW2 2126   1.868   0.102   0.031  0.0563 -0.1222  0.6295
  590SOL    HW3 2127   1.728   0.052   0.060 -0.9718  0.3014 -3.0685
  590SOL    MW4 2128   1.787   0.116   0.058 -0.2231 -0.1508 -0.1624
  591SOL     OW 2129   3.618   0.346   1.966  0.1884 -0.0401 -0.3980
  591SOL    HW2 2130   3.528   0.333   1.937  0.2009 -0.0542 -0.4303
  591SOL    HW3 2131   3.643   0.431   1.929  0.7010 -0.7171 -1.6688
  591SOL    MW4 2132   3.609   0.356   1.958  0.2577 -0.1313 -0.5699
  592SOL     OW 2133   4.284   5.611   1.236  0.4420  0.4355  0.1342
  592SOL    HW2 2134   4.295   5.622   1.141  1.8990  1.6737  0.4194
  592SOL    HW3 2135   4.201   5.654   1.256 -0.0750 -0.1717 -0.6073
  592SOL    MW4 2136   4.274   5.618   1.226  0.5660  0.5188  0.0740
  593SOL     OW 2137   2.839   1.564   4.570  0.2221  0.0975 -0.3595
  593SOL    HW2 2138   2.932   1.544   4.579  0.8864  2.4799 -1.1647
  593SOL    HW3 2139   2.797   1.519   4.642  1.8815 -1.6858 -0.4447
  593SOL    MW4 2140   2.845   1.556   4.580  0.5287  0.1765 -0.4770
  594SOL     OW 2141   5.341   1.381   3.908 -0.5708 -0.3604 -0.0962
  594SOL    HW2 2142   5.262   1.381   3.854  0.0210 -0.0293 -0.9855
  594SOL    HW3 2143   5.340   1.296   3.953 -1.8325 -0.0381  0.5355
  594SOL    MW4 2144   5.331   1.369   3.907 -0.6592 -0.2742 -0.1302
  595SOL     OW 2145   3.729   2.779   4.317 -0.2848 -0.2870  0.0535
  595SOL    HW2 2146   3.644   2.751   4.282  0.4956  0.6166 -2.8474
  595SOL    HW3 2147   3.778   2.697   4.328 -1.0239 -0.7017  0.3571
  595SOL    MW4 2148   3.724   2.765   4.313 -0.2793 -0.2225 -0.2892
  596SOL     OW 2149   4.266   2.616   2.072 -0.0532 -0.3533  0.3366
  596SOL    HW2 2150   4.360   2.623   2.092  0.2557 -0.3881 -1.0351
  596SOL    HW3 2151   4.227   2.692   2.115  0.6815 -0.0433  0.4710
  596SOL    MW4 2152   4.274   2.627   2.080  0.0845 -0.3170  0.1734
  597SOL     OW 2153   4.866   5.535   0.795  0.1416 -0.1797 -0.3232
  597SOL    HW2 2154   4.825   5.483   0.864 -2.0431  1.8601  0.0226
  597SOL    HW3 2155   4.938   5.580   0.839 -0.7903  0.5516  0.4891
  597SOL    MW4 2156   4.870   5.534   0.810 -0.2696  0.1859 -0.1704
  598SOL     OW 2157   0.723   4.360   1.024  0.7027  0.4647  0.4137
  598SOL    HW2 2158   0.715   4.399   0.937  0.8940  1.3827  0.7875
  598SOL    HW3 2159   0.684   4.425   1.082  1.8211  0.5115  1.1569
  598SOL    MW4 2160   0.717   4.374   1.020  0.8755  0.5920  0.5610
  599SOL     OW 2161   0.698   4.280   5.238 -0.3518  0.6706  0.3677
  599SOL    HW2 2162   0.618   4.228   5.232  0.4282 -0.5863  0.3844
  599SOL    HW3 2163   0.755   4.244   5.171  0.6262  0.7404  1.1359
  599SOL    MW4 2164   0.695   4.268   5.228 -0.1198  0.5140  0.4713
  600SOL     OW 2165   2.123   4.092   3.116  0.4331 -0.3420  0.4434
  600SOL    HW2 2166   2.131   4.188   3.120 -1.7447 -0.0203 -1.3172
  600SOL    HW3 2167   2.206   4.061   3.152  0.4193  2.1483  2.9847
  600SOL    MW4 2168   2.135   4.101   3.121  0.1439  0.0290  0.5464
  601SOL     OW 2169   5.602   5.828   2.062  0.0598 -0.3537 -0.1872
  601SOL    HW2 2170   5.689   5.861   2.084 -0.0360 -0.3576  0.1948
  601SOL    HW3 2171   5.567   5.893   2.001  0.6869 -0.8249 -1.0742
  601SOL    MW4 2172   5.609   5.841   2.057  0.1299 -0.4163 -0.2539
  602SOL     OW 2173   2.168   3.251   3.331 -0.0802 -1.0241 -0.1682
  602SOL    HW2 2174   2.240   3.295   3.377 -0.8348  1.3855 -1.1178
  602SOL    HW3 2175   2.089   3.284   3.373 -0.6924 -1.5670 -0.8644
  602SOL    MW4 2176   2.167   3.261   3.342 -0.2606 -0.7778 -0.3853
  603SOL     OW 2177   1.310   2.170   0.885 -0.4484 -0.1568  0.1220
  603SOL    HW2 2178   1.311   2.264   0.865 -0.5886  0.3756  2.3615
  603SOL    HW3 2179   1.400   2.141   0.872 -0.1285  0.5858  0.6294
  603SOL    MW4 2180   1.322   2.178   0.880 -0.4247  0.0114  0.4844
  604SOL     OW 2181   5.206   3.186   3.703  0.5618 -0.2409  0.0757
  604SOL    HW2 2182   5.161   3.226   3.777  1.4426  0.0134  0.4886
  604SOL    HW3 2183   5.295   3.220   3.708  0.7106 -0.4635 -0.9255
  604SOL    MW4 2184   5.212   3.196   3.714  0.6977 -0.2367 -0.0019
  605SOL     OW 2185   1.126   6.189   2.220 -0.1180 -0.2423 -0.5519
  605SOL    HW2 2186   1.207   6.231   2.249  0.0864 -0.1678 -1.2082
  605SOL    HW3 2187   1.056   6.244   2.253  0.0454 -0.9423  1.0500
  605SOL    MW4 2188   1.128   6.202   2.228 -0.0694 -0.3248 -0.4272
  606SOL     OW 2189   0.102   2.799   1.309  0.2874  0.5055  0.0724
  606SOL    HW2 2190   0.098   2.706   1.288  1.7661  0.6928 -1.1708
  606SOL    HW3 2191   0.184   2.811   1.357  0.2525  1.2196 -0.0252
  606SOL    MW4 2192   0.112   2.789   1.313  0.4779  0.6244 -0.1045
  607SOL     OW 2193   3.153   0.354   3.676 -0.1009 -0.4821  0.1255
  607SOL    HW2 2194   3.181   0.267   3.705  0.6837 -0.5615 -0.8143
  607SOL    HW3 2195   3.074   0.338   3.625  1.2932 -0.9682 -2.0118
  607SOL    MW4 2196   3.146   0.340   3.673  0.1865 -0.5567 -0.2805
  608SOL     OW 2197   1.435   0.994   3.504 -0.7085 -0.6607 -0.2064
  608SOL    HW2 2198   1.383   1.063   3.464 -0.9874 -0.2099  0.8838
  608SOL    HW3 2199   1.471   0.944   3.430  3.0322  3.1051 -1.3237
  608SOL    MW4 2200   1.433   0.996   3.489 -0.2517 -0.1044 -0.2100
  609SOL     OW 2201   0.166   4.671   2.510 -0.1758  0.0742 -0.0488
  609SOL    HW2 2202   0.248   4.719   2.524 -0.1161 -0.4032  1.4275
  609SOL    HW3 2203   0.101   4.739   2.495  0.4458  0.4691 -1.0944
  609SOL    MW4 2204   0.169   4.686   2.510 -0.0859  0.0633  0.0080
  610SOL     OW 2205   4.795   2.062   0.218 -0.0262  0.2516 -0.7333
  610SOL    HW2 2206   4.836   2.027   0.140  0.9998 -0.4845  0.0999
  610SOL    HW3 2207   4.828   2.152   0.224 -0.7419  0.5769 -1.5618
  610SOL    MW4 2208   4.805   2.069   0.209  0.0148  0.1974 -0.7327
  611SOL     OW 2209   2.225   4.429   0.006  0.5388  0.9503  0.2506
  611SOL    HW2 2210   2.162   4.364  -0.027 -0.5085  1.3799  1.3275
  611SOL    HW3 2211   2.171   4.496   0.046  1.7202  0.4516  2.8521
  611SOL    MW4 2212   2.209   4.429   0.007  0.5565  0.9412  0.7359
  612SOL     OW 2213   1.237   0.883   3.268 -0.3554 -0.4619  0.1245
  612SOL    HW2 2214   1.220   0.972   3.300  0.1461 -0.4280  0.2930
  612SOL    HW3 2215   1.247   0.893   3.174 -1.7692 -0.5512 -0.0611
  612SOL    MW4 2216   1.236   0.896   3.260 -0.4757 -0.4692  0.1223
  613SOL     OW 2217   5.947   3.063   2.863 -0.2829 -0.1775 -0.0146
  613SOL    HW2 2218   6.027   3.018   2.888  0.3118 -0.4755 -2.2445
  613SOL    HW3 2219   5.891   2.994   2.827 -0.9077  0.2856  0.0552
  613SOL    MW4 2220   5.950   3.048   2.862 -0.2869 -0.1557 -0.2996
  614SOL     OW 2221   6.068   2.633   1.280  0.4466 -0.2983 -0.1832
  614SOL    HW2 2222   6.057   2.558   1.339 -1.6923  0.0241 -0.0973
  614SOL    HW3 2223   6.160   2.656   1.288  0.6261 -1.4265  1.6174
  614SOL    MW4 2224   6.079   2.626   1.289  0.1881 -0.4046  0.0657
  615SOL     OW 2225   4.638   2.127   2.991  0.0627  0.1092  0.2803
  615SOL    HW2 2226   4.632   2.221   3.009 -1.0954  0.4281 -1.5992
  615SOL    HW3 2227   4.576   2.087   3.052  1.2399  0.4271  1.7457
  615SOL    MW4 2228   4.629   2.134   3.002  0.0652  0.1932  0.2257
  616SOL     OW 2229   3.022   1.755   4.312 -0.8441 -0.4465 -0.3522
  616SOL    HW2 2230   3.103   1.803   4.329 -0.6913 -0.9984  0.5345
  616SOL    HW3 2231   2.961   1.822   4.282 -0.3374  0.1428 -0.0930
  616SOL    MW4 2232   3.025   1.771   4.311 -0.7571 -0.4415 -0.2010
  617SOL     OW 2233   4.033   2.597   0.001 -0.4989  0.2713 -0.2942
  617SOL    HW2 2234   3.956   2.558  -0.041 -0.4912  0.3459 -0.3773
  617SOL    HW3 2235   4.065   2.528   0.060 -0.9175  0.4175  0.1133
  617SOL    MW4 2236   4.027   2.582   0.003 -0.5531  0.3004 -0.2514
  618SOL     OW 2237   2.905   3.916   4.839 -0.1190  0.0488 -0.0056
  618SOL    HW2 2238   2.905   3.879   4.751  0.0774 -0.2977  0.1398
  618SOL    HW3 2239   2.815   3.946   4.852  0.2548  1.7559 -1.0109
  618SOL    MW4 2240   2.893   3.915   4.829 -0.0438  0.2283 -0.1190
  619SOL     OW 2241   3.893   3.487   4.755  0.3061 -0.2855  0.1819
  619SOL    HW2 2242   3.843   3.412   4.726  1.3836 -1.1518  0.4685
  619SOL    HW3 2243   3.870   3.497   4.848 -1.4608  1.1107 -0.3534
  619SOL    MW4 2244   3.884   3.479   4.764  0.2151 -0.2156  0.1491
  620SOL     OW 2245   4.188   3.936   0.483  0.6194  0.2498 -0.0534
  620SOL    HW2 2246   4.130   3.869   0.447 -1.7454  1.2334  1.6802
  620SOL    HW3 2247   4.229   3.895   0.559  0.5464  0.2218 -0.0297
  620SOL    MW4 2248   4.186   3.922   0.488  0.2978  0.3759  0.1784
  621SOL     OW 2249   3.490   2.780   5.034 -0.2030  0.2062 -0.4611
  621SOL    HW2 2250   3.538   2.746   5.109 -0.0021 -1.5133 -1.3294
  621SOL    HW3 2251   3.412   2.725   5.028 -0.8821  1.1709 -0.7445
  621SOL    MW4 2252   3.486   2.768   5.043 -0.2661  0.1066 -0.6130
  622SOL     OW 2253   2.179   5.228   2.989 -0.6859  0.2401 -0.4701
  622SOL    HW2 2254   2.155   5.217   2.897  2.2196 -1.5661 -1.1339
  622SOL    HW3 2255   2.234   5.306   2.990  0.4557 -0.5441 -0.5665
  622SOL    MW4 2256   2.183   5.236   2.977 -0.1519 -0.1017 -0.5704
  623SOL     OW 2257   5.147   2.603   0.592  0.0383 -0.2724 -0.7169
  623SOL    HW2 2258   5.116   2.607   0.683 -0.2249  1.4390 -0.8539
  623SOL    HW3 2259   5.104   2.526   0.556  0.6011 -1.3345  0.7572
  623SOL    MW4 2260   5.137   2.593   0.599  0.0778 -0.1867 -0.5405
  624SOL     OW 2261   5.593   3.503   4.701 -0.4957 -0.0596 -0.2105
  624SOL    HW2 2262   5.645   3.432   4.739  0.0615  0.1185 -0.6270
  624SOL    HW3 2263   5.552   3.464   4.624 -0.2073  0.0601 -0.4268
  624SOL    MW4 2264   5.595   3.488   4.696 -0.3842 -0.0203 -0.2940
  625SOL     OW 2265   6.259   5.840   5.271  0.0457  0.4604  0.9711
  625SOL    HW2 2266   6.214   5.842   5.187  0.7298 -2.1701  0.4524
  625SOL    HW3 2267   6.241   5.926   5.310 -1.1945  1.3496 -1.3503
  625SOL    MW4 2268   6.251   5.852   5.265 -0.0276  0.2307  0.5964
  626SOL     OW 2269   2.801   4.746   1.971  0.0791 -0.1410 -0.3121
  626SOL    HW2 2270   2.789   4.662   1.927 -1.4382  0.7070 -1.6233
  626SOL    HW3 2271   2.713   4.774   1.994  0.6385  0.6769  0.9445
  626SOL    MW4 2272   2.788   4.738   1.968 -0.0473  0.0788 -0.3193
  627SOL     OW 2273   4.932   0.750   5.639  0.0237  0.0003 -0.4231
  627SOL    HW2 2274   4.926   0.731   5.733 -0.3027 -0.7040 -0.5778
  627SOL    HW3 2275   5.011   0.804   5.630  2.5679 -3.4097 -0.2770
  627SOL    MW4 2276   4.941   0.755   5.650  0.3163 -0.5426 -0.4243
  628SOL     OW 2277   1.577   4.447   2.845 -0.2773  0.4636 -0.4162
  628SOL    HW2 2278   1.538   4.481   2.764  1.9060 -0.3745 -1.9376
  628SOL    HW3 2279   1.638   4.515   2.872  0.7938 -0.2523 -0.9257
  628SOL    MW4 2280   1.580   4.460   2.838  0.1521  0.2586 -0.6841
  629SOL     OW 2281   1.529   4.926   4.574  0.0671 -0.2391 -0.0057
  629SOL    HW2 2282   1.493   4.911   4.486 -1.1187 -3.3667  0.8567
  629SOL    HW3 2283   1.462   4.978   4.619 -0.7461 -1.1659 -0.1112
  629SOL    MW4 2284   1.515   4.931   4.568 -0.1966 -0.7740  0.0941
  630SOL     OW 2285   3.678   5.843   0.548 -0.3470 -0.1575 -0.2648
  630SOL    HW2 2286   3.753   5.874   0.600 -2.0054  2.2533  0.8478
  630SOL    HW3 2287   3.681   5.895   0.468  0.4405 -1.7269 -1.3105
  630SOL    MW4 2288   3.689   5.854   0.545 -0.4619 -0.0465 -0.2560
  631SOL     OW 2289   2.196   4.628   2.982  0.0346 -0.0486  0.0434
  631SOL    HW2 2290   2.123   4.673   2.939 -0.2064 -0.5024 -0.0234
  631SOL    HW3 2291   2.219   4.685   3.055 -0.2660  0.1885 -0.0428
  631SOL    MW4 2292   2.190   4.641   2.986 -0.0369 -0.0772  0.0232
  632SOL     OW 2293   5.420   1.944   3.740 -0.3042  0.0965  0.2138
  632SOL    HW2 2294   5.348   1.905   3.690 -1.2261 -0.2200  1.7204
  632SOL    HW3 2295   5.391   2.032   3.761  1.3517  1.3723 -2.2958
  632SOL    MW4 2296   5.407   1.950   3.736 -0.2073  0.2231  0.0815
  633SOL     OW 2297   0.334   0.684   3.174  0.0365  0.0177  0.2498
  633SOL    HW2 2298   0.386   0.754   3.213  0.6862 -0.5228  0.3679
  633SOL    HW3 2299   0.251   0.726   3.150  0.0442  0.6084  1.2029
  633SOL    MW4 2300   0.330   0.698   3.176  0.1232  0.0243  0.3912
  634SOL     OW 2301   4.577   4.710   4.173 -0.3713  0.2597 -0.2314
  634SOL    HW2 2302   4.600   4.799   4.199  0.5616 -0.0603  0.0686
  634SOL    HW3 2303   4.548   4.717   4.082 -1.2427  1.0105  0.0921
  634SOL    MW4 2304   4.576   4.722   4.165 -0.3632  0.3165 -0.1491
  635SOL     OW 2305   3.582   0.828   3.540 -0.0817  0.2866 -0.2463
  635SOL    HW2 2306   3.659   0.808   3.592 -1.1471  0.6464  1.5260
  635SOL    HW3 2307   3.617   0.845   3.452  1.6504 -1.2862  0.0753
  635SOL    MW4 2308   3.597   0.828   3.535  0.0063  0.1266  0.0300
  636SOL     OW 2309   3.760   1.345   1.421  0.7618  0.3339  0.0618
  636SOL    HW2 2310   3.676   1.382   1.394 -0.2682 -0.3919  2.0267
  636SOL    HW3 2311   3.805   1.416   1.466 -0.4332 -0.1717  2.2176
  636SOL    MW4 2312   3.755   1.359   1.423  0.4682  0.1714  0.6055
  637SOL     OW 2313   2.886   2.869   1.827 -0.5278  0.4275  0.0311
  637SOL    HW2 2314   2.968   2.865   1.778  1.1926  0.8452  2.7277
  637SOL    HW3 2315   2.827   2.811   1.778  1.4168 -0.0953 -1.8523
  637SOL    MW4 2316   2.889   2.861   1.814 -0.0443  0.4136  0.1384
  638SOL     OW 2317   4.602   3.640   2.192  0.3595 -0.2001  0.9560
  638SOL    HW2 2318   4.598   3.574   2.261  0.3171 -0.2681  0.8888
  638SOL    HW3 2319   4.534   3.703   2.215 -0.6447 -0.9667  0.2179
  638SOL    MW4 2320   4.592   3.639   2.204  0.2214 -0.3102  0.8498
  639SOL     OW 2321   4.050   6.313   3.867 -0.0224  0.4635  0.1136
  639SOL    HW2 2322   4.037   6.258   3.790  0.6630  0.8372 -0.2841
  639SOL    HW3 2323   3.988   6.385   3.856  0.7393  1.0295 -0.5966
  639SOL    MW4 2324   4.040   6.315   3.855  0.1685  0.5875 -0.0326
  640SOL     OW 2325   0.790   1.714   5.847 -0.2817  0.4274  0.2243
  640SOL    HW2 2326   0.859   1.693   5.910  0.7773  1.4473 -0.5449
  640SOL    HW3 2327   0.740   1.785   5.888  0.0753  0.7242  0.1486
  640SOL    MW4 2328   0.792   1.721   5.861 -0.0948  0.6011  0.1129
  641SOL     OW 2329   1.860   5.871   1.129  0.3516  0.1329 -0.3420
  641SOL    HW2 2330   1.933   5.812   1.111  0.3106 -0.5605  1.5431
  641SOL    HW3 2331   1.782   5.817   1.116  0.3306 -0.6402  2.3810
  641SOL    MW4 2332   1.859   5.856   1.125  0.3434 -0.0606  0.2660
  642SOL     OW 2333   3.192   1.204   4.701 -0.2261  0.2036 -0.2457
  642SOL    HW2 2334   3.127   1.169   4.761  0.8231  0.1166  0.8940
  642SOL    HW3 2335   3.208   1.132   4.639 -1.1413  0.2065 -0.4999
  642SOL    MW4 2336   3.186   1.190   4.701 -0.2085  0.1925 -0.1289
  643SOL     OW 2337   2.916   4.849   0.086 -0.4386  0.5515 -0.1142
  643SOL    HW2 2338   3.009   4.873   0.091 -0.2848  0.4640 -1.8085
  643SOL    HW3 2339   2.913   4.781   0.018 -1.3211 -1.9084  2.1968
  643SOL    MW4 2340   2.928   4.843   0.078 -0.5347  0.2154 -0.0328
  644SOL     OW 2341   0.892   6.267   4.874  0.1522 -0.0020  0.0890
  644SOL    HW2 2342   0.949   6.256   4.950  0.6234  0.7251 -0.1468
  644SOL    HW3 2343   0.951   6.266   4.799 -0.1261  0.8601 -0.1529
  644SOL    MW4 2344   0.907   6.265   4.874  0.1776  0.2076  0.0260
  645SOL     OW 2345   2.186   0.938   3.430 -0.2182 -0.3899 -0.3683
  645SOL    HW2 2346   2.165   1.030   3.414 -0.4614 -0.2296  0.7510
  645SOL    HW3 2347   2.101   0.896   3.442 -0.0721 -0.5694  0.0614
  645SOL    MW4 2348   2.172   0.944   3.430 -0.2310 -0.3925 -0.1639
  646SOL     OW 2349   1.460   4.858   0.549 -0.6386  0.2788  0.0457
  646SOL    HW2 2350   1.496   4.811   0.474  0.3951 -1.8046  1.7259
  646SOL    HW3 2351   1.507   4.941   0.551 -0.0150 -0.0327 -1.0455
  646SOL    MW4 2352   1.471   4.862   0.539 -0.4199 -0.0371  0.1234
  647SOL     OW 2353   5.893   6.143   4.477 -0.6870 -0.7444  0.7951
  647SOL    HW2 2354   5.891   6.134   4.572 -0.6853 -1.2095  0.7532
  647SOL    HW3 2355   5.827   6.209   4.457 -0.6391 -0.5989  1.1255
  647SOL    MW4 2356   5.884   6.150   4.487 -0.6805 -0.7866  0.8332
  648SOL     OW 2357   1.156   3.060   0.929 -0.6788 -0.0108  0.2738
  648SOL    HW2 2358   1.243   3.102   0.929  0.0541 -1.4572 -0.5542
  648SOL    HW3 2359   1.110   3.102   0.856 -0.6319  0.6793  0.6354
  648SOL    MW4 2360   1.162   3.071   0.919 -0.5759 -0.1106  0.2122
  649SOL     OW 2361   5.292   2.384   3.587  0.7521 -0.6049  0.5650
  649SOL    HW2 2362   5.216   2.326   3.582  0.5041 -0.2095 -3.0701
  649SOL    HW3 2363   5.258   2.465   3.626 -0.4125 -0.8806  0.1721
  649SOL    MW4 2364   5.277   2.387   3.591  0.5657 -0.5891  0.0336
  650SOL     OW 2365   2.475   3.364   1.687 -0.3552 -0.3569 -0.2667
  650SOL    HW2 2366   2.507   3.281   1.720 -0.4744 -0.3263 -0.0762
  650SOL    HW3 2367   2.381   3.350   1.674 -0.4219 -0.1697  0.0163
  650SOL    MW4 2368   2.467   3.351   1.689 -0.3797 -0.3282 -0.2042
  651SOL     OW 2369   2.886   1.618   0.809 -0.7127 -0.0286  0.1197
  651SOL    HW2 2370   2.799   1.652   0.829 -1.1421 -0.0777 -1.4684
  651SOL    HW3 2371   2.933   1.693   0.771  0.2753  0.2400  1.7557
  651SOL    MW4 2372   2.881   1.632   0.806 -0.6390  0.0004  0.1261
  652SOL     OW 2373   2.496   5.921   1.337  0.3278  0.4478  0.0099
  652SOL    HW2 2374   2.404   5.908   1.316 -0.0560  0.0568  1.7871
  652SOL    HW3 2375   2.520   5.843   1.388  1.7373  0.3965 -0.6753
  652SOL    MW4 2376   2.487   5.909   1.341  0.4631  0.3894  0.1540
  653SOL     OW 2377   2.044   0.452   4.797  0.2919 -0.8259  0.2718
  653SOL    HW2 2378   1.994   0.447   4.715  1.6705 -1.3568 -0.5812
  653SOL    HW3 2379   2.086   0.366   4.804  0.1991 -0.7807  1.5486
  653SOL    MW4 2380   2.043   0.440   4.787  0.4616 -0.8900  0.3278
  654SOL     OW 2381   2.660   1.393   4.699  0.1626 -0.1669 -0.3711
  654SOL    HW2 2382   2.624   1.434   4.778  0.3427 -0.7939  0.0402
  654SOL    HW3 2383   2.595   1.327   4.674  0.5558 -0.6255 -0.1923
  654SOL    MW4 2384   2.647   1.390   4.706  0.2383 -0.3101 -0.2933
  655SOL     OW 2385   4.990   4.315   2.263 -0.0997 -0.5793 -0.2917
  655SOL    HW2 2386   5.070   4.274   2.229  0.4719  0.9996 -0.9723
  655SOL    HW3 2387   4.980   4.278   2.350  0.9301 -1.4083 -0.4934
  655SOL    MW4 2388   5.000   4.305   2.270  0.1116 -0.4803 -0.4081
  656SOL     OW 2389   3.771   4.327   3.216 -0.5630  0.0625  0.4152
  656SOL    HW2 2390   3.698   4.274   3.246 -0.3191 -0.1691  0.6137
  656SOL    HW3 2391   3.739   4.417   3.219 -0.7207 -0.0072  0.8399
  656SOL    MW4 2392   3.757   4.332   3.220 -0.5516  0.0227  0.4974
  657SOL     OW 2393   4.647   5.774   4.464 -0.5974 -0.2844 -0.0595
  657SOL    HW2 2394   4.617   5.738   4.548 -1.0864 -0.7547 -0.4248
  657SOL    HW3 2395   4.573   5.762   4.405  0.3915 -1.7702 -1.0713
  657SOL    MW4 2396   4.633   5.767   4.467 -0.5314 -0.5425 -0.2412
  658SOL     OW 2397   4.929   1.283   5.277 -0.1262 -0.0471  0.0829
  658SOL    HW2 2398   4.858   1.251   5.222 -1.8149 -0.1758  2.2157
  658SOL    HW3 2399   4.984   1.207   5.292 -0.6184 -0.4156  0.0226
  658SOL    MW4 2400   4.927   1.269   5.271 -0.4140 -0.1127  0.3564
  659SOL     OW 2401   5.580   3.020   4.345  0.3402 -0.6711  0.5487
  659SOL    HW2 2402   5.639   3.063   4.406 -0.7760  0.8359  0.6396
  659SOL    HW3 2403   5.507   3.082   4.335 -0.3872 -1.6975 -0.8730
  659SOL    MW4 2404   5.578   3.034   4.351  0.0970 -0.6077  0.3731
  660SOL     OW 2405   1.379   3.982   4.343  0.0640  0.9104  0.5856
  660SOL    HW2 2406   1.384   4.065   4.296 -0.5804 -0.6301 -2.4490
  660SOL    HW3 2407   1.469   3.966   4.373  0.3258  2.3493  0.6485
  660SOL    MW4 2408   1.391   3.991   4.341  0.0135  0.8970  0.1935
  661SOL     OW 2409   5.573   2.424   4.099 -0.0861 -0.1780 -0.1795
  661SOL    HW2 2410   5.605   2.383   4.179 -0.1322  0.2082  0.0392
  661SOL    HW3 2411   5.486   2.386   4.086 -0.9777  1.3263  1.1370
  661SOL    MW4 2412   5.566   2.413   4.108 -0.2098  0.0714  0.0230
  662SOL     OW 2413   1.131   3.787   5.965  0.2289 -0.4549  0.8288
  662SOL    HW2 2414   1.105   3.778   6.057  0.3184 -1.4265  0.7684
  662SOL    HW3 2415   1.170   3.702   5.943 -0.6133 -0.5536 -0.3784
  662SOL    MW4 2416   1.133   3.775   5.974  0.1296 -0.5961  0.6616
  663SOL     OW 2417   3.642   0.663   2.266 -0.3298  0.0968  0.1887
  663SOL    HW2 2418   3.594   0.581   2.256 -0.6024  0.2289  0.3980
  663SOL    HW3 2419   3.724   0.649   2.220 -0.4003 -0.2747  0.1782
  663SOL    MW4 2420   3.646   0.651   2.258 -0.3751  0.0652  0.2150
  664SOL     OW 2421   2.739   5.519   1.559 -0.4731 -0.4478  0.0396
  664SOL    HW2 2422   2.667   5.470   1.599 -0.0054 -1.3996 -0.2378
  664SOL    HW3 2423   2.773   5.574   1.629 -0.4536 -1.1782  0.6153
  664SOL    MW4 2424   2.734   5.520   1.574 -0.4088 -0.6697  0.0789
  665SOL     OW 2425   0.807   6.239   4.555 -0.4057 -0.0434  0.5926
  665SOL    HW2 2426   0.811   6.333   4.536  0.5627 -0.7366 -3.4564
  665SOL    HW3 2427   0.714   6.218   4.556 -0.6334  0.4689 -2.1659
  665SOL    MW4 2428   0.795   6.249   4.553 -0.3080 -0.0672 -0.3055
  666SOL     OW 2429   6.191   0.463   3.877 -0.0377 -0.7016  0.0350
  666SOL    HW2 2430   6.249   0.472   3.801 -0.7749  0.1885 -0.4554
  666SOL    HW3 2431   6.171   0.553   3.902 -1.2461 -0.9885  0.1569
  666SOL    MW4 2432   6.196   0.476   3.870 -0.2944 -0.6220 -0.0136
  667SOL     OW 2433   1.831   2.623   4.678 -0.3238  0.4594 -0.4824
  667SOL    HW2 2434   1.830   2.693   4.744 -0.2806 -0.2402  0.2682
  667SOL    HW3 2435   1.802   2.666   4.597  0.1108  1.4445 -0.1320
  667SOL    MW4 2436   1.827   2.638   4.676 -0.2607  0.4970 -0.3372
  668SOL     OW 2437   5.152   4.751   3.696  0.6749  0.7926  0.2111
  668SOL    HW2 2438   5.100   4.813   3.747 -0.6560  0.1529 -0.2985
  668SOL    HW3 2439   5.234   4.743   3.744 -0.2129  0.8345  1.8246
  668SOL    MW4 2440   5.156   4.758   3.709  0.3822  0.7137  0.3567
  669SOL     OW 2441   0.188   2.653   2.696 -0.1117  0.0679 -0.2292
  669SOL    HW2 2442   0.196   2.633   2.603 -3.1293 -3.3539 -0.0061
  669SOL    HW3 2443   0.158   2.744   2.699 -0.8902 -0.0460 -2.6879
  669SOL    MW4 2444   0.185   2.663   2.684 -0.6125 -0.3986 -0.5242
  670SOL     OW 2445   2.595   4.360   4.979  0.4017  0.1116  0.6101
  670SOL    HW2 2446   2.588   4.435   5.039  0.5741  0.1698  0.5588
  670SOL    HW3 2447   2.688   4.357   4.956  0.2154  0.5599 -0.2488
  670SOL    MW4 2448   2.606   4.370   4.984  0.3999  0.1785  0.4900
  671SOL     OW 2449   0.400   0.016   4.127 -0.4402 -0.2739 -0.8615
  671SOL    HW2 2450   0.345   0.057   4.060 -3.1869 -3.7144 -1.0171
  671SOL    HW3 2451   0.431  -0.065   4.086  0.3375 -0.9807  1.0295
  671SOL    MW4 2452   0.397   0.010   4.113 -0.7000 -0.8211 -0.6326
  672SOL     OW 2453   1.412   0.893   6.322 -0.0484  0.1702  0.2425
  672SOL    HW2 2454   1.362   0.886   6.241 -0.5032  1.3747  0.4021
  672SOL    HW3 2455   1.484   0.830   6.311 -0.0762  0.3495 -1.1129
  672SOL    MW4 2456   1.415   0.884   6.310 -0.1121  0.3528  0.0847
  673SOL     OW 2457   5.769   1.757   0.547 -0.5596  0.1937 -0.1210
  673SOL    HW2 2458   5.805   1.829   0.496  0.6334 -0.4606 -0.2264
  673SOL    HW3 2459   5.778   1.786   0.638  1.1490 -0.3336 -0.0849
  673SOL    MW4 2460   5.775   1.771   0.552 -0.1767  0.0378 -0.1301
  674SOL     OW 2461   4.822   2.847   0.859 -0.2468  0.3937  0.3623
  674SOL    HW2 2462   4.734   2.847   0.823 -0.6327  0.5083  1.2811
  674SOL    HW3 2463   4.810   2.829   0.952  0.6045  1.5082  0.7119
  674SOL    MW4 2464   4.809   2.845   0.867 -0.1854  0.5559  0.5296
  675SOL     OW 2465   1.859   0.767   5.850  0.2121  0.2433  0.2152
  675SOL    HW2 2466   1.796   0.803   5.913 -1.3829  0.1105 -1.2311
  675SOL    HW3 2467   1.869   0.676   5.876  0.1212  0.3593  0.6836
  675SOL    MW4 2468   1.852   0.760   5.862 -0.0104  0.2411  0.0862
  676SOL     OW 2469   2.827   1.715   5.690  0.3973 -0.4200  0.1397
  676SOL    HW2 2470   2.741   1.692   5.655  0.4922  0.2239 -0.5433
  676SOL    HW3 2471   2.869   1.766   5.621  0.7041  0.6513  1.0732
  676SOL    MW4 2472   2.821   1.718   5.676  0.4503 -0.1937  0.1728
  677SOL     OW 2473   6.324   3.972   1.086 -0.2162 -0.0613 -0.5387
  677SOL    HW2 2474   6.252   3.922   1.046 -0.0140  0.3790 -1.4723
  677SOL    HW3 2475   6.313   3.957   1.180  0.1815 -2.3493 -0.7854
  677SOL    MW4 2476   6.313   3.963   1.093 -0.1371 -0.3051 -0.6944
  678SOL     OW 2477   4.442   6.003   3.112 -0.0637 -0.3567  0.4889
  678SOL    HW2 2478   4.425   6.041   3.198  0.2982 -0.5116  0.6304
  678SOL    HW3 2479   4.364   6.022   3.061 -0.3408 -0.3940  0.8986
  678SOL    MW4 2480   4.430   6.010   3.116 -0.0525 -0.3821  0.5616
  679SOL     OW 2481   6.131   4.386   2.988 -0.1164  0.5782 -0.1974
  679SOL    HW2 2482   6.045   4.357   2.958 -1.2322  2.1822  1.2798
  679SOL    HW3 2483   6.114   4.467   3.035  2.0352  0.2333  1.3125
  679SOL    MW4 2484   6.118   4.393   2.990  0.0203  0.7443  0.1967
  680SOL     OW 2485   3.196   3.038   3.974 -0.4828 -0.6694 -0.0283
  680SOL    HW2 2486   3.274   2.983   3.980  0.9005  1.1492 -0.4632
  680SOL    HW3 2487   3.168   3.049   4.065  1.0443  0.3717  0.3432
  680SOL    MW4 2488   3.202   3.032   3.987 -0.0988 -0.2921 -0.0367
  681SOL     OW 2489   0.896   3.175   5.843  0.9905 -0.0125  0.0898
  681SOL    HW2 2490   0.942   3.242   5.793  0.4962 -0.3246 -0.8068
  681SOL    HW3 2491   0.825   3.147   5.786  0.7300 -0.7641  0.7586
  681SOL    MW4 2492   0.892   3.181   5.829  0.8909 -0.1528  0.0598
  682SOL     OW 2493   5.183   5.312   0.753 -0.4337 -0.7356  0.1093
  682SOL    HW2 2494   5.167   5.257   0.830 -1.7493 -0.8024 -0.1894
  682SOL    HW3 2495   5.125   5.388   0.765  1.2587  0.5728  0.4625
  682SOL    MW4 2496   5.173   5.315   0.765 -0.3840 -0.5718  0.1165
  683SOL     OW 2497   1.402   3.527   0.521  0.1397  0.3821 -0.3720
  683SOL    HW2 2498   1.418   3.495   0.433  0.6490 -0.5914  0.0600
  683SOL    HW3 2499   1.341   3.463   0.559  1.1083 -0.0756  0.4750
  683SOL    MW4 2500   1.396   3.514   0.515  0.3347  0.1932 -0.2033
  684SOL     OW 2501   0.960   2.375   1.450 -0.2118 -0.3288 -0.1847
  684SOL    HW2 2502   0.941   2.359   1.358 -0.0797  1.0221 -0.4734
  684SOL    HW3 2503   0.958   2.471   1.458 -0.6615 -0.4395  1.3100
  684SOL    MW4 2504   0.957   2.386   1.439 -0.2537 -0.1652 -0.0256
  685SOL     OW 2505   5.997   4.622   6.316 -0.4066 -0.1828  0.1412
  685SOL    HW2 2506   5.981   4.649   6.407 -0.0245 -2.1463  0.8247
  685SOL    HW3 2507   5.986   4.703   6.266  0.4879  1.2145  2.0437
  685SOL    MW4 2508   5.993   4.636   6.322 -0.2382 -0.2575  0.4824
  686SOL     OW 2509   4.936   1.431   4.632  0.3677 -0.9481  0.9770
  686SOL    HW2 2510   4.974   1.474   4.556  0.5476 -1.1584  0.9465
  686SOL    HW3 2511   4.841   1.436   4.617  0.4135 -1.4655  0.4693
  686SOL    MW4 2512   4.928   1.437   4.620  0.3975 -1.0441  0.9060
  687SOL     OW 2513   2.359   2.463   0.370 -0.2651 -0.1557 -0.0186
  687SOL    HW2 2514   2.386   2.434   0.283  1.2569 -3.5627  1.3818
  687SOL    HW3 2515   2.428   2.430   0.428 -0.5660  3.0341  2.4187
  687SOL    MW4 2516   2.372   2.455   0.366 -0.1040 -0.1844  0.4878
  688SOL     OW 2517   5.580   3.187   6.423  0.0886 -0.1075 -0.1305
  688SOL    HW2 2518   5.635   3.130   6.477  0.6545  0.0597 -0.5125
  688SOL    HW3 2519   5.585   3.272   6.467 -0.2268 -0.1949  0.0783
  688SOL    MW4 2520   5.588   3.191   6.436  0.1216 -0.0970 -0.1533
  689SOL     OW 2521   5.720   6.035   1.306 -0.1748  0.0470 -0.1214
  689SOL    HW2 2522   5.807   6.068   1.285 -0.2846  0.7520  0.4997
  689SOL    HW3 2523   5.660   6.103   1.274 -0.4378  0.1157  0.4976
  689SOL    MW4 2524   5.723   6.048   1.299 -0.2240  0.1491  0.0422
  690SOL     OW 2525   3.472   0.487   5.343 -0.0495 -0.5525 -0.1543
  690SOL    HW2 2526   3.452   0.566   5.392  0.0086 -0.9621  0.5397
  690SOL    HW3 2527   3.566   0.493   5.324  0.0220 -0.6177  0.1868
  690SOL    MW4 2528   3.482   0.498   5.347 -0.0324 -0.6151 -0.0178
  691SOL     OW 2529   5.539   5.915   4.957 -0.3959  0.0243 -0.1620
  691SOL    HW2 2530   5.489   5.961   4.889 -0.1516  1.2223  0.4457
  691SOL    HW3 2531   5.484   5.840   4.980 -0.4382 -0.4727 -1.7334
  691SOL    MW4 2532   5.525   5.911   4.951 -0.3693  0.1168 -0.2892
  692SOL     OW 2533   1.808   0.065   3.887  0.4776  0.2085  0.4546
  692SOL    HW2 2534   1.876   0.133   3.883 -1.2570  2.0047 -0.0426
  692SOL    HW3 2535   1.785   0.049   3.795 -0.3990  0.2930  0.6526
  692SOL    MW4 2536   1.814   0.072   3.874  0.1331  0.4566  0.4151
  693SOL     OW 2537   3.600   4.940   5.514 -0.4691 -0.1080 -0.1745
  693SOL    HW2 2538   3.534   4.952   5.582 -1.1516 -1.4416 -0.5493
  693SOL    HW3 2539   3.581   5.006   5.449  0.2510  1.2506  0.9352
  693SOL    MW4 2540   3.589   4.950   5.515 -0.4642 -0.1047 -0.0775
  694SOL     OW 2541   0.083   0.252   4.219  0.3966  0.6126  0.1639
  694SOL    HW2 2542   0.160   0.268   4.275 -0.2414  1.1645  0.8970
  694SOL    HW3 2543   0.065   0.336   4.179 -0.0296  0.5664  0.2575
  694SOL    MW4 2544   0.091   0.265   4.221  0.2562  0.6794  0.2730
  695SOL     OW 2545   5.879   1.847   4.497  0.0001 -0.3896  0.5190
  695SOL    HW2 2546   5.822   1.770   4.491 -0.6544  0.1543 -0.4830
  695SOL    HW3 2547   5.961   1.819   4.456 -0.4377 -0.3707 -0.3741
  695SOL    MW4 2548   5.882   1.833   4.491 -0.1440 -0.3153  0.2689
  696SOL     OW 2549   2.616   0.870   5.248 -0.2635 -0.0248  0.3378
  696SOL    HW2 2550   2.708   0.845   5.249 -0.0755  0.5837  1.9004
  696SOL    HW3 2551   2.617   0.964   5.266 -1.2108 -0.1868  1.3391
  696SOL    MW4 2552   2.628   0.879   5.251 -0.3637  0.0341  0.6761
  697SOL     OW 2553   4.845   2.326   0.210  0.2729 -0.4414 -0.3579
  697SOL    HW2 2554   4.882   2.367   0.288  1.0489 -1.6690 -0.0498
  697SOL    HW3 2555   4.815   2.400   0.156  1.4572  0.5114  0.2418
  697SOL    MW4 2556   4.846   2.341   0.213  0.5316 -0.4777 -0.2381
  698SOL     OW 2557   3.847   2.625   6.091 -0.1298 -0.0544 -0.6811
  698SOL    HW2 2558   3.787   2.693   6.061 -1.1823  0.1529  1.6245
  698SOL    HW3 2559   3.814   2.545   6.050 -1.7523  0.1442  0.1135
  698SOL    MW4 2560   3.834   2.623   6.082 -0.4827 -0.0009 -0.2721
  699SOL     OW 2561   1.210   0.058   3.053 -0.2981 -0.0804  0.4117
  699SOL    HW2 2562   1.259   0.128   3.011  0.1333 -0.1593  0.7820
  699SOL    HW3 2563   1.149   0.028   2.985 -1.6952  1.7690  0.7529
  699SOL    MW4 2564   1.208   0.063   3.038 -0.4255  0.1532  0.5056
  700SOL     OW 2565   0.651   5.820   1.152  0.5447  0.2682 -0.6112
  700SOL    HW2 2566   0.671   5.731   1.181  1.6460  0.6362 -0.1833
  700SOL    HW3 2567   0.711   5.876   1.203  1.0523  1.1137 -2.0773
  700SOL    MW4 2568   0.661   5.816   1.163  0.7570  0.4283 -0.7482
  701SOL     OW 2569   5.084   6.019   2.219 -0.3860 -0.0562  0.9094
  701SOL    HW2 2570   5.072   5.940   2.167 -0.6342  0.9792 -0.6457
  701SOL    HW3 2571   5.014   6.015   2.284 -0.8373 -0.7577  0.3997
  701SOL    MW4 2572   5.073   6.008   2.221 -0.4783 -0.0121  0.6370
  702SOL     OW 2573   5.482   4.673   2.259 -0.4388  0.3185 -0.1929
  702SOL    HW2 2574   5.458   4.590   2.301  1.8726 -0.7763 -0.8742
  702SOL    HW3 2575   5.467   4.739   2.327  1.7465 -1.2149  1.9692
  702SOL    MW4 2576   5.477   4.671   2.274  0.1545 -0.0283  0.0025
  703SOL     OW 2577   2.133   0.625   4.519  0.2586 -0.0868 -0.3506
  703SOL    HW2 2578   2.186   0.621   4.598  0.1286 -1.2028 -0.3135
  703SOL    HW3 2579   2.185   0.678   4.458  0.0551  1.3583  0.6872
  703SOL    MW4 2580   2.147   0.632   4.521  0.2146 -0.0434 -0.2088
  704SOL     OW 2581   3.706   2.492   2.944 -0.5460  0.1552 -0.0041
  704SOL    HW2 2582   3.652   2.534   2.877 -0.0924 -0.6717 -0.9122
  704SOL    HW3 2583   3.784   2.462   2.897 -0.6418 -1.2865  0.6922
  704SOL    MW4 2584   3.709   2.494   2.929 -0.4988 -0.1442 -0.0321
  705SOL     OW 2585   5.815   5.349   6.390 -0.2456  0.5806  0.0837
  705SOL    HW2 2586   5.762   5.293   6.333 -0.1951  0.6650 -0.0480
  705SOL    HW3 2587   5.825   5.299   6.471 -0.3923  0.4979  0.0501
  705SOL    MW4 2588   5.810   5.335   6.393 -0.2583  0.5808  0.0619
  706SOL     OW 2589   0.844   1.820   3.047 -0.4041  0.7830  0.1489
  706SOL    HW2 2590   0.833   1.875   2.970  0.8959 -2.1225 -2.3183
  706SOL    HW3 2591   0.930   1.780   3.036 -0.5915 -0.5185  2.6212
  706SOL    MW4 2592   0.854   1.822   3.036 -0.2573  0.2279  0.1496
  707SOL     OW 2593   4.171   1.883   3.096  0.4590 -0.2543 -0.6761
  707SOL    HW2 2594   4.201   1.964   3.136 -0.1079 -0.0750 -0.6086
  707SOL    HW3 2595   4.095   1.908   3.044 -0.1462 -0.8430 -0.1024
  707SOL    MW4 2596   4.165   1.897   3.094  0.3044 -0.3083 -0.5915
  708SOL     OW 2597   5.230   4.027   3.909  0.3302  0.0425 -0.7317
  708SOL    HW2 2598   5.247   4.047   4.001  3.3853 -0.9231 -0.9651
  708SOL    HW3 2599   5.215   4.112   3.868  2.5301  0.8959  0.0883
  708SOL    MW4 2600   5.230   4.041   3.916  1.0235  0.0277 -0.6543
  709SOL     OW 2601   3.232   5.083   1.628  0.1433 -0.3541  0.2446
  709SOL    HW2 2602   3.245   5.060   1.536  1.8928 -1.2490  0.6603
  709SOL    HW3 2603   3.138   5.072   1.643 -0.1105 -0.5269 -1.3358
  709SOL    MW4 2604   3.221   5.078   1.618  0.3406 -0.4950  0.0909
  710SOL     OW 2605   3.614   2.862   6.079 -0.1005  0.2431 -0.1504
  710SOL    HW2 2606   3.646   2.917   6.151  0.9403  0.0518 -0.4498
  710SOL    HW3 2607   3.649   2.904   6.000  0.8251 -0.9138 -0.3712
  710SOL    MW4 2608   3.623   2.875   6.078  0.1590  0.0652 -0.2190
  711SOL     OW 2609   2.016   4.740   4.215 -0.6051 -0.1145 -0.4260
  711SOL    HW2 2610   2.031   4.664   4.272  0.3733  0.7020  0.4484
  711SOL    HW3 2611   1.990   4.702   4.131 -0.3046 -1.4147  0.0418
  711SOL    MW4 2612   2.014   4.725   4.211 -0.4364 -0.1783 -0.2489
  712SOL     OW 2613   1.944   0.545   2.428  0.5382 -0.6223 -0.7820
  712SOL    HW2 2614   1.888   0.620   2.408 -1.3743 -1.7662  0.0541
  712SOL    HW3 2615   1.900   0.470   2.387  0.7598 -1.7607  0.9550
  712SOL    MW4 2616   1.931   0.545   2.420  0.3151 -0.9234 -0.4425
  713SOL     OW 2617   6.260   4.163   2.487 -0.6140 -0.4979  0.0617
  713SOL    HW2 2618   6.242   4.091   2.426  0.4755 -0.7867  0.0642
  713SOL    HW3 2619   6.204   4.146   2.562  0.6962 -2.2069  0.7204
  713SOL    MW4 2620   6.250   4.152   2.489 -0.2974 -0.7615  0.1489
  714SOL     OW 2621   5.599   2.829   1.295  0.1967  0.6825  0.4783
  714SOL    HW2 2622   5.695   2.834   1.297  0.3539 -1.4693  2.2845
  714SOL    HW3 2623   5.570   2.886   1.366 -0.1305  3.5054 -1.7339
  714SOL    MW4 2624   5.608   2.837   1.304  0.1743  0.7711  0.4248
  715SOL     OW 2625   6.338   3.959   2.897 -0.1409  0.1170 -0.6516
  715SOL    HW2 2626   6.313   3.990   2.984 -0.1899 -0.7150 -0.3585
  715SOL    HW3 2627   6.391   4.029   2.861 -0.3483  0.5918 -0.0615
  715SOL    MW4 2628   6.341   3.972   2.904 -0.1748  0.0699 -0.5351
  716SOL     OW 2629   2.953   6.143   1.645  0.1298 -0.2732  0.3825
  716SOL    HW2 2630   2.922   6.088   1.717 -0.9664 -0.1855 -0.0092
  716SOL    HW3 2631   2.937   6.090   1.566 -2.4905  1.1834 -0.1689
  716SOL    MW4 2632   2.947   6.128   1.644 -0.3605 -0.0694  0.2581
  717SOL     OW 2633   2.815   4.965   5.113 -0.5581  0.2641 -0.2232
  717SOL    HW2 2634   2.837   5.034   5.175 -1.5201  0.6836 -0.3333
  717SOL    HW3 2635   2.754   5.006   5.051 -3.0486 -1.2623  1.0745
  717SOL    MW4 2636   2.810   4.980   5.113 -1.0136  0.1181 -0.0665
  718SOL     OW 2637   0.787   0.586   6.045  0.4405 -0.1261 -0.3507
  718SOL    HW2 2638   0.771   0.518   5.980  0.3193  0.7972 -1.3241
  718SOL    HW3 2639   0.752   0.666   6.005 -1.0015  0.2214  1.4809
  718SOL    MW4 2640   0.780   0.588   6.031  0.2343  0.0415 -0.2375
  719SOL     OW 2641   0.668   1.831   0.501  0.1401 -0.1530  0.1611
  719SOL    HW2 2642   0.704   1.803   0.585  0.8016  1.4010  0.4372
  719SOL    HW3 2643   0.729   1.796   0.436 -0.6727 -1.8291  0.2557
  719SOL    MW4 2644   0.681   1.823   0.503  0.1201 -0.1692  0.2100
  720SOL     OW 2645   2.390   1.595   1.913 -0.2422  0.1965  0.0403
  720SOL    HW2 2646   2.416   1.578   2.004  2.3544 -1.4415 -0.9084
  720SOL    HW3 2647   2.297   1.573   1.910 -0.5926  1.0794  2.4581
  720SOL    MW4 2648   2.381   1.590   1.925  0.0542  0.0969  0.2342
  721SOL     OW 2649   4.989   5.300   5.952 -0.3659 -0.1824 -0.0597
  721SOL    HW2 2650   4.924   5.256   6.007  0.1258  1.4208  1.9085
  721SOL    HW3 2651   5.073   5.270   5.985  0.0239  2.7138  1.9352
  721SOL    MW4 2652   4.991   5.290   5.964 -0.2496  0.4113  0.4632
  722SOL     OW 2653   2.321   1.043   1.564  0.0192  0.8227 -0.6076
  722SOL    HW2 2654   2.368   1.087   1.493  0.3944  2.8483  0.8174
  722SOL    HW3 2655   2.376   1.056   1.641 -1.1468  0.1076  0.3794
  722SOL    MW4 2656   2.335   1.051   1.565 -0.0851  0.9956 -0.2893
  723SOL     OW 2657   4.775   2.050   5.158  0.3062 -0.0791  0.3768
  723SOL    HW2 2658   4.686   2.022   5.135 -0.1624  0.2886  1.6880
  723SOL    HW3 2659   4.828   1.971   5.149 -0.3076 -0.5019  0.3898
  723SOL    MW4 2660   4.770   2.036   5.153  0.1634 -0.0863  0.5515
  724SOL     OW 2661   0.997   3.070   5.238 -0.3767 -0.1216 -0.5210
  724SOL    HW2 2662   0.950   3.022   5.170  0.2987 -0.8818 -0.4716
  724SOL    HW3 2663   1.078   3.097   5.197  0.6539 -1.7510  0.3139
  724SOL    MW4 2664   1.001   3.067   5.224 -0.1516 -0.4368 -0.4044
  725SOL     OW 2665   1.463   1.694   2.925  0.0690 -0.0502 -0.3957
  725SOL    HW2 2666   1.430   1.760   2.985 -4.2017 -0.7963 -1.5263
  725SOL    HW3 2667   1.521   1.640   2.978 -1.6151  0.6908  2.4416
  725SOL    MW4 2668   1.466   1.696   2.940 -0.7166 -0.0509 -0.1705
  726SOL     OW 2669   5.384   3.358   4.083  0.8874 -0.2507 -0.2042
  726SOL    HW2 2670   5.328   3.351   4.005  0.3365  0.7618  0.0911
  726SOL    HW3 2671   5.464   3.399   4.051  0.2790  1.0792 -0.0674
  726SOL    MW4 2672   5.387   3.362   4.068  0.7345  0.0583 -0.1472
  727SOL     OW 2673   4.423   5.179   5.030  0.0509  0.0110 -0.1544
  727SOL    HW2 2674   4.482   5.103   5.034  0.1280  0.0237 -0.9778
  727SOL    HW3 2675   4.336   5.141   5.032  0.0839 -0.0609  0.0153
  727SOL    MW4 2676   4.420   5.164   5.031  0.0654  0.0032 -0.2407
  728SOL     OW 2677   3.481   1.568   1.063  0.2307  0.4661 -0.2191
  728SOL    HW2 2678   3.516   1.539   1.147  0.3858  0.6035 -0.2334
  728SOL    HW3 2679   3.490   1.664   1.066 -1.2267  0.6096  0.2494
  728SOL    MW4 2680   3.487   1.577   1.074  0.0589  0.5031 -0.1592
  729SOL     OW 2681   4.398   3.372   2.373  0.3941 -0.0566 -0.7301
  729SOL    HW2 2682   4.426   3.318   2.299  0.8471  0.5356 -1.0038
  729SOL    HW3 2683   4.308   3.398   2.351  0.0068 -1.0436 -0.3844
  729SOL    MW4 2684   4.390   3.368   2.360  0.4027 -0.1087 -0.7206
  730SOL     OW 2685   4.249   2.315   2.294 -0.0768  0.4471 -0.1720
  730SOL    HW2 2686   4.324   2.298   2.352  0.8220  0.6726 -1.2475
  730SOL    HW3 2687   4.174   2.280   2.342  1.1038 -2.6386 -0.3789
  730SOL    MW4 2688   4.249   2.308   2.308  0.1976  0.0698 -0.3412
  731SOL     OW 2689   0.816   1.966   3.840  0.0598  0.1798 -0.6322
  731SOL    HW2 2690   0.882   2.014   3.791 -0.0544  0.0863 -0.8792
  731SOL    HW3 2691   0.798   1.888   3.787  0.9270 -0.6285  0.2117
  731SOL    MW4 2692   0.822   1.962   3.826  0.1591  0.0608 -0.5534
  732SOL     OW 2693   5.601   3.890   5.006  0.1186  0.4930  0.7669
  732SOL    HW2 2694   5.533   3.948   5.040  1.0651  0.5419  2.6652
  732SOL    HW3 2695   5.683   3.928   5.038  1.0838  0.3743 -1.3788
  732SOL    MW4 2696   5.603   3.903   5.014  0.3709  0.4838  0.7343
  733SOL     OW 2697   1.835   4.101   4.751  0.1053 -0.3152  0.5472
  733SOL    HW2 2698   1.752   4.097   4.704 -0.0376 -0.8882  0.8403
  733SOL    HW3 2699   1.817   4.058   4.835  0.6144 -0.1652  0.7375
  733SOL    MW4 2700   1.822   4.095   4.756  0.1536 -0.3710  0.6110
  734SOL     OW 2701   4.111   3.015   1.882  0.1987  0.0499 -0.1737
  734SOL    HW2 2702   4.198   3.013   1.921  0.6143 -0.0239 -1.0712
  734SOL    HW3 2703   4.065   2.940   1.921 -0.0275  1.0143  1.5165
  734SOL    MW4 2704   4.116   3.005   1.892  0.2237  0.1674 -0.0691
  735SOL     OW 2705   6.425   4.553   3.201 -0.2736 -0.0173  0.0132
  735SOL    HW2 2706   6.431   4.647   3.220  0.2627  0.0178 -0.3208
  735SOL    HW3 2707   6.470   4.542   3.117 -1.5368 -0.3622 -0.6529
  735SOL    MW4 2708   6.432   4.564   3.192 -0.3695 -0.0582 -0.1188
  736SOL     OW 2709   0.610   3.393   2.201  0.0337 -0.1024  0.1025
  736SOL    HW2 2710   0.683   3.455   2.207  0.4018 -0.6282  1.2541
  736SOL    HW3 2711   0.554   3.430   2.132  2.6449 -1.0516 -2.7714
  736SOL    MW4 2712   0.612   3.406   2.193  0.4268 -0.2970 -0.1247
  737SOL     OW 2713   1.757   0.851   4.311 -0.2368  0.2396 -0.1730
  737SOL    HW2 2714   1.725   0.850   4.401 -0.7358  2.0437 -0.2820
  737SOL    HW3 2715   1.851   0.872   4.319 -0.1822 -0.0475 -0.0575
  737SOL    MW4 2716   1.766   0.854   4.324 -0.2954  0.4397 -0.1721
  738SOL     OW 2717   6.096   2.592   4.942 -0.2414 -0.4187 -0.0308
  738SOL    HW2 2718   6.097   2.685   4.965 -0.9339  0.4810 -3.2218
  738SOL    HW3 2719   6.058   2.589   4.854  0.9898 -3.6117 -0.5844
  738SOL    MW4 2720   6.091   2.604   4.934 -0.1703 -0.7213 -0.5248
  739SOL     OW 2721   2.081   5.600   4.315  0.0653  0.0492 -0.2208
  739SOL    HW2 2722   2.133   5.640   4.385  0.6266 -0.2464 -0.4614
  739SOL    HW3 2723   1.997   5.645   4.319  0.5602  1.0072 -0.2507
  739SOL    MW4 2724   2.077   5.611   4.325  0.2046  0.1366 -0.2565
  740SOL     OW 2725   2.333   3.335   0.473 -0.4116  0.0900 -0.1780
  740SOL    HW2 2726   2.328   3.410   0.414  0.3657  1.0007  0.8659
  740SOL    HW3 2727   2.256   3.283   0.452 -0.3563  0.5771 -1.7186
  740SOL    MW4 2728   2.323   3.338   0.462 -0.3017  0.2745 -0.2435
  741SOL     OW 2729   3.543   4.320   4.469 -0.6739 -0.1229  0.0091
  741SOL    HW2 2730   3.489   4.247   4.437  0.1738 -0.9030  0.3039
  741SOL    HW3 2731   3.548   4.307   4.564 -1.0822  0.7258  0.1564
  741SOL    MW4 2732   3.536   4.309   4.477 -0.6160 -0.1138  0.0674
  742SOL     OW 2733   6.240   5.815   3.964 -0.0331 -0.2728 -0.2211
  742SOL    HW2 2734   6.322   5.772   3.939  0.2164  0.0215  0.0708
  742SOL    HW3 2735   6.267   5.903   3.991 -0.3520 -0.4309  0.6225
  742SOL    MW4 2736   6.255   5.821   3.964 -0.0423 -0.2548 -0.0713
  743SOL     OW 2737   5.375   0.006   2.706 -0.1424 -0.2263  0.0750
  743SOL    HW2 2738   5.369  -0.079   2.662  0.2006 -0.8739  1.2118
  743SOL    HW3 2739   5.288   0.045   2.696 -0.3988 -0.8544 -0.1939
  743SOL    MW4 2740   5.363   0.000   2.699 -0.1310 -0.3946  0.1895
  744SOL     OW 2741   4.842   2.738   4.592  0.0406  0.3561 -0.0834
  744SOL    HW2 2742   4.799   2.663   4.553  1.0469 -0.5423  0.4882
  744SOL    HW3 2743   4.792   2.814   4.561 -0.4674 -0.4770 -1.3612
  744SOL    MW4 2744   4.830   2.738   4.582  0.1063  0.1277 -0.1766
  745SOL     OW 2745   0.224   3.072   6.363  0.1485 -0.2155 -0.0578
  745SOL    HW2 2746   0.234   2.986   6.322 -0.0623  0.1100 -0.8198
  745SOL    HW3 2747   0.310   3.092   6.400  0.6519 -0.0636 -1.2718
  745SOL    MW4 2748   0.236   3.063   6.362  0.1871 -0.1525 -0.3185
  746SOL     OW 2749   3.469   3.033   5.661  0.7432 -0.1151 -0.5395
  746SOL    HW2 2750   3.400   3.093   5.632  1.4926  0.4298 -1.2472
  746SOL    HW3 2751   3.422   2.958   5.699 -0.2184  1.2894  1.1906
  746SOL    MW4 2752   3.454   3.031   5.662  0.7152  0.1421 -0.4046
  747SOL     OW 2753   5.391   0.301   1.305  0.0526 -0.4904 -0.1282
  747SOL    HW2 2754   5.350   0.216   1.321  1.2604 -0.6273  2.8467
  747SOL    HW3 2755   5.377   0.317   1.212 -1.3915 -3.2950 -0.5004
  747SOL    MW4 2756   5.384   0.292   1.295  0.0214 -0.8785  0.2152
  748SOL     OW 2757   4.048   6.028   3.186 -0.5666 -0.1500 -0.1069
  748SOL    HW2 2758   4.032   5.955   3.245 -0.8221 -1.2953 -1.5320
  748SOL    HW3 2759   3.962   6.067   3.173 -0.4833  0.2120  0.3877
  748SOL    MW4 2760   4.034   6.024   3.192 -0.5893 -0.2533 -0.2297
  749SOL     OW 2761   0.528   0.422   3.129 -0.1353  0.3169 -0.6433
  749SOL    HW2 2762   0.520   0.328   3.113 -1.2358  0.3394 -0.3019
  749SOL    HW3 2763   0.483   0.436   3.213  2.5008  0.7227  0.8411
  749SOL    MW4 2764   0.521   0.412   3.138  0.0673  0.3734 -0.4024
  750SOL     OW 2765   2.811   3.630   1.776  0.2505  0.0972  1.0150
  750SOL    HW2 2766   2.884   3.603   1.721 -0.3090 -0.1799  0.3914
  750SOL    HW3 2767   2.794   3.554   1.832 -2.3342 -1.6592 -1.7907
  750SOL    MW4 2768   2.818   3.616   1.776 -0.1643 -0.1711  0.5626
  751SOL     OW 2769   5.987   2.378   1.371 -0.1047  0.3911 -0.3741
  751SOL    HW2 2770   5.916   2.343   1.319 -1.2365 -0.0585  1.3875
  751SOL    HW3 2771   6.066   2.359   1.320 -1.0904 -0.6079 -1.5860
  751SOL    MW4 2772   5.988   2.371   1.357 -0.3841  0.2000 -0.3016
  752SOL     OW 2773   2.733   3.551   4.749 -0.5551 -0.1022 -0.4941
  752SOL    HW2 2774   2.673   3.542   4.822 -0.0517  2.2969  0.3090
  752SOL    HW3 2775   2.818   3.567   4.790  0.2071 -1.0730 -1.6223
  752SOL    MW4 2776   2.737   3.552   4.764 -0.3881  0.0862 -0.5370
  753SOL     OW 2777   4.200   6.171   5.522 -0.4408  0.6787  0.2166
  753SOL    HW2 2778   4.173   6.080   5.513  0.0943  0.4618  0.7565
  753SOL    HW3 2779   4.118   6.220   5.528 -0.7327  0.2406 -0.1272
  753SOL    MW4 2780   4.186   6.165   5.521 -0.4087  0.5923  0.2425
  754SOL     OW 2781   3.820   6.071   0.902  0.2422 -0.1284 -0.4659
  754SOL    HW2 2782   3.884   6.139   0.923 -1.8562  1.5008  1.0452
  754SOL    HW3 2783   3.782   6.046   0.986 -0.4017 -1.8094 -1.2111
  754SOL    MW4 2784   3.824   6.077   0.915 -0.1196 -0.1352 -0.3648
  755SOL     OW 2785   1.176   5.763   5.283 -0.5317  0.4563  0.1604
  755SOL    HW2 2786   1.246   5.787   5.223 -1.1111  0.0543 -0.6802
  755SOL    HW3 2787   1.171   5.668   5.279 -0.1008  0.3669  1.3879
  755SOL    MW4 2788   1.184   5.754   5.275 -0.5513  0.3915  0.2114
  756SOL     OW 2789   4.578   1.825   6.172  0.3326  0.3745  0.0185
  756SOL    HW2 2790   4.514   1.889   6.139 -0.1526 -0.0147  0.1876
  756SOL    HW3 2791   4.564   1.823   6.266 -0.2162 -0.5621 -0.0679
  756SOL    MW4 2792   4.568   1.833   6.180  0.1962  0.1996  0.0294
  757SOL     OW 2793   1.536   2.285   2.284  0.0102  0.9116  0.3070
  757SOL    HW2 2794   1.540   2.257   2.192 -0.4488  1.3178  0.1561
  757SOL    HW3 2795   1.613   2.246   2.325  0.7236  1.4686 -0.4658
  757SOL    MW4 2796   1.546   2.276   2.277  0.0438  1.0386  0.1851
  758SOL     OW 2797   5.889   3.011   4.844  0.6997  0.1154 -0.1290
  758SOL    HW2 2798   5.934   2.957   4.909  0.5431  0.0988 -0.0348
  758SOL    HW3 2799   5.796   2.996   4.860  0.6281  1.1598  0.5288
  758SOL    MW4 2800   5.883   3.002   4.855  0.6695  0.2510 -0.0298
  759SOL     OW 2801   1.378   6.341   4.944  0.3983  0.2100  0.1490
  759SOL    HW2 2802   1.325   6.261   4.943  1.6676 -0.6642 -1.1032
  759SOL    HW3 2803   1.427   6.338   4.862 -1.7222  3.8238 -1.4681
  759SOL    MW4 2804   1.377   6.330   4.933  0.2860  0.5714 -0.2296
  760SOL     OW 2805   2.143   2.870   4.770 -0.1184  0.2639  0.6714
  760SOL    HW2 2806   2.210   2.939   4.773  1.6190 -1.3456  0.4497
  760SOL    HW3 2807   2.084   2.891   4.842  0.6840  1.6554  0.9704
  760SOL    MW4 2808   2.144   2.882   4.780  0.2167  0.2352  0.6816
  761SOL     OW 2809   1.691   5.738   2.566 -0.1288  0.4439  0.2047
  761SOL    HW2 2810   1.739   5.803   2.514  0.6626 -0.1170  0.2028
  761SOL    HW3 2811   1.613   5.718   2.514 -0.2341  1.1761  0.0749
  761SOL    MW4 2812   1.687   5.744   2.552 -0.0382  0.4665  0.1873
  762SOL     OW 2813   0.267   0.212   2.022 -0.3349 -0.1425  0.1056
  762SOL    HW2 2814   0.256   0.251   1.935  0.5577  1.4292  0.6572
  762SOL    HW3 2815   0.220   0.270   2.081  1.1717  0.2677  0.9681
  762SOL    MW4 2816   0.260   0.225   2.018 -0.0183  0.1190  0.2921
  763SOL     OW 2817   2.906   4.416   0.184  0.1807  0.5365 -0.3272
  763SOL    HW2 2818   2.965   4.482   0.147  0.4238  0.7291  0.3962
  763SOL    HW3 2819   2.854   4.463   0.249 -0.4395  0.2617 -0.6103
  763SOL    MW4 2820   2.907   4.431   0.188  0.1309  0.5256 -0.2691
  764SOL     OW 2821   5.674   3.754   3.341  0.5433 -0.2057 -0.1796
  764SOL    HW2 2822   5.632   3.687   3.288 -0.1240  1.3882 -1.7762
  764SOL    HW3 2823   5.750   3.710   3.380  0.8985 -1.5495 -2.2270
  764SOL    MW4 2824   5.678   3.740   3.339  0.5021 -0.1727 -0.6604
  765SOL     OW 2825   4.972   0.840   0.426 -0.0546 -0.3115  0.0226
  765SOL    HW2 2826   5.042   0.839   0.492 -0.9859 -1.6304  1.0597
  765SOL    HW3 2827   4.945   0.748   0.419 -0.2511 -0.1435 -1.9482
  765SOL    MW4 2828   4.978   0.828   0.434 -0.2034 -0.4633 -0.1006
  766SOL     OW 2829   2.111   1.573   2.367 -0.2076 -1.4582 -0.2781
  766SOL    HW2 2830   2.042   1.633   2.337 -1.1114 -2.6728 -0.7532
  766SOL    HW3 2831   2.130   1.600   2.456  0.9404  0.8564 -1.1376
  766SOL    MW4 2832   2.104   1.584   2.375 -0.1754 -1.3131 -0.4542
  767SOL     OW 2833   0.838   2.894   0.611  0.0310  0.0591 -0.1419
  767SOL    HW2 2834   0.895   2.889   0.534 -0.2787 -0.7320 -0.3294
  767SOL    HW3 2835   0.874   2.967   0.663  0.3003  0.5323 -0.9794
  767SOL    MW4 2836   0.850   2.903   0.608  0.0257  0.0172 -0.2771
  768SOL     OW 2837   0.793   5.150   4.935 -0.0579  0.0987  0.3275
  768SOL    HW2 2838   0.853   5.099   4.880 -1.0669 -0.9258  0.1397
  768SOL    HW3 2839   0.739   5.084   4.979 -0.5941  0.9751  1.0183
  768SOL    MW4 2840   0.794   5.134   4.934 -0.2618  0.0792  0.3938
  769SOL     OW 2841   5.895   0.118   0.179 -0.1955 -0.3141 -0.0729
  769SOL    HW2 2842   5.852   0.194   0.219  0.2964 -0.1737  0.1959
  769SOL    HW3 2843   5.824   0.069   0.138 -0.6368 -0.1723  0.5095
  769SOL    MW4 2844   5.880   0.121   0.179 -0.1888 -0.2768  0.0394
  770SOL     OW 2845   2.843   1.068   4.519 -0.4266  0.1173  0.7426
  770SOL    HW2 2846   2.773   1.074   4.585 -1.3062 -0.0963 -0.1482
  770SOL    HW3 2847   2.858   1.158   4.491 -0.4233  0.1488  0.8436
  770SOL    MW4 2848   2.836   1.081   4.524 -0.5422  0.0933  0.6384
  771SOL     OW 2849   1.724   1.809   5.791  0.3326 -0.1082 -0.1910
  771SOL    HW2 2850   1.701   1.863   5.867  1.0502 -1.9981  1.4504
  771SOL    HW3 2851   1.748   1.724   5.828 -0.8657 -1.6423 -2.6633
  771SOL    MW4 2852   1.724   1.805   5.806  0.2692 -0.5600 -0.3006
  772SOL     OW 2853   3.949   3.078   3.370  0.4921 -0.4776  0.1368
  772SOL    HW2 2854   3.893   3.006   3.399 -0.0422 -0.1617 -0.0959
  772SOL    HW3 2855   3.964   3.129   3.449 -1.3995  0.6768 -0.1922
  772SOL    MW4 2856   3.943   3.075   3.384  0.1720 -0.2836  0.0626
  773SOL     OW 2857   5.140   4.439   3.974  0.0255 -0.3930 -0.4734
  773SOL    HW2 2858   5.186   4.368   3.929 -0.5092 -0.9887 -0.1037
  773SOL    HW3 2859   5.203   4.511   3.977  1.1165 -1.3473  0.4476
  773SOL    MW4 2860   5.154   4.439   3.968  0.0989 -0.5975 -0.3031
  774SOL     OW 2861   3.199   0.114   2.656 -0.9534 -0.0257 -0.1773
  774SOL    HW2 2862   3.269   0.174   2.633 -1.6101  0.7292 -0.2430
  774SOL    HW3 2863   3.118   0.162   2.636 -1.5045 -0.4482  0.9392
  774SOL    MW4 2864   3.197   0.128   2.650 -1.1127  0.0181 -0.0386
  775SOL     OW 2865   2.846   4.664   3.326 -0.2631 -0.3130  0.1348
  775SOL    HW2 2866   2.852   4.641   3.419  2.5602 -1.1671 -0.1504
  775SOL    HW3 2867   2.892   4.748   3.319 -1.8694  0.5759 -0.3057
  775SOL    MW4 2868   2.853   4.672   3.337 -0.1025 -0.3084  0.0390
  776SOL     OW 2869   6.245   5.468   2.129 -0.5677 -0.3332 -0.4505
  776SOL    HW2 2870   6.304   5.522   2.077 -2.1679  1.3528 -0.6147
  776SOL    HW3 2871   6.163   5.467   2.080 -1.8855  0.6457  1.5839
  776SOL    MW4 2872   6.242   5.475   2.116 -0.9527  0.0184 -0.2038
  777SOL     OW 2873   1.691   2.732   2.093 -0.2201 -0.4040  0.2734
  777SOL    HW2 2874   1.641   2.806   2.060  0.0725 -0.5988 -0.6404
  777SOL    HW3 2875   1.782   2.759   2.084  0.0818 -2.0850 -3.2864
  777SOL    MW4 2876   1.697   2.745   2.088 -0.1417 -0.6515 -0.3169
  778SOL     OW 2877   1.356   4.772   3.213  0.1856  0.6541  0.3978
  778SOL    HW2 2878   1.330   4.853   3.257 -0.0567  0.8387 -0.0794
  778SOL    HW3 2879   1.291   4.759   3.144  0.6898  0.5045 -0.0677
  778SOL    MW4 2880   1.344   4.781   3.209  0.2201  0.6587  0.2734
  779SOL     OW 2881   5.813   5.873   4.865 -0.1191  0.3291  0.0243
  779SOL    HW2 2882   5.831   5.786   4.828 -1.9890 -0.1282  0.0863
  779SOL    HW3 2883   5.723   5.867   4.898 -0.3380  2.3219 -0.0729
  779SOL    MW4 2884   5.803   5.861   4.865 -0.3947  0.5317  0.0197
  780SOL     OW 2885   0.814   3.590   2.179 -0.1073 -0.7296  0.2854
  780SOL    HW2 2886   0.866   3.522   2.135  1.0048 -0.1463  0.6548
  780SOL    HW3 2887   0.873   3.626   2.245  0.6017  2.9368 -2.0895
  780SOL    MW4 2888   0.829   3.586   2.182  0.1330 -0.1689  0.0208
  781SOL     OW 2889   4.179   5.790   1.537 -0.4873  0.1125 -0.2413
  781SOL    HW2 2890   4.126   5.766   1.461 -0.1435 -1.8859  0.1026
  781SOL    HW3 2891   4.241   5.855   1.504 -1.5595  0.6686 -1.2067
  781SOL    MW4 2892   4.180   5.796   1.523 -0.5834 -0.0778 -0.3233
  782SOL     OW 2893   0.113   4.948   2.105  0.2749 -0.6146  0.1886
  782SOL    HW2 2894   0.085   5.036   2.129 -0.9448 -0.2361 -2.3672
  782SOL    HW3 2895   0.200   4.939   2.144  0.4213  1.6984  0.5332
  782SOL    MW4 2896   0.120   4.958   2.114  0.1333 -0.2595 -0.1031
  783SOL     OW 2897   3.875   0.034   5.273 -0.1938  0.2504  0.8228
  783SOL    HW2 2898   3.794  -0.002   5.237  0.6239 -0.4175 -0.4704
  783SOL    HW3 2899   3.849   0.115   5.316 -1.5770 -0.0867  0.6742
  783SOL    MW4 2900   3.861   0.040   5.274 -0.2684  0.1178  0.6326
  784SOL     OW 2901   4.960   1.646   0.191 -0.6823  0.2189  0.3696
  784SOL    HW2 2902   4.975   1.575   0.129 -1.7894  0.4265 -0.1710
  784SOL    HW3 2903   5.047   1.671   0.222 -0.1092  0.0731 -1.0612
  784SOL    MW4 2904   4.973   1.640   0.187 -0.7528  0.2271  0.1095
  785SOL     OW 2905   0.164   1.001   2.239 -0.2088 -0.0002 -0.0139
  785SOL    HW2 2906   0.130   0.923   2.282 -0.2780 -0.6124 -1.1489
  785SOL    HW3 2907   0.107   1.013   2.163  0.7176  0.2739 -0.6801
  785SOL    MW4 2908   0.152   0.992   2.235 -0.0957 -0.0448 -0.2516
  786SOL     OW 2909   4.173   5.834   5.706 -0.4316  0.5428 -0.4153
  786SOL    HW2 2910   4.254   5.784   5.701  0.7145  2.3741 -1.1777
  786SOL    HW3 2911   4.106   5.769   5.730  1.4363 -0.7710  1.5418
  786SOL    MW4 2912   4.175   5.819   5.708 -0.0340  0.6110 -0.2577
  787SOL     OW 2913   3.438   2.195   3.570  0.6365  0.0693 -0.0879
  787SOL    HW2 2914   3.356   2.244   3.566  0.3032 -0.4848 -0.1608
  787SOL    HW3 2915   3.504   2.255   3.535  0.5296  1.0584  1.3220
  787SOL    MW4 2916   3.436   2.210   3.565  0.5784  0.1267  0.0885
  788SOL     OW 2917   4.535   4.598   1.231 -0.2212 -0.1413  0.2298
  788SOL    HW2 2918   4.506   4.667   1.290  0.7127  1.7287 -1.3884
  788SOL    HW3 2919   4.462   4.586   1.170 -0.9223 -1.6115  1.2824
  788SOL    MW4 2920   4.521   4.605   1.231 -0.1905 -0.0885  0.1552
  789SOL     OW 2921   5.601   1.562   1.095  0.5351 -0.1742  0.3646
  789SOL    HW2 2922   5.659   1.496   1.057  0.8110 -0.9205  2.0093
  789SOL    HW3 2923   5.642   1.645   1.075  0.8649 -0.5586 -0.6143
  789SOL    MW4 2924   5.614   1.564   1.087  0.6150 -0.3234  0.4525
  790SOL     OW 2925   3.164   5.168   5.062  0.0658  0.6578  0.6695
  790SOL    HW2 2926   3.257   5.177   5.041  0.2094  1.4304  1.5581
  790SOL    HW3 2927   3.163   5.137   5.153 -0.5418 -0.1238  0.3992
  790SOL    MW4 2928   3.176   5.165   5.071  0.0046  0.6566  0.7511
  791SOL     OW 2929   3.344   1.554   4.142 -0.4058  0.2367 -0.1928
  791SOL    HW2 2930   3.308   1.638   4.115 -0.1385  0.6577  0.7081
  791SOL    HW3 2931   3.268   1.505   4.174 -0.5690  0.1054 -0.7632
  791SOL    MW4 2932   3.329   1.559   4.143 -0.3921  0.2749 -0.1492
  792SOL     OW 2933   5.766   3.588   6.091 -0.0638  0.5496  0.0737
  792SOL    HW2 2934   5.823   3.578   6.015 -1.0130 -1.0040 -0.4887
  792SOL    HW3 2935   5.825   3.584   6.166  0.7163  0.4182 -0.5312
  792SOL    MW4 2936   5.781   3.586   6.091 -0.0861  0.3273 -0.0803
  793SOL     OW 2937   0.056   3.815   3.179 -0.6570  0.0334 -0.7295
  793SOL    HW2 2938   0.055   3.730   3.224 -1.9889 -0.0932 -0.9596
  793SOL    HW3 2939   0.148   3.831   3.162 -0.1629 -0.3122  1.2920
  793SOL    MW4 2940   0.068   3.806   3.183 -0.7676 -0.0289 -0.4932
  794SOL     OW 2941   1.159   4.958   2.260  0.5246  0.2008 -0.0839
  794SOL    HW2 2942   1.146   4.863   2.267 -0.6687  0.3788  0.2430
  794SOL    HW3 2943   1.112   4.994   2.335  0.5571  1.0865 -0.4809
  794SOL    MW4 2944   1.151   4.950   2.271  0.3714  0.3412 -0.0931
  795SOL     OW 2945   6.099   6.229   5.849  0.9378  0.0161 -0.0697
  795SOL    HW2 2946   6.181   6.279   5.841  0.9328  0.3788  1.7720
  795SOL    HW3 2947   6.090   6.213   5.943 -0.6588 -0.8097 -0.3381
  795SOL    MW4 2948   6.109   6.233   5.860  0.7265 -0.0450  0.1378
  796SOL     OW 2949   0.830   4.182   5.000  0.1539 -0.1366  0.1393
  796SOL    HW2 2950   0.755   4.137   4.962 -1.7870  0.3207  3.0696
  796SOL    HW3 2951   0.898   4.115   5.006 -0.7412 -1.1498 -0.6522
  796SOL    MW4 2952   0.829   4.167   4.996 -0.2203 -0.2099  0.4215
  797SOL     OW 2953   4.053   0.817   6.414 -0.3262 -0.3373 -0.5058
  797SOL    HW2 2954   4.084   0.827   6.504 -0.1152  0.2453 -0.6335
  797SOL    HW3 2955   4.102   0.742   6.379  0.4075  0.1194 -0.4728
  797SOL    MW4 2956   4.064   0.809   6.421 -0.2016 -0.2001 -0.5183
  798SOL     OW 2957   2.083   4.210   4.619  0.1965  0.3921  0.8192
  798SOL    HW2 2958   2.121   4.135   4.573 -0.7010  0.8969 -0.8049
  798SOL    HW3 2959   2.003   4.175   4.660 -0.6335  0.5871 -0.5717
  798SOL    MW4 2960   2.077   4.195   4.618 -0.0315  0.4844  0.4214
  799SOL     OW 2961   1.596   3.123   1.097 -0.2313 -0.1975  0.1703
  799SOL    HW2 2962   1.605   3.037   1.137 -0.4375  0.4684  1.6916
  799SOL    HW3 2963   1.681   3.139   1.055  0.3368 -0.5049  1.1730
  799SOL    MW4 2964   1.609   3.114   1.096 -0.1835 -0.1502  0.5033
  800SOL     OW 2965   3.471   1.590   5.187  0.3589 -0.2639 -0.3862
  800SOL    HW2 2966   3.534   1.519   5.199 -0.6722 -1.4223 -1.4465
  800SOL    HW3 2967   3.393   1.546   5.152 -0.9752  1.1489  0.7357
  800SOL    MW4 2968   3.469   1.574   5.184  0.0469 -0.2304 -0.3781
  801SOL     OW 2969   5.504   3.285   5.766 -0.0280 -0.1709 -0.5745
  801SOL    HW2 2970   5.589   3.266   5.725  0.0278 -1.5179  0.1122
  801SOL    HW3 2971   5.525   3.344   5.838  0.3322 -0.4842 -0.4171
  801SOL    MW4 2972   5.518   3.290   5.770  0.0269 -0.3899 -0.4632
  802SOL     OW 2973   3.716   0.739   0.441  0.2654 -0.0209  0.7310
  802SOL    HW2 2974   3.629   0.744   0.401  0.6546  0.5124 -0.0742
  802SOL    HW3 2975   3.767   0.685   0.381  1.0980  1.5014  0.0357
  802SOL    MW4 2976   3.711   0.732   0.428  0.4266  0.2503  0.5331
  803SOL     OW 2977   2.413   5.232   2.185  0.1731 -0.9676 -0.4306
  803SOL    HW2 2978   2.417   5.323   2.157  0.2301  0.5757  3.8246
  803SOL    HW3 2979   2.503   5.201   2.177  0.3871 -0.2572 -0.8657
  803SOL    MW4 2980   2.426   5.240   2.180  0.2089 -0.6702  0.0734
  804SOL     OW 2981   3.615   0.077   2.699  0.0145 -0.2785  0.2518
  804SOL    HW2 2982   3.699   0.053   2.737  0.3044  0.4572  0.0809
  804SOL    HW3 2983   3.565   0.113   2.773  0.7225  1.5307 -0.1043
  804SOL    MW4 2984   3.619   0.079   2.714  0.1462  0.0573  0.1823
  805SOL     OW 2985   1.789   4.978   2.215  0.1896  0.6247  0.1446
  805SOL    HW2 2986   1.720   5.028   2.171 -1.0418  0.6383  1.9770
  805SOL    HW3 2987   1.822   5.038   2.282  0.3095 -0.2195  0.8512
  805SOL    MW4 2988   1.784   4.992   2.218  0.0429  0.5151  0.4796
  806SOL     OW 2989   3.709   1.855   0.080 -0.0539 -0.1902  0.4280
  806SOL    HW2 2990   3.669   1.912   0.146  1.2933  0.6916  0.5181
  806SOL    HW3 2991   3.640   1.839   0.016 -0.7152  0.8066  0.8797
  806SOL    MW4 2992   3.695   1.860   0.081  0.0366  0.0576  0.4995
  807SOL     OW 2993   1.852   1.535   1.549 -0.5242  0.2759  0.5859
  807SOL    HW2 2994   1.810   1.542   1.635  0.1252 -1.4966  1.0845
  807SOL    HW3 2995   1.940   1.569   1.563 -1.1943  2.5047 -0.0846
  807SOL    MW4 2996   1.858   1.540   1.563 -0.5270  0.3361  0.5632
  808SOL     OW 2997   5.262   5.144   1.745 -0.0021 -0.0510 -0.1252
  808SOL    HW2 2998   5.353   5.158   1.772 -0.4568  0.2680  1.3672
  808SOL    HW3 2999   5.250   5.049   1.748 -0.1264 -0.0174  1.2296
  808SOL    MW4 3000   5.272   5.133   1.749 -0.0785 -0.0045  0.2504
  809SOL     OW 3001   4.292   3.982   5.555 -0.6645  0.1165  0.3066
  809SOL    HW2 3002   4.222   4.025   5.606  1.0495  0.9074  2.1356
  809SOL    HW3 3003   4.372   4.028   5.581  1.0444 -2.9583  0.9717
  809SOL    MW4 3004   4.293   3.994   5.565 -0.2129 -0.1849  0.6357
  810SOL     OW 3005   0.936   4.534   3.684 -0.3993 -0.4743  0.0462
  810SOL    HW2 3006   0.911   4.526   3.592  0.4982  1.8968 -0.4913
  810SOL    HW3 3007   0.954   4.628   3.696  1.5321 -0.9970  2.0916
  810SOL    MW4 3008   0.935   4.546   3.673 -0.0260 -0.2304  0.2452
  811SOL     OW 3009   5.039   1.810   5.528 -0.8068  0.1191 -0.0682
  811SOL    HW2 3010   4.969   1.746   5.519  0.0206 -0.6943 -0.8353
  811SOL    HW3 3011   5.089   1.804   5.447  0.5337  0.2197  0.7093
  811SOL    MW4 3012   5.036   1.801   5.516 -0.5207  0.0250 -0.0668
  812SOL     OW 3013   1.856   6.191   3.458 -0.3982 -0.2999 -0.0268
  812SOL    HW2 3014   1.905   6.225   3.383 -1.7146  0.7387 -0.4687
  812SOL    HW3 3015   1.922   6.153   3.515  0.7822  0.0494 -1.1124
  812SOL    MW4 3016   1.871   6.191   3.455 -0.4162 -0.1168 -0.2283
  813SOL     OW 3017   1.457   5.690   0.691 -0.5284  0.0326  0.2898
  813SOL    HW2 3018   1.481   5.755   0.625 -1.2815  1.8963  1.7620
  813SOL    HW3 3019   1.381   5.646   0.655 -0.0352 -0.0307 -0.7197
  813SOL    MW4 3020   1.450   5.693   0.678 -0.5627  0.2701  0.3508
  814SOL     OW 3021   5.553   3.570   3.070  0.6054  0.0295  0.4844
  814SOL    HW2 3022   5.482   3.511   3.096 -1.2477  1.4224 -1.0534
  814SOL    HW3 3023   5.626   3.512   3.048 -0.4407 -1.5582  0.9910
  814SOL    MW4 3024   5.553   3.555   3.070  0.2229  0.0038  0.3483
  815SOL     OW 3025   4.081   4.113   5.653 -0.3134  0.2887 -0.1310
  815SOL    HW2 3026   4.045   4.106   5.565 -0.8712 -0.6870  0.1576
  815SOL    HW3 3027   4.070   4.204   5.677 -0.2039  0.5530 -1.0458
  815SOL    MW4 3028   4.075   4.124   5.644 -0.3725  0.1948 -0.2136
  816SOL     OW 3029   3.095   5.455   4.655  0.4574  0.4264 -0.1484
  816SOL    HW2 3030   3.179   5.429   4.617  0.5617 -1.1843  1.1001
  816SOL    HW3 3031   3.117   5.518   4.723  0.6467  0.0087  0.1741
  816SOL    MW4 3032   3.109   5.460   4.659  0.4961  0.1588  0.0589
  817SOL     OW 3033   0.411   3.531   2.858  0.4589  0.0355 -0.6184
  817SOL    HW2 3034   0.495   3.486   2.846  0.8719  1.3031 -3.5780
  817SOL    HW3 3035   0.365   3.516   2.775 -1.2132  1.3663  0.0317
  817SOL    MW4 3036   0.416   3.523   2.845  0.2928  0.3784 -0.9231
  818SOL     OW 3037   2.494   3.495   1.927 -0.2382 -0.2289  0.1151
  818SOL    HW2 3038   2.577   3.450   1.939  1.0530  1.6794 -1.0800
  818SOL    HW3 3039   2.459   3.461   1.844 -0.6483 -1.0164  0.6078
  818SOL    MW4 3040   2.501   3.485   1.917 -0.1219 -0.0810  0.0224
  819SOL     OW 3041   5.009   2.074   5.682 -0.5784  0.0812  1.0256
  819SOL    HW2 3042   5.018   1.981   5.661  1.0032 -0.2112  2.7447
  819SOL    HW3 3043   4.979   2.075   5.772  0.5284  1.2074  1.4105
  819SOL    MW4 3044   5.006   2.062   5.691 -0.2237  0.1912  1.3032
  820SOL     OW 3045   1.434   3.342   4.774 -0.2736 -0.1756 -0.1527
  820SOL    HW2 3046   1.462   3.293   4.851  0.2779 -0.9787 -0.8478
  820SOL    HW3 3047   1.506   3.334   4.712 -0.9138  0.0163 -0.9490
  820SOL    MW4 3048   1.447   3.335   4.776 -0.2853 -0.2562 -0.3495
  821SOL     OW 3049   0.698   3.169   4.435  0.0850 -0.1285 -0.3874
  821SOL    HW2 3050   0.631   3.221   4.479  1.2073  1.2124 -0.1825
  821SOL    HW3 3051   0.740   3.119   4.505 -0.2931 -0.5040 -0.4269
  821SOL    MW4 3052   0.695   3.169   4.450  0.1832 -0.0011 -0.3656
  822SOL     OW 3053   5.920   5.320   5.009  0.2558 -0.3349  0.3765
  822SOL    HW2 3054   5.897   5.262   5.082 -1.0893 -0.1844  0.1037
  822SOL    HW3 3055   5.978   5.385   5.047  0.6189 -1.0106  1.0129
  822SOL    MW4 3056   5.925   5.321   5.023  0.1262 -0.4042  0.4245
  823SOL     OW 3057   3.967   1.728   3.195 -0.0384  0.2916  0.5699
  823SOL    HW2 3058   4.038   1.791   3.184  0.8930 -0.6184  1.2198
  823SOL    HW3 3059   3.978   1.694   3.284 -1.5586  0.4502  0.8417
  823SOL    MW4 3060   3.978   1.732   3.205 -0.1161  0.1925  0.6915
  824SOL     OW 3061   0.258   6.198   3.508  0.4974  0.1815  0.1117
  824SOL    HW2 3062   0.254   6.220   3.601  0.3435  0.6963 -0.0120
  824SOL    HW3 3063   0.205   6.265   3.465 -0.8877 -1.0383 -0.1947
  824SOL    MW4 3064   0.250   6.210   3.515  0.2944  0.0885  0.0550
  825SOL     OW 3065   0.082   3.970   0.754  0.3071  0.4478 -0.0511
  825SOL    HW2 3066  -0.007   3.996   0.777  1.3728  1.2729  3.7648
  825SOL    HW3 3067   0.136   4.047   0.773  1.9680 -0.3295 -1.3645
  825SOL    MW4 3068   0.077   3.983   0.760  0.6668  0.4541  0.2791
  826SOL     OW 3069   2.368   0.162   0.938  0.1041  0.1908 -1.1963
  826SOL    HW2 3070   2.458   0.182   0.963 -0.4540  1.0162  0.3130
  826SOL    HW3 3071   2.329   0.125   1.017 -0.8506 -0.2724 -1.8638
  826SOL    MW4 3072   2.375   0.160   0.952 -0.0955  0.2386 -1.0853
  827SOL     OW 3073   3.175   1.201   3.330 -0.2007 -0.4057  0.4665
  827SOL    HW2 3074   3.211   1.133   3.387 -0.0021 -0.4307  0.3125
  827SOL    HW3 3075   3.221   1.281   3.358  2.0808 -0.8777 -1.5598
  827SOL    MW4 3076   3.186   1.203   3.341  0.1265 -0.4712  0.1789
  828SOL     OW 3077   3.027   2.458   6.281 -0.4413 -0.1320  0.2103
  828SOL    HW2 3078   2.964   2.526   6.306 -1.7016 -1.2881  0.2632
  828SOL    HW3 3079   3.113   2.498   6.297 -1.1121  1.8430 -0.8124
  828SOL    MW4 3080   3.030   2.472   6.287 -0.6961 -0.0239  0.0823
  829SOL     OW 3081   1.356   0.265   2.951  0.4693  0.5285  0.1452
  829SOL    HW2 3082   1.385   0.234   2.865  1.0020 -1.2682  0.9302
  829SOL    HW3 3083   1.267   0.297   2.936 -0.2014 -1.5964 -0.7203
  829SOL    MW4 3084   1.348   0.265   2.937  0.4511  0.0111  0.1346
  830SOL     OW 3085   0.893   5.442   4.071  0.0778  0.3277  0.3810
  830SOL    HW2 3086   0.932   5.518   4.113  0.7587 -1.0634  2.3935
  830SOL    HW3 3087   0.798   5.456   4.081  0.1857  1.0421  0.4719
  830SOL    MW4 3088   0.885   5.454   4.078  0.1818  0.2384  0.6585
  831SOL     OW 3089   5.057   6.270   2.826  0.5685 -0.1623 -0.5355
  831SOL    HW2 3090   5.092   6.266   2.915 -1.0361  2.9720  0.4034
  831SOL    HW3 3091   5.067   6.362   2.801 -1.8237 -0.3043 -2.3417
  831SOL    MW4 3092   5.063   6.282   2.835  0.0412  0.2325 -0.6499
  832SOL     OW 3093   4.578   4.055   5.567 -0.4208 -0.9343 -0.0967
  832SOL    HW2 3094   4.619   3.970   5.585  0.7504 -0.3007  0.3146
  832SOL    HW3 3095   4.603   4.074   5.477  1.4622  0.1109  0.5993
  832SOL    MW4 3096   4.587   4.046   5.558 -0.0178 -0.7128  0.0494
  833SOL     OW 3097   3.655   2.315   0.139  0.1745  0.4736  0.1131
  833SOL    HW2 3098   3.697   2.354   0.216  0.7055  0.2304 -0.0471
  833SOL    HW3 3099   3.727   2.295   0.080 -0.3670  2.1494 -1.1580
  833SOL    MW4 3100   3.670   2.317   0.142  0.1731  0.6626 -0.0758
  834SOL     OW 3101   3.873   1.289   0.876  0.1888 -0.2425 -0.0894
  834SOL    HW2 3102   3.904   1.234   0.948  0.2979 -0.1264 -0.0482
  834SOL    HW3 3103   3.782   1.308   0.899 -0.1581 -1.2263 -0.5975
  834SOL    MW4 3104   3.865   1.284   0.889  0.1575 -0.3570 -0.1510
  835SOL     OW 3105   1.009   6.208   0.721 -0.2542 -0.2572 -0.2324
  835SOL    HW2 3106   0.920   6.221   0.689 -0.0432  0.3954 -0.5654
  835SOL    HW3 3107   1.056   6.288   0.696  0.1380 -0.0967  0.9698
  835SOL    MW4 3108   1.003   6.220   0.713 -0.1746 -0.1499 -0.1177
  836SOL     OW 3109   3.748   1.145   5.944 -0.1433 -0.8054 -0.2972
  836SOL    HW2 3110   3.825   1.174   5.896  1.5195 -2.8678  0.9330
  836SOL    HW3 3111   3.693   1.104   5.878  0.3559 -0.3103 -1.0275
  836SOL    MW4 3112   3.751   1.143   5.929  0.1419 -1.0122 -0.2312
  837SOL     OW 3113   4.173   1.299   0.414 -0.5525 -0.8329  0.0427
  837SOL    HW2 3114   4.236   1.370   0.412 -0.5460 -0.8531 -0.9907
  837SOL    HW3 3115   4.125   1.307   0.331 -1.4082 -1.2598  0.4813
  837SOL    MW4 3116   4.175   1.309   0.402 -0.6645 -0.8919 -0.0358
  838SOL     OW 3117   1.950   0.339   6.305  0.1842  0.1667  0.6080
  838SOL    HW2 3118   1.894   0.396   6.253 -0.9017  0.1024  1.6622
  838SOL    HW3 3119   1.971   0.391   6.383 -1.5466 -1.1251  2.0039
  838SOL    MW4 3120   1.946   0.354   6.308 -0.1874 -0.0122  0.9313
  839SOL     OW 3121   1.616   0.963   4.003 -0.5640  0.0754  0.2341
  839SOL    HW2 3122   1.686   1.027   3.991 -0.6196 -0.0230 -0.7537
  839SOL    HW3 3123   1.572   0.990   4.084  1.3278 -0.5661  1.5355
  839SOL    MW4 3124   1.620   0.975   4.012 -0.3218 -0.0222  0.2755
  840SOL     OW 3125   3.382   4.573   4.668 -0.1562 -0.0942  0.3225
  840SOL    HW2 3126   3.320   4.638   4.699  0.9273  2.1097 -1.7737
  840SOL    HW3 3127   3.440   4.621   4.609 -0.5640 -3.3379 -3.1044
  840SOL    MW4 3128   3.381   4.588   4.664 -0.0671 -0.2314 -0.4062
  841SOL     OW 3129   3.905   3.553   3.022 -0.6600  0.0143  0.4822
  841SOL    HW2 3130   3.875   3.605   2.947  1.2546  0.2689 -0.1670
  841SOL    HW3 3131   3.825   3.514   3.058 -1.5339 -1.3613 -2.5972
  841SOL    MW4 3132   3.891   3.555   3.016 -0.5227 -0.1336 -0.0098
  842SOL     OW 3133   1.153   1.469   3.186  0.0444 -0.1995 -0.2085
  842SOL    HW2 3134   1.201   1.516   3.255 -0.6205 -0.0894  0.1886
  842SOL    HW3 3135   1.072   1.442   3.229  0.1299 -1.1344 -0.6252
  842SOL    MW4 3136   1.149   1.472   3.201 -0.0320 -0.3084 -0.2111
  843SOL     OW 3137   1.853   2.855   1.542  0.0626  0.4820 -0.4687
  843SOL    HW2 3138   1.939   2.886   1.570 -0.3592  1.2403  0.0178
  843SOL    HW3 3139   1.825   2.919   1.476 -0.1708  0.2950 -0.5507
  843SOL    MW4 3140   1.861   2.868   1.537 -0.0238  0.5574 -0.4154
  844SOL     OW 3141   1.489   1.597   0.980 -0.1278 -0.0621  0.4524
  844SOL    HW2 3142   1.446   1.683   0.978  0.7428  0.3944  0.7980
  844SOL    HW3 3143   1.429   1.539   0.934  0.4955  1.2806 -2.2155
  844SOL    MW4 3144   1.475   1.601   0.974  0.0693  0.1753  0.1460
  845SOL     OW 3145   1.658   0.725   6.357  0.1508  0.2093  0.3422
  845SOL    HW2 3146   1.729   0.788   6.342 -0.9131  1.2163 -0.5841
  845SOL    HW3 3147   1.657   0.714   6.452 -0.2208  2.3234  0.6340
  845SOL    MW4 3148   1.668   0.732   6.368 -0.0386  0.6211  0.2585
  846SOL     OW 3149   4.536   5.029   5.353 -0.2392 -0.6077 -0.0853
  846SOL    HW2 3150   4.612   5.039   5.296  0.1499  0.9651  0.6421
  846SOL    HW3 3151   4.467   4.994   5.296  0.6072 -0.6499 -1.1014
  846SOL    MW4 3152   4.537   5.026   5.338 -0.0762 -0.4058 -0.1234
  847SOL     OW 3153   0.110   5.758   5.322  0.1028 -0.0194 -0.1759
  847SOL    HW2 3154   0.026   5.799   5.340  0.8384  1.0662  1.0340
  847SOL    HW3 3155   0.163   5.828   5.283  0.9619 -0.1438  0.6939
  847SOL    MW4 3156   0.106   5.772   5.320  0.3132  0.1075  0.0985
  848SOL     OW 3157   1.279   5.229   2.844 -0.3538  0.1702  0.4392
  848SOL    HW2 3158   1.318   5.313   2.820  0.2798 -0.3096 -0.2467
  848SOL    HW3 3159   1.209   5.251   2.905 -0.1105  1.1849  0.3570
  848SOL    MW4 3160   1.275   5.243   2.849 -0.2381  0.2407  0.3379
  849SOL     OW 3161   1.348   6.360   0.270  0.6198 -0.2705  0.6328
  849SOL    HW2 3162   1.282   6.423   0.243  0.5732 -0.6873 -0.2528
  849SOL    HW3 3163   1.426   6.412   0.287  0.5001  0.0616  0.1885
  849SOL    MW4 3164   1.349   6.375   0.269  0.5979 -0.2817  0.4573
  850SOL     OW 3165   2.769   2.681   3.739  0.5786  0.5485  0.5895
  850SOL    HW2 3166   2.852   2.700   3.783 -0.1451  2.0650  1.4150
  850SOL    HW3 3167   2.748   2.762   3.693  0.3568 -0.3797 -1.0001
  850SOL    MW4 3168   2.777   2.694   3.739  0.4538  0.6261  0.4887
  851SOL     OW 3169   3.743   1.599   4.902 -0.0094  0.1928  0.2893
  851SOL    HW2 3170   3.717   1.657   4.830 -0.3211 -0.8279 -0.4508
  851SOL    HW3 3171   3.833   1.575   4.882 -0.1741 -0.2824  0.0907
  851SOL    MW4 3172   3.751   1.603   4.890 -0.0723 -0.0046  0.1654
  852SOL     OW 3173   0.573   5.560   2.484  0.2503 -0.7157 -0.3249
  852SOL    HW2 3174   0.508   5.510   2.533  0.2824 -0.3914  0.0517
  852SOL    HW3 3175   0.643   5.578   2.547 -0.7692  1.7349  0.2367
  852SOL    MW4 3176   0.573   5.556   2.499  0.1200 -0.3496 -0.2011
  853SOL     OW 3177   3.112   4.570   5.328  0.3101  0.0829 -0.1635
  853SOL    HW2 3178   3.151   4.494   5.371  2.2467  1.8085  1.3646
  853SOL    HW3 3179   3.068   4.618   5.399 -2.2337 -0.2979 -1.3576
  853SOL    MW4 3180   3.111   4.567   5.343  0.2300  0.2603 -0.1194
  854SOL     OW 3181   6.227   1.388   5.033  0.1065  0.2881  0.3307
  854SOL    HW2 3182   6.177   1.315   4.996 -1.3875  0.6741  1.5215
  854SOL    HW3 3183   6.299   1.346   5.080  0.4362 -0.3155 -0.6736
  854SOL    MW4 3184   6.230   1.373   5.034 -0.0471  0.2594  0.3553
  855SOL     OW 3185   5.039   1.846   0.632 -0.1604  0.4049  0.2538
  855SOL    HW2 3186   5.062   1.753   0.626 -0.5489  0.4002 -3.0961
  855SOL    HW3 3187   4.947   1.850   0.604  0.5309  1.9697 -2.0949
  855SOL    MW4 3188   5.030   1.834   0.627 -0.1205  0.6108 -0.4981
  856SOL     OW 3189   3.223   0.425   0.810  0.1935 -0.1439  0.0188
  856SOL    HW2 3190   3.190   0.413   0.899  1.0152 -0.9375  0.2356
  856SOL    HW3 3191   3.285   0.497   0.817 -0.6405  0.6101 -0.1692
  856SOL    MW4 3192   3.227   0.433   0.822  0.1919 -0.1491  0.0226
  857SOL     OW 3193   0.612   5.963   2.678 -0.0302 -0.0115  0.0744
  857SOL    HW2 3194   0.575   5.921   2.600 -0.3438 -0.5027  0.4890
  857SOL    HW3 3195   0.551   5.943   2.748  0.6812 -0.2795  0.6268
  857SOL    MW4 3196   0.599   5.955   2.677  0.0223 -0.1116  0.2020
  858SOL     OW 3197   4.721   6.065   0.583 -0.5823 -0.3048  0.3151
  858SOL    HW2 3198   4.707   5.972   0.565  0.1784 -0.3237 -0.2250
  858SOL    HW3 3199   4.639   6.095   0.621 -0.7805 -1.2334  0.6341
  858SOL    MW4 3200   4.708   6.057   0.585 -0.5081 -0.4298  0.2859
  859SOL     OW 3201   3.981   0.379   1.876 -0.2765 -0.4056  0.4167
  859SOL    HW2 3202   4.018   0.437   1.809 -0.2790 -0.9189 -0.0423
  859SOL    HW3 3203   4.054   0.363   1.936 -0.2428 -0.0253  0.4802
  859SOL    MW4 3204   3.996   0.384   1.875 -0.2724 -0.4232  0.3645
  860SOL     OW 3205   3.865   2.789   2.995 -0.6120  0.4165 -0.4609
  860SOL    HW2 3206   3.851   2.738   3.075 -0.1943  1.6913  0.4636
  860SOL    HW3 3207   3.903   2.871   3.026 -2.0075  1.6276 -1.8097
  860SOL    MW4 3208   3.868   2.793   3.010 -0.7410  0.7445 -0.5169
  861SOL     OW 3209   2.157   2.080   5.338 -0.1530 -0.3325  0.0187
  861SOL    HW2 3210   2.122   2.006   5.289 -2.9886  1.1480 -0.4192
  861SOL    HW3 3211   2.140   2.060   5.430  0.7133 -0.9560  0.0574
  861SOL    MW4 3212   2.150   2.068   5.343 -0.4128 -0.2194 -0.0339
  862SOL     OW 3213   2.744   5.047   3.442  0.6645  0.0116 -0.1017
  862SOL    HW2 3214   2.792   5.086   3.369  0.3085  0.4158 -0.1278
  862SOL    HW3 3215   2.696   4.974   3.404 -1.8587  1.9641 -0.9385
  862SOL    MW4 3216   2.744   5.043   3.427  0.2847  0.3225 -0.2155
  863SOL     OW 3217   4.792   5.523   0.546  0.1081  0.1116 -0.2692
  863SOL    HW2 3218   4.749   5.607   0.531 -0.1359  0.1401  0.5557
  863SOL    HW3 3219   4.839   5.534   0.629  1.0374 -0.1878 -0.7413
  863SOL    MW4 3220   4.792   5.536   0.555  0.1985  0.0758 -0.2226
  864SOL     OW 3221   5.166   3.434   2.376  0.0848 -0.4358  0.4200
  864SOL    HW2 3222   5.153   3.340   2.368 -0.1790 -0.4149  0.5741
  864SOL    HW3 3223   5.107   3.460   2.447 -1.6718  0.2178 -1.1756
  864SOL    MW4 3224   5.156   3.425   2.384 -0.1818 -0.3468  0.2298
  865SOL     OW 3225   4.236   1.753   3.455 -0.5513 -0.1791 -0.2842
  865SOL    HW2 3226   4.150   1.725   3.488 -0.7990 -0.6347 -1.2694
  865SOL    HW3 3227   4.270   1.676   3.409  0.8336 -0.3289  0.9095
  865SOL    MW4 3228   4.229   1.739   3.453 -0.4013 -0.2589 -0.2567
  866SOL     OW 3229   2.469   1.465   4.944  0.1400 -0.0481 -0.1595
  866SOL    HW2 3230   2.490   1.547   4.900  0.9161  0.2151  0.6663
  866SOL    HW3 3231   2.412   1.419   4.883 -0.9236  1.4215 -0.3297
  866SOL    MW4 3232   2.465   1.470   4.930  0.1020  0.1805 -0.0730
  867SOL     OW 3233   2.071   0.032   5.624 -0.1804 -0.0084  0.5385
  867SOL    HW2 3234   2.108   0.002   5.707  0.7275 -1.5893 -0.4019
  867SOL    HW3 3235   2.008  -0.035   5.600  0.2333 -0.0422 -0.5047
  867SOL    MW4 3236   2.068   0.019   5.632 -0.0061 -0.2215  0.2768
  868SOL     OW 3237   3.228   2.121   2.461  0.3301 -0.6591  0.4734
  868SOL    HW2 3238   3.265   2.209   2.465  0.5019 -0.6517 -0.8582
  868SOL    HW3 3239   3.257   2.086   2.377 -1.7553 -1.0579 -0.1553
  868SOL    MW4 3240   3.237   2.128   2.450  0.0777 -0.7108  0.2148
  869SOL     OW 3241   5.282   1.415   0.214 -0.2735  0.0926 -0.2481
  869SOL    HW2 3242   5.300   1.375   0.299 -1.3865 -1.6330 -0.7588
  869SOL    HW3 3243   5.325   1.357   0.151 -1.8205 -0.2692 -1.0128
  869SOL    MW4 3244   5.290   1.402   0.217 -0.6244 -0.1828 -0.4163
  870SOL     OW 3245   2.924   1.475   3.735 -0.4560  0.1581 -0.2204
  870SOL    HW2 3246   2.984   1.427   3.793  0.2159  1.5442  0.2828
  870SOL    HW3 3247   2.903   1.413   3.666  0.0826 -0.9832  0.6060
  870SOL    MW4 3248   2.929   1.461   3.734 -0.2963  0.1904 -0.0450
  871SOL     OW 3249   3.268   1.871   2.632  0.8192 -0.2764 -0.3734
  871SOL    HW2 3250   3.239   1.953   2.593 -1.5300 -0.3317  1.0575
  871SOL    HW3 3251   3.305   1.822   2.559  0.5818  1.3198 -1.6278
  871SOL    MW4 3252   3.269   1.875   2.618  0.4779 -0.0731 -0.3501
  872SOL     OW 3253   1.729   2.204   2.481  0.2300  0.7469  0.0637
  872SOL    HW2 3254   1.773   2.122   2.502  1.6051  1.0241 -1.5448
  872SOL    HW3 3255   1.799   2.263   2.453 -0.9322  1.8550 -0.6639
  872SOL    MW4 3256   1.744   2.201   2.480  0.2581  0.9297 -0.2445
  873SOL     OW 3257   6.089   3.810   6.134  0.1701  0.1323  0.6496
  873SOL    HW2 3258   6.013   3.856   6.097 -0.6699 -1.8657 -0.2670
  873SOL    HW3 3259   6.060   3.779   6.220  0.6263  0.9995  1.1294
  873SOL    MW4 3260   6.075   3.812   6.140  0.1195 -0.0169  0.5919
  874SOL     OW 3261   0.057   1.826   1.325  0.2736  0.2325  0.0266
  874SOL    HW2 3262   0.134   1.850   1.274  0.5138 -1.2642 -0.3475
  874SOL    HW3 3263   0.065   1.878   1.405  1.3048  0.6100 -0.3006
  874SOL    MW4 3264   0.068   1.836   1.329  0.4413  0.0849 -0.0659
  875SOL     OW 3265   0.469   5.037   2.968 -0.3429  0.4285  0.6314
  875SOL    HW2 3266   0.537   5.004   3.027  1.6029  0.5245 -1.4169
  875SOL    HW3 3267   0.437   4.960   2.921  0.6211  0.7315 -0.5897
  875SOL    MW4 3268   0.474   5.023   2.969  0.0410  0.4812  0.2001
  876SOL     OW 3269   6.311   0.257   4.412  0.0986  0.1624 -0.1352
  876SOL    HW2 3270   6.376   0.253   4.342 -0.0553 -0.3079 -0.2537
  876SOL    HW3 3271   6.344   0.323   4.473  1.1556 -0.7305  0.2788
  876SOL    MW4 3272   6.324   0.265   4.411  0.2177 -0.0175 -0.0962
  877SOL     OW 3273   3.245   2.077   5.903 -0.1433  0.0486  0.2389
  877SOL    HW2 3274   3.190   2.155   5.894 -1.1193 -0.5358  0.9546
  877SOL    HW3 3275   3.333   2.112   5.916 -0.7029  1.0742  1.5657
  877SOL    MW4 3276   3.249   2.092   5.903 -0.3459  0.1068  0.5084
  878SOL     OW 3277   5.850   5.554   1.637  0.5319  0.4583  0.5753
  878SOL    HW2 3278   5.789   5.545   1.565 -0.2551 -0.8465  1.3653
  878SOL    HW3 3279   5.799   5.594   1.707  0.8124  0.1755  0.9482
  878SOL    MW4 3280   5.836   5.558   1.637  0.4651  0.2488  0.7288
  879SOL     OW 3281   5.515   6.016   1.870 -0.4866 -0.1445 -0.2046
  879SOL    HW2 3282   5.475   5.967   1.798  2.0630 -0.4586 -1.4918
  879SOL    HW3 3283   5.440   6.048   1.921 -2.3478 -0.8837 -2.3145
  879SOL    MW4 3284   5.500   6.014   1.867 -0.3958 -0.2835 -0.6528
  880SOL     OW 3285   1.284   1.167   2.203 -0.2702  0.0065 -0.3970
  880SOL    HW2 3286   1.255   1.075   2.205 -1.7558  0.4550  0.3448
  880SOL    HW3 3287   1.216   1.212   2.152 -0.9076  1.0994  1.3342
  880SOL    MW4 3288   1.271   1.161   2.197 -0.5503  0.2098 -0.0707
  881SOL     OW 3289   0.880   6.013   3.773 -0.0297 -0.0921 -0.2529
  881SOL    HW2 3290   0.926   6.094   3.795  0.8733 -0.4431 -0.7809
  881SOL    HW3 3291   0.936   5.971   3.708 -0.2557 -1.3513  0.3423
  881SOL    MW4 3292   0.893   6.018   3.768  0.0596 -0.3046 -0.2441
  882SOL     OW 3293   3.237   4.626   1.143 -0.7320  0.5023 -0.0153
  882SOL    HW2 3294   3.301   4.589   1.082 -0.1625  1.2843  0.0839
  882SOL    HW3 3295   3.288   4.646   1.221 -1.5143 -0.7634  0.8549
  882SOL    MW4 3296   3.252   4.624   1.145 -0.7600  0.4384  0.1126
  883SOL     OW 3297   4.340   2.063   4.666  0.2203 -0.1504  0.1614
  883SOL    HW2 3298   4.288   2.057   4.746 -0.3125 -1.3887 -0.2655
  883SOL    HW3 3299   4.383   2.149   4.672  0.1816 -0.2165  1.7541
  883SOL    MW4 3300   4.339   2.074   4.677  0.1449 -0.3225  0.3152
  884SOL     OW 3301   2.981   5.284   3.877  0.1218 -0.0974  0.0114
  884SOL    HW2 3302   2.951   5.221   3.942 -2.1500  1.6439  0.7936
  884SOL    HW3 3303   2.987   5.234   3.796  0.2529 -1.7078  0.9792
  884SOL    MW4 3304   2.977   5.269   3.875 -0.1607 -0.0801  0.2423
  885SOL     OW 3305   6.233   5.659   2.900 -0.1462 -0.1791  0.2627
  885SOL    HW2 3306   6.163   5.723   2.884 -0.6813 -0.8817 -0.3241
  885SOL    HW3 3307   6.186   5.577   2.916  0.5360 -1.1750 -2.3725
  885SOL    MW4 3308   6.217   5.657   2.900 -0.1268 -0.4032 -0.1624
  886SOL     OW 3309   1.350   1.367   0.866  1.4800  0.1148  0.3058
  886SOL    HW2 3310   1.384   1.353   0.778  0.2608  1.8924 -0.5138
  886SOL    HW3 3311   1.255   1.355   0.857  1.2946  0.7493  1.2706
  886SOL    MW4 3312   1.342   1.363   0.853  1.2947  0.4330  0.3249
  887SOL     OW 3313   2.822   0.346   0.478  0.3770 -0.3359 -0.0150
  887SOL    HW2 3314   2.907   0.376   0.512 -0.1358 -0.9748  1.9575
  887SOL    HW3 3315   2.844   0.273   0.420  1.3502  1.3801 -1.9603
  887SOL    MW4 3316   2.836   0.341   0.475  0.4377 -0.1938 -0.0114
  888SOL     OW 3317   4.699   3.419   4.976  0.1376 -0.1055  0.0939
  888SOL    HW2 3318   4.723   3.328   4.993 -1.6953 -0.4549  1.0919
  888SOL    HW3 3319   4.710   3.462   5.061 -0.5126  0.2350  0.0090
  888SOL    MW4 3320   4.703   3.413   4.990 -0.1900 -0.1067  0.2143
  889SOL     OW 3321   3.599   4.395   3.964  0.0720  0.0006 -0.3368
  889SOL    HW2 3322   3.694   4.403   3.973  0.0032 -0.6229  1.1834
  889SOL    HW3 3323   3.565   4.480   3.992  0.2085  0.8145 -2.4237
  889SOL    MW4 3324   3.607   4.407   3.969  0.0809  0.0257 -0.4116
  890SOL     OW 3325   2.692   5.995   2.563  0.1247  0.1459  0.1126
  890SOL    HW2 3326   2.674   5.948   2.644  1.7842 -0.1433  0.3648
  890SOL    HW3 3327   2.607   6.023   2.531 -0.6590 -0.7426  1.3495
  890SOL    MW4 3328   2.679   5.992   2.569  0.2403 -0.0095  0.3091
  891SOL     OW 3329   2.580   0.388   5.266 -0.1788 -0.4622 -0.2818
  891SOL    HW2 3330   2.536   0.473   5.277 -0.4100 -0.6466  0.2966
  891SOL    HW3 3331   2.548   0.354   5.183  2.8406  1.7268 -2.5812
  891SOL    MW4 3332   2.570   0.395   5.257  0.1891 -0.1977 -0.5089
  892SOL     OW 3333   5.010   5.282   4.824  0.3648 -0.0590 -0.2084
  892SOL    HW2 3334   4.936   5.303   4.882  0.7102  1.2111 -0.1954
  892SOL    HW3 3335   5.079   5.253   4.883  0.8858  1.7088  0.1192
  892SOL    MW4 3336   5.009   5.281   4.840  0.4791  0.3418 -0.1635
  893SOL     OW 3337   6.184   4.525   0.770 -0.6101  0.3481 -0.7054
  893SOL    HW2 3338   6.221   4.583   0.703  0.9197  0.0977 -0.1356
  893SOL    HW3 3339   6.222   4.557   0.852 -0.5725 -0.7970 -0.2587
  893SOL    MW4 3340   6.194   4.537   0.772 -0.4033  0.1640 -0.5713
  894SOL     OW 3341   3.750   1.599   0.437  0.5534 -0.3674  0.0784
  894SOL    HW2 3342   3.843   1.623   0.446 -0.1958  3.6503 -0.8365
  894SOL    HW3 3343   3.716   1.600   0.526  1.0629 -0.2901  0.2752
  894SOL    MW4 3344   3.758   1.602   0.450  0.5218  0.1729 -0.0164
  895SOL     OW 3345   1.781   4.046   6.088  0.0801 -0.1944 -0.7633
  895SOL    HW2 3346   1.693   4.080   6.105  0.3468  0.4108 -0.5870
  895SOL    HW3 3347   1.834   4.123   6.068  0.5779 -0.5543 -0.8709
  895SOL    MW4 3348   1.776   4.061   6.087  0.1810 -0.1620 -0.7542
  896SOL     OW 3349   3.684   4.162   1.689 -0.0384 -0.5719 -0.4097
  896SOL    HW2 3350   3.603   4.191   1.732 -1.3196 -2.2488 -1.5740
  896SOL    HW3 3351   3.684   4.208   1.605  0.1523 -0.6708 -0.4634
  896SOL    MW4 3352   3.673   4.172   1.684 -0.1822 -0.8062 -0.5704
  897SOL     OW 3353   0.372   6.380   2.999 -0.1285 -0.1049  0.6033
  897SOL    HW2 3354   0.355   6.324   3.075 -1.2969 -0.4273  0.1318
  897SOL    HW3 3355   0.444   6.437   3.026 -1.6335  0.9712  2.6009
  897SOL    MW4 3356   0.379   6.380   3.012 -0.4812 -0.0055  0.8047
  898SOL     OW 3357   1.046   1.521   5.694 -0.2213 -0.2286  0.6086
  898SOL    HW2 3358   0.961   1.539   5.654 -0.1559 -0.9478  0.1290
  898SOL    HW3 3359   1.103   1.498   5.621  0.7992  1.6986  0.7502
  898SOL    MW4 3360   1.042   1.520   5.679 -0.0780 -0.0692  0.5640
  899SOL     OW 3361   1.103   2.628   3.231  0.6773  0.7714 -0.7223
  899SOL    HW2 3362   1.132   2.604   3.143  1.3752  0.1252 -0.3324
  899SOL    HW3 3363   1.111   2.547   3.281 -1.4946  0.6376 -0.4853
  899SOL    MW4 3364   1.108   2.614   3.226  0.4828  0.6685 -0.6396
  900SOL     OW 3365   1.326   3.770   0.910  0.0748  0.2271 -0.0509
  900SOL    HW2 3366   1.309   3.683   0.945  0.2824  0.0827 -0.3014
  900SOL    HW3 3367   1.264   3.827   0.955 -1.7216 -0.4173 -1.5811
  900SOL    MW4 3368   1.315   3.766   0.920 -0.1348  0.1230 -0.2858
  901SOL     OW 3369   5.443   0.445   1.994 -0.2111  0.8367  0.4580
  901SOL    HW2 3370   5.470   0.502   1.922  2.5011 -0.4424  0.3233
  901SOL    HW3 3371   5.390   0.377   1.952 -0.0144  0.9855 -0.0422
  901SOL    MW4 3372   5.439   0.444   1.979  0.1727  0.6876  0.3742
  902SOL     OW 3373   1.041   1.718   4.761 -0.5040 -0.2559  0.1944
  902SOL    HW2 3374   1.054   1.657   4.833 -1.3891 -0.0867  0.5118
  902SOL    HW3 3375   1.091   1.796   4.787 -0.3561 -0.4034  0.3565
  902SOL    MW4 3376   1.049   1.720   4.774 -0.6012 -0.2531  0.2577
  903SOL     OW 3377   2.377   4.839   3.425  0.2965 -0.2270  0.2908
  903SOL    HW2 3378   2.466   4.807   3.413  0.1726 -0.6943  0.5873
  903SOL    HW3 3379   2.387   4.928   3.457  0.6434  0.3433 -1.3139
  903SOL    MW4 3380   2.390   4.847   3.427  0.3259 -0.2134  0.1182
  904SOL     OW 3381   1.048   3.232   1.731  0.3361  0.6863 -0.6370
  904SOL    HW2 3382   1.097   3.279   1.798 -1.2437  1.8968 -0.2709
  904SOL    HW3 3383   1.039   3.143   1.766  0.2012  1.0970  0.4118
  904SOL    MW4 3384   1.053   3.226   1.744  0.1099  0.9002 -0.4503
  905SOL     OW 3385   3.361   6.067   3.477  0.4372  0.7739  0.4962
  905SOL    HW2 3386   3.279   6.114   3.468 -1.5377 -2.4673 -0.2205
  905SOL    HW3 3387   3.418   6.104   3.410 -0.4088  3.0378  0.9485
  905SOL    MW4 3388   3.358   6.078   3.467  0.0650  0.6450  0.4613
  906SOL     OW 3389   3.776   3.557   5.306  0.2035  0.0274 -0.6891
  906SOL    HW2 3390   3.758   3.468   5.337  0.1090  0.2742 -0.0135
  906SOL    HW3 3391   3.693   3.603   5.314  0.2241  0.1541 -1.1426
  906SOL    MW4 3392   3.763   3.552   5.311  0.1938  0.0766 -0.6598
  907SOL     OW 3393   0.361   6.137   6.065  0.2844 -0.0901  0.2340
  907SOL    HW2 3394   0.269   6.122   6.041 -0.1265  1.0175  1.0095
  907SOL    HW3 3395   0.408   6.132   5.982 -0.6994  0.8390 -0.4158
  907SOL    MW4 3396   0.355   6.135   6.050  0.1004  0.1786  0.2506
  908SOL     OW 3397   4.295   3.633   0.165  0.2577 -0.1690  0.8554
  908SOL    HW2 3398   4.383   3.608   0.194  0.2098 -1.6495 -0.1579
  908SOL    HW3 3399   4.308   3.665   0.075 -0.2285 -0.2787  0.7463
  908SOL    MW4 3400   4.309   3.634   0.157  0.1873 -0.3788  0.7073
  909SOL     OW 3401   0.988   3.173   0.731 -0.4098  0.0000 -0.6192
  909SOL    HW2 3402   0.920   3.233   0.760 -0.8056 -0.3767 -0.7692
  909SOL    HW3 3403   1.056   3.230   0.694  0.5726  0.6039  1.8911
  909SOL    MW4 3404   0.988   3.189   0.730 -0.3324  0.0300 -0.3078
  910SOL     OW 3405   2.039   3.800   4.882 -0.3652 -0.0738 -0.3554
  910SOL    HW2 3406   2.120   3.850   4.870  0.3535 -1.3173 -0.9341
  910SOL    HW3 3407   1.998   3.838   4.959 -0.2108  1.8573 -1.1675
  910SOL    MW4 3408   2.044   3.811   4.890 -0.2500  0.0169 -0.5389
  911SOL     OW 3409   6.362   5.695   0.547  0.0548 -0.0231  0.1061
  911SOL    HW2 3410   6.286   5.677   0.602  0.6096  2.6391  1.9659
  911SOL    HW3 3411   6.340   5.660   0.461 -2.2930 -1.3228  1.1566
  911SOL    MW4 3412   6.349   5.688   0.543 -0.1818  0.1567  0.4901
  912SOL     OW 3413   6.210   5.567   5.317  0.5435  0.0684  0.0450
  912SOL    HW2 3414   6.238   5.658   5.308 -1.4268  0.7559  0.1943
  912SOL    HW3 3415   6.186   5.559   5.410 -0.9638 -0.0411 -0.3290
  912SOL    MW4 3416   6.210   5.578   5.328  0.0847  0.1447  0.0153
  913SOL     OW 3417   0.421   3.887   3.816 -0.3044  0.2691  0.2881
  913SOL    HW2 3418   0.376   3.805   3.837  0.7620 -0.1116  1.2002
  913SOL    HW3 3419   0.396   3.946   3.887 -0.7583  0.6096 -0.1552
  913SOL    MW4 3420   0.412   3.884   3.828 -0.2236  0.2638  0.3500
  914SOL     OW 3421   1.651   4.973   3.715 -0.1394 -0.7056 -0.1629
  914SOL    HW2 3422   1.616   5.062   3.705  0.2163 -0.3184  1.6475
  914SOL    HW3 3423   1.621   4.946   3.802  0.3787 -2.0799 -0.3976
  914SOL    MW4 3424   1.642   4.981   3.725 -0.0241 -0.8359  0.0450
  915SOL     OW 3425   2.210   0.962   4.049  0.3078  0.1568  0.4481
  915SOL    HW2 3426   2.136   0.995   4.100  0.3013  0.8940 -0.0248
  915SOL    HW3 3427   2.253   1.040   4.016 -0.5939 -0.2943 -1.9932
  915SOL    MW4 3428   2.206   0.976   4.051  0.1880  0.1945  0.0636
  916SOL     OW 3429   0.576   1.333   6.247 -0.1050  0.4437 -0.5394
  916SOL    HW2 3430   0.533   1.375   6.322 -2.1291  1.3567 -2.1088
  916SOL    HW3 3431   0.507   1.280   6.207  0.5789  0.9287 -2.4504
  916SOL    MW4 3432   0.561   1.331   6.252 -0.2819  0.6282 -0.9986
  917SOL     OW 3433   5.236   2.960   3.863 -0.3577  0.3238  0.5912
  917SOL    HW2 3434   5.222   3.022   3.791  1.3406  2.4799  1.9523
  917SOL    HW3 3435   5.322   2.922   3.845 -1.9948 -2.9237 -1.0052
  917SOL    MW4 3436   5.246   2.963   3.851 -0.3497  0.1798  0.5602
  918SOL     OW 3437   0.892   4.010   0.310 -0.1230  0.2498  0.2707
  918SOL    HW2 3438   0.862   3.921   0.289  0.1540  0.3056 -0.3900
  918SOL    HW3 3439   0.868   4.062   0.233 -0.4055  0.7801  0.7120
  918SOL    MW4 3440   0.885   4.005   0.297 -0.1237  0.3271  0.2417
  919SOL     OW 3441   0.865   5.755   4.747 -0.1219  0.4289  0.9432
  919SOL    HW2 3442   0.780   5.776   4.707 -0.0112 -0.8816 -0.0383
  919SOL    HW3 3443   0.843   5.703   4.824 -0.1949 -0.7109  0.1687
  919SOL    MW4 3444   0.851   5.751   4.751 -0.1169  0.1056  0.7115
  920SOL     OW 3445   1.139   5.177   5.750 -0.0854  0.0651  0.0157
  920SOL    HW2 3446   1.110   5.256   5.704 -0.4815  0.5634  1.0943
  920SOL    HW3 3447   1.195   5.210   5.821 -0.8332 -0.5697  0.9199
  920SOL    MW4 3448   1.143   5.192   5.753 -0.2363  0.0471  0.2773
  921SOL     OW 3449   3.533   5.925   6.311  0.1706  0.4367 -0.0608
  921SOL    HW2 3450   3.608   5.936   6.370 -0.6495 -0.0414  1.1231
  921SOL    HW3 3451   3.530   5.831   6.292  0.2241  0.5396 -0.5964
  921SOL    MW4 3452   3.542   5.914   6.316  0.0695  0.3872  0.0247
  922SOL     OW 3453   3.162   5.042   5.324  0.4073 -0.4219  0.1146
  922SOL    HW2 3454   3.221   5.094   5.379  1.0236  0.3240 -1.2202
  922SOL    HW3 3455   3.207   4.957   5.316 -0.4260 -1.1049  1.9879
  922SOL    MW4 3456   3.176   5.037   5.330  0.3787 -0.4136  0.1856
  923SOL     OW 3457   3.432   4.538   5.624 -0.1656 -0.0431  0.4534
  923SOL    HW2 3458   3.488   4.572   5.554  0.0743  1.5571  1.3731
  923SOL    HW3 3459   3.463   4.449   5.639  1.0871  0.2758 -0.1156
  923SOL    MW4 3460   3.443   4.531   5.616  0.0313  0.2101  0.4997
  924SOL     OW 3461   5.713   0.881   5.848 -0.6133  0.6591  0.4266
  924SOL    HW2 3462   5.725   0.969   5.813 -1.1549 -0.8339 -4.2502
  924SOL    HW3 3463   5.622   0.880   5.878 -0.2960  1.9109  1.5090
  924SOL    MW4 3464   5.702   0.893   5.847 -0.6429  0.6273 -0.0476
  925SOL     OW 3465   0.616   3.109   3.816  0.0834 -0.2245  0.8722
  925SOL    HW2 3466   0.637   3.101   3.723  0.8824  1.9474  0.8320
  925SOL    HW3 3467   0.696   3.142   3.856 -0.2917 -1.0301  2.3428
  925SOL    MW4 3468   0.629   3.112   3.809  0.1393 -0.0442  1.0609
  926SOL     OW 3469   5.425   3.093   3.384  0.2857 -0.4068  0.0619
  926SOL    HW2 3470   5.370   3.044   3.445  0.3264 -0.6280 -0.0785
  926SOL    HW3 3471   5.501   3.118   3.436  0.6682 -1.2312 -0.0909
  926SOL    MW4 3472   5.428   3.090   3.399  0.3415 -0.5448  0.0232
  927SOL     OW 3473   1.143   3.218   4.722 -0.0697  0.3067  0.2840
  927SOL    HW2 3474   1.220   3.274   4.735  0.3360 -0.2120  0.1478
  927SOL    HW3 3475   1.174   3.145   4.669 -1.0828  1.0037 -1.3328
  927SOL    MW4 3476   1.157   3.216   4.717 -0.1499  0.3302  0.0527
  928SOL     OW 3477   4.073   6.190   1.719  0.4289 -0.0005 -0.4514
  928SOL    HW2 3478   3.991   6.222   1.756 -0.7936 -0.6711 -2.4367
  928SOL    HW3 3479   4.120   6.152   1.794 -0.8899  0.7027  0.7833
  928SOL    MW4 3480   4.069   6.189   1.734  0.0936  0.0038 -0.5504
  929SOL     OW 3481   4.520   4.623   3.246  0.6417 -0.1478  0.6384
  929SOL    HW2 3482   4.537   4.701   3.299 -0.5840  0.2895  0.4115
  929SOL    HW3 3483   4.471   4.565   3.304 -0.3432  0.1625  0.1358
  929SOL    MW4 3484   4.516   4.626   3.260  0.3500 -0.0492  0.5422
  930SOL     OW 3485   5.874   0.815   5.437 -0.4465  0.0563  0.2091
  930SOL    HW2 3486   5.893   0.837   5.529 -0.2333  0.4874  0.0668
  930SOL    HW3 3487   5.959   0.794   5.399 -0.2570  1.6908 -0.3510
  930SOL    MW4 3488   5.887   0.815   5.444 -0.3934  0.3288  0.1164
  931SOL     OW 3489   4.890   1.790   4.021  0.2130  0.1747  0.1059
  931SOL    HW2 3490   4.963   1.777   3.960  0.7204 -0.0515  0.7501
  931SOL    HW3 3491   4.811   1.781   3.967  0.6511 -0.2418 -0.4698
  931SOL    MW4 3492   4.889   1.787   4.006  0.3377  0.0899  0.1149
  932SOL     OW 3493   4.257   2.708   5.003 -0.4029 -0.2760  0.1403
  932SOL    HW2 3494   4.328   2.684   4.943  0.0917 -1.2790  1.0941
  932SOL    HW3 3495   4.270   2.801   5.021  0.7742 -0.4888  0.4411
  932SOL    MW4 3496   4.268   2.717   4.997 -0.1823 -0.4364  0.3058
  933SOL     OW 3497   3.634   4.424   1.936 -0.6013 -0.2828  0.2659
  933SOL    HW2 3498   3.609   4.464   2.019 -1.5209 -0.7152  0.2084
  933SOL    HW3 3499   3.664   4.336   1.959 -0.3288 -0.2084  0.1986
  933SOL    MW4 3500   3.635   4.418   1.950 -0.6866 -0.3300  0.2494
  934SOL     OW 3501   2.247   0.619   5.792 -0.3577 -0.2149  0.1853
  934SOL    HW2 3502   2.288   0.625   5.878  0.4600 -1.1554 -0.1321
  934SOL    HW3 3503   2.271   0.533   5.759 -2.3642 -0.6957 -0.1431
  934SOL    MW4 3504   2.255   0.609   5.799 -0.5145 -0.4025  0.1001
  935SOL     OW 3505   3.253   2.619   2.595  0.1160  0.4609 -0.2186
  935SOL    HW2 3506   3.237   2.595   2.687  1.3983 -0.4311 -0.1925
  935SOL    HW3 3507   3.175   2.668   2.569 -0.6676 -0.0232  1.0838
  935SOL    MW4 3508   3.241   2.622   2.604  0.1818  0.2794 -0.0433
  936SOL     OW 3509   2.993   3.114   6.160 -0.1690 -0.6864 -0.2908
  936SOL    HW2 3510   3.015   3.145   6.248 -0.0154  0.6696 -0.7731
  936SOL    HW3 3511   2.899   3.132   6.151 -0.0963 -0.4103 -0.5444
  936SOL    MW4 3512   2.984   3.121   6.170 -0.1391 -0.4710 -0.3879
  937SOL     OW 3513   1.314   0.141   3.698 -0.0160  0.3929 -0.1184
  937SOL    HW2 3514   1.376   0.069   3.687 -1.1213 -0.4146 -1.4097
  937SOL    HW3 3515   1.276   0.153   3.611  0.2659  2.6924  0.0090
  937SOL    MW4 3516   1.317   0.133   3.685 -0.1246  0.5897 -0.2720
  938SOL     OW 3517   4.430   5.482   3.108  0.7288 -0.5913  0.6310
  938SOL    HW2 3518   4.365   5.504   3.041  1.9252  1.0783 -0.0286
  938SOL    HW3 3519   4.379   5.438   3.177 -0.7250 -1.2276 -0.7835
  938SOL    MW4 3520   4.414   5.479   3.108  0.6948 -0.4550  0.3573
  939SOL     OW 3521   2.615   1.432   4.206  0.2462 -0.5259  0.5142
  939SOL    HW2 3522   2.653   1.518   4.224  0.3687 -0.6433  0.8313
  939SOL    HW3 3523   2.592   1.398   4.292  0.3260 -0.8708  0.3988
  939SOL    MW4 3524   2.617   1.439   4.220  0.2729 -0.5869  0.5408
  940SOL     OW 3525   4.514   0.482   2.859 -0.0848  0.3432 -0.8010
  940SOL    HW2 3526   4.426   0.445   2.862  0.2403 -0.4120 -0.4161
  940SOL    HW3 3527   4.528   0.502   2.766 -1.1826  1.7938 -0.7072
  940SOL    MW4 3528   4.504   0.480   2.847 -0.1867  0.4350 -0.7378
  941SOL     OW 3529   6.422   2.297   2.068  0.1050 -0.4472 -0.2717
  941SOL    HW2 3530   6.452   2.371   2.016 -0.6702  0.9845  1.2258
  941SOL    HW3 3531   6.336   2.275   2.033 -0.4108  0.5041  0.3716
  941SOL    MW4 3532   6.415   2.304   2.057 -0.0653 -0.1328  0.0108
  942SOL     OW 3533   3.230   4.447   2.719 -0.0119 -0.5742  0.0041
  942SOL    HW2 3534   3.272   4.362   2.703  1.0263  0.2813 -2.2049
  942SOL    HW3 3535   3.288   4.491   2.782  1.0313 -0.4206 -1.0334
  942SOL    MW4 3536   3.243   4.441   2.725  0.2627 -0.4411 -0.4243
  943SOL     OW 3537   0.460   6.136   0.350  0.3399  0.3964  0.0337
  943SOL    HW2 3538   0.488   6.228   0.355  0.4549  0.2898  1.5415
  943SOL    HW3 3539   0.466   6.104   0.439 -0.2121 -0.9473 -0.3936
  943SOL    MW4 3540   0.465   6.144   0.362  0.2822  0.2051  0.1763
  944SOL     OW 3541   1.097   3.322   5.421 -0.0830  0.2200  0.6864
  944SOL    HW2 3542   1.024   3.264   5.398  0.7096 -0.6649  0.3478
  944SOL    HW3 3543   1.076   3.352   5.510 -0.5769 -0.4951  0.8214
  944SOL    MW4 3544   1.085   3.318   5.430 -0.0436  0.0089  0.6596
  945SOL     OW 3545   0.337   2.083   4.652  0.2746  0.0992 -0.1259
  945SOL    HW2 3546   0.339   2.059   4.560  0.9348  0.0667 -0.1088
  945SOL    HW3 3547   0.291   2.010   4.695  0.3542 -0.0960 -0.3698
  945SOL    MW4 3548   0.331   2.070   4.646  0.3722  0.0692 -0.1558
  946SOL     OW 3549   5.093   5.760   5.108  0.8477  0.1259 -0.0923
  946SOL    HW2 3550   5.074   5.679   5.155  2.8006  0.6832  1.7599
  946SOL    HW3 3551   5.037   5.825   5.149  0.5294  0.0779 -0.4397
  946SOL    MW4 3552   5.083   5.758   5.120  1.0634  0.1931  0.1063
  947SOL     OW 3553   3.779   6.064   1.174  0.1277  0.2572 -0.4002
  947SOL    HW2 3554   3.734   6.003   1.232  2.2145 -0.1321  0.8912
  947SOL    HW3 3555   3.735   6.148   1.190 -1.8709 -0.5638 -1.1990
  947SOL    MW4 3556   3.767   6.067   1.184  0.1394  0.0975 -0.3352
  948SOL     OW 3557   3.430   4.086   6.254  0.2307  0.0759 -0.3789
  948SOL    HW2 3558   3.460   4.045   6.173  0.6951 -0.3100 -0.0242
  948SOL    HW3 3559   3.511   4.112   6.298 -0.0232  0.4189 -0.1086
  948SOL    MW4 3560   3.445   4.084   6.249  0.2584  0.0702 -0.2964
  949SOL     OW 3561   2.637   2.605   5.450  0.9571 -0.6019  0.3293
  949SOL    HW2 3562   2.583   2.614   5.528 -0.3852  0.4590 -0.6675
  949SOL    HW3 3563   2.721   2.644   5.474 -0.4854  2.8909  0.2997
  949SOL    MW4 3564   2.641   2.611   5.463  0.5897 -0.0011  0.1939
  950SOL     OW 3565   4.835   4.180   4.000  0.3750 -0.6520  0.0083
  950SOL    HW2 3566   4.816   4.250   4.063 -0.5802 -0.9799  0.0973
  950SOL    HW3 3567   4.771   4.194   3.930  1.3623 -0.3494 -0.8588
  950SOL    MW4 3568   4.824   4.191   3.999  0.3792 -0.6553 -0.0944
  951SOL     OW 3569   4.531   0.029   4.562 -0.0624  0.2489 -0.2864
  951SOL    HW2 3570   4.468   0.067   4.623  0.2683  0.3649 -0.0189
  951SOL    HW3 3571   4.496   0.051   4.476  0.5320  1.8365 -0.1408
  951SOL    MW4 3572   4.518   0.037   4.559  0.0597  0.4737 -0.2319
  952SOL     OW 3573   2.635   5.434   5.917 -0.3838 -0.3720  0.0811
  952SOL    HW2 3574   2.659   5.464   5.830 -0.7249 -0.5943 -0.0878
  952SOL    HW3 3575   2.689   5.355   5.931 -0.1593 -0.2053  0.1656
  952SOL    MW4 3576   2.646   5.427   5.908 -0.3992 -0.3793  0.0700
  953SOL     OW 3577   1.397   1.713   5.085  0.1437  0.5630  0.1979
  953SOL    HW2 3578   1.400   1.618   5.072  0.3583  0.8557 -2.3064
  953SOL    HW3 3579   1.306   1.731   5.112 -0.2342 -0.2223 -0.5237
  953SOL    MW4 3580   1.385   1.703   5.087  0.1221  0.4980 -0.2277
  954SOL     OW 3581   1.394   0.003   1.253  0.6670 -0.5773  0.2529
  954SOL    HW2 3582   1.433   0.044   1.330  0.5549 -0.9850  0.5345
  954SOL    HW3 3583   1.378   0.075   1.192  1.4300 -0.3467  0.3158
  954SOL    MW4 3584   1.397   0.018   1.255  0.7529 -0.6006  0.2984
  955SOL     OW 3585   4.326   5.071   0.075 -0.1622 -0.3136 -0.1195
  955SOL    HW2 3586   4.258   5.138   0.083 -0.2922 -0.2179 -1.6896
  955SOL    HW3 3587   4.312   5.033  -0.012  0.7160 -1.4949  0.2321
  955SOL    MW4 3588   4.316   5.075   0.065 -0.0635 -0.4568 -0.2803
  956SOL     OW 3589   3.395   0.202   1.914  0.1315 -0.3045  0.0973
  956SOL    HW2 3590   3.445   0.146   1.974 -0.8821  0.8946  2.1797
  956SOL    HW3 3591   3.310   0.214   1.957  0.3109  2.8674 -0.1894
  956SOL    MW4 3592   3.390   0.196   1.928  0.0215  0.2722  0.3342
  957SOL     OW 3593   1.212   5.834   4.342 -0.2532  0.2649 -0.3865
  957SOL    HW2 3594   1.141   5.874   4.391  0.1813  0.0939  0.4004
  957SOL    HW3 3595   1.289   5.887   4.364  0.0730 -0.2098 -0.3681
  957SOL    MW4 3596   1.213   5.846   4.351 -0.1528  0.1797 -0.2802
  958SOL     OW 3597   0.395   0.482   6.197  0.6329  0.2782 -0.1741
  958SOL    HW2 3598   0.431   0.437   6.122 -1.7782 -0.4759 -0.9685
  958SOL    HW3 3599   0.359   0.413   6.253 -1.1698  1.0141 -0.3375
  958SOL    MW4 3600   0.395   0.467   6.195  0.0770  0.2758 -0.3005
  959SOL     OW 3601   5.935   1.097   1.976  0.2414 -0.2954  0.1736
  959SOL    HW2 3602   5.902   1.187   1.973  1.1436  0.0272 -0.1708
  959SOL    HW3 3603   5.895   1.060   2.054 -0.4304  0.2874  0.1219
  959SOL    MW4 3604   5.925   1.104   1.986  0.2718 -0.1759  0.1213
  960SOL     OW 3605   4.561   1.749   0.018 -0.2750 -0.5215  0.0989
  960SOL    HW2 3606   4.516   1.665   0.020 -0.6933 -0.2947  0.5509
  960SOL    HW3 3607   4.520   1.800   0.088 -0.3160  0.2082 -0.4448
  960SOL    MW4 3608   4.550   1.745   0.028 -0.3356 -0.3953  0.0868
  961SOL     OW 3609   6.212   5.540   6.112  0.4534  0.3912 -0.2284
  961SOL    HW2 3610   6.159   5.581   6.180 -0.9625 -0.3637 -0.8299
  961SOL    HW3 3611   6.193   5.590   6.033  1.3123  0.6460 -0.2757
  961SOL    MW4 3612   6.202   5.552   6.111  0.3799  0.3252 -0.3140
  962SOL     OW 3613   2.542   1.058   1.080  0.1905 -0.0293  0.2808
  962SOL    HW2 3614   2.490   1.026   1.007  0.8808  1.1627 -0.7766
  962SOL    HW3 3615   2.603   0.986   1.099 -0.7428 -0.7929  0.4693
  962SOL    MW4 3616   2.544   1.044   1.073  0.1585  0.0272  0.1662
  963SOL     OW 3617   0.854   1.898   0.014  0.2327 -0.4169  0.2258
  963SOL    HW2 3618   0.869   1.937   0.100  0.2170  0.7489 -0.2788
  963SOL    HW3 3619   0.781   1.948  -0.023 -0.0667 -1.2102 -0.2741
  963SOL    MW4 3620   0.846   1.910   0.020  0.1911 -0.3678  0.0932
  964SOL     OW 3621   4.468   4.974   1.841 -0.5526  0.0168  0.6903
  964SOL    HW2 3622   4.479   4.914   1.915 -1.3979  1.0820  1.7107
  964SOL    HW3 3623   4.373   4.982   1.832 -0.5816 -1.9430 -2.0809
  964SOL    MW4 3624   4.457   4.967   1.850 -0.6680 -0.1013  0.4593
  965SOL     OW 3625   4.222   4.641   4.244  0.6426 -0.3272 -0.0035
  965SOL    HW2 3626   4.313   4.625   4.269  0.5313 -0.2841  0.4456
  965SOL    HW3 3627   4.227   4.708   4.176  0.9372 -0.1732  0.1674
  965SOL    MW4 3628   4.234   4.648   4.239  0.6668 -0.3012  0.0783
  966SOL     OW 3629   1.693   3.567   1.057  0.1257 -0.2787 -0.2215
  966SOL    HW2 3630   1.682   3.628   0.985  1.5933  1.7311  1.1518
  966SOL    HW3 3631   1.763   3.509   1.029 -0.1146 -0.2663 -0.8585
  966SOL    MW4 3632   1.701   3.567   1.044  0.2876 -0.0119 -0.1244
  967SOL     OW 3633   0.826   2.119   4.310 -0.3123  0.6005  0.1949
  967SOL    HW2 3634   0.776   2.183   4.258  0.4804  1.1873  0.1357
  967SOL    HW3 3635   0.889   2.082   4.248 -2.0897 -1.7966 -0.3181
  967SOL    MW4 3636   0.828   2.123   4.295 -0.4422  0.3616  0.1194
  968SOL     OW 3637   0.644   4.038   5.559 -0.5409  0.4969  0.4271
  968SOL    HW2 3638   0.713   4.081   5.509  0.6387 -0.6868  0.9830
  968SOL    HW3 3639   0.619   3.963   5.506 -0.7689  0.4176  0.6455
  968SOL    MW4 3640   0.650   4.034   5.546 -0.4153  0.3302  0.5292
  969SOL     OW 3641   0.900   4.784   5.371  0.0180  0.0789  0.9402
  969SOL    HW2 3642   0.991   4.757   5.363  0.2359  0.8328  0.7596
  969SOL    HW3 3643   0.849   4.709   5.341  0.5288 -0.8796  2.3837
  969SOL    MW4 3644   0.906   4.770   5.366  0.1141  0.0519  1.1069
  970SOL     OW 3645   5.405   1.297   5.199 -0.7008  0.9384 -0.1224
  970SOL    HW2 3646   5.326   1.249   5.174 -0.5197 -0.8454  2.3278
  970SOL    HW3 3647   5.374   1.366   5.258 -0.5870  1.5210 -0.7259
  970SOL    MW4 3648   5.391   1.300   5.204 -0.6619  0.7799  0.1212
  971SOL     OW 3649   6.110   3.655   4.355 -0.0760 -0.2959  0.1427
  971SOL    HW2 3650   6.145   3.689   4.438 -0.5070 -1.7893  0.9708
  971SOL    HW3 3651   6.058   3.727   4.320  1.2618  0.8727  0.4329
  971SOL    MW4 3652   6.108   3.669   4.361  0.0436 -0.3388  0.2903
  972SOL     OW 3653   2.621   5.336   0.746  0.2650 -0.2401  0.4238
  972SOL    HW2 3654   2.576   5.253   0.728 -0.3525 -0.8863  4.0878
  972SOL    HW3 3655   2.564   5.403   0.708  0.2923 -1.4018 -1.7948
  972SOL    MW4 3656   2.607   5.334   0.739  0.1872 -0.4786  0.6145
  973SOL     OW 3657   4.935   2.723   1.567 -0.0182  0.4046  0.2435
  973SOL    HW2 3658   5.024   2.749   1.544 -0.1581  0.3570 -0.3764
  973SOL    HW3 3659   4.937   2.711   1.662  0.7381  0.0007  0.1844
  973SOL    MW4 3660   4.947   2.725   1.576  0.0632  0.3451  0.1539
  974SOL     OW 3661   1.874   6.093   2.231  0.1387  0.1322  0.2684
  974SOL    HW2 3662   1.869   6.136   2.146  0.6593  0.7366  0.5378
  974SOL    HW3 3663   1.943   6.139   2.277  0.0960 -0.4183  0.8959
  974SOL    MW4 3664   1.882   6.104   2.226  0.2018  0.1393  0.3867
  975SOL     OW 3665   6.118   4.642   4.421  0.1755 -0.4281 -0.1232
  975SOL    HW2 3666   6.118   4.659   4.326  1.1284 -1.5024 -0.3381
  975SOL    HW3 3667   6.062   4.566   4.432 -0.0807 -0.1938  0.2040
  975SOL    MW4 3668   6.111   4.635   4.410  0.2674 -0.5389 -0.1084
  976SOL     OW 3669   4.445   4.325   2.517 -0.3605  0.0697 -0.0606
  976SOL    HW2 3670   4.368   4.336   2.463 -1.0486 -0.0304  0.8664
  976SOL    HW3 3671   4.423   4.368   2.600  0.6194  0.1334  0.1873
  976SOL    MW4 3672   4.432   4.332   2.521 -0.3220  0.0649  0.0944
  977SOL     OW 3673   0.177   4.464   0.249 -0.0411  0.0168 -0.2601
  977SOL    HW2 3674   0.265   4.458   0.285 -0.4302 -2.2909  0.4710
  977SOL    HW3 3675   0.189   4.498   0.161  1.9181 -2.6018 -1.1329
  977SOL    MW4 3676   0.190   4.468   0.242  0.1661 -0.6332 -0.2788
  978SOL     OW 3677   4.507   0.592   5.052 -0.6226 -0.0134 -0.7582
  978SOL    HW2 3678   4.471   0.507   5.026  0.3778 -0.9323  0.7137
  978SOL    HW3 3679   4.464   0.610   5.136  1.5281 -0.6710  0.5579
  978SOL    MW4 3680   4.496   0.583   5.060 -0.2069 -0.2214 -0.3904
  979SOL     OW 3681   3.994   4.857   1.223  0.1017  0.5820  0.3212
  979SOL    HW2 3682   4.020   4.890   1.138  0.8295  0.2440  0.4063
  979SOL    HW3 3683   4.033   4.770   1.228  0.1471  0.6371  1.0359
  979SOL    MW4 3684   4.002   4.850   1.213  0.2037  0.5447  0.4268
  980SOL     OW 3685   0.499   2.718   4.851  0.1541  0.6027 -0.2911
  980SOL    HW2 3686   0.553   2.766   4.788  0.5910  0.7653  0.1983
  980SOL    HW3 3687   0.423   2.689   4.800 -0.6756  2.7308 -0.3753
  980SOL    MW4 3688   0.496   2.720   4.836  0.1023  0.9050 -0.2376
  981SOL     OW 3689   1.297   1.071   1.698 -0.0910  0.1756  0.2855
  981SOL    HW2 3690   1.260   1.074   1.609  0.4187  2.6045  0.0812
  981SOL    HW3 3691   1.390   1.093   1.685 -0.0026  0.4875  1.4095
  981SOL    MW4 3692   1.305   1.075   1.684 -0.0121  0.5372  0.4068
  982SOL     OW 3693   0.104   3.112   2.016  0.3151 -0.3382 -0.6657
  982SOL    HW2 3694   0.169   3.163   1.967  0.2947  1.0242  0.6631
  982SOL    HW3 3695   0.028   3.108   1.957  1.3152 -1.3766 -1.9659
  982SOL    MW4 3696   0.103   3.118   2.001  0.4444 -0.2955 -0.6619
  983SOL     OW 3697   6.174   3.466   1.540 -0.5734 -0.2101  0.2667
  983SOL    HW2 3698   6.254   3.512   1.567 -0.3026 -0.0781 -0.7267
  983SOL    HW3 3699   6.135   3.437   1.622 -0.1252  0.7571  0.8493
  983SOL    MW4 3700   6.180   3.468   1.554 -0.4785 -0.0650  0.2125
  984SOL     OW 3701   1.991   5.743   1.627  0.5800 -0.0679  0.4389
  984SOL    HW2 3702   2.052   5.669   1.627  0.4167 -0.2351 -1.0683
  984SOL    HW3 3703   1.905   5.703   1.619  0.6109  0.2767 -2.7887
  984SOL    MW4 3704   1.988   5.728   1.626  0.5625 -0.0445 -0.1858
  985SOL     OW 3705   2.600   1.114   4.636 -0.1531 -0.0788 -0.6173
  985SOL    HW2 3706   2.538   1.041   4.647  0.5244 -0.6181 -0.3205
  985SOL    HW3 3707   2.628   1.135   4.725 -0.5492  0.7340 -0.6791
  985SOL    MW4 3708   2.595   1.107   4.649 -0.1160 -0.0427 -0.5863
  986SOL     OW 3709   0.409   4.840   6.371 -0.1987  0.6651  0.7185
  986SOL    HW2 3710   0.428   4.904   6.303  0.4657 -0.7917 -0.5367
  986SOL    HW3 3711   0.490   4.834   6.422  1.0096 -1.5637 -1.2658
  986SOL    MW4 3712   0.422   4.847   6.369  0.0484  0.1788  0.2911
  987SOL     OW 3713   1.476   2.383   4.975  0.5121  0.9066  0.1484
  987SOL    HW2 3714   1.550   2.383   4.915  0.7846  0.0316  0.4706
  987SOL    HW3 3715   1.438   2.295   4.967 -0.9915  1.5779 -0.6120
  987SOL    MW4 3716   1.481   2.372   4.966  0.3497  0.8797  0.0906
  988SOL     OW 3717   3.260   5.570   3.806  0.7963  0.2283 -0.2191
  988SOL    HW2 3718   3.192   5.508   3.779  0.5066  0.3797  0.1557
  988SOL    HW3 3719   3.217   5.655   3.807  0.6925  0.1792  1.0528
  988SOL    MW4 3720   3.245   5.573   3.803  0.7444  0.2418 -0.0018
  989SOL     OW 3721   3.679   2.611   3.555  0.0084 -0.0889 -0.3589
  989SOL    HW2 3722   3.618   2.649   3.492 -0.7500 -0.5983  0.0574
  989SOL    HW3 3723   3.760   2.661   3.543 -0.3743  0.3608 -1.1616
  989SOL    MW4 3724   3.682   2.623   3.545 -0.1421 -0.0968 -0.4099
  990SOL     OW 3725   6.132   0.106   2.777 -0.3229 -0.0521 -0.2386
  990SOL    HW2 3726   6.222   0.128   2.751 -0.5782 -1.2069 -2.3391
  990SOL    HW3 3727   6.134   0.012   2.795 -0.9396  0.0797  0.5731
  990SOL    MW4 3728   6.144   0.097   2.776 -0.4380 -0.1871 -0.4086
  991SOL     OW 3729   0.461   6.352   1.868 -0.4015  0.6898  0.0133
  991SOL    HW2 3730   0.376   6.321   1.900  0.9418 -1.9981  1.2897
  991SOL    HW3 3731   0.493   6.282   1.812  2.3329  0.0228  2.1702
  991SOL    MW4 3732   0.454   6.339   1.865  0.1365  0.2471  0.4663
  992SOL     OW 3733   5.302   2.742   3.096  0.5550  0.2925  0.0242
  992SOL    HW2 3734   5.308   2.835   3.118  1.2280  0.3488 -0.3913
  992SOL    HW3 3735   5.264   2.741   3.009 -1.0245  0.1075  0.6858
  992SOL    MW4 3736   5.298   2.754   3.088  0.4354  0.2755  0.0567
  993SOL     OW 3737   5.215   1.223   3.237  0.2293 -0.2316 -0.0460
  993SOL    HW2 3738   5.121   1.210   3.254  0.5122 -0.5182  1.3864
  993SOL    HW3 3739   5.251   1.251   3.321  1.2824  0.7768 -0.7988
  993SOL    MW4 3740   5.207   1.225   3.250  0.4056 -0.1364  0.0436
  994SOL     OW 3741   4.349   2.343   4.758 -0.0784  0.0618  0.5984
  994SOL    HW2 3742   4.439   2.372   4.776 -0.3571  0.1117  2.0195
  994SOL    HW3 3743   4.323   2.393   4.681  0.7007  0.9592  0.8955
  994SOL    MW4 3744   4.358   2.354   4.751 -0.0124  0.1868  0.8251
  995SOL     OW 3745   5.492   3.467   4.448 -0.0445  0.5436  0.4132
  995SOL    HW2 3746   5.458   3.554   4.469 -3.2988  0.5009 -3.4360
  995SOL    HW3 3747   5.569   3.484   4.393  0.2814  0.9091  0.9669
  995SOL    MW4 3748   5.498   3.481   4.443 -0.4308  0.5862 -0.0216
  996SOL     OW 3749   0.793   5.524   5.450 -0.5204  0.2365  0.6526
  996SOL    HW2 3750   0.794   5.475   5.369  2.0436  0.1638  0.6563
  996SOL    HW3 3751   0.712   5.497   5.494 -1.1969 -0.8392 -1.1699
  996SOL    MW4 3752   0.782   5.514   5.445 -0.2714  0.0850  0.4126
  997SOL     OW 3753   4.716   1.065   3.837  0.3467  0.1263 -0.2304
  997SOL    HW2 3754   4.807   1.038   3.849  0.7063  1.4745  0.2899
  997SOL    HW3 3755   4.665   1.000   3.885  1.0507 -0.5155 -0.3403
  997SOL    MW4 3756   4.721   1.053   3.845  0.4871  0.2195 -0.1762
  998SOL     OW 3757   0.735   2.703   5.285  0.0843  0.0134 -0.4989
  998SOL    HW2 3758   0.750   2.728   5.377 -2.0185  2.0287 -0.6059
  998SOL    HW3 3759   0.749   2.609   5.283 -1.8257 -0.4621  2.3887
  998SOL    MW4 3760   0.739   2.694   5.297 -0.4451  0.2166 -0.1321
  999SOL     OW 3761   1.829   2.695   0.018  0.3913  0.1957 -0.4473
  999SOL    HW2 3762   1.801   2.733   0.101  0.0304 -0.1361 -0.4143
  999SOL    HW3 3763   1.917   2.662   0.035  0.7401  1.0842 -0.4988
  999SOL    MW4 3764   1.837   2.696   0.031  0.3897  0.2692 -0.4497
 1000SOL     OW 3765   2.604   1.048   5.806 -0.3223 -0.5091  0.1777
 1000SOL    HW2 3766   2.622   1.138   5.779  0.9280 -0.7262  0.2451
 1000SOL    HW3 3767   2.509   1.045   5.816 -0.7898 -0.0624 -2.9736
 1000SOL    MW4 3768   2.594   1.060   5.803 -0.2190 -0.4788 -0.2292
 1001SOL     OW 3769   1.122   1.820   5.229  0.3698 -0.3661 -0.2597
 1001SOL    HW2 3770   1.033   1.788   5.237  0.4020 -0.2520  0.7727
 1001SOL    HW3 3771   1.140   1.861   5.314  0.2078  2.7091 -1.5716
 1001SOL    MW4 3772   1.113   1.821   5.242  0.3527  0.0547 -0.2966
 1002SOL     OW 3773   5.589   2.123   6.322 -0.3138  0.0266 -0.6472
 1002SOL    HW2 3774   5.606   2.201   6.269 -0.4256  0.8567  0.5017
 1002SOL    HW3 3775   5.675   2.097   6.354 -0.2775 -0.3219 -1.0243
 1002SOL    MW4 3776   5.602   2.130   6.319 -0.3238  0.0901 -0.5454
 1003SOL     OW 3777   1.925   3.384   5.099  0.0602 -0.2151 -0.1945
 1003SOL    HW2 3778   1.857   3.390   5.032 -0.1532  0.5070  0.0793
 1003SOL    HW3 3779   2.003   3.421   5.058 -0.5827  2.2398  0.6001
 1003SOL    MW4 3780   1.927   3.390   5.085 -0.0528  0.2040 -0.0535
 1004SOL     OW 3781   2.200   0.170   3.237 -0.1013  0.0009 -0.1882
 1004SOL    HW2 3782   2.110   0.203   3.238 -0.1725 -0.1980 -0.0944
 1004SOL    HW3 3783   2.219   0.148   3.328 -0.1921 -0.5924 -0.3064
 1004SOL    MW4 3784   2.191   0.172   3.249 -0.1227 -0.1036 -0.1914
 1005SOL     OW 3785   0.276   2.632   2.423  0.0318  0.2598  0.6099
 1005SOL    HW2 3786   0.291   2.552   2.372 -0.7053 -0.8262  2.0298
 1005SOL    HW3 3787   0.330   2.698   2.380 -0.7973 -0.4967 -1.7888
 1005SOL    MW4 3788   0.285   2.630   2.410 -0.1748  0.0167  0.4807
 1006SOL     OW 3789   1.184   3.391   0.617 -0.1581  0.3607 -0.5536
 1006SOL    HW2 3790   1.163   3.442   0.696  0.4654  1.6068 -1.1528
 1006SOL    HW3 3791   1.136   3.436   0.548  0.0076 -0.1923 -1.0287
 1006SOL    MW4 3792   1.175   3.404   0.619 -0.0540  0.4522 -0.6954
 1007SOL     OW 3793   5.144   3.387   2.825 -0.0403  0.3875  0.4309
 1007SOL    HW2 3794   5.192   3.470   2.832  0.8154 -0.0969  0.4679
 1007SOL    HW3 3795   5.062   3.410   2.782 -0.0928  1.3620  1.0191
 1007SOL    MW4 3796   5.140   3.401   2.820  0.0657  0.4521  0.5134
 1008SOL     OW 3797   4.549   1.936   4.161  0.1130 -0.2572 -0.3842
 1008SOL    HW2 3798   4.471   1.881   4.166  0.4962 -0.6989  1.6719
 1008SOL    HW3 3799   4.619   1.880   4.196  1.2652  0.3167 -1.6673
 1008SOL    MW4 3800   4.548   1.921   4.167  0.3156 -0.2398 -0.2822
 1009SOL     OW 3801   4.068   4.391   4.130  0.6547 -0.2249  0.3463
 1009SOL    HW2 3802   4.064   4.316   4.189  1.2721 -0.7710 -0.2884
 1009SOL    HW3 3803   4.109   4.461   4.182 -1.0326  0.0818  1.3360
 1009SOL    MW4 3804   4.073   4.391   4.144  0.5136 -0.2565  0.3932
 1010SOL     OW 3805   3.135   1.101   0.852  0.0478  0.3854  0.1257
 1010SOL    HW2 3806   3.106   1.010   0.843 -0.1698  0.5517 -1.1363
 1010SOL    HW3 3807   3.054   1.150   0.869  0.2737  0.2577  1.6744
 1010SOL    MW4 3808   3.120   1.095   0.853  0.0489  0.3905  0.1635
 1011SOL     OW 3809   1.972   2.456   3.872 -0.0833  0.0215  0.4403
 1011SOL    HW2 3810   2.018   2.447   3.788 -0.2406 -0.4807  0.4024
 1011SOL    HW3 3811   1.894   2.507   3.850  0.0642  0.2118  0.3540
 1011SOL    MW4 3812   1.968   2.462   3.858 -0.0846 -0.0196  0.4239
 1012SOL     OW 3813   1.406   1.307   5.658  0.1091 -0.3886 -0.1498
 1012SOL    HW2 3814   1.407   1.257   5.577  0.0106  1.6689 -1.4978
 1012SOL    HW3 3815   1.452   1.388   5.636  0.9855 -0.1910  2.1581
 1012SOL    MW4 3816   1.413   1.311   5.644  0.2117 -0.0911 -0.0232
 1013SOL     OW 3817   6.185   2.912   2.475  0.0097 -0.2653  0.3302
 1013SOL    HW2 3818   6.249   2.896   2.406  1.1229 -1.5227  1.5654
 1013SOL    HW3 3819   6.179   3.007   2.481  0.4837 -0.1418 -0.9489
 1013SOL    MW4 3820   6.193   2.922   2.467  0.2191 -0.4149  0.3244
 1014SOL     OW 3821   1.356   0.374   5.446 -0.4791  0.0805 -0.5139
 1014SOL    HW2 3822   1.402   0.358   5.528  0.1436  0.3242 -0.8074
 1014SOL    HW3 3823   1.358   0.469   5.435  0.9877 -0.0321 -1.6567
 1014SOL    MW4 3824   1.363   0.384   5.455 -0.2034  0.0978 -0.7034
 1015SOL     OW 3825   0.541   3.938   2.766 -0.5152 -0.1340 -0.2598
 1015SOL    HW2 3826   0.582   3.859   2.803 -0.9206 -0.8570 -1.2977
 1015SOL    HW3 3827   0.593   3.957   2.688  0.1038  1.1593  0.4347
 1015SOL    MW4 3828   0.553   3.930   2.761 -0.4870 -0.0588 -0.3051
 1016SOL     OW 3829   3.750   4.132   4.324 -0.3073  0.0582 -0.1017
 1016SOL    HW2 3830   3.838   4.171   4.325 -0.5486  0.5994  0.4748
 1016SOL    HW3 3831   3.707   4.169   4.401 -0.9236 -0.4806 -0.1874
 1016SOL    MW4 3832   3.756   4.142   4.334 -0.4205  0.0585 -0.0370
 1017SOL     OW 3833   5.793   2.456   3.267  0.4875 -0.3854  0.7479
 1017SOL    HW2 3834   5.750   2.469   3.182 -2.6592 -1.0220  2.1079
 1017SOL    HW3 3835   5.882   2.430   3.245 -0.3728 -1.0991 -2.3689
 1017SOL    MW4 3836   5.799   2.455   3.253 -0.0412 -0.5635  0.5161
 1018SOL     OW 3837   1.958   1.762   0.279  0.1051  0.2859 -0.3933
 1018SOL    HW2 3838   2.036   1.794   0.325 -0.7383  0.6710  0.8201
 1018SOL    HW3 3839   1.949   1.672   0.308 -0.3637  0.4950  0.1294
 1018SOL    MW4 3840   1.967   1.755   0.289 -0.0680  0.3643 -0.1643
 1019SOL     OW 3841   4.123   4.113   2.419 -0.7165 -0.2830  0.1552
 1019SOL    HW2 3842   4.157   4.184   2.364 -1.3771 -0.7917 -0.9555
 1019SOL    HW3 3843   4.191   4.099   2.485  0.0491  0.4508 -0.4529
 1019SOL    MW4 3844   4.136   4.120   2.420 -0.7026 -0.2533 -0.0716
 1020SOL     OW 3845   0.270   3.249   1.863 -0.4282 -0.4088  0.0566
 1020SOL    HW2 3846   0.203   3.239   1.796 -1.8487  1.3908  1.1039
 1020SOL    HW3 3847   0.353   3.243   1.815 -1.3804  0.5631 -1.8265
 1020SOL    MW4 3848   0.272   3.247   1.848 -0.7412 -0.0431 -0.0537
 1021SOL     OW 3849   3.734   2.932   0.800  0.0666 -0.2894 -0.2988
 1021SOL    HW2 3850   3.760   2.980   0.878  0.1926 -0.1420 -0.4321
 1021SOL    HW3 3851   3.673   2.990   0.755  2.6961  1.2121 -2.1839
 1021SOL    MW4 3852   3.730   2.946   0.804  0.4301 -0.0718 -0.5651
 1022SOL     OW 3853   0.423   6.415   3.809  0.1276 -0.1753  0.4494
 1022SOL    HW2 3854   0.402   6.328   3.843  1.8439 -1.1615 -0.8786
 1022SOL    HW3 3855   0.499   6.401   3.753  0.8518  2.3036  0.7099
 1022SOL    MW4 3856   0.430   6.401   3.806  0.4496  0.0216  0.3086
 1023SOL     OW 3857   1.303   2.183   4.610  0.4943  0.6539  0.2588
 1023SOL    HW2 3858   1.283   2.264   4.657 -1.5712  1.2300 -1.4560
 1023SOL    HW3 3859   1.399   2.180   4.607  0.6314  2.3835  1.4159
 1023SOL    MW4 3860   1.313   2.194   4.616  0.2399  0.9581  0.1852
 1024SOL     OW 3861   3.093   0.937   4.616  0.1966  0.0020  0.7123
 1024SOL    HW2 3862   3.106   0.880   4.540  1.0685  0.9026  0.1765
 1024SOL    HW3 3863   3.024   0.998   4.589  1.4682  1.2116  0.1082
 1024SOL    MW4 3864   3.085   0.937   4.602  0.4794  0.2804  0.5619
 1025SOL     OW 3865   4.344   4.201   2.177  0.2838  0.0049 -0.1940
 1025SOL    HW2 3866   4.420   4.168   2.227  0.7369 -0.5211 -1.1985
 1025SOL    HW3 3867   4.383   4.239   2.098 -0.1768  3.3444  1.0403
 1025SOL    MW4 3868   4.359   4.202   2.173  0.2828  0.3761 -0.1637
 1026SOL     OW 3869   3.973   3.628   0.145 -0.3108 -0.5244 -0.4297
 1026SOL    HW2 3870   4.003   3.656   0.231 -1.3780 -1.5326  0.3043
 1026SOL    HW3 3871   4.020   3.545   0.129 -0.1566 -0.3680 -0.7956
 1026SOL    MW4 3872   3.983   3.620   0.154 -0.4312 -0.6368 -0.3811
 1027SOL     OW 3873   4.570   2.672   1.602  0.3387  0.0771  0.0391
 1027SOL    HW2 3874   4.519   2.640   1.677  1.2055 -1.0753  0.1711
 1027SOL    HW3 3875   4.617   2.748   1.636  1.1605 -0.7701  0.8519
 1027SOL    MW4 3876   4.569   2.678   1.616  0.5615 -0.1867  0.1638
 1028SOL     OW 3877   6.229   3.282   0.441  0.1199 -0.3837 -0.0346
 1028SOL    HW2 3878   6.179   3.363   0.431 -0.2077 -0.5839 -0.0125
 1028SOL    HW3 3879   6.215   3.256   0.532  1.0115  0.0495  0.2443
 1028SOL    MW4 3880   6.221   3.289   0.451  0.1943 -0.3530  0.0051
 1029SOL     OW 3881   4.549   2.621   4.890  0.7447 -0.3324 -0.6106
 1029SOL    HW2 3882   4.574   2.548   4.946 -2.3224 -0.4184  0.8775
 1029SOL    HW3 3883   4.599   2.695   4.923  0.8100 -0.9046  0.6472
 1029SOL    MW4 3884   4.559   2.621   4.902  0.3486 -0.4192 -0.2483
 1030SOL     OW 3885   1.828   6.381   4.800  0.4239  0.1008 -0.1161
 1030SOL    HW2 3886   1.767   6.307   4.789 -0.8356  1.2375 -1.0677
 1030SOL    HW3 3887   1.795   6.448   4.741  2.3027  0.9865 -0.2241
 1030SOL    MW4 3888   1.815   6.380   4.791  0.5056  0.3676 -0.2559
 1031SOL     OW 3889   1.796   4.765   2.434  0.0796  0.1572  0.5254
 1031SOL    HW2 3890   1.783   4.819   2.356  1.2509  1.0419  0.9144
 1031SOL    HW3 3891   1.712   4.769   2.480 -0.6400 -0.4143 -0.6897
 1031SOL    MW4 3892   1.783   4.773   2.430  0.1392  0.1985  0.4164
 1032SOL     OW 3893   3.819   1.618   2.938  0.3058  0.4650  0.2496
 1032SOL    HW2 3894   3.866   1.700   2.953  0.5856  0.4832 -0.6671
 1032SOL    HW3 3895   3.862   1.579   2.862 -0.6264  0.0766 -0.0954
 1032SOL    MW4 3896   3.831   1.624   2.930  0.2197  0.4162  0.0832
 1033SOL     OW 3897   1.521   2.512   2.008 -0.1755 -0.3576  0.4361
 1033SOL    HW2 3898   1.563   2.594   2.032  0.9213 -0.9940  0.7441
 1033SOL    HW3 3899   1.449   2.538   1.949  1.1339  0.7065 -0.7693
 1033SOL    MW4 3900   1.517   2.526   2.003  0.1420 -0.3012  0.3177
 1034SOL     OW 3901   0.510   5.331   3.929 -0.4853 -0.1146  0.0036
 1034SOL    HW2 3902   0.527   5.396   3.998 -0.2123 -0.1532 -0.0274
 1034SOL    HW3 3903   0.435   5.367   3.881  1.4323  1.7083 -1.8601
 1034SOL    MW4 3904   0.502   5.345   3.932 -0.1963  0.1208 -0.2464
 1035SOL     OW 3905   1.208   5.569   2.412 -0.2051 -0.2291 -0.1132
 1035SOL    HW2 3906   1.140   5.550   2.348 -2.2471  1.9900  1.2396
 1035SOL    HW3 3907   1.226   5.485   2.454 -2.1005 -0.8957 -0.5342
 1035SOL    MW4 3908   1.202   5.556   2.409 -0.7246 -0.0243  0.0097
 1036SOL     OW 3909   3.094   5.783   1.595 -0.0091 -0.4373  0.0328
 1036SOL    HW2 3910   3.005   5.810   1.574  0.0972 -0.0740  0.0428
 1036SOL    HW3 3911   3.117   5.720   1.527 -0.1546 -0.2818 -0.1601
 1036SOL    MW4 3912   3.085   5.778   1.584 -0.0143 -0.3689  0.0086
 1037SOL     OW 3913   0.527   2.373   5.800  0.2988  0.2983  0.5378
 1037SOL    HW2 3914   0.581   2.310   5.847 -0.5350  0.0734  1.2314
 1037SOL    HW3 3915   0.492   2.430   5.869  1.5706  1.9762 -0.1367
 1037SOL    MW4 3916   0.529   2.373   5.815  0.3566  0.4900  0.5403
 1038SOL     OW 3917   4.392   0.142   5.639  0.1680 -0.2058 -0.2379
 1038SOL    HW2 3918   4.393   0.047   5.652 -0.7515 -0.0749  0.9558
 1038SOL    HW3 3919   4.315   0.157   5.584 -0.4394 -0.0371  0.6526
 1038SOL    MW4 3920   4.382   0.131   5.633 -0.0335 -0.1663  0.0371
 1039SOL     OW 3921   3.505   4.945   6.300  0.0164  0.4269  0.0038
 1039SOL    HW2 3922   3.500   5.039   6.286  2.3317  0.4646 -1.0832
 1039SOL    HW3 3923   3.424   4.911   6.263 -1.3584  2.0473  1.3940
 1039SOL    MW4 3924   3.494   4.953   6.293  0.1405  0.6456  0.0438
 1040SOL     OW 3925   0.415   3.359   3.417  0.0153 -0.4565  0.4196
 1040SOL    HW2 3926   0.362   3.330   3.343  0.0400  0.6507 -0.0516
 1040SOL    HW3 3927   0.396   3.295   3.486 -3.0443  0.6533  0.7405
 1040SOL    MW4 3928   0.405   3.347   3.416 -0.3851 -0.1640  0.3998
 1041SOL     OW 3929   5.240   2.320   0.499 -0.4465  0.4787  0.4408
 1041SOL    HW2 3930   5.225   2.301   0.407  0.0823 -2.8679  0.9344
 1041SOL    HW3 3931   5.335   2.330   0.506 -0.4869  0.7529  0.6298
 1041SOL    MW4 3932   5.251   2.319   0.488 -0.3820  0.0734  0.5308
 1042SOL     OW 3933   2.185   6.081   5.383  0.2047  0.0313 -0.3315
 1042SOL    HW2 3934   2.234   6.161   5.396  0.8911 -0.3449 -0.5692
 1042SOL    HW3 3935   2.093   6.109   5.377  0.4626  0.8127 -0.6593
 1042SOL    MW4 3936   2.179   6.095   5.384  0.3293  0.0847 -0.4061
 1043SOL     OW 3937   5.319   3.019   5.247  0.0212  0.6932  0.0399
 1043SOL    HW2 3938   5.391   3.069   5.285 -0.4276  1.9509 -0.6883
 1043SOL    HW3 3939   5.359   2.938   5.216  0.8227  0.7050  1.0075
 1043SOL    MW4 3940   5.334   3.015   5.247  0.0677  0.8607  0.0715
 1044SOL     OW 3941   0.086   0.670   4.709  0.2203  0.0284 -0.2801
 1044SOL    HW2 3942   0.129   0.661   4.794  0.3995  0.2986 -0.3398
 1044SOL    HW3 3943   0.027   0.745   4.719  0.4221  0.2148 -0.4638
 1044SOL    MW4 3944   0.084   0.679   4.722  0.2705  0.0887 -0.3122
 1045SOL     OW 3945   4.517   1.239   0.668  0.2152 -0.4392  0.2997
 1045SOL    HW2 3946   4.464   1.241   0.588  0.4117 -1.0092  0.1553
 1045SOL    HW3 3947   4.453   1.226   0.738  0.2823 -3.1095 -0.0277
 1045SOL    MW4 3948   4.501   1.237   0.667  0.2500 -0.8667  0.2374
 1046SOL     OW 3949   1.249   2.921   2.482 -0.4804 -0.1940 -0.5414
 1046SOL    HW2 3950   1.283   2.847   2.532 -3.8189 -1.0444  0.6699
 1046SOL    HW3 3951   1.278   2.998   2.531  0.0024 -0.8388  0.2051
 1046SOL    MW4 3952   1.258   2.921   2.495 -0.8572 -0.3913 -0.2831
 1047SOL     OW 3953   3.740   3.867   5.128  0.0415 -0.4640 -0.4153
 1047SOL    HW2 3954   3.823   3.833   5.095 -0.0599 -0.0402 -1.1315
 1047SOL    HW3 3955   3.764   3.920   5.205  0.3322 -1.0746 -0.0826
 1047SOL    MW4 3956   3.754   3.870   5.134  0.0665 -0.4886 -0.4659
 1048SOL     OW 3957   6.193   4.836   3.471  0.4584 -0.2926  0.0075
 1048SOL    HW2 3958   6.208   4.856   3.563 -2.6167  3.4629 -0.0006
 1048SOL    HW3 3959   6.132   4.762   3.472 -1.1951  1.0048  1.2217
 1048SOL    MW4 3960   6.187   4.829   3.483 -0.1655  0.3741  0.1667
 1049SOL     OW 3961   6.120   5.676   4.890  0.3346 -0.2949 -0.0330
 1049SOL    HW2 3962   6.085   5.612   4.952  1.1315 -1.1061 -0.4037
 1049SOL    HW3 3963   6.055   5.678   4.819  1.2284 -2.1738 -0.9661
 1049SOL    MW4 3964   6.107   5.668   4.889  0.5577 -0.6498 -0.2050
 1050SOL     OW 3965   3.146   4.565   0.163 -0.1472 -0.5780 -0.2245
 1050SOL    HW2 3966   3.136   4.625   0.237  0.3910 -1.0385  0.2317
 1050SOL    HW3 3967   3.203   4.496   0.196  0.4202 -0.5860 -1.1906
 1050SOL    MW4 3968   3.152   4.564   0.177 -0.0013 -0.6398 -0.2918
 1051SOL     OW 3969   2.767   4.514   3.846 -0.2366  0.0780  0.1563
 1051SOL    HW2 3970   2.744   4.586   3.786  0.4841  0.5731  0.4625
 1051SOL    HW3 3971   2.782   4.557   3.930  1.4474 -0.2491  0.0617
 1051SOL    MW4 3972   2.766   4.529   3.849  0.0806  0.1002  0.1842
 1052SOL     OW 3973   0.860   4.189   5.427 -0.8504 -0.8216 -0.6503
 1052SOL    HW2 3974   0.806   4.232   5.362 -1.7255 -0.7475  0.1165
 1052SOL    HW3 3975   0.893   4.260   5.483 -0.7785 -0.9652 -0.5074
 1052SOL    MW4 3976   0.857   4.204   5.426 -0.9564 -0.8308 -0.5303
 1053SOL     OW 3977   0.717   4.787   2.635  0.1870 -0.0301  0.0882
 1053SOL    HW2 3978   0.777   4.724   2.595 -1.0967 -0.6408 -0.9501
 1053SOL    HW3 3979   0.757   4.807   2.719  1.8807 -0.3515 -0.5846
 1053SOL    MW4 3980   0.730   4.781   2.640  0.2411 -0.1531 -0.1375
 1054SOL     OW 3981   2.011   2.891   4.523 -0.1287  0.8504  0.4330
 1054SOL    HW2 3982   2.044   2.863   4.608 -0.9680  0.2993  0.5928
 1054SOL    HW3 3983   2.049   2.978   4.509  0.0876  0.9028  1.3323
 1054SOL    MW4 3984   2.020   2.899   4.532 -0.2109  0.7846  0.5727
 1055SOL     OW 3985   0.860   1.659   1.127 -0.8458 -0.3437  0.3387
 1055SOL    HW2 3986   0.809   1.709   1.191  0.3719  0.9385  0.3574
 1055SOL    HW3 3987   0.901   1.590   1.179 -0.3272  0.3402  0.8695
 1055SOL    MW4 3988   0.859   1.657   1.142 -0.6167 -0.0843  0.4112
 1056SOL     OW 3989   3.170   1.726   5.495 -0.5238 -0.0329 -0.7931
 1056SOL    HW2 3990   3.256   1.715   5.453 -0.3140  0.9999 -0.6692
 1056SOL    HW3 3991   3.118   1.773   5.430 -0.5278  0.6383 -0.3162
 1056SOL    MW4 3992   3.175   1.730   5.481 -0.4966  0.1919 -0.7138
 1057SOL     OW 3993   0.070   3.097   5.460  0.2664 -0.0720 -0.3437
 1057SOL    HW2 3994  -0.006   3.052   5.424  0.7087 -1.5935  0.5344
 1057SOL    HW3 3995   0.034   3.174   5.504 -0.6628 -0.2960 -0.6860
 1057SOL    MW4 3996   0.055   3.101   5.461  0.2022 -0.3023 -0.2730
 1058SOL     OW 3997   4.622   4.225   3.082 -0.0180  0.5300  0.1373
 1058SOL    HW2 3998   4.592   4.159   3.145  0.1080 -0.2680 -0.6111
 1058SOL    HW3 3999   4.700   4.262   3.122  0.0522  0.0429  0.4618
 1058SOL    MW4 4000   4.628   4.221   3.096  0.0079  0.3605  0.0813
 1059SOL     OW 4001   3.055   3.674   5.489 -0.3816 -0.3570  0.1905
 1059SOL    HW2 4002   3.063   3.645   5.398  1.1782 -0.5858  0.3743
 1059SOL    HW3 4003   2.969   3.644   5.516 -0.1730 -1.8478 -0.6813
 1059SOL    MW4 4004   3.045   3.666   5.481 -0.1483 -0.5839  0.0998
 1060SOL     OW 4005   5.387   5.973   4.327  0.2257  0.0239 -0.0849
 1060SOL    HW2 4006   5.454   5.925   4.278  1.2052 -0.0789  1.2949
 1060SOL    HW3 4007   5.374   6.054   4.276 -0.5916 -1.1200 -1.7948
 1060SOL    MW4 4008   5.394   5.977   4.314  0.2471 -0.1406 -0.1284
 1061SOL     OW 4009   5.706   5.826   2.876 -0.6260  0.1166  0.0957
 1061SOL    HW2 4010   5.651   5.784   2.942  0.0418  1.6388  1.6779
 1061SOL    HW3 4011   5.650   5.895   2.839 -0.4426  0.3568  0.2683
 1061SOL    MW4 4012   5.691   5.829   2.880 -0.5137  0.3491  0.3272
 1062SOL     OW 4013   5.339   0.379   4.860 -0.6401 -0.2136 -0.2537
 1062SOL    HW2 4014   5.313   0.289   4.878  0.8740 -1.0045 -1.7343
 1062SOL    HW3 4015   5.397   0.373   4.784  0.1779  1.9133  0.1164
 1062SOL    MW4 4016   5.343   0.366   4.852 -0.3324 -0.0374 -0.4002
 1063SOL     OW 4017   1.373   2.250   1.803 -0.0249  0.0584 -0.0549
 1063SOL    HW2 4018   1.330   2.332   1.826 -0.9234 -1.1779  3.2276
 1063SOL    HW3 4019   1.464   2.274   1.787 -0.5978  1.8635 -0.8869
 1063SOL    MW4 4020   1.380   2.264   1.804 -0.2190  0.1334  0.2684
 1064SOL     OW 4021   1.365   5.657   3.441 -0.5328  0.0966 -0.7941
 1064SOL    HW2 4022   1.396   5.572   3.474 -1.3403  0.4489  0.9273
 1064SOL    HW3 4023   1.276   5.664   3.473  0.1318  2.4379  0.7219
 1064SOL    MW4 4024   1.357   5.647   3.449 -0.5517  0.4520 -0.3669
 1065SOL     OW 4025   3.633   0.145   6.226 -0.2837  0.8917  0.0434
 1065SOL    HW2 4026   3.674   0.199   6.293  0.9986 -0.4128  0.3705
 1065SOL    HW3 4027   3.632   0.199   6.148  2.9108  0.7541 -0.2239
 1065SOL    MW4 4028   3.638   0.159   6.225  0.3070  0.7015  0.0513
 1066SOL     OW 4029   0.781   6.233   0.248  0.7705  0.4714 -0.1617
 1066SOL    HW2 4030   0.736   6.170   0.192 -0.2999  0.2335  0.9252
 1066SOL    HW3 4031   0.845   6.182   0.296  0.6114  0.3890 -0.0354
 1066SOL    MW4 4032   0.783   6.218   0.247  0.6083  0.4292 -0.0016
 1067SOL     OW 4033   3.539   0.805   1.440 -0.0456  0.3606 -0.0220
 1067SOL    HW2 4034   3.544   0.890   1.396  1.1309  0.2291 -0.1653
 1067SOL    HW3 4035   3.600   0.813   1.514 -1.3604  0.2843  1.1220
 1067SOL    MW4 4036   3.548   0.818   1.444 -0.0639  0.3332  0.1101
 1068SOL     OW 4037   0.693   6.116   3.492  0.0624 -0.1911 -0.2364
 1068SOL    HW2 4038   0.613   6.085   3.449 -0.3825 -1.0609  1.1302
 1068SOL    HW3 4039   0.747   6.151   3.421 -2.9824  3.9502 -0.9138
 1068SOL    MW4 4040   0.689   6.117   3.477 -0.3980  0.2405 -0.1455
 1069SOL     OW 4041   0.291   1.276   2.683  0.0297 -0.0533  0.2371
 1069SOL    HW2 4042   0.322   1.286   2.774  0.0918  0.3840  0.1725
 1069SOL    HW3 4043   0.351   1.214   2.644 -0.4550 -0.8370  0.7101
 1069SOL    MW4 4044   0.303   1.269   2.690 -0.0261 -0.0990  0.2910
 1070SOL     OW 4045   3.120   6.231   5.702 -0.0374 -0.2320 -0.6389
 1070SOL    HW2 4046   3.178   6.262   5.772 -2.7424 -0.8646  2.0791
 1070SOL    HW3 4047   3.122   6.300   5.637  1.3056  1.2071  0.8421
 1070SOL    MW4 4048   3.128   6.244   5.703 -0.2171 -0.1256 -0.0849
 1071SOL     OW 4049   2.850   1.265   4.097 -0.2866 -0.1520 -0.5311
 1071SOL    HW2 4050   2.793   1.303   4.031 -2.3760 -0.4131  1.0286
 1071SOL    HW3 4051   2.844   1.325   4.172 -0.0090 -1.1722  0.3309
 1071SOL    MW4 4052   2.842   1.278   4.098 -0.5256 -0.3211 -0.2116
 1072SOL     OW 4053   4.431   0.175   1.253  0.7284 -0.0487 -0.4017
 1072SOL    HW2 4054   4.425   0.080   1.267  1.2969 -0.3470 -1.9767
 1072SOL    HW3 4055   4.485   0.207   1.326 -0.5537 -0.7029  0.8981
 1072SOL    MW4 4056   4.437   0.167   1.265  0.6342 -0.1743 -0.4380
 1073SOL     OW 4057   0.437   6.218   2.385  0.2387 -0.6506 -0.0317
 1073SOL    HW2 4058   0.492   6.149   2.349 -0.2598 -0.4858 -1.1410
 1073SOL    HW3 4059   0.488   6.298   2.377  0.4152 -0.7233  0.3239
 1073SOL    MW4 4060   0.451   6.219   2.379  0.1962 -0.6384 -0.1311
 1074SOL     OW 4061   0.662   5.295   0.986  0.0215  0.7983  0.4311
 1074SOL    HW2 4062   0.613   5.377   0.994  1.6998  1.7061  2.4418
 1074SOL    HW3 4063   0.753   5.323   0.982  0.6441 -0.9505  1.3758
 1074SOL    MW4 4064   0.668   5.310   0.987  0.3251  0.6873  0.8210
 1075SOL     OW 4065   3.740   4.018   4.851 -1.4113 -0.6740  0.1964
 1075SOL    HW2 4066   3.715   3.977   4.933 -1.6165 -0.6999  0.1223
 1075SOL    HW3 4067   3.834   4.035   4.859 -1.6413  0.3294  0.8687
 1075SOL    MW4 4068   3.749   4.014   4.863 -1.4687 -0.5451  0.2753
 1076SOL     OW 4069   0.195   3.474   5.310 -0.2115 -0.1320  0.0263
 1076SOL    HW2 4070   0.101   3.459   5.301 -0.6237  1.6622  0.8228
 1076SOL    HW3 4071   0.202   3.564   5.340  1.7966 -0.1417 -0.2651
 1076SOL    MW4 4072   0.184   3.484   5.313 -0.0009  0.1034  0.0930
 1077SOL     OW 4073   0.457   4.094   6.305 -0.0242 -0.2111 -0.2102
 1077SOL    HW2 4074   0.406   4.154   6.360  0.0588 -2.3250  2.3894
 1077SOL    HW3 4075   0.394   4.060   6.241 -0.5534  1.0789 -0.3961
 1077SOL    MW4 4076   0.442   4.097   6.304 -0.0830 -0.3198  0.1083
 1078SOL     OW 4077   2.804   4.231   1.755  0.8076 -0.1208 -0.0443
 1078SOL    HW2 4078   2.771   4.201   1.670  1.3496  0.7045 -0.5550
 1078SOL    HW3 4079   2.897   4.208   1.755  0.9666  0.5170  0.0383
 1078SOL    MW4 4080   2.812   4.224   1.744  0.9001  0.0722 -0.1008
 1079SOL     OW 4081   1.704   0.112   6.077 -0.0253 -0.4202  0.1186
 1079SOL    HW2 4082   1.637   0.081   6.017 -0.2724  0.6030 -0.1485
 1079SOL    HW3 4083   1.658   0.167   6.140  0.5083  0.1257  0.0545
 1079SOL    MW4 4084   1.689   0.115   6.077  0.0125 -0.2132  0.0749
 1080SOL     OW 4085   1.965   0.564   0.919  0.1943 -0.5679 -0.3521
 1080SOL    HW2 4086   1.942   0.527   0.834 -0.5436  0.6928 -0.7290
 1080SOL    HW3 4087   2.052   0.528   0.938 -0.0830 -1.6951 -1.1270
 1080SOL    MW4 4088   1.974   0.555   0.910  0.0604 -0.5503 -0.5041
 1081SOL     OW 4089   1.257   5.320   2.522 -0.2293 -0.2958  0.3145
 1081SOL    HW2 4090   1.181   5.273   2.555  0.3886 -1.0259  0.7576
 1081SOL    HW3 4091   1.283   5.271   2.444  0.4122 -0.7129  0.7723
 1081SOL    MW4 4092   1.251   5.307   2.516 -0.0632 -0.4472  0.4334
 1082SOL     OW 4093   0.578   3.302   2.457  0.5333  0.7879 -0.1596
 1082SOL    HW2 4094   0.504   3.241   2.459  1.3178 -0.2129 -0.4002
 1082SOL    HW3 4095   0.591   3.321   2.364  1.6116 -0.3835 -0.2738
 1082SOL    MW4 4096   0.570   3.296   2.445  0.7791  0.5013 -0.2064
 1083SOL     OW 4097   0.848   5.837   5.079  0.5007 -0.3904 -0.2366
 1083SOL    HW2 4098   0.888   5.885   5.152  1.1343 -2.1918  0.6691
 1083SOL    HW3 4099   0.921   5.789   5.039  0.2081  0.7035 -2.2358
 1083SOL    MW4 4100   0.863   5.837   5.083  0.5457 -0.4837 -0.3809
 1084SOL     OW 4101   2.549   4.849   2.045  0.3737 -0.2486  0.0988
 1084SOL    HW2 4102   2.524   4.808   2.128  0.7523 -0.3287  0.1760
 1084SOL    HW3 4103   2.479   4.824   1.984 -1.0794  1.6014  0.9062
 1084SOL    MW4 4104   2.536   4.840   2.048  0.2319 -0.0151  0.2155
 1085SOL     OW 4105   0.071   3.332   1.693 -0.2999  0.2207  0.2294
 1085SOL    HW2 4106   0.122   3.310   1.614 -1.5398 -0.0617 -0.5310
 1085SOL    HW3 4107   0.014   3.256   1.706 -0.9994  0.8076  0.6503
 1085SOL    MW4 4108   0.071   3.319   1.684 -0.5558  0.2609  0.1846
 1086SOL     OW 4109   1.994   1.429   4.219 -0.2545 -0.4973  0.4036
 1086SOL    HW2 4110   2.076   1.475   4.202 -0.6060  1.0699  2.4890
 1086SOL    HW3 4111   1.990   1.422   4.315 -1.9949 -1.6030  0.2984
 1086SOL    MW4 4112   2.004   1.434   4.230 -0.5305 -0.4364  0.6649
 1087SOL     OW 4113   5.702   1.242   2.494  0.1445  1.1566 -0.9640
 1087SOL    HW2 4114   5.651   1.277   2.567 -0.1144 -0.9673 -0.0373
 1087SOL    HW3 4115   5.784   1.213   2.534 -0.3940 -0.9425 -1.2746
 1087SOL    MW4 4116   5.706   1.243   2.509  0.0393  0.5995 -0.8827
 1088SOL     OW 4117   1.923   1.916   3.467  0.3925 -0.0163 -0.3303
 1088SOL    HW2 4118   1.927   1.928   3.562 -1.8221 -0.7963 -0.0828
 1088SOL    HW3 4119   1.922   1.821   3.455  0.3835  0.0824 -1.1227
 1088SOL    MW4 4120   1.924   1.905   3.478  0.0991 -0.1062 -0.4022
 1089SOL     OW 4121   5.634   6.228   3.048  0.7066  0.1205 -0.3633
 1089SOL    HW2 4122   5.714   6.271   3.018 -0.0638  0.0743 -2.6313
 1089SOL    HW3 4123   5.571   6.299   3.060  0.9915  0.1425  1.2835
 1089SOL    MW4 4124   5.636   6.243   3.046  0.6426  0.1173 -0.4453
 1090SOL     OW 4125   0.606   4.805   1.766 -0.0046 -0.1875  0.0045
 1090SOL    HW2 4126   0.638   4.836   1.851  0.7808  0.8487 -0.6525
 1090SOL    HW3 4127   0.521   4.849   1.756 -1.7081 -2.8203  1.6761
 1090SOL    MW4 4128   0.599   4.815   1.776 -0.1257 -0.3982  0.1384
 1091SOL     OW 4129   3.404   0.316   2.605 -0.3195 -0.1438 -0.3804
 1091SOL    HW2 4130   3.350   0.365   2.543 -0.8498 -1.4019 -0.9636
 1091SOL    HW3 4131   3.463   0.265   2.550  1.2229  0.9016  0.2441
 1091SOL    MW4 4132   3.405   0.316   2.590 -0.1860 -0.1719 -0.3750
 1092SOL     OW 4133   0.276   3.497   6.333  0.0526 -0.1155 -0.1274
 1092SOL    HW2 4134   0.194   3.464   6.369 -0.4198  0.9160 -0.2235
 1092SOL    HW3 4135   0.263   3.495   6.238  0.0125  0.3372 -0.1352
 1092SOL    MW4 4136   0.264   3.493   6.325 -0.0150  0.0803 -0.1411
 1093SOL     OW 4137   2.141   3.518   2.278 -0.0022 -0.1620 -0.2305
 1093SOL    HW2 4138   2.176   3.541   2.192  0.9885 -0.7349 -0.0062
 1093SOL    HW3 4139   2.217   3.521   2.336  0.1807 -3.5105 -0.1175
 1093SOL    MW4 4140   2.156   3.521   2.274  0.1526 -0.6794 -0.1860
 1094SOL     OW 4141   0.913   3.303   3.576  0.3726  0.1984  0.6228
 1094SOL    HW2 4142   0.929   3.223   3.626 -1.0938 -1.4444 -1.3759
 1094SOL    HW3 4143   0.829   3.334   3.608 -1.2273 -1.5933 -1.5540
 1094SOL    MW4 4144   0.904   3.296   3.587 -0.0319 -0.2548  0.0719
 1095SOL     OW 4145   0.034   2.270   0.925  0.7849 -0.0785 -0.1022
 1095SOL    HW2 4146   0.093   2.195   0.938 -0.1009 -0.7670  0.0345
 1095SOL    HW3 4147   0.025   2.277   0.830  2.8228  1.4452 -0.2641
 1095SOL    MW4 4148   0.041   2.261   0.915  0.9369  0.0317 -0.1055
 1096SOL     OW 4149   5.580   3.388   5.995  0.7086  0.0857 -0.4348
 1096SOL    HW2 4150   5.486   3.403   6.010  0.5509 -0.7809 -0.5221
 1096SOL    HW3 4151   5.623   3.465   6.033 -0.0216  0.3938 -0.2138
 1096SOL    MW4 4152   5.573   3.400   6.002  0.5914  0.0120 -0.4171
 1097SOL     OW 4153   2.597   2.496   2.634 -0.9792  0.4573 -0.5512
 1097SOL    HW2 4154   2.507   2.502   2.667 -0.5467  1.5281  0.5185
 1097SOL    HW3 4155   2.647   2.461   2.707 -0.1380  2.1365 -0.2591
 1097SOL    MW4 4156   2.591   2.492   2.648 -0.8112  0.8202 -0.3716
 1098SOL     OW 4157   2.399   5.759   2.475  0.4928 -0.2210 -0.0662
 1098SOL    HW2 4158   2.409   5.842   2.522  1.4947 -0.3856  0.0429
 1098SOL    HW3 4159   2.307   5.737   2.484  0.8775 -1.0205  3.1778
 1098SOL    MW4 4160   2.388   5.767   2.482  0.6758 -0.3482  0.3762
 1099SOL     OW 4161   4.102   6.172   2.010 -0.6160 -0.1975  0.0464
 1099SOL    HW2 4162   4.073   6.252   2.054 -0.3390 -0.3248  0.4665
 1099SOL    HW3 4163   4.159   6.129   2.074  0.9418  0.3207 -0.9617
 1099SOL    MW4 4164   4.105   6.177   2.025 -0.3739 -0.1460 -0.0312
 1100SOL     OW 4165   5.785   0.277   2.300  0.0651  0.1516 -0.0234
 1100SOL    HW2 4166   5.805   0.185   2.317 -1.8012  0.1965  3.1014
 1100SOL    HW3 4167   5.785   0.318   2.386 -1.1098  2.6677 -1.1318
 1100SOL    MW4 4168   5.787   0.270   2.313 -0.3361  0.4895  0.2426
 1101SOL     OW 4169   0.736   2.102   5.241 -0.9439 -0.1999  0.0642
 1101SOL    HW2 4170   0.677   2.027   5.253 -1.4839  0.2586  0.3535
 1101SOL    HW3 4171   0.679   2.171   5.208 -0.0510 -0.5617 -2.4604
 1101SOL    MW4 4172   0.720   2.101   5.238 -0.8973 -0.1872 -0.2307
 1102SOL     OW 4173   3.445   4.747   0.285  0.5106  0.2810  0.3305
 1102SOL    HW2 4174   3.436   4.652   0.289  1.0406  0.0693 -1.9581
 1102SOL    HW3 4175   3.488   4.771   0.367 -3.1777 -0.8826  2.8052
 1102SOL    MW4 4176   3.450   4.738   0.296  0.0939  0.0996  0.3550
 1103SOL     OW 4177   1.474   5.092   2.942  0.1324  0.3289 -0.2240
 1103SOL    HW2 4178   1.545   5.156   2.936  0.3011  0.6945  3.4056
 1103SOL    HW3 4179   1.397   5.137   2.909  0.7573  1.4703 -0.1600
 1103SOL    MW4 4180   1.473   5.106   2.937  0.2371  0.5278  0.2633
 1104SOL     OW 4181   3.235   3.005   5.316  0.0729 -0.0653 -0.2433
 1104SOL    HW2 4182   3.265   3.024   5.227  1.0330  1.5790  0.3748
 1104SOL    HW3 4183   3.141   3.022   5.314  0.3007  1.2517 -0.6560
 1104SOL    MW4 4184   3.227   3.010   5.304  0.2296  0.3254 -0.2162
 1105SOL     OW 4185   1.229   0.914   2.976 -0.1283  0.1087  0.1092
 1105SOL    HW2 4186   1.188   0.999   2.989 -0.3102  0.4947 -2.5554
 1105SOL    HW3 4187   1.198   0.884   2.891  3.0428 -0.7736 -0.8786
 1105SOL    MW4 4188   1.220   0.921   2.967  0.2661  0.0432 -0.3727
 1106SOL     OW 4189   2.283   4.450   0.305  0.2613  0.8448 -0.6127
 1106SOL    HW2 4190   2.351   4.488   0.250  0.6759  0.8840 -0.0765
 1106SOL    HW3 4191   2.216   4.421   0.243 -0.2806  2.8174 -1.0349
 1106SOL    MW4 4192   2.283   4.451   0.290  0.2445  1.1102 -0.5976
 1107SOL     OW 4193   3.743   0.562   1.849  0.3967  0.2260 -0.1848
 1107SOL    HW2 4194   3.804   0.552   1.922  1.9581  0.0168 -1.4596
 1107SOL    HW3 4195   3.786   0.518   1.775 -0.1197  2.2556 -1.7839
 1107SOL    MW4 4196   3.756   0.555   1.849  0.5345  0.4662 -0.5640
 1108SOL     OW 4197   4.909   4.142   0.980  0.0723  0.2190 -0.0891
 1108SOL    HW2 4198   4.909   4.062   0.928 -1.1156  0.5727 -0.6592
 1108SOL    HW3 4199   4.832   4.135   1.036  0.1649  0.7926  0.1156
 1108SOL    MW4 4200   4.899   4.131   0.981 -0.0722  0.3414 -0.1373
 1109SOL     OW 4201   0.151   2.235   4.280  0.1441  0.0499 -0.0522
 1109SOL    HW2 4202   0.189   2.161   4.233  1.1658  0.3659  0.2536
 1109SOL    HW3 4203   0.057   2.214   4.286  0.0739 -0.2556 -1.7279
 1109SOL    MW4 4204   0.143   2.223   4.275  0.2696  0.0513 -0.2330
 1110SOL     OW 4205   1.683   5.407   4.021  0.4922 -0.4085 -0.3135
 1110SOL    HW2 4206   1.639   5.476   3.971  0.7616 -0.6841 -0.9385
 1110SOL    HW3 4207   1.616   5.373   4.080  0.5521  0.9006  0.5558
 1110SOL    MW4 4208   1.669   5.412   4.022  0.5357 -0.2721 -0.2813
 1111SOL     OW 4209   2.406   2.060   1.220 -0.1152 -0.4689 -0.1908
 1111SOL    HW2 4210   2.374   2.034   1.134  0.6803  1.2245 -1.0455
 1111SOL    HW3 4211   2.497   2.088   1.205 -0.8628  2.8209  0.5122
 1111SOL    MW4 4212   2.414   2.060   1.207 -0.1089  0.1886 -0.2108
 1112SOL     OW 4213   5.940   0.342   3.749  0.4299 -0.4919 -0.6478
 1112SOL    HW2 4214   5.872   0.372   3.810  0.6613 -2.8532  0.9001
 1112SOL    HW3 4215   6.017   0.394   3.772  0.2114 -0.5789  0.3246
 1112SOL    MW4 4216   5.941   0.353   3.760  0.4316 -0.8149 -0.3152
 1113SOL     OW 4217   5.177   4.878   1.771 -0.0242 -0.0107  0.3176
 1113SOL    HW2 4218   5.239   4.812   1.740  0.2968  0.5149 -0.1580
 1113SOL    HW3 4219   5.134   4.836   1.846  2.0766  0.2376  1.7245
 1113SOL    MW4 4220   5.179   4.864   1.777  0.2953  0.0914  0.4405
 1114SOL     OW 4221   4.306   4.606   2.030  0.7211 -0.3471 -0.3888
 1114SOL    HW2 4222   4.320   4.608   1.935 -1.3581 -0.1600 -0.7329
 1114SOL    HW3 4223   4.236   4.542   2.043  0.3380  0.2958  0.9206
 1114SOL    MW4 4224   4.299   4.598   2.019  0.3962 -0.2376 -0.2614
 1115SOL     OW 4225   1.838   1.909   3.940 -0.2667 -0.3460 -0.7013
 1115SOL    HW2 4226   1.779   1.896   4.015  0.4498 -0.7197 -0.1874
 1115SOL    HW3 4227   1.790   1.968   3.882  0.1681  2.0884  1.2457
 1115SOL    MW4 4228   1.824   1.915   3.942 -0.1148 -0.0741 -0.3766
 1116SOL     OW 4229   5.432   5.484   4.143  0.2554 -0.1346  0.0242
 1116SOL    HW2 4230   5.441   5.552   4.210 -1.6764 -0.9854  1.2444
 1116SOL    HW3 4231   5.438   5.402   4.192  0.7813 -0.8347 -1.1682
 1116SOL    MW4 4232   5.434   5.482   4.159  0.0699 -0.3392  0.0278
 1117SOL     OW 4233   3.550   3.350   0.179  0.2219  0.2892 -0.6802
 1117SOL    HW2 4234   3.521   3.321   0.092 -1.1250 -0.8875  0.1243
 1117SOL    HW3 4235   3.520   3.441   0.185  0.6131  0.4885 -1.5544
 1117SOL    MW4 4236   3.542   3.359   0.168  0.0958  0.1602 -0.6894
 1118SOL     OW 4237   6.197   0.612   2.578 -0.0711  0.2507  0.3368
 1118SOL    HW2 4238   6.121   0.569   2.540  0.6621 -1.2154  0.4910
 1118SOL    HW3 4239   6.182   0.609   2.673  0.8168 -1.3158  0.4506
 1118SOL    MW4 4240   6.185   0.606   2.586  0.1428 -0.1494  0.3721
 1119SOL     OW 4241   1.851   2.229   3.605  0.0503 -0.0076 -0.0285
 1119SOL    HW2 4242   1.943   2.231   3.632  0.3913 -0.4883 -1.1093
 1119SOL    HW3 4243   1.815   2.312   3.637  0.8571  0.1851  0.4035
 1119SOL    MW4 4244   1.858   2.241   3.613  0.2017 -0.0456 -0.1141
 1120SOL     OW 4245   2.378   4.981   3.109  0.0013 -0.7615  0.0789
 1120SOL    HW2 4246   2.370   4.977   3.013 -1.3303 -1.9493  0.2045
 1120SOL    HW3 4247   2.415   4.896   3.133 -0.7064 -0.9074  0.6873
 1120SOL    MW4 4248   2.382   4.969   3.099 -0.2678 -0.9375  0.1758
 1121SOL     OW 4249   0.494   1.878   0.846 -0.2489  0.3326  0.0235
 1121SOL    HW2 4250   0.451   1.799   0.813  2.1555 -0.3961 -1.7315
 1121SOL    HW3 4251   0.504   1.863   0.940 -0.6991 -1.0182 -0.1249
 1121SOL    MW4 4252   0.490   1.865   0.854  0.0089  0.0582 -0.2276
 1122SOL     OW 4253   3.290   6.071   2.654  0.0632  0.6731  0.3063
 1122SOL    HW2 4254   3.363   6.103   2.600  1.3189 -0.9600  0.9410
 1122SOL    HW3 4255   3.324   5.992   2.695 -2.4572 -0.8041 -0.2502
 1122SOL    MW4 4256   3.304   6.065   2.652 -0.1037  0.2627  0.3166
 1123SOL     OW 4257   0.261   4.729   3.497  0.4258  0.1447  0.2425
 1123SOL    HW2 4258   0.182   4.770   3.463  1.8639  0.9506 -2.4804
 1123SOL    HW3 4259   0.274   4.652   3.442  1.1851 -0.3317  1.0611
 1123SOL    MW4 4260   0.253   4.725   3.485  0.7157  0.1882 -0.0088
 1124SOL     OW 4261   6.287   1.960   5.956 -0.0801 -0.0208  0.3060
 1124SOL    HW2 4262   6.324   1.872   5.960 -0.5535 -0.1763  2.3014
 1124SOL    HW3 4263   6.224   1.956   5.885 -0.7299 -1.5703  0.9273
 1124SOL    MW4 4264   6.284   1.948   5.947 -0.2283 -0.2458  0.6512
 1125SOL     OW 4265   0.928   4.988   5.853 -0.1923  0.6538 -0.5792
 1125SOL    HW2 4266   0.993   4.919   5.869  1.1014  1.3192 -2.5602
 1125SOL    HW3 4267   0.981   5.066   5.837 -1.6318  2.3659  2.3963
 1125SOL    MW4 4268   0.944   4.989   5.853 -0.2115  0.9675 -0.4480
 1126SOL     OW 4269   0.466   0.359   1.768  0.4765 -0.1870  0.2236
 1126SOL    HW2 4270   0.531   0.349   1.838  0.3672 -0.9571  0.2266
 1126SOL    HW3 4271   0.412   0.280   1.774  0.2887 -0.1258 -0.5478
 1126SOL    MW4 4272   0.467   0.347   1.778  0.4373 -0.2806  0.1222
 1127SOL     OW 4273   2.721   4.378   0.574  0.3690 -0.2185  0.4362
 1127SOL    HW2 4274   2.691   4.372   0.664 -2.8508 -0.3267 -0.4864
 1127SOL    HW3 4275   2.751   4.290   0.552  1.8563 -0.0159  1.5619
 1127SOL    MW4 4276   2.721   4.365   0.583  0.1404 -0.2060  0.4630
 1128SOL     OW 4277   2.419   6.178   2.740  0.4654  0.2154 -0.3920
 1128SOL    HW2 4278   2.500   6.180   2.792 -0.6587  0.6399  1.4463
 1128SOL    HW3 4279   2.350   6.189   2.805 -0.9559  3.0923 -2.2239
 1128SOL    MW4 4280   2.421   6.180   2.756  0.1296  0.6510 -0.3912
 1129SOL     OW 4281   5.708   0.298   4.909 -0.1454  0.0438  0.0766
 1129SOL    HW2 4282   5.719   0.235   4.980 -1.4599  0.3205  0.5504
 1129SOL    HW3 4283   5.705   0.383   4.954  0.0129  0.3073 -0.4056
 1129SOL    MW4 4284   5.709   0.301   4.924 -0.2979  0.1151  0.0755
 1130SOL     OW 4285   5.924   3.886   4.325 -0.3323 -0.4445  0.1051
 1130SOL    HW2 4286   5.948   3.925   4.409 -0.2413 -2.2786  0.9931
 1130SOL    HW3 4287   5.829   3.875   4.330 -0.5801  1.0446 -0.7955
 1130SOL    MW4 4288   5.914   3.890   4.337 -0.3530 -0.4900  0.1034
 1131SOL     OW 4289   2.358   6.066   2.053 -0.2810 -1.0258 -0.1956
 1131SOL    HW2 4290   2.317   6.109   2.128 -0.1849 -0.6265 -0.3700
 1131SOL    HW3 4291   2.397   6.137   2.003  1.5480 -1.4654  0.5263
 1131SOL    MW4 4292   2.358   6.081   2.056 -0.0270 -1.0311 -0.1234
 1132SOL     OW 4293   0.901   6.236   1.563  0.4840  0.1251 -0.0991
 1132SOL    HW2 4294   0.903   6.238   1.659 -2.4823 -2.3473  0.1737
 1132SOL    HW3 4295   0.826   6.292   1.540  2.0169  1.8502 -1.1565
 1132SOL    MW4 4296   0.891   6.244   1.573  0.2949  0.0265 -0.2026
 1133SOL     OW 4297   5.825   4.402   3.372  0.1426  0.4241 -0.4593
 1133SOL    HW2 4298   5.895   4.459   3.338 -0.2529  0.5101 -1.1482
 1133SOL    HW3 4299   5.779   4.371   3.294 -1.1419  1.0677  0.0162
 1133SOL    MW4 4300   5.829   4.406   3.357 -0.0791  0.5204 -0.4875
 1134SOL     OW 4301   0.819   2.978   2.885  0.1012 -0.5364  0.3365
 1134SOL    HW2 4302   0.910   2.969   2.855  0.6974  0.5205  1.7541
 1134SOL    HW3 4303   0.817   3.060   2.934 -1.8774 -0.0189 -0.5026
 1134SOL    MW4 4304   0.831   2.987   2.887 -0.0812 -0.3286  0.4129
 1135SOL     OW 4305   3.215   2.290   4.879  0.0796  0.5562  0.4640
 1135SOL    HW2 4306   3.121   2.284   4.859  0.4833  1.8845 -2.2040
 1135SOL    HW3 4307   3.222   2.365   4.938 -0.4379  1.3053 -0.3993
 1135SOL    MW4 4308   3.203   2.299   4.884  0.0646  0.8303 -0.0019
 1136SOL     OW 4309   1.269   5.982   4.067  0.2577 -0.4235  0.1531
 1136SOL    HW2 4310   1.290   5.964   4.158 -1.9178 -1.4569  0.5238
 1136SOL    HW3 4311   1.327   5.925   4.017  0.4617 -0.9208  0.9420
 1136SOL    MW4 4312   1.279   5.972   4.072 -0.0024 -0.6255  0.3061
 1137SOL     OW 4313   4.212   1.526   2.417  0.3580  0.4420 -0.0553
 1137SOL    HW2 4314   4.157   1.594   2.458  1.1964  0.2601  1.4622
 1137SOL    HW3 4315   4.262   1.573   2.351  0.8004  1.3077  0.8598
 1137SOL    MW4 4316   4.211   1.541   2.414  0.5270  0.5322  0.2656
 1138SOL     OW 4317   1.202   3.204   2.522  0.1469  0.3658  0.2604
 1138SOL    HW2 4318   1.252   3.281   2.549 -0.6675  0.4210  1.7265
 1138SOL    HW3 4319   1.158   3.175   2.602  0.6379 -1.7879 -0.2019
 1138SOL    MW4 4320   1.203   3.210   2.536  0.1042  0.0889  0.3928
 1139SOL     OW 4321   2.017   1.148   1.694  0.0456  0.1956 -0.0927
 1139SOL    HW2 4322   1.999   1.158   1.787 -0.2386  0.8222 -0.2094
 1139SOL    HW3 4323   1.942   1.189   1.650 -0.0922 -0.5850 -0.6003
 1139SOL    MW4 4324   2.005   1.155   1.700 -0.0101  0.1753 -0.1750
 1140SOL     OW 4325   1.854   1.008   1.116  0.5950 -0.1484  0.1436
 1140SOL    HW2 4326   1.850   0.937   1.051  2.2317 -0.8484  0.7614
 1140SOL    HW3 4327   1.812   1.082   1.073  0.8322 -0.8510 -1.3711
 1140SOL    MW4 4328   1.848   1.008   1.102  0.8422 -0.3335  0.0253
 1141SOL     OW 4329   1.776   4.595   3.790 -0.9180  0.2162 -0.5843
 1141SOL    HW2 4330   1.702   4.544   3.823 -0.5800  0.0355 -0.0840
 1141SOL    HW3 4331   1.847   4.531   3.780 -0.9175  0.3279 -1.3734
 1141SOL    MW4 4332   1.776   4.580   3.793 -0.8734  0.2071 -0.6224
 1142SOL     OW 4333   2.568   0.915   3.760  0.0914 -0.3076 -0.0445
 1142SOL    HW2 4334   2.497   0.979   3.754  1.0595  0.8479  0.3937
 1142SOL    HW3 4335   2.644   0.961   3.723  0.7846 -1.2561  0.1730
 1142SOL    MW4 4336   2.568   0.929   3.754  0.3106 -0.2803  0.0420
 1143SOL     OW 4337   0.035   1.740   3.635  0.2918 -0.1469  0.1927
 1143SOL    HW2 4338  -0.003   1.718   3.549  0.6192  0.9763 -0.2563
 1143SOL    HW3 4339   0.102   1.805   3.615  1.4877 -1.0624  1.1417
 1143SOL    MW4 4340   0.038   1.746   3.621  0.4928 -0.1195  0.2587
 1144SOL     OW 4341   5.001   1.123   4.085  0.3476  0.1063 -0.6295
 1144SOL    HW2 4342   4.992   1.108   4.179  1.5682 -2.5827 -0.8605
 1144SOL    HW3 4343   4.950   1.203   4.068  0.2747  0.7683  2.3123
 1144SOL    MW4 4344   4.993   1.132   4.095  0.4990 -0.1612 -0.2719
 1145SOL     OW 4345   1.246   0.720   1.105  0.0584  0.4524 -0.0356
 1145SOL    HW2 4346   1.273   0.786   1.168  0.1243  1.5127 -1.1386
 1145SOL    HW3 4347   1.300   0.737   1.028 -1.1207  0.2116 -0.9471
 1145SOL    MW4 4348   1.257   0.731   1.103 -0.0885  0.5605 -0.3014
 1146SOL     OW 4349   0.795   4.054   4.112 -0.3639  0.0479  0.4406
 1146SOL    HW2 4350   0.708   4.092   4.123  0.0038  0.3514  3.0537
 1146SOL    HW3 4351   0.855   4.127   4.125  0.2813 -0.6200  1.3651
 1146SOL    MW4 4352   0.791   4.068   4.115 -0.2303 -0.0001  0.9073
 1147SOL     OW 4353   3.543   3.943   1.322 -0.5046  0.5762 -0.0709
 1147SOL    HW2 4354   3.602   3.954   1.247 -0.5103  0.1726 -0.1355
 1147SOL    HW3 4355   3.602   3.936   1.397 -0.4821  0.4690 -0.0989
 1147SOL    MW4 4356   3.559   3.944   1.322 -0.5024  0.5088 -0.0831
 1148SOL     OW 4357   0.621   0.914   3.003 -0.1143 -0.3124 -0.6167
 1148SOL    HW2 4358   0.711   0.883   3.007 -0.0882 -0.1320  0.3476
 1148SOL    HW3 4359   0.568   0.835   2.995  0.0287 -0.5487  0.5902
 1148SOL    MW4 4360   0.626   0.900   3.002 -0.0920 -0.3198 -0.3303
 1149SOL     OW 4361   3.785   4.411   5.573 -0.2080 -0.1762  0.1850
 1149SOL    HW2 4362   3.791   4.497   5.614  1.4567  0.4677 -1.2447
 1149SOL    HW3 4363   3.751   4.429   5.485  1.1862 -0.7901 -0.5145
 1149SOL    MW4 4364   3.782   4.425   5.566  0.1956 -0.1722 -0.0959
 1150SOL     OW 4365   3.446   6.408   1.567  0.2431  0.0879  0.3950
 1150SOL    HW2 4366   3.387   6.370   1.502  1.7874 -1.8493  0.0008
 1150SOL    HW3 4367   3.420   6.367   1.650  0.3453  0.0555  0.4112
 1150SOL    MW4 4368   3.435   6.397   1.569  0.4603 -0.1720  0.3451
 1151SOL     OW 4369   4.285   1.926   3.762  0.1663  0.2217 -0.1978
 1151SOL    HW2 4370   4.324   1.839   3.756  2.0546  0.7776  2.2988
 1151SOL    HW3 4371   4.202   1.913   3.808  0.0778 -0.3150 -0.5024
 1151SOL    MW4 4372   4.279   1.913   3.767  0.4037  0.2243  0.0914
 1152SOL     OW 4373   1.740   1.564   3.021  0.2578 -0.2761 -0.5023
 1152SOL    HW2 4374   1.826   1.570   3.062  0.5562  0.2404 -1.1695
 1152SOL    HW3 4375   1.726   1.470   3.006  1.9409 -0.2526 -2.8576
 1152SOL    MW4 4376   1.750   1.552   3.024  0.5193 -0.2048 -0.9011
 1153SOL     OW 4377   3.624   5.333   1.370 -0.7702 -0.4714  0.4480
 1153SOL    HW2 4378   3.598   5.399   1.434 -1.8554 -2.6832  2.3949
 1153SOL    HW3 4379   3.543   5.290   1.344  0.1129 -2.7405  1.2030
 1153SOL    MW4 4380   3.610   5.336   1.375 -0.7969 -1.0626  0.8045
 1154SOL     OW 4381   2.862   3.715   5.943 -0.5160 -0.0980 -0.1986
 1154SOL    HW2 4382   2.955   3.698   5.931 -0.8226 -1.2214 -1.1992
 1154SOL    HW3 4383   2.844   3.795   5.893 -0.1962 -0.2024 -0.4798
 1154SOL    MW4 4384   2.872   3.723   5.935 -0.5142 -0.2600 -0.3677
 1155SOL     OW 4385   2.705   2.123   0.376 -0.1916 -0.3823 -0.4330
 1155SOL    HW2 4386   2.786   2.074   0.360 -0.5219 -1.1374  0.1451
 1155SOL    HW3 4387   2.709   2.197   0.315  1.7123  0.5167  0.6943
 1155SOL    MW4 4388   2.716   2.126   0.366  0.0160 -0.3633 -0.2080
 1156SOL     OW 4389   4.383   2.511   5.646 -0.2370  0.1561  0.1133
 1156SOL    HW2 4390   4.436   2.561   5.707 -1.7553  0.6116  1.0930
 1156SOL    HW3 4391   4.364   2.429   5.692 -0.7750  0.1941 -0.0357
 1156SOL    MW4 4392   4.388   2.506   5.660 -0.5083  0.2212  0.2229
 1157SOL     OW 4393   3.103   4.832   0.762 -0.5330  0.5337 -0.4171
 1157SOL    HW2 4394   3.008   4.816   0.764 -0.6370  1.0714 -0.9228
 1157SOL    HW3 4395   3.130   4.823   0.854 -1.0150  0.0508 -0.3151
 1157SOL    MW4 4396   3.094   4.829   0.775 -0.6103  0.5410 -0.4703
 1158SOL     OW 4397   3.470   0.194   0.651 -0.5600 -0.3827 -0.0415
 1158SOL    HW2 4398   3.380   0.160   0.654 -1.6725  2.3377  0.5852
 1158SOL    HW3 4399   3.490   0.214   0.743 -0.0138  0.6731 -0.3792
 1158SOL    MW4 4400   3.461   0.192   0.664 -0.6347  0.1155 -0.0034
 1159SOL     OW 4401   1.102   0.073   1.514 -0.6124 -0.0004 -0.1391
 1159SOL    HW2 4402   1.114  -0.016   1.481  0.9319  0.1652 -0.0981
 1159SOL    HW3 4403   1.166   0.126   1.465 -0.5479  0.8336  0.8140
 1159SOL    MW4 4404   1.112   0.068   1.503 -0.4001  0.1315 -0.0079
 1160SOL     OW 4405   3.284   5.578   1.502  0.6857 -0.1677  0.6818
 1160SOL    HW2 4406   3.249   5.499   1.460 -1.2267  0.5628  0.8093
 1160SOL    HW3 4407   3.350   5.610   1.441 -0.4979 -0.3374 -0.7619
 1160SOL    MW4 4408   3.288   5.572   1.489  0.2772 -0.0937  0.5081
 1161SOL     OW 4409   0.520   5.478   5.837 -0.2393 -0.2966  0.1990
 1161SOL    HW2 4410   0.521   5.422   5.914 -2.5477 -2.5527 -1.2484
 1161SOL    HW3 4411   0.556   5.423   5.767  1.3969  1.5411 -0.5048
 1161SOL    MW4 4412   0.525   5.463   5.838 -0.3280 -0.3518 -0.0848
 1162SOL     OW 4413   0.066   5.070   5.630  0.7570 -0.0948 -0.3411
 1162SOL    HW2 4414   0.110   4.995   5.590  0.3538 -0.3224 -0.3614
 1162SOL    HW3 4415   0.068   5.138   5.562 -0.9139 -0.8411 -1.1996
 1162SOL    MW4 4416   0.072   5.069   5.615  0.4834 -0.2233 -0.4571
 1163SOL     OW 4417   3.205   2.458   5.736 -0.1757 -0.3432  0.7558
 1163SOL    HW2 4418   3.218   2.380   5.682 -0.7060 -0.2290  0.4536
 1163SOL    HW3 4419   3.110   2.470   5.738 -0.2437 -0.9770  2.6295
 1163SOL    MW4 4420   3.194   2.449   5.729 -0.2547 -0.4117  0.9631
 1164SOL     OW 4421   5.317   1.667   5.492  0.0899 -0.2408 -0.5440
 1164SOL    HW2 4422   5.377   1.606   5.534  0.4288  0.1416 -0.4616
 1164SOL    HW3 4423   5.273   1.616   5.424 -2.3660 -1.5906  1.8948
 1164SOL    MW4 4424   5.319   1.652   5.488 -0.1894 -0.3685 -0.2114
 1165SOL     OW 4425   3.156   0.071   5.581 -0.1672  0.1672  0.0436
 1165SOL    HW2 4426   3.238   0.026   5.558 -1.5691 -2.3310 -0.4746
 1165SOL    HW3 4427   3.088   0.023   5.534 -1.9548  2.2550  0.3237
 1165SOL    MW4 4428   3.158   0.058   5.572 -0.5880  0.1130  0.0122
 1166SOL     OW 4429   1.468   1.793   1.878 -0.1622  0.1639  0.0842
 1166SOL    HW2 4430   1.540   1.831   1.929 -0.2498  0.5829 -0.0973
 1166SOL    HW3 4431   1.448   1.860   1.811 -0.8733  0.1596  0.2803
 1166SOL    MW4 4432   1.475   1.807   1.876 -0.2676  0.2186  0.0861
 1167SOL     OW 4433   3.127   0.909   3.390 -0.1012 -0.0504  0.5714
 1167SOL    HW2 4434   3.111   0.864   3.307  0.8134  0.7107 -0.0333
 1167SOL    HW3 4435   3.196   0.858   3.432 -1.1229 -0.9119  1.2690
 1167SOL    MW4 4436   3.134   0.896   3.385 -0.1153 -0.0637  0.5837
 1168SOL     OW 4437   5.373   1.553   3.450 -0.1967  0.0922 -0.5185
 1168SOL    HW2 4438   5.374   1.637   3.405 -0.6721 -0.5510 -1.7649
 1168SOL    HW3 4439   5.286   1.518   3.435 -0.9539  0.5257  2.2567
 1168SOL    MW4 4440   5.362   1.559   3.442 -0.3594  0.0646 -0.3168
 1169SOL     OW 4441   1.949   1.755   4.217  0.1109 -0.0576 -0.2882
 1169SOL    HW2 4442   2.004   1.815   4.267  0.3387 -0.4238 -0.0985
 1169SOL    HW3 4443   1.920   1.807   4.141  2.4242 -0.4620 -1.5470
 1169SOL    MW4 4444   1.952   1.770   4.213  0.4462 -0.1593 -0.4292
 1170SOL     OW 4445   2.767   0.505   6.402  0.0862 -0.0688 -0.1007
 1170SOL    HW2 4446   2.759   0.434   6.338  0.8410 -0.6755  0.4519
 1170SOL    HW3 4447   2.693   0.492   6.460 -0.1705  0.0153 -0.4086
 1170SOL    MW4 4448   2.757   0.494   6.401  0.1520 -0.1377 -0.0684
 1171SOL     OW 4449   1.393   0.363   5.035 -0.4607 -0.2216  0.5737
 1171SOL    HW2 4450   1.426   0.274   5.045 -1.1492 -0.4608  0.8018
 1171SOL    HW3 4451   1.471   0.416   5.019  0.0921 -0.6851  1.6059
 1171SOL    MW4 4452   1.408   0.358   5.034 -0.4786 -0.3143  0.7399
 1172SOL     OW 4453   0.394   3.185   6.115  0.4420  0.2558 -0.1862
 1172SOL    HW2 4454   0.305   3.178   6.150  1.1151  0.0451  1.5630
 1172SOL    HW3 4455   0.411   3.097   6.079  0.4552 -0.1436  0.7717
 1172SOL    MW4 4456   0.384   3.172   6.115  0.5326  0.1753  0.1710
 1173SOL     OW 4457   2.080   2.527   4.636  0.5648  0.2643  0.3543
 1173SOL    HW2 4458   2.144   2.582   4.680 -0.7104  2.8911 -0.8581
 1173SOL    HW3 4459   1.997   2.547   4.679  0.0632 -0.6908 -0.1357
 1173SOL    MW4 4460   2.077   2.537   4.647  0.3304  0.4848  0.1297
 1174SOL     OW 4461   4.294   0.073   2.999  0.0705  0.2739 -0.3562
 1174SOL    HW2 4462   4.250   0.002   2.953  0.1194  0.3039 -0.4505
 1174SOL    HW3 4463   4.387   0.052   2.992  0.1019  0.5022 -0.6424
 1174SOL    MW4 4464   4.301   0.061   2.992  0.0811  0.3080 -0.4064
 1175SOL     OW 4465   6.259   1.817   2.827  0.0518  0.2428 -0.2987
 1175SOL    HW2 4466   6.295   1.816   2.916 -0.6471  1.9490  0.0308
 1175SOL    HW3 4467   6.290   1.735   2.789  1.2391 -0.0431  1.1615
 1175SOL    MW4 4468   6.268   1.806   2.834  0.1162  0.4302 -0.0625
 1176SOL     OW 4469   3.533   6.066   5.817 -0.1836  0.7831  0.5429
 1176SOL    HW2 4470   3.580   6.053   5.900  0.2321 -0.5591  0.1273
 1176SOL    HW3 4471   3.600   6.054   5.750 -1.1059 -1.2602 -0.0655
 1176SOL    MW4 4472   3.548   6.063   5.819 -0.2504  0.3364  0.4078
 1177SOL     OW 4473   4.849   3.279   3.598 -0.8099  0.1819 -0.3535
 1177SOL    HW2 4474   4.833   3.345   3.666 -1.5610 -0.9589  0.6303
 1177SOL    HW3 4475   4.804   3.313   3.521  0.5395  1.7780 -0.4867
 1177SOL    MW4 4476   4.841   3.292   3.597 -0.7310  0.2420 -0.2413
 1178SOL     OW 4477   3.506   3.294   1.266 -0.0385 -0.4094 -0.4121
 1178SOL    HW2 4478   3.557   3.364   1.309  0.5963  0.4205 -2.3794
 1178SOL    HW3 4479   3.568   3.222   1.257 -0.2946 -0.7399  0.4050
 1178SOL    MW4 4480   3.521   3.294   1.270  0.0114 -0.3435 -0.5639
 1179SOL     OW 4481   0.938   3.804   5.197 -0.1151 -1.0612  0.0422
 1179SOL    HW2 4482   0.870   3.853   5.245  0.8191 -0.7271  1.0857
 1179SOL    HW3 4483   0.939   3.718   5.240  0.0338 -1.1030 -0.0471
 1179SOL    MW4 4484   0.929   3.799   5.209  0.0278 -1.0227  0.1681
 1180SOL     OW 4485   5.114   2.052   1.800 -0.5768  0.7128 -0.9098
 1180SOL    HW2 4486   5.087   1.966   1.767 -0.5432  0.4624 -0.2953
 1180SOL    HW3 4487   5.138   2.101   1.722  3.3723 -1.1395 -1.0863
 1180SOL    MW4 4488   5.114   2.047   1.785 -0.0513  0.4354 -0.8520
 1181SOL     OW 4489   0.416   4.960   1.528 -0.1856 -0.1393  0.1221
 1181SOL    HW2 4490   0.330   4.953   1.568 -0.1071  1.2168  0.5682
 1181SOL    HW3 4491   0.399   4.989   1.438 -0.2508 -1.2318 -0.2343
 1181SOL    MW4 4492   0.403   4.963   1.521 -0.1839 -0.1045  0.1339
 1182SOL     OW 4493   6.217   2.795   0.069 -0.6656 -0.0871 -0.0635
 1182SOL    HW2 4494   6.244   2.883   0.040  0.2165 -0.6894 -1.1709
 1182SOL    HW3 4495   6.273   2.777   0.144 -0.4973  0.1059 -0.1388
 1182SOL    MW4 4496   6.228   2.805   0.075 -0.5270 -0.1411 -0.2196
 1183SOL     OW 4497   2.672   4.324   3.180  0.5043  0.0342  0.3558
 1183SOL    HW2 4498   2.671   4.414   3.146  0.7831 -0.3241 -0.6300
 1183SOL    HW3 4499   2.761   4.294   3.167  0.0489 -0.9020 -0.7288
 1183SOL    MW4 4500   2.683   4.332   3.174  0.4810 -0.1366  0.0826
 1184SOL     OW 4501   5.665   3.689   1.861  0.0928  0.1419 -0.0111
 1184SOL    HW2 4502   5.653   3.729   1.947  2.4379 -0.7694  0.8043
 1184SOL    HW3 4503   5.712   3.755   1.810  0.3875 -0.0418  0.0236
 1184SOL    MW4 4504   5.669   3.703   1.866  0.4411 -0.0026  0.1010
 1185SOL     OW 4505   3.488   4.440   0.607 -0.0134 -0.7270 -0.1773
 1185SOL    HW2 4506   3.462   4.474   0.521 -0.6855 -0.3944  0.1524
 1185SOL    HW3 4507   3.468   4.346   0.602 -1.8345 -0.4074  0.2428
 1185SOL    MW4 4508   3.482   4.432   0.595 -0.3423 -0.6409 -0.0784
 1186SOL     OW 4509   0.886   1.683   4.174 -0.4426 -0.4781 -0.4268
 1186SOL    HW2 4510   0.955   1.619   4.191 -0.6803 -1.1653 -1.9349
 1186SOL    HW3 4511   0.843   1.694   4.259 -0.4619 -2.4170 -0.1200
 1186SOL    MW4 4512   0.889   1.676   4.188 -0.4765 -0.8246 -0.5853
 1187SOL     OW 4513   3.850   3.704   0.609 -0.3855 -0.0803 -0.5270
 1187SOL    HW2 4514   3.874   3.686   0.700  0.6796  1.3652 -0.4942
 1187SOL    HW3 4515   3.867   3.798   0.598 -1.2288 -0.0779 -2.0055
 1187SOL    MW4 4516   3.856   3.714   0.620 -0.3562  0.1107 -0.7177
 1188SOL     OW 4517   2.777   5.710   1.768  0.3672  0.5249 -0.0070
 1188SOL    HW2 4518   2.859   5.709   1.818  1.3605 -3.7613 -1.3389
 1188SOL    HW3 4519   2.711   5.676   1.829  0.5111 -0.0171 -0.1501
 1188SOL    MW4 4520   2.779   5.706   1.783  0.5173 -0.1121 -0.2016
 1189SOL     OW 4521   5.633   1.212   4.423  0.2312  0.2534 -0.0220
 1189SOL    HW2 4522   5.705   1.272   4.442  0.3307 -0.1034  0.7609
 1189SOL    HW3 4523   5.673   1.125   4.422  0.4260  0.3073 -2.9281
 1189SOL    MW4 4524   5.647   1.208   4.426  0.2700  0.2135 -0.3021
 1190SOL     OW 4525   1.935   0.349   0.710 -0.3913  0.1562 -0.7394
 1190SOL    HW2 4526   1.855   0.302   0.685 -0.9812  0.6760  0.1049
 1190SOL    HW3 4527   1.973   0.295   0.780 -0.6902  0.5497 -0.2636
 1190SOL    MW4 4528   1.930   0.336   0.716 -0.5085  0.2767 -0.5652
 1191SOL     OW 4529   5.093   1.340   0.515 -0.1066  0.3169  0.1135
 1191SOL    HW2 4530   5.025   1.309   0.455  0.4690  1.5877 -1.2832
 1191SOL    HW3 4531   5.051   1.343   0.600 -1.2614 -0.6117 -0.4003
 1191SOL    MW4 4532   5.079   1.336   0.518 -0.1830  0.3620 -0.1386
 1192SOL     OW 4533   1.806   5.165   2.818  0.2458  0.2325 -0.3947
 1192SOL    HW2 4534   1.770   5.112   2.747 -1.6126  0.2094  0.5291
 1192SOL    HW3 4535   1.762   5.250   2.810 -0.0842  0.1876  0.8128
 1192SOL    MW4 4536   1.796   5.169   2.807 -0.0429  0.2235 -0.1135
 1193SOL     OW 4537   3.427   2.613   3.716 -0.0010  0.0698  0.1026
 1193SOL    HW2 4538   3.348   2.599   3.767 -1.5075 -0.7308 -2.3007
 1193SOL    HW3 4539   3.486   2.543   3.743 -0.6868 -0.2274  0.8581
 1193SOL    MW4 4540   3.425   2.602   3.726 -0.2903 -0.0750 -0.1148
 1194SOL     OW 4541   1.744   1.223   4.633  0.1968 -0.2341  0.3484
 1194SOL    HW2 4542   1.703   1.287   4.692 -0.1310  0.0829 -0.2154
 1194SOL    HW3 4543   1.829   1.205   4.673  1.5652  2.7187 -0.9113
 1194SOL    MW4 4544   1.750   1.229   4.646  0.3341  0.1973  0.1079
 1195SOL     OW 4545   6.062   6.083   3.849 -0.2808 -0.1036  0.1121
 1195SOL    HW2 4546   5.975   6.044   3.837 -0.6052  0.7492 -0.4816
 1195SOL    HW3 4547   6.104   6.029   3.916 -1.9330  0.5004  1.7328
 1195SOL    MW4 4548   6.056   6.071   3.856 -0.5416  0.0886  0.2476
 1196SOL     OW 4549   5.049   6.176   0.409  0.5357  0.3558  0.3058
 1196SOL    HW2 4550   5.089   6.142   0.328  0.3267 -0.7375  0.6397
 1196SOL    HW3 4551   5.077   6.114   0.476  0.1339  0.8650  0.9498
 1196SOL    MW4 4552   5.058   6.163   0.407  0.4551  0.2787  0.4348
 1197SOL     OW 4553   5.431   1.497   1.924 -0.9047  0.1929 -0.3325
 1197SOL    HW2 4554   5.448   1.582   1.964  2.0987 -0.3786 -0.1632
 1197SOL    HW3 4555   5.472   1.434   1.983  0.6037 -0.9785 -2.4830
 1197SOL    MW4 4556   5.438   1.500   1.937 -0.3094 -0.0370 -0.5939
 1198SOL     OW 4557   0.804   1.528   0.878  0.8209  0.3343 -0.8612
 1198SOL    HW2 4558   0.875   1.465   0.868 -0.0595 -0.8677  0.0558
 1198SOL    HW3 4559   0.820   1.570   0.962 -0.3648 -1.0993  0.1355
 1198SOL    MW4 4560   0.815   1.525   0.888  0.5483 -0.0135 -0.6087
 1199SOL     OW 4561   1.908   3.180   1.838  0.2097 -0.2685  0.0637
 1199SOL    HW2 4562   1.896   3.216   1.750  1.1763 -0.8385 -0.3197
 1199SOL    HW3 4563   2.000   3.198   1.858 -0.0584  0.0336  1.0488
 1199SOL    MW4 4564   1.919   3.187   1.829  0.3019 -0.3038  0.1431
 1200SOL     OW 4565   3.681   1.630   3.379 -0.1748 -1.0022 -0.4504
 1200SOL    HW2 4566   3.686   1.657   3.471  0.0761 -0.8892 -0.4977
 1200SOL    HW3 4567   3.693   1.711   3.329  2.6772 -1.4285 -0.6369
 1200SOL    MW4 4568   3.683   1.645   3.385  0.2346 -1.0435 -0.4812
 1201SOL     OW 4569   5.784   2.450   3.862 -0.1610  0.4450 -0.3423
 1201SOL    HW2 4570   5.778   2.414   3.774 -0.5317 -2.0279  0.6220
 1201SOL    HW3 4571   5.698   2.492   3.876 -0.9009 -0.9699 -0.4540
 1201SOL    MW4 4572   5.772   2.451   3.852 -0.3075 -0.0680 -0.2298
 1202SOL     OW 4573   0.286   5.619   1.061  0.4758 -0.4651 -0.6527
 1202SOL    HW2 4574   0.257   5.579   1.143 -0.2667  0.9085 -0.2060
 1202SOL    HW3 4575   0.308   5.709   1.085 -0.8126  0.2964 -2.1568
 1202SOL    MW4 4576   0.285   5.626   1.075  0.2078 -0.1834 -0.7922
 1203SOL     OW 4577   1.149   1.905   6.098  0.4892  0.1502 -0.1751
 1203SOL    HW2 4578   1.169   1.951   6.016  0.4618  2.4002  0.9880
 1203SOL    HW3 4579   1.111   1.822   6.071 -0.2561  1.1517 -2.4613
 1203SOL    MW4 4580   1.147   1.900   6.084  0.3872  0.5792 -0.3233
 1204SOL     OW 4581   3.338   3.149   1.900 -0.2671  0.7121  0.5142
 1204SOL    HW2 4582   3.260   3.173   1.850 -0.1955  0.1040  0.0966
 1204SOL    HW3 4583   3.411   3.178   1.846 -0.1942  0.4712  0.4830
 1204SOL    MW4 4584   3.337   3.156   1.886 -0.2481  0.6001  0.4550
 1205SOL     OW 4585   4.243   1.340   2.009  0.3257  0.6981 -0.2901
 1205SOL    HW2 4586   4.153   1.358   2.035 -0.3536 -2.6372  0.0863
 1205SOL    HW3 4587   4.292   1.338   2.092  0.2225  0.0744 -0.2398
 1205SOL    MW4 4588   4.238   1.343   2.024  0.2224  0.1758 -0.2338
 1206SOL     OW 4589   6.065   0.729   3.587 -0.5531 -0.6624  0.0976
 1206SOL    HW2 4590   6.065   0.638   3.558  0.4177 -0.9340  0.8867
 1206SOL    HW3 4591   6.049   0.780   3.507  1.9102 -1.3794 -0.9236
 1206SOL    MW4 4592   6.063   0.724   3.573 -0.1000 -0.7929  0.0670
 1207SOL     OW 4593   5.173   2.335   4.973 -0.4424 -0.6130 -0.7627
 1207SOL    HW2 4594   5.179   2.246   4.938  0.8583 -0.5600 -0.7112
 1207SOL    HW3 4595   5.258   2.350   5.015 -0.9171  0.3897 -0.1297
 1207SOL    MW4 4596   5.185   2.325   4.974 -0.3334 -0.4738 -0.6724
 1208SOL     OW 4597   1.249   0.369   2.552  0.3196  0.3713 -0.0654
 1208SOL    HW2 4598   1.322   0.324   2.594 -1.1828 -1.1865  1.0639
 1208SOL    HW3 4599   1.192   0.299   2.521 -0.0923  1.5227 -2.1367
 1208SOL    MW4 4600   1.251   0.354   2.554  0.0671  0.3176 -0.1897
 1209SOL     OW 4601   1.129   0.393   0.423 -0.0147 -0.4668 -0.0558
 1209SOL    HW2 4602   1.045   0.393   0.470 -0.0470 -1.9640 -0.0765
 1209SOL    HW3 4603   1.106   0.371   0.333  0.5887 -3.3252  0.4075
 1209SOL    MW4 4604   1.115   0.390   0.418  0.0606 -1.0414  0.0026
 1210SOL     OW 4605   2.359   5.241   3.954  0.3016 -0.3754  0.4763
 1210SOL    HW2 4606   2.357   5.332   3.986  1.7834 -1.0906  2.8848
 1210SOL    HW3 4607   2.267   5.216   3.948 -0.1095  0.9605  0.7821
 1210SOL    MW4 4608   2.346   5.250   3.957  0.4429 -0.2935  0.8344
 1211SOL     OW 4609   6.171   4.645   3.131 -0.5769 -0.1294  0.5926
 1211SOL    HW2 4610   6.176   4.740   3.121 -0.8725 -0.2909 -1.5239
 1211SOL    HW3 4611   6.258   4.619   3.161  1.1661  0.4176 -3.3234
 1211SOL    MW4 4612   6.183   4.654   3.133 -0.3860 -0.0785 -0.2033
 1212SOL     OW 4613   0.097   2.404   6.418 -1.2697 -0.1347  0.3144
 1212SOL    HW2 4614   0.115   2.422   6.511  1.9223 -1.2236  0.0228
 1212SOL    HW3 4615   0.091   2.491   6.378 -1.5361  0.3409  1.3618
 1212SOL    MW4 4616   0.099   2.418   6.425 -0.8837 -0.2156  0.4141
 1213SOL     OW 4617   3.241   1.470   5.079  0.4347 -0.0325 -0.0758
 1213SOL    HW2 4618   3.280   1.410   5.016  1.5972  0.1334  0.4569
 1213SOL    HW3 4619   3.194   1.414   5.140  0.0605 -0.2587 -0.5636
 1213SOL    MW4 4620   3.240   1.455   5.078  0.5387 -0.0404 -0.0699
 1214SOL     OW 4621   3.012   3.504   2.381 -0.1037 -0.4426  0.1902
 1214SOL    HW2 4622   2.935   3.458   2.347 -0.8528  0.8080  0.1285
 1214SOL    HW3 4623   3.060   3.531   2.303  0.5792 -1.4840  0.2331
 1214SOL    MW4 4624   3.008   3.501   2.366 -0.1124 -0.4150  0.1877
 1215SOL     OW 4625   1.195   4.227   3.318  0.0405  0.0513 -0.4506
 1215SOL    HW2 4626   1.273   4.205   3.266 -0.5178 -0.3051 -1.1497
 1215SOL    HW3 4627   1.139   4.277   3.258 -0.4656 -0.0765 -0.0896
 1215SOL    MW4 4628   1.198   4.231   3.303 -0.1000 -0.0126 -0.4952
 1216SOL     OW 4629   4.687   2.361   3.788 -0.0712 -0.3402 -0.2245
 1216SOL    HW2 4630   4.598   2.367   3.753  0.1300  1.8301 -0.5262
 1216SOL    HW3 4631   4.683   2.291   3.852 -1.8671 -0.6340 -0.6018
 1216SOL    MW4 4632   4.675   2.352   3.792 -0.2816 -0.0927 -0.3141
 1217SOL     OW 4633   5.980   3.231   2.369  1.0192 -0.3097 -0.9401
 1217SOL    HW2 4634   6.056   3.285   2.395 -1.4633  2.9802  0.1985
 1217SOL    HW3 4635   5.958   3.263   2.282 -1.8773  2.5456  0.6333
 1217SOL    MW4 4636   5.987   3.243   2.361  0.3095  0.5011 -0.5823
 1218SOL     OW 4637   2.747   0.262   4.965  0.0114  0.1299  0.0147
 1218SOL    HW2 4638   2.835   0.278   4.999  0.3709  0.7973 -1.1560
 1218SOL    HW3 4639   2.754   0.178   4.920 -0.2543 -0.3592  0.8649
 1218SOL    MW4 4640   2.760   0.253   4.964  0.0238  0.1534 -0.0276
 1219SOL     OW 4641   0.048   0.340   0.874  0.5009 -0.6579 -0.3674
 1219SOL    HW2 4642   0.116   0.361   0.939  0.6032 -0.5346 -0.5128
 1219SOL    HW3 4643   0.095   0.336   0.791  0.2828 -0.2771 -0.5128
 1219SOL    MW4 4644   0.063   0.343   0.871  0.4856 -0.5914 -0.4058
 1220SOL     OW 4645   2.673   0.901   2.617  0.0570  0.3172  0.7030
 1220SOL    HW2 4646   2.646   0.874   2.529  0.9647  1.7303 -0.0426
 1220SOL    HW3 4647   2.689   0.819   2.664  1.0239 -0.4497 -0.9075
 1220SOL    MW4 4648   2.671   0.887   2.612  0.3043  0.4025  0.3922
 1221SOL     OW 4649   2.849   3.260   3.737 -0.2525 -0.3678 -0.2072
 1221SOL    HW2 4650   2.933   3.300   3.761  0.5811 -3.0900  1.9389
 1221SOL    HW3 4651   2.862   3.229   3.648 -0.3796  2.4542 -1.3266
 1221SOL    MW4 4652   2.862   3.261   3.729 -0.1593 -0.3547 -0.0717
 1222SOL     OW 4653   2.448   4.182   6.133  0.0739  0.5395  0.4257
 1222SOL    HW2 4654   2.408   4.161   6.218 -0.2157  0.9213  0.3893
 1222SOL    HW3 4655   2.523   4.124   6.126  0.1233  0.5394  0.9656
 1222SOL    MW4 4656   2.452   4.172   6.143  0.0422  0.5899  0.4922
 1223SOL     OW 4657   3.415   0.285   5.729 -0.0958  0.0362  0.0995
 1223SOL    HW2 4658   3.448   0.366   5.769  0.5213  0.1974 -0.7296
 1223SOL    HW3 4659   3.321   0.301   5.719  0.2396  1.3012 -1.4953
 1223SOL    MW4 4660   3.407   0.298   5.733  0.0299  0.2244 -0.2203
 1224SOL     OW 4661   4.434   6.119   1.633 -0.1288  0.2764 -0.5051
 1224SOL    HW2 4662   4.428   6.051   1.565  0.0167  0.4886 -0.7314
 1224SOL    HW3 4663   4.408   6.074   1.714  0.0904 -0.0834 -0.6299
 1224SOL    MW4 4664   4.430   6.104   1.635 -0.0807  0.2569 -0.5515
 1225SOL     OW 4665   0.159   5.310   1.536 -0.7473  0.2792 -0.0712
 1225SOL    HW2 4666   0.161   5.293   1.442  1.2761  2.1228 -0.4517
 1225SOL    HW3 4667   0.083   5.367   1.549 -0.8127  0.3230 -0.6363
 1225SOL    MW4 4668   0.149   5.315   1.525 -0.4890  0.5282 -0.1960
 1226SOL     OW 4669   4.892   4.067   3.360 -0.3075 -0.0509  0.6637
 1226SOL    HW2 4670   4.985   4.076   3.378 -0.2151  0.2680  0.0810
 1226SOL    HW3 4671   4.849   4.117   3.429 -0.0785 -0.7249  1.2990
 1226SOL    MW4 4672   4.898   4.075   3.371 -0.2651 -0.0977  0.6706
 1227SOL     OW 4673   5.355   5.137   1.412  0.5083  0.0298  0.1370
 1227SOL    HW2 4674   5.348   5.232   1.405 -1.8489 -0.0386  0.6597
 1227SOL    HW3 4675   5.289   5.113   1.477  1.3618 -1.9371  0.3504
 1227SOL    MW4 4676   5.345   5.146   1.420  0.3099 -0.2388  0.2341
 1228SOL     OW 4677   1.916   5.143   3.324 -0.1568  0.0239  0.1609
 1228SOL    HW2 4678   2.011   5.141   3.339  0.1941 -1.2858 -1.7665
 1228SOL    HW3 4679   1.905   5.196   3.245 -1.2197  1.4552  1.2261
 1228SOL    MW4 4680   1.927   5.150   3.315 -0.2507  0.0400  0.0472
 1229SOL     OW 4681   0.381   3.995   2.268 -0.1412 -0.1971 -0.2209
 1229SOL    HW2 4682   0.396   3.901   2.259  0.8228 -0.0846  0.1064
 1229SOL    HW3 4683   0.423   4.034   2.191  0.5147  0.0602  0.2624
 1229SOL    MW4 4684   0.388   3.988   2.256  0.0725 -0.1483 -0.1140
 1230SOL     OW 4685   3.496   1.214   3.020 -0.0519 -0.2370  0.0405
 1230SOL    HW2 4686   3.574   1.242   2.972 -0.7136  0.4326 -0.6763
 1230SOL    HW3 4687   3.471   1.292   3.071  0.2063 -0.7034  0.9011
 1230SOL    MW4 4688   3.503   1.228   3.020 -0.1052 -0.2102  0.0594
 1231SOL     OW 4689   1.723   6.302   0.155 -0.0357 -0.5077  0.0924
 1231SOL    HW2 4690   1.648   6.251   0.126 -0.3539  0.8463 -1.6589
 1231SOL    HW3 4691   1.799   6.253   0.124 -0.3044 -0.5237 -0.5682
 1231SOL    MW4 4692   1.723   6.289   0.147 -0.1132 -0.3311 -0.2259
 1232SOL     OW 4693   0.404   5.807   1.812  0.1906  0.1230  0.0950
 1232SOL    HW2 4694   0.446   5.721   1.802 -0.3491 -0.2116  0.6900
 1232SOL    HW3 4695   0.426   5.834   1.901  0.0510  0.4380  0.0337
 1232SOL    MW4 4696   0.413   5.799   1.822  0.1010  0.1204  0.1654
 1233SOL     OW 4697   4.696   1.856   5.541 -0.0585 -0.0934 -0.4010
 1233SOL    HW2 4698   4.632   1.849   5.613  1.9501 -1.2445  1.3799
 1233SOL    HW3 4699   4.718   1.949   5.538  0.9460 -0.2182  1.5761
 1233SOL    MW4 4700   4.690   1.868   5.550  0.3390 -0.2617  0.0949
 1234SOL     OW 4701   3.782   5.874   2.362 -0.0693 -0.0717 -0.2650
 1234SOL    HW2 4702   3.801   5.865   2.269 -3.0968  1.4729 -1.1419
 1234SOL    HW3 4703   3.696   5.834   2.374 -0.6226  1.4704  1.4480
 1234SOL    MW4 4704   3.773   5.867   2.351 -0.5417  0.3356 -0.1547
 1235SOL     OW 4705   0.337   4.496   4.655 -0.5044  0.1404 -0.4363
 1235SOL    HW2 4706   0.364   4.482   4.564  0.1393 -0.6301 -0.1314
 1235SOL    HW3 4707   0.339   4.409   4.694 -1.4886  0.3642  0.1313
 1235SOL    MW4 4708   0.341   4.483   4.648 -0.5493  0.0683 -0.3212
 1236SOL     OW 4709   5.112   3.540   3.165  0.4493 -0.1189 -0.2031
 1236SOL    HW2 4710   5.114   3.635   3.180  0.7672 -0.1958  0.2550
 1236SOL    HW3 4711   5.204   3.516   3.153  0.2472 -0.0708 -2.3343
 1236SOL    MW4 4712   5.124   3.549   3.165  0.4646 -0.1227 -0.4238
 1237SOL     OW 4713   6.078   4.954   6.370  0.4103  0.2935  0.3117
 1237SOL    HW2 4714   6.137   4.886   6.403  1.4135  1.6021  1.3387
 1237SOL    HW3 4715   6.133   5.033   6.366 -0.9040  1.2173 -0.1476
 1237SOL    MW4 4716   6.093   4.956   6.374  0.3692  0.5880  0.3866
 1238SOL     OW 4717   3.896   4.074   0.065  0.2123  0.2487  0.2467
 1238SOL    HW2 4718   3.803   4.069   0.084  0.4846  0.0989  1.6241
 1238SOL    HW3 4719   3.905   4.145   0.002 -0.8511  0.0868 -0.0968
 1238SOL    MW4 4720   3.885   4.082   0.059  0.1079  0.2076  0.3831
 1239SOL     OW 4721   0.117   0.453   5.344 -0.6843  0.4791  0.1827
 1239SOL    HW2 4722   0.064   0.428   5.420  0.7476  0.5508  1.2407
 1239SOL    HW3 4723   0.152   0.539   5.366  0.7535 -0.0265  0.0183
 1239SOL    MW4 4724   0.115   0.461   5.357 -0.3057  0.4218  0.3006
 1240SOL     OW 4725   3.225   3.635   2.813 -0.4822  0.1264  0.4314
 1240SOL    HW2 4726   3.186   3.585   2.741  0.1181  0.2676  0.0087
 1240SOL    HW3 4727   3.250   3.568   2.877 -0.5511 -0.0387  0.2866
 1240SOL    MW4 4728   3.223   3.619   2.812 -0.4121  0.1233  0.3565
 1241SOL     OW 4729   3.619   1.431   5.707 -0.2362 -0.0794 -0.0882
 1241SOL    HW2 4730   3.534   1.465   5.736 -0.2069 -0.5033  0.5088
 1241SOL    HW3 4731   3.609   1.421   5.612 -0.2028  1.6728 -0.3091
 1241SOL    MW4 4732   3.606   1.434   5.698 -0.2279  0.0959 -0.0386
 1242SOL     OW 4733   5.432   4.421   3.993  0.4986 -0.1178 -0.3251
 1242SOL    HW2 4734   5.424   4.336   4.037  0.1240  0.8215  1.5216
 1242SOL    HW3 4735   5.526   4.432   3.980  0.6012 -0.5020  0.0637
 1242SOL    MW4 4736   5.443   4.411   3.997  0.4627 -0.0445 -0.0302
 1243SOL     OW 4737   5.212   1.939   0.426 -0.3340  0.0486  0.7701
 1243SOL    HW2 4738   5.143   1.922   0.489 -1.3646  0.8442 -0.1101
 1243SOL    HW3 4739   5.289   1.958   0.479 -0.8108 -0.7374  1.7694
 1243SOL    MW4 4740   5.213   1.939   0.441 -0.5329  0.0499  0.7858
 1244SOL     OW 4741   5.153   3.737   2.529 -0.3743  0.4609 -0.5211
 1244SOL    HW2 4742   5.148   3.677   2.603 -1.1074 -1.0930 -1.7776
 1244SOL    HW3 4743   5.247   3.739   2.507 -0.3842 -0.5062 -0.6801
 1244SOL    MW4 4744   5.165   3.729   2.536 -0.4723  0.1283 -0.7079
 1245SOL     OW 4745   1.866   4.009   5.817  0.9906  0.1949  0.0551
 1245SOL    HW2 4746   1.834   4.008   5.908  1.5936 -1.4437  0.2708
 1245SOL    HW3 4747   1.837   3.926   5.780  1.8186  0.3019 -0.8808
 1245SOL    MW4 4748   1.858   3.998   5.824  1.1794 -0.0072 -0.0400
 1246SOL     OW 4749   1.581   0.949   1.200 -0.0879 -0.0014  0.1124
 1246SOL    HW2 4750   1.641   0.955   1.126  0.0208 -1.5894  0.0436
 1246SOL    HW3 4751   1.621   0.885   1.258 -0.2149  1.1654  1.5274
 1246SOL    MW4 4752   1.594   0.942   1.198 -0.0903 -0.0570  0.2900
 1247SOL     OW 4753   1.942   2.715   1.945  0.5314 -0.4435  0.1095
 1247SOL    HW2 4754   1.979   2.655   2.009  1.6346  0.0103 -0.0934
 1247SOL    HW3 4755   1.874   2.663   1.901  1.3472 -1.5067  0.0487
 1247SOL    MW4 4756   1.938   2.700   1.947  0.7846 -0.5239  0.0747
 1248SOL     OW 4757   4.304   1.572   1.849 -0.4190  0.0405 -0.0144
 1248SOL    HW2 4758   4.303   1.485   1.887 -1.1088 -0.4985 -1.2132
 1248SOL    HW3 4759   4.388   1.577   1.803 -0.0141  0.3334  0.7361
 1248SOL    MW4 4760   4.315   1.561   1.848 -0.4566  0.0080 -0.0735
 1249SOL     OW 4761   6.382   2.381   5.788 -0.3415 -0.3030 -0.0937
 1249SOL    HW2 4762   6.404   2.448   5.853  1.0899 -0.2317 -0.6191
 1249SOL    HW3 4763   6.287   2.372   5.794 -0.6641  2.1920 -0.4035
 1249SOL    MW4 4764   6.372   2.389   5.797 -0.1952  0.0356 -0.2039
 1250SOL     OW 4765   1.966   2.585   0.332  0.4787  0.7313 -0.4987
 1250SOL    HW2 4766   1.930   2.527   0.400  1.3443 -1.8327 -2.1064
 1250SOL    HW3 4767   1.901   2.655   0.324 -0.3055  0.3922  1.9881
 1250SOL    MW4 4768   1.952   2.586   0.340  0.4894  0.3483 -0.3827
 1251SOL     OW 4769   0.256   3.196   4.931  0.2383  0.2628  0.4958
 1251SOL    HW2 4770   0.291   3.247   5.004  0.6592 -1.4624  1.5517
 1251SOL    HW3 4771   0.333   3.156   4.891 -0.1518 -0.2422  0.2334
 1251SOL    MW4 4772   0.271   3.197   4.935  0.2424 -0.0314  0.6005
 1252SOL     OW 4773   6.412   3.522   6.208 -0.6929  0.1435  0.0674
 1252SOL    HW2 4774   6.386   3.432   6.229 -0.1128 -0.0173  0.1023
 1252SOL    HW3 4775   6.390   3.572   6.287 -1.4233  0.1216 -0.1124
 1252SOL    MW4 4776   6.406   3.517   6.221 -0.7127  0.1194  0.0483
 1253SOL     OW 4777   3.378   0.764   5.685 -0.0346 -0.3639  0.5808
 1253SOL    HW2 4778   3.436   0.691   5.708 -0.6036 -0.3791  2.0448
 1253SOL    HW3 4779   3.404   0.835   5.744 -2.4750 -0.8525  2.3602
 1253SOL    MW4 4780   3.389   0.764   5.696 -0.4316 -0.4303  1.0087
 1254SOL     OW 4781   0.643   1.407   5.010 -0.1077 -0.1342 -0.6646
 1254SOL    HW2 4782   0.616   1.394   5.101 -0.9209 -0.1587 -0.8960
 1254SOL    HW3 4783   0.729   1.449   5.015 -0.5023  0.6066  0.1201
 1254SOL    MW4 4784   0.651   1.411   5.023 -0.2671 -0.0397 -0.5916
 1255SOL     OW 4785   6.235   2.846   1.936 -0.2431  0.2253  0.3020
 1255SOL    HW2 4786   6.170   2.804   1.879 -0.4223  1.0938 -0.1534
 1255SOL    HW3 4787   6.265   2.921   1.887  0.2577  0.4961  1.0020
 1255SOL    MW4 4788   6.230   2.850   1.922 -0.2007  0.3756  0.3342
 1256SOL     OW 4789   0.105   4.645   0.737 -0.2154 -0.5044  0.4233
 1256SOL    HW2 4790   0.064   4.561   0.758  0.3815 -0.6495  1.0541
 1256SOL    HW3 4791   0.177   4.652   0.799  1.4652 -0.8167 -1.3853
 1256SOL    MW4 4792   0.109   4.635   0.748  0.0851 -0.5648  0.2679
 1257SOL     OW 4793   4.161   2.198   3.712  0.1134  0.2816 -0.1610
 1257SOL    HW2 4794   4.181   2.105   3.706  1.4165  0.5728 -0.5389
 1257SOL    HW3 4795   4.128   2.209   3.801 -0.6382 -0.6298 -0.3060
 1257SOL    MW4 4796   4.159   2.187   3.723  0.1861  0.1998 -0.2300
 1258SOL     OW 4797   5.457   0.530   3.092  0.1345  0.0335  0.2565
 1258SOL    HW2 4798   5.408   0.450   3.074 -0.8736  0.9507 -1.3005
 1258SOL    HW3 4799   5.449   0.582   3.012  2.6227  0.7819  0.4028
 1258SOL    MW4 4800   5.449   0.527   3.079  0.3298  0.2532  0.0704
 1259SOL     OW 4801   3.607   4.655   2.540  0.0521  0.0333  0.3473
 1259SOL    HW2 4802   3.512   4.667   2.546 -0.6746 -3.8669 -0.5329
 1259SOL    HW3 4803   3.637   4.656   2.631 -1.0578 -0.0755  0.7320
 1259SOL    MW4 4804   3.599   4.657   2.553 -0.1902 -0.4957  0.2819
 1260SOL     OW 4805   3.446   2.892   3.982  0.4463  0.3639  0.4216
 1260SOL    HW2 4806   3.522   2.950   3.992  0.4190  0.5294 -0.2628
 1260SOL    HW3 4807   3.407   2.888   4.069  1.0225  0.5796  0.6954
 1260SOL    MW4 4808   3.451   2.899   3.995  0.5187  0.4142  0.3674
 1261SOL     OW 4809   1.063   5.642   3.425 -0.5626 -0.5512  0.0662
 1261SOL    HW2 4810   1.075   5.558   3.380 -1.3450 -0.5629 -0.1307
 1261SOL    HW3 4811   1.040   5.704   3.356 -0.7448 -0.3392  0.3156
 1261SOL    MW4 4812   1.062   5.639   3.410 -0.6898 -0.5248  0.0731
 1262SOL     OW 4813   2.634   4.984   2.812  0.4686  0.1170 -0.0130
 1262SOL    HW2 4814   2.548   4.974   2.772  0.4028 -0.6652  0.3086
 1262SOL    HW3 4815   2.695   4.989   2.738  0.0022  2.5778 -0.3181
 1262SOL    MW4 4816   2.631   4.983   2.797  0.3984  0.3384 -0.0108
 1263SOL     OW 4817   5.537   4.030   1.872  0.6937 -0.1247 -0.5837
 1263SOL    HW2 4818   5.580   4.065   1.794 -0.9428 -1.6145 -2.2530
 1263SOL    HW3 4819   5.608   4.015   1.934  1.8449  2.7626 -1.0483
 1263SOL    MW4 4820   5.552   4.032   1.870  0.6297  0.0596 -0.8652
 1264SOL     OW 4821   2.410   3.908   1.318  0.5353  0.5824  0.8140
 1264SOL    HW2 4822   2.409   3.933   1.410 -3.0663  2.4902  0.4459
 1264SOL    HW3 4823   2.409   3.991   1.270 -1.0150 -0.2903 -0.8001
 1264SOL    MW4 4824   2.410   3.922   1.323 -0.1444  0.7190  0.5525
 1265SOL     OW 4825   3.909   4.755   5.261  0.2684  0.0485 -0.1086
 1265SOL    HW2 4826   3.997   4.749   5.223  1.3453  0.5714  2.1271
 1265SOL    HW3 4827   3.879   4.843   5.238  2.7141  2.1197  3.5786
 1265SOL    MW4 4828   3.917   4.766   5.253  0.7331  0.3908  0.6729
 1266SOL     OW 4829   3.357   3.494   2.569 -0.0389  0.4348 -0.5365
 1266SOL    HW2 4830   3.325   3.418   2.520 -0.9705  0.5145 -0.0871
 1266SOL    HW3 4831   3.414   3.457   2.636 -0.9394  0.0584  0.0421
 1266SOL    MW4 4832   3.360   3.479   2.571 -0.2806  0.3956 -0.4008
 1267SOL     OW 4833   2.349   0.462   6.181  0.8658 -0.5250  0.3948
 1267SOL    HW2 4834   2.405   0.465   6.103  0.3513 -0.5450  0.0121
 1267SOL    HW3 4835   2.264   0.434   6.147  0.4214  0.2504  0.8400
 1267SOL    MW4 4836   2.345   0.458   6.166  0.7392 -0.4253  0.4030
 1268SOL     OW 4837   3.047   0.426   4.372 -0.0516 -0.1795 -0.1814
 1268SOL    HW2 4838   3.054   0.516   4.404 -0.7557 -0.1428 -0.1019
 1268SOL    HW3 4839   2.985   0.384   4.432  0.2657 -0.7165 -0.2243
 1268SOL    MW4 4840   3.040   0.432   4.384 -0.1026 -0.2455 -0.1766
 1269SOL     OW 4841   4.962   3.961   4.126  0.0303  0.2857 -0.1059
 1269SOL    HW2 4842   4.930   4.036   4.077 -0.8692 -0.1796 -0.2448
 1269SOL    HW3 4843   4.963   3.889   4.062 -0.4555 -0.1527  0.3747
 1269SOL    MW4 4844   4.958   3.961   4.111 -0.1525  0.1665 -0.0608
 1270SOL     OW 4845   4.426   5.811   1.050 -0.0538 -0.5784 -0.0469
 1270SOL    HW2 4846   4.418   5.893   1.098 -0.4526 -1.9949  2.4984
 1270SOL    HW3 4847   4.498   5.826   0.989 -0.8969  2.0125 -0.5245
 1270SOL    MW4 4848   4.435   5.824   1.048 -0.2177 -0.4235  0.2259
 1271SOL     OW 4849   5.707   4.398   4.638 -0.2519 -0.2946  0.6641
 1271SOL    HW2 4850   5.738   4.479   4.679  1.4674 -0.4445 -0.2408
 1271SOL    HW3 4851   5.637   4.426   4.579 -2.1931  0.0204  2.9967
 1271SOL    MW4 4852   5.702   4.412   4.636 -0.2811 -0.2728  0.8524
 1272SOL     OW 4853   2.165   4.798   2.536 -0.6146  0.4004  0.1138
 1272SOL    HW2 4854   2.151   4.737   2.463 -0.5503 -0.6683  0.9654
 1272SOL    HW3 4855   2.223   4.751   2.596 -1.4286  0.8562  1.3143
 1272SOL    MW4 4856   2.171   4.784   2.534 -0.7135  0.3195  0.3845
 1273SOL     OW 4857   2.266   2.776   6.413 -0.0056  0.3952 -0.2251
 1273SOL    HW2 4858   2.278   2.778   6.508 -3.2093  1.4401  0.2836
 1273SOL    HW3 4859   2.198   2.709   6.400 -0.2724  0.9300 -1.6835
 1273SOL    MW4 4860   2.258   2.767   6.424 -0.4635  0.6036 -0.3504
 1274SOL     OW 4861   1.405   4.317   5.450  0.5030 -0.1253  0.3222
 1274SOL    HW2 4862   1.369   4.229   5.440  2.2530 -0.7302 -0.9860
 1274SOL    HW3 4863   1.377   4.364   5.371 -2.8973  1.5109  2.2780
 1274SOL    MW4 4864   1.396   4.312   5.438  0.2852  0.0108  0.4077
 1275SOL     OW 4865   3.382   6.150   2.218 -0.0726 -0.4103 -0.0422
 1275SOL    HW2 4866   3.466   6.131   2.258  0.6245  1.9336 -0.2107
 1275SOL    HW3 4867   3.378   6.094   2.141  1.4138 -0.4536 -0.1082
 1275SOL    MW4 4868   3.392   6.140   2.213  0.2155 -0.1067 -0.0731
 1276SOL     OW 4869   4.495   2.001   3.213 -0.0338 -0.7804  0.1016
 1276SOL    HW2 4870   4.552   2.065   3.254 -2.0127 -0.6147  2.8283
 1276SOL    HW3 4871   4.412   2.009   3.259 -2.8545 -0.1158 -4.4436
 1276SOL    MW4 4872   4.492   2.010   3.224 -0.6670 -0.6709 -0.1384
 1277SOL     OW 4873   2.490   2.103   5.482  0.2210  0.3041 -0.0623
 1277SOL    HW2 4874   2.521   2.134   5.568 -0.1549  0.1629  0.1230
 1277SOL    HW3 4875   2.566   2.057   5.445 -0.1791 -1.2662  0.9818
 1277SOL    MW4 4876   2.504   2.101   5.489  0.1186  0.0783  0.0999
 1278SOL     OW 4877   2.632   1.889   0.198  0.9010  0.0379 -0.0610
 1278SOL    HW2 4878   2.569   1.913   0.130  2.2352 -0.6467 -1.5993
 1278SOL    HW3 4879   2.636   1.966   0.255  0.9291  1.2814 -1.6778
 1278SOL    MW4 4880   2.625   1.903   0.196  1.0807  0.1117 -0.4773
 1279SOL     OW 4881   2.623   5.648   2.636  0.4062 -0.5980 -0.8972
 1279SOL    HW2 4882   2.551   5.688   2.587  0.8075  1.5702  0.1639
 1279SOL    HW3 4883   2.702   5.672   2.587  0.8943  2.3207  1.0979
 1279SOL    MW4 4884   2.624   5.656   2.623  0.5235  0.0732 -0.4940
 1280SOL     OW 4885   0.480   0.282   1.072 -0.0492 -0.1085 -0.5541
 1280SOL    HW2 4886   0.443   0.234   1.146 -1.1126  1.7579  0.1984
 1280SOL    HW3 4887   0.573   0.289   1.092 -0.4366  0.9744  0.9905
 1280SOL    MW4 4888   0.487   0.276   1.084 -0.2407  0.2806 -0.2510
 1281SOL     OW 4889   2.479   3.178   1.016 -0.2192 -0.5488 -0.0093
 1281SOL    HW2 4890   2.546   3.169   0.949  0.1334 -2.3630  0.5234
 1281SOL    HW3 4891   2.400   3.141   0.977 -0.1538 -1.0980  0.3650
 1281SOL    MW4 4892   2.478   3.172   1.002 -0.1641 -0.8606  0.1103
 1282SOL     OW 4893   2.102   1.797   1.345  0.2076 -0.1619  0.0049
 1282SOL    HW2 4894   2.141   1.734   1.284 -0.9284 -1.2327  0.3272
 1282SOL    HW3 4895   2.008   1.777   1.342  0.0380  0.3357  1.4574
 1282SOL    MW4 4896   2.094   1.786   1.336  0.0353 -0.2375  0.2391
 1283SOL     OW 4897   4.906   3.556   4.653 -0.0725  0.3643 -0.3524
 1283SOL    HW2 4898   4.921   3.637   4.702 -1.9345  0.5967 -0.1179
 1283SOL    HW3 4899   4.994   3.520   4.639  0.6182  1.1087  1.7539
 1283SOL    MW4 4900   4.920   3.562   4.658 -0.2271  0.4932 -0.0436
 1284SOL     OW 4901   5.152   6.395   6.276 -0.2436 -0.1115  0.4633
 1284SOL    HW2 4902   5.137   6.479   6.231  1.8154 -0.2622 -0.6525
 1284SOL    HW3 4903   5.065   6.365   6.300 -1.3377  0.8675 -1.8843
 1284SOL    MW4 4904   5.139   6.402   6.273 -0.1163 -0.0022  0.0063
 1285SOL     OW 4905   0.354   3.796   5.063  0.2133  0.4969  0.3505
 1285SOL    HW2 4906   0.389   3.757   5.143 -0.5011 -0.4200  0.2389
 1285SOL    HW3 4907   0.384   3.738   4.993 -2.7786 -1.3330  0.3934
 1285SOL    MW4 4908   0.362   3.783   5.065 -0.2757  0.1345  0.3415
 1286SOL     OW 4909   4.373   5.883   2.787 -0.0649 -0.4466 -0.5418
 1286SOL    HW2 4910   4.348   5.899   2.695  0.3674 -0.8554 -0.7303
 1286SOL    HW3 4911   4.320   5.946   2.836 -1.1989 -1.0261 -0.9633
 1286SOL    MW4 4912   4.363   5.894   2.781 -0.1575 -0.5770 -0.6223
 1287SOL     OW 4913   4.754   3.398   5.423  0.1843 -0.1642  0.0088
 1287SOL    HW2 4914   4.677   3.411   5.478  0.7361  0.6417  0.6149
 1287SOL    HW3 4915   4.737   3.452   5.346 -0.1712 -0.5562 -0.1913
 1287SOL    MW4 4916   4.742   3.407   5.420  0.2102 -0.1096  0.0623
 1288SOL     OW 4917   4.527   3.089   1.844 -0.1038  0.1012 -0.2367
 1288SOL    HW2 4918   4.596   3.036   1.806 -0.2383  0.3526 -0.8463
 1288SOL    HW3 4919   4.552   3.179   1.823 -2.9368  0.1209 -4.7149
 1288SOL    MW4 4920   4.539   3.094   1.837 -0.4953  0.1370 -0.9080
 1289SOL     OW 4921   5.440   3.644   4.888  0.3382  0.0422  0.6706
 1289SOL    HW2 4922   5.498   3.595   4.831  0.4529  0.4600  0.4229
 1289SOL    HW3 4923   5.488   3.724   4.909  0.2082 -0.0082  1.1738
 1289SOL    MW4 4924   5.454   3.648   4.883  0.3362  0.0907  0.7043
 1290SOL     OW 4925   1.299   1.599   3.375  0.3267  1.0303 -0.2894
 1290SOL    HW2 4926   1.363   1.669   3.360 -0.0672  1.4398 -0.0759
 1290SOL    HW3 4927   1.319   1.565   3.462  0.5915  0.7954 -0.4399
 1290SOL    MW4 4928   1.310   1.603   3.385  0.3097  1.0534 -0.2811
 1291SOL     OW 4929   5.337   0.986   0.188  0.5556  0.4268 -0.0495
 1291SOL    HW2 4930   5.371   1.057   0.134  2.2339 -0.8918 -0.8307
 1291SOL    HW3 4931   5.338   1.020   0.278 -0.0073  1.8326 -0.5596
 1291SOL    MW4 4932   5.341   1.000   0.193  0.7027  0.4383 -0.2199
 1292SOL     OW 4933   4.805   3.036   2.735  0.2521  0.2958 -0.1936
 1292SOL    HW2 4934   4.709   3.033   2.743  0.2099  1.3715 -0.0874
 1292SOL    HW3 4935   4.830   3.117   2.779  1.1845  0.1813 -0.4909
 1292SOL    MW4 4936   4.795   3.046   2.742  0.3696  0.4226 -0.2188
 1293SOL     OW 4937   2.975   4.533   1.123  0.1025 -0.3461 -0.5600
 1293SOL    HW2 4938   3.062   4.568   1.139  0.4403 -1.9049  1.4386
 1293SOL    HW3 4939   2.917   4.609   1.128  1.1679  0.4606 -0.1307
 1293SOL    MW4 4940   2.979   4.548   1.126  0.2876 -0.4453 -0.2397
 1294SOL     OW 4941   4.886   6.200   0.956 -0.7307 -0.4922  0.2284
 1294SOL    HW2 4942   4.917   6.184   0.867  1.4288  2.1161  0.3647
 1294SOL    HW3 4943   4.820   6.269   0.946 -1.7545 -1.3885  0.5579
 1294SOL    MW4 4944   4.881   6.207   0.943 -0.5809 -0.2664  0.2898
 1295SOL     OW 4945   4.298   0.114   0.873  0.0531 -0.0244 -0.3893
 1295SOL    HW2 4946   4.355   0.177   0.918  0.1484 -0.4035  0.0283
 1295SOL    HW3 4947   4.246   0.168   0.814  1.5182  0.2334 -1.5077
 1295SOL    MW4 4948   4.299   0.130   0.871  0.2590 -0.0404 -0.4817
 1296SOL     OW 4949   5.114   4.826   2.398 -0.1338  0.2797  0.1599
 1296SOL    HW2 4950   5.113   4.901   2.456 -2.5489  2.3565 -2.2602
 1296SOL    HW3 4951   5.178   4.849   2.330  1.0288 -1.0945  0.7495
 1296SOL    MW4 4952   5.122   4.839   2.396 -0.2991  0.3724 -0.0816
 1297SOL     OW 4953   4.749   0.410   1.015  0.0609 -0.3973 -0.1014
 1297SOL    HW2 4954   4.657   0.433   1.001 -0.2618 -0.4354  1.6741
 1297SOL    HW3 4955   4.773   0.456   1.096  2.0894  0.8978 -1.3515
 1297SOL    MW4 4956   4.740   0.419   1.024  0.2860 -0.2315 -0.0321
 1298SOL     OW 4957   6.290   0.730   1.512 -0.0090 -0.0346 -0.0588
 1298SOL    HW2 4958   6.289   0.732   1.608 -0.3824  1.9299 -0.0711
 1298SOL    HW3 4959   6.321   0.816   1.486 -1.1252 -0.0827 -1.7218
 1298SOL    MW4 4960   6.294   0.741   1.522 -0.2056  0.2182 -0.2798
 1299SOL     OW 4961   3.286   3.213   5.533  0.0840 -0.9336  0.6338
 1299SOL    HW2 4962   3.208   3.229   5.586 -1.4362  0.9376 -1.9206
 1299SOL    HW3 4963   3.255   3.158   5.461  1.0917 -0.1413 -0.4440
 1299SOL    MW4 4964   3.272   3.208   5.531  0.0164 -0.5822  0.1546
 1300SOL     OW 4965   3.479   5.767   3.731  0.4782  0.1149  0.0903
 1300SOL    HW2 4966   3.562   5.736   3.767  0.2003  0.7365  1.3418
 1300SOL    HW3 4967   3.425   5.688   3.725  0.9872 -0.2141 -0.2706
 1300SOL    MW4 4968   3.483   5.752   3.735  0.5087  0.1535  0.2078
 1301SOL     OW 4969   0.693   2.841   6.084  0.0569  0.6289 -0.0691
 1301SOL    HW2 4970   0.675   2.748   6.092  1.0638  0.4763  0.7061
 1301SOL    HW3 4971   0.776   2.846   6.037  0.0731  1.1304  0.0011
 1301SOL    MW4 4972   0.702   2.829   6.079  0.1919  0.6749  0.0424
 1302SOL     OW 4973   4.395   5.928   1.423  0.7575  0.5850  0.6889
 1302SOL    HW2 4974   4.431   5.840   1.423  1.5363  0.8884  0.1445
 1302SOL    HW3 4975   4.418   5.964   1.337 -0.2973  1.0234  0.5694
 1302SOL    MW4 4976   4.403   5.921   1.412  0.7211  0.6829  0.6013
 1303SOL     OW 4977   6.242   3.730   3.334 -0.5828  0.1261 -0.1852
 1303SOL    HW2 4978   6.327   3.693   3.311  0.0624  0.5709  1.3787
 1303SOL    HW3 4979   6.200   3.749   3.250  1.1050  0.4715 -0.9749
 1303SOL    MW4 4980   6.247   3.728   3.320 -0.2750  0.2303 -0.0830
 1304SOL     OW 4981   5.084   3.732   4.303 -0.0103 -0.5926  0.1810
 1304SOL    HW2 4982   5.059   3.817   4.268  0.1772  0.0685  1.5812
 1304SOL    HW3 4983   5.163   3.708   4.256  1.4637  1.2655  1.5558
 1304SOL    MW4 4984   5.091   3.740   4.292  0.2089 -0.2602  0.5471
 1305SOL     OW 4985   4.973   3.087   0.667 -0.5838  0.1470 -0.3501
 1305SOL    HW2 4986   4.885   3.124   0.663 -1.2687 -1.3822 -0.3175
 1305SOL    HW3 4987   4.964   3.001   0.625  0.6140 -0.5405  0.7550
 1305SOL    MW4 4988   4.960   3.080   0.661 -0.5162 -0.1455 -0.2000
 1306SOL     OW 4989   5.298   0.271   3.041 -0.3176 -0.2105  0.0724
 1306SOL    HW2 4990   5.303   0.291   2.948 -0.4745  0.9422  0.2960
 1306SOL    HW3 4991   5.212   0.302   3.068  0.3741  1.0436  0.9375
 1306SOL    MW4 4992   5.287   0.278   3.033 -0.2471  0.1071  0.2160
 1307SOL     OW 4993   2.261   1.102   2.860 -0.0610  0.1874  0.4097
 1307SOL    HW2 4994   2.321   1.033   2.832  0.0525  0.5427 -0.2483
 1307SOL    HW3 4995   2.251   1.158   2.782  0.1908  1.1499  1.0542
 1307SOL    MW4 4996   2.267   1.100   2.846 -0.0128  0.3613  0.4079
 1308SOL     OW 4997   1.429   4.852   1.698 -0.1098 -0.2542 -0.1727
 1308SOL    HW2 4998   1.438   4.865   1.793  0.4401 -1.3649 -0.0588
 1308SOL    HW3 4999   1.440   4.940   1.661  0.9144  0.0157  0.7143
 1308SOL    MW4 5000   1.432   4.866   1.706  0.0979 -0.3651 -0.0406
 1309SOL     OW 5001   4.345   5.391   5.776 -0.1269  0.8696  0.5757
 1309SOL    HW2 5002   4.377   5.349   5.697 -0.5072  0.0401  0.8544
 1309SOL    HW3 5003   4.416   5.380   5.840 -0.5716 -0.1653  0.9177
 1309SOL    MW4 5004   4.358   5.384   5.774 -0.2357  0.6236  0.6576
 1310SOL     OW 5005   3.552   1.361   0.659 -0.5960  0.0429 -0.3292
 1310SOL    HW2 5006   3.606   1.293   0.618 -1.3507  0.2243 -1.6980
 1310SOL    HW3 5007   3.463   1.326   0.656 -1.0773  1.2588 -1.5191
 1310SOL    MW4 5008   3.548   1.347   0.653 -0.7591  0.2272 -0.6668
 1311SOL     OW 5009   5.925   4.263   2.860  0.4908 -0.1250  0.2570
 1311SOL    HW2 5010   5.974   4.183   2.841 -1.6235 -1.4202 -0.0635
 1311SOL    HW3 5011   5.946   4.322   2.787 -0.2221 -1.5534 -1.1654
 1311SOL    MW4 5012   5.934   4.260   2.848  0.1177 -0.4843  0.0270
 1312SOL     OW 5013   3.353   5.851   2.837  0.2700 -0.0629  0.1857
 1312SOL    HW2 5014   3.356   5.922   2.901  1.3193 -0.0542  0.1471
 1312SOL    HW3 5015   3.340   5.772   2.889 -0.9850  0.1556  0.2224
 1312SOL    MW4 5016   3.352   5.850   2.852  0.2429 -0.0329  0.1854
 1313SOL     OW 5017   2.462   1.965   4.992  0.0129 -0.0482  0.4458
 1313SOL    HW2 5018   2.493   2.006   4.912  0.9820  0.6701  1.1599
 1313SOL    HW3 5019   2.472   2.033   5.059  1.6302 -1.3978  1.6681
 1313SOL    MW4 5020   2.467   1.979   4.991  0.3541 -0.1315  0.7013
 1314SOL     OW 5021   2.183   5.137   0.150  0.2119 -0.3088  0.0935
 1314SOL    HW2 5022   2.200   5.168   0.061 -0.0586 -0.8456 -0.1486
 1314SOL    HW3 5023   2.267   5.102   0.179  0.3626  0.0952  0.1380
 1314SOL    MW4 5024   2.196   5.136   0.142  0.1961 -0.3263  0.0675
 1315SOL     OW 5025   6.103   3.395   3.042  0.0813 -0.5654 -0.4389
 1315SOL    HW2 5026   6.020   3.380   3.088  0.2261 -1.0663 -0.3320
 1315SOL    HW3 5027   6.162   3.327   3.076  1.0518  0.7833  0.7149
 1315SOL    MW4 5028   6.100   3.384   3.052  0.2284 -0.4535 -0.2726
 1316SOL     OW 5029   4.143   5.789   2.103 -0.2711 -0.5422 -0.4457
 1316SOL    HW2 5030   4.221   5.733   2.105 -0.9452 -1.5317 -0.7629
 1316SOL    HW3 5031   4.125   5.801   2.010 -0.1371  0.2142 -0.3763
 1316SOL    MW4 5032   4.151   5.783   2.091 -0.3424 -0.5730 -0.4784
 1317SOL     OW 5033   5.282   3.157   1.572 -0.2434  0.3317 -0.4125
 1317SOL    HW2 5034   5.200   3.178   1.528  0.0720 -0.1626 -1.2510
 1317SOL    HW3 5035   5.309   3.239   1.612 -1.0331  0.5498 -0.3001
 1317SOL    MW4 5036   5.275   3.170   1.571 -0.3060  0.2953 -0.5083
 1318SOL     OW 5037   5.363   5.340   4.698 -0.0562 -0.2406  0.0378
 1318SOL    HW2 5038   5.375   5.249   4.723  2.2216 -0.3265 -1.1786
 1318SOL    HW3 5039   5.300   5.337   4.626 -0.8258 -0.7200  0.7155
 1318SOL    MW4 5040   5.356   5.328   4.692  0.1427 -0.3152 -0.0333
 1319SOL     OW 5041   5.960   4.349   0.994 -0.3464 -0.1927  0.0883
 1319SOL    HW2 5042   5.901   4.421   1.016  0.2097  0.1768  0.3967
 1319SOL    HW3 5043   6.038   4.392   0.959  0.7218 -0.5386  1.9567
 1319SOL    MW4 5044   5.962   4.364   0.992 -0.1321 -0.1896  0.3755
 1320SOL     OW 5045   5.892   1.707   3.683  0.1245 -0.2323  0.5985
 1320SOL    HW2 5046   5.875   1.760   3.761 -1.4128  1.1608 -0.5987
 1320SOL    HW3 5047   5.977   1.738   3.651 -0.8807  1.8645 -0.2608
 1320SOL    MW4 5048   5.901   1.718   3.689 -0.2109  0.2282  0.3272
 1321SOL     OW 5049   2.280   1.150   4.334 -0.1646 -0.7086  0.1262
 1321SOL    HW2 5050   2.300   1.056   4.338  3.1475 -0.1750 -0.5849
 1321SOL    HW3 5051   2.272   1.169   4.241  2.8177  0.2125 -0.0474
 1321SOL    MW4 5052   2.282   1.140   4.322  0.6658 -0.5167  0.0095
 1322SOL     OW 5053   3.656   6.032   1.631  0.5941  0.2374  0.0936
 1322SOL    HW2 5054   3.577   6.055   1.582  0.2770  1.7894  1.2566
 1322SOL    HW3 5055   3.649   6.081   1.713  2.3386 -0.2934  0.6117
 1322SOL    MW4 5056   3.645   6.041   1.635  0.7824  0.3721  0.3154
 1323SOL     OW 5057   0.824   5.443   3.214  0.1154 -0.5532 -0.4481
 1323SOL    HW2 5058   0.842   5.369   3.272  0.4803  0.2807  0.5286
 1323SOL    HW3 5059   0.906   5.458   3.166 -0.2636 -1.4076 -1.4037
 1323SOL    MW4 5060   0.837   5.435   3.215  0.1135 -0.5559 -0.4453
 1324SOL     OW 5061   5.203   2.172   0.269 -0.2049 -0.3662 -0.1464
 1324SOL    HW2 5062   5.290   2.189   0.233  0.3604 -0.1058  1.2577
 1324SOL    HW3 5063   5.211   2.089   0.315 -0.9523 -0.7801 -0.7368
 1324SOL    MW4 5064   5.215   2.163   0.271 -0.2289 -0.3864 -0.0391
 1325SOL     OW 5065   2.913   1.276   3.258  0.5737  0.3241  0.0546
 1325SOL    HW2 5066   3.008   1.268   3.267  0.5277 -0.4512 -0.0051
 1325SOL    HW3 5067   2.881   1.186   3.266  0.0324  0.2916 -2.0124
 1325SOL    MW4 5068   2.921   1.263   3.260  0.4962  0.2175 -0.2260
 1326SOL     OW 5069   2.598   3.639   3.166 -0.2171  0.3472 -0.0221
 1326SOL    HW2 5070   2.604   3.564   3.224 -0.8591 -0.3000 -0.7561
 1326SOL    HW3 5071   2.686   3.651   3.132 -0.1118 -0.0826  0.0970
 1326SOL    MW4 5072   2.610   3.631   3.169 -0.2879  0.2051 -0.1033
 1327SOL     OW 5073   5.005   6.263   4.127  0.3040  0.5346  0.1494
 1327SOL    HW2 5074   4.970   6.338   4.176 -0.0183 -0.0906  0.9150
 1327SOL    HW3 5075   5.052   6.212   4.193 -0.5480 -0.5892 -0.0609
 1327SOL    MW4 5076   5.006   6.266   4.143  0.1490  0.3038  0.2227
 1328SOL     OW 5077   4.089   5.749   4.224 -0.0909 -0.3059 -0.0025
 1328SOL    HW2 5078   4.000   5.770   4.252  0.4889  0.7099  1.1567
 1328SOL    HW3 5079   4.114   5.674   4.278  0.4513  0.6563  1.1235
 1328SOL    MW4 5080   4.080   5.742   4.235  0.0571 -0.0449  0.2990
 1329SOL     OW 5081   4.685   4.010   0.254 -1.0880  0.8979 -0.2376
 1329SOL    HW2 5082   4.618   3.989   0.189 -1.0882  1.4700 -0.4304
 1329SOL    HW3 5083   4.705   4.102   0.239  0.9502  0.3275 -1.2921
 1329SOL    MW4 5084   4.679   4.019   0.244 -0.8191  0.8982 -0.4022
 1330SOL     OW 5085   0.075   4.946   6.127 -0.1010  0.6461  0.2202
 1330SOL    HW2 5086   0.134   4.970   6.055  1.4542 -1.6010  0.6181
 1330SOL    HW3 5087   0.076   4.850   6.127 -1.5018  0.5770  2.1079
 1330SOL    MW4 5088   0.083   4.936   6.118 -0.0806  0.3405  0.5218
 1331SOL     OW 5089   2.917   4.271   3.065  0.1515  0.0723 -0.2650
 1331SOL    HW2 5090   2.992   4.223   3.029 -0.1551  0.4887 -1.5160
 1331SOL    HW3 5091   2.926   4.360   3.031  0.5502  0.8684  1.8002
 1331SOL    MW4 5092   2.928   4.276   3.056  0.1637  0.2323 -0.1576
 1332SOL     OW 5093   1.161   5.944   0.432 -0.1568  0.0349  0.1671
 1332SOL    HW2 5094   1.110   5.877   0.386  0.1712  0.5818 -1.0462
 1332SOL    HW3 5095   1.167   5.912   0.522  1.7008 -2.6118 -0.7621
 1332SOL    MW4 5096   1.155   5.931   0.438  0.1316 -0.2421 -0.1156
 1333SOL     OW 5097   0.710   3.566   4.871  0.2260 -0.7256  0.0860
 1333SOL    HW2 5098   0.745   3.652   4.895  0.1108 -0.5113 -0.4971
 1333SOL    HW3 5099   0.716   3.563   4.775 -3.4649  0.3271 -0.3347
 1333SOL    MW4 5100   0.715   3.577   4.861 -0.2762 -0.5585 -0.0465
 1334SOL     OW 5101   1.492   5.099   1.543 -0.2311 -0.1350  0.3274
 1334SOL    HW2 5102   1.424   5.106   1.475  0.6581  1.3748 -0.4630
 1334SOL    HW3 5103   1.559   5.042   1.504  0.0831  0.3862  0.0958
 1334SOL    MW4 5104   1.492   5.092   1.529 -0.0723  0.1330  0.1925
 1335SOL     OW 5105   6.015   3.256   5.019 -0.1399  0.5115 -0.5355
 1335SOL    HW2 5106   6.039   3.247   4.926 -1.1136  2.3415 -1.0214
 1335SOL    HW3 5107   5.928   3.218   5.025 -0.9288  2.1967 -0.8533
 1335SOL    MW4 5108   6.007   3.250   5.007 -0.3724  0.9753 -0.6415
 1336SOL     OW 5109   5.476   5.692   3.008 -0.0514 -0.5985  0.0876
 1336SOL    HW2 5110   5.398   5.654   2.967 -0.8250  0.2934  0.6950
 1336SOL    HW3 5111   5.445   5.726   3.092  1.2661 -1.3660  0.9150
 1336SOL    MW4 5112   5.462   5.691   3.014  0.0204 -0.5821  0.2769
 1337SOL     OW 5113   5.387   2.246   5.565 -0.2433 -0.5948 -0.1899
 1337SOL    HW2 5114   5.404   2.154   5.546  0.5065 -0.2791 -1.1637
 1337SOL    HW3 5115   5.335   2.277   5.490  0.2372 -0.0228 -0.2966
 1337SOL    MW4 5116   5.382   2.238   5.552 -0.0810 -0.4777 -0.3324
 1338SOL     OW 5117   3.628   3.836   3.738  0.6065  0.1721 -0.1539
 1338SOL    HW2 5118   3.667   3.853   3.824  1.0714  1.8467 -0.6505
 1338SOL    HW3 5119   3.534   3.838   3.754  0.6888  0.4757  0.3171
 1338SOL    MW4 5120   3.621   3.839   3.751  0.6787  0.4331 -0.1573
 1339SOL     OW 5121   3.396   2.095   4.510  0.2060 -0.4309 -0.0277
 1339SOL    HW2 5122   3.330   2.089   4.579  0.7025  0.6672  0.5732
 1339SOL    HW3 5123   3.349   2.132   4.435  0.0404 -0.0206  0.2726
 1339SOL    MW4 5124   3.381   2.099   4.509  0.2497 -0.2319  0.0912
 1340SOL     OW 5125   1.030   5.416   1.934 -0.3014 -0.0020 -0.8427
 1340SOL    HW2 5126   0.943   5.420   1.895 -0.5846 -1.4217 -0.4501
 1340SOL    HW3 5127   1.063   5.329   1.910  0.9886  0.4904 -0.9343
 1340SOL    MW4 5128   1.023   5.405   1.926 -0.1685 -0.1243 -0.8030
 1341SOL     OW 5129   3.579   4.297   1.078 -0.2271  0.0990 -0.0365
 1341SOL    HW2 5130   3.538   4.371   1.035 -0.5038 -0.4331 -0.7228
 1341SOL    HW3 5131   3.672   4.320   1.082 -0.1074 -0.0600 -1.4381
 1341SOL    MW4 5132   3.586   4.309   1.073 -0.2478  0.0078 -0.3120
 1342SOL     OW 5133   3.314   5.685   1.019  0.6009 -0.1292  0.6844
 1342SOL    HW2 5134   3.235   5.686   0.965 -0.3852 -0.5729  2.0536
 1342SOL    HW3 5135   3.319   5.773   1.056  0.3660 -0.3051  1.1331
 1342SOL    MW4 5136   3.305   5.697   1.017  0.4398 -0.2109  0.9243
 1343SOL     OW 5137   1.036   1.390   6.055  0.4004  0.2270  0.1584
 1343SOL    HW2 5138   0.993   1.362   5.975  0.7427 -0.1050  0.0864
 1343SOL    HW3 5139   0.972   1.372   6.124  0.6792 -0.9476  0.1399
 1343SOL    MW4 5140   1.022   1.384   6.054  0.4823  0.0282  0.1465
 1344SOL     OW 5141   5.716   5.043   0.655 -0.2300 -0.0851 -0.4084
 1344SOL    HW2 5142   5.696   4.954   0.684 -1.4750  0.1877 -0.3879
 1344SOL    HW3 5143   5.656   5.058   0.582 -0.0561  0.7592 -0.3861
 1344SOL    MW4 5144   5.705   5.033   0.649 -0.3713  0.0623 -0.4028
 1345SOL     OW 5145   1.222   3.317   1.289 -0.6184  0.3372 -0.0723
 1345SOL    HW2 5146   1.243   3.263   1.365  0.0229 -0.3060 -0.6899
 1345SOL    HW3 5147   1.303   3.365   1.271 -0.4191 -0.3300 -0.9968
 1345SOL    MW4 5148   1.235   3.316   1.297 -0.5075  0.1643 -0.2758
 1346SOL     OW 5149   4.339   2.875   5.939  0.0924 -0.5345  0.2197
 1346SOL    HW2 5150   4.264   2.844   5.990 -1.3981  1.1582 -0.8278
 1346SOL    HW3 5151   4.364   2.957   5.982 -0.2758  0.1807 -0.8845
 1346SOL    MW4 5152   4.333   2.882   5.952 -0.1528 -0.2168 -0.0642
 1347SOL     OW 5153   0.841   1.312   4.292 -0.5922 -0.0230  0.2142
 1347SOL    HW2 5154   0.759   1.360   4.281 -0.1866  0.9791  1.4435
 1347SOL    HW3 5155   0.909   1.379   4.289  0.2489 -0.8812 -1.1539
 1347SOL    MW4 5156   0.839   1.327   4.290 -0.4277 -0.0040  0.1959
 1348SOL     OW 5157   5.276   2.135   0.712 -0.4601 -0.0426  0.1816
 1348SOL    HW2 5158   5.195   2.091   0.738  0.4724 -2.4515 -0.6644
 1348SOL    HW3 5159   5.250   2.191   0.638 -1.4906 -0.1669  0.4400
 1348SOL    MW4 5160   5.262   2.136   0.705 -0.4730 -0.3769  0.1041
 1349SOL     OW 5161   3.210   0.467   1.087 -0.3859 -0.7210 -0.3544
 1349SOL    HW2 5162   3.232   0.388   1.136 -0.9160 -1.2961 -1.0105
 1349SOL    HW3 5163   3.120   0.487   1.111 -0.2917 -0.3816 -0.2764
 1349SOL    MW4 5164   3.201   0.459   1.096 -0.4434 -0.7521 -0.4307
 1350SOL     OW 5165   3.906   2.005   3.430 -0.1347  0.4169 -0.2279
 1350SOL    HW2 5166   3.996   2.030   3.409  0.9570 -2.4882  0.5680
 1350SOL    HW3 5167   3.866   2.086   3.462  2.3122  1.6998 -0.1590
 1350SOL    MW4 5168   3.913   2.019   3.432  0.3321  0.2028 -0.1138
 1351SOL     OW 5169   4.856   3.328   4.505 -0.5605  0.0010  0.2941
 1351SOL    HW2 5170   4.877   3.421   4.517  1.5481 -0.5140  1.0381
 1351SOL    HW3 5171   4.937   3.290   4.471 -2.0819 -1.1873 -2.3674
 1351SOL    MW4 5172   4.870   3.335   4.502 -0.4830 -0.2237  0.0411
 1352SOL     OW 5173   6.417   6.407   2.137 -0.0211 -0.9347 -0.3635
 1352SOL    HW2 5174   6.501   6.431   2.098 -0.8416 -0.2847 -1.7758
 1352SOL    HW3 5175   6.410   6.463   2.215  0.5489 -0.5149 -0.6088
 1352SOL    MW4 5176   6.427   6.418   2.142 -0.0542 -0.7935 -0.5822
 1353SOL     OW 5177   6.094   4.253   0.653 -0.4611 -0.4032  0.8187
 1353SOL    HW2 5178   6.131   4.333   0.690 -0.3224  0.1183 -0.4155
 1353SOL    HW3 5179   6.131   4.183   0.707  1.8664  0.1272  0.0542
 1353SOL    MW4 5180   6.104   4.254   0.665 -0.1358 -0.2644  0.5550
 1354SOL     OW 5181   5.163   2.717   2.001 -0.2816  0.3942 -0.1370
 1354SOL    HW2 5182   5.112   2.724   2.081 -1.3228  0.8069 -0.8131
 1354SOL    HW3 5183   5.248   2.756   2.022 -0.5888  0.6045  0.7205
 1354SOL    MW4 5184   5.168   2.723   2.014 -0.4595  0.4764 -0.1131
 1355SOL     OW 5185   2.732   5.506   5.653 -0.0656  0.4263  0.0410
 1355SOL    HW2 5186   2.659   5.479   5.597  1.2004  0.1711 -1.5543
 1355SOL    HW3 5187   2.756   5.593   5.621  0.0706  0.6888  0.8353
 1355SOL    MW4 5188   2.725   5.514   5.641  0.1194  0.4273 -0.0647
 1356SOL     OW 5189   4.668   6.245   4.291  0.1391 -0.0296  0.7404
 1356SOL    HW2 5190   4.604   6.258   4.221  1.1953 -0.3392 -0.3135
 1356SOL    HW3 5191   4.697   6.154   4.281 -0.1289 -0.2604  1.9625
 1356SOL    MW4 5192   4.664   6.235   4.281  0.2431 -0.1009  0.7626
 1357SOL     OW 5193   4.646   0.675   4.807  0.2834  0.0982 -0.5945
 1357SOL    HW2 5194   4.623   0.650   4.896  0.8233  2.2996  0.2267
 1357SOL    HW3 5195   4.740   0.657   4.800  0.2651  0.0341 -0.6807
 1357SOL    MW4 5196   4.655   0.669   4.818  0.3523  0.3802 -0.4975
 1358SOL     OW 5197   5.168   3.946   1.767  0.0635  0.4674  0.2831
 1358SOL    HW2 5198   5.086   3.897   1.767 -0.2036  0.8485 -1.4986
 1358SOL    HW3 5199   5.226   3.896   1.824 -1.0629 -0.3657  0.7455
 1358SOL    MW4 5200   5.165   3.933   1.775 -0.1204  0.4078  0.1090
 1359SOL     OW 5201   1.413   3.441   4.384 -0.5050 -0.3451  0.0777
 1359SOL    HW2 5202   1.376   3.483   4.461 -0.3676 -1.5158  0.8106
 1359SOL    HW3 5203   1.351   3.459   4.313  0.0599  1.9459  0.0793
 1359SOL    MW4 5204   1.400   3.449   4.385 -0.4124 -0.1973  0.1746
 1360SOL     OW 5205   1.507   0.375   3.162 -1.1408 -0.4197 -0.3981
 1360SOL    HW2 5206   1.473   0.328   3.086  0.7108 -1.8478 -0.4274
 1360SOL    HW3 5207   1.565   0.442   3.124 -1.4799 -0.0501 -0.2717
 1360SOL    MW4 5208   1.510   0.378   3.147 -0.9412 -0.5594 -0.3853
 1361SOL     OW 5209   2.359   1.326   6.309 -0.3049 -0.6599 -0.0706
 1361SOL    HW2 5210   2.453   1.342   6.307 -0.5064  0.5102 -0.6489
 1361SOL    HW3 5211   2.338   1.294   6.221 -0.7182  0.7882 -0.5220
 1361SOL    MW4 5212   2.369   1.324   6.297 -0.3860 -0.3144 -0.2065
 1362SOL     OW 5213   3.380   0.648   4.485 -0.4820 -0.4893 -0.2377
 1362SOL    HW2 5214   3.406   0.737   4.507  1.4096 -0.9880 -0.2900
 1362SOL    HW3 5215   3.388   0.600   4.567  0.9667 -1.1195 -0.7206
 1362SOL    MW4 5216   3.385   0.654   4.499 -0.0412 -0.6383 -0.3083
 1363SOL     OW 5217   1.244   2.976   3.651  0.1167 -0.1625 -0.2665
 1363SOL    HW2 5218   1.253   2.991   3.745  0.6041 -1.4270 -0.0876
 1363SOL    HW3 5219   1.301   2.901   3.634 -0.2110 -0.1404 -1.5170
 1363SOL    MW4 5220   1.253   2.968   3.661  0.1378 -0.3264 -0.4078
 1364SOL     OW 5221   5.169   6.008   5.887  0.1391  0.1502  0.8826
 1364SOL    HW2 5222   5.129   6.068   5.951 -2.7216 -1.1174  0.4592
 1364SOL    HW3 5223   5.123   6.028   5.805  0.0315 -1.6998  0.4555
 1364SOL    MW4 5224   5.157   6.019   5.885 -0.2526 -0.2612  0.7704
 1365SOL     OW 5225   0.482   1.541   1.007  0.5252 -0.1169  0.7002
 1365SOL    HW2 5226   0.508   1.455   0.974  0.7710  0.5904 -1.0817
 1365SOL    HW3 5227   0.399   1.526   1.053 -0.7369 -0.9830 -1.6885
 1365SOL    MW4 5228   0.474   1.528   1.009  0.3911 -0.1379  0.1500
 1366SOL     OW 5229   6.413   6.083   2.440  0.6389 -0.6332 -0.4230
 1366SOL    HW2 5230   6.373   5.999   2.418 -1.3157  0.6813 -2.2369
 1366SOL    HW3 5231   6.464   6.107   2.362  1.0980 -0.0850  0.0343
 1366SOL    MW4 5232   6.415   6.075   2.427  0.4416 -0.3874 -0.6020
 1367SOL     OW 5233   2.101   5.244   4.647 -0.3808  0.7248  0.6555
 1367SOL    HW2 5234   2.099   5.228   4.553  0.0139 -1.2596  0.9371
 1367SOL    HW3 5235   2.121   5.337   4.655  1.0951  0.6324 -1.2171
 1367SOL    MW4 5236   2.104   5.254   4.636 -0.1340  0.4508  0.4456
 1368SOL     OW 5237   4.215   0.523   1.244  0.0440  0.4257  0.1367
 1368SOL    HW2 5238   4.164   0.442   1.241  1.4038 -0.4691  0.4372
 1368SOL    HW3 5239   4.196   0.566   1.160  0.4135 -0.9233 -0.6687
 1368SOL    MW4 5240   4.206   0.518   1.232  0.2722  0.1296  0.0701
 1369SOL     OW 5241   0.408   0.762   2.147  0.0518 -0.0823 -0.4030
 1369SOL    HW2 5242   0.399   0.857   2.146 -0.3805 -0.1290 -1.1375
 1369SOL    HW3 5243   0.480   0.743   2.086 -0.7277 -0.3105 -1.2610
 1369SOL    MW4 5244   0.417   0.772   2.139 -0.1081 -0.1186 -0.6131
 1370SOL     OW 5245   1.894   4.212   3.544 -0.2267 -0.0661  0.1355
 1370SOL    HW2 5246   1.932   4.147   3.486 -0.2151 -0.0339  0.1068
 1370SOL    HW3 5247   1.800   4.209   3.526 -0.1980  0.1033 -0.0477
 1370SOL    MW4 5248   1.887   4.203   3.534 -0.2214 -0.0395  0.1075
 1371SOL     OW 5249   0.416   2.907   6.042  0.7275  0.4628 -0.8041
 1371SOL    HW2 5250   0.506   2.892   6.069  0.7860  0.6917 -0.8670
 1371SOL    HW3 5251   0.364   2.845   6.093  0.8157  0.9855 -0.0634
 1371SOL    MW4 5252   0.421   2.897   6.052  0.7469  0.5619 -0.7146
 1372SOL     OW 5253   0.127   5.683   3.910  0.7594  0.1876  0.3810
 1372SOL    HW2 5254   0.069   5.639   3.848  1.0643 -2.4974  1.8404
 1372SOL    HW3 5255   0.141   5.770   3.873 -0.2056 -0.7903 -2.5341
 1372SOL    MW4 5256   0.121   5.689   3.897  0.6723 -0.2956  0.1889
 1373SOL     OW 5257   1.651   0.727   0.974  0.0438  0.4028 -0.2201
 1373SOL    HW2 5258   1.713   0.762   0.910 -0.5395  1.1865 -0.3649
 1373SOL    HW3 5259   1.654   0.632   0.960 -0.2368  0.5687 -1.5632
 1373SOL    MW4 5260   1.660   0.719   0.964 -0.0702  0.5281 -0.4164
 1374SOL     OW 5261   5.595   3.612   3.751  0.0317  0.0656 -0.0863
 1374SOL    HW2 5262   5.684   3.645   3.734 -0.4095  0.6819 -1.2869
 1374SOL    HW3 5263   5.540   3.655   3.685 -1.1420 -0.4247  0.5409
 1374SOL    MW4 5264   5.600   3.622   3.740 -0.1814  0.0823 -0.1620
 1375SOL     OW 5265   1.892   1.543   4.736 -0.1208 -0.3958  0.4384
 1375SOL    HW2 5266   1.914   1.512   4.648 -1.2959 -1.8319  0.6013
 1375SOL    HW3 5267   1.833   1.616   4.722  0.5072  0.0394  0.0384
 1375SOL    MW4 5268   1.887   1.548   4.723 -0.1930 -0.5278  0.4071
 1376SOL     OW 5269   5.093   3.226   4.398 -0.4756 -0.0136  0.1015
 1376SOL    HW2 5270   5.181   3.201   4.372 -0.5640  0.7164 -0.9260
 1376SOL    HW3 5271   5.046   3.241   4.316 -2.2526 -2.6288  0.4864
 1376SOL    MW4 5272   5.098   3.224   4.384 -0.7217 -0.2623  0.0167
 1377SOL     OW 5273   4.342   0.532   0.251  0.4564  0.2184 -0.0814
 1377SOL    HW2 5274   4.265   0.502   0.298 -0.4194  0.6509 -1.1922
 1377SOL    HW3 5275   4.413   0.528   0.315 -0.5570  0.1617  1.0602
 1377SOL    MW4 5276   4.341   0.528   0.266  0.2072  0.2680 -0.0773
 1378SOL     OW 5277   0.220   4.971   5.896 -0.3424  0.1099  0.0120
 1378SOL    HW2 5278   0.172   4.912   5.838 -0.9770 -0.6802  1.2844
 1378SOL    HW3 5279   0.244   5.045   5.841  0.3988 -1.2759 -1.6222
 1378SOL    MW4 5280   0.216   4.973   5.881 -0.3283 -0.1772 -0.0357
 1379SOL     OW 5281   3.297   2.842   3.227  0.3135 -0.0474  0.2954
 1379SOL    HW2 5282   3.247   2.791   3.163  2.5370 -0.6350 -1.0694
 1379SOL    HW3 5283   3.291   2.933   3.195 -0.4008 -0.0086  0.5197
 1379SOL    MW4 5284   3.289   2.848   3.214  0.5126 -0.1198  0.1449
 1380SOL     OW 5285   5.656   4.388   0.230  0.0097 -0.5737 -0.1018
 1380SOL    HW2 5286   5.601   4.464   0.250 -0.3715 -1.0255  0.6031
 1380SOL    HW3 5287   5.594   4.315   0.225  0.5356 -1.0795  0.6638
 1380SOL    MW4 5288   5.640   4.388   0.232  0.0288 -0.7001  0.0922
 1381SOL     OW 5289   4.148   0.094   4.256  0.6441 -0.4892  0.1552
 1381SOL    HW2 5290   4.106   0.178   4.272  0.9097 -0.3951  0.3709
 1381SOL    HW3 5291   4.181   0.099   4.166 -0.5544 -0.8873 -0.3223
 1381SOL    MW4 5292   4.147   0.106   4.246  0.5210 -0.5293  0.1207
 1382SOL     OW 5293   4.071   5.425   1.454  0.2426  0.4200  0.6033
 1382SOL    HW2 5294   4.158   5.435   1.414  0.0193 -1.3222 -0.4068
 1382SOL    HW3 5295   4.083   5.354   1.517 -0.6608 -0.5398 -0.2759
 1382SOL    MW4 5296   4.084   5.417   1.457  0.0939  0.0635  0.3540
 1383SOL     OW 5297   0.199   6.283   1.949 -0.2090 -0.2446 -0.0997
 1383SOL    HW2 5298   0.176   6.193   1.928 -1.2727  0.0439 -0.2491
 1383SOL    HW3 5299   0.137   6.336   1.898 -0.5322  0.5343  1.0520
 1383SOL    MW4 5300   0.188   6.278   1.939 -0.3920 -0.1038  0.0325
 1384SOL     OW 5301   1.709   1.851   2.005  0.3700 -0.2517  0.2827
 1384SOL    HW2 5302   1.678   1.883   2.090  3.1479  1.8976  0.6357
 1384SOL    HW3 5303   1.768   1.779   2.027  3.3817  2.0985  0.6350
 1384SOL    MW4 5304   1.713   1.846   2.019  1.1339  0.3419  0.3757
 1385SOL     OW 5305   4.520   0.299   6.032  0.6802 -0.0861  0.1782
 1385SOL    HW2 5306   4.595   0.308   5.973 -0.4126  2.0894 -0.9810
 1385SOL    HW3 5307   4.494   0.389   6.053 -0.7550 -0.7901  1.6881
 1385SOL    MW4 5308   4.527   0.312   6.027  0.3467  0.1080  0.2245
 1386SOL     OW 5309   3.742   0.833   4.380  0.3277 -0.2330 -0.3192
 1386SOL    HW2 5310   3.764   0.840   4.473  0.2838  0.3118 -0.3476
 1386SOL    HW3 5311   3.827   0.821   4.336  0.7769  2.9053 -0.5360
 1386SOL    MW4 5312   3.756   0.832   4.386  0.3812  0.2529 -0.3516
 1387SOL     OW 5313   3.294   1.587   0.774  0.0840  0.4733  0.4575
 1387SOL    HW2 5314   3.350   1.570   0.699  2.1444 -3.7382  2.6001
 1387SOL    HW3 5315   3.340   1.656   0.823  0.7181  0.5933 -0.2882
 1387SOL    MW4 5316   3.308   1.594   0.771  0.4395 -0.0665  0.6418
 1388SOL     OW 5317   1.254   1.957   3.794 -0.5961  0.1324  0.4883
 1388SOL    HW2 5318   1.240   2.031   3.734 -1.1346  0.0522  0.5108
 1388SOL    HW3 5319   1.252   1.997   3.881 -1.9658 -0.0495  0.5589
 1388SOL    MW4 5320   1.252   1.972   3.798 -0.8479  0.0978  0.5006
 1389SOL     OW 5321   5.674   0.316   4.318 -0.2795 -0.2228  0.2428
 1389SOL    HW2 5322   5.593   0.264   4.324 -0.9650  0.9194  1.6637
 1389SOL    HW3 5323   5.661   0.387   4.381  2.2712 -0.5633  1.2656
 1389SOL    MW4 5324   5.661   0.319   4.327 -0.0334 -0.1170  0.5652
 1390SOL     OW 5325   4.485   4.551   5.964 -0.4251  0.3586 -0.2873
 1390SOL    HW2 5326   4.493   4.606   5.886 -1.1475  1.4421  0.3809
 1390SOL    HW3 5327   4.564   4.497   5.964  0.4428  1.6056 -0.8187
 1390SOL    MW4 5328   4.497   4.551   5.954 -0.4059  0.6661 -0.2693
 1391SOL     OW 5329   2.248   1.619   1.208 -0.0542  0.3602 -0.0279
 1391SOL    HW2 5330   2.269   1.608   1.115  1.2170 -1.5126  0.4140
 1391SOL    HW3 5331   2.326   1.661   1.245  1.0063 -2.0959  0.7468
 1391SOL    MW4 5332   2.261   1.623   1.201  0.2534 -0.2110  0.1326
 1392SOL     OW 5333   4.511   1.245   0.166 -0.2147 -0.2288 -0.5251
 1392SOL    HW2 5334   4.547   1.332   0.185 -0.4101 -0.2808  0.1243
 1392SOL    HW3 5335   4.468   1.255   0.082 -0.3031  0.3279 -0.4202
 1392SOL    MW4 5336   4.510   1.258   0.157 -0.2522 -0.1622 -0.4255
 1393SOL     OW 5337   0.682   5.110   3.792 -0.1818 -0.3695 -0.5303
 1393SOL    HW2 5338   0.745   5.047   3.758  0.0278  0.4278 -1.6922
 1393SOL    HW3 5339   0.730   5.161   3.857  1.1482  1.6913 -2.9306
 1393SOL    MW4 5340   0.697   5.109   3.796  0.0213  0.0076 -1.0003
 1394SOL     OW 5341   4.344   2.154   5.381 -0.1899 -0.1579  0.8073
 1394SOL    HW2 5342   4.408   2.221   5.359  0.1617 -0.2422  1.5587
 1394SOL    HW3 5343   4.394   2.073   5.384 -0.4367 -0.3107  0.8355
 1394SOL    MW4 5344   4.359   2.152   5.379 -0.1761 -0.1892  0.9101
 1395SOL     OW 5345   4.652   2.991   5.775 -0.1140 -0.3449  0.3673
 1395SOL    HW2 5346   4.726   2.990   5.715  0.4502  1.0550  0.9933
 1395SOL    HW3 5347   4.692   2.975   5.861 -0.7601 -1.1994  0.5154
 1395SOL    MW4 5348   4.667   2.989   5.779 -0.1248 -0.2729  0.4694
 1396SOL     OW 5349   1.150   4.688   5.476 -0.2495  0.2089  0.3154
 1396SOL    HW2 5350   1.080   4.714   5.536  0.4161  0.0222  1.2097
 1396SOL    HW3 5351   1.179   4.603   5.510  0.3406  0.2402 -0.0957
 1396SOL    MW4 5352   1.145   4.680   5.489 -0.0839  0.1884  0.3791
 1397SOL     OW 5353   6.143   3.827   0.958 -0.1029 -0.7340  0.7623
 1397SOL    HW2 5354   6.049   3.826   0.939  0.4416 -2.3497 -2.8159
 1397SOL    HW3 5355   6.170   3.736   0.948  2.1265 -0.0194 -0.3131
 1397SOL    MW4 5356   6.134   3.815   0.954  0.2631 -0.8529  0.1483
 1398SOL     OW 5357   2.610   4.353   2.498 -0.3338  0.4766  0.3094
 1398SOL    HW2 5358   2.689   4.407   2.503  0.3279 -0.3378 -0.9699
 1398SOL    HW3 5359   2.579   4.349   2.589  2.3250 -1.0064  1.2623
 1398SOL    MW4 5360   2.616   4.360   2.511  0.1043  0.1735  0.2663
 1399SOL     OW 5361   2.107   0.361   6.089  0.3322 -0.1044  0.5437
 1399SOL    HW2 5362   2.052   0.365   6.167  0.4565  0.9499  0.5974
 1399SOL    HW3 5363   2.071   0.289   6.037 -2.2053  1.5979 -0.2316
 1399SOL    MW4 5364   2.095   0.352   6.092  0.0138  0.2593  0.4485
 1400SOL     OW 5365   5.175   3.572   1.640 -0.1136  0.2221 -0.6415
 1400SOL    HW2 5366   5.138   3.657   1.618 -2.0939 -0.5164 -0.2954
 1400SOL    HW3 5367   5.168   3.567   1.735  1.3818  0.2533 -0.5003
 1400SOL    MW4 5368   5.170   3.583   1.650 -0.1776  0.1288 -0.5772
 1401SOL     OW 5369   0.631   4.776   4.970  0.8619 -0.3803 -0.0421
 1401SOL    HW2 5370   0.587   4.723   5.037 -0.2020  1.4794  0.8180
 1401SOL    HW3 5371   0.707   4.813   5.016 -0.8592  2.3710  0.8398
 1401SOL    MW4 5372   0.635   4.774   4.985  0.4945  0.2281  0.1877
 1402SOL     OW 5373   3.956   3.152   0.461  0.1429  0.4216  0.3601
 1402SOL    HW2 5374   3.955   3.058   0.479 -1.5485  0.7042  2.1884
 1402SOL    HW3 5375   3.898   3.162   0.385  1.9082 -0.1538 -1.1231
 1402SOL    MW4 5376   3.948   3.141   0.453  0.1526  0.3830  0.4056
 1403SOL     OW 5377   1.012   1.038   6.012 -0.2814  0.4291  0.7745
 1403SOL    HW2 5378   1.107   1.046   6.022 -0.1058  0.3244 -0.6305
 1403SOL    HW3 5379   0.987   1.111   5.956 -1.0709  0.5755  1.2953
 1403SOL    MW4 5380   1.021   1.048   6.006 -0.3624  0.4346  0.6579
 1404SOL     OW 5381   1.749   5.767   3.896 -0.4162  0.4198 -0.0313
 1404SOL    HW2 5382   1.717   5.853   3.923  0.9002  1.5028 -1.7357
 1404SOL    HW3 5383   1.837   5.762   3.933  0.3172  0.7395 -1.6426
 1404SOL    MW4 5384   1.757   5.778   3.904 -0.1458  0.6049 -0.4688
 1405SOL     OW 5385   3.226   2.691   6.352 -0.2626  0.4641 -0.1316
 1405SOL    HW2 5386   3.296   2.693   6.417 -0.7490 -0.7718  0.4675
 1405SOL    HW3 5387   3.178   2.773   6.364  1.6974  1.8589 -1.2966
 1405SOL    MW4 5388   3.229   2.702   6.362 -0.0682  0.4851 -0.2063
 1406SOL     OW 5389   2.184   5.478   3.395  0.3336 -0.1009 -0.3475
 1406SOL    HW2 5390   2.172   5.429   3.476  1.6043  1.1672  0.6535
 1406SOL    HW3 5391   2.217   5.564   3.422 -0.6552  0.9189 -2.1124
 1406SOL    MW4 5392   2.186   5.483   3.409  0.3708  0.2009 -0.4483
 1407SOL     OW 5393   2.082   1.907   5.872  0.3234 -0.1949 -0.2162
 1407SOL    HW2 5394   2.176   1.910   5.887  0.1791 -0.5864  0.8564
 1407SOL    HW3 5395   2.043   1.916   5.960 -0.5782 -3.1690 -0.2162
 1407SOL    MW4 5396   2.089   1.909   5.886  0.1854 -0.6390 -0.0747
 1408SOL     OW 5397   4.383   6.250   3.597 -0.0940  0.3088 -1.0049
 1408SOL    HW2 5398   4.378   6.232   3.691  2.0032  0.5282 -0.8188
 1408SOL    HW3 5399   4.308   6.308   3.580 -1.4384 -0.9921  0.1786
 1408SOL    MW4 5400   4.372   6.256   3.607  0.0053  0.1661 -0.8242
 1409SOL     OW 5401   6.250   3.209   3.374 -0.5119  0.0737  0.1568
 1409SOL    HW2 5402   6.332   3.203   3.423  0.0985  1.0979 -0.6937
 1409SOL    HW3 5403   6.220   3.299   3.387 -0.8581  0.0675 -0.5161
 1409SOL    MW4 5404   6.257   3.220   3.382 -0.4771  0.2080 -0.0442
 1410SOL     OW 5405   3.384   4.115   4.714 -0.3970 -0.0090  1.1476
 1410SOL    HW2 5406   3.415   4.031   4.681  0.7152  0.3361  1.2581
 1410SOL    HW3 5407   3.465   4.165   4.731 -1.0275  1.5180 -0.0644
 1410SOL    MW4 5408   3.399   4.111   4.712 -0.3334  0.2380  1.0023
 1411SOL     OW 5409   4.218   4.685   0.289 -0.4173 -0.6366 -0.0421
 1411SOL    HW2 5410   4.168   4.767   0.291  0.2249 -0.2504  0.7102
 1411SOL    HW3 5411   4.242   4.670   0.380  2.5934  0.2944 -0.5673
 1411SOL    MW4 5412   4.215   4.694   0.301  0.0647 -0.4628 -0.0121
 1412SOL     OW 5413   3.624   6.414   3.775 -0.3621  0.5142  0.4743
 1412SOL    HW2 5414   3.615   6.502   3.738 -2.6306 -0.3314 -1.1780
 1412SOL    HW3 5415   3.592   6.355   3.707  2.8298 -1.8367  0.7528
 1412SOL    MW4 5416   3.619   6.418   3.761 -0.2403  0.0925  0.2931
 1413SOL     OW 5417   2.864   3.279   0.225  0.4556 -0.1590  0.0066
 1413SOL    HW2 5418   2.779   3.306   0.190 -0.0431 -1.5660  0.0888
 1413SOL    HW3 5419   2.842   3.225   0.301  1.3334 -2.2534 -1.1517
 1413SOL    MW4 5420   2.850   3.276   0.231  0.5057 -0.6209 -0.1353
 1414SOL     OW 5421   4.202   4.497   5.054 -0.2062  0.2044 -0.0883
 1414SOL    HW2 5422   4.217   4.466   5.143 -0.9842  1.0200  0.3375
 1414SOL    HW3 5423   4.190   4.591   5.063  1.4609  0.5793 -1.2861
 1414SOL    MW4 5424   4.202   4.505   5.067 -0.0889  0.3615 -0.1902
 1415SOL     OW 5425   3.750   5.920   4.680 -0.0884 -0.4250  0.3611
 1415SOL    HW2 5426   3.767   6.013   4.663 -0.1652 -0.4033  0.4041
 1415SOL    HW3 5427   3.659   5.906   4.652 -0.1365 -0.4448  0.5310
 1415SOL    MW4 5428   3.740   5.930   4.674 -0.1049 -0.4247  0.3892
 1416SOL     OW 5429   4.003   5.713   2.943  0.9808  0.2792 -0.7677
 1416SOL    HW2 5430   3.987   5.796   2.898  0.9237  0.7828  0.1539
 1416SOL    HW3 5431   3.916   5.686   2.975  1.1261  0.2773 -0.3707
 1416SOL    MW4 5432   3.989   5.720   2.941  0.9924  0.3454 -0.5937
 1417SOL     OW 5433   0.796   1.630   4.651 -0.4981 -0.1360  0.5506
 1417SOL    HW2 5434   0.822   1.539   4.641 -1.6265 -0.4304  0.2275
 1417SOL    HW3 5435   0.879   1.677   4.666  0.1447 -1.1207  0.1446
 1417SOL    MW4 5436   0.811   1.624   4.652 -0.5621 -0.3048  0.4544
 1418SOL     OW 5437   4.301   3.169   3.858  0.2704  0.2755  0.7949
 1418SOL    HW2 5438   4.365   3.104   3.885 -0.5318 -1.9780 -2.1656
 1418SOL    HW3 5439   4.218   3.138   3.893 -0.1415 -0.4966 -0.7523
 1418SOL    MW4 5440   4.298   3.157   3.866  0.1102 -0.1237  0.2002
 1419SOL     OW 5441   5.851   6.323   3.280 -0.4916 -0.4727  0.1670
 1419SOL    HW2 5442   5.792   6.247   3.274 -0.4735 -0.3663 -2.4877
 1419SOL    HW3 5443   5.917   6.307   3.213  1.0568  0.6624  1.3604
 1419SOL    MW4 5444   5.852   6.311   3.270 -0.2849 -0.3089 -0.0258
 1420SOL     OW 5445   0.514   1.007   5.401  0.2195  0.3301  0.6917
 1420SOL    HW2 5446   0.490   0.927   5.449  0.3656  0.8184  1.5931
 1420SOL    HW3 5447   0.607   0.996   5.381  0.4387  0.6295  1.5255
 1420SOL    MW4 5448   0.523   0.995   5.404  0.2677  0.4340  0.9206
 1421SOL     OW 5449   6.332   1.167   4.820  0.1017  0.2027 -0.3258
 1421SOL    HW2 5450   6.263   1.150   4.885  2.0407 -2.3016  1.2699
 1421SOL    HW3 5451   6.388   1.233   4.861  0.6512 -0.4890  0.0698
 1421SOL    MW4 5452   6.330   1.173   4.834  0.4300 -0.2190 -0.0631
 1422SOL     OW 5453   1.820   5.250   6.381 -0.4202 -0.4207 -0.6497
 1422SOL    HW2 5454   1.734   5.215   6.402 -1.7291  2.1280 -1.3715
 1422SOL    HW3 5455   1.852   5.195   6.309 -0.2799 -2.9098  1.1848
 1422SOL    MW4 5456   1.813   5.238   6.375 -0.5744 -0.4129 -0.5029
 1423SOL     OW 5457   2.781   5.663   4.754 -0.9196 -0.2359  0.3677
 1423SOL    HW2 5458   2.750   5.661   4.663 -1.9403  0.4024  0.6873
 1423SOL    HW3 5459   2.713   5.618   4.803  0.8029 -2.8578  0.5248
 1423SOL    MW4 5460   2.768   5.657   4.748 -0.8270 -0.4976  0.4306
 1424SOL     OW 5461   1.578   3.513   5.366 -0.0806  0.2057 -0.0244
 1424SOL    HW2 5462   1.632   3.435   5.375 -0.2681  0.1494  0.6168
 1424SOL    HW3 5463   1.530   3.499   5.284 -1.6640 -1.3130  1.1011
 1424SOL    MW4 5464   1.579   3.501   5.356 -0.3143 -0.0021  0.2087
 1425SOL     OW 5465   4.247   4.395   2.336 -0.0739 -0.4885  0.2020
 1425SOL    HW2 5466   4.271   4.338   2.263 -1.6891 -0.3338 -0.4981
 1425SOL    HW3 5467   4.159   4.425   2.315  0.2457  1.2810  1.1808
 1425SOL    MW4 5468   4.239   4.391   2.324 -0.2448 -0.2346  0.2388
 1426SOL     OW 5469   0.134   4.190   3.557  0.1356  0.0850 -0.7011
 1426SOL    HW2 5470   0.170   4.107   3.525 -0.0794 -0.0165 -0.6820
 1426SOL    HW3 5471   0.205   4.253   3.547  1.0736 -0.5713  1.3171
 1426SOL    MW4 5472   0.148   4.187   3.552  0.2310 -0.0150 -0.4323
 1427SOL     OW 5473   1.531   5.938   2.085  0.0830  0.1388 -0.2358
 1427SOL    HW2 5474   1.513   5.982   2.168 -0.4171  2.4799 -1.4850
 1427SOL    HW3 5475   1.531   6.009   2.020 -1.0574 -1.7766 -2.4687
 1427SOL    MW4 5476   1.529   5.953   2.087 -0.1335  0.1949 -0.6952
 1428SOL     OW 5477   4.736   4.406   4.121  0.7045  0.7900 -0.7489
 1428SOL    HW2 5478   4.644   4.422   4.098  0.7162  0.4533 -1.0550
 1428SOL    HW3 5479   4.736   4.393   4.215  0.7605  2.9945 -0.4034
 1428SOL    MW4 5480   4.724   4.407   4.130  0.7134  1.0364 -0.7437
 1429SOL     OW 5481   3.188   1.358   4.397  0.1381 -0.0957 -0.3730
 1429SOL    HW2 5482   3.204   1.266   4.419  0.2599  0.1311  0.5169
 1429SOL    HW3 5483   3.182   1.402   4.481 -3.3398  0.1620 -0.6136
 1429SOL    MW4 5484   3.189   1.351   4.411 -0.3047 -0.0318 -0.2873
 1430SOL     OW 5485   5.079   5.154   0.542  0.5125  0.0895  0.3971
 1430SOL    HW2 5486   5.117   5.207   0.612 -0.2968  0.8459  0.2796
 1430SOL    HW3 5487   5.058   5.216   0.473  0.1396 -0.4725 -0.0047
 1430SOL    MW4 5488   5.081   5.169   0.542  0.3565  0.1151  0.3286
 1431SOL     OW 5489   3.182   1.708   3.769  0.2976  0.6801 -0.5085
 1431SOL    HW2 5490   3.093   1.701   3.736  0.1223  0.8000 -0.0615
 1431SOL    HW3 5491   3.219   1.782   3.722 -0.8464  2.6683  1.5480
 1431SOL    MW4 5492   3.175   1.717   3.758  0.1235  0.9583 -0.1782
 1432SOL     OW 5493   6.113   4.825   3.831 -0.1353  0.6279  0.5871
 1432SOL    HW2 5494   6.134   4.875   3.910 -0.2451  2.2322 -0.3604
 1432SOL    HW3 5495   6.063   4.886   3.777  0.6161 -0.1694 -1.0670
 1432SOL    MW4 5496   6.109   4.839   3.834 -0.0507  0.7344  0.2438
 1433SOL     OW 5497   5.412   3.545   1.828  0.3109  0.1773  0.3911
 1433SOL    HW2 5498   5.486   3.596   1.861  0.7827  0.6729 -1.3637
 1433SOL    HW3 5499   5.339   3.570   1.885  1.1630  0.7141  1.2750
 1433SOL    MW4 5500   5.412   3.555   1.840  0.4856  0.3135  0.2762
 1434SOL     OW 5501   3.614   1.718   2.669 -0.4239 -0.1771 -0.1348
 1434SOL    HW2 5502   3.688   1.661   2.648 -1.1505 -0.9405 -0.6939
 1434SOL    HW3 5503   3.635   1.801   2.626  1.0710  0.3146  1.4475
 1434SOL    MW4 5504   3.626   1.722   2.660 -0.3225 -0.2130  0.0002
 1435SOL     OW 5505   4.667   2.947   0.525 -0.0953 -0.3369 -0.0152
 1435SOL    HW2 5506   4.636   2.915   0.610 -1.6735  1.9542  0.3591
 1435SOL    HW3 5507   4.589   2.943   0.469  0.0446  1.2868 -0.3712
 1435SOL    MW4 5508   4.652   2.942   0.529 -0.2850  0.1796 -0.0128
 1436SOL     OW 5509   5.575   0.582   1.024 -0.4461 -0.2568 -0.1469
 1436SOL    HW2 5510   5.656   0.540   0.993 -0.7881 -0.7041 -0.4362
 1436SOL    HW3 5511   5.606   0.654   1.079  0.1340 -1.4003  1.0529
 1436SOL    MW4 5512   5.590   0.586   1.027 -0.4147 -0.4667 -0.0267
 1437SOL     OW 5513   4.114   3.036   4.737  0.3087 -0.1578  0.2445
 1437SOL    HW2 5514   4.204   3.005   4.727 -0.5007 -2.0083 -2.0564
 1437SOL    HW3 5515   4.060   2.958   4.725 -1.6344  0.4726  3.6176
 1437SOL    MW4 5516   4.119   3.022   4.734 -0.0544 -0.3188  0.3860
 1438SOL     OW 5517   2.435   4.414   3.891  0.1215  0.3411  0.7061
 1438SOL    HW2 5518   2.349   4.377   3.911 -0.0754 -0.1005 -0.8536
 1438SOL    HW3 5519   2.495   4.365   3.946 -0.2695 -1.5861 -0.4987
 1438SOL    MW4 5520   2.431   4.403   3.901  0.0439  0.0286  0.3413
 1439SOL     OW 5521   2.489   2.932   4.881  0.3678 -0.6312 -0.0126
 1439SOL    HW2 5522   2.541   3.000   4.925  0.3371 -0.2434 -0.5679
 1439SOL    HW3 5523   2.502   2.854   4.935  0.3854 -0.1813  0.6446
 1439SOL    MW4 5524   2.498   2.931   4.894  0.3661 -0.5207  0.0008
 1440SOL     OW 5525   3.097   5.752   2.384  0.1617  0.0849 -0.8612
 1440SOL    HW2 5526   3.168   5.762   2.448 -0.5287 -0.2756 -0.0126
 1440SOL    HW3 5527   3.085   5.840   2.348  0.5055  0.3159 -0.4275
 1440SOL    MW4 5528   3.104   5.765   2.388  0.1159  0.0678 -0.6920
 1441SOL     OW 5529   3.245   3.023   0.350 -0.4662 -0.0409  0.4653
 1441SOL    HW2 5530   3.216   3.100   0.400  0.8939  2.3335 -2.1474
 1441SOL    HW3 5531   3.164   2.979   0.325 -1.3329  1.1159  1.1386
 1441SOL    MW4 5532   3.230   3.027   0.353 -0.4011  0.4250  0.2094
 1442SOL     OW 5533   3.809   5.448   2.400  0.0015 -0.1776  0.0519
 1442SOL    HW2 5534   3.879   5.506   2.370 -1.2579  0.8774 -0.9871
 1442SOL    HW3 5535   3.847   5.399   2.472  1.3697  1.3774  0.4373
 1442SOL    MW4 5536   3.823   5.449   2.405  0.0159  0.1668 -0.0343
 1443SOL     OW 5537   2.687   1.302   5.744 -0.0975  0.1870 -0.0985
 1443SOL    HW2 5538   2.615   1.363   5.758 -1.5303 -0.7844 -2.5765
 1443SOL    HW3 5539   2.765   1.351   5.769 -1.1683  3.0481 -1.8667
 1443SOL    MW4 5540   2.688   1.316   5.749 -0.4278  0.4363 -0.6588
 1444SOL     OW 5541   0.779   1.281   2.676  0.5139  0.4478 -0.0540
 1444SOL    HW2 5542   0.755   1.319   2.591  1.1509  0.0501 -0.4188
 1444SOL    HW3 5543   0.777   1.355   2.736 -1.2749  0.5009 -0.1222
 1444SOL    MW4 5544   0.776   1.296   2.672  0.3620  0.4023 -0.1111
 1445SOL     OW 5545   6.245   3.862   4.193 -0.1190 -0.3897 -0.0844
 1445SOL    HW2 5546   6.205   3.794   4.248  1.1375 -3.0062 -2.1852
 1445SOL    HW3 5547   6.177   3.885   4.130 -0.8711  1.0994  1.2160
 1445SOL    MW4 5548   6.231   3.856   4.192 -0.0525 -0.5385 -0.1900
 1446SOL     OW 5549   5.490   1.857   2.553  0.0474 -0.0119  0.3964
 1446SOL    HW2 5550   5.479   1.856   2.458 -0.6251  1.5903  0.4311
 1446SOL    HW3 5551   5.488   1.949   2.577  2.0675 -0.2661  1.7838
 1446SOL    MW4 5552   5.488   1.869   2.543  0.2252  0.1659  0.5840
 1447SOL     OW 5553   2.413   4.268   0.501  0.2592 -0.0927 -0.3976
 1447SOL    HW2 5554   2.384   4.326   0.431 -0.2887 -0.0570 -0.1455
 1447SOL    HW3 5555   2.505   4.291   0.514  0.2781  0.1230 -0.8804
 1447SOL    MW4 5556   2.421   4.278   0.494  0.1894 -0.0595 -0.4280
 1448SOL     OW 5557   5.930   3.636   6.367  0.0356 -0.6502  0.1773
 1448SOL    HW2 5558   5.894   3.721   6.341  2.8748  0.3008 -1.0181
 1448SOL    HW3 5559   5.901   3.625   6.457 -3.3694 -0.1800 -0.6849
 1448SOL    MW4 5560   5.921   3.646   6.375 -0.0390 -0.4627 -0.0942
 1449SOL     OW 5561   6.374   3.706   0.716  0.1791 -0.5812 -0.8731
 1449SOL    HW2 5562   6.305   3.722   0.652 -1.7698 -0.1566  1.1959
 1449SOL    HW3 5563   6.417   3.791   0.726  0.3947 -0.6162 -1.5212
 1449SOL    MW4 5564   6.370   3.719   0.709 -0.0496 -0.5298 -0.6856
 1450SOL     OW 5565   1.540   2.640   1.586  0.6103  0.1787  0.0576
 1450SOL    HW2 5566   1.476   2.659   1.655 -0.3596  1.3814 -1.1358
 1450SOL    HW3 5567   1.525   2.547   1.566  0.4068  0.0021  0.9474
 1450SOL    MW4 5568   1.529   2.630   1.593  0.4555  0.3141  0.0176
 1451SOL     OW 5569   5.376   3.871   5.604  0.5607  0.1749 -0.0424
 1451SOL    HW2 5570   5.468   3.861   5.577  0.4922  0.4681 -0.3912
 1451SOL    HW3 5571   5.382   3.909   5.692  0.8000 -1.7166  0.8014
 1451SOL    MW4 5572   5.389   3.875   5.612  0.5833 -0.0360  0.0229
 1452SOL     OW 5573   3.832   1.596   0.976  0.1820  0.1897 -0.3616
 1452SOL    HW2 5574   3.854   1.663   1.040 -0.8587  0.9419 -0.7601
 1452SOL    HW3 5575   3.857   1.513   1.018 -2.4469  0.4339  2.0054
 1452SOL    MW4 5576   3.838   1.594   0.990 -0.3021  0.3212 -0.1019
 1453SOL     OW 5577   1.826   5.110   1.165  0.4439 -0.0685 -0.3084
 1453SOL    HW2 5578   1.915   5.098   1.130  0.1825 -2.1410 -0.3750
 1453SOL    HW3 5579   1.772   5.125   1.088  0.8295  2.3895 -0.1975
 1453SOL    MW4 5580   1.831   5.110   1.150  0.4603 -0.0176 -0.3026
 1454SOL     OW 5581   0.789   0.579   0.447 -0.0045  0.2762  0.0767
 1454SOL    HW2 5582   0.842   0.506   0.481  0.1989  0.5513  0.3528
 1454SOL    HW3 5583   0.827   0.599   0.362 -0.5029 -0.4033 -0.3168
 1454SOL    MW4 5584   0.801   0.572   0.440 -0.0434  0.2229  0.0612
 1455SOL     OW 5585   5.580   1.920   0.199 -0.5032  0.0028  0.2281
 1455SOL    HW2 5586   5.526   1.888   0.127 -2.5382 -1.2214  2.1840
 1455SOL    HW3 5587   5.556   2.013   0.206 -1.5646 -0.2578  0.3409
 1455SOL    MW4 5588   5.569   1.928   0.190 -0.9117 -0.1931  0.5010
 1456SOL     OW 5589   0.834   4.887   5.117  0.1764 -0.4200 -0.4899
 1456SOL    HW2 5590   0.853   4.851   5.204 -1.4226 -1.1246 -0.3974
 1456SOL    HW3 5591   0.896   4.958   5.106 -1.3009  1.4779  2.3796
 1456SOL    MW4 5592   0.845   4.891   5.127 -0.2295 -0.2625 -0.0991
 1457SOL     OW 5593   1.617   6.280   3.943 -0.2643 -0.2536 -0.4365
 1457SOL    HW2 5594   1.699   6.327   3.957 -0.7814  0.5186  0.0272
 1457SOL    HW3 5595   1.600   6.290   3.849 -0.3638  0.4830 -0.3459
 1457SOL    MW4 5596   1.626   6.287   3.932 -0.3456 -0.0545 -0.3634
 1458SOL     OW 5597   4.870   2.245   4.460  0.0746 -0.0401 -0.5233
 1458SOL    HW2 5598   4.839   2.335   4.448 -1.9503 -0.6021  0.0631
 1458SOL    HW3 5599   4.931   2.250   4.534 -0.3422  0.7748 -0.2261
 1458SOL    MW4 5600   4.874   2.258   4.468 -0.2476 -0.0067 -0.4067
 1459SOL     OW 5601   0.124   0.080   5.219  0.2413 -0.0437  0.2861
 1459SOL    HW2 5602   0.142   0.164   5.262 -1.8588  0.6200 -0.0142
 1459SOL    HW3 5603   0.030   0.083   5.199  0.0724 -2.5232  0.3795
 1459SOL    MW4 5604   0.114   0.091   5.222 -0.0580 -0.2833  0.2588
 1460SOL     OW 5605   5.368   3.428   1.506 -0.3316  0.4601 -0.5717
 1460SOL    HW2 5606   5.419   3.403   1.583  3.0040 -2.4661 -3.3365
 1460SOL    HW3 5607   5.297   3.481   1.540  1.6818  0.5553  4.2962
 1460SOL    MW4 5608   5.365   3.432   1.521  0.3741  0.0866 -0.2942
 1461SOL     OW 5609   4.752   6.234   1.377 -0.0937  0.5866 -0.1363
 1461SOL    HW2 5610   4.757   6.253   1.284  2.0290 -2.2411 -0.7572
 1461SOL    HW3 5611   4.836   6.264   1.412 -1.2012  2.4157  1.1370
 1461SOL    MW4 5612   4.764   6.240   1.369  0.0402  0.4548 -0.0502
 1462SOL     OW 5613   4.889   3.778   3.926  0.4749 -0.7103  0.0222
 1462SOL    HW2 5614   4.843   3.793   3.843  0.0738 -0.8188  0.2260
 1462SOL    HW3 5615   4.827   3.729   3.979  0.5012 -0.1020  0.6215
 1462SOL    MW4 5616   4.875   3.773   3.922  0.4254 -0.6444  0.1281
 1463SOL     OW 5617   2.352   2.542   3.743  0.4972  0.3948  0.3792
 1463SOL    HW2 5618   2.395   2.545   3.657 -1.3050  0.0924 -0.5940
 1463SOL    HW3 5619   2.264   2.511   3.724 -0.0149  0.5315  2.3406
 1463SOL    MW4 5620   2.346   2.539   3.729  0.1919  0.3729  0.5096
 1464SOL     OW 5621   0.839   4.333   3.974  0.6198 -0.3470 -0.1272
 1464SOL    HW2 5622   0.811   4.425   3.978 -0.9421 -0.7837 -0.7054
 1464SOL    HW3 5623   0.911   4.334   3.911  1.5599  0.6787  0.8912
 1464SOL    MW4 5624   0.845   4.345   3.966  0.5378 -0.2692 -0.0691
 1465SOL     OW 5625   4.959   5.315   0.046 -0.0049  0.1848  0.2071
 1465SOL    HW2 5626   5.023   5.369  -0.001  0.0856 -0.0143  0.0998
 1465SOL    HW3 5627   4.978   5.226   0.018 -0.9846  0.2181 -0.6081
 1465SOL    MW4 5628   4.970   5.310   0.036 -0.1222  0.1629  0.0854
 1466SOL     OW 5629   0.478   3.959   4.255  0.0242  0.0553  0.2303
 1466SOL    HW2 5630   0.438   4.013   4.186  2.3273  0.4977 -0.8892
 1466SOL    HW3 5631   0.499   4.022   4.324 -1.0824 -0.1574  0.7692
 1466SOL    MW4 5632   0.476   3.975   4.255  0.1820  0.0856  0.1537
 1467SOL     OW 5633   2.064   1.759   2.782  0.3779 -0.2998  0.3634
 1467SOL    HW2 5634   2.112   1.770   2.700  0.4335  0.4681  0.4861
 1467SOL    HW3 5635   2.114   1.695   2.831 -0.1645 -1.4869 -0.5829
 1467SOL    MW4 5636   2.077   1.752   2.777  0.3136 -0.3551  0.2548
 1468SOL     OW 5637   4.137   2.700   6.051  0.4071 -0.2174 -0.2113
 1468SOL    HW2 5638   4.165   2.623   6.101  0.5087 -0.9242 -1.3426
 1468SOL    HW3 5639   4.047   2.716   6.080  0.5542 -0.4550  0.3927
 1468SOL    MW4 5640   4.129   2.692   6.062  0.4399 -0.3420 -0.2808
 1469SOL     OW 5641   3.359   1.549   0.426  0.4529  0.1270  0.0383
 1469SOL    HW2 5642   3.403   1.464   0.429  0.5770  0.1273 -1.2086
 1469SOL    HW3 5643   3.392   1.589   0.345 -0.7707  0.7066 -0.1836
 1469SOL    MW4 5644   3.369   1.543   0.416  0.3078  0.2035 -0.1555
 1470SOL     OW 5645   5.133   4.564   2.222 -0.0417 -0.3780 -0.3484
 1470SOL    HW2 5646   5.156   4.629   2.289  0.8968 -0.5980 -0.4371
 1470SOL    HW3 5647   5.101   4.488   2.271 -2.4434  0.5785 -0.2777
 1470SOL    MW4 5648   5.132   4.563   2.237 -0.2348 -0.2808 -0.3507
 1471SOL     OW 5649   4.082   3.267   6.288  0.1865  0.0667 -0.2342
 1471SOL    HW2 5650   4.127   3.226   6.214  0.2346 -0.3815  0.0386
 1471SOL    HW3 5651   4.009   3.315   6.248 -0.4536 -1.0782 -0.4843
 1471SOL    MW4 5652   4.078   3.268   6.273  0.1084 -0.1435 -0.2312
 1472SOL     OW 5653   2.005   6.324   3.235 -0.6539 -0.1378 -0.2666
 1472SOL    HW2 5654   1.950   6.379   3.290 -0.5936  0.2910 -0.6388
 1472SOL    HW3 5655   1.952   6.305   3.158 -1.2186 -1.7576  0.4574
 1472SOL    MW4 5656   1.991   6.329   3.232 -0.7205 -0.2949 -0.2202
 1473SOL     OW 5657   0.809   5.741   2.611 -0.4296 -0.4975  0.1395
 1473SOL    HW2 5658   0.758   5.788   2.677 -0.2014  0.4322 -0.3268
 1473SOL    HW3 5659   0.900   5.758   2.636 -0.3382  0.2329 -0.6568
 1473SOL    MW4 5660   0.815   5.750   2.623 -0.3875 -0.2785 -0.0271
 1474SOL     OW 5661   2.226   3.013   3.490 -0.1377  0.3395  0.3552
 1474SOL    HW2 5662   2.200   3.090   3.438 -2.1548 -0.5192 -0.0346
 1474SOL    HW3 5663   2.234   3.046   3.579 -1.0111  1.0400  0.1974
 1474SOL    MW4 5664   2.223   3.028   3.495 -0.5191  0.3187  0.2830
 1475SOL     OW 5665   6.220   1.204   1.995 -0.4399 -0.3598  0.0716
 1475SOL    HW2 5666   6.195   1.295   2.006  0.5282  0.2659 -2.3163
 1475SOL    HW3 5667   6.137   1.157   1.984 -0.8573  0.6196 -1.0727
 1475SOL    MW4 5668   6.206   1.209   1.995 -0.3673 -0.1480 -0.3944
 1476SOL     OW 5669   5.583   4.563   0.899  0.1202  0.5326  0.3006
 1476SOL    HW2 5670   5.490   4.567   0.924  0.2104  2.2136  0.5056
 1476SOL    HW3 5671   5.583   4.521   0.813 -1.0945  2.3592 -0.6709
 1476SOL    MW4 5672   5.571   4.558   0.891 -0.0282  0.9954  0.1994
 1477SOL     OW 5673   3.299   4.292   0.074  0.0293 -0.8543 -0.2951
 1477SOL    HW2 5674   3.225   4.231   0.085  0.5627 -1.4822 -0.1126
 1477SOL    HW3 5675   3.308   4.301  -0.021 -1.7264  1.0392 -0.3425
 1477SOL    MW4 5676   3.290   4.285   0.063 -0.1320 -0.6873 -0.2773
 1478SOL     OW 5677   2.106   5.183   5.928 -0.1620 -0.0070  0.4138
 1478SOL    HW2 5678   2.201   5.195   5.922  0.2762 -2.7247  0.6956
 1478SOL    HW3 5679   2.070   5.272   5.920  2.5201  1.5444  3.3747
 1478SOL    MW4 5680   2.114   5.196   5.926  0.2497 -0.1609  0.8417
 1479SOL     OW 5681   4.600   3.573   3.676  0.0126  0.5804 -0.4634
 1479SOL    HW2 5682   4.554   3.549   3.596  0.1964 -0.3292 -0.3154
 1479SOL    HW3 5683   4.532   3.604   3.735 -0.8966 -2.9582  0.6030
 1479SOL    MW4 5684   4.585   3.574   3.673 -0.0831 -0.0065 -0.3032
 1480SOL     OW 5685   2.849   0.325   5.393 -0.2685 -0.2928  0.2099
 1480SOL    HW2 5686   2.783   0.368   5.338  0.0823  0.3578  0.2924
 1480SOL    HW3 5687   2.800   0.292   5.468 -0.5440 -0.0413  0.1438
 1480SOL    MW4 5688   2.834   0.326   5.395 -0.2586 -0.1738  0.2121
 1481SOL     OW 5689   3.283   3.042   2.806 -0.0652 -0.0078 -0.0234
 1481SOL    HW2 5690   3.316   3.042   2.716 -0.1547 -0.3636 -0.0569
 1481SOL    HW3 5691   3.347   2.990   2.854  1.0141  1.7066  0.5097
 1481SOL    MW4 5692   3.296   3.035   2.800  0.0654  0.1714  0.0425
 1482SOL     OW 5693   2.659   2.175   2.070 -0.2442  0.0168 -0.4439
 1482SOL    HW2 5694   2.742   2.130   2.085 -0.5139 -0.5255 -0.5506
 1482SOL    HW3 5695   2.592   2.112   2.096 -0.6169  0.8968  0.8541
 1482SOL    MW4 5696   2.661   2.161   2.075 -0.3290  0.0614 -0.2867
 1483SOL     OW 5697   4.902   5.371   1.910 -0.0249  0.3041  0.0050
 1483SOL    HW2 5698   4.957   5.294   1.894 -1.4285 -0.6767 -0.2409
 1483SOL    HW3 5699   4.959   5.431   1.958  0.8349 -1.2335  0.9851
 1483SOL    MW4 5700   4.917   5.369   1.914 -0.0966 -0.0282  0.1019
 1484SOL     OW 5701   5.743   3.244   3.923  0.2636  0.5878 -0.3878
 1484SOL    HW2 5702   5.739   3.208   3.835 -0.6240  1.5187 -0.7567
 1484SOL    HW3 5703   5.731   3.169   3.981 -2.8499  0.3320 -1.1566
 1484SOL    MW4 5704   5.741   3.230   3.919 -0.2643  0.6769 -0.5379
 1485SOL     OW 5705   1.689   4.689   3.542  0.2308 -0.5509 -0.9759
 1485SOL    HW2 5706   1.712   4.685   3.635 -1.7288  2.7137 -0.2195
 1485SOL    HW3 5707   1.715   4.777   3.515 -1.9964 -0.3552 -2.6901
 1485SOL    MW4 5708   1.696   4.700   3.551 -0.3216 -0.0943 -1.1023
 1486SOL     OW 5709   2.106   6.240   3.979 -0.3099  0.0496  0.7953
 1486SOL    HW2 5710   2.188   6.288   3.991  1.3441 -2.0111 -1.3369
 1486SOL    HW3 5711   2.069   6.275   3.899  1.5177 -2.7128 -1.4729
 1486SOL    MW4 5712   2.112   6.251   3.970  0.1495 -0.5868  0.2147
 1487SOL     OW 5713   5.943   5.262   2.149 -0.6586  0.6947 -0.4092
 1487SOL    HW2 5714   5.918   5.347   2.186  1.5765  1.0812  0.3252
 1487SOL    HW3 5715   5.860   5.214   2.142 -1.5960  1.7988  2.0817
 1487SOL    MW4 5716   5.929   5.267   2.153 -0.4874  0.8914  0.0164
 1488SOL     OW 5717   6.056   1.935   4.762  0.4205 -0.8777 -0.3282
 1488SOL    HW2 5718   5.984   1.939   4.699  0.5666 -2.7127 -0.6617
 1488SOL    HW3 5719   6.039   1.856   4.813  1.6945 -0.8261  0.2117
 1488SOL    MW4 5720   6.044   1.925   4.761  0.6079 -1.1130 -0.3010
 1489SOL     OW 5721   3.535   5.787   1.727 -0.0925 -0.1660 -0.2906
 1489SOL    HW2 5722   3.535   5.704   1.680  2.1662 -0.7883  0.6588
 1489SOL    HW3 5723   3.593   5.844   1.677  1.2674 -0.3952  0.9759
 1489SOL    MW4 5724   3.542   5.784   1.714  0.3850 -0.2784  0.0017
 1490SOL     OW 5725   4.890   4.903   0.174 -0.2619 -0.4277 -0.4117
 1490SOL    HW2 5726   4.906   4.951   0.093  1.5902 -0.6963 -0.2464
 1490SOL    HW3 5727   4.844   4.965   0.231  1.0682  0.7906 -0.6133
 1490SOL    MW4 5728   4.886   4.918   0.171  0.1579 -0.3024 -0.4165
 1491SOL     OW 5729   3.087   6.028   2.294  0.0474  0.0130 -0.1575
 1491SOL    HW2 5730   3.182   6.036   2.299  0.0919 -0.5648 -0.0713
 1491SOL    HW3 5731   3.067   6.042   2.202  0.3136 -0.8305 -0.3555
 1491SOL    MW4 5732   3.097   6.031   2.283  0.0884 -0.1745 -0.1722
 1492SOL     OW 5733   6.317   2.201   3.961 -0.0598  0.2562  0.4423
 1492SOL    HW2 5734   6.257   2.129   3.947 -0.1943  0.4884 -0.1978
 1492SOL    HW3 5735   6.340   2.196   4.054 -1.1405  0.2271  0.7133
 1492SOL    MW4 5736   6.312   2.191   3.971 -0.2201  0.2830  0.3936
 1493SOL     OW 5737   3.291   3.163   1.392 -0.1273 -0.1235 -0.5910
 1493SOL    HW2 5738   3.249   3.239   1.432 -1.4864 -1.3313  0.3938
 1493SOL    HW3 5739   3.380   3.193   1.371 -0.0196  1.2048  1.4362
 1493SOL    MW4 5740   3.298   3.177   1.395 -0.2924 -0.1076 -0.1936
 1494SOL     OW 5741   1.234   0.707   4.747 -0.2590  0.0860  0.3643
 1494SOL    HW2 5742   1.157   0.710   4.804 -0.1683  0.3563  0.4751
 1494SOL    HW3 5743   1.221   0.780   4.686 -0.0511  0.1821  0.4351
 1494SOL    MW4 5744   1.222   0.717   4.747 -0.2196  0.1343  0.3882
 1495SOL     OW 5745   0.126   4.175   1.927 -0.2267 -0.3616 -0.0775
 1495SOL    HW2 5746   0.044   4.130   1.909 -0.7872  0.7050 -0.2766
 1495SOL    HW3 5747   0.124   4.192   2.021 -0.2054 -0.3935 -0.0712
 1495SOL    MW4 5748   0.115   4.172   1.937 -0.2979 -0.2251 -0.1029
 1496SOL     OW 5749   4.977   4.526   6.214  0.8689  0.5130  0.3984
 1496SOL    HW2 5750   4.949   4.569   6.294  2.3354 -1.3810  2.0275
 1496SOL    HW3 5751   4.920   4.449   6.207  0.7919  0.6275 -0.3560
 1496SOL    MW4 5752   4.966   4.522   6.223  1.0522  0.2782  0.5138
 1497SOL     OW 5753   5.075   3.420   5.392 -0.2293 -0.0499  0.2197
 1497SOL    HW2 5754   5.145   3.367   5.431  0.3882 -0.2284 -1.0774
 1497SOL    HW3 5755   5.026   3.359   5.337  0.3357  0.6400 -1.0887
 1497SOL    MW4 5756   5.078   3.405   5.390 -0.0733  0.0176 -0.1241
 1498SOL     OW 5757   1.159   2.409   1.946 -0.1036  0.5920  0.3309
 1498SOL    HW2 5758   1.134   2.500   1.963  0.7906  1.1908 -1.2660
 1498SOL    HW3 5759   1.081   2.369   1.908 -0.8797  0.3125  2.1079
 1498SOL    MW4 5760   1.146   2.416   1.943 -0.0880  0.6341  0.3547
 1499SOL     OW 5761   1.321   3.059   0.512 -0.1542 -0.1438  0.0206
 1499SOL    HW2 5762   1.307   2.968   0.540 -1.9893  0.3974  0.9799
 1499SOL    HW3 5763   1.235   3.089   0.484  0.1847  1.6475  0.7823
 1499SOL    MW4 5764   1.308   3.051   0.512 -0.3516  0.1640  0.2477
 1500SOL     OW 5765   6.034   2.087   2.586 -0.0689 -0.0331  0.2900
 1500SOL    HW2 5766   6.086   2.087   2.505 -1.3379 -2.1915 -0.6124
 1500SOL    HW3 5767   6.019   1.994   2.604 -2.1621  0.4907  1.4666
 1500SOL    MW4 5768   6.039   2.075   2.578 -0.5125 -0.2488  0.3262
 1501SOL     OW 5769   2.335   3.646   2.471 -0.0106  0.2931 -0.6849
 1501SOL    HW2 5770   2.410   3.599   2.434 -1.8385 -1.7490 -2.1075
 1501SOL    HW3 5771   2.334   3.730   2.427  1.4083  0.3522 -0.6420
 1501SOL    MW4 5772   2.345   3.651   2.461 -0.0646  0.0315 -0.8670
 1502SOL     OW 5773   2.597   1.413   0.296 -0.1283 -0.9919 -0.3507
 1502SOL    HW2 5774   2.515   1.364   0.306 -1.7117  1.4756 -0.4295
 1502SOL    HW3 5775   2.636   1.414   0.383 -2.4671  1.4231  0.8198
 1502SOL    MW4 5776   2.591   1.407   0.309 -0.6458 -0.3478 -0.2067
 1503SOL     OW 5777   2.347   1.393   4.114 -0.7462 -0.8113 -0.0467
 1503SOL    HW2 5778   2.314   1.482   4.119 -0.4301 -0.7218  0.5907
 1503SOL    HW3 5779   2.434   1.397   4.154 -0.3516 -1.2212 -0.8421
 1503SOL    MW4 5780   2.354   1.405   4.120 -0.6524 -0.8536 -0.0676
 1504SOL     OW 5781   2.173   3.069   0.578  0.5507 -0.1125 -0.3584
 1504SOL    HW2 5782   2.103   3.101   0.520  1.4298  2.0817 -0.2946
 1504SOL    HW3 5783   2.167   3.124   0.655  1.2937 -1.0324  0.3764
 1504SOL    MW4 5784   2.163   3.080   0.580  0.7647  0.0556 -0.2530
 1505SOL     OW 5785   0.437   1.581   4.572  0.3573 -0.0966  0.8152
 1505SOL    HW2 5786   0.479   1.636   4.638 -1.0152  1.7685  0.2034
 1505SOL    HW3 5787   0.362   1.542   4.618  1.9141 -2.4162  1.5498
 1505SOL    MW4 5788   0.432   1.583   4.587  0.3816 -0.1565  0.8314
 1506SOL     OW 5789   4.701   4.296   0.201  0.1834 -0.2437  0.3762
 1506SOL    HW2 5790   4.739   4.374   0.243  1.0097 -1.0696  1.1971
 1506SOL    HW3 5791   4.677   4.327   0.113  1.3213  0.7271  0.3691
 1506SOL    MW4 5792   4.703   4.311   0.195  0.4426 -0.2246  0.4836
 1507SOL     OW 5793   3.558   1.970   5.306  0.4103  0.2192 -0.4723
 1507SOL    HW2 5794   3.525   1.891   5.350  0.4294  0.7316  0.5063
 1507SOL    HW3 5795   3.650   1.950   5.287  0.0049 -0.5927 -1.7199
 1507SOL    MW4 5796   3.566   1.957   5.310  0.3593  0.1797 -0.5078
 1508SOL     OW 5797   6.282   2.487   1.506 -0.7155 -0.8197  0.3063
 1508SOL    HW2 5798   6.256   2.402   1.470 -0.8808 -0.0194 -1.5874
 1508SOL    HW3 5799   6.376   2.478   1.522 -0.8111 -1.4946  0.5264
 1508SOL    MW4 5800   6.291   2.474   1.503 -0.7499 -0.8032  0.0855
 1509SOL     OW 5801   4.561   6.340   2.470  0.3380 -0.2005  0.7450
 1509SOL    HW2 5802   4.652   6.334   2.441  0.2706  0.8592  0.2981
 1509SOL    HW3 5803   4.546   6.257   2.516  0.7802 -1.5008 -1.3105
 1509SOL    MW4 5804   4.571   6.328   2.472  0.3875 -0.2322  0.4148
 1510SOL     OW 5805   1.203   4.861   4.891 -0.3901 -0.4108 -0.1385
 1510SOL    HW2 5806   1.238   4.800   4.956  0.8467 -1.0232 -1.3352
 1510SOL    HW3 5807   1.278   4.883   4.835 -1.4168  0.0656 -1.3883
 1510SOL    MW4 5808   1.218   4.856   4.892 -0.3624 -0.4287 -0.4613
 1511SOL     OW 5809   1.542   2.408   0.634 -0.3948  0.1407 -0.1767
 1511SOL    HW2 5810   1.544   2.492   0.589 -1.7969  0.7041  0.7604
 1511SOL    HW3 5811   1.457   2.405   0.678 -0.1772 -1.5533  0.2282
 1511SOL    MW4 5812   1.531   2.419   0.634 -0.5511 -0.0085  0.0004
 1512SOL     OW 5813   3.183   5.650   4.856  0.3208 -0.1718  0.2086
 1512SOL    HW2 5814   3.103   5.688   4.894  0.3239  0.5289 -0.4656
 1512SOL    HW3 5815   3.228   5.724   4.816 -0.6436 -1.1124 -2.8713
 1512SOL    MW4 5816   3.178   5.665   4.856  0.1940 -0.2035 -0.2867
 1513SOL     OW 5817   0.757   4.614   6.143 -0.4783 -0.1210  0.0550
 1513SOL    HW2 5818   0.751   4.519   6.152  2.1080 -0.4894 -1.3042
 1513SOL    HW3 5819   0.777   4.645   6.231 -2.7475 -0.6110  0.8111
 1513SOL    MW4 5820   0.759   4.605   6.156 -0.4364 -0.2343 -0.0246
 1514SOL     OW 5821   0.254   4.193   0.836 -0.1811 -0.2004  0.5245
 1514SOL    HW2 5822   0.263   4.137   0.913  4.4281 -2.8892 -1.5347
 1514SOL    HW3 5823   0.328   4.253   0.842  0.3563 -0.5427 -1.7341
 1514SOL    MW4 5824   0.265   4.193   0.847  0.4979 -0.6003 -0.0452
 1515SOL     OW 5825   2.187   2.457   1.141 -0.0624 -0.0746  0.3585
 1515SOL    HW2 5826   2.213   2.463   1.050  2.3366  0.9716  1.0468
 1515SOL    HW3 5827   2.257   2.408   1.184 -1.5810 -1.3629  1.5349
 1515SOL    MW4 5828   2.200   2.451   1.135  0.0537 -0.1065  0.6046
 1516SOL     OW 5829   5.581   3.544   5.273  0.9527  0.1634  0.1496
 1516SOL    HW2 5830   5.572   3.532   5.367  1.7114  0.7066  0.3059
 1516SOL    HW3 5831   5.511   3.605   5.250  1.1461  0.5081  0.4679
 1516SOL    MW4 5832   5.571   3.551   5.282  1.0783  0.2806  0.2122
 1517SOL     OW 5833   3.898   2.119   4.178  0.1813 -0.3013  0.4487
 1517SOL    HW2 5834   3.918   2.112   4.272  0.1131 -1.0275  0.4160
 1517SOL    HW3 5835   3.803   2.113   4.173  0.2426 -1.2675  0.2618
 1517SOL    MW4 5836   3.888   2.117   4.190  0.1804 -0.5246  0.4198
 1518SOL     OW 5837   3.617   6.289   2.977  0.4372 -0.0297 -0.0299
 1518SOL    HW2 5838   3.528   6.292   2.942  0.9585  1.9111 -1.3622
 1518SOL    HW3 5839   3.609   6.323   3.066 -0.3206 -1.1383  0.3431
 1518SOL    MW4 5840   3.604   6.294   2.984  0.4060  0.0801 -0.1565
 1519SOL     OW 5841   1.114   4.596   4.449 -0.0039 -0.0229  0.3866
 1519SOL    HW2 5842   1.057   4.558   4.381 -0.6060 -2.8206  2.2960
 1519SOL    HW3 5843   1.118   4.689   4.427 -2.1776 -0.3849 -2.0444
 1519SOL    MW4 5844   1.107   4.604   4.437 -0.3701 -0.4398  0.3178
 1520SOL     OW 5845   3.998   5.819   3.821  0.0675  0.0202  0.0425
 1520SOL    HW2 5846   4.042   5.752   3.873 -1.0454 -1.1344 -0.4159
 1520SOL    HW3 5847   3.970   5.772   3.742 -0.8189  1.0048 -0.2510
 1520SOL    MW4 5848   4.000   5.804   3.817 -0.1963 -0.0023 -0.0567
 1521SOL     OW 5849   5.633   2.512   3.556 -0.3494 -0.5092 -0.1223
 1521SOL    HW2 5850   5.714   2.516   3.505  0.4867  0.1251  1.2023
 1521SOL    HW3 5851   5.586   2.591   3.532 -0.2239 -0.5047 -0.3544
 1521SOL    MW4 5852   5.638   2.523   3.546 -0.2225 -0.4249  0.0218
 1522SOL     OW 5853   1.143   2.448   1.022  0.2426 -0.3596 -0.1519
 1522SOL    HW2 5854   1.060   2.436   1.068  0.9296  1.1757  1.6402
 1522SOL    HW3 5855   1.203   2.388   1.067  1.1266  1.7540  1.6955
 1522SOL    MW4 5856   1.140   2.438   1.034  0.4499  0.1218  0.3283
 1523SOL     OW 5857   5.633   5.384   3.629  0.3137  0.2644 -0.0854
 1523SOL    HW2 5858   5.699   5.328   3.588 -2.2416 -2.3501 -0.9832
 1523SOL    HW3 5859   5.598   5.437   3.558 -0.2953 -0.2349 -0.1671
 1523SOL    MW4 5860   5.637   5.384   3.614 -0.1038 -0.1464 -0.2146
 1524SOL     OW 5861   1.589   0.273   6.307 -0.5675 -0.0439  0.4752
 1524SOL    HW2 5862   1.646   0.204   6.342  1.1097  1.7560  1.5486
 1524SOL    HW3 5863   1.650   0.341   6.278 -1.9191 -0.4688 -4.2073
 1524SOL    MW4 5864   1.605   0.273   6.307 -0.5245  0.1375 -0.0010
 1525SOL     OW 5865   5.350   1.207   4.331  0.3226  0.3029  0.2362
 1525SOL    HW2 5866   5.349   1.296   4.366  0.3684  1.0590 -1.6016
 1525SOL    HW3 5867   5.435   1.172   4.356  0.2123  0.6797  1.1816
 1525SOL    MW4 5868   5.361   1.214   4.339  0.3141  0.4524  0.1185
 1526SOL     OW 5869   3.218   3.556   3.210  0.0408 -0.2041 -0.1779
 1526SOL    HW2 5870   3.283   3.531   3.145  0.5033 -0.8416  0.5073
 1526SOL    HW3 5871   3.221   3.651   3.213  0.1130 -0.1791 -0.9791
 1526SOL    MW4 5872   3.227   3.565   3.202  0.1114 -0.2849 -0.1932
 1527SOL     OW 5873   0.899   5.721   0.655  0.1164  0.0023 -0.1173
 1527SOL    HW2 5874   0.950   5.799   0.677  0.3771 -0.6528  1.7018
 1527SOL    HW3 5875   0.816   5.732   0.701 -0.8006  0.2757 -1.7409
 1527SOL    MW4 5876   0.894   5.733   0.664  0.0298 -0.0480 -0.0915
 1528SOL     OW 5877   5.681   6.202   2.608  0.2088 -0.1475 -0.5916
 1528SOL    HW2 5878   5.656   6.294   2.601 -1.0443 -0.3644  0.5663
 1528SOL    HW3 5879   5.775   6.201   2.590  0.8191  1.7616  1.8578
 1528SOL    MW4 5880   5.690   6.214   2.605  0.1240  0.0758 -0.1157
 1529SOL     OW 5881   2.411   5.697   3.406 -0.2202 -0.0521 -0.4023
 1529SOL    HW2 5882   2.447   5.615   3.373 -1.5955 -0.3389 -1.2645
 1529SOL    HW3 5883   2.383   5.677   3.496  1.6820  0.1794  0.2926
 1529SOL    MW4 5884   2.412   5.684   3.414 -0.1507 -0.0594 -0.4244
 1530SOL     OW 5885   1.622   3.787   2.265  0.4947  0.2252  0.0919
 1530SOL    HW2 5886   1.554   3.816   2.204  0.6722  1.4600  0.4721
 1530SOL    HW3 5887   1.591   3.815   2.351 -0.0135 -1.9736  0.7038
 1530SOL    MW4 5888   1.609   3.794   2.268  0.4511  0.0980  0.2228
 1531SOL     OW 5889   2.838   3.747   5.256  0.2083  0.3739 -0.0689
 1531SOL    HW2 5890   2.831   3.816   5.322 -1.6411 -0.5172  0.7330
 1531SOL    HW3 5891   2.897   3.783   5.189 -1.2552  3.0280 -0.0429
 1531SOL    MW4 5892   2.845   3.761   5.255 -0.2288  0.6065  0.0404
 1532SOL     OW 5893   4.942   1.402   0.036  0.2717 -0.0544  0.2066
 1532SOL    HW2 5894   4.998   1.327   0.057 -0.1150 -0.6059 -0.6633
 1532SOL    HW3 5895   4.994   1.455  -0.025  0.9509  0.9496  1.6201
 1532SOL    MW4 5896   4.957   1.399   0.030  0.3103  0.0053  0.2783
 1533SOL     OW 5897   2.334   2.098   2.701 -0.2044  0.4480  0.6695
 1533SOL    HW2 5898   2.248   2.138   2.714 -0.5054  0.1976 -0.3910
 1533SOL    HW3 5899   2.315   2.010   2.669  0.4555 -0.3591  2.4119
 1533SOL    MW4 5900   2.320   2.092   2.698 -0.1571  0.3084  0.7595
 1534SOL     OW 5901   4.049   0.829   3.991 -0.0230 -0.2612  0.1943
 1534SOL    HW2 5902   3.960   0.842   3.960 -0.1644 -0.4172  0.5250
 1534SOL    HW3 5903   4.094   0.911   3.973 -0.5109  0.1877  0.9669
 1534SOL    MW4 5904   4.044   0.841   3.985 -0.1060 -0.2226  0.3399
 1535SOL     OW 5905   3.247   3.047   2.517 -0.6684 -0.3625  0.1370
 1535SOL    HW2 5906   3.258   2.984   2.446 -1.0005 -2.3992  1.8083
 1535SOL    HW3 5907   3.152   3.059   2.523 -0.5711  1.6323 -1.1990
 1535SOL    MW4 5908   3.236   3.041   2.508 -0.6994 -0.3680  0.1812
 1536SOL     OW 5909   4.418   4.236   4.264 -0.4857  0.3192  0.9397
 1536SOL    HW2 5910   4.441   4.194   4.347  1.7949 -1.7823 -0.5970
 1536SOL    HW3 5911   4.387   4.164   4.209 -1.6136  1.5997 -0.1658
 1536SOL    MW4 5912   4.417   4.221   4.267 -0.3336  0.2109  0.5911
 1537SOL     OW 5913   3.146   1.501   5.636 -0.6248  0.1473 -0.0204
 1537SOL    HW2 5914   3.054   1.499   5.660 -0.2399  1.8374  1.8563
 1537SOL    HW3 5915   3.154   1.576   5.576 -0.6222 -0.6730 -1.0812
 1537SOL    MW4 5916   3.135   1.511   5.631 -0.5737  0.2621  0.0872
 1538SOL     OW 5917   5.886   0.884   4.098  0.2078 -0.1602  0.4581
 1538SOL    HW2 5918   5.895   0.879   4.194  0.3954 -0.5290  0.4238
 1538SOL    HW3 5919   5.952   0.823   4.065 -0.0887 -0.2876  0.0994
 1538SOL    MW4 5920   5.896   0.875   4.107  0.1935 -0.2257  0.4063
 1539SOL     OW 5921   1.169   0.500   5.881  0.1410  0.1304 -0.0220
 1539SOL    HW2 5922   1.237   0.524   5.819  0.2641  0.1906  0.1361
 1539SOL    HW3 5923   1.216   0.486   5.964 -0.1227  0.8402  0.2551
 1539SOL    MW4 5924   1.184   0.501   5.884  0.1225  0.2320  0.0354
 1540SOL     OW 5925   4.548   2.209   4.237  0.6721 -0.7094 -0.0978
 1540SOL    HW2 5926   4.580   2.195   4.326  2.1261 -0.0221 -0.4990
 1540SOL    HW3 5927   4.546   2.122   4.198  1.8590 -0.8046  0.0178
 1540SOL    MW4 5928   4.552   2.196   4.243  1.0205 -0.6313 -0.1355
 1541SOL     OW 5929   0.231   0.628   4.460  0.1948  0.0522  0.2308
 1541SOL    HW2 5930   0.164   0.656   4.397  0.2435 -1.2961 -0.4587
 1541SOL    HW3 5931   0.200   0.661   4.544 -1.0807 -0.0990 -0.1557
 1541SOL    MW4 5932   0.218   0.636   4.463  0.0329 -0.1456  0.0889
 1542SOL     OW 5933   0.028   5.869   1.111 -0.3038  0.0824 -0.3452
 1542SOL    HW2 5934  -0.013   5.950   1.142 -2.2101 -1.3756  1.2044
 1542SOL    HW3 5935   0.035   5.881   1.016  1.0111  2.6789  0.0096
 1542SOL    MW4 5936   0.023   5.881   1.102 -0.3818  0.2326 -0.0939
 1543SOL     OW 5937   5.857   0.992   3.845  0.3253 -0.7054 -0.3636
 1543SOL    HW2 5938   5.845   0.957   3.933 -1.4453 -1.2884 -0.7900
 1543SOL    HW3 5939   5.844   0.917   3.787  0.8267 -0.2008 -1.1589
 1543SOL    MW4 5940   5.854   0.978   3.849  0.1578 -0.7157 -0.5248
 1544SOL     OW 5941   3.259   6.255   4.634  0.1939  0.6557 -0.1010
 1544SOL    HW2 5942   3.226   6.234   4.547  1.9359 -0.0588 -0.6341
 1544SOL    HW3 5943   3.283   6.171   4.672  0.9594  1.0916  0.4208
 1544SOL    MW4 5944   3.258   6.241   4.627  0.5247  0.6190 -0.1025
 1545SOL     OW 5945   2.772   4.126   2.248  0.2250  0.0507  0.3226
 1545SOL    HW2 5946   2.679   4.107   2.255  0.3123 -0.3876  0.3207
 1545SOL    HW3 5947   2.776   4.211   2.203 -0.2163  0.8312  1.6948
 1545SOL    MW4 5948   2.760   4.135   2.243  0.1783  0.0959  0.5034
 1546SOL     OW 5949   1.009   3.186   1.140 -0.1393 -0.4510  0.2844
 1546SOL    HW2 5950   1.064   3.129   1.085  0.0730 -0.4226  0.4639
 1546SOL    HW3 5951   1.072   3.238   1.190 -0.2885  1.3169 -1.2361
 1546SOL    MW4 5952   1.025   3.185   1.139 -0.1310 -0.2140  0.1075
 1547SOL     OW 5953   3.899   0.419   4.560 -0.2627 -0.3452  0.1970
 1547SOL    HW2 5954   3.863   0.470   4.487 -0.4596  1.0310  1.2126
 1547SOL    HW3 5955   3.881   0.328   4.537  2.0870 -0.2241 -2.7892
 1547SOL    MW4 5956   3.892   0.414   4.547  0.0213 -0.1476 -0.0630
 1548SOL     OW 5957   3.679   5.649   3.895 -0.1643  0.0393  0.0901
 1548SOL    HW2 5958   3.614   5.611   3.955 -2.6853  2.9558 -0.5552
 1548SOL    HW3 5959   3.713   5.725   3.942 -0.3854  0.9586 -1.1900
 1548SOL    MW4 5960   3.675   5.654   3.909 -0.5261  0.5454 -0.1639
 1549SOL     OW 5961   0.663   1.608   3.993 -0.4503 -0.1381  0.0818
 1549SOL    HW2 5962   0.611   1.687   4.005  1.2998  1.0641  0.1336
 1549SOL    HW3 5963   0.725   1.609   4.067 -0.2214 -1.4091 -0.0757
 1549SOL    MW4 5964   0.665   1.619   4.005 -0.1892 -0.1471  0.0679
 1550SOL     OW 5965   2.267   1.224   6.039  0.2501 -0.1172  0.0411
 1550SOL    HW2 5966   2.196   1.286   6.055  0.6783 -0.1328  2.3157
 1550SOL    HW3 5967   2.342   1.279   6.017  0.4838  0.1654  1.4765
 1550SOL    MW4 5968   2.267   1.240   6.038  0.3374 -0.0820  0.5306
 1551SOL     OW 5969   4.289   4.886   5.282 -0.3452 -0.2273  0.6274
 1551SOL    HW2 5970   4.284   4.795   5.310 -1.5681 -0.0086  1.2274
 1551SOL    HW3 5971   4.266   4.936   5.361 -2.4907  0.4761 -0.3625
 1551SOL    MW4 5972   4.285   4.881   5.296 -0.7896 -0.1057  0.5759
 1552SOL     OW 5973   2.896   2.105   5.049  0.6396  0.2195  0.1974
 1552SOL    HW2 5974   2.983   2.065   5.057 -0.0773 -1.3751  0.4282
 1552SOL    HW3 5975   2.837   2.031   5.035 -0.8474  1.1404  1.2961
 1552SOL    MW4 5976   2.900   2.090   5.048  0.3488  0.1306  0.3728
 1553SOL     OW 5977   1.298   3.446   2.559 -0.0057  0.4819  0.0057
 1553SOL    HW2 5978   1.390   3.423   2.575  0.6150  1.7099 -1.5136
 1553SOL    HW3 5979   1.269   3.488   2.640 -0.3277 -2.8965  1.7837
 1553SOL    MW4 5980   1.306   3.449   2.571  0.0337  0.1982  0.0399
 1554SOL     OW 5981   4.355   2.930   1.993  0.2428 -0.2434  0.2322
 1554SOL    HW2 5982   4.413   2.993   1.950 -0.6883 -0.8724 -2.1281
 1554SOL    HW3 5983   4.383   2.845   1.959  0.1581 -0.9159  1.7740
 1554SOL    MW4 5984   4.366   2.927   1.983  0.1088 -0.4151  0.1242
 1555SOL     OW 5985   2.922   5.297   4.803 -0.2563  0.1966  0.1989
 1555SOL    HW2 5986   2.840   5.303   4.754 -0.7331 -1.2039  0.7646
 1555SOL    HW3 5987   2.983   5.353   4.755  0.2248 -3.2989 -3.8810
 1555SOL    MW4 5988   2.919   5.305   4.790 -0.2557 -0.4494 -0.2647
 1556SOL     OW 5989   3.282   4.954   1.395 -0.2070  0.0935 -0.1760
 1556SOL    HW2 5990   3.348   5.006   1.351 -0.3276 -1.3093 -2.1435
 1556SOL    HW3 5991   3.204   4.961   1.340 -0.7411 -0.7636  0.4260
 1556SOL    MW4 5992   3.280   4.962   1.382 -0.2934 -0.2047 -0.3561
 1557SOL     OW 5993   5.624   1.016   4.719 -0.6251  0.7585  0.6935
 1557SOL    HW2 5994   5.570   1.095   4.729  3.8110  4.0758  1.4703
 1557SOL    HW3 5995   5.641   1.011   4.625  0.1207  1.5912  0.7707
 1557SOL    MW4 5996   5.619   1.026   4.708  0.0586  1.3061  0.8062
 1558SOL     OW 5997   1.095   3.018   3.366  0.8113 -0.1937 -0.2118
 1558SOL    HW2 5998   1.115   2.948   3.428 -0.9924  0.0570  0.7423
 1558SOL    HW3 5999   1.179   3.057   3.345  1.9347 -2.8863 -1.0993
 1558SOL    MW4 6000   1.109   3.014   3.371  0.7215 -0.5159 -0.2030
 1559SOL     OW 6001   0.102   3.765   2.409 -0.8065  0.0621 -0.1203
 1559SOL    HW2 6002   0.117   3.860   2.404 -0.8391  0.1759  1.6317
 1559SOL    HW3 6003   0.009   3.755   2.385 -0.6108  0.3711 -1.0746
 1559SOL    MW4 6004   0.091   3.776   2.405 -0.7850  0.1179 -0.0151
 1560SOL     OW 6005   5.050   1.898   0.920  1.0959  0.2136  0.0560
 1560SOL    HW2 6006   4.966   1.857   0.944  1.3828 -0.5707 -0.2383
 1560SOL    HW3 6007   5.059   1.879   0.826  0.3260  2.6244 -0.5777
 1560SOL    MW4 6008   5.040   1.890   0.911  1.0321  0.4282 -0.0664
 1561SOL     OW 6009   5.471   1.228   0.117 -0.1189 -0.5008  0.5760
 1561SOL    HW2 6010   5.546   1.250   0.062 -0.6479 -1.8397 -0.7504
 1561SOL    HW3 6011   5.508   1.212   0.204  1.0888 -0.7804  0.0239
 1561SOL    MW4 6012   5.486   1.229   0.121 -0.0294 -0.7143  0.3282
 1562SOL     OW 6013   4.308   1.453   6.220 -0.2222  0.3927 -0.5638
 1562SOL    HW2 6014   4.321   1.470   6.127  1.1527 -1.0082 -0.6727
 1562SOL    HW3 6015   4.307   1.357   6.227  1.5218  0.4413  1.0566
 1562SOL    MW4 6016   4.310   1.442   6.209  0.1893  0.2143 -0.3644
 1563SOL     OW 6017   2.450   0.465   1.190  0.8365 -0.2391 -0.9410
 1563SOL    HW2 6018   2.504   0.409   1.135  1.3601  1.5401 -2.3110
 1563SOL    HW3 6019   2.367   0.473   1.142  0.3092 -0.8207 -0.1463
 1563SOL    MW4 6020   2.446   0.459   1.177  0.8360 -0.0811 -1.0169
 1564SOL     OW 6021   1.306   1.094   2.727  0.2026 -0.1668  0.3706
 1564SOL    HW2 6022   1.226   1.141   2.703 -0.1072 -1.0955 -0.4959
 1564SOL    HW3 6023   1.316   1.109   2.821 -0.4794  0.7193  0.3100
 1564SOL    MW4 6024   1.297   1.102   2.737  0.0718 -0.1724  0.2483
 1565SOL     OW 6025   4.579   5.379   4.928  0.7614 -0.3401 -0.0710
 1565SOL    HW2 6026   4.588   5.350   4.837  0.0242  0.3312 -0.3736
 1565SOL    HW3 6027   4.543   5.302   4.974  1.7656 -0.8979 -0.1929
 1565SOL    MW4 6028   4.576   5.365   4.922  0.7966 -0.3251 -0.1270
 1566SOL     OW 6029   1.742   4.666   2.931  0.1371  0.3088  0.1122
 1566SOL    HW2 6030   1.696   4.672   3.015  0.2644 -2.4669  0.4614
 1566SOL    HW3 6031   1.701   4.733   2.876 -2.9765 -0.7060  1.0298
 1566SOL    MW4 6032   1.731   4.676   2.935 -0.2569 -0.1913  0.2794
 1567SOL     OW 6033   3.327   0.574   2.058  0.1610 -0.3270 -0.0210
 1567SOL    HW2 6034   3.357   0.610   1.974  0.1282 -0.5675 -0.1387
 1567SOL    HW3 6035   3.244   0.533   2.037 -0.2892  0.3978  0.3215
 1567SOL    MW4 6036   3.320   0.573   2.044  0.0973 -0.2631  0.0087
 1568SOL     OW 6037   2.194   2.656   0.488 -0.4858  0.2003 -0.0709
 1568SOL    HW2 6038   2.245   2.578   0.467 -0.8629 -0.6986  2.0399
 1568SOL    HW3 6039   2.111   2.644   0.443  0.2490  0.5233 -1.5837
 1568SOL    MW4 6040   2.190   2.644   0.479 -0.4386  0.1243  0.0080
 1569SOL     OW 6041   5.226   3.022   2.841  0.2354  0.2223  0.4849
 1569SOL    HW2 6042   5.282   2.959   2.796 -0.9404  0.2208 -1.0368
 1569SOL    HW3 6043   5.195   3.081   2.773 -1.0351  0.6608  1.3895
 1569SOL    MW4 6044   5.229   3.022   2.826 -0.0873  0.2800  0.4035
 1570SOL     OW 6045   4.223   4.887   4.081  0.0354 -0.2192 -0.4062
 1570SOL    HW2 6046   4.301   4.942   4.083 -0.5162  0.5716  0.6841
 1570SOL    HW3 6047   4.150   4.949   4.074 -0.5323 -0.9187 -0.9748
 1570SOL    MW4 6048   4.224   4.903   4.080 -0.1123 -0.2071 -0.3373
 1571SOL     OW 6049   3.422   4.501   0.965 -0.0863  0.2765 -0.2267
 1571SOL    HW2 6050   3.352   4.450   0.924  1.3753 -1.4462 -0.6952
 1571SOL    HW3 6051   3.488   4.510   0.896  1.8038 -1.4441  1.2509
 1571SOL    MW4 6052   3.421   4.496   0.950  0.3559 -0.1778 -0.0936
 1572SOL     OW 6053   2.135   2.314   0.879  0.0826 -0.3565 -0.0320
 1572SOL    HW2 6054   2.084   2.395   0.874 -0.9582 -1.0541 -1.0687
 1572SOL    HW3 6055   2.105   2.273   0.960  1.0810  0.5723  0.8398
 1572SOL    MW4 6056   2.124   2.319   0.889  0.0770 -0.3260 -0.0538
 1573SOL     OW 6057   2.539   0.356   2.676 -0.5587  0.1138 -0.2022
 1573SOL    HW2 6058   2.592   0.398   2.608  0.1968  0.7564  0.7533
 1573SOL    HW3 6059   2.525   0.425   2.741 -0.0542 -0.8607  0.9767
 1573SOL    MW4 6060   2.544   0.371   2.676 -0.3924  0.0700  0.0794
 1574SOL     OW 6061   4.228   2.915   0.524 -0.1677  0.3563  0.2444
 1574SOL    HW2 6062   4.158   2.928   0.588 -1.1890 -0.8949 -0.5549
 1574SOL    HW3 6063   4.184   2.919   0.439  0.8498  0.1948 -0.3033
 1574SOL    MW4 6064   4.213   2.917   0.522 -0.1682  0.1699  0.0667
 1575SOL     OW 6065   0.560   4.390   2.749 -0.1551  0.2587 -0.3634
 1575SOL    HW2 6066   0.631   4.344   2.705  0.2961  0.4537  0.1480
 1575SOL    HW3 6067   0.532   4.332   2.819  0.1398  0.5783  0.0259
 1575SOL    MW4 6068   0.566   4.376   2.752 -0.0567  0.3266 -0.2445
 1576SOL     OW 6069   3.585   1.345   0.940 -0.4712 -0.1169  0.3422
 1576SOL    HW2 6070   3.547   1.341   0.853  1.1043 -1.1447 -0.3225
 1576SOL    HW3 6071   3.556   1.430   0.975 -1.7158 -0.0240 -0.8754
 1576SOL    MW4 6072   3.576   1.356   0.933 -0.4276 -0.2402  0.0938
 1577SOL     OW 6073   5.553   5.987   1.030 -0.0319  0.1235  0.0308
 1577SOL    HW2 6074   5.598   5.941   1.101  0.9435  1.0424  0.0240
 1577SOL    HW3 6075   5.481   6.033   1.073  0.0050 -0.0480  0.2792
 1577SOL    MW4 6076   5.550   5.987   1.045  0.1017  0.2221  0.0627
 1578SOL     OW 6077   4.171   1.592   0.204 -0.0817 -0.0866  0.5218
 1578SOL    HW2 6078   4.261   1.611   0.232  0.1074 -1.8782  1.3127
 1578SOL    HW3 6079   4.117   1.619   0.278 -0.1992  0.7853  0.1338
 1578SOL    MW4 6080   4.176   1.598   0.218 -0.0723 -0.2079  0.5750
 1579SOL     OW 6081   0.927   3.456   4.549  0.4559 -0.2818  0.2599
 1579SOL    HW2 6082   0.994   3.483   4.612  0.4916 -0.1400  0.1615
 1579SOL    HW3 6083   0.902   3.368   4.577  0.4531 -0.2095  0.4869
 1579SOL    MW4 6084   0.933   3.448   4.561  0.4603 -0.2536  0.2769
 1580SOL     OW 6085   3.943   5.036   4.687 -0.1744  0.4286 -0.4518
 1580SOL    HW2 6086   4.001   5.091   4.635 -0.5155  0.5439 -0.7175
 1580SOL    HW3 6087   3.999   4.968   4.723  0.0107  0.1491 -1.2510
 1580SOL    MW4 6088   3.958   5.035   4.685 -0.1950  0.4069 -0.5923
 1581SOL     OW 6089   5.818   5.867   6.178 -0.2287  0.1882 -0.3342
 1581SOL    HW2 6090   5.809   5.953   6.217  0.3526 -0.0061  0.2534
 1581SOL    HW3 6091   5.729   5.841   6.155 -0.5545  0.4444  0.5838
 1581SOL    MW4 6092   5.805   5.875   6.180 -0.1950  0.1964 -0.1356
 1582SOL     OW 6093   4.950   2.719   6.348  0.0367 -0.2277 -0.5860
 1582SOL    HW2 6094   5.016   2.691   6.285  0.2373  0.1293 -0.5384
 1582SOL    HW3 6095   4.950   2.651   6.415  0.6495 -0.0178 -0.3735
 1582SOL    MW4 6096   4.959   2.706   6.348  0.1440 -0.1529 -0.5517
 1583SOL     OW 6097   3.978   0.526   3.324  0.5292  0.2676 -0.5304
 1583SOL    HW2 6098   4.017   0.552   3.407  2.2197  0.8706 -1.4741
 1583SOL    HW3 6099   3.951   0.608   3.283 -0.2320 -0.0208 -0.6287
 1583SOL    MW4 6100   3.979   0.540   3.330  0.6518  0.3091 -0.6679
 1584SOL     OW 6101   1.319   3.750   4.920  0.6059 -0.3506 -0.4215
 1584SOL    HW2 6102   1.398   3.788   4.882  0.7685  1.6297  1.6929
 1584SOL    HW3 6103   1.350   3.696   4.992  0.0822 -0.1997 -0.0777
 1584SOL    MW4 6104   1.334   3.748   4.924  0.5583 -0.0694 -0.0972
 1585SOL     OW 6105   1.687   1.531   0.103  1.0006  0.3894 -0.3679
 1585SOL    HW2 6106   1.613   1.556   0.047  0.8652  1.1539  0.1324
 1585SOL    HW3 6107   1.647   1.481   0.174  0.9801  0.6445 -0.1969
 1585SOL    MW4 6108   1.672   1.528   0.105  0.9800  0.5239 -0.2793
 1586SOL     OW 6109   3.940   5.303   0.202  0.0149 -0.0893  0.3804
 1586SOL    HW2 6110   3.919   5.395   0.218  1.6083  0.4793 -0.5700
 1586SOL    HW3 6111   3.963   5.268   0.287  0.9019  0.8227  0.5343
 1586SOL    MW4 6112   3.940   5.310   0.215  0.3421  0.1061  0.2753
 1587SOL     OW 6113   5.078   5.661   3.499 -0.8592 -0.4419  0.2301
 1587SOL    HW2 6114   5.058   5.700   3.584 -1.6257 -0.7755  0.2134
 1587SOL    HW3 6115   5.048   5.725   3.435  0.3813  0.1307  0.1995
 1587SOL    MW4 6116   5.071   5.674   3.502 -0.7966 -0.4104  0.2239
 1588SOL     OW 6117   2.277   0.616   3.414 -0.5962  0.3310 -0.3971
 1588SOL    HW2 6118   2.219   0.682   3.377 -0.1758  0.3853 -0.9740
 1588SOL    HW3 6119   2.352   0.666   3.446 -0.5831  0.1973 -0.2167
 1588SOL    MW4 6120   2.279   0.632   3.414 -0.5390  0.3206 -0.4494
 1589SOL     OW 6121   0.591   1.333   4.554 -1.0804 -0.3224 -0.1238
 1589SOL    HW2 6122   0.535   1.411   4.556 -1.0044 -0.2346 -1.0314
 1589SOL    HW3 6123   0.554   1.278   4.485  0.1821 -0.0710 -1.0479
 1589SOL    MW4 6124   0.579   1.336   4.545 -0.9038 -0.2777 -0.3655
 1590SOL     OW 6125   0.455   6.135   5.812  0.0166  0.0977  0.2938
 1590SOL    HW2 6126   0.546   6.117   5.793  0.3286  1.0746  0.7669
 1590SOL    HW3 6127   0.406   6.081   5.750  0.9267  0.1657 -0.5059
 1590SOL    MW4 6128   0.460   6.126   5.801  0.1778  0.2356  0.2507
 1591SOL     OW 6129   2.366   1.738   5.306 -0.1464  0.2403 -0.0267
 1591SOL    HW2 6130   2.299   1.723   5.373 -0.1139 -0.7415 -0.2021
 1591SOL    HW3 6131   2.318   1.781   5.234 -0.2810  0.8488  0.4184
 1591SOL    MW4 6132   2.351   1.742   5.305 -0.1599  0.1911  0.0089
 1592SOL     OW 6133   0.280   5.393   4.990 -0.2298 -0.9183 -0.5810
 1592SOL    HW2 6134   0.281   5.297   4.991 -2.1803 -0.9962 -1.0298
 1592SOL    HW3 6135   0.244   5.415   4.904 -1.8009  0.1362  0.2935
 1592SOL    MW4 6136   0.275   5.383   4.979 -0.6944 -0.7894 -0.5249
 1593SOL     OW 6137   1.436   5.733   3.183 -0.2095 -0.1142 -0.5212
 1593SOL    HW2 6138   1.446   5.827   3.198  1.7272 -0.6190  2.0705
 1593SOL    HW3 6139   1.392   5.701   3.262 -0.8235 -1.4133 -1.3591
 1593SOL    MW4 6140   1.432   5.742   3.196 -0.0349 -0.3522 -0.2898
 1594SOL     OW 6141   1.686   3.099   3.099 -0.0487 -0.3271  0.5829
 1594SOL    HW2 6142   1.739   3.143   3.033  0.1086 -0.8681  0.3411
 1594SOL    HW3 6143   1.643   3.028   3.052 -1.0301  0.1250  0.7641
 1594SOL    MW4 6144   1.687   3.095   3.084 -0.1574 -0.3388  0.5749
 1595SOL     OW 6145   3.963   1.320   4.555 -0.0662  0.1290 -0.2492
 1595SOL    HW2 6146   3.955   1.271   4.637 -0.0849  0.5145 -0.0215
 1595SOL    HW3 6147   4.015   1.397   4.578  0.9290 -0.3556 -0.8580
 1595SOL    MW4 6148   3.969   1.324   4.569  0.0627  0.1159 -0.2995
 1596SOL     OW 6149   3.037   5.091   5.860  0.7505 -0.3106 -0.0755
 1596SOL    HW2 6150   3.039   5.041   5.942  1.2358  0.5133  0.4402
 1596SOL    HW3 6151   3.039   5.182   5.888 -0.1022  0.0069 -0.9966
 1596SOL    MW4 6152   3.038   5.096   5.875  0.7021 -0.1600 -0.1290
 1597SOL     OW 6153   3.756   1.888   0.439 -0.5421  0.3281  0.8733
 1597SOL    HW2 6154   3.699   1.859   0.510 -3.2733 -2.5127 -2.1496
 1597SOL    HW3 6155   3.703   1.951   0.390  0.6110  0.9176  0.3425
 1597SOL    MW4 6156   3.742   1.893   0.442 -0.7503  0.0310  0.4044
 1598SOL     OW 6157   2.589   2.496   4.646 -0.4630 -0.0687  0.1400
 1598SOL    HW2 6158   2.684   2.504   4.649 -0.5838  1.6157  1.1376
 1598SOL    HW3 6159   2.562   2.500   4.738 -1.6450  2.9085 -0.1951
 1598SOL    MW4 6160   2.598   2.498   4.659 -0.6349  0.5463  0.2274
 1599SOL     OW 6161   4.066   4.727   6.235 -0.2561  0.4975  0.7485
 1599SOL    HW2 6162   4.021   4.772   6.164 -1.2374 -1.6476 -0.0968
 1599SOL    HW3 6163   3.996   4.704   6.297  0.0669 -0.5356  0.7474
 1599SOL    MW4 6164   4.051   4.730   6.234 -0.3429  0.0782  0.6368
 1600SOL     OW 6165   6.403   3.235   6.282  0.0599 -0.7289 -0.4188
 1600SOL    HW2 6166   6.481   3.196   6.321  1.3028  0.8850 -1.2103
 1600SOL    HW3 6167   6.395   3.193   6.196  0.3189 -0.5702 -0.5199
 1600SOL    MW4 6168   6.412   3.224   6.276  0.2580 -0.4951 -0.5366
 1601SOL     OW 6169   4.654   1.012   0.169 -0.0548  0.3288  0.4307
 1601SOL    HW2 6170   4.692   1.012   0.256  0.1379 -0.8263  0.3645
 1601SOL    HW3 6171   4.619   1.100   0.157  0.7092  0.7579  1.3198
 1601SOL    MW4 6172   4.654   1.023   0.179  0.0714  0.2330  0.5393
 1602SOL     OW 6173   3.926   3.974   1.895 -0.0858 -0.5116  0.0014
 1602SOL    HW2 6174   3.837   3.938   1.890 -0.8345  0.9740  1.4365
 1602SOL    HW3 6175   3.951   3.989   1.804 -1.3478 -0.8655 -0.4236
 1602SOL    MW4 6176   3.917   3.971   1.882 -0.3511 -0.3623  0.1347
 1603SOL     OW 6177   0.448   2.905   3.314 -0.1661  0.0116  0.5263
 1603SOL    HW2 6178   0.476   2.966   3.246 -0.7684  0.8219  1.0006
 1603SOL    HW3 6179   0.503   2.926   3.390  0.6405 -1.0195  0.2630
 1603SOL    MW4 6180   0.459   2.916   3.315 -0.1391 -0.0175  0.5541
 1604SOL     OW 6181   2.794   1.043   3.664  0.0297  0.0664 -0.1905
 1604SOL    HW2 6182   2.761   1.123   3.705  0.8963 -0.0043  0.6636
 1604SOL    HW3 6183   2.785   1.059   3.570 -2.3875  0.0550 -0.0187
 1604SOL    MW4 6184   2.788   1.056   3.657 -0.1749  0.0555 -0.0551
 1605SOL     OW 6185   1.620   3.554   3.707 -0.1424  0.4038 -0.4324
 1605SOL    HW2 6186   1.611   3.648   3.693 -0.8704  0.4807  0.4469
 1605SOL    HW3 6187   1.624   3.544   3.802  1.5065 -0.3354 -0.5386
 1605SOL    MW4 6188   1.619   3.565   3.718 -0.0209  0.3164 -0.3304
 1606SOL     OW 6189   5.721   2.330   4.697 -0.5657  0.0295  0.1015
 1606SOL    HW2 6190   5.712   2.413   4.745 -0.1619  1.0132 -1.4354
 1606SOL    HW3 6191   5.651   2.333   4.631  0.3800 -0.1238 -0.9449
 1606SOL    MW4 6192   5.711   2.341   4.694 -0.3877  0.1390 -0.2394
 1607SOL     OW 6193   6.368   4.849   2.590  0.1229  0.3491 -0.2982
 1607SOL    HW2 6194   6.328   4.800   2.661  1.5794  0.7363  0.8551
 1607SOL    HW3 6195   6.310   4.836   2.515  0.0999 -2.5811  0.1176
 1607SOL    MW4 6196   6.355   4.841   2.589  0.3120  0.0136 -0.0912
 1608SOL     OW 6197   2.151   3.244   0.795  0.2165 -0.1166 -0.6495
 1608SOL    HW2 6198   2.058   3.254   0.772  0.6656 -1.7327 -3.7134
 1608SOL    HW3 6199   2.194   3.321   0.758  0.3349 -0.3033 -0.9007
 1608SOL    MW4 6200   2.144   3.255   0.787  0.2914 -0.3544 -1.0869
 1609SOL     OW 6201   5.608   0.666   5.284  0.1568 -0.1492 -0.1422
 1609SOL    HW2 6202   5.683   0.613   5.311 -0.5787 -0.6223  1.0135
 1609SOL    HW3 6203   5.617   0.747   5.335  0.7392  0.4618 -1.1822
 1609SOL    MW4 6204   5.619   0.670   5.294  0.1366 -0.1310 -0.1270
 1610SOL     OW 6205   0.888   1.527   5.271 -0.4270 -0.0728 -0.4964
 1610SOL    HW2 6206   0.834   1.493   5.343  0.7176  0.5831  0.6992
 1610SOL    HW3 6207   0.916   1.449   5.224  0.0854 -0.6565  0.7186
 1610SOL    MW4 6208   0.884   1.512   5.275 -0.2083 -0.0633 -0.1784
 1611SOL     OW 6209   0.229   5.185   3.027 -0.3440  0.6524 -0.5470
 1611SOL    HW2 6210   0.215   5.159   2.936 -0.4508  2.2156 -1.0092
 1611SOL    HW3 6211   0.322   5.166   3.043 -0.4110  0.0365 -0.8606
 1611SOL    MW4 6212   0.239   5.179   3.017 -0.3670  0.7774 -0.6494
 1612SOL     OW 6213   3.560   3.634   6.422 -0.0724 -0.0504 -0.0397
 1612SOL    HW2 6214   3.585   3.723   6.398  1.5835 -0.7315 -1.0447
 1612SOL    HW3 6215   3.622   3.609   6.491  0.6164 -0.9758 -0.9512
 1612SOL    MW4 6216   3.572   3.642   6.428  0.2370 -0.2624 -0.2926
 1613SOL     OW 6217   0.100   2.148   1.347 -0.3259  0.1905 -0.2980
 1613SOL    HW2 6218   0.140   2.094   1.279 -4.1699 -3.7872  0.1443
 1613SOL    HW3 6219   0.147   2.124   1.427 -0.8106 -1.1584 -0.3993
 1613SOL    MW4 6220   0.112   2.138   1.348 -0.8970 -0.5122 -0.2530
 1614SOL     OW 6221   5.292   4.418   6.299 -0.0944 -0.0218 -0.1443
 1614SOL    HW2 6222   5.219   4.365   6.267 -0.3094  0.2686 -0.1429
 1614SOL    HW3 6223   5.286   4.412   6.394 -0.7502  0.8324 -0.1147
 1614SOL    MW4 6224   5.281   4.411   6.307 -0.2093  0.1292 -0.1402
 1615SOL     OW 6225   4.456   4.750   1.452  0.7903 -0.1072  0.5364
 1615SOL    HW2 6226   4.387   4.764   1.517  0.6672 -0.0390  0.3928
 1615SOL    HW3 6227   4.532   4.795   1.488  0.6830  0.0555  0.5662
 1615SOL    MW4 6228   4.457   4.758   1.465  0.7599 -0.0767  0.5214
 1616SOL     OW 6229   4.106   0.587   1.722 -0.4780  0.1540  0.4126
 1616SOL    HW2 6230   4.064   0.673   1.719 -1.5037 -0.3629 -1.3868
 1616SOL    HW3 6231   4.141   0.573   1.635 -1.2349 -1.6657  0.3565
 1616SOL    MW4 6232   4.105   0.596   1.710 -0.7132 -0.1543  0.1678
 1617SOL     OW 6233   0.823   4.903   3.685  0.1815  0.4199 -0.1589
 1617SOL    HW2 6234   0.915   4.879   3.694  0.0294 -0.3683 -0.6818
 1617SOL    HW3 6235   0.775   4.823   3.704 -0.4360  0.9800  0.7529
 1617SOL    MW4 6236   0.829   4.889   3.689  0.0800  0.3898 -0.1076
 1618SOL     OW 6237   3.818   0.782   0.894  0.0736 -0.5090  0.3135
 1618SOL    HW2 6238   3.798   0.831   0.814 -2.5594  0.9111  1.6838
 1618SOL    HW3 6239   3.830   0.850   0.961  2.9169 -1.6247  1.0628
 1618SOL    MW4 6240   3.817   0.798   0.892  0.1014 -0.4688  0.5931
 1619SOL     OW 6241   2.971   2.995   4.690  0.8582 -0.7232  0.3810
 1619SOL    HW2 6242   2.929   3.077   4.664  1.2469 -1.0997 -1.5974
 1619SOL    HW3 6243   2.898   2.937   4.713  0.4603 -0.4349 -0.1276
 1619SOL    MW4 6244   2.956   2.998   4.690  0.8570 -0.7348  0.0529
 1620SOL     OW 6245   0.864   1.355   4.648 -0.3372  0.5444  0.1948
 1620SOL    HW2 6246   0.777   1.348   4.610 -0.7037 -2.3208  1.3009
 1620SOL    HW3 6247   0.920   1.305   4.589  0.1338  0.5835  0.5955
 1620SOL    MW4 6248   0.860   1.348   4.635 -0.3234  0.1716  0.3936
 1621SOL     OW 6249   0.573   1.763   3.165  0.2848  0.4745 -0.0453
 1621SOL    HW2 6250   0.656   1.791   3.125  0.8017  3.4810  2.7285
 1621SOL    HW3 6251   0.522   1.843   3.174 -1.5112 -0.7539  1.4099
 1621SOL    MW4 6252   0.578   1.777   3.161  0.1160  0.7091  0.5127
 1622SOL     OW 6253   1.632   0.387   1.533  0.2307 -0.0841  0.2071
 1622SOL    HW2 6254   1.603   0.297   1.519  2.4428 -0.7058 -0.7708
 1622SOL    HW3 6255   1.727   0.380   1.542  0.4590  2.1758  0.0252
 1622SOL    MW4 6256   1.640   0.374   1.533  0.5527  0.1321  0.0540
 1623SOL     OW 6257   2.102   4.909   0.328 -0.3051  0.0835 -0.0257
 1623SOL    HW2 6258   2.192   4.887   0.353  0.0161 -0.7143 -1.7386
 1623SOL    HW3 6259   2.109   4.996   0.288 -0.3453  0.1573  0.1284
 1623SOL    MW4 6260   2.115   4.918   0.326 -0.2680 -0.0120 -0.2313
 1624SOL     OW 6261   6.418   0.368   6.143  0.0968 -0.1307  0.2117
 1624SOL    HW2 6262   6.333   0.367   6.099  0.8482 -0.7861 -1.2846
 1624SOL    HW3 6263   6.475   0.317   6.086  1.3376 -0.2828  1.5410
 1624SOL    MW4 6264   6.414   0.361   6.130  0.3597 -0.2372  0.1897
 1625SOL     OW 6265   1.846   3.947   2.623 -0.3441 -1.2019  0.0831
 1625SOL    HW2 6266   1.824   4.037   2.648 -1.8566 -1.4772 -0.1381
 1625SOL    HW3 6267   1.806   3.893   2.691  0.1838 -1.7259 -0.0205
 1625SOL    MW4 6268   1.838   3.952   2.635 -0.4740 -1.3074  0.0403
 1626SOL     OW 6269   2.237   5.823   1.313 -0.3311  0.1788 -0.4099
 1626SOL    HW2 6270   2.202   5.870   1.388 -1.0809 -0.0468 -0.6079
 1626SOL    HW3 6271   2.215   5.731   1.329  1.6247 -0.2157  0.2510
 1626SOL    MW4 6272   2.229   5.817   1.325 -0.1720  0.0970 -0.3488
 1627SOL     OW 6273   5.335   0.283   3.455  0.0649 -0.2309 -0.0417
 1627SOL    HW2 6274   5.307   0.368   3.421  1.1633 -0.0272 -0.4739
 1627SOL    HW3 6275   5.258   0.227   3.445 -0.5168  0.5757 -0.2167
 1627SOL    MW4 6276   5.321   0.287   3.449  0.1331 -0.0976 -0.1218
 1628SOL     OW 6277   0.234   6.210   0.227  0.3356 -0.1217  0.6063
 1628SOL    HW2 6278   0.324   6.195   0.255  0.2094  0.6450  1.4436
 1628SOL    HW3 6279   0.184   6.222   0.308 -0.6180 -1.0093  0.1815
 1628SOL    MW4 6280   0.239   6.209   0.241  0.1932 -0.1376  0.6608
 1629SOL     OW 6281   0.247   1.240   1.251 -0.1207  0.1462 -0.1060
 1629SOL    HW2 6282   0.207   1.219   1.167  0.3577  1.5728 -0.7168
 1629SOL    HW3 6283   0.335   1.204   1.246 -0.0401  0.3637 -0.2907
 1629SOL    MW4 6284   0.253   1.233   1.239 -0.0470  0.3631 -0.2109
 1630SOL     OW 6285   0.908   4.725   4.632 -0.2654 -0.2160  0.0620
 1630SOL    HW2 6286   0.932   4.674   4.709  2.2236  1.2026  0.3404
 1630SOL    HW3 6287   0.934   4.671   4.558 -0.6425 -0.6705  0.2552
 1630SOL    MW4 6288   0.914   4.711   4.632  0.0133 -0.0888  0.1242
 1631SOL     OW 6289   2.809   0.999   3.358 -0.0153  0.6743 -0.1666
 1631SOL    HW2 6290   2.730   1.019   3.308 -1.4862 -2.4536  0.6407
 1631SOL    HW3 6291   2.874   0.978   3.291 -0.8144  0.2514 -0.8303
 1631SOL    MW4 6292   2.807   0.999   3.343 -0.3148  0.2058 -0.1476
 1632SOL     OW 6293   3.071   4.958   6.124 -0.6802  0.0886 -0.1593
 1632SOL    HW2 6294   3.030   5.007   6.196 -0.7432 -0.5158  0.2177
 1632SOL    HW3 6295   3.153   4.926   6.160 -0.7930 -0.3643 -0.3010
 1632SOL    MW4 6296   3.076   4.960   6.138 -0.7034 -0.0509 -0.1282
 1633SOL     OW 6297   3.032   1.900   6.049  0.1863  0.3056 -0.0477
 1633SOL    HW2 6298   3.079   1.848   5.984 -0.3744  0.8850 -0.9398
 1633SOL    HW3 6299   3.088   1.977   6.063 -0.2728  0.7867 -0.7901
 1633SOL    MW4 6300   3.046   1.903   6.043  0.0517  0.4455 -0.2634
 1634SOL     OW 6301   3.134   5.160   3.363 -0.1653  0.2333  0.4532
 1634SOL    HW2 6302   3.148   5.195   3.451 -0.5679 -0.9665  1.0109
 1634SOL    HW3 6303   3.084   5.229   3.318 -1.7004  0.0633  1.7877
 1634SOL    MW4 6304   3.129   5.174   3.369 -0.4209  0.0525  0.7028
 1635SOL     OW 6305   3.331   5.708   0.329 -0.3289  0.1018 -0.5687
 1635SOL    HW2 6306   3.358   5.649   0.259 -1.1673  0.8394 -1.5464
 1635SOL    HW3 6307   3.385   5.786   0.318  0.6608 -0.3807  0.6199
 1635SOL    MW4 6308   3.342   5.711   0.318 -0.3089  0.1355 -0.5409
 1636SOL     OW 6309   5.894   1.937   1.520 -0.3769  0.0539  0.3711
 1636SOL    HW2 6310   5.872   1.875   1.589 -2.5503  1.9491  1.5112
 1636SOL    HW3 6311   5.932   2.012   1.566  1.5215 -0.0453 -0.8984
 1636SOL    MW4 6312   5.896   1.939   1.535 -0.4132  0.2908  0.3540
 1637SOL     OW 6313   1.280   6.237   1.102  0.0653  0.7092 -0.2658
 1637SOL    HW2 6314   1.206   6.190   1.142  0.1162  0.8101 -0.0532
 1637SOL    HW3 6315   1.308   6.299   1.169 -2.0171  3.3187 -1.6110
 1637SOL    MW4 6316   1.274   6.239   1.116 -0.2027  1.0668 -0.4152
 1638SOL     OW 6317   4.668   4.452   2.721 -0.1954 -0.1139  0.0632
 1638SOL    HW2 6318   4.665   4.358   2.704 -1.6347 -0.2378  0.8402
 1638SOL    HW3 6319   4.671   4.459   2.817  1.8728  0.6274 -0.0105
 1638SOL    MW4 6320   4.668   4.441   2.732 -0.1125 -0.0325  0.1560
 1639SOL     OW 6321   4.712   6.027   1.098 -0.2628  0.0576 -0.4944
 1639SOL    HW2 6322   4.704   5.951   1.040  0.8738  0.5681 -1.3485
 1639SOL    HW3 6323   4.743   6.097   1.042  1.0513  0.5290  0.7555
 1639SOL    MW4 6324   4.715   6.026   1.083  0.0606  0.1872 -0.4422
 1640SOL     OW 6325   3.570   5.443   2.264  0.2932  0.3594  0.1071
 1640SOL    HW2 6326   3.560   5.371   2.201  0.1826  2.2762 -2.2114
 1640SOL    HW3 6327   3.653   5.425   2.308  0.6419 -0.7773 -0.9622
 1640SOL    MW4 6328   3.580   5.431   2.262  0.3246  0.4623 -0.3399
 1641SOL     OW 6329   1.451   0.326   0.845  0.1038  0.1453  0.1363
 1641SOL    HW2 6330   1.511   0.399   0.830  1.8305 -1.6484 -2.5114
 1641SOL    HW3 6331   1.373   0.347   0.793 -0.3339  1.0732  1.1434
 1641SOL    MW4 6332   1.449   0.338   0.836  0.2739  0.0310 -0.0802
 1642SOL     OW 6333   0.725   3.561   5.678 -0.3251 -0.4566 -0.0692
 1642SOL    HW2 6334   0.790   3.570   5.748 -2.1618  2.0533  1.4608
 1642SOL    HW3 6335   0.710   3.467   5.672  3.2668 -1.1609 -0.4345
 1642SOL    MW4 6336   0.731   3.550   5.686 -0.0935 -0.2183  0.0845
 1643SOL     OW 6337   1.176   3.907   1.357 -0.0814  0.1230 -0.6667
 1643SOL    HW2 6338   1.130   3.845   1.414 -3.0721  2.2380 -0.5557
 1643SOL    HW3 6339   1.226   3.962   1.417 -1.9958  1.3566 -0.1057
 1643SOL    MW4 6340   1.177   3.906   1.373 -0.7286  0.5648 -0.5780
 1644SOL     OW 6341   5.534   1.532   3.682 -0.4822 -0.3834 -0.2404
 1644SOL    HW2 6342   5.483   1.514   3.603 -0.3429 -1.4733 -0.0882
 1644SOL    HW3 6343   5.482   1.494   3.753  0.1141 -0.7300  0.0175
 1644SOL    MW4 6344   5.520   1.525   3.681 -0.3852 -0.5729 -0.1863
 1645SOL     OW 6345   2.218   1.882   5.103 -0.2676  0.3799 -0.5017
 1645SOL    HW2 6346   2.298   1.903   5.055  0.4806 -0.6722  0.2342
 1645SOL    HW3 6347   2.178   1.811   5.053 -0.7136  0.8440 -0.8188
 1645SOL    MW4 6348   2.223   1.875   5.090 -0.2278  0.3023 -0.4465
 1646SOL     OW 6349   2.895   4.651   6.320 -0.0028 -0.3754  0.1399
 1646SOL    HW2 6350   2.985   4.643   6.289  0.2714  1.3274  0.3745
 1646SOL    HW3 6351   2.846   4.681   6.244 -0.6907 -2.5925 -0.3582
 1646SOL    MW4 6352   2.901   4.654   6.306 -0.0574 -0.4433  0.1052
 1647SOL     OW 6353   2.666   2.106   1.216  0.0217 -0.8445  0.2856
 1647SOL    HW2 6354   2.719   2.037   1.176 -1.6649 -2.2953  0.4046
 1647SOL    HW3 6355   2.679   2.094   1.310  1.4952  0.5041  0.2805
 1647SOL    MW4 6356   2.675   2.095   1.223 -0.0064 -0.8580  0.3006
 1648SOL     OW 6357   0.715   4.346   4.406 -0.5987 -0.5945 -0.4124
 1648SOL    HW2 6358   0.712   4.395   4.488  0.2304  0.1669 -0.8189
 1648SOL    HW3 6359   0.636   4.291   4.407 -1.0466  0.0510  0.4875
 1648SOL    MW4 6360   0.704   4.345   4.417 -0.5484 -0.4089 -0.3473
 1649SOL     OW 6361   3.630   2.352   4.353  0.4120 -0.0981  0.7609
 1649SOL    HW2 6362   3.641   2.315   4.265  0.4232  0.0512  0.7003
 1649SOL    HW3 6363   3.633   2.276   4.410  0.1521 -0.2227  0.6113
 1649SOL    MW4 6364   3.632   2.337   4.349  0.3792 -0.0949  0.7332
 1650SOL     OW 6365   6.026   5.725   0.649 -0.6162 -0.1089 -0.2128
 1650SOL    HW2 6366   5.993   5.783   0.718  0.3922  0.1351  0.0695
 1650SOL    HW3 6367   6.030   5.781   0.571  0.6804  0.3166  0.1375
 1650SOL    MW4 6368   6.022   5.740   0.648 -0.3121 -0.0205 -0.1294
 1651SOL     OW 6369   0.514   4.016   1.346 -0.2522 -0.0374 -0.3160
 1651SOL    HW2 6370   0.516   3.939   1.290  1.0311 -0.9291  0.8833
 1651SOL    HW3 6371   0.514   3.980   1.435 -0.6640  1.3458  0.2662
 1651SOL    MW4 6372   0.514   4.001   1.351 -0.1372  0.0274 -0.0810
 1652SOL     OW 6373   4.920   2.389   3.233 -0.0371  0.1209 -0.1882
 1652SOL    HW2 6374   4.852   2.395   3.167 -0.4565  0.4933  0.2741
 1652SOL    HW3 6375   4.906   2.303   3.274  1.3622 -0.9315 -1.7985
 1652SOL    MW4 6376   4.910   2.378   3.230  0.0922  0.0312 -0.3397
 1653SOL     OW 6377   0.880   0.339   0.578  0.1574 -0.5056 -0.1977
 1653SOL    HW2 6378   0.806   0.350   0.638  0.8020 -1.2754  0.7746
 1653SOL    HW3 6379   0.860   0.260   0.528  0.9944 -1.6312  1.1561
 1653SOL    MW4 6380   0.868   0.330   0.579  0.3529 -0.7557  0.1092
 1654SOL     OW 6381   5.934   4.635   3.313 -0.0478 -0.6133  0.3682
 1654SOL    HW2 6382   5.888   4.718   3.323  0.8853 -0.1676  1.1575
 1654SOL    HW3 6383   5.995   4.650   3.241  1.2891 -0.0420  1.5798
 1654SOL    MW4 6384   5.936   4.648   3.305  0.2517 -0.4791  0.6322
 1655SOL     OW 6385   0.731   2.551   1.058  0.3244  0.0230  0.4058
 1655SOL    HW2 6386   0.665   2.487   1.031 -0.2803  1.1994 -1.0387
 1655SOL    HW3 6387   0.765   2.586   0.976  1.7166  0.4986  1.1522
 1655SOL    MW4 6388   0.727   2.547   1.043  0.4283  0.2410  0.3137
 1656SOL     OW 6389   5.441   0.624   5.593 -0.3957  0.0019  0.0014
 1656SOL    HW2 6390   5.526   0.630   5.638 -0.3538  0.2390 -0.1068
 1656SOL    HW3 6391   5.443   0.538   5.551  0.0579  0.2717 -0.5362
 1656SOL    MW4 6392   5.453   0.614   5.594 -0.3303  0.0688 -0.0838
 1657SOL     OW 6393   1.389   0.394   3.816 -0.7672 -0.0476  0.6069
 1657SOL    HW2 6394   1.318   0.409   3.878 -1.1174 -1.7088  0.6561
 1657SOL    HW3 6395   1.369   0.309   3.775  1.1782 -0.5951  0.6522
 1657SOL    MW4 6396   1.377   0.385   3.819 -0.5568 -0.3390  0.6193
 1658SOL     OW 6397   5.717   0.315   0.333 -0.4040  0.0069  0.2359
 1658SOL    HW2 6398   5.666   0.237   0.352 -0.1168 -0.0080  0.9773
 1658SOL    HW3 6399   5.742   0.349   0.419 -0.4010  0.8323 -0.0822
 1658SOL    MW4 6400   5.714   0.309   0.347 -0.3657  0.1139  0.2918
 1659SOL     OW 6401   0.929   2.040   0.258  0.5660  1.1866  0.1490
 1659SOL    HW2 6402   0.968   2.066   0.341 -0.0336  0.1941  0.7587
 1659SOL    HW3 6403   0.846   2.087   0.255  0.0314  0.3001  0.6922
 1659SOL    MW4 6404   0.923   2.049   0.269  0.4163  0.9387  0.3011
 1660SOL     OW 6405   3.461   0.027   0.961  0.4247 -0.6855  0.1293
 1660SOL    HW2 6406   3.451   0.122   0.966  0.5124 -0.6586 -0.1505
 1660SOL    HW3 6407   3.556   0.013   0.961  0.4153 -0.8477  1.3404
 1660SOL    MW4 6408   3.472   0.037   0.961  0.4350 -0.7034  0.2522
 1661SOL     OW 6409   5.654   2.586   0.088 -0.4563  0.1817  0.1630
 1661SOL    HW2 6410   5.739   2.567   0.048 -0.4106  0.5732  0.0699
 1661SOL    HW3 6411   5.621   2.662   0.040 -0.6174  0.3599  0.5518
 1661SOL    MW4 6412   5.661   2.593   0.076 -0.4715  0.2568  0.2020
 1662SOL     OW 6413   3.662   3.391   0.490 -0.1759  0.2226 -0.6605
 1662SOL    HW2 6414   3.626   3.462   0.542 -0.1666  0.0615 -0.4325
 1662SOL    HW3 6415   3.712   3.434   0.420 -1.9169  0.4735 -1.7961
 1662SOL    MW4 6416   3.664   3.406   0.488 -0.4044  0.2345 -0.7802
 1663SOL     OW 6417   2.620   3.800   5.679  0.0477 -0.3585 -0.1417
 1663SOL    HW2 6418   2.558   3.777   5.748  1.2668  1.1075  1.5175
 1663SOL    HW3 6419   2.568   3.847   5.614 -0.3608  2.7398  2.1960
 1663SOL    MW4 6420   2.605   3.803   5.680  0.1546  0.2437  0.3856
 1664SOL     OW 6421   1.480   5.135   4.963  0.3310 -0.3442 -0.0210
 1664SOL    HW2 6422   1.575   5.135   4.973  0.2421 -0.9420  1.0225
 1664SOL    HW3 6423   1.448   5.093   5.043 -0.7613 -1.1991 -0.8762
 1664SOL    MW4 6424   1.488   5.130   4.975  0.1752 -0.5359  0.0038
 1665SOL     OW 6425   2.754   2.408   3.848 -0.5208  0.0858 -0.7835
 1665SOL    HW2 6426   2.733   2.358   3.769  3.1202 -0.1443 -1.7644
 1665SOL    HW3 6427   2.768   2.497   3.817  1.3395 -0.0867 -0.5413
 1665SOL    MW4 6428   2.753   2.413   3.834  0.2050  0.0326 -0.8809
 1666SOL     OW 6429   4.903   0.373   4.468  0.1686 -0.0119 -0.4301
 1666SOL    HW2 6430   4.902   0.464   4.496  2.6046  0.0944 -0.5270
 1666SOL    HW3 6431   4.853   0.326   4.536 -0.3475  1.2536  0.0848
 1666SOL    MW4 6432   4.896   0.379   4.481  0.4219  0.1691 -0.3750
 1667SOL     OW 6433   1.248   3.317   3.038  0.5545  0.3217  0.0169
 1667SOL    HW2 6434   1.172   3.340   3.092  2.3963 -1.5077  3.7982
 1667SOL    HW3 6435   1.280   3.400   3.004 -1.3844  1.4566  0.7956
 1667SOL    MW4 6436   1.242   3.331   3.041  0.5417  0.2301  0.6185
 1668SOL     OW 6437   0.426   4.559   0.306  0.3417 -0.1821  0.0085
 1668SOL    HW2 6438   0.458   4.521   0.224 -2.2203  0.2160 -1.2784
 1668SOL    HW3 6439   0.428   4.654   0.290 -0.1808 -0.0988  0.4155
 1668SOL    MW4 6440   0.431   4.567   0.293 -0.0653 -0.1186 -0.1076
 1669SOL     OW 6441   4.802   4.805   3.865  0.6578 -0.4152  1.0299
 1669SOL    HW2 6442   4.873   4.870   3.868  1.7249 -1.3889 -1.1205
 1669SOL    HW3 6443   4.831   4.735   3.923  1.2658 -0.6056  0.5069
 1669SOL    MW4 6444   4.815   4.805   3.873  0.8788 -0.5688  0.6772
 1670SOL     OW 6445   5.859   1.792   0.804 -0.1149 -0.2295 -0.4150
 1670SOL    HW2 6446   5.914   1.758   0.875  0.0395 -1.0837 -0.9291
 1670SOL    HW3 6447   5.793   1.845   0.849 -0.3261 -1.1600  0.4318
 1670SOL    MW4 6448   5.857   1.794   0.820 -0.1224 -0.4650 -0.3711
 1671SOL     OW 6449   0.291   3.283   3.168  0.6335  0.0623 -0.2311
 1671SOL    HW2 6450   0.249   3.358   3.125 -0.7515  0.2729  1.3850
 1671SOL    HW3 6451   0.218   3.227   3.195  1.3695  0.0929  2.0710
 1671SOL    MW4 6452   0.276   3.286   3.166  0.5479  0.0941  0.2859
 1672SOL     OW 6453   3.394   5.797   3.244 -0.4670  0.0782 -0.2959
 1672SOL    HW2 6454   3.373   5.875   3.192  0.3198  0.1399 -0.5251
 1672SOL    HW3 6455   3.337   5.804   3.321 -0.6941  0.6678 -0.5115
 1672SOL    MW4 6456   3.384   5.808   3.247 -0.3931  0.1641 -0.3546
 1673SOL     OW 6457   3.444   3.503   1.934  0.0812 -0.2508 -0.3864
 1673SOL    HW2 6458   3.511   3.443   1.901  1.1281  0.8692 -0.3665
 1673SOL    HW3 6459   3.486   3.589   1.935 -1.5431  0.6052 -0.9230
 1673SOL    MW4 6460   3.458   3.507   1.930  0.0050  0.0099 -0.4546
 1674SOL     OW 6461   3.824   2.872   0.221  0.3470 -0.5585  0.3930
 1674SOL    HW2 6462   3.782   2.866   0.307 -0.9002 -0.0917 -0.1604
 1674SOL    HW3 6463   3.774   2.812   0.165  0.3144  0.1258 -0.3274
 1674SOL    MW4 6464   3.812   2.863   0.225  0.1782 -0.4066  0.2249
 1675SOL     OW 6465   3.454   0.943   3.105  0.1083  0.4337  0.3612
 1675SOL    HW2 6466   3.486   1.029   3.078  1.2533 -0.1895 -0.3059
 1675SOL    HW3 6467   3.360   0.946   3.088  0.3844  0.9963 -1.1874
 1675SOL    MW4 6468   3.446   0.955   3.100  0.2958  0.4257  0.0688
 1676SOL     OW 6469   2.882   5.742   3.984 -0.2931  0.5078  0.4087
 1676SOL    HW2 6470   2.880   5.747   4.079  2.4083 -0.4958  0.6008
 1676SOL    HW3 6471   2.973   5.759   3.961 -0.2898 -1.8697 -1.7787
 1676SOL    MW4 6472   2.894   5.745   3.993  0.0637  0.0617  0.1454
 1677SOL     OW 6473   0.599   5.763   5.131  0.5496 -0.0087  0.1877
 1677SOL    HW2 6474   0.551   5.769   5.049  0.3428  1.6989  0.3941
 1677SOL    HW3 6475   0.688   5.790   5.109  0.2428  1.5002  0.6977
 1677SOL    MW4 6476   0.604   5.767   5.117  0.4819  0.4156  0.2822
 1678SOL     OW 6477   4.132   3.461   2.370  0.6675  0.1669  0.0005
 1678SOL    HW2 6478   4.104   3.378   2.331  2.7028 -0.8338  0.5283
 1678SOL    HW3 6479   4.135   3.444   2.464  3.3880  0.0090 -0.0372
 1678SOL    MW4 6480   4.129   3.448   2.377  1.2950  0.0141  0.0652
 1679SOL     OW 6481   3.084   5.897   0.248 -0.0548  0.4511 -0.8592
 1679SOL    HW2 6482   3.150   5.829   0.230  1.5603  1.6368  0.2981
 1679SOL    HW3 6483   3.092   5.913   0.342 -2.9285 -0.2286 -0.3902
 1679SOL    MW4 6484   3.094   5.890   0.258 -0.2209  0.5179 -0.6446
 1680SOL     OW 6485   6.396   0.163   2.333 -0.2776 -0.7723  0.7330
 1680SOL    HW2 6486   6.306   0.191   2.346 -0.1355 -0.1763  0.4289
 1680SOL    HW3 6487   6.415   0.109   2.410  0.5286  2.6220  3.1483
 1680SOL    MW4 6488   6.387   0.159   2.345 -0.1525 -0.2458  1.0115
 1681SOL     OW 6489   2.403   0.862   4.892  0.2708 -0.2522  0.5756
 1681SOL    HW2 6490   2.496   0.871   4.911  0.0079  0.7573  1.5001
 1681SOL    HW3 6491   2.370   0.803   4.960  0.3656 -1.2915 -0.2493
 1681SOL    MW4 6492   2.411   0.855   4.903  0.2486 -0.2561  0.5888
 1682SOL     OW 6493   2.050   1.891   3.766 -0.1888  0.1207  0.3835
 1682SOL    HW2 6494   2.000   1.916   3.843  1.0742  0.3293  1.1632
 1682SOL    HW3 6495   2.101   1.969   3.744  0.0235 -0.1766 -0.2151
 1682SOL    MW4 6496   2.050   1.905   3.773  0.0059  0.1090  0.4074
 1683SOL     OW 6497   4.591   0.897   4.018  0.1149 -0.4238 -0.0523
 1683SOL    HW2 6498   4.662   0.853   4.065  0.4762  1.0183  0.8414
 1683SOL    HW3 6499   4.542   0.944   4.087 -0.9590 -0.3965 -0.8033
 1683SOL    MW4 6500   4.594   0.898   4.034  0.0209 -0.2299 -0.0334
 1684SOL     OW 6501   6.208   5.005   5.561  0.3524 -0.2858  0.1699
 1684SOL    HW2 6502   6.197   4.958   5.479  1.0032 -1.7665  0.9001
 1684SOL    HW3 6503   6.301   5.028   5.562  0.0055  1.2503 -0.2731
 1684SOL    MW4 6504   6.219   5.002   5.550  0.3925 -0.2785  0.2078
 1685SOL     OW 6505   4.711   3.609   4.056 -0.6153  0.2098 -0.2532
 1685SOL    HW2 6506   4.750   3.594   4.142 -0.3863  1.7895 -0.0589
 1685SOL    HW3 6507   4.723   3.526   4.009  1.6667  0.1633  0.3051
 1685SOL    MW4 6508   4.718   3.596   4.061 -0.2840  0.4121 -0.1539
 1686SOL     OW 6509   4.127   2.211   2.771  0.5039  0.0806 -0.0728
 1686SOL    HW2 6510   4.148   2.140   2.710 -1.4124  0.5949 -1.4558
 1686SOL    HW3 6511   4.199   2.273   2.761  1.3927 -0.9113 -0.0579
 1686SOL    MW4 6512   4.139   2.210   2.761  0.3683  0.0176 -0.2533
 1687SOL     OW 6513   1.661   3.240   5.407 -0.8062 -0.1847  0.1911
 1687SOL    HW2 6514   1.737   3.216   5.353 -0.2070 -0.7188  1.2477
 1687SOL    HW3 6515   1.587   3.199   5.363 -0.4528  0.1068 -0.7011
 1687SOL    MW4 6516   1.661   3.232   5.394 -0.6805 -0.2167  0.2128
 1688SOL     OW 6517   5.033   3.084   6.033  0.3217  0.2899 -0.2406
 1688SOL    HW2 6518   5.096   3.106   5.965 -0.3871  0.0095 -1.0118
 1688SOL    HW3 6519   5.086   3.064   6.110  1.1662  0.0672 -0.8658
 1688SOL    MW4 6520   5.048   3.084   6.034  0.3396  0.2235 -0.4249
 1689SOL     OW 6521   4.376   6.002   1.879 -0.6033  0.4611  0.3047
 1689SOL    HW2 6522   4.439   5.934   1.906  0.2619  0.9228 -0.4947
 1689SOL    HW3 6523   4.293   5.956   1.873 -0.0857 -0.4768  0.0755
 1689SOL    MW4 6524   4.374   5.987   1.882 -0.4208  0.3983  0.1690
 1690SOL     OW 6525   1.471   2.575   5.440 -0.4391  0.2145  0.1756
 1690SOL    HW2 6526   1.469   2.481   5.456  1.4085 -0.2339 -1.7103
 1690SOL    HW3 6527   1.456   2.583   5.346  2.7011  1.4378 -0.3653
 1690SOL    MW4 6528   1.469   2.564   5.430  0.2189  0.3167 -0.1446
 1691SOL     OW 6529   5.813   0.800   3.660  1.1762  0.1265  0.4064
 1691SOL    HW2 6530   5.901   0.766   3.644  0.8560 -1.1353  1.1961
 1691SOL    HW3 6531   5.781   0.749   3.734  1.3824  3.5313  3.0502
 1691SOL    MW4 6532   5.820   0.789   3.667  1.1612  0.4092  0.8594
 1692SOL     OW 6533   4.862   2.362   3.554 -0.0321  0.6116  0.3171
 1692SOL    HW2 6534   4.940   2.308   3.562  0.4509  1.1253 -0.7415
 1692SOL    HW3 6535   4.834   2.378   3.644  0.6451 -0.1955  0.6817
 1692SOL    MW4 6536   4.868   2.357   3.567  0.1210  0.5729  0.2255
 1693SOL     OW 6537   5.344   5.205   2.361  0.3519 -0.3468  0.1027
 1693SOL    HW2 6538   5.278   5.147   2.398  0.9177 -0.3623  1.1127
 1693SOL    HW3 6539   5.353   5.276   2.424  1.5956 -0.5656  0.2130
 1693SOL    MW4 6540   5.337   5.207   2.374  0.5907 -0.3777  0.2506
 1694SOL     OW 6541   2.969   0.380   1.229 -0.2239  0.3595  0.4207
 1694SOL    HW2 6542   3.013   0.412   1.308  0.0617  1.7089 -0.2464
 1694SOL    HW3 6543   2.877   0.378   1.252 -0.0302 -0.3407  1.1408
 1694SOL    MW4 6544   2.963   0.384   1.242 -0.1606  0.4452  0.4277
 1695SOL     OW 6545   0.791   3.810   1.374 -0.0202  0.0314  0.4339
 1695SOL    HW2 6546   0.707   3.807   1.330  0.4061  1.4215 -0.5537
 1695SOL    HW3 6547   0.803   3.902   1.397 -0.2248 -0.6119  3.5258
 1695SOL    MW4 6548   0.782   3.822   1.371  0.0091  0.1299  0.7116
 1696SOL     OW 6549   0.081   4.870   0.143  0.0730 -0.5797  0.0196
 1696SOL    HW2 6550   0.104   4.959   0.116 -1.4652 -0.2497 -0.2916
 1696SOL    HW3 6551   0.012   4.843   0.082 -1.9373 -0.6504  2.1593
 1696SOL    MW4 6552   0.075   4.878   0.132 -0.3951 -0.5455  0.2608
 1697SOL     OW 6553   1.618   1.437   4.810 -0.6834  0.4527 -0.0848
 1697SOL    HW2 6554   1.575   1.505   4.759 -0.3335  2.1321  1.7204
 1697SOL    HW3 6555   1.707   1.468   4.822 -0.6219 -0.1210  1.1113
 1697SOL    MW4 6556   1.624   1.450   4.805 -0.6291  0.5986  0.3112
 1698SOL     OW 6557   5.612   2.568   1.460 -0.3292 -0.3285  0.1104
 1698SOL    HW2 6558   5.687   2.600   1.510 -0.7812  0.4817  0.2885
 1698SOL    HW3 6559   5.582   2.644   1.411 -2.1208 -0.1531  1.3841
 1698SOL    MW4 6560   5.618   2.582   1.460 -0.6252 -0.1985  0.3020
 1699SOL     OW 6561   6.144   0.351   5.092  0.3490  0.2959  0.1029
 1699SOL    HW2 6562   6.191   0.413   5.037  0.5026  0.8703  0.8625
 1699SOL    HW3 6563   6.109   0.286   5.031  1.3355  0.3680 -0.5633
 1699SOL    MW4 6564   6.145   0.350   5.077  0.4994  0.3812  0.1152
 1700SOL     OW 6565   1.237   3.731   0.614 -0.0461  0.2152  0.2948
 1700SOL    HW2 6566   1.271   3.736   0.703  0.0896  0.6013  0.2240
 1700SOL    HW3 6567   1.300   3.677   0.567 -0.4597 -0.5336  0.5868
 1700SOL    MW4 6568   1.250   3.725   0.620 -0.0827  0.1673  0.3240
 1701SOL     OW 6569   6.173   4.494   1.608 -0.1006  0.4392  0.4742
 1701SOL    HW2 6570   6.266   4.515   1.602  0.3066 -0.9847  1.2008
 1701SOL    HW3 6571   6.136   4.527   1.527  1.2474  0.1132 -0.3165
 1701SOL    MW4 6572   6.181   4.501   1.597  0.1310  0.2083  0.4657
 1702SOL     OW 6573   2.159   6.410   1.090  0.0054 -0.1103 -0.1853
 1702SOL    HW2 6574   2.089   6.428   1.153  0.2462  0.2320 -0.0142
 1702SOL    HW3 6575   2.200   6.330   1.123 -1.2652 -1.1936 -1.1212
 1702SOL    MW4 6576   2.155   6.402   1.103 -0.1305 -0.2081 -0.2862
 1703SOL     OW 6577   1.952   5.804   4.672  0.3480  0.7266 -0.0428
 1703SOL    HW2 6578   1.892   5.732   4.656  0.5225  0.3332  0.9589
 1703SOL    HW3 6579   1.914   5.850   4.748  2.3399 -0.7710  1.9916
 1703SOL    MW4 6580   1.939   5.801   4.680  0.6338  0.4771  0.3578
 1704SOL     OW 6581   6.011   1.426   5.232 -0.2959  0.6130  0.0657
 1704SOL    HW2 6582   6.052   1.434   5.318  0.1152  0.0669 -0.0779
 1704SOL    HW3 6583   6.084   1.426   5.170 -0.5210 -0.1178 -0.2066
 1704SOL    MW4 6584   6.026   1.427   5.235 -0.2714  0.4446  0.0108
 1705SOL     OW 6585   5.917   1.110   0.634  0.2550  0.2399 -0.4295
 1705SOL    HW2 6586   5.964   1.093   0.553  1.0835 -0.8627  0.2479
 1705SOL    HW3 6587   5.830   1.074   0.619  0.4511 -0.0975 -0.7672
 1705SOL    MW4 6588   5.912   1.103   0.622  0.3902  0.0499 -0.3847
 1706SOL     OW 6589   1.494   0.367   4.150 -0.0969  0.3985  0.0039
 1706SOL    HW2 6590   1.514   0.278   4.121 -1.9665 -0.0964  0.1414
 1706SOL    HW3 6591   1.580   0.410   4.153  0.9488 -1.5794  0.6164
 1706SOL    MW4 6592   1.508   0.361   4.147 -0.2056  0.0722  0.1029
 1707SOL     OW 6593   6.069   0.318   6.367  0.6678  0.2168 -0.0785
 1707SOL    HW2 6594   6.052   0.372   6.444  1.1928 -0.9354  0.8910
 1707SOL    HW3 6595   6.063   0.228   6.400 -0.2069 -0.3381 -1.6290
 1707SOL    MW4 6596   6.066   0.313   6.382  0.6217 -0.0084 -0.1552
 1708SOL     OW 6597   5.439   4.741   6.329 -0.0819 -0.0434 -0.6197
 1708SOL    HW2 6598   5.529   4.719   6.302  0.3564 -0.0542  0.7725
 1708SOL    HW3 6599   5.383   4.694   6.267  0.7983 -4.0828  1.3199
 1708SOL    MW4 6600   5.444   4.732   6.317  0.0920 -0.5778 -0.1801
 1709SOL     OW 6601   5.060   6.234   1.181  0.3075  0.3946 -0.5723
 1709SOL    HW2 6602   5.016   6.164   1.229  2.2103 -0.0720  0.5936
 1709SOL    HW3 6603   5.006   6.246   1.103 -2.2440  0.3543  1.0365
 1709SOL    MW4 6604   5.047   6.227   1.177  0.2219  0.3278 -0.2062
 1710SOL     OW 6605   1.089   2.031   6.362 -0.5187 -0.4478  0.6275
 1710SOL    HW2 6606   1.073   2.038   6.268 -1.2211  0.9124  0.8230
 1710SOL    HW3 6607   1.015   1.980   6.395 -1.3730  0.7795  0.6942
 1710SOL    MW4 6608   1.077   2.025   6.354 -0.7241 -0.1064  0.6621
 1711SOL     OW 6609   3.112   2.601   4.736  0.4525 -0.1932  0.3979
 1711SOL    HW2 6610   3.184   2.620   4.675 -1.0581  1.5829 -0.9694
 1711SOL    HW3 6611   3.139   2.643   4.818  1.5902 -0.8146  0.3641
 1711SOL    MW4 6612   3.125   2.609   4.739  0.4033 -0.0408  0.2131
 1712SOL     OW 6613   0.022   4.233   2.779 -0.0489  0.0741  0.9532
 1712SOL    HW2 6614  -0.055   4.282   2.808 -0.1233 -0.7835  2.2792
 1712SOL    HW3 6615   0.089   4.252   2.845  0.3981 -0.4009  0.6418
 1712SOL    MW4 6616   0.021   4.242   2.791  0.0003 -0.1017  1.0871
 1713SOL     OW 6617   0.654   3.779   6.204  0.0821 -0.1172  0.1120
 1713SOL    HW2 6618   0.690   3.691   6.210 -0.7716 -0.5282 -0.5738
 1713SOL    HW3 6619   0.602   3.789   6.284  0.6139 -0.0176  0.4542
 1713SOL    MW4 6620   0.652   3.769   6.216  0.0396 -0.1583  0.0667
 1714SOL     OW 6621   5.335   3.701   0.416  0.2681 -0.0519  0.2750
 1714SOL    HW2 6622   5.352   3.698   0.510 -0.6716  0.2281  0.4572
 1714SOL    HW3 6623   5.319   3.610   0.392  1.2433 -0.2291  0.2306
 1714SOL    MW4 6624   5.335   3.689   0.425  0.2728 -0.0383  0.2932
 1715SOL     OW 6625   2.930   0.633   2.946 -0.2766 -0.3688  0.0065
 1715SOL    HW2 6626   2.898   0.625   3.036 -0.9423 -1.5787 -0.3138
 1715SOL    HW3 6627   2.969   0.548   2.927  2.0786  0.6479 -0.0519
 1715SOL    MW4 6628   2.931   0.621   2.956 -0.0537 -0.3943 -0.0434
 1716SOL     OW 6629   3.992   3.034   0.935  0.0989  0.0747  0.2271
 1716SOL    HW2 6630   4.003   3.074   1.021 -0.5512 -1.3792  1.0347
 1716SOL    HW3 6631   3.993   2.940   0.953 -0.2023 -0.2524 -1.3461
 1716SOL    MW4 6632   3.994   3.027   0.949 -0.0266 -0.1603  0.1261
 1717SOL     OW 6633   5.086   0.157   2.716  0.3438  0.2340 -0.2371
 1717SOL    HW2 6634   5.002   0.129   2.754  0.3336 -0.1730 -0.5537
 1717SOL    HW3 6635   5.089   0.251   2.732 -0.5413  0.3926 -0.9216
 1717SOL    MW4 6636   5.075   0.166   2.723  0.2257  0.2012 -0.3691
 1718SOL     OW 6637   0.341   0.338   5.546 -0.0157  0.1606  0.3129
 1718SOL    HW2 6638   0.295   0.279   5.606 -0.6604 -1.8153 -1.9557
 1718SOL    HW3 6639   0.277   0.357   5.478  1.0780  1.3056 -0.4385
 1718SOL    MW4 6640   0.326   0.333   5.545  0.0436  0.0509 -0.0855
 1719SOL     OW 6641   5.793   2.986   0.141 -0.5121 -0.2535  0.6203
 1719SOL    HW2 6642   5.858   3.051   0.165 -0.3076 -0.6079  1.0568
 1719SOL    HW3 6643   5.844   2.908   0.119 -0.7864 -0.5637  1.0554
 1719SOL    MW4 6644   5.808   2.984   0.141 -0.5213 -0.3412  0.7353
 1720SOL     OW 6645   5.538   3.189   3.021 -0.1981 -0.4106  0.0766
 1720SOL    HW2 6646   5.583   3.181   2.937  2.8274  3.2514  1.0646
 1720SOL    HW3 6647   5.606   3.177   3.087 -2.0101 -0.9018  1.9815
 1720SOL    MW4 6648   5.553   3.187   3.019 -0.0380  0.0078  0.4583
 1721SOL     OW 6649   5.795   0.901   1.383  0.0178  0.2272  0.5555
 1721SOL    HW2 6650   5.718   0.845   1.383  0.6229 -0.6253  0.4942
 1721SOL    HW3 6651   5.865   0.846   1.417  0.6663  0.9048  0.3564
 1721SOL    MW4 6652   5.794   0.887   1.388  0.1832  0.2041  0.5212
 1722SOL     OW 6653   6.176   3.918   5.400 -0.2791 -0.0439  0.5148
 1722SOL    HW2 6654   6.125   3.983   5.449  0.0524 -0.5012  1.4758
 1722SOL    HW3 6655   6.163   3.944   5.308 -0.1134  1.4117  0.8670
 1722SOL    MW4 6656   6.167   3.930   5.394 -0.2135  0.0878  0.6880
 1723SOL     OW 6657   5.518   1.901   4.649  0.4445  0.0703 -0.1071
 1723SOL    HW2 6658   5.465   1.848   4.708  2.3290 -0.6290  1.0346
 1723SOL    HW3 6659   5.567   1.960   4.707  1.1561  0.4817 -1.0940
 1723SOL    MW4 6660   5.517   1.902   4.664  0.7870  0.0323 -0.0867
 1724SOL     OW 6661   5.082   0.316   1.087  0.2925 -0.5715  0.0125
 1724SOL    HW2 6662   5.132   0.395   1.070  2.2294 -1.9641 -1.2145
 1724SOL    HW3 6663   5.021   0.309   1.014  0.2215 -0.2840  0.0452
 1724SOL    MW4 6664   5.081   0.325   1.075  0.5387 -0.7173 -0.1451
 1725SOL     OW 6665   1.484   2.941   4.734 -0.0676 -0.0313  0.2204
 1725SOL    HW2 6666   1.465   2.940   4.828 -0.7555 -0.5465  0.0851
 1725SOL    HW3 6667   1.567   2.988   4.727 -0.4067  0.7266  1.0133
 1725SOL    MW4 6668   1.492   2.947   4.746 -0.2031  0.0007  0.3072
 1726SOL     OW 6669   1.237   2.301   6.310 -0.2935  0.2250 -0.2381
 1726SOL    HW2 6670   1.328   2.280   6.331 -0.7348  0.8756  2.7767
 1726SOL    HW3 6671   1.186   2.250   6.372 -2.0801 -0.4087 -2.1205
 1726SOL    MW4 6672   1.243   2.292   6.321 -0.5875  0.2272 -0.0887
 1727SOL     OW 6673   1.061   0.116   4.950 -0.0171 -0.0546 -0.2576
 1727SOL    HW2 6674   0.981   0.132   4.900 -0.7138  0.1664  0.8839
 1727SOL    HW3 6675   1.129   0.165   4.903 -0.2714 -1.2653 -1.9479
 1727SOL    MW4 6676   1.060   0.125   4.938 -0.1426 -0.1852 -0.3300
 1728SOL     OW 6677   4.116   4.796   4.491 -0.7190  0.1968  0.1606
 1728SOL    HW2 6678   4.155   4.749   4.418  0.6835  0.4348  0.7317
 1728SOL    HW3 6679   4.178   4.866   4.511 -0.3136 -0.7310  2.4915
 1728SOL    MW4 6680   4.129   4.799   4.484 -0.4804  0.1058  0.5435
 1729SOL     OW 6681   2.157   2.417   4.237 -0.3206 -0.0097 -0.8406
 1729SOL    HW2 6682   2.194   2.470   4.308 -1.6060  0.4660 -0.4853
 1729SOL    HW3 6683   2.067   2.400   4.265 -0.4184 -1.0013 -1.7245
 1729SOL    MW4 6684   2.150   2.422   4.250 -0.5031 -0.0778 -0.9104
 1730SOL     OW 6685   2.884   5.670   2.560 -0.0240 -0.2733  0.3670
 1730SOL    HW2 6686   2.926   5.691   2.477 -1.1429 -0.8230 -0.3527
 1730SOL    HW3 6687   2.869   5.576   2.557  2.2987 -0.8329  2.3326
 1730SOL    MW4 6688   2.888   5.660   2.549  0.1348 -0.4197  0.5314
 1731SOL     OW 6689   3.783   0.653   6.392  0.2981 -0.4407 -0.8859
 1731SOL    HW2 6690   3.870   0.691   6.385 -0.2731  0.7988 -1.3972
 1731SOL    HW3 6691   3.769   0.644   6.487 -0.1070  2.0006 -0.6520
 1731SOL    MW4 6692   3.792   0.657   6.404  0.1693  0.0449 -0.9225
 1732SOL     OW 6693   0.541   5.988   2.002 -0.0616 -0.1868  0.3858
 1732SOL    HW2 6694   0.615   5.928   2.008  0.8678  0.5690 -2.2006
 1732SOL    HW3 6695   0.569   6.066   2.051  1.2638  0.4003 -1.2056
 1732SOL    MW4 6696   0.554   5.991   2.009  0.2359 -0.0096 -0.1654
 1733SOL     OW 6697   0.178   0.254   5.953 -0.8787 -0.2942  0.1005
 1733SOL    HW2 6698   0.258   0.307   5.951 -1.8912  1.3125  1.0873
 1733SOL    HW3 6699   0.183   0.202   5.873  0.6271  0.5622 -0.4077
 1733SOL    MW4 6700   0.189   0.254   5.942 -0.8136  0.0308  0.1636
 1734SOL     OW 6701   0.023   5.401   4.477  0.4561  0.2915 -0.0205
 1734SOL    HW2 6702  -0.023   5.481   4.502 -0.1018 -0.9066  3.2985
 1734SOL    HW3 6703   0.062   5.369   4.558 -0.1936 -3.3167 -0.9407
 1734SOL    MW4 6704   0.022   5.407   4.491  0.2968 -0.3426  0.2960
 1735SOL     OW 6705   1.789   5.042   1.780  0.5716 -0.2590 -0.2755
 1735SOL    HW2 6706   1.743   5.121   1.809  0.2947  0.2211 -1.9088
 1735SOL    HW3 6707   1.878   5.053   1.813  0.3410  0.3760  0.1605
 1735SOL    MW4 6708   1.795   5.054   1.788  0.5047 -0.1119 -0.4335
 1736SOL     OW 6709   0.903   2.471   2.523  0.5879 -0.0974 -0.0737
 1736SOL    HW2 6710   0.901   2.402   2.589 -2.3509  0.2761  0.3801
 1736SOL    HW3 6711   0.977   2.526   2.548  1.0205 -1.3048  1.4674
 1736SOL    MW4 6712   0.913   2.469   2.535  0.2572 -0.2074  0.1895
 1737SOL     OW 6713   2.019   0.127   0.869  0.3706  0.2818 -0.3520
 1737SOL    HW2 6714   2.074   0.094   0.940 -1.6385 -0.5225  0.8996
 1737SOL    HW3 6715   2.040   0.071   0.794  1.3882  0.1302  0.0277
 1737SOL    MW4 6716   2.029   0.115   0.869  0.2398  0.1557 -0.1368
 1738SOL     OW 6717   1.074   0.855   5.653  0.1530 -0.0196 -0.1650
 1738SOL    HW2 6718   1.145   0.891   5.706  0.3331  0.4404 -0.7128
 1738SOL    HW3 6719   1.037   0.785   5.707  0.8822 -0.1253  0.2072
 1738SOL    MW4 6720   1.078   0.851   5.667  0.2730  0.0271 -0.1882
 1739SOL     OW 6721   4.512   5.776   4.940  0.0598 -0.5510 -0.2223
 1739SOL    HW2 6722   4.507   5.743   4.851 -0.7066  0.0558 -0.4212
 1739SOL    HW3 6723   4.423   5.807   4.959  0.8406  1.9723 -0.3142
 1739SOL    MW4 6724   4.500   5.776   4.931  0.0617 -0.1380 -0.2607
 1740SOL     OW 6725   3.119   4.216   1.751 -0.0118 -0.2508  0.7805
 1740SOL    HW2 6726   3.181   4.287   1.735  2.4716 -2.5091 -0.4231
 1740SOL    HW3 6727   3.141   4.183   1.838 -0.5068 -0.1735  0.9391
 1740SOL    MW4 6728   3.130   4.221   1.760  0.2505 -0.5386  0.6426
 1741SOL     OW 6729   4.488   0.565   6.065  0.1617  0.1226 -0.0523
 1741SOL    HW2 6730   4.480   0.553   6.159 -0.1705  0.8263  0.0188
 1741SOL    HW3 6731   4.582   0.574   6.050  0.1027  2.3921  0.5517
 1741SOL    MW4 6732   4.499   0.564   6.075  0.1101  0.5149  0.0368
 1742SOL     OW 6733   1.763   4.428   0.217  0.2996 -0.1862  0.7632
 1742SOL    HW2 6734   1.688   4.488   0.216  0.0813 -0.4639 -0.6945
 1742SOL    HW3 6735   1.839   4.484   0.202  0.2707 -0.0571  1.0910
 1742SOL    MW4 6736   1.763   4.443   0.215  0.2670 -0.2058  0.6141
 1743SOL     OW 6737   1.609   3.285   0.062  0.1727  0.8226 -0.2103
 1743SOL    HW2 6738   1.577   3.297  -0.027 -0.1521 -1.7083 -0.5183
 1743SOL    HW3 6739   1.566   3.205   0.092  0.7673  1.2629  2.0111
 1743SOL    MW4 6740   1.599   3.276   0.054  0.2083  0.5468  0.0421
 1744SOL     OW 6741   4.676   4.747   3.609  0.0455 -0.0474 -0.1167
 1744SOL    HW2 6742   4.632   4.683   3.665  0.8992  0.7371  1.5039
 1744SOL    HW3 6743   4.738   4.791   3.666  1.4111  0.3870 -1.8289
 1744SOL    MW4 6744   4.679   4.744   3.624  0.3383  0.1134 -0.1288
 1745SOL     OW 6745   1.590   2.160   2.052 -0.5255  0.4013  0.5843
 1745SOL    HW2 6746   1.610   2.190   1.964  0.8878  1.1658  1.1406
 1745SOL    HW3 6747   1.521   2.095   2.040  2.0611 -2.1965 -1.4448
 1745SOL    MW4 6748   1.583   2.156   2.039  0.0022  0.1594  0.3900
 1746SOL     OW 6749   2.149   1.256   4.564 -0.1132 -0.2850 -0.0465
 1746SOL    HW2 6750   2.115   1.181   4.613 -1.4049 -0.3066 -0.9232
 1746SOL    HW3 6751   2.198   1.217   4.491 -1.1322 -0.3201 -0.7414
 1746SOL    MW4 6752   2.151   1.241   4.561 -0.4180 -0.2925 -0.2538
 1747SOL     OW 6753   1.925   1.751   6.391  0.1490 -0.1086 -0.3312
 1747SOL    HW2 6754   1.938   1.747   6.486  0.8805  0.0287 -0.4190
 1747SOL    HW3 6755   1.934   1.661   6.361  0.5884 -0.0562 -0.3536
 1747SOL    MW4 6756   1.928   1.739   6.400  0.3035 -0.0836 -0.3457
 1748SOL     OW 6757   0.093   3.120   3.534 -0.1236  0.4618 -0.1216
 1748SOL    HW2 6758   0.106   3.082   3.621 -0.7742  0.7654  0.1155
 1748SOL    HW3 6759   0.174   3.169   3.517  1.8550 -2.9389 -1.4843
 1748SOL    MW4 6760   0.106   3.122   3.543  0.0516  0.0532 -0.2701
 1749SOL     OW 6761   1.355   0.639   0.609  0.3679  0.6290  0.2843
 1749SOL    HW2 6762   1.305   0.561   0.634 -0.9653  1.5343  0.5726
 1749SOL    HW3 6763   1.398   0.667   0.690  2.0068 -0.5614 -0.1172
 1749SOL    MW4 6764   1.354   0.632   0.623  0.4082  0.5914  0.2694
 1750SOL     OW 6765   0.215   1.044   3.415  0.2899 -0.2863 -0.0485
 1750SOL    HW2 6766   0.155   0.976   3.447 -1.5405  0.1963 -2.2027
 1750SOL    HW3 6767   0.184   1.124   3.457  0.1317 -0.2108 -0.3090
 1750SOL    MW4 6768   0.203   1.045   3.425  0.0275 -0.2127 -0.3671
 1751SOL     OW 6769   4.113   4.784   2.605  0.1604 -0.3929  0.0319
 1751SOL    HW2 6770   4.178   4.774   2.535 -1.3904 -0.5581 -1.4674
 1751SOL    HW3 6771   4.049   4.846   2.569 -1.6096 -1.8254  0.5648
 1751SOL    MW4 6772   4.113   4.791   2.591 -0.2777 -0.6037 -0.0956
 1752SOL     OW 6773   0.583   1.548   5.874  0.3112  0.2104 -0.2562
 1752SOL    HW2 6774   0.655   1.612   5.873 -0.9324  1.8154  2.6373
 1752SOL    HW3 6775   0.626   1.464   5.858  2.8087  1.1425  0.9945
 1752SOL    MW4 6776   0.598   1.546   5.872  0.4766  0.5451  0.2906
 1753SOL     OW 6777   5.118   1.134   4.475  0.0527 -0.3929 -0.6296
 1753SOL    HW2 6778   5.148   1.165   4.560 -1.8077  2.2046 -0.7921
 1753SOL    HW3 6779   5.186   1.161   4.414  1.0885 -1.6868 -0.0743
 1753SOL    MW4 6780   5.131   1.142   4.478 -0.0561 -0.2209 -0.5778
 1754SOL     OW 6781   0.240   1.057   2.963 -0.4058  0.3687  0.1192
 1754SOL    HW2 6782   0.293   1.022   2.892 -0.5629  0.7760 -0.2041
 1754SOL    HW3 6783   0.303   1.091   3.026 -0.2750  1.2857 -0.4832
 1754SOL    MW4 6784   0.255   1.057   2.962 -0.4093  0.5435 -0.0029
 1755SOL     OW 6785   2.143   2.270   0.303  0.0295  0.3681  0.6077
 1755SOL    HW2 6786   2.197   2.259   0.225 -0.2482 -0.2216  0.4901
 1755SOL    HW3 6787   2.183   2.343   0.351  0.9285 -0.0658  0.5241
 1755SOL    MW4 6788   2.155   2.278   0.299  0.1115  0.2330  0.5811
 1756SOL     OW 6789   0.276   3.888   2.816  0.0276 -0.1813  0.1123
 1756SOL    HW2 6790   0.222   3.962   2.787 -1.9328 -1.4195  0.4576
 1756SOL    HW3 6791   0.365   3.911   2.786 -0.6103  2.0026 -0.3331
 1756SOL    MW4 6792   0.281   3.901   2.808 -0.3152 -0.0565  0.0991
 1757SOL     OW 6793   0.164   5.436   0.606 -0.3594 -0.0631  0.4736
 1757SOL    HW2 6794   0.251   5.396   0.600  0.3365  1.5639 -1.4491
 1757SOL    HW3 6795   0.112   5.388   0.542  0.6117  2.2114 -2.2087
 1757SOL    MW4 6796   0.169   5.424   0.597 -0.1395  0.4517 -0.1340
 1758SOL     OW 6797   5.246   3.225   5.066 -0.0045 -0.1469  0.0809
 1758SOL    HW2 6798   5.331   3.271   5.066 -0.2425  0.3000 -0.3794
 1758SOL    HW3 6799   5.258   3.153   5.128  0.1087  1.0540  1.5150
 1758SOL    MW4 6800   5.259   3.222   5.075 -0.0210  0.0705  0.2094
 1759SOL     OW 6801   1.908   1.106   3.152 -0.0451  0.2135  0.3675
 1759SOL    HW2 6802   1.913   1.192   3.110  0.0464  0.7911  1.5461
 1759SOL    HW3 6803   1.968   1.052   3.101 -0.3237  0.7572 -0.5727
 1759SOL    MW4 6804   1.916   1.110   3.139 -0.0698  0.3614  0.3990
 1760SOL     OW 6805   1.033   2.920   5.763  0.0296  0.1529 -0.4286
 1760SOL    HW2 6806   1.023   2.924   5.668 -0.3601  1.2750 -0.3621
 1760SOL    HW3 6807   1.011   3.009   5.793  2.3085  0.4611  0.5215
 1760SOL    MW4 6808   1.029   2.932   5.755  0.2788  0.3416 -0.2945
 1761SOL     OW 6809   4.562   0.633   2.630  0.3919  0.1502  0.2928
 1761SOL    HW2 6810   4.527   0.676   2.552 -1.1607 -1.1677  0.2249
 1761SOL    HW3 6811   4.519   0.678   2.703  2.0191  1.5427  0.4675
 1761SOL    MW4 6812   4.552   0.645   2.629  0.4017  0.1600  0.3069
 1762SOL     OW 6813   2.397   3.767   5.831  0.2760 -0.1960  0.4170
 1762SOL    HW2 6814   2.359   3.840   5.878  0.6161 -0.0601  0.4858
 1762SOL    HW3 6815   2.357   3.689   5.870 -0.6863 -0.0246 -0.1945
 1762SOL    MW4 6816   2.387   3.766   5.843  0.1939 -0.1555  0.3454
 1763SOL     OW 6817   2.154   4.718   2.278  0.1478 -0.0500 -0.2963
 1763SOL    HW2 6818   2.241   4.700   2.243  0.0227 -0.2089 -0.5219
 1763SOL    HW3 6819   2.124   4.795   2.230 -0.1468 -0.4455 -0.7552
 1763SOL    MW4 6820   2.162   4.726   2.267  0.0924 -0.1232 -0.3866
 1764SOL     OW 6821   5.330   1.469   4.433 -0.5105 -0.3133  0.1853
 1764SOL    HW2 6822   5.333   1.548   4.380 -0.5655 -0.6077 -0.2595
 1764SOL    HW3 6823   5.386   1.488   4.508  0.9536 -0.5026 -0.8192
 1764SOL    MW4 6824   5.338   1.482   4.436 -0.3246 -0.3771 -0.0059
 1765SOL     OW 6825   5.127   4.741   5.192  0.2602 -0.3175 -0.2687
 1765SOL    HW2 6826   5.218   4.738   5.163 -0.0968 -0.4522 -1.4558
 1765SOL    HW3 6827   5.092   4.821   5.153 -0.1731 -0.3664  0.0204
 1765SOL    MW4 6828   5.134   4.751   5.183  0.1559 -0.3417 -0.3872
 1766SOL     OW 6829   4.686   0.246   3.191  0.3721 -0.3789  0.0058
 1766SOL    HW2 6830   4.723   0.176   3.138  0.9231  0.2959 -0.5218
 1766SOL    HW3 6831   4.711   0.327   3.145  2.4161  0.3564  2.1951
 1766SOL    MW4 6832   4.694   0.248   3.178  0.7145 -0.1929  0.2250
 1767SOL     OW 6833   3.288   2.458   4.475 -0.3176 -0.0742 -0.1209
 1767SOL    HW2 6834   3.351   2.419   4.536 -0.4206 -0.8554 -0.4977
 1767SOL    HW3 6835   3.342   2.505   4.412 -0.2864  2.9516  1.9795
 1767SOL    MW4 6836   3.304   2.459   4.475 -0.3271  0.2219  0.1065
 1768SOL     OW 6837   3.129   4.355   3.995 -0.3490  0.3617  0.1759
 1768SOL    HW2 6838   3.117   4.438   4.043 -2.0543 -0.3401  1.0536
 1768SOL    HW3 6839   3.058   4.353   3.932 -0.1327 -0.2942 -0.0572
 1768SOL    MW4 6840   3.118   4.366   3.993 -0.5455  0.1826  0.2609
 1769SOL     OW 6841   2.745   6.002   1.818  0.2719  0.2585 -0.2763
 1769SOL    HW2 6842   2.701   6.021   1.901 -0.7634  0.1332 -0.7669
 1769SOL    HW3 6843   2.739   5.906   1.810  1.1933  0.1780 -0.0658
 1769SOL    MW4 6844   2.738   5.992   1.828  0.2568  0.2314 -0.3132
 1770SOL     OW 6845   5.269   2.862   2.421 -0.3634 -0.0471  0.0246
 1770SOL    HW2 6846   5.198   2.801   2.443  2.4361 -2.0663  5.1519
 1770SOL    HW3 6847   5.231   2.949   2.436 -2.0610 -0.9816  1.5655
 1770SOL    MW4 6848   5.254   2.865   2.425 -0.2180 -0.4368  0.9044
 1771SOL     OW 6849   4.662   6.083   2.604  1.1030 -0.0826  0.0196
 1771SOL    HW2 6850   4.690   6.153   2.663 -0.6082  1.7559 -1.2125
 1771SOL    HW3 6851   4.659   6.005   2.659  0.4416  1.3658  2.1806
 1771SOL    MW4 6852   4.665   6.082   2.619  0.7899  0.3511  0.1422
 1772SOL     OW 6853   1.719   3.014   5.584  0.3742 -0.0686  0.3946
 1772SOL    HW2 6854   1.695   2.942   5.526  2.6154 -0.2535 -0.4369
 1772SOL    HW3 6855   1.692   3.093   5.538  1.9242 -0.2270 -0.8831
 1772SOL    MW4 6856   1.712   3.015   5.570  0.8744 -0.1139  0.1163
 1773SOL     OW 6857   2.419   0.665   5.278 -0.1425 -1.0038  0.2750
 1773SOL    HW2 6858   2.470   0.746   5.269  0.4495 -1.4097 -0.1176
 1773SOL    HW3 6859   2.383   0.669   5.367 -0.8869  0.1236 -0.0573
 1773SOL    MW4 6860   2.421   0.676   5.289 -0.1626 -0.9086  0.1793
 1774SOL     OW 6861   1.121   1.526   3.991  0.1789  0.0551 -0.4958
 1774SOL    HW2 6862   1.125   1.588   3.918  1.5223 -1.1744 -1.5324
 1774SOL    HW3 6863   1.085   1.446   3.953  0.8768 -0.6025  0.1977
 1774SOL    MW4 6864   1.117   1.524   3.977  0.4482 -0.1939 -0.5410
 1775SOL     OW 6865   2.861   4.275   4.886 -0.2194 -0.4877 -0.1974
 1775SOL    HW2 6866   2.951   4.243   4.888 -0.4016 -0.9826  0.8704
 1775SOL    HW3 6867   2.867   4.362   4.846  0.8462 -0.1774  0.5951
 1775SOL    MW4 6868   2.874   4.282   4.881 -0.1029 -0.5121  0.0481
 1776SOL     OW 6869   1.144   4.195   1.713  0.1276 -0.2759  0.0479
 1776SOL    HW2 6870   1.170   4.168   1.800 -0.6856 -0.0054  0.3845
 1776SOL    HW3 6871   1.188   4.279   1.700  0.5893 -0.5178  0.0200
 1776SOL    MW4 6872   1.153   4.203   1.723  0.0812 -0.2721  0.0886
 1777SOL     OW 6873   5.170   0.581   4.938  0.2440 -0.1116  0.1383
 1777SOL    HW2 6874   5.117   0.561   5.015 -0.1679 -0.3788 -0.2103
 1777SOL    HW3 6875   5.227   0.504   4.927  0.4725  0.0308  0.3162
 1777SOL    MW4 6876   5.171   0.568   4.946  0.2198 -0.1281  0.1158
 1778SOL     OW 6877   6.284   0.901   3.966  0.2653 -0.2950  0.1791
 1778SOL    HW2 6878   6.248   0.989   3.966 -0.5820 -0.6304 -0.7587
 1778SOL    HW3 6879   6.324   0.890   3.880 -1.2337 -1.4426 -0.4114
 1778SOL    MW4 6880   6.285   0.911   3.955 -0.0443 -0.4907 -0.0226
 1779SOL     OW 6881   0.161   4.283   4.078 -0.5248  0.3930  0.2075
 1779SOL    HW2 6882   0.071   4.260   4.055 -0.7837  2.3214 -0.9534
 1779SOL    HW3 6883   0.194   4.329   4.001  1.1050  0.6633  1.0245
 1779SOL    MW4 6884   0.153   4.286   4.065 -0.3439  0.6831  0.1621
 1780SOL     OW 6885   1.923   0.273   5.683 -0.3567  0.5609  0.1396
 1780SOL    HW2 6886   1.984   0.339   5.718 -0.2290 -0.0589  1.1114
 1780SOL    HW3 6887   1.979   0.203   5.652 -0.4390  1.3539 -1.9037
 1780SOL    MW4 6888   1.938   0.273   5.684 -0.3507  0.5837 -0.0018
 1781SOL     OW 6889   5.829   2.307   5.770 -0.4145 -0.8423 -0.0735
 1781SOL    HW2 6890   5.815   2.224   5.815 -0.5030 -0.8053 -0.0311
 1781SOL    HW3 6891   5.802   2.290   5.680 -1.3561 -0.5982  0.1513
 1781SOL    MW4 6892   5.823   2.294   5.764 -0.5504 -0.8052 -0.0382
 1782SOL     OW 6893   0.445   0.501   5.286 -0.1196  0.0557 -0.0893
 1782SOL    HW2 6894   0.371   0.561   5.295 -0.2796  0.3567 -2.7633
 1782SOL    HW3 6895   0.411   0.428   5.234  1.7108  0.8897 -2.6856
 1782SOL    MW4 6896   0.431   0.499   5.280  0.1008  0.2054 -0.7847
 1783SOL     OW 6897   3.560   4.290   0.152  0.5753 -0.0311  0.0945
 1783SOL    HW2 6898   3.566   4.195   0.142 -0.3913 -0.0395 -0.5120
 1783SOL    HW3 6899   3.470   4.311   0.127  0.8988  1.0962 -0.1662
 1783SOL    MW4 6900   3.549   4.280   0.148  0.4904  0.1165 -0.0199
 1784SOL     OW 6901   5.606   5.463   2.070 -0.7161 -0.1521 -0.0781
 1784SOL    HW2 6902   5.623   5.481   2.162 -0.1652 -2.4703  0.3359
 1784SOL    HW3 6903   5.512   5.446   2.065 -0.4102 -2.2909  0.5483
 1784SOL    MW4 6904   5.596   5.464   2.081 -0.6031 -0.7401  0.0592
 1785SOL     OW 6905   1.397   2.535   2.514  0.1074  0.3600  0.4561
 1785SOL    HW2 6906   1.340   2.505   2.442 -0.3944  0.5795  0.7545
 1785SOL    HW3 6907   1.479   2.560   2.471  0.7825 -1.9592  0.2509
 1785SOL    MW4 6908   1.400   2.534   2.498  0.1303  0.0830  0.4684
 1786SOL     OW 6909   5.707   2.292   1.000 -0.4672 -0.3471  0.2767
 1786SOL    HW2 6910   5.678   2.383   1.001  1.1691  0.2102  0.4790
 1786SOL    HW3 6911   5.753   2.281   1.083 -1.0672 -1.5298  0.4774
 1786SOL    MW4 6912   5.709   2.302   1.011 -0.3305 -0.4296  0.3299
 1787SOL     OW 6913   2.035   1.106   6.322 -0.4378 -0.1697  0.1762
 1787SOL    HW2 6914   2.107   1.080   6.379 -1.2693  2.4799  2.6764
 1787SOL    HW3 6915   1.979   1.160   6.377 -2.2766  1.1155 -2.7193
 1787SOL    MW4 6916   2.037   1.110   6.336 -0.7901  0.3494  0.1240
 1788SOL     OW 6917   6.167   2.926   2.967  0.4114 -0.1985 -0.6408
 1788SOL    HW2 6918   6.131   2.864   3.031  0.4681  1.2633  0.8667
 1788SOL    HW3 6919   6.232   2.875   2.919  0.8091 -1.2060  0.8823
 1788SOL    MW4 6920   6.171   2.911   2.969  0.4713 -0.1385 -0.2409
 1789SOL     OW 6921   5.672   0.697   3.881  0.0902  0.5554  0.0068
 1789SOL    HW2 6922   5.579   0.699   3.904  0.1368 -1.1690  0.5395
 1789SOL    HW3 6923   5.714   0.656   3.957  1.2432  1.0462 -0.3491
 1789SOL    MW4 6924   5.665   0.692   3.894  0.2485  0.3926  0.0301
 1790SOL     OW 6925   3.882   0.543   1.184  0.4174 -0.1456 -0.6219
 1790SOL    HW2 6926   3.803   0.537   1.131  1.0353 -0.0682 -1.5776
 1790SOL    HW3 6927   3.928   0.460   1.169 -0.1123 -0.7635  0.9859
 1790SOL    MW4 6928   3.878   0.532   1.175  0.4290 -0.2169 -0.5359
 1791SOL     OW 6929   0.220   1.730   3.337  0.4903  0.9825 -0.3644
 1791SOL    HW2 6930   0.237   1.764   3.250 -1.0630 -0.6781 -1.3755
 1791SOL    HW3 6931   0.220   1.808   3.394  4.5421  1.8300 -1.2169
 1791SOL    MW4 6932   0.223   1.745   3.333  0.8200  0.8752 -0.6103
 1792SOL     OW 6933   2.336   3.338   2.099  0.0552 -0.1197 -0.4703
 1792SOL    HW2 6934   2.385   3.386   2.031  0.8946 -0.6895 -0.2837
 1792SOL    HW3 6935   2.392   3.264   2.121 -0.3358 -0.0984  0.6492
 1792SOL    MW4 6936   2.350   3.335   2.093  0.1143 -0.1921 -0.2979
 1793SOL     OW 6937   4.941   2.011   6.217 -0.2502  0.8301  0.2665
 1793SOL    HW2 6938   5.024   2.044   6.254  0.1483 -0.0995  0.2179
 1793SOL    HW3 6939   4.905   1.954   6.284  0.7106 -1.2549 -0.8831
 1793SOL    MW4 6940   4.948   2.008   6.230 -0.0709  0.4324  0.1084
 1794SOL     OW 6941   0.687   4.976   6.272  0.0254  0.0219 -0.2836
 1794SOL    HW2 6942   0.659   5.055   6.318 -1.0715 -0.1274 -0.6604
 1794SOL    HW3 6943   0.722   5.008   6.189  0.8451  0.1981  0.1179
 1794SOL    MW4 6944   0.688   4.991   6.267 -0.0111  0.0255 -0.2803
 1795SOL     OW 6945   0.714   0.390   4.609  0.1017 -0.1912 -0.0716
 1795SOL    HW2 6946   0.708   0.403   4.514 -0.8814 -1.6806 -0.2449
 1795SOL    HW3 6947   0.629   0.354   4.634 -0.3757  1.9183  1.7125
 1795SOL    MW4 6948   0.702   0.387   4.600 -0.0910 -0.1094  0.1409
 1796SOL     OW 6949   4.790   4.305   6.188  0.1073  0.1772 -0.6321
 1796SOL    HW2 6950   4.744   4.224   6.207  0.6470 -0.0326 -0.1990
 1796SOL    HW3 6951   4.747   4.339   6.110 -0.6577 -0.1035 -0.3456
 1796SOL    MW4 6952   4.779   4.299   6.180  0.0776  0.1125 -0.5371
 1797SOL     OW 6953   2.056   2.827   6.092 -0.0912 -0.6591  0.2930
 1797SOL    HW2 6954   1.968   2.809   6.126 -0.6441 -0.2356 -0.8605
 1797SOL    HW3 6955   2.078   2.912   6.130  0.1681 -1.1230  1.2185
 1797SOL    MW4 6956   2.047   2.836   6.101 -0.1299 -0.6645  0.2629
 1798SOL     OW 6957   1.972   3.826   4.623  0.1602 -0.1225 -0.3069
 1798SOL    HW2 6958   1.993   3.842   4.715 -3.9139  0.6232  0.6751
 1798SOL    HW3 6959   2.035   3.760   4.595  1.7431 -0.1400  2.8804
 1798SOL    MW4 6960   1.983   3.820   4.631 -0.1684 -0.0265  0.2432
 1799SOL     OW 6961   0.174   1.062   4.953  0.8015 -0.5150  0.0351
 1799SOL    HW2 6962   0.082   1.080   4.973  0.3831 -2.8963  0.5520
 1799SOL    HW3 6963   0.180   1.074   4.858  0.2896  0.8485  0.1483
 1799SOL    MW4 6964   0.163   1.066   4.943  0.6788 -0.6493  0.1182
 1800SOL     OW 6965   5.704   1.185   6.124  0.0871  0.5918  0.4121
 1800SOL    HW2 6966   5.798   1.178   6.141  0.2542  0.9038 -0.3426
 1800SOL    HW3 6967   5.695   1.263   6.069 -0.7063  1.0529  1.1589
 1800SOL    MW4 6968   5.715   1.195   6.119  0.0045  0.6938  0.4110
 1801SOL     OW 6969   4.044   6.409   2.201 -0.3838 -0.2117 -0.5528
 1801SOL    HW2 6970   3.952   6.416   2.176 -0.5263  1.0736  0.2401
 1801SOL    HW3 6971   4.043   6.374   2.290 -0.1565  0.7569 -0.1645
 1801SOL    MW4 6972   4.032   6.405   2.209 -0.3726  0.0857 -0.3970
 1802SOL     OW 6973   1.158   6.021   3.406  0.1160  0.1133 -0.1775
 1802SOL    HW2 6974   1.155   5.957   3.478 -2.0838  0.2914 -0.0227
 1802SOL    HW3 6975   1.180   6.104   3.448 -1.2224  0.2275  0.3499
 1802SOL    MW4 6976   1.160   6.023   3.421 -0.3508  0.1519 -0.0875
 1803SOL     OW 6977   1.010   4.990   2.021  0.2230 -0.1954  0.5557
 1803SOL    HW2 6978   1.075   4.984   2.091  2.1293 -1.9170 -1.2114
 1803SOL    HW3 6979   1.053   5.038   1.951 -1.2595  0.6046  0.1481
 1803SOL    MW4 6980   1.024   4.995   2.021  0.2789 -0.3170  0.2688
 1804SOL     OW 6981   6.049   2.751   5.343  0.2860  0.5725  0.5262
 1804SOL    HW2 6982   5.984   2.803   5.295 -1.7994 -1.7009  0.7031
 1804SOL    HW3 6983   6.132   2.795   5.326 -1.1119  2.9740 -0.6497
 1804SOL    MW4 6984   6.051   2.764   5.335 -0.1735  0.5894  0.3944
 1805SOL     OW 6985   4.343   6.042   3.380  0.5096  1.0272  0.1639
 1805SOL    HW2 6986   4.370   6.098   3.453 -0.4385  1.3206  0.3021
 1805SOL    HW3 6987   4.281   6.095   3.331 -1.0062 -0.1636  0.7257
 1805SOL    MW4 6988   4.339   6.056   3.383  0.1845  0.9088  0.2562
 1806SOL     OW 6989   5.975   1.714   1.935  0.1957 -0.4513 -0.0594
 1806SOL    HW2 6990   6.013   1.640   1.983 -0.2435  0.0168  1.0261
 1806SOL    HW3 6991   6.047   1.776   1.924 -0.1283  0.3067  1.7408
 1806SOL    MW4 6992   5.990   1.712   1.940  0.0950 -0.2895  0.3214
 1807SOL     OW 6993   6.251   2.145   2.430  0.0379 -0.1394  0.0155
 1807SOL    HW2 6994   6.289   2.073   2.380  0.0876 -0.8343  1.0262
 1807SOL    HW3 6995   6.267   2.223   2.377 -2.7858 -1.1811 -2.6780
 1807SOL    MW4 6996   6.258   2.146   2.417 -0.3281 -0.3685 -0.2065
 1808SOL     OW 6997   6.392   0.026   3.033  0.0155 -0.3066  0.3531
 1808SOL    HW2 6998   6.353  -0.003   2.951 -1.3315  1.0807  0.4721
 1808SOL    HW3 6999   6.450   0.098   3.007  0.5491 -0.6725  0.4977
 1808SOL    MW4 7000   6.395   0.032   3.019 -0.0918 -0.1718  0.3879
 1809SOL     OW 7001   1.586   1.081   1.668 -0.4730 -0.2266 -0.7988
 1809SOL    HW2 7002   1.642   1.105   1.594  1.5009  1.3451  1.0819
 1809SOL    HW3 7003   1.621   0.997   1.698  0.5836  0.4795  0.0194
 1809SOL    MW4 7004   1.598   1.073   1.662 -0.0732  0.0739 -0.4427
 1810SOL     OW 7005   3.327   0.665   1.558  0.1986  0.3483  0.1574
 1810SOL    HW2 7006   3.285   0.603   1.499 -0.9989  0.2104  1.1150
 1810SOL    HW3 7007   3.377   0.723   1.500 -0.9349  0.2284 -0.9893
 1810SOL    MW4 7008   3.328   0.664   1.543 -0.1090  0.3143  0.1325
 1811SOL     OW 7009   4.607   5.361   5.252 -0.6350  0.2350  0.2558
 1811SOL    HW2 7010   4.512   5.362   5.256 -0.6883  0.9700 -0.6838
 1811SOL    HW3 7011   4.629   5.429   5.188  0.1989 -3.6620 -4.2377
 1811SOL    MW4 7012   4.597   5.370   5.244 -0.5320 -0.1822 -0.4610
 1812SOL     OW 7013   3.352   4.168   5.300  0.1131 -0.3393  0.0576
 1812SOL    HW2 7014   3.378   4.101   5.363 -1.2709 -0.0263  0.9975
 1812SOL    HW3 7015   3.298   4.229   5.350 -0.7232  0.1137 -1.3492
 1812SOL    MW4 7016   3.348   4.167   5.315 -0.1798 -0.2382 -0.0040
 1813SOL     OW 7017   5.888   2.921   5.179  0.3475  0.7188  0.7410
 1813SOL    HW2 7018   5.804   2.900   5.220 -0.3044  1.1737 -0.3160
 1813SOL    HW3 7019   5.872   3.003   5.133  1.5211  1.0690  0.9170
 1813SOL    MW4 7020   5.875   2.929   5.179  0.4163  0.8250  0.6247
 1814SOL     OW 7021   1.457   5.332   0.488  0.3544 -0.8859 -0.1503
 1814SOL    HW2 7022   1.524   5.398   0.505  0.4165 -0.4794 -1.7987
 1814SOL    HW3 7023   1.492   5.252   0.528  0.9576 -0.2776  0.5852
 1814SOL    MW4 7024   1.471   5.330   0.496  0.4422 -0.7520 -0.2707
 1815SOL     OW 7025   4.457   1.103   5.847 -0.0919 -0.9019  0.0093
 1815SOL    HW2 7026   4.498   1.119   5.762 -0.7801 -0.4553 -0.2477
 1815SOL    HW3 7027   4.485   1.176   5.902  1.8650 -2.1507  0.7534
 1815SOL    MW4 7028   4.466   1.115   5.843  0.0755 -1.0077  0.0736
 1816SOL     OW 7029   5.846   1.401   3.872  0.2970  1.1218  0.4884
 1816SOL    HW2 7030   5.780   1.333   3.883 -0.1310  1.1436 -1.5913
 1816SOL    HW3 7031   5.839   1.454   3.951  0.2505 -0.8693  1.8975
 1816SOL    MW4 7032   5.837   1.399   3.884  0.2344  0.8619  0.3999
 1817SOL     OW 7033   1.502   0.703   1.813 -0.2169 -0.4297 -0.3396
 1817SOL    HW2 7034   1.581   0.741   1.774 -0.1099  0.5591  0.7890
 1817SOL    HW3 7035   1.526   0.613   1.834  0.3347 -0.3872 -0.7751
 1817SOL    MW4 7036   1.515   0.697   1.810 -0.1300 -0.2936 -0.2481
 1818SOL     OW 7037   2.470   6.333   2.283  0.2308  0.4315 -0.1560
 1818SOL    HW2 7038   2.473   6.368   2.372 -0.1732  1.0174 -0.3614
 1818SOL    HW3 7039   2.561   6.316   2.260  0.3161  0.0582  0.4542
 1818SOL    MW4 7040   2.482   6.335   2.292  0.1888  0.4595 -0.1026
 1819SOL     OW 7041   5.852   2.581   2.544 -0.7346 -0.2640  0.7344
 1819SOL    HW2 7042   5.783   2.595   2.608 -0.7380 -1.8447  1.1175
 1819SOL    HW3 7043   5.868   2.668   2.506 -0.8091  0.6931  2.7617
 1819SOL    MW4 7044   5.845   2.594   2.547 -0.7448 -0.3463  1.0524
 1820SOL     OW 7045   6.393   3.205   4.923 -0.1871 -0.6165 -0.4096
 1820SOL    HW2 7046   6.487   3.190   4.911 -0.0208  0.1995 -0.1877
 1820SOL    HW3 7047   6.351   3.129   4.883  0.5448 -0.6926 -1.0505
 1820SOL    MW4 7048   6.400   3.193   4.916 -0.0686 -0.5189 -0.4649
 1821SOL     OW 7049   1.478   1.285   0.632 -0.1292 -0.2030  0.0650
 1821SOL    HW2 7050   1.546   1.336   0.588  0.5132 -0.8434  0.2915
 1821SOL    HW3 7051   1.524   1.208   0.666 -0.7011  0.0368  1.4507
 1821SOL    MW4 7052   1.493   1.281   0.631 -0.1199 -0.2559  0.2777
 1822SOL     OW 7053   4.779   2.727   6.132 -0.0614 -0.3432  0.4703
 1822SOL    HW2 7054   4.782   2.818   6.102  1.1726 -0.3197  0.5994
 1822SOL    HW3 7055   4.815   2.730   6.221  0.3580 -0.9971  0.3338
 1822SOL    MW4 7056   4.784   2.740   6.139  0.1568 -0.4264  0.4693
 1823SOL     OW 7057   3.279   2.148   2.842  0.1507 -0.4301 -0.1003
 1823SOL    HW2 7058   3.193   2.189   2.830 -0.0264 -0.7038  0.2126
 1823SOL    HW3 7059   3.303   2.169   2.932  1.6675  1.9746 -0.9797
 1823SOL    MW4 7060   3.271   2.156   2.852  0.3274 -0.1489 -0.1751
 1824SOL     OW 7061   4.179   1.150   2.790  0.0875  0.6656 -0.4116
 1824SOL    HW2 7062   4.201   1.069   2.743  0.3762  0.0516  0.7446
 1824SOL    HW3 7063   4.262   1.176   2.832 -0.1098  1.3269 -0.4199
 1824SOL    MW4 7064   4.193   1.143   2.789  0.0996  0.6718 -0.2601
 1825SOL     OW 7065   0.746   1.739   4.921  0.1329  0.2232 -0.0078
 1825SOL    HW2 7066   0.812   1.726   4.852  0.0588 -1.1644  0.1450
 1825SOL    HW3 7067   0.664   1.749   4.874 -0.1134 -1.9720 -0.1503
 1825SOL    MW4 7068   0.744   1.739   4.905  0.0906 -0.2495 -0.0064
 1826SOL     OW 7069   2.879   6.358   1.262 -0.0829  0.2739  0.0046
 1826SOL    HW2 7070   2.915   6.280   1.305 -1.8315  1.0920  3.2526
 1826SOL    HW3 7071   2.904   6.430   1.319 -0.2923  1.8841 -1.8336
 1826SOL    MW4 7072   2.887   6.357   1.275 -0.3412  0.5943  0.1906
 1827SOL     OW 7073   2.914   4.806   0.371  0.2804  0.3927  0.4111
 1827SOL    HW2 7074   2.997   4.764   0.395  0.7978  0.9164 -0.4070
 1827SOL    HW3 7075   2.925   4.829   0.278 -0.3983  1.3729  0.5588
 1827SOL    MW4 7076   2.927   4.803   0.362  0.2592  0.5912  0.3226
 1828SOL     OW 7077   6.381   0.865   0.013 -0.0126  0.0619 -0.3142
 1828SOL    HW2 7078   6.455   0.885  -0.045 -1.3919  0.1947 -2.1016
 1828SOL    HW3 7079   6.415   0.882   0.101  2.0318  0.2599 -1.0850
 1828SOL    MW4 7080   6.395   0.870   0.017  0.0752  0.1055 -0.6517
 1829SOL     OW 7081   4.126   4.278   1.450 -0.5013 -0.5455  0.3434
 1829SOL    HW2 7082   4.073   4.245   1.523  1.1901 -1.0206  1.4150
 1829SOL    HW3 7083   4.114   4.373   1.452 -2.2935 -0.7175 -0.2682
 1829SOL    MW4 7084   4.117   4.286   1.460 -0.5146 -0.6309  0.4041
 1830SOL     OW 7085   4.276   1.284   4.837 -0.0310 -0.4990  0.3389
 1830SOL    HW2 7086   4.201   1.252   4.886 -0.5030 -0.5383 -0.3977
 1830SOL    HW3 7087   4.283   1.226   4.761 -0.5772  0.7771 -0.7360
 1830SOL    MW4 7088   4.267   1.272   4.833 -0.1654 -0.3359  0.0999
 1831SOL     OW 7089   6.423   6.038   1.672  0.7109 -0.2201 -0.0256
 1831SOL    HW2 7090   6.444   5.964   1.729  1.1415  0.2657  0.4476
 1831SOL    HW3 7091   6.375   6.099   1.727  3.5377  1.5406  0.6535
 1831SOL    MW4 7092   6.419   6.036   1.687  1.1407  0.0763  0.1265
 1832SOL     OW 7093   2.980   4.016   1.625 -0.2008  0.9309 -0.2310
 1832SOL    HW2 7094   3.039   4.087   1.651 -2.9403  3.4090 -0.1411
 1832SOL    HW3 7095   2.993   4.007   1.531  0.6318  1.0934 -0.1425
 1832SOL    MW4 7096   2.989   4.024   1.616 -0.4524  1.2793 -0.2075
 1833SOL     OW 7097   1.968   6.014   6.189 -0.4643 -0.2213 -0.2466
 1833SOL    HW2 7098   1.930   6.098   6.163 -0.5513 -0.1877 -0.0121
 1833SOL    HW3 7099   1.902   5.974   6.245 -1.6638 -1.7101 -2.5977
 1833SOL    MW4 7100   1.954   6.020   6.193 -0.6340 -0.4133 -0.5259
 1834SOL     OW 7101   2.785   0.869   1.386  0.2764  0.5282  0.1583
 1834SOL    HW2 7102   2.716   0.897   1.447 -0.0454 -1.4089  0.7538
 1834SOL    HW3 7103   2.739   0.820   1.318  1.0270 -0.8630  0.6088
 1834SOL    MW4 7104   2.770   0.866   1.385  0.3330  0.0891  0.2963
 1835SOL     OW 7105   4.555   5.055   4.544 -0.2338  0.0775 -0.0365
 1835SOL    HW2 7106   4.598   4.970   4.541 -0.9475 -0.3726  1.3612
 1835SOL    HW3 7107   4.465   5.037   4.517 -0.6248  0.1908  1.1140
 1835SOL    MW4 7108   4.548   5.041   4.540 -0.3795  0.0331  0.2997
 1836SOL     OW 7109   1.916   4.670   0.623  0.2854  0.4353 -0.0111
 1836SOL    HW2 7110   2.011   4.664   0.618  0.2587  0.6009 -0.7769
 1836SOL    HW3 7111   1.899   4.759   0.652  0.3400  0.7341 -0.8820
 1836SOL    MW4 7112   1.926   4.681   0.626  0.2891  0.4965 -0.2270
 1837SOL     OW 7113   3.694   3.896   0.341  0.1517  0.1361 -0.0278
 1837SOL    HW2 7114   3.611   3.893   0.389  0.9593 -2.3758  1.3726
 1837SOL    HW3 7115   3.752   3.946   0.398  0.3173 -0.3998  0.2819
 1837SOL    MW4 7116   3.691   3.902   0.355  0.2801 -0.2660  0.1978
 1838SOL     OW 7117   0.284   4.873   2.318  0.1048 -0.6036 -0.2240
 1838SOL    HW2 7118   0.368   4.918   2.309 -0.4500  0.7821  1.1258
 1838SOL    HW3 7119   0.302   4.783   2.290  1.8441 -0.1628 -0.6560
 1838SOL    MW4 7120   0.298   4.867   2.313  0.2611 -0.3626 -0.1029
 1839SOL     OW 7121   2.150   5.866   0.449 -0.0463  0.0202 -0.5572
 1839SOL    HW2 7122   2.138   5.843   0.541  0.8710  3.6366  0.6453
 1839SOL    HW3 7123   2.237   5.834   0.427 -0.6145 -1.6489 -0.5015
 1839SOL    MW4 7124   2.160   5.859   0.458 -0.0003  0.2771 -0.3912
 1840SOL     OW 7125   1.706   2.480   3.613  0.1083 -0.4050  0.0116
 1840SOL    HW2 7126   1.776   2.510   3.555 -0.4132 -1.4905 -1.2446
 1840SOL    HW3 7127   1.633   2.541   3.597 -0.3009 -1.1539 -1.1015
 1840SOL    MW4 7128   1.705   2.492   3.603 -0.0145 -0.6470 -0.3010
 1841SOL     OW 7129   5.483   3.299   1.743  0.0921  0.5870  0.3075
 1841SOL    HW2 7130   5.449   3.226   1.795  2.0512  1.3586  2.8814
 1841SOL    HW3 7131   5.450   3.378   1.787 -1.2878  1.3537 -1.9176
 1841SOL    MW4 7132   5.474   3.300   1.756  0.1685  0.7899  0.3535
 1842SOL     OW 7133   4.794   3.393   0.207 -0.4516 -0.1100 -0.6461
 1842SOL    HW2 7134   4.733   3.388   0.132 -0.3054 -0.2508 -0.7550
 1842SOL    HW3 7135   4.739   3.375   0.283  0.0341 -3.7693 -0.9718
 1842SOL    MW4 7136   4.779   3.390   0.207 -0.3682 -0.6114 -0.7035
 1843SOL     OW 7137   1.475   2.508   1.181  0.1009  0.0430 -0.3749
 1843SOL    HW2 7138   1.412   2.442   1.211 -0.5406  0.9405  0.3245
 1843SOL    HW3 7139   1.479   2.497   1.086  0.8397 -1.7110 -0.1679
 1843SOL    MW4 7140   1.467   2.498   1.173  0.1138 -0.0700 -0.2553
 1844SOL     OW 7141   2.402   2.224   2.443 -0.1573  0.2257 -0.1749
 1844SOL    HW2 7142   2.366   2.176   2.517 -0.0933 -2.1418 -1.5858
 1844SOL    HW3 7143   2.380   2.315   2.460 -0.7139 -0.3234  2.3979
 1844SOL    MW4 7144   2.394   2.230   2.455 -0.2223 -0.1591 -0.0216
 1845SOL     OW 7145   3.162   1.604   1.235 -0.2655 -0.3796 -0.5191
 1845SOL    HW2 7146   3.229   1.668   1.259 -0.6622 -0.0975 -0.1489
 1845SOL    HW3 7147   3.199   1.558   1.160 -0.8646  1.8185 -2.2784
 1845SOL    MW4 7148   3.176   1.606   1.228 -0.3969 -0.0524 -0.7024
 1846SOL     OW 7149   3.523   1.228   4.372  0.3090  0.8508 -0.0711
 1846SOL    HW2 7150   3.577   1.163   4.328 -0.2857  0.6051 -0.4515
 1846SOL    HW3 7151   3.445   1.180   4.400 -0.2406  1.4417 -0.5591
 1846SOL    MW4 7152   3.520   1.213   4.370  0.1580  0.8964 -0.1857
 1847SOL     OW 7153   4.076   2.536   4.058 -1.0112 -0.1867 -0.8450
 1847SOL    HW2 7154   4.159   2.545   4.010 -0.1712 -0.3706  0.4970
 1847SOL    HW3 7155   4.054   2.443   4.051 -0.9739 -0.1829 -1.0097
 1847SOL    MW4 7156   4.084   2.525   4.051 -0.8955 -0.2105 -0.6896
 1848SOL     OW 7157   2.919   0.822   2.460 -0.6543  0.1359 -0.8892
 1848SOL    HW2 7158   2.964   0.902   2.436  1.4926 -1.0997 -1.1977
 1848SOL    HW3 7159   2.866   0.846   2.536  0.9748  1.5323 -0.1467
 1848SOL    MW4 7160   2.918   0.836   2.467 -0.1561  0.1571 -0.8319
 1849SOL     OW 7161   3.859   0.721   3.166  0.1639  0.2890  0.2442
 1849SOL    HW2 7162   3.809   0.738   3.087 -1.6519 -2.4769  0.6383
 1849SOL    HW3 7163   3.804   0.752   3.237  1.2157  1.6008  0.5122
 1849SOL    MW4 7164   3.845   0.727   3.165  0.0631  0.0971  0.3315
 1850SOL     OW 7165   2.968   4.879   3.773 -0.0308 -0.0227  0.2635
 1850SOL    HW2 7166   2.898   4.944   3.775  0.6438  0.7654 -1.0531
 1850SOL    HW3 7167   2.952   4.825   3.851 -0.5003  1.8020  1.4849
 1850SOL    MW4 7168   2.957   4.880   3.784 -0.0037  0.3221  0.2509
 1851SOL     OW 7169   5.466   4.861   3.056 -0.0165  0.0909  0.1092
 1851SOL    HW2 7170   5.485   4.886   3.146  1.7910 -1.0760  0.1098
 1851SOL    HW3 7171   5.533   4.905   3.004  0.8418 -1.5797 -0.2901
 1851SOL    MW4 7172   5.478   4.870   3.061  0.3352 -0.2835  0.0566
 1852SOL     OW 7173   4.439   1.529   4.817  0.7049 -0.0289 -0.0243
 1852SOL    HW2 7174   4.391   1.447   4.800  0.6856  0.0143 -0.1722
 1852SOL    HW3 7175   4.386   1.597   4.776  0.0675  0.2203  1.1494
 1852SOL    MW4 7176   4.426   1.527   4.810  0.6182  0.0097  0.1111
 1853SOL     OW 7177   2.254   0.761   1.149  0.5028 -0.3337  0.1647
 1853SOL    HW2 7178   2.182   0.699   1.163  0.9138 -0.8756 -0.0903
 1853SOL    HW3 7179   2.212   0.840   1.116 -0.1842 -0.0050  1.7182
 1853SOL    MW4 7180   2.239   0.763   1.147  0.4664 -0.3618  0.3360
 1854SOL     OW 7181   1.194   0.988   5.031 -0.2970  0.0388 -0.0985
 1854SOL    HW2 7182   1.185   0.920   5.097 -0.7106 -0.6845 -0.8756
 1854SOL    HW3 7183   1.138   0.959   4.959  0.7489  0.3859 -1.0928
 1854SOL    MW4 7184   1.186   0.975   5.030 -0.2136 -0.0108 -0.3322
 1855SOL     OW 7185   2.737   6.364   3.434  0.4123 -0.3319  0.2358
 1855SOL    HW2 7186   2.726   6.286   3.379  1.0395 -0.0806 -0.2586
 1855SOL    HW3 7187   2.741   6.436   3.371 -0.8983  0.1923  0.7192
 1855SOL    MW4 7188   2.736   6.363   3.418  0.3221 -0.2296  0.2344
 1856SOL     OW 7189   4.396   1.770   0.263  0.1753  0.4044  0.2304
 1856SOL    HW2 7190   4.350   1.854   0.257  0.9456  0.8172 -0.0548
 1856SOL    HW3 7191   4.477   1.791   0.311  0.8104  0.0120 -0.6501
 1856SOL    MW4 7192   4.401   1.784   0.269  0.3607  0.4071  0.0766
 1857SOL     OW 7193   4.264   2.881   2.513  0.0275 -0.3143 -0.5159
 1857SOL    HW2 7194   4.305   2.796   2.497 -0.1602 -0.4853 -0.0822
 1857SOL    HW3 7195   4.278   2.929   2.432 -0.7128 -1.0962 -1.1228
 1857SOL    MW4 7196   4.272   2.876   2.500 -0.0949 -0.4400 -0.5388
 1858SOL     OW 7197   2.108   1.574   1.874  0.3070 -0.1135  0.2765
 1858SOL    HW2 7198   2.097   1.490   1.919  0.6087 -0.1539  0.2750
 1858SOL    HW3 7199   2.100   1.552   1.781 -1.8290  0.1901  0.3342
 1858SOL    MW4 7200   2.106   1.560   1.868  0.0650 -0.0788  0.2839
 1859SOL     OW 7201   4.630   4.996   0.526  0.3837 -0.0616  0.0130
 1859SOL    HW2 7202   4.548   5.036   0.497 -0.1820 -0.3236  1.2006
 1859SOL    HW3 7203   4.675   5.066   0.574  0.3789 -0.2301  0.2612
 1859SOL    MW4 7204   4.625   5.011   0.529  0.3084 -0.1184  0.2024
 1860SOL     OW 7205   1.664   4.036   3.291  0.7812  0.5319 -0.6697
 1860SOL    HW2 7206   1.748   4.055   3.334  0.4339  0.1041  0.2378
 1860SOL    HW3 7207   1.665   3.941   3.279  1.4142  0.7744 -2.8197
 1860SOL    MW4 7208   1.675   4.026   3.295  0.8189  0.5075 -0.8337
 1861SOL     OW 7209   2.503   3.124   2.079  0.3593 -0.0024  0.1727
 1861SOL    HW2 7210   2.476   3.069   2.153 -0.7753 -1.2013 -1.0901
 1861SOL    HW3 7211   2.590   3.156   2.104  0.3193 -0.9778  1.6985
 1861SOL    MW4 7212   2.511   3.121   2.092  0.2043 -0.2893  0.2074
 1862SOL     OW 7213   1.859   0.180   5.406  0.1055 -0.0800  0.1259
 1862SOL    HW2 7214   1.867   0.230   5.487 -1.6361  2.2026 -0.9855
 1862SOL    HW3 7215   1.765   0.170   5.394  0.2735  0.3633 -1.9859
 1862SOL    MW4 7216   1.848   0.185   5.415 -0.1021  0.2797 -0.2994
 1863SOL     OW 7217   5.046   1.793   1.720  0.2845 -0.2535  0.1860
 1863SOL    HW2 7218   4.973   1.752   1.673  0.5276 -0.0515 -0.3717
 1863SOL    HW3 7219   5.085   1.721   1.770  0.5511 -0.6602 -0.5934
 1863SOL    MW4 7220   5.041   1.778   1.720  0.3518 -0.2805  0.0096
 1864SOL     OW 7221   5.787   1.377   0.674 -0.8688  0.4587  0.1905
 1864SOL    HW2 7222   5.824   1.289   0.676  0.5824  0.9657 -1.6935
 1864SOL    HW3 7223   5.826   1.418   0.597 -2.1305  2.4942  0.5598
 1864SOL    MW4 7224   5.797   1.371   0.664 -0.8438  0.7942 -0.0094
 1865SOL     OW 7225   5.004   5.755   5.967 -0.2804  0.0093  0.3375
 1865SOL    HW2 7226   5.058   5.834   5.962  1.5636 -1.2863 -1.4885
 1865SOL    HW3 7227   4.996   5.725   5.877 -1.0404 -1.8476  0.9737
 1865SOL    MW4 7228   5.010   5.761   5.955 -0.1374 -0.4066  0.1806
 1866SOL     OW 7229   2.416   0.796   1.417  0.5367 -0.2374 -0.8862
 1866SOL    HW2 7230   2.377   0.883   1.410  1.8890  0.3112 -2.2206
 1866SOL    HW3 7231   2.349   0.737   1.384 -0.2375  0.3370 -0.3784
 1866SOL    MW4 7232   2.402   0.800   1.412  0.6130 -0.0892 -0.9953
 1867SOL     OW 7233   2.669   4.080   4.803  0.0665  0.4640  0.5721
 1867SOL    HW2 7234   2.734   4.150   4.802 -0.0437  0.5965  1.8554
 1867SOL    HW3 7235   2.634   4.079   4.714 -1.3533  3.3945  0.9813
 1867SOL    MW4 7236   2.673   4.089   4.791 -0.1354  0.8681  0.7954
 1868SOL     OW 7237   1.564   5.037   5.749  0.4141  0.0647  0.4991
 1868SOL    HW2 7238   1.587   4.949   5.778  1.0689  0.1369  0.2113
 1868SOL    HW3 7239   1.643   5.069   5.705 -0.7410 -0.3815 -2.1396
 1868SOL    MW4 7240   1.577   5.029   5.747  0.3481  0.0154  0.1130
 1869SOL     OW 7241   0.122   4.147   0.115 -0.4104 -0.1086 -0.2573
 1869SOL    HW2 7242   0.133   4.141   0.210 -1.3110  0.1697 -0.1332
 1869SOL    HW3 7243   0.092   4.060   0.088 -0.3902 -0.1155 -0.2578
 1869SOL    MW4 7244   0.120   4.135   0.124 -0.5265 -0.0728 -0.2410
 1870SOL     OW 7245   5.225   2.212   1.606  0.7880  0.2588 -0.1763
 1870SOL    HW2 7246   5.218   2.172   1.520  0.1024  0.3911 -0.1866
 1870SOL    HW3 7247   5.251   2.302   1.589 -0.0650  0.4899 -0.2927
 1870SOL    MW4 7248   5.228   2.218   1.593  0.5850  0.3068 -0.1930
 1871SOL     OW 7249   4.731   0.583   3.831  0.0630 -0.0650 -0.0936
 1871SOL    HW2 7250   4.705   0.512   3.772  0.0025 -0.0956 -0.0294
 1871SOL    HW3 7251   4.794   0.543   3.890  2.3258  0.6005 -1.8859
 1871SOL    MW4 7252   4.736   0.569   3.831  0.3536  0.0188 -0.3216
 1872SOL     OW 7253   0.963   4.166   0.543  0.5350 -0.3121 -0.5080
 1872SOL    HW2 7254   0.900   4.234   0.517  0.0991 -0.6632 -0.3772
 1872SOL    HW3 7255   0.965   4.106   0.469 -0.5372 -1.1931  0.1542
 1872SOL    MW4 7256   0.955   4.167   0.530  0.3360 -0.4747 -0.4033
 1873SOL     OW 7257   5.687   4.784   0.321  0.2367 -0.0922 -0.7291
 1873SOL    HW2 7258   5.746   4.739   0.381 -1.4823 -0.8819  0.4562
 1873SOL    HW3 7259   5.624   4.829   0.377 -0.2736  0.7639 -1.9335
 1873SOL    MW4 7260   5.686   4.784   0.336 -0.0574 -0.0834 -0.7316
 1874SOL     OW 7261   2.089   2.621   4.063  0.0643 -0.0450 -0.3740
 1874SOL    HW2 7262   2.052   2.551   4.009 -2.4962  1.5775 -0.8622
 1874SOL    HW3 7263   2.123   2.576   4.140  1.1945 -2.1009 -1.9767
 1874SOL    MW4 7264   2.089   2.606   4.066 -0.1244 -0.1022 -0.6499
 1875SOL     OW 7265   4.025   3.703   0.399 -0.1089  0.4014  1.0259
 1875SOL    HW2 7266   3.958   3.671   0.459  0.4109 -2.3014  0.2841
 1875SOL    HW3 7267   4.092   3.635   0.399 -0.0834  0.2295 -2.6260
 1875SOL    MW4 7268   4.025   3.690   0.407 -0.0369  0.0221  0.4462
 1876SOL     OW 7269   2.156   2.227   2.263 -0.2945 -0.4101  0.4982
 1876SOL    HW2 7270   2.238   2.203   2.306 -0.0344  0.7433  0.6789
 1876SOL    HW3 7271   2.184   2.273   2.183 -0.7669 -2.3260 -0.8469
 1876SOL    MW4 7272   2.171   2.230   2.258 -0.3225 -0.5107  0.3446
 1877SOL     OW 7273   3.011   2.198   3.385  0.7400  0.2419 -0.2822
 1877SOL    HW2 7274   2.996   2.128   3.322 -0.7814 -0.8514  1.1893
 1877SOL    HW3 7275   2.948   2.266   3.362  0.5352  0.0637 -0.2442
 1877SOL    MW4 7276   3.001   2.198   3.374  0.5122  0.0742 -0.0830
 1878SOL     OW 7277   3.333   2.250   0.349  0.3092  0.1926  0.2972
 1878SOL    HW2 7278   3.391   2.218   0.419 -2.2572  0.8437  2.9234
 1878SOL    HW3 7279   3.268   2.181   0.338  0.8825 -0.0664 -1.8433
 1878SOL    MW4 7280   3.332   2.237   0.357  0.0463  0.2443  0.3613
 1879SOL     OW 7281   4.246   6.049   4.879  0.1564  0.1140  0.1183
 1879SOL    HW2 7282   4.227   5.978   4.940  0.2889  0.8681  1.0677
 1879SOL    HW3 7283   4.330   6.084   4.908  0.9805 -0.4580 -1.4314
 1879SOL    MW4 7284   4.255   6.044   4.891  0.2826  0.1380  0.0391
 1880SOL     OW 7285   5.029   2.028   1.189 -0.2176  0.1375  0.1009
 1880SOL    HW2 7286   4.936   2.022   1.166 -0.0705  0.1359 -0.5042
 1880SOL    HW3 7287   5.071   1.957   1.140  0.1794  0.4619 -0.0358
 1880SOL    MW4 7288   5.022   2.018   1.180 -0.1458  0.1801  0.0031
 1881SOL     OW 7289   1.084   3.947   3.822  0.2997  0.5388  0.2176
 1881SOL    HW2 7290   1.147   4.008   3.784  0.1777 -0.2385 -1.3328
 1881SOL    HW3 7291   1.000   3.993   3.814  0.4147  0.8144  0.5573
 1881SOL    MW4 7292   1.081   3.961   3.816  0.2987  0.4726  0.0579
 1882SOL     OW 7293   4.248   4.959   2.800  0.5988  0.1437  0.4381
 1882SOL    HW2 7294   4.280   5.033   2.749  0.2940  0.5411  0.8153
 1882SOL    HW3 7295   4.171   4.928   2.751  1.2978 -0.5412 -0.2383
 1882SOL    MW4 7296   4.242   4.965   2.787  0.6508  0.1058  0.3986
 1883SOL     OW 7297   4.539   1.526   4.053 -0.1603  0.6823 -0.4931
 1883SOL    HW2 7298   4.444   1.518   4.066  0.3419 -0.3103  4.6167
 1883SOL    HW3 7299   4.566   1.439   4.025 -0.5931  0.4768 -0.2945
 1883SOL    MW4 7300   4.530   1.514   4.051 -0.1511  0.5242  0.2073
 1884SOL     OW 7301   4.199   6.214   1.109 -0.9068  0.1675  0.3385
 1884SOL    HW2 7302   4.232   6.192   1.196  0.3197  1.6110  0.2830
 1884SOL    HW3 7303   4.140   6.288   1.123 -0.3046  0.7499 -0.0749
 1884SOL    MW4 7304   4.196   6.221   1.122 -0.6656  0.4348  0.2766
 1885SOL     OW 7305   2.830   4.795   6.080  0.7822 -0.0587 -0.1709
 1885SOL    HW2 7306   2.824   4.735   6.006  1.9438 -0.1561 -0.1991
 1885SOL    HW3 7307   2.921   4.825   6.080  0.5537  0.6965  0.6306
 1885SOL    MW4 7308   2.841   4.791   6.070  0.9053  0.0281 -0.0689
 1886SOL     OW 7309   2.568   1.154   4.052  0.0799  0.3512  0.0654
 1886SOL    HW2 7310   2.505   1.206   4.101  0.6656  0.4724  0.6961
 1886SOL    HW3 7311   2.644   1.147   4.109  0.2006 -0.7883 -0.2145
 1886SOL    MW4 7312   2.570   1.160   4.066  0.1731  0.2169  0.1117
 1887SOL     OW 7313   0.945   3.930   1.982 -0.4896 -0.1305  0.2072
 1887SOL    HW2 7314   0.947   3.896   1.893  0.4859  0.3790  0.0317
 1887SOL    HW3 7315   0.857   3.906   2.014 -1.1113  0.2821 -1.1114
 1887SOL    MW4 7316   0.933   3.923   1.975 -0.4430 -0.0088  0.0100
 1888SOL     OW 7317   4.716   5.585   4.019 -0.2037  0.0323  0.1345
 1888SOL    HW2 7318   4.689   5.524   3.950  3.6533 -1.1796 -0.5631
 1888SOL    HW3 7319   4.765   5.654   3.973  2.8062 -1.0135  1.4805
 1888SOL    MW4 7320   4.719   5.586   4.004  0.7023 -0.2656  0.2200
 1889SOL     OW 7321   3.011   0.025   4.557 -0.1191 -0.7273  0.1427
 1889SOL    HW2 7322   2.973   0.110   4.578 -0.7057 -0.3862 -2.0671
 1889SOL    HW3 7323   2.937  -0.029   4.532  0.5236 -0.9921 -1.2628
 1889SOL    MW4 7324   2.997   0.029   4.557 -0.1117 -0.7172 -0.3343
 1890SOL     OW 7325   3.226   3.974   5.968  0.1350 -0.0034  0.1856
 1890SOL    HW2 7326   3.228   3.879   5.956  1.6463 -0.0552  0.7435
 1890SOL    HW3 7327   3.308   3.995   6.011  0.5441  1.7639 -1.3194
 1890SOL    MW4 7328   3.237   3.964   5.972  0.3884  0.2230  0.0606
 1891SOL     OW 7329   5.610   2.984   4.904 -0.2245 -0.1456 -0.3652
 1891SOL    HW2 7330   5.566   2.899   4.909 -0.2438 -0.1535 -0.6511
 1891SOL    HW3 7331   5.557   3.034   4.842 -0.5930  0.3056  0.3006
 1891SOL    MW4 7332   5.597   2.979   4.897 -0.2757 -0.0871 -0.3151
 1892SOL     OW 7333   1.963   1.196   2.504  0.1325 -0.2138 -0.0170
 1892SOL    HW2 7334   1.941   1.104   2.492  0.0533 -0.2039  0.0518
 1892SOL    HW3 7335   1.882   1.236   2.535  0.4997 -0.3593  1.1858
 1892SOL    MW4 7336   1.950   1.189   2.507  0.1705 -0.2317  0.1508
 1893SOL     OW 7337   4.108   0.865   2.770 -0.4964  0.2367 -0.4871
 1893SOL    HW2 7338   4.067   0.911   2.844 -1.0629 -0.0776 -0.6034
 1893SOL    HW3 7339   4.041   0.864   2.702 -0.5557 -0.8991 -0.4310
 1893SOL    MW4 7340   4.094   0.871   2.771 -0.5790  0.0453 -0.4951
 1894SOL     OW 7341   6.164   1.477   2.018 -0.5389  0.3071 -0.9096
 1894SOL    HW2 7342   6.258   1.496   2.024 -0.0470 -1.7570 -1.5210
 1894SOL    HW3 7343   6.128   1.508   2.102  0.3481  2.6328 -1.3137
 1894SOL    MW4 7344   6.171   1.484   2.030 -0.3570  0.3416 -1.0436
 1895SOL     OW 7345   6.201   2.888   0.437  0.0818 -0.6388 -0.3541
 1895SOL    HW2 7346   6.256   2.822   0.394  3.2042  1.2980  0.2976
 1895SOL    HW3 7347   6.173   2.946   0.365  0.6595 -0.4976 -0.4728
 1895SOL    MW4 7348   6.205   2.887   0.422  0.5700 -0.3647 -0.2838
 1896SOL     OW 7349   2.129   3.555   1.786 -0.2086  0.0149  0.3877
 1896SOL    HW2 7350   2.102   3.632   1.735 -0.0232 -0.0341  0.2096
 1896SOL    HW3 7351   2.195   3.589   1.847  3.0169 -0.6263 -2.4170
 1896SOL    MW4 7352   2.134   3.570   1.787  0.2414 -0.0762 -0.0058
 1897SOL     OW 7353   2.293   3.498   0.709  0.3226 -0.0626 -0.2623
 1897SOL    HW2 7354   2.342   3.458   0.636  0.6325  0.0178 -0.1021
 1897SOL    HW3 7355   2.344   3.476   0.787  0.1183  0.0513 -0.0967
 1897SOL    MW4 7356   2.306   3.490   0.709  0.3366 -0.0369 -0.2193
 1898SOL     OW 7357   1.393   0.593   5.707  0.2209  0.3028 -0.5071
 1898SOL    HW2 7358   1.355   0.627   5.626 -0.0034  0.5802 -0.2884
 1898SOL    HW3 7359   1.458   0.659   5.732  1.1570 -0.3713 -1.1037
 1898SOL    MW4 7360   1.396   0.606   5.699  0.3148  0.2505 -0.5570
 1899SOL     OW 7361   3.273   5.931   1.725 -0.5578  0.2724 -0.0806
 1899SOL    HW2 7362   3.206   5.874   1.687  0.4395 -0.5637 -0.6375
 1899SOL    HW3 7363   3.346   5.873   1.745 -0.7146  0.8395  2.3866
 1899SOL    MW4 7364   3.274   5.916   1.722 -0.4469  0.2369  0.1715
 1900SOL     OW 7365   0.186   2.890   0.158 -0.1008 -0.1686 -0.1774
 1900SOL    HW2 7366   0.171   2.951   0.086 -0.3027  0.4153  0.3500
 1900SOL    HW3 7367   0.227   2.943   0.227  0.3084 -0.7678  0.0559
 1900SOL    MW4 7368   0.189   2.905   0.158 -0.0735 -0.1706 -0.0771
 1901SOL     OW 7369   1.685   4.614   0.791 -0.4940  0.1574  0.3335
 1901SOL    HW2 7370   1.650   4.600   0.703 -1.5240  0.3521  0.6976
 1901SOL    HW3 7371   1.779   4.625   0.777 -0.6899  0.6536 -0.8013
 1901SOL    MW4 7372   1.692   4.614   0.777 -0.6557  0.2486  0.2318
 1902SOL     OW 7373   2.497   2.553   5.670 -0.3212 -0.4832  0.5705
 1902SOL    HW2 7374   2.450   2.470   5.657  0.4885 -1.0294  1.0025
 1902SOL    HW3 7375   2.428   2.618   5.682 -0.9760 -1.0552 -0.0022
 1902SOL    MW4 7376   2.482   2.551   5.670 -0.3008 -0.6308  0.5520
 1903SOL     OW 7377   1.136   5.305   3.657 -0.5365  0.0963 -0.0575
 1903SOL    HW2 7378   1.052   5.326   3.697 -1.5767 -2.1738 -0.8604
 1903SOL    HW3 7379   1.192   5.281   3.731 -0.0921  2.8645  0.6132
 1903SOL    MW4 7380   1.133   5.304   3.672 -0.6151  0.1620 -0.0749
 1904SOL     OW 7381   5.858   4.097   0.072 -0.0290  0.7840 -0.6763
 1904SOL    HW2 7382   5.779   4.127   0.028 -1.4425 -2.2878 -0.4751
 1904SOL    HW3 7383   5.829   4.071   0.160  1.1779 -0.3116 -0.5549
 1904SOL    MW4 7384   5.844   4.097   0.078 -0.0562  0.2341 -0.6337
 1905SOL     OW 7385   6.198   6.334   0.421  0.1496  0.2091  0.0141
 1905SOL    HW2 7386   6.224   6.388   0.346 -0.6620  0.7450  0.1088
 1905SOL    HW3 7387   6.195   6.394   0.495 -0.3964 -0.0324  0.1948
 1905SOL    MW4 7388   6.201   6.349   0.421 -0.0295  0.2479  0.0505
 1906SOL     OW 7389   4.491   0.684   2.347 -0.0363 -0.2291 -0.0623
 1906SOL    HW2 7390   4.542   0.758   2.313  0.8992 -1.4766 -1.4591
 1906SOL    HW3 7391   4.403   0.699   2.313 -0.8491  2.1261  2.6461
 1906SOL    MW4 7392   4.486   0.696   2.338 -0.0201 -0.0830  0.1107
 1907SOL     OW 7393   2.180   1.842   0.472 -0.4422  0.4309  0.1299
 1907SOL    HW2 7394   2.260   1.821   0.423 -1.0866 -0.5170 -0.5501
 1907SOL    HW3 7395   2.160   1.932   0.448  0.3612  0.6403  0.2198
 1907SOL    MW4 7396   2.188   1.851   0.462 -0.4212  0.3334  0.0521
 1908SOL     OW 7397   1.689   0.314   3.376  0.1650  0.5648 -0.5014
 1908SOL    HW2 7398   1.618   0.311   3.313 -0.2976  0.6921  0.0006
 1908SOL    HW3 7399   1.662   0.381   3.439  0.4224  0.1606  0.0475
 1908SOL    MW4 7400   1.676   0.322   3.376  0.1379  0.5283 -0.3627
 1909SOL     OW 7401   0.989   4.736   3.341  0.0359 -0.2152  0.0599
 1909SOL    HW2 7402   0.933   4.806   3.373 -0.0193 -0.5016  0.5973
 1909SOL    HW3 7403   1.061   4.732   3.404 -0.7633 -1.6817  0.9387
 1909SOL    MW4 7404   0.991   4.745   3.354 -0.0768 -0.4465  0.2467
 1910SOL     OW 7405   5.663   3.732   2.544 -0.0681 -0.1768  0.0304
 1910SOL    HW2 7406   5.592   3.746   2.480 -0.8244  2.1273  1.2552
 1910SOL    HW3 7407   5.736   3.699   2.492 -1.3279 -0.4245 -1.6648
 1910SOL    MW4 7408   5.663   3.730   2.529 -0.3341  0.0945 -0.0316
 1911SOL     OW 7409   0.454   0.700   2.916  0.1568  0.3091  0.2572
 1911SOL    HW2 7410   0.397   0.664   2.847  0.1124  1.3236 -0.2483
 1911SOL    HW3 7411   0.418   0.664   2.997 -0.3946 -0.1169 -0.1609
 1911SOL    MW4 7412   0.442   0.690   2.917  0.0782  0.3867  0.1354
 1912SOL     OW 7413   0.949   4.404   5.593 -0.1654 -0.0818  0.0156
 1912SOL    HW2 7414   0.995   4.354   5.661  1.3507  1.8531  0.5176
 1912SOL    HW3 7415   0.916   4.481   5.639  0.8686  1.2687 -1.3863
 1912SOL    MW4 7416   0.951   4.407   5.608  0.1711  0.3517 -0.1031
 1913SOL     OW 7417   2.918   6.266   6.094 -0.2215 -0.2258 -0.4107
 1913SOL    HW2 7418   2.988   6.288   6.155  0.4489 -0.8847 -0.9172
 1913SOL    HW3 7419   2.840   6.309   6.129  0.1635 -0.5550  0.8753
 1913SOL    MW4 7420   2.917   6.274   6.107 -0.0823 -0.3562 -0.3079
 1914SOL     OW 7421   5.658   3.200   1.248 -0.5412  0.1562 -0.4839
 1914SOL    HW2 7422   5.601   3.163   1.316  0.6300 -1.1610 -0.1783
 1914SOL    HW3 7423   5.729   3.241   1.296 -0.6705  0.8663 -0.8908
 1914SOL    MW4 7424   5.660   3.200   1.264 -0.4037  0.0761 -0.4973
 1915SOL     OW 7425   1.079   5.934   0.700 -0.1170 -0.4089  0.2651
 1915SOL    HW2 7426   1.047   6.023   0.714  0.7415  0.4297 -2.3634
 1915SOL    HW3 7427   1.163   5.931   0.745 -0.5312 -0.1963  1.0737
 1915SOL    MW4 7428   1.086   5.946   0.707 -0.0583 -0.2702  0.0250
 1916SOL     OW 7429   4.347   4.324   5.605 -0.0325  0.3864 -0.2224
 1916SOL    HW2 7430   4.257   4.329   5.637 -0.3555  0.0163 -1.0267
 1916SOL    HW3 7431   4.338   4.325   5.510  0.8068  0.2047 -0.3104
 1916SOL    MW4 7432   4.334   4.325   5.597  0.0356  0.3136 -0.3401
 1917SOL     OW 7433   3.170   0.355   1.720 -0.4634  0.2473 -0.0769
 1917SOL    HW2 7434   3.156   0.384   1.810 -0.8496  1.8376 -0.6217
 1917SOL    HW3 7435   3.260   0.320   1.720  0.5022  2.5308  0.4084
 1917SOL    MW4 7436   3.180   0.355   1.732 -0.3870  0.7584 -0.0847
 1918SOL     OW 7437   1.380   2.592   5.150  0.2818 -0.6246 -0.2068
 1918SOL    HW2 7438   1.288   2.616   5.140  0.2266 -0.5447  0.4475
 1918SOL    HW3 7439   1.393   2.520   5.087 -0.4413 -1.1951  0.2743
 1918SOL    MW4 7440   1.370   2.585   5.140  0.1791 -0.6893 -0.0570
 1919SOL     OW 7441   1.434   2.897   3.393  0.1677 -0.0223  0.4671
 1919SOL    HW2 7442   1.409   2.987   3.373  3.2885  0.6996 -0.8104
 1919SOL    HW3 7443   1.351   2.851   3.407 -1.6955  2.3417 -1.8164
 1919SOL    MW4 7444   1.420   2.903   3.392  0.3336  0.3849 -0.0028
 1920SOL     OW 7445   1.559   2.604   4.748  0.0902 -0.0878 -0.5262
 1920SOL    HW2 7446   1.647   2.613   4.712 -0.2106  3.3011 -0.7750
 1920SOL    HW3 7447   1.562   2.652   4.831 -1.1836 -1.1296  0.1593
 1920SOL    MW4 7448   1.571   2.612   4.754 -0.1175  0.2218 -0.4686
 1921SOL     OW 7449   3.667   3.066   3.113 -0.0852  0.3429  0.4305
 1921SOL    HW2 7450   3.668   3.160   3.129 -0.6096  1.1478 -3.3384
 1921SOL    HW3 7451   3.755   3.047   3.080 -0.1770 -0.3818  0.5966
 1921SOL    MW4 7452   3.679   3.076   3.111 -0.1665  0.3535 -0.0448
 1922SOL     OW 7453   1.590   2.776   3.610 -0.2671 -0.7152  0.0460
 1922SOL    HW2 7454   1.518   2.795   3.550  1.4592 -0.6797 -2.1549
 1922SOL    HW3 7455   1.575   2.835   3.684 -1.6595  0.4117 -1.0483
 1922SOL    MW4 7456   1.578   2.787   3.612 -0.2230 -0.5618 -0.3888
 1923SOL     OW 7457   0.203   1.864   4.748 -0.3723 -0.4706  1.0688
 1923SOL    HW2 7458   0.138   1.845   4.816 -0.0861 -0.8979  1.2363
 1923SOL    HW3 7459   0.168   1.824   4.669  0.0675 -1.4498  1.3452
 1923SOL    MW4 7460   0.190   1.856   4.747 -0.2765 -0.6562  1.1273
 1924SOL     OW 7461   3.421   4.575   2.122 -0.4402 -0.2269 -0.1136
 1924SOL    HW2 7462   3.426   4.646   2.058  0.8256 -2.1782 -2.3269
 1924SOL    HW3 7463   3.503   4.581   2.171 -0.1554 -0.3644 -0.5631
 1924SOL    MW4 7464   3.432   4.585   2.120 -0.2356 -0.5025 -0.4650
 1925SOL     OW 7465   2.036   3.232   3.074  0.4313  0.1416  0.2537
 1925SOL    HW2 7466   2.066   3.242   3.164  0.0509  0.4446  0.3524
 1925SOL    HW3 7467   2.116   3.229   3.021  0.6790 -0.7318  0.6641
 1925SOL    MW4 7468   2.050   3.233   3.079  0.4138  0.0664  0.3209
 1926SOL     OW 7469   6.346   5.224   6.032  0.0504 -0.9283  0.4492
 1926SOL    HW2 7470   6.295   5.261   5.960 -0.4107  0.1815  1.3089
 1926SOL    HW3 7471   6.420   5.284   6.042 -0.8127 -0.0368  1.9976
 1926SOL    MW4 7472   6.349   5.237   6.024 -0.1243 -0.6643  0.7669
 1927SOL     OW 7473   2.200   0.613   2.376  0.7280  0.1183  0.1047
 1927SOL    HW2 7474   2.261   0.539   2.381 -0.1536 -0.6862 -0.6357
 1927SOL    HW3 7475   2.113   0.573   2.382  0.2306  1.0499 -0.5976
 1927SOL    MW4 7476   2.197   0.598   2.377  0.5460  0.1351 -0.0856
 1928SOL     OW 7477   3.642   5.150   0.439  0.6194 -0.1270 -0.3051
 1928SOL    HW2 7478   3.608   5.061   0.441  0.1192  0.0649  0.2258
 1928SOL    HW3 7479   3.617   5.185   0.354 -0.9838  0.1700  0.2469
 1928SOL    MW4 7480   3.635   5.143   0.428  0.3419 -0.0625 -0.1622
 1929SOL     OW 7481   4.339   5.099   0.597 -0.3199 -0.0792 -0.3116
 1929SOL    HW2 7482   4.347   5.054   0.513 -0.3598 -0.3614 -0.1639
 1929SOL    HW3 7483   4.343   5.192   0.574  1.2789 -0.1652 -0.4583
 1929SOL    MW4 7484   4.340   5.105   0.583 -0.1142 -0.1278 -0.3115
 1930SOL     OW 7485   4.407   6.339   1.328  0.1872  0.6205 -0.0217
 1930SOL    HW2 7486   4.472   6.325   1.397  0.5179 -1.5416 -0.6984
 1930SOL    HW3 7487   4.324   6.316   1.369  0.3968 -0.7743 -0.3310
 1930SOL    MW4 7488   4.405   6.334   1.342  0.2585  0.1512 -0.1518
 1931SOL     OW 7489   5.658   4.754   2.680 -0.1665 -0.1120  0.4939
 1931SOL    HW2 7490   5.648   4.833   2.732  0.5507  0.4664 -0.2177
 1931SOL    HW3 7491   5.729   4.706   2.722  2.3275  1.6367 -1.3727
 1931SOL    MW4 7492   5.666   4.758   2.692  0.2572  0.1950  0.1537
 1932SOL     OW 7493   3.402   5.481   0.187  0.1090  0.4051 -0.0957
 1932SOL    HW2 7494   3.466   5.518   0.125 -0.0909  1.7000  0.4481
 1932SOL    HW3 7495   3.331   5.448   0.131  2.5545 -4.1172 -1.0269
 1932SOL    MW4 7496   3.401   5.482   0.171  0.4053 -0.0207 -0.1468
 1933SOL     OW 7497   0.979   2.387   2.256 -0.4414 -0.3388  0.4873
 1933SOL    HW2 7498   0.957   2.437   2.335 -2.2726 -0.9039  0.3887
 1933SOL    HW3 7499   0.896   2.378   2.210  0.5747 -0.1096 -1.4800
 1933SOL    MW4 7500   0.965   2.392   2.260 -0.5489 -0.3831  0.2148
 1934SOL     OW 7501   3.870   0.525   4.148 -0.0166 -0.0791  0.2597
 1934SOL    HW2 7502   3.847   0.525   4.055 -0.6167 -0.1892  0.4040
 1934SOL    HW3 7503   3.900   0.614   4.165 -2.0503  0.6225  0.4592
 1934SOL    MW4 7504   3.871   0.537   4.138 -0.3641 -0.0010  0.3051
 1935SOL     OW 7505   3.447   5.109   3.644  0.0460  0.4562 -0.2883
 1935SOL    HW2 7506   3.501   5.138   3.718 -0.6155  0.0076  0.3905
 1935SOL    HW3 7507   3.508   5.106   3.570  0.6488  1.2556  0.1483
 1935SOL    MW4 7508   3.462   5.113   3.644  0.0383  0.5025 -0.1411
 1936SOL     OW 7509   5.795   0.477   0.542  0.1702  0.0354 -0.2691
 1936SOL    HW2 7510   5.715   0.502   0.588 -0.3303 -2.4238  0.3425
 1936SOL    HW3 7511   5.849   0.435   0.609  0.8068 -0.7487 -1.2460
 1936SOL    MW4 7512   5.792   0.475   0.557  0.1882 -0.3925 -0.3173
 1937SOL     OW 7513   1.460   5.979   4.407  0.1072  0.1868  0.0130
 1937SOL    HW2 7514   1.470   6.061   4.359  1.0000  0.9856  1.5158
 1937SOL    HW3 7515   1.538   5.929   4.385 -0.4195 -0.2857 -0.8736
 1937SOL    MW4 7516   1.472   5.983   4.398  0.1555  0.2298  0.0943
 1938SOL     OW 7517   3.201   2.027   4.711 -0.1902 -0.2655  0.1205
 1938SOL    HW2 7518   3.201   2.099   4.774 -1.7418 -1.0736  1.1123
 1938SOL    HW3 7519   3.117   2.035   4.665 -0.2813 -1.2607  0.0764
 1938SOL    MW4 7520   3.190   2.037   4.713 -0.4069 -0.5034  0.2455
 1939SOL     OW 7521   5.702   4.588   5.737  0.5751  0.3277  0.0440
 1939SOL    HW2 7522   5.645   4.586   5.814  1.6514  1.7173  0.9196
 1939SOL    HW3 7523   5.786   4.622   5.770  1.8103 -1.2939 -1.2842
 1939SOL    MW4 7524   5.705   4.593   5.752  0.8801  0.2971 -0.0157
 1940SOL     OW 7525   6.335   2.865   0.684 -0.6005 -0.1587 -0.1746
 1940SOL    HW2 7526   6.287   2.915   0.749  0.4134  0.0846  0.4013
 1940SOL    HW3 7527   6.280   2.869   0.605 -1.2313  0.6066  0.2929
 1940SOL    MW4 7528   6.321   2.872   0.682 -0.5499 -0.0256 -0.0370
 1941SOL     OW 7529   1.257   4.681   3.448  0.4933  0.1311 -0.5893
 1941SOL    HW2 7530   1.287   4.705   3.361  1.4630  0.6864 -0.1126
 1941SOL    HW3 7531   1.310   4.733   3.508  0.9637 -1.3840  0.3938
 1941SOL    MW4 7532   1.268   4.691   3.444  0.6833  0.0045 -0.3967
 1942SOL     OW 7533   1.697   5.453   2.694 -0.1761 -0.6171  0.0145
 1942SOL    HW2 7534   1.607   5.475   2.716  0.2487 -1.0942  2.4470
 1942SOL    HW3 7535   1.733   5.532   2.654 -1.0539  0.2898  0.9961
 1942SOL    MW4 7536   1.690   5.466   2.691 -0.2359 -0.5604  0.4649
 1943SOL     OW 7537   2.293   3.983   0.198 -0.3218  0.4300 -0.9556
 1943SOL    HW2 7538   2.366   3.981   0.260 -0.0265  1.7259 -1.2386
 1943SOL    HW3 7539   2.218   4.013   0.250 -0.2346  0.8440 -1.0677
 1943SOL    MW4 7540   2.292   3.987   0.213 -0.2714  0.6556 -1.0077
 1944SOL     OW 7541   4.055   4.519   5.414  0.3479 -0.3807  0.1715
 1944SOL    HW2 7542   4.063   4.480   5.501  0.9900  0.1574  0.3635
 1944SOL    HW3 7543   4.143   4.552   5.395  0.5991 -1.7368 -1.2837
 1944SOL    MW4 7544   4.068   4.518   5.423  0.4658 -0.4886  0.0049
 1945SOL     OW 7545   5.816   6.119   4.985  0.0130  0.1674  0.1493
 1945SOL    HW2 7546   5.817   6.027   4.959  0.2185  0.3885 -0.6565
 1945SOL    HW3 7547   5.862   6.121   5.069 -0.0941 -0.4776  0.2261
 1945SOL    MW4 7548   5.823   6.107   4.993  0.0260  0.1115  0.0531
 1946SOL     OW 7549   3.017   6.160   2.732 -0.4304 -0.3000  0.4072
 1946SOL    HW2 7550   2.971   6.172   2.648  0.7183  0.6589 -0.1199
 1946SOL    HW3 7551   3.105   6.133   2.707  0.0340  0.3668  1.2867
 1946SOL    MW4 7552   3.022   6.158   2.717 -0.2176 -0.0855  0.4537
 1947SOL     OW 7553   2.594   0.706   1.233 -0.2329 -0.1018  0.0472
 1947SOL    HW2 7554   2.573   0.618   1.203 -2.1974  0.5621 -0.6507
 1947SOL    HW3 7555   2.520   0.732   1.288 -0.0500  1.3654 -0.3473
 1947SOL    MW4 7556   2.582   0.698   1.236 -0.4680  0.1794 -0.0969
 1948SOL     OW 7557   3.864   2.761   1.484  0.0058  0.2202  0.5200
 1948SOL    HW2 7558   3.906   2.755   1.398 -0.9754 -0.5191  0.0772
 1948SOL    HW3 7559   3.912   2.830   1.529  0.5934  0.5582 -0.5883
 1948SOL    MW4 7560   3.876   2.769   1.479 -0.0461  0.1673  0.3153
 1949SOL     OW 7561   6.148   1.444   0.918 -0.2810 -0.0533 -0.1396
 1949SOL    HW2 7562   6.210   1.506   0.880  1.2366 -1.5345 -0.2195
 1949SOL    HW3 7563   6.071   1.497   0.940  2.0224  2.4624  2.5852
 1949SOL    MW4 7564   6.146   1.459   0.916  0.2231  0.0832  0.2094
 1950SOL     OW 7565   4.685   6.144   5.358 -0.3976  0.4647  0.4748
 1950SOL    HW2 7566   4.626   6.159   5.431 -0.4627  2.6272  0.0568
 1950SOL    HW3 7567   4.629   6.114   5.286 -0.8672  1.5949  0.3546
 1950SOL    MW4 7568   4.670   6.142   5.358 -0.4682  0.8991  0.4038
 1951SOL     OW 7569   0.680   3.069   4.953  0.4462 -0.1742  0.3845
 1951SOL    HW2 7570   0.632   3.087   4.873  1.6910  0.3136 -0.2912
 1951SOL    HW3 7571   0.754   3.130   4.950  0.4185 -0.0183  1.9956
 1951SOL    MW4 7572   0.684   3.080   4.942  0.6068 -0.0893  0.5079
 1952SOL     OW 7573   0.645   2.614   3.752 -0.2250  0.0040  0.5836
 1952SOL    HW2 7574   0.682   2.673   3.687  0.2505 -2.4399 -1.5062
 1952SOL    HW3 7575   0.575   2.568   3.706  0.4690 -2.1928  1.5800
 1952SOL    MW4 7576   0.641   2.616   3.738 -0.0707 -0.6083  0.4393
 1953SOL     OW 7577   6.300   4.903   3.078  0.0618 -0.5551  0.3725
 1953SOL    HW2 7578   6.361   4.936   3.144 -1.1514 -0.0532  1.2829
 1953SOL    HW3 7579   6.240   4.975   3.063  1.3145  0.0313 -2.6612
 1953SOL    MW4 7580   6.300   4.917   3.084  0.0670 -0.4115  0.0924
 1954SOL     OW 7581   3.336   2.851   4.236 -0.1959  0.1551  0.1297
 1954SOL    HW2 7582   3.283   2.836   4.314  2.3225 -1.9983  1.5776
 1954SOL    HW3 7583   3.395   2.922   4.262  0.8527 -0.7740  0.3689
 1954SOL    MW4 7584   3.337   2.859   4.250  0.2747 -0.2516  0.3523
 1955SOL     OW 7585   2.074   2.146   2.706 -0.1831 -0.4642 -0.4671
 1955SOL    HW2 7586   2.029   2.100   2.635  1.0221 -2.6936  0.1100
 1955SOL    HW3 7587   2.004   2.181   2.760 -1.1654 -1.2224 -1.2136
 1955SOL    MW4 7588   2.059   2.144   2.704 -0.1537 -0.8584 -0.4894
 1956SOL     OW 7589   1.740   1.607   4.411  0.4443  0.2668  0.1811
 1956SOL    HW2 7590   1.801   1.558   4.466  0.0426  1.5648  1.8294
 1956SOL    HW3 7591   1.796   1.648   4.345  0.9837 -0.9289 -0.1445
 1956SOL    MW4 7592   1.756   1.606   4.409  0.4625  0.2803  0.3556
 1957SOL     OW 7593   3.354   6.008   3.061  0.0450 -0.1870 -0.5464
 1957SOL    HW2 7594   3.260   6.001   3.076 -0.0922  1.0863 -0.6904
 1957SOL    HW3 7595   3.368   6.101   3.041  1.2358 -0.4904 -1.2048
 1957SOL    MW4 7596   3.344   6.019   3.060  0.1840 -0.0590 -0.6523
 1958SOL     OW 7597   4.160   2.558   2.392  0.1543  0.1854 -1.0209
 1958SOL    HW2 7598   4.067   2.536   2.396  0.1582  0.2805 -0.3066
 1958SOL    HW3 7599   4.197   2.496   2.328 -0.6623  1.1361 -2.4601
 1958SOL    MW4 7600   4.153   2.547   2.384  0.0471  0.3234 -1.1165
 1959SOL     OW 7601   5.974   0.555   2.408 -0.1970 -0.4902 -0.3798
 1959SOL    HW2 7602   5.967   0.648   2.388  1.2742 -0.2206  0.1953
 1959SOL    HW3 7603   5.884   0.526   2.418 -0.7177  1.5670  2.3609
 1959SOL    MW4 7604   5.961   0.564   2.407 -0.0716 -0.1832  0.0577
 1960SOL     OW 7605   3.453   6.121   0.975 -0.0161  0.5016 -0.6419
 1960SOL    HW2 7606   3.432   6.035   1.011  0.7539  0.3965 -0.4112
 1960SOL    HW3 7607   3.477   6.173   1.052  0.4737  0.6302 -0.8781
 1960SOL    MW4 7608   3.454   6.116   0.990  0.1501  0.5047 -0.6426
 1961SOL     OW 7609   4.715   6.392   3.368 -0.3811 -0.1591  0.5509
 1961SOL    HW2 7610   4.758   6.306   3.374  0.4188  0.2073  0.1796
 1961SOL    HW3 7611   4.640   6.377   3.311  0.4150 -0.3702 -0.4679
 1961SOL    MW4 7612   4.710   6.378   3.362 -0.1705 -0.1386  0.3675
 1962SOL     OW 7613   5.084   0.625   0.809  0.1562  1.5454 -0.3558
 1962SOL    HW2 7614   5.043   0.539   0.808  2.9927  0.0640  0.0089
 1962SOL    HW3 7615   5.017   0.684   0.845 -1.6980 -0.5668 -0.1444
 1962SOL    MW4 7616   5.070   0.622   0.813  0.2858  1.0713 -0.2798
 1963SOL     OW 7617   3.092   4.099   1.987  0.0974  0.3023 -0.7969
 1963SOL    HW2 7618   3.089   4.139   2.074  0.4758 -1.0626 -0.1128
 1963SOL    HW3 7619   3.011   4.048   1.981  0.8922 -1.0607 -0.4654
 1963SOL    MW4 7620   3.081   4.098   1.998  0.2522 -0.0576 -0.6629
 1964SOL     OW 7621   2.779   1.863   4.158 -0.4793 -0.9628 -0.1115
 1964SOL    HW2 7622   2.741   1.802   4.221 -2.0487 -1.8425 -1.8217
 1964SOL    HW3 7623   2.705   1.912   4.123  0.3726 -0.3451 -1.1086
 1964SOL    MW4 7624   2.765   1.861   4.162 -0.5739 -0.9974 -0.4687
 1965SOL     OW 7625   4.918   2.241   1.827  0.0704  0.0662 -0.4864
 1965SOL    HW2 7626   4.974   2.163   1.828  0.6124  0.4482  0.8798
 1965SOL    HW3 7627   4.914   2.269   1.918 -0.0300  1.6982 -0.9628
 1965SOL    MW4 7628   4.925   2.235   1.839  0.1286  0.3319 -0.3690
 1966SOL     OW 7629   4.889   1.372   4.021 -0.1525 -0.0674 -0.4057
 1966SOL    HW2 7630   4.867   1.394   4.111  0.8012  1.5670 -0.5422
 1966SOL    HW3 7631   4.804   1.370   3.976 -0.6152 -0.7255  0.4581
 1966SOL    MW4 7632   4.875   1.375   4.027 -0.0877  0.0614 -0.3097
 1967SOL     OW 7633   5.327   5.481   2.156 -0.0982 -0.3361  0.3868
 1967SOL    HW2 7634   5.319   5.469   2.251  3.3189 -0.8564  0.7373
 1967SOL    HW3 7635   5.343   5.574   2.145 -0.6911 -0.2435  0.2885
 1967SOL    MW4 7636   5.328   5.492   2.167  0.2744 -0.3925  0.4201
 1968SOL     OW 7637   5.711   3.027   2.282  0.0791 -0.9858  0.3050
 1968SOL    HW2 7638   5.753   3.034   2.368 -1.1339  0.5081  0.8420
 1968SOL    HW3 7639   5.677   2.938   2.279 -0.2546 -0.9258  1.6082
 1968SOL    MW4 7640   5.712   3.017   2.293 -0.1250 -0.7808  0.5478
 1969SOL     OW 7641   6.186   1.461   3.186  0.5166 -0.4359 -0.2314
 1969SOL    HW2 7642   6.220   1.454   3.097  1.1476 -0.3079 -0.0025
 1969SOL    HW3 7643   6.256   1.426   3.242  0.5022  0.3347  0.2852
 1969SOL    MW4 7644   6.200   1.455   3.182  0.5979 -0.3174 -0.1331
 1970SOL     OW 7645   1.898   1.452   2.776  0.0313  0.6530 -0.1371
 1970SOL    HW2 7646   1.814   1.433   2.733 -0.1237  3.4540 -1.2817
 1970SOL    HW3 7647   1.883   1.535   2.821  1.2778 -0.4485  2.4711
 1970SOL    MW4 7648   1.885   1.461   2.776  0.1753  0.8772  0.0560
 1971SOL     OW 7649   0.614   4.552   1.685  0.0158  0.2872  0.5131
 1971SOL    HW2 7650   0.625   4.643   1.713 -2.3629  0.3296  1.5985
 1971SOL    HW3 7651   0.700   4.526   1.652  0.9372  2.7005  0.8136
 1971SOL    MW4 7652   0.627   4.561   1.685 -0.1765  0.6112  0.6959
 1972SOL     OW 7653   5.709   1.600   2.126  0.0771 -0.7884  0.1675
 1972SOL    HW2 7654   5.765   1.577   2.053  1.7935 -1.7188  1.7104
 1972SOL    HW3 7655   5.660   1.519   2.146  0.4672 -0.8903  0.7495
 1972SOL    MW4 7656   5.710   1.586   2.119  0.3550 -0.9246  0.4479
 1973SOL     OW 7657   0.501   3.357   4.576  0.2362  0.6345  0.5580
 1973SOL    HW2 7658   0.431   3.376   4.639 -0.3254  0.3340  0.0391
 1973SOL    HW3 7659   0.546   3.440   4.563 -0.3550  0.9464  0.5029
 1973SOL    MW4 7660   0.498   3.370   4.582  0.0841  0.6360  0.4823
 1974SOL     OW 7661   0.460   1.418   3.238  0.2276  0.1383  0.2673
 1974SOL    HW2 7662   0.464   1.330   3.201  0.9370  0.3917 -0.2688
 1974SOL    HW3 7663   0.379   1.419   3.288 -1.0678 -0.0270 -1.7335
 1974SOL    MW4 7664   0.450   1.407   3.240  0.1503  0.1499 -0.0674
 1975SOL     OW 7665   5.819   1.461   3.542 -0.0783 -0.1612  0.3737
 1975SOL    HW2 7666   5.825   1.525   3.613 -2.1096  1.4004 -0.7671
 1975SOL    HW3 7667   5.742   1.408   3.564  1.1602 -1.8148  0.9281
 1975SOL    MW4 7668   5.810   1.462   3.554 -0.1829 -0.1733  0.2963
 1976SOL     OW 7669   1.435   1.953   1.203 -0.1612  0.3261  0.0197
 1976SOL    HW2 7670   1.407   1.903   1.279 -0.0132 -1.4372 -1.0329
 1976SOL    HW3 7671   1.399   1.905   1.128  3.0397 -0.3496 -1.2416
 1976SOL    MW4 7672   1.427   1.940   1.203  0.2807  0.0043 -0.2856
 1977SOL     OW 7673   2.859   3.395   6.231  0.5513 -0.1824  0.3662
 1977SOL    HW2 7674   2.940   3.447   6.234  1.0239 -0.7708 -1.2722
 1977SOL    HW3 7675   2.841   3.384   6.138 -2.1133  0.9205  0.6738
 1977SOL    MW4 7676   2.867   3.400   6.219  0.2621 -0.1145  0.1906
 1978SOL     OW 7677   4.311   4.695   0.550 -0.1027  0.4200  0.3291
 1978SOL    HW2 7678   4.351   4.609   0.537  0.6346  1.0041 -1.4699
 1978SOL    HW3 7679   4.375   4.744   0.602 -0.8468 -0.3123  2.0044
 1978SOL    MW4 7680   4.325   4.690   0.555 -0.1036  0.4005  0.3128
 1979SOL     OW 7681   5.460   3.387   5.039  0.1669  0.1847 -0.2358
 1979SOL    HW2 7682   5.501   3.418   5.120  1.8607 -1.9541 -0.1584
 1979SOL    HW3 7683   5.491   3.447   4.972  0.3636  0.8182  0.4058
 1979SOL    MW4 7684   5.470   3.399   5.041  0.4163 -0.0139 -0.1409
 1980SOL     OW 7685   5.025   2.600   0.192  0.0701  0.2299  0.7364
 1980SOL    HW2 7686   5.002   2.535   0.259 -2.5785 -1.4558 -1.5730
 1980SOL    HW3 7687   5.101   2.562   0.147  0.8336  0.5845  1.6909
 1980SOL    MW4 7688   5.032   2.586   0.195 -0.1787  0.0543  0.5576
 1981SOL     OW 7689   1.056   3.641   3.430 -0.2403 -0.1820  0.7168
 1981SOL    HW2 7690   1.040   3.662   3.522 -1.8184 -1.1660  0.6931
 1981SOL    HW3 7691   1.082   3.549   3.431 -1.3941 -0.5364  0.1012
 1981SOL    MW4 7692   1.057   3.631   3.443 -0.6008 -0.3586  0.6325
 1982SOL     OW 7693   3.101   2.835   2.794 -0.3284  0.3200  0.2313
 1982SOL    HW2 7694   3.166   2.906   2.791 -1.4976  1.4484  0.7540
 1982SOL    HW3 7695   3.058   2.846   2.879 -0.8167 -0.7768  0.1377
 1982SOL    MW4 7696   3.104   2.846   2.805 -0.5471  0.3241  0.2879
 1983SOL     OW 7697   2.010   2.221   1.132 -0.8615  0.0911  0.0327
 1983SOL    HW2 7698   2.058   2.303   1.138  0.5674 -0.7662  0.8348
 1983SOL    HW3 7699   2.039   2.170   1.207 -0.0404 -2.0098 -1.6077
 1983SOL    MW4 7700   2.020   2.225   1.142 -0.5647 -0.2992 -0.0779
 1984SOL     OW 7701   0.680   3.921   5.281  0.4158 -0.1988  0.2273
 1984SOL    HW2 7702   0.600   3.970   5.265  0.8607  0.1572 -0.9512
 1984SOL    HW3 7703   0.652   3.830   5.287 -0.0880 -0.0670 -0.1113
 1984SOL    MW4 7704   0.666   3.915   5.280  0.4080 -0.1344  0.0271
 1985SOL     OW 7705   6.269   3.320   4.098  0.1930 -0.4194 -0.0552
 1985SOL    HW2 7706   6.189   3.343   4.145  0.7768  0.0906  0.6975
 1985SOL    HW3 7707   6.270   3.224   4.098  1.1531 -0.4792  2.6939
 1985SOL    MW4 7708   6.259   3.311   4.104  0.3967 -0.3600  0.4068
 1986SOL     OW 7709   2.511   2.087   4.346  0.6042 -0.1109  0.4055
 1986SOL    HW2 7710   2.454   2.132   4.283  0.6688 -0.4921  0.0743
 1986SOL    HW3 7711   2.484   2.123   4.431  0.1849  0.0526  0.2097
 1986SOL    MW4 7712   2.500   2.098   4.349  0.5574 -0.1396  0.3360
 1987SOL     OW 7713   1.186   1.623   0.719 -0.6036 -0.0131  0.3691
 1987SOL    HW2 7714   1.152   1.540   0.686 -0.1317 -0.0813  0.0418
 1987SOL    HW3 7715   1.168   1.621   0.813  0.0779 -0.8175  0.4947
 1987SOL    MW4 7716   1.179   1.612   0.727 -0.4514 -0.1283  0.3425
 1988SOL     OW 7717   0.448   2.627   5.230  0.2185 -0.4391  0.3193
 1988SOL    HW2 7718   0.543   2.638   5.232  0.0665  0.9526  0.6722
 1988SOL    HW3 7719   0.414   2.709   5.264 -1.1189 -0.9380  0.2200
 1988SOL    MW4 7720   0.456   2.639   5.235  0.0220 -0.3213  0.3527
 1989SOL     OW 7721   3.162   4.579   3.698 -0.4363  0.2766 -0.4360
 1989SOL    HW2 7722   3.167   4.488   3.725  0.1340  0.8254  1.4956
 1989SOL    HW3 7723   3.206   4.627   3.769 -0.6794  2.0399 -1.4248
 1989SOL    MW4 7724   3.169   4.573   3.711 -0.3932  0.5817 -0.3116
 1990SOL     OW 7725   5.937   5.454   4.303  0.2676 -0.4924  0.1741
 1990SOL    HW2 7726   6.030   5.439   4.284  0.5372  0.3969  0.7224
 1990SOL    HW3 7727   5.897   5.466   4.217  0.5883 -1.2614 -0.0899
 1990SOL    MW4 7728   5.944   5.454   4.289  0.3455 -0.4765  0.2116
 1991SOL     OW 7729   1.907   5.259   3.618  0.2164 -0.5864 -0.3334
 1991SOL    HW2 7730   1.908   5.165   3.634 -0.7466 -0.6256 -0.4806
 1991SOL    HW3 7731   1.875   5.269   3.529  0.2247 -0.1069 -0.2877
 1991SOL    MW4 7732   1.903   5.248   3.608  0.0905 -0.5283 -0.3468
 1992SOL     OW 7733   1.736   6.393   3.634  0.0731 -0.1342  0.0552
 1992SOL    HW2 7734   1.758   6.300   3.624 -0.6074 -0.4466  1.2478
 1992SOL    HW3 7735   1.643   6.398   3.610  0.1800  0.2996 -0.2831
 1992SOL    MW4 7736   1.726   6.381   3.630 -0.0026 -0.1182  0.1679
 1993SOL     OW 7737   0.076   5.166   4.646  0.3971  0.2157  0.0775
 1993SOL    HW2 7738   0.009   5.139   4.709 -0.8810 -2.0169 -2.0665
 1993SOL    HW3 7739   0.146   5.101   4.655  0.8005  0.6302  0.0275
 1993SOL    MW4 7740   0.077   5.154   4.656  0.2817 -0.0242 -0.2120
 1994SOL     OW 7741   0.783   2.774   4.184 -0.0457  0.6374  0.0694
 1994SOL    HW2 7742   0.718   2.825   4.232 -0.0521  0.7928 -0.1002
 1994SOL    HW3 7743   0.733   2.725   4.120 -0.0694  0.1828  0.4323
 1994SOL    MW4 7744   0.768   2.774   4.182 -0.0497  0.5979  0.0949
 1995SOL     OW 7745   3.180   2.718   3.555 -0.4201 -0.1226  0.3933
 1995SOL    HW2 7746   3.264   2.701   3.597  0.1206 -0.1805 -0.7038
 1995SOL    HW3 7747   3.197   2.786   3.491 -1.5332  0.9634  1.1979
 1995SOL    MW4 7748   3.193   2.724   3.552 -0.4956  0.0131  0.3547
 1996SOL     OW 7749   4.496   6.345   3.196  0.1049  0.3093  0.0068
 1996SOL    HW2 7750   4.511   6.351   3.101  0.6969  1.0038  0.1406
 1996SOL    HW3 7751   4.401   6.353   3.205  0.1086  1.0356 -0.4759
 1996SOL    MW4 7752   4.486   6.347   3.185  0.1835  0.4968 -0.0392
 1997SOL     OW 7753   5.470   4.665   4.640  0.8442  0.4560 -0.4460
 1997SOL    HW2 7754   5.486   4.646   4.733 -2.0316  1.6080  0.3787
 1997SOL    HW3 7755   5.476   4.580   4.597 -1.1988 -0.7131  1.4016
 1997SOL    MW4 7756   5.473   4.651   4.647  0.1952  0.4537 -0.0934
 1998SOL     OW 7757   2.728   4.587   3.101  0.1827 -0.1965 -0.2988
 1998SOL    HW2 7758   2.803   4.606   3.045 -1.2421  0.9534 -1.9422
 1998SOL    HW3 7759   2.760   4.600   3.190  1.9254  0.2310 -0.9538
 1998SOL    MW4 7760   2.742   4.591   3.105  0.2246  0.0116 -0.6021
 1999SOL     OW 7761   3.842   0.198   3.048 -0.3187  0.2911 -0.0467
 1999SOL    HW2 7762   3.929   0.214   3.083  0.0380  1.0304 -1.2059
 1999SOL    HW3 7763   3.805   0.286   3.035 -0.3657  0.0694 -1.6397
 1999SOL    MW4 7764   3.848   0.212   3.051 -0.2779  0.3594 -0.4099
 2000SOL     OW 7765   4.994   2.854   2.866 -0.1697  0.2440  0.2314
 2000SOL    HW2 7766   4.922   2.884   2.810  0.5265  1.5248 -0.0354
 2000SOL    HW3 7767   5.065   2.917   2.849  0.8612 -0.7274  0.8108
 2000SOL    MW4 7768   4.994   2.867   2.856  0.0582  0.2848  0.2727
 2001SOL     OW 7769   3.936   4.824   3.395  0.0461  0.5450 -0.0048
 2001SOL    HW2 7770   3.924   4.853   3.304  0.5629 -1.4822 -0.7872
 2001SOL    HW3 7771   3.855   4.779   3.417  0.0384  0.7721  0.4343
 2001SOL    MW4 7772   3.924   4.822   3.386  0.1133  0.3075 -0.0501
 2002SOL     OW 7773   2.654   4.063   2.539 -0.1033 -0.2638  0.4539
 2002SOL    HW2 7774   2.626   4.141   2.491  0.4783 -0.5969 -0.4386
 2002SOL    HW3 7775   2.705   4.098   2.613  2.2696  0.1897 -1.2765
 2002SOL    MW4 7776   2.657   4.078   2.542  0.2865 -0.2479  0.1078
 2003SOL     OW 7777   4.669   0.264   4.620  0.3862 -0.3379  0.6438
 2003SOL    HW2 7778   4.663   0.172   4.594  0.3492 -0.0396 -0.4291
 2003SOL    HW3 7779   4.583   0.300   4.603  0.6411  0.1005  0.2653
 2003SOL    MW4 7780   4.657   0.257   4.614  0.4150 -0.2407  0.4523
 2004SOL     OW 7781   6.376   4.244   1.404 -0.1865  0.6052 -0.9258
 2004SOL    HW2 7782   6.357   4.151   1.414 -0.2782  0.6038 -1.1072
 2004SOL    HW3 7783   6.401   4.274   1.491 -1.7394  0.7594 -0.5023
 2004SOL    MW4 7784   6.377   4.236   1.416 -0.4035  0.6253 -0.8938
 2005SOL     OW 7785   4.019   3.507   3.697 -0.4635 -0.3046 -0.4562
 2005SOL    HW2 7786   4.102   3.458   3.704  0.6308  1.4382 -0.6363
 2005SOL    HW3 7787   3.966   3.474   3.769  1.2275  0.0201  1.0335
 2005SOL    MW4 7788   4.023   3.496   3.708 -0.0960 -0.0319 -0.2834
 2006SOL     OW 7789   5.009   6.285   1.820 -0.1352 -0.0208 -0.3671
 2006SOL    HW2 7790   5.029   6.302   1.912 -1.5393 -0.8672  0.1270
 2006SOL    HW3 7791   4.931   6.338   1.802  0.1781  0.2045 -1.1102
 2006SOL    MW4 7792   5.001   6.294   1.830 -0.2791 -0.1027 -0.4000
 2007SOL     OW 7793   0.213   1.290   1.711 -0.1171 -0.1733 -0.1415
 2007SOL    HW2 7794   0.146   1.295   1.779 -1.4510 -2.6723 -1.1875
 2007SOL    HW3 7795   0.165   1.274   1.630  1.3270  3.5896 -2.0275
 2007SOL    MW4 7796   0.198   1.289   1.710 -0.1026 -0.0065 -0.5283
 2008SOL     OW 7797   6.167   6.112   5.337 -0.0042 -0.2004 -0.8360
 2008SOL    HW2 7798   6.076   6.087   5.323  0.2206 -1.5714 -0.1061
 2008SOL    HW3 7799   6.199   6.135   5.250 -1.1639  0.7956 -1.0280
 2008SOL    MW4 7800   6.159   6.111   5.324 -0.1276 -0.2499 -0.7650
 2009SOL     OW 7801   0.784   1.917   1.242 -0.1453 -0.0442  0.0053
 2009SOL    HW2 7802   0.873   1.944   1.219 -0.1570  0.1842  0.2251
 2009SOL    HW3 7803   0.785   1.907   1.337 -0.2652 -0.3715 -0.0259
 2009SOL    MW4 7804   0.796   1.920   1.251 -0.1626 -0.0573  0.0302
 2010SOL     OW 7805   4.574   5.675   3.632  0.3833  0.1273  0.4684
 2010SOL    HW2 7806   4.549   5.614   3.563 -0.6598  0.8938  0.1406
 2010SOL    HW3 7807   4.506   5.665   3.698 -0.0205  1.1848  0.2369
 2010SOL    MW4 7808   4.562   5.666   3.631  0.1924  0.3679  0.3946
 2011SOL     OW 7809   5.515   0.629   1.767 -0.2282 -0.3052  0.4136
 2011SOL    HW2 7810   5.608   0.630   1.745 -0.4570 -1.6619 -0.8044
 2011SOL    HW3 7811   5.471   0.652   1.685 -0.9526  2.8068  1.5557
 2011SOL    MW4 7812   5.522   0.632   1.753 -0.3539 -0.0736  0.4036
 2012SOL     OW 7813   5.928   6.081   0.098 -0.8122 -0.4107  0.1505
 2012SOL    HW2 7814   6.008   6.095   0.046 -2.7713  0.3065 -2.9724
 2012SOL    HW3 7815   5.935   6.145   0.169  0.4421  1.1842 -1.3038
 2012SOL    MW4 7816   5.940   6.091   0.100 -0.9052 -0.1056 -0.4534
 2013SOL     OW 7817   3.453   3.393   4.067  0.3603 -0.0917 -0.0359
 2013SOL    HW2 7818   3.397   3.437   4.004  0.1454 -0.1797  0.0881
 2013SOL    HW3 7819   3.427   3.430   4.152  0.1497 -0.4826  0.0718
 2013SOL    MW4 7820   3.442   3.403   4.070  0.3042 -0.1549 -0.0054
 2014SOL     OW 7821   3.605   2.334   3.397 -0.0429 -0.4582  0.0289
 2014SOL    HW2 7822   3.604   2.312   3.304 -0.2667 -2.1043  0.3876
 2014SOL    HW3 7823   3.620   2.429   3.399  1.4412 -0.6150 -1.6289
 2014SOL    MW4 7824   3.607   2.344   3.385  0.1234 -0.6961 -0.1425
 2015SOL     OW 7825   2.023   1.367   6.104  0.3309  0.1551  0.4266
 2015SOL    HW2 7826   2.033   1.462   6.103 -0.5713  0.2561  0.5049
 2015SOL    HW3 7827   2.014   1.346   6.197 -0.6461  0.1268  0.3303
 2015SOL    MW4 7828   2.023   1.377   6.116  0.0830  0.1647  0.4243
 2016SOL     OW 7829   5.727   4.128   2.585  0.8090 -0.3351 -0.8631
 2016SOL    HW2 7830   5.705   4.087   2.668  2.6765 -1.8373 -1.0621
 2016SOL    HW3 7831   5.739   4.221   2.606  0.0711 -0.4826  0.2848
 2016SOL    MW4 7832   5.725   4.135   2.599  0.9581 -0.5528 -0.7379
 2017SOL     OW 7833   5.413   0.428   6.222  0.2145 -0.1476 -0.3061
 2017SOL    HW2 7834   5.463   0.405   6.300  0.0202 -0.9264 -0.4020
 2017SOL    HW3 7835   5.356   0.499   6.250 -0.2944 -0.8298  0.4429
 2017SOL    MW4 7836   5.412   0.434   6.236  0.1217 -0.3404 -0.2200
 2018SOL     OW 7837   6.422   5.006   4.087 -0.8375 -0.3281  0.9845
 2018SOL    HW2 7838   6.431   5.071   4.157  0.1031  0.6563 -0.0094
 2018SOL    HW3 7839   6.511   4.995   4.053 -1.4307  0.0549 -0.7888
 2018SOL    MW4 7840   6.435   5.013   4.092 -0.7917 -0.1477  0.6194
 2019SOL     OW 7841   4.418   3.684   4.543 -0.0067 -0.3149  0.3531
 2019SOL    HW2 7842   4.417   3.697   4.638  1.2813 -1.4074  0.5473
 2019SOL    HW3 7843   4.389   3.594   4.531 -1.4983  0.2388 -0.4183
 2019SOL    MW4 7844   4.414   3.674   4.554 -0.0335 -0.3860  0.2769
 2020SOL     OW 7845   1.461   3.030   4.090  0.0323  0.1403  0.4623
 2020SOL    HW2 7846   1.513   2.965   4.137 -0.6086 -0.3924  0.4579
 2020SOL    HW3 7847   1.373   2.993   4.087  0.3705 -0.7151 -2.6900
 2020SOL    MW4 7848   1.456   3.017   4.096 -0.0076 -0.0429  0.0458
 2021SOL     OW 7849   3.563   0.160   5.488 -0.0107  0.6937 -0.7542
 2021SOL    HW2 7850   3.504   0.163   5.413 -1.4115  0.8209  0.3126
 2021SOL    HW3 7851   3.518   0.211   5.555  0.6016 -0.4658  0.5777
 2021SOL    MW4 7852   3.549   0.167   5.487 -0.1147  0.5575 -0.4377
 2022SOL     OW 7853   6.255   1.478   2.420 -0.0086  0.1977  0.3722
 2022SOL    HW2 7854   6.275   1.385   2.405 -0.3115  0.0523  0.8684
 2022SOL    HW3 7855   6.324   1.525   2.373  0.3347 -0.2835  0.3908
 2022SOL    MW4 7856   6.267   1.472   2.412 -0.0033  0.1150  0.4401
 2023SOL     OW 7857   2.969   3.288   5.239 -0.5286  0.5501  0.0510
 2023SOL    HW2 7858   2.885   3.334   5.244 -0.9646 -0.3254  1.2371
 2023SOL    HW3 7859   3.031   3.348   5.278 -0.5674  1.2312 -0.8877
 2023SOL    MW4 7860   2.966   3.302   5.245 -0.5912  0.5245  0.0837
 2024SOL     OW 7861   2.605   3.598   2.653 -0.1752 -0.1149 -0.0658
 2024SOL    HW2 7862   2.538   3.615   2.720  1.1398 -1.4272  1.6571
 2024SOL    HW3 7863   2.610   3.680   2.604 -2.8798  0.1131 -0.1466
 2024SOL    MW4 7864   2.597   3.611   2.655 -0.3585 -0.2580  0.1508
 2025SOL     OW 7865   0.073   4.872   4.994  0.1922 -0.1575 -0.4185
 2025SOL    HW2 7866   0.063   4.845   4.902 -0.9002 -1.2756 -0.0017
 2025SOL    HW3 7867  -0.007   4.920   5.014  0.3080 -0.1393  0.0097
 2025SOL    MW4 7868   0.061   4.875   4.984  0.0634 -0.3026 -0.3070
 2026SOL     OW 7869   4.001   1.852   6.409 -0.0730  0.0240 -0.0561
 2026SOL    HW2 7870   3.906   1.863   6.410  0.0302  1.1043 -0.5237
 2026SOL    HW3 7871   4.015   1.760   6.432 -1.2772 -0.4398 -1.0559
 2026SOL    MW4 7872   3.990   1.841   6.412 -0.2183  0.1054 -0.2497
 2027SOL     OW 7873   2.307   4.617   5.306 -0.0636 -0.4422 -0.0885
 2027SOL    HW2 7874   2.319   4.706   5.340 -1.1366 -0.0090 -0.7507
 2027SOL    HW3 7875   2.338   4.623   5.215 -0.5923 -0.6015 -0.2831
 2027SOL    MW4 7876   2.313   4.630   5.298 -0.2749 -0.4060 -0.2015
 2028SOL     OW 7877   1.613   5.872   5.024  0.2570 -0.1609  0.8743
 2028SOL    HW2 7878   1.634   5.791   5.070  2.3689 -0.3242 -0.2463
 2028SOL    HW3 7879   1.623   5.850   4.931  0.2694  1.2205  0.5251
 2028SOL    MW4 7880   1.617   5.859   5.017  0.5373 -0.0002  0.6804
 2029SOL     OW 7881   6.337   1.122   5.122 -0.0024  0.2680 -0.4846
 2029SOL    HW2 7882   6.378   1.085   5.200 -0.1106  0.2857 -0.4192
 2029SOL    HW3 7883   6.256   1.073   5.111 -1.2130  1.8485  0.8180
 2029SOL    MW4 7884   6.332   1.111   5.131 -0.1764  0.4789 -0.3041
 2030SOL     OW 7885   4.320   5.866   3.822  0.2542 -0.3765 -0.1496
 2030SOL    HW2 7886   4.278   5.867   3.908 -0.7470 -1.9727 -0.5841
 2030SOL    HW3 7887   4.247   5.877   3.760  0.9286  0.4710 -0.8206
 2030SOL    MW4 7888   4.305   5.868   3.825  0.2111 -0.4753 -0.2955
 2031SOL     OW 7889   6.020   0.222   2.541  0.1945 -0.7063  0.1961
 2031SOL    HW2 7890   5.939   0.267   2.565  0.3625  0.5774 -1.4527
 2031SOL    HW3 7891   6.061   0.199   2.625 -1.5647 -0.8731  1.0621
 2031SOL    MW4 7892   6.015   0.225   2.555 -0.0155 -0.5589  0.0928
 2032SOL     OW 7893   5.166   1.771   1.463  0.2601  0.0612 -0.8099
 2032SOL    HW2 7894   5.134   1.798   1.550  1.4872 -0.9119 -0.0156
 2032SOL    HW3 7895   5.092   1.787   1.405 -1.7741 -2.1074  0.9293
 2032SOL    MW4 7896   5.152   1.777   1.467  0.1536 -0.3533 -0.4757
 2033SOL     OW 7897   4.729   1.341   5.787  0.3051  0.4186 -0.5200
 2033SOL    HW2 7898   4.712   1.337   5.693  1.0131 -0.4306 -0.6189
 2033SOL    HW3 7899   4.794   1.273   5.803  1.2280  1.4612  0.3560
 2033SOL    MW4 7900   4.736   1.332   5.777  0.5203  0.4441 -0.4175
 2034SOL     OW 7901   6.220   3.087   6.422  0.0474 -0.4362  0.6011
 2034SOL    HW2 7902   6.154   3.072   6.355 -0.1946 -0.6271  0.8739
 2034SOL    HW3 7903   6.288   3.137   6.379  0.0168 -0.7818  0.1436
 2034SOL    MW4 7904   6.220   3.091   6.408  0.0114 -0.5070  0.5768
 2035SOL     OW 7905   1.041   0.175   1.770  0.4870 -0.0903  0.0496
 2035SOL    HW2 7906   0.994   0.247   1.729  0.9686  0.4766  0.4703
 2035SOL    HW3 7907   1.072   0.122   1.696 -0.0523  0.0194 -0.2575
 2035SOL    MW4 7908   1.039   0.178   1.755  0.4794 -0.0010  0.0646
 2036SOL     OW 7909   2.258   2.976   0.932 -0.0180 -0.0961 -0.2308
 2036SOL    HW2 7910   2.171   3.013   0.947  1.5905  3.7317  0.9090
 2036SOL    HW3 7911   2.246   2.917   0.857 -3.1484  2.2183 -1.8100
 2036SOL    MW4 7912   2.245   2.973   0.924 -0.2188  0.7143 -0.2887
 2037SOL     OW 7913   2.259   0.858   0.352  0.5245  0.1591 -0.5125
 2037SOL    HW2 7914   2.345   0.893   0.375 -0.3908  0.7231  2.5166
 2037SOL    HW3 7915   2.226   0.820   0.434 -2.8327  1.5786 -1.0410
 2037SOL    MW4 7916   2.266   0.858   0.366 -0.0392  0.4208 -0.1825
 2038SOL     OW 7917   2.886   5.281   1.449 -0.6336  0.0059  0.1852
 2038SOL    HW2 7918   2.905   5.192   1.480  1.8488  0.7950  1.0752
 2038SOL    HW3 7919   2.847   5.325   1.524 -2.9758 -0.5685 -0.5925
 2038SOL    MW4 7920   2.883   5.275   1.463 -0.6151  0.0342  0.2000
 2039SOL     OW 7921   3.096   2.317   2.705 -0.3745  0.8749 -0.2316
 2039SOL    HW2 7922   3.112   2.399   2.751 -0.6771  0.6010  0.3717
 2039SOL    HW3 7923   3.042   2.341   2.630  0.9783  1.4882 -1.0626
 2039SOL    MW4 7924   3.091   2.331   2.701 -0.2360  0.9197 -0.2616
 2040SOL     OW 7925   4.962   5.440   3.071  0.4101  0.1011 -0.4675
 2040SOL    HW2 7926   4.870   5.458   3.090  0.5450 -0.2048  0.4971
 2040SOL    HW3 7927   5.007   5.522   3.093  0.4483  0.0460 -0.3399
 2040SOL    MW4 7928   4.956   5.453   3.076  0.4330  0.0534 -0.3234
 2041SOL     OW 7929   2.713   2.337   5.508 -0.1569 -0.0733 -0.7992
 2041SOL    HW2 7930   2.701   2.423   5.469  2.7948  0.4154 -0.8361
 2041SOL    HW3 7931   2.763   2.288   5.443  0.5130 -0.9014  0.3167
 2041SOL    MW4 7932   2.718   2.342   5.494  0.3209 -0.1181 -0.6568
 2042SOL     OW 7933   3.231   3.295   2.410 -0.0147  0.0004 -0.4692
 2042SOL    HW2 7934   3.217   3.214   2.458  2.5733  0.0426  0.4728
 2042SOL    HW3 7935   3.143   3.324   2.386 -1.0812 -2.3569  0.3311
 2042SOL    MW4 7936   3.217   3.289   2.413  0.1861 -0.3050 -0.2393
 2043SOL     OW 7937   0.674   1.119   4.188  0.2867  0.3128 -0.1074
 2043SOL    HW2 7938   0.750   1.169   4.218  1.1519 -0.7342 -0.4965
 2043SOL    HW3 7939   0.631   1.091   4.268  0.8815  0.0740  0.1388
 2043SOL    MW4 7940   0.679   1.122   4.203  0.4793  0.1432 -0.1262
 2044SOL     OW 7941   4.782   6.243   2.808 -0.4572 -0.0857  0.1637
 2044SOL    HW2 7942   4.875   6.252   2.788 -0.2120 -0.2307  1.1598
 2044SOL    HW3 7943   4.780   6.189   2.887 -1.3593  0.3897  0.4803
 2044SOL    MW4 7944   4.794   6.237   2.816 -0.5439 -0.0421  0.3369
 2045SOL     OW 7945   3.721   5.371   0.587  0.4014  0.1307  0.7145
 2045SOL    HW2 7946   3.699   5.288   0.546 -0.3506  0.8366 -0.3677
 2045SOL    HW3 7947   3.668   5.436   0.540  2.4304  1.4925  0.1690
 2045SOL    MW4 7948   3.711   5.369   0.575  0.5699  0.4035  0.4997
 2046SOL     OW 7949   5.422   4.455   1.849 -0.1970 -0.1820  1.0492
 2046SOL    HW2 7950   5.423   4.547   1.821 -0.7261 -0.0821  1.3335
 2046SOL    HW3 7951   5.330   4.438   1.868  0.1696 -0.1433  3.0262
 2046SOL    MW4 7952   5.410   4.465   1.848 -0.2184 -0.1637  1.3475
 2047SOL     OW 7953   4.717   2.648   3.212  0.1899  0.4882  0.3532
 2047SOL    HW2 7954   4.708   2.619   3.121  2.0847 -0.3407  0.3912
 2047SOL    HW3 7955   4.692   2.573   3.265 -0.4550  0.8182  0.5285
 2047SOL    MW4 7956   4.712   2.634   3.207  0.3548  0.4224  0.3813
 2048SOL     OW 7957   4.344   1.974   6.073 -0.3215 -0.2969 -0.1771
 2048SOL    HW2 7958   4.268   1.926   6.105 -0.1819  0.6084  1.6531
 2048SOL    HW3 7959   4.337   1.970   5.977 -0.6098 -3.4119 -0.1145
 2048SOL    MW4 7960   4.333   1.967   6.064 -0.3411 -0.5884  0.0727
 2049SOL     OW 7961   1.118   1.647   1.000  0.4857  0.4961  0.6096
 2049SOL    HW2 7962   1.036   1.663   1.046  0.1094 -0.0640  0.1531
 2049SOL    HW3 7963   1.163   1.580   1.053  0.7538  0.9573  0.9746
 2049SOL    MW4 7964   1.113   1.640   1.013  0.4715  0.4831  0.5975
 2050SOL     OW 7965   4.520   4.068   3.320  0.5384  0.2373  0.4190
 2050SOL    HW2 7966   4.509   3.981   3.358  2.2902 -0.9166 -1.4952
 2050SOL    HW3 7967   4.431   4.101   3.312 -0.2443 -1.6637  0.5959
 2050SOL    MW4 7968   4.507   4.061   3.324  0.6663 -0.1658  0.1898
 2051SOL     OW 7969   1.583   5.841   6.233 -0.2775  1.0938 -0.1487
 2051SOL    HW2 7970   1.642   5.887   6.292  1.4052 -0.1162 -0.8041
 2051SOL    HW3 7971   1.622   5.754   6.223 -2.1477  0.2533 -0.6788
 2051SOL    MW4 7972   1.596   5.836   6.239 -0.3022  0.8233 -0.3051
 2052SOL     OW 7973   0.052   0.393   5.075  0.6112  0.2537  0.1937
 2052SOL    HW2 7974   0.054   0.432   5.163  0.1227 -0.7591  0.6690
 2052SOL    HW3 7975   0.106   0.452   5.022  2.9856 -0.4125  1.7144
 2052SOL    MW4 7976   0.059   0.406   5.080  0.8600  0.0322  0.4571
 2053SOL     OW 7977   4.088   6.229   2.430 -0.2692 -0.1186 -0.2006
 2053SOL    HW2 7978   4.124   6.144   2.406  0.4447 -0.5890  2.2362
 2053SOL    HW3 7979   3.994   6.213   2.439 -0.3382 -0.2801 -1.0782
 2053SOL    MW4 7980   4.080   6.216   2.428 -0.1841 -0.2019  0.0051
 2054SOL     OW 7981   6.352   6.399   4.151  0.2307  0.0439 -0.1185
 2054SOL    HW2 7982   6.420   6.463   4.172  1.2602 -1.1370  0.2092
 2054SOL    HW3 7983   6.296   6.445   4.088  0.1719  1.7341  1.0795
 2054SOL    MW4 7984   6.353   6.414   4.145  0.3588  0.1111  0.0828
 2055SOL     OW 7985   2.623   5.213   4.193 -0.0744 -0.0583 -0.4238
 2055SOL    HW2 7986   2.646   5.139   4.137 -0.9081  0.7228 -1.8552
 2055SOL    HW3 7987   2.532   5.232   4.172  0.4267  2.0356 -0.9096
 2055SOL    MW4 7988   2.614   5.206   4.183 -0.1183  0.3210 -0.6767
 2056SOL     OW 7989   3.222   0.922   1.123  0.7612 -0.0685 -0.7795
 2056SOL    HW2 7990   3.238   1.017   1.116 -0.8499  0.2753 -0.2610
 2056SOL    HW3 7991   3.208   0.894   1.033  0.7273  0.2981 -0.8918
 2056SOL    MW4 7992   3.222   0.931   1.110  0.5442  0.0252 -0.7259
 2057SOL     OW 7993   2.655   1.969   3.412 -0.1307  0.4192 -0.8617
 2057SOL    HW2 7994   2.676   1.973   3.319 -1.1822  1.5923 -1.0611
 2057SOL    HW3 7995   2.733   1.931   3.452  0.7338  0.8486 -2.0887
 2057SOL    MW4 7996   2.668   1.964   3.405 -0.1554  0.6306 -1.0499
 2058SOL     OW 7997   4.885   2.670   4.212  0.6710  0.1560  0.0003
 2058SOL    HW2 7998   4.829   2.745   4.193  0.3158  0.1074  0.8423
 2058SOL    HW3 7999   4.973   2.705   4.211  0.5756  0.3997 -0.4959
 2058SOL    MW4 8000   4.889   2.684   4.209  0.6116  0.1817  0.0459
 2059SOL     OW 8001   4.417   4.725   2.780  0.2804  0.4802 -0.7725
 2059SOL    HW2 8002   4.496   4.770   2.748  0.0313  1.6529  0.1861
 2059SOL    HW3 8003   4.349   4.792   2.776 -0.7867 -0.6074 -1.9133
 2059SOL    MW4 8004   4.418   4.740   2.775  0.1068  0.4914 -0.7965
 2060SOL     OW 8005   0.303   1.505   1.989  0.0582 -0.3629  0.1067
 2060SOL    HW2 8006   0.365   1.441   1.952  0.0661 -0.4065  0.1931
 2060SOL    HW3 8007   0.220   1.484   1.948  0.6941  1.8381 -2.6292
 2060SOL    MW4 8008   0.300   1.493   1.979  0.1431 -0.0783 -0.2429
 2061SOL     OW 8009   5.369   6.133   2.319 -0.6078  0.3526  0.5407
 2061SOL    HW2 8010   5.303   6.064   2.325 -0.0616 -0.3332 -1.0376
 2061SOL    HW3 8011   5.318   6.214   2.310 -1.2342 -0.0051  0.8270
 2061SOL    MW4 8012   5.353   6.135   2.319 -0.6184  0.2149  0.3702
 2062SOL     OW 8013   5.832   4.696   0.546 -0.0636  0.8486 -0.1183
 2062SOL    HW2 8014   5.902   4.652   0.498 -0.5054 -0.7474  0.6323
 2062SOL    HW3 8015   5.875   4.733   0.623 -0.3225 -2.4589  1.8231
 2062SOL    MW4 8016   5.846   4.695   0.550 -0.1561  0.2016  0.2368
 2063SOL     OW 8017   0.868   6.016   3.004  0.1627 -0.1434 -0.5187
 2063SOL    HW2 8018   0.954   6.040   2.969  0.7296  0.5844  1.2454
 2063SOL    HW3 8019   0.879   6.023   3.099 -1.7600 -0.3798 -0.2542
 2063SOL    MW4 8020   0.881   6.020   3.012 -0.0162 -0.0786 -0.2510
 2064SOL     OW 8021   5.956   2.018   5.510  0.4302 -0.5741  0.3477
 2064SOL    HW2 8022   5.971   1.998   5.602  0.3066 -1.8956  0.0896
 2064SOL    HW3 8023   5.891   2.089   5.511 -1.5185 -2.2811  1.2448
 2064SOL    MW4 8024   5.950   2.025   5.522  0.1568 -0.9737  0.4320
 2065SOL     OW 8025   5.408   5.896   3.188  0.2062 -0.8583  0.0055
 2065SOL    HW2 8026   5.326   5.937   3.162 -0.0139 -0.1474  1.6633
 2065SOL    HW3 8027   5.395   5.873   3.280  1.7256 -1.0718  0.1973
 2065SOL    MW4 8028   5.395   5.899   3.197  0.3776 -0.7926  0.2495
 2066SOL     OW 8029   4.716   4.743   2.780  0.5282  0.4429 -0.2583
 2066SOL    HW2 8030   4.715   4.821   2.835  0.5139  0.4187 -0.2241
 2066SOL    HW3 8031   4.697   4.671   2.841 -1.0576  0.5754 -0.5505
 2066SOL    MW4 8032   4.713   4.744   2.796  0.3171  0.4572 -0.2924
 2067SOL     OW 8033   0.287   5.963   5.683  0.1935  0.1277  0.9329
 2067SOL    HW2 8034   0.198   5.947   5.654 -0.3535  2.2282  1.3138
 2067SOL    HW3 8035   0.342   5.932   5.610 -0.8946  0.0935  0.1100
 2067SOL    MW4 8036   0.283   5.957   5.670 -0.0222  0.4004  0.8746
 2068SOL     OW 8037   0.238   2.983   2.950  0.0191 -0.0537 -0.0833
 2068SOL    HW2 8038   0.183   2.969   2.873  0.6485  1.4415 -0.8539
 2068SOL    HW3 8039   0.180   3.028   3.012 -0.6416 -1.7209  0.5674
 2068SOL    MW4 8040   0.223   2.987   2.948  0.0150 -0.0764 -0.0992
 2069SOL     OW 8041   1.412   5.008   1.964  0.0969  0.1800 -0.0440
 2069SOL    HW2 8042   1.473   5.081   1.977 -0.8207  0.7266  1.6028
 2069SOL    HW3 8043   1.344   5.044   1.908  1.1546 -0.3866 -1.7622
 2069SOL    MW4 8044   1.411   5.023   1.959  0.1154  0.1773 -0.0534
 2070SOL     OW 8045   4.768   5.356   2.601  0.4155  0.2650 -0.3013
 2070SOL    HW2 8046   4.712   5.434   2.597  1.0232  0.6798 -1.2072
 2070SOL    HW3 8047   4.782   5.333   2.509  2.2321  0.5550 -0.1278
 2070SOL    MW4 8048   4.763   5.363   2.588  0.7353  0.3580 -0.3979
 2071SOL     OW 8049   0.506   6.206   4.031  0.2287  0.4928 -0.4189
 2071SOL    HW2 8050   0.536   6.170   3.948  1.2205 -0.7993  0.4693
 2071SOL    HW3 8051   0.586   6.223   4.080 -0.2985  2.2701 -0.1049
 2071SOL    MW4 8052   0.520   6.203   4.026  0.2900  0.5568 -0.2603
 2072SOL     OW 8053   1.722   1.321   2.559  0.2044 -0.2300 -0.2786
 2072SOL    HW2 8054   1.700   1.277   2.476 -1.5933  2.3509 -1.2883
 2072SOL    HW3 8055   1.638   1.336   2.601  0.9227  0.5710  0.9140
 2072SOL    MW4 8056   1.708   1.317   2.553  0.0620  0.2162 -0.2544
 2073SOL     OW 8057   5.977   0.488   3.481 -0.0925  0.1889  0.3309
 2073SOL    HW2 8058   5.979   0.442   3.565  1.0959 -0.9644 -0.3021
 2073SOL    HW3 8059   5.883   0.496   3.461 -0.4142 -3.2303 -0.1668
 2073SOL    MW4 8060   5.965   0.483   3.489  0.0219 -0.4144  0.1817
 2074SOL     OW 8061   4.440   2.899   0.330  0.2647 -0.0275 -0.6507
 2074SOL    HW2 8062   4.436   2.991   0.302 -1.3727 -0.3589 -1.6457
 2074SOL    HW3 8063   4.376   2.892   0.400 -0.3485 -0.6165 -1.2604
 2074SOL    MW4 8064   4.431   2.910   0.335 -0.0322 -0.1489 -0.8624
 2075SOL     OW 8065   5.813   4.512   4.212  0.7181  0.1578  0.3374
 2075SOL    HW2 8066   5.760   4.541   4.287  1.9738  0.0977  1.2744
 2075SOL    HW3 8067   5.756   4.450   4.166  0.4101 -0.8991  2.0352
 2075SOL    MW4 8068   5.798   4.508   4.216  0.8431  0.0105  0.6850
 2076SOL     OW 8069   5.034   4.784   0.885  0.0052 -0.0792  0.3471
 2076SOL    HW2 8070   5.121   4.817   0.861 -0.5390  0.5135 -0.9121
 2076SOL    HW3 8071   5.051   4.700   0.928  1.1215 -0.9152 -1.5867
 2076SOL    MW4 8072   5.048   4.777   0.887  0.0807 -0.1113 -0.0742
 2077SOL     OW 8073   3.488   2.311   2.695 -0.3860 -0.1016 -0.0914
 2077SOL    HW2 8074   3.429   2.254   2.744 -1.4523 -0.9404 -2.1891
 2077SOL    HW3 8075   3.448   2.318   2.608  1.2386  1.5132 -0.7895
 2077SOL    MW4 8076   3.475   2.304   2.690 -0.3124  0.0008 -0.4603
 2078SOL     OW 8077   4.933   5.692   4.402 -0.5212  0.1332  0.6053
 2078SOL    HW2 8078   4.842   5.716   4.420 -1.6168 -2.5804 -0.7759
 2078SOL    HW3 8079   4.951   5.619   4.462  0.1676 -0.4388 -0.2678
 2078SOL    MW4 8080   4.923   5.686   4.413 -0.5749 -0.3003  0.3079
 2079SOL     OW 8081   1.083   6.349   2.811  0.5912 -0.0119  0.6315
 2079SOL    HW2 8082   1.134   6.368   2.732 -1.0535  1.7839 -0.0835
 2079SOL    HW3 8083   1.119   6.267   2.843  1.7672 -0.4692 -1.6184
 2079SOL    MW4 8084   1.094   6.341   2.805  0.5293  0.1647  0.2403
 2080SOL     OW 8085   1.308   0.496   6.129  0.5382  0.2513  0.1441
 2080SOL    HW2 8086   1.358   0.421   6.096  1.9239  0.7845  0.9534
 2080SOL    HW3 8087   1.360   0.572   6.107 -0.3139  0.9011  0.3097
 2080SOL    MW4 8088   1.321   0.496   6.122  0.6086  0.4074  0.2728
 2081SOL     OW 8089   1.588   2.471   6.217 -0.1617  0.3222 -0.5882
 2081SOL    HW2 8090   1.564   2.391   6.262  1.8989 -0.4362 -0.7253
 2081SOL    HW3 8091   1.536   2.539   6.258 -1.4175 -0.9693  0.0266
 2081SOL    MW4 8092   1.578   2.469   6.228 -0.0555  0.0517 -0.5252
 2082SOL     OW 8093   6.182   4.605   5.736  0.1242 -0.8008  0.2569
 2082SOL    HW2 8094   6.151   4.604   5.645  0.4608  0.4730  0.1138
 2082SOL    HW3 8095   6.241   4.529   5.741  0.3418 -0.7105 -0.6786
 2082SOL    MW4 8096   6.186   4.595   5.725  0.1973 -0.6208  0.1146
 2083SOL     OW 8097   1.617   4.692   3.177 -0.3200 -0.5396 -0.5831
 2083SOL    HW2 8098   1.532   4.730   3.201 -1.7467 -2.4001 -2.4036
 2083SOL    HW3 8099   1.681   4.750   3.219 -2.4345  1.3594  0.2440
 2083SOL    MW4 8100   1.614   4.705   3.186 -0.7872 -0.5345 -0.7142
 2084SOL     OW 8101   1.346   3.321   5.780 -0.1219  0.5191  0.2817
 2084SOL    HW2 8102   1.325   3.306   5.688  0.2278  1.1691  0.0868
 2084SOL    HW3 8103   1.339   3.234   5.821 -2.1795  0.5230  0.0517
 2084SOL    MW4 8104   1.343   3.307   5.774 -0.3473  0.6054  0.2257
 2085SOL     OW 8105   1.094   5.722   2.620 -0.7948 -0.0806  0.2890
 2085SOL    HW2 8106   1.167   5.730   2.680 -0.4176 -0.1662 -0.1539
 2085SOL    HW3 8107   1.131   5.680   2.542 -1.4588 -0.7438  0.3204
 2085SOL    MW4 8108   1.108   5.718   2.618 -0.8327 -0.1794  0.2347
 2086SOL     OW 8109   1.739   0.469   5.297 -0.1115  0.1334 -0.1640
 2086SOL    HW2 8110   1.746   0.454   5.203  0.3614  0.1405 -0.1332
 2086SOL    HW3 8111   1.674   0.405   5.326  1.3439 -1.4271 -0.1619
 2086SOL    MW4 8112   1.731   0.458   5.289  0.1429 -0.0716 -0.1597
 2087SOL     OW 8113   0.967   2.877   0.381 -0.0689 -0.5470 -0.0432
 2087SOL    HW2 8114   1.029   2.950   0.380  1.2409 -1.6151 -1.6474
 2087SOL    HW3 8115   0.903   2.898   0.314  0.7696 -1.2045 -1.0805
 2087SOL    MW4 8116   0.967   2.889   0.372  0.2145 -0.7746 -0.3917
 2088SOL     OW 8117   5.587   2.535   0.977  0.0561 -0.4637  0.2072
 2088SOL    HW2 8118   5.563   2.547   1.069  1.4295  0.6540  0.4493
 2088SOL    HW3 8119   5.507   2.502   0.936 -1.0122  0.3711  1.5216
 2088SOL    MW4 8120   5.573   2.532   0.984  0.0963 -0.2061  0.4125
 2089SOL     OW 8121   1.957   4.130   2.229 -0.3155 -0.1097 -0.1017
 2089SOL    HW2 8122   1.993   4.125   2.317  1.6246  0.4167 -0.8300
 2089SOL    HW3 8123   1.871   4.170   2.241 -0.9749 -1.9183  1.7406
 2089SOL    MW4 8124   1.950   4.134   2.242 -0.1465 -0.2789  0.0453
 2090SOL     OW 8125   0.524   2.600   0.392  0.9479 -0.1962 -0.1658
 2090SOL    HW2 8126   0.471   2.550   0.330  0.7795  0.2815 -0.4077
 2090SOL    HW3 8127   0.613   2.592   0.360  0.9547 -0.5385 -0.0693
 2090SOL    MW4 8128   0.528   2.592   0.380  0.9266 -0.1783 -0.1850
 2091SOL     OW 8129   2.876   0.139   5.888  0.1437 -0.2476  0.0112
 2091SOL    HW2 8130   2.869   0.062   5.831 -1.0977  1.1409 -1.8496
 2091SOL    HW3 8131   2.799   0.133   5.946 -1.0336  0.5067 -1.4098
 2091SOL    MW4 8132   2.865   0.128   5.888 -0.1754  0.0351 -0.4218
 2092SOL     OW 8133   3.134   0.291   2.140  0.6406  0.2556  0.2454
 2092SOL    HW2 8134   3.114   0.348   2.066 -1.0271 -0.3010  0.2350
 2092SOL    HW3 8135   3.079   0.323   2.211  2.2241  0.7913  1.2968
 2092SOL    MW4 8136   3.124   0.303   2.140  0.6295  0.2528  0.3827
 2093SOL     OW 8137   6.401   0.469   4.078 -0.6228  0.3418  0.0474
 2093SOL    HW2 8138   6.311   0.461   4.046  0.0048 -0.5931 -1.6255
 2093SOL    HW3 8139   6.452   0.489   3.999  0.5433  1.7024  1.0909
 2093SOL    MW4 8140   6.396   0.471   4.063 -0.3861  0.3980 -0.0357
 2094SOL     OW 8141   6.228   1.352   5.874 -0.1629  0.4167  0.2242
 2094SOL    HW2 8142   6.313   1.308   5.869 -0.6373 -0.4628 -0.3569
 2094SOL    HW3 8143   6.165   1.284   5.851 -0.9943  1.1627  0.2659
 2094SOL    MW4 8144   6.231   1.337   5.870 -0.3352  0.3991  0.1530
 2095SOL     OW 8145   4.514   2.663   5.835  0.8660  0.0077 -0.0646
 2095SOL    HW2 8146   4.512   2.605   5.911  1.4689  0.7654  0.5523
 2095SOL    HW3 8147   4.469   2.742   5.865  1.9722  0.6974 -0.1392
 2095SOL    MW4 8148   4.508   2.666   5.849  1.0915  0.1987  0.0069
 2096SOL     OW 8149   4.077   5.939   2.336 -0.8390  0.5236 -0.4097
 2096SOL    HW2 8150   3.983   5.927   2.353 -0.5654  1.9071  2.6283
 2096SOL    HW3 8151   4.095   5.880   2.263 -3.1534 -3.2883  1.7417
 2096SOL    MW4 8152   4.067   5.930   2.328 -1.1083  0.2032  0.2750
 2097SOL     OW 8153   5.259   3.195   0.048 -0.1451 -0.0832  0.1267
 2097SOL    HW2 8154   5.243   3.156   0.134 -0.0541 -0.1799  0.1010
 2097SOL    HW3 8155   5.354   3.187   0.036 -0.3616 -1.6713 -0.7400
 2097SOL    MW4 8156   5.270   3.189   0.058 -0.1617 -0.3055  0.0090
 2098SOL     OW 8157   1.485   1.086   5.187  0.5723 -0.7142  0.0436
 2098SOL    HW2 8158   1.442   1.001   5.177 -0.3534 -0.3551  0.8805
 2098SOL    HW3 8159   1.472   1.110   5.278 -1.2294  1.4102 -0.6824
 2098SOL    MW4 8160   1.478   1.078   5.197  0.2125 -0.3865  0.0582
 2099SOL     OW 8161   4.209   0.521   4.062  0.7706  0.2226  0.2608
 2099SOL    HW2 8162   4.163   0.579   4.002 -0.3351  1.0385  1.8258
 2099SOL    HW3 8163   4.287   0.569   4.087 -0.1226  1.0676  1.5225
 2099SOL    MW4 8164   4.213   0.535   4.057  0.5068  0.4417  0.6337
 2100SOL     OW 8165   5.076   0.143   3.457 -0.3433  0.4770 -0.2606
 2100SOL    HW2 8166   5.027   0.203   3.512  0.8547  0.0997  1.3245
 2100SOL    HW3 8167   5.059   0.057   3.496  0.3343  0.1714 -0.6287
 2100SOL    MW4 8168   5.068   0.139   3.470 -0.0958  0.3869 -0.1001
 2101SOL     OW 8169   2.748   3.379   1.916  0.4486 -0.7522 -0.4717
 2101SOL    HW2 8170   2.769   3.415   2.003  1.8294  0.4184 -1.2434
 2101SOL    HW3 8171   2.808   3.305   1.906 -0.7632 -1.8784  0.1415
 2101SOL    MW4 8172   2.759   3.374   1.926  0.4709 -0.7463 -0.4926
 2102SOL     OW 8173   2.256   5.490   4.122 -0.2792 -0.1039 -0.1568
 2102SOL    HW2 8174   2.330   5.529   4.168 -1.2107  0.0522  1.2960
 2102SOL    HW3 8175   2.179   5.520   4.172 -1.0838 -3.3946  0.7965
 2102SOL    MW4 8176   2.255   5.499   4.135 -0.5083 -0.5175  0.1607
 2103SOL     OW 8177   1.646   1.168   4.969 -0.0328 -0.0561 -0.2218
 2103SOL    HW2 8178   1.597   1.126   5.040 -0.2194 -0.6938 -0.7197
 2103SOL    HW3 8179   1.676   1.251   5.007  0.4529 -0.6839  0.8305
 2103SOL    MW4 8180   1.644   1.174   4.984  0.0066 -0.2230 -0.1487
 2104SOL     OW 8181   3.073   6.172   3.446  0.3757 -0.4650  0.1801
 2104SOL    HW2 8182   3.058   6.244   3.385  1.3818  1.3073  1.8879
 2104SOL    HW3 8183   3.032   6.096   3.405 -2.6133  1.5022 -0.7695
 2104SOL    MW4 8184   3.066   6.171   3.433  0.1141  0.0284  0.2801
 2105SOL     OW 8185   5.883   3.422   2.627 -0.0031  0.3963 -0.6148
 2105SOL    HW2 8186   5.952   3.357   2.643  0.6029  0.1941 -3.4884
 2105SOL    HW3 8187   5.814   3.373   2.583 -1.7745  0.7491  1.6106
 2105SOL    MW4 8188   5.883   3.407   2.624 -0.1569  0.4161 -0.7003
 2106SOL     OW 8189   6.344   4.356   3.413 -0.6722 -0.0830 -0.1617
 2106SOL    HW2 8190   6.393   4.357   3.495  2.4806  0.1962 -1.8894
 2106SOL    HW3 8191   6.354   4.445   3.379 -1.4896 -0.3383 -1.1074
 2106SOL    MW4 8192   6.352   4.368   3.419 -0.3641 -0.0799 -0.5144
 2107SOL     OW 8193   5.053   5.882   3.342 -1.0551 -0.5140  0.2651
 2107SOL    HW2 8194   5.097   5.932   3.273  1.6051  0.5554  2.5276
 2107SOL    HW3 8195   5.031   5.948   3.408 -2.4177 -1.6663  1.0135
 2107SOL    MW4 8196   5.056   5.897   3.341 -0.8839 -0.5249  0.6624
 2108SOL     OW 8197   5.840   5.965   2.094  0.1255 -0.8294  0.1430
 2108SOL    HW2 8198   5.810   6.025   2.163  0.0179 -0.7610  0.0383
 2108SOL    HW3 8199   5.839   6.018   2.015 -1.5441 -1.3897 -0.2523
 2108SOL    MW4 8200   5.836   5.980   2.093 -0.1090 -0.8943  0.0771
 2109SOL     OW 8201   5.602   2.825   6.391  0.0703  0.4837 -0.5002
 2109SOL    HW2 8202   5.612   2.885   6.465  2.2289  3.4138 -2.8937
 2109SOL    HW3 8203   5.508   2.820   6.377 -0.3193  0.9813  1.5299
 2109SOL    MW4 8204   5.591   2.833   6.399  0.3037  0.9360 -0.5481
 2110SOL     OW 8205   6.186   5.714   1.574 -0.0027 -0.0981 -0.4719
 2110SOL    HW2 8206   6.112   5.677   1.525  1.3451 -1.8900 -1.2936
 2110SOL    HW3 8207   6.225   5.777   1.514  0.4278 -0.7781 -0.9163
 2110SOL    MW4 8208   6.181   5.717   1.559  0.2320 -0.4242 -0.6390
 2111SOL     OW 8209   2.182   2.305   2.973 -0.0988  0.1899  0.2113
 2111SOL    HW2 8210   2.090   2.290   2.951  0.5418 -1.2832 -1.6919
 2111SOL    HW3 8211   2.214   2.363   2.905  0.3784  0.7793  0.9286
 2111SOL    MW4 8212   2.174   2.311   2.961  0.0487  0.0733  0.0548
 2112SOL     OW 8213   1.089   0.460   6.365 -0.8062  0.2325 -0.6187
 2112SOL    HW2 8214   1.183   0.468   6.349 -0.9938 -0.5474 -2.2378
 2112SOL    HW3 8215   1.083   0.415   6.449  0.2426  0.9963 -0.1022
 2112SOL    MW4 8216   1.101   0.455   6.374 -0.6925  0.2304 -0.7642
 2113SOL     OW 8217   1.395   5.623   4.314  0.3284  0.3440 -0.7819
 2113SOL    HW2 8218   1.321   5.683   4.306  1.1347  1.4594 -0.0663
 2113SOL    HW3 8219   1.450   5.642   4.238 -0.9054 -1.6923 -2.2998
 2113SOL    MW4 8220   1.393   5.633   4.303  0.2720  0.2225 -0.8878
 2114SOL     OW 8221   4.494   6.152   0.720  0.1800  0.2716 -0.1548
 2114SOL    HW2 8222   4.484   6.064   0.755  1.4776 -0.6706 -1.9711
 2114SOL    HW3 8223   4.468   6.210   0.791 -0.1673 -1.5563  1.2707
 2114SOL    MW4 8224   4.489   6.148   0.734  0.3054 -0.0939 -0.2064
 2115SOL     OW 8225   4.898   1.186   4.334 -0.0180  0.2622  0.3253
 2115SOL    HW2 8226   4.969   1.167   4.395 -1.1396  1.6503  2.1804
 2115SOL    HW3 8227   4.827   1.126   4.361 -0.6537  1.1507  0.6933
 2115SOL    MW4 8228   4.898   1.176   4.346 -0.2499  0.5625  0.6186
 2116SOL     OW 8229   4.470   2.408   2.181  0.1919 -0.3493  0.1419
 2116SOL    HW2 8230   4.523   2.328   2.174  0.0209 -0.3177 -2.9578
 2116SOL    HW3 8231   4.381   2.375   2.199  0.2437 -0.8389 -0.4407
 2116SOL    MW4 8232   4.465   2.393   2.182  0.1762 -0.4097 -0.3439
 2117SOL     OW 8233   5.325   0.339   2.757  0.0886 -1.0111 -0.1724
 2117SOL    HW2 8234   5.292   0.428   2.746  1.3055 -0.3682  1.0891
 2117SOL    HW3 8235   5.380   0.324   2.680  0.9654 -0.1416  0.2594
 2117SOL    MW4 8236   5.328   0.349   2.745  0.3648 -0.8116  0.0510
 2118SOL     OW 8237   2.708   6.039   2.097  0.3644 -0.9283  0.0533
 2118SOL    HW2 8238   2.720   6.121   2.145 -1.2063 -1.1611  0.9031
 2118SOL    HW3 8239   2.704   5.971   2.165  0.0275 -1.5171 -0.5384
 2118SOL    MW4 8240   2.709   6.041   2.112  0.1127 -1.0367  0.0873
 2119SOL     OW 8241   3.933   5.377   2.112  0.8342 -0.0544 -0.1838
 2119SOL    HW2 8242   3.932   5.468   2.142  0.2575 -0.2724  0.4959
 2119SOL    HW3 8243   3.902   5.381   2.022  0.0065  0.3562  0.1056
 2119SOL    MW4 8244   3.929   5.389   2.104  0.6489 -0.0290 -0.0559
 2120SOL     OW 8245   5.228   4.801   3.426 -0.2255  0.3946 -0.0038
 2120SOL    HW2 8246   5.226   4.893   3.399  1.0147  0.3222 -0.3665
 2120SOL    HW3 8247   5.190   4.802   3.514 -0.5946  1.1960 -0.1603
 2120SOL    MW4 8248   5.222   4.813   3.434 -0.1106  0.4908 -0.0723
 2121SOL     OW 8249   5.469   3.721   0.984 -0.2493  0.1696  0.2936
 2121SOL    HW2 8250   5.551   3.712   1.033  0.0653 -2.3873 -0.5570
 2121SOL    HW3 8251   5.418   3.644   1.008 -0.8428 -0.2245 -1.9643
 2121SOL    MW4 8252   5.474   3.709   0.994 -0.2861 -0.2197 -0.1165
 2122SOL     OW 8253   1.336   0.079   6.147 -0.3268  0.5354  0.1611
 2122SOL    HW2 8254   1.360   0.106   6.235  1.2796  2.1402 -0.7165
 2122SOL    HW3 8255   1.375   0.145   6.090 -0.1724 -1.1982 -1.8486
 2122SOL    MW4 8256   1.344   0.091   6.151 -0.0945  0.5184 -0.2198
 2123SOL     OW 8257   3.302   2.499   0.536  0.4080  0.3273 -0.4067
 2123SOL    HW2 8258   3.318   2.443   0.460  0.9079  1.1385 -0.9219
 2123SOL    HW3 8259   3.373   2.479   0.597  1.5550  1.5266 -1.2792
 2123SOL    MW4 8260   3.313   2.489   0.534  0.6253  0.5925 -0.5898
 2124SOL     OW 8261   3.491   2.701   2.289  0.1158 -0.3364 -0.1447
 2124SOL    HW2 8262   3.397   2.711   2.271  0.4715 -1.3932 -3.2459
 2124SOL    HW3 8263   3.532   2.766   2.232  1.3292 -0.7324  0.2590
 2124SOL    MW4 8264   3.484   2.711   2.279  0.3228 -0.5281 -0.5006
 2125SOL     OW 8265   0.711   6.256   2.984  0.4681  0.0896 -0.1248
 2125SOL    HW2 8266   0.764   6.176   2.985 -0.7883 -0.7583 -0.0632
 2125SOL    HW3 8267   0.741   6.303   2.906  0.3291 -1.0569 -0.8843
 2125SOL    MW4 8268   0.722   6.252   2.974  0.2840 -0.1735 -0.2169
 2126SOL     OW 8269   0.473   5.545   5.284 -0.0303 -0.3158 -0.4189
 2126SOL    HW2 8270   0.546   5.484   5.277  0.9804  0.5972  1.5132
 2126SOL    HW3 8271   0.507   5.627   5.246 -0.3850 -0.1397 -0.3625
 2126SOL    MW4 8272   0.487   5.548   5.278  0.0563 -0.1721 -0.1565
 2127SOL     OW 8273   2.505   3.034   6.218  0.1217  0.0322  0.0375
 2127SOL    HW2 8274   2.487   3.058   6.127 -1.6555  1.1205  0.6198
 2127SOL    HW3 8275   2.599   3.047   6.229 -0.0359  2.3953 -0.9540
 2127SOL    MW4 8276   2.515   3.039   6.207 -0.1336  0.4876 -0.0165
 2128SOL     OW 8277   6.204   0.510   1.978  0.1051  0.0164 -0.4011
 2128SOL    HW2 8278   6.122   0.505   2.026 -1.0434 -0.4927 -2.3090
 2128SOL    HW3 8279   6.244   0.424   1.991 -0.9932 -0.7151 -1.6347
 2128SOL    MW4 8280   6.199   0.498   1.986 -0.1913 -0.1473 -0.8156
 2129SOL     OW 8281   5.695   5.518   2.374 -0.0123  0.4571  0.1724
 2129SOL    HW2 8282   5.686   5.595   2.429  0.9224 -0.1083  1.1642
 2129SOL    HW3 8283   5.789   5.516   2.351  0.7506 -2.1451  2.9287
 2129SOL    MW4 8284   5.706   5.528   2.378  0.2117  0.0392  0.6669
 2130SOL     OW 8285   1.967   4.647   5.382 -0.5543  0.7521  0.2811
 2130SOL    HW2 8286   1.982   4.741   5.386  1.5851  0.4261  0.8735
 2130SOL    HW3 8287   2.014   4.611   5.457 -0.8054 -0.8495 -0.2749
 2130SOL    MW4 8288   1.975   4.655   5.392 -0.3051  0.4978  0.2859
 2131SOL     OW 8289   1.939   1.330   3.013  0.7227 -0.1249  0.4166
 2131SOL    HW2 8290   1.939   1.374   2.928  1.2005  0.4849  0.7163
 2131SOL    HW3 8291   2.032   1.321   3.035  0.6560 -1.8254  0.1124
 2131SOL    MW4 8292   1.951   1.335   3.005  0.7769 -0.2688  0.4160
 2132SOL     OW 8293   3.345   1.263   4.926  0.4182  0.0484 -0.1782
 2132SOL    HW2 8294   3.412   1.316   4.882 -0.0891  0.0152 -1.0165
 2132SOL    HW3 8295   3.290   1.231   4.855 -1.2735  1.1332  0.5788
 2132SOL    MW4 8296   3.347   1.266   4.911  0.1281  0.1872 -0.1890
 2133SOL     OW 8297   0.706   3.816   0.789 -0.3054 -0.1591 -0.7463
 2133SOL    HW2 8298   0.802   3.810   0.781 -0.4605 -1.7076 -2.1290
 2133SOL    HW3 8299   0.677   3.846   0.703 -0.9282  3.8899  0.6942
 2133SOL    MW4 8300   0.715   3.819   0.776 -0.4080  0.1708 -0.7387
 2134SOL     OW 8301   1.343   3.068   3.031  0.7512  0.2191 -0.2663
 2134SOL    HW2 8302   1.323   3.161   3.023  0.9200  0.2501 -0.3400
 2134SOL    HW3 8303   1.266   3.030   3.072 -0.3206 -0.0198 -2.3973
 2134SOL    MW4 8304   1.330   3.075   3.035  0.6320  0.1917 -0.5572
 2135SOL     OW 8305   1.751   4.500   5.824  0.1342 -0.4068  0.5715
 2135SOL    HW2 8306   1.707   4.421   5.855 -0.4667 -0.4473 -0.3599
 2135SOL    HW3 8307   1.785   4.477   5.737 -0.5177  0.5141  0.0510
 2135SOL    MW4 8308   1.750   4.487   5.817 -0.0311 -0.2907  0.3799
 2136SOL     OW 8309   0.166   4.373   4.351  0.7844 -0.3023  0.1607
 2136SOL    HW2 8310   0.221   4.451   4.362  1.7768 -0.9831  0.1360
 2136SOL    HW3 8311   0.145   4.371   4.258 -2.9807  2.3629  0.7110
 2136SOL    MW4 8312   0.170   4.383   4.340  0.4186 -0.0404  0.2301
 2137SOL     OW 8313   4.901   5.644   5.314 -0.1755 -0.1737 -0.0303
 2137SOL    HW2 8314   4.827   5.650   5.254 -0.8253 -0.0694  0.7651
 2137SOL    HW3 8315   4.895   5.723   5.368  0.9046  0.1713 -0.3794
 2137SOL    MW4 8316   4.891   5.655   5.313 -0.1187 -0.1144  0.0286
 2138SOL     OW 8317   4.698   6.185   3.701 -0.1360  0.0668 -0.3198
 2138SOL    HW2 8318   4.663   6.258   3.650 -0.9656 -0.6229 -0.7613
 2138SOL    HW3 8319   4.780   6.162   3.657 -0.1156  0.4188 -0.4672
 2138SOL    MW4 8320   4.704   6.191   3.689 -0.2428  0.0223 -0.3975
 2139SOL     OW 8321   5.604   5.442   3.087 -0.3399 -0.2499  0.1215
 2139SOL    HW2 8322   5.665   5.493   3.140 -1.7024  0.6117  0.9134
 2139SOL    HW3 8323   5.530   5.501   3.072 -1.0179 -1.2890 -0.7561
 2139SOL    MW4 8324   5.603   5.457   3.092 -0.6091 -0.2733  0.1102
 2140SOL     OW 8325   3.913   3.831   3.150 -0.0340 -0.3215 -0.0237
 2140SOL    HW2 8326   3.925   3.879   3.068  0.8367 -0.1092  0.2169
 2140SOL    HW3 8327   3.894   3.741   3.124 -0.0684 -0.1888 -0.4562
 2140SOL    MW4 8328   3.912   3.826   3.136  0.0764 -0.2759 -0.0490
 2141SOL     OW 8329   5.902   3.037   0.644  0.4179  0.3550  0.5486
 2141SOL    HW2 8330   5.914   2.960   0.589 -0.6514  0.8477 -0.4289
 2141SOL    HW3 8331   5.835   3.089   0.598  1.1433  1.8848  1.1462
 2141SOL    MW4 8332   5.895   3.034   0.630  0.3725  0.6218  0.4985
 2142SOL     OW 8333   4.327   5.509   4.953 -0.4377  0.1666  0.0023
 2142SOL    HW2 8334   4.410   5.463   4.939 -0.4134  0.1053  0.3260
 2142SOL    HW3 8335   4.339   5.593   4.910  0.1712  0.5598  0.9059
 2142SOL    MW4 8336   4.340   5.514   4.946 -0.3542  0.2104  0.1642
 2143SOL     OW 8337   3.674   2.977   2.838 -0.6293  0.2414 -0.0006
 2143SOL    HW2 8338   3.687   3.036   2.912  1.9382  1.1592 -1.0708
 2143SOL    HW3 8339   3.745   2.913   2.845 -0.2522  0.4307 -1.7205
 2143SOL    MW4 8340   3.685   2.976   2.849 -0.2408  0.3875 -0.3687
 2144SOL     OW 8341   5.914   2.633   4.038 -0.1728 -0.1960  0.5832
 2144SOL    HW2 8342   5.834   2.670   4.075  0.3250  0.6828  0.8136
 2144SOL    HW3 8343   5.886   2.590   3.957 -1.2068 -1.7504  1.7070
 2144SOL    MW4 8344   5.900   2.632   4.032 -0.2435 -0.2852  0.7619
 2145SOL     OW 8345   5.429   0.681   2.859  0.1723  0.1339 -0.0030
 2145SOL    HW2 8346   5.495   0.638   2.806 -0.2038  0.8734 -1.1103
 2145SOL    HW3 8347   5.346   0.663   2.815 -0.4757 -1.2540  1.6648
 2145SOL    MW4 8348   5.426   0.673   2.846  0.0372  0.0483  0.0710
 2146SOL     OW 8349   4.740   4.130   2.827 -0.4278  0.1857 -0.4968
 2146SOL    HW2 8350   4.819   4.180   2.845 -0.4012  0.2254 -0.7241
 2146SOL    HW3 8351   4.679   4.155   2.897 -0.0888 -0.1797 -0.0674
 2146SOL    MW4 8352   4.742   4.140   2.838 -0.3796  0.1428 -0.4702
 2147SOL     OW 8353   3.527   6.172   3.294  0.2540  0.6327 -0.2214
 2147SOL    HW2 8354   3.589   6.187   3.365  1.4593  3.5465 -1.7037
 2147SOL    HW3 8355   3.469   6.249   3.297 -1.2320 -0.4094 -0.9073
 2147SOL    MW4 8356   3.527   6.184   3.304  0.2170  0.8797 -0.5075
 2148SOL     OW 8357   1.749   4.769   5.551 -0.2268  0.8871 -0.5284
 2148SOL    HW2 8358   1.724   4.738   5.638 -1.4609  1.9139 -0.5013
 2148SOL    HW3 8359   1.826   4.716   5.529  0.3654  0.8919  1.3522
 2148SOL    MW4 8360   1.756   4.758   5.559 -0.3115  1.0232 -0.2767
 2149SOL     OW 8361   2.539   2.792   2.278 -0.5233  0.0061  0.3598
 2149SOL    HW2 8362   2.600   2.797   2.204  0.7578 -0.3712  1.3588
 2149SOL    HW3 8363   2.453   2.807   2.238  0.0691 -0.6842 -1.2923
 2149SOL    MW4 8364   2.536   2.795   2.263 -0.2761 -0.1347  0.2737
 2150SOL     OW 8365   5.756   4.498   3.040  0.4829  0.0763 -0.1838
 2150SOL    HW2 8366   5.735   4.412   3.076 -0.3353 -0.3190 -1.5207
 2150SOL    HW3 8367   5.711   4.560   3.097  0.0762 -0.4626  0.0903
 2150SOL    MW4 8368   5.747   4.495   3.052  0.3213 -0.0470 -0.3240
 2151SOL     OW 8369   1.243   3.823   0.018 -0.2817  0.5246  0.1822
 2151SOL    HW2 8370   1.310   3.778  -0.034  0.3914  1.1432  0.4997
 2151SOL    HW3 8371   1.204   3.887  -0.042  1.3682  2.1286  0.7357
 2151SOL    MW4 8372   1.247   3.826   0.003  0.0248  0.8178  0.2971
 2152SOL     OW 8373   1.311   4.490   6.142  0.4549  0.4809 -0.3052
 2152SOL    HW2 8374   1.314   4.580   6.175 -1.2632  0.8654 -1.0967
 2152SOL    HW3 8375   1.268   4.441   6.211  1.0264  0.3290 -0.0475
 2152SOL    MW4 8376   1.306   4.495   6.155  0.3036  0.5116 -0.3757
 2153SOL     OW 8377   4.534   3.687   2.842  0.1061 -0.2443 -0.2344
 2153SOL    HW2 8378   4.505   3.723   2.926  1.0410 -0.1195  0.0435
 2153SOL    HW3 8379   4.566   3.763   2.794 -0.2354 -0.3478 -0.6287
 2153SOL    MW4 8380   4.534   3.702   2.847  0.1844 -0.2415 -0.2498
 2154SOL     OW 8381   0.888   5.888   1.321  0.6262 -0.4337  0.0861
 2154SOL    HW2 8382   0.878   5.903   1.415  0.9781 -2.1255  0.4210
 2154SOL    HW3 8383   0.936   5.805   1.314  0.0389 -0.6847 -1.5811
 2154SOL    MW4 8384   0.893   5.879   1.332  0.5951 -0.6900 -0.0897
 2155SOL     OW 8385   2.485   2.489   2.276 -0.1455  0.4170 -0.7482
 2155SOL    HW2 8386   2.569   2.447   2.262  0.2799  0.8796  0.2810
 2155SOL    HW3 8387   2.505   2.583   2.281 -0.7520  0.5530 -0.7464
 2155SOL    MW4 8388   2.498   2.496   2.275 -0.1694  0.4960 -0.6122
 2156SOL     OW 8389   5.728   3.454   2.092 -0.0166  0.3425 -0.1220
 2156SOL    HW2 8390   5.690   3.542   2.083 -0.7217 -0.0251 -0.9297
 2156SOL    HW3 8391   5.657   3.395   2.065  0.0437 -0.5494  1.5816
 2156SOL    MW4 8392   5.714   3.458   2.087 -0.1017  0.1763 -0.0038
 2157SOL     OW 8393   5.939   4.437   4.505 -0.0925  0.2872  0.1695
 2157SOL    HW2 8394   5.857   4.411   4.547 -0.1813  0.8329  0.3516
 2157SOL    HW3 8395   6.007   4.411   4.567 -0.0631 -0.8288 -0.3055
 2157SOL    MW4 8396   5.937   4.430   4.519 -0.1003  0.2120  0.1308
 2158SOL     OW 8397   2.940   2.919   6.406 -0.1077  0.4370  0.1234
 2158SOL    HW2 8398   2.870   2.983   6.393 -0.6433  0.0529  1.0591
 2158SOL    HW3 8399   3.019   2.971   6.415 -0.9012  1.2870  4.0550
 2158SOL    MW4 8400   2.941   2.934   6.405 -0.2831  0.4984  0.7656
 2159SOL     OW 8401   4.607   4.019   1.968 -0.7616 -0.0731  0.0826
 2159SOL    HW2 8402   4.533   3.962   1.950 -2.2204  1.1650  1.8393
 2159SOL    HW3 8403   4.647   3.981   2.047 -0.1168 -0.1369 -0.2628
 2159SOL    MW4 8404   4.603   4.006   1.976 -0.8690  0.0818  0.2688
 2160SOL     OW 8405   1.874   0.864   2.804 -0.2458 -0.2950  0.1546
 2160SOL    HW2 8406   1.879   0.775   2.770 -0.3370 -0.2169 -0.0657
 2160SOL    HW3 8407   1.956   0.876   2.852 -0.2503 -0.5103  0.2183
 2160SOL    MW4 8408   1.885   0.854   2.806 -0.2584 -0.3131  0.1339
 2161SOL     OW 8409   1.061   0.678   0.336  0.4416  0.1030  0.6610
 2161SOL    HW2 8410   1.086   0.588   0.353  1.8080  0.3899  0.2631
 2161SOL    HW3 8411   1.046   0.716   0.422 -0.6635 -0.6172  0.8148
 2161SOL    MW4 8412   1.062   0.671   0.349  0.4761  0.0458  0.6288
 2162SOL     OW 8413   1.027   0.277   5.882  0.3663 -0.1175 -0.0292
 2162SOL    HW2 8414   1.025   0.249   5.974  0.9217 -1.0478 -0.2940
 2162SOL    HW3 8415   1.083   0.355   5.883  0.6650 -0.3267  0.3769
 2162SOL    MW4 8416   1.034   0.284   5.894  0.4790 -0.2679 -0.0106
 2163SOL     OW 8417   5.063   2.703   2.500 -0.1650 -0.2545 -0.2693
 2163SOL    HW2 8418   4.993   2.737   2.557  0.8402  1.4968  0.0117
 2163SOL    HW3 8419   5.084   2.617   2.536 -2.9731 -1.3809 -1.0976
 2163SOL    MW4 8420   5.056   2.696   2.513 -0.4029 -0.1721 -0.3415
 2164SOL     OW 8421   1.941   4.270   5.994 -0.3075  0.3582  0.1043
 2164SOL    HW2 8422   1.954   4.365   5.995 -0.4735  0.3817  1.8470
 2164SOL    HW3 8423   1.875   4.256   5.925  0.6530  1.3432 -1.0682
 2164SOL    MW4 8424   1.934   4.281   5.985 -0.2027  0.4913  0.1795
 2165SOL     OW 8425   5.816   4.779   3.703  0.0936  0.3283  0.4657
 2165SOL    HW2 8426   5.752   4.713   3.730  0.0387 -0.6326 -1.7718
 2165SOL    HW3 8427   5.894   4.728   3.680  0.1168  1.0058 -1.1046
 2165SOL    MW4 8428   5.818   4.763   3.703  0.0894  0.2909 -0.0367
 2166SOL     OW 8429   3.443   5.483   3.985  0.2196  0.6868 -0.0368
 2166SOL    HW2 8430   3.397   5.438   4.056  0.7755  0.2131  0.0331
 2166SOL    HW3 8431   3.375   5.504   3.921 -0.1862  0.5592  0.3537
 2166SOL    MW4 8432   3.428   5.480   3.986  0.2394  0.6075  0.0239
 2167SOL     OW 8433   4.782   5.832   6.140  0.1475 -0.3547 -0.3506
 2167SOL    HW2 8434   4.809   5.767   6.075 -2.3730 -1.7797 -0.0840
 2167SOL    HW3 8435   4.690   5.849   6.121 -0.1835  0.5683  1.7401
 2167SOL    MW4 8436   4.774   5.826   6.129 -0.2287 -0.4209 -0.0396
 2168SOL     OW 8437   0.477   1.896   1.499  0.1389  0.7630 -0.0234
 2168SOL    HW2 8438   0.457   1.806   1.471 -2.0336  1.1435  0.1696
 2168SOL    HW3 8439   0.409   1.917   1.563  0.7557  2.4754  0.1124
 2168SOL    MW4 8440   0.465   1.887   1.503 -0.0664  1.0392  0.0200
 2169SOL     OW 8441   5.253   4.654   0.298 -0.1493 -0.3052 -0.1164
 2169SOL    HW2 8442   5.341   4.664   0.261 -0.9249  0.3418 -1.9438
 2169SOL    HW3 8443   5.227   4.743   0.321 -1.1232 -0.1561 -1.6589
 2169SOL    MW4 8444   5.262   4.667   0.296 -0.3801 -0.2002 -0.5610
 2170SOL     OW 8445   2.433   4.211   3.138  0.1495  0.2347  0.7657
 2170SOL    HW2 8446   2.525   4.238   3.132  0.5497 -1.1673 -0.0687
 2170SOL    HW3 8447   2.399   4.255   3.216  1.2118  1.6469  0.4739
 2170SOL    MW4 8448   2.441   4.220   3.147  0.3425  0.2361  0.6171
 2171SOL     OW 8449   2.428   3.216   2.385 -0.1144 -0.5016  0.3772
 2171SOL    HW2 8450   2.476   3.150   2.434  0.8309 -0.8062 -0.9267
 2171SOL    HW3 8451   2.341   3.217   2.426  0.1904 -1.7662  1.1102
 2171SOL    MW4 8452   2.423   3.207   2.397  0.0505 -0.7087  0.3019
 2172SOL     OW 8453   1.002   5.109   2.423  0.2932 -0.6790 -0.4777
 2172SOL    HW2 8454   1.004   5.098   2.519 -2.2015 -0.4337 -0.3404
 2172SOL    HW3 8455   0.915   5.077   2.397  0.4118  0.5002 -2.5089
 2172SOL    MW4 8456   0.991   5.103   2.433 -0.0203 -0.4911 -0.7276
 2173SOL     OW 8457   3.704   5.410   5.689  0.1919  0.0563  0.2462
 2173SOL    HW2 8458   3.695   5.420   5.784 -0.5035 -0.9735  0.3026
 2173SOL    HW3 8459   3.721   5.317   5.676  2.0217  0.4417 -0.5373
 2173SOL    MW4 8460   3.705   5.399   5.700  0.3415 -0.0287  0.1503
 2174SOL     OW 8461   5.129   4.107   1.463 -0.1955 -0.0050  0.5380
 2174SOL    HW2 8462   5.137   4.189   1.414 -1.3509 -0.1771  0.0057
 2174SOL    HW3 8463   5.069   4.127   1.534 -0.9752 -0.5187  0.0479
 2174SOL    MW4 8464   5.122   4.120   1.466 -0.4508 -0.0955  0.4031
 2175SOL     OW 8465   3.011   3.935   4.347  0.0228  0.0870  0.3282
 2175SOL    HW2 8466   3.069   3.994   4.298  1.2657 -1.1292  0.2524
 2175SOL    HW3 8467   3.012   3.969   4.436 -0.2360  0.8681  0.0386
 2175SOL    MW4 8468   3.019   3.947   4.352  0.1527  0.0296  0.2800
 2176SOL     OW 8469   4.004   2.239   0.689  0.1643 -0.6509 -0.5063
 2176SOL    HW2 8470   4.009   2.234   0.784  0.5375  0.4987 -0.4474
 2176SOL    HW3 8471   3.962   2.158   0.663 -1.8108 -0.1042  0.7910
 2176SOL    MW4 8472   3.999   2.228   0.698 -0.0471 -0.4271 -0.3273
 2177SOL     OW 8473   5.413   5.656   3.695  0.1226 -0.8014  0.3539
 2177SOL    HW2 8474   5.351   5.583   3.704  0.6316 -1.2080  0.5992
 2177SOL    HW3 8475   5.393   5.694   3.610 -3.3120  1.7416  2.0200
 2177SOL    MW4 8476   5.402   5.652   3.685 -0.2634 -0.5195  0.6061
 2178SOL     OW 8477   2.822   4.545   2.466 -0.1419 -0.3470  0.4725
 2178SOL    HW2 8478   2.852   4.589   2.386  1.3619 -1.3848  0.4176
 2178SOL    HW3 8479   2.878   4.580   2.535 -1.1924  0.2729  1.0445
 2178SOL    MW4 8480   2.833   4.556   2.464 -0.0821 -0.4022  0.5407
 2179SOL     OW 8481   1.650   5.537   4.406  0.2634 -0.2493  0.2876
 2179SOL    HW2 8482   1.560   5.567   4.394  0.0018 -1.4508 -1.0389
 2179SOL    HW3 8483   1.656   5.456   4.354  2.1095 -0.1896  0.3277
 2179SOL    MW4 8484   1.639   5.530   4.397  0.4724 -0.4000  0.1179
 2180SOL     OW 8485   3.474   0.768   5.441 -0.8624 -0.6103  0.0199
 2180SOL    HW2 8486   3.433   0.839   5.392 -0.2870 -0.0171  0.3695
 2180SOL    HW3 8487   3.436   0.775   5.529  0.0252  0.0068  0.3739
 2180SOL    MW4 8488   3.464   0.779   5.446 -0.6694 -0.4506  0.1127
 2181SOL     OW 8489   4.123   4.853   4.794  0.4052 -0.2147 -0.1336
 2181SOL    HW2 8490   4.212   4.888   4.794  1.0355 -1.7336  1.0879
 2181SOL    HW3 8491   4.133   4.762   4.767 -1.0468  0.1074 -1.9459
 2181SOL    MW4 8492   4.136   4.846   4.790  0.2968 -0.3726 -0.2115
 2182SOL     OW 8493   2.935   3.859   3.114 -0.5520 -0.4671 -0.1274
 2182SOL    HW2 8494   2.865   3.873   3.050 -0.0556  0.6065 -0.4490
 2182SOL    HW3 8495   3.015   3.884   3.068 -0.4452  3.5433  1.8403
 2182SOL    MW4 8496   2.936   3.864   3.099 -0.4724  0.2037  0.0897
 2183SOL     OW 8497   5.041   5.147   1.937 -0.0431  0.4736  0.0711
 2183SOL    HW2 8498   5.132   5.117   1.938  0.2263  1.2830  0.2064
 2183SOL    HW3 8499   5.013   5.143   2.029  0.3600  1.7117  0.2614
 2183SOL    MW4 8500   5.049   5.142   1.949  0.0456  0.7437  0.1141
 2184SOL     OW 8501   0.836   4.805   2.870  0.4125 -0.0256 -0.8187
 2184SOL    HW2 8502   0.786   4.729   2.900  1.0958 -0.7298 -1.4049
 2184SOL    HW3 8503   0.817   4.873   2.934  0.0271 -0.7917 -0.0986
 2184SOL    MW4 8504   0.827   4.804   2.883  0.4518 -0.2196 -0.8010
 2185SOL     OW 8505   1.595   5.641   5.163 -0.0420 -0.2155  0.0523
 2185SOL    HW2 8506   1.531   5.586   5.119 -0.7105 -0.5928  1.4542
 2185SOL    HW3 8507   1.568   5.642   5.255  0.9022  1.1209  0.3513
 2185SOL    MW4 8508   1.583   5.634   5.169 -0.0057 -0.0890  0.2767
 2186SOL     OW 8509   3.232   3.839   4.593  0.0669  0.4274  0.0533
 2186SOL    HW2 8510   3.137   3.828   4.597  0.1084  0.3656  1.3387
 2186SOL    HW3 8511   3.259   3.846   4.684  1.2308  1.1152 -0.3242
 2186SOL    MW4 8512   3.223   3.838   4.605  0.2259  0.5100  0.1731
 2187SOL     OW 8513   1.996   3.888   5.430 -0.0255 -0.0877 -0.2776
 2187SOL    HW2 8514   1.902   3.904   5.438  0.1915  1.3718 -0.2759
 2187SOL    HW3 8515   2.036   3.975   5.438  1.3313 -0.6805 -0.2464
 2187SOL    MW4 8516   1.989   3.902   5.432  0.1822  0.0266 -0.2732
 2188SOL     OW 8517   5.812   0.159   4.501  0.8527  0.1597  0.0787
 2188SOL    HW2 8518   5.760   0.224   4.453  0.1681  0.9252  1.7691
 2188SOL    HW3 8519   5.880   0.133   4.439 -0.2162  0.7843 -1.4430
 2188SOL    MW4 8520   5.814   0.164   4.487  0.6213  0.3431  0.1010
 2189SOL     OW 8521   3.999   2.527   1.791  0.5360  1.6367  0.2363
 2189SOL    HW2 8522   4.000   2.483   1.706  1.6652  2.3069 -0.1224
 2189SOL    HW3 8523   4.056   2.474   1.846 -2.3451 -0.4035  1.4893
 2189SOL    MW4 8524   4.007   2.514   1.787  0.3048  1.4560  0.3543
 2190SOL     OW 8525   4.072   4.394   5.687  0.2418  0.0549  0.4145
 2190SOL    HW2 8526   4.087   4.444   5.768  0.6402 -1.5196  1.3667
 2190SOL    HW3 8527   3.978   4.399   5.673  0.3703  1.7762 -0.0152
 2190SOL    MW4 8528   4.062   4.401   5.696  0.3113  0.0743  0.4835
 2191SOL     OW 8529   3.700   3.303   5.401 -0.3288  0.2540  0.8743
 2191SOL    HW2 8530   3.721   3.265   5.487 -1.1101  1.8856  1.8446
 2191SOL    HW3 8531   3.658   3.232   5.353  2.8195 -1.6223  0.6599
 2191SOL    MW4 8532   3.697   3.289   5.406 -0.0165  0.2217  0.9741
 2192SOL     OW 8533   3.472   0.720   0.278  0.0129  0.2688 -1.1019
 2192SOL    HW2 8534   3.478   0.815   0.271  0.3460  0.2179 -1.5884
 2192SOL    HW3 8535   3.412   0.705   0.351  0.7292  0.8539 -0.3689
 2192SOL    MW4 8536   3.465   0.730   0.287  0.1514  0.3393 -1.0694
 2193SOL     OW 8537   4.413   2.942   4.512  0.3673  0.1726  0.1302
 2193SOL    HW2 8538   4.333   2.940   4.460  0.2156  0.7501  0.3318
 2193SOL    HW3 8539   4.391   2.894   4.592  0.4528 -0.2972 -0.1217
 2193SOL    MW4 8540   4.400   2.935   4.516  0.3586  0.1868  0.1236
 2194SOL     OW 8541   1.825   1.253   1.536  0.1458 -0.3911  0.1313
 2194SOL    HW2 8542   1.769   1.220   1.466  2.0833 -0.5883 -1.4146
 2194SOL    HW3 8543   1.816   1.348   1.531 -1.8876 -0.4539  1.5458
 2194SOL    MW4 8544   1.816   1.261   1.526  0.1331 -0.4254  0.1140
 2195SOL     OW 8545   3.889   0.056   2.816  0.5038 -0.0844 -0.6143
 2195SOL    HW2 8546   3.900   0.123   2.748 -0.3961  0.4737 -0.2262
 2195SOL    HW3 8547   3.862   0.105   2.893 -2.4179 -1.0455 -0.8983
 2195SOL    MW4 8548   3.887   0.072   2.817 -0.0004 -0.1376 -0.6006
 2196SOL     OW 8549   4.916   3.604   0.959 -0.4839 -0.2881  0.5737
 2196SOL    HW2 8550   4.828   3.634   0.982 -0.6354  1.5481 -1.9340
 2196SOL    HW3 8551   4.903   3.548   0.883  0.3697 -1.9165  1.5822
 2196SOL    MW4 8552   4.902   3.601   0.952 -0.3913 -0.2607  0.3759
 2197SOL     OW 8553   4.436   2.559   5.236 -0.1783  0.1048  0.2029
 2197SOL    HW2 8554   4.483   2.641   5.249  1.1566 -0.2927 -1.6685
 2197SOL    HW3 8555   4.468   2.501   5.305  2.7525 -0.3621 -1.3753
 2197SOL    MW4 8556   4.447   2.562   5.247  0.3845 -0.0093 -0.2522
 2198SOL     OW 8557   2.854   5.367   5.061  0.2228  0.2221  0.2169
 2198SOL    HW2 8558   2.868   5.340   4.970 -0.4816 -1.9355  0.6905
 2198SOL    HW3 8559   2.789   5.437   5.055  1.1674  1.0314 -1.0129
 2198SOL    MW4 8560   2.847   5.373   5.048  0.2545  0.0442  0.1171
 2199SOL     OW 8561   2.840   5.220   6.213  0.4928 -0.3243  0.5571
 2199SOL    HW2 8562   2.884   5.253   6.134  0.2054 -2.0973 -0.4132
 2199SOL    HW3 8563   2.912   5.201   6.274  0.6707  1.7891  1.0833
 2199SOL    MW4 8564   2.855   5.222   6.211  0.4784 -0.2794  0.4985
 2200SOL     OW 8565   0.120   2.412   5.588 -0.5903  0.2055  0.0451
 2200SOL    HW2 8566   0.191   2.347   5.578 -0.4743 -0.1475  2.6112
 2200SOL    HW3 8567   0.084   2.395   5.675 -2.9636  1.2909 -0.6519
 2200SOL    MW4 8568   0.125   2.401   5.598 -0.8881  0.3022  0.2917
 2201SOL     OW 8569   0.905   3.028   1.383 -0.9620 -0.2540 -0.2078
 2201SOL    HW2 8570   0.926   3.046   1.291  1.3367  0.5008  0.4167
 2201SOL    HW3 8571   0.981   2.982   1.417 -1.3878  0.2569  1.5610
 2201SOL    MW4 8572   0.918   3.024   1.375 -0.7149 -0.0870  0.1080
 2202SOL     OW 8573   0.497   3.967   0.283  0.0907  0.3353 -0.6566
 2202SOL    HW2 8574   0.450   3.957   0.366  1.0286 -0.3720 -0.1883
 2202SOL    HW3 8575   0.500   4.061   0.269 -1.4760  0.4050 -0.7252
 2202SOL    MW4 8576   0.491   3.978   0.292  0.0077  0.2512 -0.6038
 2203SOL     OW 8577   0.440   5.994   3.438 -0.7080 -0.1279  0.3216
 2203SOL    HW2 8578   0.382   6.070   3.445  1.2942  1.4169  1.2973
 2203SOL    HW3 8579   0.387   5.927   3.395 -2.6867  1.6842 -0.2395
 2203SOL    MW4 8580   0.425   5.995   3.433 -0.7049  0.3150  0.3763
 2204SOL     OW 8581   2.741   0.309   3.741 -0.4370 -0.2274 -0.4788
 2204SOL    HW2 8582   2.671   0.288   3.680 -0.4271  1.2038 -1.0189
 2204SOL    HW3 8583   2.698   0.361   3.810 -0.4188 -1.6735  0.6716
 2204SOL    MW4 8584   2.726   0.313   3.742 -0.4333 -0.2293 -0.3983
 2205SOL     OW 8585   5.093   2.485   5.718  0.0806 -0.2489  0.1773
 2205SOL    HW2 8586   5.149   2.418   5.756 -0.8877 -0.9653  0.3720
 2205SOL    HW3 8587   5.088   2.553   5.785  0.8215 -0.1043  0.0963
 2205SOL    MW4 8588   5.100   2.485   5.732  0.0506 -0.3243  0.1923
 2206SOL     OW 8589   2.898   1.819   3.534  0.5026  0.2557  0.0807
 2206SOL    HW2 8590   2.985   1.849   3.559  0.3785  0.3710  0.3814
 2206SOL    HW3 8591   2.913   1.740   3.482  0.7495 -0.3008  0.9670
 2206SOL    MW4 8592   2.911   1.813   3.531  0.5188  0.1975  0.2373
 2207SOL     OW 8593   0.474   1.309   3.584 -0.1017 -0.2952 -0.4194
 2207SOL    HW2 8594   0.388   1.285   3.550 -0.2386  1.8831 -1.7958
 2207SOL    HW3 8595   0.459   1.329   3.677 -1.5498  1.9819 -1.0787
 2207SOL    MW4 8596   0.461   1.308   3.592 -0.3108  0.2927 -0.6880
 2208SOL     OW 8597   5.585   6.318   5.214  0.4407  0.4982 -0.2849
 2208SOL    HW2 8598   5.557   6.305   5.124  1.5883  0.4483 -0.6391
 2208SOL    HW3 8599   5.511   6.363   5.256  0.2903  1.4356 -1.5049
 2208SOL    MW4 8600   5.571   6.323   5.208  0.5722  0.6153 -0.4926
 2209SOL     OW 8601   4.434   5.020   3.791 -0.0377  0.2700  0.1211
 2209SOL    HW2 8602   4.467   4.946   3.842  0.4119  0.9189  0.7741
 2209SOL    HW3 8603   4.406   4.980   3.708  1.5397 -0.4346 -0.1178
 2209SOL    MW4 8604   4.435   5.005   3.786  0.2298  0.2627  0.1757
 2210SOL     OW 8605   1.859   1.806   1.208 -0.2075  0.0730  0.3022
 2210SOL    HW2 8606   1.824   1.876   1.153  1.4494  1.5473  1.0092
 2210SOL    HW3 8607   1.917   1.757   1.150  1.6053  1.6773  0.6570
 2210SOL    MW4 8608   1.862   1.808   1.193  0.2503  0.4792  0.4423
 2211SOL     OW 8609   4.793   0.251   5.262 -0.3599  0.1695  0.4726
 2211SOL    HW2 8610   4.698   0.255   5.252 -0.4212 -1.7052 -0.0800
 2211SOL    HW3 8611   4.826   0.323   5.209 -1.4108 -0.4344 -1.0888
 2211SOL    MW4 8612   4.785   0.261   5.254 -0.5067 -0.1575  0.1937
 2212SOL     OW 8613   4.276   4.551   0.008 -0.9159  0.4542 -0.3108
 2212SOL    HW2 8614   4.197   4.565  -0.044 -2.2171  2.6266  2.0506
 2212SOL    HW3 8615   4.252   4.577   0.097  2.4771  1.2655  0.5178
 2212SOL    MW4 8616   4.262   4.556   0.013 -0.6399  0.8479  0.1101
 2213SOL     OW 8617   2.970   1.672   1.664  0.3559 -0.1394 -0.3048
 2213SOL    HW2 8618   3.060   1.649   1.686  0.1458 -1.1319 -0.4366
 2213SOL    HW3 8619   2.953   1.629   1.581  0.6976  2.4728 -1.8362
 2213SOL    MW4 8620   2.980   1.663   1.656  0.3733  0.0743 -0.5243
 2214SOL     OW 8621   6.282   4.079   1.933  0.4276  0.7205 -0.2243
 2214SOL    HW2 8622   6.237   4.153   1.972 -0.9096  0.4141 -1.1029
 2214SOL    HW3 8623   6.231   4.058   1.855  0.0091 -1.9237  0.6652
 2214SOL    MW4 8624   6.270   4.086   1.928  0.1960  0.3312 -0.2229
 2215SOL     OW 8625   2.764   5.089   3.720 -0.3853  0.4910 -0.3576
 2215SOL    HW2 8626   2.694   5.033   3.752 -0.1895  1.4228  1.8602
 2215SOL    HW3 8627   2.761   5.080   3.625 -1.0769 -2.3788 -0.1431
 2215SOL    MW4 8628   2.755   5.080   3.712 -0.4507  0.2353 -0.0367
 2216SOL     OW 8629   4.500   5.506   3.433  0.4529  0.5764  0.0391
 2216SOL    HW2 8630   4.455   5.577   3.386 -1.1247 -0.0381  0.5574
 2216SOL    HW3 8631   4.538   5.453   3.363 -0.6716  0.4488 -0.5071
 2216SOL    MW4 8632   4.499   5.509   3.417  0.0964  0.4785  0.0354
 2217SOL     OW 8633   5.269   3.400   0.798  0.3024  0.1530  0.3295
 2217SOL    HW2 8634   5.237   3.313   0.823 -0.2504  0.1430 -0.3889
 2217SOL    HW3 8635   5.283   3.445   0.882  1.4369 -0.9083  0.7335
 2217SOL    MW4 8636   5.266   3.395   0.812  0.3792  0.0117  0.2880
 2218SOL     OW 8637   4.946   3.242   5.584 -0.2835 -0.0836  0.8626
 2218SOL    HW2 8638   5.041   3.241   5.568 -0.2635 -2.1016  0.8580
 2218SOL    HW3 8639   4.913   3.310   5.526  0.9986 -0.3748 -0.2639
 2218SOL    MW4 8640   4.954   3.251   5.574 -0.1117 -0.3883  0.7134
 2219SOL     OW 8641   2.095   1.960   4.311 -0.0928  0.4763 -0.3216
 2219SOL    HW2 8642   2.181   1.920   4.320 -0.8085 -1.6862 -2.2077
 2219SOL    HW3 8643   2.107   2.026   4.242  0.1122  0.3905 -0.3696
 2219SOL    MW4 8644   2.108   1.964   4.303 -0.1601  0.1797 -0.5768
 2220SOL     OW 8645   2.681   5.735   0.484 -0.0370 -0.5927  0.1759
 2220SOL    HW2 8646   2.726   5.680   0.420  0.6778  0.0203  0.1376
 2220SOL    HW3 8647   2.664   5.817   0.436 -0.1880 -0.4131  0.5328
 2220SOL    MW4 8648   2.685   5.739   0.469  0.0374 -0.4881  0.2180
 2221SOL     OW 8649   3.627   3.287   1.537  0.3663 -0.2287  0.3207
 2221SOL    HW2 8650   3.709   3.237   1.534 -0.5453 -1.7537 -2.1300
 2221SOL    HW3 8651   3.559   3.220   1.538 -0.8704  0.9565 -1.0011
 2221SOL    MW4 8652   3.629   3.271   1.537  0.0828 -0.2735 -0.1770
 2222SOL     OW 8653   4.620   5.575   1.859 -0.0378  0.5440  0.0812
 2222SOL    HW2 8654   4.619   5.621   1.775  0.7864  0.5639  0.0710
 2222SOL    HW3 8655   4.645   5.485   1.836  1.2230  0.7883  0.3927
 2222SOL    MW4 8656   4.623   5.569   1.845  0.2373  0.5788  0.1210
 2223SOL     OW 8657   5.566   1.437   0.403 -0.0528  0.9852  0.0342
 2223SOL    HW2 8658   5.653   1.475   0.398 -0.1010  1.2157  0.8227
 2223SOL    HW3 8659   5.562   1.397   0.490 -0.1153 -0.5688 -0.6374
 2223SOL    MW4 8660   5.577   1.437   0.413 -0.0674  0.8106  0.0496
 2224SOL     OW 8661   2.761   5.664   1.325  0.3382 -0.3722 -0.0672
 2224SOL    HW2 8662   2.686   5.649   1.268 -1.1872  1.9609  1.1535
 2224SOL    HW3 8663   2.742   5.614   1.404  0.5113 -0.4589 -0.0791
 2224SOL    MW4 8664   2.748   5.656   1.328  0.1598 -0.0759  0.0923
 2225SOL     OW 8665   0.233   4.631   1.952 -0.9784  0.5271  0.3362
 2225SOL    HW2 8666   0.287   4.640   2.031  0.8095  0.1515 -0.7765
 2225SOL    HW3 8667   0.240   4.715   1.908  0.8362 -0.2799 -1.0519
 2225SOL    MW4 8668   0.241   4.643   1.957 -0.5031  0.3711  0.0063
 2226SOL     OW 8669   5.367   1.700   5.058  0.3000 -1.0023 -0.3497
 2226SOL    HW2 8670   5.434   1.667   5.118  0.3600  0.0049  0.1622
 2226SOL    HW3 8671   5.287   1.702   5.110  0.3258 -0.2343 -0.3289
 2226SOL    MW4 8672   5.365   1.696   5.073  0.3113 -0.7681 -0.2794
 2227SOL     OW 8673   4.761   5.591   2.865  0.4486  0.1235  0.0159
 2227SOL    HW2 8674   4.686   5.620   2.815 -0.2276 -0.3013  0.7541
 2227SOL    HW3 8675   4.824   5.560   2.800 -0.8515 -1.4659 -0.5367
 2227SOL    MW4 8676   4.760   5.591   2.850  0.1879 -0.1422  0.0404
 2228SOL     OW 8677   1.692   1.313   5.968  0.1018  0.1623 -0.3462
 2228SOL    HW2 8678   1.766   1.253   5.984  0.2437  0.3548 -0.2733
 2228SOL    HW3 8679   1.734   1.397   5.949 -0.0996  0.2537 -0.3803
 2228SOL    MW4 8680   1.707   1.316   5.968  0.0940  0.1998 -0.3411
 2229SOL     OW 8681   4.162   0.293   4.647  0.1211 -0.2092 -0.1033
 2229SOL    HW2 8682   4.104   0.346   4.593 -2.1835  0.4598  2.7873
 2229SOL    HW3 8683   4.133   0.203   4.633 -0.9688  0.0281  0.5325
 2229SOL    MW4 8684   4.151   0.288   4.638 -0.3268 -0.0896  0.3620
 2230SOL     OW 8685   0.895   2.131   2.412  0.1867  0.2262  0.2736
 2230SOL    HW2 8686   0.829   2.199   2.417 -0.5514 -0.4045 -0.6394
 2230SOL    HW3 8687   0.933   2.139   2.325  0.2311 -0.3972  0.2265
 2230SOL    MW4 8688   0.892   2.141   2.401  0.0952  0.0608  0.1469
 2231SOL     OW 8689   2.184   4.354   3.977 -0.5971 -0.3855  0.4113
 2231SOL    HW2 8690   2.123   4.405   3.924 -0.8205 -0.3740  0.6798
 2231SOL    HW3 8691   2.140   4.345   4.062 -0.1090 -0.1451  0.6932
 2231SOL    MW4 8692   2.170   4.360   3.981 -0.5622 -0.3522  0.4839
 2232SOL     OW 8693   6.404   3.331   2.895  0.2542 -0.3102 -0.8978
 2232SOL    HW2 8694   6.338   3.386   2.852 -0.5092 -0.2101  0.3601
 2232SOL    HW3 8695   6.355   3.279   2.958  1.5033  0.6267  0.9241
 2232SOL    MW4 8696   6.389   3.332   2.897  0.3183 -0.1734 -0.4915
 2233SOL     OW 8697   0.562   2.151   1.286 -0.1183 -0.1063 -0.6871
 2233SOL    HW2 8698   0.526   2.103   1.361 -0.2558 -0.0043 -0.6871
 2233SOL    HW3 8699   0.649   2.112   1.272 -0.7432 -1.2518 -1.5164
 2233SOL    MW4 8700   0.569   2.139   1.294 -0.2189 -0.2439 -0.7965
 2234SOL     OW 8701   6.034   1.506   4.213 -0.3103 -0.3941 -1.5084
 2234SOL    HW2 8702   5.952   1.538   4.175 -0.6800  2.5767  1.3008
 2234SOL    HW3 8703   6.007   1.443   4.280 -0.6670  1.9369  0.7214
 2234SOL    MW4 8704   6.019   1.502   4.217 -0.4061  0.3054 -0.8435
 2235SOL     OW 8705   1.141   0.992   5.414 -0.0153  0.4618  0.2737
 2235SOL    HW2 8706   1.132   0.940   5.494  1.6459  1.0753  0.8954
 2235SOL    HW3 8707   1.125   0.929   5.343 -3.1923  0.2499  1.0193
 2235SOL    MW4 8708   1.137   0.976   5.415 -0.2153  0.5148  0.4541
 2236SOL     OW 8709   2.352   4.490   3.268  0.2045 -0.3412  0.1581
 2236SOL    HW2 8710   2.347   4.419   3.331  0.1275 -2.2055 -1.8206
 2236SOL    HW3 8711   2.264   4.494   3.228  0.1055  1.1105  0.4409
 2236SOL    MW4 8712   2.339   4.481   3.271  0.1813 -0.3956 -0.0656
 2237SOL     OW 8713   4.189   5.065   1.619 -0.0684  0.3282 -0.0954
 2237SOL    HW2 8714   4.136   5.080   1.541  1.1135  2.2969 -0.5926
 2237SOL    HW3 8715   4.151   5.121   1.686  0.1802  0.2356  0.1254
 2237SOL    MW4 8716   4.177   5.074   1.617  0.1203  0.5758 -0.1318
 2238SOL     OW 8717   5.834   4.276   0.412 -0.0729 -0.4910  0.9722
 2238SOL    HW2 8718   5.776   4.310   0.344  0.2842 -0.5083  0.6516
 2238SOL    HW3 8719   5.792   4.301   0.494  1.0174  2.3170  0.8021
 2238SOL    MW4 8720   5.821   4.284   0.414  0.1180 -0.1228  0.9075
 2239SOL     OW 8721   3.090   0.592   3.814  0.4386  0.2704 -0.1567
 2239SOL    HW2 8722   3.123   0.510   3.777  0.6522  0.4184 -0.2987
 2239SOL    HW3 8723   3.001   0.599   3.780  0.1560 -0.2640  0.4420
 2239SOL    MW4 8724   3.083   0.582   3.805  0.4295  0.2194 -0.0964
 2240SOL     OW 8725   2.670   3.896   4.155 -0.1296 -0.3699  0.0780
 2240SOL    HW2 8726   2.661   3.985   4.188  0.5932 -0.2505 -0.0431
 2240SOL    HW3 8727   2.764   3.882   4.147 -0.2530 -0.3472 -2.0696
 2240SOL    MW4 8728   2.681   3.906   4.158 -0.0505 -0.3511 -0.2213
 2241SOL     OW 8729   2.922   0.672   0.880  0.7848 -0.6183  0.3989
 2241SOL    HW2 8730   2.904   0.687   0.787  1.9804  0.1366  0.2565
 2241SOL    HW3 8731   2.890   0.584   0.898 -1.5862  0.0702 -0.1406
 2241SOL    MW4 8732   2.916   0.662   0.870  0.6297 -0.4279  0.3089
 2242SOL     OW 8733   1.443   5.726   2.425  0.2233 -0.2380  1.2243
 2242SOL    HW2 8734   1.402   5.809   2.404 -1.0899 -1.7009 -3.1192
 2242SOL    HW3 8735   1.370   5.663   2.429  1.3954 -1.9060 -0.8382
 2242SOL    MW4 8736   1.428   5.728   2.422  0.2047 -0.6511  0.3791
 2243SOL     OW 8737   5.639   5.400   5.204 -0.4593 -0.1018 -0.1364
 2243SOL    HW2 8738   5.703   5.337   5.238 -1.1661  0.0324  1.5337
 2243SOL    HW3 8739   5.584   5.421   5.279 -0.9772  1.6187 -0.9487
 2243SOL    MW4 8740   5.640   5.395   5.219 -0.6209  0.1429 -0.0232
 2244SOL     OW 8741   1.524   4.092   6.158  0.0987 -0.2791  0.1465
 2244SOL    HW2 8742   1.470   4.028   6.110 -0.6328  0.9679 -0.7638
 2244SOL    HW3 8743   1.507   4.175   6.113  0.9831  0.5682  1.3363
 2244SOL    MW4 8744   1.515   4.094   6.146  0.1189 -0.0028  0.1834
 2245SOL     OW 8745   2.287   1.585   6.352  0.4630 -0.8609  1.0948
 2245SOL    HW2 8746   2.313   1.499   6.318  1.8262 -0.1619  0.3163
 2245SOL    HW3 8747   2.361   1.613   6.405  0.1854  0.0100  1.0353
 2245SOL    MW4 8748   2.300   1.577   6.355  0.6062 -0.6538  0.9842
 2246SOL     OW 8749   2.840   3.281   5.970 -0.3055  0.5200  0.0328
 2246SOL    HW2 8750   2.931   3.308   5.953 -0.5210  0.6993 -0.8328
 2246SOL    HW3 8751   2.787   3.343   5.921 -0.8790 -0.0275 -0.0429
 2246SOL    MW4 8752   2.845   3.292   5.962 -0.4096  0.4714 -0.0914
 2247SOL     OW 8753   1.266   5.029   3.310  0.0143 -0.1124  0.0461
 2247SOL    HW2 8754   1.295   5.120   3.299 -0.3445 -0.0721 -0.6395
 2247SOL    HW3 8755   1.219   5.029   3.394 -1.3650  0.7201 -0.6860
 2247SOL    MW4 8756   1.264   5.041   3.320 -0.2150  0.0028 -0.1410
 2248SOL     OW 8757   0.161   1.797   2.774 -0.4374  0.6693 -0.1109
 2248SOL    HW2 8758   0.171   1.709   2.739 -0.3304  1.4427 -2.1317
 2248SOL    HW3 8759   0.068   1.804   2.796 -0.0943 -0.6034  2.1039
 2248SOL    MW4 8760   0.150   1.787   2.772 -0.3780  0.6034 -0.0853
 2249SOL     OW 8761   0.269   0.688   4.133 -0.2070 -0.5120 -0.2509
 2249SOL    HW2 8762   0.268   0.683   4.038  0.9164  1.6024 -0.4200
 2249SOL    HW3 8763   0.350   0.644   4.159  0.2204  0.1696 -0.3985
 2249SOL    MW4 8764   0.279   0.681   4.124 -0.0024 -0.1431 -0.2927
 2250SOL     OW 8765   2.293   5.932   0.147 -0.0451 -0.2930 -0.0247
 2250SOL    HW2 8766   2.257   6.012   0.186 -0.6931  0.1247 -1.3786
 2250SOL    HW3 8767   2.216   5.882   0.120  0.3100 -2.1923  2.2387
 2250SOL    MW4 8768   2.278   5.936   0.148 -0.0838 -0.4885  0.0953
 2251SOL     OW 8769   1.320   1.074   1.223  0.0285 -0.3616 -0.2833
 2251SOL    HW2 8770   1.370   1.144   1.181 -0.7012 -0.0629 -0.6826
 2251SOL    HW3 8771   1.381   1.000   1.228  0.5396  0.0292 -0.6406
 2251SOL    MW4 8772   1.335   1.074   1.218 -0.0003 -0.2706 -0.3831
 2252SOL     OW 8773   1.438   3.966   5.733 -0.2446 -0.1093  0.1298
 2252SOL    HW2 8774   1.366   4.009   5.687  0.1851  1.3679  0.7945
 2252SOL    HW3 8775   1.468   3.898   5.672 -1.7073 -0.2796 -0.4543
 2252SOL    MW4 8776   1.432   3.962   5.719 -0.3809  0.0631  0.1405
 2253SOL     OW 8777   1.941   4.460   2.849  0.6364 -0.5420  0.0194
 2253SOL    HW2 8778   1.878   4.391   2.829 -0.6157  1.0232 -1.8222
 2253SOL    HW3 8779   1.890   4.526   2.895  1.1853  0.2531 -0.4987
 2253SOL    MW4 8780   1.926   4.459   2.853  0.5436 -0.2306 -0.2919
 2254SOL     OW 8781   2.614   5.364   6.334  0.2982 -0.1358 -0.4207
 2254SOL    HW2 8782   2.533   5.375   6.285  0.3588 -1.6961 -0.9368
 2254SOL    HW3 8783   2.665   5.302   6.282  1.4670  0.1592  0.3285
 2254SOL    MW4 8784   2.610   5.357   6.320  0.4604 -0.3028 -0.3900
 2255SOL     OW 8785   4.099   1.262   2.362 -0.1628 -0.7069  0.6332
 2255SOL    HW2 8786   4.136   1.342   2.325 -3.1344 -0.0505 -1.2972
 2255SOL    HW3 8787   4.066   1.287   2.448  0.3388 -0.2995  0.7077
 2255SOL    MW4 8788   4.099   1.276   2.368 -0.4887 -0.5666  0.3883
 2256SOL     OW 8789   2.751   1.006   0.286 -0.1327  0.3304  0.4031
 2256SOL    HW2 8790   2.798   0.930   0.251  0.7597  0.7802  0.6064
 2256SOL    HW3 8791   2.815   1.051   0.341 -0.7193  1.1110  0.4610
 2256SOL    MW4 8792   2.766   1.002   0.289 -0.0924  0.4927  0.4375
 2257SOL     OW 8793   1.171   3.429   0.258 -0.0631 -0.3718 -0.1587
 2257SOL    HW2 8794   1.265   3.434   0.243  0.2920 -0.4917  1.8141
 2257SOL    HW3 8795   1.135   3.502   0.207  1.2865  0.7116  0.3817
 2257SOL    MW4 8796   1.179   3.439   0.249  0.1618 -0.2446  0.1729
 2258SOL     OW 8797   2.404   5.854   1.645 -0.0385 -0.4943 -0.1012
 2258SOL    HW2 8798   2.406   5.772   1.597 -2.2502 -0.6145 -0.0722
 2258SOL    HW3 8799   2.466   5.910   1.599  1.9206 -2.2891  0.1933
 2258SOL    MW4 8800   2.413   5.851   1.633 -0.0718 -0.7469 -0.0586
 2259SOL     OW 8801   3.971   3.313   5.840 -0.0341  0.1105  0.5748
 2259SOL    HW2 8802   4.023   3.234   5.852  0.3692  0.1010 -1.0313
 2259SOL    HW3 8803   3.910   3.292   5.769  0.2214  1.2981 -0.0228
 2259SOL    MW4 8804   3.969   3.300   5.832  0.0528  0.2659  0.2840
 2260SOL     OW 8805   1.483   4.494   1.831 -0.0640  0.1055  0.3790
 2260SOL    HW2 8806   1.529   4.441   1.896 -3.1813 -1.2975  1.6654
 2260SOL    HW3 8807   1.477   4.581   1.871  2.1583  0.5966 -0.2438
 2260SOL    MW4 8808   1.488   4.499   1.845 -0.1821 -0.0148  0.4666
 2261SOL     OW 8809   4.021   3.235   4.558 -0.0559 -0.0963 -0.3541
 2261SOL    HW2 8810   4.030   3.323   4.594 -0.7977 -0.5899  1.1319
 2261SOL    HW3 8811   4.075   3.180   4.615 -1.2248 -0.8983  0.0316
 2261SOL    MW4 8812   4.029   3.239   4.570 -0.3080 -0.2673 -0.1071
 2262SOL     OW 8813   5.248   3.917   4.670 -0.1367  0.0808  0.1783
 2262SOL    HW2 8814   5.271   3.829   4.641 -0.8738  0.0543 -0.3514
 2262SOL    HW3 8815   5.326   3.969   4.651  0.3234 -0.4668  0.5531
 2262SOL    MW4 8816   5.261   3.912   4.664 -0.1733  0.0051  0.1579
 2263SOL     OW 8817   1.779   2.008   0.192  0.2590 -0.4366  0.1969
 2263SOL    HW2 8818   1.821   1.937   0.242  0.7837 -0.5666 -0.4144
 2263SOL    HW3 8819   1.787   2.085   0.249  1.1201 -0.5149  0.1889
 2263SOL    MW4 8820   1.786   2.009   0.206  0.4418 -0.4641  0.1152
 2264SOL     OW 8821   4.353   1.003   4.192  0.4502 -0.0673  0.0484
 2264SOL    HW2 8822   4.306   0.924   4.218  1.0336 -0.9311 -1.4257
 2264SOL    HW3 8823   4.332   1.067   4.261 -3.0347 -0.3171 -0.5765
 2264SOL    MW4 8824   4.344   1.001   4.205  0.0674 -0.2142 -0.2285
 2265SOL     OW 8825   5.905   4.811   6.103 -0.2443  0.2463  0.1152
 2265SOL    HW2 8826   5.902   4.777   6.013 -1.0490  1.1536 -0.2144
 2265SOL    HW3 8827   5.853   4.891   6.100 -0.9407 -0.1282  1.5850
 2265SOL    MW4 8828   5.898   4.817   6.090 -0.4424  0.3166  0.2657
 2266SOL     OW 8829   0.398   0.245   5.159 -0.1947  0.0256 -0.9533
 2266SOL    HW2 8830   0.432   0.192   5.231 -0.5080  0.4684 -0.4682
 2266SOL    HW3 8831   0.435   0.206   5.080  2.2333  1.0360 -0.4154
 2266SOL    MW4 8832   0.407   0.233   5.158  0.0843  0.2173 -0.8183
 2267SOL     OW 8833   5.491   1.958   4.096  0.8080 -0.1826 -0.2053
 2267SOL    HW2 8834   5.507   2.011   4.174  2.2553 -0.3019 -0.3879
 2267SOL    HW3 8835   5.530   2.008   4.024 -0.3732 -0.1478 -0.8415
 2267SOL    MW4 8836   5.498   1.972   4.097  0.8431 -0.1937 -0.3133
 2268SOL     OW 8837   1.525   3.673   5.902  0.2086 -0.0879  0.9463
 2268SOL    HW2 8838   1.442   3.633   5.878  1.1356 -1.4810 -0.1175
 2268SOL    HW3 8839   1.507   3.767   5.906 -0.8718 -0.0887 -1.8519
 2268SOL    MW4 8840   1.512   3.680   5.899  0.1883 -0.2718  0.4368
 2269SOL     OW 8841   5.366   5.887   1.657  0.2007  0.9965 -0.2943
 2269SOL    HW2 8842   5.405   5.813   1.611  1.3375  0.5215  1.3507
 2269SOL    HW3 8843   5.324   5.849   1.734 -0.8139  1.8833 -0.3742
 2269SOL    MW4 8844   5.366   5.872   1.661  0.2168  1.0508 -0.0878
 2270SOL     OW 8845   1.994   4.394   3.756 -0.8655 -0.7112 -0.5480
 2270SOL    HW2 8846   1.955   4.316   3.716 -0.0306 -0.3092 -2.2404
 2270SOL    HW3 8847   2.040   4.437   3.685 -1.4187  1.4363  0.2982
 2270SOL    MW4 8848   1.995   4.389   3.742 -0.8283 -0.3749 -0.6596
 2271SOL     OW 8849   0.051   6.015   3.405 -0.2052 -0.1660  0.0978
 2271SOL    HW2 8850  -0.022   6.073   3.425 -0.1328 -0.3986  1.0726
 2271SOL    HW3 8851   0.128   6.059   3.441  0.0897 -0.1231 -0.5553
 2271SOL    MW4 8852   0.052   6.028   3.412 -0.1567 -0.1911  0.1402
 2272SOL     OW 8853   3.316   3.967   1.580  0.6146 -0.1411  0.1059
 2272SOL    HW2 8854   3.316   4.059   1.604 -1.2471  0.2783 -1.3228
 2272SOL    HW3 8855   3.409   3.946   1.566  0.9445  2.0335 -1.3679
 2272SOL    MW4 8856   3.329   3.976   1.582  0.4125  0.2011 -0.2771
 2273SOL     OW 8857   0.759   5.071   4.544 -0.7193 -0.0986 -0.0255
 2273SOL    HW2 8858   0.826   5.118   4.594 -1.5370  0.8361  0.2151
 2273SOL    HW3 8859   0.695   5.042   4.609 -1.7815  1.1031 -0.4904
 2273SOL    MW4 8860   0.759   5.073   4.559 -0.9673  0.1833 -0.0551
 2274SOL     OW 8861   3.011   5.463   2.966 -0.1498  0.6382 -0.4616
 2274SOL    HW2 8862   2.921   5.457   2.932  0.9455 -0.3379 -3.5343
 2274SOL    HW3 8863   3.029   5.556   2.968 -1.2566  0.8608  0.3396
 2274SOL    MW4 8864   3.001   5.474   2.961 -0.1513  0.5388 -0.7613
 2275SOL     OW 8865   1.189   4.690   1.640  0.0847 -0.0809 -0.4823
 2275SOL    HW2 8866   1.256   4.739   1.687  0.1126 -1.0165  0.4929
 2275SOL    HW3 8867   1.146   4.755   1.584  1.9741  0.4855 -1.3697
 2275SOL    MW4 8868   1.192   4.705   1.638  0.3376 -0.1296 -0.4707
 2276SOL     OW 8869   5.461   0.051   2.980 -0.1082  0.7092 -0.1505
 2276SOL    HW2 8870   5.418   0.131   3.012  0.9657  1.4940 -0.5800
 2276SOL    HW3 8871   5.429   0.041   2.890 -0.5417  0.4302  0.0336
 2276SOL    MW4 8872   5.451   0.061   2.972 -0.0237  0.7759 -0.1829
 2277SOL     OW 8873   5.379   4.715   1.708  0.4880 -0.2730 -0.4410
 2277SOL    HW2 8874   5.443   4.786   1.700 -0.3703  0.7490  1.2631
 2277SOL    HW3 8875   5.387   4.667   1.626  0.7517  2.0859 -1.8934
 2277SOL    MW4 8876   5.388   4.718   1.696  0.4095  0.1731 -0.4078
 2278SOL     OW 8877   2.531   0.256   0.319  0.1145  0.2505 -0.0856
 2278SOL    HW2 8878   2.523   0.186   0.255  1.3774  0.0783 -0.0868
 2278SOL    HW3 8879   2.572   0.328   0.270  1.4348 -0.0114  0.5832
 2278SOL    MW4 8880   2.535   0.256   0.304  0.4553  0.1933  0.0025
 2279SOL     OW 8881   1.349   4.200   0.361  0.5412 -0.2755 -0.1288
 2279SOL    HW2 8882   1.436   4.240   0.362 -0.2272  1.6109 -2.1343
 2279SOL    HW3 8883   1.348   4.146   0.282  0.3870 -1.6844  0.7770
 2279SOL    MW4 8884   1.361   4.198   0.351  0.4194 -0.2125 -0.2739
 2280SOL     OW 8885   5.415   4.619   2.728  0.9507  0.1357  0.2067
 2280SOL    HW2 8886   5.351   4.688   2.714  2.7674  1.5623 -1.8460
 2280SOL    HW3 8887   5.498   4.657   2.698  2.6261 -1.8850  1.9599
 2280SOL    MW4 8888   5.417   4.633   2.722  1.4114  0.0573  0.1672
 2281SOL     OW 8889   3.863   1.901   6.082 -0.9191 -0.4088 -0.6163
 2281SOL    HW2 8890   3.821   1.816   6.095  1.6309 -1.3170  3.3684
 2281SOL    HW3 8891   3.810   1.962   6.134  0.1180 -0.6889  0.8224
 2281SOL    MW4 8892   3.850   1.898   6.091 -0.4458 -0.5656  0.0992
 2282SOL     OW 8893   3.887   0.070   4.658 -0.1377 -0.0074 -0.1117
 2282SOL    HW2 8894   3.955   0.054   4.592 -0.5598  1.0785 -0.8248
 2282SOL    HW3 8895   3.808   0.087   4.608 -0.8930 -0.9796  0.7170
 2282SOL    MW4 8896   3.886   0.070   4.643 -0.2931  0.0076 -0.0965
 2283SOL     OW 8897   2.567   1.009   3.159 -0.0851  0.3815  0.0597
 2283SOL    HW2 8898   2.539   1.099   3.142 -2.5037 -0.0726  1.2735
 2283SOL    HW3 8899   2.632   0.991   3.091 -0.3129  2.6779 -0.8540
 2283SOL    MW4 8900   2.572   1.019   3.148 -0.4342  0.6246  0.0993
 2284SOL     OW 8901   1.239   0.681   5.492 -0.2619  0.0882  0.3795
 2284SOL    HW2 8902   1.256   0.712   5.403  0.1213 -0.0343  0.4069
 2284SOL    HW3 8903   1.154   0.718   5.515  0.7581  2.2590  0.9291
 2284SOL    MW4 8904   1.230   0.690   5.484 -0.0767  0.3585  0.4556
 2285SOL     OW 8905   0.969   4.836   0.167 -0.2438  0.0745  0.1584
 2285SOL    HW2 8906   0.982   4.918   0.119 -1.0282 -0.8241 -1.7057
 2285SOL    HW3 8907   1.057   4.797   0.172 -0.3061 -0.4954 -1.9644
 2285SOL    MW4 8908   0.983   4.841   0.161 -0.3555 -0.1193 -0.3676
 2286SOL     OW 8909   2.692   5.318   4.667 -0.4401 -0.2420 -0.0965
 2286SOL    HW2 8910   2.641   5.377   4.723  0.1809 -0.9269  1.2356
 2286SOL    HW3 8911   2.696   5.363   4.582 -0.6814  1.2323  0.6466
 2286SOL    MW4 8912   2.686   5.332   4.663 -0.3900 -0.1379  0.1773
 2287SOL     OW 8913   4.106   4.145   0.665  0.0305 -0.9335 -0.6064
 2287SOL    HW2 8914   4.183   4.187   0.703 -0.5777 -1.8922  1.8877
 2287SOL    HW3 8915   4.141   4.091   0.594  1.1508  1.3891 -1.9295
 2287SOL    MW4 8916   4.121   4.143   0.660  0.0981 -0.7535 -0.4519
 2288SOL     OW 8917   3.787   1.188   5.095  0.4011  0.1516 -0.1206
 2288SOL    HW2 8918   3.765   1.278   5.119  0.1296 -0.2680  1.2792
 2288SOL    HW3 8919   3.873   1.194   5.054  0.6662  0.9809  0.5331
 2288SOL    MW4 8920   3.795   1.200   5.093  0.4002  0.2057  0.1503
 2289SOL     OW 8921   5.646   6.208   1.672 -0.0744  0.4308 -0.4312
 2289SOL    HW2 8922   5.590   6.228   1.596 -0.3317 -0.9157 -0.6157
 2289SOL    HW3 8923   5.607   6.130   1.710  1.4499 -0.3116 -0.3284
 2289SOL    MW4 8924   5.633   6.200   1.667  0.0928  0.1552 -0.4420
 2290SOL     OW 8925   2.371   5.637   3.671 -0.3460  0.5224 -1.1204
 2290SOL    HW2 8926   2.440   5.572   3.683 -1.3345 -0.3093  0.7318
 2290SOL    HW3 8927   2.298   5.603   3.724 -1.6034  2.1593 -1.7112
 2290SOL    MW4 8928   2.370   5.624   3.680 -0.6423  0.6287 -0.9540
 2291SOL     OW 8929   2.841   2.718   1.179 -0.3782  0.2675  0.2434
 2291SOL    HW2 8930   2.750   2.698   1.201 -0.3009 -0.5228 -0.1106
 2291SOL    HW3 8931   2.883   2.736   1.263 -0.7519  0.1495  0.4577
 2291SOL    MW4 8932   2.835   2.718   1.193 -0.4173  0.1476  0.2249
 2292SOL     OW 8933   1.829   6.257   6.100  0.0061  0.4745 -0.0549
 2292SOL    HW2 8934   1.751   6.205   6.078  0.1129  0.1502  0.3175
 2292SOL    HW3 8935   1.797   6.347   6.101 -0.8578  0.2246  1.9664
 2292SOL    MW4 8936   1.814   6.262   6.098 -0.0938  0.3987  0.2609
 2293SOL     OW 8937   6.321   5.126   1.373  0.0966  0.1077 -0.1268
 2293SOL    HW2 8938   6.306   5.216   1.345  0.8195  0.4035  0.3794
 2293SOL    HW3 8939   6.312   5.073   1.294 -1.8896  0.4215 -0.1547
 2293SOL    MW4 8940   6.318   5.131   1.359 -0.0701  0.1881 -0.0637
 2294SOL     OW 8941   2.119   2.093   1.370  0.7860  0.2239 -0.1405
 2294SOL    HW2 8942   2.105   1.998   1.361 -2.1180  0.3564  1.8002
 2294SOL    HW3 8943   2.209   2.101   1.401  0.8179 -1.9732  0.5175
 2294SOL    MW4 8944   2.129   2.081   1.373  0.4070 -0.0485  0.2024
 2295SOL     OW 8945   5.281   0.530   0.245 -0.1183 -0.6929  0.2500
 2295SOL    HW2 8946   5.286   0.485   0.161  0.3480  1.0948 -0.7329
 2295SOL    HW3 8947   5.223   0.604   0.230 -1.6796 -1.4481  2.0953
 2295SOL    MW4 8948   5.274   0.534   0.232 -0.2628 -0.5567  0.3638
 2296SOL     OW 8949   2.982   2.869   3.096  0.3124  0.1509  0.0725
 2296SOL    HW2 8950   2.889   2.844   3.096  0.3929 -0.1455  0.3301
 2296SOL    HW3 8951   3.027   2.794   3.133  0.9419 -0.7333 -2.3539
 2296SOL    MW4 8952   2.975   2.856   3.101  0.4061 -0.0049 -0.2136
 2297SOL     OW 8953   1.916   3.529   4.021 -0.4435  0.6182  0.4148
 2297SOL    HW2 8954   1.907   3.622   4.002 -1.2270  0.4755  0.0508
 2297SOL    HW3 8955   1.891   3.521   4.113  1.4283  1.0178  1.0054
 2297SOL    MW4 8956   1.911   3.540   4.031 -0.2999  0.6521  0.4447
 2298SOL     OW 8957   5.886   3.982   3.501 -0.4815 -0.5951 -0.7870
 2298SOL    HW2 8958   5.809   4.039   3.501 -1.1771 -1.4013 -3.1164
 2298SOL    HW3 8959   5.921   3.989   3.412  2.7547  0.4285  0.4373
 2298SOL    MW4 8960   5.880   3.990   3.489 -0.1463 -0.5664 -0.9328
 2299SOL     OW 8961   3.803   3.888   5.757  0.6185  0.0579 -0.0250
 2299SOL    HW2 8962   3.896   3.911   5.759  0.1140  2.4413 -0.5048
 2299SOL    HW3 8963   3.759   3.965   5.794 -1.1218 -1.5041  1.3352
 2299SOL    MW4 8964   3.810   3.901   5.762  0.3223  0.1663  0.0912
 2300SOL     OW 8965   1.713   6.144   4.973 -0.0669 -0.0912 -0.0010
 2300SOL    HW2 8966   1.649   6.181   4.912  0.8899 -0.4613 -1.2583
 2300SOL    HW3 8967   1.660   6.088   5.031 -1.0529  0.6292 -0.1739
 2300SOL    MW4 8968   1.697   6.142   4.972 -0.0707 -0.0450 -0.1897
 2301SOL     OW 8969   3.710   2.155   2.743 -0.3969  0.2885  0.2395
 2301SOL    HW2 8970   3.709   2.134   2.836  0.1880  1.7926  0.6105
 2301SOL    HW3 8971   3.625   2.196   2.727 -0.3276  0.4113  0.1925
 2301SOL    MW4 8972   3.699   2.157   2.753 -0.3106  0.5031  0.2822
 2302SOL     OW 8973   6.165   3.053   4.150 -0.3500  0.7306  0.2766
 2302SOL    HW2 8974   6.077   3.078   4.179 -1.3163 -0.7820 -1.1421
 2302SOL    HW3 8975   6.212   3.031   4.231 -2.4870 -2.0272  0.9426
 2302SOL    MW4 8976   6.160   3.053   4.164 -0.7594  0.1672  0.1773
 2303SOL     OW 8977   5.046   4.322   0.437  0.2606  0.5451  0.0830
 2303SOL    HW2 8978   5.083   4.382   0.502 -0.5368 -0.1063  1.1720
 2303SOL    HW3 8979   5.086   4.237   0.458 -1.2397 -0.0134  0.8070
 2303SOL    MW4 8980   5.057   4.318   0.449 -0.0426  0.3855  0.3222
 2304SOL     OW 8981   5.966   0.797   4.373 -0.3572 -1.1809  0.0978
 2304SOL    HW2 8982   5.942   0.736   4.443  1.2457 -2.9033 -0.7582
 2304SOL    HW3 8983   6.038   0.754   4.328 -0.0656  0.7700 -1.4301
 2304SOL    MW4 8984   5.973   0.783   4.377 -0.1072 -1.1508 -0.2168
 2305SOL     OW 8985   2.444   1.008   0.107  0.2025  0.3288 -0.0174
 2305SOL    HW2 8986   2.460   0.914   0.121  1.1146  0.6154  0.9946
 2305SOL    HW3 8987   2.439   1.017   0.012  0.6915 -0.6600 -0.1569
 2305SOL    MW4 8988   2.446   0.997   0.096  0.3873  0.2361  0.0977
 2306SOL     OW 8989   1.358   3.164   4.395  0.3464 -0.2639 -0.1632
 2306SOL    HW2 8990   1.444   3.124   4.385  0.8865  1.2601 -2.0940
 2306SOL    HW3 8991   1.376   3.252   4.428 -0.2672  0.7486 -2.3598
 2306SOL    MW4 8992   1.371   3.170   4.398  0.3367  0.0708 -0.7078
 2307SOL     OW 8993   0.180   2.581   3.478 -0.0021 -0.0164 -0.1271
 2307SOL    HW2 8994   0.145   2.546   3.561 -0.3653  3.4529  1.3611
 2307SOL    HW3 8995   0.114   2.557   3.413 -0.4929 -1.4937  0.8413
 2307SOL    MW4 8996   0.167   2.573   3.481 -0.1148  0.2464  0.1970
 2308SOL     OW 8997   0.875   2.455   0.258  0.6046  0.0529  0.3527
 2308SOL    HW2 8998   0.828   2.516   0.201  0.9362 -1.2822 -1.4265
 2308SOL    HW3 8999   0.876   2.499   0.343 -0.8293  1.6591 -0.3797
 2308SOL    MW4 9000   0.869   2.469   0.262  0.4591  0.0887  0.0213
 2309SOL     OW 9001   3.008   5.740   3.113 -0.0338  1.1717  0.1548
 2309SOL    HW2 9002   2.972   5.663   3.157 -1.4158  0.0908 -2.6563
 2309SOL    HW3 9003   2.931   5.791   3.085  0.7349  1.6066 -1.2864
 2309SOL    MW4 9004   2.993   5.737   3.115 -0.1147  1.0865 -0.4063
 2310SOL     OW 9005   5.887   0.660   2.819 -0.2655  0.3634  0.1608
 2310SOL    HW2 9006   5.935   0.743   2.828 -0.4363  0.4181  0.6338
 2310SOL    HW3 9007   5.955   0.593   2.819 -0.1632  0.4629  0.4650
 2310SOL    MW4 9008   5.902   0.662   2.820 -0.2745  0.3837  0.2634
 2311SOL     OW 9009   2.863   5.850   0.639 -0.2000  0.0556 -0.2339
 2311SOL    HW2 9010   2.794   5.819   0.580  0.6228 -0.9867 -0.6948
 2311SOL    HW3 9011   2.867   5.783   0.708  0.1130  0.2865 -0.0264
 2311SOL    MW4 9012   2.855   5.837   0.640 -0.0502 -0.0514 -0.2673
 2312SOL     OW 9013   4.638   0.799   5.564 -0.5852 -0.0766  0.6189
 2312SOL    HW2 9014   4.665   0.708   5.577 -1.0062 -0.4202 -0.7748
 2312SOL    HW3 9015   4.627   0.808   5.469 -0.1682  1.5422  0.6965
 2312SOL    MW4 9016   4.640   0.789   5.553 -0.5858  0.0917  0.4452
 2313SOL     OW 9017   0.596   1.316   1.577  0.2708 -0.3111 -0.3875
 2313SOL    HW2 9018   0.601   1.391   1.636 -0.8851 -1.7492  1.6831
 2313SOL    HW3 9019   0.576   1.354   1.492  0.6217  1.7690  0.3939
 2313SOL    MW4 9020   0.594   1.331   1.574  0.1646 -0.2264 -0.0112
 2314SOL     OW 9021   5.176   6.360   3.058 -0.0322  0.7723  0.3050
 2314SOL    HW2 9022   5.264   6.382   3.026  1.1158 -0.2534  2.5404
 2314SOL    HW3 9023   5.182   6.366   3.153 -1.8811 -1.0602  0.6203
 2314SOL    MW4 9024   5.188   6.363   3.066 -0.1247  0.3952  0.6415
 2315SOL     OW 9025   3.829   4.578   5.806  0.5430  0.3599 -0.5698
 2315SOL    HW2 9026   3.740   4.613   5.808  0.0537 -0.6738 -2.1587
 2315SOL    HW3 9027   3.884   4.652   5.780 -0.2746  0.3682 -2.4308
 2315SOL    MW4 9028   3.825   4.592   5.803  0.3706  0.2246 -1.0250
 2316SOL     OW 9029   6.032   5.557   5.125 -0.4181 -0.2159 -0.3311
 2316SOL    HW2 9030   5.985   5.639   5.141 -0.2719 -0.4429  1.4740
 2316SOL    HW3 9031   6.098   5.553   5.194 -1.2444 -2.4410  0.4286
 2316SOL    MW4 9032   6.034   5.567   5.137 -0.5078 -0.5394  0.0073
 2317SOL     OW 9033   3.771   6.092   5.668 -0.4982  0.1756  0.0403
 2317SOL    HW2 9034   3.755   6.182   5.639  0.3213  0.6435  0.9683
 2317SOL    HW3 9035   3.865   6.090   5.686 -0.7211 -0.5250  1.1710
 2317SOL    MW4 9036   3.782   6.104   5.666 -0.4195  0.1449  0.3119
 2318SOL     OW 9037   2.956   0.177   0.827  0.0271  0.2631  0.0902
 2318SOL    HW2 9038   2.988   0.135   0.907  0.8023 -0.2219 -0.4523
 2318SOL    HW3 9039   2.904   0.110   0.784  1.8894 -0.4845 -1.1553
 2318SOL    MW4 9040   2.954   0.162   0.832  0.3751  0.1005 -0.1457
 2319SOL     OW 9041   2.781   2.170   2.741  0.4905 -0.1450  0.0580
 2319SOL    HW2 9042   2.743   2.174   2.653  0.8352  0.9129 -0.0447
 2319SOL    HW3 9043   2.843   2.097   2.736 -0.4661 -0.9755 -0.1740
 2319SOL    MW4 9044   2.784   2.161   2.729  0.4098 -0.1150  0.0138
 2320SOL     OW 9045   1.149   3.957   2.644  0.0002 -0.5700  0.1654
 2320SOL    HW2 9046   1.116   3.983   2.559  3.2789 -0.9388 -1.3692
 2320SOL    HW3 9047   1.071   3.935   2.695 -2.4090  3.7594 -1.2019
 2320SOL    MW4 9048   1.134   3.957   2.640  0.1149 -0.0474 -0.2175
 2321SOL     OW 9049   5.124   2.284   4.301  0.0279  0.1227  0.0183
 2321SOL    HW2 9050   5.078   2.201   4.288  0.2018 -0.1838  1.2251
 2321SOL    HW3 9051   5.190   2.286   4.232 -1.3555  0.2726 -1.3457
 2321SOL    MW4 9052   5.126   2.273   4.290 -0.1317  0.1021 -0.0025
 2322SOL     OW 9053   6.293   1.403   2.902 -0.0275 -0.1496 -0.2119
 2322SOL    HW2 9054   6.306   1.455   2.823  0.0558  0.4368  0.1785
 2322SOL    HW3 9055   6.377   1.359   2.917 -0.1521 -0.5288 -0.6409
 2322SOL    MW4 9056   6.306   1.404   2.894 -0.0329 -0.1223 -0.2170
 2323SOL     OW 9057   5.255   5.404   3.674 -0.2884 -0.1135  0.1095
 2323SOL    HW2 9058   5.164   5.408   3.703 -0.0718  0.7282  0.6978
 2323SOL    HW3 9059   5.307   5.399   3.754  0.2442  0.7198 -0.1682
 2323SOL    MW4 9060   5.250   5.404   3.688 -0.1896  0.1075  0.1505
 2324SOL     OW 9061   2.806   2.447   5.946  0.0444 -0.7336  0.2811
 2324SOL    HW2 9062   2.744   2.388   5.989 -0.7447 -0.9971 -1.1514
 2324SOL    HW3 9063   2.769   2.534   5.957  1.4391 -0.3604  2.7968
 2324SOL    MW4 9064   2.793   2.451   5.953  0.1243 -0.7191  0.4240
 2325SOL     OW 9065   3.156   4.620   2.519  0.2205 -0.2269  0.6227
 2325SOL    HW2 9066   3.183   4.551   2.579 -0.0878 -0.3569  0.6119
 2325SOL    HW3 9067   3.167   4.582   2.432  0.4097 -0.1323  0.6049
 2325SOL    MW4 9068   3.161   4.606   2.516  0.2048 -0.2316  0.6189
 2326SOL     OW 9069   0.308   3.284   5.478  0.2623  0.0541  0.8364
 2326SOL    HW2 9070   0.266   3.199   5.472 -0.9712  0.6773  0.2434
 2326SOL    HW3 9071   0.252   3.343   5.428  1.5154  1.0659  0.5476
 2326SOL    MW4 9072   0.295   3.281   5.471  0.2649  0.2698  0.7201
 2327SOL     OW 9073   4.916   0.012   5.169 -0.0166 -0.0748  0.2553
 2327SOL    HW2 9074   4.876  -0.023   5.089  1.7209 -2.4222  0.3147
 2327SOL    HW3 9075   4.863   0.088   5.191 -0.9469  0.2718 -2.7677
 2327SOL    MW4 9076   4.904   0.018   5.161  0.0899 -0.3388 -0.1357
 2328SOL     OW 9077   2.976   3.259   0.821  0.2098 -0.8035 -0.2863
 2328SOL    HW2 9078   3.067   3.288   0.819 -0.3167  0.9734 -0.1631
 2328SOL    HW3 9079   2.932   3.312   0.754 -1.0462 -0.4105  0.7962
 2328SOL    MW4 9080   2.982   3.270   0.812 -0.0254 -0.5172 -0.1272
 2329SOL     OW 9081   5.818   4.844   2.398 -0.2632 -0.2925 -0.2647
 2329SOL    HW2 9082   5.868   4.844   2.317  0.3292  1.2146  0.0797
 2329SOL    HW3 9083   5.751   4.911   2.385 -1.4233 -1.3951 -0.2305
 2329SOL    MW4 9084   5.816   4.853   2.385 -0.3381 -0.2391 -0.2148
 2330SOL     OW 9085   1.865   2.271   0.325 -0.2832 -0.2014 -0.3439
 2330SOL    HW2 9086   1.863   2.280   0.420  0.5772  0.1237 -0.3493
 2330SOL    HW3 9087   1.958   2.269   0.303 -0.4593 -1.6301 -1.0612
 2330SOL    MW4 9088   1.877   2.272   0.334 -0.1929 -0.3470 -0.4393
 2331SOL     OW 9089   3.965   1.105   2.079  0.2958 -0.0639  0.1866
 2331SOL    HW2 9090   3.883   1.151   2.063  0.9213  0.9402 -0.1805
 2331SOL    HW3 9091   3.999   1.143   2.160  1.8709  1.6994 -1.2287
 2331SOL    MW4 9092   3.958   1.116   2.088  0.5862  0.3013 -0.0486
 2332SOL     OW 9093   6.030   5.223   5.468 -0.1818 -0.1533 -0.1846
 2332SOL    HW2 9094   6.103   5.236   5.408 -1.0008 -1.4637 -1.5453
 2332SOL    HW3 9095   6.069   5.177   5.543  0.7848  1.1773  0.1609
 2332SOL    MW4 9096   6.045   5.219   5.470 -0.1623 -0.1507 -0.3185
 2333SOL     OW 9097   0.186   5.341   5.281  0.3733  0.0823  0.2588
 2333SOL    HW2 9098   0.226   5.366   5.364  0.5916  1.0533 -0.1326
 2333SOL    HW3 9099   0.251   5.364   5.215 -0.6019  1.1786 -0.3427
 2333SOL    MW4 9100   0.200   5.347   5.283  0.2734  0.3550  0.1278
 2334SOL     OW 9101   1.999   2.880   0.304 -1.0226  0.5756  0.5123
 2334SOL    HW2 9102   1.995   2.948   0.236 -1.9859 -0.5692 -0.6189
 2334SOL    HW3 9103   2.093   2.871   0.323 -0.8080  1.5376 -0.0013
 2334SOL    MW4 9104   2.011   2.888   0.298 -1.1214  0.5515  0.2953
 2335SOL     OW 9105   2.780   1.381   2.101 -0.3707 -0.2086 -0.5645
 2335SOL    HW2 9106   2.723   1.440   2.150 -0.1899 -0.5606  0.0824
 2335SOL    HW3 9107   2.836   1.438   2.049 -2.1041  0.1221 -2.1284
 2335SOL    MW4 9108   2.780   1.396   2.101 -0.5755 -0.2114 -0.6855
 2336SOL     OW 9109   3.181   1.692   0.238 -0.2015  0.0743  0.3015
 2336SOL    HW2 9110   3.235   1.676   0.316  0.8181 -0.3480 -0.4645
 2336SOL    HW3 9111   3.226   1.645   0.168 -0.4134  1.4517 -0.8075
 2336SOL    MW4 9112   3.194   1.684   0.239 -0.0949  0.2003  0.0541
 2337SOL     OW 9113   5.686   3.026   4.088 -0.0974  0.3327 -0.3987
 2337SOL    HW2 9114   5.633   3.016   4.167 -0.2445 -0.0328 -0.5369
 2337SOL    HW3 9115   5.695   2.937   4.054 -0.1400  0.4964 -0.8567
 2337SOL    MW4 9116   5.680   3.013   4.094 -0.1224  0.3061 -0.4773
 2338SOL     OW 9117   4.902   4.227   0.675 -0.2514 -0.2727  0.2458
 2338SOL    HW2 9118   4.940   4.272   0.600 -0.6030 -1.9719 -1.0089
 2338SOL    HW3 9119   4.874   4.297   0.733  1.4541  1.0697 -0.4613
 2338SOL    MW4 9120   4.903   4.242   0.673 -0.0728 -0.3198 -0.0130
 2339SOL     OW 9121   1.854   5.496   4.594 -0.5875 -0.4088  0.1242
 2339SOL    HW2 9122   1.772   5.513   4.546 -0.9470 -0.2426  0.7833
 2339SOL    HW3 9123   1.913   5.459   4.528 -1.0228 -0.0502 -0.4806
 2339SOL    MW4 9124   1.851   5.494   4.579 -0.6923 -0.3395  0.1314
 2340SOL     OW 9125   1.112   5.512   0.751  0.0476 -0.8957 -0.3163
 2340SOL    HW2 9126   1.131   5.418   0.751  0.6177 -0.7884 -1.2668
 2340SOL    HW3 9127   1.153   5.545   0.671 -0.0657  0.1825  0.0558
 2340SOL    MW4 9128   1.120   5.504   0.740  0.1079 -0.7393 -0.3926
 2341SOL     OW 9129   6.316   5.891   4.719 -0.2719 -0.3943  0.2990
 2341SOL    HW2 9130   6.275   5.859   4.799  2.2425 -0.7339  1.5426
 2341SOL    HW3 9131   6.268   5.971   4.697 -1.3666 -0.5968  1.8054
 2341SOL    MW4 9132   6.304   5.897   4.727 -0.0846 -0.4658  0.6618
 2342SOL     OW 9133   2.438   2.219   4.841 -0.3715  0.1457 -0.1017
 2342SOL    HW2 9134   2.465   2.308   4.863  0.3582 -0.3581  1.1459
 2342SOL    HW3 9135   2.367   2.200   4.903 -0.3561 -0.2310 -0.1985
 2342SOL    MW4 9136   2.432   2.228   4.853 -0.2732  0.0295  0.0501
 2343SOL     OW 9137   6.159   2.129   1.136  0.3658  0.4836 -0.2654
 2343SOL    HW2 9138   6.182   2.038   1.154 -0.9630  0.5158  1.8581
 2343SOL    HW3 9139   6.068   2.125   1.106  0.6409  1.0358 -1.2184
 2343SOL    MW4 9140   6.150   2.117   1.134  0.2268  0.5607 -0.1110
 2344SOL     OW 9141   1.331   3.578   5.580  0.3314  0.0289  0.2393
 2344SOL    HW2 9142   1.412   3.618   5.550  1.3079 -1.6102  0.5589
 2344SOL    HW3 9143   1.351   3.485   5.588 -1.7880 -0.5531 -0.3587
 2344SOL    MW4 9144   1.344   3.571   5.577  0.1806 -0.2642  0.2025
 2345SOL     OW 9145   2.390   4.510   2.478 -0.5856  0.3756 -0.1063
 2345SOL    HW2 9146   2.477   4.469   2.480  0.3998  2.2024 -1.9259
 2345SOL    HW3 9147   2.340   4.457   2.416 -0.4072 -0.0102  0.0761
 2345SOL    MW4 9148   2.395   4.498   2.470 -0.4321  0.5658 -0.3223
 2346SOL     OW 9149   1.728   4.757   1.796  0.4447  0.4020 -0.3826
 2346SOL    HW2 9150   1.682   4.713   1.725 -0.4586 -0.0530  0.4547
 2346SOL    HW3 9151   1.739   4.847   1.766 -2.2060  0.8950 -0.1113
 2346SOL    MW4 9152   1.723   4.763   1.783 -0.0242  0.4070 -0.2363
 2347SOL     OW 9153   6.081   0.862   2.924  0.6947  0.5039  0.2130
 2347SOL    HW2 9154   6.121   0.818   2.999 -0.8693 -1.0198  0.2338
 2347SOL    HW3 9155   5.991   0.880   2.953  0.5017  1.2376 -0.7909
 2347SOL    MW4 9156   6.074   0.858   2.938  0.4629  0.3997  0.0833
 2348SOL     OW 9157   2.224   5.570   5.783 -0.2006 -0.3726 -0.7883
 2348SOL    HW2 9158   2.297   5.604   5.731  0.0310 -0.5803 -0.6010
 2348SOL    HW3 9159   2.209   5.637   5.850 -1.4831  0.6200 -2.0101
 2348SOL    MW4 9160   2.232   5.584   5.785 -0.3392 -0.2690 -0.9248
 2349SOL     OW 9161   4.455   6.207   4.124  0.4378  0.3661  0.2167
 2349SOL    HW2 9162   4.466   6.114   4.142  0.0144  0.4083  0.7023
 2349SOL    HW3 9163   4.421   6.210   4.035 -1.1212 -0.0325  0.7710
 2349SOL    MW4 9164   4.452   6.195   4.115  0.1762  0.3191  0.3539
 2350SOL     OW 9165   1.161   2.056   4.284  0.3830 -0.1336  0.0106
 2350SOL    HW2 9166   1.141   1.992   4.215 -2.9361 -0.6353  1.2339
 2350SOL    HW3 9167   1.232   2.016   4.334  2.6005  0.0475 -2.7184
 2350SOL    MW4 9168   1.167   2.042   4.281  0.2376 -0.1759 -0.1881
 2351SOL     OW 9169   4.061   5.382   0.708  0.0844 -0.1041  0.5324
 2351SOL    HW2 9170   4.068   5.385   0.803 -4.4653 -0.4207  1.0879
 2351SOL    HW3 9171   4.046   5.290   0.687  0.7308  0.0047 -0.4899
 2351SOL    MW4 9172   4.060   5.371   0.718 -0.4306 -0.1315  0.4708
 2352SOL     OW 9173   4.953   4.195   2.507  0.3294 -0.2378  0.1129
 2352SOL    HW2 9174   4.859   4.181   2.522  0.6839 -0.5139  2.4081
 2352SOL    HW3 9175   4.995   4.118   2.544  1.5355  0.4279  0.1796
 2352SOL    MW4 9176   4.946   4.183   2.514  0.5353 -0.1864  0.4246
 2353SOL     OW 9177   4.274   4.184   0.217 -0.5665  0.3792  0.0019
 2353SOL    HW2 9178   4.190   4.200   0.259  0.2484  0.5757  1.6223
 2353SOL    HW3 9179   4.291   4.091   0.230  0.0523  0.5958  0.8561
 2353SOL    MW4 9180   4.265   4.174   0.224 -0.3773  0.4337  0.3284
 2354SOL     OW 9181   6.302   0.923   6.110 -0.2951  0.6026  0.3136
 2354SOL    HW2 9182   6.293   0.974   6.191 -1.4714 -1.2312  1.4051
 2354SOL    HW3 9183   6.273   0.835   6.133  1.2061 -0.4996 -1.6165
 2354SOL    MW4 9184   6.297   0.918   6.124 -0.2522  0.2152  0.2029
 2355SOL     OW 9185   4.136   6.160   0.175 -0.3723  0.5091 -0.3997
 2355SOL    HW2 9186   4.128   6.172   0.081 -0.7267  1.7917 -0.2241
 2355SOL    HW3 9187   4.093   6.236   0.213  1.1478  0.8434  0.7684
 2355SOL    MW4 9188   4.130   6.171   0.168 -0.2185  0.7224 -0.2224
 2356SOL     OW 9189   3.755   6.379   1.607 -0.3097 -0.1292  0.3731
 2356SOL    HW2 9190   3.734   6.459   1.656 -0.3714 -1.2134  2.2391
 2356SOL    HW3 9191   3.671   6.333   1.601 -0.3799  0.1558 -1.1600
 2356SOL    MW4 9192   3.741   6.384   1.613 -0.3271 -0.2347  0.4170
 2357SOL     OW 9193   2.359   0.250   4.525  0.3033  0.3039 -0.5788
 2357SOL    HW2 9194   2.366   0.337   4.485  1.4775  0.0010 -1.0609
 2357SOL    HW3 9195   2.324   0.194   4.456 -0.6164  0.4247 -0.2152
 2357SOL    MW4 9196   2.356   0.254   4.511  0.3369  0.2799 -0.5944
 2358SOL     OW 9197   3.609   5.188   3.852  0.2549  0.1549 -0.4733
 2358SOL    HW2 9198   3.698   5.155   3.844  0.3836  0.5243 -0.5890
 2358SOL    HW3 9199   3.614   5.252   3.924  0.2631  0.7752 -1.0190
 2358SOL    MW4 9200   3.621   5.192   3.861  0.2730  0.2855 -0.5606
 2359SOL     OW 9201   5.784   1.608   1.470  0.1293 -0.2310 -0.4312
 2359SOL    HW2 9202   5.789   1.638   1.560  0.9011 -0.8012 -0.2757
 2359SOL    HW3 9203   5.697   1.570   1.462 -0.2532  0.5735 -0.1756
 2359SOL    MW4 9204   5.773   1.607   1.481  0.1806 -0.2001 -0.3770
 2360SOL     OW 9205   3.943   3.788   3.808  0.1926 -0.3409  1.0774
 2360SOL    HW2 9206   3.994   3.709   3.792  0.4184  0.1518 -0.8504
 2360SOL    HW3 9207   3.921   3.822   3.721  0.2192  1.7975  1.8284
 2360SOL    MW4 9208   3.946   3.782   3.794  0.2259  0.0063  0.9221
 2361SOL     OW 9209   0.956   5.937   4.442  0.0188  0.2834  0.1943
 2361SOL    HW2 9210   0.945   5.941   4.537  0.6383 -2.5306  0.4829
 2361SOL    HW3 9211   0.876   5.894   4.410 -1.1837  3.0724 -0.9219
 2361SOL    MW4 9212   0.944   5.932   4.450 -0.0581  0.2801  0.0851
 2362SOL     OW 9213   3.537   2.584   1.492 -0.3581  0.2519 -0.0466
 2362SOL    HW2 9214   3.613   2.526   1.502 -2.0014 -1.7488  1.6890
 2362SOL    HW3 9215   3.528   2.597   1.398  1.4293 -0.4006 -0.3416
 2362SOL    MW4 9216   3.546   2.578   1.481 -0.3391 -0.0981  0.1435
 2363SOL     OW 9217   0.278   2.684   4.691  0.1547  0.3190 -0.6454
 2363SOL    HW2 9218   0.321   2.632   4.623 -0.4159  1.8943 -2.2736
 2363SOL    HW3 9219   0.197   2.637   4.710  0.8749 -0.7597 -0.1554
 2363SOL    MW4 9220   0.273   2.671   4.684  0.1745  0.3845 -0.7956
 2364SOL     OW 9221   5.257   5.233   5.598  0.5445 -0.2754  0.3227
 2364SOL    HW2 9222   5.295   5.175   5.664  0.2460 -0.4280  0.3603
 2364SOL    HW3 9223   5.164   5.235   5.618  0.3049 -1.0526 -0.6471
 2364SOL    MW4 9224   5.250   5.226   5.610  0.4735 -0.3981  0.1997
 2365SOL     OW 9225   6.261   6.253   5.575  0.4688 -0.0084 -0.6046
 2365SOL    HW2 9226   6.219   6.338   5.586 -0.9688 -0.8255  0.5472
 2365SOL    HW3 9227   6.217   6.213   5.500  0.8184  0.0596 -0.8499
 2365SOL    MW4 9228   6.250   6.259   5.567  0.3253 -0.1072 -0.4850
 2366SOL     OW 9229   5.825   4.598   1.085  0.1544 -0.1884  0.3938
 2366SOL    HW2 9230   5.751   4.588   1.025 -0.0427  2.2001  0.1542
 2366SOL    HW3 9231   5.785   4.622   1.169  0.6030 -0.0875  0.5832
 2366SOL    MW4 9232   5.810   4.600   1.088  0.1876  0.1401  0.3871
 2367SOL     OW 9233   4.599   4.634   2.488 -0.2542 -0.9508 -0.0662
 2367SOL    HW2 9234   4.640   4.578   2.554  3.8538 -1.0491 -2.4014
 2367SOL    HW3 9235   4.672   4.669   2.438 -2.9866  1.8676 -2.4357
 2367SOL    MW4 9236   4.614   4.631   2.490 -0.0727 -0.5919 -0.6869
 2368SOL     OW 9237   0.750   1.173   3.909 -0.0448  0.0752 -0.3138
 2368SOL    HW2 9238   0.736   1.150   4.000 -1.7105 -1.1333 -0.8221
 2368SOL    HW3 9239   0.685   1.241   3.891  0.6297  0.6885 -0.4781
 2368SOL    MW4 9240   0.740   1.179   3.918 -0.1755 -0.0034 -0.4026
 2369SOL     OW 9241   1.168   2.901   1.448 -0.0424 -0.0832 -0.4492
 2369SOL    HW2 9242   1.256   2.871   1.423  0.0674  0.2377 -0.4527
 2369SOL    HW3 9243   1.179   2.994   1.468 -0.1907 -0.2518  0.4715
 2369SOL    MW4 9244   1.181   2.909   1.448 -0.0475 -0.0631 -0.3282
 2370SOL     OW 9245   5.418   2.077   1.176  0.9288  0.0149  0.0767
 2370SOL    HW2 9246   5.441   2.093   1.084 -1.2328 -0.7271 -0.6363
 2370SOL    HW3 9247   5.499   2.043   1.215  2.3036  1.7083 -1.1598
 2370SOL    MW4 9248   5.432   2.075   1.169  0.8250  0.1404 -0.1805
 2371SOL     OW 9249   0.669   3.484   1.328  0.0323 -0.2448 -0.1709
 2371SOL    HW2 9250   0.712   3.424   1.268 -1.6630 -0.2040 -1.5097
 2371SOL    HW3 9251   0.599   3.432   1.368 -1.8319  0.8707 -1.7798
 2371SOL    MW4 9252   0.665   3.469   1.325 -0.4373 -0.0922 -0.5598
 2372SOL     OW 9253   2.770   2.659   2.480 -0.4143  0.0494 -0.0779
 2372SOL    HW2 9254   2.737   2.705   2.404  0.4002  0.5376 -0.1488
 2372SOL    HW3 9255   2.694   2.613   2.516 -0.7122 -0.5686 -1.4404
 2372SOL    MW4 9256   2.756   2.659   2.475 -0.3461  0.0323 -0.2670
 2373SOL     OW 9257   6.119   3.485   3.407  0.3822 -0.2790  0.3841
 2373SOL    HW2 9258   6.146   3.472   3.498  0.9955  0.1292  0.2690
 2373SOL    HW3 9259   6.159   3.569   3.382 -1.8309  0.8729  0.5090
 2373SOL    MW4 9260   6.128   3.494   3.415  0.1712 -0.0731  0.3854
 2374SOL     OW 9261   5.529   5.787   0.307  0.2537 -0.1679 -0.5024
 2374SOL    HW2 9262   5.550   5.765   0.398 -0.4540 -1.4144 -0.6145
 2374SOL    HW3 9263   5.614   5.802   0.266  0.7860 -2.3939 -0.3033
 2374SOL    MW4 9264   5.543   5.786   0.314  0.2306 -0.6261 -0.4909
 2375SOL     OW 9265   0.790   3.030   5.611  0.1666  0.3265 -0.1363
 2375SOL    HW2 9266   0.792   3.092   5.538 -0.4443  1.9529  1.1673
 2375SOL    HW3 9267   0.698   3.024   5.636 -0.0169 -2.2739 -1.1126
 2375SOL    MW4 9268   0.778   3.037   5.605  0.0618  0.1980 -0.0931
 2376SOL     OW 9269   5.818   2.964   0.896 -0.9183  0.1610 -0.7122
 2376SOL    HW2 9270   5.834   2.994   0.807 -1.9595 -1.3910 -1.4710
 2376SOL    HW3 9271   5.809   2.869   0.888 -1.4890  0.0409  0.9759
 2376SOL    MW4 9272   5.819   2.955   0.884 -1.1310 -0.0596 -0.5896
 2377SOL     OW 9273   5.980   5.004   1.336  0.1364  0.0186  0.2278
 2377SOL    HW2 9274   6.008   5.029   1.424 -0.4789 -2.4652  1.1994
 2377SOL    HW3 9275   6.054   4.955   1.300 -0.1073 -0.0665 -0.1668
 2377SOL    MW4 9276   5.994   5.001   1.343  0.0230 -0.3203  0.3039
 2378SOL     OW 9277   0.350   2.658   3.259  0.4816  0.6555 -0.5111
 2378SOL    HW2 9278   0.373   2.749   3.281  0.7235  0.9846 -1.9756
 2378SOL    HW3 9279   0.302   2.626   3.335  0.7526  1.8774  0.2044
 2378SOL    MW4 9280   0.347   2.666   3.272  0.5493  0.8601 -0.6099
 2379SOL     OW 9281   4.772   2.413   6.229  0.3194  0.3769  0.2516
 2379SOL    HW2 9282   4.720   2.462   6.165  1.8271  1.3053 -0.2948
 2379SOL    HW3 9283   4.749   2.452   6.313  0.3840  1.0192 -0.0255
 2379SOL    MW4 9284   4.762   2.424   6.232  0.5269  0.5842  0.1429
 2380SOL     OW 9285   3.938   2.350   2.114  0.1595 -0.3751 -0.1868
 2380SOL    HW2 9286   3.984   2.299   2.182 -0.5890 -1.8540 -0.7403
 2380SOL    HW3 9287   4.008   2.388   2.061  0.8468 -2.9929 -1.3259
 2380SOL    MW4 9288   3.954   2.348   2.116  0.1515 -0.9156 -0.4101
 2381SOL     OW 9289   2.504   0.290   2.204  0.9041 -0.0560 -0.7006
 2381SOL    HW2 9290   2.600   0.292   2.200  0.9604 -1.8588 -1.2118
 2381SOL    HW3 9291   2.477   0.373   2.165  2.2424  1.2517  0.9794
 2381SOL    MW4 9292   2.513   0.301   2.198  1.0881 -0.1213 -0.5464
 2382SOL     OW 9293   4.535   5.689   1.348  0.0487  0.0249 -0.1411
 2382SOL    HW2 9294   4.466   5.665   1.286 -0.7435 -0.6707  0.9599
 2382SOL    HW3 9295   4.617   5.669   1.303 -0.5129 -0.5469 -0.9284
 2382SOL    MW4 9296   4.536   5.683   1.334 -0.1299 -0.1423 -0.0997
 2383SOL     OW 9297   5.068   3.334   0.588  0.0076  0.3887  0.2094
 2383SOL    HW2 9298   5.030   3.249   0.610  1.3377 -0.2978 -0.0416
 2383SOL    HW3 9299   5.121   3.357   0.664 -2.6113  2.4603  1.5772
 2383SOL    MW4 9300   5.070   3.325   0.601 -0.1624  0.5714  0.3567
 2384SOL     OW 9301   0.646   4.215   3.168  0.9646 -0.0489  0.0299
 2384SOL    HW2 9302   0.637   4.133   3.217 -0.0290 -0.9571 -1.5472
 2384SOL    HW3 9303   0.631   4.189   3.077  0.7096  1.8902 -0.5196
 2384SOL    MW4 9304   0.643   4.201   3.162  0.7999  0.0871 -0.2507
 2385SOL     OW 9305   3.204   2.736   2.287 -0.6713 -0.7777  0.3572
 2385SOL    HW2 9306   3.150   2.718   2.364 -1.3511 -1.0617 -0.1723
 2385SOL    HW3 9307   3.188   2.662   2.228 -1.3928  0.1920 -0.7137
 2385SOL    MW4 9308   3.195   2.724   2.289 -0.8562 -0.6872  0.1460
 2386SOL     OW 9309   0.476   2.338   5.362 -0.5549 -0.6006 -0.1253
 2386SOL    HW2 9310   0.443   2.424   5.336 -2.8111 -1.3992 -0.1018
 2386SOL    HW3 9311   0.418   2.276   5.318 -0.1391 -2.0937  1.3419
 2386SOL    MW4 9312   0.464   2.341   5.352 -0.7977 -0.9030  0.0714
 2387SOL     OW 9313   2.534   1.729   5.980 -1.0333 -0.1310  0.1180
 2387SOL    HW2 9314   2.610   1.784   5.965 -1.2444  0.2325  0.3660
 2387SOL    HW3 9315   2.507   1.749   6.069 -0.3809 -1.5388  0.6706
 2387SOL    MW4 9316   2.540   1.739   5.990 -0.9751 -0.2688  0.2236
 2388SOL     OW 9317   5.063   3.212   0.951 -0.0218  0.4228 -0.3010
 2388SOL    HW2 9318   4.996   3.280   0.950  1.4438  1.9452 -0.7523
 2388SOL    HW3 9319   5.040   3.154   0.879 -0.3512  1.4447 -1.0428
 2388SOL    MW4 9320   5.052   3.213   0.941  0.1281  0.7585 -0.4584
 2389SOL     OW 9321   4.078   4.570   2.800  0.1113 -0.0600  0.1913
 2389SOL    HW2 9322   4.070   4.661   2.774  0.5735 -0.2372 -0.6384
 2389SOL    HW3 9323   4.095   4.572   2.894 -0.6610  0.6609  0.3243
 2389SOL    MW4 9324   4.079   4.582   2.809  0.0704  0.0117  0.0994
 2390SOL     OW 9325   3.687   1.186   0.509 -0.7145  0.2387  0.3501
 2390SOL    HW2 9326   3.650   1.126   0.444 -0.0486 -1.1244  1.1799
 2390SOL    HW3 9327   3.749   1.240   0.460  0.3746 -1.3074 -0.0658
 2390SOL    MW4 9328   3.690   1.185   0.494 -0.4830 -0.1451  0.4047
 2391SOL     OW 9329   6.160   3.217   5.956 -0.6757  0.5359  0.0150
 2391SOL    HW2 9330   6.096   3.264   6.010 -0.2349  2.1684 -0.8018
 2391SOL    HW3 9331   6.207   3.287   5.909 -0.0391 -0.7430 -1.3317
 2391SOL    MW4 9332   6.158   3.233   5.957 -0.5335  0.5826 -0.2705
 2392SOL     OW 9333   4.627   0.631   1.633 -0.0474 -0.1484 -0.2393
 2392SOL    HW2 9334   4.545   0.584   1.652 -0.9743  0.8290 -1.5663
 2392SOL    HW3 9335   4.696   0.568   1.652 -0.8853 -0.1970  3.5288
 2392SOL    MW4 9336   4.625   0.617   1.638 -0.2802 -0.0259  0.0828
 2393SOL     OW 9337   4.927   3.352   2.054  0.8738 -0.4167 -0.2916
 2393SOL    HW2 9338   4.948   3.259   2.062 -1.2113 -0.9229  0.0093
 2393SOL    HW3 9339   4.838   3.353   2.019  0.1576  1.4216  1.4163
 2393SOL    MW4 9340   4.918   3.340   2.050  0.5042 -0.2409 -0.0265
 2394SOL     OW 9341   0.893   1.753   0.331  0.2955  0.4265 -0.5943
 2394SOL    HW2 9342   0.963   1.811   0.301  0.7059  0.4736  0.4287
 2394SOL    HW3 9343   0.937   1.687   0.384 -0.4448  0.4845  0.1109
 2394SOL    MW4 9344   0.908   1.752   0.334  0.2520  0.4404 -0.3663
 2395SOL     OW 9345   1.650   2.109   0.552  0.4332  0.1181 -0.2903
 2395SOL    HW2 9346   1.672   2.200   0.529 -1.1888  0.7286  0.3923
 2395SOL    HW3 9347   1.575   2.088   0.496  0.7913 -0.7970 -0.4274
 2395SOL    MW4 9348   1.643   2.118   0.542  0.2665  0.0779 -0.2183
 2396SOL     OW 9349   6.017   1.708   3.227  0.4692  0.1108 -0.4443
 2396SOL    HW2 9350   6.064   1.624   3.223 -1.4260 -0.9615 -3.1288
 2396SOL    HW3 9351   5.950   1.695   3.294  2.0486  0.6220  1.3053
 2396SOL    MW4 9352   6.015   1.695   3.235  0.4275  0.0368 -0.5676
 2397SOL     OW 9353   2.574   2.598   6.339 -0.3849  0.1956  0.3532
 2397SOL    HW2 9354   2.539   2.668   6.285  1.1060  0.2550 -0.5889
 2397SOL    HW3 9355   2.567   2.630   6.429  0.0138  1.4381 -0.0448
 2397SOL    MW4 9356   2.568   2.611   6.344 -0.1356  0.3673  0.1764
 2398SOL     OW 9357   5.706   2.504   5.966 -0.4662 -0.3450 -0.5607
 2398SOL    HW2 9358   5.726   2.469   5.880 -0.2945 -1.0841 -0.2272
 2398SOL    HW3 9359   5.646   2.577   5.950  0.2767  0.1035 -1.3653
 2398SOL    MW4 9360   5.701   2.509   5.953 -0.3455 -0.3833 -0.6229
 2399SOL     OW 9361   1.811   4.182   2.777 -0.0608 -0.3051  0.2109
 2399SOL    HW2 9362   1.907   4.179   2.775 -0.0876 -2.3795  0.2889
 2399SOL    HW3 9363   1.789   4.192   2.869  0.0597  0.1758  0.1930
 2399SOL    MW4 9364   1.821   4.183   2.789 -0.0484 -0.5153  0.2188
 2400SOL     OW 9365   3.758   6.064   3.702  0.1045  0.5633  0.3281
 2400SOL    HW2 9366   3.766   6.011   3.782 -0.9913 -0.1419 -0.0081
 2400SOL    HW3 9367   3.746   6.000   3.632 -0.6558  1.2357 -0.1685
 2400SOL    MW4 9368   3.757   6.048   3.703 -0.1404  0.5590  0.2182
 2401SOL     OW 9369   5.537   0.822   1.376 -0.3721 -0.1294  0.2011
 2401SOL    HW2 9370   5.491   0.739   1.393  0.4807 -0.5903  0.3437
 2401SOL    HW3 9371   5.468   0.887   1.367 -1.0101 -0.5687  1.6750
 2401SOL    MW4 9372   5.522   0.819   1.377 -0.3438 -0.2482  0.4144
 2402SOL     OW 9373   4.160   0.214   1.290  0.0530 -0.5517 -0.6388
 2402SOL    HW2 9374   4.256   0.217   1.286  0.0485 -0.6385 -0.8520
 2402SOL    HW3 9375   4.137   0.262   1.370  0.3333 -1.6571  0.1202
 2402SOL    MW4 9376   4.170   0.221   1.300  0.0894 -0.7090 -0.5668
 2403SOL     OW 9377   4.739   3.818   3.703  0.4594  0.3113 -0.3055
 2403SOL    HW2 9378   4.698   3.732   3.695 -0.3209  0.6886 -0.5228
 2403SOL    HW3 9379   4.760   3.843   3.613  0.6390  0.3677 -0.2485
 2403SOL    MW4 9380   4.736   3.810   3.690  0.3802  0.3685 -0.3266
 2404SOL     OW 9381   4.112   1.979   4.029 -0.0068 -0.6404  0.5182
 2404SOL    HW2 9382   4.034   2.008   4.077 -0.2376  2.7006 -1.5959
 2404SOL    HW3 9383   4.175   2.051   4.040  1.5239 -1.7445 -0.5986
 2404SOL    MW4 9384   4.110   1.992   4.037  0.1647 -0.3453  0.0919
 2405SOL     OW 9385   5.603   4.115   4.408 -0.4543  0.4984  0.2254
 2405SOL    HW2 9386   5.624   4.208   4.400 -0.8825  0.5703 -0.1165
 2405SOL    HW3 9387   5.536   4.111   4.477  0.2735  0.3321  0.9307
 2405SOL    MW4 9388   5.597   4.126   4.416 -0.4148  0.4860  0.2734
 2406SOL     OW 9389   3.687   5.618   4.732 -0.1363 -0.0454  0.2306
 2406SOL    HW2 9390   3.594   5.599   4.716 -0.1593 -0.3523  0.6994
 2406SOL    HW3 9391   3.687   5.708   4.767 -0.4193 -0.5724  1.6591
 2406SOL    MW4 9392   3.675   5.628   4.735 -0.1767 -0.1554  0.4809
 2407SOL     OW 9393   4.879   3.411   3.348  0.0101 -0.1413 -0.2941
 2407SOL    HW2 9394   4.927   3.478   3.299  1.1540 -0.2889  0.5878
 2407SOL    HW3 9395   4.888   3.331   3.296  1.9672 -0.5088  0.5276
 2407SOL    MW4 9396   4.886   3.409   3.335  0.4193 -0.2092 -0.0693
 2408SOL     OW 9397   5.104   4.748   1.339  0.2855  0.4035 -0.4173
 2408SOL    HW2 9398   5.139   4.701   1.415  0.0176  2.1533  0.8461
 2408SOL    HW3 9399   5.178   4.753   1.278  0.8180 -0.1230  0.1624
 2408SOL    MW4 9400   5.119   4.742   1.341  0.3204  0.5649 -0.1741
 2409SOL     OW 9401   2.191   5.363   5.594 -0.1006  0.2610 -0.1745
 2409SOL    HW2 9402   2.211   5.437   5.652 -0.1842  0.1520 -0.0061
 2409SOL    HW3 9403   2.214   5.285   5.645 -0.6793  0.1423 -0.0812
 2409SOL    MW4 9404   2.197   5.362   5.609 -0.1880  0.2310 -0.1400
 2410SOL     OW 9405   3.539   1.565   2.926  0.0960  0.0834  0.2489
 2410SOL    HW2 9406   3.536   1.503   2.999  1.4939  0.6425  0.8309
 2410SOL    HW3 9407   3.625   1.607   2.935 -1.2120  2.8401  0.4869
 2410SOL    MW4 9408   3.550   1.562   2.937  0.1078  0.5209  0.3571
 2411SOL     OW 9409   0.094   5.190   0.221 -0.0989 -0.5399 -0.1877
 2411SOL    HW2 9410   0.176   5.220   0.260  0.7244 -1.6258 -1.0210
 2411SOL    HW3 9411   0.106   5.207   0.127 -1.2145  0.1479 -0.2219
 2411SOL    MW4 9412   0.107   5.196   0.213 -0.1374 -0.5924 -0.3022
 2412SOL     OW 9413   0.804   4.039   5.786  0.1461 -0.5204  0.5281
 2412SOL    HW2 9414   0.752   4.032   5.705 -0.3805  2.7602  0.4579
 2412SOL    HW3 9415   0.894   4.025   5.757  0.4392  3.8882 -1.5140
 2412SOL    MW4 9416   0.809   4.036   5.771  0.1153  0.4941  0.2494
 2413SOL     OW 9417   4.130   6.306   2.857  0.9327 -0.6946 -0.9366
 2413SOL    HW2 9418   4.051   6.360   2.850  1.6893  0.2467 -2.7497
 2413SOL    HW3 9419   4.172   6.313   2.771  3.9173  0.2895  0.4655
 2413SOL    MW4 9420   4.125   6.314   2.845  1.4263 -0.4405 -0.9908
 2414SOL     OW 9421   5.344   0.525   2.481  0.1017 -0.9590  0.1904
 2414SOL    HW2 9422   5.362   0.431   2.482 -0.2177 -1.0268 -0.1961
 2414SOL    HW3 9423   5.276   0.536   2.548 -0.7729 -1.2017 -0.6309
 2414SOL    MW4 9424   5.338   0.514   2.490 -0.0558 -1.0000  0.0311
 2415SOL     OW 9425   2.287   1.203   3.927  0.6223  0.1783  0.1009
 2415SOL    HW2 9426   2.304   1.282   3.979  2.0031 -0.0377  0.0242
 2415SOL    HW3 9427   2.329   1.221   3.843  0.4059 -0.3936 -0.1316
 2415SOL    MW4 9428   2.295   1.216   3.923  0.7759  0.0744  0.0601
 2416SOL     OW 9429   4.827   3.159   4.729  0.0327 -0.4842  0.0900
 2416SOL    HW2 9430   4.841   3.243   4.685 -0.2676  0.1762  1.2030
 2416SOL    HW3 9431   4.913   3.119   4.734  0.4748  0.5358  1.0222
 2416SOL    MW4 9432   4.840   3.165   4.724  0.0514 -0.2625  0.3598
 2417SOL     OW 9433   2.889   0.696   0.605  0.0901 -0.8775 -0.1703
 2417SOL    HW2 9434   2.816   0.665   0.552  1.0696 -0.2181 -2.0160
 2417SOL    HW3 9435   2.957   0.630   0.595  0.5989 -0.3226 -0.4716
 2417SOL    MW4 9436   2.888   0.683   0.597  0.2864 -0.7173 -0.4536
 2418SOL     OW 9437   6.099   0.690   5.354  0.0976 -0.0061  0.2855
 2418SOL    HW2 9438   6.188   0.701   5.322 -0.1019  0.9624  0.0300
 2418SOL    HW3 9439   6.109   0.659   5.444  0.6862 -0.0513  0.2051
 2418SOL    MW4 9440   6.112   0.688   5.362  0.1490  0.1157  0.2412
 2419SOL     OW 9441   2.367   1.649   0.966 -0.1446 -0.3016  0.4309
 2419SOL    HW2 9442   2.377   1.744   0.968  2.2973 -0.5187  1.9285
 2419SOL    HW3 9443   2.336   1.630   0.877  1.6594  1.7252 -0.7280
 2419SOL    MW4 9444   2.364   1.659   0.954  0.4156 -0.0628  0.4756
 2420SOL     OW 9445   0.248   0.444   1.034 -0.5373  0.4141  0.1062
 2420SOL    HW2 9446   0.339   0.440   1.005 -0.5161 -1.1716  0.3206
 2420SOL    HW3 9447   0.253   0.460   1.128 -0.3793 -1.8041  0.5233
 2420SOL    MW4 9448   0.261   0.446   1.043 -0.5136 -0.0878  0.1895
 2421SOL     OW 9449   4.936   3.586   0.039 -0.1389  0.1156  0.0046
 2421SOL    HW2 9450   4.943   3.666   0.090 -0.0024 -0.3412  0.7181
 2421SOL    HW3 9451   4.884   3.527   0.094  2.2218 -1.3269  0.8622
 2421SOL    MW4 9452   4.930   3.589   0.053  0.1906 -0.1350  0.2119
 2422SOL     OW 9453   2.998   0.064   3.491 -0.0498  0.5823  0.4105
 2422SOL    HW2 9454   2.932  -0.006   3.496 -1.2636  1.7033  0.5058
 2422SOL    HW3 9455   3.019   0.071   3.398 -0.0585  0.2065  0.3788
 2422SOL    MW4 9456   2.992   0.055   3.480 -0.2111  0.6807  0.4189
 2423SOL     OW 9457   0.862   0.322   2.570  0.0637 -0.4116  0.1530
 2423SOL    HW2 9458   0.919   0.253   2.536  0.6409  0.4941 -0.7435
 2423SOL    HW3 9459   0.774   0.284   2.567  0.3319 -0.9877 -0.6319
 2423SOL    MW4 9460   0.857   0.308   2.565  0.1752 -0.3681 -0.0689
 2424SOL     OW 9461   1.494   5.920   5.675  0.4284  1.0122 -0.3225
 2424SOL    HW2 9462   1.525   5.890   5.589  1.3054  0.9956 -0.0129
 2424SOL    HW3 9463   1.532   5.857   5.737 -0.0884  1.1022  0.0932
 2424SOL    MW4 9464   1.503   5.908   5.672  0.4759  1.0219 -0.2268
 2425SOL     OW 9465   1.847   3.446   3.017 -0.4221  0.0097 -0.0195
 2425SOL    HW2 9466   1.886   3.361   3.038 -0.8843 -0.5646 -1.4147
 2425SOL    HW3 9467   1.918   3.496   2.976 -0.6791 -0.4153 -0.9902
 2425SOL    MW4 9468   1.862   3.441   3.015 -0.5170 -0.1221 -0.3317
 2426SOL     OW 9469   2.767   6.323   4.580 -0.1246 -0.1279  0.4777
 2426SOL    HW2 9470   2.751   6.235   4.613 -0.8192 -0.0818  0.2652
 2426SOL    HW3 9471   2.785   6.375   4.659  2.2982 -0.8388  0.4945
 2426SOL    MW4 9472   2.767   6.318   4.595  0.1034 -0.2156  0.4519
 2427SOL     OW 9473   2.182   4.459   4.738  0.0332 -0.1655 -0.3082
 2427SOL    HW2 9474   2.142   4.378   4.708  0.4131 -0.4562 -0.0338
 2427SOL    HW3 9475   2.108   4.520   4.747  0.0198  0.4872 -3.4496
 2427SOL    MW4 9476   2.167   4.457   4.735  0.0816 -0.1177 -0.6865
 2428SOL     OW 9477   1.367   2.647   1.790 -0.2110  0.3739  0.0660
 2428SOL    HW2 9478   1.299   2.607   1.735 -0.7203  0.2567  0.7604
 2428SOL    HW3 9479   1.334   2.735   1.809 -0.6566 -0.0119  1.2004
 2428SOL    MW4 9480   1.353   2.653   1.785 -0.3370  0.3075  0.3073
 2429SOL     OW 9481   5.505   1.511   5.607 -0.0677  0.3086  0.4902
 2429SOL    HW2 9482   5.484   1.467   5.690  3.3967 -2.2194  0.2821
 2429SOL    HW3 9483   5.540   1.596   5.633  0.4117 -0.2112  1.6093
 2429SOL    MW4 9484   5.507   1.516   5.621  0.4526 -0.0935  0.6104
 2430SOL     OW 9485   6.236   0.454   4.804 -0.3028  0.3651 -0.7255
 2430SOL    HW2 9486   6.148   0.446   4.767 -1.0261  1.7788  0.5622
 2430SOL    HW3 9487   6.294   0.420   4.736 -1.9204 -2.1393 -0.9790
 2430SOL    MW4 9488   6.232   0.449   4.790 -0.6117  0.2212 -0.5890
 2431SOL     OW 9489   1.722   3.082   4.692  0.1809  0.1397  0.1090
 2431SOL    HW2 9490   1.786   3.150   4.668  1.3742 -1.0278 -0.1620
 2431SOL    HW3 9491   1.721   3.083   4.787  0.5554  0.2250  0.1155
 2431SOL    MW4 9492   1.731   3.091   4.701  0.3878 -0.0031  0.0741
 2432SOL     OW 9493   4.147   1.530   4.565  0.3372  0.5011  0.6248
 2432SOL    HW2 9494   4.182   1.599   4.621  0.8518 -0.0131  0.9538
 2432SOL    HW3 9495   4.179   1.551   4.478  1.9887 -0.2660  1.0076
 2432SOL    MW4 9496   4.156   1.542   4.561  0.6230  0.3321  0.7187
 2433SOL     OW 9497   2.541   5.497   5.457 -0.2818  0.5489  0.0442
 2433SOL    HW2 9498   2.599   5.549   5.401  0.6029  0.4233  0.8121
 2433SOL    HW3 9499   2.510   5.558   5.523  0.8558  0.1086  1.0201
 2433SOL    MW4 9500   2.545   5.512   5.458 -0.0150  0.4742  0.2743
 2434SOL     OW 9501   5.103   2.290   2.942 -0.5062 -0.4540 -0.3594
 2434SOL    HW2 9502   5.111   2.370   2.995  0.0147  0.3533 -1.6229
 2434SOL    HW3 9503   5.073   2.224   3.004  1.1091  0.1923  1.1955
 2434SOL    MW4 9504   5.100   2.292   2.957 -0.2243 -0.2622 -0.3209
 2435SOL     OW 9505   4.530   2.734   4.180 -0.0104 -0.4485  0.2731
 2435SOL    HW2 9506   4.554   2.681   4.104 -1.9332 -0.2977 -0.5158
 2435SOL    HW3 9507   4.437   2.755   4.165 -0.1042  0.5869  2.0809
 2435SOL    MW4 9508   4.521   2.730   4.168 -0.2765 -0.2920  0.4075
 2436SOL     OW 9509   1.772   1.597   5.935  0.4895 -0.3887  0.9436
 2436SOL    HW2 9510   1.712   1.592   6.010 -0.3330 -0.0845  0.3322
 2436SOL    HW3 9511   1.859   1.597   5.973  0.0917 -0.6481  1.8782
 2436SOL    MW4 9512   1.775   1.597   5.950  0.3285 -0.3828  0.9862
 2437SOL     OW 9513   2.083   3.357   2.746 -0.4318 -0.3447 -0.2284
 2437SOL    HW2 9514   2.075   3.265   2.772  1.2774 -0.1701  1.1327
 2437SOL    HW3 9515   2.169   3.362   2.704 -0.7963  0.5214 -0.9123
 2437SOL    MW4 9516   2.094   3.345   2.744 -0.2544 -0.2074 -0.1391
 2438SOL     OW 9517   1.059   2.601   5.642  0.2252  0.0860 -0.0342
 2438SOL    HW2 9518   0.978   2.624   5.687  0.6213 -0.1239  0.8058
 2438SOL    HW3 9519   1.128   2.616   5.707  0.7817 -0.5261 -0.4689
 2438SOL    MW4 9520   1.057   2.606   5.656  0.3509 -0.0224  0.0193
 2439SOL     OW 9521   1.103   5.762   4.956 -0.0324  0.0725 -0.0957
 2439SOL    HW2 9522   1.080   5.796   4.870  1.3642 -0.6554 -0.7887
 2439SOL    HW3 9523   1.176   5.815   4.985 -0.8104  0.6405  0.8939
 2439SOL    MW4 9524   1.109   5.773   4.949  0.0492  0.0514 -0.0566
 2440SOL     OW 9525   5.310   3.347   3.073 -0.3163  0.2051  0.3877
 2440SOL    HW2 9526   5.380   3.291   3.039 -1.5391 -1.2370  0.1210
 2440SOL    HW3 9527   5.249   3.354   3.000 -1.1601  0.2030  1.0796
 2440SOL    MW4 9528   5.311   3.340   3.059 -0.5889  0.0145  0.4438
 2441SOL     OW 9529   5.737   5.179   1.020  0.0576 -0.2591  0.1071
 2441SOL    HW2 9530   5.733   5.217   1.108  0.2936 -2.9349  1.3628
 2441SOL    HW3 9531   5.821   5.135   1.016  0.3155  0.2842 -1.7294
 2441SOL    MW4 9532   5.747   5.178   1.031  0.1228 -0.5404  0.0304
 2442SOL     OW 9533   5.944   3.309   6.087 -0.2315 -1.0941 -0.4356
 2442SOL    HW2 9534   5.997   3.318   6.167  0.1444  1.8373 -0.9174
 2442SOL    HW3 9535   5.859   3.279   6.118  0.2227 -1.0282  0.9489
 2442SOL    MW4 9536   5.940   3.306   6.102 -0.1220 -0.6986 -0.3165
 2443SOL     OW 9537   2.524   5.759   3.858  0.2431  0.8576  0.4314
 2443SOL    HW2 9538   2.461   5.726   3.793  0.0917  1.8328  0.0705
 2443SOL    HW3 9539   2.508   5.705   3.936 -0.4454  0.5202  0.0658
 2443SOL    MW4 9540   2.513   5.748   3.860  0.1323  0.9418  0.3355
 2444SOL     OW 9541   0.889   2.460   5.093  0.4299  0.3313  0.7269
 2444SOL    HW2 9542   0.969   2.513   5.094  0.7601 -0.1686  1.1834
 2444SOL    HW3 9543   0.839   2.494   5.019  1.5778 -0.1365 -0.3013
 2444SOL    MW4 9544   0.893   2.472   5.084  0.6249  0.2036  0.6515
 2445SOL     OW 9545   2.610   4.036   3.889  0.4881 -0.0523  0.1144
 2445SOL    HW2 9546   2.627   4.123   3.926 -0.7524  0.2275  0.0525
 2445SOL    HW3 9547   2.628   3.976   3.962  0.8935  0.2845  0.2975
 2445SOL    MW4 9548   2.615   4.040   3.904  0.3779  0.0290  0.1304
 2446SOL     OW 9549   0.490   4.180   2.903 -0.5503  0.0282 -0.3428
 2446SOL    HW2 9550   0.400   4.194   2.932 -0.9336 -0.7097 -1.1334
 2446SOL    HW3 9551   0.485   4.105   2.844  0.3599  0.8347 -1.4949
 2446SOL    MW4 9552   0.477   4.172   2.899 -0.4808  0.0372 -0.5991
 2447SOL     OW 9553   5.708   2.787   4.523  0.0470  0.1828 -0.2579
 2447SOL    HW2 9554   5.661   2.868   4.502 -0.8267 -0.6321 -1.6052
 2447SOL    HW3 9555   5.796   2.801   4.487  0.2377  0.9261  0.4644
 2447SOL    MW4 9556   5.714   2.800   4.515 -0.0431  0.1734 -0.3404
 2448SOL     OW 9557   1.920   0.279   3.183 -0.2262  0.2323  0.3875
 2448SOL    HW2 9558   1.967   0.356   3.150 -0.8505  0.0599 -0.9988
 2448SOL    HW3 9559   1.859   0.314   3.248  0.3030  0.7431  0.6191
 2448SOL    MW4 9560   1.918   0.294   3.187 -0.2388  0.2770  0.2351
 2449SOL     OW 9561   4.485   3.081   0.778 -0.6736 -0.2253 -0.2381
 2449SOL    HW2 9562   4.502   3.074   0.872 -0.2912  2.2129 -0.0417
 2449SOL    HW3 9563   4.390   3.078   0.769 -0.6608 -2.3878 -0.0285
 2449SOL    MW4 9564   4.475   3.080   0.789 -0.6215 -0.1889 -0.1846
 2450SOL     OW 9565   4.904   0.790   4.521 -0.1585  0.5124  0.3006
 2450SOL    HW2 9566   4.875   0.860   4.461 -0.5610  0.3447  0.2922
 2450SOL    HW3 9567   4.980   0.751   4.478 -0.9103 -0.1242 -0.4920
 2450SOL    MW4 9568   4.910   0.794   4.507 -0.3108  0.4063  0.1949
 2451SOL     OW 9569   2.071   0.313   1.385 -0.9188 -0.0008 -0.2203
 2451SOL    HW2 9570   2.049   0.393   1.337 -1.0191 -0.8446 -1.6462
 2451SOL    HW3 9571   2.009   0.311   1.458 -0.5785  1.4616  0.1274
 2451SOL    MW4 9572   2.060   0.323   1.389 -0.8871  0.0808 -0.3625
 2452SOL     OW 9573   4.952   6.085   4.974 -0.0434 -0.0452  0.2158
 2452SOL    HW2 9574   5.036   6.062   4.935 -1.3592 -1.2133 -2.2188
 2452SOL    HW3 9575   4.901   6.003   4.970 -1.4352  0.7327  1.1923
 2452SOL    MW4 9576   4.956   6.071   4.969 -0.4007 -0.0966  0.0235
 2453SOL     OW 9577   4.766   3.834   3.440  0.1978 -0.4121  0.0022
 2453SOL    HW2 9578   4.808   3.912   3.405 -1.1285  0.2370 -0.1961
 2453SOL    HW3 9579   4.696   3.814   3.377 -0.0762 -1.2047  0.5404
 2453SOL    MW4 9580   4.762   3.841   3.427 -0.0134 -0.4310  0.0471
 2454SOL     OW 9581   4.420   3.213   2.597 -0.6480 -0.2837  0.3113
 2454SOL    HW2 9582   4.359   3.257   2.657  0.4375  0.8675  0.5984
 2454SOL    HW3 9583   4.396   3.247   2.511  0.2742  1.0580  0.5436
 2454SOL    MW4 9584   4.409   3.224   2.594 -0.3831  0.0452  0.3799
 2455SOL     OW 9585   0.459   1.976   3.634 -0.4454  0.3175 -0.1314
 2455SOL    HW2 9586   0.495   1.888   3.638  0.3222  0.5765 -1.0153
 2455SOL    HW3 9587   0.521   2.025   3.580 -1.9244  0.8615 -1.4153
 2455SOL    MW4 9588   0.472   1.971   3.628 -0.5393  0.4234 -0.4174
 2456SOL     OW 9589   1.325   0.667   4.443 -0.3064 -0.2133  0.3430
 2456SOL    HW2 9590   1.284   0.718   4.373  1.1272 -0.7459 -0.9362
 2456SOL    HW3 9591   1.343   0.582   4.403  0.4008 -0.5855  1.4203
 2456SOL    MW4 9592   1.322   0.663   4.429 -0.0240 -0.3327  0.3164
 2457SOL     OW 9593   6.187   1.782   0.868 -0.2637  0.0903 -0.0567
 2457SOL    HW2 9594   6.197   1.829   0.951 -1.4566  1.2156 -0.5127
 2457SOL    HW3 9595   6.253   1.821   0.811 -0.1625  0.0636  0.0407
 2457SOL    MW4 9596   6.197   1.793   0.872 -0.4077  0.2352 -0.1040
 2458SOL     OW 9597   4.270   5.626   2.906 -0.1863  0.0112  0.0168
 2458SOL    HW2 9598   4.303   5.711   2.878 -1.5225  0.2350 -0.9486
 2458SOL    HW3 9599   4.178   5.641   2.926 -0.5832 -1.3013 -0.6866
 2458SOL    MW4 9600   4.262   5.639   2.905 -0.4150 -0.1324 -0.2034
 2459SOL     OW 9601   1.969   4.612   1.821  0.1466 -0.5991  0.5984
 2459SOL    HW2 9602   1.897   4.676   1.818  1.7640  1.2782 -0.0841
 2459SOL    HW3 9603   1.960   4.562   1.741  0.3863  0.5812 -0.1974
 2459SOL    MW4 9604   1.958   4.614   1.810  0.3916 -0.1957  0.4034
 2460SOL     OW 9605   0.919   3.867   4.336 -0.0020 -0.2844 -0.0569
 2460SOL    HW2 9606   0.955   3.778   4.328  1.3531  0.1807  0.5628
 2460SOL    HW3 9607   0.872   3.881   4.254  2.0032 -0.6199 -1.3210
 2460SOL    MW4 9608   0.917   3.857   4.324  0.4414 -0.2673 -0.1419
 2461SOL     OW 9609   0.968   3.659   3.031 -0.0959  0.3082  0.3265
 2461SOL    HW2 9610   0.908   3.729   3.056  1.3415  2.3629 -1.5929
 2461SOL    HW3 9611   1.055   3.695   3.046  0.7137 -1.3297 -0.1135
 2461SOL    MW4 9612   0.972   3.673   3.036  0.2006  0.3632  0.0152
 2462SOL     OW 9613   2.462   2.505   4.895  0.3403 -0.5162  0.1032
 2462SOL    HW2 9614   2.425   2.501   4.983  1.9591  1.5891  0.9620
 2462SOL    HW3 9615   2.401   2.562   4.847 -0.8320 -2.0863 -0.3666
 2462SOL    MW4 9616   2.449   2.512   4.900  0.3992 -0.4456  0.1545
 2463SOL     OW 9617   6.374   0.269   1.938  0.5527 -0.0563  0.4362
 2463SOL    HW2 9618   6.409   0.195   1.888  1.4742 -0.0693  1.0739
 2463SOL    HW3 9619   6.442   0.336   1.931  0.9778 -0.2658  2.1230
 2463SOL    MW4 9620   6.388   0.268   1.931  0.7304 -0.0856  0.7429
 2464SOL     OW 9621   1.855   3.354   2.575  0.1340  0.0710 -0.1609
 2464SOL    HW2 9622   1.907   3.383   2.651  0.3838  0.2098 -0.3837
 2464SOL    HW3 9623   1.814   3.434   2.543  0.3144  0.0711 -0.3901
 2464SOL    MW4 9624   1.857   3.369   2.581  0.1908  0.0893 -0.2205
 2465SOL     OW 9625   1.862   0.774   3.995  0.0785  0.1763 -0.0771
 2465SOL    HW2 9626   1.796   0.788   3.927 -0.2813 -0.5080  0.1177
 2465SOL    HW3 9627   1.818   0.797   4.077 -0.3008 -1.2823  0.1710
 2465SOL    MW4 9628   1.847   0.779   3.997 -0.0190 -0.1065 -0.0187
 2466SOL     OW 9629   1.051   3.806   6.223 -0.4483  0.0669  0.5745
 2466SOL    HW2 9630   1.013   3.893   6.205  0.0925 -0.0983 -1.6339
 2466SOL    HW3 9631   0.976   3.749   6.235 -0.8130  0.7777  1.8643
 2466SOL    MW4 9632   1.036   3.810   6.222 -0.4250  0.1389  0.4533
 2467SOL     OW 9633   2.199   4.955   1.254  0.1514  0.4768  0.0467
 2467SOL    HW2 9634   2.197   5.009   1.175 -1.2745 -0.1290 -0.3521
 2467SOL    HW3 9635   2.265   4.888   1.236 -1.6001 -0.9160 -1.5123
 2467SOL    MW4 9636   2.208   4.953   1.241 -0.2678  0.2131 -0.2116
 2468SOL     OW 9637   5.256   0.317   0.058  0.0879 -0.4640 -0.1180
 2468SOL    HW2 9638   5.326   0.251   0.060  0.3362 -0.3086 -2.0262
 2468SOL    HW3 9639   5.198   0.289  -0.013 -1.3500 -0.1224  0.8811
 2468SOL    MW4 9640   5.258   0.305   0.049 -0.0691 -0.3984 -0.2379
 2469SOL     OW 9641   2.884   1.478   6.324  1.0024  0.1071  0.0646
 2469SOL    HW2 9642   2.931   1.398   6.299  0.6199 -0.4806  1.1325
 2469SOL    HW3 9643   2.934   1.549   6.284  1.0718 -0.6852 -1.3239
 2469SOL    MW4 9644   2.897   1.477   6.316  0.9611 -0.0750  0.0223
 2470SOL     OW 9645   1.690   5.234   5.163 -0.2684 -0.1974  0.4967
 2470SOL    HW2 9646   1.607   5.255   5.205 -0.0040  2.5499 -0.1763
 2470SOL    HW3 9647   1.748   5.307   5.186  1.2131 -0.8351 -0.9757
 2470SOL    MW4 9648   1.687   5.247   5.171 -0.0381  0.0809  0.2136
 2471SOL     OW 9649   5.588   2.462   5.579 -0.1183 -0.4256 -0.0379
 2471SOL    HW2 9650   5.514   2.523   5.581  0.1170 -0.1465  1.9801
 2471SOL    HW3 9651   5.547   2.375   5.583 -0.3906 -0.3990 -1.5018
 2471SOL    MW4 9652   5.573   2.458   5.580 -0.1232 -0.3853  0.0352
 2472SOL     OW 9653   4.029   3.209   3.597  0.5601 -0.2658 -0.0143
 2472SOL    HW2 9654   3.961   3.271   3.622  0.2080  0.0190 -1.5795
 2472SOL    HW3 9655   4.110   3.258   3.605  0.2990  0.3795 -1.0474
 2472SOL    MW4 9656   4.031   3.223   3.601  0.4792 -0.1431 -0.3571
 2473SOL     OW 9657   3.640   6.050   5.013 -0.0299 -0.0974 -0.2150
 2473SOL    HW2 9658   3.561   6.049   4.959  0.0068  1.6653 -0.3365
 2473SOL    HW3 9659   3.613   6.096   5.093  0.8053  0.2995 -0.1580
 2473SOL    MW4 9660   3.626   6.056   5.016  0.0852  0.1875 -0.2235
 2474SOL     OW 9661   4.039   1.581   0.454  0.9640 -0.9580  0.8169
 2474SOL    HW2 9662   4.008   1.632   0.529 -1.3536 -0.1235 -0.5879
 2474SOL    HW3 9663   4.038   1.490   0.486  0.1100 -0.6185  1.8445
 2474SOL    MW4 9664   4.035   1.576   0.468  0.5456 -0.8031  0.7671
 2475SOL     OW 9665   5.073   3.802   6.154 -0.3919  0.0461  0.6172
 2475SOL    HW2 9666   5.125   3.851   6.218 -0.0978  0.0544  0.3714
 2475SOL    HW3 9667   5.008   3.865   6.123  1.0546  0.8283 -0.9767
 2475SOL    MW4 9668   5.071   3.817   6.158 -0.1623  0.1504  0.3745
 2476SOL     OW 9669   4.797   5.673   1.207 -0.1475 -0.0194 -0.2178
 2476SOL    HW2 9670   4.860   5.674   1.279 -0.8225  2.8855  0.4679
 2476SOL    HW3 9671   4.760   5.585   1.208  2.4779 -1.1935  0.5837
 2476SOL    MW4 9672   4.800   5.662   1.216  0.1099  0.2090 -0.0216
 2477SOL     OW 9673   3.905   0.078   6.270  0.1333 -0.0260 -0.3969
 2477SOL    HW2 9674   3.820   0.084   6.228  0.0230  1.0490 -0.0515
 2477SOL    HW3 9675   3.967   0.062   6.198 -0.4652 -2.0597 -0.5217
 2477SOL    MW4 9676   3.902   0.076   6.255  0.0398 -0.1525 -0.3678
 2478SOL     OW 9677   0.048   0.645   0.984  0.1614 -0.5550 -0.4523
 2478SOL    HW2 9678   0.066   0.701   0.909 -0.3265  0.4187  0.1425
 2478SOL    HW3 9679   0.113   0.574   0.977  2.8796  1.6451  0.4234
 2478SOL    MW4 9680   0.059   0.643   0.974  0.4556 -0.1363 -0.2583
 2479SOL     OW 9681   2.658   4.959   0.010  0.0893 -0.0973 -0.0930
 2479SOL    HW2 9682   2.748   4.941   0.036 -0.4890 -1.7612  0.8850
 2479SOL    HW3 9683   2.665   4.992  -0.080  1.7360  0.8383  0.3545
 2479SOL    MW4 9684   2.671   4.961   0.001  0.2303 -0.1934  0.0951
 2480SOL     OW 9685   2.180   2.183   5.040  0.5467  0.0972  0.5056
 2480SOL    HW2 9686   2.118   2.183   4.967  1.5788  1.5010 -0.4117
 2480SOL    HW3 9687   2.215   2.094   5.042  0.9958  0.2001 -1.1632
 2480SOL    MW4 9688   2.176   2.172   5.031  0.7421  0.2960  0.1644
 2481SOL     OW 9689   1.246   2.424   4.406  0.3846  0.1261  0.1065
 2481SOL    HW2 9690   1.195   2.492   4.450 -1.7454 -0.8120 -0.7594
 2481SOL    HW3 9691   1.224   2.344   4.453  0.1086 -0.4820 -1.0366
 2481SOL    MW4 9692   1.236   2.423   4.418  0.0672 -0.0779 -0.1585
 2482SOL     OW 9693   2.280   0.039   0.706 -0.3857  0.0651  0.3659
 2482SOL    HW2 9694   2.273  -0.055   0.721 -0.0629  0.0156  0.2157
 2482SOL    HW3 9695   2.299   0.076   0.791 -0.8298  0.0294  0.4836
 2482SOL    MW4 9696   2.282   0.031   0.719 -0.4017  0.0538  0.3616
 2483SOL     OW 9697   4.184   0.394   6.122 -0.3540 -0.1964  0.2085
 2483SOL    HW2 9698   4.225   0.328   6.179 -1.2738 -1.9992 -1.1274
 2483SOL    HW3 9699   4.096   0.361   6.108 -0.2987  0.4319 -1.8856
 2483SOL    MW4 9700   4.178   0.381   6.128 -0.4680 -0.3513 -0.2440
 2484SOL     OW 9701   4.790   6.294   4.944  0.0423 -0.2302  0.0451
 2484SOL    HW2 9702   4.790   6.312   4.850  2.3330 -1.6564 -0.3065
 2484SOL    HW3 9703   4.845   6.216   4.954 -1.1524 -0.8619  2.4651
 2484SOL    MW4 9704   4.797   6.286   4.933  0.1869 -0.5017  0.3180
 2485SOL     OW 9705   5.827   5.287   1.758  0.3875 -0.0948  0.0899
 2485SOL    HW2 9706   5.789   5.216   1.707 -0.6621  1.1793 -0.9847
 2485SOL    HW3 9707   5.807   5.366   1.708 -1.1448  1.3037  2.6840
 2485SOL    MW4 9708   5.819   5.288   1.745  0.0469  0.2578  0.2904
 2486SOL     OW 9709   3.873   6.354   1.890  0.3479  0.0349  0.2446
 2486SOL    HW2 9710   3.812   6.342   1.963 -0.8228 -2.4992 -1.0351
 2486SOL    HW3 9711   3.839   6.431   1.843 -0.9753 -0.4186  0.4156
 2486SOL    MW4 9712   3.860   6.363   1.893  0.0188 -0.3593  0.0983
 2487SOL     OW 9713   3.541   4.670   0.717  0.0701  0.0871  0.0751
 2487SOL    HW2 9714   3.465   4.726   0.700  2.0727  2.7566 -0.6999
 2487SOL    HW3 9715   3.519   4.587   0.676 -1.6400  1.4172 -1.9395
 2487SOL    MW4 9716   3.528   4.667   0.710  0.1087  0.6148 -0.2930
 2488SOL     OW 9717   6.329   3.807   1.986 -0.1613  0.1414  0.2858
 2488SOL    HW2 9718   6.254   3.784   1.931 -0.7221 -0.2212  1.1745
 2488SOL    HW3 9719   6.339   3.902   1.976 -0.9458  0.2407  0.4065
 2488SOL    MW4 9720   6.321   3.816   1.977 -0.3388  0.1067  0.4190
 2489SOL     OW 9721   4.558   1.393   4.381 -0.0022  0.4594  0.0653
 2489SOL    HW2 9722   4.628   1.417   4.321 -0.1759 -0.1212 -0.3825
 2489SOL    HW3 9723   4.521   1.476   4.410  0.6352  0.7594  0.0238
 2489SOL    MW4 9724   4.562   1.407   4.377  0.0590  0.4223  0.0007
 2490SOL     OW 9725   3.773   2.879   5.592 -0.5083  0.0278 -0.2146
 2490SOL    HW2 9726   3.848   2.821   5.603 -1.0404 -1.0185 -1.8427
 2490SOL    HW3 9727   3.697   2.823   5.604 -1.0324  0.4150 -1.5226
 2490SOL    MW4 9728   3.773   2.864   5.595 -0.6477 -0.0591 -0.6020
 2491SOL     OW 9729   1.276   6.229   3.930 -0.1364  0.2570 -0.0535
 2491SOL    HW2 9730   1.268   6.147   3.979  0.7274 -0.2576 -0.7262
 2491SOL    HW3 9731   1.186   6.251   3.905 -0.5656  0.4028  1.5015
 2491SOL    MW4 9732   1.263   6.221   3.933 -0.0791  0.2084  0.0629
 2492SOL     OW 9733   6.279   4.582   0.133  0.3684  1.0557 -0.2825
 2492SOL    HW2 9734   6.273   4.593   0.228  1.5512  2.2152 -0.3104
 2492SOL    HW3 9735   6.309   4.492   0.121 -1.0042  0.4864  0.3741
 2492SOL    MW4 9736   6.282   4.572   0.144  0.3434  1.1336 -0.1996
 2493SOL     OW 9737   2.012   3.564   0.663  0.2749 -0.4721 -0.0721
 2493SOL    HW2 9738   2.013   3.612   0.580  1.3557  0.2501  0.3312
 2493SOL    HW3 9739   2.101   3.530   0.672  1.0443  1.7911  2.0613
 2493SOL    MW4 9740   2.024   3.566   0.653  0.5190 -0.0782  0.2626
 2494SOL     OW 9741   2.100   3.087   4.989  0.0619 -0.5788 -0.0136
 2494SOL    HW2 9742   2.157   3.164   4.987 -2.5853  1.6148  2.1939
 2494SOL    HW3 9743   2.124   3.042   5.070 -0.4689 -0.3181  0.2960
 2494SOL    MW4 9744   2.111   3.091   5.000 -0.3574 -0.2550  0.3185
 2495SOL     OW 9745   4.946   0.238   5.514 -0.4614  0.6240 -0.1234
 2495SOL    HW2 9746   4.893   0.233   5.434  1.8240  1.4272 -1.7899
 2495SOL    HW3 9747   4.934   0.328   5.544 -0.3031  0.7012 -0.2935
 2495SOL    MW4 9748   4.937   0.249   5.507 -0.1390  0.7401 -0.3657
 2496SOL     OW 9749   2.581   1.651   5.557  0.7416 -0.1809 -0.2769
 2496SOL    HW2 9750   2.613   1.583   5.499 -0.0963 -0.1624 -0.7864
 2496SOL    HW3 9751   2.521   1.605   5.617  0.7123 -0.0120 -0.1764
 2496SOL    MW4 9752   2.577   1.636   5.557  0.6272 -0.1562 -0.3309
 2497SOL     OW 9753   6.041   1.986   3.210  0.3423  0.0958 -0.0463
 2497SOL    HW2 9754   6.027   1.894   3.189  0.0120 -0.8489  3.6496
 2497SOL    HW3 9755   6.131   1.989   3.244 -0.3036  0.6784  1.6988
 2497SOL    MW4 9756   6.051   1.974   3.212  0.2135  0.0480  0.6716
 2498SOL     OW 9757   1.740   2.834   2.542  0.5184 -0.6337  0.2368
 2498SOL    HW2 9758   1.798   2.852   2.467 -1.0847  2.1000 -0.4688
 2498SOL    HW3 9759   1.675   2.773   2.508 -0.4168  0.8746 -0.7797
 2498SOL    MW4 9760   1.739   2.828   2.527  0.1835 -0.0740  0.0096
 2499SOL     OW 9761   4.598   4.118   4.478  0.4849 -0.5358 -0.1367
 2499SOL    HW2 9762   4.623   4.078   4.562  0.2900  0.9632  0.6810
 2499SOL    HW3 9763   4.638   4.205   4.481 -0.3764 -0.0874 -1.1672
 2499SOL    MW4 9764   4.607   4.124   4.490  0.3456 -0.2788 -0.1647
 2500SOL     OW 9765   5.789   5.006   4.320 -0.5289  0.4345 -0.0785
 2500SOL    HW2 9766   5.737   5.039   4.247  1.3384 -0.2515 -1.8226
 2500SOL    HW3 9767   5.838   5.082   4.351  1.0874  0.1348 -1.7339
 2500SOL    MW4 9768   5.789   5.020   4.315 -0.0693  0.3045 -0.5270
 2501SOL     OW 9769   5.960   5.842   5.437 -0.6006  0.3847 -0.7818
 2501SOL    HW2 9770   5.923   5.766   5.483  1.2977 -0.4110 -0.5015
 2501SOL    HW3 9771   5.966   5.910   5.504  0.1830 -0.0886 -0.3647
 2501SOL    MW4 9772   5.956   5.841   5.452 -0.2468  0.2173 -0.6898
 2502SOL     OW 9773   5.361   5.877   2.724  0.2705 -0.4494  0.9030
 2502SOL    HW2 9774   5.436   5.922   2.763  1.4859 -0.9200 -0.7948
 2502SOL    HW3 9775   5.347   5.801   2.780  2.1761 -1.2887  0.3274
 2502SOL    MW4 9776   5.369   5.873   2.737  0.6823 -0.6222  0.6031
 2503SOL     OW 9777   0.660   2.106   6.356  0.2676  0.5474 -0.1125
 2503SOL    HW2 9778   0.604   2.125   6.431 -0.3605 -2.8111  0.4195
 2503SOL    HW3 9779   0.729   2.173   6.359 -0.5416  1.3520  2.5785
 2503SOL    MW4 9780   0.662   2.118   6.366  0.0779  0.2104  0.3127
 2504SOL     OW 9781   3.108   1.887   1.529  0.0984  0.1325  0.1697
 2504SOL    HW2 9782   3.108   1.959   1.591  2.6112 -0.2691  0.7599
 2504SOL    HW3 9783   3.084   1.810   1.581 -0.6675  0.2240 -0.0335
 2504SOL    MW4 9784   3.105   1.886   1.544  0.3289  0.0916  0.2207
 2505SOL     OW 9785   5.897   4.260   6.009 -0.2321 -0.3855 -0.0270
 2505SOL    HW2 9786   5.973   4.311   5.979  0.2965 -0.7618  0.6411
 2505SOL    HW3 9787   5.899   4.269   6.104  1.4353 -3.7195  0.4078
 2505SOL    MW4 9788   5.908   4.268   6.017  0.0576 -0.8750  0.1185
 2506SOL     OW 9789   5.027   6.268   5.372  0.3761  0.0763  0.4822
 2506SOL    HW2 9790   5.037   6.181   5.334  0.1822 -0.1021  0.8401
 2506SOL    HW3 9791   4.973   6.316   5.309  0.1150 -0.1955  0.4983
 2506SOL    MW4 9792   5.021   6.263   5.359  0.3161  0.0169  0.5315
 2507SOL     OW 9793   4.456   2.405   0.421 -0.0040  0.0621  0.3811
 2507SOL    HW2 9794   4.383   2.396   0.482  1.6865 -0.1815  2.4651
 2507SOL    HW3 9795   4.519   2.461   0.467  1.2599  0.0432 -1.2419
 2507SOL    MW4 9796   4.454   2.411   0.435  0.3858  0.0275  0.4419
 2508SOL     OW 9797   2.301   2.666   4.727  0.2896 -0.6777  0.2126
 2508SOL    HW2 9798   2.373   2.703   4.677  1.3564 -1.8310  0.8399
 2508SOL    HW3 9799   2.255   2.742   4.764  0.4295  0.1137 -1.1947
 2508SOL    MW4 9800   2.304   2.681   4.726  0.4488 -0.7255  0.1097
 2509SOL     OW 9801   3.554   1.690   1.507 -0.0548 -0.1450 -0.1824
 2509SOL    HW2 9802   3.613   1.735   1.567 -0.0293  0.9792 -1.0134
 2509SOL    HW3 9803   3.479   1.750   1.499 -0.7567 -0.9955 -0.0790
 2509SOL    MW4 9804   3.552   1.704   1.514 -0.1441 -0.1089 -0.2784
 2510SOL     OW 9805   1.903   4.177   1.227  0.3849  0.0275  0.0324
 2510SOL    HW2 9806   1.973   4.174   1.292 -0.2450  0.3178  0.7368
 2510SOL    HW3 9807   1.823   4.158   1.277 -0.0217 -0.4815 -0.7880
 2510SOL    MW4 9808   1.901   4.174   1.242  0.2482 -0.0013  0.0171
 2511SOL     OW 9809   4.548   5.277   1.152 -0.0982  0.0827 -0.1818
 2511SOL    HW2 9810   4.566   5.184   1.166 -1.5722 -0.0806  0.8802
 2511SOL    HW3 9811   4.459   5.279   1.117  0.2587  1.0644 -1.0989
 2511SOL    MW4 9812   4.539   5.265   1.149 -0.2456  0.1907 -0.1627
 2512SOL     OW 9813   4.488   3.894   1.163  0.0915  0.0832  0.4044
 2512SOL    HW2 9814   4.426   3.828   1.133  0.4575 -0.5132  0.9224
 2512SOL    HW3 9815   4.547   3.846   1.222  0.0074  1.0008  1.2530
 2512SOL    MW4 9816   4.488   3.879   1.167  0.1287  0.1256  0.5847
 2513SOL     OW 9817   0.142   2.470   1.530 -0.2432 -0.0851  0.3833
 2513SOL    HW2 9818   0.164   2.381   1.558 -1.9672 -0.5097  0.5140
 2513SOL    HW3 9819   0.179   2.477   1.442  1.5137 -0.2486  1.0714
 2513SOL    MW4 9820   0.150   2.459   1.522 -0.2389 -0.1627  0.4914
 2514SOL     OW 9821   3.220   4.325   0.873  0.6290  0.5487  0.2144
 2514SOL    HW2 9822   3.215   4.263   0.801  1.2018 -1.6214  1.9258
 2514SOL    HW3 9823   3.201   4.272   0.951 -1.9892  3.1581  1.5380
 2514SOL    MW4 9824   3.217   4.310   0.874  0.3591  0.6067  0.6148
 2515SOL     OW 9825   3.123   4.588   4.129  0.0021  0.3709  0.3323
 2515SOL    HW2 9826   3.189   4.628   4.073  0.9257 -0.3371  0.8748
 2515SOL    HW3 9827   3.170   4.564   4.209 -0.8833 -0.2474  0.6950
 2515SOL    MW4 9828   3.138   4.590   4.132  0.0071  0.1959  0.4517
 2516SOL     OW 9829   4.052   5.253   1.774 -0.5234  0.0093  0.1332
 2516SOL    HW2 9830   4.139   5.259   1.813  0.8848  1.8817 -2.9538
 2516SOL    HW3 9831   4.005   5.329   1.809  0.4782  1.2568 -1.1206
 2516SOL    MW4 9832   4.057   5.264   1.784 -0.2055  0.4209 -0.4395
 2517SOL     OW 9833   4.084   3.930   5.905 -0.9466 -0.0295 -1.1298
 2517SOL    HW2 9834   4.163   3.919   5.958 -0.9621  1.2926 -0.8007
 2517SOL    HW3 9835   4.093   4.017   5.866 -1.8083 -0.2424 -1.8397
 2517SOL    MW4 9836   4.095   3.940   5.907 -1.0623  0.1168 -1.1800
 2518SOL     OW 9837   1.975   0.810   4.668 -0.4139 -0.3478  0.6207
 2518SOL    HW2 9838   2.013   0.739   4.615 -1.6050 -1.5556  1.3164
 2518SOL    HW3 9839   1.886   0.821   4.632  0.8016  3.2737 -1.8108
 2518SOL    MW4 9840   1.968   0.802   4.656 -0.4107 -0.0293  0.3917
 2519SOL     OW 9841   3.489   0.899   4.521 -0.3324 -0.4678 -0.4132
 2519SOL    HW2 9842   3.568   0.879   4.472 -0.2402  0.7273 -0.7794
 2519SOL    HW3 9843   3.520   0.926   4.608 -0.2612  0.7173 -0.7833
 2519SOL    MW4 9844   3.504   0.900   4.526 -0.3109 -0.1538 -0.5103
 2520SOL     OW 9845   5.928   1.332   2.278 -0.5735  0.0488 -0.0452
 2520SOL    HW2 9846   5.840   1.312   2.247  0.0178  0.2404 -1.9765
 2520SOL    HW3 9847   5.940   1.424   2.256  0.0836  0.0520  0.3142
 2520SOL    MW4 9848   5.918   1.342   2.271 -0.4088  0.0745 -0.2526
 2521SOL     OW 9849   5.152   0.839   6.125  0.3031 -0.0583 -0.7887
 2521SOL    HW2 9850   5.142   0.910   6.189  0.3415  0.5359 -1.4279
 2521SOL    HW3 9851   5.231   0.862   6.076 -0.3082  0.0744 -1.7472
 2521SOL    MW4 9852   5.161   0.852   6.127  0.2275  0.0376 -0.9995
 2522SOL     OW 9853   3.785   5.252   6.139  0.1704 -0.6926  0.2471
 2522SOL    HW2 9854   3.724   5.299   6.082 -1.5343 -0.8771  1.8394
 2522SOL    HW3 9855   3.842   5.321   6.175 -0.9086 -0.1162  0.8879
 2522SOL    MW4 9856   3.785   5.267   6.136 -0.1969 -0.6409  0.5417
 2523SOL     OW 9857   0.558   5.191   2.739 -0.3040  0.0168  0.3301
 2523SOL    HW2 9858   0.467   5.183   2.709 -0.9156  2.6911  1.1770
 2523SOL    HW3 9859   0.570   5.118   2.799 -0.9020 -2.0412 -1.8876
 2523SOL    MW4 9860   0.548   5.180   2.743 -0.4636  0.0981  0.1492
 2524SOL     OW 9861   2.614   1.910   5.339  0.0558  0.2491 -0.2966
 2524SOL    HW2 9862   2.679   1.870   5.397 -0.1660  0.0775 -0.1624
 2524SOL    HW3 9863   2.550   1.841   5.325 -0.0498  0.3892 -0.5009
 2524SOL    MW4 9864   2.614   1.896   5.345  0.0126  0.2449 -0.3059
 2525SOL     OW 9865   1.878   1.978   2.549 -0.2771  0.3069 -0.5212
 2525SOL    HW2 9866   1.905   1.899   2.502 -1.7174 -0.2514 -0.4568
 2525SOL    HW3 9867   1.844   1.946   2.633 -1.7379  0.8881 -0.8634
 2525SOL    MW4 9868   1.877   1.964   2.554 -0.6598  0.3100 -0.5578
 2526SOL     OW 9869   1.486   2.432   4.548  0.3395 -0.0689 -0.2050
 2526SOL    HW2 9870   1.501   2.483   4.628  0.6954 -0.2928 -0.1248
 2526SOL    HW3 9871   1.411   2.474   4.506 -1.8578 -1.7047  1.7571
 2526SOL    MW4 9872   1.478   2.444   4.553  0.0966 -0.3142  0.0645
 2527SOL     OW 9873   0.132   0.874   6.198 -0.0378  0.2053 -0.3471
 2527SOL    HW2 9874   0.045   0.895   6.162  0.7345  0.9544 -1.8950
 2527SOL    HW3 9875   0.176   0.959   6.204  0.5369 -0.1455  0.6142
 2527SOL    MW4 9876   0.126   0.888   6.194  0.1399  0.2578 -0.4245
 2528SOL     OW 9877   2.046   3.687   5.805 -0.2485 -0.3752 -0.0342
 2528SOL    HW2 9878   2.061   3.666   5.713 -3.0654 -2.1117 -0.2100
 2528SOL    HW3 9879   2.030   3.781   5.806  1.4221 -0.0320 -0.9981
 2528SOL    MW4 9880   2.046   3.697   5.793 -0.3997 -0.5590 -0.1846
 2529SOL     OW 9881   1.973   2.208   1.842  0.3043 -0.1181  0.0412
 2529SOL    HW2 9882   2.005   2.236   1.757 -2.4283  1.0676 -0.7024
 2529SOL    HW3 9883   1.920   2.130   1.823 -2.0169  1.3142  0.2410
 2529SOL    MW4 9884   1.970   2.201   1.828 -0.3625  0.2273 -0.0306
 2530SOL     OW 9885   0.819   6.415   2.810  0.2977 -0.4237  0.3378
 2530SOL    HW2 9886   0.815   6.506   2.838 -0.0126 -0.6988  1.2146
 2530SOL    HW3 9887   0.913   6.394   2.808  0.4351  0.2247 -0.9418
 2530SOL    MW4 9888   0.831   6.424   2.813  0.2749 -0.3744  0.2847
 2531SOL     OW 9889   6.177   4.399   1.260 -0.1084  0.4460 -0.2441
 2531SOL    HW2 9890   6.133   4.344   1.195 -2.4022  0.3639  1.2832
 2531SOL    HW3 9891   6.223   4.338   1.317  0.6896  0.4211 -0.9012
 2531SOL    MW4 9892   6.177   4.384   1.259 -0.3057  0.4319 -0.1293
 2532SOL     OW 9893   5.229   1.606   6.033 -0.3180 -0.1382  0.8627
 2532SOL    HW2 9894   5.198   1.693   6.009 -0.2561 -0.3504 -0.0488
 2532SOL    HW3 9895   5.212   1.598   6.126 -0.3503  0.8387  0.9444
 2532SOL    MW4 9896   5.223   1.616   6.042 -0.3141 -0.0373  0.7532
 2533SOL     OW 9897   5.140   0.450   5.873 -0.0559 -0.2735  0.0586
 2533SOL    HW2 9898   5.079   0.381   5.900 -0.9406 -0.3000 -1.8328
 2533SOL    HW3 9899   5.109   0.528   5.918 -2.1660 -0.0769 -1.5411
 2533SOL    MW4 9900   5.128   0.451   5.882 -0.4510 -0.2511 -0.4020
 2534SOL     OW 9901   4.556   5.233   3.636 -0.0418  0.0206  0.4689
 2534SOL    HW2 9902   4.508   5.159   3.674  0.0684 -0.2437  0.0923
 2534SOL    HW3 9903   4.492   5.275   3.579  0.8207 -1.7492 -1.9488
 2534SOL    MW4 9904   4.541   5.229   3.634  0.0865 -0.2478  0.1002
 2535SOL     OW 9905   0.305   2.053   0.343  0.5248  0.3388 -0.4890
 2535SOL    HW2 9906   0.304   2.060   0.438  2.5673  3.0956 -0.5391
 2535SOL    HW3 9907   0.213   2.048   0.317 -0.0438 -0.9337  1.6069
 2535SOL    MW4 9908   0.293   2.054   0.352  0.7192  0.5346 -0.2191
 2536SOL     OW 9909   0.407   0.975   2.781 -0.0080  0.0797  0.4571
 2536SOL    HW2 9910   0.396   0.935   2.694 -0.9099  1.2306  0.0214
 2536SOL    HW3 9911   0.467   0.916   2.826 -1.4141 -1.8879 -0.0882
 2536SOL    MW4 9912   0.413   0.962   2.775 -0.3125 -0.0280  0.3277
 2537SOL     OW 9913   1.052   4.993   3.139  0.5694 -0.4456  0.1143
 2537SOL    HW2 9914   1.117   5.004   3.207  0.7718 -1.0836  0.0318
 2537SOL    HW3 9915   1.068   4.905   3.104  1.2368  0.3108 -1.5609
 2537SOL    MW4 9916   1.062   4.983   3.143  0.6842 -0.4300 -0.1176
 2538SOL     OW 9917   6.332   2.758   3.554 -0.3079 -0.1695 -0.1861
 2538SOL    HW2 9918   6.346   2.687   3.617 -1.8733  0.1947  0.6400
 2538SOL    HW3 9919   6.418   2.776   3.518  0.0802 -2.8320 -0.7989
 2538SOL    MW4 9920   6.345   2.751   3.558 -0.4632 -0.4727 -0.1580
 2539SOL     OW 9921   0.115   1.343   3.954 -0.4391 -0.5361  0.3331
 2539SOL    HW2 9922   0.174   1.395   4.008 -1.6711  0.5151  0.7297
 2539SOL    HW3 9923   0.038   1.329   4.009 -0.4343 -2.2243 -0.0197
 2539SOL    MW4 9924   0.112   1.348   3.968 -0.6010 -0.6202  0.3389
 2540SOL     OW 9925   5.722   0.806   0.374 -0.1987 -0.2655  0.0602
 2540SOL    HW2 9926   5.662   0.735   0.350 -0.3493 -0.3243  0.5950
 2540SOL    HW3 9927   5.682   0.846   0.452  0.5501 -0.4243  0.5405
 2540SOL    MW4 9928   5.709   0.802   0.381 -0.1198 -0.2942  0.1941
 2541SOL     OW 9929   0.753   1.131   0.889 -0.8481 -0.5368  0.5733
 2541SOL    HW2 9930   0.668   1.140   0.846 -0.4752  0.6356  0.0286
 2541SOL    HW3 9931   0.767   1.037   0.897 -0.4617 -0.8646 -2.8228
 2541SOL    MW4 9932   0.744   1.120   0.884 -0.7479 -0.4253  0.0533
 2542SOL     OW 9933   1.231   5.105   1.396  0.5200 -0.1360  0.4618
 2542SOL    HW2 9934   1.228   5.104   1.301 -1.8186  0.7460  0.4553
 2542SOL    HW3 9935   1.167   5.038   1.422 -0.9074  1.5117  1.3510
 2542SOL    MW4 9936   1.222   5.096   1.387  0.0231  0.1978  0.5783
 2543SOL     OW 9937   2.133   4.820   1.685 -0.1648  0.1479  0.1329
 2543SOL    HW2 9938   2.080   4.765   1.742  0.6661  0.1331  0.9192
 2543SOL    HW3 9939   2.160   4.762   1.614 -3.0496  0.7146 -1.5859
 2543SOL    MW4 9940   2.130   4.805   1.683 -0.4358  0.2207  0.0098
 2544SOL     OW 9941   4.881   4.558   3.153 -0.2624  0.9561 -0.6978
 2544SOL    HW2 9942   4.939   4.562   3.229  0.9070 -0.2436 -1.4771
 2544SOL    HW3 9943   4.935   4.587   3.080 -0.2108 -1.2285 -1.6299
 2544SOL    MW4 9944   4.896   4.562   3.153 -0.1013  0.5096 -0.9236
 2545SOL     OW 9945   4.802   2.748   2.666 -0.5245 -0.1482 -0.0141
 2545SOL    HW2 9946   4.759   2.701   2.595  0.0348 -0.0491 -0.4252
 2545SOL    HW3 9947   4.776   2.839   2.654 -0.1395 -0.0740 -0.3174
 2545SOL    MW4 9948   4.793   2.754   2.655 -0.3999 -0.1253 -0.1084
 2546SOL     OW 9949   0.641   5.071   1.169  0.4759 -0.1286  0.1297
 2546SOL    HW2 9950   0.672   5.134   1.104 -0.2280  1.0565  0.8969
 2546SOL    HW3 9951   0.680   4.988   1.143 -0.4163  0.1252 -2.2769
 2546SOL    MW4 9952   0.650   5.069   1.157  0.2653  0.0613 -0.0866
 2547SOL     OW 9953   2.068   5.751   0.742 -0.8067 -0.3856 -0.1084
 2547SOL    HW2 9954   1.999   5.806   0.778 -1.0853 -2.2187  2.4305
 2547SOL    HW3 9955   2.028   5.664   0.733  1.1475 -1.5644  1.6631
 2547SOL    MW4 9956   2.054   5.747   0.745 -0.5856 -0.7829  0.4603
 2548SOL     OW 9957   4.159   4.549   1.507 -0.3044 -0.6822 -0.0524
 2548SOL    HW2 9958   4.069   4.566   1.534  0.6247  0.8632  2.4096
 2548SOL    HW3 9959   4.212   4.603   1.566  2.3094 -2.4566 -0.6278
 2548SOL    MW4 9960   4.154   4.559   1.518  0.1630 -0.7124  0.1965
 2549SOL     OW 9961   1.455   4.195   3.208 -0.5618  0.2374 -0.4280
 2549SOL    HW2 9962   1.462   4.287   3.232 -1.6609  0.1618  0.2384
 2549SOL    HW3 9963   1.527   4.152   3.255  1.3985  1.0365 -2.5073
 2549SOL    MW4 9964   1.465   4.201   3.217 -0.4482  0.3329 -0.6144
 2550SOL     OW 9965   0.026   5.628   2.010  0.3872  0.2240  0.6762
 2550SOL    HW2 9966   0.100   5.581   2.049 -0.5295 -1.6023  0.3018
 2550SOL    HW3 9967   0.054   5.648   1.920  0.9960  0.9366  1.0143
 2550SOL    MW4 9968   0.040   5.625   2.003  0.3466  0.0770  0.6714
 2551SOL     OW 9969   2.809   3.976   1.334  0.0964  0.4116 -0.3533
 2551SOL    HW2 9970   2.832   3.884   1.347  2.7003  0.8617 -1.1354
 2551SOL    HW3 9971   2.850   3.999   1.251 -0.7621  2.2023 -0.3187
 2551SOL    MW4 9972   2.818   3.967   1.325  0.3267  0.7072 -0.4519
 2552SOL     OW 9973   3.344   3.224   3.824  0.3693  0.1152  0.5509
 2552SOL    HW2 9974   3.434   3.209   3.851  0.9103 -0.8254 -1.5082
 2552SOL    HW3 9975   3.290   3.183   3.892  1.5002  0.0805  1.4456
 2552SOL    MW4 9976   3.348   3.217   3.836  0.5899 -0.0135  0.3973
 2553SOL     OW 9977   5.392   3.296   1.250 -0.1176  0.0583 -0.0911
 2553SOL    HW2 9978   5.382   3.338   1.335  0.3173 -0.4630  0.2293
 2553SOL    HW3 9979   5.487   3.293   1.236 -0.2147  1.6790 -1.3924
 2553SOL    MW4 9980   5.403   3.301   1.259 -0.0731  0.2033 -0.2205
 2554SOL     OW 9981   3.479   4.140   3.812 -0.7087  0.4672 -0.0051
 2554SOL    HW2 9982   3.434   4.060   3.836  1.1805 -0.6194  0.0835
 2554SOL    HW3 9983   3.539   4.157   3.885  0.4118  0.7629 -0.9538
 2554SOL    MW4 9984   3.481   4.132   3.825 -0.3116  0.3629 -0.1186
 2555SOL     OW 9985   2.084   4.106   2.472 -0.0852 -0.4322  0.1869
 2555SOL    HW2 9986   2.032   4.047   2.526  1.0039  0.4799  2.3620
 2555SOL    HW3 9987   2.171   4.106   2.512  0.0910  2.2269  0.0147
 2555SOL    MW4 9988   2.089   4.098   2.485  0.0818  0.0390  0.4512
 2556SOL     OW 9989   4.234   4.800   1.627  0.1545  0.1758 -0.0270
 2556SOL    HW2 9990   4.187   4.883   1.629  0.0834  0.2537 -2.2509
 2556SOL    HW3 9991   4.215   4.759   1.711 -0.1718  2.1934  0.9395
 2556SOL    MW4 9992   4.226   4.806   1.638  0.1021  0.4522 -0.1929
 2557SOL     OW 9993   3.684   4.487   6.413 -0.3945  0.1031  0.6720
 2557SOL    HW2 9994   3.645   4.421   6.470  0.7206 -0.7488  0.4851
 2557SOL    HW3 9995   3.639   4.568   6.436 -0.3672 -0.3246  2.3613
 2557SOL    MW4 9996   3.673   4.489   6.424 -0.2438 -0.0657  0.8703
 2558SOL     OW 9997   0.029   2.730   2.375  0.4392  0.2865  0.3480
 2558SOL    HW2 9998  -0.023   2.693   2.446 -1.1705 -0.2731 -1.0277
 2558SOL    HW3 9999   0.102   2.669   2.364  0.1106 -0.2008  0.8171
 2558SOL    MW410000   0.031   2.717   2.383  0.1835  0.1483  0.2284
 2559SOL     OW10001   3.982   1.296   2.967 -0.3070  0.3163  0.0336
 2559SOL    HW210002   3.895   1.288   2.930 -0.1997  0.2060 -0.1927
 2559SOL    HW310003   4.042   1.287   2.893 -0.1572  3.1326 -0.2597
 2559SOL    MW410004   3.979   1.293   2.953 -0.2731  0.6733 -0.0349
 2560SOL     OW10005   1.302   1.815   4.159  0.5294 -0.5139 -0.2220
 2560SOL    HW210006   1.330   1.748   4.097  2.8640  0.1973 -0.0482
 2560SOL    HW310007   1.358   1.802   4.236  0.6903  1.2772  0.0194
 2560SOL    MW410008   1.313   1.805   4.161  0.8587 -0.1837 -0.1672
 2561SOL     OW10009   5.538   3.515   2.666  0.1223  0.0498 -0.3046
 2561SOL    HW210010   5.610   3.504   2.729 -0.2396  0.0758  0.1253
 2561SOL    HW310011   5.561   3.593   2.617  0.1909  0.2952  0.1095
 2561SOL    MW410012   5.550   3.524   2.668  0.0836  0.0856 -0.1932
 2562SOL     OW10013   0.398   4.998   6.131  0.2491 -0.0767  0.7357
 2562SOL    HW210014   0.350   5.071   6.170  1.2025  1.8283 -1.3767
 2562SOL    HW310015   0.346   4.975   6.053  1.2409  0.0748  0.0140
 2562SOL    MW410016   0.385   5.005   6.126  0.5057  0.1946  0.3618
 2563SOL     OW10017   5.243   1.850   1.128  0.3235 -0.5392 -0.1666
 2563SOL    HW210018   5.300   1.926   1.140  0.2862 -0.4525 -0.5569
 2563SOL    HW310019   5.229   1.843   1.034  1.0751 -1.5755 -0.2252
 2563SOL    MW410020   5.248   1.859   1.117  0.4177 -0.6644 -0.2258
 2564SOL     OW10021   3.872   0.770   5.685  0.0797 -0.7567  0.1925
 2564SOL    HW210022   3.841   0.728   5.765 -0.0148 -0.8395  0.1132
 2564SOL    HW310023   3.905   0.855   5.713 -0.7204 -0.4446  0.2003
 2564SOL    MW410024   3.872   0.776   5.699 -0.0384 -0.7265  0.1830
 2565SOL     OW10025   3.463   5.690   5.791  0.6805  0.1834  1.0201
 2565SOL    HW210026   3.429   5.633   5.722  1.8097  0.0660  0.5296
 2565SOL    HW310027   3.405   5.766   5.791  0.8932  0.3676 -0.3561
 2565SOL    MW410028   3.451   5.692   5.782  0.8575  0.1922  0.7738
 2566SOL     OW10029   4.926   0.550   2.349  0.1548 -0.3346 -0.0455
 2566SOL    HW210030   4.862   0.478   2.353  1.3886 -1.4321  3.5290
 2566SOL    HW310031   4.882   0.624   2.390  0.1250 -0.1303 -0.4421
 2566SOL    MW410032   4.911   0.550   2.355  0.3137 -0.4524  0.3738
 2567SOL     OW10033   1.569   0.259   5.305  0.2265 -0.6593 -0.6529
 2567SOL    HW210034   1.508   0.294   5.370  0.8686  3.5965 -1.9804
 2567SOL    HW310035   1.515   0.204   5.248 -1.7676  0.6525 -0.1385
 2567SOL    MW410036   1.554   0.257   5.306  0.0482  0.0753 -0.7602
 2568SOL     OW10037   3.105   4.223   2.238  0.2848  0.4064 -0.2060
 2568SOL    HW210038   3.024   4.247   2.283 -0.4649  0.0889 -1.3325
 2568SOL    HW310039   3.138   4.147   2.286 -1.3281 -0.8949 -1.0416
 2568SOL    MW410040   3.099   4.216   2.250 -0.0269  0.1928 -0.4649
 2569SOL     OW10041   3.355   0.248   3.234  0.6672 -0.1022  0.3716
 2569SOL    HW210042   3.351   0.303   3.312 -0.1670 -0.1389  0.3573
 2569SOL    HW310043   3.448   0.244   3.213  0.8693  0.1910  1.1639
 2569SOL    MW410044   3.367   0.255   3.242  0.5838 -0.0684  0.4743
 2570SOL     OW10045   3.035   5.616   0.554 -0.4601  0.2063 -0.4448
 2570SOL    HW210046   2.975   5.690   0.547  0.4691  0.9654 -0.6959
 2570SOL    HW310047   2.980   5.541   0.577 -1.2390  1.2749  1.3582
 2570SOL    MW410048   3.020   5.616   0.556 -0.4402  0.4474 -0.2400
 2571SOL     OW10049   2.940   1.844   3.865 -0.4651  0.9351  0.3001
 2571SOL    HW210050   2.935   1.859   3.959  1.6727 -0.1849  0.6610
 2571SOL    HW310051   2.857   1.803   3.842 -0.8661  0.8788  1.7550
 2571SOL    MW410052   2.929   1.841   3.874 -0.2359  0.7799  0.5397
 2572SOL     OW10053   2.776   2.160   4.345 -0.0395  0.2162 -0.0869
 2572SOL    HW210054   2.690   2.118   4.355  0.3422 -0.8777 -1.0700
 2572SOL    HW310055   2.763   2.250   4.373 -1.1040 -0.3551  1.3659
 2572SOL    MW410056   2.763   2.166   4.350 -0.1296 -0.0035 -0.0249
 2573SOL     OW10057   3.677   3.656   2.018 -0.1715 -0.2017  0.6249
 2573SOL    HW210058   3.669   3.750   2.035 -1.7695 -0.1975 -0.0597
 2573SOL    HW310059   3.683   3.616   2.105 -1.7225  0.3545  1.0045
 2573SOL    MW410060   3.677   3.663   2.032 -0.5869 -0.1278  0.5847
 2574SOL     OW10061   2.815   5.983   5.250 -0.2832 -1.2596  0.0753
 2574SOL    HW210062   2.863   5.908   5.214  1.4403 -0.1821  0.0314
 2574SOL    HW310063   2.775   6.024   5.174  2.6256  0.4959 -0.6727
 2574SOL    MW410064   2.816   5.979   5.235  0.3280 -0.8858 -0.0292
 2575SOL     OW10065   3.902   5.951   0.659 -0.4142 -0.1391 -0.5391
 2575SOL    HW210066   3.988   5.910   0.647 -1.0631 -1.5106 -0.8074
 2575SOL    HW310067   3.891   5.956   0.754  0.4554  1.2023 -0.4807
 2575SOL    MW410068   3.912   5.946   0.670 -0.3851 -0.1431 -0.5668
 2576SOL     OW10069   5.428   5.048   4.727 -0.5239 -0.8848  0.0438
 2576SOL    HW210070   5.385   4.967   4.756  0.2539 -1.4167 -0.2546
 2576SOL    HW310071   5.479   5.022   4.651  0.3284 -0.2702  0.3862
 2576SOL    MW410072   5.429   5.034   4.721 -0.3088 -0.8739  0.0496
 2577SOL     OW10073   4.019   0.271   1.536  0.2348 -0.8222 -0.5557
 2577SOL    HW210074   3.943   0.309   1.580 -1.3437 -2.7792 -1.4734
 2577SOL    HW310075   4.057   0.211   1.600 -0.0677 -1.1864 -0.7185
 2577SOL    MW410076   4.014   0.268   1.550 -0.0134 -1.1285 -0.6983
 2578SOL     OW10077   4.946   3.874   1.240 -0.2189  0.5090  0.2735
 2578SOL    HW210078   4.917   3.962   1.265 -2.3106  0.0951 -0.4972
 2578SOL    HW310079   4.866   3.822   1.238  1.0100 -1.5272  1.0221
 2578SOL    MW410080   4.932   3.879   1.243 -0.3327  0.1857  0.2706
 2579SOL     OW10081   1.601   4.747   0.334 -0.4938 -0.5625  0.4544
 2579SOL    HW210082   1.545   4.809   0.288 -0.1804 -1.1221 -0.7389
 2579SOL    HW310083   1.690   4.777   0.316 -0.3609 -0.9323  0.4852
 2579SOL    MW410084   1.605   4.759   0.325 -0.4349 -0.6851  0.3010
 2580SOL     OW10085   3.005   1.968   2.848 -0.0781 -0.2943  0.2868
 2580SOL    HW210086   3.086   1.953   2.799 -0.2935 -0.8067  0.0804
 2580SOL    HW310087   3.028   2.035   2.912 -0.1316  1.3978 -1.3765
 2580SOL    MW410088   3.018   1.975   2.850 -0.1136 -0.1386  0.0401
 2581SOL     OW10089   1.873   5.716   5.729 -0.2995 -0.8384 -0.1617
 2581SOL    HW210090   1.865   5.738   5.821  2.0985 -1.8866  0.3861
 2581SOL    HW310091   1.788   5.679   5.705 -1.9246  1.9159  0.8027
 2581SOL    MW410092   1.861   5.714   5.738 -0.1976 -0.6133  0.0378
 2582SOL     OW10093   3.572   2.649   4.123  0.5746 -0.5099 -0.5028
 2582SOL    HW210094   3.531   2.718   4.071  0.5815  0.8191  1.1591
 2582SOL    HW310095   3.506   2.581   4.129 -1.6697  1.6903  2.3404
 2582SOL    MW410096   3.558   2.649   4.117  0.2794 -0.0442  0.0916
 2583SOL     OW10097   5.492   2.694   2.466 -0.2628  0.0969  0.5756
 2583SOL    HW210098   5.427   2.764   2.457 -1.0905 -0.4799  1.9120
 2583SOL    HW310099   5.447   2.615   2.437 -0.5091 -0.4700  2.4050
 2583SOL    MW410100   5.478   2.693   2.461 -0.4045 -0.0540  0.9933
 2584SOL     OW10101   2.724   3.343   1.332  0.3851 -0.4195 -0.2960
 2584SOL    HW210102   2.715   3.412   1.398  2.1080 -0.8458  0.4486
 2584SOL    HW310103   2.635   3.314   1.315 -0.4366  2.1629 -0.8603
 2584SOL    MW410104   2.711   3.348   1.338  0.5040 -0.1350 -0.2722
 2585SOL     OW10105   0.898   3.643   1.142 -0.0037 -0.4514 -0.0975
 2585SOL    HW210106   0.844   3.659   1.219 -0.1399  0.4943 -0.3777
 2585SOL    HW310107   0.844   3.588   1.086  0.4596 -1.9462  0.8734
 2585SOL    MW410108   0.884   3.638   1.145  0.0394 -0.5238 -0.0064
 2586SOL     OW10109   1.092   2.933   3.101  0.6117 -0.6127  0.3553
 2586SOL    HW210110   1.061   2.981   3.177  1.3156 -0.5615  0.6114
 2586SOL    HW310111   1.069   2.842   3.119 -0.2067 -0.4637  0.1252
 2586SOL    MW410112   1.085   2.927   3.113  0.5966 -0.5863  0.3587
 2587SOL     OW10113   0.488   2.714   6.386 -0.2489  0.0535 -0.8378
 2587SOL    HW210114   0.435   2.644   6.424  1.2013 -0.9986 -0.6932
 2587SOL    HW310115   0.515   2.767   6.461  0.1488 -0.2840 -0.7436
 2587SOL    MW410116   0.485   2.712   6.401 -0.0051 -0.1298 -0.8063
 2588SOL     OW10117   3.420   5.389   0.498  0.1345  0.3323 -0.8281
 2588SOL    HW210118   3.441   5.352   0.584  0.0923  0.9091 -0.5704
 2588SOL    HW310119   3.368   5.467   0.517 -0.9267 -0.2061 -1.4184
 2588SOL    MW410120   3.416   5.394   0.512 -0.0111  0.3373 -0.8720
 2589SOL     OW10121   0.554   1.397   0.235 -0.3323 -0.2006 -0.1918
 2589SOL    HW210122   0.597   1.478   0.260 -2.3702  0.4246  1.5523
 2589SOL    HW310123   0.495   1.423   0.164 -1.1345 -0.0979  0.5055
 2589SOL    MW410124   0.552   1.411   0.229 -0.7070 -0.1046  0.1303
 2590SOL     OW10125   4.133   0.746   1.072 -0.0201 -0.0846  0.4312
 2590SOL    HW210126   4.067   0.748   1.141 -1.3806 -1.5151 -0.7404
 2590SOL    HW310127   4.098   0.684   1.007  0.8264  1.6877 -1.8722
 2590SOL    MW410128   4.119   0.738   1.072 -0.0879 -0.0395 -0.0273
 2591SOL     OW10129   2.904   5.405   0.645  0.0965  0.1879 -0.7533
 2591SOL    HW210130   2.815   5.397   0.679 -0.1800 -0.9696 -1.6842
 2591SOL    HW310131   2.934   5.315   0.635  2.3368  0.5016  1.8837
 2591SOL    MW410132   2.896   5.392   0.648  0.3556  0.0765 -0.5282
 2592SOL     OW10133   1.897   5.800   6.006  0.3331 -0.5083  0.0285
 2592SOL    HW210134   1.920   5.882   6.051 -0.7609 -0.3978  0.4252
 2592SOL    HW310135   1.836   5.756   6.066 -0.8614 -0.5410 -1.1550
 2592SOL    MW410136   1.892   5.805   6.020  0.0311 -0.4980 -0.0753
 2593SOL     OW10137   4.364   5.682   6.138  0.2768 -0.4195 -0.3420
 2593SOL    HW210138   4.290   5.685   6.198  1.0654  2.4875  0.6467
 2593SOL    HW310139   4.431   5.631   6.184 -0.2101 -0.9023 -0.1564
 2593SOL    MW410140   4.363   5.675   6.152  0.3166 -0.0997 -0.1871
 2594SOL     OW10141   3.141   3.516   4.471  0.3557  0.1181 -0.2093
 2594SOL    HW210142   3.113   3.424   4.470 -0.3048  0.2433  1.6009
 2594SOL    HW310143   3.064   3.564   4.441  0.8104  0.0832 -1.4794
 2594SOL    MW410144   3.127   3.510   4.467  0.3286  0.1300 -0.1380
 2595SOL     OW10145   2.276   3.504   3.058 -0.0395  0.4551  0.2403
 2595SOL    HW210146   2.342   3.543   3.001 -1.0152  1.0275 -0.5529
 2595SOL    HW310147   2.194   3.514   3.008 -0.7612  0.0479  1.3180
 2595SOL    MW410148   2.274   3.511   3.044 -0.2634  0.4769  0.2778
 2596SOL     OW10149   0.999   3.245   2.340  0.1256 -0.0623 -0.1373
 2596SOL    HW210150   0.954   3.317   2.384 -2.5154 -1.4716 -0.3731
 2596SOL    HW310151   1.057   3.209   2.408 -2.4657 -0.9859  1.7641
 2596SOL    MW410152   1.001   3.249   2.355 -0.5647 -0.3701  0.0824
 2597SOL     OW10153   0.691   4.233   1.351  0.5947  0.1595  0.1426
 2597SOL    HW210154   0.628   4.165   1.326 -2.2327  1.8747  2.0094
 2597SOL    HW310155   0.763   4.184   1.392 -0.8694 -1.7845  0.5668
 2597SOL    MW410156   0.692   4.217   1.353  0.0285  0.1293  0.4449
 2598SOL     OW10157   2.806   4.601   4.897  0.0066 -0.4711  0.3122
 2598SOL    HW210158   2.752   4.677   4.874 -0.9269 -0.5689  2.0212
 2598SOL    HW310159   2.881   4.606   4.837 -0.6855  1.0503 -0.4822
 2598SOL    MW410160   2.809   4.612   4.886 -0.2079 -0.2833  0.4329
 2599SOL     OW10161   5.205   5.613   1.321 -0.5007  0.3621 -0.0634
 2599SOL    HW210162   5.121   5.633   1.362 -1.3319  0.3931 -1.6887
 2599SOL    HW310163   5.210   5.672   1.246  0.5885 -0.2230 -0.4789
 2599SOL    MW410164   5.195   5.624   1.316 -0.4667  0.2890 -0.3326
 2600SOL     OW10165   4.317   3.563   5.751 -0.5902  0.2671  0.2142
 2600SOL    HW210166   4.296   3.630   5.686 -0.8590  1.7889  1.8190
 2600SOL    HW310167   4.236   3.551   5.800 -0.6472 -1.5035 -0.2381
 2600SOL    MW410168   4.303   3.570   5.749 -0.6332  0.2342  0.3663
 2601SOL     OW10169   3.934   1.731   4.410 -0.0313  0.3554  0.4163
 2601SOL    HW210170   3.911   1.744   4.318 -0.2045  0.6118  0.4946
 2601SOL    HW310171   3.992   1.655   4.410 -1.6324 -0.9227  0.3141
 2601SOL    MW410172   3.939   1.723   4.398 -0.2654  0.2206  0.4132
 2602SOL     OW10173   0.579   2.641   4.024 -0.2144  0.2472  0.3062
 2602SOL    HW210174   0.599   2.616   3.934 -0.7025  1.0870 -0.0478
 2602SOL    HW310175   0.546   2.731   4.018  1.1569  0.8880  1.4789
 2602SOL    MW410176   0.577   2.650   4.012 -0.0979  0.4426  0.4142
 2603SOL     OW10177   2.870   0.075   0.332  0.5245  0.3666  0.0052
 2603SOL    HW210178   2.962   0.092   0.356  0.4572  0.3248  0.3023
 2603SOL    HW310179   2.866   0.092   0.238  0.3704  2.3851  0.3316
 2603SOL    MW410180   2.882   0.079   0.323  0.4953  0.6274  0.0874
 2604SOL     OW10181   0.594   3.003   3.537 -0.2333  0.0413  0.0197
 2604SOL    HW210182   0.643   3.059   3.477 -0.0481 -0.6060 -0.4463
 2604SOL    HW310183   0.655   2.933   3.560 -0.4975 -0.0312  0.5062
 2604SOL    MW410184   0.608   3.001   3.532 -0.2437 -0.0537  0.0224
 2605SOL     OW10185   4.456   2.741   2.797 -0.0017  0.1074 -0.3798
 2605SOL    HW210186   4.404   2.696   2.730 -0.6637 -1.9902  1.4137
 2605SOL    HW310187   4.393   2.760   2.867  0.4985  2.9720 -0.5855
 2605SOL    MW410188   4.441   2.738   2.797 -0.0230  0.2086 -0.1703
 2606SOL     OW10189   6.384   3.360   1.321  0.3814  0.3009  0.8387
 2606SOL    HW210190   6.440   3.287   1.348 -0.5795 -0.6653  0.2768
 2606SOL    HW310191   6.297   3.322   1.314 -0.0520  1.3941  0.0514
 2606SOL    MW410192   6.380   3.345   1.324  0.1974  0.3177  0.6607
 2607SOL     OW10193   6.302   1.794   0.203 -0.3222  0.2709  0.2982
 2607SOL    HW210194   6.221   1.845   0.208 -1.1514 -1.0959  1.9548
 2607SOL    HW310195   6.308   1.751   0.289  2.7128  1.1350  0.6408
 2607SOL    MW410196   6.292   1.795   0.215 -0.0312  0.2046  0.5619
 2608SOL     OW10197   2.040   1.323   2.033 -0.1062 -0.0760  0.4532
 2608SOL    HW210198   1.990   1.242   2.018 -0.6849  0.2294  0.7077
 2608SOL    HW310199   2.076   1.312   2.121 -0.4303  0.0673  0.6057
 2608SOL    MW410200   2.038   1.311   2.043 -0.2253 -0.0168  0.5069
 2609SOL     OW10201   0.970   4.344   3.202 -0.0196  0.2632 -0.1198
 2609SOL    HW210202   0.934   4.256   3.193  3.7381 -1.4626 -0.4783
 2609SOL    HW310203   0.962   4.383   3.115  1.1138 -1.0309 -0.8349
 2609SOL    MW410204   0.964   4.338   3.189  0.6257 -0.1353 -0.2615
 2610SOL     OW10205   2.618   5.079   4.922  0.3908  0.3320  0.6257
 2610SOL    HW210206   2.532   5.060   4.959 -0.0557  1.0910  0.0077
 2610SOL    HW310207   2.637   5.169   4.948  0.6685  0.4208  0.1470
 2610SOL    MW410208   2.609   5.089   4.930  0.3685  0.4438  0.4810
 2611SOL     OW10209   4.835   1.861   0.014  0.7269  0.3777  0.0106
 2611SOL    HW210210   4.744   1.833   0.016  0.3801  1.3403 -1.0684
 2611SOL    HW310211   4.881   1.798   0.068 -0.7053  0.3353  1.2307
 2611SOL    MW410212   4.829   1.849   0.021  0.4922  0.4991  0.0292
 2612SOL     OW10213   1.689   1.164   0.967  0.0091 -0.4367 -0.0868
 2612SOL    HW210214   1.628   1.207   1.027  0.2108  1.0619 -0.9031
 2612SOL    HW310215   1.761   1.227   0.957  0.2053 -0.8521 -1.5064
 2612SOL    MW410216   1.691   1.178   0.974  0.0616 -0.2938 -0.3818
 2613SOL     OW10217   2.362   2.307   1.745 -0.4070  0.1359 -0.5034
 2613SOL    HW210218   2.362   2.240   1.676  0.5826 -1.8964  1.3594
 2613SOL    HW310219   2.453   2.314   1.772 -0.9738 -0.4251  1.7670
 2613SOL    MW410220   2.374   2.299   1.739 -0.3512 -0.2062  0.0419
 2614SOL     OW10221   2.862   3.662   4.038 -0.0676  0.2531 -0.5596
 2614SOL    HW210222   2.772   3.656   4.009 -0.8702  0.4857  1.6789
 2614SOL    HW310223   2.887   3.753   4.020 -0.6480  0.4759 -0.2811
 2614SOL    MW410224   2.854   3.673   4.032 -0.2500  0.3132 -0.2275
 2615SOL     OW10225   4.938   0.191   1.542  0.2443 -0.2897  0.5348
 2615SOL    HW210226   4.982   0.261   1.494  1.5650 -0.1875  1.8150
 2615SOL    HW310227   4.982   0.111   1.513 -1.4377 -0.6566 -1.1205
 2615SOL    MW410228   4.950   0.189   1.532  0.1966 -0.3246  0.4853
 2616SOL     OW10229   0.052   2.131   5.853  0.1178 -0.3755  0.0652
 2616SOL    HW210230   0.011   2.217   5.849  1.2474  0.5182  3.6511
 2616SOL    HW310231  -0.015   2.074   5.891  0.1100 -0.5098 -0.1490
 2616SOL    MW410232   0.038   2.135   5.857  0.2658 -0.2753  0.5101
 2617SOL     OW10233   3.213   4.020   2.414 -0.8284  0.2449 -0.2746
 2617SOL    HW210234   3.139   3.970   2.380 -1.1160  0.0037  0.6781
 2617SOL    HW310235   3.287   3.960   2.410  0.0529  1.3016 -3.8343
 2617SOL    MW410236   3.213   4.006   2.409 -0.7501  0.3525 -0.6186
 2618SOL     OW10237   5.305   1.498   2.644 -0.2247  0.2510 -0.3206
 2618SOL    HW210238   5.255   1.432   2.595  0.6516  0.4866 -1.5847
 2618SOL    HW310239   5.338   1.558   2.577  0.4260  0.9943  0.6355
 2618SOL    MW410240   5.303   1.497   2.629 -0.0232  0.3802 -0.3612
 2619SOL     OW10241   0.136   6.386   1.153  0.0940  0.3255  0.0388
 2619SOL    HW210242   0.217   6.430   1.179 -0.0705  0.4223  0.3894
 2619SOL    HW310243   0.125   6.315   1.216  0.6628 -0.5883 -0.8700
 2619SOL    MW410244   0.145   6.383   1.164  0.1474  0.2177 -0.0349
 2620SOL     OW10245   3.364   1.829   0.922 -0.0970  0.0867 -0.0586
 2620SOL    HW210246   3.416   1.851   0.845 -1.4468  0.8380 -0.7823
 2620SOL    HW310247   3.370   1.906   0.978 -0.1107  0.0141  0.0449
 2620SOL    MW410248   3.372   1.842   0.919 -0.2769  0.1762 -0.1404
 2621SOL     OW10249   3.422   0.807   2.157  0.2129  0.3607  0.0821
 2621SOL    HW210250   3.359   0.743   2.127  1.1033 -0.5841  0.1811
 2621SOL    HW310251   3.494   0.755   2.193  0.9458  1.4124  0.1774
 2621SOL    MW410252   3.423   0.792   2.158  0.4271  0.3748  0.1077
 2622SOL     OW10253   2.449   3.758   3.527 -0.3668 -0.0093  0.0275
 2622SOL    HW210254   2.428   3.698   3.455  0.6018  0.4499 -0.6527
 2622SOL    HW310255   2.425   3.709   3.606  1.1730 -1.6516 -0.4552
 2622SOL    MW410256   2.443   3.744   3.528 -0.0358 -0.1654 -0.1259
 2623SOL     OW10257   1.012   2.237   4.790 -0.1915  0.1493 -0.4429
 2623SOL    HW210258   1.002   2.200   4.702 -2.2906 -0.7524  0.1118
 2623SOL    HW310259   0.939   2.299   4.799 -0.1262  0.0871  0.7090
 2623SOL    MW410260   1.001   2.240   4.780 -0.4598  0.0221 -0.2177
 2624SOL     OW10261   6.315   0.116   0.244 -0.1312 -0.3666 -0.0814
 2624SOL    HW210262   6.409   0.136   0.250  0.2712 -2.3818  1.3999
 2624SOL    HW310263   6.273   0.176   0.305  0.3476 -0.2463  0.1313
 2624SOL    MW410264   6.322   0.126   0.253 -0.0149 -0.6166  0.1421
 2625SOL     OW10265   1.509   0.759   5.942 -0.0291  0.1406  0.0873
 2625SOL    HW210266   1.427   0.776   5.989  0.3595 -0.0313  0.8405
 2625SOL    HW310267   1.558   0.840   5.949  0.0331  0.1113 -0.0118
 2625SOL    MW410268   1.505   0.772   5.950  0.0304  0.1141  0.1736
 2626SOL     OW10269   3.771   2.611   3.190  0.4955 -0.4508  0.0970
 2626SOL    HW210270   3.751   2.572   3.105  0.0252  1.1482 -0.5731
 2626SOL    HW310271   3.686   2.637   3.226  0.6788 -1.2304  1.1366
 2626SOL    MW410272   3.757   2.609   3.184  0.4576 -0.3427  0.1458
 2627SOL     OW10273   2.408   2.810   3.785  0.0029 -0.1552  1.0996
 2627SOL    HW210274   2.499   2.823   3.756 -0.7349  0.8493 -0.9666
 2627SOL    HW310275   2.393   2.716   3.773  1.0120 -0.5065  2.3464
 2627SOL    MW410276   2.418   2.799   3.779  0.0387 -0.0690  0.9915
 2628SOL     OW10277   0.552   5.775   4.034  0.7252  0.1243  0.1358
 2628SOL    HW210278   0.481   5.838   4.048 -0.2838 -0.7255 -0.9533
 2628SOL    HW310279   0.630   5.830   4.025  0.1095  1.1280  0.6241
 2628SOL    MW410280   0.553   5.791   4.035  0.5108  0.1446  0.0565
 2629SOL     OW10281   3.733   5.292   0.022 -0.0949 -0.5855  0.0087
 2629SOL    HW210282   3.676   5.250   0.086  1.0411  0.1868  1.6092
 2629SOL    HW310283   3.819   5.294   0.065  0.8980 -0.7616 -1.8840
 2629SOL    MW410284   3.737   5.287   0.036  0.1860 -0.5068 -0.0299
 2630SOL     OW10285   4.480   3.685   5.425 -0.2665  0.0826  0.0223
 2630SOL    HW210286   4.478   3.767   5.376  0.8920 -0.6095 -1.2499
 2630SOL    HW310287   4.424   3.625   5.374 -0.2145 -0.2418  0.3389
 2630SOL    MW410288   4.472   3.688   5.412 -0.1068 -0.0515 -0.1038
 2631SOL     OW10289   4.015   3.869   5.124 -0.3716 -0.0818 -0.1223
 2631SOL    HW210290   4.040   3.776   5.121  0.2302  0.1081 -1.2567
 2631SOL    HW310291   4.076   3.912   5.065  0.9519  1.4401  2.2049
 2631SOL    MW410292   4.027   3.862   5.116 -0.1175  0.1441  0.0351
 2632SOL     OW10293   0.541   0.645   1.897  0.0993 -0.0230  0.1857
 2632SOL    HW210294   0.479   0.612   1.832  1.0819 -0.8013 -0.3726
 2632SOL    HW310295   0.627   0.631   1.859  0.7980 -1.9316  2.2716
 2632SOL    MW410296   0.544   0.639   1.883  0.3211 -0.3775  0.3872
 2633SOL     OW10297   1.828   4.984   4.576  0.4869 -0.3614 -0.4689
 2633SOL    HW210298   1.861   5.069   4.602  1.7207 -0.3183 -2.0272
 2633SOL    HW310299   1.733   4.990   4.588  0.7566  0.3479  1.7757
 2633SOL    MW410300   1.820   4.996   4.581  0.6853 -0.2621 -0.3783
 2634SOL     OW10301   2.851   5.836   0.096  0.0497 -0.2376  0.0890
 2634SOL    HW210302   2.787   5.880   0.153 -0.9790 -2.7242  1.0247
 2634SOL    HW310303   2.933   5.840   0.145 -0.9978 -3.0930  2.3773
 2634SOL    MW410304   2.853   5.843   0.110 -0.2242 -0.9424  0.5143
 2635SOL     OW10305   5.886   5.669   5.843 -0.3231 -0.0573  0.0761
 2635SOL    HW210306   5.852   5.611   5.912 -2.6609  0.0108 -0.9357
 2635SOL    HW310307   5.839   5.752   5.857  0.0215  0.3130 -0.9218
 2635SOL    MW410308   5.875   5.672   5.854 -0.5860  0.0005 -0.1891
 2636SOL     OW10309   1.047   2.265   0.141  0.3526 -0.0739  0.1000
 2636SOL    HW210310   1.004   2.187   0.176  0.4177 -1.3781 -2.4405
 2636SOL    HW310311   1.002   2.339   0.182 -0.1070 -1.4273  2.1406
 2636SOL    MW410312   1.036   2.265   0.151  0.3005 -0.4245  0.0341
 2637SOL     OW10313   6.155   0.267   3.420  0.5070  0.7161  0.0879
 2637SOL    HW210314   6.062   0.278   3.401  0.1611 -1.1050  0.5104
 2637SOL    HW310315   6.190   0.224   3.342  0.6663  0.0643  0.5103
 2637SOL    MW410316   6.147   0.263   3.407  0.4824  0.3899  0.1994
 2638SOL     OW10317   4.012   2.207   2.399  0.7700  0.0185 -0.1567
 2638SOL    HW210318   4.066   2.159   2.461  1.6194  0.0160 -0.8766
 2638SOL    HW310319   3.949   2.254   2.454 -0.3834 -2.2176  0.5431
 2638SOL    MW410320   4.011   2.207   2.414  0.7299 -0.2769 -0.1594
 2639SOL     OW10321   0.035   2.171   3.501 -0.3408  0.6588 -0.8536
 2639SOL    HW210322   0.082   2.231   3.444 -0.8601  0.2732 -1.7172
 2639SOL    HW310323  -0.033   2.133   3.445  1.0053 -2.0045 -0.8706
 2639SOL    MW410324   0.032   2.174   3.486 -0.2317  0.2566 -0.9698
 2640SOL     OW10325   5.344   5.102   2.082 -0.2574 -0.1655 -0.2552
 2640SOL    HW210326   5.333   5.010   2.109  0.4269 -0.2749 -0.3432
 2640SOL    HW310327   5.353   5.150   2.165 -0.0748 -0.2488 -0.2262
 2640SOL    MW410328   5.344   5.096   2.097 -0.1430 -0.1909 -0.2630
 2641SOL     OW10329   6.417   6.014   5.534 -0.4714  0.0219 -0.2058
 2641SOL    HW210330   6.442   6.044   5.447 -1.0544  0.4113 -0.2409
 2641SOL    HW310331   6.386   6.092   5.579 -0.0969 -0.1580  0.3866
 2641SOL    MW410332   6.416   6.028   5.529 -0.4989  0.0495 -0.1323
 2642SOL     OW10333   1.921   0.393   3.670  0.3726 -0.1015  0.4378
 2642SOL    HW210334   1.982   0.467   3.667  0.0793  0.2281  2.0136
 2642SOL    HW310335   1.841   0.427   3.630  0.4057  0.2665  0.6829
 2642SOL    MW410336   1.919   0.407   3.664  0.3383 -0.0095  0.6780
 2643SOL     OW10337   6.320   0.339   3.145  0.8007 -0.0663 -0.2444
 2643SOL    HW210338   6.235   0.332   3.102 -0.8001 -1.1832  2.7877
 2643SOL    HW310339   6.383   0.347   3.073 -1.8491  1.3674 -2.6005
 2643SOL    MW410340   6.317   0.339   3.130  0.2398 -0.0245 -0.1552
 2644SOL     OW10341   0.019   3.905   0.003 -0.0268  0.7595 -0.0912
 2644SOL    HW210342   0.102   3.858  -0.010  0.1478  1.3645 -1.2595
 2644SOL    HW310343  -0.045   3.836   0.022  0.4225  0.1297 -0.8186
 2644SOL    MW410344   0.022   3.890   0.004  0.0555  0.7562 -0.3413
 2645SOL     OW10345   3.678   1.772   1.729 -0.0134 -0.2130  0.0174
 2645SOL    HW210346   3.740   1.779   1.802 -1.2920 -0.0152  1.1272
 2645SOL    HW310347   3.639   1.685   1.739 -0.5878  0.0229 -0.0825
 2645SOL    MW410348   3.681   1.762   1.740 -0.2579 -0.1558  0.1507
 2646SOL     OW10349   1.821   0.038   4.309  0.6019 -0.0423  0.2914
 2646SOL    HW210350   1.846   0.129   4.297  0.4621  0.1297  1.1871
 2646SOL    HW310351   1.900  -0.012   4.287  0.1751  0.1559 -1.9227
 2646SOL    MW410352   1.835   0.043   4.305  0.5271  0.0066  0.1175
 2647SOL     OW10353   3.221   4.694   4.876 -0.1957  0.0550 -0.1517
 2647SOL    HW210354   3.237   4.612   4.922  1.3400  0.0675 -0.5846
 2647SOL    HW310355   3.202   4.757   4.945 -0.3487 -0.4416  0.2655
 2647SOL    MW410356   3.221   4.692   4.891 -0.0133 -0.0089 -0.1538
 2648SOL     OW10357   2.292   1.839   2.276  0.3587  0.5390 -0.3229
 2648SOL    HW210358   2.288   1.744   2.265 -0.5589  0.4727  0.3809
 2648SOL    HW310359   2.214   1.871   2.231 -0.2749  0.7791  0.8849
 2648SOL    MW410360   2.281   1.830   2.269  0.1540  0.5619 -0.0707
 2649SOL     OW10361   0.440   3.437   0.876 -0.2490 -0.0205 -0.2803
 2649SOL    HW210362   0.375   3.437   0.947 -1.1681 -0.5840 -1.1039
 2649SOL    HW310363   0.396   3.482   0.804  0.1197 -0.7696 -0.9864
 2649SOL    MW410364   0.426   3.443   0.876 -0.3216 -0.1937 -0.4821
 2650SOL     OW10365   3.596   3.293   1.838 -0.1497 -0.5963 -0.1965
 2650SOL    HW210366   3.623   3.259   1.752 -2.5906 -3.1967 -0.1273
 2650SOL    HW310367   3.649   3.244   1.901  0.0003 -0.4400 -0.2039
 2650SOL    MW410368   3.606   3.282   1.835 -0.4520 -0.9188 -0.1884
 2651SOL     OW10369   0.823   3.749   0.223 -0.2227  0.1467 -0.4639
 2651SOL    HW210370   0.772   3.735   0.303 -1.3930  0.3539 -1.1530
 2651SOL    HW310371   0.762   3.729   0.152 -0.0078  2.3927 -1.3646
 2651SOL    MW410372   0.808   3.745   0.224 -0.3487  0.4704 -0.6737
 2652SOL     OW10373   4.898   4.273   3.170  0.5017 -0.3881  0.1098
 2652SOL    HW210374   4.889   4.351   3.225 -3.1582 -1.6811  1.6604
 2652SOL    HW310375   4.889   4.200   3.231  0.0189 -1.9632 -1.7711
 2652SOL    MW410376   4.896   4.274   3.186 -0.0449 -0.7665  0.0662
 2653SOL     OW10377   4.917   5.638   4.928 -0.1523  0.0699 -0.0652
 2653SOL    HW210378   4.875   5.722   4.912  0.5693  0.0523 -2.3375
 2653SOL    HW310379   4.999   5.660   4.972 -0.1553  0.5144 -0.2818
 2653SOL    MW410380   4.922   5.652   4.932 -0.0575  0.1262 -0.3936
 2654SOL     OW10381   4.680   6.327   1.108 -0.4165  0.2610  0.4348
 2654SOL    HW210382   4.594   6.326   1.065  0.9071 -1.0177 -2.4974
 2654SOL    HW310383   4.700   6.420   1.121 -1.3194  0.6831 -0.9428
 2654SOL    MW410384   4.671   6.339   1.104 -0.3610  0.1480 -0.1338
 2655SOL     OW10385   5.188   0.224   4.038  0.2928 -0.3462 -0.1453
 2655SOL    HW210386   5.126   0.236   3.966  0.2090  2.0829  0.2480
 2655SOL    HW310387   5.271   0.258   4.004  1.1345 -2.3305 -0.2073
 2655SOL    MW410388   5.191   0.230   4.024  0.3928 -0.2876 -0.1016
 2656SOL     OW10389   6.116   0.852   0.280 -0.0778  0.0404 -0.1344
 2656SOL    HW210390   6.076   0.785   0.335  0.9007 -1.6627 -1.3886
 2656SOL    HW310391   6.080   0.837   0.193  1.8044 -0.3526 -0.9011
 2656SOL    MW410392   6.106   0.841   0.276  0.2996 -0.2361 -0.4010
 2657SOL     OW10393   2.260   6.342   6.285 -0.0504  0.6314 -0.4992
 2657SOL    HW210394   2.272   6.357   6.191 -2.4755 -0.9690 -1.1911
 2657SOL    HW310395   2.232   6.250   6.290 -0.5417  0.8603  1.7119
 2657SOL    MW410396   2.258   6.332   6.273 -0.4352  0.4505 -0.2987
 2658SOL     OW10397   5.959   2.869   4.455 -0.1129 -0.5275  0.0989
 2658SOL    HW210398   6.009   2.928   4.512  1.0462 -0.9675 -0.4275
 2658SOL    HW310399   6.021   2.799   4.433 -1.0235 -1.1833 -0.4420
 2658SOL    MW410400   5.974   2.867   4.459 -0.0801 -0.6721 -0.0419
 2659SOL     OW10401   5.901   1.342   1.385 -0.0626 -0.5761  0.0587
 2659SOL    HW210402   5.884   1.434   1.402  2.2671 -0.2041  0.7628
 2659SOL    HW310403   5.953   1.342   1.304 -1.0217 -1.3911 -0.5804
 2659SOL    MW410404   5.906   1.354   1.377  0.1182 -0.6345  0.0673
 2660SOL     OW10405   6.168   4.163   5.181  0.1172 -0.3186  0.0595
 2660SOL    HW210406   6.167   4.235   5.244 -0.2798  0.0699 -0.3762
 2660SOL    HW310407   6.089   4.177   5.128  0.6753 -0.3646 -0.8089
 2660SOL    MW410408   6.157   4.175   5.182  0.1385 -0.2734 -0.1125
 2661SOL     OW10409   4.254   3.610   3.288 -0.5237  0.1147  0.4125
 2661SOL    HW210410   4.190   3.584   3.354  1.3866  0.5677  2.5771
 2661SOL    HW310411   4.236   3.702   3.272 -0.8574  0.0586  0.4606
 2661SOL    MW410412   4.243   3.619   3.295 -0.3157  0.1670  0.7045
 2662SOL     OW10413   5.103   1.523   3.424 -0.0578  0.0261  0.0779
 2662SOL    HW210414   5.047   1.528   3.346 -1.6070 -0.2265  1.1334
 2662SOL    HW310415   5.043   1.536   3.497  0.5833 -3.6185  1.4644
 2662SOL    MW410416   5.087   1.525   3.423 -0.1776 -0.4881  0.4001
 2663SOL     OW10417   1.583   2.482   0.932 -0.0066  0.3302 -0.4906
 2663SOL    HW210418   1.658   2.422   0.929 -0.9303 -0.8506 -1.0118
 2663SOL    HW310419   1.553   2.486   0.841 -1.1606 -0.0136 -0.1421
 2663SOL    MW410420   1.589   2.474   0.919 -0.2808  0.1290 -0.5134
 2664SOL     OW10421   4.787   2.869   1.235 -0.2335  0.2247 -0.6977
 2664SOL    HW210422   4.731   2.797   1.261  0.4713 -0.6440 -1.5060
 2664SOL    HW310423   4.871   2.828   1.213  0.5448  1.4196 -0.0821
 2664SOL    MW410424   4.791   2.854   1.235 -0.0378  0.2677 -0.7232
 2665SOL     OW10425   4.216   6.348   4.823 -0.5734  0.6426  0.2570
 2665SOL    HW210426   4.212   6.254   4.841 -2.6600  0.6830  0.2493
 2665SOL    HW310427   4.163   6.388   4.892 -1.9936  1.5490 -1.2977
 2665SOL    MW410428   4.209   6.341   4.834 -1.0361  0.7676  0.0509
 2666SOL     OW10429   0.633   2.586   6.167  0.0016  0.7340 -0.1428
 2666SOL    HW210430   0.589   2.610   6.249 -1.2539 -2.7342  0.3643
 2666SOL    HW310431   0.704   2.528   6.194 -0.7675 -0.8874 -1.4881
 2666SOL    MW410432   0.636   2.582   6.182 -0.2655  0.0625 -0.2534
 2667SOL     OW10433   4.722   4.842   4.549  0.2870  0.2435 -0.4352
 2667SOL    HW210434   4.772   4.907   4.502 -1.0233  0.6873 -1.2692
 2667SOL    HW310435   4.787   4.795   4.602  1.7275  0.1226 -2.1985
 2667SOL    MW410436   4.737   4.844   4.550  0.3042  0.2861 -0.7779
 2668SOL     OW10437   0.121   4.045   2.327 -0.0652  0.2678  0.1383
 2668SOL    HW210438   0.137   4.057   2.421  1.8116 -0.0673 -0.0983
 2668SOL    HW310439   0.208   4.032   2.290 -0.7355  0.8812 -1.7348
 2668SOL    MW410440   0.135   4.045   2.335  0.0940  0.3046 -0.1400
 2669SOL     OW10441   4.065   1.019   4.500 -0.1093  0.0691 -0.2606
 2669SOL    HW210442   4.128   1.041   4.568 -1.4445  1.5170  0.5677
 2669SOL    HW310443   4.075   1.090   4.436 -0.5269  0.0178 -0.3809
 2669SOL    MW410444   4.075   1.031   4.500 -0.3406  0.2533 -0.1672
 2670SOL     OW10445   1.671   3.313   1.975 -0.7489  0.5741  0.5501
 2670SOL    HW210446   1.709   3.389   2.019  1.1907 -0.3768  0.5989
 2670SOL    HW310447   1.745   3.269   1.934 -1.6988 -1.6497  1.0531
 2670SOL    MW410448   1.686   3.317   1.976 -0.6183  0.1552  0.6229
 2671SOL     OW10449   4.353   1.174   4.410 -0.5388  0.0115 -0.3206
 2671SOL    HW210450   4.268   1.212   4.388 -0.3003  0.7453 -0.0112
 2671SOL    HW310451   4.416   1.245   4.393 -0.0612 -0.3101  0.0788
 2671SOL    MW410452   4.350   1.189   4.405 -0.4443  0.0659 -0.2271
 2672SOL     OW10453   4.493   5.738   3.223  0.1872  0.0806  0.2309
 2672SOL    HW210454   4.477   5.671   3.157 -1.0153 -0.7276  1.2759
 2672SOL    HW310455   4.459   5.819   3.184  0.1365 -0.2377 -0.3997
 2672SOL    MW410456   4.486   5.740   3.209  0.0219 -0.0680  0.2856
 2673SOL     OW10457   2.013   1.593   3.149  0.1718  0.1005 -0.3365
 2673SOL    HW210458   1.969   1.541   3.216 -0.7674 -0.8287 -1.6169
 2673SOL    HW310459   2.099   1.613   3.186  0.0362 -1.2127  0.7511
 2673SOL    MW410460   2.019   1.588   3.163  0.0300 -0.1954 -0.3620
 2674SOL     OW10461   5.321   1.188   0.414  0.1192  0.6812  0.0850
 2674SOL    HW210462   5.240   1.229   0.446 -1.1842 -1.7958  0.1913
 2674SOL    HW310463   5.387   1.212   0.479 -1.3072  0.0456  1.8372
 2674SOL    MW410464   5.319   1.196   0.427 -0.2410  0.2705  0.3302
 2675SOL     OW10465   5.319   5.405   0.186 -0.3910 -0.4014 -0.2364
 2675SOL    HW210466   5.394   5.402   0.246 -1.8027 -0.7291  1.5966
 2675SOL    HW310467   5.316   5.496   0.156  0.7726 -0.4039 -0.4087
 2675SOL    MW410468   5.329   5.416   0.190 -0.4237 -0.4450 -0.0173
 2676SOL     OW10469   4.520   0.955   1.494  0.2525  0.5686  0.1852
 2676SOL    HW210470   4.481   0.897   1.560  0.8793  0.6602  0.6508
 2676SOL    HW310471   4.603   0.913   1.472 -0.3458  0.0683 -1.2323
 2676SOL    MW410472   4.526   0.942   1.500  0.2563  0.5147  0.0596
 2677SOL     OW10473   4.177   4.559   3.084  0.3610 -0.2169 -0.0344
 2677SOL    HW210474   4.225   4.642   3.080  0.8430 -0.5391 -2.2137
 2677SOL    HW310475   4.243   4.492   3.066 -0.1416 -1.0496  1.1229
 2677SOL    MW410476   4.192   4.561   3.081  0.3583 -0.3693 -0.1692
 2678SOL     OW10477   0.066   0.443   2.542 -0.2697 -0.6553  0.8098
 2678SOL    HW210478  -0.002   0.507   2.522 -0.5648 -0.0974  3.3353
 2678SOL    HW310479   0.045   0.368   2.486 -0.6568  0.9294 -1.2707
 2678SOL    MW410480   0.054   0.442   2.532 -0.3597 -0.3726  0.8686
 2679SOL     OW10481   2.530   4.309   0.117 -0.0395  0.1017 -0.0995
 2679SOL    HW210482   2.606   4.285   0.064 -0.0192  1.5822 -0.7760
 2679SOL    HW310483   2.458   4.258   0.080  0.6993 -1.9042  1.0266
 2679SOL    MW410484   2.531   4.299   0.105  0.0607  0.0324 -0.0402
 2680SOL     OW10485   1.716   6.028   1.758  0.1350  0.2134 -0.1240
 2680SOL    HW210486   1.743   6.061   1.672  1.9102  0.5700  0.5307
 2680SOL    HW310487   1.638   6.078   1.780 -0.0374  0.4862 -1.2919
 2680SOL    MW410488   1.709   6.039   1.749  0.3465  0.2964 -0.1917
 2681SOL     OW10489   0.853   6.076   2.052 -0.2948 -0.3885  0.7496
 2681SOL    HW210490   0.878   6.066   2.144  0.3162  1.0070  0.7730
 2681SOL    HW310491   0.772   6.127   2.055  0.0865  0.2543  0.5245
 2681SOL    MW410492   0.846   6.082   2.065 -0.1639 -0.1196  0.7230
 2682SOL     OW10493   4.430   0.876   6.234 -0.2386 -0.0735  0.1590
 2682SOL    HW210494   4.381   0.954   6.209 -1.5061 -0.8313  0.1438
 2682SOL    HW310495   4.459   0.893   6.324 -1.5400 -0.0316  0.6049
 2682SOL    MW410496   4.427   0.888   6.243 -0.5776 -0.1680  0.2158
 2683SOL     OW10497   3.322   4.848   1.725 -0.2591  0.6478  0.2370
 2683SOL    HW210498   3.372   4.803   1.657 -0.8791  1.8199 -1.0683
 2683SOL    HW310499   3.296   4.931   1.684  0.3764  1.9533  2.3292
 2683SOL    MW410500   3.325   4.853   1.711 -0.2570  0.9747  0.3408
 2684SOL     OW10501   5.324   0.443   4.502  0.5993  0.7743  0.3349
 2684SOL    HW210502   5.258   0.401   4.557 -0.6613  2.1340 -0.0709
 2684SOL    HW310503   5.354   0.374   4.442  0.8848 -0.3183  1.6957
 2684SOL    MW410504   5.319   0.429   4.501  0.4707  0.8096  0.4609
 2685SOL     OW10505   3.642   3.868   5.536 -0.7413 -0.2314 -0.5617
 2685SOL    HW210506   3.695   3.864   5.615  0.0943 -2.5383 -1.1696
 2685SOL    HW310507   3.686   3.934   5.482  0.1237 -0.3953 -0.0785
 2685SOL    MW410508   3.655   3.876   5.539 -0.5169 -0.5574 -0.5781
 2686SOL     OW10509   0.677   3.658   2.545  0.2642 -0.5384  0.8161
 2686SOL    HW210510   0.670   3.742   2.500  2.6246  0.5354  2.2285
 2686SOL    HW310511   0.587   3.626   2.550 -0.4630  0.8490 -1.6123
 2686SOL    MW410512   0.664   3.665   2.540  0.4797 -0.2136  0.6820
 2687SOL     OW10513   1.679   2.781   5.439  0.1052 -0.4429  0.0855
 2687SOL    HW210514   1.757   2.735   5.471 -0.9053 -1.4037  1.2745
 2687SOL    HW310515   1.613   2.712   5.428 -0.2726  0.1672 -2.0365
 2687SOL    MW410516   1.680   2.766   5.441 -0.0780 -0.4892 -0.0376
 2688SOL     OW10517   6.156   5.466   3.216  0.0459 -0.4471 -0.2371
 2688SOL    HW210518   6.142   5.410   3.139 -1.0982  1.3547 -1.4276
 2688SOL    HW310519   6.190   5.547   3.179  1.2006 -0.1623  1.3929
 2688SOL    MW410520   6.158   5.469   3.201  0.0473 -0.1718 -0.1791
 2689SOL     OW10521   2.034   1.236   1.359 -0.3095 -1.0040 -0.1361
 2689SOL    HW210522   2.059   1.144   1.367 -0.3497 -0.9672  0.4687
 2689SOL    HW310523   1.961   1.246   1.420 -0.2093 -0.5330 -0.0931
 2689SOL    MW410524   2.028   1.225   1.368 -0.3016 -0.9370 -0.0506
 2690SOL     OW10525   1.354   3.578   4.648  0.2660  0.1638  0.6113
 2690SOL    HW210526   1.413   3.644   4.683 -1.2485  0.7335  2.2846
 2690SOL    HW310527   1.365   3.502   4.706 -0.0613 -0.0075  0.4540
 2690SOL    MW410528   1.363   3.577   4.660  0.0230  0.2164  0.8113
 2691SOL     OW10529   4.477   3.879   4.977 -0.0958  0.0799  0.0466
 2691SOL    HW210530   4.472   3.797   4.929 -0.7102 -0.3270  0.7983
 2691SOL    HW310531   4.564   3.914   4.955  0.3156 -0.9424  0.0195
 2691SOL    MW410532   4.488   3.873   4.968 -0.1225 -0.1087  0.1422
 2692SOL     OW10533   2.754   1.545   2.815  0.4103 -0.0348  0.1579
 2692SOL    HW210534   2.742   1.638   2.833  1.0648  0.0484  0.1621
 2692SOL    HW310535   2.665   1.509   2.820  0.2413  0.4498  0.9384
 2692SOL    MW410536   2.741   1.553   2.818  0.4744  0.0401  0.2614
 2693SOL     OW10537   0.584   2.941   4.321  0.1570  0.1206 -0.2059
 2693SOL    HW210538   0.491   2.945   4.344  0.3045  1.1712  0.2760
 2693SOL    HW310539   0.620   3.023   4.355  1.1665 -0.0651 -0.8074
 2693SOL    MW410540   0.576   2.952   4.329  0.3096  0.2347 -0.2217
 2694SOL     OW10541   3.920   1.358   1.183  0.2428 -0.0613 -0.2699
 2694SOL    HW210542   3.964   1.275   1.202  1.6283  1.0741  1.9804
 2694SOL    HW310543   3.854   1.366   1.252 -0.0884  0.5640 -0.6520
 2694SOL    MW410544   3.917   1.348   1.195  0.3819  0.1710 -0.0234
 2695SOL     OW10545   2.640   4.663   3.608 -0.1930 -0.0380  0.3568
 2695SOL    HW210546   2.597   4.744   3.637 -0.0495 -0.6407  2.4292
 2695SOL    HW310547   2.733   4.683   3.611 -0.0507 -0.7661  2.7165
 2695SOL    MW410548   2.646   4.677   3.612 -0.1553 -0.2136  0.9416
 2696SOL     OW10549   1.387   2.716   3.811  0.6332  0.2314 -0.3335
 2696SOL    HW210550   1.363   2.713   3.904  0.2460 -0.1851 -0.4441
 2696SOL    HW310551   1.470   2.763   3.809  0.9490 -0.2879  0.2920
 2696SOL    MW410552   1.395   2.721   3.823  0.6238  0.1079 -0.2656
 2697SOL     OW10553   5.420   3.090   1.936 -0.1844  0.3378 -0.2042
 2697SOL    HW210554   5.390   3.037   2.010 -0.9342  0.1833 -0.6107
 2697SOL    HW310555   5.508   3.057   1.918 -0.1003  0.1910  0.4401
 2697SOL    MW410556   5.428   3.078   1.944 -0.2723  0.2980 -0.1728
 2698SOL     OW10557   3.548   1.508   4.324 -0.1753  0.1696 -0.3707
 2698SOL    HW210558   3.474   1.528   4.266 -0.5802  1.4075  0.5410
 2698SOL    HW310559   3.541   1.414   4.340 -0.2032 -0.1571 -2.0964
 2698SOL    MW410560   3.537   1.498   4.319 -0.2324  0.2898 -0.4781
 2699SOL     OW10561   6.024   2.997   1.107 -0.2606 -0.2219  0.3010
 2699SOL    HW210562   5.948   3.007   1.049  0.7132  2.1671 -0.7209
 2699SOL    HW310563   6.097   2.978   1.048  0.3383 -0.2029  1.0145
 2699SOL    MW410564   6.024   2.996   1.091 -0.0531  0.0958  0.2603
 2700SOL     OW10565   2.328   4.135   6.387 -0.7335 -0.3730  0.0520
 2700SOL    HW210566   2.239   4.161   6.364 -1.3772 -1.9896  0.5466
 2700SOL    HW310567   2.318   4.085   6.468  0.4789 -1.5304 -0.4679
 2700SOL    MW410568   2.315   4.132   6.395 -0.6584 -0.7390  0.0486
 2701SOL     OW10569   4.667   2.516   1.977  0.3236 -0.4462 -0.0686
 2701SOL    HW210570   4.693   2.482   1.891 -2.2724 -0.7863 -0.7959
 2701SOL    HW310571   4.598   2.456   2.006  0.8402 -0.0657  2.0814
 2701SOL    MW410572   4.661   2.503   1.970  0.0492 -0.4409  0.1191
 2702SOL     OW10573   4.314   1.883   2.748 -0.4235 -0.7327  0.0451
 2702SOL    HW210574   4.313   1.978   2.761 -0.5124 -0.5913 -0.8978
 2702SOL    HW310575   4.386   1.868   2.687  0.9937 -1.5323  1.8161
 2702SOL    MW410576   4.323   1.894   2.742 -0.2482 -0.8195  0.1544
 2703SOL     OW10577   5.116   0.824   3.241  0.0124 -0.4022 -0.1510
 2703SOL    HW210578   5.108   0.884   3.166  0.6555 -0.9737 -0.6910
 2703SOL    HW310579   5.073   0.743   3.211  0.7420 -0.8098 -0.1073
 2703SOL    MW410580   5.109   0.821   3.227  0.1935 -0.5314 -0.2165
 2704SOL     OW10581   2.602   5.969   6.211  0.1653 -0.0251 -0.2294
 2704SOL    HW210582   2.585   6.050   6.163  1.2919 -0.5002 -1.4818
 2704SOL    HW310583   2.570   5.986   6.300  0.9331  2.0062 -0.3044
 2704SOL    MW410584   2.596   5.982   6.217  0.4152  0.1802 -0.4046
 2705SOL     OW10585   5.422   6.282   0.492  0.9962 -0.0643 -0.4516
 2705SOL    HW210586   5.348   6.342   0.488  1.2684  0.2511 -0.8954
 2705SOL    HW310587   5.400   6.220   0.562 -0.1705 -0.6207 -1.2717
 2705SOL    MW410588   5.409   6.281   0.500  0.8782 -0.0961 -0.6184
 2706SOL     OW10589   4.798   6.372   4.665  0.1988  0.3861 -0.3774
 2706SOL    HW210590   4.850   6.306   4.619  0.3229  1.4968 -1.9499
 2706SOL    HW310591   4.714   6.372   4.619 -1.0363 -0.9510  1.7443
 2706SOL    MW410592   4.794   6.363   4.653  0.0522  0.3563 -0.3049
 2707SOL     OW10593   1.960   1.206   0.611 -0.6540 -0.2239  0.0091
 2707SOL    HW210594   1.960   1.148   0.534  1.3737 -1.3478  0.7766
 2707SOL    HW310595   1.885   1.263   0.597 -0.9615 -1.0529 -2.3062
 2707SOL    MW410596   1.950   1.206   0.599 -0.4271 -0.4816 -0.1951
 2708SOL     OW10597   6.296   5.840   2.402 -0.0998 -0.8796 -0.4978
 2708SOL    HW210598   6.329   5.750   2.397 -0.4992 -1.2043  1.6723
 2708SOL    HW310599   6.201   5.831   2.400 -0.1613 -0.6048  0.5724
 2708SOL    MW410600   6.288   5.827   2.401 -0.1606 -0.8862 -0.0703
 2709SOL     OW10601   0.281   1.691   0.007  0.3159  0.6390 -0.2185
 2709SOL    HW210602   0.259   1.678   0.099 -0.6357  1.9654 -0.2335
 2709SOL    HW310603   0.221   1.759  -0.023  0.0504 -0.3132 -2.0377
 2709SOL    MW410604   0.270   1.698   0.015  0.1553  0.6883 -0.4605
 2710SOL     OW10605   3.981   2.539   3.649  0.8035 -0.1675 -0.0189
 2710SOL    HW210606   3.922   2.491   3.707 -0.3322  0.0473 -0.9484
 2710SOL    HW310607   4.005   2.617   3.698 -0.9211  0.5042 -0.1504
 2710SOL    MW410608   3.976   2.543   3.663  0.4261 -0.0505 -0.1589
 2711SOL     OW10609   3.254   3.805   4.874 -0.1707 -0.3317 -0.2077
 2711SOL    HW210610   3.320   3.814   4.942 -0.3428 -1.5525  0.1331
 2711SOL    HW310611   3.170   3.809   4.921 -0.2884 -1.2779 -0.3166
 2711SOL    MW410612   3.251   3.807   4.889 -0.2089 -0.6176 -0.1771
 2712SOL     OW10613   6.216   3.917   0.270 -0.1047  0.1456 -0.2199
 2712SOL    HW210614   6.214   3.997   0.322  0.5054  0.4830 -0.7014
 2712SOL    HW310615   6.173   3.940   0.187 -1.5033 -0.5192  0.2790
 2712SOL    MW410616   6.210   3.931   0.266 -0.2088  0.1024 -0.2176
 2713SOL     OW10617   5.003   2.703   1.142 -0.0693  0.1502  0.5766
 2713SOL    HW210618   4.968   2.630   1.192 -2.2719  0.5991 -0.2084
 2713SOL    HW310619   5.058   2.750   1.204  0.7935 -1.7217  1.3001
 2713SOL    MW410620   5.006   2.699   1.157 -0.2461 -0.0375  0.5685
 2714SOL     OW10621   4.328   5.598   1.667 -0.4514 -0.0201 -0.0902
 2714SOL    HW210622   4.268   5.668   1.642  0.0257  0.4252 -0.0124
 2714SOL    HW310623   4.342   5.549   1.586 -1.8679 -0.8739  0.1581
 2714SOL    MW410624   4.322   5.601   1.653 -0.5753 -0.0740 -0.0472
 2715SOL     OW10625   6.070   1.592   2.272  0.8690 -0.5040  0.2444
 2715SOL    HW210626   6.126   1.537   2.327  2.5769  0.0537 -0.8701
 2715SOL    HW310627   6.107   1.680   2.281  0.0218 -0.0732 -0.3384
 2715SOL    MW410628   6.082   1.596   2.281  0.9825 -0.3736  0.0205
 2716SOL     OW10629   3.007   4.884   3.386 -0.7859 -0.1238  0.6686
 2716SOL    HW210630   3.043   4.972   3.376 -2.6139  0.8371  1.9894
 2716SOL    HW310631   3.036   4.855   3.472  0.1195 -1.0166  0.0933
 2716SOL    MW410632   3.015   4.892   3.396 -0.9076 -0.1148  0.7669
 2717SOL     OW10633   6.324   1.690   3.398 -0.2596  0.3378  0.1520
 2717SOL    HW210634   6.237   1.659   3.372 -0.6380  0.5917  1.0913
 2717SOL    HW310635   6.374   1.692   3.316 -0.6207 -1.4544 -0.1495
 2717SOL    MW410636   6.319   1.686   3.383 -0.3572  0.1348  0.2361
 2718SOL     OW10637   6.366   3.391   5.396  0.3460 -0.3751  0.4454
 2718SOL    HW210638   6.314   3.365   5.319  0.0212 -0.8431  0.8160
 2718SOL    HW310639   6.310   3.453   5.443  0.7441  0.2835  0.0489
 2718SOL    MW410640   6.351   3.396   5.392  0.3557 -0.3500  0.4420
 2719SOL     OW10641   1.292   5.760   2.113 -0.3761 -0.3961 -0.0812
 2719SOL    HW210642   1.326   5.671   2.119  0.3133 -0.1697 -0.6024
 2719SOL    HW310643   1.369   5.815   2.099 -0.9805  0.0656 -1.8590
 2719SOL    MW410644   1.306   5.756   2.112 -0.3649 -0.3053 -0.3845
 2720SOL     OW10645   6.197   0.805   3.196  0.4768 -0.1750  0.0739
 2720SOL    HW210646   6.143   0.854   3.258  0.3516  0.7442 -0.7502
 2720SOL    HW310647   6.237   0.735   3.249 -1.1580 -0.6080  0.7961
 2720SOL    MW410648   6.195   0.802   3.211  0.2446 -0.1108  0.0604
 2721SOL     OW10649   4.392   4.981   0.346 -0.1058  0.5955  0.5968
 2721SOL    HW210650   4.459   4.918   0.319  1.5530  2.0936  1.0801
 2721SOL    HW310651   4.362   5.020   0.264  0.7460  1.0135  0.4752
 2721SOL    MW410652   4.397   4.978   0.332  0.2254  0.8483  0.6445
 2722SOL     OW10653   3.796   0.966   6.194  0.0776  0.4264 -0.5848
 2722SOL    HW210654   3.711   0.958   6.238 -0.4214  2.1022 -1.1634
 2722SOL    HW310655   3.784   1.038   6.132  2.1602  1.2876 -0.0766
 2722SOL    MW410656   3.783   0.974   6.192  0.2865  0.7611 -0.5941
 2723SOL     OW10657   0.595   1.726   3.612 -0.0727  0.2146 -0.3028
 2723SOL    HW210658   0.672   1.718   3.667 -1.0628  1.0671  1.3055
 2723SOL    HW310659   0.614   1.673   3.535  1.4899 -0.8017  0.7262
 2723SOL    MW410660   0.607   1.718   3.609  0.0028  0.1930  0.0452
 2724SOL     OW10661   3.255   0.225   1.203 -0.2652  0.0968  0.0750
 2724SOL    HW210662   3.335   0.184   1.170  1.1628  1.2475  1.8910
 2724SOL    HW310663   3.184   0.183   1.153  1.3374 -1.9399 -0.6477
 2724SOL    MW410664   3.256   0.214   1.192  0.1346 -0.0201  0.2192
 2725SOL     OW10665   3.090   3.872   0.401 -0.4300 -0.7396 -0.0177
 2725SOL    HW210666   3.032   3.894   0.328 -0.1348  0.3517  0.0609
 2725SOL    HW310667   3.080   3.777   0.412 -2.8123 -0.4800  0.5125
 2725SOL    MW410668   3.081   3.862   0.393 -0.7054 -0.5614  0.0626
 2726SOL     OW10669   5.866   3.813   0.991 -0.1384 -0.1926 -0.0339
 2726SOL    HW210670   5.837   3.903   0.973  0.6167  0.2591  0.9127
 2726SOL    HW310671   5.849   3.766   0.909 -1.8250  0.4634 -0.1134
 2726SOL    MW410672   5.860   3.819   0.977 -0.2613 -0.0465  0.0805
 2727SOL     OW10673   1.773   1.432   4.064  0.4230 -0.3563  0.0222
 2727SOL    HW210674   1.848   1.423   4.123  0.3314  1.0465  0.3863
 2727SOL    HW310675   1.803   1.492   3.996 -0.9059  1.8069  1.2143
 2727SOL    MW410676   1.787   1.439   4.063  0.2355  0.1142  0.2275
 2728SOL     OW10677   0.784   5.965   0.960  0.7800 -0.5127 -0.1013
 2728SOL    HW210678   0.838   6.009   1.027  1.3247  0.2947 -1.0470
 2728SOL    HW310679   0.717   5.918   1.010 -0.5135  2.2550  0.9576
 2728SOL    MW410680   0.782   5.965   0.976  0.6812 -0.0410 -0.0864
 2729SOL     OW10681   5.406   3.481   5.564 -0.0720  0.5886  0.0583
 2729SOL    HW210682   5.319   3.517   5.581 -0.2345  0.0899  0.2904
 2729SOL    HW310683   5.419   3.416   5.633  1.2833  2.0246  1.2352
 2729SOL    MW410684   5.397   3.477   5.576  0.0854  0.7123  0.2442
 2730SOL     OW10685   2.167   0.754   0.596  0.0286 -0.1123 -0.6143
 2730SOL    HW210686   2.078   0.719   0.585 -0.2782 -0.3636  2.1028
 2730SOL    HW310687   2.158   0.821   0.663  1.4956  1.7357 -2.1736
 2730SOL    MW410688   2.154   0.758   0.603  0.1816  0.0984 -0.4615
 2731SOL     OW10689   1.932   5.518   0.292  0.8179 -0.2656 -0.5653
 2731SOL    HW210690   1.904   5.524   0.383  2.1007  0.9823 -0.2138
 2731SOL    HW310691   1.925   5.425   0.270 -0.6577 -0.4167  0.4072
 2731SOL    MW410692   1.928   5.507   0.301  0.7925 -0.1209 -0.3906
 2732SOL     OW10693   2.271   0.378   5.697 -0.6223  0.0053 -0.0604
 2732SOL    HW210694   2.268   0.352   5.604  0.1748  0.7995 -0.3234
 2732SOL    HW310695   2.309   0.303   5.741 -1.2271 -0.4753 -0.3285
 2732SOL    MW410696   2.275   0.365   5.690 -0.5970  0.0467 -0.1305
 2733SOL     OW10697   4.839   1.490   1.128 -0.1831 -0.1478  0.6905
 2733SOL    HW210698   4.879   1.404   1.142  0.9386  0.0644 -0.9264
 2733SOL    HW310699   4.912   1.551   1.134 -0.2681  0.3085 -1.7790
 2733SOL    MW410700   4.854   1.486   1.131 -0.0464 -0.0596  0.1513
 2734SOL     OW10701   6.283   5.068   1.075  0.3239 -0.2475 -0.5380
 2734SOL    HW210702   6.253   4.997   1.019 -0.2751 -1.9357  1.8113
 2734SOL    HW310703   6.325   5.130   1.014  1.5591 -2.9286 -2.6020
 2734SOL    MW410704   6.285   5.067   1.059  0.4079 -0.8240 -0.5004
 2735SOL     OW10705   1.641   5.786   4.745 -0.0252 -0.1693  0.5098
 2735SOL    HW210706   1.614   5.695   4.751  0.2425 -0.4595 -1.8277
 2735SOL    HW310707   1.561   5.834   4.723  0.0375 -0.0093  0.6281
 2735SOL    MW410708   1.627   5.781   4.743  0.0184 -0.1865  0.2170
 2736SOL     OW10709   4.503   3.680   5.936 -0.2168 -0.1302  0.8183
 2736SOL    HW210710   4.455   3.635   5.866 -0.8271  0.9604  0.5035
 2736SOL    HW310711   4.561   3.614   5.972 -0.7127 -1.0200  0.0284
 2736SOL    MW410712   4.505   3.666   5.931 -0.3627 -0.1037  0.6726
 2737SOL     OW10713   5.153   4.195   1.101  0.1177  0.2142 -0.4163
 2737SOL    HW210714   5.073   4.169   1.056 -0.3498 -0.6797  0.8564
 2737SOL    HW310715   5.199   4.113   1.117  0.7495  0.6133 -0.1314
 2737SOL    MW410716   5.149   4.181   1.097  0.1393  0.1490 -0.2108
 2738SOL     OW10717   4.314   1.446   3.017 -0.2609  0.2582  0.2090
 2738SOL    HW210718   4.325   1.536   2.987 -2.3670 -0.4393 -3.0695
 2738SOL    HW310719   4.227   1.444   3.055 -0.1289 -0.3636  0.4877
 2738SOL    MW410720   4.304   1.458   3.018 -0.5214  0.0841 -0.1868
 2739SOL     OW10721   2.692   4.685   4.346  0.2183  0.2113 -0.1802
 2739SOL    HW210722   2.602   4.717   4.337 -0.8116 -2.2248  0.6938
 2739SOL    HW310723   2.691   4.633   4.426  1.8883 -1.5513 -1.2242
 2739SOL    MW410724   2.680   4.683   4.355  0.3027 -0.3427 -0.2026
 2740SOL     OW10725   5.575   5.665   5.415  0.1504 -0.0129  0.6857
 2740SOL    HW210726   5.612   5.750   5.392  1.8260 -0.9767 -0.4727
 2740SOL    HW310727   5.649   5.615   5.451 -0.0953 -1.7804 -1.0427
 2740SOL    MW410728   5.590   5.669   5.416  0.3390 -0.3733  0.3048
 2741SOL     OW10729   5.971   1.703   4.901 -0.4157  0.6733  0.5708
 2741SOL    HW210730   6.038   1.698   4.969  0.4269  3.7059  0.1176
 2741SOL    HW310731   5.890   1.723   4.949 -0.5510 -0.6309  0.9193
 2741SOL    MW410732   5.969   1.705   4.916 -0.3224  0.9013  0.5569
 2742SOL     OW10733   0.916   2.617   3.864 -0.8325  0.3691  0.2971
 2742SOL    HW210734   0.828   2.621   3.828 -0.2608  1.1223 -1.1027
 2742SOL    HW310735   0.906   2.574   3.949 -2.7135  1.5958  0.7460
 2742SOL    MW410736   0.903   2.612   3.870 -1.0052  0.6303  0.1716
 2743SOL     OW10737   2.843   5.183   5.280  0.6220  0.1738  0.1977
 2743SOL    HW210738   2.855   5.249   5.211  0.7800  0.1119  0.1653
 2743SOL    HW310739   2.903   5.210   5.349 -0.6091  1.0903  0.9515
 2743SOL    MW410740   2.853   5.195   5.280  0.4804  0.2866  0.2929
 2744SOL     OW10741   5.496   5.706   5.680  0.9920 -0.3763 -0.0383
 2744SOL    HW210742   5.513   5.716   5.586 -1.2238 -0.6685 -0.5352
 2744SOL    HW310743   5.492   5.795   5.714 -0.5911 -0.1396 -0.7520
 2744SOL    MW410744   5.497   5.719   5.672  0.4908 -0.3836 -0.1980
 2745SOL     OW10745   2.085   2.477   5.611 -0.2782  0.2992 -0.6700
 2745SOL    HW210746   2.054   2.429   5.534  1.0132 -0.8523 -0.5050
 2745SOL    HW310747   2.173   2.444   5.625 -0.4426  0.5980  1.2217
 2745SOL    MW410748   2.092   2.466   5.602 -0.1295  0.1867 -0.3986
 2746SOL     OW10749   1.778   5.627   6.190  0.8956  0.0430  0.2927
 2746SOL    HW210750   1.858   5.593   6.229  0.7264 -2.3616 -1.2678
 2746SOL    HW310751   1.768   5.579   6.108 -0.8717  2.0194 -0.7683
 2746SOL    MW410752   1.787   5.616   6.184  0.6401 -0.0135 -0.0532
 2747SOL     OW10753   0.218   3.788   1.252  0.6734 -0.4941 -0.1659
 2747SOL    HW210754   0.230   3.842   1.174  0.7651  0.9809  0.8421
 2747SOL    HW310755   0.265   3.707   1.232  3.0788  0.9115 -0.5932
 2747SOL    MW410756   0.226   3.784   1.239  1.0029 -0.1141 -0.0893
 2748SOL     OW10757   2.932   3.132   5.008 -0.1285  0.0479 -0.3945
 2748SOL    HW210758   2.972   3.199   4.953  0.1317  1.4650  1.4200
 2748SOL    HW310759   2.944   3.163   5.097 -2.1381 -1.2395  0.4177
 2748SOL    MW410760   2.939   3.145   5.013 -0.3593  0.0650 -0.0479
 2749SOL     OW10761   3.340   3.910   3.774  0.0541 -0.3453  0.9667
 2749SOL    HW210762   3.277   3.877   3.838 -1.0054 -1.0392 -0.3935
 2749SOL    HW310763   3.287   3.936   3.699  1.3684 -0.6547 -0.1017
 2749SOL    MW410764   3.325   3.909   3.772  0.0877 -0.4777  0.6462
 2750SOL     OW10765   4.179   5.634   3.253  0.3498 -0.2220 -0.1745
 2750SOL    HW210766   4.180   5.539   3.237  0.8535 -0.6646  2.0803
 2750SOL    HW310767   4.200   5.642   3.346  0.5070  2.1379 -0.3678
 2750SOL    MW410768   4.182   5.622   3.263  0.4370  0.0310  0.0975
 2751SOL     OW10769   4.654   0.287   5.626  0.1236 -0.4755 -0.4214
 2751SOL    HW210770   4.727   0.228   5.610 -1.0575 -2.3038  0.5220
 2751SOL    HW310771   4.578   0.229   5.633 -0.9306  1.0369  1.6425
 2751SOL    MW410772   4.653   0.271   5.625 -0.1714 -0.5172 -0.0246
 2752SOL     OW10773   4.801   4.638   4.332 -0.3510 -0.1917 -0.1934
 2752SOL    HW210774   4.734   4.662   4.268 -1.0974 -0.7303  0.3704
 2752SOL    HW310775   4.771   4.674   4.415  1.9941  2.9830 -0.5412
 2752SOL    MW410776   4.788   4.646   4.334 -0.1401  0.1561 -0.1649
 2753SOL     OW10777   0.339   4.098   3.296 -0.4393 -0.1231  0.1037
 2753SOL    HW210778   0.427   4.134   3.294 -1.1647  1.7707 -1.0304
 2753SOL    HW310779   0.343   4.022   3.238  0.6220 -0.6045  0.7755
 2753SOL    MW410780   0.351   4.093   3.288 -0.3950  0.0633  0.0427
 2754SOL     OW10781   1.195   2.334   2.631 -0.0284  0.2481 -0.0072
 2754SOL    HW210782   1.238   2.325   2.716 -0.7719 -0.0446  0.3461
 2754SOL    HW310783   1.105   2.305   2.646 -0.6335  1.7524 -0.4910
 2754SOL    MW410784   1.189   2.329   2.644 -0.2063  0.4080 -0.0244
 2755SOL     OW10785   0.120   6.180   5.328  0.0354 -0.4194  0.3394
 2755SOL    HW210786   0.178   6.229   5.387  0.3551 -0.8428  0.3805
 2755SOL    HW310787   0.083   6.247   5.270  0.6452 -0.1532  0.2490
 2755SOL    MW410788   0.123   6.196   5.328  0.1580 -0.4402  0.3329
 2756SOL     OW10789   5.957   6.425   1.089 -0.7802 -0.1152 -0.1667
 2756SOL    HW210790   5.995   6.437   1.175  0.4828 -1.1923 -0.5393
 2756SOL    HW310791   5.904   6.503   1.075  0.1809  0.7776  0.9617
 2756SOL    MW410792   5.955   6.437   1.098 -0.4868 -0.1395 -0.0670
 2757SOL     OW10793   0.060   3.578   3.279 -0.2571 -0.1387 -0.0764
 2757SOL    HW210794   0.129   3.559   3.215  1.1985  1.7154  0.8357
 2757SOL    HW310795   0.058   3.501   3.335  1.6091  0.0179  0.2849
 2757SOL    MW410796   0.069   3.565   3.278  0.1811  0.1266  0.0916
 2758SOL     OW10797   5.232   3.205   5.488  0.0752  0.4099  0.4556
 2758SOL    HW210798   5.197   3.119   5.466 -0.8145  0.7608  0.4458
 2758SOL    HW310799   5.326   3.192   5.496 -0.0019 -0.4686  0.0030
 2758SOL    MW410800   5.240   3.192   5.486 -0.0523  0.3403  0.3946
 2759SOL     OW10801   0.685   4.206   0.724  0.4600 -0.1290  0.3640
 2759SOL    HW210802   0.602   4.254   0.724 -0.5167 -1.7429  0.2487
 2759SOL    HW310803   0.749   4.269   0.756 -0.4793  1.6994 -1.1432
 2759SOL    MW410804   0.682   4.221   0.728  0.2072 -0.1007  0.1499
 2760SOL     OW10805   0.508   0.382   0.119  0.5165 -0.9027 -0.0267
 2760SOL    HW210806   0.454   0.381   0.197  2.0824  0.1730  1.1415
 2760SOL    HW310807   0.505   0.473   0.089  0.5299 -1.1452 -0.7973
 2760SOL    MW410808   0.501   0.394   0.125  0.7249 -0.7928  0.0258
 2761SOL     OW10809   6.064   5.028   1.619  0.0347  0.6496  0.4664
 2761SOL    HW210810   6.154   5.018   1.652  0.8081  1.6866 -1.1926
 2761SOL    HW310811   6.028   4.939   1.620  0.9948  0.2436  1.3318
 2761SOL    MW410812   6.071   5.015   1.624  0.2634  0.7328  0.3617
 2762SOL     OW10813   5.247   3.231   4.785 -0.2204 -0.3985  0.0302
 2762SOL    HW210814   5.254   3.239   4.880  2.5623  0.6007 -0.1876
 2762SOL    HW310815   5.331   3.196   4.757 -0.5273  0.4985 -2.1983
 2762SOL    MW410816   5.259   3.227   4.794  0.1062 -0.1483 -0.2926
 2763SOL     OW10817   1.163   6.369   1.994 -1.2640  0.4600 -0.5932
 2763SOL    HW210818   1.145   6.321   2.075 -1.6567 -0.2692 -1.1075
 2763SOL    HW310819   1.254   6.348   1.973 -1.8812 -1.3442 -1.6516
 2763SOL    MW410820   1.173   6.360   2.002 -1.3973  0.1257 -0.8007
 2764SOL     OW10821   1.228   3.156   1.519 -0.1717  0.2435 -0.0409
 2764SOL    HW210822   1.312   3.144   1.561 -0.2059 -0.2437 -0.1104
 2764SOL    HW310823   1.168   3.177   1.590  0.2039  1.6355 -0.1035
 2764SOL    MW410824   1.231   3.157   1.534 -0.1267  0.3629 -0.0583
 2765SOL     OW10825   0.167   2.893   4.376 -0.2588  0.3178  0.0637
 2765SOL    HW210826   0.137   2.802   4.383  1.9384 -0.5189 -0.6486
 2765SOL    HW310827   0.214   2.896   4.293 -0.6651  2.2610 -0.1334
 2765SOL    MW410828   0.169   2.881   4.366 -0.0225  0.4638 -0.0563
 2766SOL     OW10829   3.453   5.796   5.435  0.0359 -0.1618  0.0699
 2766SOL    HW210830   3.464   5.889   5.418  1.6699 -0.5959 -1.5955
 2766SOL    HW310831   3.537   5.768   5.472 -0.5641 -0.9079  0.9114
 2766SOL    MW410832   3.465   5.805   5.438  0.1723 -0.3175 -0.0388
 2767SOL     OW10833   3.747   1.871   3.237 -0.2728  0.2840 -0.4832
 2767SOL    HW210834   3.787   1.902   3.318 -1.6012 -1.7577  1.0515
 2767SOL    HW310835   3.814   1.817   3.195 -0.1219  0.0202  0.0956
 2767SOL    MW410836   3.761   1.868   3.242 -0.4281 -0.0202 -0.2043
 2768SOL     OW10837   4.412   4.918   4.773  0.3619 -0.2153  0.1520
 2768SOL    HW210838   4.416   4.850   4.705 -0.5724  1.1788 -1.3529
 2768SOL    HW310839   4.439   4.998   4.729 -1.4583  0.9738  1.0646
 2768SOL    MW410840   4.416   4.919   4.758 -0.0015  0.1255  0.0739
 2769SOL     OW10841   1.120   5.389   6.045 -0.0520  0.1328 -0.1105
 2769SOL    HW210842   1.166   5.386   6.129 -0.8442  0.2277  0.3346
 2769SOL    HW310843   1.088   5.479   6.039 -1.2634 -0.2622  0.1915
 2769SOL    MW410844   1.122   5.400   6.056 -0.3164  0.0932 -0.0120
 2770SOL     OW10845   2.482   3.893   5.436 -0.0355  0.0340 -0.0663
 2770SOL    HW210846   2.538   3.969   5.426 -0.1467  0.2122  0.6104
 2770SOL    HW310847   2.464   3.864   5.347  1.0356  0.0396 -0.2947
 2770SOL    MW410848   2.487   3.899   5.423  0.0912  0.0583 -0.0071
 2771SOL     OW10849   0.777   3.214   3.092 -0.3510 -0.0185  0.3236
 2771SOL    HW210850   0.777   3.197   3.186  0.2370 -2.6727 -0.0841
 2771SOL    HW310851   0.685   3.229   3.070 -0.3364  2.2411  1.4937
 2771SOL    MW410852   0.765   3.214   3.101 -0.2715 -0.0706  0.4242
 2772SOL     OW10853   1.570   1.438   4.256 -0.4954 -0.0668  0.2097
 2772SOL    HW210854   1.640   1.416   4.194 -0.1830 -1.5785  1.0353
 2772SOL    HW310855   1.613   1.492   4.322 -0.1539 -0.7468  0.5563
 2772SOL    MW410856   1.585   1.442   4.256 -0.4091 -0.3560  0.3644
 2773SOL     OW10857   4.692   5.916   5.574 -0.0149  0.1773 -0.3835
 2773SOL    HW210858   4.784   5.927   5.549  0.1774  0.1108  0.2758
 2773SOL    HW310859   4.670   5.996   5.621 -0.9129  1.1053 -2.3058
 2773SOL    MW410860   4.701   5.928   5.577 -0.1080  0.2910 -0.5501
 2774SOL     OW10861   3.221   3.450   1.436 -0.0559 -0.0178  0.2847
 2774SOL    HW210862   3.293   3.512   1.430  0.5270 -0.6640  0.4032
 2774SOL    HW310863   3.153   3.485   1.378 -0.1240  1.2158  1.0774
 2774SOL    MW410864   3.222   3.463   1.427  0.0120  0.0597  0.4049
 2775SOL     OW10865   0.044   0.804   0.729  0.4634 -1.2212  0.9731
 2775SOL    HW210866  -0.025   0.857   0.769  0.7477 -0.2466  0.2188
 2775SOL    HW310867   0.090   0.865   0.671  1.4553 -2.0532  0.8620
 2775SOL    MW410868   0.041   0.819   0.727  0.6318 -1.2024  0.8589
 2776SOL     OW10869   6.172   1.188   3.944  1.0517  0.3805  0.4830
 2776SOL    HW210870   6.111   1.175   4.017  2.2934  1.0183  1.6888
 2776SOL    HW310871   6.117   1.186   3.866 -0.6110  1.6399  1.5638
 2776SOL    MW410872   6.156   1.186   3.944  0.9962  0.6308  0.7847
 2777SOL     OW10873   4.470   3.169   0.240 -0.4012 -0.2590 -0.3642
 2777SOL    HW210874   4.477   3.125   0.155 -0.6778  0.1633 -0.6134
 2777SOL    HW310875   4.379   3.198   0.244 -0.7131 -1.3146  0.6091
 2777SOL    MW410876   4.459   3.167   0.229 -0.4788 -0.3426 -0.2687
 2778SOL     OW10877   5.098   6.026   3.854  0.4871  0.5902  0.2562
 2778SOL    HW210878   5.186   6.057   3.877  0.9855 -1.5824  1.5144
 2778SOL    HW310879   5.050   6.027   3.936 -0.1819  0.2709 -0.1278
 2778SOL    MW410880   5.103   6.030   3.868  0.4646  0.2615  0.3716
 2779SOL     OW10881   0.390   5.114   3.748  0.1785  0.1376 -0.3965
 2779SOL    HW210882   0.475   5.158   3.753  0.2862  0.1139 -1.7025
 2779SOL    HW310883   0.411   5.024   3.726 -0.0984 -0.3928  1.3625
 2779SOL    MW410884   0.404   5.108   3.746  0.1562  0.0645 -0.3368
 2780SOL     OW10885   5.407   6.232   6.253 -0.1719 -0.0053  0.0814
 2780SOL    HW210886   5.316   6.254   6.236 -0.3216 -1.1511 -0.6896
 2780SOL    HW310887   5.435   6.184   6.176  0.1275 -2.4765  1.6216
 2780SOL    MW410888   5.399   6.229   6.241 -0.1522 -0.4825  0.1829
 2781SOL     OW10889   3.217   5.912   5.131 -0.5335 -0.2704  0.2236
 2781SOL    HW210890   3.161   5.885   5.058 -0.6751 -0.9010  0.5587
 2781SOL    HW310891   3.278   5.839   5.142  0.4336  0.4495 -0.2000
 2781SOL    MW410892   3.217   5.899   5.123 -0.4246 -0.2586  0.2119
 2782SOL     OW10893   4.286   0.219   2.650 -0.2413  0.4394 -0.2526
 2782SOL    HW210894   4.299   0.264   2.734 -0.1526 -0.4377  0.2114
 2782SOL    HW310895   4.281   0.290   2.586 -2.7969  1.2899  0.7764
 2782SOL    MW410896   4.287   0.234   2.653 -0.5668  0.4359 -0.0556
 2783SOL     OW10897   4.993   5.208   4.003 -0.6111  0.0382 -0.9195
 2783SOL    HW210898   4.998   5.258   3.921  0.1375 -1.0091 -1.5384
 2783SOL    HW310899   5.077   5.225   4.046 -1.1931  0.9637 -0.1313
 2783SOL    MW410900   5.005   5.217   3.998 -0.5891  0.0222 -0.8972
 2784SOL     OW10901   6.294   5.974   2.748 -0.2473  0.2638  0.5826
 2784SOL    HW210902   6.322   5.954   2.659  0.0556 -0.5774  0.8516
 2784SOL    HW310903   6.275   6.068   2.747  0.9822  0.5243 -0.0404
 2784SOL    MW410904   6.295   5.983   2.736 -0.0451  0.1872  0.5359
 2785SOL     OW10905   3.599   4.519   3.696 -0.1034 -0.2968  0.9290
 2785SOL    HW210906   3.617   4.468   3.776  0.8291 -0.6781  0.4925
 2785SOL    HW310907   3.673   4.500   3.639  0.7237  2.1978  1.0653
 2785SOL    MW410908   3.611   4.510   3.699  0.1288 -0.0180  0.8894
 2786SOL     OW10909   5.085   5.312   0.298  0.3567  0.2878 -0.1791
 2786SOL    HW210910   5.171   5.332   0.260 -0.5164  0.7803 -2.0185
 2786SOL    HW310911   5.025   5.319   0.224 -1.2670 -0.1239  1.0632
 2786SOL    MW410912   5.089   5.316   0.283  0.0273  0.2985 -0.2578
 2787SOL     OW10913   0.565   3.513   6.323 -0.2124  0.4445 -0.7621
 2787SOL    HW210914   0.472   3.529   6.305 -0.2602  0.4028 -0.5518
 2787SOL    HW310915   0.571   3.507   6.418  0.1528  1.3801 -0.7134
 2787SOL    MW410916   0.554   3.514   6.333 -0.1705  0.5625 -0.7279
 2788SOL     OW10917   1.047   5.067   4.567  0.0119  0.1432 -0.6642
 2788SOL    HW210918   1.129   5.116   4.571 -0.5754  1.1819 -1.0541
 2788SOL    HW310919   1.039   5.026   4.653 -0.4685  2.3754  0.4201
 2788SOL    MW410920   1.057   5.068   4.579 -0.1290  0.5747 -0.5726
 2789SOL     OW10921   1.158   0.505   1.596 -0.0442 -0.1330  0.6930
 2789SOL    HW210922   1.181   0.432   1.540  1.9417  1.7929 -1.1862
 2789SOL    HW310923   1.239   0.555   1.606 -1.2632  1.7297  2.0329
 2789SOL    MW410924   1.171   0.502   1.590  0.0570  0.3669  0.6218
 2790SOL     OW10925   0.365   1.695   4.340  0.1008 -0.5689 -0.1735
 2790SOL    HW210926   0.389   1.636   4.411  1.3219  0.2298  0.1038
 2790SOL    HW310927   0.329   1.772   4.384 -0.1394 -0.4998 -0.4831
 2790SOL    MW410928   0.363   1.697   4.355  0.2302 -0.4544 -0.1778
 2791SOL     OW10929   5.993   1.205   3.745  0.0874  0.7639 -0.1011
 2791SOL    HW210930   5.947   1.274   3.793 -1.5033 -0.9356  0.9729
 2791SOL    HW310931   5.946   1.125   3.767  1.4541 -0.6060 -1.8076
 2791SOL    MW410932   5.981   1.204   3.754  0.0579  0.3589 -0.1846
 2792SOL     OW10933   5.558   1.985   5.125 -0.0295  0.1099  0.4153
 2792SOL    HW210934   5.615   1.916   5.093 -0.0215  0.5780 -0.6016
 2792SOL    HW310935   5.516   2.021   5.047 -1.2850  0.1620  1.0839
 2792SOL    MW410936   5.560   1.981   5.111 -0.1941  0.1786  0.3694
 2793SOL     OW10937   2.781   2.792   4.104  0.8842  0.0835  0.0474
 2793SOL    HW210938   2.782   2.858   4.173  0.5036 -0.0707  0.2007
 2793SOL    HW310939   2.715   2.728   4.132  0.5549  0.1461 -0.5787
 2793SOL    MW410940   2.773   2.792   4.117  0.7905  0.0714 -0.0150
 2794SOL     OW10941   1.282   5.547   1.227  0.2329  0.4744 -0.2315
 2794SOL    HW210942   1.317   5.623   1.273 -0.9789  0.8431  0.1241
 2794SOL    HW310943   1.349   5.480   1.235  1.4685  1.6030 -0.8383
 2794SOL    MW410944   1.295   5.548   1.234  0.2361  0.6719 -0.2646
 2795SOL     OW10945   4.887   5.529   6.068  0.0950 -0.3048  0.0148
 2795SOL    HW210946   4.938   5.603   6.032 -0.1924 -0.1743 -0.1285
 2795SOL    HW310947   4.926   5.452   6.027  0.1356 -0.1990 -0.1500
 2795SOL    MW410948   4.899   5.529   6.058  0.0624 -0.2736 -0.0259
 2796SOL     OW10949   0.282   1.600   0.270 -0.3964  0.2608 -0.2209
 2796SOL    HW210950   0.338   1.657   0.322  1.0091 -0.1014 -1.2838
 2796SOL    HW310951   0.218   1.566   0.333 -0.4771  1.9687  0.6843
 2796SOL    MW410952   0.281   1.603   0.285 -0.2216  0.4383 -0.2417
 2797SOL     OW10953   5.087   3.799   1.509  0.4833 -0.0893  0.5085
 2797SOL    HW210954   5.094   3.888   1.543 -0.7757 -0.2254  1.1785
 2797SOL    HW310955   5.066   3.810   1.416 -1.2965  0.3544  0.9289
 2797SOL    MW410956   5.085   3.812   1.501  0.0823 -0.0487  0.6523
 2798SOL     OW10957   5.237   4.846   4.714  0.6269 -0.2493  0.5946
 2798SOL    HW210958   5.288   4.791   4.773 -0.7053 -1.5662  0.5551
 2798SOL    HW310959   5.154   4.859   4.759  1.0750  2.2595  0.8674
 2798SOL    MW410960   5.233   4.841   4.728  0.5102 -0.0920  0.6254
 2799SOL     OW10961   1.200   4.126   3.615 -0.0663  0.2166  0.0544
 2799SOL    HW210962   1.139   4.093   3.549  0.1622 -1.1902  0.5070
 2799SOL    HW310963   1.217   4.216   3.589 -0.4013 -0.1362 -1.4907
 2799SOL    MW410964   1.194   4.134   3.603 -0.0804 -0.0156 -0.0897
 2800SOL     OW10965   2.606   1.704   0.838 -0.5893  0.2736  0.1966
 2800SOL    HW210966   2.550   1.671   0.767 -1.5652  1.1994  0.5056
 2800SOL    HW310967   2.561   1.677   0.918  0.1323 -0.1457  0.4664
 2800SOL    MW410968   2.593   1.696   0.839 -0.6229  0.3405  0.2729
 2801SOL     OW10969   2.374   2.802   5.505 -0.4914 -0.2802 -0.0395
 2801SOL    HW210970   2.300   2.742   5.499  0.2783 -1.1470 -1.5822
 2801SOL    HW310971   2.399   2.819   5.414  0.4539  0.9524  0.4101
 2801SOL    MW410972   2.368   2.797   5.492 -0.2651 -0.2319 -0.1837
 2802SOL     OW10973   0.410   6.400   6.164 -0.0561 -0.1087 -0.1126
 2802SOL    HW210974   0.346   6.401   6.235 -0.3251  1.2062 -0.3408
 2802SOL    HW310975   0.389   6.321   6.114 -0.2667 -0.7104  0.8966
 2802SOL    MW410976   0.399   6.390   6.167 -0.1194 -0.0146 -0.0095
 2803SOL     OW10977   2.570   2.060   2.870  0.3887  0.3303  0.4421
 2803SOL    HW210978   2.644   2.113   2.842  0.6387  0.2814  1.0008
 2803SOL    HW310979   2.494   2.101   2.829  0.7124  0.4332 -0.0616
 2803SOL    MW410980   2.570   2.072   2.861  0.4644  0.3374  0.4494
 2804SOL     OW10981   5.630   6.192   2.189 -0.2292  0.0781 -0.4223
 2804SOL    HW210982   5.548   6.169   2.232  0.4622  0.5530  1.2305
 2804SOL    HW310983   5.646   6.283   2.214  1.0555 -0.1617 -0.2729
 2804SOL    MW410984   5.622   6.201   2.198  0.0315  0.1091 -0.1845
 2805SOL     OW10985   1.812   2.256   6.282  0.7245  0.3849  0.0611
 2805SOL    HW210986   1.765   2.311   6.345 -0.5502  0.0599 -0.5646
 2805SOL    HW310987   1.858   2.192   6.336  0.9957  1.1181  0.7252
 2805SOL    MW410988   1.811   2.255   6.297  0.5921  0.4388  0.0662
 2806SOL     OW10989   5.364   3.113   0.798 -0.1113 -0.5438  0.2882
 2806SOL    HW210990   5.329   3.034   0.840  0.4338 -1.2780 -0.5979
 2806SOL    HW310991   5.453   3.121   0.833  0.2570 -1.0191 -0.5077
 2806SOL    MW410992   5.371   3.104   0.808  0.0092 -0.7034  0.0663
 2807SOL     OW10993   3.769   3.170   0.231  0.3777  0.2207 -0.2967
 2807SOL    HW210994   3.743   3.082   0.204 -0.0739 -0.0637  0.9972
 2807SOL    HW310995   3.690   3.222   0.221 -0.0799 -0.1037  1.3199
 2807SOL    MW410996   3.755   3.165   0.226  0.2578  0.1404  0.0873
 2808SOL     OW10997   1.140   1.900   3.392  0.0883  0.6388 -1.0974
 2808SOL    HW210998   1.150   1.807   3.371  1.5848  1.1638 -2.9696
 2808SOL    HW310999   1.230   1.931   3.403 -0.3284  2.1215 -1.7178
 2808SOL    MW411000   1.153   1.892   3.391  0.2308  0.9037 -1.4262
 2809SOL     OW11001   0.093   4.868   2.904  0.2898 -0.3656 -0.4642
 2809SOL    HW211002   0.020   4.867   2.966  0.4428 -0.7580 -0.2852
 2809SOL    HW311003   0.088   4.954   2.863 -1.0552 -0.8478 -1.3894
 2809SOL    MW411004   0.083   4.879   2.907  0.1325 -0.4810 -0.5626
 2810SOL     OW11005   2.263   4.000   5.961  0.1784  0.0483  0.1199
 2810SOL    HW211006   2.233   4.063   5.896 -0.7299 -0.7313 -0.2357
 2810SOL    HW311007   2.325   4.049   6.015  2.3422  0.2916 -2.3632
 2810SOL    MW411008   2.267   4.015   5.960  0.3440 -0.0224 -0.2546
 2811SOL     OW11009   5.204   5.309   2.591  0.1809 -0.2869 -0.2725
 2811SOL    HW211010   5.227   5.393   2.550  1.5101  0.0589  1.0480
 2811SOL    HW311011   5.146   5.333   2.663 -0.1934 -0.6063 -0.4689
 2811SOL    MW411012   5.200   5.323   2.595  0.3069 -0.2834 -0.1242
 2812SOL     OW11013   3.667   0.709   2.945  0.3757  0.8168 -0.1386
 2812SOL    HW211014   3.676   0.640   2.879  1.8675  0.8646 -0.0185
 2812SOL    HW311015   3.582   0.692   2.986  0.2873 -0.3656 -0.7639
 2812SOL    MW411016   3.657   0.698   2.942  0.5608  0.6671 -0.2053
 2813SOL     OW11017   4.449   3.819   3.442 -0.2998 -0.2959 -0.2199
 2813SOL    HW211018   4.364   3.832   3.484  0.4654  0.3853  1.2090
 2813SOL    HW311019   4.482   3.737   3.478 -0.4217 -0.6592 -0.9172
 2813SOL    MW411020   4.442   3.810   3.452 -0.2149 -0.2539 -0.1234
 2814SOL     OW11021   5.466   1.254   4.700 -0.2077 -0.1761  0.0669
 2814SOL    HW211022   5.505   1.274   4.615  0.6119 -0.8245  0.2762
 2814SOL    HW311023   5.466   1.337   4.748 -0.8336  0.2329 -0.6149
 2814SOL    MW411024   5.471   1.267   4.695 -0.1822 -0.2077  0.0046
 2815SOL     OW11025   0.609   1.959   4.408 -0.1877  0.1625 -0.3930
 2815SOL    HW211026   0.609   1.968   4.504 -1.3613 -1.2412 -0.2164
 2815SOL    HW311027   0.687   2.007   4.379  2.5454 -2.6792  1.6086
 2815SOL    MW411028   0.619   1.967   4.417  0.0181 -0.3976 -0.1057
 2816SOL     OW11029   3.146   4.875   1.038  0.2479 -0.4072 -0.0957
 2816SOL    HW211030   3.210   4.945   1.052  1.0288 -0.4068 -3.1490
 2816SOL    HW311031   3.190   4.796   1.071 -0.2022  0.2732  2.3339
 2816SOL    MW411032   3.160   4.874   1.044  0.2915 -0.3174 -0.1780
 2817SOL     OW11033   3.754   4.795   4.067 -0.0111 -0.6999  0.4254
 2817SOL    HW211034   3.741   4.885   4.037  1.1258 -0.5485  0.3611
 2817SOL    HW311035   3.807   4.804   4.146  1.3957 -1.3889 -0.4119
 2817SOL    MW411036   3.759   4.808   4.074  0.3245 -0.7708  0.3064
 2818SOL     OW11037   1.593   5.228   3.840  0.3298 -0.4315  0.8987
 2818SOL    HW211038   1.618   5.263   3.754 -0.5060  0.2727  0.9254
 2818SOL    HW311039   1.655   5.267   3.901 -1.0345  1.6818  1.0304
 2818SOL    MW411040   1.605   5.238   3.837  0.0395 -0.0598  0.9196
 2819SOL     OW11041   3.641   3.343   3.131 -0.5620 -0.4692  0.2895
 2819SOL    HW211042   3.668   3.374   3.218  2.9796  2.1004 -1.4625
 2819SOL    HW311043   3.573   3.403   3.103 -0.7092 -0.4387  0.7031
 2819SOL    MW411044   3.636   3.355   3.139 -0.1142 -0.1261  0.1129
 2820SOL     OW11045   2.325   5.415   0.450  0.0647 -0.4009 -0.1076
 2820SOL    HW211046   2.269   5.343   0.477 -0.5675 -0.2700 -1.0069
 2820SOL    HW311047   2.381   5.433   0.526 -0.9856 -0.6585  0.7509
 2820SOL    MW411048   2.325   5.408   0.463 -0.1573 -0.4176 -0.1130
 2821SOL     OW11049   3.250   3.829   3.247 -0.2716  0.7486  0.1463
 2821SOL    HW211050   3.340   3.860   3.232 -0.6755  1.8912 -0.0555
 2821SOL    HW311051   3.251   3.796   3.336  0.5320  0.0480 -0.1066
 2821SOL    MW411052   3.262   3.829   3.256 -0.2189  0.8069  0.0863
 2822SOL     OW11053   2.122   5.778   2.534  0.0771  0.0493 -0.7173
 2822SOL    HW211054   2.126   5.856   2.589  1.9136 -0.0900 -0.5820
 2822SOL    HW311055   2.078   5.807   2.454 -1.9349  0.4398  0.4813
 2822SOL    MW411056   2.117   5.792   2.531  0.0539  0.0825 -0.5413
 2823SOL     OW11057   1.877   0.980   4.978 -0.2990  0.1283 -0.0253
 2823SOL    HW211058   1.861   0.939   5.063  1.6021 -1.6999 -0.4696
 2823SOL    HW311059   1.791   1.014   4.952 -0.9459  0.7341  2.5756
 2823SOL    MW411060   1.863   0.979   4.986 -0.1335 -0.0330  0.2593
 2824SOL     OW11061   3.787   2.499   6.338 -0.0817 -0.2601 -0.0725
 2824SOL    HW211062   3.781   2.566   6.270  0.9013  0.3363  0.4069
 2824SOL    HW311063   3.757   2.544   6.417  2.7606  0.3916  0.7466
 2824SOL    MW411064   3.782   2.514   6.340  0.4230 -0.0955  0.0989
 2825SOL     OW11065   5.824   0.530   6.364 -0.0261  0.4364  0.7470
 2825SOL    HW211066   5.747   0.582   6.341  0.3546  1.8404  2.3707
 2825SOL    HW311067   5.820   0.454   6.306 -2.4529  0.6045  0.5759
 2825SOL    MW411068   5.813   0.527   6.353 -0.2961  0.6438  0.9387
 2826SOL     OW11069   5.204   6.155   0.171  0.4721  0.1791  0.2696
 2826SOL    HW211070   5.208   6.248   0.149 -0.9208  0.4410  1.0354
 2826SOL    HW311071   5.290   6.136   0.210  0.3800  1.4186  1.1247
 2826SOL    MW411072   5.216   6.165   0.173  0.2762  0.3772  0.4834
 2827SOL     OW11073   2.097   3.901   5.169 -0.3632  0.6325 -0.1428
 2827SOL    HW211074   2.070   3.896   5.261  0.6069  2.7019  0.3091
 2827SOL    HW311075   2.050   3.977   5.134 -0.3357  0.1658 -1.2251
 2827SOL    MW411076   2.087   3.910   5.177 -0.2316  0.8440 -0.2260
 2828SOL     OW11077   1.313   2.903   1.878 -0.3868  0.5232 -0.2277
 2828SOL    HW211078   1.249   2.942   1.938  0.1814  2.0520 -0.5587
 2828SOL    HW311079   1.393   2.953   1.893  0.7574 -1.3702  0.1919
 2828SOL    MW411080   1.315   2.915   1.888 -0.1609  0.4751 -0.2160
 2829SOL     OW11081   2.251   0.142   2.548  0.3352  0.0107  0.0404
 2829SOL    HW211082   2.278   0.222   2.502  0.1111 -0.8584 -1.6822
 2829SOL    HW311083   2.329   0.086   2.544  0.1026 -0.3191  0.1652
 2829SOL    MW411084   2.265   0.145   2.542  0.2749 -0.1475 -0.1704
 2830SOL     OW11085   4.602   1.482   0.288  0.2048  0.1144 -0.2245
 2830SOL    HW211086   4.516   1.499   0.328  0.8029  0.1465  1.1135
 2830SOL    HW311087   4.613   1.552   0.224 -1.0384 -0.2568 -0.8804
 2830SOL    MW411088   4.592   1.493   0.285  0.1197  0.0697 -0.1345
 2831SOL     OW11089   6.233   3.916   5.767 -0.0444 -0.1913 -0.1630
 2831SOL    HW211090   6.147   3.908   5.724  0.1077  2.2130 -1.0871
 2831SOL    HW311091   6.296   3.908   5.695  0.3360  1.0653  0.0026
 2831SOL    MW411092   6.230   3.914   5.752  0.0259  0.2917 -0.2631
 2832SOL     OW11093   6.024   0.573   1.718  0.5583  0.4213 -0.0997
 2832SOL    HW211094   6.091   0.524   1.670  0.6048 -0.6639  1.0437
 2832SOL    HW311095   6.069   0.608   1.795 -0.2607 -0.7242  0.9409
 2832SOL    MW411096   6.039   0.571   1.722  0.4564  0.1270  0.1884
 2833SOL     OW11097   5.875   2.078   2.002 -0.2945 -0.0820  0.6193
 2833SOL    HW211098   5.796   2.042   1.961  0.5163 -1.0714 -0.1304
 2833SOL    HW311099   5.851   2.168   2.024 -1.0499  0.2566 -1.3183
 2833SOL    MW411100   5.861   2.085   1.999 -0.2872 -0.1678  0.2648
 2834SOL     OW11101   1.190   1.207   3.682  0.4487  0.2444 -0.0831
 2834SOL    HW211102   1.145   1.129   3.714  1.0066 -0.5876 -1.2345
 2834SOL    HW311103   1.263   1.219   3.742 -0.0598  0.3099  0.5228
 2834SOL    MW411104   1.194   1.198   3.694  0.4552  0.1433 -0.1550
 2835SOL     OW11105   2.305   4.383   5.967 -0.2117  0.2031 -0.3680
 2835SOL    HW211106   2.355   4.324   6.023 -0.0198  1.0674  0.3894
 2835SOL    HW311107   2.292   4.334   5.886  0.7132 -0.5345 -0.0847
 2835SOL    MW411108   2.310   4.369   5.964 -0.0644  0.2198 -0.2307
 2836SOL     OW11109   1.791   3.098   0.544  0.1897 -0.0784 -0.4202
 2836SOL    HW211110   1.858   3.128   0.482  0.9571  0.8005  0.7655
 2836SOL    HW311111   1.782   3.005   0.526 -0.7392  0.4088 -2.8417
 2836SOL    MW411112   1.799   3.090   0.534  0.1684  0.1019 -0.5833
 2837SOL     OW11113   6.213   6.399   0.966  0.2835 -0.2539 -0.3301
 2837SOL    HW211114   6.249   6.483   0.995  0.3539  0.3446 -2.0372
 2837SOL    HW311115   6.123   6.398   0.998  0.3118  0.4214 -0.2283
 2837SOL    MW411116   6.206   6.410   0.974  0.2965 -0.0859 -0.5419
 2838SOL     OW11117   1.942   5.312   3.103  0.1107  0.0243 -0.0243
 2838SOL    HW211118   1.964   5.404   3.120  0.7044 -0.1933  0.4406
 2838SOL    HW311119   2.023   5.274   3.071 -0.6420  0.0975 -2.1555
 2838SOL    MW411120   1.956   5.319   3.101  0.0897  0.0053 -0.2441
 2839SOL     OW11121   3.116   2.006   3.583 -0.1352  0.2335 -0.4131
 2839SOL    HW211122   3.144   2.022   3.673 -3.2310 -0.2414  0.7421
 2839SOL    HW311123   3.077   2.088   3.555 -1.7591 -0.4368 -0.2217
 2839SOL    MW411124   3.115   2.019   3.591 -0.7579  0.0824 -0.2355
 2840SOL     OW11125   4.614   5.489   1.566  0.2549  1.1386 -0.4929
 2840SOL    HW211126   4.618   5.405   1.612  3.0881 -0.0061 -2.5437
 2840SOL    HW311127   4.532   5.486   1.517 -0.5970  0.4428  0.8983
 2840SOL    MW411128   4.604   5.478   1.566  0.5163  0.8958 -0.5800
 2841SOL     OW11129   2.544   6.080   3.673  0.8562  0.4146  0.2341
 2841SOL    HW211130   2.487   6.080   3.750  1.3252  0.3769  0.5853
 2841SOL    HW311131   2.616   6.022   3.697  0.0098 -1.1906 -0.9906
 2841SOL    MW411132   2.546   6.073   3.687  0.8064  0.1978  0.1189
 2842SOL     OW11133   4.306   3.715   1.059 -0.4008  0.8901  0.1756
 2842SOL    HW211134   4.319   3.700   0.965  0.8736  3.8816 -0.2462
 2842SOL    HW311135   4.354   3.644   1.101 -0.0873  0.0789 -1.4657
 2842SOL    MW411136   4.314   3.704   1.052 -0.1913  1.1778 -0.0966
 2843SOL     OW11137   0.228   4.246   2.976  0.8458  0.1505 -0.4833
 2843SOL    HW211138   0.179   4.209   3.049  1.0964 -1.4026 -1.0597
 2843SOL    HW311139   0.214   4.341   2.983 -0.9602 -0.1299  0.2538
 2843SOL    MW411140   0.219   4.254   2.987  0.6405 -0.0914 -0.4621
 2844SOL     OW11141   2.548   5.721   0.085 -0.7404 -0.7256  0.1146
 2844SOL    HW211142   2.477   5.680   0.034  0.2604 -2.1747 -0.1771
 2844SOL    HW311143   2.514   5.725   0.174 -1.0069 -1.8935  0.0775
 2844SOL    MW411144   2.534   5.716   0.090 -0.6435 -1.0709  0.0712
 2845SOL     OW11145   4.543   2.097   2.719 -0.1772  0.7285  0.1064
 2845SOL    HW211146   4.627   2.082   2.677  0.5259  2.3718  0.8466
 2845SOL    HW311147   4.560   2.084   2.812 -0.6953  1.2096  0.2757
 2845SOL    MW411148   4.556   2.094   2.726 -0.1528  1.0088  0.2264
 2846SOL     OW11149   5.030   5.104   3.645  0.7436 -0.6913 -0.3149
 2846SOL    HW211150   5.110   5.142   3.609  0.4896  1.9818  1.6450
 2846SOL    HW311151   4.999   5.044   3.577  2.1385  1.3537 -2.9384
 2846SOL    MW411152   5.036   5.101   3.631  0.8941 -0.0688 -0.4024
 2847SOL     OW11153   1.766   0.667   3.318 -0.4520  0.1333 -0.3347
 2847SOL    HW211154   1.691   0.701   3.269 -1.0813 -0.2465  0.3389
 2847SOL    HW311155   1.835   0.657   3.253 -1.3074 -0.4811 -1.1811
 2847SOL    MW411156   1.765   0.670   3.303 -0.6479  0.0021 -0.3575
 2848SOL     OW11157   4.791   0.174   1.175 -0.3198  0.2182  0.1529
 2848SOL    HW211158   4.885   0.156   1.167  0.1123  1.9449  0.9465
 2848SOL    HW311159   4.775   0.243   1.111 -0.8290  0.6730  0.7675
 2848SOL    MW411160   4.801   0.181   1.165 -0.3300  0.5060  0.3387
 2849SOL     OW11161   3.133   1.382   3.918  0.3938  0.4522  0.3947
 2849SOL    HW211162   3.106   1.452   3.976  1.3104  0.0037  1.3855
 2849SOL    HW311163   3.221   1.406   3.889  0.1807  0.3764 -0.3398
 2849SOL    MW411164   3.141   1.394   3.922  0.4866  0.3830  0.4285
 2850SOL     OW11165   3.531   2.603   1.983 -0.5953  0.1239 -0.2639
 2850SOL    HW211166   3.606   2.661   1.968  0.4843 -1.3331 -0.7840
 2850SOL    HW311167   3.456   2.662   1.989  0.0571  1.4573 -3.1543
 2850SOL    MW411168   3.531   2.618   1.982 -0.3668  0.1076 -0.7139
 2851SOL     OW11169   3.048   3.871   6.313  0.6085  0.0798 -0.5753
 2851SOL    HW211170   2.965   3.830   6.289  0.1165  1.9446 -2.2404
 2851SOL    HW311171   3.112   3.833   6.252  0.4026  0.8013 -1.2485
 2851SOL    MW411172   3.045   3.860   6.302  0.5165  0.4210 -0.8838
 2852SOL     OW11173   2.346   2.456   4.469 -0.5563  0.1629  0.6940
 2852SOL    HW211174   2.397   2.513   4.526 -0.2313  0.6098 -0.0326
 2852SOL    HW311175   2.287   2.409   4.528 -0.6309  1.0402  1.3276
 2852SOL    MW411176   2.345   2.457   4.484 -0.5233  0.3376  0.6818
 2853SOL     OW11177   1.778   2.453   5.088 -0.1984 -0.2984  0.3512
 2853SOL    HW211178   1.763   2.390   5.018  2.9433  0.4302 -1.1367
 2853SOL    HW311179   1.718   2.526   5.069  0.7955  0.0131 -1.8272
 2853SOL    MW411180   1.768   2.455   5.077  0.3472 -0.1612 -0.1325
 2854SOL     OW11181   4.428   5.864   2.324 -0.0460 -0.3710  0.1678
 2854SOL    HW211182   4.520   5.888   2.312  0.1818 -0.3341  1.8153
 2854SOL    HW311183   4.384   5.902   2.247  1.5042 -1.7371 -1.5068
 2854SOL    MW411184   4.434   5.872   2.312  0.1886 -0.5464  0.1642
 2855SOL     OW11185   4.810   1.127   1.324  0.1919  0.6127 -0.1371
 2855SOL    HW211186   4.728   1.159   1.286  0.3277  0.9409 -0.1637
 2855SOL    HW311187   4.833   1.051   1.271 -0.3480  0.2196  0.1810
 2855SOL    MW411188   4.802   1.122   1.312  0.1386  0.6041 -0.0986
 2856SOL     OW11189   2.157   5.592   4.931 -0.0618 -0.5484  0.5733
 2856SOL    HW211190   2.095   5.651   4.974 -0.7735 -1.0377  0.2186
 2856SOL    HW311191   2.243   5.622   4.962 -0.2678  1.6836 -0.8167
 2856SOL    MW411192   2.160   5.604   4.941 -0.1829 -0.3185  0.3431
 2857SOL     OW11193   4.078   2.945   1.600  0.4238  0.0175  0.1661
 2857SOL    HW211194   4.151   2.894   1.564  0.1483 -0.9581  0.9598
 2857SOL    HW311195   4.102   2.960   1.691 -0.3448 -0.2866  0.4277
 2857SOL    MW411196   4.091   2.940   1.607  0.2860 -0.1513  0.3053
 2858SOL     OW11197   1.593   5.762   2.819  0.2379  0.4510  0.4778
 2858SOL    HW211198   1.662   5.702   2.846 -0.1473 -0.4256 -0.4079
 2858SOL    HW311199   1.617   5.789   2.730 -1.3798 -1.2480 -0.5692
 2858SOL    MW411200   1.605   5.758   2.811 -0.0264  0.1112  0.2228
 2859SOL     OW11201   5.312   3.507   1.060 -0.1915 -0.4868  0.1829
 2859SOL    HW211202   5.245   3.549   1.114 -0.1046  0.5540 -0.5001
 2859SOL    HW311203   5.335   3.427   1.108 -0.8873 -0.1275  1.1355
 2859SOL    MW411204   5.306   3.502   1.073 -0.2718 -0.3021  0.2185
 2860SOL     OW11205   0.279   4.720   4.800 -0.3276 -0.6575 -0.5158
 2860SOL    HW211206   0.311   4.700   4.888  0.4055  0.5967 -0.4808
 2860SOL    HW311207   0.298   4.641   4.749  0.8850 -0.7306  0.0256
 2860SOL    MW411208   0.285   4.707   4.805 -0.0709 -0.5017 -0.4397
 2861SOL     OW11209   5.471   1.561   0.039 -0.3789 -0.0073 -0.0064
 2861SOL    HW211210   5.410   1.531   0.106  1.9694 -1.2288  1.7638
 2861SOL    HW311211   5.442   1.517  -0.041 -1.2221 -1.3699  0.9979
 2861SOL    MW411212   5.459   1.551   0.037 -0.1803 -0.3482  0.3597
 2862SOL     OW11213   5.634   4.059   0.715  0.4241  0.5227 -0.3698
 2862SOL    HW211214   5.647   3.995   0.645  0.8015  1.1979 -0.9349
 2862SOL    HW311215   5.543   4.047   0.741  0.8696 -1.1934  0.5199
 2862SOL    MW411216   5.624   4.049   0.709  0.5327  0.3854 -0.3270
 2863SOL     OW11217   1.985   2.310   5.836 -0.2601 -0.6645  0.0447
 2863SOL    HW211218   2.072   2.286   5.868 -0.3843 -0.5041  0.5058
 2863SOL    HW311219   2.003   2.365   5.759  0.0253 -2.0635 -0.9281
 2863SOL    MW411220   1.999   2.314   5.830 -0.2388 -0.8279 -0.0228
 2864SOL     OW11221   1.256   1.891   3.031  0.4168  0.3687 -0.4448
 2864SOL    HW211222   1.286   1.905   2.941  1.2516 -1.0447 -0.4204
 2864SOL    HW311223   1.190   1.821   3.024  0.5717  0.1691  0.0461
 2864SOL    MW411224   1.251   1.883   3.018  0.5473  0.1559 -0.3768
 2865SOL     OW11225   1.667   6.008   2.405 -0.5229  0.6461  0.2749
 2865SOL    HW211226   1.583   6.044   2.376 -0.7253 -0.6029 -0.7955
 2865SOL    HW311227   1.730   6.040   2.340 -0.8058 -1.3186 -1.0719
 2865SOL    MW411228   1.664   6.017   2.392 -0.5870  0.2221 -0.0441
 2866SOL     OW11229   5.678   5.667   2.642 -0.0013  0.0668 -0.0698
 2866SOL    HW211230   5.682   5.707   2.729  0.5977 -0.3352  0.0890
 2866SOL    HW311231   5.638   5.582   2.656 -0.3522  0.1944 -0.2652
 2866SOL    MW411232   5.673   5.661   2.655  0.0314  0.0306 -0.0747
 2867SOL     OW11233   0.694   2.536   4.896 -0.0422 -0.7735 -0.2395
 2867SOL    HW211234   0.666   2.447   4.917 -1.6392 -0.3652 -0.5442
 2867SOL    HW311235   0.614   2.589   4.899  0.7558  0.5304 -0.7464
 2867SOL    MW411236   0.680   2.532   4.899 -0.1476 -0.5476 -0.3466
 2868SOL     OW11237   5.572   6.280   4.935 -0.6850 -0.5026 -0.1062
 2868SOL    HW211238   5.581   6.336   4.857 -0.4993  2.9097  2.1265
 2868SOL    HW311239   5.648   6.222   4.932  1.2913  1.9274 -0.7964
 2868SOL    MW411240   5.583   6.280   4.924 -0.3998  0.2682  0.0973
 2869SOL     OW11241   1.533   1.062   6.152 -0.5736 -1.1557 -0.3027
 2869SOL    HW211242   1.557   1.149   6.186 -0.4568 -1.2410 -0.1660
 2869SOL    HW311243   1.492   1.018   6.227 -0.3535 -1.3294 -0.2864
 2869SOL    MW411244   1.531   1.068   6.166 -0.5291 -1.1899 -0.2825
 2870SOL     OW11245   1.240   2.958   4.556 -0.3116 -0.0061  0.4269
 2870SOL    HW211246   1.322   2.918   4.585  0.0614 -0.3419 -0.9842
 2870SOL    HW311247   1.268   3.030   4.500 -0.9928  0.7123  0.9890
 2870SOL    MW411248   1.255   2.962   4.552 -0.3523  0.0444  0.3149
 2871SOL     OW11249   0.178   3.280   5.905  0.5122  0.3417  0.1782
 2871SOL    HW211250   0.119   3.319   5.840 -0.2641  1.1184  1.3168
 2871SOL    HW311251   0.222   3.355   5.945  1.3013 -0.1636  0.2730
 2871SOL    MW411252   0.176   3.295   5.901  0.5139  0.3775  0.3409
 2872SOL     OW11253   0.091   6.395   6.062 -0.0234  0.3431  0.0783
 2872SOL    HW211254   0.138   6.474   6.035 -1.4322  0.7017 -1.3925
 2872SOL    HW311255   0.113   6.386   6.155  2.2128  0.9903 -0.3214
 2872SOL    MW411256   0.100   6.405   6.071  0.0857  0.4758 -0.1685
 2873SOL     OW11257   2.625   0.153   6.026 -0.5688 -0.3275  0.2010
 2873SOL    HW211258   2.642   0.218   6.094 -0.8692  0.5555 -0.5379
 2873SOL    HW311259   2.641   0.069   6.068  2.8745  0.2727  0.3846
 2873SOL    MW411260   2.630   0.151   6.040 -0.1541 -0.1318  0.1278
 2874SOL     OW11261   3.686   2.164   4.538  0.1932  0.0928 -0.3627
 2874SOL    HW211262   3.603   2.119   4.521  0.5012 -0.1136 -1.3924
 2874SOL    HW311263   3.682   2.188   4.631  0.2087 -2.4571  0.3767
 2874SOL    MW411264   3.675   2.161   4.548  0.2358 -0.2708 -0.4010
 2875SOL     OW11265   3.205   4.319   0.387 -0.4530 -0.0179 -0.0764
 2875SOL    HW211266   3.207   4.260   0.462  1.8762 -0.9947 -0.8029
 2875SOL    HW311267   3.186   4.263   0.312  0.5934  0.3197 -0.6204
 2875SOL    MW411268   3.203   4.304   0.387 -0.0076 -0.1022 -0.2440
 2876SOL     OW11269   6.341   1.584   2.691 -0.1880  0.0653 -0.9799
 2876SOL    HW211270   6.289   1.567   2.612 -0.7423 -0.5145 -0.5037
 2876SOL    HW311271   6.422   1.533   2.678 -0.3016 -0.0724 -1.1516
 2876SOL    MW411272   6.345   1.575   2.679 -0.2761 -0.0294 -0.9397
 2877SOL     OW11273   2.666   3.918   3.549 -0.1901 -0.9079  0.3902
 2877SOL    HW211274   2.594   3.855   3.555 -0.2261 -0.9105 -0.0776
 2877SOL    HW311275   2.678   3.933   3.455  1.0367 -1.6336  0.3957
 2877SOL    MW411276   2.658   3.911   3.537 -0.0330 -1.0040  0.3292
 2878SOL     OW11277   4.046   1.586   5.943 -0.2404 -0.4964 -0.4111
 2878SOL    HW211278   3.952   1.578   5.924 -0.8418 -0.9465  2.2970
 2878SOL    HW311279   4.052   1.664   5.998  0.6206 -1.6261  1.1633
 2878SOL    MW411280   4.034   1.595   5.948 -0.2062 -0.7048  0.1539
 2879SOL     OW11281   3.684   0.809   1.679  0.2218 -0.5831 -0.1445
 2879SOL    HW211282   3.754   0.755   1.715  1.3592 -1.5634 -3.4155
 2879SOL    HW311283   3.727   0.888   1.648 -0.1859 -0.8563 -1.4942
 2879SOL    MW411284   3.699   0.812   1.680  0.3181 -0.7485 -0.7541
 2880SOL     OW11285   3.634   5.148   3.454 -0.0256 -0.1019 -0.2779
 2880SOL    HW211286   3.695   5.181   3.519  0.3022 -2.3209  0.6419
 2880SOL    HW311287   3.676   5.166   3.370  0.9201  0.2417  0.2559
 2880SOL    MW411288   3.648   5.155   3.452  0.1425 -0.3494 -0.0861
 2881SOL     OW11289   2.492   4.982   2.480 -0.1829 -0.0493 -0.9795
 2881SOL    HW211290   2.403   4.951   2.468 -0.0773 -0.1892 -1.4171
 2881SOL    HW311291   2.492   5.071   2.445 -0.3126  0.1954 -0.3691
 2881SOL    MW411292   2.480   4.990   2.474 -0.1861 -0.0355 -0.9567
 2882SOL     OW11293   3.720   4.316   2.342  0.4054 -0.2915  0.3668
 2882SOL    HW211294   3.648   4.291   2.399  1.2774  0.4119  1.8378
 2882SOL    HW311295   3.706   4.409   2.325  0.0602 -0.5270 -0.7511
 2882SOL    MW411296   3.709   4.325   2.347  0.4749 -0.2297  0.4134
 2883SOL     OW11297   5.754   1.641   3.049 -0.1719  0.3859  0.1857
 2883SOL    HW211298   5.717   1.554   3.062 -0.1531  0.2387 -0.6862
 2883SOL    HW311299   5.800   1.660   3.131 -0.9314 -0.0403  0.7211
 2883SOL    MW411300   5.755   1.632   3.061 -0.2696  0.3103  0.1413
 2884SOL     OW11301   0.786   1.642   1.460 -1.1095  0.2130 -0.1145
 2884SOL    HW211302   0.857   1.693   1.499 -1.7527 -1.1139  3.1120
 2884SOL    HW311303   0.827   1.561   1.432 -0.8782  0.6301 -1.0145
 2884SOL    MW411304   0.801   1.638   1.462 -1.1638  0.0930  0.1924
 2885SOL     OW11305   0.696   5.393   5.222 -0.1529 -0.0311  0.1182
 2885SOL    HW211306   0.682   5.303   5.251  1.0918 -0.1373  0.4750
 2885SOL    HW311307   0.769   5.386   5.159 -0.4734  0.6495 -0.3396
 2885SOL    MW411308   0.704   5.380   5.217 -0.0310  0.0447  0.1049
 2886SOL     OW11309   4.151   3.455   4.669 -0.6040 -0.2441  0.5497
 2886SOL    HW211310   4.062   3.471   4.699 -0.7608 -0.7743  0.3840
 2886SOL    HW311311   4.206   3.488   4.740 -0.9066  0.6447  0.3886
 2886SOL    MW411312   4.147   3.461   4.682 -0.6646 -0.1968  0.5066
 2887SOL     OW11313   5.492   5.319   4.991 -0.3563 -0.2885  0.0721
 2887SOL    HW211314   5.544   5.343   4.914 -0.5952  0.5350  0.1539
 2887SOL    HW311315   5.544   5.350   5.065  0.5858 -2.4127  0.3536
 2887SOL    MW411316   5.506   5.326   4.990 -0.2636 -0.4601  0.1200
 2888SOL     OW11317   1.529   2.096   3.156  0.0481  0.1892 -0.2912
 2888SOL    HW211318   1.529   2.183   3.116  1.9324 -0.4988 -1.9669
 2888SOL    HW311319   1.572   2.108   3.241  1.4920  0.7086 -1.0708
 2888SOL    MW411320   1.535   2.109   3.162  0.4872  0.1670 -0.6152
 2889SOL     OW11321   5.664   4.630   5.468 -0.6164 -0.2031  0.5455
 2889SOL    HW211322   5.720   4.686   5.414  0.1168 -0.9217  0.5429
 2889SOL    HW311323   5.695   4.643   5.557  1.3373 -2.5032  0.3143
 2889SOL    MW411324   5.675   4.639   5.472 -0.2619 -0.6014  0.5147
 2890SOL     OW11325   0.887   3.583   6.221  0.1757 -0.3945  0.3040
 2890SOL    HW211326   0.839   3.541   6.292  1.1192  0.3055  1.4118
 2890SOL    HW311327   0.873   3.527   6.145 -3.2440  0.3358  0.2471
 2890SOL    MW411328   0.879   3.570   6.221 -0.1510 -0.2058  0.4426
 2891SOL     OW11329   4.234   0.829   0.712  0.0685  0.2953 -0.3009
 2891SOL    HW211330   4.166   0.777   0.669  0.3339 -0.9826  0.7836
 2891SOL    HW311331   4.196   0.853   0.796  0.8183 -0.1442  0.1728
 2891SOL    MW411332   4.220   0.825   0.717  0.2025  0.0687 -0.0953
 2892SOL     OW11333   5.582   3.922   2.772  0.1194 -0.3946  0.3281
 2892SOL    HW211334   5.530   3.859   2.822 -0.8128  0.0911  0.0013
 2892SOL    HW311335   5.595   3.880   2.687 -1.4412  0.2532 -0.2812
 2892SOL    MW411336   5.577   3.908   2.768 -0.2095 -0.2451  0.2046
 2893SOL     OW11337   0.273   5.930   5.223  0.4311 -0.4209  0.0149
 2893SOL    HW211338   0.231   6.015   5.233  0.5180 -0.5122  1.2172
 2893SOL    HW311339   0.251   5.904   5.133 -3.5077 -1.1729  0.9796
 2893SOL    MW411340   0.264   5.938   5.212 -0.0771 -0.5321  0.3008
 2894SOL     OW11341   5.220   6.351   5.101  0.0107 -0.3825 -0.3774
 2894SOL    HW211342   5.242   6.401   5.022 -0.8542  0.6400  0.0035
 2894SOL    HW311343   5.125   6.346   5.101  0.0019 -0.4744  0.5336
 2894SOL    MW411344   5.210   6.357   5.091 -0.1046 -0.2597 -0.2070
 2895SOL     OW11345   3.525   2.874   3.718  0.2231 -0.1075  0.1331
 2895SOL    HW211346   3.495   2.884   3.808  0.9962 -0.3040  0.4169
 2895SOL    HW311347   3.505   2.783   3.696  0.3786 -0.1671  0.2366
 2895SOL    MW411348   3.518   2.863   3.727  0.3456 -0.1413  0.1842
 2896SOL     OW11349   5.769   0.286   6.177 -0.2484  0.8195 -0.3453
 2896SOL    HW211350   5.682   0.276   6.137 -1.0913  0.6368  1.4217
 2896SOL    HW311351   5.798   0.197   6.192 -1.1503  0.8476  1.8487
 2896SOL    MW411352   5.761   0.273   6.173 -0.4786  0.7991  0.1773
 2897SOL     OW11353   2.516   5.580   1.171  0.2603  0.4386  0.4927
 2897SOL    HW211354   2.566   5.527   1.109  2.7444  2.2386  0.7626
 2897SOL    HW311355   2.465   5.639   1.116  1.0428  0.7954  0.1238
 2897SOL    MW411356   2.516   5.581   1.155  0.6912  0.7231  0.4797
 2898SOL     OW11357   5.828   2.064   2.864 -0.4346  0.6933  0.0807
 2898SOL    HW211358   5.795   2.072   2.953  3.1872 -1.0691  1.8216
 2898SOL    HW311359   5.813   1.972   2.841 -0.5693  0.9201 -0.7652
 2898SOL    MW411360   5.822   2.053   2.873  0.0255  0.4907  0.1988
 2899SOL     OW11361   5.120   4.398   1.928  0.7529  0.0188 -0.3377
 2899SOL    HW211362   5.097   4.311   1.960 -0.1965 -0.1082 -1.3239
 2899SOL    HW311363   5.104   4.456   2.002  1.6987 -0.6729  0.4286
 2899SOL    MW411364   5.115   4.394   1.942  0.7524 -0.0892 -0.3667
 2900SOL     OW11365   4.774   1.384   5.513  0.1596 -0.0718 -0.2119
 2900SOL    HW211366   4.794   1.477   5.505  0.5680 -0.2016 -0.7766
 2900SOL    HW311367   4.810   1.345   5.433 -1.4320 -0.4867 -0.7682
 2900SOL    MW411368   4.782   1.391   5.501  0.0035 -0.1437 -0.3598
 2901SOL     OW11369   5.965   4.798   2.167  0.2658 -0.1411 -0.0564
 2901SOL    HW211370   5.970   4.714   2.122 -0.0549 -0.0696 -0.2266
 2901SOL    HW311371   5.982   4.863   2.099 -0.0794 -0.0393 -0.0456
 2901SOL    MW411372   5.968   4.796   2.152  0.1779 -0.1182 -0.0775
 2902SOL     OW11373   0.444   2.527   4.460  0.1751 -0.1660 -0.8808
 2902SOL    HW211374   0.534   2.558   4.464  0.4022 -0.5586 -2.3472
 2902SOL    HW311375   0.445   2.459   4.393 -0.9577 -1.1196  0.0202
 2902SOL    MW411376   0.456   2.522   4.452  0.0556 -0.3436 -0.9554
 2903SOL     OW11377   2.338   4.643   3.613 -0.6238  0.0849  0.2054
 2903SOL    HW211378   2.329   4.707   3.543 -0.1574 -0.1592 -0.0875
 2903SOL    HW311379   2.414   4.590   3.587 -0.9693 -0.5460  0.4679
 2903SOL    MW411380   2.347   4.644   3.600 -0.6079 -0.0305  0.2014
 2904SOL     OW11381   1.498   2.554   0.194  0.4944 -0.0146  0.0149
 2904SOL    HW211382   1.430   2.505   0.241 -0.2352  1.3995  0.4883
 2904SOL    HW311383   1.558   2.487   0.162 -0.0713 -1.1619  1.2645
 2904SOL    MW411384   1.497   2.539   0.196  0.3235  0.0206  0.2422
 2905SOL     OW11385   4.748   1.915   0.632  0.2881  0.1594  0.1709
 2905SOL    HW211386   4.756   2.009   0.649  0.3437  0.2774 -0.5133
 2905SOL    HW311387   4.700   1.909   0.550  0.2573 -0.4154  0.2267
 2905SOL    MW411388   4.743   1.927   0.624  0.2914  0.0991  0.0880
 2906SOL     OW11389   0.675   2.291   4.142  0.6407  0.7957 -0.0116
 2906SOL    HW211390   0.721   2.371   4.115 -0.2505  0.6416 -2.1911
 2906SOL    HW311391   0.604   2.322   4.199  1.1294  1.4054  0.2731
 2906SOL    MW411392   0.671   2.306   4.146  0.5876  0.8558 -0.2616
 2907SOL     OW11393   4.925   5.062   4.676  0.1669  0.1020 -0.4199
 2907SOL    HW211394   4.907   5.080   4.584  1.7922  0.7539 -0.6385
 2907SOL    HW311395   4.943   5.148   4.715  1.6065 -0.3599 -0.0035
 2907SOL    MW411396   4.925   5.076   4.669  0.5712  0.1271 -0.3938
 2908SOL     OW11397   2.923   5.018   5.515 -0.2157  0.2321  0.3384
 2908SOL    HW211398   2.995   5.008   5.453  0.2192 -2.2311  1.1025
 2908SOL    HW311399   2.935   5.105   5.552  1.0523  0.7311 -1.1359
 2908SOL    MW411400   2.934   5.028   5.512  0.0090 -0.0271  0.2447
 2909SOL     OW11401   3.135   0.473   1.464 -0.4405 -0.7121  0.0122
 2909SOL    HW211402   3.160   0.424   1.542  0.9754 -0.2003 -0.1046
 2909SOL    HW311403   3.063   0.529   1.493 -0.9144 -1.5927  0.5680
 2909SOL    MW411404   3.128   0.474   1.478 -0.3162 -0.7607  0.0701
 2910SOL     OW11405   3.727   4.412   0.755  0.2682  0.7464 -0.1840
 2910SOL    HW211406   3.775   4.493   0.738  1.7771 -0.2248 -0.7066
 2910SOL    HW311407   3.648   4.419   0.701  1.2207  1.1273 -1.5650
 2910SOL    MW411408   3.723   4.424   0.745  0.5929  0.6685 -0.4351
 2911SOL     OW11409   6.003   6.270   0.695  0.3377  0.0552 -0.2562
 2911SOL    HW211410   5.970   6.200   0.639  2.8043 -1.2976 -0.1300
 2911SOL    HW311411   6.005   6.348   0.639 -0.2082 -0.5191 -1.0823
 2911SOL    MW411412   5.999   6.271   0.680  0.5911 -0.1991 -0.3485
 2912SOL     OW11413   3.752   0.570   5.252 -0.2552 -0.6953 -0.0707
 2912SOL    HW211414   3.774   0.577   5.345  0.3375  0.4728 -0.2764
 2912SOL    HW311415   3.818   0.511   5.217  0.8943  0.5717 -0.1357
 2912SOL    MW411416   3.764   0.563   5.260 -0.0253 -0.3740 -0.1064
 2913SOL     OW11417   6.080   4.316   3.536  0.2897  0.3406  0.2713
 2913SOL    HW211418   6.008   4.308   3.473  0.6531  0.1317 -0.1243
 2913SOL    HW311419   6.159   4.307   3.483  0.6502  2.0925  0.4501
 2913SOL    MW411420   6.081   4.314   3.521  0.3852  0.5442  0.2427
 2914SOL     OW11421   5.836   5.968   3.770  0.0549 -0.7143 -0.1120
 2914SOL    HW211422   5.803   5.881   3.748 -0.1111 -0.7016  0.0792
 2914SOL    HW311423   5.791   5.990   3.852 -0.5678 -0.0789 -0.6146
 2914SOL    MW411424   5.826   5.960   3.778 -0.0491 -0.6288 -0.1530
 2915SOL     OW11425   4.009   5.824   3.371 -0.1305 -0.4488 -0.3790
 2915SOL    HW211426   4.074   5.766   3.332 -0.5017 -1.7860  0.9065
 2915SOL    HW311427   4.051   5.856   3.451 -0.7714 -0.7343  0.0774
 2915SOL    MW411428   4.023   5.821   3.376 -0.2641 -0.6629 -0.1492
 2916SOL     OW11429   1.621   3.516   3.977 -0.3339 -0.7066  0.0424
 2916SOL    HW211430   1.578   3.430   3.972 -0.6877 -0.6178  1.1672
 2916SOL    HW311431   1.713   3.495   3.993 -0.3747 -0.8810  0.0570
 2916SOL    MW411432   1.627   3.502   3.979 -0.3860 -0.7179  0.1927
 2917SOL     OW11433   1.565   1.418   0.337  0.6319 -0.0295  0.2466
 2917SOL    HW211434   1.632   1.428   0.404 -0.9354  1.1386  1.7220
 2917SOL    HW311435   1.491   1.470   0.369 -0.7294 -0.6956 -1.6485
 2917SOL    MW411436   1.564   1.426   0.350  0.2455  0.0368  0.1912
 2918SOL     OW11437   2.118   2.092   0.519  0.0601 -0.4382  0.4479
 2918SOL    HW211438   2.118   2.151   0.443 -0.3983 -1.0797 -0.0635
 2918SOL    HW311439   2.172   2.137   0.584  0.1006  0.3278 -0.0992
 2918SOL    MW411440   2.125   2.106   0.517  0.0050 -0.4218  0.3083
 2919SOL     OW11441   2.605   0.100   2.949 -0.5612 -0.4089 -0.0373
 2919SOL    HW211442   2.617   0.123   2.857  0.4176 -0.4168  0.0757
 2919SOL    HW311443   2.547   0.168   2.984 -0.3867 -0.0200 -0.4961
 2919SOL    MW411444   2.599   0.112   2.941 -0.4091 -0.3586 -0.0829
 2920SOL     OW11445   2.353   5.080   1.834  0.1404 -0.5717 -0.4595
 2920SOL    HW211446   2.367   4.991   1.865  0.3215 -0.7796 -1.1123
 2920SOL    HW311447   2.438   5.122   1.843  0.1854 -0.6229 -0.6399
 2920SOL    MW411448   2.366   5.074   1.839  0.1702 -0.6059 -0.5694
 2921SOL     OW11449   2.438   0.497   4.376 -0.2512 -0.2194 -0.1813
 2921SOL    HW211450   2.503   0.509   4.307  0.4111 -1.6683  0.1563
 2921SOL    HW311451   2.354   0.492   4.330  0.1227 -0.5527 -0.8380
 2921SOL    MW411452   2.436   0.498   4.361 -0.1145 -0.4546 -0.2234
 2922SOL     OW11453   3.244   2.491   3.312 -0.2022  0.6236 -0.2852
 2922SOL    HW211454   3.168   2.537   3.277 -1.4558 -0.4600  0.9001
 2922SOL    HW311455   3.212   2.450   3.392  1.2327 -1.1327 -0.5674
 2922SOL    MW411456   3.230   2.492   3.318 -0.1783  0.2489 -0.1660
 2923SOL     OW11457   0.158   5.744   1.475 -0.0437 -0.0019 -0.5632
 2923SOL    HW211458   0.196   5.672   1.425  0.0260  0.5958 -1.3888
 2923SOL    HW311459   0.076   5.764   1.430 -0.1605  0.3105 -0.2205
 2923SOL    MW411460   0.152   5.737   1.463 -0.0499  0.1182 -0.6269
 2924SOL     OW11461   0.057   1.772   5.850 -0.5586 -0.4140 -0.1731
 2924SOL    HW211462   0.129   1.709   5.856 -0.2618 -0.0055  0.8381
 2924SOL    HW311463   0.079   1.827   5.774  1.8238  1.6081  1.8133
 2924SOL    MW411464   0.070   1.771   5.841 -0.2051 -0.0933  0.2224
 2925SOL     OW11465   1.058   6.196   4.649  0.7533  0.1250 -0.2606
 2925SOL    HW211466   0.969   6.196   4.613  0.7198 -0.2347 -0.1773
 2925SOL    HW311467   1.107   6.255   4.591  1.0598 -1.5759 -1.7955
 2925SOL    MW411468   1.053   6.204   4.637  0.7894 -0.1469 -0.4521
 2926SOL     OW11469   5.673   4.662   6.210 -0.4756 -0.6302  0.4009
 2926SOL    HW211470   5.676   4.590   6.273  0.3930 -0.3040  0.7424
 2926SOL    HW311471   5.764   4.685   6.195 -0.7499  0.7135  0.6590
 2926SOL    MW411472   5.685   4.655   6.217 -0.3972 -0.4098  0.4800
 2927SOL     OW11473   4.157   1.564   1.098 -0.2402 -0.4728 -0.4625
 2927SOL    HW211474   4.210   1.612   1.162 -0.5222 -0.8658  0.0704
 2927SOL    HW311475   4.103   1.506   1.150 -0.2968 -0.9834 -1.0776
 2927SOL    MW411476   4.157   1.563   1.113 -0.2849 -0.5920 -0.4734
 2928SOL     OW11477   5.704   3.725   4.568  0.3084 -0.0999 -0.2946
 2928SOL    HW211478   5.651   3.661   4.615  2.2458 -0.2450  1.8274
 2928SOL    HW311479   5.702   3.804   4.623  0.9499  0.4356 -1.0128
 2928SOL    MW411480   5.696   3.727   4.581  0.6486 -0.0484 -0.1094
 2929SOL     OW11481   1.783   0.402   2.832 -0.6442 -0.0139  0.1937
 2929SOL    HW211482   1.801   0.310   2.853  0.2806  0.2380  0.5735
 2929SOL    HW311483   1.720   0.430   2.898 -1.8543 -0.6787 -0.6286
 2929SOL    MW411484   1.777   0.394   2.843 -0.6818 -0.0684  0.1353
 2930SOL     OW11485   6.355   1.381   1.198  0.1715 -0.0816 -0.1115
 2930SOL    HW211486   6.347   1.300   1.148  0.1933  0.6807 -1.4311
 2930SOL    HW311487   6.385   1.445   1.133  0.7316  0.8427  1.0272
 2930SOL    MW411488   6.358   1.379   1.183  0.2483  0.1409 -0.1354
 2931SOL     OW11489   3.797   5.192   3.205 -1.0972  0.2400  0.4086
 2931SOL    HW211490   3.852   5.270   3.215 -0.9663  0.2116 -0.0790
 2931SOL    HW311491   3.765   5.196   3.115 -0.7602 -0.4822  0.2490
 2931SOL    MW411492   3.800   5.202   3.195 -1.0355  0.1410  0.3232
 2932SOL     OW11493   3.895   0.347   0.492 -0.1843  0.0783 -0.1469
 2932SOL    HW211494   3.879   0.379   0.580 -0.1120  1.8579 -0.7390
 2932SOL    HW311495   3.909   0.253   0.502 -0.3716  0.2243  1.6967
 2932SOL    MW411496   3.895   0.339   0.505 -0.1995  0.3324  0.0182
 2933SOL     OW11497   3.308   5.922   5.783 -0.0575  0.4009 -0.2970
 2933SOL    HW211498   3.388   5.973   5.794 -0.6213  0.9544  1.4229
 2933SOL    HW311499   3.241   5.971   5.831 -0.9563 -1.1543  0.0875
 2933SOL    MW411500   3.310   5.935   5.791 -0.2504  0.2688 -0.0194
 2934SOL     OW11501   4.288   3.816   0.719 -0.0311 -0.2754  0.4324
 2934SOL    HW211502   4.361   3.829   0.779 -1.0146  1.3766  1.3550
 2934SOL    HW311503   4.211   3.844   0.769 -1.3300 -1.9531 -0.5001
 2934SOL    MW411504   4.287   3.821   0.734 -0.3322 -0.2788  0.4311
 2935SOL     OW11505   6.115   4.863   0.356 -0.1257  0.2068  0.5213
 2935SOL    HW211506   6.049   4.904   0.411 -0.1482  1.8999 -0.7050
 2935SOL    HW311507   6.161   4.936   0.314  0.4292 -0.9959 -1.0661
 2935SOL    MW411508   6.113   4.878   0.358 -0.0554  0.2715  0.1500
 2936SOL     OW11509   4.217   0.963   5.959  0.0031  0.2869  0.5241
 2936SOL    HW211510   4.260   0.879   5.947 -1.5390 -0.2350 -1.9916
 2936SOL    HW311511   4.284   1.028   5.934  0.4749 -0.3166  0.1929
 2936SOL    MW411512   4.231   0.961   5.954 -0.1381  0.1384  0.1485
 2937SOL     OW11513   3.669   5.345   4.067  0.0470 -1.0663  0.3647
 2937SOL    HW211514   3.638   5.292   4.140 -1.1004  0.3914  1.0059
 2937SOL    HW311515   3.590   5.390   4.036  0.4112 -1.9790 -2.0933
 2937SOL    MW411516   3.654   5.344   4.073 -0.0564 -0.9944  0.1250
 2938SOL     OW11517   2.864   2.540   2.050  0.1105  0.2809 -0.0752
 2938SOL    HW211518   2.949   2.549   2.093 -0.1961 -0.1493  0.6337
 2938SOL    HW311519   2.813   2.485   2.109 -1.3043  2.0704  0.4568
 2938SOL    MW411520   2.869   2.534   2.063 -0.1166  0.4602  0.0885
 2939SOL     OW11521   1.095   1.080   0.798 -0.2993 -0.2308 -0.2617
 2939SOL    HW211522   1.039   1.067   0.721 -2.3192 -1.4501  1.2779
 2939SOL    HW311523   1.051   1.030   0.867  2.6586 -1.1162  1.1345
 2939SOL    MW411524   1.082   1.071   0.797 -0.1755 -0.5085  0.1256
 2940SOL     OW11525   6.408   3.608   1.604 -0.5709 -0.0868 -0.2023
 2940SOL    HW211526   6.463   3.532   1.624 -1.4088 -1.0382 -1.3444
 2940SOL    HW311527   6.422   3.624   1.511 -1.5879  0.1495 -0.3278
 2940SOL    MW411528   6.417   3.600   1.594 -0.8156 -0.1811 -0.3696
 2941SOL     OW11529   5.947   5.630   1.346 -0.1027 -0.2633 -0.1638
 2941SOL    HW211530   5.915   5.708   1.392  0.8883  0.2682 -0.3519
 2941SOL    HW311531   5.867   5.588   1.312 -0.7941 -0.3128  1.4584
 2941SOL    MW411532   5.932   5.634   1.347 -0.0631 -0.1997  0.0254
 2942SOL     OW11533   1.004   1.872   0.686  0.3780  0.2571 -0.1066
 2942SOL    HW211534   1.062   1.796   0.679  1.0993  0.7718  0.1287
 2942SOL    HW311535   0.920   1.836   0.715  0.1214 -0.6922 -1.8921
 2942SOL    MW411536   1.001   1.857   0.689  0.4393  0.1997 -0.3111
 2943SOL     OW11537   1.725   3.807   1.247  0.2186  0.8327  0.0753
 2943SOL    HW211538   1.811   3.806   1.204 -0.5411  0.9611 -1.4973
 2943SOL    HW311539   1.683   3.727   1.216 -0.1190  0.5936  1.1159
 2943SOL    MW411540   1.731   3.796   1.237  0.0738  0.8181  0.0051
 2944SOL     OW11541   6.405   1.861   4.926  0.3918  0.0594  0.1283
 2944SOL    HW211542   6.350   1.787   4.903  1.3003 -1.2656  1.9985
 2944SOL    HW311543   6.343   1.929   4.954 -0.4281 -0.1333 -1.1448
 2944SOL    MW411544   6.390   1.860   4.927  0.4035 -0.1408  0.2071
 2945SOL     OW11545   3.677   5.441   5.974 -0.1444  0.1488  0.0515
 2945SOL    HW211546   3.599   5.388   5.960 -0.2372  0.2986 -0.0065
 2945SOL    HW311547   3.651   5.505   6.040  0.4762 -0.9473  1.4069
 2945SOL    MW411548   3.663   5.443   5.981 -0.0748  0.0240  0.2227
 2946SOL     OW11549   1.075   1.408   0.266  0.2988  0.0886  0.8174
 2946SOL    HW211550   1.064   1.438   0.176  0.1941  1.1440  1.1585
 2946SOL    HW311551   1.071   1.313   0.261 -1.1384  0.1638 -0.1156
 2946SOL    MW411552   1.073   1.400   0.254  0.0953  0.2378  0.7393
 2947SOL     OW11553   1.255   1.368   1.710  0.6723 -0.9518  0.4286
 2947SOL    HW211554   1.257   1.276   1.733  1.4104 -0.5332  2.1953
 2947SOL    HW311555   1.296   1.413   1.784  0.3858  0.7925 -0.4029
 2947SOL    MW411556   1.260   1.362   1.722  0.7319 -0.6665  0.5520
 2948SOL     OW11557   1.654   3.065   2.673 -0.6304  0.2041 -0.2182
 2948SOL    HW211558   1.606   3.134   2.628  0.1473  0.9072 -0.0033
 2948SOL    HW311559   1.689   3.010   2.603  1.1587  1.6811 -0.5835
 2948SOL    MW411560   1.652   3.067   2.658 -0.2918  0.4918 -0.2381
 2949SOL     OW11561   5.147   2.120   2.724 -0.1216  0.7048  0.1584
 2949SOL    HW211562   5.090   2.045   2.737  2.4253 -0.9857  2.8133
 2949SOL    HW311563   5.144   2.167   2.807  2.4547  0.3573  0.5460
 2949SOL    MW411564   5.139   2.117   2.737  0.5544  0.4359  0.5598
 2950SOL     OW11565   4.957   5.674   1.438  0.0494  0.2433  0.2548
 2950SOL    HW211566   4.954   5.607   1.506 -2.3366  0.0105  0.0118
 2950SOL    HW311567   4.964   5.757   1.485 -0.7544  0.0330  0.7640
 2950SOL    MW411568   4.957   5.676   1.453 -0.3714  0.1848  0.2899
 2951SOL     OW11569   1.593   1.638   2.668 -0.2442 -0.1300  0.3584
 2951SOL    HW211570   1.560   1.676   2.749  0.0890 -1.2519  1.0427
 2951SOL    HW311571   1.554   1.551   2.664 -1.5921  0.4919 -1.5566
 2951SOL    MW411572   1.584   1.632   2.678 -0.3781 -0.1960  0.1960
 2952SOL     OW11573   1.692   5.297   4.706  0.0671 -0.4470 -0.0283
 2952SOL    HW211574   1.757   5.364   4.683  2.2995 -2.5006 -0.1063
 2952SOL    HW311575   1.742   5.231   4.755 -2.0954 -1.9097  0.3477
 2952SOL    MW411576   1.708   5.297   4.709  0.0763 -0.9109  0.0110
 2953SOL     OW11577   5.952   3.239   0.110 -0.6728 -0.0083 -0.3384
 2953SOL    HW211578   6.024   3.180   0.133  0.1814  0.0444 -2.5822
 2953SOL    HW311579   5.918   3.270   0.194 -0.2168 -2.5519  0.8731
 2953SOL    MW411580   5.957   3.235   0.124 -0.4999 -0.3370 -0.4746
 2954SOL     OW11581   2.354   5.445   2.426  0.0886  0.5750 -0.2004
 2954SOL    HW211582   2.365   5.413   2.337 -0.9470 -0.9986  0.1955
 2954SOL    HW311583   2.260   5.443   2.441  0.1415  2.0250  0.5229
 2954SOL    MW411584   2.343   5.440   2.416 -0.0410  0.5587 -0.0527
 2955SOL     OW11585   0.988   1.113   2.352  0.1519 -0.1776  0.0301
 2955SOL    HW211586   1.022   1.081   2.269 -0.0743 -0.8243  0.1746
 2955SOL    HW311587   0.945   1.036   2.391 -1.8864  0.7037 -0.3610
 2955SOL    MW411588   0.987   1.098   2.346 -0.1469 -0.1466 -0.0024
 2956SOL     OW11589   3.961   5.458   1.019 -0.1962 -0.4354 -0.0312
 2956SOL    HW211590   3.905   5.388   0.988 -0.0565 -0.5091 -0.1206
 2956SOL    HW311591   3.915   5.495   1.094  0.7693 -2.0651  1.4212
 2956SOL    MW411592   3.948   5.454   1.025 -0.0504 -0.6602  0.1486
 2957SOL     OW11593   0.703   1.637   0.175 -0.3746  0.1154 -0.0592
 2957SOL    HW211594   0.743   1.601   0.095 -1.0509  1.0837 -0.8547
 2957SOL    HW311595   0.778   1.660   0.230  0.1096 -0.2726 -0.5372
 2957SOL    MW411596   0.718   1.635   0.172 -0.4000  0.1919 -0.2272
 2958SOL     OW11597   2.264   3.898   5.618 -0.1153  0.8592 -0.6400
 2958SOL    HW211598   2.326   3.930   5.553  0.0772  2.1443  0.1455
 2958SOL    HW311599   2.317   3.846   5.679 -0.0762  0.7229 -0.7889
 2958SOL    MW411600   2.279   3.895   5.618 -0.0848  1.0107 -0.5560
 2959SOL     OW11601   4.375   6.350   1.886 -0.0737  0.2366 -0.0537
 2959SOL    HW211602   4.357   6.359   1.979 -1.5311  4.4451 -0.5563
 2959SOL    HW311603   4.298   6.305   1.851  0.0256 -0.4468  0.5611
 2959SOL    MW411604   4.362   6.345   1.894 -0.2529  0.7017 -0.0389
 2960SOL     OW11605   2.412   2.769   6.179 -0.4862 -0.5039  0.9229
 2960SOL    HW211606   2.450   2.857   6.186  1.5893 -1.4064  2.1354
 2960SOL    HW311607   2.355   2.762   6.255  0.2536 -0.5776  1.4847
 2960SOL    MW411608   2.409   2.780   6.190 -0.1148 -0.6327  1.1570
 2961SOL     OW11609   0.883   5.339   3.801 -0.3368  0.8862  0.2006
 2961SOL    HW211610   0.811   5.394   3.769 -2.4527 -0.2211  2.6529
 2961SOL    HW311611   0.900   5.371   3.889  1.7336  0.6023 -0.0442
 2961SOL    MW411612   0.876   5.351   3.808 -0.3428  0.7026  0.4919
 2962SOL     OW11613   3.329   5.314   0.777  0.1746 -0.1121  0.0726
 2962SOL    HW211614   3.256   5.374   0.791 -2.3523 -3.1431  1.2161
 2962SOL    HW311615   3.398   5.344   0.837 -1.5380  0.8040  1.6687
 2962SOL    MW411616   3.329   5.325   0.787 -0.3848 -0.3911  0.4340
 2963SOL     OW11617   1.512   5.531   1.512  0.0296 -0.3167  0.4447
 2963SOL    HW211618   1.460   5.451   1.515 -0.3670 -0.0346  2.9022
 2963SOL    HW311619   1.465   5.593   1.568  0.2037  1.7603 -1.5565
 2963SOL    MW411620   1.499   5.529   1.520  0.0002 -0.0054  0.5049
 2964SOL     OW11621   4.333   2.384   0.898 -0.3451 -0.3682  0.1438
 2964SOL    HW211622   4.281   2.387   0.818  0.9534  0.5941 -0.7273
 2964SOL    HW311623   4.385   2.464   0.895 -0.8493  0.1210  2.3967
 2964SOL    MW411624   4.333   2.395   0.887 -0.2403 -0.1767  0.3261
 2965SOL     OW11625   2.364   0.990   5.941 -0.0415  0.3452  0.1804
 2965SOL    HW211626   2.282   0.960   5.900  0.6105  0.0423 -0.9484
 2965SOL    HW311627   2.343   1.077   5.974 -0.3923  0.9325 -1.5130
 2965SOL    MW411628   2.350   0.997   5.940 -0.0017  0.3827 -0.1919
 2966SOL     OW11629   1.199   3.154   5.053 -0.2757  0.3043  0.3733
 2966SOL    HW211630   1.216   3.249   5.056 -0.3059  0.2968  0.8137
 2966SOL    HW311631   1.137   3.143   4.980  0.5176  0.4982 -0.3476
 2966SOL    MW411632   1.193   3.165   5.044 -0.1750  0.3289  0.3363
 2967SOL     OW11633   0.058   1.730   4.558  0.1835  0.0585  0.3228
 2967SOL    HW211634   0.072   1.698   4.469  0.7637  1.1524 -0.0078
 2967SOL    HW311635  -0.014   1.793   4.549 -0.0892 -0.1946  0.7190
 2967SOL    MW411636   0.050   1.734   4.545  0.2241  0.1695  0.3315
 2968SOL     OW11637   2.440   2.878   3.400 -0.1071  0.0763 -0.0471
 2968SOL    HW211638   2.511   2.943   3.397 -0.4600  0.4706  0.0329
 2968SOL    HW311639   2.360   2.931   3.398 -0.4002 -0.3885 -0.6909
 2968SOL    MW411640   2.439   2.894   3.399 -0.1923  0.0670 -0.1215
 2969SOL     OW11641   3.783   1.617   5.854 -0.3278 -0.2053 -0.0501
 2969SOL    HW211642   3.783   1.704   5.815 -2.8087  1.3712  2.9408
 2969SOL    HW311643   3.737   1.561   5.791  1.9760  0.3482 -2.3546
 2969SOL    MW411644   3.777   1.621   5.841 -0.3511  0.0757  0.0405
 2970SOL     OW11645   4.605   4.983   2.931  0.3136  0.0808 -0.3538
 2970SOL    HW211646   4.599   5.056   2.870  2.1260  0.9104  0.3934
 2970SOL    HW311647   4.533   4.997   2.992  0.6208  1.2490 -0.2391
 2970SOL    MW411648   4.595   4.994   2.931  0.5933  0.3444 -0.2401
 2971SOL     OW11649   2.912   3.006   0.840  0.4849  0.1286  0.4441
 2971SOL    HW211650   2.954   3.089   0.817  3.6482 -1.1641  1.0495
 2971SOL    HW311651   2.923   2.951   0.763 -0.0336 -0.2823  0.6588
 2971SOL    MW411652   2.919   3.010   0.827  0.8339 -0.0962  0.5523
 2972SOL     OW11653   0.880   6.009   5.304 -0.3024 -0.3924  0.2431
 2972SOL    HW211654   0.830   6.090   5.297  1.6835  0.9674  0.7431
 2972SOL    HW311655   0.935   6.022   5.381  0.6903 -1.8423 -0.1825
 2972SOL    MW411656   0.881   6.022   5.313  0.0906 -0.4043  0.2529
 2973SOL     OW11657   2.367   0.515   0.586  0.7413  0.1349 -0.0727
 2973SOL    HW211658   2.304   0.566   0.637  0.0697 -0.2799 -0.4699
 2973SOL    HW311659   2.325   0.429   0.575  0.2729  0.5794 -2.3963
 2973SOL    MW411660   2.353   0.510   0.591  0.5909  0.1388 -0.4317
 2974SOL     OW11661   3.745   0.172   4.941 -0.2002 -0.4422 -0.1068
 2974SOL    HW211662   3.757   0.154   4.847 -0.3744 -1.3802  0.0410
 2974SOL    HW311663   3.659   0.136   4.961  1.3995 -3.9574  1.2590
 2974SOL    MW411664   3.735   0.165   4.931 -0.0122 -1.0298  0.0929
 2975SOL     OW11665   4.922   0.131   0.889  0.3833  0.0968  0.0736
 2975SOL    HW211666   4.968   0.059   0.846  1.1818  0.9884 -0.6088
 2975SOL    HW311667   4.839   0.093   0.917 -0.2196 -0.5469 -2.3059
 2975SOL    MW411668   4.917   0.117   0.887  0.4091  0.1295 -0.3304
 2976SOL     OW11669   4.559   3.629   1.718 -0.3940  0.3232 -0.0653
 2976SOL    HW211670   4.536   3.548   1.764  0.2893  0.4719  0.5633
 2976SOL    HW311671   4.502   3.696   1.756 -1.1573  0.0989 -0.7824
 2976SOL    MW411672   4.549   3.627   1.729 -0.4046  0.3132 -0.0770
 2977SOL     OW11673   0.971   1.671   6.076 -0.1274 -0.4551 -0.2410
 2977SOL    HW211674   1.019   1.588   6.080 -2.1319 -1.6518  1.1511
 2977SOL    HW311675   0.924   1.676   6.159  0.1225  2.2487 -0.1854
 2977SOL    MW411676   0.971   1.660   6.087 -0.3589 -0.2563 -0.0500
 2978SOL     OW11677   3.304   6.396   3.575  0.4438 -0.0476 -0.3263
 2978SOL    HW211678   3.322   6.331   3.642 -0.9681  2.0246  2.2443
 2978SOL    HW311679   3.209   6.406   3.575  0.5122  1.0111 -1.6551
 2978SOL    MW411680   3.294   6.389   3.584  0.2665  0.3655 -0.1625
 2979SOL     OW11681   5.743   5.620   6.382  0.0862  0.4509  0.4652
 2979SOL    HW211682   5.754   5.651   6.472  0.1225 -1.2232  1.0827
 2979SOL    HW311683   5.770   5.528   6.385  0.6552  0.5136 -1.3939
 2979SOL    MW411684   5.748   5.612   6.394  0.1661  0.2383  0.3014
 2980SOL     OW11685   5.963   5.637   0.251 -0.6822  0.7646  0.5097
 2980SOL    HW211686   6.020   5.683   0.312  0.7814 -0.0056 -0.2115
 2980SOL    HW311687   5.915   5.574   0.305 -0.2031  0.8270  1.0153
 2980SOL    MW411688   5.964   5.635   0.266 -0.4259  0.6712  0.4813
 2981SOL     OW11689   2.536   5.524   4.033 -0.0396 -0.4788  0.1184
 2981SOL    HW211690   2.626   5.534   4.064  0.0050  1.2436 -0.4598
 2981SOL    HW311691   2.541   5.456   3.966  0.3684 -2.1507  1.7589
 2981SOL    MW411692   2.548   5.516   4.029  0.0201 -0.4721  0.2585
 2982SOL     OW11693   3.696   3.115   1.184 -0.3468 -0.2030  0.2396
 2982SOL    HW211694   3.784   3.138   1.213 -0.1369 -0.9163  0.1949
 2982SOL    HW311695   3.695   3.019   1.186 -0.9253 -0.2143 -0.3414
 2982SOL    MW411696   3.708   3.105   1.188 -0.3954 -0.2986  0.1571
 2983SOL     OW11697   3.346   3.994   0.353 -0.2438  0.2915  0.3794
 2983SOL    HW211698   3.349   3.984   0.258  1.0203 -1.7671  0.5536
 2983SOL    HW311699   3.265   3.950   0.379  0.1943 -0.5633  0.3437
 2983SOL    MW411700   3.336   3.987   0.344 -0.0193 -0.0929  0.3977
 2984SOL     OW11701   0.904   2.282   1.881  0.7903 -0.0839 -0.1312
 2984SOL    HW211702   0.925   2.189   1.885  0.6031 -0.0710  2.3258
 2984SOL    HW311703   0.839   2.295   1.950  0.9900  1.9288 -0.2632
 2984SOL    MW411704   0.898   2.272   1.891  0.7920  0.1833  0.1756
 2985SOL     OW11705   2.961   3.574   3.132  0.2126 -0.2616 -0.4426
 2985SOL    HW211706   2.949   3.668   3.122  0.6628 -0.3925 -2.6892
 2985SOL    HW311707   3.052   3.563   3.158 -0.1090 -0.0784  0.8816
 2985SOL    MW411708   2.971   3.585   3.134  0.2295 -0.2547 -0.5643
 2986SOL     OW11709   5.885   6.091   0.526 -0.0355 -0.0173  0.1400
 2986SOL    HW211710   5.910   6.155   0.460  0.2826 -0.3948 -0.1096
 2986SOL    HW311711   5.796   6.115   0.551 -0.7852 -0.8350 -1.6048
 2986SOL    MW411712   5.877   6.103   0.521 -0.0924 -0.1750 -0.1231
 2987SOL     OW11713   1.125   3.181   0.147  0.1024  0.1940  0.1557
 2987SOL    HW211714   1.061   3.167   0.077  1.1025 -1.3716 -0.5214
 2987SOL    HW311715   1.118   3.274   0.168 -0.6356  0.5941 -1.6444
 2987SOL    MW411716   1.116   3.191   0.140  0.1370  0.0402 -0.1711
 2988SOL     OW11717   0.983   0.025   4.082  0.4819  0.2387 -0.1558
 2988SOL    HW211718   1.052   0.084   4.052  0.0464  1.9532  1.9101
 2988SOL    HW311719   0.901   0.067   4.054  0.2047 -1.0998 -1.4534
 2988SOL    MW411720   0.981   0.038   4.075  0.3879  0.2883 -0.0544
 2989SOL     OW11721   3.450   1.940   1.717  0.2949  0.2782 -0.4463
 2989SOL    HW211722   3.482   2.025   1.688  0.0805  0.8179  0.8702
 2989SOL    HW311723   3.528   1.884   1.721  0.3945  0.3084 -1.5860
 2989SOL    MW411724   3.464   1.944   1.713  0.2797  0.3534 -0.4230
 2990SOL     OW11725   4.414   3.862   1.844 -0.0184  0.0125  0.4207
 2990SOL    HW211726   4.349   3.880   1.912 -1.6901 -2.0274 -0.5254
 2990SOL    HW311727   4.384   3.912   1.768 -1.4556 -2.0738 -0.4796
 2990SOL    MW411728   4.402   3.871   1.843 -0.4286 -0.5319  0.1771
 2991SOL     OW11729   5.290   4.782   4.226 -0.0667 -0.1357 -0.0951
 2991SOL    HW211730   5.272   4.836   4.303  0.6333  0.0156 -0.0228
 2991SOL    HW311731   5.229   4.709   4.232 -0.1147 -0.0510  0.5316
 2991SOL    MW411732   5.280   4.780   4.237  0.0193 -0.1045 -0.0028
 2992SOL     OW11733   4.495   0.618   4.095 -0.6280  0.2989 -0.0008
 2992SOL    HW211734   4.567   0.656   4.046 -0.1823  2.0199  1.8589
 2992SOL    HW311735   4.502   0.657   4.183 -1.9155 -1.9135  1.1758
 2992SOL    MW411736   4.506   0.628   4.100 -0.7390  0.2341  0.3998
 2993SOL     OW11737   3.117   6.294   1.976  0.1706  0.6491 -0.3759
 2993SOL    HW211738   3.113   6.334   2.063 -1.6619  1.1707 -0.6450
 2993SOL    HW311739   3.086   6.204   1.989  1.8032  0.0838 -0.1964
 2993SOL    MW411740   3.112   6.287   1.989  0.1443  0.6433 -0.3877
 2994SOL     OW11741   4.295   0.494   3.792  0.2135  0.6795 -0.2203
 2994SOL    HW211742   4.347   0.574   3.802  1.1842  0.0871 -0.3856
 2994SOL    HW311743   4.283   0.462   3.881  1.6327 -0.0951 -0.2769
 2994SOL    MW411744   4.300   0.501   3.805  0.5289  0.4992 -0.2495
 2995SOL     OW11745   6.238   3.517   2.156 -0.0740 -0.4087  0.1720
 2995SOL    HW211746   6.233   3.562   2.071  1.3560 -0.1620  0.1918
 2995SOL    HW311747   6.152   3.477   2.167 -0.2797 -0.4662 -1.4117
 2995SOL    MW411748   6.226   3.518   2.146  0.0875 -0.3837 -0.0343
 2996SOL     OW11749   1.268   1.592   6.270  0.6617  0.4484 -0.0130
 2996SOL    HW211750   1.267   1.671   6.324  0.2176 -0.1499  0.8826
 2996SOL    HW311751   1.256   1.624   6.180 -1.2188  1.2892  0.4776
 2996SOL    MW411752   1.266   1.607   6.265  0.3550  0.4804  0.1699
 2997SOL     OW11753   4.739   1.262   1.979 -0.1458  0.4980 -0.2903
 2997SOL    HW211754   4.731   1.185   1.924 -0.3509  0.0051  0.4220
 2997SOL    HW311755   4.661   1.315   1.959 -0.6038 -0.0335  0.0696
 2997SOL    MW411756   4.728   1.259   1.969 -0.2333  0.3629 -0.1489
 2998SOL     OW11757   3.001   4.551   2.969  0.6803  0.3298 -0.3154
 2998SOL    HW211758   2.995   4.516   2.880  1.3511  1.2389 -0.7364
 2998SOL    HW311759   2.961   4.638   2.963 -0.2720 -0.0376  0.5333
 2998SOL    MW411760   2.995   4.558   2.957  0.6432  0.4013 -0.2590
 2999SOL     OW11761   0.101   5.988   1.972 -0.0886 -0.0460  0.0018
 2999SOL    HW211762   0.155   5.931   2.026 -2.1148 -2.3004 -0.1740
 2999SOL    HW311763   0.047   6.036   2.034  0.6579  0.6863  0.0994
 2999SOL    MW411764   0.101   5.987   1.987 -0.2574 -0.2469 -0.0086
 3000SOL     OW11765   3.555   1.551   6.372  0.6614 -0.3151 -0.2291
 3000SOL    HW211766   3.597   1.541   6.457 -0.8259 -0.2459  0.5373
 3000SOL    HW311767   3.625   1.534   6.309  0.9724 -4.6811  0.9243
 3000SOL    MW411768   3.570   1.547   6.375  0.5062 -0.8820  0.0242
 3001SOL     OW11769   2.246   4.960   6.177  0.0298  0.1399  0.2941
 3001SOL    HW211770   2.293   4.907   6.242 -0.2774 -1.3035 -0.6033
 3001SOL    HW311771   2.163   4.913   6.164  0.2159  0.1998 -1.3530
 3001SOL    MW411772   2.241   4.947   6.184  0.0138 -0.0427 -0.0416
 3002SOL     OW11773   0.312   2.623   0.148 -0.1472  0.1771  0.2184
 3002SOL    HW211774   0.278   2.712   0.161  0.5783  0.4007  0.6896
 3002SOL    HW311775   0.251   2.567   0.196 -0.8565  0.3616 -0.4434
 3002SOL    MW411776   0.300   2.627   0.156 -0.1451  0.2310  0.1933
 3003SOL     OW11777   5.269   6.076   5.179  0.2651 -0.4834  0.4207
 3003SOL    HW211778   5.252   6.166   5.150 -0.2956  0.1722  2.6429
 3003SOL    HW311779   5.363   6.073   5.193  0.2381 -0.1224  0.6936
 3003SOL    MW411780   5.279   6.087   5.177  0.1875 -0.3493  0.7499
 3004SOL     OW11781   1.672   0.576   4.194 -0.2457  0.5594 -0.4634
 3004SOL    HW211782   1.603   0.596   4.131 -0.3293  1.8365 -0.0016
 3004SOL    HW311783   1.713   0.661   4.211  0.8495 -0.0364 -0.0461
 3004SOL    MW411784   1.668   0.590   4.188 -0.1122  0.6493 -0.3474
 3005SOL     OW11785   1.317   0.865   2.529 -0.3583  0.1278 -0.5898
 3005SOL    HW211786   1.304   0.940   2.587  0.9984 -0.4858  0.5775
 3005SOL    HW311787   1.354   0.903   2.449 -0.1876  0.7657 -0.2146
 3005SOL    MW411788   1.320   0.880   2.526 -0.1568  0.1310 -0.3863
 3006SOL     OW11789   2.490   6.104   5.424  0.2119  0.8693  0.8936
 3006SOL    HW211790   2.582   6.120   5.444  1.0145 -0.2473 -1.5210
 3006SOL    HW311791   2.478   6.140   5.336 -1.5023  0.4240  0.9144
 3006SOL    MW411792   2.501   6.111   5.415  0.0916  0.6633  0.5777
 3007SOL     OW11793   1.599   5.547   0.900 -0.0009 -0.2801  0.4990
 3007SOL    HW211794   1.610   5.618   0.964  1.2664 -0.1902  0.2079
 3007SOL    HW311795   1.564   5.590   0.822  2.8470  0.4913 -0.4577
 3007SOL    MW411796   1.596   5.562   0.898  0.5420 -0.1665  0.3344
 3008SOL     OW11797   3.323   1.838   1.360  0.3682  0.2614 -0.4783
 3008SOL    HW211798   3.250   1.854   1.419 -0.1193 -0.7914 -0.7632
 3008SOL    HW311799   3.311   1.901   1.288 -2.5374 -2.3510 -2.5086
 3008SOL    MW411800   3.312   1.849   1.358 -0.0794 -0.2222 -0.7838
 3009SOL     OW11801   0.872   4.761   1.955  0.1154  0.8614  0.8689
 3009SOL    HW211802   0.946   4.705   1.929 -1.3933 -0.3580 -1.1118
 3009SOL    HW311803   0.913   4.843   1.983  2.2020  0.7222 -1.3759
 3009SOL    MW411804   0.888   4.764   1.955  0.1916  0.6821  0.3114
 3010SOL     OW11805   2.356   1.561   2.190  0.1950 -0.0034  0.5303
 3010SOL    HW211806   2.447   1.553   2.221  0.0185 -2.2398  0.6615
 3010SOL    HW311807   2.303   1.536   2.265 -0.5848  1.4095  0.4923
 3010SOL    MW411808   2.361   1.557   2.204  0.0688 -0.1121  0.5426
 3011SOL     OW11809   1.369   4.603   2.310 -0.4474 -0.4519 -0.3123
 3011SOL    HW211810   1.420   4.675   2.274 -2.0719  0.5934 -0.6301
 3011SOL    HW311811   1.281   4.615   2.274 -0.7822 -2.5938 -0.3551
 3011SOL    MW411812   1.364   4.614   2.301 -0.7059 -0.5966 -0.3599
 3012SOL     OW11813   3.039   5.684   1.304 -0.6173  0.1652 -0.5100
 3012SOL    HW211814   3.086   5.603   1.285  0.4589 -0.2737  3.1844
 3012SOL    HW311815   2.948   5.657   1.317 -0.0815 -0.7177  1.7375
 3012SOL    MW411816   3.033   5.670   1.303 -0.4046 -0.0092  0.2740
 3013SOL     OW11817   1.578   6.109   6.087  0.1775  0.6019 -0.0662
 3013SOL    HW211818   1.580   6.108   5.991 -2.7975 -0.1945 -0.2206
 3013SOL    HW311819   1.618   6.026   6.112 -2.3322 -0.9719 -0.8833
 3013SOL    MW411820   1.583   6.098   6.077 -0.5461  0.2892 -0.1944
 3014SOL     OW11821   3.833   3.254   0.684 -0.2272  0.2845  0.6714
 3014SOL    HW211822   3.876   3.198   0.621 -0.2772  0.4685  0.4713
 3014SOL    HW311823   3.783   3.316   0.631  0.6185  1.1510  0.8637
 3014SOL    MW411824   3.832   3.255   0.669 -0.1222  0.4231  0.6704
 3015SOL     OW11825   0.348   5.978   4.064  0.0154 -0.5014 -0.2773
 3015SOL    HW211826   0.406   6.053   4.076 -0.9282  0.3241 -0.7693
 3015SOL    HW311827   0.297   5.999   3.986  0.8362 -2.3870 -1.3914
 3015SOL    MW411828   0.349   5.991   4.056 -0.0008 -0.6413 -0.4892
 3016SOL     OW11829   4.327   0.218   6.292  0.0343  0.0585  0.0493
 3016SOL    HW211830   4.411   0.250   6.325 -0.4852 -0.1391  1.6587
 3016SOL    HW311831   4.335   0.123   6.294 -0.8245 -0.0170  1.9846
 3016SOL    MW411832   4.339   0.210   6.296 -0.1475  0.0225  0.5169
 3017SOL     OW11833   4.754   0.037   3.872 -0.2878 -0.2505  0.0383
 3017SOL    HW211834   4.700   0.022   3.795  0.8253 -1.8223 -0.4849
 3017SOL    HW311835   4.749  -0.045   3.921  2.0344 -0.6852 -0.3358
 3017SOL    MW411836   4.746   0.024   3.868  0.1654 -0.5152 -0.0801
 3018SOL     OW11837   1.004   6.110   5.546  0.5664  0.1035 -0.2688
 3018SOL    HW211838   1.049   6.025   5.551  0.7831  0.1862 -0.7605
 3018SOL    HW311839   0.972   6.125   5.635 -2.5617 -2.1761 -0.8229
 3018SOL    MW411840   1.005   6.101   5.559  0.1823 -0.1864 -0.4068
 3019SOL     OW11841   0.711   1.923   2.332  0.6583  0.3804 -0.5823
 3019SOL    HW211842   0.766   1.982   2.384  0.6422  1.4395 -1.7291
 3019SOL    HW311843   0.621   1.947   2.357  0.6646  0.2390 -0.4184
 3019SOL    MW411844   0.706   1.934   2.342  0.6570  0.5015 -0.7120
 3020SOL     OW11845   2.695   5.334   2.286  0.0852 -0.0631 -0.1691
 3020SOL    HW211846   2.775   5.284   2.271 -1.6846 -2.4861 -2.5036
 3020SOL    HW311847   2.651   5.289   2.358  1.1142  1.8281  1.7648
 3020SOL    MW411848   2.700   5.321   2.293 -0.0125 -0.1333 -0.2219
 3021SOL     OW11849   1.225   4.272   2.910  0.0941  0.4378 -0.2345
 3021SOL    HW211850   1.277   4.337   2.958 -1.0023  0.1985  1.3736
 3021SOL    HW311851   1.279   4.247   2.836  1.5192  1.4788  0.4197
 3021SOL    MW411852   1.239   4.277   2.907  0.1375  0.5436  0.0640
 3022SOL     OW11853   1.426   0.804   4.940 -0.4148  0.1625  0.6993
 3022SOL    HW211854   1.383   0.890   4.941  0.5945  0.6755  0.4868
 3022SOL    HW311855   1.388   0.759   4.864 -0.1233  0.8480  0.1458
 3022SOL    MW411856   1.415   0.809   4.930 -0.2431  0.3206  0.5982
 3023SOL     OW11857   5.802   3.341   4.820  0.2243  0.0776 -0.3159
 3023SOL    HW211858   5.861   3.371   4.889  1.2669 -1.7450 -0.3503
 3023SOL    HW311859   5.860   3.304   4.753 -0.9281 -2.1427 -0.1728
 3023SOL    MW411860   5.818   3.340   4.820  0.2098 -0.4558 -0.3016
 3024SOL     OW11861   3.959   1.969   0.611 -0.1274  0.4480  0.2050
 3024SOL    HW211862   3.901   1.944   0.540  1.0770 -1.7630 -0.0950
 3024SOL    HW311863   3.970   1.889   0.662 -0.5146  1.8224  2.5970
 3024SOL    MW411864   3.953   1.955   0.609 -0.0196  0.3376  0.4810
 3025SOL     OW11865   2.835   3.718   6.231  0.4152 -0.3620  0.4394
 3025SOL    HW211866   2.834   3.720   6.135  0.2000  0.7886  0.4474
 3025SOL    HW311867   2.800   3.632   6.253  0.5600 -0.6857 -0.5164
 3025SOL    MW411868   2.830   3.707   6.221  0.4059 -0.2529  0.3144
 3026SOL     OW11869   6.096   3.686   1.896 -0.0704  0.3195  0.0018
 3026SOL    HW211870   6.076   3.604   1.853  1.3181 -0.3139  0.4903
 3026SOL    HW311871   6.040   3.687   1.974 -0.0597 -0.1851  0.0157
 3026SOL    MW411872   6.086   3.675   1.901  0.1142  0.1693  0.0681
 3027SOL     OW11873   5.609   4.574   3.264  0.0889  0.1591  0.0893
 3027SOL    HW211874   5.685   4.556   3.319 -1.3873 -1.6300  1.6546
 3027SOL    HW311875   5.538   4.524   3.303 -1.3575 -0.2294 -2.7488
 3027SOL    MW411876   5.610   4.565   3.276 -0.2967 -0.1282 -0.0786
 3028SOL     OW11877   5.020   4.573   1.724 -0.0446 -0.0997  0.0488
 3028SOL    HW211878   4.926   4.580   1.740  0.1404  0.6364  0.8748
 3028SOL    HW311879   5.052   4.517   1.794  0.3981  1.1511  0.8841
 3028SOL    MW411880   5.012   4.567   1.735  0.0382  0.1625  0.2680
 3029SOL     OW11881   3.850   2.550   2.386  0.0411 -0.1100 -0.3972
 3029SOL    HW211882   3.826   2.484   2.450  0.9356  0.1274  0.2040
 3029SOL    HW311883   3.817   2.516   2.303 -2.1137  0.1146  0.3282
 3029SOL    MW411884   3.843   2.537   2.383 -0.1252 -0.0490 -0.2222
 3030SOL     OW11885   0.792   4.779   1.557  0.7812  0.1007 -0.5411
 3030SOL    HW211886   0.738   4.806   1.631 -0.1609  1.2034 -1.5816
 3030SOL    HW311887   0.837   4.701   1.587  0.2023  0.3606  1.0888
 3030SOL    MW411888   0.791   4.772   1.571  0.5805  0.2805 -0.4633
 3031SOL     OW11889   5.391   2.861   2.140  0.2028  0.4389 -0.1713
 3031SOL    HW211890   5.473   2.816   2.161 -0.4269 -1.4203 -1.4214
 3031SOL    HW311891   5.336   2.847   2.218 -0.2587 -1.7707 -0.8151
 3031SOL    MW411892   5.395   2.853   2.153  0.0589 -0.0979 -0.4211
 3032SOL     OW11893   2.312   6.379   4.114 -0.0251  0.5206  0.1994
 3032SOL    HW211894   2.381   6.325   4.153  0.9898 -1.0132 -3.3445
 3032SOL    HW311895   2.358   6.458   4.084  0.2819 -0.4452 -2.0504
 3032SOL    MW411896   2.328   6.383   4.115  0.1493  0.1908 -0.5650
 3033SOL     OW11897   5.535   4.589   5.980 -0.2114  0.1018  0.4810
 3033SOL    HW211898   5.575   4.622   6.061 -0.0638  2.1647 -0.3653
 3033SOL    HW311899   5.444   4.618   5.985  0.2011  1.7606 -0.8102
 3033SOL    MW411900   5.529   4.597   5.991 -0.1375  0.5929  0.1990
 3034SOL     OW11901   0.726   3.735   2.804 -0.0794  0.3613  0.5447
 3034SOL    HW211902   0.699   3.649   2.837 -0.3849  0.2339 -0.0183
 3034SOL    HW311903   0.720   3.727   2.709  2.5540  0.1340  0.3213
 3034SOL    MW411904   0.721   3.722   2.796  0.2277  0.3145  0.4409
 3035SOL     OW11905   4.469   0.605   0.996 -0.4086 -0.1689  0.5812
 3035SOL    HW211906   4.477   0.656   1.076 -1.1461  1.8529 -0.5421
 3035SOL    HW311907   4.491   0.667   0.926 -0.4242 -1.6785 -0.8259
 3035SOL    MW411908   4.473   0.620   0.997 -0.5080 -0.1013  0.2473
 3036SOL     OW11909   1.679   5.670   1.833 -0.6969  0.0918  0.1180
 3036SOL    HW211910   1.591   5.691   1.802 -1.1805 -0.5019  1.0483
 3036SOL    HW311911   1.697   5.735   1.900 -0.1214  0.6587 -0.5706
 3036SOL    MW411912   1.670   5.681   1.838 -0.6848  0.0882  0.1499
 3037SOL     OW11913   3.348   6.239   2.892  0.3456 -0.0447  0.0137
 3037SOL    HW211914   3.274   6.298   2.899  1.0020  0.7192  0.8385
 3037SOL    HW311915   3.361   6.226   2.798  0.5672  1.6245 -0.2129
 3037SOL    MW411916   3.340   6.245   2.881  0.4614  0.2763  0.0926
 3038SOL     OW11917   3.052   3.336   4.805  0.5889 -0.4066 -0.2794
 3038SOL    HW211918   3.083   3.425   4.789 -0.0586 -0.0247  0.5159
 3038SOL    HW311919   3.131   3.282   4.801  1.3493  0.4900  1.3505
 3038SOL    MW411920   3.067   3.341   4.802  0.6038 -0.2379  0.0406
 3039SOL     OW11921   1.435   1.947   6.159 -0.0505  0.0140  0.0286
 3039SOL    HW211922   1.346   1.911   6.154  0.5472 -1.6480  0.6933
 3039SOL    HW311923   1.471   1.909   6.239  1.1296  1.0053 -0.0097
 3039SOL    MW411924   1.428   1.937   6.169  0.1841 -0.0745  0.1112
 3040SOL     OW11925   4.094   6.347   6.098  0.2414 -0.5006 -0.1499
 3040SOL    HW211926   4.184   6.364   6.069 -0.3070  1.7583 -0.7939
 3040SOL    HW311927   4.045   6.335   6.017 -0.3085 -0.0423  0.1097
 3040SOL    MW411928   4.099   6.348   6.084  0.0965 -0.1421 -0.2007
 3041SOL     OW11929   3.584   5.587   3.007 -0.1324 -0.2681 -0.0565
 3041SOL    HW211930   3.570   5.680   3.025 -2.8002 -0.7953  1.0579
 3041SOL    HW311931   3.552   5.574   2.918 -0.8715 -0.3159  0.2117
 3041SOL    MW411932   3.578   5.598   2.998 -0.5819 -0.3439  0.1260
 3042SOL     OW11933   5.214   5.536   4.921  0.0636 -0.3021  0.1661
 3042SOL    HW211934   5.250   5.473   4.858 -1.5539 -0.9368 -0.1557
 3042SOL    HW311935   5.202   5.485   5.001  1.6952  0.3965  0.8971
 3042SOL    MW411936   5.217   5.521   4.923  0.0655 -0.2936  0.2201
 3043SOL     OW11937   3.550   1.904   2.283 -0.0717 -0.3531 -0.5759
 3043SOL    HW211938   3.621   1.917   2.220 -0.3400  0.0912 -0.7882
 3043SOL    HW311939   3.586   1.934   2.366 -0.3277  0.8090 -0.8616
 3043SOL    MW411940   3.564   1.910   2.286 -0.1409 -0.1412 -0.6416
 3044SOL     OW11941   1.876   0.631   0.627  0.1513 -0.6559 -0.0629
 3044SOL    HW211942   1.843   0.720   0.620 -0.9270 -1.0259  0.1343
 3044SOL    HW311943   1.849   0.589   0.545  0.1196 -0.9655  0.1038
 3044SOL    MW411944   1.868   0.637   0.615  0.0049 -0.7456 -0.0149
 3045SOL     OW11945   0.276   3.757   4.042 -0.3371 -0.0451 -0.2994
 3045SOL    HW211946   0.273   3.710   4.125  0.5545  1.1317  0.4257
 3045SOL    HW311947   0.246   3.845   4.063 -1.8951 -0.2112 -1.6136
 3045SOL    MW411948   0.272   3.762   4.056 -0.4250  0.0882 -0.3771
 3046SOL     OW11949   3.075   3.482   4.011 -0.9438  0.1569  0.4466
 3046SOL    HW211950   3.139   3.551   3.990  0.3956 -0.5919  1.8509
 3046SOL    HW311951   2.992   3.529   4.019 -0.5063  1.2506 -0.8434
 3046SOL    MW411952   3.073   3.498   4.009 -0.7094  0.2024  0.4616
 3047SOL     OW11953   5.683   3.017   1.850 -0.2313 -0.7492 -0.3413
 3047SOL    HW211954   5.704   2.925   1.836 -0.7746 -0.7498 -1.2292
 3047SOL    HW311955   5.677   3.054   1.762 -0.4543  0.0399 -0.0052
 3047SOL    MW411956   5.685   3.010   1.837 -0.3324 -0.6452 -0.4141
 3048SOL     OW11957   6.223   5.787   5.571  0.3194 -0.2376  0.3025
 3048SOL    HW211958   6.146   5.800   5.517  0.2381 -0.9374  0.2397
 3048SOL    HW311959   6.265   5.873   5.574  1.2053 -0.4975 -2.2152
 3048SOL    MW411960   6.219   5.800   5.564  0.4256 -0.3642 -0.0380
 3049SOL     OW11961   5.365   3.597   6.384  0.2552 -0.3418  0.6242
 3049SOL    HW211962   5.285   3.552   6.356  0.1815 -0.3806  0.8993
 3049SOL    HW311963   5.335   3.679   6.423  0.1803 -1.3008  2.7049
 3049SOL    MW411964   5.350   3.602   6.385  0.2356 -0.4734  0.9350
 3050SOL     OW11965   1.117   4.734   3.060  0.5868  0.4410  0.0133
 3050SOL    HW211966   1.083   4.694   3.140  2.3528  1.3268  1.2902
 3050SOL    HW311967   1.115   4.665   2.995 -1.0416 -0.2682  0.7612
 3050SOL    MW411968   1.112   4.720   3.062  0.6050  0.4643  0.2805
 3051SOL     OW11969   6.012   0.572   3.215  0.7655  0.1835 -0.3114
 3051SOL    HW211970   6.011   0.543   3.306 -0.1962  0.0180 -0.3634
 3051SOL    HW311971   6.075   0.644   3.213 -0.6229  1.5137  0.9025
 3051SOL    MW411972   6.020   0.578   3.227  0.4554  0.3371 -0.1581
 3052SOL     OW11973   4.423   2.421   0.154 -0.4705  0.1013  0.1638
 3052SOL    HW211974   4.420   2.329   0.126 -1.4193  0.2001 -0.1178
 3052SOL    HW311975   4.457   2.417   0.244  0.0721 -0.4636 -0.0562
 3052SOL    MW411976   4.427   2.408   0.162 -0.5241  0.0398  0.0976
 3053SOL     OW11977   2.630   1.565   1.100 -0.4582 -0.6802 -0.0928
 3053SOL    HW211978   2.717   1.602   1.084  0.3755 -1.9414  1.1920
 3053SOL    HW311979   2.585   1.630   1.154 -0.6051  0.3039 -1.3671
 3053SOL    MW411980   2.636   1.578   1.105 -0.3676 -0.7168 -0.0914
 3054SOL     OW11981   4.539   0.970   4.933 -0.2097 -0.0426  0.5189
 3054SOL    HW211982   4.528   0.975   4.838 -0.5337  1.7580  0.6166
 3054SOL    HW311983   4.632   0.953   4.946 -0.3697 -1.5997 -0.1050
 3054SOL    MW411984   4.550   0.968   4.922 -0.2735 -0.0105  0.4495
 3055SOL     OW11985   1.756   5.015   0.238 -0.3503  0.2962 -0.5177
 3055SOL    HW211986   1.820   5.083   0.218 -0.3230  0.3079 -0.3946
 3055SOL    HW311987   1.680   5.037   0.184 -0.8514  1.2093  0.5046
 3055SOL    MW411988   1.754   5.027   0.228 -0.4128  0.4182 -0.3666
 3056SOL     OW11989   3.917   4.972   2.592  0.5408  0.5189 -0.3002
 3056SOL    HW211990   3.847   4.965   2.527  1.2634  0.2426 -1.0518
 3056SOL    HW311991   3.874   4.950   2.675 -0.5718  1.6440 -0.5467
 3056SOL    MW411992   3.902   4.968   2.595  0.4893  0.6309 -0.4319
 3057SOL     OW11993   4.326   4.656   2.436  0.5205  0.3126  0.5559
 3057SOL    HW211994   4.421   4.644   2.443  1.0086  0.7158 -3.2659
 3057SOL    HW311995   4.291   4.567   2.439  1.1240  0.0679  0.6939
 3057SOL    MW411996   4.334   4.642   2.438  0.6645  0.3335  0.0699
 3058SOL     OW11997   2.843   5.174   3.218  0.2853  0.2929 -0.1494
 3058SOL    HW211998   2.838   5.263   3.254 -0.8296 -0.2265  1.0609
 3058SOL    HW311999   2.777   5.173   3.148 -0.4784  0.1384  0.5489
 3058SOL    MW412000   2.833   5.186   3.213  0.0374  0.2040  0.1024
 3059SOL     OW12001   4.301   1.078   4.660  0.1356  0.2344  0.2813
 3059SOL    HW212002   4.328   1.094   4.570 -0.7113  0.3238  0.0345
 3059SOL    HW312003   4.325   0.987   4.676  0.2355  0.2018 -0.0482
 3059SOL    MW412004   4.308   1.068   4.651  0.0371  0.2419  0.2053
 3060SOL     OW12005   3.605   1.319   6.142  0.2237  0.3766 -0.4101
 3060SOL    HW212006   3.561   1.390   6.095  2.0705  1.3377 -0.7916
 3060SOL    HW312007   3.658   1.276   6.074 -0.6122 -1.1748 -0.1119
 3060SOL    MW412008   3.606   1.323   6.127  0.3571  0.2987 -0.4211
 3061SOL     OW12009   3.109   1.088   4.000 -0.1050 -0.6212 -0.0222
 3061SOL    HW212010   3.115   1.183   4.006 -1.9543 -0.4944  0.4117
 3061SOL    HW312011   3.135   1.067   3.910  0.2986  0.2883 -0.1221
 3061SOL    MW412012   3.113   1.098   3.989 -0.2958 -0.4845  0.0219
 3062SOL     OW12013   0.252   4.147   1.292 -0.3724  0.2259 -0.1827
 3062SOL    HW212014   0.193   4.172   1.364  1.3656  1.5680  0.8720
 3062SOL    HW312015   0.327   4.108   1.336  0.7525  1.1331 -1.2342
 3062SOL    MW412016   0.254   4.145   1.307  0.0053  0.5227 -0.1823
 3063SOL     OW12017   0.148   6.423   3.406 -0.3736 -1.0194  0.1989
 3063SOL    HW212018   0.052   6.422   3.413 -0.3149  0.5377  2.4218
 3063SOL    HW312019   0.177   6.458   3.490  2.2691 -3.1037  0.2606
 3063SOL    MW412020   0.139   6.428   3.418 -0.0172 -1.0890  0.5003
 3064SOL     OW12021   6.143   5.942   1.762  0.1733 -0.2605 -0.1206
 3064SOL    HW212022   6.157   5.865   1.706  3.4937  0.2638 -0.1913
 3064SOL    HW312023   6.176   5.915   1.848 -2.2890 -0.1122  0.9856
 3064SOL    MW412024   6.149   5.928   1.766  0.2865 -0.1718  0.0160
 3065SOL     OW12025   2.361   5.979   3.890  0.1302  0.3785  0.5217
 3065SOL    HW212026   2.274   5.964   3.852  0.1864  0.4920  0.3451
 3065SOL    HW312027   2.403   5.892   3.888  0.3077  0.4695 -0.1244
 3065SOL    MW412028   2.355   5.965   3.885  0.1610  0.4055  0.4132
 3066SOL     OW12029   3.129   2.403   1.407  0.0793  0.3922  0.3093
 3066SOL    HW212030   3.140   2.460   1.483 -0.6700 -0.3805  1.0294
 3066SOL    HW312031   3.039   2.369   1.416  0.6596 -1.2813  0.2027
 3066SOL    MW412032   3.118   2.406   1.419  0.0570  0.0694  0.3902
 3067SOL     OW12033   4.308   5.451   4.646  0.1208 -0.0115 -0.2909
 3067SOL    HW212034   4.234   5.446   4.707 -0.8391  0.9049 -1.3430
 3067SOL    HW312035   4.367   5.381   4.674  0.1339  0.9169  2.2129
 3067SOL    MW412036   4.306   5.441   4.658 -0.0041  0.2319 -0.0994
 3068SOL     OW12037   2.798   5.130   2.540 -0.3183 -0.0804 -0.2202
 3068SOL    HW212038   2.800   5.038   2.512  0.5179  0.0101 -0.5017
 3068SOL    HW312039   2.706   5.155   2.536 -0.5667 -0.9417 -0.0241
 3068SOL    MW412040   2.786   5.121   2.536 -0.2407 -0.1821 -0.2315
 3069SOL     OW12041   1.914   2.652   5.496  0.6343 -0.6144 -0.2219
 3069SOL    HW212042   1.934   2.627   5.406 -0.4010 -1.0183 -0.3626
 3069SOL    HW312043   1.984   2.614   5.549  0.2940 -1.9190 -0.6778
 3069SOL    MW412044   1.926   2.644   5.491  0.4528 -0.8398 -0.3006
 3070SOL     OW12045   0.443   4.817   3.692  0.7502 -0.2666 -0.3916
 3070SOL    HW212046   0.518   4.757   3.691  0.6106 -0.4909 -2.2988
 3070SOL    HW312047   0.390   4.790   3.617 -1.8350 -0.7831  1.4817
 3070SOL    MW412048   0.446   4.806   3.682  0.3907 -0.3643 -0.3961
 3071SOL     OW12049   4.959   1.731   5.008 -0.6447  0.2372 -0.2161
 3071SOL    HW212050   4.965   1.636   5.009 -0.3829  0.2532  1.1121
 3071SOL    HW312051   4.866   1.749   4.990 -1.3028 -0.3338  2.2736
 3071SOL    MW412052   4.947   1.721   5.006 -0.6970  0.1640  0.2876
 3072SOL     OW12053   2.027   4.204   1.654 -0.0537 -0.4030 -0.0013
 3072SOL    HW212054   1.970   4.129   1.668 -0.6581  0.0400 -0.0018
 3072SOL    HW312055   2.091   4.200   1.724 -1.4746  0.3474  1.4246
 3072SOL    MW412056   2.028   4.194   1.665 -0.3209 -0.2455  0.1867
 3073SOL     OW12057   6.312   4.974   1.729 -0.0294 -0.3308 -0.0034
 3073SOL    HW212058   6.326   4.895   1.780  2.5462 -0.1349 -0.2788
 3073SOL    HW312059   6.392   5.025   1.741  0.4829  0.0164 -3.6670
 3073SOL    MW412060   6.324   4.971   1.737  0.3780 -0.2591 -0.5231
 3074SOL     OW12061   0.406   1.439   0.003  0.1932  0.0603 -0.5203
 3074SOL    HW212062   0.398   1.533  -0.014 -0.4857  0.0936 -0.0614
 3074SOL    HW312063   0.316   1.410   0.016  0.4152 -0.6244 -0.4933
 3074SOL    MW412064   0.393   1.448   0.003  0.1329 -0.0256 -0.4562
 3075SOL     OW12065   6.406   3.121   6.025 -0.5557 -0.8513  0.4276
 3075SOL    HW212066   6.325   3.162   5.993  0.2114 -1.0793 -1.9510
 3075SOL    HW312067   6.476   3.170   5.982  0.8810  1.3640  4.6894
 3075SOL    MW412068   6.404   3.133   6.015 -0.2649 -0.5891  0.6760
 3076SOL     OW12069   5.143   1.574   1.888 -0.4154 -0.0805 -0.2205
 3076SOL    HW212070   5.071   1.511   1.880  0.1901 -0.6428 -1.6913
 3076SOL    HW312071   5.220   1.520   1.904 -0.0283  0.3440 -0.6024
 3076SOL    MW412072   5.144   1.559   1.889 -0.2844 -0.0987 -0.4649
 3077SOL     OW12073   3.913   3.559   5.549  0.4012 -0.0684  0.2781
 3077SOL    HW212074   3.846   3.530   5.610 -0.1172  0.1108 -0.2002
 3077SOL    HW312075   3.864   3.597   5.476  0.9704 -1.1392 -0.7004
 3077SOL    MW412076   3.898   3.560   5.547  0.4079 -0.1861  0.0859
 3078SOL     OW12077   0.333   4.724   0.918 -0.3003  0.2728  0.6430
 3078SOL    HW212078   0.318   4.731   1.012  1.2844 -0.2132  0.9779
 3078SOL    HW312079   0.356   4.812   0.890  1.7355  0.0056  1.2624
 3078SOL    MW412080   0.334   4.736   0.927  0.1774  0.1734  0.7689
 3079SOL     OW12081   3.112   4.639   1.721  0.6865 -0.0344  0.5126
 3079SOL    HW212082   3.103   4.661   1.629 -1.8555  1.0453  0.9480
 3079SOL    HW312083   3.117   4.723   1.766 -0.2342 -0.4875  1.5079
 3079SOL    MW412084   3.112   4.653   1.715  0.2297  0.0482  0.7014
 3080SOL     OW12085   3.147   4.177   4.888 -0.7421  0.2062  0.2087
 3080SOL    HW212086   3.168   4.127   4.967  0.5647  0.6335  0.1586
 3080SOL    HW312087   3.222   4.164   4.831 -0.8510  1.3750 -0.2284
 3080SOL    MW412088   3.160   4.169   4.891 -0.5841  0.4168  0.1444
 3081SOL     OW12089   1.419   1.784   4.812 -0.0703  0.3919 -0.2373
 3081SOL    HW212090   1.355   1.855   4.816 -0.7553 -0.2434  0.5574
 3081SOL    HW312091   1.433   1.760   4.904  0.3335 -0.3379 -0.4837
 3081SOL    MW412092   1.412   1.791   4.825 -0.1074  0.2118 -0.1649
 3082SOL     OW12093   2.463   2.866   1.698  0.2829 -0.5696  0.2926
 3082SOL    HW212094   2.492   2.955   1.715  2.2568 -0.8711 -1.1310
 3082SOL    HW312095   2.397   2.874   1.629  0.0512 -0.1837  0.5573
 3082SOL    MW412096   2.458   2.879   1.691  0.5127 -0.5585  0.1397
 3083SOL     OW12097   1.620   4.746   5.795 -0.1337 -0.4177  0.2927
 3083SOL    HW212098   1.650   4.659   5.822  0.1787 -0.8288 -1.2695
 3083SOL    HW312099   1.530   4.732   5.766 -0.1569 -0.1806  0.2514
 3083SOL    MW412100   1.612   4.733   5.795 -0.0956 -0.4407  0.0812
 3084SOL     OW12101   0.464   5.932   2.913 -0.1729  0.3031 -0.1632
 3084SOL    HW212102   0.487   5.977   2.995 -1.2811  2.0356 -0.7440
 3084SOL    HW312103   0.389   5.877   2.936  2.0775 -2.6076  0.9021
 3084SOL    MW412104   0.457   5.931   2.927 -0.0222  0.1477 -0.0992
 3085SOL     OW12105   1.276   5.147   5.508 -0.3234  0.4387  0.0568
 3085SOL    HW212106   1.232   5.152   5.592  0.7833  0.4223  0.6584
 3085SOL    HW312107   1.323   5.063   5.510 -0.2309  0.4647 -0.5471
 3085SOL    MW412108   1.277   5.136   5.519 -0.1652  0.4400  0.0565
 3086SOL     OW12109   6.405   5.292   0.993 -0.6595 -0.4695 -0.0975
 3086SOL    HW212110   6.321   5.331   1.016 -0.4027  0.6648 -0.9693
 3086SOL    HW312111   6.446   5.356   0.934 -0.1705 -2.0194 -1.5438
 3086SOL    MW412112   6.399   5.306   0.988 -0.5611 -0.5244 -0.4033
 3087SOL     OW12113   0.746   4.019   6.302 -0.2574 -0.7089 -0.6126
 3087SOL    HW212114   0.663   4.064   6.286 -0.3086 -0.3378  0.5837
 3087SOL    HW312115   0.731   3.930   6.269 -0.7519 -0.3472 -1.3970
 3087SOL    MW412116   0.733   4.013   6.295 -0.3294 -0.6122 -0.5583
 3088SOL     OW12117   1.684   0.463   4.464  0.0603 -0.4889 -0.0891
 3088SOL    HW212118   1.621   0.392   4.462 -0.7556  0.2035 -2.7013
 3088SOL    HW312119   1.682   0.500   4.376  1.9405  1.4813  0.5935
 3088SOL    MW412120   1.676   0.459   4.453  0.2008 -0.1376 -0.3437
 3089SOL     OW12121   4.569   0.567   3.267 -0.0968 -0.0578 -0.2495
 3089SOL    HW212122   4.488   0.605   3.232 -0.4716 -1.1101 -0.5708
 3089SOL    HW312123   4.622   0.548   3.189  1.2252  2.1686  0.0137
 3089SOL    MW412124   4.565   0.570   3.252  0.0282  0.0971 -0.2572
 3090SOL     OW12125   3.386   5.859   3.966  0.2656 -0.6806  0.3485
 3090SOL    HW212126   3.425   5.839   3.881  0.9432  0.5361  0.3585
 3090SOL    HW312127   3.411   5.785   4.022  1.0460 -0.7927 -0.1322
 3090SOL    MW412128   3.394   5.846   3.962  0.4580 -0.5349  0.2864
 3091SOL     OW12129   1.776   3.619   2.483 -0.1952  0.3705 -0.1736
 3091SOL    HW212130   1.709   3.654   2.543 -0.8792 -2.1163  0.6595
 3091SOL    HW312131   1.828   3.695   2.458 -2.0519  2.0740  0.8093
 3091SOL    MW412132   1.774   3.633   2.488 -0.5304  0.2671  0.0660
 3092SOL     OW12133   4.147   0.380   4.900  0.7490 -0.0847 -0.5225
 3092SOL    HW212134   4.152   0.355   4.808 -1.0136  0.0350 -0.6767
 3092SOL    HW312135   4.104   0.466   4.899  2.0414  0.6145  0.3401
 3092SOL    MW412136   4.142   0.388   4.887  0.6870  0.0233 -0.4291
 3093SOL     OW12137   1.864   5.800   5.374  0.0858  0.2653  0.0794
 3093SOL    HW212138   1.795   5.836   5.430  1.0355  2.7721 -0.2225
 3093SOL    HW312139   1.942   5.797   5.430  1.1377  3.1208 -0.9891
 3093SOL    MW412140   1.865   5.804   5.389  0.3499  0.9728 -0.1014
 3094SOL     OW12141   4.014   0.197   5.736 -0.0583 -0.3288 -0.3183
 3094SOL    HW212142   3.948   0.267   5.741 -2.5913 -2.5870  0.6860
 3094SOL    HW312143   4.083   0.225   5.796 -0.5255  1.6823 -0.6276
 3094SOL    MW412144   4.014   0.210   5.745 -0.4541 -0.3614 -0.2266
 3095SOL     OW12145   4.906   5.011   5.459  0.1956  0.0269  0.1607
 3095SOL    HW212146   4.925   4.936   5.515  1.9346  0.2054 -0.1532
 3095SOL    HW312147   4.918   5.087   5.517 -3.1552  0.1080  0.9472
 3095SOL    MW412148   4.910   5.011   5.474 -0.0170  0.0611  0.2231
 3096SOL     OW12149   4.810   1.819   3.721  0.2409  0.3426  0.1271
 3096SOL    HW212150   4.839   1.901   3.762 -2.3707  1.3417  0.1331
 3096SOL    HW312151   4.741   1.786   3.779  0.7433 -1.5199 -0.2734
 3096SOL    MW412152   4.805   1.825   3.734 -0.0374  0.2287  0.0751
 3097SOL     OW12153   0.171   0.600   6.370  0.1386  0.1170 -0.4435
 3097SOL    HW212154   0.211   0.589   6.456 -0.0931 -2.1509 -0.5556
 3097SOL    HW312155   0.094   0.543   6.372 -1.4560  2.1098 -1.2526
 3097SOL    MW412156   0.166   0.591   6.381 -0.1023  0.0807 -0.5650
 3098SOL     OW12157   4.407   5.081   4.118 -0.4396  0.1160 -0.7434
 3098SOL    HW212158   4.385   5.149   4.182 -0.9039 -0.8558  0.1555
 3098SOL    HW312159   4.489   5.043   4.150 -0.8367 -0.5853 -0.5395
 3098SOL    MW412160   4.415   5.085   4.131 -0.5533 -0.1047 -0.5979
 3099SOL     OW12161   4.216   1.885   5.271 -0.1759 -0.6034  0.3125
 3099SOL    HW212162   4.145   1.906   5.332  0.3808  0.9214  0.4810
 3099SOL    HW312163   4.257   1.807   5.308 -1.2235 -0.9981  0.6766
 3099SOL    MW412164   4.212   1.878   5.284 -0.2406 -0.4543  0.3828
 3100SOL     OW12165   3.788   6.196   0.247  0.2956  0.1216 -0.3665
 3100SOL    HW212166   3.859   6.215   0.309  0.8888  1.2365 -1.3523
 3100SOL    HW312167   3.723   6.264   0.264  0.0383 -0.1215 -0.3622
 3100SOL    MW412168   3.789   6.208   0.258  0.3399  0.2366 -0.4960
 3101SOL     OW12169   3.112   3.378   3.747  0.0633 -0.1921  0.0153
 3101SOL    HW212170   3.185   3.317   3.736  0.2155  0.1148 -0.7123
 3101SOL    HW312171   3.115   3.402   3.840  1.9836  1.1698 -0.3420
 3101SOL    MW412172   3.122   3.373   3.758  0.3368  0.0281 -0.1278
 3102SOL     OW12173   4.372   4.240   0.794  0.6009 -0.9692 -0.1510
 3102SOL    HW212174   4.459   4.201   0.786  0.6365 -0.8830 -0.1885
 3102SOL    HW312175   4.327   4.184   0.858  0.9027 -0.6416  0.3621
 3102SOL    MW412176   4.378   4.227   0.802  0.6454 -0.9146 -0.0883
 3103SOL     OW12177   4.856   5.073   4.409  0.4095  0.4783  0.1285
 3103SOL    HW212178   4.869   5.166   4.390  1.4339  0.1918 -0.6664
 3103SOL    HW312179   4.921   5.029   4.355  0.4390 -0.6607  1.0700
 3103SOL    MW412180   4.866   5.080   4.400  0.5486  0.2903  0.1479
 3104SOL     OW12181   1.687   4.155   0.164  0.8213  0.3077 -0.0957
 3104SOL    HW212182   1.748   4.100   0.116  0.4964  0.3206 -0.5255
 3104SOL    HW312183   1.734   4.238   0.175  1.9970 -0.5533  2.0408
 3104SOL    MW412184   1.701   4.159   0.159  0.9335  0.1958  0.1295
 3105SOL     OW12185   0.129   4.356   6.259  0.2546  0.0593 -0.2899
 3105SOL    HW212186   0.155   4.443   6.290  1.1424 -0.2662 -0.0792
 3105SOL    HW312187   0.033   4.358   6.258  0.2467  1.8155 -2.5425
 3105SOL    MW412188   0.120   4.368   6.263  0.3707  0.2481 -0.5593
 3106SOL     OW12189   5.875   2.987   2.054  0.3099  0.1550  0.2009
 3106SOL    HW212190   5.826   2.994   2.135  0.6088 -0.9553  0.4883
 3106SOL    HW312191   5.814   3.020   1.987 -1.2249 -2.0326  0.4078
 3106SOL    MW412192   5.860   2.992   2.056  0.1468 -0.2801  0.2661
 3107SOL     OW12193   5.851   2.061   5.894 -0.3600 -0.6142  0.4130
 3107SOL    HW212194   5.891   2.066   5.981  0.2138  1.6961  0.0898
 3107SOL    HW312195   5.767   2.019   5.909 -0.6557  0.5255  2.2633
 3107SOL    MW412196   5.845   2.056   5.907 -0.3233 -0.1590  0.6145
 3108SOL     OW12197   0.092   3.980   4.146  0.8594 -0.3815  0.0176
 3108SOL    HW212198   0.025   3.933   4.194  0.7779 -0.3274 -0.0432
 3108SOL    HW312199   0.046   4.052   4.103  1.3724  1.3338  2.1640
 3108SOL    MW412200   0.077   3.983   4.146  0.9163 -0.1480  0.2927
 3109SOL     OW12201   5.953   6.363   2.565  0.0692 -0.6915  0.4894
 3109SOL    HW212202   5.986   6.453   2.561 -2.0002  0.0628 -0.6446
 3109SOL    HW312203   6.027   6.310   2.536  1.4872  0.5499  1.6018
 3109SOL    MW412204   5.967   6.368   2.561 -0.0168 -0.4282  0.4866
 3110SOL     OW12205   1.914   5.394   5.499 -0.1219 -0.1960 -0.2184
 3110SOL    HW212206   2.010   5.386   5.497 -0.1656 -1.3269  1.0235
 3110SOL    HW312207   1.893   5.438   5.417  1.5600  1.3091  0.0879
 3110SOL    MW412208   1.924   5.398   5.488  0.0942 -0.1467 -0.0142
 3111SOL     OW12209   1.930   0.602   2.704  0.4751  0.3824  0.1885
 3111SOL    HW212210   1.869   0.539   2.742  2.3704 -1.1990  0.7658
 3111SOL    HW312211   1.939   0.573   2.613  0.5572  0.4762  0.1671
 3111SOL    MW412212   1.923   0.590   2.697  0.7360  0.1861  0.2618
 3112SOL     OW12213   5.764   0.692   2.163  0.3769 -0.5660  0.2663
 3112SOL    HW212214   5.707   0.668   2.235  1.6093  0.0452  1.4824
 3112SOL    HW312215   5.773   0.787   2.170  2.5391 -0.7651  0.9120
 3112SOL    MW412216   5.757   0.702   2.173  0.8248 -0.5116  0.5120
 3113SOL     OW12217   6.164   6.149   1.548  0.2900  0.1069 -0.2805
 3113SOL    HW212218   6.082   6.169   1.593 -0.1914 -0.3636 -0.9271
 3113SOL    HW312219   6.193   6.067   1.586 -1.0403 -1.2375 -1.9995
 3113SOL    MW412220   6.157   6.141   1.559  0.0510 -0.1325 -0.5926
 3114SOL     OW12221   1.405   1.841   3.267  0.5317  0.2167  0.9244
 3114SOL    HW212222   1.346   1.864   3.195 -1.1982 -1.6796  1.6560
 3114SOL    HW312223   1.446   1.924   3.291  0.4996  1.0649 -1.6233
 3114SOL    MW412224   1.403   1.855   3.261  0.2992  0.0784  0.6847
 3115SOL     OW12225   3.325   1.986   3.377  0.1249 -0.1571 -0.4414
 3115SOL    HW212226   3.379   2.060   3.408  1.0466 -0.7019 -0.7021
 3115SOL    HW312227   3.253   1.981   3.440  0.7023  0.2233  0.2663
 3115SOL    MW412228   3.323   1.995   3.390  0.3227 -0.1788 -0.3824
 3116SOL     OW12229   1.316   1.914   4.498 -0.1050  0.2506  0.0487
 3116SOL    HW212230   1.341   1.994   4.546 -0.5281  0.4309 -0.0252
 3116SOL    HW312231   1.399   1.873   4.474  0.1167  0.7234 -0.0002
 3116SOL    MW412232   1.330   1.919   4.501 -0.1316  0.3367  0.0325
 3117SOL     OW12233   6.258   1.545   4.567  0.1899  0.7152 -0.0060
 3117SOL    HW212234   6.293   1.459   4.543  1.3994  0.8438  1.1344
 3117SOL    HW312235   6.335   1.599   4.580 -0.4978  1.5563  0.7389
 3117SOL    MW412236   6.273   1.540   4.566  0.2588  0.8432  0.2427
 3118SOL     OW12237   3.405   3.512   3.602 -0.4503  0.2332  0.1055
 3118SOL    HW212238   3.403   3.441   3.538  0.3735 -0.0944  0.4344
 3118SOL    HW312239   3.353   3.582   3.561 -0.7929 -0.3427 -0.4643
 3118SOL    MW412240   3.398   3.512   3.588 -0.3868  0.1140  0.0737
 3119SOL     OW12241   5.360   4.335   3.121  0.5205 -0.1225  0.5806
 3119SOL    HW212242   5.364   4.419   3.074  1.6532 -0.2515  0.4265
 3119SOL    HW312243   5.317   4.276   3.060  0.6642  0.0841  0.2750
 3119SOL    MW412244   5.355   4.339   3.106  0.6889 -0.1122  0.5200
 3120SOL     OW12245   3.125   5.318   1.052  0.0361 -0.4389 -0.0638
 3120SOL    HW212246   3.088   5.234   1.022 -0.2985  0.1315 -1.3036
 3120SOL    HW312247   3.128   5.372   0.973 -1.3391  1.2996  1.0096
 3120SOL    MW412248   3.120   5.314   1.038 -0.1895 -0.1343 -0.0857
 3121SOL     OW12249   0.419   2.077   2.750 -0.1462  0.3736  0.3174
 3121SOL    HW212250   0.378   2.093   2.665 -0.2451 -0.5553  0.1792
 3121SOL    HW312251   0.348   2.089   2.814 -1.0969 -2.6973 -0.0199
 3121SOL    MW412252   0.404   2.081   2.748 -0.2847 -0.1541  0.2547
 3122SOL     OW12253   5.620   3.472   0.763  0.2213 -0.1518 -0.4237
 3122SOL    HW212254   5.703   3.494   0.805 -0.1945  0.0999  0.2748
 3122SOL    HW312255   5.566   3.436   0.833 -0.1963 -0.4910 -0.9135
 3122SOL    MW412256   5.624   3.470   0.777  0.1113 -0.1633 -0.3961
 3123SOL     OW12257   2.356   1.324   3.466 -0.6476 -0.5159 -0.1072
 3123SOL    HW212258   2.442   1.346   3.429 -1.0680 -1.6297 -1.8782
 3123SOL    HW312259   2.316   1.409   3.484  0.4578  0.0349 -0.1410
 3123SOL    MW412260   2.362   1.338   3.463 -0.5572 -0.5902 -0.3453
 3124SOL     OW12261   3.122   3.083   5.914 -0.6144 -0.1525 -0.3683
 3124SOL    HW212262   3.084   3.009   5.868 -2.7311  0.9686 -0.5114
 3124SOL    HW312263   3.069   3.092   5.993  1.0946 -0.1903  0.8450
 3124SOL    MW412264   3.110   3.074   5.918 -0.6682 -0.0096 -0.2271
 3125SOL     OW12265   5.851   4.164   4.767 -0.5052 -0.7978 -0.2597
 3125SOL    HW212266   5.905   4.125   4.697 -2.1252 -0.3772 -1.8112
 3125SOL    HW312267   5.824   4.248   4.732 -1.0761 -0.4146  1.0554
 3125SOL    MW412268   5.855   4.170   4.753 -0.7942 -0.6918 -0.2909
 3126SOL     OW12269   3.504   2.623   3.322  0.1076 -0.4673 -0.1856
 3126SOL    HW212270   3.426   2.568   3.324  0.2173 -0.6042  0.9011
 3126SOL    HW312271   3.470   2.712   3.313 -0.2773 -0.3936  1.6148
 3126SOL    MW412272   3.489   2.627   3.321  0.0713 -0.4756  0.1953
 3127SOL     OW12273   5.037   1.325   0.800 -0.3156 -0.2552  0.5173
 3127SOL    HW212274   5.035   1.416   0.830 -2.6375  0.0554 -0.3059
 3127SOL    HW312275   5.076   1.276   0.872 -0.8037  1.1626  1.7955
 3127SOL    MW412276   5.042   1.330   0.813 -0.6864 -0.0271  0.5773
 3128SOL     OW12277   2.448   2.558   5.222  0.1608  0.0996  0.5702
 3128SOL    HW212278   2.403   2.492   5.275  0.9965 -1.2477 -0.3229
 3128SOL    HW312279   2.534   2.567   5.263  0.7551 -0.8375 -0.4100
 3128SOL    MW412280   2.453   2.551   5.235  0.3495 -0.2018  0.3230
 3129SOL     OW12281   0.057   1.235   5.795 -0.2379 -0.4028 -0.2749
 3129SOL    HW212282   0.110   1.286   5.735 -1.3004 -1.2915 -2.0800
 3129SOL    HW312283   0.097   1.247   5.881  2.5102 -0.5969 -1.4403
 3129SOL    MW412284   0.069   1.243   5.798 -0.0155 -0.5456 -0.6669
 3130SOL     OW12285   3.047   0.161   4.848 -0.2119  0.5244 -0.1415
 3130SOL    HW212286   3.017   0.070   4.857  0.9538 -0.1712 -2.4339
 3130SOL    HW312287   2.989   0.199   4.782 -0.2512  1.2422  0.2939
 3130SOL    MW412288   3.035   0.154   4.840 -0.0633  0.5274 -0.3865
 3131SOL     OW12289   1.524   0.936   5.647  0.1787  0.0452  0.0129
 3131SOL    HW212290   1.582   0.860   5.655 -0.4579 -0.6339 -1.4920
 3131SOL    HW312291   1.574   1.008   5.685  0.7475 -1.1165  1.6307
 3131SOL    MW412292   1.538   0.935   5.653  0.1697 -0.1977  0.0278
 3132SOL     OW12293   3.280   2.494   5.138  0.1263  0.2528 -0.6286
 3132SOL    HW212294   3.224   2.434   5.186  0.4914 -0.6079 -1.2671
 3132SOL    HW312295   3.365   2.450   5.135  0.1766  0.4075 -1.8360
 3132SOL    MW412296   3.284   2.481   5.144  0.1811  0.1597 -0.8721
 3133SOL     OW12297   4.064   2.574   0.348  0.6145  0.2044 -0.0227
 3133SOL    HW212298   4.069   2.662   0.312  0.0009 -0.2096 -1.2005
 3133SOL    HW312299   4.103   2.518   0.280  1.1863 -0.4150  0.7934
 3133SOL    MW412300   4.070   2.578   0.334  0.6089  0.0680 -0.0704
 3134SOL     OW12301   6.294   5.610   4.452  0.2561 -0.2991  0.7230
 3134SOL    HW212302   6.294   5.556   4.372 -0.4872 -0.2713  0.6970
 3134SOL    HW312303   6.349   5.685   4.430  1.0952 -0.9063  0.6698
 3134SOL    MW412304   6.301   5.613   4.438  0.2688 -0.3756  0.7126
 3135SOL     OW12305   2.446   4.661   1.443  0.2917 -0.1866  0.1453
 3135SOL    HW212306   2.375   4.616   1.488  0.6555 -1.0885 -0.1568
 3135SOL    HW312307   2.519   4.599   1.444 -0.0829 -0.8325 -2.8433
 3135SOL    MW412308   2.447   4.647   1.449  0.2903 -0.3908 -0.2889
 3136SOL     OW12309   0.268   2.423   3.893 -0.4141  0.1685 -0.0387
 3136SOL    HW212310   0.305   2.335   3.894  1.3033  0.8296 -0.9857
 3136SOL    HW312311   0.283   2.457   3.981 -0.4820 -0.2440  0.1330
 3136SOL    MW412312   0.275   2.416   3.904 -0.1965  0.2013 -0.1410
 3137SOL     OW12313   0.638   2.569   2.577 -0.1932  0.4126  0.4615
 3137SOL    HW212314   0.581   2.508   2.623 -1.0823  0.0965 -1.0057
 3137SOL    HW312315   0.712   2.515   2.547 -0.1342  0.4142  0.5993
 3137SOL    MW412316   0.640   2.554   2.579 -0.3027  0.3711  0.2861
 3138SOL     OW12317   0.438   0.901   1.879  0.0746  1.0289 -0.0771
 3138SOL    HW212318   0.472   0.812   1.886 -0.6036  0.7576 -0.1611
 3138SOL    HW312319   0.437   0.934   1.968 -1.4561  0.2647  0.2198
 3138SOL    MW412320   0.442   0.893   1.891 -0.2168  0.8923 -0.0490
 3139SOL     OW12321   5.750   1.150   5.664 -0.3866 -0.4241  0.7170
 3139SOL    HW212322   5.761   1.232   5.615  0.8666 -1.0340 -0.0696
 3139SOL    HW312323   5.655   1.134   5.663 -0.6210  0.8740  0.6675
 3139SOL    MW412324   5.739   1.159   5.657 -0.2522 -0.3333  0.6067
 3140SOL     OW12325   4.845   4.951   1.020 -0.1297 -0.0747  0.4615
 3140SOL    HW212326   4.808   4.901   1.094  1.3332  0.4800  1.6131
 3140SOL    HW312327   4.900   4.888   0.974  0.6984  0.1134  1.1635
 3140SOL    MW412328   4.847   4.936   1.024  0.1725  0.0233  0.7061
 3141SOL     OW12329   5.692   5.192   2.112  0.4639  0.5314  0.6582
 3141SOL    HW212330   5.670   5.159   2.199  2.5367 -0.6851  0.7733
 3141SOL    HW312331   5.667   5.285   2.115  0.9240  0.6359  2.6996
 3141SOL    MW412332   5.686   5.200   2.124  0.7981  0.3846  0.9427
 3142SOL     OW12333   5.163   1.754   2.123  1.0012 -0.6270  0.0749
 3142SOL    HW212334   5.074   1.767   2.157  1.4080  1.6871  0.4472
 3142SOL    HW312335   5.153   1.689   2.054 -0.8010 -1.1992  0.8097
 3142SOL    MW412336   5.150   1.747   2.118  0.8171 -0.3972  0.2210
 3143SOL     OW12337   2.207   2.314   3.360 -0.1418  0.4381  0.6141
 3143SOL    HW212338   2.263   2.236   3.364 -0.2510  0.0265 -2.6079
 3143SOL    HW312339   2.120   2.280   3.341 -0.1744  1.2820 -0.9374
 3143SOL    MW412340   2.203   2.299   3.358 -0.1605  0.4952 -0.0157
 3144SOL     OW12341   0.502   5.837   2.455 -0.2141  0.4756 -0.2715
 3144SOL    HW212342   0.522   5.745   2.471  0.8707  0.2192 -2.6352
 3144SOL    HW312343   0.407   5.841   2.455 -0.2832 -0.7044 -0.3847
 3144SOL    MW412344   0.492   5.825   2.457 -0.0801  0.2861 -0.5983
 3145SOL     OW12345   3.148   4.136   2.953 -0.0729  0.5089  0.5013
 3145SOL    HW212346   3.167   4.047   2.982 -2.5846  0.0495  1.0079
 3145SOL    HW312347   3.151   4.131   2.857 -4.4193 -1.4170  0.2002
 3145SOL    MW412348   3.151   4.124   2.944 -0.9777  0.1942  0.5284
 3146SOL     OW12349   1.597   5.088   0.034  0.4235  0.0050 -0.3622
 3146SOL    HW212350   1.508   5.109   0.003  0.8942 -0.4429 -2.1542
 3146SOL    HW312351   1.616   5.004  -0.006  0.8411 -0.9973  1.8374
 3146SOL    MW412352   1.588   5.080   0.025  0.5407 -0.1863 -0.3084
 3147SOL     OW12353   5.451   6.067   0.284 -0.1728  0.5341 -0.1807
 3147SOL    HW212354   5.445   6.125   0.361  1.2056 -0.2776  0.5697
 3147SOL    HW312355   5.482   5.984   0.319 -0.3813 -0.1253 -1.5076
 3147SOL    MW412356   5.454   6.064   0.299 -0.0184  0.3400 -0.2568
 3148SOL     OW12357   5.141   3.019   6.297  0.3133  0.6538 -0.4035
 3148SOL    HW212358   5.193   3.075   6.356  1.9244 -1.3035  0.1356
 3148SOL    HW312359   5.060   3.003   6.345  0.8466  0.5816  0.4982
 3148SOL    MW412360   5.137   3.024   6.312  0.5962  0.3860 -0.2134
 3149SOL     OW12361   1.984   2.956   5.639  0.1180  0.1744  0.2083
 3149SOL    HW212362   1.892   2.956   5.613 -0.0888  3.2246  0.6660
 3149SOL    HW312363   1.989   2.890   5.709 -1.2302 -1.4834 -1.1938
 3149SOL    MW412364   1.973   2.947   5.645 -0.0872  0.3581  0.0837
 3150SOL     OW12365   4.077   2.759   0.931  0.1500  0.2481  0.0476
 3150SOL    HW212366   4.116   2.691   0.987  0.2052  0.6078  0.4501
 3150SOL    HW312367   4.020   2.711   0.871  0.2185 -0.1574  0.3051
 3150SOL    MW412368   4.075   2.743   0.930  0.1663  0.2420  0.1347
 3151SOL     OW12369   3.456   6.183   3.723 -0.1160 -0.1266 -0.4395
 3151SOL    HW212370   3.530   6.148   3.772 -0.9848 -0.2981  0.7877
 3151SOL    HW312371   3.444   6.121   3.651 -0.1906 -1.1178  0.3908
 3151SOL    MW412372   3.464   6.170   3.720 -0.2405 -0.2800 -0.1680
 3152SOL     OW12373   1.459   0.111   5.090  0.3126 -0.1316 -0.3543
 3152SOL    HW212374   1.542   0.124   5.045 -0.5822 -0.5975 -2.2239
 3152SOL    HW312375   1.419   0.036   5.046 -1.1631  0.1783  0.4056
 3152SOL    MW412376   1.464   0.103   5.078 -0.0002 -0.1521 -0.5007
 3153SOL     OW12377   1.512   0.822   2.938  0.2912  0.3971 -0.1660
 3153SOL    HW212378   1.423   0.858   2.943  1.0419  2.7251 -1.6942
 3153SOL    HW312379   1.530   0.819   2.844  1.0032 -2.3975 -0.0162
 3153SOL    MW412380   1.502   0.826   2.926  0.4842  0.3355 -0.3479
 3154SOL     OW12381   1.947   5.536   3.274  0.2001 -0.4014 -0.1176
 3154SOL    HW212382   1.920   5.628   3.274 -0.4499 -0.5628  1.3035
 3154SOL    HW312383   2.031   5.535   3.319 -0.3476 -0.6200  0.9363
 3154SOL    MW412384   1.954   5.548   3.280  0.0421 -0.4515  0.2089
 3155SOL     OW12385   4.821   4.094   1.368 -0.0421 -0.0064 -0.2252
 3155SOL    HW212386   4.870   4.148   1.431  2.5316 -1.3795 -0.8879
 3155SOL    HW312387   4.773   4.158   1.315  0.0365  1.3656  1.2707
 3155SOL    MW412388   4.821   4.110   1.369  0.3078 -0.0066 -0.1153
 3156SOL     OW12389   2.636   2.005   3.953 -0.0738  0.3871 -0.3363
 3156SOL    HW212390   2.557   2.037   3.911 -0.5587 -0.9338 -0.4639
 3156SOL    HW312391   2.654   1.921   3.910  0.6956  0.0869  0.5454
 3156SOL    MW412392   2.628   1.998   3.942 -0.0362  0.1732 -0.2368
 3157SOL     OW12393   0.594   5.588   0.160 -0.3786 -0.3478  0.2004
 3157SOL    HW212394   0.504   5.556   0.161 -0.2725 -0.6598  1.6645
 3157SOL    HW312395   0.590   5.668   0.107 -1.7103  0.1533  1.0097
 3157SOL    MW412396   0.582   5.595   0.153 -0.5403 -0.3228  0.5004
 3158SOL     OW12397   4.447   3.663   4.817  0.2033  0.0099  0.1528
 3158SOL    HW212398   4.524   3.613   4.792  0.4765 -0.2472  1.4524
 3158SOL    HW312399   4.388   3.599   4.857 -0.4303  0.3109 -0.2790
 3158SOL    MW412400   4.449   3.648   4.819  0.1557  0.0157  0.2673
 3159SOL     OW12401   2.150   2.908   1.980  0.2285  0.4824 -0.7341
 3159SOL    HW212402   2.067   2.862   1.972  0.9022 -0.8611 -0.4748
 3159SOL    HW312403   2.216   2.841   1.956  1.3755  0.6932  1.5943
 3159SOL    MW412404   2.148   2.893   1.975  0.4687  0.3330 -0.3927
 3160SOL     OW12405   5.120   3.928   4.915 -0.4952 -0.0122 -0.1349
 3160SOL    HW212406   5.063   3.852   4.912 -0.0672 -0.3247 -0.3974
 3160SOL    HW312407   5.168   3.926   4.832  0.4184 -0.1629  0.3789
 3160SOL    MW412408   5.119   3.918   4.904 -0.3182 -0.0733 -0.1018
 3161SOL     OW12409   4.914   2.971   0.033 -0.7033  0.1084 -0.1384
 3161SOL    HW212410   4.891   2.986   0.124 -2.4941  0.7943 -0.6498
 3161SOL    HW312411   4.915   2.876   0.024 -0.9005  0.0413  0.5213
 3161SOL    MW412412   4.911   2.960   0.044 -0.9656  0.1901 -0.1189
 3162SOL     OW12413   5.366   0.733   3.757 -0.1005 -0.0078 -0.6191
 3162SOL    HW212414   5.296   0.678   3.720  0.5758 -1.4661  0.2150
 3162SOL    HW312415   5.441   0.717   3.700  0.5665 -1.2428  0.5763
 3162SOL    MW412416   5.366   0.724   3.744  0.0767 -0.3632 -0.3513
 3163SOL     OW12417   3.357   4.286   3.070 -0.1313  0.2819  0.0680
 3163SOL    HW212418   3.294   4.278   2.999 -0.5854  0.8682  0.3955
 3163SOL    HW312419   3.332   4.219   3.133 -0.0309  0.0848 -0.1046
 3163SOL    MW412420   3.345   4.276   3.069 -0.1780  0.3333  0.0884
 3164SOL     OW12421   2.471   1.501   5.218  0.4758 -0.3178  0.3889
 3164SOL    HW212422   2.420   1.579   5.241  0.0475 -0.9060  1.5202
 3164SOL    HW312423   2.451   1.486   5.126 -0.5150  0.1252  0.5159
 3164SOL    MW412424   2.461   1.509   5.209  0.2886 -0.3369  0.5549
 3165SOL     OW12425   1.832   1.971   1.777 -0.0114  0.2297 -0.2785
 3165SOL    HW212426   1.789   1.944   1.696  0.7903 -1.3970 -0.1957
 3165SOL    HW312427   1.785   1.924   1.846  0.0259  0.7375  0.0976
 3165SOL    MW412428   1.820   1.961   1.776  0.0993  0.0821 -0.2179
 3166SOL     OW12429   5.069   4.467   0.925 -0.6424  0.0012 -0.2112
 3166SOL    HW212430   5.158   4.458   0.960 -0.4571  0.9101 -0.4293
 3166SOL    HW312431   5.019   4.398   0.970  0.6590 -2.1687 -1.8560
 3166SOL    MW412432   5.074   4.456   0.936 -0.4463 -0.1652 -0.4570
 3167SOL     OW12433   2.405   1.636   3.732 -0.5889 -0.0875  0.3135
 3167SOL    HW212434   2.466   1.669   3.667 -0.6338 -1.2940 -0.3869
 3167SOL    HW312435   2.459   1.583   3.791 -0.3800  1.7583  1.8877
 3167SOL    MW412436   2.420   1.633   3.731 -0.5673 -0.0031  0.4288
 3168SOL     OW12437   0.336   1.989   4.379 -0.3373 -0.0318 -0.1468
 3168SOL    HW212438   0.295   2.006   4.295 -1.1238 -2.6760 -0.3906
 3168SOL    HW312439   0.430   1.985   4.360 -0.6101 -2.3995 -1.3438
 3168SOL    MW412440   0.343   1.991   4.365 -0.4770 -0.6930 -0.3369
 3169SOL     OW12441   3.605   2.867   1.368  0.4424  0.8221 -0.2193
 3169SOL    HW212442   3.679   2.821   1.408 -1.8970 -1.7466  1.6236
 3169SOL    HW312443   3.585   2.937   1.430  0.1426  0.2371  0.3661
 3169SOL    MW412444   3.612   2.870   1.382  0.0942  0.4060  0.1011
 3170SOL     OW12445   0.919   1.491   0.460  0.2989 -0.2176 -0.7278
 3170SOL    HW212446   0.955   1.465   0.376  0.9248  0.2507 -0.6163
 3170SOL    HW312447   0.836   1.444   0.467 -0.2539  0.5208 -2.0537
 3170SOL    MW412448   0.913   1.482   0.450  0.3085 -0.0584 -0.8880
 3171SOL     OW12449   6.247   4.888   0.877  0.0351  0.0442 -0.0193
 3171SOL    HW212450   6.181   4.846   0.821  0.2625  0.8874 -0.9294
 3171SOL    HW312451   6.321   4.905   0.819  1.1735 -1.0873  1.0358
 3171SOL    MW412452   6.248   4.884   0.862  0.2153  0.0061 -0.0002
 3172SOL     OW12453   6.302   6.420   0.697 -0.7003  0.1476  0.0288
 3172SOL    HW212454   6.252   6.379   0.768 -2.2219  1.4453 -0.2381
 3172SOL    HW312455   6.269   6.510   0.692  0.4210  0.5324 -1.3598
 3172SOL    MW412456   6.291   6.427   0.706 -0.7531  0.3696 -0.1897
 3173SOL     OW12457   2.354   5.270   5.834  0.2808  0.6022 -0.1094
 3173SOL    HW212458   2.399   5.228   5.906  2.1786  0.6034 -1.2234
 3173SOL    HW312459   2.340   5.360   5.863  1.2328  0.6632  0.1758
 3173SOL    MW412460   2.358   5.277   5.847  0.6568  0.6104 -0.2188
 3174SOL     OW12461   3.264   3.718   6.178 -0.1603 -0.1099 -0.7545
 3174SOL    HW212462   3.251   3.626   6.204  1.7185 -0.0034  0.8451
 3174SOL    HW312463   3.326   3.714   6.105  1.7943 -0.1261  0.7932
 3174SOL    MW412464   3.271   3.705   6.172  0.3455 -0.0980 -0.3393
 3175SOL     OW12465   5.649   1.691   4.487 -0.0786  0.1526  0.0234
 3175SOL    HW212466   5.631   1.768   4.541 -1.7172 -0.8259  0.9469
 3175SOL    HW312467   5.616   1.714   4.401 -1.7184  0.0598  0.5987
 3175SOL    MW412468   5.642   1.704   4.483 -0.5112  0.0113  0.2212
 3176SOL     OW12469   6.061   5.868   2.839  0.2533 -0.0338  0.8849
 3176SOL    HW212470   6.136   5.920   2.808  2.3958 -2.5342  1.5650
 3176SOL    HW312471   6.022   5.834   2.759  1.3041 -0.5947  0.5873
 3176SOL    MW412472   6.066   5.871   2.824  0.6747 -0.4377  0.9353
 3177SOL     OW12473   3.884   1.238   4.112 -0.5845  0.2662 -0.2597
 3177SOL    HW212474   3.853   1.157   4.151 -0.5239  1.3696  2.2860
 3177SOL    HW312475   3.805   1.290   4.097 -0.4925  0.4266 -0.1930
 3177SOL    MW412476   3.870   1.234   4.115 -0.5644  0.4329  0.0850
 3178SOL     OW12477   4.007   4.092   3.882  0.2261  0.2032  0.5865
 3178SOL    HW212478   3.997   4.153   3.808  1.8652 -1.0355 -0.7476
 3178SOL    HW312479   3.957   4.015   3.855  0.3643 -0.0420  1.0346
 3178SOL    MW412480   3.999   4.090   3.868  0.4606  0.0074  0.4696
 3179SOL     OW12481   6.162   3.689   3.069  0.3211  0.0551 -0.1944
 3179SOL    HW212482   6.147   3.595   3.082  0.7015  0.1669  1.2596
 3179SOL    HW312483   6.240   3.693   3.014 -0.0044 -0.4825 -0.7033
 3179SOL    MW412484   6.170   3.677   3.063  0.3284 -0.0011 -0.0697
 3180SOL     OW12485   1.889   3.156   5.260  0.0490  0.1764  0.0518
 3180SOL    HW212486   1.948   3.165   5.335 -0.8066  2.7894  0.5051
 3180SOL    HW312487   1.907   3.232   5.205 -0.9989 -0.4337 -1.2031
 3180SOL    MW412488   1.899   3.167   5.263 -0.2022  0.4406 -0.0540
 3181SOL     OW12489   2.793   3.967   5.817 -0.1402  0.7171  0.0027
 3181SOL    HW212490   2.744   3.917   5.752  0.4728  0.3233 -0.1591
 3181SOL    HW312491   2.727   3.994   5.881 -0.8180  1.4444 -0.9784
 3181SOL    MW412492   2.778   3.964   5.817 -0.1488  0.7611 -0.1481
 3182SOL     OW12493   5.514   2.916   0.274  0.5869  0.3097 -0.5363
 3182SOL    HW212494   5.429   2.873   0.277  0.5494  0.4083 -0.0987
 3182SOL    HW312495   5.519   2.965   0.356  0.5254  1.3248 -1.1257
 3182SOL    MW412496   5.503   2.917   0.285  0.5738  0.4566 -0.5563
 3183SOL     OW12497   3.932   3.812   3.520 -0.9587 -0.0948  0.1758
 3183SOL    HW212498   3.843   3.831   3.492 -1.0640 -0.7411  0.0459
 3183SOL    HW312499   3.953   3.729   3.477 -0.6010 -0.3728  0.8782
 3183SOL    MW412500   3.923   3.804   3.511 -0.9254 -0.2168  0.2513
 3184SOL     OW12501   4.711   4.405   5.942 -0.1002  0.1674  0.1650
 3184SOL    HW212502   4.771   4.464   5.896 -0.1012  1.4031  1.6324
 3184SOL    HW312503   4.665   4.358   5.873  1.3995  0.3693 -1.0247
 3184SOL    MW412504   4.713   4.407   5.927  0.0976  0.3570  0.2016
 3185SOL     OW12505   5.454   5.013   5.365  0.0709  0.3220 -0.3345
 3185SOL    HW212506   5.455   4.917   5.362  0.3693  0.3135 -3.7298
 3185SOL    HW312507   5.367   5.035   5.397 -1.0484 -1.1581 -2.1531
 3185SOL    MW412508   5.443   5.003   5.369 -0.0374  0.1256 -1.0224
 3186SOL     OW12509   3.967   2.728   1.228 -0.6873  0.4620  0.1401
 3186SOL    HW212510   4.053   2.756   1.195 -0.5465 -0.4350 -0.2696
 3186SOL    HW312511   3.959   2.637   1.201 -2.1593  0.7789 -0.6091
 3186SOL    MW412512   3.977   2.720   1.220 -0.8630  0.3855 -0.0128
 3187SOL     OW12513   0.411   6.019   0.848 -0.1705 -0.2406  0.0169
 3187SOL    HW212514   0.487   6.073   0.871  0.8749 -0.4743 -2.4646
 3187SOL    HW312515   0.408   6.023   0.752 -0.7218 -3.6750 -0.2267
 3187SOL    MW412516   0.421   6.027   0.838 -0.1053 -0.7245 -0.3427
 3188SOL     OW12517   0.727   2.335   3.588  0.0275  0.2667 -0.4822
 3188SOL    HW212518   0.651   2.305   3.637  0.9832 -2.6459 -0.5929
 3188SOL    HW312519   0.690   2.377   3.510 -1.4432  1.5108  0.8108
 3188SOL    MW412520   0.712   2.337   3.585 -0.0404  0.0466 -0.3262
 3189SOL     OW12521   2.617   0.698   0.926  0.2115 -0.0281 -0.2177
 3189SOL    HW212522   2.596   0.723   1.016  0.4262 -2.6815  0.6682
 3189SOL    HW312523   2.713   0.690   0.925  0.2295  0.2072 -0.7470
 3189SOL    MW412524   2.627   0.700   0.938  0.2422 -0.3472 -0.1707
 3190SOL     OW12525   0.349   5.470   0.150  0.0802  0.2939  0.0441
 3190SOL    HW212526   0.279   5.500   0.207 -1.1982 -0.1872 -1.2174
 3190SOL    HW312527   0.368   5.381   0.181  0.8172  0.7639  0.9862
 3190SOL    MW412528   0.342   5.462   0.162  0.0088  0.2925  0.0020
 3191SOL     OW12529   5.676   1.834   6.218  0.0549  0.3740 -0.1783
 3191SOL    HW212530   5.648   1.878   6.138  0.9754  1.3897  0.0400
 3191SOL    HW312531   5.718   1.902   6.270  0.9834 -0.6271  0.4347
 3191SOL    MW412532   5.678   1.849   6.214  0.2988  0.3760 -0.0686
 3192SOL     OW12533   5.717   0.489   1.495 -0.0648 -0.3200  0.5446
 3192SOL    HW212534   5.780   0.450   1.435 -0.5873 -0.4584  0.0718
 3192SOL    HW312535   5.754   0.573   1.519  0.6082 -0.6767  0.7910
 3192SOL    MW412536   5.730   0.495   1.491 -0.0449 -0.3853  0.5147
 3193SOL     OW12537   2.170   5.059   4.378 -0.5820 -0.0305  0.3021
 3193SOL    HW212538   2.245   5.115   4.360  0.2430 -1.4518 -0.9737
 3193SOL    HW312539   2.205   4.987   4.431 -1.6254  0.6107  1.9489
 3193SOL    MW412540   2.185   5.057   4.383 -0.6108 -0.1334  0.3511
 3194SOL     OW12541   0.241   2.056   6.079  0.0487 -0.3793  0.0400
 3194SOL    HW212542   0.306   2.125   6.096 -1.8774  1.0144  2.4751
 3194SOL    HW312543   0.182   2.094   6.015  0.9337 -1.2254 -1.3326
 3194SOL    MW412544   0.242   2.071   6.073 -0.0887 -0.3070  0.1802
 3195SOL     OW12545   3.334   4.360   1.992 -0.0343  0.3870 -0.1341
 3195SOL    HW212546   3.364   4.435   2.044  0.0242  0.3823 -0.1605
 3195SOL    HW312547   3.360   4.284   2.044 -0.2244  0.3874 -0.0366
 3195SOL    MW412548   3.341   4.360   2.006 -0.0516  0.3864 -0.1247
 3196SOL     OW12549   2.399   4.408   2.964  0.1488  0.4082 -0.4181
 3196SOL    HW212550   2.404   4.343   3.034 -1.6217  0.0769 -0.5367
 3196SOL    HW312551   2.356   4.483   3.005 -2.4041 -0.3740 -1.4554
 3196SOL    MW412552   2.394   4.409   2.979 -0.4216  0.2613 -0.5706
 3197SOL     OW12553   0.357   3.517   5.638  0.3705 -0.5147 -0.7384
 3197SOL    HW212554   0.267   3.548   5.630  0.5700 -0.2912 -3.0061
 3197SOL    HW312555   0.353   3.426   5.610  0.6490 -0.9423  0.5641
 3197SOL    MW412556   0.345   3.509   5.633  0.4335 -0.5416 -0.8658
 3198SOL     OW12557   0.720   3.794   3.733  0.1998 -0.6152  0.2503
 3198SOL    HW212558   0.734   3.887   3.752  1.5539 -0.3726 -1.6275
 3198SOL    HW312559   0.636   3.773   3.774 -0.2047  1.4705  0.5908
 3198SOL    MW412560   0.711   3.804   3.741  0.3251 -0.3080  0.0474
 3199SOL     OW12561   3.875   6.044   1.901 -0.0155 -0.1461  0.8954
 3199SOL    HW212562   3.953   6.089   1.933 -0.8203  0.7363  1.6923
 3199SOL    HW312563   3.807   6.112   1.898 -1.4796 -1.3811  2.8886
 3199SOL    MW412564   3.876   6.059   1.905 -0.3148 -0.1926  1.2635
 3200SOL     OW12565   3.796   0.272   1.311 -0.4881 -0.3729 -0.5589
 3200SOL    HW212566   3.887   0.277   1.342 -1.2928 -2.2036  2.4858
 3200SOL    HW312567   3.754   0.349   1.349 -0.7240 -0.8126  0.0824
 3200SOL    MW412568   3.803   0.283   1.320 -0.6254 -0.6725 -0.0726
 3201SOL     OW12569   5.992   2.193   0.322  0.4749  0.6626  0.0605
 3201SOL    HW212570   6.085   2.207   0.338  1.0706 -1.0869 -1.5096
 3201SOL    HW312571   5.948   2.238   0.395  2.6377 -1.0227  2.6260
 3201SOL    MW412572   5.998   2.201   0.334  0.8388  0.2094  0.1919
 3202SOL     OW12573   2.574   2.348   3.069 -0.2556 -0.0183 -0.1385
 3202SOL    HW212574   2.567   2.349   3.165  2.3258  0.8346  0.1301
 3202SOL    HW312575   2.484   2.356   3.038 -1.0672  0.8786  2.2191
 3202SOL    MW412576   2.561   2.349   3.078 -0.0221  0.2125  0.2080
 3203SOL     OW12577   2.971   3.727   1.011  0.4735 -0.3247  0.1775
 3203SOL    HW212578   2.988   3.635   1.031 -0.8129 -0.4045  1.0505
 3203SOL    HW312579   2.963   3.729   0.915 -0.7308 -1.3830  0.2246
 3203SOL    MW412580   2.972   3.715   1.001  0.1449 -0.4749  0.2989
 3204SOL     OW12581   5.642   3.857   4.322  0.1424  0.2557 -0.2892
 3204SOL    HW212582   5.621   3.947   4.343  0.7978  0.4061 -0.2663
 3204SOL    HW312583   5.639   3.811   4.406  0.3215  0.3618 -0.2243
 3204SOL    MW412584   5.639   3.862   4.336  0.2525  0.2895 -0.2776
 3205SOL     OW12585   3.265   4.961   2.789 -0.0023 -1.1421 -0.7770
 3205SOL    HW212586   3.278   4.960   2.884  0.0731  3.0560 -0.5834
 3205SOL    HW312587   3.170   4.967   2.778  0.0689  0.3176 -0.8112
 3205SOL    MW412588   3.254   4.962   2.800  0.0170 -0.3956 -0.7559
 3206SOL     OW12589   5.931   2.717   4.757  0.4245  0.0572  0.1115
 3206SOL    HW212590   5.849   2.716   4.707  1.1611 -1.8152 -1.1555
 3206SOL    HW312591   5.993   2.764   4.701  0.7425 -0.3110  0.1495
 3206SOL    MW412592   5.928   2.723   4.743  0.5636 -0.2384 -0.0506
 3207SOL     OW12593   5.671   3.192   0.572 -0.0218 -0.6189  0.5378
 3207SOL    HW212594   5.587   3.152   0.550  1.0518 -2.4623 -0.3982
 3207SOL    HW312595   5.649   3.258   0.638 -2.4229  0.1482 -0.8849
 3207SOL    MW412596   5.657   3.196   0.578 -0.1970 -0.7609  0.2266
 3208SOL     OW12597   0.965   2.332   5.489  0.0677 -0.2912 -0.1028
 3208SOL    HW212598   0.990   2.408   5.542  3.1335 -0.6449 -0.8788
 3208SOL    HW312599   0.884   2.359   5.446  0.3241  2.0106  0.7021
 3208SOL    MW412600   0.957   2.346   5.490  0.5060 -0.0342 -0.0990
 3209SOL     OW12601   3.263   0.525   2.497 -0.0786 -0.4144 -0.1649
 3209SOL    HW212602   3.333   0.584   2.524 -0.3317  0.2283 -0.8443
 3209SOL    HW312603   3.229   0.564   2.416 -0.4422 -1.3478 -0.4815
 3209SOL    MW412604   3.268   0.538   2.490 -0.1599 -0.4528 -0.2963
 3210SOL     OW12605   0.735   0.091   4.598 -0.0299 -0.5690  0.3621
 3210SOL    HW212606   0.648   0.117   4.567  0.3949 -0.5333 -0.8584
 3210SOL    HW312607   0.795   0.126   4.532  0.8981 -0.7632  1.0847
 3210SOL    MW412608   0.731   0.099   4.585  0.1486 -0.5899  0.2964
 3211SOL     OW12609   1.568   6.004   1.400 -0.0199 -0.2187 -0.4230
 3211SOL    HW212610   1.567   6.048   1.315  0.2983  1.3328  0.3365
 3211SOL    HW312611   1.501   6.049   1.451 -0.5970 -1.5007  0.0017
 3211SOL    MW412612   1.559   6.015   1.395 -0.0540 -0.1832 -0.2668
 3212SOL     OW12613   4.351   4.364   3.688 -0.0783  0.4040  0.3023
 3212SOL    HW212614   4.330   4.400   3.602  1.2294  1.1131  0.2505
 3212SOL    HW312615   4.308   4.423   3.750 -1.3442 -0.3287  0.1470
 3212SOL    MW412616   4.343   4.377   3.685 -0.0728  0.4009  0.2750
 3213SOL     OW12617   1.046   0.959   3.777  0.1764  0.3541  0.1057
 3213SOL    HW212618   1.020   0.970   3.869  0.1144  0.4018  0.0827
 3213SOL    HW312619   1.074   0.868   3.770 -2.0571 -0.3724 -0.3738
 3213SOL    MW412620   1.046   0.949   3.788 -0.1265  0.2645  0.0394
 3214SOL     OW12621   1.808   0.626   4.867  0.5711  0.1963  0.3549
 3214SOL    HW212622   1.842   0.555   4.922 -1.3451  0.0981  1.5111
 3214SOL    HW312623   1.884   0.684   4.853  1.6753 -1.0149  1.0983
 3214SOL    MW412624   1.823   0.624   4.873  0.4639  0.0236  0.6056
 3215SOL     OW12625   2.564   0.497   5.991  0.2461  0.0161  0.1631
 3215SOL    HW212626   2.543   0.590   5.996  0.1231 -0.0910  2.1270
 3215SOL    HW312627   2.560   0.477   5.897  1.8826  2.3294 -0.5025
 3215SOL    MW412628   2.561   0.506   5.979  0.4458  0.3072  0.3344
 3216SOL     OW12629   6.000   5.010   4.636  0.0170  0.5267 -1.1836
 3216SOL    HW212630   5.953   5.038   4.714 -0.1121 -1.9587 -0.2873
 3216SOL    HW312631   5.985   5.080   4.572  0.0278  2.5887  0.9278
 3216SOL    MW412632   5.992   5.023   4.638  0.0014  0.4708 -0.7868
 3217SOL     OW12633   4.977   3.328   4.165 -0.4123  0.3795  0.1796
 3217SOL    HW212634   4.954   3.403   4.221 -1.7810  1.1461 -1.3494
 3217SOL    HW312635   4.893   3.291   4.139  0.2313 -0.5745 -0.5739
 3217SOL    MW412636   4.963   3.333   4.169 -0.5080  0.3547 -0.1216
 3218SOL     OW12637   1.886   4.756   1.048 -0.2062 -0.0883 -0.5485
 3218SOL    HW212638   1.918   4.666   1.048 -1.2711 -0.5619  2.4776
 3218SOL    HW312639   1.910   4.790   1.134 -0.9279  2.1402 -1.1613
 3218SOL    MW412640   1.893   4.749   1.059 -0.4419  0.1432 -0.2301
 3219SOL     OW12641   1.149   0.979   0.050 -0.3382  0.0298 -0.7374
 3219SOL    HW212642   1.180   1.050  -0.005  0.6291 -0.1026 -0.3905
 3219SOL    HW312643   1.227   0.924   0.064 -0.6217 -0.0909  0.5099
 3219SOL    MW412644   1.164   0.981   0.045 -0.2480 -0.0036 -0.5271
 3220SOL     OW12645   4.738   0.318   4.907 -0.4010 -0.0390 -0.0351
 3220SOL    HW212646   4.662   0.350   4.957 -0.2508  1.2424 -0.5949
 3220SOL    HW312647   4.708   0.318   4.816  0.4043  0.9773 -0.3248
 3220SOL    MW412648   4.724   0.322   4.902 -0.2749  0.2641 -0.1472
 3221SOL     OW12649   1.479   2.602   2.920 -0.2719 -0.0793  0.1547
 3221SOL    HW212650   1.383   2.600   2.922 -0.2965 -0.7095 -0.9849
 3221SOL    HW312651   1.505   2.514   2.895  0.5106  0.6272 -1.7557
 3221SOL    MW412652   1.470   2.590   2.917 -0.1719 -0.0692 -0.2477
 3222SOL     OW12653   5.588   0.088   1.060 -0.2081 -0.5836 -0.0184
 3222SOL    HW212654   5.551   0.037   0.988 -3.5069  0.4357  0.7517
 3222SOL    HW312655   5.619   0.022   1.123 -0.6723 -1.5396 -0.7612
 3222SOL    MW412656   5.587   0.073   1.059 -0.7046 -0.5753 -0.0148
 3223SOL     OW12657   2.484   1.284   3.094 -0.1231  0.3775 -0.4048
 3223SOL    HW212658   2.498   1.298   3.000  1.3580 -0.5527 -0.3607
 3223SOL    HW312659   2.404   1.332   3.114  1.2656  3.4202 -1.4658
 3223SOL    MW412660   2.475   1.292   3.084  0.2555  0.6562 -0.5390
 3224SOL     OW12661   2.903   3.746   2.520  0.2919  0.3080 -0.2733
 3224SOL    HW212662   2.922   3.675   2.459  0.2087  0.7540 -0.8250
 3224SOL    HW312663   2.808   3.758   2.514  0.1327 -0.3383  0.7234
 3224SOL    MW412664   2.893   3.738   2.511  0.2600  0.2816 -0.2146
 3225SOL     OW12665   1.721   0.910   5.251  0.6426  0.0100  0.4851
 3225SOL    HW212666   1.654   0.978   5.248  1.2550  0.6196  0.3725
 3225SOL    HW312667   1.793   0.949   5.302  1.4831 -0.0952 -0.5791
 3225SOL    MW412668   1.722   0.924   5.257  0.8343  0.0765  0.3298
 3226SOL     OW12669   0.952   0.004   5.421 -0.4522 -0.3735 -0.1942
 3226SOL    HW212670   0.944  -0.007   5.516  0.3539  0.6678  0.0145
 3226SOL    HW312671   0.883   0.066   5.397 -1.7984 -1.9638 -0.5913
 3226SOL    MW412672   0.942   0.011   5.430 -0.5235 -0.4460 -0.2190
 3227SOL     OW12673   4.157   4.061   1.271 -0.1595 -0.0313 -0.2587
 3227SOL    HW212674   4.177   4.130   1.335  1.8334 -0.5382 -0.2567
 3227SOL    HW312675   4.063   4.048   1.278 -0.0907  0.2596  2.2407
 3227SOL    MW412676   4.148   4.069   1.280  0.1125 -0.0598  0.0714
 3228SOL     OW12677   2.724   1.117   4.875  0.1543 -0.1088  0.0465
 3228SOL    HW212678   2.711   1.182   4.944 -1.5629  0.2124 -0.5304
 3228SOL    HW312679   2.730   1.034   4.921  3.6783  0.4693  0.9063
 3228SOL    MW412680   2.723   1.115   4.890  0.3927  0.0099  0.0838
 3229SOL     OW12681   0.350   0.849   2.529 -0.1042  0.3788  0.2958
 3229SOL    HW212682   0.323   0.921   2.473 -0.2348  1.0226  1.1771
 3229SOL    HW312683   0.424   0.809   2.483 -0.8835  0.2240 -0.8520
 3229SOL    MW412684   0.357   0.853   2.516 -0.2242  0.4433  0.2606
 3230SOL     OW12685   1.097   5.852   5.910 -0.3804  0.5846  0.0964
 3230SOL    HW212686   1.026   5.865   5.847  0.4034  0.7381 -0.7743
 3230SOL    HW312687   1.092   5.928   5.967 -0.4336  0.9814 -0.4310
 3230SOL    MW412688   1.087   5.864   5.909 -0.2840  0.6572 -0.0880
 3231SOL     OW12689   3.790   4.247   5.151 -0.2500  0.0263  0.4335
 3231SOL    HW212690   3.849   4.280   5.083  0.3072 -1.0886  0.3578
 3231SOL    HW312691   3.707   4.235   5.106 -0.5970  1.6975  0.5609
 3231SOL    MW412692   3.787   4.250   5.136 -0.2223  0.0997  0.4403
 3232SOL     OW12693   2.311   0.078   3.803 -0.1756 -0.2053 -0.7220
 3232SOL    HW212694   2.406   0.065   3.813 -0.0870 -0.3529 -1.6397
 3232SOL    HW312695   2.300   0.173   3.810  0.4801  0.1728 -3.6619
 3232SOL    MW412696   2.322   0.089   3.805 -0.0774 -0.1749 -1.2310
 3233SOL     OW12697   1.593   5.253   1.750  0.5423  0.4225  0.3978
 3233SOL    HW212698   1.663   5.306   1.712  0.7553 -0.7753 -0.9657
 3233SOL    HW312699   1.552   5.210   1.675 -0.4614 -0.3338  1.3447
 3233SOL    MW412700   1.597   5.254   1.735  0.4380  0.1647  0.3428
 3234SOL     OW12701   5.176   5.918   0.472 -0.0981  0.1883 -0.0201
 3234SOL    HW212702   5.180   5.876   0.386  0.7714 -1.3287  0.7287
 3234SOL    HW312703   5.178   5.846   0.534  1.1186  1.3219  1.3333
 3234SOL    MW412704   5.176   5.903   0.469  0.1771  0.1377  0.2572
 3235SOL     OW12705   1.571   6.319   0.554  0.3562  0.2959  0.7451
 3235SOL    HW212706   1.496   6.266   0.527  1.0291  0.3001 -1.3154
 3235SOL    HW312707   1.536   6.380   0.618 -1.2339 -0.1979  0.3848
 3235SOL    MW412708   1.557   6.320   0.559  0.2352  0.2313  0.4257
 3236SOL     OW12709   1.923   5.230   0.204  0.2082 -0.2604 -0.5598
 3236SOL    HW212710   2.011   5.200   0.182  0.5314 -0.2235  0.6555
 3236SOL    HW312711   1.881   5.245   0.119  1.0076 -1.3222 -1.1599
 3236SOL    MW412712   1.929   5.228   0.190  0.3563 -0.3956 -0.4786
 3237SOL     OW12713   2.911   2.889   3.546  0.2441  0.3002  0.2362
 3237SOL    HW212714   3.001   2.893   3.514  0.3530  0.2504  0.5309
 3237SOL    HW312715   2.914   2.929   3.633 -0.2864  1.5687 -0.3068
 3237SOL    MW412716   2.923   2.895   3.553  0.1884  0.4610  0.2035
 3238SOL     OW12717   5.766   2.384   2.337  0.2839  0.6939  0.1787
 3238SOL    HW212718   5.815   2.444   2.393  0.5765  0.0121  0.6727
 3238SOL    HW312719   5.776   2.298   2.379  0.9416  0.0734 -1.1850
 3238SOL    MW412720   5.774   2.380   2.350  0.4093  0.5221  0.0639
 3239SOL     OW12721   1.910   2.305   4.086 -0.1018  0.0413 -0.5222
 3239SOL    HW212722   1.911   2.358   4.007 -0.7911  1.8464  0.6065
 3239SOL    HW312723   1.833   2.336   4.134  0.0347 -1.3258  0.6396
 3239SOL    MW412724   1.900   2.316   4.082 -0.1747  0.0991 -0.2200
 3240SOL     OW12725   3.495   4.459   4.906  0.4268 -0.0902  0.1226
 3240SOL    HW212726   3.554   4.518   4.953 -0.8767  1.3042  0.0933
 3240SOL    HW312727   3.462   4.512   4.833 -1.7269 -0.4323  0.7839
 3240SOL    MW412728   3.498   4.474   4.902 -0.0293  0.0486  0.2060
 3241SOL     OW12729   6.196   2.385   6.133  1.1331 -0.3733  0.9235
 3241SOL    HW212730   6.225   2.293   6.138  0.3785 -0.6808 -0.0393
 3241SOL    HW312731   6.138   2.387   6.057  0.3093  0.6868  1.5632
 3241SOL    MW412732   6.192   2.373   6.124  0.9249 -0.2740  0.8809
 3242SOL     OW12733   5.053   3.081   2.066 -0.0939  0.5573  0.6158
 3242SOL    HW212734   4.993   3.048   2.133  0.4225  0.0798  0.8513
 3242SOL    HW312735   5.005   3.071   1.984 -0.5231  0.6461  0.8521
 3242SOL    MW412736   5.038   3.075   2.064 -0.0824  0.5060  0.6780
 3243SOL     OW12737   4.921   0.759   3.733 -0.7849  0.2344  0.3143
 3243SOL    HW212738   4.899   0.809   3.653  0.7549 -1.2268 -1.0958
 3243SOL    HW312739   4.841   0.711   3.753 -1.9995  2.4324  1.1461
 3243SOL    MW412740   4.907   0.760   3.725 -0.7420  0.3316  0.2380
 3244SOL     OW12741   2.724   1.520   2.522 -0.3851 -0.1986 -0.0762
 3244SOL    HW212742   2.787   1.450   2.539  1.8422  1.9009  0.9907
 3244SOL    HW312743   2.692   1.545   2.609 -1.7986 -0.4105 -0.5116
 3244SOL    MW412744   2.728   1.514   2.536 -0.2777  0.0504  0.0071
 3245SOL     OW12745   2.783   3.042   2.744 -0.1551 -0.3529 -0.3497
 3245SOL    HW212746   2.857   3.098   2.768  0.4035 -1.3538  0.3594
 3245SOL    HW312747   2.805   2.956   2.782  0.1273 -1.7022 -3.3068
 3245SOL    MW412748   2.795   3.038   2.752 -0.0441 -0.6630 -0.6463
 3246SOL     OW12749   0.715   4.456   4.677  0.1231 -0.4463  0.0272
 3246SOL    HW212750   0.648   4.444   4.745 -0.5600  0.1701 -0.5241
 3246SOL    HW312751   0.793   4.485   4.725  0.3793 -2.2935  0.8129
 3246SOL    MW412752   0.717   4.458   4.692  0.0668 -0.6087  0.0581
 3247SOL     OW12753   5.688   1.563   6.190  0.0017  0.9581 -0.1511
 3247SOL    HW212754   5.603   1.542   6.227  0.8891 -0.9963  0.9763
 3247SOL    HW312755   5.698   1.657   6.204 -1.2433  0.9181  1.2815
 3247SOL    MW412756   5.678   1.572   6.196 -0.0455  0.6950  0.1867
 3248SOL     OW12757   2.749   0.709   6.204  0.0211 -0.3709  0.7506
 3248SOL    HW212758   2.750   0.645   6.275  1.6200  0.2881  1.3684
 3248SOL    HW312759   2.750   0.794   6.248 -1.4778  0.1122 -0.0632
 3248SOL    MW412760   2.749   0.712   6.219  0.0343 -0.2203  0.7248
 3249SOL     OW12761   0.515   1.079   5.895 -0.1758 -0.2210  0.1976
 3249SOL    HW212762   0.564   1.146   5.848  0.0704  1.1888  2.3375
 3249SOL    HW312763   0.580   1.036   5.950 -0.9790  0.3963  1.6726
 3249SOL    MW412764   0.530   1.082   5.896 -0.2493  0.0464  0.6745
 3250SOL     OW12765   1.820   6.301   5.596  0.1604 -0.6726  1.0231
 3250SOL    HW212766   1.730   6.335   5.591  0.3907 -0.1220  0.4244
 3250SOL    HW312767   1.819   6.242   5.671 -1.1812 -2.1146 -0.0750
 3250SOL    MW412768   1.808   6.298   5.605  0.0138 -0.7902  0.7993
 3251SOL     OW12769   0.795   2.821   3.575  0.0421 -0.5390  0.7273
 3251SOL    HW212770   0.860   2.890   3.590 -0.8851  0.5448 -0.0334
 3251SOL    HW312771   0.826   2.774   3.498 -0.2064  0.1698  0.1829
 3251SOL    MW412772   0.807   2.824   3.567 -0.1130 -0.3024  0.5551
 3252SOL     OW12773   0.514   1.237   4.816 -0.4667 -0.2495  0.2101
 3252SOL    HW212774   0.561   1.294   4.877  0.3343 -0.9012  0.2158
 3252SOL    HW312775   0.533   1.273   4.729 -0.8250  0.1066  0.2742
 3252SOL    MW412776   0.523   1.249   4.812 -0.4083 -0.2885  0.2193
 3253SOL     OW12777   3.529   2.747   0.822 -0.1588 -0.5283 -0.2549
 3253SOL    HW212778   3.594   2.814   0.844 -0.6502 -0.2603  0.4611
 3253SOL    HW312779   3.567   2.698   0.750  1.1208 -0.8073  0.5877
 3253SOL    MW412780   3.542   2.750   0.816 -0.0548 -0.5298 -0.0492
 3254SOL     OW12781   1.418   0.295   5.987 -1.1887  0.2555 -0.3788
 3254SOL    HW212782   1.375   0.273   5.904  0.2864 -2.4201 -0.5472
 3254SOL    HW312783   1.495   0.345   5.962 -2.0338  1.6218 -0.3695
 3254SOL    MW412784   1.422   0.298   5.973 -1.1056  0.0828 -0.3998
 3255SOL     OW12785   2.396   4.341   4.548 -0.8261 -0.1635  0.1960
 3255SOL    HW212786   2.340   4.367   4.622 -0.5694  2.5551 -0.4622
 3255SOL    HW312787   2.336   4.331   4.475 -0.7500  0.1659  0.0870
 3255SOL    MW412788   2.381   4.343   4.548 -0.7822  0.2386  0.0948
 3256SOL     OW12789   0.343   1.963   5.591 -0.1098  0.0004 -0.2274
 3256SOL    HW212790   0.368   1.927   5.676 -3.3555 -1.8388  0.1117
 3256SOL    HW312791   0.362   2.057   5.599 -0.2737 -0.1051  2.5516
 3256SOL    MW412792   0.348   1.971   5.604 -0.5597 -0.2562  0.1840
 3257SOL     OW12793   0.472   0.865   4.643 -0.0161  0.1450 -0.0249
 3257SOL    HW212794   0.506   0.782   4.674  0.2068 -0.7204 -2.4079
 3257SOL    HW312795   0.456   0.852   4.549  0.4455  2.9026 -0.5949
 3257SOL    MW412796   0.474   0.853   4.635  0.0743  0.3947 -0.4145
 3258SOL     OW12797   4.345   0.207   3.708  0.9185 -0.0060  0.4063
 3258SOL    HW212798   4.424   0.188   3.759  0.7006  0.0450  0.7679
 3258SOL    HW312799   4.349   0.301   3.691  1.6428 -0.2300 -0.7856
 3258SOL    MW412800   4.356   0.217   3.712  0.9853 -0.0288  0.2968
 3259SOL     OW12801   4.471   0.720   3.774  0.1014  0.3730 -0.0374
 3259SOL    HW212802   4.502   0.776   3.845 -1.7218  0.2353  0.9318
 3259SOL    HW312803   4.535   0.649   3.769  0.3574  0.4779  1.3591
 3259SOL    MW412804   4.483   0.718   3.783 -0.1054  0.3687  0.2747
 3260SOL     OW12805   2.964   5.111   0.966  0.4652  0.0724 -0.5408
 3260SOL    HW212806   3.007   5.027   0.983 -0.3872 -0.4559 -0.8953
 3260SOL    HW312807   2.960   5.117   0.870 -0.4815 -0.0299 -0.5215
 3260SOL    MW412808   2.969   5.100   0.955  0.2279 -0.0108 -0.5850
 3261SOL     OW12809   4.390   2.300   1.771  0.3445  0.4145  0.0151
 3261SOL    HW212810   4.484   2.317   1.758  0.8298 -0.1038  2.3791
 3261SOL    HW312811   4.371   2.228   1.711  1.7075 -0.1219  0.1705
 3261SOL    MW412812   4.400   2.293   1.761  0.5884  0.2754  0.3475
 3262SOL     OW12813   2.356   1.933   0.962 -0.3261 -0.3032 -0.7210
 3262SOL    HW212814   2.266   1.953   0.935 -0.9371 -1.6116  0.2355
 3262SOL    HW312815   2.409   1.953   0.885 -1.2115  1.9443 -0.8298
 3262SOL    MW412816   2.351   1.938   0.949 -0.5236 -0.1793 -0.6092
 3263SOL     OW12817   0.484   5.351   3.223 -0.2939  0.1351  0.2541
 3263SOL    HW212818   0.516   5.335   3.134  0.1507 -0.9526  0.5872
 3263SOL    HW312819   0.463   5.264   3.257  0.7387  0.3959  1.6576
 3263SOL    MW412820   0.485   5.337   3.216 -0.0990  0.0260  0.4832
 3264SOL     OW12821   2.680   3.733   0.447 -0.0479 -0.3424  0.3955
 3264SOL    HW212822   2.769   3.700   0.432  0.1753  1.0688 -1.7980
 3264SOL    HW312823   2.647   3.679   0.519  2.0714 -1.8453  0.3559
 3264SOL    MW412824   2.688   3.722   0.455  0.2612 -0.3545  0.1009
 3265SOL     OW12825   0.849   5.891   5.736 -0.2223 -0.1077  0.6490
 3265SOL    HW212826   0.803   5.913   5.655  0.1594 -2.5804 -0.3560
 3265SOL    HW312827   0.827   5.961   5.797 -3.3969  0.0398 -0.4854
 3265SOL    MW412828   0.840   5.903   5.733 -0.5908 -0.4145  0.3667
 3266SOL     OW12829   0.328   6.016   0.575  0.2131 -0.3389 -0.2789
 3266SOL    HW212830   0.267   6.073   0.527  0.3021 -0.3495 -0.4037
 3266SOL    HW312831   0.272   5.951   0.616  0.3491 -2.2407 -2.8995
 3266SOL    MW412832   0.312   6.015   0.574  0.2428 -0.5912 -0.6411
 3267SOL     OW12833   1.223   4.143   1.984  0.3099  0.5435 -0.0779
 3267SOL    HW212834   1.251   4.205   2.051  0.2419  0.6733 -0.1697
 3267SOL    HW312835   1.161   4.085   2.028 -0.5400  1.2734 -0.2883
 3267SOL    MW412836   1.219   4.143   1.998  0.1888  0.6569 -0.1178
 3268SOL     OW12837   3.791   1.069   1.628  0.5148  0.9570 -0.1568
 3268SOL    HW212838   3.738   1.148   1.631  2.2534  2.1708  2.0304
 3268SOL    HW312839   3.882   1.101   1.628  1.2839 -1.0316 -0.6605
 3268SOL    MW412840   3.796   1.084   1.628  0.8457  0.8548  0.0653
 3269SOL     OW12841   1.830   2.876   3.233 -0.1437  0.0225 -0.2437
 3269SOL    HW212842   1.767   2.810   3.205 -0.0513 -0.3856  0.4798
 3269SOL    HW312843   1.798   2.958   3.195  0.2682 -0.5769 -1.9741
 3269SOL    MW412844   1.818   2.878   3.224 -0.0772 -0.1104 -0.3766
 3270SOL     OW12845   2.641   5.461   3.593 -0.6085 -0.2893  0.0005
 3270SOL    HW212846   2.711   5.526   3.598 -2.4784  1.7246  1.3432
 3270SOL    HW312847   2.646   5.413   3.676  0.9016 -2.1643 -1.0670
 3270SOL    MW412848   2.651   5.463   3.605 -0.6560 -0.2710  0.0368
 3271SOL     OW12849   5.994   1.457   5.606 -0.4038  0.0575  0.5253
 3271SOL    HW212850   5.946   1.509   5.671  0.2078 -0.3487  1.3172
 3271SOL    HW312851   5.926   1.404   5.564 -0.6968 -0.3917  1.5195
 3271SOL    MW412852   5.978   1.457   5.609 -0.3618 -0.0553  0.7610
 3272SOL     OW12853   4.248   0.810   4.400 -0.0159  0.5486  0.0585
 3272SOL    HW212854   4.211   0.858   4.474 -1.4509 -0.1472 -0.1650
 3272SOL    HW312855   4.240   0.718   4.424 -3.8104  0.0303 -2.2397
 3272SOL    MW412856   4.242   0.804   4.413 -0.7058  0.3884 -0.2742
 3273SOL     OW12857   1.427   3.921   2.910 -0.5979  0.3697  0.4151
 3273SOL    HW212858   1.444   4.015   2.904 -0.5206  0.3275 -0.0531
 3273SOL    HW312859   1.419   3.893   2.819  0.1302 -0.2134  0.5265
 3273SOL    MW412860   1.429   3.930   2.897 -0.4917  0.2872  0.3680
 3274SOL     OW12861   3.962   5.217   5.481  0.0110  0.5304 -0.2850
 3274SOL    HW212862   3.985   5.309   5.495  1.5723  0.0115  0.7685
 3274SOL    HW312863   3.928   5.187   5.565  1.6708 -0.4256  0.0926
 3274SOL    MW412864   3.961   5.225   5.494  0.4360  0.3358 -0.0962
 3275SOL     OW12865   1.186   2.183   5.382  0.0363 -0.8924  0.4463
 3275SOL    HW212866   1.106   2.217   5.421  0.7130  0.2524  0.8931
 3275SOL    HW312867   1.185   2.217   5.292  0.6172  0.2083  0.8344
 3275SOL    MW412868   1.175   2.192   5.375  0.2022 -0.5962  0.5565
 3276SOL     OW12869   2.781   3.139   2.160  0.1168  0.0578  0.5948
 3276SOL    HW212870   2.774   3.193   2.239  0.0219 -0.0136  0.6355
 3276SOL    HW312871   2.860   3.170   2.117 -0.5623  1.0313  0.0151
 3276SOL    MW412872   2.791   3.150   2.165  0.0146  0.1768  0.5237
 3277SOL     OW12873   3.314   0.340   6.076 -0.4296  0.0909 -0.7725
 3277SOL    HW212874   3.280   0.424   6.046 -0.4204  0.0221 -0.9782
 3277SOL    HW312875   3.275   0.276   6.016 -1.6527 -0.2113  0.3030
 3277SOL    MW412876   3.304   0.342   6.064 -0.5898  0.0420 -0.6577
 3278SOL     OW12877   5.613   1.404   3.110 -0.0795  0.2778  0.0474
 3278SOL    HW212878   5.554   1.362   3.047 -0.4731  0.8374  0.0322
 3278SOL    HW312879   5.693   1.352   3.106 -0.6597 -0.6705  0.2699
 3278SOL    MW412880   5.616   1.392   3.101 -0.2080  0.2265  0.0747
 3279SOL     OW12881   0.146   2.741   3.046  0.0538 -0.4563 -0.3879
 3279SOL    HW212882   0.215   2.684   3.080 -0.6243  0.6410  3.3731
 3279SOL    HW312883   0.192   2.821   3.019  0.4992 -0.8117 -0.6907
 3279SOL    MW412884   0.161   2.744   3.047  0.0231 -0.3584  0.0683
 3280SOL     OW12885   2.738   0.223   5.626 -0.4916 -0.1823  0.2140
 3280SOL    HW212886   2.687   0.144   5.646 -0.4434 -0.3303 -0.2279
 3280SOL    HW312887   2.787   0.241   5.706 -1.4688  0.1450  0.7503
 3280SOL    MW412888   2.738   0.215   5.639 -0.6142 -0.1586  0.2265
 3281SOL     OW12889   3.844   2.642   3.967  0.2867 -0.0418  0.3561
 3281SOL    HW212890   3.926   2.602   3.996  0.3821 -1.5024 -1.7377
 3281SOL    HW312891   3.778   2.610   4.028  0.7208 -1.7248 -0.0114
 3281SOL    MW412892   3.846   2.633   3.979  0.3566 -0.4566  0.0313
 3282SOL     OW12893   4.487   1.589   5.086  0.7893  0.9937  0.0438
 3282SOL    HW212894   4.468   1.575   4.993  1.1296  2.1238 -0.2181
 3282SOL    HW312895   4.471   1.504   5.127  3.0604 -0.2531 -1.4164
 3282SOL    MW412896   4.482   1.576   5.079  1.1338  0.9783 -0.1834
 3283SOL     OW12897   4.431   0.282   1.847  0.0074 -0.0448 -0.0314
 3283SOL    HW212898   4.437   0.235   1.764 -1.5870 -0.4735  0.0629
 3283SOL    HW312899   4.410   0.215   1.912  1.8338  0.1874  0.8601
 3283SOL    MW412900   4.429   0.267   1.845  0.0380 -0.0707  0.0987
 3284SOL     OW12901   0.383   1.670   0.702  0.2189 -0.2052  0.4542
 3284SOL    HW212902   0.397   1.699   0.612  0.8613 -0.9669  0.2942
 3284SOL    HW312903   0.446   1.599   0.714  0.0741 -0.1737  1.4777
 3284SOL    MW412904   0.393   1.664   0.691  0.2846 -0.3016  0.5681
 3285SOL     OW12905   0.654   3.994   2.498  0.6828 -0.8324 -0.1709
 3285SOL    HW212906   0.581   4.055   2.488  0.8934 -0.5906 -0.2345
 3285SOL    HW312907   0.721   4.026   2.438  0.7138 -1.2531 -0.3703
 3285SOL    MW412908   0.653   4.006   2.489  0.7147 -0.8560 -0.2056
 3286SOL     OW12909   4.804   0.923   6.362 -0.1107  0.0033  0.0609
 3286SOL    HW212910   4.771   0.983   6.429  0.0990  0.9538 -0.6603
 3286SOL    HW312911   4.879   0.969   6.324  0.0153 -0.6943 -0.5538
 3286SOL    MW412912   4.810   0.937   6.366 -0.0664  0.0366 -0.1153
 3287SOL     OW12913   1.289   0.286   1.440  0.3900  0.2865  0.1783
 3287SOL    HW212914   1.377   0.249   1.446  0.1863 -0.2041  0.1918
 3287SOL    HW312915   1.291   0.340   1.361  1.0021  1.1092  0.7478
 3287SOL    MW412916   1.301   0.288   1.430  0.4439  0.3303  0.2552
 3288SOL     OW12917   5.311   6.245   5.467 -0.4761  0.4237 -0.5804
 3288SOL    HW212918   5.249   6.271   5.398 -0.7059 -0.2990 -0.6574
 3288SOL    HW312919   5.315   6.320   5.526 -1.7736  0.3184 -0.3366
 3288SOL    MW412920   5.303   6.258   5.465 -0.6776  0.3144 -0.5584
 3289SOL     OW12921   4.089   0.541   5.824 -0.4786  0.7955  0.0199
 3289SOL    HW212922   4.118   0.628   5.852  0.1821  0.4843  0.3330
 3289SOL    HW312923   4.150   0.481   5.866 -1.0331  0.1663 -0.0591
 3289SOL    MW412924   4.101   0.545   5.833 -0.4646  0.6714  0.0508
 3290SOL     OW12925   1.648   3.830   3.657  0.1785 -0.4795 -0.1080
 3290SOL    HW212926   1.576   3.892   3.650  0.8680  0.4774  0.8456
 3290SOL    HW312927   1.702   3.846   3.579 -0.2806 -0.7274 -0.4783
 3290SOL    MW412928   1.646   3.840   3.646  0.2089 -0.3860 -0.0311
 3291SOL     OW12929   4.953   5.974   4.102 -0.0982 -0.2188  0.1660
 3291SOL    HW212930   5.008   5.919   4.157 -0.4740 -0.3834  0.3810
 3291SOL    HW312931   4.869   5.977   4.147 -0.5201 -0.6620 -0.5864
 3291SOL    MW412932   4.949   5.967   4.115 -0.2034 -0.2990  0.0951
 3292SOL     OW12933   2.612   0.364   0.653  0.2864  0.5939  0.3980
 3292SOL    HW212934   2.573   0.450   0.636 -1.2896 -0.2895 -0.7078
 3292SOL    HW312935   2.679   0.354   0.585 -0.7217  0.2636 -0.5776
 3292SOL    MW412936   2.616   0.374   0.641 -0.0545  0.4338  0.1234
 3293SOL     OW12937   4.579   3.614   0.227 -0.4421 -0.2469  0.3901
 3293SOL    HW212938   4.586   3.671   0.304  2.4689  1.1922 -0.7649
 3293SOL    HW312939   4.632   3.537   0.250  2.3329  1.1451 -0.7642
 3293SOL    MW412940   4.587   3.612   0.240  0.3081  0.1266  0.0854
 3294SOL     OW12941   1.288   0.933   5.820 -0.1838 -0.4038  0.5774
 3294SOL    HW212942   1.365   0.954   5.768  1.1159 -0.6629  2.3517
 3294SOL    HW312943   1.282   1.002   5.885 -1.0888 -0.7261  0.8567
 3294SOL    MW412944   1.297   0.945   5.821 -0.1317 -0.4805  0.8483
 3295SOL     OW12945   1.450   6.324   3.685  0.1875  0.6774  0.2880
 3295SOL    HW212946   1.423   6.267   3.757  0.2782 -0.4716 -0.5604
 3295SOL    HW312947   1.398   6.295   3.610  0.6010  1.3798 -0.2830
 3295SOL    MW412948   1.440   6.312   3.684  0.2540  0.6184  0.1007
 3296SOL     OW12949   1.005   2.917   2.327 -0.3304 -0.1075  0.2595
 3296SOL    HW212950   1.054   2.953   2.254 -0.6367  2.8048  1.3519
 3296SOL    HW312951   1.067   2.914   2.399 -0.8093  0.0529  0.6883
 3296SOL    MW412952   1.019   2.921   2.327 -0.4340  0.2979  0.4602
 3297SOL     OW12953   6.072   3.730   1.618 -0.5473  0.2373 -0.0163
 3297SOL    HW212954   6.118   3.696   1.694  1.3147  0.6578 -0.8868
 3297SOL    HW312955   6.068   3.656   1.557 -1.1615  0.1670  0.1059
 3297SOL    MW412956   6.077   3.716   1.620 -0.3827  0.2835 -0.1151
 3298SOL     OW12957   2.549   1.621   4.575  0.2411  0.0565  0.0571
 3298SOL    HW212958   2.482   1.637   4.642  0.2620  2.8161 -0.4530
 3298SOL    HW312959   2.588   1.538   4.600 -1.1713 -0.0384  2.2571
 3298SOL    MW412960   2.545   1.612   4.588  0.0575  0.4081  0.2801
 3299SOL     OW12961   3.644   0.659   4.998 -0.1583 -0.1548 -0.1253
 3299SOL    HW212962   3.706   0.616   4.939 -0.7114  0.4349 -1.1695
 3299SOL    HW312963   3.676   0.638   5.085 -0.7698 -3.2178 -0.5191
 3299SOL    MW412964   3.657   0.651   5.001 -0.3120 -0.4812 -0.3150
 3300SOL     OW12965   4.565   2.814   0.754  0.1000 -0.6265 -0.2507
 3300SOL    HW212966   4.524   2.757   0.819 -0.4504 -0.7490 -0.6984
 3300SOL    HW312967   4.537   2.902   0.778  0.6554 -0.5767  0.2265
 3300SOL    MW412968   4.556   2.818   0.766  0.1007 -0.6361 -0.2468
 3301SOL     OW12969   0.168   4.101   4.376 -0.0271  0.1297 -0.2466
 3301SOL    HW212970   0.165   4.196   4.366  2.6498  0.1598 -1.4196
 3301SOL    HW312971   0.160   4.067   4.286  0.4812 -0.6788  0.0016
 3301SOL    MW412972   0.166   4.109   4.363  0.3931  0.0270 -0.3686
 3302SOL     OW12973   3.606   0.387   6.048  0.3513  0.1212 -0.0441
 3302SOL    HW212974   3.514   0.362   6.046  0.9305 -2.1873 -0.8181
 3302SOL    HW312975   3.614   0.444   6.125 -1.2336 -1.8394  1.6909
 3302SOL    MW412976   3.595   0.391   6.058  0.2186 -0.4420  0.0827
 3303SOL     OW12977   5.588   1.764   5.716  0.0974  0.2970 -0.3454
 3303SOL    HW212978   5.543   1.822   5.654 -0.8963 -1.1933 -1.0858
 3303SOL    HW312979   5.675   1.752   5.678 -0.5080 -0.6118 -1.5014
 3303SOL    MW412980   5.593   1.770   5.703 -0.1136 -0.0195 -0.5956
 3304SOL     OW12981   3.351   0.736   0.527 -0.1117  0.4021  0.5655
 3304SOL    HW212982   3.385   0.656   0.566 -0.9706  0.4661  1.4769
 3304SOL    HW312983   3.386   0.806   0.582 -0.7092  0.5464  0.7574
 3304SOL    MW412984   3.360   0.735   0.539 -0.3038  0.4296  0.7111
 3305SOL     OW12985   4.126   2.100   6.388  0.6474 -0.3539 -0.3699
 3305SOL    HW212986   4.093   2.010   6.387 -0.4141  0.0222 -0.2024
 3305SOL    HW312987   4.200   2.098   6.449  0.4002 -1.0385 -0.0827
 3305SOL    MW412988   4.131   2.088   6.396  0.4748 -0.3946 -0.3099
 3306SOL     OW12989   5.555   1.191   3.564  0.1907 -0.4490  0.0923
 3306SOL    HW212990   5.580   1.110   3.521 -3.3243 -1.4586 -0.3873
 3306SOL    HW312991   5.537   1.252   3.493  1.1162  0.1903  0.3965
 3306SOL    MW412992   5.556   1.188   3.549 -0.1510 -0.4979  0.0692
 3307SOL     OW12993   5.860   5.273   3.481  0.3036 -0.4922  0.1779
 3307SOL    HW212994   5.861   5.353   3.429  3.2982 -1.2975 -1.2085
 3307SOL    HW312995   5.796   5.217   3.438 -0.5674  0.5111  0.1423
 3307SOL    MW412996   5.852   5.276   3.469  0.5838 -0.4660 -0.0097
 3308SOL     OW12997   1.605   4.590   4.372 -0.2058 -0.2422 -0.1207
 3308SOL    HW212998   1.514   4.575   4.396 -0.4612  1.5438  0.1404
 3308SOL    HW312999   1.655   4.539   4.436 -0.9914  0.4458  1.0985
 3308SOL    MW413000   1.599   4.581   4.384 -0.3431  0.0842  0.0746
 3309SOL     OW13001   0.515   3.215   1.765 -0.1174 -0.1158  0.4152
 3309SOL    HW213002   0.600   3.240   1.802  0.3888 -1.4269  0.1773
 3309SOL    HW313003   0.532   3.136   1.715 -1.2365  0.3595 -0.7780
 3309SOL    MW413004   0.528   3.208   1.763 -0.1982 -0.2261  0.2264
 3310SOL     OW13005   4.192   3.532   4.406  0.6323  0.1592  0.3297
 3310SOL    HW213006   4.166   3.522   4.498  1.6520  2.2185  0.9188
 3310SOL    HW313007   4.155   3.456   4.361 -1.2040 -0.0999  2.1647
 3310SOL    MW413008   4.184   3.521   4.412  0.5246  0.3967  0.6495
 3311SOL     OW13009   2.163   6.146   2.897  0.0551 -0.4272 -0.1213
 3311SOL    HW213010   2.149   6.214   2.963  1.5612 -1.5872  1.4815
 3311SOL    HW313011   2.212   6.078   2.943  0.1634 -1.7985 -2.1566
 3311SOL    MW413012   2.168   6.146   2.912  0.2681 -0.7612 -0.1784
 3312SOL     OW13013   1.028   4.023   2.404 -0.2000 -0.3714  0.6950
 3312SOL    HW213014   0.976   3.943   2.394 -0.5802  0.0341 -0.9411
 3312SOL    HW313015   0.983   4.088   2.349  2.7171 -0.3414 -1.9193
 3312SOL    MW413016   1.015   4.021   2.395  0.1347 -0.3139  0.1342
 3313SOL     OW13017   5.683   0.528   4.496 -0.0929  0.5511 -0.2361
 3313SOL    HW213018   5.641   0.599   4.446 -0.6260  0.8686  0.6324
 3313SOL    HW313019   5.753   0.572   4.544  0.8743  0.1267 -1.2051
 3313SOL    MW413020   5.687   0.543   4.496 -0.0356  0.5370 -0.2493
 3314SOL     OW13021   3.090   0.370   2.879 -0.1084 -0.2669  0.0027
 3314SOL    HW213022   3.146   0.446   2.892 -1.6591  0.7883  0.8371
 3314SOL    HW313023   3.093   0.323   2.962 -0.5240 -0.1503  0.0873
 3314SOL    MW413024   3.098   0.374   2.892 -0.3678 -0.1123  0.1239
 3315SOL     OW13025   3.307   5.207   5.483  0.2679 -0.9498  0.5138
 3315SOL    HW213026   3.238   5.272   5.469  2.3705  1.0351 -1.5569
 3315SOL    HW313027   3.281   5.161   5.562 -2.4595  0.9600  0.8612
 3315SOL    MW413028   3.295   5.210   5.491  0.1854 -0.4359  0.2865
 3316SOL     OW13029   5.166   0.845   1.568 -0.2391 -0.2853 -1.5319
 3316SOL    HW213030   5.191   0.854   1.660 -3.6316  1.6192 -0.6119
 3316SOL    HW313031   5.164   0.751   1.552  0.7877 -0.6379  0.2083
 3316SOL    MW413032   5.169   0.834   1.578 -0.5512 -0.0806 -1.1809
 3317SOL     OW13033   4.872   1.872   4.606 -0.7560 -0.4295 -0.5464
 3317SOL    HW213034   4.779   1.894   4.593 -0.6508 -1.1350 -2.9388
 3317SOL    HW313035   4.920   1.944   4.566 -0.2635 -0.5362 -0.1635
 3317SOL    MW413036   4.866   1.884   4.599 -0.6771 -0.5367 -0.8116
 3318SOL     OW13037   3.683   4.121   5.862  0.6559  0.0840 -0.4443
 3318SOL    HW213038   3.614   4.164   5.811  0.3316 -0.8993 -0.8786
 3318SOL    HW313039   3.728   4.192   5.907  1.0324  1.0150 -2.1929
 3318SOL    MW413040   3.680   4.136   5.861  0.6628  0.0771 -0.7323
 3319SOL     OW13041   3.232   5.172   0.491 -0.7482  0.2483  0.3091
 3319SOL    HW213042   3.181   5.179   0.410  1.0891 -1.3929 -1.0729
 3319SOL    HW313043   3.292   5.247   0.487  0.0628 -0.4178 -0.4308
 3319SOL    MW413044   3.233   5.183   0.479 -0.3988 -0.0561  0.0291
 3320SOL     OW13045   1.265   3.514   1.009  0.1414 -0.5942  0.1747
 3320SOL    HW213046   1.311   3.541   1.089  0.4564 -1.5841  0.3476
 3320SOL    HW313047   1.312   3.436   0.980  1.5906  1.0926 -2.3814
 3320SOL    MW413048   1.277   3.507   1.016  0.3742 -0.5023 -0.1397
 3321SOL     OW13049   3.503   1.885   6.340  0.0363 -0.4651 -0.2204
 3321SOL    HW213050   3.466   1.858   6.256  1.0412 -0.2494 -0.7481
 3321SOL    HW313051   3.427   1.903   6.395 -0.6438  0.6110 -1.4769
 3321SOL    MW413052   3.488   1.884   6.337  0.0791 -0.2947 -0.4558
 3322SOL     OW13053   1.524   2.708   0.625 -0.1926  0.4159  0.0756
 3322SOL    HW213054   1.440   2.744   0.594  0.2259  1.4271  0.0887
 3322SOL    HW313055   1.525   2.727   0.719  1.5389  3.6005 -0.4509
 3322SOL    MW413056   1.513   2.715   0.633  0.0910  0.9695  0.0079
 3323SOL     OW13057   3.053   1.674   2.539 -0.3165  0.0710  0.7519
 3323SOL    HW213058   3.037   1.627   2.620  0.0985 -0.0938  0.7408
 3323SOL    HW313059   3.122   1.737   2.561  0.7528 -0.8703  0.2117
 3323SOL    MW413060   3.060   1.676   2.552 -0.1207 -0.0750  0.6791
 3324SOL     OW13061   1.962   1.844   5.341  0.4780  0.1993 -0.1026
 3324SOL    HW213062   1.890   1.882   5.391  0.1529  0.5910 -0.8583
 3324SOL    HW313063   1.920   1.787   5.277  0.9450 -1.0854  0.7103
 3324SOL    MW413064   1.947   1.842   5.339  0.4967  0.0815 -0.0950
 3325SOL     OW13065   2.061   4.751   5.850  0.3766 -0.1717 -0.6405
 3325SOL    HW213066   2.154   4.774   5.844 -0.1434  1.9262 -1.5813
 3325SOL    HW313067   2.017   4.816   5.795 -1.7191 -0.7629  0.2554
 3325SOL    MW413068   2.068   4.763   5.842  0.0314  0.0271 -0.6464
 3326SOL     OW13069   0.233   5.477   3.138 -0.2556  0.2559 -0.0413
 3326SOL    HW213070   0.147   5.452   3.173  0.0050  0.9658  1.1914
 3326SOL    HW313071   0.279   5.394   3.124 -1.3465 -0.1654 -1.3281
 3326SOL    MW413072   0.228   5.463   3.141 -0.3651  0.2939 -0.0484
 3327SOL     OW13073   2.704   2.329   0.186 -0.1552 -0.3319  0.4221
 3327SOL    HW213074   2.755   2.408   0.204  0.8851 -0.9888  0.4459
 3327SOL    HW313075   2.724   2.308   0.095 -0.1136 -0.7845  0.5332
 3327SOL    MW413076   2.713   2.337   0.177 -0.0124 -0.4783  0.4399
 3328SOL     OW13077   6.246   3.690   2.388 -0.0183  0.5373  0.6755
 3328SOL    HW213078   6.227   3.621   2.325  0.3483 -0.3760  1.5349
 3328SOL    HW313079   6.228   3.771   2.341 -0.6631 -0.1424 -0.2902
 3328SOL    MW413080   6.241   3.692   2.374 -0.0550  0.3272  0.6615
 3329SOL     OW13081   3.492   3.049   1.544 -0.4005 -0.0149 -0.5245
 3329SOL    HW213082   3.405   3.057   1.505 -0.1165  0.5388 -1.0379
 3329SOL    HW313083   3.489   2.964   1.590 -1.8212  0.7928  0.9994
 3329SOL    MW413084   3.480   3.039   1.545 -0.5505  0.1647 -0.3912
 3330SOL     OW13085   0.846   0.158   1.402  0.2615  0.1114  0.0273
 3330SOL    HW213086   0.925   0.132   1.450  0.4714  1.8269  0.6672
 3330SOL    HW313087   0.868   0.142   1.311  0.9110 -0.5194  0.2775
 3330SOL    MW413088   0.859   0.153   1.397  0.3749  0.2545  0.1447
 3331SOL     OW13089   0.956   5.616   3.687  0.5336 -0.4681  0.1426
 3331SOL    HW213090   0.862   5.597   3.696  0.5647  0.0885  2.2968
 3331SOL    HW313091   0.973   5.611   3.593 -1.6776 -0.4755 -0.3142
 3331SOL    MW413092   0.946   5.613   3.676  0.2460 -0.3957  0.3666
 3332SOL     OW13093   2.546   5.118   0.598 -0.7526  0.3032  0.1173
 3332SOL    HW213094   2.481   5.056   0.632 -0.7783  0.8084  1.0094
 3332SOL    HW313095   2.625   5.066   0.586 -1.0549 -0.1131 -0.0935
 3332SOL    MW413096   2.548   5.103   0.601 -0.7959  0.3149  0.2072
 3333SOL     OW13097   5.443   5.373   3.869 -0.2646 -0.0363 -0.7046
 3333SOL    HW213098   5.526   5.393   3.826  0.3461 -1.5924 -0.3334
 3333SOL    HW313099   5.438   5.435   3.942  0.0332  0.7867 -1.3770
 3333SOL    MW413100   5.453   5.384   3.873 -0.1448 -0.1330 -0.7443
 3334SOL     OW13101   3.629   3.218   3.946  0.2844  0.0054  0.3552
 3334SOL    HW213102   3.584   3.298   3.973  0.9655  0.6723 -0.4197
 3334SOL    HW313103   3.716   3.247   3.920  0.1930 -0.8283 -0.9715
 3334SOL    MW413104   3.635   3.232   3.946  0.3622 -0.0166  0.0779
 3335SOL     OW13105   5.020   0.744   6.402  0.1330 -0.2891  0.2511
 3335SOL    HW213106   4.936   0.789   6.395 -0.1404 -0.7841  0.3077
 3335SOL    HW313107   5.053   0.768   6.489  0.7087  1.0202 -0.3077
 3335SOL    MW413108   5.013   0.753   6.413  0.1729 -0.1817  0.1848
 3336SOL     OW13109   5.116   3.991   2.659  0.5127  0.2781 -0.0330
 3336SOL    HW213110   5.129   3.915   2.602  0.8203  1.2349 -1.2850
 3336SOL    HW313111   5.200   4.038   2.655 -0.3390  1.8081 -1.0187
 3336SOL    MW413112   5.129   3.987   2.651  0.4409  0.6062 -0.3282
 3337SOL     OW13113   1.597   5.263   4.253  0.2504  0.7833 -0.7605
 3337SOL    HW213114   1.542   5.191   4.221  0.1434 -0.2661  1.5414
 3337SOL    HW313115   1.684   5.225   4.262  0.0576  0.7076  1.0788
 3337SOL    MW413116   1.601   5.248   4.250  0.2108  0.6349 -0.2141
 3338SOL     OW13117   2.517   0.162   4.005 -0.3638  0.4223  0.6561
 3338SOL    HW213118   2.523   0.251   3.971  0.7128  0.1205  0.0158
 3338SOL    HW313119   2.597   0.150   4.055 -0.5960 -0.1246  0.9074
 3338SOL    MW413120   2.528   0.172   4.007 -0.2524  0.3103  0.6048
 3339SOL     OW13121   3.972   3.285   2.861  0.2485 -0.0412  0.5960
 3339SOL    HW213122   3.897   3.285   2.801 -0.3623 -0.1173  1.3534
 3339SOL    HW313123   3.972   3.373   2.898 -0.5322 -0.5796  1.9117
 3339SOL    MW413124   3.962   3.297   2.858  0.0649 -0.1223  0.8695
 3340SOL     OW13125   6.079   1.654   1.537 -0.4056 -0.0486 -0.3052
 3340SOL    HW213126   6.151   1.611   1.490 -0.2093 -0.0002 -0.0555
 3340SOL    HW313127   6.069   1.601   1.616 -1.9303 -1.2124 -1.2181
 3340SOL    MW413128   6.087   1.641   1.541 -0.5809 -0.1957 -0.3927
 3341SOL     OW13129   2.549   3.978   0.705  0.0038  0.9647 -0.0443
 3341SOL    HW213130   2.572   4.012   0.792 -0.9147 -0.6518  0.8689
 3341SOL    HW313131   2.561   3.884   0.712  0.2195  0.8208 -1.8066
 3341SOL    MW413132   2.554   3.970   0.717 -0.0889  0.7325 -0.1563
 3342SOL     OW13133   0.821   2.545   0.558 -0.7678 -0.5162 -0.5856
 3342SOL    HW213134   0.744   2.581   0.601  0.5600  0.7080  0.8596
 3342SOL    HW313135   0.834   2.460   0.600 -0.4462 -0.0500  0.2757
 3342SOL    MW413136   0.813   2.538   0.569 -0.5502 -0.2932 -0.2813
 3343SOL     OW13137   4.549   3.824   2.518  0.0366  0.0752  0.2511
 3343SOL    HW213138   4.631   3.838   2.566  0.8217 -0.7334 -0.8005
 3343SOL    HW313139   4.544   3.729   2.507 -0.1248  0.2304 -1.2171
 3343SOL    MW413140   4.559   3.813   2.523  0.1189 -0.0110 -0.0814
 3344SOL     OW13141   4.634   2.058   3.613  0.3730  0.6541  0.0699
 3344SOL    HW213142   4.686   1.979   3.626 -0.2977  0.5100  2.5106
 3344SOL    HW313143   4.582   2.065   3.693 -3.2454  0.9197 -2.0828
 3344SOL    MW413144   4.634   2.049   3.626 -0.1929  0.6701  0.1079
 3345SOL     OW13145   1.400   3.739   1.240  0.8281  0.2729  0.3169
 3345SOL    HW213146   1.323   3.773   1.286  0.5162 -1.7751  1.4502
 3345SOL    HW313147   1.438   3.815   1.196 -0.7539  1.6923  1.2952
 3345SOL    MW413148   1.395   3.754   1.240  0.5782  0.1899  0.5955
 3346SOL     OW13149   0.736   5.819   4.337 -0.4257 -0.3624 -0.3284
 3346SOL    HW213150   0.765   5.762   4.266 -0.5658 -0.5740 -0.2197
 3346SOL    HW313151   0.709   5.900   4.294 -0.4143 -0.4523 -0.5062
 3346SOL    MW413152   0.736   5.822   4.322 -0.4427 -0.4022 -0.3375
 3347SOL     OW13153   1.700   5.461   2.020 -0.3075 -0.6262 -0.4669
 3347SOL    HW213154   1.669   5.531   1.961 -0.3549  0.6114  0.9660
 3347SOL    HW313155   1.791   5.448   1.995 -0.2322  0.1172 -0.6226
 3347SOL    MW413156   1.708   5.469   2.009 -0.3038 -0.3648 -0.2984
 3348SOL     OW13157   1.671   5.315   3.018  0.2201  0.6548 -0.0001
 3348SOL    HW213158   1.761   5.300   3.045 -0.4008 -2.0760  0.8046
 3348SOL    HW313159   1.634   5.371   3.087  0.3064 -1.3479  1.7545
 3348SOL    MW413160   1.678   5.321   3.031  0.1496  0.0303  0.3376
 3349SOL     OW13161   2.419   5.138   6.084 -0.4372 -0.3273 -0.3847
 3349SOL    HW213162   2.502   5.091   6.079  0.9000  1.9389 -1.2915
 3349SOL    HW313163   2.360   5.079   6.131  2.0693 -1.4740  1.5519
 3349SOL    MW413164   2.422   5.124   6.089  0.0700 -0.1796 -0.2488
 3350SOL     OW13165   2.765   3.134   6.363  0.0623 -0.2604 -0.0766
 3350SOL    HW213166   2.700   3.131   6.433  2.1623 -1.1211  1.9721
 3350SOL    HW313167   2.788   3.227   6.356 -1.0237 -0.0077 -0.5208
 3350SOL    MW413168   2.759   3.146   6.371  0.1961 -0.3406  0.1351
 3351SOL     OW13169   1.788   1.509   2.275  0.8759 -0.1374 -0.5400
 3351SOL    HW213170   1.809   1.455   2.350 -0.3501 -2.4199 -1.7206
 3351SOL    HW313171   1.705   1.551   2.298  1.0969  0.0982 -0.1736
 3351SOL    MW413172   1.780   1.508   2.288  0.7433 -0.4074 -0.6474
 3352SOL     OW13173   4.353   6.370   6.306 -0.2198  0.3906  0.5546
 3352SOL    HW213174   4.278   6.317   6.332 -0.8514  1.1132  0.2282
 3352SOL    HW313175   4.422   6.345   6.368 -0.9605  0.3086  1.3638
 3352SOL    MW413176   4.352   6.359   6.317 -0.4008  0.4751  0.6183
 3353SOL     OW13177   1.830   6.328   5.170  0.6113  0.0298  0.3256
 3353SOL    HW213178   1.863   6.271   5.241  1.2268  0.4329  0.3718
 3353SOL    HW313179   1.778   6.269   5.115  0.1979 -0.3085  1.0621
 3353SOL    MW413180   1.828   6.312   5.172  0.6380  0.0384  0.4289
 3354SOL     OW13181   3.265   6.288   1.407  0.4426 -0.1646  0.4227
 3354SOL    HW213182   3.288   6.213   1.462  1.8315  0.6689  1.0155
 3354SOL    HW313183   3.175   6.310   1.433  0.5949 -0.6217  1.3793
 3354SOL    MW413184   3.256   6.281   1.418  0.6459 -0.1149  0.6271
 3355SOL     OW13185   5.480   1.938   0.556  0.4141 -0.3205 -0.1532
 3355SOL    HW213186   5.486   1.854   0.511 -0.6126 -1.4431  1.6788
 3355SOL    HW313187   5.534   1.926   0.635 -2.1848 -0.4247  1.7262
 3355SOL    MW413188   5.488   1.925   0.561 -0.0642 -0.4823  0.3365
 3356SOL     OW13189   0.440   3.877   3.540 -0.1333 -0.2040 -0.0348
 3356SOL    HW213190   0.464   3.785   3.532 -0.7219 -0.6085  2.2201
 3356SOL    HW313191   0.456   3.899   3.631 -0.7181  1.7320 -0.3368
 3356SOL    MW413192   0.445   3.868   3.551 -0.2881 -0.0020  0.2229
 3357SOL     OW13193   4.000   5.189   2.330  0.5261 -0.2807 -0.5471
 3357SOL    HW213194   3.973   5.247   2.258  0.8868 -1.7074 -1.8917
 3357SOL    HW313195   3.952   5.222   2.406  0.9050  1.9073 -1.1880
 3357SOL    MW413196   3.990   5.201   2.330  0.6237 -0.1803 -0.8091
 3358SOL     OW13197   2.188   0.284   0.573  0.0705 -0.4335 -0.3394
 3358SOL    HW213198   2.103   0.314   0.604 -0.9221 -1.0669 -2.3234
 3358SOL    HW313199   2.208   0.208   0.629 -1.2446 -1.0099 -0.6248
 3358SOL    MW413200   2.180   0.278   0.585 -0.2340 -0.5931 -0.6388
 3359SOL     OW13201   0.514   3.923   1.626 -0.4305  0.6960 -0.2324
 3359SOL    HW213202   0.551   3.843   1.664  1.7421  1.0527 -1.4502
 3359SOL    HW313203   0.420   3.906   1.622 -0.4848 -0.3954  2.7076
 3359SOL    MW413204   0.506   3.910   1.631 -0.1510  0.5991 -0.0052
 3360SOL     OW13205   0.518   1.819   1.114  0.1800  0.0064 -0.5942
 3360SOL    HW213206   0.609   1.840   1.133  0.2691 -0.6251 -0.2911
 3360SOL    HW313207   0.519   1.726   1.093 -0.3866  0.0095 -0.6469
 3360SOL    MW413208   0.530   1.809   1.114  0.1170 -0.0765 -0.5611
 3361SOL     OW13209   1.593   0.812   2.636 -0.0166  0.7748 -0.4298
 3361SOL    HW213210   1.512   0.816   2.586  0.2070  1.3877 -0.7530
 3361SOL    HW313211   1.662   0.831   2.572  0.3337  0.8694 -0.0323
 3361SOL    MW413212   1.592   0.815   2.621  0.0591  0.8682 -0.4200
 3362SOL     OW13213   3.752   4.205   2.080 -0.2068 -0.1258  0.1484
 3362SOL    HW213214   3.841   4.170   2.091 -0.2574 -0.2316  0.2196
 3362SOL    HW313215   3.739   4.260   2.158  0.3784  1.1352 -0.6060
 3362SOL    MW413216   3.762   4.208   2.092 -0.1363  0.0266  0.0583
 3363SOL     OW13217   2.164   5.514   3.803 -0.5903  0.1006 -0.2509
 3363SOL    HW213218   2.095   5.572   3.771  1.6699  2.4649 -1.2845
 3363SOL    HW313219   2.159   5.523   3.899 -2.1001 -0.3249 -0.2657
 3363SOL    MW413220   2.154   5.523   3.812 -0.4913  0.3564 -0.3892
 3364SOL     OW13221   5.201   5.210   5.008 -0.0406 -0.1246 -0.3344
 3364SOL    HW213222   5.294   5.231   4.998  0.5546 -1.5091  1.6642
 3364SOL    HW313223   5.168   5.276   5.067  0.3251 -1.0664  0.9680
 3364SOL    MW413224   5.209   5.221   5.014  0.0862 -0.4315  0.1012
 3365SOL     OW13225   5.668   0.991   0.569 -0.0287  0.1435  0.0834
 3365SOL    HW213226   5.582   0.981   0.609 -1.0070 -0.9259 -2.1144
 3365SOL    HW313227   5.651   1.039   0.488  0.7984 -3.0260 -2.1527
 3365SOL    MW413228   5.654   0.996   0.564 -0.0486 -0.4157 -0.5016
 3366SOL     OW13229   0.406   1.976   2.382 -0.2579  0.1035 -0.5241
 3366SOL    HW213230   0.341   1.973   2.452 -0.0551 -0.6011 -0.3549
 3366SOL    HW313231   0.387   2.057   2.335 -1.9056 -0.6029 -1.1132
 3366SOL    MW413232   0.395   1.987   2.385 -0.4485 -0.0827 -0.5795
 3367SOL     OW13233   4.090   0.158   3.194 -0.1500 -0.6277 -0.3258
 3367SOL    HW213234   4.162   0.122   3.143 -0.1590  0.3688 -1.0779
 3367SOL    HW313235   4.130   0.232   3.241 -0.2664 -1.2051  0.7021
 3367SOL    MW413236   4.105   0.163   3.194 -0.1665 -0.5724 -0.2894
 3368SOL     OW13237   1.451   5.976   4.690  0.1522 -0.5875  0.3455
 3368SOL    HW213238   1.433   5.990   4.598  0.3186 -0.1400  0.3808
 3368SOL    HW313239   1.366   5.957   4.729  0.2134 -1.8581 -0.0838
 3368SOL    MW413240   1.437   5.975   4.683  0.1822 -0.6961  0.2935
 3369SOL     OW13241   2.068   1.185   5.740 -0.3888  0.2365 -0.4256
 3369SOL    HW213242   2.114   1.121   5.686 -0.1762 -0.3502  0.4357
 3369SOL    HW313243   2.020   1.133   5.804 -0.0837  0.9287  0.3896
 3369SOL    MW413244   2.068   1.170   5.741 -0.3205  0.2504 -0.2044
 3370SOL     OW13245   4.822   5.803   3.882 -0.1216 -0.2652 -0.0772
 3370SOL    HW213246   4.856   5.846   3.960 -0.1292  1.7385 -1.1145
 3370SOL    HW313247   4.746   5.855   3.857 -1.9169 -2.6009  0.1981
 3370SOL    MW413248   4.817   5.815   3.889 -0.3595 -0.3090 -0.1777
 3371SOL     OW13249   1.346   5.113   3.786 -0.6756  0.0852  0.1342
 3371SOL    HW213250   1.429   5.161   3.797 -0.7146  0.6835 -1.8301
 3371SOL    HW313251   1.315   5.099   3.875  1.1578  0.5293  0.8930
 3371SOL    MW413252   1.353   5.118   3.799 -0.4389  0.2228 -0.0248
 3372SOL     OW13253   0.404   4.581   4.400  0.5137  0.3317 -0.2034
 3372SOL    HW213254   0.337   4.650   4.394 -1.3050 -1.1304  1.6247
 3372SOL    HW313255   0.477   4.623   4.446 -0.0542  1.3836 -0.2327
 3372SOL    MW413256   0.405   4.596   4.405  0.1988  0.2776  0.0339
 3373SOL     OW13257   4.232   0.540   4.427 -0.0067  0.2471 -0.1632
 3373SOL    HW213258   4.274   0.476   4.485  0.6441  0.7767 -0.0402
 3373SOL    HW313259   4.165   0.490   4.381  1.3430 -0.8297 -1.0273
 3373SOL    MW413260   4.229   0.525   4.429  0.2573  0.1749 -0.2610
 3374SOL     OW13261   5.401   1.035   2.677 -0.5664 -0.0276  0.1778
 3374SOL    HW213262   5.342   0.968   2.712  0.4432 -2.0801 -1.7990
 3374SOL    HW313263   5.463   0.986   2.623  0.5488  2.4737 -0.9428
 3374SOL    MW413264   5.401   1.019   2.675 -0.2861  0.0316 -0.2309
 3375SOL     OW13265   5.921   3.684   4.077 -0.3846  0.0376 -0.7538
 3375SOL    HW213266   5.977   3.757   4.050 -0.8205  0.9166  0.6022
 3375SOL    HW313267   5.832   3.715   4.061 -0.7200  0.9498  2.2279
 3375SOL    MW413268   5.917   3.698   4.072 -0.4864  0.2739 -0.1815
 3376SOL     OW13269   2.418   3.016   0.488  0.2827  0.1822  0.3325
 3376SOL    HW213270   2.329   3.039   0.514  0.2707  2.6166 -1.4176
 3376SOL    HW313271   2.474   3.071   0.543  0.6631 -0.4732  0.6130
 3376SOL    MW413272   2.414   3.026   0.499  0.3313  0.4169  0.1386
 3377SOL     OW13273   5.706   0.230   3.624  0.1577  0.3610 -0.0735
 3377SOL    HW213274   5.652   0.306   3.606 -0.1898  0.2249  0.3640
 3377SOL    HW313275   5.786   0.266   3.664  1.0342  0.6789 -2.0079
 3377SOL    MW413276   5.710   0.245   3.627  0.2275  0.3850 -0.2710
 3378SOL     OW13277   5.965   1.631   1.045 -0.1125  0.4089 -0.0152
 3378SOL    HW213278   5.882   1.585   1.035  0.2259 -0.0838 -0.6614
 3378SOL    HW313279   5.968   1.656   1.137  0.3649 -2.1584  0.7406
 3378SOL    MW413280   5.954   1.628   1.056 -0.0049  0.0052 -0.0008
 3379SOL     OW13281   3.558   0.025   5.104  0.3176  0.5420  0.0496
 3379SOL    HW213282   3.512   0.099   5.145 -1.3459 -0.7514  0.6278
 3379SOL    HW313283   3.552  -0.045   5.168  1.9538 -0.0988 -0.4565
 3379SOL    MW413284   3.551   0.026   5.118  0.3140  0.2868  0.0591
 3380SOL     OW13285   3.245   3.693   3.493 -0.0546 -0.1154 -0.4150
 3380SOL    HW213286   3.174   3.628   3.493 -0.2441  0.0419  1.2571
 3380SOL    HW313287   3.205   3.772   3.529  0.6931  0.3277 -0.5351
 3380SOL    MW413288   3.230   3.695   3.498  0.0190 -0.0362 -0.2102
 3381SOL     OW13289   5.489   5.344   3.356  0.3416  0.1341  0.1874
 3381SOL    HW213290   5.421   5.409   3.376 -2.8178 -1.9649 -2.6094
 3381SOL    HW313291   5.548   5.389   3.296  0.1805  1.3961  0.9449
 3381SOL    MW413292   5.488   5.358   3.351 -0.0965  0.0237 -0.0816
 3382SOL     OW13293   5.722   2.291   5.200 -0.2626 -0.2058 -0.6029
 3382SOL    HW213294   5.729   2.382   5.230 -2.8347  1.2838 -3.8288
 3382SOL    HW313295   5.789   2.284   5.131 -0.1247 -0.7475 -0.4174
 3382SOL    MW413296   5.732   2.302   5.195 -0.5838 -0.0808 -1.0041
 3383SOL     OW13297   3.185   2.334   3.539 -0.1739  0.1518  0.4587
 3383SOL    HW213298   3.134   2.393   3.594  0.7218  1.2736  0.1364
 3383SOL    HW313299   3.120   2.279   3.495 -0.9722  0.2061  1.5321
 3383SOL    MW413300   3.170   2.335   3.541 -0.1610  0.3070  0.5578
 3384SOL     OW13301   6.075   5.682   1.117 -0.5590  0.0532 -1.0761
 3384SOL    HW213302   6.027   5.682   1.200  0.4998  0.0813 -0.4357
 3384SOL    HW313303   6.102   5.591   1.105  3.8764  0.7453  1.4608
 3384SOL    MW413304   6.072   5.670   1.127  0.1659  0.1482 -0.6569
 3385SOL     OW13305   0.481   5.503   1.729  0.3950  0.1040  0.9576
 3385SOL    HW213306   0.450   5.423   1.685  0.5518  0.7273 -0.3376
 3385SOL    HW313307   0.563   5.476   1.772  1.9877  0.1255 -1.7691
 3385SOL    MW413308   0.488   5.489   1.729  0.6258  0.1891  0.4270
 3386SOL     OW13309   3.817   0.823   4.649  0.3949  0.0710  0.8026
 3386SOL    HW213310   3.889   0.885   4.657 -0.5081  1.0411  1.7821
 3386SOL    HW313311   3.744   0.866   4.694 -0.5745 -1.2194  0.5076
 3386SOL    MW413312   3.817   0.837   4.656  0.1479  0.0287  0.8929
 3387SOL     OW13313   2.517   0.939   0.443 -0.7923  0.0166  0.1985
 3387SOL    HW213314   2.586   0.962   0.381  1.7394 -1.1952  2.3963
 3387SOL    HW313315   2.501   1.020   0.492  0.0440 -0.0183  0.5423
 3387SOL    MW413316   2.524   0.953   0.441 -0.3479 -0.1479  0.5338
 3388SOL     OW13317   0.777   4.561   5.274 -0.5038  0.4213  0.2358
 3388SOL    HW213318   0.788   4.466   5.273 -1.8534  0.1706  2.5848
 3388SOL    HW313319   0.687   4.575   5.245  0.0362  1.1154 -1.2095
 3388SOL    MW413320   0.767   4.550   5.270 -0.6106  0.4798  0.3550
 3389SOL     OW13321   3.308   2.862   6.053  0.4635 -0.1203 -0.1538
 3389SOL    HW213322   3.392   2.823   6.077 -0.0346 -1.2532 -0.1672
 3389SOL    HW313323   3.302   2.848   5.958 -0.0391 -0.6677 -0.0462
 3389SOL    MW413324   3.318   2.855   6.043  0.3315 -0.3420 -0.1414
 3390SOL     OW13325   3.324   6.281   0.366  0.1903  0.3642  0.1698
 3390SOL    HW213326   3.248   6.311   0.416 -0.1716  1.8949 -1.1894
 3390SOL    HW313327   3.353   6.359   0.319  0.9149 -0.8353 -1.4538
 3390SOL    MW413328   3.317   6.295   0.366  0.2382  0.4079 -0.2237
 3391SOL     OW13329   3.603   1.665   3.911  0.0216 -0.1677  0.2060
 3391SOL    HW213330   3.647   1.680   3.828  1.0331 -1.4924  0.4537
 3391SOL    HW313331   3.525   1.614   3.888 -0.3857  0.5535 -0.0420
 3391SOL    MW413332   3.598   1.660   3.897  0.1013 -0.2473  0.2059
 3392SOL     OW13333   4.483   3.899   5.258  0.4409 -0.4612 -0.3150
 3392SOL    HW213334   4.399   3.944   5.267  0.3821  0.3195 -3.4761
 3392SOL    HW313335   4.490   3.881   5.164  3.6738 -0.7635 -0.1185
 3392SOL    MW413336   4.473   3.902   5.247  0.8597 -0.3981 -0.7061
 3393SOL     OW13337   1.170   1.678   4.508 -0.5396  0.4953  0.3407
 3393SOL    HW213338   1.122   1.682   4.591  1.5341 -1.8364  1.7828
 3393SOL    HW313339   1.225   1.756   4.509 -0.0238  0.1334  1.5381
 3393SOL    MW413340   1.171   1.689   4.519 -0.1979  0.1400  0.6890
 3394SOL     OW13341   4.983   5.108   2.222 -0.7887  0.0669  0.2592
 3394SOL    HW213342   5.049   5.058   2.269 -0.7319  0.8318  1.0046
 3394SOL    HW313343   4.902   5.058   2.235 -0.4205 -0.7686 -0.4984
 3394SOL    MW413344   4.981   5.095   2.230 -0.7326  0.0576  0.2576
 3395SOL     OW13345   3.425   3.787   4.191  0.0509  0.6188 -0.6239
 3395SOL    HW213346   3.443   3.824   4.277 -0.8621  0.6726 -0.4459
 3395SOL    HW313347   3.506   3.800   4.141  1.0855 -0.6618  0.6471
 3395SOL    MW413348   3.438   3.793   4.196  0.0670  0.4569 -0.4327
 3396SOL     OW13349   4.143   0.501   5.478  0.1030 -0.2854 -0.2559
 3396SOL    HW213350   4.213   0.540   5.530  0.3023 -1.2410  0.2189
 3396SOL    HW313351   4.063   0.536   5.517  0.2783  1.8432 -1.6187
 3396SOL    MW413352   4.142   0.511   5.490  0.1524 -0.1307 -0.3730
 3397SOL     OW13353   3.613   3.507   6.155  0.0783 -0.2737 -0.3950
 3397SOL    HW213354   3.612   3.545   6.242 -1.0765 -1.7849  0.2879
 3397SOL    HW313355   3.699   3.465   6.148 -0.8399 -2.5589  1.1531
 3397SOL    MW413356   3.624   3.507   6.165 -0.1952 -0.7746 -0.1006
 3398SOL     OW13357   3.357   5.008   0.290  0.4296 -0.0481 -0.3596
 3398SOL    HW213358   3.320   5.048   0.369  1.8510  1.5492 -0.4431
 3398SOL    HW313359   3.367   4.915   0.312 -0.7114  0.0760  0.7388
 3398SOL    MW413360   3.354   5.001   0.304  0.4666  0.1790 -0.2257
 3399SOL     OW13361   3.254   2.041   6.237 -0.1420  0.0859 -0.4884
 3399SOL    HW213362   3.168   2.048   6.278 -0.2071  0.2015 -0.6447
 3399SOL    HW313363   3.285   2.132   6.230 -0.1150  0.0633 -0.6616
 3399SOL    MW413364   3.247   2.054   6.242 -0.1470  0.0982 -0.5318
 3400SOL     OW13365   4.231   6.210   0.596 -0.4099  0.0437 -0.0668
 3400SOL    HW213366   4.313   6.164   0.610 -0.4598 -0.0004  0.0886
 3400SOL    HW313367   4.187   6.206   0.681 -0.9288 -0.6423 -0.3517
 3400SOL    MW413368   4.236   6.203   0.609 -0.4849 -0.0526 -0.0839
 3401SOL     OW13369   5.900   5.202   3.147  0.3316 -0.6529 -0.2092
 3401SOL    HW213370   5.901   5.289   3.188 -0.6411 -1.5069  1.7390
 3401SOL    HW313371   5.817   5.199   3.099  0.1119 -0.6908  0.1687
 3401SOL    MW413372   5.889   5.213   3.146  0.1743 -0.7706  0.0977
 3402SOL     OW13373   3.356   1.728   2.397 -0.3501 -0.1360 -0.8274
 3402SOL    HW213374   3.424   1.787   2.365  0.6611 -1.3204 -0.9672
 3402SOL    HW313375   3.402   1.670   2.459 -1.3294 -0.6797 -0.5820
 3402SOL    MW413376   3.371   1.728   2.401 -0.3459 -0.3640 -0.8135
 3403SOL     OW13377   5.147   1.749   3.897 -0.0860  0.1883  0.4309
 3403SOL    HW213378   5.200   1.691   3.952 -1.4559 -0.6979  0.8574
 3403SOL    HW313379   5.168   1.722   3.807  1.4565  1.0120  0.5195
 3403SOL    MW413380   5.157   1.737   3.892 -0.0633  0.1801  0.4989
 3404SOL     OW13381   3.112   3.197   0.549  0.1888  0.0730 -0.2857
 3404SOL    HW213382   3.018   3.182   0.552  0.4022 -1.2543  1.1916
 3404SOL    HW313383   3.133   3.233   0.635  0.9375  1.0931 -0.8771
 3404SOL    MW413384   3.103   3.199   0.561  0.3157  0.0325 -0.1688
 3405SOL     OW13385   2.892   4.484   5.150 -0.1918  0.5072 -0.3349
 3405SOL    HW213386   2.956   4.533   5.201  1.0139 -0.1390 -1.1645
 3405SOL    HW313387   2.888   4.529   5.066  2.3929 -1.7667 -1.8379
 3405SOL    MW413388   2.900   4.496   5.145  0.3083  0.1219 -0.6426
 3406SOL     OW13389   1.882   4.014   4.440 -0.2391  0.3476  0.7949
 3406SOL    HW213390   1.904   3.949   4.506  0.7293  0.0520  0.2123
 3406SOL    HW313391   1.938   3.991   4.365 -0.7780  1.1103  0.1422
 3406SOL    MW413392   1.892   4.002   4.439 -0.1825  0.4092  0.6319
 3407SOL     OW13393   2.681   3.866   1.710 -0.5265 -0.1962  0.0255
 3407SOL    HW213394   2.750   3.905   1.657 -0.7423 -1.6823 -1.4650
 3407SOL    HW313395   2.723   3.789   1.750 -0.7971  0.0139  0.7178
 3407SOL    MW413396   2.696   3.861   1.708 -0.5907 -0.3646 -0.0798
 3408SOL     OW13397   0.513   3.223   5.133  0.1782  0.0949  0.1074
 3408SOL    HW213398   0.506   3.188   5.222  1.8800  1.3264  0.7918
 3408SOL    HW313399   0.567   3.159   5.087  1.9448  0.9581  0.8984
 3408SOL    MW413400   0.519   3.210   5.139  0.6358  0.3713  0.3021
 3409SOL     OW13401   3.088   6.398   3.264 -0.4613 -0.0058  0.2869
 3409SOL    HW213402   3.068   6.482   3.223 -1.0380 -0.5180 -0.5221
 3409SOL    HW313403   3.183   6.394   3.268 -0.4105  0.3042 -0.5012
 3409SOL    MW413404   3.098   6.408   3.259 -0.5307 -0.0325  0.0762
 3410SOL     OW13405   4.062   4.414   0.572  0.0161  0.2798  0.6131
 3410SOL    HW213406   4.049   4.332   0.619 -0.6131  0.0678  0.0816
 3410SOL    HW313407   4.064   4.481   0.641 -1.5827  0.0524  0.9076
 3410SOL    MW413408   4.061   4.412   0.587 -0.2778  0.2218  0.5818
 3411SOL     OW13409   5.229   1.417   2.996 -0.4650 -0.1286 -0.5986
 3411SOL    HW213410   5.255   1.506   3.022 -1.5861  0.1274 -0.3095
 3411SOL    HW313411   5.213   1.372   3.078 -2.2063  0.1273 -0.7629
 3411SOL    MW413412   5.230   1.423   3.010 -0.8426 -0.0610 -0.5822
 3412SOL     OW13413   2.310   3.734   0.516 -0.2284  0.1693 -0.4695
 3412SOL    HW213414   2.220   3.763   0.501 -0.7636 -1.4766 -0.6151
 3412SOL    HW313415   2.363   3.814   0.505 -1.6876  1.2489  0.0440
 3412SOL    MW413416   2.305   3.749   0.513 -0.4915  0.0946 -0.4210
 3413SOL     OW13417   2.805   5.003   0.561 -0.2528 -0.7071  0.2715
 3413SOL    HW213418   2.890   5.042   0.580  0.1965 -1.6670  0.3000
 3413SOL    HW313419   2.819   4.950   0.482 -1.1842  0.2515 -0.5712
 3413SOL    MW413420   2.818   5.001   0.553 -0.3164 -0.7073  0.1641
 3414SOL     OW13421   5.032   2.524   6.111  0.5874 -0.4311  0.6135
 3414SOL    HW213422   4.957   2.467   6.126  0.4228 -0.1382  0.9195
 3414SOL    HW313423   5.001   2.588   6.047  0.0565  0.6534  1.9104
 3414SOL    MW413424   5.018   2.525   6.105  0.4956 -0.2493  0.8250
 3415SOL     OW13425   0.817   0.266   2.911  0.2162 -0.2138 -0.5765
 3415SOL    HW213426   0.798   0.234   2.999  0.4548  2.0019  0.3384
 3415SOL    HW313427   0.912   0.276   2.908  0.0819  1.3513 -0.4397
 3415SOL    MW413428   0.827   0.263   2.922  0.2299  0.2851 -0.4378
 3416SOL     OW13429   3.144   3.951   1.361 -0.9758  0.3945  0.1456
 3416SOL    HW213430   3.210   3.948   1.431 -0.3728  1.7737 -0.3234
 3416SOL    HW313431   3.125   3.859   1.342  2.5206 -0.2080 -1.2268
 3416SOL    MW413432   3.150   3.939   1.368 -0.4349  0.4970 -0.0974
 3417SOL     OW13433   2.189   0.050   0.401 -0.6757  0.1843 -0.7643
 3417SOL    HW213434   2.188  -0.036   0.444 -1.4956  0.3892 -0.3451
 3417SOL    HW313435   2.187   0.113   0.473 -1.0279  0.5422 -1.0809
 3417SOL    MW413436   2.188   0.047   0.416 -0.8303  0.2586 -0.7508
 3418SOL     OW13437   5.304   0.993   1.354 -0.1485 -0.0189  0.3044
 3418SOL    HW213438   5.277   0.956   1.438 -0.2671 -0.2573  0.1620
 3418SOL    HW313439   5.337   1.080   1.376 -0.9320  0.2422  0.5031
 3418SOL    MW413440   5.305   1.000   1.368 -0.2675 -0.0159  0.3118
 3419SOL     OW13441   6.340   2.477   5.177 -0.4126 -0.5471  0.3947
 3419SOL    HW213442   6.380   2.390   5.178 -1.0964 -0.8876  2.0597
 3419SOL    HW313443   6.247   2.461   5.163 -0.8857 -0.3161  2.8705
 3419SOL    MW413444   6.333   2.463   5.175 -0.5652 -0.5616  0.9411
 3420SOL     OW13445   4.660   5.378   2.994 -0.3747  0.0729 -0.0325
 3420SOL    HW213446   4.582   5.413   3.037 -0.4859 -0.2320  0.0158
 3420SOL    HW313447   4.693   5.451   2.941 -1.1780 -0.0531 -0.7295
 3420SOL    MW413448   4.654   5.393   2.993 -0.4954  0.0160 -0.1181
 3421SOL     OW13449   1.776   5.018   5.301 -0.3175 -0.4268  0.4989
 3421SOL    HW213450   1.863   4.991   5.271 -0.0780 -1.2847  1.8750
 3421SOL    HW313451   1.757   5.098   5.251 -0.4462 -2.2848 -2.7130
 3421SOL    MW413452   1.785   5.025   5.290 -0.3029 -0.7852  0.2567
 3422SOL     OW13453   5.346   1.617   4.040 -0.0288 -0.0554 -0.5103
 3422SOL    HW213454   5.405   1.665   3.982  1.0704 -2.0680 -1.1682
 3422SOL    HW313455   5.344   1.529   4.004 -1.5469 -0.6577  0.9317
 3422SOL    MW413456   5.353   1.612   4.027 -0.0841 -0.4004 -0.4069
 3423SOL     OW13457   5.345   2.051   5.925 -0.2970 -0.0334 -0.2415
 3423SOL    HW213458   5.319   2.128   5.875  0.9978 -0.1020 -1.0841
 3423SOL    HW313459   5.325   2.072   6.016  1.5571  1.9827 -0.2477
 3423SOL    MW413460   5.339   2.064   5.930  0.1184  0.2236 -0.3535
 3424SOL     OW13461   4.901   4.935   3.431 -0.2741  0.0107  0.3696
 3424SOL    HW213462   4.844   4.867   3.467  0.6603 -1.7674 -1.4057
 3424SOL    HW313463   4.840   5.006   3.409 -1.3880 -0.5854  1.3412
 3424SOL    MW413464   4.885   4.936   3.433 -0.2978 -0.3026  0.2636
 3425SOL     OW13465   4.572   0.181   2.600 -0.2180 -0.0859  0.4948
 3425SOL    HW213466   4.480   0.196   2.621 -0.4175 -1.7430  1.0067
 3425SOL    HW313467   4.572   0.100   2.548  0.9238  0.0252  0.2967
 3425SOL    MW413468   4.560   0.172   2.596 -0.0937 -0.2898  0.5362
 3426SOL     OW13469   2.568   4.502   2.073  0.6082  0.2804  0.2034
 3426SOL    HW213470   2.645   4.446   2.087  0.3317 -0.0228  0.5444
 3426SOL    HW313471   2.546   4.489   1.981 -0.0208 -0.9194  0.5046
 3426SOL    MW413472   2.575   4.493   2.063  0.4887  0.0821  0.2882
 3427SOL     OW13473   5.004   1.065   1.872  0.2870  0.3916 -0.1610
 3427SOL    HW213474   4.970   1.057   1.783  0.6410 -0.7536 -0.2046
 3427SOL    HW313475   4.934   1.033   1.928  0.5877 -0.2243 -0.1291
 3427SOL    MW413476   4.990   1.060   1.868  0.3734  0.1593 -0.1626
 3428SOL     OW13477   5.035   3.686   3.417  0.1453  0.0163  0.6634
 3428SOL    HW213478   5.084   3.746   3.362  0.5470 -0.8770  0.0349
 3428SOL    HW313479   4.944   3.718   3.412  0.3066  0.4031  0.1277
 3428SOL    MW413480   5.029   3.698   3.409  0.2196 -0.0505  0.5098
 3429SOL     OW13481   4.846   4.415   3.792 -0.1603  0.0084 -0.1079
 3429SOL    HW213482   4.860   4.336   3.844  2.2601  0.6657  0.3558
 3429SOL    HW313483   4.875   4.486   3.849  2.8912  0.7429 -2.3550
 3429SOL    MW413484   4.852   4.414   3.806  0.5616  0.1920 -0.3432
 3430SOL     OW13485   5.838   0.900   0.889  0.3903 -0.6632  0.1191
 3430SOL    HW213486   5.819   0.852   0.970  1.4030 -0.4932  0.4791
 3430SOL    HW313487   5.798   0.986   0.902 -1.5972 -1.4329 -0.6071
 3430SOL    MW413488   5.830   0.905   0.901  0.2617 -0.7423  0.0708
 3431SOL     OW13489   3.007   6.036   2.012  0.0223  0.4411 -0.2962
 3431SOL    HW213490   3.006   5.945   1.983  1.2337  0.1708  0.4438
 3431SOL    HW313491   2.915   6.059   2.022 -0.3014 -0.6795 -0.5752
 3431SOL    MW413492   2.995   6.027   2.010  0.1394  0.2576 -0.2354
 3432SOL     OW13493   1.201   6.233   5.408  0.2561  0.8972 -0.0780
 3432SOL    HW213494   1.118   6.213   5.451  0.0829  0.7948 -0.4605
 3432SOL    HW313495   1.185   6.314   5.360  0.4872  1.0805  0.1462
 3432SOL    MW413496   1.188   6.241   5.407  0.2637  0.9079 -0.0989
 3433SOL     OW13497   2.609   3.596   5.377  0.1998  0.2122 -0.5732
 3433SOL    HW213498   2.649   3.543   5.308 -1.7982  1.0492 -2.5135
 3433SOL    HW313499   2.651   3.682   5.368  1.0755 -0.0997  0.3646
 3433SOL    MW413500   2.620   3.601   5.367  0.0517  0.2815 -0.7055
 3434SOL     OW13501   2.487   2.745   4.251  0.2126 -0.3161 -0.6721
 3434SOL    HW213502   2.526   2.667   4.213 -0.1194  0.0676 -1.8463
 3434SOL    HW313503   2.414   2.766   4.193  1.2490  1.7722 -1.3225
 3434SOL    MW413504   2.483   2.738   4.238  0.3056  0.0100 -0.9129
 3435SOL     OW13505   6.273   6.205   1.283  0.0016 -0.0943  0.0384
 3435SOL    HW213506   6.210   6.254   1.229  0.6855  2.0118  1.0457
 3435SOL    HW313507   6.234   6.204   1.370  0.9379  0.4433  0.4684
 3435SOL    MW413508   6.259   6.212   1.287  0.2154  0.2545  0.2281
 3436SOL     OW13509   5.796   5.441   0.384  0.6846 -0.1521  0.0504
 3436SOL    HW213510   5.832   5.379   0.321  0.8849 -1.5622  1.4845
 3436SOL    HW313511   5.848   5.427   0.463 -0.1484  0.9215  0.8119
 3436SOL    MW413512   5.808   5.431   0.386  0.6011 -0.1965  0.3401
 3437SOL     OW13513   2.800   1.263   5.482 -0.1084 -0.2928 -0.0668
 3437SOL    HW213514   2.773   1.298   5.567 -0.8530  1.2916 -0.9067
 3437SOL    HW313515   2.837   1.177   5.502 -3.3546 -1.4981  1.5005
 3437SOL    MW413516   2.801   1.256   5.496 -0.6350 -0.2428  0.0292
 3438SOL     OW13517   1.275   4.921   0.729 -0.1915 -0.3946 -0.0664
 3438SOL    HW213518   1.332   4.886   0.661 -0.1535  0.5893 -0.5510
 3438SOL    HW313519   1.334   4.938   0.803  0.0668  0.1267 -0.3856
 3438SOL    MW413520   1.290   4.919   0.730 -0.1524 -0.1960 -0.1724
 3439SOL     OW13521   1.081   6.043   6.095 -0.4934 -0.2606  0.8195
 3439SOL    HW213522   1.156   6.102   6.087  0.6495 -1.5483  1.7139
 3439SOL    HW313523   1.071   6.029   6.189 -0.6284 -1.6079  0.6183
 3439SOL    MW413524   1.090   6.049   6.106 -0.3604 -0.6082  0.9110
 3440SOL     OW13525   0.900   1.990   5.506  0.1255  0.0586 -0.6407
 3440SOL    HW213526   0.904   2.040   5.587 -2.5519 -1.4609  0.5465
 3440SOL    HW313527   0.844   2.041   5.448  1.1740  0.6226 -1.1893
 3440SOL    MW413528   0.893   2.003   5.509 -0.0894 -0.0674 -0.5564
 3441SOL     OW13529   5.221   3.018   4.158  0.2880  0.0777  0.2681
 3441SOL    HW213530   5.306   3.038   4.198  0.2779 -0.1337  0.3949
 3441SOL    HW313531   5.236   3.030   4.064  0.5087 -0.1418  0.2739
 3441SOL    MW413532   5.234   3.022   4.151  0.3158  0.0209  0.2856
 3442SOL     OW13533   4.602   3.633   0.966  0.2680 -0.7102  0.0074
 3442SOL    HW213534   4.574   3.710   0.917  0.9502 -0.6711 -0.3405
 3442SOL    HW313535   4.589   3.560   0.906  2.6373 -0.4859 -0.9271
 3442SOL    MW413536   4.597   3.634   0.952  0.6706 -0.6755 -0.1618
 3443SOL     OW13537   0.415   1.642   1.419 -0.1713  0.7017  0.0199
 3443SOL    HW213538   0.347   1.604   1.475  1.3745 -0.2960  1.3291
 3443SOL    HW313539   0.373   1.652   1.334 -1.7634 -0.4720  0.6001
 3443SOL    MW413540   0.400   1.638   1.415 -0.1774  0.4152  0.2692
 3444SOL     OW13541   1.042   3.518   1.348  0.4126  0.1333  0.2987
 3444SOL    HW213542   1.001   3.547   1.267  0.5486  2.2290  0.8964
 3444SOL    HW313543   1.097   3.445   1.324 -1.2589 -0.7321 -1.0810
 3444SOL    MW413544   1.044   3.512   1.334  0.2100  0.2957  0.1955
 3445SOL     OW13545   5.829   2.670   5.029 -0.2414 -0.1726  0.3151
 3445SOL    HW213546   5.879   2.713   4.960 -1.2595 -0.8714 -0.9081
 3445SOL    HW313547   5.830   2.732   5.102  0.3406  0.8611 -0.5466
 3445SOL    MW413548   5.835   2.683   5.029 -0.2990 -0.1284  0.0400
 3446SOL     OW13549   0.278   3.914   1.875  0.4266  0.3629 -0.3435
 3446SOL    HW213550   0.244   4.002   1.893  2.2362  1.0988 -0.3590
 3446SOL    HW313551   0.218   3.878   1.810 -1.1755  1.0076  0.7184
 3446SOL    MW413552   0.266   3.921   1.869  0.4539  0.5450 -0.2054
 3447SOL     OW13553   2.620   6.161   2.910 -0.1810  0.2214 -0.2283
 3447SOL    HW213554   2.572   6.192   2.987  0.0631 -1.3957  0.6075
 3447SOL    HW313555   2.700   6.214   2.909  0.4367 -0.6129  1.4257
 3447SOL    MW413556   2.625   6.172   2.920 -0.0673 -0.1020  0.1002
 3448SOL     OW13557   0.582   5.161   0.743 -0.1443  0.3501  0.0245
 3448SOL    HW213558   0.658   5.103   0.733 -0.7461 -0.2174 -1.7303
 3448SOL    HW313559   0.600   5.211   0.822  1.0476 -1.2747  0.8408
 3448SOL    MW413560   0.594   5.160   0.752 -0.0664  0.0609 -0.0993
 3449SOL     OW13561   4.461   4.328   0.372  0.3321 -0.7339 -0.0483
 3449SOL    HW213562   4.538   4.333   0.315  1.7179  2.1558  1.8656
 3449SOL    HW313563   4.392   4.291   0.316  2.1349 -0.0641 -2.9138
 3449SOL    MW413564   4.462   4.324   0.357  0.7528 -0.2643 -0.1739
 3450SOL     OW13565   3.041   4.652   1.445  0.0582 -0.1136  0.0952
 3450SOL    HW213566   2.978   4.678   1.377 -2.1963 -1.5140  1.5233
 3450SOL    HW313567   3.032   4.557   1.450  2.4620 -0.3918  0.2814
 3450SOL    MW413568   3.032   4.643   1.436  0.0779 -0.3351  0.3082
 3451SOL     OW13569   5.712   5.909   1.597  0.6012 -0.1942  0.1874
 3451SOL    HW213570   5.642   5.845   1.582 -0.7862  0.6357  2.6030
 3451SOL    HW313571   5.687   5.985   1.544  0.3945 -0.3708  0.0282
 3451SOL    MW413572   5.699   5.910   1.588  0.3909 -0.1080  0.4851
 3452SOL     OW13573   2.769   6.050   4.669 -0.4220  0.6242  0.2520
 3452SOL    HW213574   2.797   6.042   4.760 -1.9420 -1.0247  0.6236
 3452SOL    HW313575   2.850   6.047   4.619  0.3370  0.1108  1.4615
 3452SOL    MW413576   2.784   6.049   4.675 -0.5224  0.3389  0.4606
 3453SOL     OW13577   4.498   0.781   0.798  0.2146  0.2565  0.4598
 3453SOL    HW213578   4.410   0.771   0.762  0.5650 -1.1215 -0.0950
 3453SOL    HW313579   4.557   0.766   0.723  0.9482  2.8698  0.4249
 3453SOL    MW413580   4.494   0.778   0.783  0.3576  0.4195  0.3820
 3454SOL     OW13581   0.609   4.240   0.206 -0.1497 -0.2566 -0.1092
 3454SOL    HW213582   0.544   4.279   0.147 -0.1755 -0.8243 -0.4563
 3454SOL    HW313583   0.674   4.202   0.148  0.0199 -0.4997  0.2375
 3454SOL    MW413584   0.609   4.240   0.191 -0.1307 -0.3636 -0.1093
 3455SOL     OW13585   3.162   6.365   2.452 -0.5120  0.2361  0.7251
 3455SOL    HW213586   3.123   6.285   2.486 -1.1025  0.1334 -0.1672
 3455SOL    HW313587   3.178   6.419   2.529  0.6303 -1.0475  1.4350
 3455SOL    MW413588   3.159   6.361   2.466 -0.4392  0.0532  0.7010
 3456SOL     OW13589   1.959   0.599   0.083 -0.5108 -0.5363 -0.0984
 3456SOL    HW213590   2.040   0.549   0.097  0.2185  0.6282  0.0671
 3456SOL    HW313591   1.903   0.576   0.157  0.0279 -0.7141  0.2609
 3456SOL    MW413592   1.962   0.590   0.095 -0.3435 -0.4062 -0.0292
 3457SOL     OW13593   0.298   0.314   6.370  0.0428 -0.2851  0.0581
 3457SOL    HW213594   0.211   0.339   6.401 -0.4260  0.6773 -1.8303
 3457SOL    HW313595   0.358   0.358   6.429 -0.7861  1.3108 -0.2245
 3457SOL    MW413596   0.294   0.323   6.382 -0.1284  0.0524 -0.2283
 3458SOL     OW13597   2.282   5.057   4.743  0.0886 -0.3210  0.0436
 3458SOL    HW213598   2.208   5.117   4.736  1.1234  0.8105 -2.1483
 3458SOL    HW313599   2.356   5.105   4.706  1.9118 -1.5119  1.8957
 3458SOL    MW413600   2.282   5.071   4.737  0.4657 -0.3288 -0.0012
 3459SOL     OW13601   4.094   0.222   0.730 -0.1598 -0.2531  0.5046
 3459SOL    HW213602   4.027   0.289   0.739 -0.5379 -0.4270 -0.8156
 3459SOL    HW313603   4.052   0.153   0.679  1.2161 -0.0637 -0.9667
 3459SOL    MW413604   4.079   0.222   0.724 -0.0282 -0.2511  0.1363
 3460SOL     OW13605   2.069   2.086   5.659  0.5868  0.4591  0.3191
 3460SOL    HW213606   2.090   2.015   5.720  0.7293  0.5329  0.3559
 3460SOL    HW313607   2.035   2.156   5.714 -2.0536 -0.5064  0.0601
 3460SOL    MW413608   2.067   2.086   5.674  0.2573  0.3415  0.2898
 3461SOL     OW13609   2.258   0.983   2.034  0.4818 -0.0377 -0.1865
 3461SOL    HW213610   2.204   0.933   1.972 -1.2673  1.0088  0.4442
 3461SOL    HW313611   2.295   0.916   2.092  0.4680 -0.8358 -1.0611
 3461SOL    MW413612   2.256   0.967   2.034  0.2492 -0.0049 -0.2187
 3462SOL     OW13613   1.267   2.778   0.538 -0.4778  0.0981 -0.0873
 3462SOL    HW213614   1.264   2.743   0.449  1.1909  0.7307 -0.4245
 3462SOL    HW313615   1.193   2.737   0.582 -1.2971 -0.2754 -1.7420
 3462SOL    MW413616   1.257   2.768   0.532 -0.3657  0.1323 -0.3501
 3463SOL     OW13617   1.968   3.453   1.083 -0.7395 -0.4400 -0.6116
 3463SOL    HW213618   1.950   3.363   1.057 -3.6708  0.1951 -1.1773
 3463SOL    HW313619   1.949   3.456   1.177  1.0941 -0.7460 -0.1934
 3463SOL    MW413620   1.963   3.442   1.092 -0.8843 -0.3966 -0.6311
 3464SOL     OW13621   2.421   1.154   3.698 -0.2156 -0.2077 -0.5219
 3464SOL    HW213622   2.392   1.189   3.614  0.8466 -1.3020 -1.3909
 3464SOL    HW313623   2.509   1.189   3.709 -1.3237  2.1991  1.5441
 3464SOL    MW413624   2.429   1.163   3.688 -0.2217 -0.0346 -0.3640
 3465SOL     OW13625   1.596   2.483   3.214  0.1911 -0.1475 -0.2975
 3465SOL    HW213626   1.572   2.574   3.194  0.7966 -0.1197 -0.9702
 3465SOL    HW313627   1.690   2.488   3.234 -0.1244 -0.3811  1.3570
 3465SOL    MW413628   1.605   2.496   3.214  0.2294 -0.1746 -0.1680
 3466SOL     OW13629   0.134   0.454   3.847 -0.7526  0.4784 -0.0994
 3466SOL    HW213630   0.220   0.494   3.856 -1.6191  2.4161  0.0699
 3466SOL    HW313631   0.145   0.365   3.882  1.0081  0.8929  0.5139
 3466SOL    MW413632   0.147   0.447   3.853 -0.6347  0.7887  0.0038
 3467SOL     OW13633   5.448   5.191   0.775  0.0705  0.3296 -0.4584
 3467SOL    HW213634   5.405   5.271   0.804  0.2885  0.9567 -1.7879
 3467SOL    HW313635   5.530   5.188   0.826 -0.0900  0.7687 -0.1686
 3467SOL    MW413636   5.453   5.201   0.786  0.0781  0.4703 -0.5956
 3468SOL     OW13637   5.430   0.295   3.896 -0.3353 -0.3270  0.1775
 3468SOL    HW213638   5.423   0.361   3.827  1.4416 -1.0125 -0.7367
 3468SOL    HW313639   5.456   0.215   3.850  0.7839 -0.8312  1.6143
 3468SOL    MW413640   5.433   0.293   3.880  0.0468 -0.4840  0.2464
 3469SOL     OW13641   0.165   5.696   6.291 -0.2738 -0.1183  0.1797
 3469SOL    HW213642   0.217   5.771   6.320 -0.5892 -0.0307  0.5326
 3469SOL    HW313643   0.138   5.717   6.202  1.1688 -0.6313 -0.4093
 3469SOL    MW413644   0.168   5.708   6.283 -0.1251 -0.1744  0.1485
 3470SOL     OW13645   1.339   2.578   6.368  0.4788 -0.1884 -0.3592
 3470SOL    HW213646   1.314   2.486   6.358  1.2737 -0.4275 -0.1824
 3470SOL    HW313647   1.370   2.585   6.458  0.2308  0.3042 -0.3076
 3470SOL    MW413648   1.339   2.567   6.378  0.5510 -0.1549 -0.3291
 3471SOL     OW13649   1.705   0.844   4.587 -0.3156  0.1205 -0.7045
 3471SOL    HW213650   1.652   0.770   4.616  2.4747 -0.5567  3.5240
 3471SOL    HW313651   1.650   0.921   4.605 -0.8290 -0.6478  1.2763
 3471SOL    MW413652   1.691   0.845   4.594 -0.0151 -0.0702  0.1147
 3472SOL     OW13653   6.405   2.584   0.878 -0.5637  0.0161 -0.2573
 3472SOL    HW213654   6.399   2.510   0.938 -0.4947  0.1042 -0.1405
 3472SOL    HW313655   6.397   2.662   0.934  2.6369  0.2188  0.1577
 3472SOL    MW413656   6.403   2.585   0.893 -0.1323  0.0545 -0.1871
 3473SOL     OW13657   3.535   4.795   3.716  0.3993 -0.0578 -0.4381
 3473SOL    HW213658   3.571   4.829   3.634  1.4752  1.7476  0.7135
 3473SOL    HW313659   3.559   4.702   3.716  1.5730  0.2236 -1.5378
 3473SOL    MW413660   3.543   4.787   3.705  0.6961  0.2175 -0.4313
 3474SOL     OW13661   0.481   2.396   2.752  0.4622 -0.3475  0.2157
 3474SOL    HW213662   0.505   2.340   2.826  2.4325  1.0711  0.7526
 3474SOL    HW313663   0.448   2.476   2.793  1.4091  0.3902 -0.4002
 3474SOL    MW413664   0.480   2.400   2.767  0.8471 -0.0630  0.2053
 3475SOL     OW13665   2.919   5.545   3.475  0.0261  0.3555 -0.1265
 3475SOL    HW213666   3.010   5.555   3.449  0.2750 -0.1230  0.5426
 3475SOL    HW313667   2.922   5.529   3.569 -0.6998 -0.3333 -0.2080
 3475SOL    MW413668   2.931   5.544   3.484 -0.0368  0.2015 -0.0489
 3476SOL     OW13669   0.373   0.104   1.277 -0.2846 -0.0570  0.0592
 3476SOL    HW213670   0.429   0.040   1.234 -0.7735  0.4231 -1.3651
 3476SOL    HW313671   0.419   0.127   1.358 -0.5962 -2.9909  1.2196
 3476SOL    MW413672   0.386   0.098   1.282 -0.3902 -0.3808  0.0244
 3477SOL     OW13673   6.103   1.707   5.159  0.6186  0.0094  0.1212
 3477SOL    HW213674   6.049   1.715   5.237  1.8074  0.2587  0.9409
 3477SOL    HW313675   6.191   1.727   5.189  1.4259 -1.9015 -0.8610
 3477SOL    MW413676   6.107   1.711   5.173  0.8820 -0.2098  0.0998
 3478SOL     OW13677   5.806   3.080   2.535  0.1386  0.1929  0.1278
 3478SOL    HW213678   5.868   3.127   2.480  0.0565  0.5932  0.3733
 3478SOL    HW313679   5.843   2.993   2.544  1.0865  0.6638  0.9385
 3478SOL    MW413680   5.819   3.075   2.529  0.2528  0.3078  0.2671
 3479SOL     OW13681   2.739   1.633   3.312  0.2828 -0.5499  0.2788
 3479SOL    HW213682   2.788   1.587   3.244 -0.3608 -0.0604 -0.5227
 3479SOL    HW313683   2.675   1.686   3.265 -0.3382 -0.3903  1.2715
 3479SOL    MW413684   2.737   1.634   3.297  0.1160 -0.4642  0.3040
 3480SOL     OW13685   3.475   3.902   5.037  0.1513 -0.4525 -0.2881
 3480SOL    HW213686   3.560   3.877   5.075  0.1816  0.2001  0.0872
 3480SOL    HW313687   3.484   3.995   5.019 -0.1210 -0.5988 -1.2555
 3480SOL    MW413688   3.488   3.911   5.040  0.1194 -0.3857 -0.3662
 3481SOL     OW13689   1.381   4.477   0.722 -0.2735 -0.2668  0.5277
 3481SOL    HW213690   1.415   4.405   0.775  0.3411 -0.8820 -0.6451
 3481SOL    HW313691   1.315   4.436   0.666 -0.4718  0.2376  0.3943
 3481SOL    MW413692   1.377   4.462   0.721 -0.2185 -0.2815  0.3554
 3482SOL     OW13693   2.730   2.855   4.748  0.1437  0.2696 -0.0349
 3482SOL    HW213694   2.650   2.899   4.777  0.3458  1.3260 -1.0397
 3482SOL    HW313695   2.760   2.808   4.826 -1.9691 -0.9774  0.1049
 3482SOL    MW413696   2.723   2.855   4.762 -0.1084  0.2445 -0.1490
 3483SOL     OW13697   2.435   5.757   4.696  0.2871  0.4013  0.4050
 3483SOL    HW213698   2.492   5.809   4.640  0.3951  0.3937  0.5083
 3483SOL    HW313699   2.347   5.770   4.659  0.6533 -1.9054 -1.5980
 3483SOL    MW413700   2.431   5.765   4.683  0.3497  0.0960  0.1544
 3484SOL     OW13701   4.604   3.344   0.406  0.0158  0.1408  0.5875
 3484SOL    HW213702   4.642   3.286   0.472  1.3429  0.1640 -0.1342
 3484SOL    HW313703   4.561   3.284   0.344  1.0172 -0.0648  0.0736
 3484SOL    MW413704   4.603   3.328   0.407  0.3230  0.1167  0.4245
 3485SOL     OW13705   2.262   0.663   5.068  0.2520 -0.2741 -0.1383
 3485SOL    HW213706   2.322   0.667   5.143  1.0321  0.0955 -0.7599
 3485SOL    HW313707   2.181   0.702   5.099  1.4464  2.5681 -0.2700
 3485SOL    MW413708   2.259   0.668   5.082  0.5125  0.1496 -0.2377
 3486SOL     OW13709   5.767   1.673   3.364  0.5778 -0.5334 -0.4681
 3486SOL    HW213710   5.681   1.701   3.396 -0.1465 -1.2174 -1.7233
 3486SOL    HW313711   5.787   1.594   3.415 -0.1564 -1.1147 -1.0494
 3486SOL    MW413712   5.758   1.666   3.375  0.3854 -0.7003 -0.7104
 3487SOL     OW13713   5.204   6.214   4.702 -0.3764  0.0970 -0.2849
 3487SOL    HW213714   5.218   6.162   4.781 -1.7235  0.1147 -0.0210
 3487SOL    HW313715   5.277   6.190   4.645 -0.5033 -1.4567  0.1587
 3487SOL    MW413716   5.216   6.204   4.705 -0.5708 -0.1057 -0.1915
 3488SOL     OW13717   0.542   2.269   0.686  0.2073 -0.1327  0.1569
 3488SOL    HW213718   0.493   2.303   0.611 -2.2298 -0.8492  1.3273
 3488SOL    HW313719   0.522   2.329   0.757  1.2955 -0.2947  0.6161
 3488SOL    MW413720   0.533   2.281   0.685  0.0293 -0.2486  0.3719
 3489SOL     OW13721   5.953   3.791   2.122  0.4191 -0.1160  0.2796
 3489SOL    HW213722   5.917   3.802   2.210  0.7551  1.2684  0.2551
 3489SOL    HW313723   5.951   3.878   2.083  1.6242 -0.4431 -0.5730
 3489SOL    MW413724   5.948   3.804   2.128  0.6224  0.0235  0.1639
 3490SOL     OW13725   0.637   5.670   1.569  0.5599 -0.0028  0.5415
 3490SOL    HW213726   0.559   5.622   1.598 -0.5314  0.1182 -1.9656
 3490SOL    HW313727   0.605   5.759   1.551  0.8359 -0.3744 -2.1205
 3490SOL    MW413728   0.622   5.676   1.571  0.4523 -0.0359 -0.1405
 3491SOL     OW13729   0.626   4.040   4.871  0.3156 -0.1244  0.4201
 3491SOL    HW213730   0.675   4.073   4.795  0.6263  0.5567  0.9126
 3491SOL    HW313731   0.656   3.949   4.881  1.4803  0.2779  0.7036
 3491SOL    MW413732   0.636   4.032   4.862  0.5102  0.0186  0.5225
 3492SOL     OW13733   2.943   2.109   2.447 -0.2222 -0.5559  0.0123
 3492SOL    HW213734   2.905   2.023   2.466  0.4108 -1.1844 -1.4779
 3492SOL    HW313735   3.037   2.097   2.458 -0.2006  0.2049  0.7157
 3492SOL    MW413736   2.950   2.096   2.451 -0.1359 -0.5384 -0.0915
 3493SOL     OW13737   6.172   3.761   0.518  0.2563 -0.0686 -0.1768
 3493SOL    HW213738   6.181   3.826   0.448  0.9144 -1.5890 -1.5719
 3493SOL    HW313739   6.119   3.805   0.584 -2.2038  0.7745 -2.5060
 3493SOL    MW413740   6.166   3.776   0.517  0.0185 -0.1580 -0.6682
 3494SOL     OW13741   1.648   2.681   5.087 -0.0491  0.1388  0.8986
 3494SOL    HW213742   1.682   2.743   5.152 -0.1803  0.6517  0.4782
 3494SOL    HW313743   1.561   2.658   5.119  0.4461 -0.7393  1.6758
 3494SOL    MW413744   1.641   2.686   5.100 -0.0011  0.0906  0.9457
 3495SOL     OW13745   3.741   1.356   3.542 -0.2852 -0.4380 -0.0395
 3495SOL    HW213746   3.812   1.379   3.481 -1.2538 -1.5215 -1.6648
 3495SOL    HW313747   3.779   1.286   3.596 -0.1140 -1.0901 -0.9685
 3495SOL    MW413748   3.756   1.350   3.541 -0.3904 -0.6670 -0.3765
 3496SOL     OW13749   0.801   5.315   2.642  0.1186 -0.0401  0.1961
 3496SOL    HW213750   0.718   5.279   2.674  0.0459  0.3108  0.4017
 3496SOL    HW313751   0.784   5.339   2.551  0.0725 -0.2189  0.1578
 3496SOL    MW413752   0.788   5.313   2.634  0.1029 -0.0174  0.2182
 3497SOL     OW13753   6.036   2.885   3.950  0.2848  0.5109  0.3556
 3497SOL    HW213754   6.057   2.799   3.986  0.2075 -1.1925 -3.2620
 3497SOL    HW313755   6.078   2.947   4.010  3.6970 -2.1685  1.0340
 3497SOL    MW413756   6.044   2.882   3.963  0.7248 -0.0673 -0.0322
 3498SOL     OW13757   1.950   1.598   1.030  0.2844  0.0135  0.6169
 3498SOL    HW213758   1.880   1.577   0.969  0.5277 -0.9307  0.6376
 3498SOL    HW313759   1.965   1.516   1.079  1.6635  0.0559  0.3265
 3498SOL    MW413760   1.943   1.584   1.029  0.4984 -0.1055  0.5813
 3499SOL     OW13761   0.592   1.343   5.293 -0.0608  0.2231 -0.1072
 3499SOL    HW213762   0.629   1.401   5.360  0.1898  1.7280 -1.4808
 3499SOL    HW313763   0.528   1.290   5.340  1.0467  0.2970  1.5716
 3499SOL    MW413764   0.588   1.344   5.308  0.1184  0.4314 -0.0669
 3500SOL     OW13765   0.545   3.748   1.163 -0.6097  0.7019 -0.0085
 3500SOL    HW213766   0.590   3.710   1.087 -0.7445  1.5486 -0.5270
 3500SOL    HW313767   0.511   3.672   1.210 -0.0184  0.1270 -0.4710
 3500SOL    MW413768   0.547   3.733   1.159 -0.5494  0.7377 -0.1379
 3501SOL     OW13769   1.062   5.198   0.293 -0.0285 -0.5952 -0.2995
 3501SOL    HW213770   1.075   5.122   0.349  1.9528 -0.5036 -0.5789
 3501SOL    HW313771   1.149   5.217   0.257 -1.0132  0.0180 -2.5413
 3501SOL    MW413772   1.075   5.190   0.295  0.1030 -0.5022 -0.6321
 3502SOL     OW13773   3.564   0.401   1.418  0.1569  0.3574 -0.1806
 3502SOL    HW213774   3.498   0.351   1.465  0.1647 -1.4253 -1.9757
 3502SOL    HW313775   3.514   0.457   1.358  0.0701 -3.0942 -3.7090
 3502SOL    MW413776   3.549   0.402   1.416  0.1465 -0.3332 -0.8830
 3503SOL     OW13777   2.346   3.021   4.558 -0.6330  0.5279  0.0211
 3503SOL    HW213778   2.428   3.070   4.562 -1.9793  2.9808 -0.4092
 3503SOL    HW313779   2.325   3.016   4.465  0.2817 -2.5103 -0.1404
 3503SOL    MW413780   2.354   3.027   4.547 -0.6899  0.4507 -0.0570
 3504SOL     OW13781   2.099   6.125   3.637  0.6234 -0.6014 -0.1145
 3504SOL    HW213782   2.105   6.043   3.686  0.1858 -1.3620 -1.2761
 3504SOL    HW313783   2.177   6.126   3.581  0.1543 -0.7203 -0.7947
 3504SOL    MW413784   2.110   6.114   3.636  0.5038 -0.7175 -0.3575
 3505SOL     OW13785   4.303   2.559   1.700  0.1269 -0.3162 -0.1263
 3505SOL    HW213786   4.210   2.577   1.707 -0.1477 -1.1610 -1.2292
 3505SOL    HW313787   4.316   2.479   1.750  0.7998  1.2048  2.2954
 3505SOL    MW413788   4.293   2.551   1.707  0.1795 -0.2270  0.0477
 3506SOL     OW13789   1.777   3.061   1.371 -0.0066 -0.4746  0.1033
 3506SOL    HW213790   1.816   3.123   1.433 -1.5489 -0.0242  0.6895
 3506SOL    HW313791   1.771   3.110   1.289 -0.2596 -0.1995  0.2831
 3506SOL    MW413792   1.781   3.076   1.369 -0.2434 -0.3789  0.2044
 3507SOL     OW13793   5.429   2.930   5.628 -0.0974  0.3698  0.0035
 3507SOL    HW213794   5.438   2.836   5.639  0.0066  0.1345 -1.7307
 3507SOL    HW313795   5.428   2.966   5.717  0.0906 -1.2343  0.6729
 3507SOL    MW413796   5.430   2.923   5.641 -0.0589  0.1271 -0.1370
 3508SOL     OW13797   0.120   3.046   0.682  0.3535  0.2776  0.1557
 3508SOL    HW213798   0.198   3.009   0.642  2.0814  1.3371  2.3380
 3508SOL    HW313799   0.053   2.979   0.670  1.2096 -0.2041 -2.7503
 3508SOL    MW413800   0.121   3.033   0.675  0.6944  0.3538  0.0602
 3509SOL     OW13801   6.375   2.856   5.087  0.2864  0.2732 -0.1205
 3509SOL    HW213802   6.427   2.784   5.052 -0.3187 -0.0617 -0.3418
 3509SOL    HW313803   6.438   2.927   5.102  0.8569 -0.2415 -0.0605
 3509SOL    MW413804   6.390   2.856   5.085  0.2818  0.1611 -0.1418
 3510SOL     OW13805   0.309   4.119   4.613 -0.1743  0.3638 -0.0975
 3510SOL    HW213806   0.233   4.109   4.556  0.2624  0.0662 -0.6331
 3510SOL    HW313807   0.278   4.175   4.684 -1.0766 -0.2711  0.0270
 3510SOL    MW413808   0.295   4.125   4.615 -0.2358  0.2408 -0.1517
 3511SOL     OW13809   2.945   1.244   1.024 -0.2002  0.5545  0.4828
 3511SOL    HW213810   2.955   1.181   1.095  0.6514 -1.1860 -1.1034
 3511SOL    HW313811   3.021   1.302   1.031  0.5136 -0.3450  0.3022
 3511SOL    MW413812   2.956   1.243   1.034  0.0064  0.2062  0.2497
 3512SOL     OW13813   4.998   0.582   3.240  0.2452  0.0008 -0.6191
 3512SOL    HW213814   4.933   0.541   3.296 -1.2629  0.4030 -1.9879
 3512SOL    HW313815   5.023   0.514   3.177 -2.5689  1.1097 -3.1533
 3512SOL    MW413816   4.993   0.568   3.239 -0.3251  0.2002 -1.1340
 3513SOL     OW13817   5.395   4.175   4.157  0.2383 -0.3818  0.0245
 3513SOL    HW213818   5.331   4.227   4.206  0.3472 -0.7111  0.5166
 3513SOL    HW313819   5.402   4.093   4.205  0.8408 -0.4553 -0.1758
 3513SOL    MW413820   5.387   4.171   4.170  0.3322 -0.4349  0.0630
 3514SOL     OW13821   0.930   2.787   5.973  0.1647 -0.3837  0.1413
 3514SOL    HW213822   0.980   2.818   5.897  0.8085  0.8104  1.0078
 3514SOL    HW313823   0.913   2.695   5.954  1.2588 -0.3963 -0.9543
 3514SOL    MW413824   0.935   2.779   5.960  0.3940 -0.2278  0.1111
 3515SOL     OW13825   3.935   5.330   4.150 -0.4072 -0.0711 -0.0695
 3515SOL    HW213826   3.910   5.325   4.242 -1.4062 -1.3976 -0.3675
 3515SOL    HW313827   3.851   5.334   4.103  0.0569 -0.3426 -0.9395
 3515SOL    MW413828   3.920   5.330   4.156 -0.4778 -0.2820 -0.2236
 3516SOL     OW13829   5.011   5.343   2.797 -0.0081  0.3876 -0.2459
 3516SOL    HW213830   4.927   5.328   2.753 -0.8433  0.7909  1.1679
 3516SOL    HW313831   4.988   5.385   2.880  1.4162 -1.4121  1.1485
 3516SOL    MW413832   4.997   5.346   2.802  0.0696  0.2034  0.1246
 3517SOL     OW13833   3.505   5.478   5.291  0.0559 -0.1544  0.6336
 3517SOL    HW213834   3.598   5.501   5.294  0.2418 -0.9390  2.3603
 3517SOL    HW313835   3.494   5.432   5.208  0.4922  2.5521 -1.0763
 3517SOL    MW413836   3.516   5.475   5.281  0.1380  0.0991  0.6358
 3518SOL     OW13837   0.400   0.120   0.532  0.1185  0.1014 -0.1183
 3518SOL    HW213838   0.439   0.080   0.454  0.7956 -0.7229  0.6106
 3518SOL    HW313839   0.342   0.053   0.567  0.5872  0.0709  0.6307
 3518SOL    MW413840   0.398   0.106   0.527  0.2697 -0.0114  0.0767
 3519SOL     OW13841   4.869   3.614   6.189  0.2939 -0.1538 -0.1818
 3519SOL    HW213842   4.884   3.599   6.282 -1.0869 -1.7605 -0.1628
 3519SOL    HW313843   4.936   3.678   6.163  1.5080 -0.6299  1.6159
 3519SOL    MW413844   4.880   3.621   6.198  0.2719 -0.4286  0.0579
 3520SOL     OW13845   0.362   2.195   2.188 -0.0279 -0.5446  0.3170
 3520SOL    HW213846   0.279   2.158   2.160  0.1152 -0.9323  0.3973
 3520SOL    HW313847   0.349   2.290   2.184 -0.1385 -0.5937 -0.6659
 3520SOL    MW413848   0.349   2.203   2.184 -0.0236 -0.6022  0.1979
 3521SOL     OW13849   6.287   3.136   1.785  0.3611 -0.3949  0.1236
 3521SOL    HW213850   6.212   3.161   1.839  0.2138  0.4211 -0.4346
 3521SOL    HW313851   6.256   3.144   1.695  1.4441  1.1472 -0.1600
 3521SOL    MW413852   6.273   3.140   1.780  0.4846 -0.0837  0.0125
 3522SOL     OW13853   0.019   0.846   2.603  0.3415 -0.0799  0.2385
 3522SOL    HW213854  -0.074   0.866   2.607  0.8173  2.6775 -0.7193
 3522SOL    HW313855   0.063   0.930   2.616  2.7953 -1.5460  2.5880
 3522SOL    MW413856   0.013   0.860   2.606  0.7281  0.0905  0.4221
 3523SOL     OW13857   6.381   0.964   5.344 -0.2107 -0.6515  0.1706
 3523SOL    HW213858   6.406   0.875   5.320  0.8174  0.1195 -1.8441
 3523SOL    HW313859   6.456   0.997   5.394  0.7247 -0.0329 -1.5319
 3523SOL    MW413860   6.394   0.957   5.347  0.0484 -0.4682 -0.3199
 3524SOL     OW13861   5.105   3.625   1.199  0.0360  0.2696 -0.1712
 3524SOL    HW213862   5.067   3.614   1.111  0.8437 -2.1908 -0.2965
 3524SOL    HW313863   5.035   3.599   1.259  0.5375 -1.4110 -0.2754
 3524SOL    MW413864   5.091   3.620   1.195  0.2088 -0.2768 -0.2015
 3525SOL     OW13865   3.686   5.941   6.029 -0.3114 -0.5888 -0.2969
 3525SOL    HW213866   3.635   5.953   6.109  0.0627 -1.1386  0.0300
 3525SOL    HW313867   3.774   5.972   6.053 -0.5456  0.6638 -0.9473
 3525SOL    MW413868   3.691   5.947   6.043 -0.2929 -0.4960 -0.3396
 3526SOL     OW13869   5.266   5.536   2.461  0.6161 -0.1375 -0.3394
 3526SOL    HW213870   5.177   5.569   2.454 -0.5875 -2.6678  1.5609
 3526SOL    HW313871   5.316   5.611   2.494 -0.8176  1.2606 -1.2165
 3526SOL    MW413872   5.261   5.551   2.465  0.2681 -0.2869 -0.2044
 3527SOL     OW13873   0.675   0.320   0.769  0.5560  0.2246  0.3905
 3527SOL    HW213874   0.656   0.227   0.752 -1.5640  0.6255  0.3080
 3527SOL    HW313875   0.712   0.320   0.858 -0.5865 -0.6112  0.9004
 3527SOL    MW413876   0.677   0.307   0.779  0.1255  0.1672  0.4469
 3528SOL     OW13877   5.437   1.053   0.704  0.9938  0.1594  0.0515
 3528SOL    HW213878   5.454   1.024   0.793  0.3835  0.6659  0.3414
 3528SOL    HW313879   5.480   1.139   0.698 -0.1739  0.7786  0.3224
 3528SOL    MW413880   5.445   1.061   0.715  0.7592  0.3079  0.1255
 3529SOL     OW13881   2.998   5.733   5.277  0.9042 -0.2668  0.6320
 3529SOL    HW213882   3.053   5.784   5.217 -0.9159  0.8982 -0.1338
 3529SOL    HW313883   2.996   5.645   5.240  0.8961  0.1062 -0.2624
 3529SOL    MW413884   3.005   5.728   5.264  0.6630 -0.0638  0.4129
 3530SOL     OW13885   5.064   5.828   2.017 -0.4261  0.2757 -0.1920
 3530SOL    HW213886   5.149   5.832   1.973 -0.0093  2.3678  0.6746
 3530SOL    HW313887   5.008   5.889   1.969 -0.5389  1.1157  0.9510
 3530SOL    MW413888   5.068   5.836   2.005 -0.3860  0.6626  0.0732
 3531SOL     OW13889   3.678   5.819   1.288  0.5126  0.2257 -0.4843
 3531SOL    HW213890   3.613   5.750   1.302  1.4479 -0.5775  0.0434
 3531SOL    HW313891   3.720   5.796   1.205 -0.2710  1.0852 -1.1363
 3531SOL    MW413892   3.675   5.807   1.279  0.5326  0.2331 -0.5007
 3532SOL     OW13893   3.345   6.337   1.833 -0.6634  0.5678  0.0550
 3532SOL    HW213894   3.356   6.432   1.839 -2.3677  1.0700 -2.6553
 3532SOL    HW313895   3.256   6.321   1.862 -0.1548 -0.3489  1.1847
 3532SOL    MW413896   3.335   6.348   1.837 -0.8212  0.5131 -0.1535
 3533SOL     OW13897   4.973   2.621   3.460 -0.2039  0.0330 -0.1791
 3533SOL    HW213898   4.935   2.533   3.454 -0.4841  0.1737 -0.4984
 3533SOL    HW313899   5.006   2.640   3.372 -0.3395  0.3359 -0.1663
 3533SOL    MW413900   4.973   2.612   3.447 -0.2588  0.0915 -0.2195
 3534SOL     OW13901   3.716   2.488   3.781  0.1432 -0.3310 -0.2138
 3534SOL    HW213902   3.702   2.527   3.694 -2.7721  0.0873  0.3283
 3534SOL    HW313903   3.744   2.562   3.835  1.0237 -0.3897 -0.5811
 3534SOL    MW413904   3.718   2.503   3.777 -0.1253 -0.2836 -0.1908
 3535SOL     OW13905   5.412   6.406   5.904  0.1151 -0.0006  0.3108
 3535SOL    HW213906   5.331   6.367   5.937  0.8906 -0.0356  2.3386
 3535SOL    HW313907   5.478   6.337   5.915  0.7068  0.5131  0.0752
 3535SOL    MW413908   5.410   6.391   5.910  0.2955  0.0626  0.5473
 3536SOL     OW13909   5.906   2.117   3.646 -0.0339 -0.2176  0.4012
 3536SOL    HW213910   5.878   2.065   3.571 -1.2883  0.9840 -0.0115
 3536SOL    HW313911   5.829   2.122   3.702  0.2422  0.6892  0.7157
 3536SOL    MW413912   5.893   2.111   3.643 -0.1630  0.0605  0.3882
 3537SOL     OW13913   3.255   5.202   2.040  0.0384  0.1570  0.7403
 3537SOL    HW213914   3.273   5.209   1.946 -1.4549 -0.4965  0.3658
 3537SOL    HW313915   3.196   5.275   2.059  1.4391  1.1268  1.5033
 3537SOL    MW413916   3.249   5.213   2.030  0.0262  0.1988  0.7916
 3538SOL     OW13917   1.690   4.301   2.482  0.1106  0.4658 -0.3451
 3538SOL    HW213918   1.757   4.368   2.490  1.5419 -1.1469  2.4343
 3538SOL    HW313919   1.695   4.273   2.391 -0.1376  3.5758 -1.4561
 3538SOL    MW413920   1.699   4.306   2.471  0.2667  0.6634 -0.1249
 3539SOL     OW13921   4.806   5.425   3.360  0.4877 -0.3672  0.1244
 3539SOL    HW213922   4.780   5.417   3.452 -1.2195 -1.1812 -0.3818
 3539SOL    HW313923   4.896   5.393   3.358 -0.4921 -3.5427  1.0412
 3539SOL    MW413924   4.814   5.420   3.372  0.1332 -0.8936  0.1786
 3540SOL     OW13925   4.042   4.768   5.783 -0.2268 -0.3376 -0.0054
 3540SOL    HW213926   4.132   4.802   5.781  1.0716 -3.4550 -0.7775
 3540SOL    HW313927   4.001   4.804   5.704  1.0664 -0.6058 -0.8219
 3540SOL    MW413928   4.049   4.777   5.773  0.1151 -0.7843 -0.2150
 3541SOL     OW13929   2.162   2.843   1.562 -0.3228  0.6790  0.5470
 3541SOL    HW213930   2.157   2.937   1.547 -2.2679  0.6269  0.5978
 3541SOL    HW313931   2.202   2.808   1.482 -1.0314  1.4101 -0.1439
 3541SOL    MW413932   2.166   2.851   1.549 -0.6729  0.7686  0.4626
 3542SOL     OW13933   5.173   0.212   2.416  0.2224  0.5520  0.3260
 3542SOL    HW213934   5.082   0.187   2.432  0.1773 -0.2348 -0.9834
 3542SOL    HW313935   5.172   0.259   2.332  1.0725  0.0809  0.0286
 3542SOL    MW413936   5.161   0.215   2.407  0.3286  0.3860  0.1140
 3543SOL     OW13937   4.951   2.412   4.134 -0.3830 -0.4506 -0.1528
 3543SOL    HW213938   4.985   2.366   4.211  0.7610 -1.9777 -1.4812
 3543SOL    HW313939   4.948   2.504   4.160  0.6265 -0.8366  1.4954
 3543SOL    MW413940   4.955   2.418   4.147 -0.0989 -0.7030 -0.1106
 3544SOL     OW13941   3.488   0.533   5.849 -0.1711  0.0941 -0.0704
 3544SOL    HW213942   3.400   0.533   5.887 -0.5392  1.0940 -0.8917
 3544SOL    HW313943   3.545   0.503   5.921 -1.2004 -0.8645  0.3751
 3544SOL    MW413944   3.484   0.529   5.864 -0.3555  0.0995 -0.1200
 3545SOL     OW13945   5.692   4.370   3.657 -0.3227  0.3341  0.2561
 3545SOL    HW213946   5.766   4.320   3.689 -0.4744 -0.8694 -1.1336
 3545SOL    HW313947   5.701   4.367   3.561 -1.7687  0.7492  0.0816
 3545SOL    MW413948   5.703   4.363   3.648 -0.5335  0.2301  0.0497
 3546SOL     OW13949   0.465   3.632   5.906 -0.1866 -0.4862  0.2742
 3546SOL    HW213950   0.452   3.604   5.815  1.4035  0.8265 -0.4177
 3546SOL    HW313951   0.511   3.716   5.898 -1.4927  0.4828  2.2860
 3546SOL    MW413952   0.469   3.639   5.893 -0.1491 -0.1852  0.4483
 3547SOL     OW13953   3.382   1.853   6.072  0.8411 -0.1007  0.0948
 3547SOL    HW213954   3.336   1.932   6.101 -0.9583 -0.7337 -0.8780
 3547SOL    HW313955   3.423   1.879   5.990 -0.6876 -0.4259 -0.8140
 3547SOL    MW413956   3.381   1.867   6.065  0.4020 -0.2271 -0.1534
 3548SOL     OW13957   3.264   6.345   4.058  0.3705  0.2014 -0.0548
 3548SOL    HW213958   3.240   6.275   3.997 -0.6015 -2.2531  2.8847
 3548SOL    HW313959   3.342   6.312   4.103 -0.6884  0.4385  2.1048
 3548SOL    MW413960   3.271   6.331   4.056  0.1025 -0.0911  0.6179
 3549SOL     OW13961   2.095   2.315   6.411 -0.3340  0.2370 -0.0652
 3549SOL    HW213962   2.110   2.347   6.322  2.4767  0.3715  0.3638
 3549SOL    HW313963   2.057   2.228   6.399  0.1692  0.1693 -1.4200
 3549SOL    MW413964   2.092   2.308   6.397  0.1032  0.2458 -0.1873
 3550SOL     OW13965   1.728   2.397   1.228 -0.1765 -0.2332 -0.3043
 3550SOL    HW213966   1.649   2.451   1.220 -0.2835 -0.5192 -1.4679
 3550SOL    HW313967   1.749   2.373   1.137  1.9595  0.8384 -0.1466
 3550SOL    MW413968   1.720   2.401   1.215  0.0912 -0.1295 -0.4370
 3551SOL     OW13969   4.781   3.161   5.027 -0.2466  0.0534  0.2919
 3551SOL    HW213970   4.789   3.138   4.934  2.8179 -2.4109  0.9919
 3551SOL    HW313971   4.868   3.191   5.052 -1.0776  0.9215  2.3565
 3551SOL    MW413972   4.793   3.162   5.018  0.0481 -0.1572  0.6566
 3552SOL     OW13973   3.015   6.337   5.392 -0.1889 -0.0918 -0.6636
 3552SOL    HW213974   2.976   6.404   5.337 -0.7719 -0.7029 -1.0077
 3552SOL    HW313975   2.949   6.268   5.397  0.4154 -0.6673 -0.3622
 3552SOL    MW413976   3.002   6.337   5.386 -0.1861 -0.2484 -0.6693
 3553SOL     OW13977   0.735   6.210   0.618  0.4520 -0.0749 -0.2488
 3553SOL    HW213978   0.704   6.202   0.708  1.1850  0.1325  0.0307
 3553SOL    HW313979   0.725   6.122   0.581  1.7842 -0.6118  0.5883
 3553SOL    MW413980   0.729   6.197   0.625  0.7245 -0.1184 -0.1015
 3554SOL     OW13981   0.524   1.068   0.187  0.2395 -0.2290 -0.9991
 3554SOL    HW213982   0.610   1.103   0.165  1.0683  0.0722  2.2357
 3554SOL    HW313983   0.542   0.984   0.230 -0.9230  0.3286  0.6891
 3554SOL    MW413984   0.538   1.062   0.190  0.1955 -0.1157 -0.3496
 3555SOL     OW13985   0.987   5.561   2.996 -0.1336 -0.1111 -0.3790
 3555SOL    HW213986   1.061   5.617   3.019 -0.6316  0.1895  0.5747
 3555SOL    HW313987   1.000   5.540   2.903 -0.5513  2.6108 -1.1533
 3555SOL    MW413988   0.998   5.566   2.987 -0.2544  0.2876 -0.3553
 3556SOL     OW13989   3.844   2.263   0.465 -0.3664  0.6270 -0.2099
 3556SOL    HW213990   3.912   2.295   0.524 -1.2759 -0.2092  1.3400
 3556SOL    HW313991   3.892   2.225   0.391  0.8564  0.0253  0.8616
 3556SOL    MW413992   3.859   2.262   0.463 -0.3251  0.4373  0.1360
 3557SOL     OW13993   1.047   2.788   4.929  0.2161  0.0334 -0.0898
 3557SOL    HW213994   0.972   2.838   4.964  1.0318  0.0574  1.7409
 3557SOL    HW313995   1.032   2.786   4.835 -0.4190  2.8418 -0.1427
 3557SOL    MW413996   1.035   2.795   4.921  0.2400  0.4071  0.1448
 3558SOL     OW13997   0.634   3.499   3.227  0.7911 -0.0296 -0.0800
 3558SOL    HW213998   0.683   3.548   3.294  1.4788  0.0794 -0.6485
 3558SOL    HW313999   0.565   3.454   3.276  1.7126 -0.5207  0.8091
 3558SOL    MW414000   0.632   3.500   3.243  1.0034 -0.0800 -0.0377
 3559SOL     OW14001   4.885   3.610   5.603  0.0549  0.0767  0.1003
 3559SOL    HW214002   4.857   3.552   5.532 -2.0013  0.7587  0.2925
 3559SOL    HW314003   4.973   3.637   5.578 -0.4820  0.0558 -2.0714
 3559SOL    MW414004   4.893   3.606   5.590 -0.2872  0.1640 -0.1609
 3560SOL     OW14005   3.102   2.495   2.238  0.2439  0.2163 -0.4119
 3560SOL    HW214006   3.157   2.424   2.203 -0.5581  0.7198 -2.8142
 3560SOL    HW314007   3.052   2.453   2.308  1.6821 -0.9039  0.0178
 3560SOL    MW414008   3.103   2.480   2.243  0.3279  0.1349 -0.6721
 3561SOL     OW14009   0.716   1.688   4.397  0.1750  0.2068 -0.3026
 3561SOL    HW214010   0.757   1.678   4.483  0.9762 -1.5412 -0.8341
 3561SOL    HW314011   0.670   1.772   4.401  1.8842  1.1261  1.1227
 3561SOL    MW414012   0.715   1.698   4.409  0.5062  0.0975 -0.1847
 3562SOL     OW14013   2.953   3.050   2.485  0.4654 -0.4167 -0.1355
 3562SOL    HW214014   2.898   3.037   2.562  0.5062  0.5761  0.0717
 3562SOL    HW314015   2.908   3.002   2.415 -1.0097  0.8604 -0.1151
 3562SOL    MW414016   2.940   3.042   2.486  0.2762 -0.1172 -0.1055
 3563SOL     OW14017   5.246   0.546   1.036 -0.2290 -0.0976  0.2418
 3563SOL    HW214018   5.203   0.557   0.951 -0.3782 -1.8708  0.0525
 3563SOL    HW314019   5.318   0.486   1.019 -0.8625 -1.2777  1.5359
 3563SOL    MW414020   5.249   0.540   1.022 -0.3322 -0.4873  0.3876
 3564SOL     OW14021   2.429   3.198   0.210 -0.2708 -0.0888 -0.0826
 3564SOL    HW214022   2.483   3.275   0.193 -2.1714  1.3392  0.0400
 3564SOL    HW314023   2.435   3.185   0.305  0.0652 -0.0863 -0.1046
 3564SOL    MW414024   2.437   3.206   0.220 -0.4772  0.0999 -0.0693
 3565SOL     OW14025   4.576   2.417   5.059 -0.3239  0.6886  0.3993
 3565SOL    HW214026   4.668   2.411   5.082 -0.1625 -1.2037 -0.5843
 3565SOL    HW314027   4.537   2.466   5.132  0.8609 -1.5388  2.6896
 3565SOL    MW414028   4.583   2.423   5.072 -0.1463  0.1451  0.5717
 3566SOL     OW14029   1.029   4.604   6.093 -0.7452 -0.4173  0.1214
 3566SOL    HW214030   0.935   4.613   6.110 -0.9132 -0.9121 -0.4761
 3566SOL    HW314031   1.041   4.511   6.073  0.3397 -0.9482  2.8021
 3566SOL    MW414032   1.018   4.593   6.092 -0.6242 -0.5526  0.3962
 3567SOL     OW14033   0.834   6.060   2.530  0.2700 -0.7802 -0.0997
 3567SOL    HW214034   0.781   6.035   2.605  0.5968 -1.0927  0.0304
 3567SOL    HW314035   0.923   6.069   2.565 -0.0883  2.6091  0.3431
 3567SOL    MW414036   0.839   6.058   2.544  0.2659 -0.3743 -0.0241
 3568SOL     OW14037   5.494   1.050   5.612  0.1551 -0.1420  0.2143
 3568SOL    HW214038   5.457   0.979   5.665 -1.9998 -0.0927 -1.0795
 3568SOL    HW314039   5.526   1.007   5.533  1.7846 -0.0195  0.7883
 3568SOL    MW414040   5.493   1.035   5.609  0.0858 -0.1193  0.1194
 3569SOL     OW14041   1.178   6.247   4.260  0.0271  0.2004  0.2727
 3569SOL    HW214042   1.176   6.315   4.193 -2.4695 -1.1572 -1.1821
 3569SOL    HW314043   1.155   6.292   4.341 -1.3965  1.1940 -0.6280
 3569SOL    MW414044   1.174   6.262   4.262 -0.4901  0.1524 -0.0380
 3570SOL     OW14045   3.303   1.052   5.963  0.1037  0.0499  0.0831
 3570SOL    HW214046   3.247   0.974   5.959 -0.0535  0.2162 -2.0837
 3570SOL    HW314047   3.328   1.059   6.056 -0.4707 -2.1362  0.4548
 3570SOL    MW414048   3.299   1.043   5.975  0.0072 -0.2166 -0.1537
 3571SOL     OW14049   1.237   0.419   4.048 -0.4858  0.4270  0.0994
 3571SOL    HW214050   1.235   0.330   4.011  0.5734  1.5218 -2.9674
 3571SOL    HW314051   1.325   0.427   4.085 -0.3001  0.4374 -0.3369
 3571SOL    MW414052   1.248   0.408   4.048 -0.3215  0.5728 -0.3628
 3572SOL     OW14053   3.197   4.945   0.063  0.5759 -0.9985  0.3484
 3572SOL    HW214054   3.155   5.027   0.035  0.8726 -1.7266 -2.5681
 3572SOL    HW314055   3.262   4.972   0.127 -0.2617  0.8677  0.4808
 3572SOL    MW414056   3.200   4.959   0.068  0.5045 -0.8483 -0.0189
 3573SOL     OW14057   4.317   4.891   5.699 -0.0447  0.4012 -0.7992
 3573SOL    HW214058   4.278   4.932   5.622 -0.2326 -1.2676 -1.6590
 3573SOL    HW314059   4.319   4.959   5.765  0.2693  1.9436 -2.3309
 3573SOL    MW414060   4.312   4.905   5.697 -0.0281  0.3845 -1.1147
 3574SOL     OW14061   4.999   2.045   4.210  0.3755  0.2460  0.4183
 3574SOL    HW214062   4.916   2.070   4.170  0.1078 -2.2683 -0.8198
 3574SOL    HW314063   5.050   2.008   4.138  0.8253 -2.2618  1.9171
 3574SOL    MW414064   4.994   2.043   4.195  0.3995 -0.4166  0.4527
 3575SOL     OW14065   4.789   0.055   2.980  0.4852  0.3357 -0.1259
 3575SOL    HW214066   4.760  -0.018   2.926  0.3911 -0.8314  1.4428
 3575SOL    HW314067   4.859   0.019   3.034  0.0340  1.2302  1.0990
 3575SOL    MW414068   4.794   0.041   2.980  0.4133  0.2997  0.2427
 3576SOL     OW14069   3.666   5.633   2.565  0.2098 -0.1335 -0.5244
 3576SOL    HW214070   3.606   5.684   2.511 -1.0921 -0.3690  0.6562
 3576SOL    HW314071   3.708   5.573   2.504  1.3660  1.8977 -1.8668
 3576SOL    MW414072   3.664   5.632   2.550  0.1906  0.1034 -0.5457
 3577SOL     OW14073   2.078   2.905   3.110 -0.3528 -0.5532  0.6787
 3577SOL    HW214074   2.013   2.898   3.180 -0.7371  1.2105  0.5289
 3577SOL    HW314075   2.134   2.978   3.137 -1.0340  0.7359 -1.2417
 3577SOL    MW414076   2.077   2.914   3.123 -0.4934 -0.1505  0.4056
 3578SOL     OW14077   0.852   4.164   0.093  0.2217 -0.4018  0.0978
 3578SOL    HW214078   0.834   4.110   0.016  0.6507 -0.7955  0.2666
 3578SOL    HW314079   0.893   4.243   0.059  0.4328 -0.5865 -0.0823
 3578SOL    MW414080   0.855   4.167   0.079  0.3061 -0.4781  0.0963
 3579SOL     OW14081   0.611   1.803   1.878  0.5154  0.4529  0.2327
 3579SOL    HW214082   0.560   1.883   1.866  0.6394  0.4202 -0.5267
 3579SOL    HW314083   0.684   1.811   1.817  0.6098 -0.1774  0.2565
 3579SOL    MW414084   0.614   1.815   1.868  0.5442  0.3654  0.1357
 3580SOL     OW14085   3.174   4.236   1.369  0.7089 -0.2751 -0.4563
 3580SOL    HW214086   3.149   4.144   1.372  0.3876 -0.2335 -1.5723
 3580SOL    HW314087   3.270   4.235   1.376  0.6227 -0.5962  0.9397
 3580SOL    MW414088   3.184   4.224   1.370  0.6551 -0.3120 -0.4194
 3581SOL     OW14089   5.565   6.042   5.219  0.2726  0.0146 -0.3292
 3581SOL    HW214090   5.591   6.134   5.225 -0.5164  0.2464 -0.3618
 3581SOL    HW314091   5.575   6.021   5.126  2.9661 -0.7145  0.0374
 3581SOL    MW414092   5.570   6.052   5.207  0.5239 -0.0510 -0.2851
 3582SOL     OW14093   0.722   0.710   0.674  0.4224 -0.3805  0.3224
 3582SOL    HW214094   0.635   0.750   0.672  1.3707  1.7924 -0.5167
 3582SOL    HW314095   0.727   0.658   0.594  0.3002  0.4562 -0.2385
 3582SOL    MW414096   0.711   0.708   0.663  0.5314  0.0166  0.1377
 3583SOL     OW14097   4.083   5.904   5.436 -0.1255 -0.1464  0.2352
 3583SOL    HW214098   4.166   5.890   5.391 -0.7270 -0.8355 -0.7008
 3583SOL    HW314099   4.092   5.856   5.518  0.6461  0.3668  0.4703
 3583SOL    MW414100   4.095   5.896   5.441 -0.1031 -0.1696  0.1428
 3584SOL     OW14101   5.252   5.510   3.343  0.8428 -0.3256  0.3896
 3584SOL    HW214102   5.232   5.575   3.275  0.3197 -0.5379  0.3300
 3584SOL    HW314103   5.203   5.541   3.420 -1.7023 -2.0488 -0.3818
 3584SOL    MW414104   5.243   5.523   3.344  0.4380 -0.5809  0.2800
 3585SOL     OW14105   2.790   0.938   5.974 -0.1474  0.1933  0.1556
 3585SOL    HW214106   2.737   0.953   6.052  0.4503  1.0478  0.4153
 3585SOL    HW314107   2.731   0.954   5.901 -1.0280 -1.7455  0.3970
 3585SOL    MW414108   2.776   0.942   5.974 -0.1847  0.0502  0.2217
 3586SOL     OW14109   3.830   3.707   2.803 -0.2218 -0.1960 -0.1292
 3586SOL    HW214110   3.814   3.801   2.797  0.3154  0.0026  1.1290
 3586SOL    HW314111   3.847   3.680   2.713  1.5336  1.2873 -0.3074
 3586SOL    MW414112   3.830   3.716   2.790  0.0807  0.0259  0.0133
 3587SOL     OW14113   5.299   4.852   2.173 -0.5538 -0.7230  0.1749
 3587SOL    HW214114   5.236   4.813   2.112 -0.0462 -0.0597 -0.8078
 3587SOL    HW314115   5.362   4.782   2.190 -1.2349 -1.2158  0.7294
 3587SOL    MW414116   5.299   4.838   2.167 -0.5767 -0.7005  0.1184
 3588SOL     OW14117   3.173   3.857   2.991  0.5449  0.1372  0.4551
 3588SOL    HW214118   3.162   3.774   2.944 -0.6387  0.0333  0.8790
 3588SOL    HW314119   3.212   3.832   3.075  0.5958  0.0570  0.4078
 3588SOL    MW414120   3.177   3.843   2.996  0.3955  0.1129  0.5048
 3589SOL     OW14121   2.010   0.535   5.321 -0.3351  0.2432  0.2034
 3589SOL    HW214122   1.926   0.499   5.348  0.2972 -0.0337  1.9302
 3589SOL    HW314123   2.028   0.604   5.384  1.5258 -0.8630  0.9515
 3589SOL    MW414124   2.001   0.540   5.333 -0.0061  0.0607  0.5299
 3590SOL     OW14125   4.258   3.695   6.290 -0.1568  0.1599 -0.7782
 3590SOL    HW214126   4.298   3.754   6.225 -0.7555  0.3123 -1.0168
 3590SOL    HW314127   4.164   3.713   6.284 -0.2623 -0.1754 -0.2080
 3590SOL    MW414128   4.251   3.705   6.280 -0.2497  0.1357 -0.7345
 3591SOL     OW14129   4.706   4.559   0.737  0.3534 -0.0808  0.6294
 3591SOL    HW214130   4.627   4.520   0.699  0.7268 -0.8247  0.5959
 3591SOL    HW314131   4.757   4.588   0.662  0.9194 -1.2115  0.5639
 3591SOL    MW414132   4.702   4.558   0.722  0.4773 -0.3282  0.6163
 3592SOL     OW14133   1.385   2.148   5.733 -0.3661 -0.0926 -0.0620
 3592SOL    HW214134   1.302   2.148   5.781  0.0589 -0.7156  0.6915
 3592SOL    HW314135   1.444   2.201   5.787 -0.0046 -0.4315 -0.1239
 3592SOL    MW414136   1.382   2.155   5.746 -0.2623 -0.2195  0.0293
 3593SOL     OW14137   2.540   1.888   2.485 -0.2549 -0.4700 -0.1402
 3593SOL    HW214138   2.628   1.887   2.446 -0.4655  1.5553 -0.7472
 3593SOL    HW314139   2.481   1.903   2.411 -0.7999  1.7754  0.6910
 3593SOL    MW414140   2.544   1.890   2.470 -0.3546  0.0935 -0.1106
 3594SOL     OW14141   0.961   1.654   3.345 -0.2290 -0.1964 -0.0331
 3594SOL    HW214142   0.962   1.574   3.399  3.7991 -0.8802 -0.8321
 3594SOL    HW314143   0.913   1.628   3.266 -1.0757 -1.0483  0.7331
 3594SOL    MW414144   0.955   1.640   3.342  0.1908 -0.3990 -0.0374
 3595SOL     OW14145   5.204   1.609   0.578  0.1842  0.2723 -0.3436
 3595SOL    HW214146   5.171   1.531   0.533  1.5542 -0.8443  0.5069
 3595SOL    HW314147   5.293   1.619   0.544  1.5444 -1.0348  2.5166
 3595SOL    MW414148   5.212   1.600   0.567  0.5444 -0.0474  0.1460
 3596SOL     OW14149   3.660   4.540   4.340  0.7189  0.1299 -0.1247
 3596SOL    HW214150   3.628   4.460   4.381 -0.7532  0.7514  0.0006
 3596SOL    HW314151   3.733   4.568   4.395 -0.6511  0.4805  1.5900
 3596SOL    MW414152   3.665   4.533   4.352  0.3439  0.2582  0.1181
 3597SOL     OW14153   4.804   2.607   5.882  0.3336 -0.3030 -0.0843
 3597SOL    HW214154   4.809   2.651   5.966 -1.0408 -1.0450  0.4288
 3597SOL    HW314155   4.740   2.657   5.832 -0.9788 -1.4543  0.3776
 3597SOL    MW414156   4.796   2.619   5.886 -0.0209 -0.5528  0.0443
 3598SOL     OW14157   1.020   5.165   4.284  0.0581 -0.2457 -0.0028
 3598SOL    HW214158   1.067   5.239   4.322  1.5302 -1.8339  1.4604
 3598SOL    HW314159   1.015   5.100   4.355 -1.8040 -1.3047 -1.0074
 3598SOL    MW414160   1.025   5.166   4.299  0.0067 -0.5949  0.0577
 3599SOL     OW14161   4.186   5.145   1.350 -0.3978 -0.5418 -0.4067
 3599SOL    HW214162   4.102   5.159   1.307 -0.0041 -0.3868 -1.1423
 3599SOL    HW314163   4.251   5.167   1.284  0.3097  3.1361  1.2486
 3599SOL    MW414164   4.184   5.150   1.336 -0.2525 -0.0361 -0.2853
 3600SOL     OW14165   0.212   4.601   0.001  0.9187  0.1294 -0.2830
 3600SOL    HW214166   0.144   4.649  -0.046  0.1760  0.8739  1.4603
 3600SOL    HW314167   0.292   4.652  -0.012  0.1781  1.8503  1.3907
 3600SOL    MW414168   0.214   4.614  -0.007  0.7230  0.4546  0.1678
 3601SOL     OW14169   3.647   3.861   4.046  0.2903 -0.4908  0.0672
 3601SOL    HW214170   3.617   3.951   4.045 -0.9827 -0.8141  2.2263
 3601SOL    HW314171   3.715   3.859   4.114  1.4769 -0.8770 -1.0719
 3601SOL    MW414172   3.652   3.873   4.055  0.2789 -0.5844  0.2018
 3602SOL     OW14173   0.718   2.629   1.453 -0.7747  0.0370 -0.4427
 3602SOL    HW214174   0.807   2.623   1.420 -0.6570 -0.5458 -0.0384
 3602SOL    HW314175   0.672   2.556   1.411 -1.1827  0.6070 -1.0062
 3602SOL    MW414176   0.723   2.618   1.443 -0.8130  0.0353 -0.4637
 3603SOL     OW14177   5.409   3.834   5.951 -0.3634 -0.2891 -0.1010
 3603SOL    HW214178   5.443   3.803   6.035  3.1204  1.4699 -0.6755
 3603SOL    HW314179   5.386   3.925   5.967  1.8326  0.5533 -1.2846
 3603SOL    MW414180   5.411   3.842   5.964  0.3860  0.0541 -0.3329
 3604SOL     OW14181   3.405   3.389   5.940  0.4388 -0.2429 -0.0825
 3604SOL    HW214182   3.476   3.329   5.919 -0.4772 -1.3645 -0.1067
 3604SOL    HW314183   3.446   3.459   5.991  1.8855  0.1574 -1.7098
 3604SOL    MW414184   3.420   3.390   5.944  0.5088 -0.3381 -0.3004
 3605SOL     OW14185   2.411   5.087   3.565  0.2390 -0.5346  0.5333
 3605SOL    HW214186   2.432   5.143   3.490 -0.1323  0.6249  1.2736
 3605SOL    HW314187   2.324   5.115   3.593  0.5759 -0.6155  1.7042
 3605SOL    MW414188   2.402   5.098   3.559  0.2344 -0.3923  0.7854
 3606SOL     OW14189   2.290   5.901   3.012 -0.3975 -0.1815  0.5069
 3606SOL    HW214190   2.341   5.911   3.092 -0.7365  0.6099  0.6377
 3606SOL    HW314191   2.248   5.816   3.020  1.2412 -1.0493  0.1925
 3606SOL    MW414192   2.291   5.891   3.023 -0.2260 -0.1916  0.4827
 3607SOL     OW14193   3.859   3.577   2.518  0.2312 -0.1655  0.3520
 3607SOL    HW214194   3.952   3.584   2.495  0.3102 -1.5425  0.1631
 3607SOL    HW314195   3.813   3.582   2.434  0.0268  1.7884  0.5522
 3607SOL    MW414196   3.865   3.578   2.504  0.2147 -0.0894  0.3535
 3608SOL     OW14197   1.632   0.086   4.108  0.1059  0.3395 -0.2814
 3608SOL    HW214198   1.683   0.051   4.181  0.2030 -1.3239 -1.0830
 3608SOL    HW314199   1.688   0.074   4.032 -0.8839 -0.1145 -0.9526
 3608SOL    MW414200   1.646   0.079   4.108 -0.0119  0.0601 -0.4757
 3609SOL     OW14201   0.545   6.084   3.127 -0.1486 -0.5013 -0.1060
 3609SOL    HW214202   0.590   6.158   3.087 -1.1434 -1.8156 -4.1498
 3609SOL    HW314203   0.461   6.120   3.156  0.1503  0.3257 -0.2467
 3609SOL    MW414204   0.540   6.098   3.126 -0.2404 -0.5656 -0.6581
 3610SOL     OW14205   1.619   4.800   5.297 -0.6475  0.2291 -0.0507
 3610SOL    HW214206   1.650   4.890   5.296  0.9134 -0.2743 -0.4551
 3610SOL    HW314207   1.663   4.760   5.372 -1.3064 -0.2033  0.1169
 3610SOL    MW414208   1.629   4.807   5.307 -0.5285  0.1056 -0.0819
 3611SOL     OW14209   4.395   3.819   2.225 -0.1369  0.2902 -0.5711
 3611SOL    HW214210   4.426   3.866   2.302  1.9926 -0.7354 -0.7507
 3611SOL    HW314211   4.344   3.746   2.261  0.0224  0.3691 -0.1777
 3611SOL    MW414212   4.392   3.816   2.240  0.1650  0.1653 -0.5429
 3612SOL     OW14213   6.121   5.886   6.122  0.4037  0.1606 -0.0193
 3612SOL    HW214214   6.193   5.877   6.185 -0.4503  1.3460  1.1926
 3612SOL    HW314215   6.044   5.858   6.171 -0.5071  2.4672 -0.0124
 3612SOL    MW414216   6.120   5.881   6.137  0.1709  0.6213  0.1415
 3613SOL     OW14217   3.879   2.896   4.604  0.0157  0.1084 -0.1437
 3613SOL    HW214218   3.906   2.954   4.533 -1.2153  1.0158  0.0963
 3613SOL    HW314219   3.792   2.865   4.579 -0.4744  0.5084  0.9861
 3613SOL    MW414220   3.871   2.900   4.591 -0.2113  0.2809  0.0370
 3614SOL     OW14221   5.179   2.355   1.240 -0.5431  0.6245 -0.0793
 3614SOL    HW214222   5.085   2.361   1.259 -1.3280 -1.2197 -2.8200
 3614SOL    HW314223   5.199   2.261   1.248  0.5425  0.6980 -1.5061
 3614SOL    MW414224   5.169   2.343   1.244 -0.5034  0.3909 -0.6291
 3615SOL     OW14225   0.612   3.634   1.578  0.0728 -0.4646  0.0988
 3615SOL    HW214226   0.647   3.627   1.489 -1.6254 -1.0490 -0.5603
 3615SOL    HW314227   0.684   3.607   1.634  1.2387  0.0959 -1.0798
 3615SOL    MW414228   0.626   3.629   1.574  0.0026 -0.4677 -0.1436
 3616SOL     OW14229   2.794   4.303   4.529 -0.1985 -0.1935  0.3581
 3616SOL    HW214230   2.754   4.384   4.559 -0.7957 -1.2253  2.5423
 3616SOL    HW314231   2.848   4.329   4.454 -1.3122  1.9915  0.2388
 3616SOL    MW414232   2.796   4.317   4.523 -0.4242 -0.0413  0.6306
 3617SOL     OW14233   2.173   3.667   3.276 -0.6341 -0.6546  0.7259
 3617SOL    HW214234   2.080   3.655   3.260 -0.6311 -0.4039  0.5198
 3617SOL    HW314235   2.216   3.604   3.217 -0.5589  1.3372 -1.4731
 3617SOL    MW414236   2.167   3.657   3.266 -0.6238 -0.3587  0.4086
 3618SOL     OW14237   6.252   4.746   2.820  0.1875 -0.5321  0.4709
 3618SOL    HW214238   6.187   4.788   2.875 -0.3794 -1.1799  0.3041
 3618SOL    HW314239   6.336   4.773   2.857 -0.1340  1.1693  0.0615
 3618SOL    MW414240   6.255   4.755   2.832  0.0703 -0.3931  0.3949
 3619SOL     OW14241   1.318   4.361   2.187 -0.4384  0.5924  0.1153
 3619SOL    HW214242   1.395   4.352   2.131 -0.9038  0.7825 -0.5697
 3619SOL    HW314243   1.331   4.445   2.232  0.0964  0.2830  0.5583
 3619SOL    MW414244   1.330   4.371   2.186 -0.4292  0.5766  0.0833
 3620SOL     OW14245   1.295   4.438   5.658 -0.0296  0.0793  0.4760
 3620SOL    HW214246   1.303   4.383   5.580 -0.4489 -0.2129  0.6350
 3620SOL    HW314247   1.222   4.400   5.706 -0.2852  0.7442  0.6210
 3620SOL    MW414248   1.286   4.426   5.654 -0.1187  0.1285  0.5161
 3621SOL     OW14249   5.835   6.251   0.908 -0.2814 -0.2007 -0.4705
 3621SOL    HW214250   5.910   6.269   0.851 -0.3122  0.6682 -0.2512
 3621SOL    HW314251   5.857   6.293   0.991 -0.0323 -1.8572  0.3360
 3621SOL    MW414252   5.848   6.259   0.911 -0.2526 -0.3046 -0.3351
 3622SOL     OW14253   3.912   5.667   6.102 -0.1866 -0.1122  0.0540
 3622SOL    HW214254   3.817   5.665   6.095 -0.1567  0.3774 -0.6180
 3622SOL    HW314255   3.943   5.637   6.016  0.2459  1.1429 -0.2518
 3622SOL    MW414256   3.904   5.663   6.090 -0.1256  0.1180 -0.0750
 3623SOL     OW14257   5.111   2.595   2.904  0.3615 -0.5028 -0.1957
 3623SOL    HW214258   5.072   2.540   2.836 -1.0308  0.4435 -0.2091
 3623SOL    HW314259   5.078   2.683   2.884  1.6242  0.1399  0.4860
 3623SOL    MW414260   5.101   2.599   2.892  0.3444 -0.2932 -0.1075
 3624SOL     OW14261   4.697   3.715   4.451 -0.2630  0.3013 -0.1107
 3624SOL    HW214262   4.604   3.707   4.428  0.6704 -1.6991 -4.2987
 3624SOL    HW314263   4.729   3.785   4.394  1.1106 -0.1740  0.0601
 3624SOL    MW414264   4.689   3.723   4.440  0.0414 -0.0254 -0.6407
 3625SOL     OW14265   4.167   1.715   5.664 -0.1402  0.9438  0.2125
 3625SOL    HW214266   4.216   1.771   5.724 -0.5143 -0.3559  1.8182
 3625SOL    HW314267   4.197   1.626   5.685 -0.4466  0.4304 -1.4059
 3625SOL    MW414268   4.177   1.711   5.675 -0.2300  0.7046  0.2108
 3626SOL     OW14269   1.129   0.167   3.468 -0.3533 -0.3751 -0.4163
 3626SOL    HW214270   1.159   0.236   3.409 -1.4329  0.5712  0.0967
 3626SOL    HW314271   1.077   0.213   3.534  0.7509 -1.4319  1.2383
 3626SOL    MW414272   1.126   0.182   3.469 -0.3501 -0.3897 -0.1303
 3627SOL     OW14273   6.061   3.401   4.294 -0.2329  0.0866  0.7397
 3627SOL    HW214274   6.003   3.412   4.218 -0.8162  1.0332  1.2961
 3627SOL    HW314275   6.098   3.488   4.309  1.4939 -0.5499  0.2934
 3627SOL    MW414276   6.058   3.414   4.286 -0.0820  0.1275  0.7542
 3628SOL     OW14277   3.645   4.396   6.151  0.2039  0.2424 -0.3220
 3628SOL    HW214278   3.681   4.413   6.237  0.1521  3.1027 -0.7557
 3628SOL    HW314279   3.596   4.475   6.129 -3.0120 -1.8365 -1.4416
 3628SOL    MW414280   3.643   4.409   6.159 -0.2272  0.3455 -0.5269
 3629SOL     OW14281   4.124   2.742   3.796 -0.8718  0.1986  0.1145
 3629SOL    HW214282   4.187   2.701   3.737 -1.6589  1.4948 -1.7173
 3629SOL    HW314283   4.178   2.788   3.861  0.0272 -0.3022 -0.2613
 3629SOL    MW414284   4.140   2.742   3.797 -0.8570  0.3035 -0.1767
 3630SOL     OW14285   3.566   4.493   1.670  0.3453 -0.1447 -0.6767
 3630SOL    HW214286   3.591   4.461   1.757 -0.1838  0.0082 -0.4607
 3630SOL    HW314287   3.626   4.449   1.610  1.5170  0.6618 -0.1374
 3630SOL    MW414288   3.577   4.483   1.674  0.4301 -0.0181 -0.5770
 3631SOL     OW14289   5.114   1.572   0.903 -0.2414 -0.0208 -0.0143
 3631SOL    HW214290   5.026   1.583   0.866 -0.6938  1.2755  1.3433
 3631SOL    HW314291   5.105   1.600   0.994  1.8309  1.2703 -0.1416
 3631SOL    MW414292   5.101   1.577   0.910 -0.0277  0.3206  0.1480
 3632SOL     OW14293   4.602   2.168   2.117 -0.0200 -0.2991 -0.3372
 3632SOL    HW214294   4.552   2.087   2.127  1.3497 -1.0155  1.2807
 3632SOL    HW314295   4.693   2.141   2.122  0.4761  1.3307  0.1329
 3632SOL    MW414296   4.607   2.154   2.119  0.2262 -0.1786 -0.0617
 3633SOL     OW14297   1.905   1.096   1.948  0.0356 -0.2453  0.2062
 3633SOL    HW214298   1.905   1.006   1.915 -0.3155 -0.9314  1.9919
 3633SOL    HW314299   1.816   1.128   1.932  0.0621 -0.3264 -0.1094
 3633SOL    MW414300   1.894   1.089   1.941 -0.0072 -0.3466  0.4001
 3634SOL     OW14301   5.118   2.557   4.802 -0.1795  0.3413  0.5052
 3634SOL    HW214302   5.153   2.489   4.859  0.8240 -0.6733 -1.2162
 3634SOL    HW314303   5.024   2.539   4.799 -0.1594  0.0474  1.3300
 3634SOL    MW414304   5.110   2.545   4.809 -0.0444  0.1686  0.3869
 3635SOL     OW14305   5.671   6.264   0.683 -0.0514  0.6938 -0.0455
 3635SOL    HW214306   5.607   6.321   0.725  2.7843  3.2770  1.1768
 3635SOL    HW314307   5.732   6.242   0.753  0.4407 -1.7160 -1.1270
 3635SOL    MW414308   5.671   6.269   0.698  0.3877  0.7167 -0.0269
 3636SOL     OW14309   2.081   5.478   6.138 -0.4921 -0.1125  0.3732
 3636SOL    HW214310   2.040   5.510   6.218 -1.3108 -0.4003  0.0830
 3636SOL    HW314311   2.124   5.554   6.101 -1.6029  0.4513  0.1900
 3636SOL    MW414312   2.081   5.492   6.144 -0.7466 -0.0761  0.3107
 3637SOL     OW14313   0.097   5.783   3.537 -0.1538 -0.0145 -0.6215
 3637SOL    HW214314   0.028   5.718   3.528  1.1684 -1.2858 -2.2346
 3637SOL    HW314315   0.068   5.857   3.483 -0.6627 -0.1633 -0.5510
 3637SOL    MW414316   0.084   5.784   3.529 -0.0465 -0.2018 -0.8250
 3638SOL     OW14317   6.082   0.310   2.986  0.0268 -0.7555  0.3745
 3638SOL    HW214318   6.084   0.257   2.907  0.6040  0.8074 -0.6989
 3638SOL    HW314319   5.989   0.319   3.007 -0.2108 -0.1481 -0.8652
 3638SOL    MW414320   6.070   0.304   2.978  0.0716 -0.4691  0.0693
 3639SOL     OW14321   6.045   3.920   4.007 -0.2194  0.2907  0.2947
 3639SOL    HW214322   6.077   3.958   3.925  1.8730  2.1087  1.8494
 3639SOL    HW314323   5.977   3.980   4.037 -0.0853  0.3292  0.5223
 3639SOL    MW414324   6.041   3.933   4.000  0.0743  0.5356  0.5298
 3640SOL     OW14325   5.090   4.583   4.258  0.5377 -1.0645  0.3274
 3640SOL    HW214326   5.103   4.622   4.345 -1.4732  2.1835 -0.6477
 3640SOL    HW314327   4.995   4.589   4.243  0.8621 -1.1662 -2.2272
 3640SOL    MW414328   5.079   4.589   4.268  0.3152 -0.6494 -0.1383
 3641SOL     OW14329   4.968   1.283   4.842 -0.1408  0.0580 -0.3103
 3641SOL    HW214330   4.963   1.340   4.765  0.7757 -1.9537 -1.9394
 3641SOL    HW314331   5.054   1.241   4.836 -0.3554 -0.7119  1.4163
 3641SOL    MW414332   4.978   1.285   4.831 -0.0482 -0.3090 -0.2974
 3642SOL     OW14333   2.092   3.911   4.234 -0.2652  0.1496 -0.3370
 3642SOL    HW214334   2.044   3.880   4.157 -4.2633 -1.2210  2.4155
 3642SOL    HW314335   2.129   3.832   4.273 -1.1929  0.3219  0.9339
 3642SOL    MW414336   2.091   3.897   4.229 -0.9151 -0.0085  0.1939
 3643SOL     OW14337   3.101   2.268   0.967 -0.7652  0.5134  0.0642
 3643SOL    HW214338   3.055   2.290   0.885 -0.1360  0.2917 -0.3523
 3643SOL    HW314339   3.124   2.176   0.958  1.3422  1.0569 -0.5191
 3643SOL    MW414340   3.098   2.259   0.955 -0.4041  0.5559 -0.0677
 3644SOL     OW14341   1.043   4.870   1.472  0.4691  0.9808 -0.1179
 3644SOL    HW214342   0.954   4.853   1.503  0.5192  1.2029  0.1493
 3644SOL    HW314343   1.047   4.826   1.387  0.6524 -0.4316  0.6043
 3644SOL    MW414344   1.032   4.862   1.465  0.4999  0.8237  0.0126
 3645SOL     OW14345   4.153   0.208   2.080 -0.3415 -0.3556 -0.0544
 3645SOL    HW214346   4.089   0.140   2.101  1.5143 -2.6707 -1.5197
 3645SOL    HW314347   4.232   0.183   2.127  0.0837  1.4987  0.3235
 3645SOL    MW414348   4.155   0.196   2.089 -0.0405 -0.4164 -0.1979
 3646SOL     OW14349   0.690   4.629   3.749 -1.0468 -0.3024  0.6783
 3646SOL    HW214350   0.620   4.564   3.737 -0.9847 -0.4153  0.9175
 3646SOL    HW314351   0.771   4.580   3.737 -1.0063  0.2822 -1.9272
 3646SOL    MW414352   0.691   4.614   3.746 -1.0333 -0.2402  0.3661
 3647SOL     OW14353   3.237   0.158   4.403 -0.1332  0.3460 -0.1615
 3647SOL    HW214354   3.208   0.120   4.485 -0.3685 -0.0424 -0.4223
 3647SOL    HW314355   3.197   0.245   4.402  1.2263  1.0155  0.9005
 3647SOL    MW414356   3.228   0.165   4.413  0.0151  0.3831 -0.0558
 3648SOL     OW14357   4.692   0.908   6.096  0.1896 -0.4066 -0.6892
 3648SOL    HW214358   4.722   0.926   6.185  0.5727 -1.9486 -0.4757
 3648SOL    HW314359   4.597   0.919   6.100  0.2871  0.3182 -0.2943
 3648SOL    MW414360   4.683   0.912   6.108  0.2530 -0.5144 -0.6089
 3649SOL     OW14361   0.541   2.530   3.099  0.1509 -0.6635  0.1729
 3649SOL    HW214362   0.565   2.587   3.025 -0.4798 -2.6620 -1.6484
 3649SOL    HW314363   0.469   2.576   3.142  0.8564  0.7792 -0.0979
 3649SOL    MW414364   0.535   2.544   3.095  0.1608 -0.7368 -0.1031
 3650SOL     OW14365   2.947   0.168   1.681  0.5285 -0.2409  0.6409
 3650SOL    HW214366   3.018   0.233   1.685  0.3589 -0.1011  1.6035
 3650SOL    HW314367   2.922   0.154   1.773  0.0692 -1.1269  0.3906
 3650SOL    MW414368   2.953   0.175   1.694  0.4455 -0.3393  0.7349
 3651SOL     OW14369   2.426   3.100   4.092 -0.2842 -0.0549  0.3398
 3651SOL    HW214370   2.378   3.021   4.117  2.3471 -1.8785  0.0746
 3651SOL    HW314371   2.510   3.067   4.060  0.9053  2.8920  0.1717
 3651SOL    MW414372   2.431   3.085   4.091  0.2199  0.0933  0.2826
 3652SOL     OW14373   1.199   0.141   3.944  0.2918 -0.6083 -0.0448
 3652SOL    HW214374   1.239   0.138   3.857  0.8672 -0.3238  0.2046
 3652SOL    HW314375   1.262   0.098   4.001  1.5065  2.0833  0.8202
 3652SOL    MW414376   1.212   0.135   3.940  0.5280 -0.2157  0.1022
 3653SOL     OW14377   2.834   1.567   4.032  0.3100 -0.3571 -0.0510
 3653SOL    HW214378   2.905   1.543   4.092 -1.7041 -0.5590  2.4181
 3653SOL    HW314379   2.801   1.650   4.065 -1.2264 -0.7325 -0.5276
 3653SOL    MW414380   2.839   1.575   4.044 -0.1585 -0.4333  0.2119
 3654SOL     OW14381   3.743   5.152   2.915 -0.0376  0.0834  0.1726
 3654SOL    HW214382   3.691   5.189   2.843  0.8123 -0.2343 -0.6278
 3654SOL    HW314383   3.765   5.064   2.885 -0.3586 -0.3557  1.1925
 3654SOL    MW414384   3.739   5.145   2.902  0.0322 -0.0164  0.2016
 3655SOL     OW14385   2.492   6.199   6.055 -0.1168 -0.0214 -0.0955
 3655SOL    HW214386   2.516   6.148   5.978 -0.7052 -0.0981 -0.2356
 3655SOL    HW314387   2.436   6.269   6.020  1.2788  1.1731 -0.0115
 3655SOL    MW414388   2.488   6.202   6.040 -0.0103  0.1260 -0.1029
 3656SOL     OW14389   2.136   1.476   0.134 -0.2716 -0.4064 -0.1017
 3656SOL    HW214390   2.167   1.386   0.132  0.5068 -0.1290 -1.6830
 3656SOL    HW314391   2.181   1.519   0.062 -2.8589  0.5050 -1.2967
 3656SOL    MW414392   2.146   1.470   0.124 -0.5103 -0.2496 -0.4680
 3657SOL     OW14393   4.488   2.659   2.356 -0.8555  0.0402  0.2428
 3657SOL    HW214394   4.471   2.578   2.308  0.7136  0.7250 -1.5733
 3657SOL    HW314395   4.573   2.645   2.398  0.6155  1.4950 -2.0244
 3657SOL    MW414396   4.497   2.647   2.355 -0.4544  0.3225 -0.2959
 3658SOL     OW14397   1.369   0.006   4.097 -0.1678 -0.0192  0.6153
 3658SOL    HW214398   1.352  -0.055   4.026  0.1919  1.2205 -0.5799
 3658SOL    HW314399   1.462   0.028   4.088 -0.3193  0.7889  0.9513
 3658SOL    MW414400   1.379   0.001   4.087 -0.1403  0.2510  0.5019
 3659SOL     OW14401   2.778   1.780   2.218 -0.0157 -0.9069  0.8747
 3659SOL    HW214402   2.840   1.723   2.263  0.4680 -0.5600  0.6582
 3659SOL    HW314403   2.806   1.777   2.126  0.1373 -0.1731  0.8901
 3659SOL    MW414404   2.790   1.772   2.212  0.0683 -0.7643  0.8482
 3660SOL     OW14405   3.122   5.401   2.726  0.0972 -0.5621 -0.1858
 3660SOL    HW214406   3.049   5.408   2.665  0.4992  1.5057 -0.5192
 3660SOL    HW314407   3.081   5.389   2.812 -0.6769  0.9031 -0.3236
 3660SOL    MW414408   3.107   5.400   2.730  0.0481 -0.0960 -0.2480
 3661SOL     OW14409   2.879   4.090   6.182  0.5423  0.2458  0.6035
 3661SOL    HW214410   2.956   4.045   6.217  0.9481  0.4273 -0.0533
 3661SOL    HW314411   2.912   4.174   6.151  0.0478  0.3868  0.4584
 3661SOL    MW414412   2.894   4.095   6.183  0.5306  0.2884  0.4977
 3662SOL     OW14413   4.987   3.266   5.177 -0.5016 -0.0584 -0.2010
 3662SOL    HW214414   4.972   3.175   5.202  1.7384 -0.5350 -0.3905
 3662SOL    HW314415   5.075   3.266   5.140 -0.4317  2.2111 -0.1475
 3662SOL    MW414416   4.997   3.254   5.175 -0.1969  0.1782 -0.2189
 3663SOL     OW14417   3.246   1.368   2.474  0.2561  0.5207  0.4487
 3663SOL    HW214418   3.307   1.294   2.470 -0.3622  0.0435 -0.5607
 3663SOL    HW314419   3.252   1.409   2.388 -1.9664 -0.4705 -0.2239
 3663SOL    MW414420   3.255   1.364   2.462 -0.1187  0.3270  0.2268
 3664SOL     OW14421   4.739   0.646   5.914 -0.3846  0.1113  0.3226
 3664SOL    HW214422   4.810   0.673   5.972 -2.4221  1.8497  2.1859
 3664SOL    HW314423   4.692   0.727   5.894 -1.7387 -0.9490 -1.0243
 3664SOL    MW414424   4.742   0.660   5.919 -0.8321  0.2008  0.3908
 3665SOL     OW14425   5.957   2.300   4.033  0.7744  0.9391  0.0635
 3665SOL    HW214426   6.036   2.354   4.038 -0.3836  2.8949 -0.9999
 3665SOL    HW314427   5.895   2.354   3.983 -0.3193 -1.6555 -1.6061
 3665SOL    MW414428   5.959   2.315   4.027  0.4773  0.8548 -0.2971
 3666SOL     OW14429   2.239   0.152   0.145  0.0234 -0.0906 -0.7034
 3666SOL    HW214430   2.242   0.115   0.234  0.1650 -0.1893 -0.7504
 3666SOL    HW314431   2.174   0.099   0.099 -0.7398  0.5487 -0.3865
 3666SOL    MW414432   2.231   0.141   0.151 -0.0586 -0.0192 -0.6678
 3667SOL     OW14433   2.515   1.278   4.415 -0.1630  0.9336 -0.2331
 3667SOL    HW214434   2.437   1.248   4.368  0.3679  1.3044 -1.3864
 3667SOL    HW314435   2.526   1.215   4.486  0.2049 -0.8973 -1.8360
 3667SOL    MW414436   2.506   1.266   4.418 -0.0444  0.7410 -0.5967
 3668SOL     OW14437   5.347   4.708   4.945  0.1889  0.5243 -0.1070
 3668SOL    HW214438   5.352   4.795   4.983  1.1261  0.0674  0.8875
 3668SOL    HW314439   5.374   4.649   5.016 -0.7612 -0.6070 -0.6447
 3668SOL    MW414440   5.352   4.711   4.959  0.1872  0.3148 -0.0467
 3669SOL     OW14441   5.159   6.015   3.125 -0.2757  0.6672  0.1715
 3669SOL    HW214442   5.171   6.109   3.132  2.8507  0.4492 -0.3856
 3669SOL    HW314443   5.130   6.001   3.035 -1.3167  1.1149  0.4303
 3669SOL    MW414444   5.157   6.025   3.114 -0.0005  0.6975  0.1321
 3670SOL     OW14445   1.105   2.662   2.626  0.0585 -0.0240 -0.2715
 3670SOL    HW214446   1.086   2.748   2.665 -1.0967 -1.9716  3.9819
 3670SOL    HW314447   1.199   2.650   2.640  0.3900  0.7788 -1.6048
 3670SOL    MW414448   1.115   2.672   2.633 -0.0502 -0.1750  0.1138
 3671SOL     OW14449   0.626   0.826   1.602 -0.2456 -0.1021  0.5229
 3671SOL    HW214450   0.560   0.757   1.598 -0.3125 -0.1302  1.7431
 3671SOL    HW314451   0.576   0.907   1.612 -0.1142 -0.1079  1.2999
 3671SOL    MW414452   0.611   0.827   1.603 -0.2371 -0.1066  0.7864
 3672SOL     OW14453   2.340   5.599   1.819  0.4372 -1.0147 -0.6080
 3672SOL    HW214454   2.388   5.680   1.800  1.6268 -1.2509  1.1389
 3672SOL    HW314455   2.360   5.581   1.911 -0.5291 -2.8216 -0.7169
 3672SOL    MW414456   2.349   5.608   1.829  0.4666 -1.2842 -0.3919
 3673SOL     OW14457   2.252   3.569   5.955 -0.4284 -0.3154 -0.0752
 3673SOL    HW214458   2.177   3.600   5.903 -0.0424  0.8826  0.0566
 3673SOL    HW314459   2.215   3.552   6.042 -0.5987  0.0430 -0.0754
 3673SOL    MW414460   2.237   3.571   5.960 -0.4000 -0.1101 -0.0579
 3674SOL     OW14461   4.631   1.700   3.081 -0.1844  0.1757  0.2194
 3674SOL    HW214462   4.551   1.710   3.030  0.4104  3.0312 -0.3593
 3674SOL    HW314463   4.681   1.780   3.062  2.0194 -0.7064  1.9069
 3674SOL    MW414464   4.627   1.712   3.072  0.1849  0.4360  0.3657
 3675SOL     OW14465   2.458   6.318   3.075 -0.2342  0.3094 -0.2914
 3675SOL    HW214466   2.369   6.323   3.041 -0.1137  0.0486 -0.6460
 3675SOL    HW314467   2.503   6.394   3.038 -0.2232  0.2698 -0.3587
 3675SOL    MW414468   2.452   6.329   3.066 -0.2169  0.2698 -0.3470
 3676SOL     OW14469   2.860   6.031   4.090  0.3222  0.5131 -0.1483
 3676SOL    HW214470   2.827   5.953   4.046  0.7069 -0.1906  0.7899
 3676SOL    HW314471   2.951   6.012   4.110  0.0530  0.6113  1.3412
 3676SOL    MW414472   2.867   6.018   4.087  0.3375  0.4332  0.1720
 3677SOL     OW14473   0.571   5.350   5.570 -0.1108 -0.4282  0.6316
 3677SOL    HW214474   0.480   5.371   5.549  0.5764  2.1373 -0.2120
 3677SOL    HW314475   0.584   5.263   5.533 -1.4066  0.4214 -2.1550
 3677SOL    MW414476   0.561   5.341   5.562 -0.1911  0.0224  0.1526
 3678SOL     OW14477   4.662   4.551   2.990 -1.3690  0.5903  0.2295
 3678SOL    HW214478   4.595   4.556   3.058 -0.7195  1.7177  0.8055
 3678SOL    HW314479   4.745   4.552   3.037 -0.9137  1.3110 -0.5540
 3678SOL    MW414480   4.664   4.552   3.005 -1.2233  0.8341  0.2022
 3679SOL     OW14481   2.402   0.921   2.698  0.3356  1.3681  0.0620
 3679SOL    HW214482   2.368   0.909   2.609  0.7947 -1.9189  0.1794
 3679SOL    HW314483   2.497   0.920   2.688  0.4609 -1.4768  0.6793
 3679SOL    MW414484   2.410   0.919   2.685  0.4127  0.5590  0.1590
 3680SOL     OW14485   6.281   5.062   0.231 -0.1431  0.3380 -0.6297
 3680SOL    HW214486   6.376   5.060   0.226 -0.1344  2.6206 -2.6250
 3680SOL    HW314487   6.252   5.089   0.144 -2.6728 -0.7350 -0.2158
 3680SOL    MW414488   6.290   5.065   0.219 -0.4757  0.4976 -0.8384
 3681SOL     OW14489   4.516   3.034   3.993 -0.0178  0.8307 -0.1224
 3681SOL    HW214490   4.552   3.114   4.030 -1.6308  2.1233 -1.1867
 3681SOL    HW314491   4.570   3.017   3.916  0.0166  1.2295 -0.1912
 3681SOL    MW414492   4.528   3.043   3.988 -0.2261  1.0538 -0.2719
 3682SOL     OW14493   2.523   2.371   3.337 -0.1213 -0.2907 -0.1179
 3682SOL    HW214494   2.445   2.425   3.327  0.0108  0.1070  0.9262
 3682SOL    HW314495   2.499   2.305   3.403  0.0767 -0.8345 -0.5789
 3682SOL    MW414496   2.509   2.369   3.344 -0.0778 -0.3100 -0.0410
 3683SOL     OW14497   1.419   5.159   5.955  0.2944 -0.3370  0.1154
 3683SOL    HW214498   1.464   5.106   5.888  1.3843 -0.3225  0.8213
 3683SOL    HW314499   1.404   5.098   6.027  0.0261 -0.0988  0.2604
 3683SOL    MW414500   1.423   5.144   5.955  0.4028 -0.3037  0.2277
 3684SOL     OW14501   1.391   0.603   2.135 -0.1125  0.2158 -0.3884
 3684SOL    HW214502   1.385   0.592   2.230 -0.6715  0.0584 -0.4418
 3684SOL    HW314503   1.413   0.516   2.103 -1.1498 -0.0037 -0.5107
 3684SOL    MW414504   1.393   0.590   2.144 -0.3231  0.1660 -0.4116
 3685SOL     OW14505   0.599   3.988   1.011 -0.1932 -0.0252 -0.6533
 3685SOL    HW214506   0.613   3.960   0.920 -3.2251  1.3154 -1.6766
 3685SOL    HW314507   0.548   3.917   1.049 -0.4041  0.1750 -0.5590
 3685SOL    MW414508   0.594   3.975   1.004 -0.6211  0.1781 -0.7759
 3686SOL     OW14509   5.074   4.422   2.619 -0.1190  0.1979  0.4871
 3686SOL    HW214510   5.020   4.353   2.581 -0.0303  0.4414 -0.0851
 3686SOL    HW314511   5.163   4.385   2.620  0.1142  0.6863 -0.8007
 3686SOL    MW414512   5.079   4.408   2.614 -0.0765  0.2945  0.2417
 3687SOL     OW14513   1.826   5.098   4.267 -0.4437  0.4417  0.3504
 3687SOL    HW214514   1.893   5.086   4.200  0.7420 -2.5250  1.8867
 3687SOL    HW314515   1.781   5.013   4.273 -0.3887  0.4992  3.3417
 3687SOL    MW414516   1.829   5.085   4.259 -0.2800  0.0579  0.9478
 3688SOL     OW14517   1.408   4.428   4.998 -0.0501  0.4938 -0.2586
 3688SOL    HW214518   1.502   4.421   5.014 -0.1599  2.9173  2.0721
 3688SOL    HW314519   1.388   4.520   5.012 -2.9397 -0.1045  0.2295
 3688SOL    MW414520   1.418   4.439   5.002 -0.4459  0.7346  0.1133
 3689SOL     OW14521   0.322   0.126   1.718 -0.5096 -0.5026 -0.2508
 3689SOL    HW214522   0.346   0.050   1.771 -1.5921 -0.8006 -0.1617
 3689SOL    HW314523   0.252   0.094   1.660  0.2244 -0.0297 -1.4527
 3689SOL    MW414524   0.315   0.112   1.717 -0.5556 -0.4796 -0.3976
 3690SOL     OW14525   1.971   4.180   5.196 -0.0004 -0.2776 -0.0086
 3690SOL    HW214526   2.032   4.167   5.269 -0.2759  1.8585  0.6653
 3690SOL    HW314527   1.892   4.214   5.237 -0.1356  1.0363 -1.2976
 3690SOL    MW414528   1.969   4.182   5.211 -0.0546  0.1776 -0.0898
 3691SOL     OW14529   0.061   3.251   0.337  0.1812 -0.2396 -0.8825
 3691SOL    HW214530   0.072   3.328   0.281 -0.1651 -0.2024 -0.9001
 3691SOL    HW314531  -0.025   3.261   0.376  1.4360  1.1359  1.8187
 3691SOL    MW414532   0.051   3.262   0.334  0.3010 -0.0532 -0.5285
 3692SOL     OW14533   0.497   3.216   0.419  0.5457 -0.4801  0.4580
 3692SOL    HW214534   0.577   3.234   0.371  0.6952 -0.3498  0.7515
 3692SOL    HW314535   0.468   3.302   0.450 -0.0667 -0.4352 -0.1995
 3692SOL    MW414536   0.503   3.229   0.417  0.4846 -0.4570  0.4100
 3693SOL     OW14537   3.413   3.254   4.454  0.4606  0.1617  0.3321
 3693SOL    HW214538   3.319   3.236   4.450  0.9235 -2.4980 -0.6608
 3693SOL    HW314539   3.424   3.336   4.407 -1.1083 -0.8226 -1.8960
 3693SOL    MW414540   3.402   3.263   4.448  0.3146 -0.3191 -0.0929
 3694SOL     OW14541   0.143   4.305   5.989  0.3837 -0.3577  0.3553
 3694SOL    HW214542   0.137   4.308   6.085  0.3848  1.2522  0.3407
 3694SOL    HW314543   0.230   4.268   5.972  0.5285 -0.3185  0.9820
 3694SOL    MW414544   0.154   4.301   6.000  0.4029 -0.1401  0.4360
 3695SOL     OW14545   1.440   4.995   0.958 -0.9062  0.0220 -0.7506
 3695SOL    HW214546   1.522   4.956   0.927 -0.8586 -0.4891 -0.0007
 3695SOL    HW314547   1.455   5.089   0.950 -0.5964 -0.0820 -1.5008
 3695SOL    MW414548   1.453   5.002   0.953 -0.8590 -0.0591 -0.7507
 3696SOL     OW14549   1.447   2.829   1.414 -0.1004 -0.4218  0.1490
 3696SOL    HW214550   1.474   2.750   1.461 -2.2034 -0.9136  0.6570
 3696SOL    HW314551   1.512   2.839   1.344  1.7262 -1.0598  1.6612
 3696SOL    MW414552   1.459   2.820   1.411 -0.1368 -0.5709  0.4156
 3697SOL     OW14553   6.378   4.723   3.764  0.1461 -0.2215 -0.1571
 3697SOL    HW214554   6.285   4.735   3.783  0.5023  1.1198  0.9240
 3697SOL    HW314555   6.423   4.783   3.824  1.8612 -2.6975  1.2312
 3697SOL    MW414556   6.372   4.733   3.774  0.4193 -0.3712  0.1687
 3698SOL     OW14557   1.382   6.297   3.164 -0.4655  0.2796 -0.0319
 3698SOL    HW214558   1.460   6.352   3.163 -0.8309  0.8596  1.2117
 3698SOL    HW314559   1.312   6.353   3.130 -0.4253 -0.1180 -0.7881
 3698SOL    MW414560   1.383   6.311   3.159 -0.5084  0.3037  0.0324
 3699SOL     OW14561   0.617   5.845   6.003 -0.3984  0.2013  0.1643
 3699SOL    HW214562   0.613   5.823   6.096  0.4255  2.2577  0.7464
 3699SOL    HW314563   0.525   5.843   5.974 -0.5380 -1.8471  0.6146
 3699SOL    MW414564   0.604   5.842   6.011 -0.3081  0.2024  0.3005
 3700SOL     OW14565   2.739   3.454   5.192 -0.6483  0.5628  0.3583
 3700SOL    HW214566   2.800   3.497   5.132  0.9989  0.0946  1.6204
 3700SOL    HW314567   2.689   3.394   5.137  0.7785  0.1910 -0.5603
 3700SOL    MW414568   2.740   3.452   5.177 -0.2427  0.4520  0.4036
 3701SOL     OW14569   6.387   3.670   2.903 -0.2353 -0.0423  0.2847
 3701SOL    HW214570   6.386   3.766   2.904  0.4655  0.0370 -1.6053
 3701SOL    HW314571   6.463   3.646   2.956 -0.0757  0.4850  0.2974
 3701SOL    MW414572   6.397   3.679   2.910 -0.1218  0.0378  0.0370
 3702SOL     OW14573   0.738   0.807   5.066 -0.3934  0.0931 -0.4206
 3702SOL    HW214574   0.727   0.712   5.074  0.8927 -0.0611 -0.2831
 3702SOL    HW314575   0.730   0.825   4.972  1.8884 -0.5263 -0.7820
 3702SOL    MW414576   0.735   0.797   5.055  0.0773 -0.0090 -0.4502
 3703SOL     OW14577   2.851   3.457   0.628  0.2582  0.6073  0.3960
 3703SOL    HW214578   2.880   3.538   0.669 -0.9263  1.1657  0.1895
 3703SOL    HW314579   2.856   3.474   0.534 -0.9169  0.8127  0.3545
 3703SOL    MW414580   2.855   3.470   0.621 -0.0531  0.7081  0.3633
 3704SOL     OW14581   3.971   3.665   6.105  0.0003  0.1582 -0.4317
 3704SOL    HW214582   3.976   3.737   6.169  1.8037  0.7820 -1.2172
 3704SOL    HW314583   4.015   3.699   6.027  0.3918 -1.6084 -1.0178
 3704SOL    MW414584   3.977   3.679   6.103  0.2899  0.0074 -0.6127
 3705SOL     OW14585   2.648   4.819   4.790  0.6496  0.1085  0.6027
 3705SOL    HW214586   2.624   4.899   4.837  0.9627  0.5408  0.0431
 3705SOL    HW314587   2.564   4.777   4.770  0.3890  1.0406 -0.3635
 3705SOL    MW414588   2.634   4.824   4.794  0.6566  0.2885  0.4014
 3706SOL     OW14589   2.486   3.245   4.317  0.5691 -0.1901 -0.4129
 3706SOL    HW214590   2.460   3.330   4.281  0.0971 -0.7009 -1.3202
 3706SOL    HW314591   2.464   3.183   4.248  0.3657 -1.1163  0.4658
 3706SOL    MW414592   2.479   3.248   4.304  0.4800 -0.3797 -0.4167
 3707SOL     OW14593   2.038   6.318   4.235  0.0099  1.1310 -0.0947
 3707SOL    HW214594   2.095   6.309   4.159  1.8753  0.4629  1.3032
 3707SOL    HW314595   2.062   6.244   4.292 -1.2120  1.6871  1.2000
 3707SOL    MW414596   2.049   6.307   4.233  0.0948  1.1162  0.2606
 3708SOL     OW14597   0.396   3.053   4.500  0.0721 -0.3954 -0.0710
 3708SOL    HW214598   0.371   3.119   4.435 -1.2694  0.8024  1.5529
 3708SOL    HW314599   0.319   2.996   4.507 -0.3515  0.2951  1.3641
 3708SOL    MW414600   0.382   3.054   4.493 -0.1608 -0.1463  0.3326
 3709SOL     OW14601   6.190   1.011   1.725 -0.2428 -0.1030 -0.1511
 3709SOL    HW214602   6.139   0.950   1.779 -0.4170 -1.1577 -1.4347
 3709SOL    HW314603   6.124   1.052   1.668 -0.0493  0.9078  0.3256
 3709SOL    MW414604   6.174   1.008   1.725 -0.2403 -0.1088 -0.2575
 3710SOL     OW14605   4.384   2.637   6.322 -0.0274 -0.0589 -0.6833
 3710SOL    HW214606   4.339   2.719   6.302 -0.2809  0.0196  0.1709
 3710SOL    HW314607   4.409   2.645   6.414  0.3434 -0.7577 -0.7142
 3710SOL    MW414608   4.382   2.649   6.332 -0.0119 -0.1407 -0.5746
 3711SOL     OW14609   3.859   5.562   0.221 -0.1241 -0.2575  0.2701
 3711SOL    HW214610   3.897   5.566   0.309 -0.2129 -2.9488  0.4952
 3711SOL    HW314611   3.867   5.652   0.188  1.6462  0.4195  2.2836
 3711SOL    MW414612   3.865   5.575   0.228  0.0978 -0.5233  0.5655
 3712SOL     OW14613   3.441   0.674   1.830 -0.1054 -0.4369  0.2706
 3712SOL    HW214614   3.405   0.688   1.743 -0.8156 -1.1818  0.4361
 3712SOL    HW314615   3.534   0.654   1.816 -0.6328 -2.5124 -0.4741
 3712SOL    MW414616   3.449   0.673   1.817 -0.2687 -0.8091  0.1942
 3713SOL     OW14617   2.068   5.771   5.549  0.0467  0.4454 -0.2803
 3713SOL    HW214618   2.011   5.736   5.617  0.7816 -0.8819 -0.3099
 3713SOL    HW314619   2.117   5.841   5.593 -0.5595  0.6147  0.1358
 3713SOL    MW414620   2.067   5.775   5.564  0.0637  0.2926 -0.2293
 3714SOL     OW14621   2.979   1.101   5.777  0.2773  0.6348  0.5870
 3714SOL    HW214622   3.069   1.078   5.754 -0.7786 -0.8958 -2.5046
 3714SOL    HW314623   2.956   1.041   5.848  0.7095 -1.3679 -0.8722
 3714SOL    MW414624   2.988   1.090   5.783  0.1950  0.1686 -0.0135
 3715SOL     OW14625   4.571   0.027   6.081 -0.2236 -0.1192 -0.2805
 3715SOL    HW214626   4.554   0.118   6.103 -0.7569  0.1208 -1.6282
 3715SOL    HW314627   4.631   0.030   6.006  0.5855 -0.9016  0.2986
 3715SOL    MW414628   4.577   0.039   6.074 -0.1872 -0.1908 -0.3819
 3716SOL     OW14629   4.886   0.602   2.080 -0.4491  0.0641 -0.7233
 3716SOL    HW214630   4.900   0.591   2.174 -0.2559  1.0359 -0.6260
 3716SOL    HW314631   4.792   0.590   2.069 -0.4725 -0.0679 -0.4016
 3716SOL    MW414632   4.875   0.599   2.091 -0.4267  0.1749 -0.6680
 3717SOL     OW14633   4.994   2.227   5.941  0.9070 -0.2233 -0.4797
 3717SOL    HW214634   4.930   2.282   5.895 -0.5293  0.0217  1.6873
 3717SOL    HW314635   4.943   2.153   5.974  1.7273 -0.0730  1.2261
 3717SOL    MW414636   4.979   2.224   5.939  0.8257 -0.1711  0.0313
 3718SOL     OW14637   5.658   3.864   5.566 -0.2064 -0.1715  0.2190
 3718SOL    HW214638   5.668   3.889   5.658 -0.0420  0.0667  0.1375
 3718SOL    HW314639   5.666   3.768   5.566 -0.4106 -0.1888  0.4780
 3718SOL    MW414640   5.661   3.854   5.578 -0.2116 -0.1424  0.2424
 3719SOL     OW14641   3.481   1.931   2.873 -0.4399  0.1634  0.4816
 3719SOL    HW214642   3.414   1.996   2.854 -0.9996 -0.4266  0.3737
 3719SOL    HW314643   3.494   1.936   2.967 -0.6774  0.2414  0.5099
 3719SOL    MW414644   3.474   1.940   2.883 -0.5451  0.0959  0.4711
 3720SOL     OW14645   4.210   5.596   5.502 -0.2855 -0.1022  0.0043
 3720SOL    HW214646   4.294   5.626   5.537  0.4534 -0.5169 -1.3285
 3720SOL    HW314647   4.233   5.554   5.419 -1.7217 -1.0023  0.0397
 3720SOL    MW414648   4.224   5.595   5.495 -0.3775 -0.2757 -0.1669
 3721SOL     OW14649   2.654   5.921   3.246 -0.5219 -0.3758 -0.2616
 3721SOL    HW214650   2.563   5.948   3.256 -0.6581 -0.4788 -1.0970
 3721SOL    HW314651   2.666   5.851   3.310 -0.4875  0.8540  1.1353
 3721SOL    MW414652   2.644   5.915   3.255 -0.5353 -0.2271 -0.1875
 3722SOL     OW14653   2.397   3.776   4.119  0.1905  0.0546  0.0194
 3722SOL    HW214654   2.384   3.837   4.047  2.3619  1.8034  0.9892
 3722SOL    HW314655   2.490   3.781   4.139 -0.2063 -0.8194  2.5333
 3722SOL    MW414656   2.408   3.785   4.112  0.4246  0.1700  0.4790
 3723SOL     OW14657   6.012   1.331   4.808 -0.2531 -0.2043 -0.1569
 3723SOL    HW214658   5.964   1.344   4.890  2.1147 -0.1770  1.3068
 3723SOL    HW314659   5.984   1.404   4.752 -1.2616  0.2812  0.9397
 3723SOL    MW414660   6.002   1.343   4.811 -0.0738 -0.1366  0.1809
 3724SOL     OW14661   3.471   3.106   4.200 -0.2794  0.8136 -0.4844
 3724SOL    HW214662   3.472   3.139   4.289  0.2700  1.7416 -0.8225
 3724SOL    HW314663   3.448   3.182   4.146 -0.0198  0.4096 -1.1859
 3724SOL    MW414664   3.468   3.121   4.204 -0.1726  0.8827 -0.6216
 3725SOL     OW14665   6.134   0.844   1.127  0.4567 -0.5348  0.0029
 3725SOL    HW214666   6.086   0.822   1.207  0.9481 -0.2731  0.3720
 3725SOL    HW314667   6.070   0.831   1.056 -0.5847  1.0967  0.5865
 3725SOL    MW414668   6.119   0.839   1.128  0.3841 -0.2850  0.1286
 3726SOL     OW14669   5.376   2.630   0.443 -0.4291 -0.4223  0.0431
 3726SOL    HW214670   5.441   2.679   0.494 -1.7274  2.7970 -1.1068
 3726SOL    HW314671   5.299   2.629   0.500 -0.9714  0.5862 -0.6396
 3726SOL    MW414672   5.374   2.637   0.457 -0.6720  0.1355 -0.1987
 3727SOL     OW14673   4.378   1.630   2.115 -0.2184 -0.3885  0.1985
 3727SOL    HW214674   4.407   1.546   2.151  0.1580 -0.7415 -0.8946
 3727SOL    HW314675   4.369   1.614   2.021 -0.1744  0.7877 -0.0212
 3727SOL    MW414676   4.381   1.616   2.107 -0.1630 -0.2799  0.0253
 3728SOL     OW14677   6.223   2.402   0.014 -1.0722 -0.2995  0.7331
 3728SOL    HW214678   6.216   2.414  -0.081 -0.9316 -2.8817  0.3428
 3728SOL    HW314679   6.314   2.426   0.035 -1.5596  1.9127  0.5540
 3728SOL    MW414680   6.234   2.407   0.004 -1.1179 -0.3483  0.6580
 3729SOL     OW14681   1.364   5.265   3.179 -0.1825 -0.4166 -0.2941
 3729SOL    HW214682   1.405   5.211   3.111 -0.7014  0.0537 -0.9994
 3729SOL    HW314683   1.422   5.341   3.187 -1.5467  0.9591 -2.3105
 3729SOL    MW414684   1.377   5.268   3.171 -0.4309 -0.1730 -0.6532
 3730SOL     OW14685   0.201   1.544   1.591  0.3993 -0.4006  0.4828
 3730SOL    HW214686   0.192   1.456   1.629  0.8947 -0.9692 -0.6784
 3730SOL    HW314687   0.128   1.550   1.529 -0.1249  0.3423  1.1477
 3730SOL    MW414688   0.190   1.533   1.588  0.3955 -0.3776  0.4173
 3731SOL     OW14689   2.601   0.103   0.728  0.4478  0.1233 -0.2175
 3731SOL    HW214690   2.590   0.196   0.710  0.2421 -0.0540 -1.0709
 3731SOL    HW314691   2.546   0.059   0.663 -1.9334 -0.5605  2.0800
 3731SOL    MW414692   2.592   0.110   0.717  0.1065  0.0097 -0.0270
 3732SOL     OW14693   1.601   0.527   1.264  0.3715 -0.3121 -0.1878
 3732SOL    HW214694   1.636   0.470   1.333  1.9689 -0.1074 -0.7928
 3732SOL    HW314695   1.637   0.490   1.183 -1.2724 -0.3961 -0.9099
 3732SOL    MW414696   1.610   0.514   1.262  0.3654 -0.2962 -0.3629
 3733SOL     OW14697   0.778   3.002   6.312 -0.0098 -0.2799 -0.3871
 3733SOL    HW214698   0.750   2.940   6.245 -1.2137  0.5226 -0.6536
 3733SOL    HW314699   0.733   3.083   6.291  1.2885  0.6161  0.1474
 3733SOL    MW414700   0.769   3.004   6.300  0.0027 -0.0558 -0.3517
 3734SOL     OW14701   1.590   2.280   5.831 -0.0987 -0.2006 -0.4056
 3734SOL    HW214702   1.652   2.256   5.900 -0.5551 -4.1905 -1.1347
 3734SOL    HW314703   1.645   2.294   5.754  0.1513  0.9494 -0.0470
 3734SOL    MW414704   1.606   2.279   5.830 -0.1259 -0.5753 -0.4545
 3735SOL     OW14705   2.232   2.201   1.982  0.6672  0.2170  0.0104
 3735SOL    HW214706   2.285   2.254   1.922 -0.0512 -1.1072 -1.8798
 3735SOL    HW314707   2.144   2.203   1.944  0.6726 -2.5392 -0.3437
 3735SOL    MW414708   2.227   2.209   1.969  0.5732 -0.3214 -0.2857
 3736SOL     OW14709   3.990   0.773   4.250 -0.4945 -0.4242  0.1521
 3736SOL    HW214710   4.012   0.797   4.161 -1.4500  1.8925  0.4743
 3736SOL    HW314711   4.073   0.779   4.298 -0.3299  0.2518 -0.2092
 3736SOL    MW414712   4.004   0.777   4.245 -0.5989 -0.0294  0.1470
 3737SOL     OW14713   2.045   3.613   0.177 -0.9807  0.2596 -0.7710
 3737SOL    HW214714   2.055   3.650   0.090 -0.7462  1.1169 -0.3885
 3737SOL    HW314715   1.991   3.535   0.164  0.2802 -0.4545 -1.8856
 3737SOL    MW414716   2.039   3.607   0.164 -0.7834  0.2785 -0.8676
 3738SOL     OW14717   2.717   1.503   5.363  0.5821 -0.6692 -0.4533
 3738SOL    HW214718   2.635   1.482   5.317 -1.0560  0.9676  1.5072
 3738SOL    HW314719   2.748   1.419   5.396 -1.2331 -1.1546  0.1607
 3738SOL    MW414720   2.710   1.489   5.361  0.1265 -0.5173 -0.1136
 3739SOL     OW14721   0.583   2.655   0.664  0.1020  0.2032 -0.4561
 3739SOL    HW214722   0.597   2.750   0.670  1.2671  0.1231 -1.3645
 3739SOL    HW314723   0.555   2.641   0.573  1.5006 -0.4682 -0.8113
 3739SOL    MW414724   0.581   2.666   0.653  0.4403  0.1041 -0.6228
 3740SOL     OW14725   3.627   4.861   3.452 -0.0011  0.2218 -0.3036
 3740SOL    HW214726   3.566   4.844   3.380  1.1187  0.6219 -1.3889
 3740SOL    HW314727   3.625   4.956   3.463 -1.3857  0.0513  1.3471
 3740SOL    MW414728   3.618   4.871   3.444 -0.0360  0.2521 -0.2290
 3741SOL     OW14729   2.498   6.182   5.166 -0.1419 -0.2017  0.3504
 3741SOL    HW214730   2.434   6.253   5.171  0.2685  0.1455  0.8714
 3741SOL    HW314731   2.472   6.131   5.090  0.2888  1.2217 -0.7864
 3741SOL    MW414732   2.486   6.185   5.157 -0.0309  0.0319  0.2692
 3742SOL     OW14733   4.820   1.703   0.945 -0.2064  0.2266  0.1077
 3742SOL    HW214734   4.828   1.659   0.861  1.3244 -0.2174  0.4527
 3742SOL    HW314735   4.801   1.633   1.008 -1.1384  0.5296  0.1857
 3742SOL    MW414736   4.818   1.688   0.942 -0.1274  0.2080  0.1635
 3743SOL     OW14737   0.755   0.850   5.630  0.3475 -0.0896 -0.0431
 3743SOL    HW214738   0.818   0.804   5.574 -1.9138 -1.4059 -1.6518
 3743SOL    HW314739   0.804   0.868   5.711  3.7171  1.7758 -2.2490
 3743SOL    MW414740   0.770   0.846   5.634  0.4937 -0.0172 -0.5464
 3744SOL     OW14741   4.315   5.428   5.288 -0.2432 -0.1438 -0.1771
 3744SOL    HW214742   4.328   5.453   5.197 -0.1250  0.4813  0.0069
 3744SOL    HW314743   4.234   5.377   5.288 -0.3943  0.0961 -0.5861
 3744SOL    MW414744   4.306   5.424   5.276 -0.2475 -0.0297 -0.2068
 3745SOL     OW14745   5.156   5.776   0.228 -0.0182  0.7260 -0.1943
 3745SOL    HW214746   5.104   5.711   0.275 -2.2601  2.3632 -0.2905
 3745SOL    HW314747   5.208   5.724   0.166  0.1612 -1.1464  1.4303
 3745SOL    MW414748   5.156   5.760   0.226 -0.2903  0.6950  0.0073
 3746SOL     OW14749   4.620   1.900   0.382  0.4489 -0.4077 -0.2949
 3746SOL    HW214750   4.550   1.961   0.404  1.6754  0.9995 -0.1021
 3746SOL    HW314751   4.681   1.952   0.328  2.5648 -0.7919  1.5713
 3746SOL    MW414752   4.619   1.915   0.378  0.8899 -0.2727 -0.0232
 3747SOL     OW14753   2.605   3.382   0.118 -0.6185 -0.1321 -0.2050
 3747SOL    HW214754   2.594   3.469   0.158  0.3996  0.5368 -1.2955
 3747SOL    HW314755   2.574   3.393   0.028 -0.8448 -1.0204 -0.2412
 3747SOL    MW414756   2.600   3.395   0.111 -0.5140 -0.1611 -0.3537
 3748SOL     OW14757   2.253   2.796   0.735 -0.7098  0.5623  0.0200
 3748SOL    HW214758   2.257   2.713   0.783 -2.6578  0.2472 -0.2882
 3748SOL    HW314759   2.227   2.771   0.646 -1.3175  1.4975 -0.0767
 3748SOL    MW414760   2.250   2.782   0.730 -1.0470  0.6441 -0.0334
 3749SOL     OW14761   3.121   5.415   5.447  0.6983  0.0734  0.2107
 3749SOL    HW214762   3.133   5.508   5.463 -2.1842  0.6810 -0.6476
 3749SOL    HW314763   3.103   5.408   5.354 -2.2285 -0.8818  0.7512
 3749SOL    MW414764   3.121   5.426   5.437 -0.0681  0.0275  0.1687
 3750SOL     OW14765   0.393   1.107   3.207 -0.5569 -0.1212 -0.2919
 3750SOL    HW214766   0.462   1.043   3.222 -0.7175  0.0267  1.1909
 3750SOL    HW314767   0.340   1.104   3.286 -0.7766  1.6002 -0.3442
 3750SOL    MW414768   0.395   1.098   3.219 -0.6071  0.1254 -0.1032
 3751SOL     OW14769   5.508   4.060   6.386  0.5849 -0.8056 -0.2258
 3751SOL    HW214770   5.521   4.140   6.335  4.3060 -1.0066  0.1659
 3751SOL    HW314771   5.488   4.091   6.475 -0.3770 -0.4103 -0.5596
 3751SOL    MW414772   5.507   4.075   6.391  0.9489 -0.7799 -0.2182
 3752SOL     OW14773   2.119   1.305   2.304 -0.2751  0.8416 -0.6837
 3752SOL    HW214774   2.073   1.266   2.378  1.0429 -1.8748 -1.1734
 3752SOL    HW314775   2.122   1.398   2.324  0.5460  0.1760  3.0329
 3752SOL    MW414776   2.113   1.312   2.316  0.0071  0.3954 -0.2579
 3753SOL     OW14777   2.081   0.576   1.312  0.0682  0.5804 -0.1421
 3753SOL    HW214778   2.004   0.623   1.278 -0.7139 -1.7687 -1.9668
 3753SOL    HW314779   2.117   0.633   1.380 -2.6169  2.2928 -0.0179
 3753SOL    MW414780   2.075   0.590   1.316 -0.3893  0.4964 -0.3665
 3754SOL     OW14781   2.953   2.245   4.794 -0.1681 -0.0050  0.4936
 3754SOL    HW214782   2.962   2.197   4.711  1.5982 -0.5138  0.9342
 3754SOL    HW314783   2.902   2.185   4.850 -1.8331  0.5625 -0.3395
 3754SOL    MW414784   2.947   2.231   4.790 -0.1547  0.0027  0.4418
 3755SOL     OW14785   1.702   3.803   6.248  0.1675 -0.3975 -0.4952
 3755SOL    HW214786   1.607   3.792   6.258  0.0406  0.8228 -0.2210
 3755SOL    HW314787   1.711   3.882   6.195  1.0383  0.4388  0.8408
 3755SOL    MW414788   1.690   3.812   6.243  0.2656 -0.1262 -0.2827
 3756SOL     OW14789   3.580   6.273   1.192  0.2932 -0.3158 -0.1669
 3756SOL    HW214790   3.587   6.352   1.245  0.8808 -0.1559 -0.4839
 3756SOL    HW314791   3.632   6.290   1.114  0.7123 -1.1437 -0.0797
 3756SOL    MW414792   3.588   6.286   1.189  0.4260 -0.4039 -0.1972
 3757SOL     OW14793   4.847   2.080   2.266  0.5098  0.1761  0.2485
 3757SOL    HW214794   4.853   1.985   2.258  0.8159 -0.2020  3.5707
 3757SOL    HW314795   4.912   2.114   2.205  0.9878 -1.7807 -0.3999
 3757SOL    MW414796   4.856   2.072   2.257  0.6132 -0.1319  0.6013
 3758SOL     OW14797   2.669   2.222   0.733 -0.6124  0.4971 -0.6255
 3758SOL    HW214798   2.697   2.259   0.817 -1.0589  0.3463 -0.4082
 3758SOL    HW314799   2.614   2.147   0.757  1.9030 -1.6424 -1.0241
 3758SOL    MW414800   2.665   2.217   0.747 -0.3394  0.1950 -0.6494
 3759SOL     OW14801   0.113   4.496   2.723  0.0786 -0.1989  0.1375
 3759SOL    HW214802   0.030   4.449   2.721 -0.1684  0.2466 -0.1862
 3759SOL    HW314803   0.115   4.546   2.641  0.6121 -0.1159  0.1950
 3759SOL    MW414804   0.102   4.497   2.712  0.1164 -0.1292  0.1024
 3760SOL     OW14805   5.151   3.179   2.625 -0.7762  0.1585 -0.2376
 3760SOL    HW214806   5.140   3.255   2.682 -0.6528  0.5647 -0.7432
 3760SOL    HW314807   5.242   3.184   2.596 -0.7363 -0.2507 -0.1748
 3760SOL    MW414808   5.161   3.190   2.629 -0.7546  0.1581 -0.2960
 3761SOL     OW14809   2.271   0.624   4.760  0.1776 -0.0848 -0.6276
 3761SOL    HW214810   2.279   0.700   4.818 -1.3186  0.1298 -0.6522
 3761SOL    HW314811   2.188   0.584   4.785  0.7809 -1.5150 -0.8601
 3761SOL    MW414812   2.261   0.629   4.771  0.0598 -0.2452 -0.6615
 3762SOL     OW14813   2.095   3.096   4.136 -0.2253  0.5009 -0.3548
 3762SOL    HW214814   2.158   3.167   4.129  2.0928 -1.2339  1.4541
 3762SOL    HW314815   2.080   3.068   4.045  0.6586  1.7085 -0.9017
 3762SOL    MW414816   2.101   3.101   4.123  0.1971  0.4314 -0.1883
 3763SOL     OW14817   3.228   4.355   5.464  0.2031 -0.3102  0.1051
 3763SOL    HW214818   3.295   4.403   5.515  1.8082 -2.3112  0.0196
 3763SOL    HW314819   3.168   4.322   5.530  1.1591 -1.2146  0.5602
 3763SOL    MW414820   3.229   4.357   5.480  0.5410 -0.6935  0.1539
 3764SOL     OW14821   2.450   0.006   1.403  0.2333 -0.1847  0.0542
 3764SOL    HW214822   2.380   0.069   1.388  0.2777 -0.2786 -0.5806
 3764SOL    HW314823   2.475  -0.023   1.315  0.7248 -0.5233  0.3023
 3764SOL    MW414824   2.444   0.011   1.389  0.3040 -0.2418  0.0031
 3765SOL     OW14825   5.742   0.738   5.035 -0.4908  0.3327  0.4720
 3765SOL    HW214826   5.702   0.711   5.118 -0.4567  0.1213  0.4180
 3765SOL    HW314827   5.836   0.733   5.051 -0.4724  1.2140  0.7292
 3765SOL    MW414828   5.749   0.734   5.048 -0.4839  0.4211  0.4988
 3766SOL     OW14829   4.617   4.393   6.389  0.0936 -0.1917 -0.3229
 3766SOL    HW214830   4.536   4.347   6.367 -0.3464  0.2235  0.3899
 3766SOL    HW314831   4.675   4.377   6.314 -1.0302  0.4655 -1.3644
 3766SOL    MW414832   4.614   4.385   6.376 -0.1127 -0.0502 -0.3663
 3767SOL     OW14833   0.694   2.750   5.573  0.2414 -0.0143  0.0882
 3767SOL    HW214834   0.734   2.831   5.606 -1.7018  0.1400  2.2585
 3767SOL    HW314835   0.608   2.776   5.542  0.5758 -0.8626 -1.7127
 3767SOL    MW414836   0.688   2.764   5.573  0.0291 -0.1059  0.1369
 3768SOL     OW14837   2.382   5.575   2.817  0.0486  0.4517  0.1351
 3768SOL    HW214838   2.386   5.667   2.789  1.6905  0.1844 -0.5901
 3768SOL    HW314839   2.447   5.530   2.763 -1.0748 -1.2564  0.1199
 3768SOL    MW414840   2.391   5.581   2.806  0.1170  0.1911  0.0374
 3769SOL     OW14841   1.078   2.532   4.630  0.1937 -0.8021 -0.6083
 3769SOL    HW214842   0.997   2.494   4.664  0.5037  0.2492  1.4530
 3769SOL    HW314843   1.147   2.492   4.682  0.9409 -0.9764 -1.7051
 3769SOL    MW414844   1.076   2.522   4.641  0.3332 -0.6864 -0.4810
 3770SOL     OW14845   0.857   1.114   5.556 -0.4755  0.2008  0.2933
 3770SOL    HW214846   0.833   1.028   5.591  1.0899 -0.2226  0.3945
 3770SOL    HW314847   0.849   1.103   5.461 -2.2235  0.5788  0.3603
 3770SOL    MW414848   0.853   1.101   5.548 -0.4996  0.1948  0.3155
 3771SOL     OW14849   0.102   0.601   0.278 -0.2369  0.0207 -0.0117
 3771SOL    HW214850   0.085   0.591   0.372  3.2134  0.9738  0.8754
 3771SOL    HW314851   0.147   0.685   0.270 -2.2480  0.9863 -2.9021
 3771SOL    MW414852   0.106   0.611   0.289 -0.0470  0.2738 -0.2760
 3772SOL     OW14853   2.098   6.053   3.269 -0.6714 -0.0876  0.0216
 3772SOL    HW214854   2.094   6.149   3.269 -1.6320 -0.0230 -3.0734
 3772SOL    HW314855   2.191   6.033   3.277 -0.2455  1.2054 -1.2310
 3772SOL    MW414856   2.110   6.063   3.270 -0.7420  0.0915 -0.5520
 3773SOL     OW14857   4.888   3.218   3.119 -0.2395  0.8925 -0.0742
 3773SOL    HW214858   4.801   3.198   3.153 -0.3650  1.2763 -0.1704
 3773SOL    HW314859   4.935   3.134   3.122 -0.0270  1.0277  1.6661
 3773SOL    MW414860   4.883   3.204   3.124 -0.2280  0.9610  0.1427
 3774SOL     OW14861   5.614   5.795   1.213 -0.5334 -0.0549 -0.0518
 3774SOL    HW214862   5.669   5.717   1.205 -0.2257  0.3348 -2.7716
 3774SOL    HW314863   5.666   5.856   1.265 -0.5936 -1.4496  1.7306
 3774SOL    MW414864   5.628   5.793   1.219 -0.5007 -0.1875 -0.1755
 3775SOL     OW14865   4.131   5.125   4.999  0.9362  0.0793 -0.2445
 3775SOL    HW214866   4.044   5.085   5.001  0.5236  0.9589 -0.0311
 3775SOL    HW314867   4.128   5.187   4.926  1.4631 -0.0575 -0.3872
 3775SOL    MW414868   4.119   5.128   4.990  0.9513  0.1773 -0.2351
 3776SOL     OW14869   1.640   5.296   6.063 -0.3528 -0.2740 -0.3635
 3776SOL    HW214870   1.555   5.256   6.043 -0.4290 -1.4336  1.9662
 3776SOL    HW314871   1.625   5.345   6.144  0.6418  1.5976 -1.2440
 3776SOL    MW414872   1.627   5.298   6.071 -0.2316 -0.1801 -0.1723
 3777SOL     OW14873   1.729   0.182   0.905  0.1296 -0.9169  0.2464
 3777SOL    HW214874   1.813   0.140   0.921 -0.3541 -1.5460  1.2726
 3777SOL    HW314875   1.664   0.112   0.919 -0.5234 -0.9221 -2.2253
 3777SOL    MW414876   1.731   0.167   0.909 -0.0204 -1.0006  0.0557
 3778SOL     OW14877   4.003   3.947   2.893  0.6158 -0.2519  0.3175
 3778SOL    HW214878   4.083   3.985   2.931  0.1479 -0.5291  1.6294
 3778SOL    HW314879   3.932   4.001   2.928  0.0894 -1.1626  0.6817
 3778SOL    MW414880   4.005   3.959   2.903  0.4846 -0.4087  0.5386
 3779SOL     OW14881   0.270   4.005   5.416 -0.5184  0.4033 -0.0812
 3779SOL    HW214882   0.240   3.932   5.363  1.6775 -0.5367 -0.1019
 3779SOL    HW314883   0.190   4.054   5.435 -1.8894 -1.3429 -1.0159
 3779SOL    MW414884   0.256   4.002   5.411 -0.4096  0.0489 -0.2072
 3780SOL     OW14885   4.172   3.568   3.944 -0.7063 -1.1684  0.3121
 3780SOL    HW214886   4.227   3.507   3.993  2.0591  0.8720  0.0101
 3780SOL    HW314887   4.141   3.630   4.009  0.7434 -0.0263 -0.0184
 3780SOL    MW414888   4.175   3.568   3.959 -0.1502 -0.7485  0.2286
 3781SOL     OW14889   5.462   1.246   2.935  0.0105  0.3719 -0.0570
 3781SOL    HW214890   5.375   1.282   2.953 -1.0470 -1.1860 -1.6840
 3781SOL    HW314891   5.487   1.285   2.852  0.8931  0.8288  0.4160
 3781SOL    MW414892   5.453   1.256   2.927 -0.0126  0.2267 -0.2093
 3782SOL     OW14893   1.562   6.393   5.568  0.3794  0.1372  0.1034
 3782SOL    HW214894   1.543   6.404   5.475  2.9832 -0.6159 -0.6006
 3782SOL    HW314895   1.511   6.316   5.594 -1.5523  1.2269 -0.2532
 3782SOL    MW414896   1.553   6.384   5.559  0.4681  0.1816 -0.0365
 3783SOL     OW14897   1.170   6.396   4.502  0.5613 -0.1312 -0.3819
 3783SOL    HW214898   1.265   6.397   4.512  0.6457  1.4693 -0.9452
 3783SOL    HW314899   1.146   6.489   4.496 -0.7414 -0.5431 -2.8695
 3783SOL    MW414900   1.179   6.409   4.503  0.4006  0.0257 -0.7844
 3784SOL     OW14901   5.127   4.043   0.471 -0.3136 -0.4301  0.1728
 3784SOL    HW214902   5.221   4.039   0.452 -0.3390  0.5665 -0.2011
 3784SOL    HW314903   5.123   4.046   0.567  0.1291  1.2195  0.1620
 3784SOL    MW414904   5.139   4.043   0.481 -0.2585 -0.0810  0.1220
 3785SOL     OW14905   4.660   5.350   2.102  0.0713  0.4187 -0.0326
 3785SOL    HW214906   4.722   5.345   2.028  1.3558  0.0383  1.0272
 3785SOL    HW314907   4.672   5.438   2.137  0.0075  0.3485  0.1641
 3785SOL    MW414908   4.670   5.361   2.097  0.2324  0.3592  0.1332
 3786SOL     OW14909   0.564   6.078   3.771 -0.1760 -0.1865 -0.4380
 3786SOL    HW214910   0.645   6.027   3.766 -1.1071 -1.6629 -1.0898
 3786SOL    HW314911   0.540   6.094   3.680 -1.1608 -0.6940 -0.2808
 3786SOL    MW414912   0.571   6.073   3.758 -0.4288 -0.4482 -0.5032
 3787SOL     OW14913   4.838   5.806   0.977 -0.3718  0.2834  0.1489
 3787SOL    HW214914   4.810   5.750   1.049  0.0977 -1.9807 -1.3335
 3787SOL    HW314915   4.934   5.800   0.977 -0.4185 -2.0668 -2.2941
 3787SOL    MW414916   4.847   5.798   0.987 -0.3160 -0.3254 -0.3690
 3788SOL     OW14917   3.151   6.158   0.155 -0.4420 -0.6219 -0.9369
 3788SOL    HW214918   3.216   6.193   0.217 -1.6410  1.6996 -0.8902
 3788SOL    HW314919   3.140   6.067   0.181  0.5541 -0.2421  0.9958
 3788SOL    MW414920   3.158   6.151   0.166 -0.4688 -0.2655 -0.6757
 3789SOL     OW14921   2.780   4.563   5.892 -0.0393 -0.1117  0.3480
 3789SOL    HW214922   2.729   4.602   5.821 -0.8444  1.1443  1.5530
 3789SOL    HW314923   2.720   4.499   5.931  0.1917 -0.3809  0.2618
 3789SOL    MW414924   2.765   4.559   5.888 -0.1150  0.0185  0.4956
 3790SOL     OW14925   2.487   5.115   1.012 -0.6973  0.2398 -0.2404
 3790SOL    HW214926   2.570   5.117   1.059 -1.3039  0.6523  0.8376
 3790SOL    HW314927   2.432   5.179   1.056 -2.3707 -1.6129  0.5598
 3790SOL    MW414928   2.491   5.123   1.024 -0.9981  0.0498  0.0074
 3791SOL     OW14929   5.163   3.669   5.554  0.4302  1.2459  0.0791
 3791SOL    HW214930   5.229   3.739   5.565  2.8628 -0.8846  0.0007
 3791SOL    HW314931   5.168   3.646   5.462 -1.2338  1.7211 -0.1555
 3791SOL    MW414932   5.173   3.675   5.543  0.5316  1.0275  0.0378
 3792SOL     OW14933   6.359   2.743   2.842 -0.0224  0.4207 -0.2121
 3792SOL    HW214934   6.371   2.680   2.771 -1.6187  0.5395 -0.6212
 3792SOL    HW314935   6.440   2.737   2.893  1.2852  0.5253 -2.1610
 3792SOL    MW414936   6.372   2.734   2.839 -0.0605  0.4502 -0.5232
 3793SOL     OW14937   4.364   3.496   5.264 -0.4012  0.1489  0.1009
 3793SOL    HW214938   4.392   3.428   5.202 -0.1483 -0.0650  0.4446
 3793SOL    HW314939   4.279   3.466   5.295 -1.2581  1.0445 -1.3114
 3793SOL    MW414940   4.357   3.483   5.260 -0.4809  0.2388 -0.0401
 3794SOL     OW14941   1.650   5.688   1.128  0.3728 -0.3392 -0.4852
 3794SOL    HW214942   1.587   5.721   1.193  2.6386  1.5492  0.9211
 3794SOL    HW314943   1.687   5.609   1.168  3.7756  2.2718  2.1262
 3794SOL    MW414944   1.647   5.682   1.142  1.1207  0.2544  0.0449
 3795SOL     OW14945   1.621   1.908   4.126 -0.0333 -0.2425 -0.4001
 3795SOL    HW214946   1.555   1.967   4.089 -0.6271  0.3684  1.5581
 3795SOL    HW314947   1.586   1.820   4.109 -0.9658  0.0598 -0.0569
 3795SOL    MW414948   1.608   1.904   4.119 -0.2347 -0.1220 -0.0965
 3796SOL     OW14949   3.773   3.598   1.350 -0.5874  0.3846  0.3362
 3796SOL    HW214950   3.818   3.682   1.356 -3.3481  1.9146  1.3731
 3796SOL    HW314951   3.765   3.568   1.440  0.1073 -0.9340  0.0014
 3796SOL    MW414952   3.778   3.605   1.362 -0.8600  0.4125  0.4289
 3797SOL     OW14953   5.825   0.369   1.731 -0.6439 -0.5734  0.0912
 3797SOL    HW214954   5.786   0.407   1.652  1.3342 -0.5032 -0.9252
 3797SOL    HW314955   5.908   0.414   1.740 -0.4403 -1.2219  1.7313
 3797SOL    MW414956   5.831   0.380   1.722 -0.3561 -0.6497  0.1735
 3798SOL     OW14957   5.964   0.687   0.425  0.2437 -0.0048  0.1338
 3798SOL    HW214958   5.941   0.603   0.465  1.1969  0.6611  2.2375
 3798SOL    HW314959   5.880   0.725   0.399 -0.5526 -0.1633  2.2763
 3798SOL    MW414960   5.950   0.681   0.427  0.2644  0.0622  0.6941
 3799SOL     OW14961   5.493   1.044   6.013  0.4529  0.3418 -0.0395
 3799SOL    HW214962   5.494   0.954   6.046  2.1497 -0.3716 -1.8237
 3799SOL    HW314963   5.573   1.083   6.048  1.7012 -0.0868 -2.2240
 3799SOL    MW414964   5.503   1.037   6.022  0.8414  0.1911 -0.5631
 3800SOL     OW14965   2.996   5.131   4.134  0.2463 -0.3848 -0.7431
 3800SOL    HW214966   2.975   5.050   4.181  1.6700 -0.4352 -0.1462
 3800SOL    HW314967   3.090   5.126   4.118  0.6301  1.7407  0.4616
 3800SOL    MW414968   3.006   5.120   4.138  0.4848 -0.1110 -0.5054
 3801SOL     OW14969   5.344   4.723   0.903 -0.7789 -0.5728 -0.3331
 3801SOL    HW214970   5.338   4.819   0.901 -1.8228 -0.6242  0.0420
 3801SOL    HW314971   5.355   4.697   0.812  0.4438 -0.0486 -0.3536
 3801SOL    MW414972   5.345   4.732   0.891 -0.7553 -0.5104 -0.2863
 3802SOL     OW14973   2.575   2.771   5.091  0.3675 -0.6885  0.2989
 3802SOL    HW214974   2.529   2.687   5.095 -0.0778 -0.4425  0.3476
 3802SOL    HW314975   2.665   2.747   5.068  0.1773 -1.1560  0.0191
 3802SOL    MW414976   2.581   2.757   5.088  0.2836 -0.7177  0.2684
 3803SOL     OW14977   4.642   0.917   2.291  0.0645  0.0289 -0.1336
 3803SOL    HW214978   4.687   0.977   2.352  0.6025 -0.2375 -0.2653
 3803SOL    HW314979   4.696   0.918   2.212 -0.4919  0.1683 -0.5197
 3803SOL    MW414980   4.655   0.925   2.289  0.0621  0.0121 -0.2019
 3804SOL     OW14981   2.230   2.028   3.016 -0.4116  0.1665 -0.0608
 3804SOL    HW214982   2.204   2.096   2.953 -0.4607  1.0019  0.8261
 3804SOL    HW314983   2.152   1.973   3.025 -0.9172  0.9345  0.3858
 3804SOL    MW414984   2.216   2.030   3.009 -0.4848  0.3780  0.1152
 3805SOL     OW14985   0.852   2.890   5.093  0.6064  0.0536 -0.0307
 3805SOL    HW214986   0.801   2.838   5.154  0.3943  0.4694  0.1521
 3805SOL    HW314987   0.788   2.949   5.053  0.7586 -0.1510 -0.5848
 3805SOL    MW414988   0.837   2.891   5.096  0.5985  0.0814 -0.0797
 3806SOL     OW14989   1.845   2.764   4.107 -0.1200  0.0413 -0.6305
 3806SOL    HW214990   1.930   2.720   4.101  0.0289 -0.0719  1.6086
 3806SOL    HW314991   1.791   2.721   4.041  1.1283 -0.8696 -1.1056
 3806SOL    MW414992   1.849   2.753   4.098  0.0644 -0.0938 -0.3978
 3807SOL     OW14993   2.930   2.441   5.670  0.2988 -0.0036 -0.4448
 3807SOL    HW214994   2.884   2.447   5.754  1.3298 -2.7826  0.4344
 3807SOL    HW314995   2.878   2.379   5.619  0.8619 -0.0014 -1.0253
 3807SOL    MW414996   2.917   2.434   5.674  0.5091 -0.3700 -0.4054
 3808SOL     OW14997   0.251   1.887   3.080 -0.3119 -0.0229  0.6288
 3808SOL    HW214998   0.248   1.879   2.984 -0.7836 -2.5535  0.7873
 3808SOL    HW314999   0.316   1.955   3.096 -0.2344  0.4760 -1.4952
 3808SOL    MW415000   0.259   1.895   3.069 -0.3639 -0.2909  0.3695
 3809SOL     OW15001   5.687   5.653   5.103 -0.6019  0.2337 -0.2702
 3809SOL    HW215002   5.593   5.671   5.102 -0.7206  0.2534  2.5405
 3809SOL    HW315003   5.694   5.564   5.136  0.3667 -0.1398 -1.4223
 3809SOL    MW415004   5.675   5.644   5.107 -0.4898  0.1870 -0.0513
 3810SOL     OW15005   6.301   3.402   5.796  0.2326 -0.2166  0.0773
 3810SOL    HW215006   6.233   3.414   5.730 -0.5289 -1.8301  0.5311
 3810SOL    HW315007   6.297   3.482   5.849 -0.9541 -0.0611 -0.2155
 3810SOL    MW415008   6.292   3.414   5.795 -0.0244 -0.4090  0.0985
 3811SOL     OW15009   1.468   5.355   5.542 -0.1539  0.0326 -0.2686
 3811SOL    HW215010   1.406   5.282   5.545 -0.9708  0.6495 -1.3158
 3811SOL    HW315011   1.418   5.430   5.573  0.7088  0.1613  0.8984
 3811SOL    MW415012   1.453   5.355   5.546 -0.1479  0.1309 -0.2528
 3812SOL     OW15013   2.174   0.489   2.763  0.2064 -0.0153  0.0253
 3812SOL    HW215014   2.218   0.574   2.758 -1.3530  1.0500  2.6229
 3812SOL    HW315015   2.090   0.503   2.719 -0.2124 -0.0645  0.7882
 3812SOL    MW415016   2.169   0.502   2.756 -0.0546  0.1188  0.4687
 3813SOL     OW15017   5.208   3.089   0.304 -0.5501  0.2563 -0.3454
 3813SOL    HW215018   5.278   3.083   0.369  1.0039  0.9741 -1.8662
 3813SOL    HW315019   5.164   3.171   0.325 -0.9338 -0.1745  0.5969
 3813SOL    MW415020   5.212   3.099   0.315 -0.3957  0.2942 -0.4217
 3814SOL     OW15021   5.779   5.208   1.319  0.4603  0.2594 -0.4112
 3814SOL    HW215022   5.732   5.173   1.394 -0.0285 -1.4040 -1.4489
 3814SOL    HW315023   5.860   5.157   1.315 -0.2076 -0.7549 -1.8837
 3814SOL    MW415024   5.784   5.197   1.328  0.3077 -0.0939 -0.7424
 3815SOL     OW15025   1.956   1.456   3.372 -0.4917  0.3143  0.1564
 3815SOL    HW215026   1.915   1.515   3.435 -0.6314  0.3062  0.0727
 3815SOL    HW315027   1.903   1.376   3.376 -0.1906  0.1256  0.4073
 3815SOL    MW415028   1.944   1.453   3.380 -0.4704  0.2884  0.1784
 3816SOL     OW15029   3.209   5.617   2.026 -0.0681 -0.3019 -0.2633
 3816SOL    HW215030   3.197   5.567   1.946  0.2330 -1.4687  0.3928
 3816SOL    HW315031   3.136   5.590   2.082  0.3057 -0.2968  0.2378
 3816SOL    MW415032   3.198   5.607   2.023  0.0209 -0.4551 -0.1106
 3817SOL     OW15033   0.618   6.041   0.017  0.5924 -0.3224  0.3753
 3817SOL    HW215034   0.551   5.977  -0.008  0.2267  0.4458 -0.6619
 3817SOL    HW315035   0.682   5.990   0.068  1.6394 -2.1384 -2.4952
 3817SOL    MW415036   0.618   6.026   0.021  0.6823 -0.4606 -0.1403
 3818SOL     OW15037   3.678   1.962   2.519  0.2037  0.2559 -0.2378
 3818SOL    HW215038   3.757   1.960   2.466  0.8706 -2.2191  0.7315
 3818SOL    HW315039   3.699   2.023   2.591  0.9194  0.2464 -0.4344
 3818SOL    MW415040   3.691   1.970   2.522  0.3861 -0.0719 -0.1358
 3819SOL     OW15041   3.783   1.156   5.403  0.8100  0.0565 -0.1182
 3819SOL    HW215042   3.763   1.084   5.463  0.6070  0.8835  0.8420
 3819SOL    HW315043   3.817   1.113   5.325 -0.6778 -1.1642 -0.1450
 3819SOL    MW415044   3.785   1.141   5.401  0.5869  0.0046  0.0050
 3820SOL     OW15045   0.195   2.157   2.923 -0.0488 -0.1029 -0.6352
 3820SOL    HW215046   0.129   2.127   2.985 -0.7549  1.0852 -0.7734
 3820SOL    HW315047   0.148   2.218   2.866  1.0373  0.3198 -1.1093
 3820SOL    MW415048   0.180   2.161   2.923  0.0013  0.1096 -0.7160
 3821SOL     OW15049   5.917   2.545   6.336 -0.0643  0.6279 -0.9212
 3821SOL    HW215050   6.004   2.508   6.328 -0.2606  0.4135 -2.4778
 3821SOL    HW315051   5.931   2.637   6.358  0.6153  0.8879 -2.3514
 3821SOL    MW415052   5.930   2.552   6.338 -0.0005  0.6339 -1.3153
 3822SOL     OW15053   5.643   5.292   4.647 -0.2002  0.5210  0.0777
 3822SOL    HW215054   5.551   5.316   4.640 -0.2231  0.3038 -0.4253
 3822SOL    HW315055   5.679   5.355   4.709 -0.7654  0.3703  0.5677
 3822SOL    MW415056   5.636   5.304   4.654 -0.2778  0.4725  0.0760
 3823SOL     OW15057   0.804   5.322   2.343 -0.6969  0.2248  0.0915
 3823SOL    HW215058   0.849   5.383   2.285  0.4921 -0.4434  0.2696
 3823SOL    HW315059   0.874   5.266   2.378 -1.5018 -0.0182  1.4093
 3823SOL    MW415060   0.819   5.322   2.340 -0.6462  0.1046  0.2889
 3824SOL     OW15061   2.835   5.584   0.275 -0.1456  0.0418 -0.1720
 3824SOL    HW215062   2.807   5.501   0.238 -0.0628 -0.2368  0.3885
 3824SOL    HW315063   2.828   5.646   0.202 -2.7947  0.1287  0.0498
 3824SOL    MW415064   2.830   5.582   0.260 -0.4842  0.0165 -0.0688
 3825SOL     OW15065   4.631   2.377   2.747 -0.5912 -0.0855  0.5410
 3825SOL    HW215066   4.545   2.413   2.768 -0.3010  0.4889  0.7793
 3825SOL    HW315067   4.622   2.283   2.757 -0.9527  0.0430  1.4472
 3825SOL    MW415068   4.619   2.370   2.751 -0.6006  0.0072  0.6920
 3826SOL     OW15069   6.386   0.171   1.068  0.1700 -0.4601  0.0322
 3826SOL    HW215070   6.437   0.090   1.071 -3.3940 -3.0639 -1.6907
 3826SOL    HW315071   6.418   0.216   0.990  1.7996 -0.3884  0.6873
 3826SOL    MW415072   6.397   0.166   1.058 -0.0852 -0.7942 -0.1087
 3827SOL     OW15073   5.154   0.588   3.657 -0.4029  0.0321  0.3678
 3827SOL    HW215074   5.087   0.653   3.673 -1.4802 -0.9833  0.1228
 3827SOL    HW315075   5.173   0.595   3.564 -0.8754 -0.3279  0.2417
 3827SOL    MW415076   5.148   0.597   3.647 -0.6074 -0.1494  0.3188
 3828SOL     OW15077   4.645   2.484   1.107  0.1577 -0.2848 -0.7110
 3828SOL    HW215078   4.618   2.521   1.191 -2.0694  0.8146 -1.8213
 3828SOL    HW315079   4.627   2.391   1.115 -0.5740 -0.1034 -0.1627
 3828SOL    MW415080   4.639   2.477   1.119 -0.2327 -0.1158 -0.7852
 3829SOL     OW15081   6.241   2.095   6.211 -0.1023  0.0949 -1.0102
 3829SOL    HW215082   6.265   2.040   6.137 -0.0058 -1.1075 -0.1267
 3829SOL    HW315083   6.147   2.112   6.199 -0.4805 -1.4696 -0.5871
 3829SOL    MW415084   6.231   2.090   6.200 -0.1395 -0.2702 -0.8378
 3830SOL     OW15085   2.794   3.569   5.575 -0.0885 -0.5617 -0.7280
 3830SOL    HW215086   2.765   3.645   5.625 -0.5947  0.9683 -3.1711
 3830SOL    HW315087   2.736   3.567   5.499  0.3383 -3.0364 -1.0607
 3830SOL    MW415088   2.783   3.579   5.571 -0.0990 -0.6864 -1.0942
 3831SOL     OW15089   4.874   1.354   3.082  0.6512 -0.6887  0.2518
 3831SOL    HW215090   4.791   1.389   3.049 -0.3130 -2.9389  0.0906
 3831SOL    HW315091   4.923   1.331   3.003  1.2766  0.2383  0.3550
 3831SOL    MW415092   4.869   1.356   3.067  0.6065 -0.8633  0.2442
 3832SOL     OW15093   5.699   0.630   5.709 -0.3206 -0.2303  0.1178
 3832SOL    HW215094   5.732   0.563   5.769 -0.4997 -1.3886 -1.0201
 3832SOL    HW315095   5.726   0.713   5.748  2.3078 -1.0318  0.2371
 3832SOL    MW415096   5.707   0.632   5.722  0.0025 -0.4889 -0.0166
 3833SOL     OW15097   4.359   4.463   2.741 -0.3572  0.2543 -0.2633
 3833SOL    HW215098   4.397   4.551   2.744 -1.5974  0.8062  0.1833
 3833SOL    HW315099   4.264   4.478   2.741 -0.6148 -1.1003  0.8841
 3833SOL    MW415100   4.351   4.477   2.742 -0.5548  0.1484 -0.0530
 3834SOL     OW15101   3.977   4.178   1.673  0.0885  0.0664 -0.1670
 3834SOL    HW215102   3.885   4.155   1.691  0.6997 -2.2200  0.3023
 3834SOL    HW315103   4.010   4.212   1.757  0.0234 -0.3325  0.0195
 3834SOL    MW415104   3.969   4.180   1.686  0.1605 -0.2879 -0.0805
 3835SOL     OW15105   4.759   4.059   1.741  0.0481  0.0893  0.2483
 3835SOL    HW215106   4.698   4.074   1.813  0.3025  1.3838  0.2184
 3835SOL    HW315107   4.705   4.023   1.671 -0.2588 -0.8878  0.9573
 3835SOL    MW415108   4.744   4.056   1.741  0.0411  0.1312  0.3379
 3836SOL     OW15109   4.823   1.205   0.628 -0.3604  0.3810 -0.2668
 3836SOL    HW215110   4.865   1.228   0.711 -2.0592 -0.9217  1.0364
 3836SOL    HW315111   4.735   1.242   0.635 -0.7635 -0.3523 -1.1817
 3836SOL    MW415112   4.817   1.213   0.640 -0.6377  0.1124 -0.2156
 3837SOL     OW15113   1.824   3.600   5.533 -0.2347 -0.1102 -0.1411
 3837SOL    HW215114   1.839   3.581   5.440  0.8468  1.1973 -0.2637
 3837SOL    HW315115   1.831   3.514   5.576 -0.5927 -0.7079 -1.2291
 3837SOL    MW415116   1.827   3.586   5.527 -0.1393 -0.0166 -0.3008
 3838SOL     OW15117   2.275   4.284   2.740 -0.7401  0.0716  0.5913
 3838SOL    HW215118   2.223   4.355   2.701 -0.4478  0.5550  1.0773
 3838SOL    HW315119   2.319   4.324   2.814  2.6030  0.4456 -1.3959
 3838SOL    MW415120   2.274   4.299   2.744 -0.2605  0.1847  0.3932
 3839SOL     OW15121   4.127   2.972   1.236  0.1838  0.1641  0.4304
 3839SOL    HW215122   4.120   2.932   1.323  1.6156  0.7650  0.8434
 3839SOL    HW315123   4.087   3.059   1.247  0.6214  0.3519  0.5823
 3839SOL    MW415124   4.121   2.979   1.249  0.4304  0.2682  0.5049
 3840SOL     OW15125   5.589   0.913   5.406 -0.2644 -0.7324 -0.0922
 3840SOL    HW215126   5.610   0.999   5.371 -1.9293 -0.3899 -0.3632
 3840SOL    HW315127   5.667   0.886   5.454 -0.1812  1.5387  1.1765
 3840SOL    MW415128   5.602   0.921   5.407 -0.4731 -0.3876  0.0394
 3841SOL     OW15129   0.018   0.397   4.636  0.0153  0.1838  0.1427
 3841SOL    HW215130   0.031   0.335   4.707 -1.4819 -0.4950 -0.1426
 3841SOL    HW315131   0.037   0.483   4.675 -0.9506 -0.1564  1.4220
 3841SOL    MW415132   0.022   0.400   4.651 -0.3097  0.0493  0.2739
 3842SOL     OW15133   0.283   5.710   2.976  0.5886  0.3060 -0.1565
 3842SOL    HW215134   0.203   5.753   3.006  1.5688  1.0435  1.5961
 3842SOL    HW315135   0.274   5.619   3.006  0.2715  0.3000 -0.2662
 3842SOL    MW415136   0.271   5.704   2.984  0.6761  0.4025  0.0603
 3843SOL     OW15137   4.412   0.352   4.549 -0.5240  0.2413 -0.4624
 3843SOL    HW215138   4.419   0.288   4.478 -0.9911 -1.2696  0.7945
 3843SOL    HW315139   4.339   0.321   4.602 -0.7244  1.8174  0.2350
 3843SOL    MW415140   4.404   0.339   4.546 -0.6120  0.2499 -0.2045
 3844SOL     OW15141   3.471   0.822   1.046 -0.0325 -0.6646  0.2961
 3844SOL    HW215142   3.388   0.849   1.086 -0.1184 -0.1202 -0.2231
 3844SOL    HW315143   3.521   0.904   1.039 -1.2320 -0.0749 -3.5565
 3844SOL    MW415144   3.467   0.837   1.050 -0.2021 -0.5150 -0.2807
 3845SOL     OW15145   1.688   1.431   3.676  0.1675  0.4065  0.0656
 3845SOL    HW215146   1.622   1.477   3.727  0.2271 -0.6199  1.1019
 3845SOL    HW315147   1.653   1.342   3.665  1.4038 -0.1979  0.7588
 3845SOL    MW415148   1.675   1.425   3.681  0.3385  0.1913  0.2938
 3846SOL     OW15149   6.022   0.697   5.067 -0.4301 -0.5695  0.1980
 3846SOL    HW215150   6.044   0.675   5.158  1.7621 -0.9527 -0.3916
 3846SOL    HW315151   6.104   0.690   5.019 -1.5062 -0.2127 -1.8181
 3846SOL    MW415152   6.035   0.693   5.073 -0.2829 -0.5730 -0.1458
 3847SOL     OW15153   3.824   6.293   2.493 -0.1831  0.4568  0.1488
 3847SOL    HW215154   3.816   6.386   2.471  2.0760  0.7459  0.3181
 3847SOL    HW315155   3.788   6.285   2.581  1.7550  1.6870  1.1170
 3847SOL    MW415156   3.818   6.304   2.501  0.3707  0.6572  0.2989
 3848SOL     OW15157   1.006   6.303   3.821 -0.3929 -0.0692 -0.0219
 3848SOL    HW215158   0.950   6.375   3.792 -1.9733 -2.2642 -3.0022
 3848SOL    HW315159   0.984   6.292   3.914  1.0445  4.0603  1.0355
 3848SOL    MW415160   0.996   6.311   3.830 -0.4118  0.1860 -0.2756
 3849SOL     OW15161   3.495   2.395   2.173  0.1663  0.1808 -0.0848
 3849SOL    HW215162   3.414   2.349   2.151  1.1273 -2.4115  1.2411
 3849SOL    HW315163   3.488   2.479   2.129 -3.0107 -0.1175 -0.4044
 3849SOL    MW415164   3.483   2.400   2.165 -0.1261 -0.2006  0.0479
 3850SOL     OW15165   6.279   0.111   5.181 -0.1989  0.3917  0.8542
 3850SOL    HW215166   6.196   0.073   5.152  0.6076  0.2573 -1.4717
 3850SOL    HW315167   6.273   0.203   5.158  1.3161 -0.1271 -2.0846
 3850SOL    MW415168   6.267   0.118   5.174  0.1074  0.3055  0.1596
 3851SOL     OW15169   4.771   0.247   2.778 -0.1097  0.3431 -0.3755
 3851SOL    HW215170   4.688   0.222   2.738  0.1048  0.4917 -0.9228
 3851SOL    HW315171   4.780   0.189   2.854 -0.7603  0.4017 -0.2537
 3851SOL    MW415172   4.761   0.236   2.783 -0.1672  0.3704 -0.4316
 3852SOL     OW15173   6.431   4.086   5.076  0.6118  0.5162 -0.1666
 3852SOL    HW215174   6.434   4.057   4.984  0.0437  0.1670 -0.0817
 3852SOL    HW315175   6.339   4.108   5.090  0.8262  1.2387  0.1184
 3852SOL    MW415176   6.419   4.085   5.065  0.5652  0.5654 -0.1178
 3853SOL     OW15177   0.057   0.770   2.321  0.7660 -0.3355 -0.4008
 3853SOL    HW215178   0.071   0.777   2.416 -1.8901  1.0481 -0.0087
 3853SOL    HW315179  -0.017   0.711   2.312  0.0605  0.6757 -1.5007
 3853SOL    MW415180   0.049   0.763   2.333  0.3225 -0.0196 -0.4942
 3854SOL     OW15181   6.171   0.575   2.868 -0.1422 -0.0197  0.2317
 3854SOL    HW215182   6.266   0.582   2.869 -0.1097 -0.4400 -0.0863
 3854SOL    HW315183   6.149   0.531   2.950 -0.2514  2.3296  1.5708
 3854SOL    MW415184   6.181   0.570   2.879 -0.1523  0.2348  0.3664
 3855SOL     OW15185   4.330   3.986   2.601  0.3629  0.0115  0.4055
 3855SOL    HW215186   4.381   4.001   2.681  0.2601  4.4506 -0.0647
 3855SOL    HW315187   4.394   3.960   2.535  0.9341 -0.6831  1.2194
 3855SOL    MW415188   4.345   3.985   2.603  0.4247  0.5056  0.4508
 3856SOL     OW15189   5.074   4.936   3.929  0.1484 -0.1672  0.0664
 3856SOL    HW215190   5.087   5.030   3.939  2.1351 -0.6543  4.9039
 3856SOL    HW315191   5.162   4.899   3.929 -0.6072 -2.0954  0.2117
 3856SOL    MW415192   5.087   4.943   3.930  0.3109 -0.4858  0.7238
 3857SOL     OW15193   3.589   5.544   6.421 -0.9721  0.0545 -0.5925
 3857SOL    HW215194   3.624   5.456   6.431  1.1131  0.7821 -0.8302
 3857SOL    HW315195   3.652   5.600   6.467 -0.6584  1.6891 -2.8423
 3857SOL    MW415196   3.602   5.540   6.428 -0.6556  0.3662 -0.9207
 3858SOL     OW15197   4.649   3.500   4.729  0.2735 -0.0247  0.0448
 3858SOL    HW215198   4.683   3.459   4.809  0.9951  0.7688  0.1641
 3858SOL    HW315199   4.727   3.515   4.675 -0.3106 -1.5216 -1.2990
 3858SOL    MW415200   4.664   3.496   4.733  0.2916 -0.1175 -0.1168
 3859SOL     OW15201   4.974   2.726   3.132 -0.2663 -0.4251 -0.0120
 3859SOL    HW215202   4.960   2.766   3.047  1.8420 -0.1384 -0.2959
 3859SOL    HW315203   4.895   2.675   3.149 -1.2455  0.4974 -1.5546
 3859SOL    MW415204   4.962   2.725   3.123 -0.1174 -0.2656 -0.2530
 3860SOL     OW15205   0.333   5.079   2.575 -0.4469 -0.0017  0.4291
 3860SOL    HW215206   0.311   4.991   2.544 -1.3495 -0.4824  2.2719
 3860SOL    HW315207   0.328   5.134   2.497  2.9077 -1.9458 -1.4486
 3860SOL    MW415208   0.330   5.074   2.561 -0.1234 -0.3216  0.4245
 3861SOL     OW15209   3.319   3.874   0.737  0.0981  0.0714 -0.2515
 3861SOL    HW215210   3.296   3.786   0.707 -0.5042  0.3670 -0.6614
 3861SOL    HW315211   3.278   3.881   0.823 -1.7307  0.7401 -1.1423
 3861SOL    MW415212   3.311   3.863   0.745 -0.2226  0.1986 -0.4231
 3862SOL     OW15213   2.352   6.140   3.477 -0.1269 -0.2899  0.3135
 3862SOL    HW215214   2.390   6.222   3.446  0.8331 -1.4699 -1.8680
 3862SOL    HW315215   2.409   6.112   3.549 -0.4516  0.9082  1.0549
 3862SOL    MW415216   2.365   6.147   3.482 -0.0431 -0.2875  0.1235
 3863SOL     OW15217   0.953   2.994   1.850 -0.3983  0.0319  0.3825
 3863SOL    HW215218   0.863   2.985   1.880 -1.3329  2.0999 -1.4408
 3863SOL    HW315219   0.972   2.913   1.803 -0.2581 -1.5740  3.0257
 3863SOL    MW415220   0.944   2.982   1.848 -0.5031  0.0929  0.4907
 3864SOL     OW15221   3.217   5.969   1.353  0.0244 -0.2626  0.3570
 3864SOL    HW215222   3.172   5.885   1.351 -0.6469  0.1132 -0.5676
 3864SOL    HW315223   3.148   6.035   1.345  0.6369  0.3527 -0.0308
 3864SOL    MW415224   3.202   5.967   1.352  0.0166 -0.1318  0.1838
 3865SOL     OW15225   6.221   3.559   1.003 -0.2310 -0.5838 -0.0357
 3865SOL    HW215226   6.191   3.595   1.087 -2.4636  1.4759 -1.5611
 3865SOL    HW315227   6.316   3.554   1.011 -0.3241  0.2832  2.3245
 3865SOL    MW415228   6.229   3.563   1.015 -0.5378 -0.1976  0.0745
 3866SOL     OW15229   3.932   2.331   4.932 -0.1310 -0.1121  0.2798
 3866SOL    HW215230   3.892   2.385   4.864  1.7408  2.2032  0.9115
 3866SOL    HW315231   3.978   2.262   4.883 -0.1755  0.5449 -0.7117
 3866SOL    MW415232   3.933   2.329   4.916  0.1101  0.2800  0.2323
 3867SOL     OW15233   5.591   1.347   2.120 -0.1739  0.3561  0.6537
 3867SOL    HW215234   5.519   1.308   2.169  0.4862 -0.9929  0.5866
 3867SOL    HW315235   5.630   1.275   2.071  1.7794  0.8283  1.3810
 3867SOL    MW415236   5.587   1.332   2.120  0.1709  0.2404  0.7408
 3868SOL     OW15237   1.390   3.987   5.233 -0.0769  0.7658 -0.5540
 3868SOL    HW215238   1.349   3.901   5.245 -0.8835  1.3800  1.6352
 3868SOL    HW315239   1.326   4.037   5.181  0.4024  0.0688 -1.8443
 3868SOL    MW415240   1.376   3.983   5.228 -0.1201  0.7549 -0.4354
 3869SOL     OW15241   3.949   1.887   2.922 -0.2436  0.5924  0.0258
 3869SOL    HW215242   3.894   1.965   2.930 -2.2437 -0.6719 -0.7954
 3869SOL    HW315243   3.955   1.871   2.828 -0.1433 -0.4481  0.2028
 3869SOL    MW415244   3.943   1.895   2.911 -0.4943  0.2883 -0.0592
 3870SOL     OW15245   2.800   3.291   2.414  0.4057 -0.0611  0.5647
 3870SOL    HW215246   2.723   3.319   2.464  0.6425 -0.0881  0.9447
 3870SOL    HW315247   2.839   3.221   2.466  0.7635  0.0380  0.4334
 3870SOL    MW415248   2.795   3.285   2.427  0.4842 -0.0516  0.5975
 3871SOL     OW15249   3.444   2.894   2.953  0.2610 -0.7742  0.2672
 3871SOL    HW215250   3.440   2.947   3.033  1.6968 -0.5403  0.2070
 3871SOL    HW315251   3.532   2.908   2.919 -0.8434  0.5446 -2.3423
 3871SOL    MW415252   3.455   2.903   2.959  0.3048 -0.5694 -0.0850
 3872SOL     OW15253   1.107   4.656   2.184  0.5145 -0.8100  0.2124
 3872SOL    HW215254   1.112   4.635   2.090 -1.1994 -1.5524  0.2558
 3872SOL    HW315255   1.088   4.572   2.226  3.0239 -0.8440  1.4725
 3872SOL    MW415256   1.105   4.642   2.177  0.6194 -0.9125  0.3844
 3873SOL     OW15257   3.245   5.508   1.753  0.8909 -0.4578 -0.2775
 3873SOL    HW215258   3.288   5.423   1.750  0.0358 -0.8833 -0.9922
 3873SOL    HW315259   3.252   5.542   1.664  2.8207  1.0755  0.3894
 3873SOL    MW415260   3.251   5.501   1.741  1.0327 -0.3116 -0.2838
 3874SOL     OW15261   3.523   3.078   2.625 -0.3060 -0.0251  0.4208
 3874SOL    HW215262   3.586   3.047   2.689  0.0070  0.6059  0.4272
 3874SOL    HW315263   3.501   3.000   2.573 -0.3536 -0.4775  1.1074
 3874SOL    MW415264   3.528   3.064   2.626 -0.2710 -0.0015  0.5122
 3875SOL     OW15265   4.607   3.029   1.045 -0.3330 -0.5594 -0.6139
 3875SOL    HW215266   4.684   3.003   1.095 -1.0899 -1.6078  0.0463
 3875SOL    HW315267   4.534   3.017   1.106 -0.9809  0.9690 -1.0298
 3875SOL    MW415268   4.607   3.024   1.060 -0.5184 -0.4961 -0.5817
 3876SOL     OW15269   4.687   1.050   1.785  0.3238  0.1812 -0.1452
 3876SOL    HW215270   4.689   0.965   1.830  0.9693  1.5297  2.5993
 3876SOL    HW315271   4.744   1.037   1.709 -0.0189 -1.9853 -0.1140
 3876SOL    MW415272   4.695   1.037   1.781  0.3638  0.0733  0.2210
 3877SOL     OW15273   4.011   0.602   0.855 -0.4747 -0.4912  0.3611
 3877SOL    HW215274   4.038   0.623   0.766  0.6051  0.7095  0.9352
 3877SOL    HW315275   3.944   0.666   0.876 -0.0603 -0.1605  0.7133
 3877SOL    MW415276   4.006   0.613   0.846 -0.2776 -0.2891  0.4833
 3878SOL     OW15277   1.199   2.773   4.316 -0.3275 -0.0953  0.4573
 3878SOL    HW215278   1.226   2.822   4.394  0.2178  0.5633 -0.1346
 3878SOL    HW315279   1.135   2.830   4.273 -0.3385 -0.2847  0.2197
 3878SOL    MW415280   1.194   2.787   4.321 -0.2570 -0.0334  0.3478
 3879SOL     OW15281   2.699   5.973   0.311 -0.7053  0.9377 -0.1296
 3879SOL    HW215282   2.664   6.010   0.231 -1.2008  3.4049  1.1226
 3879SOL    HW315283   2.760   6.040   0.344 -0.7511  0.1508  1.6962
 3879SOL    MW415284   2.703   5.987   0.305 -0.7767  1.1594  0.2765
 3880SOL     OW15285   0.693   1.499   5.499 -0.2500 -0.3654 -0.1045
 3880SOL    HW215286   0.728   1.587   5.515  0.1081 -0.4080 -0.6471
 3880SOL    HW315287   0.603   1.503   5.533 -0.3147  0.2748 -0.3324
 3880SOL    MW415288   0.686   1.511   5.506 -0.2113 -0.2866 -0.2062
 3881SOL     OW15289   4.642   5.748   5.795  0.0916 -0.1006 -0.0788
 3881SOL    HW215290   4.588   5.806   5.850 -1.5063 -1.0719 -0.5600
 3881SOL    HW315291   4.675   5.804   5.726  0.0653  0.6114  0.4723
 3881SOL    MW415292   4.639   5.763   5.793 -0.1227 -0.1348 -0.0696
 3882SOL     OW15293   0.477   1.120   2.416 -0.1495 -0.0040 -0.4267
 3882SOL    HW215294   0.552   1.101   2.473 -0.2631 -0.2661 -0.3619
 3882SOL    HW315295   0.492   1.210   2.387 -0.1889  0.1999  0.1613
 3882SOL    MW415296   0.489   1.129   2.420 -0.1697 -0.0117 -0.3406
 3883SOL     OW15297   2.710   2.806   3.112  0.0416 -0.2019  0.3999
 3883SOL    HW215298   2.620   2.772   3.112  0.2968 -1.2076 -2.9869
 3883SOL    HW315299   2.704   2.889   3.064  1.0570 -1.0246 -1.2630
 3883SOL    MW415300   2.697   2.812   3.106  0.2092 -0.4431 -0.2663
 3884SOL     OW15301   1.635   3.259   0.379 -0.0217  0.0665 -0.1536
 3884SOL    HW215302   1.628   3.181   0.323  0.5079  0.3902 -0.6827
 3884SOL    HW315303   1.602   3.230   0.464 -1.0407 -0.3740 -0.6845
 3884SOL    MW415304   1.630   3.245   0.383 -0.0863  0.0511 -0.2934
 3885SOL     OW15305   3.702   4.906   1.378 -0.8099 -0.0827  0.5311
 3885SOL    HW215306   3.763   4.853   1.327 -0.1297  1.3835 -0.2357
 3885SOL    HW315307   3.680   4.850   1.453 -0.0643 -1.4013 -0.1815
 3885SOL    MW415308   3.707   4.891   1.381 -0.6217 -0.0633  0.3359
 3886SOL     OW15309   4.110   4.932   2.283  0.0812 -0.5264 -0.7965
 3886SOL    HW215310   4.202   4.951   2.304 -0.0823  0.2882 -0.7656
 3886SOL    HW315311   4.065   5.015   2.299 -0.8169 -1.1579  0.0808
 3886SOL    MW415312   4.116   4.946   2.288 -0.0589 -0.5023 -0.6767
 3887SOL     OW15313   2.264   3.471   4.511  0.2084 -0.1277 -0.5907
 3887SOL    HW215314   2.260   3.478   4.416 -0.4281 -0.3343 -0.5854
 3887SOL    HW315315   2.349   3.508   4.534 -0.1128  1.0292 -1.1481
 3887SOL    MW415316   2.275   3.477   4.502  0.0820 -0.0023 -0.6635
 3888SOL     OW15317   1.913   4.970   2.629  0.0925 -0.2959  0.2029
 3888SOL    HW215318   1.902   4.897   2.568 -0.8279  0.0964 -0.1311
 3888SOL    HW315319   1.952   4.931   2.707  0.4856 -0.9655 -0.3144
 3888SOL    MW415320   1.917   4.955   2.631  0.0229 -0.3325  0.0906
 3889SOL     OW15321   2.483   6.409   2.558 -0.1107 -0.0264  0.2452
 3889SOL    HW215322   2.572   6.444   2.553 -0.1302  0.1854  1.1392
 3889SOL    HW315323   2.488   6.339   2.623 -0.9954  1.3408  1.8702
 3889SOL    MW415324   2.495   6.405   2.566 -0.2300  0.1819  0.5776
 3890SOL     OW15325   5.116   5.811   1.110  0.3972 -0.2832 -0.0600
 3890SOL    HW215326   5.175   5.879   1.078 -0.3059  0.4849  0.2537
 3890SOL    HW315327   5.043   5.859   1.150 -0.1861 -1.2174  0.0222
 3890SOL    MW415328   5.114   5.826   1.111  0.2275 -0.3051 -0.0077
 3891SOL     OW15329   5.190   0.602   2.730 -0.0136 -0.0547 -0.2721
 3891SOL    HW215330   5.107   0.563   2.758  0.2026  0.1744  0.7359
 3891SOL    HW315331   5.178   0.696   2.742  0.3115 -0.0013 -0.3490
 3891SOL    MW415332   5.178   0.609   2.735  0.0579 -0.0175 -0.1492
 3892SOL     OW15333   4.767   2.363   5.765 -0.2392  0.1413 -0.0424
 3892SOL    HW215334   4.781   2.447   5.809 -0.4274 -0.0946  0.4729
 3892SOL    HW315335   4.697   2.321   5.815  0.2545 -0.5722  0.0646
 3892SOL    MW415336   4.760   2.368   5.778 -0.1989  0.0160  0.0397
 3893SOL     OW15337   5.138   6.032   6.361 -0.6361 -0.2748  0.1509
 3893SOL    HW215338   5.043   6.021   6.364 -0.4219 -2.5011 -0.1224
 3893SOL    HW315339   5.161   6.071   6.446 -1.9393  2.1825 -0.5105
 3893SOL    MW415340   5.128   6.036   6.372 -0.7798 -0.2443  0.0276
 3894SOL     OW15341   2.217   4.044   0.587 -0.5053  0.1615 -0.4081
 3894SOL    HW215342   2.174   4.008   0.665 -2.5343  1.6498 -0.7559
 3894SOL    HW315343   2.288   4.098   0.622  1.0205 -2.1295  0.1967
 3894SOL    MW415344   2.220   4.047   0.602 -0.5717  0.0556 -0.3742
 3895SOL     OW15345   2.331   0.676   0.900  0.4410 -0.0674 -0.5878
 3895SOL    HW215346   2.320   0.713   0.988  0.4688  0.6359 -0.8768
 3895SOL    HW315347   2.425   0.663   0.891  0.6481  1.6377 -1.2128
 3895SOL    MW415348   2.342   0.679   0.910  0.4720  0.2503 -0.7084
 3896SOL     OW15349   0.929   3.749   2.377  0.3127 -0.6412 -0.0200
 3896SOL    HW215350   1.012   3.741   2.329  0.8554 -1.7504  1.0650
 3896SOL    HW315351   0.947   3.712   2.463 -1.1147 -0.2038  0.4988
 3896SOL    MW415352   0.942   3.743   2.382  0.1960 -0.7298  0.1916
 3897SOL     OW15353   0.171   4.945   3.858  0.3984 -0.7210  0.3909
 3897SOL    HW215354   0.236   4.935   3.928  1.6835 -0.7360 -0.7695
 3897SOL    HW315355   0.203   5.018   3.805 -0.5031 -0.7645 -0.2416
 3897SOL    MW415356   0.184   4.953   3.860  0.4490 -0.7287  0.1544
 3898SOL     OW15357   2.911   0.548   5.065 -0.3924  0.2630  0.1258
 3898SOL    HW215358   2.968   0.587   4.999  1.3243 -0.7349  0.9628
 3898SOL    HW315359   2.832   0.522   5.017  0.9084 -0.6589 -1.6027
 3898SOL    MW415360   2.908   0.550   5.050  0.0058  0.0097  0.0082
 3899SOL     OW15361   4.350   5.619   2.147 -0.1748  0.2889 -0.5636
 3899SOL    HW215362   4.353   5.632   2.242 -0.7686  0.1637 -0.5228
 3899SOL    HW315363   4.404   5.542   2.131 -2.0542 -1.2107 -0.0286
 3899SOL    MW415364   4.357   5.611   2.157 -0.5011  0.0745 -0.4876
 3900SOL     OW15365   0.455   0.507   0.678  0.7070 -0.5864  0.0838
 3900SOL    HW215366   0.535   0.459   0.700  0.4663 -1.3458 -0.6535
 3900SOL    HW315367   0.448   0.574   0.747  3.7980  1.7694 -1.5987
 3900SOL    MW415368   0.465   0.510   0.690  1.0831 -0.3758 -0.2354
 3901SOL     OW15369   3.700   2.234   2.060  0.0748  0.3300 -0.6796
 3901SOL    HW215370   3.784   2.274   2.082 -0.5649  2.0386 -1.1767
 3901SOL    HW315371   3.635   2.286   2.108 -0.6385 -2.3968  1.6278
 3901SOL    MW415372   3.702   2.246   2.069 -0.1037  0.1957 -0.4408
 3902SOL     OW15373   2.590   2.708   1.296 -0.2278  0.4657  0.0952
 3902SOL    HW215374   2.496   2.691   1.282 -0.1919  0.1422  0.2384
 3902SOL    HW315375   2.594   2.800   1.321 -0.5413  0.3984  0.3984
 3902SOL    MW415376   2.578   2.718   1.298 -0.2645  0.4141  0.1541
 3903SOL     OW15377   0.455   0.365   3.966  0.1804 -0.0651 -0.6851
 3903SOL    HW215378   0.394   0.292   3.978 -0.7923  0.9209  0.6279
 3903SOL    HW315379   0.436   0.425   4.039  0.1245  2.0789 -2.3682
 3903SOL    MW415380   0.445   0.363   3.978  0.0447  0.3479 -0.7339
 3904SOL     OW15381   2.908   1.647   1.093  0.6642 -0.2259  0.0676
 3904SOL    HW215382   2.992   1.635   1.136  0.8657 -0.0317 -0.2674
 3904SOL    HW315383   2.921   1.612   1.005  0.2684 -0.5817  0.1448
 3904SOL    MW415384   2.921   1.640   1.087  0.6386 -0.2473  0.0336
 3905SOL     OW15385   6.201   2.427   4.114  0.6049  0.4262  0.0860
 3905SOL    HW215386   6.268   2.371   4.075  1.0807  0.9664  0.1230
 3905SOL    HW315387   6.249   2.492   4.164 -0.0095 -1.2960  3.1380
 3905SOL    MW415388   6.216   2.428   4.115  0.5866  0.2703  0.4935
 3906SOL     OW15389   0.332   5.443   3.484 -0.5105  0.3345 -0.3075
 3906SOL    HW215390   0.296   5.362   3.449  2.8801 -0.6909 -1.9431
 3906SOL    HW315391   0.285   5.458   3.566 -2.4313 -2.3232 -0.8164
 3906SOL    MW415392   0.321   5.434   3.490 -0.3166 -0.1514 -0.5905
 3907SOL     OW15393   4.759   3.937   4.633 -0.1744 -0.0120  0.1921
 3907SOL    HW215394   4.744   3.847   4.604 -1.2073 -0.2811  1.4582
 3907SOL    HW315395   4.846   3.959   4.599  0.4096 -1.7356  0.4318
 3907SOL    MW415396   4.769   3.928   4.625 -0.2336 -0.2749  0.3908
 3908SOL     OW15397   4.291   5.992   2.518  0.3880 -0.3693 -0.5350
 3908SOL    HW215398   4.205   5.961   2.490 -0.0809  0.5179 -0.1138
 3908SOL    HW315399   4.349   5.969   2.445 -0.7186  1.4818 -2.1005
 3908SOL    MW415400   4.288   5.985   2.505  0.1801 -0.0080 -0.6860
 3909SOL     OW15401   1.497   0.787   0.389  0.2035  0.0491  0.4665
 3909SOL    HW215402   1.436   0.740   0.445  1.4344 -0.5620  1.3418
 3909SOL    HW315403   1.447   0.806   0.310 -1.0341 -0.6436  1.0527
 3909SOL    MW415404   1.483   0.783   0.386  0.2026 -0.1229  0.6593
 3910SOL     OW15405   1.670   4.686   4.646 -0.3684 -0.6881  0.3488
 3910SOL    HW215406   1.603   4.735   4.599  0.7115  1.3428  0.8058
 3910SOL    HW315407   1.732   4.752   4.676  0.3310 -2.1648  2.4445
 3910SOL    MW415408   1.670   4.701   4.644 -0.1336 -0.6150  0.6856
 3911SOL     OW15409   0.750   1.208   3.510  0.5410  0.1361 -0.3977
 3911SOL    HW215410   0.658   1.224   3.533  1.1021  1.6532  0.9967
 3911SOL    HW315411   0.776   1.135   3.566  0.6609  0.8856  0.5472
 3911SOL    MW415412   0.741   1.201   3.520  0.6308  0.4351 -0.0890
 3912SOL     OW15413   1.935   5.324   1.396 -1.3379 -0.1905 -0.0982
 3912SOL    HW215414   1.967   5.239   1.427  1.8324  1.0545  0.4403
 3912SOL    HW315415   1.906   5.369   1.475  0.1990  0.4198  0.1537
 3912SOL    MW415416   1.936   5.319   1.410 -0.7168  0.0543  0.0061
 3913SOL     OW15417   6.356   6.167   1.008 -0.1549  0.0466 -0.5643
 3913SOL    HW215418   6.339   6.197   1.097  2.7617  0.3381 -0.0178
 3913SOL    HW315419   6.333   6.242   0.953  1.0419  1.0478  0.2514
 3913SOL    MW415420   6.350   6.181   1.012  0.3878  0.2172 -0.3846
 3914SOL     OW15421   5.943   4.243   5.028  0.4417  0.5613 -0.0870
 3914SOL    HW215422   5.923   4.218   4.938  1.6379  2.4630 -0.9476
 3914SOL    HW315423   5.861   4.228   5.076 -0.3544 -0.0474 -1.5678
 3914SOL    MW415424   5.929   4.238   5.022  0.4945  0.7319 -0.3960
 3915SOL     OW15425   0.222   3.768   4.488 -0.2591  0.0941  0.4027
 3915SOL    HW215426   0.191   3.700   4.547 -0.4204 -1.1969 -1.0862
 3915SOL    HW315427   0.278   3.823   4.541 -0.5462 -0.9017  1.7872
 3915SOL    MW415428   0.225   3.766   4.503 -0.3182 -0.2076  0.3889
 3916SOL     OW15429   2.203   6.418   3.016 -0.1403  0.4175 -0.0244
 3916SOL    HW215430   2.187   6.453   3.104 -1.5604  0.5270 -0.2900
 3916SOL    HW315431   2.182   6.491   2.958 -1.7216 -0.3952 -0.5337
 3916SOL    MW415432   2.198   6.432   3.020 -0.5363  0.3247 -0.1266
 3917SOL     OW15433   3.424   4.916   4.239  0.0070 -0.0415  0.0949
 3917SOL    HW215434   3.443   4.883   4.151  0.0548 -2.7169  1.0111
 3917SOL    HW315435   3.328   4.924   4.242  0.1229  2.9776 -1.0685
 3917SOL    MW415436   3.414   4.913   4.228  0.0286  0.0039  0.0623
 3918SOL     OW15437   5.814   0.911   2.638  0.0059  0.0710  1.0971
 3918SOL    HW215438   5.875   0.984   2.628 -0.9123  0.7223 -0.0943
 3918SOL    HW315439   5.809   0.896   2.733  1.8718  0.0813  1.2344
 3918SOL    MW415440   5.821   0.918   2.649  0.1310  0.1583  0.9580
 3919SOL     OW15441   4.209   0.114   3.980  0.0329  0.0498 -0.0776
 3919SOL    HW215442   4.299   0.139   3.960  0.1290  0.0333  0.3202
 3919SOL    HW315443   4.202   0.023   3.951  0.2787 -0.0906  0.3043
 3919SOL    MW415444   4.220   0.106   3.974  0.0780  0.0291  0.0253
 3920SOL     OW15445   2.729   4.588   1.532  0.4981  0.4901  0.4132
 3920SOL    HW215446   2.806   4.544   1.497  0.6284 -0.7579  2.1363
 3920SOL    HW315447   2.749   4.601   1.625 -1.8936 -1.2683  1.2996
 3920SOL    MW415448   2.742   4.584   1.540  0.1997  0.0934  0.7575
 3921SOL     OW15449   0.465   1.061   1.276  0.7348 -0.1443  0.8476
 3921SOL    HW215450   0.411   1.016   1.341 -0.4665 -0.2252 -0.1712
 3921SOL    HW315451   0.554   1.059   1.313  0.5036 -2.2229  1.4343
 3921SOL    MW415452   0.470   1.055   1.289  0.5458 -0.4292  0.7906
 3922SOL     OW15453   6.160   2.301   4.904  0.0613 -0.0520  0.1391
 3922SOL    HW215454   6.170   2.396   4.906  1.0345 -0.1152 -0.8171
 3922SOL    HW315455   6.162   2.279   4.811 -1.2952 -0.9111  0.2873
 3922SOL    MW415456   6.162   2.311   4.892  0.0107 -0.1737  0.0325
 3923SOL     OW15457   5.960   0.056   3.753 -0.0678 -0.5723  0.0335
 3923SOL    HW215458   5.953   0.015   3.839  2.4428 -1.0810  0.0541
 3923SOL    HW315459   5.927   0.145   3.766 -0.2016 -0.8058  1.3894
 3923SOL    MW415460   5.955   0.062   3.766  0.2458 -0.6703  0.2151
 3924SOL     OW15461   0.636   1.585   3.372  0.3691  0.3424  0.4442
 3924SOL    HW215462   0.619   1.650   3.303  1.6053  0.1327 -0.0905
 3924SOL    HW315463   0.576   1.513   3.353 -0.6462  1.0887  0.7337
 3924SOL    MW415464   0.626   1.584   3.360  0.3983  0.4132  0.4119
 3925SOL     OW15465   3.337   2.786   5.725  0.0940 -0.1594  0.1041
 3925SOL    HW215466   3.317   2.749   5.639 -1.0388  0.5406  0.0543
 3925SOL    HW315467   3.326   2.714   5.786  2.2115 -1.0333 -0.4338
 3925SOL    MW415468   3.333   2.772   5.721  0.2239 -0.1823  0.0266
 3926SOL     OW15469   4.556   1.162   6.209  0.0059  0.3229  0.5447
 3926SOL    HW215470   4.645   1.136   6.188 -0.0966  0.0032  0.5052
 3926SOL    HW315471   4.552   1.255   6.188  0.1792  0.2204  0.0667
 3926SOL    MW415472   4.567   1.171   6.204  0.0153  0.2672  0.4765
 3927SOL     OW15473   5.757   0.319   2.584 -0.1340 -0.7824 -0.1084
 3927SOL    HW215474   5.702   0.243   2.601 -0.3345 -0.5957  0.0847
 3927SOL    HW315475   5.734   0.381   2.653  1.3950 -1.2783  0.9035
 3927SOL    MW415476   5.747   0.317   2.595  0.0413 -0.8232  0.0506
 3928SOL     OW15477   3.339   1.547   2.657  0.3429 -0.7311 -0.7442
 3928SOL    HW215478   3.310   1.494   2.583 -1.3060 -1.6666  0.4888
 3928SOL    HW315479   3.411   1.496   2.696 -1.4208 -2.3647  0.6096
 3928SOL    MW415480   3.345   1.533   2.653 -0.1074 -1.0700 -0.4029
 3929SOL     OW15481   0.889   3.400   1.580  0.2628 -0.0188 -0.1562
 3929SOL    HW215482   0.932   3.406   1.495  0.6854 -1.3543 -0.0588
 3929SOL    HW315483   0.940   3.335   1.628 -1.0601 -0.6650  0.4455
 3929SOL    MW415484   0.901   3.392   1.575  0.1440 -0.2802 -0.0639
 3930SOL     OW15485   0.446   3.878   4.665 -0.0418 -0.2154  0.3600
 3930SOL    HW215486   0.397   3.960   4.660  0.4331  0.1606  1.4644
 3930SOL    HW315487   0.537   3.905   4.672  0.2864 -0.8928 -0.9317
 3930SOL    MW415488   0.451   3.892   4.665  0.0641 -0.2552  0.3353
 3931SOL     OW15489   3.883   5.249   2.593  0.0097  0.6439  0.2603
 3931SOL    HW215490   3.800   5.261   2.639 -0.3445 -1.2460  0.1893
 3931SOL    HW315491   3.900   5.155   2.597  1.5675  0.8383 -0.7475
 3931SOL    MW415492   3.874   5.238   2.599  0.1685  0.4202  0.1180
 3932SOL     OW15493   0.394   4.824   0.258 -0.0906 -0.5428 -0.0387
 3932SOL    HW215494   0.363   4.830   0.349  1.0305 -0.8740  0.3918
 3932SOL    HW315495   0.334   4.879   0.208 -0.4915 -0.0324  0.9722
 3932SOL    MW415496   0.382   4.832   0.264  0.0044 -0.5191  0.1515
 3933SOL     OW15497   3.377   6.105   5.411 -0.2194 -0.4444 -0.3790
 3933SOL    HW215498   3.287   6.078   5.396  0.0790 -2.5702  1.1650
 3933SOL    HW315499   3.370   6.177   5.474 -0.9003  1.3453 -2.3813
 3933SOL    MW415500   3.364   6.111   5.417 -0.2699 -0.4887 -0.4395
 3934SOL     OW15501   4.665   1.464   3.512  0.1919  0.3784 -0.1739
 3934SOL    HW215502   4.620   1.540   3.476 -3.0883 -0.1724  2.3036
 3934SOL    HW315503   4.732   1.501   3.570  0.3074  1.3215 -0.8921
 3934SOL    MW415504   4.668   1.479   3.515 -0.2257  0.4302  0.0582
 3935SOL     OW15505   4.740   0.358   5.888 -0.3366 -0.2804 -0.0464
 3935SOL    HW215506   4.748   0.453   5.881  1.8151 -0.2749  1.4357
 3935SOL    HW315507   4.723   0.328   5.799  1.4648  1.3377 -1.0035
 3935SOL    MW415508   4.739   0.366   5.875  0.1849 -0.0662  0.0229
 3936SOL     OW15509   2.723   1.702   3.786 -0.1113  0.4705  0.0223
 3936SOL    HW215510   2.788   1.635   3.763  1.1778  2.2285 -1.7689
 3936SOL    HW315511   2.682   1.725   3.703 -2.0026  0.4945  0.9166
 3936SOL    MW415512   2.726   1.696   3.772 -0.1908  0.7056 -0.0960
 3937SOL     OW15513   2.251   0.875   2.477 -0.2311  0.2354  0.2983
 3937SOL    HW215514   2.219   0.926   2.403  0.7175  0.0578 -0.2443
 3937SOL    HW315515   2.225   0.785   2.457 -0.5329  0.2771  0.4961
 3937SOL    MW415516   2.243   0.870   2.465 -0.1458  0.2175  0.2528
 3938SOL     OW15517   2.656   4.133   0.299  0.3380 -0.0106  0.3842
 3938SOL    HW215518   2.691   4.128   0.210  1.3268  0.6491  0.7202
 3938SOL    HW315519   2.574   4.182   0.290  1.0126  1.0792 -0.0235
 3938SOL    MW415520   2.650   4.139   0.286  0.5574  0.2202  0.3748
 3939SOL     OW15521   4.831   1.558   0.459  0.0791  0.6862 -0.5072
 3939SOL    HW215522   4.748   1.528   0.424  0.5981 -0.4606 -0.7786
 3939SOL    HW315523   4.887   1.571   0.382  0.6902 -0.2129 -0.2231
 3939SOL    MW415524   4.828   1.556   0.444  0.2282  0.4163 -0.5055
 3940SOL     OW15525   5.260   0.892   3.488  0.2000 -0.6452 -0.2077
 3940SOL    HW215526   5.236   0.856   3.403  0.1259 -1.5152  0.1782
 3940SOL    HW315527   5.338   0.844   3.514  0.8198  0.3124 -0.2277
 3940SOL    MW415528   5.267   0.881   3.480  0.2720 -0.6337 -0.1594
 3941SOL     OW15529   4.999   4.989   5.107 -0.5393 -0.6143 -0.0851
 3941SOL    HW215530   5.074   5.022   5.156  0.0869 -0.8204 -0.9043
 3941SOL    HW315531   4.925   5.042   5.139  0.1420  0.3823 -0.1155
 3941SOL    MW415532   4.999   5.000   5.118 -0.3668 -0.5100 -0.1972
 3942SOL     OW15533   2.899   4.269   2.490 -0.1905  0.1630  0.2265
 3942SOL    HW215534   2.826   4.227   2.444  1.1262 -0.9879 -0.9022
 3942SOL    HW315535   2.877   4.362   2.490 -1.8941 -0.2072  0.3756
 3942SOL    MW415536   2.886   4.276   2.484 -0.2415 -0.0377  0.0972
 3943SOL     OW15537   5.639   1.963   1.892  0.5582 -0.0815 -0.0293
 3943SOL    HW215538   5.581   2.020   1.842  2.3856 -0.1279 -2.3547
 3943SOL    HW315539   5.580   1.916   1.952 -1.6505  0.5554 -1.5674
 3943SOL    MW415540   5.624   1.965   1.893  0.5079 -0.0036 -0.5390
 3944SOL     OW15541   5.524   5.359   0.366 -0.6351 -0.0247  0.1859
 3944SOL    HW215542   5.611   5.393   0.389  0.1231 -0.2791 -2.0609
 3944SOL    HW315543   5.527   5.267   0.391 -0.3879  0.0405  0.4134
 3944SOL    MW415544   5.536   5.352   0.372 -0.5025 -0.0497 -0.0806
 3945SOL     OW15545   1.041   0.617   4.475  0.0358 -0.0072 -0.5148
 3945SOL    HW215546   1.036   0.619   4.379  1.5073  2.9260 -0.6779
 3945SOL    HW315547   1.135   0.626   4.493 -0.3058  0.5092  1.1545
 3945SOL    MW415548   1.053   0.619   4.465  0.1849  0.4479 -0.3161
 3946SOL     OW15549   2.110   4.464   3.534 -0.0941  0.0747  0.6994
 3946SOL    HW215550   2.149   4.547   3.559 -0.1815  0.9101 -1.7033
 3946SOL    HW315551   2.061   4.483   3.454 -1.4859 -1.9498  0.9800
 3946SOL    MW415552   2.108   4.477   3.527 -0.2893 -0.0822  0.4194
 3947SOL     OW15553   0.425   1.610   6.088  0.1260 -0.5968  0.1038
 3947SOL    HW215554   0.490   1.566   6.034 -0.3633  0.0067 -0.9997
 3947SOL    HW315555   0.415   1.553   6.165  2.0259 -0.6472  0.3678
 3947SOL    MW415556   0.432   1.597   6.091  0.3121 -0.5238 -0.0070
 3948SOL     OW15557   6.057   3.079   3.529  0.1207 -0.3060 -0.2439
 3948SOL    HW215558   6.103   3.045   3.605 -1.2112  2.9608  2.3017
 3948SOL    HW315559   6.122   3.132   3.483  0.2916 -0.1912  0.1297
 3948SOL    MW415560   6.072   3.082   3.533 -0.0325  0.1402  0.1412
 3949SOL     OW15561   0.982   3.631   2.619 -0.4085  0.2862  0.2542
 3949SOL    HW215562   0.954   3.544   2.592  0.4446  0.3102 -0.7925
 3949SOL    HW315563   0.943   3.644   2.706 -1.6063 -0.6127 -0.1252
 3949SOL    MW415564   0.973   3.621   2.627 -0.4540  0.1708  0.0660
 3950SOL     OW15565   4.021   4.825   0.509 -0.0036 -0.3382  0.2251
 3950SOL    HW215566   4.016   4.897   0.572  0.9980 -2.4856  2.9707
 3950SOL    HW315567   4.112   4.796   0.514  0.1798 -0.5270 -2.4561
 3950SOL    MW415568   4.033   4.831   0.518  0.1527 -0.6464  0.2336
 3951SOL     OW15569   1.734   3.579   1.574  0.2519  0.4008 -0.7432
 3951SOL    HW215570   1.667   3.523   1.535 -2.6837  2.8145  0.4260
 3951SOL    HW315571   1.726   3.564   1.668  0.3256  1.7603 -0.5021
 3951SOL    MW415572   1.724   3.570   1.581 -0.1257  0.8986 -0.5571
 3952SOL     OW15573   6.257   4.015   6.231 -0.1537 -0.1337  0.2183
 3952SOL    HW215574   6.217   3.940   6.186 -1.2277  0.8940 -0.6052
 3952SOL    HW315575   6.323   3.976   6.289 -1.5886 -1.8247  0.8125
 3952SOL    MW415576   6.260   4.000   6.233 -0.4847 -0.2212  0.1880
 3953SOL     OW15577   3.550   1.490   1.317  0.1577  0.5054 -0.3762
 3953SOL    HW215578   3.472   1.439   1.337  0.8640 -0.6032 -0.3493
 3953SOL    HW315579   3.551   1.559   1.383 -0.6657  0.3856 -0.2301
 3953SOL    MW415580   3.540   1.492   1.328  0.1423  0.3433 -0.3534
 3954SOL     OW15581   4.931   3.053   1.815  0.1646  0.6294  0.0394
 3954SOL    HW215582   5.014   3.030   1.774  0.1776 -0.1992  0.4965
 3954SOL    HW315583   4.871   2.983   1.790 -1.0141  2.2718 -2.0066
 3954SOL    MW415584   4.934   3.041   1.806  0.0108  0.7368 -0.1702
 3955SOL     OW15585   4.921   1.432   1.859  0.0178  0.0434  0.2317
 3955SOL    HW215586   4.974   1.369   1.810  0.5376 -0.0973  0.9617
 3955SOL    HW315587   4.864   1.377   1.914 -1.0001  0.1869 -0.6368
 3955SOL    MW415588   4.920   1.416   1.859 -0.0479  0.0438  0.2134
 3956SOL     OW15589   5.875   3.952   6.028  0.8259 -0.2548  0.1430
 3956SOL    HW215590   5.797   3.939   5.974  1.0515 -0.2578 -0.1843
 3956SOL    HW315591   5.914   4.033   5.997  0.1542  0.5369  1.2974
 3956SOL    MW415592   5.870   3.961   6.017  0.7670 -0.1507  0.2521
 3957SOL     OW15593   3.163   2.115   4.332 -0.0278  0.3133  0.0307
 3957SOL    HW215594   3.092   2.092   4.392 -0.4045 -0.0017 -0.5251
 3957SOL    HW315595   3.156   2.210   4.321  1.0562  0.6381  1.7398
 3957SOL    MW415596   3.153   2.124   4.339  0.0655  0.3146  0.1829
 3958SOL     OW15597   1.250   3.485   4.155 -0.0505  0.0643 -0.2756
 3958SOL    HW215598   1.248   3.562   4.098 -1.3977  0.6584  0.5344
 3958SOL    HW315599   1.212   3.415   4.102  0.7834  0.0356 -0.8635
 3958SOL    MW415600   1.245   3.486   4.141 -0.1182  0.1389 -0.2463
 3959SOL     OW15601   3.171   0.805   0.858  0.0268 -0.2281 -0.0582
 3959SOL    HW215602   3.098   0.746   0.877  0.9518 -1.2648  0.4097
 3959SOL    HW315603   3.242   0.747   0.829  0.6584  0.7551 -0.5374
 3959SOL    MW415604   3.171   0.789   0.857  0.2322 -0.2352 -0.0597
 3960SOL     OW15605   2.212   1.561   3.527 -0.2045 -0.2105 -0.1292
 3960SOL    HW215606   2.255   1.599   3.604  0.8413 -2.0993  0.2943
 3960SOL    HW315607   2.123   1.541   3.556  0.4150 -1.6333  0.8840
 3960SOL    MW415608   2.206   1.564   3.541  0.0152 -0.6474  0.0604
 3961SOL     OW15609   1.615   6.067   0.712 -0.3885 -0.4010 -0.4127
 3961SOL    HW215610   1.582   6.152   0.682 -0.5076  0.0201  0.8616
 3961SOL    HW315611   1.617   6.074   0.807  0.5047 -1.5043 -0.3316
 3961SOL    MW415612   1.611   6.079   0.721 -0.2864 -0.4910 -0.2338
 3962SOL     OW15613   2.943   2.397   2.463  0.1195  0.5649  0.2506
 3962SOL    HW215614   2.904   2.310   2.464  0.7347  0.2358 -1.5159
 3962SOL    HW315615   2.867   2.456   2.458 -0.2620  0.1133  0.5406
 3962SOL    MW415616   2.928   2.394   2.463  0.1503  0.4619  0.0558
 3963SOL     OW15617   3.999   3.204   5.197  0.1246  0.5571  0.0953
 3963SOL    HW215618   4.045   3.213   5.114  1.1652 -0.9772  0.4782
 3963SOL    HW315619   3.910   3.176   5.173  1.0575 -2.2133 -0.4745
 3963SOL    MW415620   3.993   3.202   5.183  0.3850 -0.0109  0.0707
 3964SOL     OW15621   4.322   2.481   3.909  0.3888  0.2264 -0.3347
 3964SOL    HW215622   4.315   2.400   3.960 -1.5093 -0.1458 -1.1194
 3964SOL    HW315623   4.336   2.451   3.819 -0.8237  0.7461 -0.7075
 3964SOL    MW415624   4.323   2.466   3.904 -0.0216  0.2459 -0.4874
 3965SOL     OW15625   1.677   4.864   0.904 -0.4078  0.1919 -0.1253
 3965SOL    HW215626   1.744   4.835   0.965 -1.8135  1.0194  1.9033
 3965SOL    HW315627   1.651   4.785   0.856 -0.4474 -0.8357  1.5335
 3965SOL    MW415628   1.682   4.850   0.905 -0.5985  0.1655  0.3612
 3966SOL     OW15629   0.547   3.730   5.551  0.6903 -0.4994 -0.2096
 3966SOL    HW215630   0.623   3.686   5.589  0.8635  1.9740  2.6965
 3966SOL    HW315631   0.474   3.670   5.565  1.4366 -1.2094  0.7327
 3966SOL    MW415632   0.547   3.717   5.557  0.8116 -0.2667  0.2982
 3967SOL     OW15633   5.736   3.199   1.597  0.2449  0.0053  0.2098
 3967SOL    HW215634   5.678   3.268   1.628  0.0268  0.5560 -1.3313
 3967SOL    HW315635   5.798   3.244   1.539  1.5823 -0.7356  1.0138
 3967SOL    MW415636   5.737   3.214   1.593  0.3926 -0.0198  0.1126
 3968SOL     OW15637   1.802   1.866   2.782 -0.3781 -0.0289  0.0974
 3968SOL    HW215638   1.738   1.809   2.740  0.3455 -2.5118  2.1245
 3968SOL    HW315639   1.886   1.820   2.771  0.3014  0.8041  1.5166
 3968SOL    MW415640   1.805   1.853   2.775 -0.1930 -0.2466  0.5521
 3969SOL     OW15641   2.700   0.134   2.671 -0.3820 -0.6124  0.0041
 3969SOL    HW215642   2.789   0.168   2.668 -0.4632 -0.4223 -0.3703
 3969SOL    HW315643   2.644   0.212   2.671 -0.5361 -0.6712  1.8664
 3969SOL    MW415644   2.704   0.149   2.671 -0.4130 -0.5950  0.2004
 3970SOL     OW15645   1.330   2.442   3.841  0.0295  0.2718  0.5551
 3970SOL    HW215646   1.371   2.528   3.835 -0.0520  0.2878  0.1880
 3970SOL    HW315647   1.286   2.442   3.926 -0.1826  0.6883  0.4488
 3970SOL    MW415648   1.330   2.453   3.851 -0.0092  0.3289  0.4926
 3971SOL     OW15649   3.745   5.112   5.688 -0.5124  0.6634  0.4173
 3971SOL    HW215650   3.701   5.085   5.769  0.1072 -1.7898  0.0315
 3971SOL    HW315651   3.707   5.057   5.620  0.2845  1.3642 -0.6269
 3971SOL    MW415652   3.734   5.101   5.690 -0.3255  0.4322  0.2287
 3972SOL     OW15653   1.077   5.028   5.083  0.1651  0.2951  0.5748
 3972SOL    HW215654   1.107   4.941   5.056  0.1623  0.0329  1.3682
 3972SOL    HW315655   1.066   5.077   5.002 -3.4405 -1.5747 -0.2694
 3972SOL    MW415656   1.079   5.023   5.069 -0.3110  0.0138  0.5681
 3973SOL     OW15657   3.472   4.254   2.457 -0.3060 -0.0050 -0.1024
 3973SOL    HW215658   3.457   4.203   2.537  0.2463 -0.9715 -0.5979
 3973SOL    HW315659   3.411   4.327   2.464  0.3661  0.4512  1.6418
 3973SOL    MW415660   3.462   4.257   2.469 -0.1445 -0.0723  0.0624
 3974SOL     OW15661   4.291   4.893   6.271  0.2138 -0.3222 -0.4968
 3974SOL    HW215662   4.367   4.855   6.227  0.1816 -1.9260  0.7510
 3974SOL    HW315663   4.218   4.835   6.248 -0.3039  0.2555 -0.3510
 3974SOL    MW415664   4.291   4.880   6.262  0.1413 -0.4575 -0.3129
 3975SOL     OW15665   0.958   0.671   1.024 -0.6996  0.0193 -0.5605
 3975SOL    HW215666   0.902   0.647   1.098 -0.8822  0.6182 -0.5004
 3975SOL    HW315667   1.036   0.709   1.064 -1.1832  1.1879 -0.6740
 3975SOL    MW415668   0.961   0.673   1.039 -0.7875  0.2525 -0.5676
 3976SOL     OW15669   2.601   0.687   3.149 -0.4414 -0.4815 -0.3034
 3976SOL    HW215670   2.663   0.686   3.221 -1.5366 -3.6101  0.7693
 3976SOL    HW315671   2.530   0.744   3.180  0.8082  1.3710 -0.6557
 3976SOL    MW415672   2.600   0.695   3.163 -0.4210 -0.6498 -0.2083
 3977SOL     OW15673   2.601   5.318   3.829 -0.1915 -0.1726  0.0200
 3977SOL    HW215674   2.519   5.278   3.858 -0.3058 -0.8568 -1.1699
 3977SOL    HW315675   2.653   5.244   3.796  0.4073  0.4106 -0.3567
 3977SOL    MW415676   2.597   5.303   3.828 -0.1276 -0.1859 -0.1867
 3978SOL     OW15677   2.969   3.924   2.323  0.0033 -0.5454  0.0448
 3978SOL    HW215678   2.916   4.003   2.316  0.4543 -0.3132 -0.9614
 3978SOL    HW315679   2.935   3.878   2.400  0.8614  1.4633  1.7266
 3978SOL    MW415680   2.958   3.929   2.332  0.1760 -0.2497  0.1340
 3979SOL     OW15681   5.477   6.154   6.000 -0.8193 -0.2927  0.1459
 3979SOL    HW215682   5.456   6.077   5.947 -0.6173  0.3853 -0.9479
 3979SOL    HW315683   5.573   6.154   6.005 -0.7640  0.4518 -0.7419
 3979SOL    MW415684   5.487   6.144   5.994 -0.7854 -0.1050 -0.1156
 3980SOL     OW15685   0.632   6.174   0.914 -0.2420  0.3696  0.0508
 3980SOL    HW215686   0.685   6.243   0.954 -0.2180  1.3054 -1.4900
 3980SOL    HW315687   0.683   6.094   0.929  1.2412  1.1224 -0.6705
 3980SOL    MW415688   0.646   6.173   0.921 -0.0431  0.5924 -0.2477
 3981SOL     OW15689   6.139   0.047   0.036  0.2073  0.0549 -0.4928
 3981SOL    HW215690   6.057   0.056   0.085  1.1087 -0.9581  1.3133
 3981SOL    HW315691   6.208   0.064   0.101  1.4941 -2.8129 -0.9551
 3981SOL    MW415692   6.137   0.050   0.051  0.4960 -0.4571 -0.3155
 3982SOL     OW15693   1.297   4.193   2.661 -0.1932  0.0099 -0.2746
 3982SOL    HW215694   1.390   4.170   2.658  0.1179  1.3260 -1.7410
 3982SOL    HW315695   1.252   4.108   2.659  0.9567 -0.6141 -1.7895
 3982SOL    MW415696   1.303   4.179   2.660 -0.0004  0.1012 -0.6679
 3983SOL     OW15697   3.972   0.147   3.821 -0.3441  0.0584 -0.8081
 3983SOL    HW215698   3.904   0.176   3.881 -1.5477 -0.6058 -1.7952
 3983SOL    HW315699   4.053   0.152   3.872 -1.5169 -2.3833  1.5722
 3983SOL    MW415700   3.974   0.151   3.836 -0.6576 -0.3514 -0.6243
 3984SOL     OW15701   1.516   1.450   1.309 -0.0230 -0.4911  0.1639
 3984SOL    HW215702   1.498   1.460   1.402  0.3320 -0.7243  0.2616
 3984SOL    HW315703   1.570   1.526   1.286 -0.5166 -0.1778  0.0375
 3984SOL    MW415704   1.521   1.461   1.318 -0.0413 -0.4805  0.1602
 3985SOL     OW15705   2.031   3.739   0.436 -0.8839  0.2726 -0.1555
 3985SOL    HW215706   2.031   3.696   0.351 -1.3310  0.9455 -0.4967
 3985SOL    HW315707   1.993   3.825   0.420 -0.3711  0.6519  0.5992
 3985SOL    MW415708   2.026   3.745   0.423 -0.8752  0.4114 -0.1009
 3986SOL     OW15709   3.143   0.149   0.367  0.5957  0.3830  0.4876
 3986SOL    HW215710   3.145   0.138   0.462  3.6009  3.0717  0.9193
 3986SOL    HW315711   3.153   0.243   0.354 -0.1713  0.1477 -2.5536
 3986SOL    MW415712   3.145   0.160   0.378  0.8910  0.7067  0.1433
 3987SOL     OW15713   5.309   1.138   4.068 -0.0177 -0.5961  0.3603
 3987SOL    HW215714   5.339   1.161   4.156  0.2777  0.4033  0.0154
 3987SOL    HW315715   5.222   1.177   4.061  1.0887  1.9461 -0.7686
 3987SOL    MW415716   5.301   1.147   4.078  0.1672 -0.1288  0.1658
 3988SOL     OW15717   1.390   3.764   3.426  0.0374 -0.1087 -0.1661
 3988SOL    HW215718   1.374   3.686   3.479  1.0163 -0.5649 -0.5188
 3988SOL    HW315719   1.303   3.792   3.397 -0.5356  0.1492  1.6355
 3988SOL    MW415720   1.377   3.758   3.429  0.0910 -0.1348  0.0250
 3989SOL     OW15721   4.400   3.495   4.187 -0.1642 -0.2151  0.2992
 3989SOL    HW215722   4.488   3.472   4.218  0.4263  0.1115 -1.0745
 3989SOL    HW315723   4.345   3.485   4.264  1.7146  3.8623  2.4782
 3989SOL    MW415724   4.405   3.491   4.201  0.1616  0.3660  0.4055
 3990SOL     OW15725   4.100   2.131   5.156 -0.8731  1.0023 -0.4050
 3990SOL    HW215726   4.102   2.197   5.225  0.5033  0.2549  0.3042
 3990SOL    HW315727   4.167   2.068   5.181 -1.8226 -0.4210 -1.3226
 3990SOL    MW415728   4.109   2.132   5.168 -0.8167  0.7159 -0.4325
 3991SOL     OW15729   1.821   4.159   3.963  0.4298  0.3094 -1.3808
 3991SOL    HW215730   1.905   4.154   3.919  1.8724 -0.3767  1.2546
 3991SOL    HW315731   1.781   4.073   3.948  1.9098 -0.7735  0.3267
 3991SOL    MW415732   1.827   4.147   3.955  0.8154  0.0760 -0.8078
 3992SOL     OW15733   5.093   1.858   4.770 -0.1969  0.0165 -0.1273
 3992SOL    HW215734   5.057   1.794   4.833 -0.5312 -0.0810 -0.4128
 3992SOL    HW315735   5.017   1.886   4.719  0.1335 -0.1699 -0.7258
 3992SOL    MW415736   5.078   1.853   4.772 -0.1974 -0.0210 -0.2440
 3993SOL     OW15737   3.876   4.542   1.853  0.0179  0.7318  0.5800
 3993SOL    HW215738   3.791   4.538   1.896  0.2333  1.5058  1.0931
 3993SOL    HW315739   3.895   4.636   1.845 -0.3131  0.6774 -1.7901
 3993SOL    MW415740   3.868   4.554   1.857  0.0027  0.8268  0.3350
 3994SOL     OW15741   5.119   5.997   2.840  0.3285  0.5507 -0.0842
 3994SOL    HW215742   5.203   5.981   2.797  2.4103  1.1353  3.3882
 3994SOL    HW315743   5.098   6.088   2.820 -1.1681 -0.3521 -3.3591
 3994SOL    MW415744   5.127   6.007   2.832  0.4057  0.5087 -0.0582
 3995SOL     OW15745   1.941   3.524   1.368  0.2044  0.2407 -0.0642
 3995SOL    HW215746   1.871   3.571   1.414 -0.7846 -0.7527 -0.4909
 3995SOL    HW315747   2.022   3.558   1.405 -0.5298  0.6494  1.2308
 3995SOL    MW415748   1.942   3.534   1.379 -0.0229  0.1636  0.0504
 3996SOL     OW15749   0.782   4.676   0.622 -0.3478  0.2012  0.1067
 3996SOL    HW215750   0.753   4.766   0.633  0.8999  0.3595  2.6704
 3996SOL    HW315751   0.869   4.683   0.584 -0.3720  0.0407  0.0194
 3996SOL    MW415752   0.789   4.688   0.619 -0.1863  0.2009  0.4334
 3997SOL     OW15753   5.453   5.104   4.366  0.2620 -0.2752 -0.1265
 3997SOL    HW215754   5.512   5.045   4.412 -0.8416 -0.7315  0.7524
 3997SOL    HW315755   5.486   5.192   4.386  1.5014 -0.5515 -0.8760
 3997SOL    MW415756   5.465   5.108   4.375  0.2799 -0.3718 -0.1094
 3998SOL     OW15757   4.703   0.304   1.896  0.0657 -0.0834 -0.9919
 3998SOL    HW215758   4.715   0.331   1.987 -1.4173 -1.2127 -0.4287
 3998SOL    HW315759   4.610   0.314   1.880  0.0180 -1.6487 -1.8114
 3998SOL    MW415760   4.693   0.309   1.906 -0.1362 -0.4389 -1.0257
 3999SOL     OW15761   1.785   2.276   0.967 -0.0953 -0.0647  0.1963
 3999SOL    HW215762   1.851   2.242   1.027 -0.8132 -0.0106  1.0267
 3999SOL    HW315763   1.732   2.200   0.944  0.2691 -0.1169 -0.5097
 3999SOL    MW415764   1.787   2.262   0.971 -0.1419 -0.0645  0.2127
 4000SOL     OW15765   5.973   1.152   5.254 -0.3084 -0.2839 -0.4168
 4000SOL    HW215766   6.019   1.234   5.238 -1.6950  0.4353 -0.9188
 4000SOL    HW315767   6.005   1.091   5.187  0.9818 -0.2719  0.1781
 4000SOL    MW415768   5.983   1.154   5.243 -0.3211 -0.1874 -0.4045
 4001SOL     OW15769   4.844   4.652   0.027 -0.2657  0.4210 -0.9144
 4001SOL    HW215770   4.820   4.600   0.103 -1.3278  0.8134 -0.9606
 4001SOL    HW315771   4.869   4.737   0.062 -0.5155  0.5256 -0.9921
 4001SOL    MW415772   4.844   4.656   0.041 -0.4388  0.4866 -0.9307
 4002SOL     OW15773   3.881   4.240   2.571 -0.2669  0.4113  0.8876
 4002SOL    HW215774   3.967   4.205   2.549  0.4459  2.0002  1.0504
 4002SOL    HW315775   3.845   4.272   2.488 -0.5928  0.0112  0.8694
 4002SOL    MW415776   3.888   4.240   2.557 -0.2158  0.5682  0.9067
 4003SOL     OW15777   0.435   4.418   6.198 -0.1770 -0.2805  0.0109
 4003SOL    HW215778   0.388   4.495   6.165  0.0702  0.1699  0.6749
 4003SOL    HW315779   0.409   4.347   6.140 -1.5612 -0.0133  0.2762
 4003SOL    MW415780   0.425   4.419   6.186 -0.3270 -0.1858  0.1335
 4004SOL     OW15781   4.751   0.805   2.754  0.1181 -0.0166 -0.0415
 4004SOL    HW215782   4.696   0.735   2.717 -0.2749 -1.1696  2.5000
 4004SOL    HW315783   4.689   0.875   2.775 -0.2939 -0.8869  1.8285
 4004SOL    MW415784   4.735   0.805   2.752  0.0119 -0.2835  0.5405
 4005SOL     OW15785   5.477   3.178   2.331  0.5321  0.5435  0.3067
 4005SOL    HW215786   5.563   3.137   2.320 -0.7516 -2.1733 -0.2185
 4005SOL    HW315787   5.480   3.213   2.421  1.9349 -0.1130  0.5547
 4005SOL    MW415788   5.489   3.178   2.342  0.5478  0.0985  0.2702
 4006SOL     OW15789   2.994   1.602   2.273 -0.2910 -0.3604 -0.6434
 4006SOL    HW215790   3.028   1.513   2.268 -1.2598 -0.7370 -0.9122
 4006SOL    HW315791   3.009   1.628   2.364 -0.9079 -1.1895 -0.2846
 4006SOL    MW415792   3.000   1.594   2.285 -0.5002 -0.5195 -0.6315
 4007SOL     OW15793   1.274   0.795   6.108  0.0521 -0.4400 -0.5443
 4007SOL    HW215794   1.249   0.831   6.022 -0.1180  1.0719  0.1138
 4007SOL    HW315795   1.190   0.774   6.150  0.1297 -0.9656 -0.6407
 4007SOL    MW415796   1.259   0.797   6.102  0.0399 -0.3099 -0.4702
 4008SOL     OW15797   3.207   6.411   5.113  0.4998 -0.3839  0.4686
 4008SOL    HW215798   3.172   6.439   5.197  1.0640 -1.1325  0.9663
 4008SOL    HW315799   3.249   6.490   5.077  1.0251 -0.2695  1.2971
 4008SOL    MW415800   3.208   6.425   5.119  0.6436 -0.4676  0.6435
 4009SOL     OW15801   3.292   1.443   2.213  0.2996  0.2715 -0.5212
 4009SOL    HW215802   3.384   1.418   2.197  0.7027  0.8335  0.7630
 4009SOL    HW315803   3.290   1.537   2.198  0.4111  0.6065  1.2768
 4009SOL    MW415804   3.304   1.452   2.209  0.3675  0.3899 -0.1145
 4010SOL     OW15805   4.924   6.063   6.048  0.5873 -0.3856 -0.1624
 4010SOL    HW215806   4.877   5.983   6.070  0.3421 -0.4118 -0.7674
 4010SOL    HW315807   4.871   6.134   6.085 -0.6805 -0.3133 -1.9912
 4010SOL    MW415808   4.911   6.062   6.056  0.3877 -0.3795 -0.4835
 4011SOL     OW15809   1.090   1.522   4.276 -0.0078  0.9092  0.7839
 4011SOL    HW215810   1.107   1.526   4.182 -2.3245  1.0386  0.3030
 4011SOL    HW315811   1.124   1.605   4.310  0.2726  1.1439 -0.0415
 4011SOL    MW415812   1.097   1.533   4.268 -0.2765  0.9572  0.6115
 4012SOL     OW15813   6.265   3.744   4.558 -0.0397 -0.6006  0.1572
 4012SOL    HW215814   6.297   3.833   4.545 -1.2910 -0.1533 -0.0456
 4012SOL    HW315815   6.340   3.688   4.540  0.3049  0.3303 -1.4683
 4012SOL    MW415816   6.279   3.749   4.554 -0.1594 -0.4187 -0.0840
 4013SOL     OW15817   4.563   3.557   2.472  0.8067 -0.4092 -0.6857
 4013SOL    HW215818   4.503   3.485   2.454  0.3620  0.3809 -2.6164
 4013SOL    HW315819   4.641   3.515   2.509  0.5751 -1.8810 -1.8017
 4013SOL    MW415820   4.566   3.542   2.475  0.7175 -0.4992 -1.0877
 4014SOL     OW15821   3.402   4.199   2.734 -0.2507 -0.1250 -0.2140
 4014SOL    HW215822   3.399   4.105   2.714 -0.2704  0.1889 -1.8179
 4014SOL    HW315823   3.477   4.208   2.793 -1.5414 -1.4185  1.7529
 4014SOL    MW415824   3.411   4.188   2.739 -0.4236 -0.2542 -0.1661
 4015SOL     OW15825   0.704   3.498   3.891 -0.5769  0.3420 -0.3108
 4015SOL    HW215826   0.733   3.522   3.979  0.3260 -2.8323  0.4045
 4015SOL    HW315827   0.612   3.524   3.887 -0.5655  0.7734  1.4917
 4015SOL    MW415828   0.696   3.504   3.902 -0.4563 -0.0199  0.0214
 4016SOL     OW15829   5.317   0.817   2.115 -0.0675  0.1334  0.1733
 4016SOL    HW215830   5.311   0.741   2.173  1.5911 -2.6008 -2.8582
 4016SOL    HW315831   5.409   0.841   2.117 -0.4866  1.7557  0.6880
 4016SOL    MW415832   5.328   0.810   2.123  0.0960 -0.0133 -0.1588
 4017SOL     OW15833   3.285   4.790   6.152 -0.3906 -0.1072  0.5301
 4017SOL    HW215834   3.229   4.734   6.205  0.1782  0.8213  2.2011
 4017SOL    HW315835   3.250   4.782   6.063 -1.2136 -1.9329  0.9686
 4017SOL    MW415836   3.273   4.782   6.147 -0.4241 -0.2256  0.8084
 4018SOL     OW15837   2.853   6.318   3.856  0.3479 -0.0411 -0.3883
 4018SOL    HW215838   2.777   6.341   3.802  1.7729  0.6373 -2.1793
 4018SOL    HW315839   2.814   6.282   3.936 -1.8653  0.5426 -1.1106
 4018SOL    MW415840   2.838   6.316   3.860  0.2439  0.1254 -0.7199
 4019SOL     OW15841   3.678   1.435   3.158 -0.5862  0.2154  0.2435
 4019SOL    HW215842   3.667   1.491   3.235 -1.3116  0.6314 -0.1518
 4019SOL    HW315843   3.737   1.484   3.100  0.2838 -0.2754  0.6907
 4019SOL    MW415844   3.684   1.448   3.160 -0.5671  0.2055  0.2504
 4020SOL     OW15845   2.645   2.693   5.848 -0.1022  0.2008 -0.9907
 4020SOL    HW215846   2.614   2.617   5.798  0.4633 -0.2788 -0.6282
 4020SOL    HW315847   2.577   2.759   5.837  0.6029  0.6125 -3.5225
 4020SOL    MW415848   2.632   2.691   5.840  0.0654  0.1918 -1.2769
 4021SOL     OW15849   5.442   2.097   2.683  0.2800 -0.1006 -0.2365
 4021SOL    HW215850   5.358   2.133   2.654 -0.6105 -1.3759  0.7025
 4021SOL    HW315851   5.423   2.054   2.766  1.8330 -0.5851 -0.1045
 4021SOL    MW415852   5.428   2.096   2.690  0.3674 -0.3328 -0.0952
 4022SOL     OW15853   4.654   0.764   1.887 -0.0883 -0.6019 -0.1148
 4022SOL    HW215854   4.562   0.744   1.902 -0.2220 -0.5733 -0.8630
 4022SOL    HW315855   4.674   0.726   1.802  0.7475 -1.1018  0.2916
 4022SOL    MW415856   4.645   0.757   1.878  0.0043 -0.6641 -0.1599
 4023SOL     OW15857   3.641   6.311   4.904  0.0809  0.5394 -0.0760
 4023SOL    HW215858   3.607   6.353   4.982  2.8645  2.3497  0.3028
 4023SOL    HW315859   3.660   6.221   4.931  1.3529  1.2380  1.4849
 4023SOL    MW415860   3.639   6.305   4.918  0.6160  0.8704  0.1799
 4024SOL     OW15861   2.069   1.704   4.958  0.0640  0.4302 -0.1162
 4024SOL    HW215862   1.976   1.726   4.965 -0.3162 -0.7646 -1.1694
 4024SOL    HW315863   2.082   1.632   5.020 -0.5193 -1.7061 -2.3477
 4024SOL    MW415864   2.059   1.698   4.967 -0.0631 -0.0093 -0.5496
 4025SOL     OW15865   0.064   3.859   1.690 -0.6469  0.0451 -0.2219
 4025SOL    HW215866   0.037   3.767   1.682 -0.2352  0.0214 -1.5491
 4025SOL    HW315867  -0.018   3.908   1.686 -0.7510 -0.1832 -1.4548
 4025SOL    MW415868   0.050   3.853   1.688 -0.6063  0.0119 -0.5597
 4026SOL     OW15869   5.110   4.321   4.793 -0.1239 -0.1186 -0.8326
 4026SOL    HW215870   5.101   4.401   4.845  0.3087 -0.5770 -0.0337
 4026SOL    HW315871   5.076   4.252   4.849  0.8926 -0.7117 -0.9275
 4026SOL    MW415872   5.104   4.322   4.807  0.0673 -0.2573 -0.7397
 4027SOL     OW15873   4.539   3.439   5.593  0.1368  0.0170  0.3262
 4027SOL    HW215874   4.562   3.393   5.674 -0.2428  1.7387  1.4693
 4027SOL    HW315875   4.477   3.506   5.621 -2.2276 -1.1078 -1.8466
 4027SOL    MW415876   4.534   3.442   5.607 -0.2252  0.0957  0.1903
 4028SOL     OW15877   5.286   3.645   2.780 -0.2388  0.1612 -0.6364
 4028SOL    HW215878   5.370   3.627   2.738 -0.1167  0.2947 -0.4469
 4028SOL    HW315879   5.308   3.696   2.857 -0.5832  1.1291 -1.1593
 4028SOL    MW415880   5.300   3.649   2.784 -0.2681  0.3065 -0.6804
 4029SOL     OW15881   4.880   2.076   3.791 -0.5326  0.1766 -0.2033
 4029SOL    HW215882   4.865   2.114   3.877  0.1727 -0.9402  0.4451
 4029SOL    HW315883   4.816   2.118   3.734 -2.0926 -0.2319  1.1963
 4029SOL    MW415884   4.870   2.087   3.795 -0.6454 -0.0247  0.0669
 4030SOL     OW15885   4.219   5.471   6.007 -0.0414  0.4686  0.1264
 4030SOL    HW215886   4.273   5.545   6.033  0.2451  0.8375 -1.4504
 4030SOL    HW315887   4.254   5.444   5.922 -0.0959 -1.5229  0.6869
 4030SOL    MW415888   4.230   5.477   6.000 -0.0108  0.2546 -0.0077
 4031SOL     OW15889   4.734   3.122   6.282 -0.4890  0.1022  0.8155
 4031SOL    HW215890   4.798   3.184   6.246  0.4021 -0.9529  0.5174
 4031SOL    HW315891   4.780   3.079   6.353 -1.2009 -0.0203  1.2098
 4031SOL    MW415892   4.749   3.125   6.286 -0.4654 -0.0532  0.8282
 4032SOL     OW15893   5.551   5.810   4.160 -0.7184 -0.2312 -0.0332
 4032SOL    HW215894   5.614   5.876   4.129 -1.3183  0.3638 -0.0149
 4032SOL    HW315895   5.503   5.785   4.082 -0.6981 -0.4278  0.0167
 4032SOL    MW415896   5.553   5.816   4.146 -0.7949 -0.1786 -0.0242
 4033SOL     OW15897   2.870   0.430   4.155 -0.5065  0.8186  0.4425
 4033SOL    HW215898   2.840   0.340   4.140 -0.8574  0.9122  0.5611
 4033SOL    HW315899   2.927   0.425   4.231 -0.3041  0.6519  0.2802
 4033SOL    MW415900   2.873   0.417   4.163 -0.5261  0.8089  0.4367
 4034SOL     OW15901   0.533   3.158   5.414 -0.1675 -0.5383  0.1493
 4034SOL    HW215902   0.621   3.195   5.413  0.1979 -1.3637 -1.0348
 4034SOL    HW315903   0.477   3.229   5.444  0.7919  0.2664  0.0819
 4034SOL    MW415904   0.538   3.172   5.417  0.0073 -0.5410 -0.0158
 4035SOL     OW15905   1.596   5.100   0.607 -0.3993 -0.5595 -0.6452
 4035SOL    HW215906   1.680   5.114   0.563 -0.5510 -1.3241 -1.2044
 4035SOL    HW315907   1.610   5.130   0.697 -0.2332  1.5551 -1.3061
 4035SOL    MW415908   1.609   5.106   0.613 -0.3974 -0.3814 -0.8062
 4036SOL     OW15909   6.240   2.099   0.639 -0.0911  0.3098  0.5436
 4036SOL    HW215910   6.162   2.142   0.675 -1.4283 -1.1025 -0.5345
 4036SOL    HW315911   6.228   2.104   0.544  0.9171 -0.3488  0.3703
 4036SOL    MW415912   6.228   2.105   0.631 -0.1345  0.0365  0.3785
 4037SOL     OW15913   3.692   3.451   5.706  0.2334  0.2828  0.3722
 4037SOL    HW215914   3.614   3.453   5.652 -0.1615  0.5733  0.9428
 4037SOL    HW315915   3.680   3.523   5.769  0.0603 -0.8371  1.6723
 4037SOL    MW415916   3.680   3.461   5.707  0.1584  0.1734  0.6190
 4038SOL     OW15917   2.425   4.627   6.011 -0.0013  0.5544 -0.1025
 4038SOL    HW215918   2.386   4.541   5.996  1.1107  0.1216 -0.6125
 4038SOL    HW315919   2.432   4.634   6.106 -2.2126  1.0759  0.0717
 4038SOL    MW415920   2.420   4.617   6.022 -0.1464  0.5661 -0.1468
 4039SOL     OW15921   1.456   1.190   0.209  0.4756  0.3496  0.0212
 4039SOL    HW215922   1.495   1.272   0.238 -0.2379  0.5408  0.4825
 4039SOL    HW315923   1.373   1.185   0.257  0.0785 -0.1869 -0.7040
 4039SOL    MW415924   1.450   1.200   0.219  0.3291  0.3040 -0.0136
 4040SOL     OW15925   5.950   2.763   0.513 -0.8912  0.2206 -0.0558
 4040SOL    HW215926   6.039   2.780   0.484  0.0051 -0.9596  1.7756
 4040SOL    HW315927   5.895   2.784   0.438  0.9597  0.5403 -1.3774
 4040SOL    MW415928   5.955   2.768   0.500 -0.5288  0.1071  0.0115
 4041SOL     OW15929   4.921   3.406   1.735  0.2630  0.1780 -0.7637
 4041SOL    HW215930   4.960   3.494   1.738  1.0684 -0.1690 -0.7772
 4041SOL    HW315931   4.959   3.361   1.811 -0.7349  0.0750 -0.3090
 4041SOL    MW415932   4.931   3.412   1.746  0.2376  0.1186 -0.7055
 4042SOL     OW15933   1.423   4.039   0.134 -0.1162 -0.1673  0.0382
 4042SOL    HW215934   1.510   4.065   0.162 -0.6690 -1.2955  3.3307
 4042SOL    HW315935   1.427   3.943   0.128 -1.1170 -0.2559  0.4684
 4042SOL    MW415936   1.435   4.029   0.137 -0.3212 -0.3278  0.5294
 4043SOL     OW15937   3.392   0.640   0.840 -0.0030 -0.2801  0.6590
 4043SOL    HW215938   3.408   0.664   0.932 -1.3722  1.4470  0.4958
 4043SOL    HW315939   3.479   0.633   0.802  0.5877 -0.7412  2.0001
 4043SOL    MW415940   3.405   0.642   0.847 -0.1057 -0.1131  0.8144
 4044SOL     OW15941   2.959   5.007   2.764 -0.0011  0.0298  0.1684
 4044SOL    HW215942   2.907   5.066   2.711 -0.7618  0.2679  1.1329
 4044SOL    HW315943   2.961   5.048   2.851  1.8741  0.0588  0.1505
 4044SOL    MW415944   2.952   5.020   2.769  0.1459  0.0651  0.2933
 4045SOL     OW15945   3.072   1.727   3.199  0.1475  0.2162 -0.0372
 4045SOL    HW215946   3.008   1.665   3.163  1.3652  0.3669 -2.7324
 4045SOL    HW315947   3.029   1.812   3.193 -0.0127  0.1187 -0.3163
 4045SOL    MW415948   3.058   1.730   3.193  0.2870  0.2232 -0.4296
 4046SOL     OW15949   3.883   3.396   6.111  0.1213 -0.5242 -0.2114
 4046SOL    HW215950   3.918   3.484   6.101  0.9070 -0.7273  0.6638
 4046SOL    HW315951   3.896   3.355   6.026  0.3057  0.0068 -0.4410
 4046SOL    MW415952   3.889   3.402   6.099  0.2493 -0.4809 -0.1262
 4047SOL     OW15953   2.313   5.138   1.416  0.2300 -0.0544  0.2986
 4047SOL    HW215954   2.262   5.075   1.364  0.7163 -0.1171 -0.1133
 4047SOL    HW315955   2.248   5.181   1.472 -0.2890 -0.0818 -0.2667
 4047SOL    MW415956   2.297   5.135   1.416  0.2257 -0.0663  0.1697
 4048SOL     OW15957   4.525   6.140   4.495 -0.0800 -0.4253 -0.1772
 4048SOL    HW215958   4.496   6.223   4.534  0.7057 -0.9040  1.5194
 4048SOL    HW315959   4.581   6.167   4.422  2.6305  0.7179  2.1246
 4048SOL    MW415960   4.529   6.155   4.490  0.3813 -0.3376  0.3504
 4049SOL     OW15961   4.368   1.718   2.977 -1.3527 -0.1363 -0.0387
 4049SOL    HW215962   4.316   1.778   3.030  2.0155  1.4723  1.8113
 4049SOL    HW315963   4.349   1.744   2.886 -4.8349 -0.7871  0.3774
 4049SOL    MW415964   4.359   1.730   2.972 -1.3677 -0.0099  0.2603
 4050SOL     OW15965   4.795   2.687   0.337  0.1266  0.2599 -0.1359
 4050SOL    HW215966   4.877   2.693   0.289  0.0902 -0.4791 -0.2993
 4050SOL    HW315967   4.730   2.728   0.278  0.3030  0.4997 -0.1675
 4050SOL    MW415968   4.797   2.693   0.323  0.1451  0.1940 -0.1616
 4051SOL     OW15969   4.196   1.240   3.331  0.3308  0.3181 -0.0330
 4051SOL    HW215970   4.113   1.281   3.356  0.7691  1.3585 -0.2184
 4051SOL    HW315971   4.250   1.313   3.299  0.3231 -0.7356 -2.6419
 4051SOL    MW415972   4.192   1.255   3.330  0.3876  0.3163 -0.4017
 4052SOL     OW15973   0.628   2.248   2.412  0.3505 -0.6113 -0.0358
 4052SOL    HW215974   0.534   2.263   2.426  0.4073 -0.5502  0.3051
 4052SOL    HW315975   0.644   2.277   2.323  0.0846 -0.4166 -0.0228
 4052SOL    MW415976   0.618   2.254   2.402  0.3229 -0.5775  0.0109
 4053SOL     OW15977   5.246   0.370   1.768  0.1223  0.6741  0.1630
 4053SOL    HW215978   5.226   0.431   1.838 -1.1917  0.2277  0.1984
 4053SOL    HW315979   5.180   0.301   1.776  1.6618 -0.8660  0.2432
 4053SOL    MW415980   5.235   0.369   1.778  0.1521  0.4120  0.1783
 4054SOL     OW15981   1.787   3.624   4.738 -0.4952  0.4494 -0.1215
 4054SOL    HW215982   1.822   3.680   4.806 -0.5023  0.5472 -0.1976
 4054SOL    HW315983   1.842   3.641   4.661 -1.5424  1.6281 -0.6477
 4054SOL    MW415984   1.799   3.634   4.737 -0.6343  0.6178 -0.2010
 4055SOL     OW15985   0.433   4.182   5.711  0.3174  0.0781 -0.2060
 4055SOL    HW215986   0.515   4.191   5.663  0.9746  0.4076  0.9484
 4055SOL    HW315987   0.414   4.088   5.708 -1.2548  0.3336 -3.6167
 4055SOL    MW415988   0.441   4.171   5.704  0.1966  0.1553 -0.5037
 4056SOL     OW15989   4.961   4.863   4.870  0.2212 -0.2006  0.1282
 4056SOL    HW215990   4.968   4.918   4.948 -0.4173  0.6169 -0.3823
 4056SOL    HW315991   4.942   4.923   4.799  0.4620 -0.9781 -0.6153
 4056SOL    MW415992   4.960   4.878   4.871  0.1687 -0.1953 -0.0372
 4057SOL     OW15993   2.140   6.132   1.930  0.8462 -0.6653  0.0003
 4057SOL    HW215994   2.220   6.100   1.972  1.6075  0.3445 -0.6314
 4057SOL    HW315995   2.127   6.073   1.855  1.3999 -0.4303 -0.2916
 4057SOL    MW415996   2.149   6.120   1.925  1.0197 -0.5011 -0.1216
 4058SOL     OW15997   3.017   1.392   0.319 -0.1561 -0.4118 -0.0043
 4058SOL    HW215998   3.019   1.306   0.362  1.1232 -0.0303  0.7500
 4058SOL    HW315999   2.938   1.390   0.266 -0.1304 -2.0800 -0.0395
 4058SOL    MW416000   3.007   1.380   0.318  0.0160 -0.5815  0.0906
 4059SOL     OW16001   5.797   3.084   3.116  0.2704 -0.5539  0.1670
 4059SOL    HW216002   5.834   3.056   3.033 -0.2271 -1.0394  0.1031
 4059SOL    HW316003   5.872   3.090   3.175  0.4814 -1.3091 -0.0166
 4059SOL    MW416004   5.812   3.081   3.113  0.2326 -0.7176  0.1343
 4060SOL     OW16005   5.228   2.070   1.381  0.3755 -0.2336  0.2304
 4060SOL    HW216006   5.160   2.048   1.317 -0.8077 -0.7241  1.5650
 4060SOL    HW316007   5.310   2.055   1.336 -0.4134 -1.8213 -0.7805
 4060SOL    MW416008   5.230   2.065   1.367  0.1153 -0.5078  0.2731
 4061SOL     OW16009   1.487   6.141   0.106 -0.2866  0.1388 -0.2967
 4061SOL    HW216010   1.407   6.183   0.137 -0.4329 -0.7878  0.6508
 4061SOL    HW316011   1.484   6.053   0.144  0.5238 -0.3715 -1.3529
 4061SOL    MW416012   1.476   6.135   0.115 -0.1990 -0.0508 -0.3110
 4062SOL     OW16013   1.895   4.916   0.710  0.0549 -0.6555  0.1096
 4062SOL    HW216014   1.816   4.935   0.760  0.1615 -1.1486  0.4728
 4062SOL    HW316015   1.963   4.905   0.776  0.2913 -0.8696 -0.1658
 4062SOL    MW416016   1.894   4.917   0.725  0.1001 -0.7488  0.1212
 4063SOL     OW16017   4.246   1.031   2.488 -0.1535  0.1293  0.3553
 4063SOL    HW216018   4.183   0.963   2.466 -1.3347  1.0050  0.9512
 4063SOL    HW316019   4.205   1.113   2.459  1.4475  0.5826 -0.8078
 4063SOL    MW416020   4.233   1.033   2.481 -0.0981  0.3046  0.2805
 4064SOL     OW16021   5.427   2.263   4.614 -0.0660  0.3036 -0.1174
 4064SOL    HW216022   5.439   2.209   4.693  2.7279 -0.1298 -0.7113
 4064SOL    HW316023   5.335   2.289   4.616 -0.6367 -1.5401  2.0912
 4064SOL    MW416024   5.417   2.259   4.625  0.2273  0.0032  0.0956
 4065SOL     OW16025   6.119   2.148   2.900 -0.7087 -0.0072  0.0387
 4065SOL    HW216026   6.139   2.118   2.812  2.4613  0.2342  0.5683
 4065SOL    HW316027   6.027   2.126   2.913 -0.2184 -3.8198 -1.8307
 4065SOL    MW416028   6.109   2.141   2.890 -0.2258 -0.4784 -0.1380
 4066SOL     OW16029   4.132   5.215   4.520  0.0359  0.4156  0.1146
 4066SOL    HW216030   4.046   5.243   4.488  0.1655 -0.0483 -0.6603
 4066SOL    HW316031   4.156   5.283   4.583 -1.5717 -0.2613  1.5314
 4066SOL    MW416032   4.124   5.228   4.524 -0.1591  0.2651  0.1993
 4067SOL     OW16033   3.319   2.287   0.793  0.0466  0.1822  0.1622
 4067SOL    HW216034   3.234   2.300   0.835  0.0891  2.0592 -0.2764
 4067SOL    HW316035   3.382   2.291   0.865 -0.1976 -1.0040  0.4593
 4067SOL    MW416036   3.316   2.289   0.808  0.0200  0.2733  0.1435
 4068SOL     OW16037   5.057   1.625   6.278  0.1107 -0.6228  0.2737
 4068SOL    HW216038   4.973   1.653   6.241  0.1023 -0.8505  0.1185
 4068SOL    HW316039   5.090   1.702   6.324  1.7406  0.8424 -3.0144
 4068SOL    MW416040   5.051   1.639   6.279  0.3247 -0.4595 -0.1806
 4069SOL     OW16041   2.066   5.432   2.517 -0.2305  0.0334  0.1090
 4069SOL    HW216042   2.057   5.496   2.587 -0.2517  0.1397  0.0083
 4069SOL    HW316043   2.005   5.461   2.449 -0.4161 -0.2260  0.1623
 4069SOL    MW416044   2.057   5.444   2.517 -0.2578  0.0132  0.1027
 4070SOL     OW16045   2.597   1.796   0.515 -0.1652  0.5179 -0.0156
 4070SOL    HW216046   2.526   1.839   0.468 -1.5869  0.6934  2.1306
 4070SOL    HW316047   2.558   1.715   0.548  0.9601  0.0801  0.2876
 4070SOL    MW416048   2.583   1.791   0.513 -0.2043  0.4833  0.3076
 4071SOL     OW16049   3.830   6.212   3.150 -0.7186  0.5906 -0.1040
 4071SOL    HW216050   3.743   6.190   3.117 -0.2631  0.2033 -1.0924
 4071SOL    HW316051   3.844   6.303   3.124 -0.8314  0.6498  0.0458
 4071SOL    MW416052   3.821   6.221   3.142 -0.6734  0.5473 -0.2147
 4072SOL     OW16053   4.559   5.770   1.677  0.4012 -0.5152  0.6848
 4072SOL    HW216054   4.469   5.739   1.688 -0.5163  1.2726 -1.1840
 4072SOL    HW316055   4.585   5.736   1.592  1.1797 -0.2556  0.8206
 4072SOL    MW416056   4.550   5.761   1.667  0.3828 -0.2451  0.4562
 4073SOL     OW16057   3.704   3.248   3.602 -0.5481  0.3293  0.3834
 4073SOL    HW216058   3.719   3.173   3.660 -0.9006  0.0110  0.0670
 4073SOL    HW316059   3.718   3.324   3.658 -0.5690  0.0229  0.8112
 4073SOL    MW416060   3.708   3.248   3.617 -0.5974  0.2469  0.3981
 4074SOL     OW16061   3.402   5.329   1.187  0.1405 -0.6130 -0.5931
 4074SOL    HW216062   3.310   5.336   1.162 -0.0004 -0.8440 -0.1525
 4074SOL    HW316063   3.415   5.236   1.207  0.5945 -0.6681 -1.1155
 4074SOL    MW416064   3.392   5.318   1.186  0.1818 -0.6508 -0.6039
 4075SOL     OW16065   2.144   1.687   5.487 -0.3291 -0.1152  0.0829
 4075SOL    HW216066   2.072   1.733   5.444 -0.7912 -0.1300  0.8239
 4075SOL    HW316067   2.116   1.677   5.578  0.9441  0.5850  0.5809
 4075SOL    MW416068   2.131   1.692   5.493 -0.2221 -0.0247  0.2464
 4076SOL     OW16069   6.024   4.619   3.565 -0.5156  0.2162  0.0887
 4076SOL    HW216070   6.068   4.534   3.572 -3.2513 -1.3673 -0.1597
 4076SOL    HW316071   5.975   4.613   3.483 -3.6118  0.4748  1.7675
 4076SOL    MW416072   6.023   4.607   3.555 -1.2851  0.0414  0.2774
 4077SOL     OW16073   3.540   0.174   2.400  0.3798 -0.0198  1.3819
 4077SOL    HW216074   3.633   0.161   2.415  0.8042 -0.3180 -1.0337
 4077SOL    HW316075   3.535   0.259   2.354 -0.3768 -0.5611  0.4263
 4077SOL    MW416076   3.552   0.184   2.396  0.3360 -0.1305  0.9371
 4078SOL     OW16077   1.953   4.461   1.593 -0.0868 -0.4227  0.2484
 4078SOL    HW216078   1.887   4.469   1.524 -0.7693 -1.8566  0.6796
 4078SOL    HW316079   1.967   4.366   1.601  0.7403 -0.2268  1.3690
 4078SOL    MW416080   1.946   4.449   1.585 -0.0678 -0.5860  0.4531
 4079SOL     OW16081   4.707   2.827   2.044  0.5160  0.3064  0.3054
 4079SOL    HW216082   4.697   2.850   2.136  0.5158 -0.7230  0.5632
 4079SOL    HW316083   4.622   2.848   2.005  0.2155 -0.1090  0.7240
 4079SOL    MW416084   4.695   2.833   2.051  0.4763  0.1158  0.3946
 4080SOL     OW16085   4.413   3.252   3.395 -0.3032  0.1771  0.2051
 4080SOL    HW216086   4.494   3.237   3.346  0.6489  1.9806  1.1249
 4080SOL    HW316087   4.400   3.171   3.444  0.2913 -0.5743 -0.8329
 4080SOL    MW416088   4.422   3.239   3.395 -0.0992  0.3159  0.1895
 4081SOL     OW16089   5.650   1.184   0.335 -0.3322 -0.5327 -0.1446
 4081SOL    HW216090   5.627   1.276   0.343 -1.0990 -0.5424 -1.8478
 4081SOL    HW316091   5.725   1.183   0.276  1.7062 -0.8163  2.2819
 4081SOL    MW416092   5.657   1.196   0.328 -0.1644 -0.5714 -0.0492
 4082SOL     OW16093   0.217   5.839   4.961 -0.2771  0.3770  0.2912
 4082SOL    HW216094   0.173   5.755   4.976  0.4856  0.0868  0.9722
 4082SOL    HW316095   0.196   5.860   4.870 -0.0556 -0.8199 -0.0629
 4082SOL    MW416096   0.209   5.830   4.951 -0.1472  0.1808  0.3343
 4083SOL     OW16097   2.812   0.283   2.161  0.1234 -0.8189  0.2120
 4083SOL    HW216098   2.833   0.371   2.127 -1.2636  0.2230  1.8774
 4083SOL    HW316099   2.845   0.223   2.094 -0.5355  1.0213 -1.8769
 4083SOL    MW416100   2.819   0.287   2.148 -0.1466 -0.4386  0.1561
 4084SOL     OW16101   2.558   1.600   0.108 -0.4315  0.2226  0.5820
 4084SOL    HW216102   2.612   1.673   0.139 -0.2423  0.0114  0.7563
 4084SOL    HW316103   2.573   1.530   0.172 -2.5289  0.8253  1.8350
 4084SOL    MW416104   2.567   1.601   0.121 -0.6833  0.2743  0.7703
 4085SOL     OW16105   5.090   2.395   3.856 -0.0385 -0.2412 -0.5933
 4085SOL    HW216106   5.086   2.479   3.810 -3.0475 -0.2118 -0.4509
 4085SOL    HW316107   5.046   2.411   3.939  1.0175 -1.5435  0.2576
 4085SOL    MW416108   5.084   2.408   3.861 -0.2962 -0.4091 -0.4623
 4086SOL     OW16109   4.057   1.140   1.318 -0.2446 -0.0571 -0.5366
 4086SOL    HW216110   4.053   1.044   1.320 -0.3387 -0.0339  0.6064
 4086SOL    HW316111   4.042   1.167   1.408 -0.0247  1.0379 -0.8156
 4086SOL    MW416112   4.054   1.131   1.330 -0.2280  0.0904 -0.4226
 4087SOL     OW16113   6.367   5.333   3.530 -0.2502  0.0990  0.2179
 4087SOL    HW216114   6.427   5.296   3.594  0.6882  0.5974 -0.3625
 4087SOL    HW316115   6.332   5.257   3.483 -0.4074 -0.2161  0.8318
 4087SOL    MW416116   6.370   5.318   3.533 -0.1471  0.1232  0.2223
 4088SOL     OW16117   2.206   1.300   3.072 -0.2283 -0.5596  0.3645
 4088SOL    HW216118   2.177   1.270   3.158 -3.5903 -0.2739 -0.5055
 4088SOL    HW316119   2.235   1.221   3.027  0.4487 -0.8916  1.3653
 4088SOL    MW416120   2.206   1.286   3.077 -0.5826 -0.5657  0.3817
 4089SOL     OW16121   2.746   3.338   4.364  0.2024 -0.2869 -0.1842
 4089SOL    HW216122   2.782   3.370   4.281  0.9584 -1.1533 -0.1983
 4089SOL    HW316123   2.656   3.315   4.343 -0.4468  1.9399 -0.1346
 4089SOL    MW416124   2.739   3.339   4.350  0.2165 -0.1074 -0.1795
 4090SOL     OW16125   3.192   1.282   5.459  0.2776 -0.4658  0.0537
 4090SOL    HW216126   3.164   1.220   5.527 -2.3835 -0.5263 -0.9674
 4090SOL    HW316127   3.176   1.368   5.497  0.9644 -0.4449  0.3104
 4090SOL    MW416128   3.186   1.285   5.473  0.0171 -0.4710 -0.0471
 4091SOL     OW16129   2.231   4.412   0.676 -0.1630  0.4380 -0.1944
 4091SOL    HW216130   2.149   4.403   0.627 -0.2534  2.1125 -0.4231
 4091SOL    HW316131   2.293   4.354   0.630 -1.4920 -1.8573  0.7580
 4091SOL    MW416132   2.228   4.403   0.663 -0.3503  0.3561 -0.0989
 4092SOL     OW16133   1.789   4.442   4.641  0.3999 -0.4500  0.2926
 4092SOL    HW216134   1.758   4.530   4.660 -0.3464 -0.5713 -0.3027
 4092SOL    HW316135   1.827   4.412   4.723 -0.7161 -0.1372  0.9527
 4092SOL    MW416136   1.790   4.450   4.654  0.1542 -0.4247  0.3011
 4093SOL     OW16137   5.715   5.504   1.301 -0.3547  0.0647 -0.2551
 4093SOL    HW216138   5.669   5.493   1.218  1.4437 -0.3282 -1.2443
 4093SOL    HW316139   5.732   5.415   1.331  3.2231  0.0042 -1.9743
 4093SOL    MW416140   5.711   5.491   1.294  0.3546  0.0049 -0.6125
 4094SOL     OW16141   5.809   5.863   4.466  0.2195 -0.0820 -0.1893
 4094SOL    HW216142   5.893   5.820   4.448  3.2035  2.3559  5.3090
 4094SOL    HW316143   5.814   5.947   4.420  0.9636  0.1653  0.3335
 4094SOL    MW416144   5.821   5.868   4.458  0.7114  0.2723  0.6051
 4095SOL     OW16145   1.829   6.336   0.401  0.3922 -0.3318  0.3757
 4095SOL    HW216146   1.792   6.331   0.313 -0.8322  4.0061  0.4141
 4095SOL    HW316147   1.757   6.315   0.460  0.3837 -0.3454  0.3602
 4095SOL    MW416148   1.815   6.333   0.397  0.2296  0.2388  0.3787
 4096SOL     OW16149   4.493   6.387   0.330  0.9063 -0.3540 -0.0418
 4096SOL    HW216150   4.462   6.297   0.323 -0.9916  0.2293  0.2993
 4096SOL    HW316151   4.580   6.380   0.370  1.5193 -2.1094 -1.6006
 4096SOL    MW416152   4.500   6.374   0.335  0.7368 -0.5086 -0.2024
 4097SOL     OW16153   4.215   4.599   4.745  0.2590 -0.6819 -0.3048
 4097SOL    HW216154   4.177   4.528   4.693  0.3369 -0.8284 -0.1608
 4097SOL    HW316155   4.297   4.563   4.779  0.8693 -0.1362 -1.1765
 4097SOL    MW416156   4.221   4.585   4.743  0.3498 -0.6293 -0.4008
 4098SOL     OW16157   4.057   2.154   5.947  0.9001  0.5361  0.0717
 4098SOL    HW216158   4.027   2.189   6.030 -1.0863 -0.4066 -0.2009
 4098SOL    HW316159   4.005   2.201   5.881  0.4318 -0.6636 -0.4531
 4098SOL    MW416160   4.046   2.165   5.949  0.5762  0.2534 -0.0335
 4099SOL     OW16161   1.538   5.898   0.503  0.3971  0.3796  0.7985
 4099SOL    HW216162   1.562   5.965   0.567 -0.3027 -0.9420  2.5377
 4099SOL    HW316163   1.472   5.940   0.448 -1.2941  0.6731  2.9192
 4099SOL    MW416164   1.532   5.913   0.504  0.0817  0.2440  1.3078
 4100SOL     OW16165   0.659   5.242   3.541  0.0322  0.1231  0.0527
 4100SOL    HW216166   0.667   5.211   3.631  1.4628  0.4051  0.0374
 4100SOL    HW316167   0.619   5.329   3.549  0.6137  0.3574  0.4542
 4100SOL    MW416168   0.654   5.249   3.554  0.2977  0.1912  0.1037
 4101SOL     OW16169   1.600   4.882   4.006  0.1907  0.5345  0.6202
 4101SOL    HW216170   1.532   4.926   4.057 -0.2884 -0.3853  0.7849
 4101SOL    HW316171   1.669   4.862   4.070  0.0959  0.4016  0.6794
 4101SOL    MW416172   1.600   4.885   4.021  0.1150  0.3956  0.6497
 4102SOL     OW16173   0.880   5.464   1.683  0.1467 -0.0788  0.3991
 4102SOL    HW216174   0.829   5.537   1.718 -0.1154  0.5769 -1.2503
 4102SOL    HW316175   0.959   5.504   1.647 -0.1658 -0.5315 -0.8434
 4102SOL    MW416176   0.884   5.479   1.683  0.0709 -0.0520  0.0176
 4103SOL     OW16177   4.249   1.371   2.649  0.3377  0.0912  0.3697
 4103SOL    HW216178   4.209   1.286   2.665  1.7834 -0.8094 -0.5126
 4103SOL    HW316179   4.245   1.383   2.554 -0.4615  1.3574  0.5312
 4103SOL    MW416180   4.243   1.362   2.638  0.4230  0.1394  0.2746
 4104SOL     OW16181   1.973   4.830   1.309  0.6169 -0.2699 -0.2623
 4104SOL    HW216182   1.916   4.883   1.364  0.5055 -2.0757  1.5041
 4104SOL    HW316183   2.054   4.881   1.301 -0.1680  0.9899 -0.2679
 4104SOL    MW416184   1.976   4.843   1.315  0.4986 -0.3420 -0.0300
 4105SOL     OW16185   0.979   5.715   4.152 -0.0829 -0.0635  0.6896
 4105SOL    HW216186   0.964   5.803   4.118  0.7362  0.4041  1.5184
 4105SOL    HW316187   1.057   5.722   4.206  0.3838 -1.4504  0.2387
 4105SOL    MW416188   0.987   5.728   4.154  0.0868 -0.1848  0.7394
 4106SOL     OW16189   2.610   5.557   5.074  0.4724  0.0063  0.6577
 4106SOL    HW216190   2.530   5.601   5.046  0.4335 -0.7170 -0.4285
 4106SOL    HW316191   2.631   5.598   5.159  1.3260  3.2600 -0.9593
 4106SOL    MW416192   2.602   5.569   5.082  0.5798  0.3402  0.3010
 4107SOL     OW16193   0.160   5.061   5.259 -0.4027  0.3703 -0.1721
 4107SOL    HW216194   0.186   5.002   5.331 -1.0644  1.4808  1.0233
 4107SOL    HW316195   0.204   5.143   5.279  1.5551  0.0087 -2.5187
 4107SOL    MW416196   0.170   5.064   5.271 -0.2317  0.4691 -0.3240
 4108SOL     OW16197   3.121   0.673   5.699  0.0020 -0.3852  0.3583
 4108SOL    HW216198   3.093   0.640   5.613  0.1179  2.0480 -0.6786
 4108SOL    HW316199   3.216   0.672   5.695  0.0212 -0.8773  0.7470
 4108SOL    MW416200   3.129   0.668   5.687  0.0198 -0.1291  0.2728
 4109SOL     OW16201   2.137   0.907   1.780 -0.1613  0.4110 -0.0176
 4109SOL    HW216202   2.116   0.993   1.743  2.6831  1.1940  0.0017
 4109SOL    HW316203   2.052   0.872   1.809 -1.7069  2.1569 -2.1641
 4109SOL    MW416204   2.123   0.914   1.779  0.0101  0.7447 -0.2982
 4110SOL     OW16205   0.186   4.066   2.620  0.4620 -0.0438  0.1748
 4110SOL    HW216206   0.265   4.116   2.642  0.0030 -0.5245  3.3395
 4110SOL    HW316207   0.115   4.117   2.658 -0.3685 -1.3660  0.4406
 4110SOL    MW416208   0.187   4.079   2.628  0.2918 -0.2817  0.6274
 4111SOL     OW16209   2.770   4.108   0.554 -0.1015  0.2651  0.5471
 4111SOL    HW216210   2.743   4.103   0.462 -1.4236  1.1821  0.8538
 4111SOL    HW316211   2.694   4.076   0.603  0.1659  0.8310  1.3535
 4111SOL    MW416212   2.756   4.103   0.548 -0.2406  0.4608  0.6940
 4112SOL     OW16213   5.699   2.348   4.335  0.2485  0.8545 -0.6907
 4112SOL    HW216214   5.779   2.400   4.323 -0.1245  1.4401 -0.6825
 4112SOL    HW316215   5.730   2.258   4.343  0.7900  0.8556 -2.3641
 4112SOL    MW416216   5.714   2.343   4.335  0.2707  0.9319 -0.9104
 4113SOL     OW16217   4.256   5.861   4.686  0.1148  0.0275 -0.2790
 4113SOL    HW216218   4.260   5.933   4.749 -0.2838 -1.4721  1.5742
 4113SOL    HW316219   4.166   5.828   4.693  0.2836 -0.6484 -1.0903
 4113SOL    MW416220   4.245   5.866   4.695  0.0844 -0.2595 -0.1416
 4114SOL     OW16221   1.501   1.650   3.772 -0.4945 -0.2678  0.4138
 4114SOL    HW216222   1.528   1.728   3.724 -0.2403 -1.4234 -1.4568
 4114SOL    HW316223   1.409   1.637   3.747 -0.4091 -0.7856  0.3505
 4114SOL    MW416224   1.493   1.658   3.762 -0.4497 -0.4886  0.1587
 4115SOL     OW16225   5.408   5.276   6.389 -0.4723 -0.1762  0.3070
 4115SOL    HW216226   5.380   5.337   6.456  0.7342  2.7116 -1.6409
 4115SOL    HW316227   5.387   5.319   6.306  0.6328 -2.3288 -1.2123
 4115SOL    MW416228   5.402   5.289   6.387 -0.1673 -0.0792 -0.1505
 4116SOL     OW16229   1.143   2.326   6.001 -0.3071 -0.3566  0.4127
 4116SOL    HW216230   1.156   2.312   6.095  1.1620 -1.2618  0.1031
 4116SOL    HW316231   1.145   2.238   5.963 -0.5295  0.0233 -0.5079
 4116SOL    MW416232   1.145   2.312   6.008 -0.1426 -0.4259  0.2504
 4117SOL     OW16233   0.487   1.189   0.814 -0.2698 -0.4454 -0.1856
 4117SOL    HW216234   0.487   1.202   0.909 -1.8575  1.1017 -0.3338
 4117SOL    HW316235   0.507   1.276   0.779 -2.1347 -0.3996 -1.2640
 4117SOL    MW416236   0.490   1.203   0.822 -0.7253 -0.2352 -0.3474
 4118SOL     OW16237   5.108   1.169   0.102  0.0645  0.0770  0.1945
 4118SOL    HW216238   5.064   1.138   0.181  1.3426 -0.9305  0.5541
 4118SOL    HW316239   5.194   1.198   0.132  0.8009 -0.8787 -0.8680
 4118SOL    MW416240   5.114   1.168   0.116  0.3303 -0.1820  0.1017
 4119SOL     OW16241   2.074   1.632   6.048 -0.2165 -0.3154  0.4868
 4119SOL    HW216242   2.148   1.682   6.081 -1.3233  1.1890  0.7784
 4119SOL    HW316243   2.085   1.632   5.953  0.4290 -0.5841  0.5540
 4119SOL    MW416244   2.085   1.638   6.040 -0.2773 -0.1524  0.5342
 4120SOL     OW16245   5.107   4.561   4.936 -0.2993  0.4620 -0.1682
 4120SOL    HW216246   5.189   4.609   4.932  0.3187 -0.5727 -0.3057
 4120SOL    HW316247   5.046   4.620   4.980  0.8419  0.8052  1.0123
 4120SOL    MW416248   5.110   4.575   4.942 -0.0672  0.3708 -0.0306
 4121SOL     OW16249   4.819   0.932   2.063  0.6340 -0.3130 -0.2587
 4121SOL    HW216250   4.889   0.895   2.117 -0.3678 -0.2286  1.1623
 4121SOL    HW316251   4.786   0.858   2.012  0.8316 -0.6628  0.1145
 4121SOL    MW416252   4.824   0.917   2.063  0.5279 -0.3480 -0.0220
 4122SOL     OW16253   6.012   4.941   1.914  0.1975  0.1536  0.5897
 4122SOL    HW216254   6.037   5.013   1.855  0.2723  1.8522  2.5817
 4122SOL    HW316255   6.007   4.864   1.857  2.3697  1.2527 -1.2409
 4122SOL    MW416256   6.014   4.940   1.898  0.4939  0.5227  0.6110
 4123SOL     OW16257   3.930   2.341   5.751  0.6785  0.1711 -0.2742
 4123SOL    HW216258   3.856   2.360   5.809  0.4630 -2.1800  0.3126
 4123SOL    HW316259   3.997   2.405   5.776  0.3354 -0.3273  2.1726
 4123SOL    MW416260   3.929   2.352   5.762  0.6048 -0.2048  0.1260
 4124SOL     OW16261   2.358   2.726   1.916  0.3788  0.7224  0.1613
 4124SOL    HW216262   2.397   2.761   1.835 -0.6601  0.2933 -0.5420
 4124SOL    HW316263   2.408   2.647   1.934  1.1422  1.2493  0.3955
 4124SOL    MW416264   2.370   2.721   1.908  0.3425  0.7353  0.0994
 4125SOL     OW16265   5.600   0.962   3.414  0.1132 -0.1346 -0.1015
 4125SOL    HW216266   5.524   0.978   3.357  1.0138  1.7560 -0.8539
 4125SOL    HW316267   5.666   0.924   3.356 -0.0215 -1.1883  0.4164
 4125SOL    MW416268   5.598   0.959   3.399  0.2142 -0.0242 -0.1324
 4126SOL     OW16269   0.682   0.337   1.937 -0.0759  0.0615 -0.9408
 4126SOL    HW216270   0.733   0.332   1.856  0.6883  0.7731 -0.5213
 4126SOL    HW316271   0.725   0.405   1.989 -2.2434  1.6466 -1.0999
 4126SOL    MW416272   0.695   0.345   1.934 -0.2610  0.3646 -0.9064
 4127SOL     OW16273   0.693   5.933   0.555  0.1790 -0.6551 -0.0195
 4127SOL    HW216274   0.635   5.899   0.487 -1.3242 -0.6372  1.2175
 4127SOL    HW316275   0.765   5.870   0.558 -1.0865 -2.1492  0.2214
 4127SOL    MW416276   0.695   5.921   0.546 -0.1863 -0.8499  0.1755
 4128SOL     OW16277   1.585   0.574   5.023  0.0956 -0.3377  0.1585
 4128SOL    HW216278   1.523   0.645   5.008  0.2660  0.2028  1.8721
 4128SOL    HW316279   1.663   0.601   4.975 -0.2423  0.0487 -0.1875
 4128SOL    MW416280   1.587   0.587   5.015  0.0735 -0.2154  0.3389
 4129SOL     OW16281   1.176   4.411   3.547 -0.4454 -0.1022 -0.8230
 4129SOL    HW216282   1.190   4.501   3.518  3.4414 -0.1623  0.3246
 4129SOL    HW316283   1.174   4.360   3.466  1.1173  0.6722 -1.3966
 4129SOL    MW416284   1.178   4.416   3.533  0.2736 -0.0079 -0.7473
 4130SOL     OW16285   3.431   4.169   1.811  0.3170  1.0665 -0.2314
 4130SOL    HW216286   3.378   4.109   1.863 -0.4125  0.7654 -1.2727
 4130SOL    HW316287   3.411   4.256   1.847  0.2233  0.8229  0.3181
 4130SOL    MW416288   3.421   4.173   1.822  0.2084  0.9947 -0.2963
 4131SOL     OW16289   1.095   6.185   0.120  0.0533  0.1134 -0.0899
 4131SOL    HW216290   1.072   6.180   0.212  0.2717 -1.2864 -0.0899
 4131SOL    HW316291   1.053   6.265   0.089 -0.5575  0.2617  1.0646
 4131SOL    MW416292   1.087   6.195   0.128  0.0015 -0.0517  0.0624
 4132SOL     OW16293   4.134   5.841   0.568 -0.3000  0.4127  0.5039
 4132SOL    HW216294   4.224   5.871   0.550 -0.9176  1.5208 -0.9727
 4132SOL    HW316295   4.091   5.844   0.482 -1.2839 -1.7958  0.8670
 4132SOL    MW416296   4.141   5.845   0.554 -0.5113  0.2676  0.3570
 4133SOL     OW16297   3.930   4.175   1.017 -0.6385 -0.0807 -0.3854
 4133SOL    HW216298   4.003   4.226   0.982 -0.5850 -0.3537 -0.6822
 4133SOL    HW316299   3.881   4.147   0.940 -0.8420 -0.2185 -0.2080
 4133SOL    MW416300   3.933   4.178   1.002 -0.6583 -0.1349 -0.4011
 4134SOL     OW16301   6.360   4.360   5.601 -0.1021 -0.3136  0.0195
 4134SOL    HW216302   6.431   4.400   5.652  1.0541 -0.0731 -1.6915
 4134SOL    HW316303   6.331   4.286   5.655  1.0007 -0.0344  1.0547
 4134SOL    MW416304   6.366   4.356   5.615  0.1960 -0.2450 -0.0697
 4135SOL     OW16305   2.912   5.397   2.526 -0.1089 -0.5316  0.5155
 4135SOL    HW216306   2.886   5.305   2.537  1.9623 -1.1870  0.4449
 4135SOL    HW316307   2.988   5.393   2.468  0.5864  1.1337  1.2651
 4135SOL    MW416308   2.918   5.384   2.520  0.2561 -0.3983  0.6051
 4136SOL     OW16309   0.097   4.952   1.484 -0.0008 -0.0497  0.0664
 4136SOL    HW216310   0.053   4.917   1.562 -0.6411 -1.3420 -0.8457
 4136SOL    HW316311   0.043   5.027   1.459 -1.3987 -1.2575 -0.6826
 4136SOL    MW416312   0.084   4.958   1.491 -0.2697 -0.3796 -0.1528
 4137SOL     OW16313   1.614   1.148   3.660 -0.4638 -0.5791  0.0538
 4137SOL    HW216314   1.579   1.100   3.585 -0.6759  0.3145 -0.4419
 4137SOL    HW316315   1.704   1.117   3.669 -0.5607 -0.9745 -0.3363
 4137SOL    MW416316   1.621   1.138   3.651 -0.5046 -0.5133 -0.0631
 4138SOL     OW16317   2.081   4.961   3.084  0.2562  0.0263  0.3734
 4138SOL    HW216318   2.136   5.038   3.070 -0.5508  0.2976 -1.6832
 4138SOL    HW316319   1.992   4.995   3.088 -0.1665 -0.8020 -1.1434
 4138SOL    MW416320   2.077   4.975   3.082  0.0939 -0.0472 -0.0980
 4139SOL     OW16321   3.265   6.334   1.128  0.2474 -0.6886  0.3712
 4139SOL    HW216322   3.283   6.343   1.221  1.2490 -0.3582  0.1540
 4139SOL    HW316323   3.350   6.348   1.085  0.1146 -2.3456 -0.5037
 4139SOL    MW416324   3.279   6.337   1.135  0.3620 -0.8636  0.2271
 4140SOL     OW16325   0.744   3.307   0.818 -0.0825 -0.7085 -0.2057
 4140SOL    HW216326   0.680   3.257   0.767 -1.1039 -0.5056  0.8305
 4140SOL    HW316327   0.752   3.390   0.772  1.3962 -1.6593 -1.7715
 4140SOL    MW416328   0.737   3.311   0.805 -0.0222 -0.8072 -0.2756
 4141SOL     OW16329   2.703   1.140   0.804 -0.0968  0.1314 -0.4587
 4141SOL    HW216330   2.707   1.094   0.888  1.0329 -1.3363 -1.2675
 4141SOL    HW316331   2.785   1.190   0.799 -0.5213  0.8557 -0.3594
 4141SOL    MW416332   2.715   1.141   0.814 -0.0038  0.0333 -0.5523
 4142SOL     OW16333   1.497   4.271   0.877  0.5492  0.0324 -0.2602
 4142SOL    HW216334   1.512   4.176   0.871  2.8140  0.3047  0.0103
 4142SOL    HW316335   1.582   4.306   0.903  0.1026  2.2899 -1.6529
 4142SOL    MW416336   1.510   4.263   0.880  0.7891  0.3662 -0.4082
 4143SOL     OW16337   5.780   5.822   0.182 -0.0150 -0.1928  0.4157
 4143SOL    HW216338   5.856   5.767   0.201  1.4338  1.2344 -0.9032
 4143SOL    HW316339   5.817   5.904   0.148 -2.1199  1.0037  0.7734
 4143SOL    MW416340   5.795   5.826   0.180 -0.1016  0.1533  0.2889
 4144SOL     OW16341   1.553   0.844   3.295  0.2110 -0.2465 -0.0111
 4144SOL    HW216342   1.569   0.920   3.240 -1.0078 -0.0069 -0.0491
 4144SOL    HW316343   1.463   0.820   3.278  0.5763 -1.7174  0.0048
 4144SOL    MW416344   1.544   0.851   3.286  0.0984 -0.4090 -0.0141
 4145SOL     OW16345   3.627   2.600   4.738 -0.4940  0.0494 -0.6360
 4145SOL    HW216346   3.560   2.532   4.743 -0.1253 -0.2335  0.8286
 4145SOL    HW316347   3.624   2.644   4.823  0.6147  0.5763 -0.8483
 4145SOL    MW416348   3.618   2.597   4.750 -0.2990  0.0816 -0.4708
 4146SOL     OW16349   5.147   1.769   5.197  0.7866  0.3595  0.2028
 4146SOL    HW216350   5.165   1.861   5.216  0.8576  0.5815 -0.8488
 4146SOL    HW316351   5.072   1.772   5.138  0.1519 -0.3175  0.9660
 4146SOL    MW416352   5.140   1.782   5.192  0.7122  0.2995  0.1648
 4147SOL     OW16353   0.280   2.638   1.049  0.3929  0.1875 -0.0246
 4147SOL    HW216354   0.196   2.679   1.028  1.3581  2.7804  0.7820
 4147SOL    HW316355   0.306   2.593   0.968 -1.3435  0.0219 -0.5384
 4147SOL    MW416356   0.272   2.637   1.036  0.2911  0.5077  0.0140
 4148SOL     OW16357   0.423   5.614   0.622 -0.0643 -0.0996  0.1707
 4148SOL    HW216358   0.341   5.663   0.615 -1.1155 -2.0302 -2.3257
 4148SOL    HW316359   0.479   5.652   0.553  1.5671  1.7371  2.3468
 4148SOL    MW416360   0.420   5.626   0.612  0.0123 -0.1120  0.1284
 4149SOL     OW16361   4.982   4.700   2.714  0.0997  0.1985 -0.8584
 4149SOL    HW216362   4.887   4.701   2.721 -0.1193 -0.1720 -3.0329
 4149SOL    HW316363   5.002   4.617   2.670  1.4450  0.1894 -0.2843
 4149SOL    MW416364   4.972   4.689   2.709  0.2483  0.1484 -1.0695
 4150SOL     OW16365   4.806   2.832   3.440  0.3211 -0.4599  0.3868
 4150SOL    HW216366   4.870   2.778   3.486 -1.0224 -2.4644  0.0234
 4150SOL    HW316367   4.785   2.782   3.361 -0.0011  1.2519 -0.6605
 4150SOL    MW416368   4.812   2.818   3.436  0.1013 -0.4985  0.2007
 4151SOL     OW16369   0.299   6.129   1.673  0.3871  0.3267 -0.1702
 4151SOL    HW216370   0.292   6.143   1.579 -2.0128 -0.0904 -0.1232
 4151SOL    HW316371   0.208   6.121   1.703  1.0798  0.4427  2.1845
 4151SOL    MW416372   0.286   6.130   1.665  0.1619  0.2870  0.1466
 4152SOL     OW16373   5.433   2.224   0.120  0.2118 -0.4406  0.2555
 4152SOL    HW216374   5.491   2.213   0.044  2.3122 -0.2498  1.7500
 4152SOL    HW316375   5.439   2.316   0.142 -0.3852 -0.4913  0.6586
 4152SOL    MW416376   5.441   2.234   0.113  0.4102 -0.4221  0.5058
 4153SOL     OW16377   5.212   1.723   0.259 -0.2089 -0.3106  0.4184
 4153SOL    HW216378   5.213   1.774   0.340  1.9414  0.4779 -0.0424
 4153SOL    HW316379   5.214   1.788   0.189  1.9343 -0.9401 -0.1855
 4153SOL    MW416380   5.212   1.738   0.261  0.3576 -0.2896  0.2780
 4154SOL     OW16381   5.855   4.647   2.846 -0.0113  0.3413  0.0801
 4154SOL    HW216382   5.800   4.604   2.911 -0.0325  1.0387  0.5362
 4154SOL    HW316383   5.910   4.577   2.810 -1.0473 -0.3235 -0.2346
 4154SOL    MW416384   5.855   4.632   2.849 -0.1508  0.3456  0.0988
 4155SOL     OW16385   1.245   2.655   5.842  0.0096  0.8368  0.0214
 4155SOL    HW216386   1.239   2.716   5.915  1.7531  0.4270  0.5486
 4155SOL    HW316387   1.310   2.591   5.869  1.3292  1.1307 -2.1704
 4155SOL    MW416388   1.253   2.655   5.855  0.4137  0.8215 -0.1982
 4156SOL     OW16389   0.507   2.916   4.039  0.3535 -0.2629  0.5317
 4156SOL    HW216390   0.546   2.940   4.123  1.8922 -1.8898  0.3647
 4156SOL    HW316391   0.556   2.967   3.974  2.5498 -2.4592  0.3039
 4156SOL    MW416392   0.519   2.926   4.041  0.8463 -0.7674  0.4797
 4157SOL     OW16393   5.133   5.659   3.118 -0.2652  0.0558  0.2534
 4157SOL    HW216394   5.186   5.638   3.041 -1.5951 -0.6113 -0.5258
 4157SOL    HW316395   5.087   5.740   3.095  0.1586  0.4567  0.7922
 4157SOL    MW416396   5.134   5.667   3.105 -0.3848  0.0207  0.2217
 4158SOL     OW16397   0.139   2.924   2.695 -0.6161 -0.3353  0.2698
 4158SOL    HW216398   0.094   2.997   2.652  1.0890  2.4325  2.7841
 4158SOL    HW316399   0.229   2.929   2.663 -0.7004 -2.1711 -0.3853
 4158SOL    MW416400   0.145   2.934   2.685 -0.4022 -0.2123  0.5151
 4159SOL     OW16401   2.248   3.854   2.942  0.0794  0.4359 -0.3028
 4159SOL    HW216402   2.199   3.842   3.024  0.3958 -1.6585 -0.3620
 4159SOL    HW316403   2.182   3.842   2.873  0.3421 -0.7965 -0.3619
 4159SOL    MW416404   2.233   3.851   2.944  0.1558 -0.0030 -0.3184
 4160SOL     OW16405   4.999   6.296   1.529 -0.0911  0.0511  0.1661
 4160SOL    HW216406   5.063   6.242   1.482  0.2507  1.0126 -0.5019
 4160SOL    HW316407   5.034   6.303   1.617 -0.9416 -2.1164  0.7421
 4160SOL    MW416408   5.012   6.290   1.534 -0.1582 -0.1080  0.1540
 4161SOL     OW16409   0.112   5.732   1.763 -0.4117  0.3328  0.4180
 4161SOL    HW216410   0.198   5.767   1.789  1.1350 -3.5742  1.2317
 4161SOL    HW316411   0.123   5.706   1.672 -1.5746  1.9007 -0.2176
 4161SOL    MW416412   0.125   5.734   1.755 -0.3611  0.0242  0.4415
 4162SOL     OW16413   5.377   4.372   5.884 -0.2588 -0.5162  0.7225
 4162SOL    HW216414   5.442   4.435   5.915  0.3150 -0.7846  0.0763
 4162SOL    HW316415   5.318   4.360   5.959  0.8257 -0.7964  1.5581
 4162SOL    MW416416   5.378   4.379   5.898 -0.0400 -0.5886  0.7475
 4163SOL     OW16417   6.291   1.041   2.902 -0.3207 -0.8564 -0.0409
 4163SOL    HW216418   6.315   1.067   2.991  1.4694 -1.5529 -0.2727
 4163SOL    HW316419   6.220   0.978   2.914 -0.2515 -0.7747  0.8817
 4163SOL    MW416420   6.285   1.036   2.915 -0.0754 -0.9375  0.0502
 4164SOL     OW16421   2.397   4.668   4.753 -0.3010 -0.8588  0.4216
 4164SOL    HW216422   2.343   4.590   4.753  1.2103 -1.9419  0.1117
 4164SOL    HW316423   2.384   4.706   4.666  1.5316 -2.6723 -0.7247
 4164SOL    MW416424   2.388   4.663   4.742  0.1402 -1.2410  0.2295
 4165SOL     OW16425   1.096   2.890   2.788 -0.8957 -0.6196 -0.7763
 4165SOL    HW216426   1.115   2.981   2.766  0.5295 -0.9414 -1.0075
 4165SOL    HW316427   1.177   2.858   2.829 -0.8240 -2.1939 -2.0549
 4165SOL    MW416428   1.110   2.898   2.791 -0.6982 -0.8698 -0.9755
 4166SOL     OW16429   2.153   3.034   6.271 -0.0284 -0.3502  0.3714
 4166SOL    HW216430   2.217   3.103   6.289  1.1524 -1.2892 -0.0586
 4166SOL    HW316431   2.185   2.959   6.320 -0.1671 -1.1615 -0.7418
 4166SOL    MW416432   2.166   3.033   6.280  0.1091 -0.5812  0.1678
 4167SOL     OW16433   1.223   3.800   3.033  0.3803 -0.0124 -0.2729
 4167SOL    HW216434   1.302   3.840   2.997 -0.4201  0.6522 -1.3374
 4167SOL    HW316435   1.231   3.812   3.128  2.0650 -0.9544 -0.2526
 4167SOL    MW416436   1.234   3.807   3.041  0.4970 -0.0490 -0.4107
 4168SOL     OW16437   3.244   2.297   1.816 -0.3111  0.6171  0.1017
 4168SOL    HW216438   3.267   2.387   1.793  1.5745  0.7294  2.0602
 4168SOL    HW316439   3.329   2.253   1.827 -1.1579 -0.8383  1.1350
 4168SOL    MW416440   3.259   2.303   1.814 -0.1741  0.4399  0.4964
 4169SOL     OW16441   1.898   5.990   0.321 -0.2507 -0.0361  0.1233
 4169SOL    HW216442   1.900   6.081   0.351  0.5153  0.1101 -0.3460
 4169SOL    HW316443   1.983   5.954   0.348 -0.3767 -0.4875 -0.0675
 4169SOL    MW416444   1.909   5.997   0.329 -0.1663 -0.0764  0.0362
 4170SOL     OW16445   4.405   3.440   6.319  0.0574 -0.8986 -0.2441
 4170SOL    HW216446   4.392   3.391   6.237 -0.2280  1.5054 -1.7442
 4170SOL    HW316447   4.372   3.528   6.299 -0.9259 -0.4775  2.8118
 4170SOL    MW416448   4.399   3.445   6.305 -0.1100 -0.5259 -0.0388
 4171SOL     OW16449   5.982   0.497   2.135  0.2424  0.1622  0.2745
 4171SOL    HW216450   5.920   0.570   2.140 -0.4858 -0.4844  0.8814
 4171SOL    HW316451   5.975   0.454   2.220 -0.0500 -1.1787 -0.4002
 4171SOL    MW416452   5.973   0.501   2.147  0.1077 -0.1000  0.2655
 4172SOL     OW16453   1.511   3.231   5.011 -0.3879 -0.7921  0.0758
 4172SOL    HW216454   1.605   3.253   5.010 -0.0931 -1.9969 -0.3084
 4172SOL    HW316455   1.500   3.173   5.086 -1.0600  0.2276  0.7895
 4172SOL    MW416456   1.522   3.226   5.021 -0.4377 -0.8165  0.1192
 4173SOL     OW16457   5.054   3.325   0.316  0.0420  0.0817  0.1186
 4173SOL    HW216458   5.033   3.318   0.409 -0.2018  0.7120  0.1187
 4173SOL    HW316459   4.969   3.322   0.272  0.1092  0.4536 -0.0384
 4173SOL    MW416460   5.040   3.324   0.322  0.0187  0.2139  0.0979
 4174SOL     OW16461   6.057   3.752   5.075  0.0728 -0.1485  0.1195
 4174SOL    HW216462   6.147   3.766   5.106  0.5920  0.0295 -1.3882
 4174SOL    HW316463   6.067   3.697   4.998 -1.0338  0.6584 -0.6203
 4174SOL    MW416464   6.070   3.747   5.069 -0.0047 -0.0186 -0.1770
 4175SOL     OW16465   4.232   4.135   4.652  0.3634 -0.1997 -0.0201
 4175SOL    HW216466   4.232   4.052   4.605  1.0818 -0.9824  1.3257
 4175SOL    HW316467   4.324   4.159   4.657  0.3987 -0.6378  1.8416
 4175SOL    MW416468   4.244   4.128   4.646  0.4628 -0.3608  0.4031
 4176SOL     OW16469   5.457   6.416   3.416 -0.4488  0.2792  0.0628
 4176SOL    HW216470   5.448   6.510   3.400 -0.7975 -0.0996 -2.3275
 4176SOL    HW316471   5.546   6.407   3.452 -0.5484  1.5241  0.6921
 4176SOL    MW416472   5.468   6.427   3.419 -0.5079  0.3935 -0.1696
 4177SOL     OW16473   4.919   0.627   4.793 -0.3075  0.3055  0.2933
 4177SOL    HW216474   4.930   0.705   4.738  1.6730 -0.1696 -0.0752
 4177SOL    HW316475   5.004   0.616   4.835 -1.0715 -0.7135  1.6485
 4177SOL    MW416476   4.932   0.636   4.791 -0.1470  0.1084  0.4235
 4178SOL     OW16477   3.215   3.807   4.007 -0.1853 -1.2305 -0.6082
 4178SOL    HW216478   3.144   3.854   4.049 -0.3776 -0.8327 -1.3702
 4178SOL    HW316479   3.277   3.788   4.078 -0.4497 -0.4725 -0.1721
 4178SOL    MW416480   3.214   3.810   4.022 -0.2455 -1.0780 -0.6512
 4179SOL     OW16481   4.429   0.178   2.246  0.1357  0.2299  0.2329
 4179SOL    HW216482   4.432   0.252   2.307  0.6263 -0.2956  0.8636
 4179SOL    HW316483   4.520   0.149   2.238 -0.2245 -1.3383  1.3089
 4179SOL    MW416484   4.441   0.184   2.253  0.1529 -0.0463  0.4581
 4180SOL     OW16485   1.147   5.810   4.682  0.0151 -0.0719 -0.3108
 4180SOL    HW216486   1.197   5.738   4.644 -0.1779 -0.6610  0.5438
 4180SOL    HW316487   1.056   5.783   4.674 -0.0682  0.1489 -0.1160
 4180SOL    MW416488   1.142   5.797   4.676 -0.0214 -0.1205 -0.1724
 4181SOL     OW16489   5.902   3.479   0.577 -0.0344  0.3347 -0.0975
 4181SOL    HW216490   5.946   3.519   0.502  0.9313  0.5482  0.5695
 4181SOL    HW316491   5.963   3.412   0.607  0.0195  0.8776  1.0655
 4181SOL    MW416492   5.916   3.475   0.571  0.1002  0.4345  0.1440
 4182SOL     OW16493   3.672   2.511   0.940 -0.1531 -0.3783  0.5227
 4182SOL    HW216494   3.613   2.586   0.933  1.0019  0.4247 -1.2315
 4182SOL    HW316495   3.712   2.519   1.027 -1.8643 -0.4049  1.3536
 4182SOL    MW416496   3.669   2.522   0.950 -0.2265 -0.2759  0.4009
 4183SOL     OW16497   6.413   4.399   2.433 -0.2759 -0.2172  0.0434
 4183SOL    HW216498   6.355   4.474   2.447 -0.7757 -0.5766 -0.0836
 4183SOL    HW316499   6.359   4.323   2.451  0.3301 -0.5472  0.5223
 4183SOL    MW416500   6.398   4.399   2.437 -0.2619 -0.3081  0.0898
 4184SOL     OW16501   6.175   4.589   4.918 -0.0127 -0.2312 -0.2450
 4184SOL    HW216502   6.107   4.556   4.976  1.1206 -0.2506  1.1314
 4184SOL    HW316503   6.128   4.640   4.852 -1.3283  0.0306  0.8573
 4184SOL    MW416504   6.160   4.592   4.917 -0.0368 -0.1992  0.0821
 4185SOL     OW16505   2.965   2.230   0.678  0.1383 -0.5013  0.0107
 4185SOL    HW216506   2.870   2.215   0.673 -0.0968 -1.1141  3.5289
 4185SOL    HW316507   3.003   2.158   0.629 -1.2386 -1.6084  0.4904
 4185SOL    MW416508   2.957   2.219   0.671 -0.0744 -0.7282  0.5382
 4186SOL     OW16509   0.562   6.107   1.738  0.1270  0.2588  0.4579
 4186SOL    HW216510   0.559   6.053   1.817  1.2357 -0.0337  0.3202
 4186SOL    HW316511   0.475   6.097   1.699  0.4286 -1.8340  0.1922
 4186SOL    MW416512   0.550   6.098   1.743  0.3131 -0.0559  0.4046
 4187SOL     OW16513   0.784   3.287   1.884 -0.1739 -0.5170 -0.1735
 4187SOL    HW216514   0.823   3.315   1.967 -2.0843 -1.0419  0.9458
 4187SOL    HW316515   0.851   3.230   1.845  1.1790  0.5559  0.4731
 4187SOL    MW416516   0.798   3.283   1.890 -0.2475 -0.4447  0.0595
 4188SOL     OW16517   0.988   4.076   0.818  0.1332  0.0880  0.1079
 4188SOL    HW216518   0.910   4.095   0.870 -0.6626 -0.1757 -0.9582
 4188SOL    HW316519   0.966   4.105   0.729  0.3568 -2.0947 -0.7263
 4188SOL    MW416520   0.975   4.083   0.813  0.0577 -0.2348 -0.1429
 4189SOL     OW16521   6.396   4.245   4.801  0.6065 -0.3292 -0.5229
 4189SOL    HW216522   6.316   4.295   4.785  0.5643 -0.8001 -1.8532
 4189SOL    HW316523   6.369   4.154   4.800  0.8485 -0.4533  0.9745
 4189SOL    MW416524   6.382   4.240   4.799  0.6329 -0.4077 -0.5009
 4190SOL     OW16525   3.869   6.147   4.129 -0.4658  0.4856 -0.4381
 4190SOL    HW216526   3.868   6.080   4.197 -1.2927 -1.8694 -2.5972
 4190SOL    HW316527   3.950   6.195   4.142  0.2244 -1.0397  1.1233
 4190SOL    MW416528   3.879   6.145   4.139 -0.4838 -0.0263 -0.5170
 4191SOL     OW16529   2.904   3.739   4.620 -0.1485  0.0366  0.7881
 4191SOL    HW216530   2.811   3.742   4.645 -0.2161  0.5906  0.4769
 4191SOL    HW316531   2.905   3.698   4.534 -0.2433  1.3185  0.1601
 4191SOL    MW416532   2.892   3.734   4.612 -0.1699  0.2789  0.6642
 4192SOL     OW16533   5.811   5.458   6.015 -0.1990  0.7620  0.2757
 4192SOL    HW216534   5.887   5.429   6.065 -0.3118 -0.2326 -0.1139
 4192SOL    HW316535   5.742   5.469   6.081 -0.9161 -2.3879  0.2196
 4192SOL    MW416536   5.812   5.456   6.031 -0.3085  0.2152  0.2169
 4193SOL     OW16537   0.296   5.742   3.347 -0.0081 -0.3305  0.3686
 4193SOL    HW216538   0.235   5.760   3.276  0.7791 -2.2788 -0.8748
 4193SOL    HW316539   0.243   5.748   3.426 -1.3918 -0.2545 -0.5262
 4193SOL    MW416540   0.281   5.745   3.348 -0.0868 -0.5775  0.0865
 4194SOL     OW16541   3.811   4.115   0.788  0.0380 -0.0168  0.0718
 4194SOL    HW216542   3.784   4.204   0.765 -0.6017 -0.4471 -0.9689
 4194SOL    HW316543   3.736   4.061   0.763  1.0179 -1.0171 -0.8290
 4194SOL    MW416544   3.797   4.120   0.781  0.0829 -0.2056 -0.1844
 4195SOL     OW16545   0.156   6.372   0.667 -0.6686 -0.2899 -0.3680
 4195SOL    HW216546   0.075   6.413   0.697 -1.4056 -1.3576 -0.8521
 4195SOL    HW316547   0.185   6.320   0.742 -1.6149 -1.6330 -0.9100
 4195SOL    MW416548   0.149   6.371   0.681 -0.8907 -0.6080 -0.5034
 4196SOL     OW16549   0.480   4.236   1.042 -0.2731  0.4136 -0.4530
 4196SOL    HW216550   0.520   4.149   1.047 -0.1657  0.4750 -0.2099
 4196SOL    HW316551   0.554   4.296   1.036 -0.2486  0.6162  1.2564
 4196SOL    MW416552   0.495   4.232   1.042 -0.2557  0.4484 -0.1954
 4197SOL     OW16553   2.204   1.412   5.485  0.1620  0.2899  0.1912
 4197SOL    HW216554   2.186   1.505   5.472 -0.4293  0.0545 -0.7430
 4197SOL    HW316555   2.222   1.404   5.578  0.2759  1.3513  0.2701
 4197SOL    MW416556   2.204   1.423   5.495  0.0990  0.3989  0.0783
 4198SOL     OW16557   4.350   2.081   0.124  0.1083  0.0710 -0.1320
 4198SOL    HW216558   4.371   2.086   0.217  0.9008 -0.7046 -0.2596
 4198SOL    HW316559   4.433   2.099   0.080 -0.1756  0.0329 -0.6878
 4198SOL    MW416560   4.364   2.084   0.130  0.1754 -0.0364 -0.2222
 4199SOL     OW16561   2.460   1.107   0.667  0.7539  0.1590 -0.4156
 4199SOL    HW216562   2.390   1.172   0.669  0.7778  0.3119 -2.5780
 4199SOL    HW316563   2.534   1.150   0.710 -0.1273  0.3971  0.9144
 4199SOL    MW416564   2.460   1.121   0.673  0.6408  0.2106 -0.5254
 4200SOL     OW16565   1.023   0.449   4.698  0.1335 -0.2092 -0.3245
 4200SOL    HW216566   1.002   0.490   4.614 -0.2919 -0.4748 -0.3529
 4200SOL    HW316567   1.003   0.515   4.764 -1.2847 -0.6196 -0.3180
 4200SOL    MW416568   1.018   0.463   4.695 -0.1097 -0.2984 -0.3274
 4201SOL     OW16569   5.116   1.152   2.124  0.9711 -0.8812  0.3432
 4201SOL    HW216570   5.109   1.182   2.033  3.2219  1.7167  0.8820
 4201SOL    HW316571   5.124   1.057   2.118  4.9443 -0.6100 -2.6167
 4201SOL    MW416572   5.116   1.143   2.111  1.7923 -0.5027  0.0238
 4202SOL     OW16573   2.606   6.350   0.944  0.0676 -0.0615 -0.1744
 4202SOL    HW216574   2.622   6.422   0.883  0.2483 -0.8970 -1.1351
 4202SOL    HW316575   2.681   6.292   0.932 -0.6410 -0.9739 -0.2554
 4202SOL    MW416576   2.618   6.352   0.934 -0.0020 -0.2921 -0.3118
 4203SOL     OW16577   6.063   0.836   1.913 -0.4289  0.2791 -0.2572
 4203SOL    HW216578   5.998   0.902   1.940 -0.6824 -0.4544  1.0069
 4203SOL    HW316579   6.116   0.821   1.991 -1.7472 -2.5839  0.2183
 4203SOL    MW416580   6.061   0.843   1.927 -0.6363 -0.1954 -0.0277
 4204SOL     OW16581   4.712   1.421   6.314 -0.9219  0.1243  0.0533
 4204SOL    HW216582   4.744   1.504   6.278  0.1074 -0.8305 -1.3395
 4204SOL    HW316583   4.776   1.399   6.382 -0.5162 -0.1046 -0.3961
 4204SOL    MW416584   4.725   1.429   6.318 -0.7326 -0.0319 -0.1898
 4205SOL     OW16585   1.827   1.849   4.958  0.3417 -0.0563 -0.2304
 4205SOL    HW216586   1.793   1.797   5.031 -0.1291  1.3470  0.6086
 4205SOL    HW316587   1.778   1.819   4.882  0.9310 -1.6413 -0.0153
 4205SOL    MW416588   1.816   1.838   4.958  0.3573 -0.0803 -0.0913
 4206SOL     OW16589   3.466   6.411   4.403  0.1104  0.0420  0.2740
 4206SOL    HW216590   3.428   6.499   4.402  1.1225  0.5757  2.6782
 4206SOL    HW316591   3.545   6.420   4.456  0.6052 -2.1987 -0.0028
 4206SOL    MW416592   3.471   6.424   4.410  0.3092 -0.1832  0.5547
 4207SOL     OW16593   0.727   3.142   2.647  0.0193  0.2088  0.4475
 4207SOL    HW216594   0.705   3.073   2.710 -2.1504  1.2177  0.8842
 4207SOL    HW316595   0.643   3.185   2.629  0.7044  0.5643 -2.4414
 4207SOL    MW416596   0.713   3.138   2.653 -0.1765  0.3888  0.1240
 4208SOL     OW16597   0.138   0.019   1.538 -0.2469  0.2449 -0.5320
 4208SOL    HW216598   0.154   0.108   1.506  0.8121  0.2209 -0.1134
 4208SOL    HW316599   0.192  -0.036   1.482 -0.5913 -0.0862 -0.5346
 4208SOL    MW416600   0.148   0.024   1.527 -0.1526  0.1981 -0.4771
 4209SOL     OW16601   3.335   5.478   5.006  0.3355 -0.2599  0.8953
 4209SOL    HW216602   3.337   5.396   4.958  1.6334 -0.0321  0.5091
 4209SOL    HW316603   3.299   5.542   4.944 -0.0464 -0.4008  0.9710
 4209SOL    MW416604   3.330   5.476   4.991  0.4563 -0.2485  0.8543
 4210SOL     OW16605   2.152   1.236   3.325  0.4188 -0.4493  0.1910
 4210SOL    HW216606   2.220   1.266   3.386 -0.3543  0.4302  0.6542
 4210SOL    HW316607   2.082   1.301   3.334  0.1836 -0.4381 -1.4707
 4210SOL    MW416608   2.151   1.248   3.335  0.2857 -0.3318  0.0329
 4211SOL     OW16609   5.848   3.856   1.727  0.3065 -0.1564  0.2609
 4211SOL    HW216610   5.884   3.893   1.807 -0.6135  1.6416 -0.0972
 4211SOL    HW316611   5.915   3.795   1.696  1.0085 -0.3022  1.9691
 4211SOL    MW416612   5.861   3.853   1.733  0.2777  0.0616  0.4390
 4212SOL     OW16613   2.579   5.023   1.463  0.0207 -0.4162 -0.3931
 4212SOL    HW216614   2.500   5.075   1.446  0.6336  0.4249 -0.7601
 4212SOL    HW316615   2.555   4.965   1.535 -1.2920 -0.9888 -1.2669
 4212SOL    MW416616   2.566   5.022   1.470 -0.0716 -0.3808 -0.5568
 4213SOL     OW16617   0.662   3.590   4.584  0.0689  0.3306  0.7219
 4213SOL    HW216618   0.629   3.637   4.507 -0.8675  0.2933  1.0893
 4213SOL    HW316619   0.747   3.556   4.556 -0.7776 -0.7242 -0.7288
 4213SOL    MW416620   0.669   3.591   4.570 -0.1664  0.1865  0.5790
 4214SOL     OW16621   2.950   2.626   4.460 -0.2348 -0.2762 -0.0291
 4214SOL    HW216622   2.884   2.695   4.450 -0.6388 -0.2735  2.0986
 4214SOL    HW316623   2.944   2.601   4.552  1.5455 -1.5217 -0.2029
 4214SOL    MW416624   2.940   2.632   4.471 -0.0532 -0.4402  0.2287
 4215SOL     OW16625   0.177   4.008   1.060 -0.0643  0.3048  0.3641
 4215SOL    HW216626   0.082   4.002   1.062 -0.1134  1.0006  0.3617
 4215SOL    HW316627   0.199   4.072   1.129  0.3517  0.5957 -0.0276
 4215SOL    MW416628   0.167   4.016   1.069 -0.0159  0.4349  0.3121
 4216SOL     OW16629   1.571   3.503   6.106  0.4684  0.5945  0.0673
 4216SOL    HW216630   1.560   3.561   6.031  0.3646 -0.6232 -0.9065
 4216SOL    HW316631   1.666   3.500   6.120  0.4675  1.0595  0.1788
 4216SOL    MW416632   1.582   3.510   6.098  0.4546  0.4952 -0.0464
 4217SOL     OW16633   5.453   1.295   5.885  0.6612  0.4915 -0.3549
 4217SOL    HW216634   5.472   1.203   5.905  0.7130  0.6738  0.4567
 4217SOL    HW316635   5.368   1.292   5.840 -1.2523  0.3177  2.9630
 4217SOL    MW416636   5.444   1.283   5.881  0.4156  0.4926  0.1899
 4218SOL     OW16637   2.684   3.828   5.037  0.1478  0.2613 -0.9053
 4218SOL    HW216638   2.691   3.922   5.057  2.1845  0.2387 -1.2261
 4218SOL    HW316639   2.721   3.785   5.114 -0.7258 -0.2897 -0.7831
 4218SOL    MW416640   2.690   3.835   5.050  0.3013  0.1856 -0.9315
 4219SOL     OW16641   0.323   5.460   5.503 -0.2326 -0.0050 -0.6640
 4219SOL    HW216642   0.258   5.525   5.531  1.0712  1.3583 -0.7165
 4219SOL    HW316643   0.370   5.502   5.431  1.8649 -0.2427  0.4915
 4219SOL    MW416644   0.320   5.474   5.497  0.2162  0.1435 -0.5185
 4220SOL     OW16645   4.547   0.965   3.563 -0.4596  0.0923 -0.3732
 4220SOL    HW216646   4.624   1.021   3.553  0.3275 -1.1925 -2.0513
 4220SOL    HW316647   4.561   0.921   3.647  0.2925  0.3978 -0.3247
 4220SOL    MW416648   4.559   0.967   3.573 -0.2565 -0.0369 -0.5882
 4221SOL     OW16649   0.422   3.301   1.262 -0.3457  0.6339 -0.0774
 4221SOL    HW216650   0.346   3.309   1.320 -1.6553 -1.6870 -1.2950
 4221SOL    HW316651   0.483   3.245   1.309  0.1500  1.6103  0.4577
 4221SOL    MW416652   0.420   3.295   1.276 -0.4531  0.4565 -0.1675
 4222SOL     OW16653   0.747   5.661   1.802  0.0829  0.5591  0.0912
 4222SOL    HW216654   0.798   5.738   1.826 -0.5788  0.9891  0.1506
 4222SOL    HW316655   0.695   5.689   1.726 -1.1381  0.6028  0.9125
 4222SOL    MW416656   0.747   5.675   1.795 -0.1655  0.6216  0.2074
 4223SOL     OW16657   1.209   2.661   1.191  0.1178  0.4679  0.3904
 4223SOL    HW216658   1.212   2.599   1.118  0.0884  0.3485  0.4922
 4223SOL    HW316659   1.300   2.666   1.222  0.3515  1.3876 -0.3920
 4223SOL    MW416660   1.222   2.654   1.185  0.1447  0.5735  0.3006
 4224SOL     OW16661   3.034   4.554   4.728  0.3714  0.0409 -0.2373
 4224SOL    HW216662   3.096   4.486   4.703  0.8880  1.7408 -4.4351
 4224SOL    HW316663   3.087   4.620   4.772  0.6514 -0.3971  0.0955
 4224SOL    MW416664   3.049   4.554   4.731  0.4765  0.2074 -0.7473
 4225SOL     OW16665   0.032   1.566   1.023 -0.0895  1.1116 -0.5691
 4225SOL    HW216666   0.054   1.516   0.944 -0.9883  0.2957 -0.3151
 4225SOL    HW316667   0.021   1.656   0.991 -1.7438  0.5808 -1.6338
 4225SOL    MW416668   0.033   1.571   1.008 -0.4264  0.9339 -0.6761
 4226SOL     OW16669   2.484   1.836   1.857  0.1228  0.0702 -0.3074
 4226SOL    HW216670   2.452   1.746   1.860  1.6936 -0.5465 -0.9632
 4226SOL    HW316671   2.455   1.874   1.940 -0.7220 -0.9681 -0.0941
 4226SOL    MW416672   2.476   1.829   1.868  0.2186 -0.1482 -0.3657
 4227SOL     OW16673   2.112   2.126   4.074  0.7502 -0.5579 -0.4311
 4227SOL    HW216674   2.180   2.178   4.116 -0.8430  2.0437 -0.8338
 4227SOL    HW316675   2.032   2.179   4.083 -0.6809 -2.2386 -2.2543
 4227SOL    MW416676   2.110   2.140   4.080  0.3512 -0.4364 -0.7248
 4228SOL     OW16677   4.483   3.338   3.961 -0.0123 -0.2007 -0.0423
 4228SOL    HW216678   4.395   3.309   3.937 -0.6195  3.2204 -2.7631
 4228SOL    HW316679   4.470   3.420   4.009  1.6887 -0.1825  0.4760
 4228SOL    MW416680   4.470   3.345   3.964  0.1320  0.2531 -0.3329
 4229SOL     OW16681   1.906   6.134   5.371  0.1675 -0.1075 -0.3796
 4229SOL    HW216682   1.843   6.064   5.354 -0.8216  0.5727  0.3864
 4229SOL    HW316683   1.868   6.183   5.444  1.4347  0.5114 -0.1096
 4229SOL    MW416684   1.893   6.131   5.379  0.2042  0.0639 -0.2429
 4230SOL     OW16685   5.533   3.080   1.471 -0.3882  0.4737  0.3943
 4230SOL    HW216686   5.453   3.095   1.520 -0.7445 -0.6531  0.1856
 4230SOL    HW316687   5.597   3.140   1.509 -0.9253  0.3268  1.5452
 4230SOL    MW416688   5.531   3.090   1.482 -0.5061  0.3056  0.5186
 4231SOL     OW16689   4.423   6.310   0.968  0.4900  0.1613 -0.4300
 4231SOL    HW216690   4.369   6.381   0.933  0.0131  0.1177  0.1989
 4231SOL    HW316691   4.361   6.254   1.015  1.1701  0.5400  0.9822
 4231SOL    MW416692   4.408   6.312   0.970  0.5168  0.2055 -0.1607
 4232SOL     OW16693   5.770   3.491   2.860  0.2746  0.1223  0.1989
 4232SOL    HW216694   5.821   3.472   2.781 -0.1816  0.5508 -0.2103
 4232SOL    HW316695   5.804   3.575   2.891  1.8147 -0.9746  1.6059
 4232SOL    MW416696   5.781   3.500   2.854  0.4176  0.0341  0.3306
 4233SOL     OW16697   3.905   0.317   6.065 -0.3504  0.1733 -0.4074
 4233SOL    HW216698   3.867   0.287   6.147  0.8569 -0.3710 -0.0137
 4233SOL    HW316699   3.837   0.370   6.024 -0.0675  2.7093  2.1658
 4233SOL    MW416700   3.891   0.320   6.070 -0.1538  0.4360 -0.0160
 4234SOL     OW16701   0.643   5.731   2.078  0.6905 -0.1569 -0.0217
 4234SOL    HW216702   0.687   5.684   2.007  0.0033 -0.5486 -0.1980
 4234SOL    HW316703   0.713   5.749   2.141  0.8889 -1.9387  0.3243
 4234SOL    MW416704   0.658   5.727   2.077  0.6260 -0.4436  0.0007
 4235SOL     OW16705   6.246   6.164   5.092  0.2920  0.1712  0.2611
 4235SOL    HW216706   6.200   6.088   5.055 -0.2992  0.7583 -0.2321
 4235SOL    HW316707   6.315   6.183   5.029 -0.0824  0.5471 -0.0444
 4235SOL    MW416708   6.249   6.156   5.078  0.1646  0.2983  0.1557
 4236SOL     OW16709   3.038   3.424   2.664  0.0421 -0.4417 -0.7389
 4236SOL    HW216710   2.988   3.476   2.726  2.2752  0.9336 -0.0122
 4236SOL    HW316711   3.020   3.464   2.579 -2.9310 -2.2613 -1.1138
 4236SOL    MW416712   3.029   3.436   2.661 -0.0555 -0.5003 -0.6925
 4237SOL     OW16713   4.930   3.474   2.571 -0.2217  0.1820 -0.4209
 4237SOL    HW216714   4.901   3.386   2.550  0.8022 -0.1006 -0.7039
 4237SOL    HW316715   4.852   3.518   2.605 -0.7138 -0.8592 -0.1758
 4237SOL    MW416716   4.916   3.469   2.573 -0.1515  0.0073 -0.4259
 4238SOL     OW16717   0.905   1.229   1.085 -0.2904  0.0886 -0.5797
 4238SOL    HW216718   0.848   1.205   1.012 -0.6390  0.1120 -0.3186
 4238SOL    HW316719   0.964   1.295   1.049  0.1042 -0.5189 -1.0680
 4238SOL    MW416720   0.906   1.234   1.071 -0.2844  0.0115 -0.6097
 4239SOL     OW16721   4.974   6.090   0.690 -0.1247  1.0477  0.0113
 4239SOL    HW216722   4.883   6.067   0.673  0.6372 -1.3735 -1.2969
 4239SOL    HW316723   5.004   6.024   0.753  0.5087  2.3682  1.1431
 4239SOL    MW416724   4.966   6.078   0.696  0.0594  0.9025 -0.0119
 4240SOL     OW16725   6.423   3.445   3.905 -0.5840 -0.2451 -0.7021
 4240SOL    HW216726   6.386   3.533   3.911  1.2359  0.4506  1.5759
 4240SOL    HW316727   6.377   3.395   3.972  1.1857  0.1389  0.8735
 4240SOL    MW416728   6.412   3.450   3.915 -0.1104 -0.1026 -0.1937
 4241SOL     OW16729   2.394   6.352   5.730 -0.5098  0.0288 -0.2876
 4241SOL    HW216730   2.347   6.312   5.657 -1.4707  1.6198 -0.5952
 4241SOL    HW316731   2.486   6.340   5.709 -0.7589 -1.4382 -0.6531
 4241SOL    MW416732   2.400   6.345   5.717 -0.6694  0.0452 -0.3764
 4242SOL     OW16733   5.244   2.474   1.497 -0.0483 -0.1786 -1.3532
 4242SOL    HW216734   5.181   2.527   1.547 -1.8352 -3.0623 -0.2953
 4242SOL    HW316735   5.252   2.520   1.413  0.7546  3.2231  0.4048
 4242SOL    MW416736   5.237   2.487   1.492 -0.1781 -0.1103 -0.9817
 4243SOL     OW16737   4.445   2.105   0.392  0.2767  0.6790  0.0214
 4243SOL    HW216738   4.462   2.199   0.403  1.8156  0.3114  1.2323
 4243SOL    HW316739   4.384   2.083   0.462 -0.7633  0.9075 -0.7865
 4243SOL    MW416740   4.439   2.114   0.403  0.3425  0.6606  0.0746
 4244SOL     OW16741   0.387   2.028   1.803  0.0232  0.1604  0.7100
 4244SOL    HW216742   0.400   2.082   1.881  1.3775 -1.6194  1.7900
 4244SOL    HW316743   0.335   1.954   1.834 -0.4366  0.0077 -0.3805
 4244SOL    MW416744   0.382   2.025   1.818  0.1412 -0.0946  0.7086
 4245SOL     OW16745   6.077   1.452   1.755 -0.1200  0.1146 -0.3747
 4245SOL    HW216746   6.122   1.484   1.833  0.3110  1.7893 -1.2607
 4245SOL    HW316747   6.145   1.410   1.702  0.1532  1.3382 -1.0355
 4245SOL    MW416748   6.092   1.450   1.758 -0.0271  0.4970 -0.5788
 4246SOL     OW16749   0.038   4.378   0.787 -0.1961  0.1709  0.3707
 4246SOL    HW216750   0.122   4.332   0.784 -0.6684 -1.0613  2.9594
 4246SOL    HW316751  -0.016   4.325   0.846 -1.4255  3.0467  2.0569
 4246SOL    MW416752   0.042   4.365   0.795 -0.4206  0.3877  0.9348
 4247SOL     OW16753   3.705   4.643   2.784  0.4606 -0.2437 -0.2120
 4247SOL    HW216754   3.655   4.647   2.866  0.2621  1.5695 -0.3736
 4247SOL    HW316755   3.732   4.552   2.777 -1.5540 -0.9681  0.6414
 4247SOL    MW416756   3.702   4.632   2.794  0.1686 -0.1001 -0.1207
 4248SOL     OW16757   2.790   1.414   1.242 -0.3180  0.7204  0.1012
 4248SOL    HW216758   2.853   1.371   1.184  0.3497  0.6926  0.8417
 4248SOL    HW316759   2.724   1.449   1.183 -0.1965 -0.2013 -0.6126
 4248SOL    MW416760   2.789   1.413   1.227 -0.2139  0.5951  0.1047
 4249SOL     OW16761   5.789   5.613   3.927  0.5107 -0.1284 -0.4179
 4249SOL    HW216762   5.861   5.648   3.980 -0.5934  1.3906  0.1678
 4249SOL    HW316763   5.756   5.539   3.978  2.2011 -1.4330 -1.1383
 4249SOL    MW416764   5.794   5.608   3.941  0.5881 -0.1001 -0.4357
 4250SOL     OW16765   4.765   4.479   1.500  0.2856 -0.4975  0.3234
 4250SOL    HW216766   4.806   4.520   1.423  1.2954  1.0297  1.5984
 4250SOL    HW316767   4.696   4.423   1.464  0.0898  0.9022 -1.6450
 4250SOL    MW416768   4.761   4.477   1.485  0.3930 -0.1113  0.2319
 4251SOL     OW16769   5.206   4.168   2.963  0.5759 -0.1377 -0.1933
 4251SOL    HW216770   5.123   4.212   2.946  1.0700  0.2383 -1.7347
 4251SOL    HW316771   5.183   4.075   2.970 -0.0718  0.0430  0.1766
 4251SOL    MW416772   5.192   4.161   2.962  0.5556 -0.0643 -0.3479
 4252SOL     OW16773   2.070   5.773   0.101 -0.2243  0.2449  0.8370
 4252SOL    HW216774   2.086   5.747   0.192  1.5159 -1.2105  0.1879
 4252SOL    HW316775   2.064   5.690   0.054  0.4208  0.9831 -0.5927
 4252SOL    MW416776   2.071   5.758   0.107  0.0904  0.1503  0.5628
 4253SOL     OW16777   2.171   5.318   3.618  0.0793  0.1006 -0.0072
 4253SOL    HW216778   2.079   5.294   3.604 -0.1525  0.9904 -0.1127
 4253SOL    HW316779   2.167   5.383   3.689  0.7379 -0.6302  0.7162
 4253SOL    MW416780   2.158   5.324   3.626  0.1356  0.1216  0.0743
 4254SOL     OW16781   2.820   4.524   1.793 -0.1592 -0.0490 -0.2475
 4254SOL    HW216782   2.813   4.431   1.771 -1.0000  0.3130 -1.6709
 4254SOL    HW316783   2.911   4.546   1.774 -0.5146 -0.0802 -2.1743
 4254SOL    MW416784   2.831   4.514   1.788 -0.3170 -0.0054 -0.6895
 4255SOL     OW16785   2.560   5.920   4.513 -0.3411 -0.8562 -0.6985
 4255SOL    HW216786   2.619   5.966   4.572 -1.2921  0.5445 -0.7910
 4255SOL    HW316787   2.597   5.934   4.426 -0.2982 -0.7707 -0.6666
 4255SOL    MW416788   2.572   5.928   4.509 -0.4609 -0.6601 -0.7065
 4256SOL     OW16789   2.782   1.846   5.935  0.1563 -0.7277 -0.0733
 4256SOL    HW216790   2.814   1.805   5.855  0.6237  0.0182 -0.2843
 4256SOL    HW316791   2.853   1.836   5.998  1.2547  1.6567 -0.7884
 4256SOL    MW416792   2.795   1.839   5.933  0.3629 -0.3147 -0.1955
 4257SOL     OW16793   0.442   1.531   5.628 -0.3306  0.1410  0.5210
 4257SOL    HW216794   0.477   1.545   5.716 -0.3386  1.3269  0.3562
 4257SOL    HW316795   0.425   1.619   5.595 -3.4354 -0.3198  0.5622
 4257SOL    MW416796   0.445   1.545   5.635 -0.7413  0.2367  0.5047
 4258SOL     OW16797   5.473   4.987   3.705 -0.0530 -0.2996 -0.1422
 4258SOL    HW216798   5.467   4.891   3.698 -1.5266 -0.2597  0.1954
 4258SOL    HW316799   5.558   5.003   3.746 -0.3486 -1.5371  1.0297
 4258SOL    MW416800   5.484   4.976   3.709 -0.2864 -0.4576  0.0570
 4259SOL     OW16801   2.155   0.321   5.172 -0.3481 -0.2101  0.2252
 4259SOL    HW216802   2.117   0.233   5.170 -0.4304 -0.1619 -0.5071
 4259SOL    HW316803   2.089   0.375   5.215 -0.5858 -0.3702  0.0619
 4259SOL    MW416804   2.141   0.317   5.177 -0.3903 -0.2249  0.1071
 4260SOL     OW16805   2.440   4.549   6.273  0.4948  0.2876 -0.8501
 4260SOL    HW216806   2.524   4.503   6.282  0.0158 -0.3428  0.7205
 4260SOL    HW316807   2.376   4.489   6.312 -0.6858  0.7932 -1.9486
 4260SOL    MW416808   2.443   4.535   6.279  0.2759  0.2712 -0.7878
 4261SOL     OW16809   0.433   3.303   4.038  0.0923  0.5135  0.2336
 4261SOL    HW216810   0.496   3.376   4.041  0.8696 -0.0763 -0.9102
 4261SOL    HW316811   0.477   3.236   3.986 -1.4844  0.0713 -0.5845
 4261SOL    MW416812   0.447   3.304   4.032 -0.0132  0.3773 -0.0253
 4262SOL     OW16813   4.149   0.214   5.491 -0.6547  0.0151  0.3791
 4262SOL    HW216814   4.109   0.202   5.577 -2.2273  0.0604 -0.3051
 4262SOL    HW316815   4.141   0.308   5.474 -2.4697 -0.2974 -0.7520
 4262SOL    MW416816   4.142   0.225   5.500 -1.1017 -0.0202  0.1396
 4263SOL     OW16817   3.448   3.645   1.388  1.0710 -0.0164  0.2407
 4263SOL    HW216818   3.459   3.740   1.385  1.3939 -0.0755 -0.9736
 4263SOL    HW316819   3.522   3.614   1.440  0.2261  0.4831  1.7934
 4263SOL    MW416820   3.459   3.653   1.395  1.0022  0.0417  0.2854
 4264SOL     OW16821   3.027   4.330   4.359  0.5829 -0.1906 -0.2364
 4264SOL    HW216822   3.052   4.251   4.311  0.0909 -1.5105  1.5342
 4264SOL    HW316823   3.057   4.313   4.449 -1.5119  0.6500  0.6837
 4264SOL    MW416824   3.035   4.317   4.365  0.2416 -0.2538  0.1186
 4265SOL     OW16825   4.588   1.899   0.854  0.0305 -0.0962  0.4795
 4265SOL    HW216826   4.569   1.992   0.840  1.0268 -0.1132 -1.4006
 4265SOL    HW316827   4.658   1.879   0.791 -0.2612 -2.1626  0.7223
 4265SOL    MW416828   4.595   1.908   0.843  0.1234 -0.3711  0.2635
 4266SOL     OW16829   6.221   6.103   3.398 -0.4054  0.0481 -0.2944
 4266SOL    HW216830   6.202   6.177   3.456  0.6540 -1.2672  1.8181
 4266SOL    HW316831   6.171   6.030   3.434 -0.1992 -0.6684 -1.4119
 4266SOL    MW416832   6.212   6.103   3.410 -0.2384 -0.2200 -0.1631
 4267SOL     OW16833   0.419   1.098   4.004  0.5874  0.0874 -0.8176
 4267SOL    HW216834   0.404   1.081   4.096 -0.2143 -0.2311 -1.0047
 4267SOL    HW316835   0.391   1.018   3.959 -0.1044  0.6650 -1.4281
 4267SOL    MW416836   0.414   1.085   4.010  0.3904  0.1216 -0.9228
 4268SOL     OW16837   5.589   0.901   0.133  0.1232 -0.4423 -0.3565
 4268SOL    HW216838   5.632   0.885   0.217 -0.1923 -0.0057 -0.1112
 4268SOL    HW316839   5.497   0.916   0.155 -0.1369 -1.2147 -0.8666
 4268SOL    MW416840   5.583   0.901   0.147  0.0473 -0.4866 -0.3915
 4269SOL     OW16841   1.897   3.285   4.712  0.2452  0.4511  1.1696
 4269SOL    HW216842   1.984   3.247   4.721 -0.5018 -1.8935 -0.7628
 4269SOL    HW316843   1.906   3.351   4.643  0.0601 -1.4628 -0.7550
 4269SOL    MW416844   1.910   3.289   4.704  0.1222 -0.1108  0.6607
 4270SOL     OW16845   4.768   0.933   3.065  0.4867 -0.9389  0.4098
 4270SOL    HW216846   4.706   0.968   3.000  0.6301 -0.4009  0.5601
 4270SOL    HW316847   4.715   0.917   3.143  0.4566 -0.8678  0.4040
 4270SOL    MW416848   4.753   0.936   3.067  0.5017 -0.8586  0.4288
 4271SOL     OW16849   4.035   5.963   1.137 -0.3170 -0.0194  0.1033
 4271SOL    HW216850   4.079   6.048   1.141 -0.1991 -0.1277  1.4908
 4271SOL    HW316851   3.942   5.984   1.142 -0.3155  0.0554 -0.1547
 4271SOL    MW416852   4.029   5.977   1.138 -0.3013 -0.0238  0.2523
 4272SOL     OW16853   6.124   4.365   5.855 -0.2953  0.3210  0.4976
 4272SOL    HW216854   6.063   4.342   5.785 -1.8335  0.8452  1.6199
 4272SOL    HW316855   6.193   4.298   5.850 -2.1203 -1.6720  0.6159
 4272SOL    MW416856   6.125   4.353   5.845 -0.7390  0.1272  0.6613
 4273SOL     OW16857   2.360   0.736   5.555 -0.0457 -0.1116 -0.1537
 4273SOL    HW216858   2.328   0.714   5.642  1.1821  0.2740  0.4183
 4273SOL    HW316859   2.447   0.773   5.570 -0.3694  1.2808 -1.4171
 4273SOL    MW416860   2.367   0.738   5.568  0.0736  0.1230 -0.2449
 4274SOL     OW16861   5.871   5.700   3.454  0.4303 -0.0582  0.3152
 4274SOL    HW216862   5.843   5.792   3.449  0.2918 -0.0864  0.5454
 4274SOL    HW316863   5.901   5.689   3.544  0.2971 -0.2814  0.3331
 4274SOL    MW416864   5.871   5.711   3.465  0.3945 -0.0914  0.3479
 4275SOL     OW16865   4.946   5.569   4.161 -0.0715 -0.4077 -0.7337
 4275SOL    HW216866   4.870   5.566   4.104 -0.3358 -0.9576 -0.3628
 4275SOL    HW316867   4.916   5.620   4.237 -0.0327 -0.5222 -0.6418
 4275SOL    MW416868   4.932   5.575   4.164 -0.1012 -0.4953 -0.6726
 4276SOL     OW16869   4.766   3.425   3.841  0.1552  0.7286 -0.6753
 4276SOL    HW216870   4.712   3.352   3.873  0.9940  0.2299 -0.3603
 4276SOL    HW316871   4.703   3.484   3.799 -0.5260 -0.2630 -1.1155
 4276SOL    MW416872   4.750   3.423   3.839  0.1760  0.5320 -0.6918
 4277SOL     OW16873   1.419   1.232   3.160  0.0622 -0.2823 -0.4760
 4277SOL    HW216874   1.490   1.169   3.145 -0.4583 -1.1035  0.3890
 4277SOL    HW316875   1.451   1.287   3.231 -0.2275 -0.7861  0.0588
 4277SOL    MW416876   1.433   1.231   3.168 -0.0447 -0.4571 -0.2913
 4278SOL     OW16877   2.030   3.302   2.129  0.0149  0.2355  0.6413
 4278SOL    HW216878   2.034   3.260   2.215 -0.6976 -0.2898  0.4254
 4278SOL    HW316879   2.118   3.336   2.116  0.2295  0.0166  1.4293
 4278SOL    MW416880   2.042   3.301   2.139 -0.0508  0.1373  0.7168
 4279SOL     OW16881   3.137   1.970   5.042 -0.0708 -0.3550  0.2212
 4279SOL    HW216882   3.158   1.882   5.012  0.2106 -0.1268 -0.2496
 4279SOL    HW316883   3.220   2.007   5.070 -0.0116  0.1311 -0.5574
 4279SOL    MW416884   3.151   1.963   5.042 -0.0258 -0.2608  0.0563
 4280SOL     OW16885   1.352   5.884   5.078  0.0981  0.0604  0.4511
 4280SOL    HW216886   1.361   5.961   5.134 -0.4887 -0.4319  1.2344
 4280SOL    HW316887   1.442   5.860   5.055  0.3080  0.6555  0.6329
 4280SOL    MW416888   1.365   5.891   5.082  0.0484  0.0740  0.5784
 4281SOL     OW16889   4.582   3.363   3.053  0.3577 -0.2128  0.6642
 4281SOL    HW216890   4.568   3.291   2.992  0.5642 -0.4937  0.9470
 4281SOL    HW316891   4.513   3.426   3.032  0.2395 -0.4473  0.3498
 4281SOL    MW416892   4.571   3.362   3.042  0.3693 -0.2808  0.6600
 4282SOL     OW16893   1.753   3.666   0.325 -0.1811 -0.0870  0.1832
 4282SOL    HW216894   1.834   3.716   0.327  0.6263 -1.2358 -1.3304
 4282SOL    HW316895   1.776   3.581   0.361 -1.2831  0.2556  1.7767
 4282SOL    MW416896   1.766   3.661   0.330 -0.2199 -0.1934  0.1937
 4283SOL     OW16897   3.318   4.759   5.296  0.1487  0.2794  0.2612
 4283SOL    HW216898   3.254   4.688   5.289 -0.8776  1.2818 -0.8398
 4283SOL    HW316899   3.401   4.713   5.314 -0.3156 -1.3057 -1.2600
 4283SOL    MW416900   3.321   4.743   5.297 -0.0480  0.2025 -0.0848
 4284SOL     OW16901   1.586   5.536   2.270 -0.7998  0.2842 -0.0993
 4284SOL    HW216902   1.525   5.608   2.289  0.2946  1.5602 -1.2359
 4284SOL    HW316903   1.599   5.540   2.176  1.0585  0.0623  0.1086
 4284SOL    MW416904   1.579   5.546   2.260 -0.4102  0.4233 -0.2218
 4285SOL     OW16905   5.925   6.005   3.065 -0.6437 -0.7485 -0.4629
 4285SOL    HW216906   5.975   5.968   2.992 -1.4048 -0.9777 -0.8823
 4285SOL    HW316907   5.837   5.969   3.054 -0.6215 -1.2915  0.9478
 4285SOL    MW416908   5.920   5.995   3.054 -0.7412 -0.8504 -0.3321
 4286SOL     OW16909   1.405   5.892   3.619 -0.0081  0.0313  0.1239
 4286SOL    HW216910   1.474   5.939   3.572  0.6273 -0.8081  0.1978
 4286SOL    HW316911   1.402   5.806   3.578 -1.1043  0.0867  0.0467
 4286SOL    MW416912   1.414   5.887   3.607 -0.0689 -0.0721  0.1235
 4287SOL     OW16913   0.248   2.815   6.267 -0.1153  0.0375  0.0527
 4287SOL    HW216914   0.192   2.757   6.317  0.2025  1.5075  2.2341
 4287SOL    HW316915   0.337   2.795   6.297  0.0881  0.9416  0.0842
 4287SOL    MW416916   0.252   2.805   6.277 -0.0465  0.3508  0.3447
 4288SOL     OW16917   6.195   1.052   6.331  0.0130  0.3342  0.1858
 4288SOL    HW216918   6.242   0.994   6.390  2.1377  0.3046 -1.4235
 4288SOL    HW316919   6.201   1.138   6.372 -0.0067  0.0305  0.8308
 4288SOL    MW416920   6.202   1.056   6.344  0.2907  0.2902  0.0586
 4289SOL     OW16921   3.328   0.964   4.134  0.1699 -0.5388  0.3164
 4289SOL    HW216922   3.251   0.991   4.083 -1.5166 -0.5654  2.6793
 4289SOL    HW316923   3.323   0.869   4.137  0.3720 -0.5482  0.3819
 4289SOL    MW416924   3.317   0.955   4.128 -0.0259 -0.5436  0.6368
 4290SOL     OW16925   3.788   0.635   1.418 -0.8614 -0.3861 -0.2075
 4290SOL    HW216926   3.701   0.597   1.410 -1.4800  1.2254 -2.0135
 4290SOL    HW316927   3.835   0.605   1.340  0.1229 -1.0117  0.6071
 4290SOL    MW416928   3.782   0.626   1.406 -0.8132 -0.2560 -0.3383
 4291SOL     OW16929   6.327   1.261   1.725  0.3260 -0.1830 -0.2183
 4291SOL    HW216930   6.362   1.271   1.637 -1.8032  0.2421 -1.0778
 4291SOL    HW316931   6.277   1.180   1.722 -1.6431  0.9776 -0.1200
 4291SOL    MW416932   6.325   1.252   1.713 -0.2147  0.0262 -0.3187
 4292SOL     OW16933   1.799   4.875   6.080  0.2277 -0.1406 -0.5806
 4292SOL    HW216934   1.803   4.839   5.991  1.2029  0.0224 -0.6181
 4292SOL    HW316935   1.870   4.831   6.127 -0.7592 -0.7993  0.3546
 4292SOL    MW416936   1.809   4.864   6.074  0.2261 -0.2060 -0.4621
 4293SOL     OW16937   4.406   3.927   3.862 -0.2527 -0.1118 -0.4452
 4293SOL    HW216938   4.459   3.880   3.925 -1.5744 -2.5424 -1.0204
 4293SOL    HW316939   4.461   4.000   3.833  1.3829 -0.5170  1.4786
 4293SOL    MW416940   4.420   3.931   3.866 -0.2113 -0.4859 -0.2672
 4294SOL     OW16941   6.266   4.905   5.838 -0.0634  0.2756 -0.2895
 4294SOL    HW216942   6.291   4.954   5.760 -0.4455  0.3535 -0.3654
 4294SOL    HW316943   6.253   4.815   5.807  2.5499 -0.3461  0.1911
 4294SOL    MW416944   6.267   4.899   5.824  0.2310  0.2039 -0.2361
 4295SOL     OW16945   4.680   2.358   1.739 -0.0570 -0.0245  0.4185
 4295SOL    HW216946   4.744   2.287   1.745 -0.1772 -0.3387 -1.4763
 4295SOL    HW316947   4.705   2.406   1.660 -0.7317  1.3162  0.9857
 4295SOL    MW416948   4.692   2.355   1.729 -0.1618  0.1109  0.2433
 4296SOL     OW16949   4.946   0.739   5.157 -0.4455  0.3578 -0.3283
 4296SOL    HW216950   4.890   0.775   5.088 -1.8709 -3.2635 -1.2463
 4296SOL    HW316951   5.035   0.760   5.129 -1.0957  0.8866 -2.0953
 4296SOL    MW416952   4.950   0.747   5.144 -0.7194 -0.0502 -0.6826
 4297SOL     OW16953   3.118   4.984   2.167  0.5935  0.1436 -0.0528
 4297SOL    HW216954   3.175   5.053   2.134  0.8442  0.2127  0.5013
 4297SOL    HW316955   3.161   4.955   2.248  0.8341 -1.0986 -0.5959
 4297SOL    MW416956   3.131   4.989   2.173  0.6583 -0.0112 -0.0514
 4298SOL     OW16957   2.235   4.277   4.346  0.5556  0.1772  0.1514
 4298SOL    HW216958   2.187   4.358   4.356  0.5867  0.0439  1.5653
 4298SOL    HW316959   2.169   4.208   4.355  0.3938  0.0189 -1.8284
 4298SOL    MW416960   2.220   4.278   4.348  0.5383  0.1388  0.0768
 4299SOL     OW16961   5.283   0.815   1.103  0.1025  0.9086  0.2670
 4299SOL    HW216962   5.277   0.837   1.196 -0.2752  0.1408  0.4368
 4299SOL    HW316963   5.285   0.719   1.101  1.7139  0.9244 -0.4381
 4299SOL    MW416964   5.282   0.805   1.115  0.2653  0.8094  0.1964
 4300SOL     OW16965   2.566   1.514   3.920  0.0224 -0.0359  0.1683
 4300SOL    HW216966   2.561   1.519   4.015 -2.0593 -0.7301  0.1429
 4300SOL    HW316967   2.628   1.584   3.896 -1.2050  1.7659  1.8888
 4300SOL    MW416968   2.574   1.524   3.929 -0.4142  0.1102  0.3919
 4301SOL     OW16969   5.318   5.095   5.818  0.3034  0.4085  0.0303
 4301SOL    HW216970   5.310   5.110   5.912  0.6159 -0.0466  0.1353
 4301SOL    HW316971   5.405   5.057   5.807  0.6124  1.2700 -0.5510
 4301SOL    MW416972   5.328   5.092   5.829  0.3854  0.4621 -0.0325
 4302SOL     OW16973   1.793   1.187   3.933  0.4499  0.0151 -0.0167
 4302SOL    HW216974   1.879   1.188   3.889  0.7509 -2.2601  0.4017
 4302SOL    HW316975   1.787   1.273   3.974  2.0285  0.6540 -1.0012
 4302SOL    MW416976   1.804   1.199   3.933  0.6979 -0.2008 -0.0914
 4303SOL     OW16977   2.421   4.465   5.610 -0.4962  0.9309 -0.1831
 4303SOL    HW216978   2.469   4.392   5.649 -0.5446  0.9509 -0.0847
 4303SOL    HW316979   2.439   4.539   5.668 -0.8547  0.8768 -0.0011
 4303SOL    MW416980   2.429   4.465   5.623 -0.5499  0.9264 -0.1461
 4304SOL     OW16981   4.891   0.630   6.162 -0.2480  0.4555 -0.6614
 4304SOL    HW216982   4.864   0.552   6.212 -1.1600  0.9953 -0.2934
 4304SOL    HW316983   4.944   0.680   6.224 -0.8494  0.8170 -0.4379
 4304SOL    MW416984   4.895   0.626   6.177 -0.4477  0.5744 -0.5834
 4305SOL     OW16985   5.973   2.134   1.750  0.2633 -0.3034  0.2524
 4305SOL    HW216986   5.934   2.116   1.836 -1.0261  0.1982 -0.2011
 4305SOL    HW316987   5.941   2.221   1.727  2.1408  0.3837  0.0810
 4305SOL    MW416988   5.964   2.143   1.758  0.3409 -0.1465  0.1700
 4306SOL     OW16989   2.328   0.760   2.174 -0.1936  0.1757 -0.3466
 4306SOL    HW216990   2.265   0.728   2.239 -0.0151 -1.0594 -0.7574
 4306SOL    HW316991   2.351   0.683   2.123  1.3855  0.6737 -0.4392
 4306SOL    MW416992   2.323   0.746   2.176  0.0383  0.0785 -0.4130
 4307SOL     OW16993   1.075   3.849   4.840 -0.6713  0.0317  0.0682
 4307SOL    HW216994   1.160   3.817   4.871 -0.5901  0.8213  0.7006
 4307SOL    HW316995   1.096   3.920   4.781 -0.8936  0.1535  0.1340
 4307SOL    MW416996   1.089   3.854   4.836 -0.6899  0.1520  0.1603
 4308SOL     OW16997   2.195   3.678   2.035 -0.0272 -0.6426 -0.1540
 4308SOL    HW216998   2.185   3.771   2.019 -0.4692 -0.8912 -1.4425
 4308SOL    HW316999   2.106   3.643   2.029  0.4083 -1.5216 -2.4476
 4308SOL    MW417000   2.182   3.685   2.032 -0.0281 -0.7914 -0.6266
 4309SOL     OW17001   4.520   4.677   6.354  0.1634 -0.5011  0.3679
 4309SOL    HW217002   4.558   4.597   6.390 -0.3287 -0.4571  1.0047
 4309SOL    HW317003   4.426   4.658   6.346 -0.2760  0.6176  2.2913
 4309SOL    MW417004   4.512   4.664   6.357  0.0405 -0.3477  0.7057
 4310SOL     OW17005   5.118   5.575   0.960 -0.0525  0.1798 -0.0659
 4310SOL    HW217006   5.113   5.654   1.014 -0.5674  0.0049  0.1528
 4310SOL    HW317007   5.131   5.504   1.022  2.2141  0.2494 -0.3835
 4310SOL    MW417008   5.119   5.576   0.975  0.1786  0.1659 -0.0789
 4311SOL     OW17009   0.509   2.380   1.683 -0.3479 -0.4398  0.1321
 4311SOL    HW217010   0.592   2.331   1.689 -0.4806 -1.3124 -3.1369
 4311SOL    HW317011   0.535   2.472   1.687  1.0159 -0.6683 -1.9307
 4311SOL    MW417012   0.524   2.385   1.684 -0.1855 -0.5851 -0.5714
 4312SOL     OW17013   4.233   2.860   2.956  0.1334 -0.1652 -0.2574
 4312SOL    HW217014   4.215   2.770   2.982  1.5610 -0.6379 -0.7835
 4312SOL    HW317015   4.207   2.913   3.031  1.4464 -1.2255  0.9869
 4312SOL    MW417016   4.227   2.856   2.969  0.4950 -0.3674 -0.1626
 4313SOL     OW17017   4.136   3.367   2.632 -0.5693  0.4207  0.3402
 4313SOL    HW217018   4.131   3.419   2.712 -2.7929 -1.2061  1.3565
 4313SOL    HW317019   4.085   3.289   2.651 -0.7785 -0.2430 -2.5267
 4313SOL    MW417020   4.129   3.364   2.645 -0.8903  0.1185  0.0961
 4314SOL     OW17021   0.113   6.375   2.455  0.1796  0.3406 -0.3464
 4314SOL    HW217022   0.194   6.417   2.486  0.0899  1.5265 -1.6300
 4314SOL    HW317023   0.094   6.309   2.522  0.6662  1.9415  1.4966
 4314SOL    MW417024   0.122   6.372   2.468  0.2320  0.7083 -0.2726
 4315SOL     OW17025   5.969   0.833   2.391  0.3072  0.1627 -0.1476
 4315SOL    HW217026   6.039   0.835   2.326  2.0952 -0.1665  1.6649
 4315SOL    HW317027   6.009   0.867   2.470 -1.8840  0.8185  0.7402
 4315SOL    MW417028   5.983   0.838   2.393  0.2540  0.2058  0.2087
 4316SOL     OW17029   3.008   2.038   6.375 -0.2141 -0.7907 -0.5338
 4316SOL    HW217030   2.954   1.959   6.377  0.1590 -1.0608 -1.0326
 4316SOL    HW317031   3.036   2.050   6.466  0.7321 -1.9306 -0.6653
 4316SOL    MW417032   3.004   2.029   6.388 -0.0400 -0.9767 -0.6170
 4317SOL     OW17033   0.675   5.670   0.816 -0.0644 -0.3499 -0.2104
 4317SOL    HW217034   0.598   5.713   0.779  0.2123  1.2948  0.9922
 4317SOL    HW317035   0.643   5.629   0.896  0.3109  0.4025  0.3315
 4317SOL    MW417036   0.660   5.670   0.822  0.0216 -0.0337  0.0197
 4318SOL     OW17037   6.042   3.437   1.784 -0.5105  0.2270  0.5830
 4318SOL    HW217038   5.958   3.463   1.746 -0.2314 -0.8954 -0.8876
 4318SOL    HW317039   6.023   3.353   1.827 -0.4157  0.6158  1.4048
 4318SOL    MW417040   6.028   3.429   1.784 -0.4611  0.1302  0.4974
 4319SOL     OW17041   4.138   0.463   0.445  0.3110  0.1199 -0.0891
 4319SOL    HW217042   4.054   0.420   0.464  0.0250  0.0976 -1.3411
 4319SOL    HW317043   4.199   0.423   0.506 -0.2827 -0.9411 -0.1675
 4319SOL    MW417044   4.135   0.452   0.456  0.1949 -0.0230 -0.2646
 4320SOL     OW17045   3.152   4.439   4.993  0.2279  0.1375  0.0750
 4320SOL    HW217046   3.101   4.445   5.074  0.3131 -0.8858  0.2219
 4320SOL    HW317047   3.143   4.348   4.966  2.6084 -0.3043  0.5275
 4320SOL    MW417048   3.144   4.428   5.001  0.5532 -0.0558  0.1541
 4321SOL     OW17049   3.778   0.812   3.943  0.0284 -0.1596  0.0565
 4321SOL    HW217050   3.737   0.726   3.930 -0.2586 -0.4625  2.3879
 4321SOL    HW317051   3.705   0.873   3.949  0.2754  0.5697 -3.0463
 4321SOL    MW417052   3.763   0.809   3.942  0.0231 -0.1033 -0.0453
 4322SOL     OW17053   5.261   2.895   3.553 -0.3736 -0.0291  0.1838
 4322SOL    HW217054   5.178   2.920   3.511 -0.6036  0.4209  0.8895
 4322SOL    HW317055   5.242   2.812   3.596  0.0935 -0.9325 -1.2536
 4322SOL    MW417056   5.247   2.888   3.553 -0.3423 -0.0889  0.0873
 4323SOL     OW17057   3.617   3.212   5.843 -0.2579  0.0733  0.3693
 4323SOL    HW217058   3.556   3.161   5.790 -0.7046 -0.6113  1.5027
 4323SOL    HW317059   3.656   3.275   5.782 -0.2307 -1.1481 -0.9002
 4323SOL    MW417060   3.614   3.214   5.828 -0.3132 -0.1782  0.3513
 4324SOL     OW17061   4.602   1.753   3.876 -0.7930  0.7118  0.4709
 4324SOL    HW217062   4.574   1.692   3.945 -1.0769  0.5836  0.2435
 4324SOL    HW317063   4.544   1.735   3.803 -0.3047  0.6604  0.0952
 4324SOL    MW417064   4.590   1.743   3.876 -0.7660  0.6881  0.3913
 4325SOL     OW17065   4.451   0.587   6.329 -0.5742 -0.2287  0.1496
 4325SOL    HW217066   4.362   0.585   6.364 -1.0558  0.1262 -1.0292
 4325SOL    HW317067   4.461   0.675   6.293  1.1357  0.6402  2.4261
 4325SOL    MW417068   4.441   0.599   6.329 -0.4121 -0.0672  0.2945
 4326SOL     OW17069   6.048   1.868   0.115 -0.8863 -0.9039 -0.0300
 4326SOL    HW217070   5.980   1.888   0.179 -2.0510 -2.6967 -0.6276
 4326SOL    HW317071   6.028   1.779   0.087 -0.1159 -0.3472 -2.5289
 4326SOL    MW417072   6.037   1.859   0.120 -0.9383 -1.0670 -0.4385
 4327SOL     OW17073   6.189   0.554   0.964  0.3279  0.1555  0.4777
 4327SOL    HW217074   6.149   0.631   0.923  0.6583 -0.2679 -0.6814
 4327SOL    HW317075   6.281   0.578   0.976  1.2327 -1.1071 -2.8526
 4327SOL    MW417076   6.196   0.568   0.960  0.4909 -0.0669 -0.1146
 4328SOL     OW17077   5.236   1.708   4.298 -0.0160 -0.1013  0.3046
 4328SOL    HW217078   5.254   1.677   4.210 -0.2612  1.8083 -0.4817
 4328SOL    HW317079   5.303   1.775   4.314  0.4025 -0.8344  1.8201
 4328SOL    MW417080   5.247   1.713   4.289  0.0069  0.0539  0.4008
 4329SOL     OW17081   1.382   1.509   1.919  0.0014  0.1640  0.1009
 4329SOL    HW217082   1.456   1.458   1.950 -1.2019 -3.0143 -1.8049
 4329SOL    HW317083   1.421   1.588   1.880  2.2426 -0.7921  0.2773
 4329SOL    MW417084   1.397   1.513   1.918  0.1383 -0.3815 -0.1273
 4330SOL     OW17085   0.425   3.123   1.032  0.1192  0.3738  0.0121
 4330SOL    HW217086   0.395   3.173   1.108  1.7225 -0.3713  1.1841
 4330SOL    HW317087   0.520   3.133   1.032  0.1795  0.1447 -1.7689
 4330SOL    MW417088   0.433   3.131   1.042  0.3387  0.2452 -0.0683
 4331SOL     OW17089   2.668   5.993   0.756  0.4271  0.1881 -0.0417
 4331SOL    HW217090   2.630   6.040   0.681 -0.6728 -0.7712 -0.1082
 4331SOL    HW317091   2.753   5.963   0.725 -0.7000 -1.6607 -1.5340
 4331SOL    MW417092   2.674   5.995   0.742  0.1333 -0.1824 -0.2473
 4332SOL     OW17093   3.882   4.668   0.725  0.0073 -0.5002 -0.0697
 4332SOL    HW217094   3.923   4.718   0.654  1.9174  0.2094  1.4719
 4332SOL    HW317095   3.920   4.703   0.805  0.8055 -3.8247  1.1616
 4332SOL    MW417096   3.892   4.679   0.726  0.3646 -0.8452  0.2961
 4333SOL     OW17097   4.212   0.744   2.256  0.2693  0.1787 -0.2154
 4333SOL    HW217098   4.152   0.779   2.322 -0.7769  0.7701 -1.4377
 4333SOL    HW317099   4.221   0.815   2.192  1.5317 -0.2569 -0.5424
 4333SOL    MW417100   4.205   0.758   2.257  0.2978  0.1992 -0.4198
 4334SOL     OW17101   5.614   3.810   0.546  0.6449 -0.1639  0.1724
 4334SOL    HW217102   5.620   3.732   0.491  1.1778 -0.3309  0.4607
 4334SOL    HW317103   5.545   3.790   0.609 -0.4272  0.2807 -0.8196
 4334SOL    MW417104   5.606   3.797   0.547  0.5738 -0.1273  0.0795
 4335SOL     OW17105   4.866   2.297   2.475 -1.5087  0.3088 -0.0822
 4335SOL    HW217106   4.839   2.222   2.421  0.9529  0.5559 -1.8162
 4335SOL    HW317107   4.880   2.259   2.562 -2.7598 -0.7018 -0.2845
 4335SOL    MW417108   4.864   2.282   2.479 -1.3490  0.2081 -0.3377
 4336SOL     OW17109   1.418   5.440   2.728 -0.2008  0.1989 -0.3440
 4336SOL    HW217110   1.391   5.530   2.748 -0.3370  0.1652 -0.3756
 4336SOL    HW317111   1.359   5.412   2.657 -2.9758 -1.3304  2.2963
 4336SOL    MW417112   1.406   5.448   2.721 -0.5849 -0.0073  0.0002
 4337SOL     OW17113   1.271   1.147   0.439  0.2358 -0.7701 -0.3375
 4337SOL    HW217114   1.263   1.061   0.481  0.0491 -1.0535 -0.9405
 4337SOL    HW317115   1.355   1.180   0.470 -0.1310 -0.7459  0.6577
 4337SOL    MW417116   1.281   1.140   0.449  0.1628 -0.8043 -0.2857
 4338SOL     OW17117   3.143   2.562   2.830  0.1103  0.1072  0.1078
 4338SOL    HW217118   3.224   2.579   2.879 -0.7288  0.7243  1.3183
 4338SOL    HW317119   3.109   2.649   2.810 -0.0715 -0.1523 -0.7231
 4338SOL    MW417120   3.150   2.576   2.834 -0.0244  0.1544  0.1579
 4339SOL     OW17121   3.455   4.171   0.550 -0.4603 -0.3754 -0.7192
 4339SOL    HW217122   3.496   4.092   0.586  2.0454  1.3961  0.5998
 4339SOL    HW317123   3.431   4.146   0.461 -0.4439 -2.8321 -0.1111
 4339SOL    MW417124   3.457   4.157   0.543 -0.1275 -0.4658 -0.4649
 4340SOL     OW17125   0.729   1.267   1.862  0.0277  0.6665  0.6118
 4340SOL    HW217126   0.647   1.257   1.815 -1.0051  2.1521  1.9859
 4340SOL    HW317127   0.767   1.179   1.863 -0.0988  0.4728 -2.4853
 4340SOL    MW417128   0.723   1.254   1.856 -0.1252  0.8370  0.3845
 4341SOL     OW17129   1.314   0.480   1.235  0.0393 -0.2538 -0.6379
 4341SOL    HW217130   1.286   0.552   1.179  1.2044  0.9312  0.2473
 4341SOL    HW317131   1.409   0.489   1.242 -0.1431  0.6068  2.6962
 4341SOL    MW417132   1.323   0.491   1.229  0.1689  0.0161 -0.0812
 4342SOL     OW17133   2.607   4.541   5.199  0.1835  0.1778  0.4319
 4342SOL    HW217134   2.610   4.636   5.187 -1.3777  0.1536 -0.3564
 4342SOL    HW317135   2.697   4.513   5.183  0.4450  1.4036 -0.4651
 4342SOL    MW417136   2.620   4.550   5.195  0.0120  0.3363  0.2095
 4343SOL     OW17137   5.617   2.532   4.901 -0.3775  0.8101 -0.0235
 4343SOL    HW217138   5.689   2.586   4.936 -0.6027 -0.4477  2.5954
 4343SOL    HW317139   5.561   2.594   4.855  1.6953  2.0276 -1.0654
 4343SOL    MW417140   5.619   2.547   4.900 -0.1337  0.8048  0.1845
 4344SOL     OW17141   1.624   2.858   1.174 -0.4817 -0.2219 -0.7245
 4344SOL    HW217142   1.611   2.828   1.084  0.3716 -0.0739 -0.9097
 4344SOL    HW317143   1.690   2.799   1.210  0.5264  0.8022 -0.7976
 4344SOL    MW417144   1.631   2.846   1.167 -0.2361 -0.0673 -0.7586
 4345SOL     OW17145   5.658   5.996   3.201  0.2248 -0.0043 -0.0920
 4345SOL    HW217146   5.647   6.075   3.148 -0.4879 -1.3502 -2.0294
 4345SOL    HW317147   5.571   5.956   3.202  0.1259  0.1271  2.4254
 4345SOL    MW417148   5.645   6.001   3.194  0.1177 -0.1645 -0.0155
 4346SOL     OW17149   3.794   2.170   3.820 -0.0252 -0.3314 -0.0429
 4346SOL    HW217150   3.738   2.202   3.891 -0.6728 -0.2440 -0.5890
 4346SOL    HW317151   3.762   2.215   3.742  1.2317  0.2236 -0.2596
 4346SOL    MW417152   3.782   2.180   3.819  0.0552 -0.2467 -0.1436
 4347SOL     OW17153   4.775   5.597   2.192  0.1132 -0.7306 -0.0186
 4347SOL    HW217154   4.732   5.662   2.137 -2.2613 -0.5974  1.7959
 4347SOL    HW317155   4.862   5.587   2.155 -0.0880  2.0532 -1.4955
 4347SOL    MW417156   4.781   5.604   2.180 -0.2267 -0.3458  0.0259
 4348SOL     OW17157   1.821   2.727   4.405  0.3972  0.2567  0.1208
 4348SOL    HW217158   1.878   2.801   4.426  0.0935  0.1343  1.4795
 4348SOL    HW317159   1.788   2.746   4.317 -0.0734  1.9748  0.6345
 4348SOL    MW417160   1.824   2.739   4.396  0.2951  0.4673  0.3678
 4349SOL     OW17161   5.458   3.024   5.899 -0.3163 -0.1720 -0.1347
 4349SOL    HW217162   5.524   3.088   5.872 -0.9043  0.6728  0.3680
 4349SOL    HW317163   5.504   2.969   5.962  0.0383  0.1422 -0.1099
 4349SOL    MW417164   5.473   3.025   5.904 -0.3471 -0.0191 -0.0651
 4350SOL     OW17165   3.052   5.170   6.370 -0.2339 -0.4475 -0.0249
 4350SOL    HW217166   3.128   5.227   6.358  0.7360 -1.4307  1.1122
 4350SOL    HW317167   3.026   5.182   6.461 -1.8273  0.2929 -0.5444
 4350SOL    MW417168   3.059   5.179   6.380 -0.3161 -0.4796  0.0566
 4351SOL     OW17169   4.841   5.378   5.017 -0.5500  0.3679  0.5194
 4351SOL    HW217170   4.754   5.360   4.981  0.1544 -0.5699 -0.8006
 4351SOL    HW317171   4.857   5.470   4.996  0.3531 -0.4158 -2.9209
 4351SOL    MW417172   4.832   5.388   5.009 -0.3379  0.1407 -0.1087
 4352SOL     OW17173   6.016   2.590   2.815  0.2198  0.1470  0.5804
 4352SOL    HW217174   5.969   2.513   2.781  0.4749  0.6276 -0.9298
 4352SOL    HW317175   6.104   2.558   2.833  0.1963 -0.0252  0.3937
 4352SOL    MW417176   6.022   2.575   2.813  0.2503  0.1877  0.3565
 4353SOL     OW17177   5.803   0.161   5.847 -0.1099 -0.7241  0.2618
 4353SOL    HW217178   5.724   0.173   5.900 -0.5400  0.6489 -0.6374
 4353SOL    HW317179   5.864   0.115   5.905 -0.2344  1.4646  2.2774
 4353SOL    MW417180   5.800   0.156   5.861 -0.1830 -0.2542  0.4091
 4354SOL     OW17181   6.233   3.293   2.472  0.0643  0.6792 -0.0772
 4354SOL    HW217182   6.226   3.355   2.544 -1.1850  0.0452  0.3624
 4354SOL    HW317183   6.303   3.233   2.498 -1.4273 -0.5114  1.3891
 4354SOL    MW417184   6.242   3.293   2.485 -0.2974  0.4385  0.1743
 4355SOL     OW17185   6.154   0.169   4.009 -0.0890 -0.2260 -0.4842
 4355SOL    HW217186   6.114   0.085   3.985  0.7475 -1.0812  0.9517
 4355SOL    HW317187   6.192   0.201   3.927 -0.9095 -0.9607 -1.1846
 4355SOL    MW417188   6.154   0.162   3.995 -0.0869 -0.4358 -0.3872
 4356SOL     OW17189   4.602   2.678   1.313  0.4444  0.0538  0.2822
 4356SOL    HW217190   4.594   2.666   1.407  0.8579  0.0238  0.3151
 4356SOL    HW317191   4.513   2.694   1.283  0.2120 -0.6659  0.5720
 4356SOL    MW417192   4.590   2.679   1.321  0.4683 -0.0451  0.3247
 4357SOL     OW17193   0.141   2.576   4.362 -0.0301  0.1186 -0.1028
 4357SOL    HW217194   0.123   2.534   4.447 -2.9290 -0.0061 -0.6500
 4357SOL    HW317195   0.227   2.544   4.337  0.1455 -1.2691  1.9794
 4357SOL    MW417196   0.150   2.566   4.370 -0.3894 -0.0809  0.0997
 4358SOL     OW17197   0.617   6.368   3.596  0.2133  0.1105  0.5931
 4358SOL    HW217198   0.683   6.433   3.619  1.1945 -1.1127  1.3709
 4358SOL    HW317199   0.665   6.285   3.594 -1.1943 -0.7332  0.6363
 4358SOL    MW417200   0.632   6.365   3.599  0.1570 -0.1622  0.7014
 4359SOL     OW17201   2.162   2.708   4.368 -0.2801  0.0431 -0.4463
 4359SOL    HW217202   2.122   2.771   4.428  2.0441 -0.7327  2.1513
 4359SOL    HW317203   2.185   2.633   4.424 -0.1163 -1.8062 -2.8100
 4359SOL    MW417204   2.160   2.706   4.384  0.0481 -0.3032 -0.4154
 4360SOL     OW17205   0.094   3.078   3.189 -0.0477  0.2274 -0.4892
 4360SOL    HW217206   0.086   3.001   3.245 -2.1031  1.5361  1.1703
 4360SOL    HW317207   0.004   3.097   3.163  0.2027  2.8182  0.2857
 4360SOL    MW417208   0.081   3.070   3.193 -0.2858  0.7419 -0.1680
 4361SOL     OW17209   0.447   0.479   4.218  0.0676  0.5222 -0.1850
 4361SOL    HW217210   0.388   0.451   4.288 -1.2662  0.6209 -1.2260
 4361SOL    HW317211   0.535   0.463   4.252 -0.5793 -1.2198  0.7725
 4361SOL    MW417212   0.451   0.474   4.232 -0.1937  0.3054 -0.1960
 4362SOL     OW17213   5.714   4.108   5.458 -0.2194 -0.0022 -0.0304
 4362SOL    HW217214   5.650   4.162   5.503 -1.7279 -1.8959  0.2362
 4362SOL    HW317215   5.681   4.018   5.468  1.4174 -0.8539 -1.6406
 4362SOL    MW417216   5.702   4.103   5.466 -0.2025 -0.3645 -0.2077
 4363SOL     OW17217   1.797   0.508   0.381 -0.3223  0.1214 -0.6343
 4363SOL    HW217218   1.854   0.443   0.340  0.2878  0.0723  0.2594
 4363SOL    HW317219   1.748   0.547   0.308  1.4798  0.7787 -1.5406
 4363SOL    MW417220   1.798   0.504   0.366 -0.0040  0.2016 -0.6360
 4364SOL     OW17221   2.642   3.705   3.876 -0.1361  0.1521  0.1240
 4364SOL    HW217222   2.672   3.687   3.787 -1.7957 -1.6023 -0.1353
 4364SOL    HW317223   2.558   3.748   3.865  0.3198  1.2468  0.8535
 4364SOL    MW417224   2.635   3.708   3.863 -0.2949  0.0651  0.1860
 4365SOL     OW17225   0.796   4.941   0.384 -0.0005  0.4501 -0.1896
 4365SOL    HW217226   0.872   4.932   0.327  0.3678  0.6348  0.2646
 4365SOL    HW317227   0.753   4.855   0.381  2.1808 -0.8838  2.2987
 4365SOL    MW417228   0.800   4.928   0.376  0.3359  0.2985  0.1986
 4366SOL     OW17229   2.891   1.188   2.929 -0.1018 -0.5101  0.4173
 4366SOL    HW217230   2.923   1.255   2.990  1.5620  0.1553 -1.0942
 4366SOL    HW317231   2.957   1.185   2.860 -2.1865 -0.8315 -1.6672
 4366SOL    MW417232   2.904   1.196   2.928 -0.1573 -0.4647 -0.0571
 4367SOL     OW17233   0.158   1.279   3.575  0.0151 -0.1478 -0.0628
 4367SOL    HW217234   0.134   1.232   3.655  1.9771  1.2823  1.4636
 4367SOL    HW317235   0.154   1.372   3.600  0.1635  0.3585 -1.7939
 4367SOL    MW417236   0.154   1.285   3.589  0.2936  0.1077 -0.0898
 4368SOL     OW17237   2.075   6.174   4.511 -0.5967  0.0106 -0.5063
 4368SOL    HW217238   1.997   6.123   4.535 -1.7720  1.4854 -1.0314
 4368SOL    HW317239   2.148   6.112   4.519 -1.8131 -1.4102  0.0159
 4368SOL    MW417240   2.074   6.159   4.515 -0.9123  0.0177 -0.5067
 4369SOL     OW17241   0.598   2.447   0.070 -0.4093 -0.1078 -0.4529
 4369SOL    HW217242   0.517   2.398   0.054  0.1960 -1.2629 -0.0422
 4369SOL    HW317243   0.664   2.405   0.015  0.3598 -0.4551  0.6933
 4369SOL    MW417244   0.596   2.435   0.061 -0.2280 -0.3061 -0.2475
 4370SOL     OW17245   1.413   6.117   5.238  0.0926 -0.0374 -0.2182
 4370SOL    HW217246   1.333   6.130   5.289 -0.1882 -1.8420 -0.1273
 4370SOL    HW317247   1.463   6.197   5.251 -0.2521 -0.1632  2.4132
 4370SOL    MW417248   1.409   6.129   5.246  0.0101 -0.2921  0.1410
 4371SOL     OW17249   5.126   3.583   1.914  0.4114  0.2097  1.0104
 4371SOL    HW217250   5.071   3.517   1.956  1.4906 -1.0743  0.4881
 4371SOL    HW317251   5.095   3.666   1.949 -3.6683 -0.1489 -1.1923
 4371SOL    MW417252   5.115   3.585   1.924  0.0155 -0.0070  0.6509
 4372SOL     OW17253   6.094   3.532   0.375  0.6964  0.1333 -0.1432
 4372SOL    HW217254   6.046   3.581   0.308  0.8198 -1.4517 -1.4772
 4372SOL    HW317255   6.146   3.598   0.421  1.0375  1.2304 -2.0031
 4372SOL    MW417256   6.094   3.547   0.372  0.7577  0.0689 -0.5646
 4373SOL     OW17257   4.834   2.066   2.691 -0.4438  0.2393  0.6211
 4373SOL    HW217258   4.894   2.051   2.764 -0.4869 -1.1839  0.3835
 4373SOL    HW317259   4.837   1.985   2.640 -1.2050  0.8244 -0.3914
 4373SOL    MW417260   4.842   2.054   2.694 -0.5499  0.1287  0.4562
 4374SOL     OW17261   3.739   0.349   5.699  0.1284  0.0416  0.0943
 4374SOL    HW217262   3.758   0.415   5.766  0.1626  0.0484  0.0782
 4374SOL    HW317263   3.680   0.287   5.742 -1.0410  0.8393 -0.3300
 4374SOL    MW417264   3.734   0.350   5.713 -0.0214  0.1478  0.0362
 4375SOL     OW17265   0.239   1.582   5.890  0.2612  0.2001  0.3544
 4375SOL    HW217266   0.304   1.606   5.956  0.2299  0.3370  0.3350
 4375SOL    HW317267   0.290   1.553   5.814  0.3052  0.7367  0.1766
 4375SOL    MW417268   0.254   1.581   5.889  0.2629  0.2889  0.3284
 4376SOL     OW17269   4.013   1.084   0.579  0.0550 -0.2694 -0.2635
 4376SOL    HW217270   3.929   1.070   0.621 -0.3411  1.4181 -0.4018
 4376SOL    HW317271   4.005   1.042   0.494 -0.7377  0.0397 -0.3528
 4376SOL    MW417272   4.001   1.077   0.573 -0.1019 -0.0060 -0.2935
 4377SOL     OW17273   1.325   5.886   0.841 -0.0552  1.1041  0.0290
 4377SOL    HW217274   1.379   5.827   0.789  3.1065  2.3668  1.6442
 4377SOL    HW317275   1.274   5.828   0.898  1.6190 -0.1300  0.3348
 4377SOL    MW417276   1.325   5.871   0.841  0.5829  1.1079  0.2825
 4378SOL     OW17277   4.494   4.150   4.743 -0.1757 -0.4106  0.1291
 4378SOL    HW217278   4.554   4.158   4.817 -2.2668 -0.3735  1.9248
 4378SOL    HW317279   4.497   4.236   4.701 -0.7194  0.3903  1.6520
 4378SOL    MW417280   4.502   4.163   4.747 -0.5233 -0.3000  0.5670
 4379SOL     OW17281   3.474   2.319   1.015  0.2818  0.2117 -1.0423
 4379SOL    HW217282   3.389   2.350   1.046 -0.5742 -1.5511 -1.4757
 4379SOL    HW317283   3.518   2.397   0.981 -0.8231  1.2915 -0.0732
 4379SOL    MW417284   3.469   2.333   1.015  0.0230  0.1216 -0.9716
 4380SOL     OW17285   0.368   4.040   4.942 -0.7709  0.3184  0.2323
 4380SOL    HW217286   0.356   3.954   4.982 -0.6166  0.0566 -0.2769
 4380SOL    HW317287   0.457   4.039   4.907 -1.3361  0.0436 -1.2771
 4380SOL    MW417288   0.378   4.029   4.943 -0.8251  0.2476 -0.0340
 4381SOL     OW17289   2.124   4.139   1.393  0.4483  0.5090  0.6298
 4381SOL    HW217290   2.104   4.157   1.485  1.3992  2.0058  0.5821
 4381SOL    HW317291   2.116   4.044   1.385 -1.2041  0.4991  1.8632
 4381SOL    MW417292   2.120   4.129   1.404  0.3558  0.7052  0.7863
 4382SOL     OW17293   1.271   1.899   2.281 -0.2937  0.4488  0.0959
 4382SOL    HW217294   1.360   1.919   2.251 -0.0583  1.1423  1.1819
 4382SOL    HW317295   1.258   1.807   2.258  0.1067  0.7642 -1.4689
 4382SOL    MW417296   1.281   1.890   2.274 -0.2098  0.5819  0.0327
 4383SOL     OW17297   1.897   3.277   1.571 -0.1673 -0.1002  0.6360
 4383SOL    HW217298   1.986   3.270   1.537 -0.7794 -1.2490 -0.8485
 4383SOL    HW317299   1.862   3.357   1.532  0.3469  0.6341  1.6289
 4383SOL    MW417300   1.904   3.287   1.561 -0.1802 -0.1549  0.5711
 4384SOL     OW17301   0.297   4.745   1.205 -0.4916  0.3940  0.1398
 4384SOL    HW217302   0.205   4.759   1.228 -0.9417 -1.1946 -0.5454
 4384SOL    HW317303   0.327   4.676   1.265 -0.8428 -1.6750 -1.8990
 4384SOL    MW417304   0.289   4.738   1.216 -0.5973 -0.0886 -0.2196
 4385SOL     OW17305   0.617   5.513   4.108 -0.5312  0.6395  0.0003
 4385SOL    HW217306   0.622   5.518   4.203  0.5222 -0.9034  0.0536
 4385SOL    HW317307   0.581   5.598   4.082 -0.7146  1.1390  1.7505
 4385SOL    MW417308   0.613   5.525   4.117 -0.4164  0.5018  0.2382
 4386SOL     OW17309   1.476   3.762   1.884  0.2715  0.9541  0.3100
 4386SOL    HW217310   1.412   3.727   1.822 -0.3248  2.9741 -0.2679
 4386SOL    HW317311   1.552   3.705   1.874 -0.9213 -0.6845  0.0488
 4386SOL    MW417312   1.477   3.750   1.875  0.0355  1.0044  0.1993
 4387SOL     OW17313   5.864   3.283   3.594 -0.3545  0.1869  0.2317
 4387SOL    HW217314   5.925   3.352   3.619  0.6701 -0.1800 -1.1471
 4387SOL    HW317315   5.921   3.207   3.575 -1.1954 -0.0800 -1.3656
 4387SOL    MW417316   5.880   3.282   3.595 -0.3303  0.1033 -0.1610
 4388SOL     OW17317   5.172   4.036   4.286 -0.1446 -0.6008  0.2551
 4388SOL    HW217318   5.095   4.032   4.230 -0.7128 -0.6557  1.0319
 4388SOL    HW317319   5.233   3.973   4.248 -0.9579 -1.4604  0.3439
 4388SOL    MW417320   5.170   4.027   4.274 -0.3269 -0.7214  0.3693
 4389SOL     OW17321   5.173   2.475   3.170 -0.1182  0.9485  0.3173
 4389SOL    HW217322   5.091   2.439   3.203 -0.7516  1.0726 -1.0458
 4389SOL    HW317323   5.146   2.548   3.114  0.7994  0.0281 -1.4212
 4389SOL    MW417324   5.159   2.480   3.167 -0.0807  0.8435 -0.0919
 4390SOL     OW17325   5.138   3.354   3.919  0.3112 -0.5106 -0.3420
 4390SOL    HW217326   5.122   3.444   3.892  0.6059 -0.5050 -0.5071
 4390SOL    HW317327   5.098   3.347   4.006  1.5253  0.1973  0.3103
 4390SOL    MW417328   5.131   3.365   3.927  0.5103 -0.4165 -0.2777
 4391SOL     OW17329   6.178   3.140   1.524 -0.2671  0.3181  0.3330
 4391SOL    HW217330   6.106   3.077   1.529  0.3514 -0.4262  0.0817
 4391SOL    HW317331   6.256   3.086   1.506  0.3295  1.1192  0.4615
 4391SOL    MW417332   6.179   3.124   1.522 -0.1068  0.3256  0.3168
 4392SOL     OW17333   1.469   0.304   2.291  0.2712 -0.2614  0.3892
 4392SOL    HW217334   1.561   0.296   2.315  0.6524 -0.3140 -0.9739
 4392SOL    HW317335   1.469   0.297   2.195 -1.2965 -1.6874  0.4419
 4392SOL    MW417336   1.481   0.302   2.281  0.1146 -0.4565  0.2163
 4393SOL     OW17337   5.030   4.565   3.396  0.6274 -0.3544 -0.0207
 4393SOL    HW217338   5.035   4.527   3.484  0.2453 -0.8607 -0.2159
 4393SOL    HW317339   5.066   4.653   3.407  0.3054 -0.3021  0.7114
 4393SOL    MW417340   5.036   4.572   3.409  0.5345 -0.4143  0.0501
 4394SOL     OW17341   5.299   5.011   6.300  0.2673 -0.2898  0.3874
 4394SOL    HW217342   5.355   4.943   6.338  2.0887  0.6575 -0.4363
 4394SOL    HW317343   5.331   5.093   6.338  0.4290  0.4193 -1.1550
 4394SOL    MW417344   5.311   5.013   6.310  0.5290 -0.0713  0.0752
 4395SOL     OW17345   1.254   2.320   2.921  0.2033  0.2199  0.1130
 4395SOL    HW217346   1.231   2.255   2.987 -0.0410 -0.6150 -0.7734
 4395SOL    HW317347   1.347   2.338   2.935 -0.1678  1.1483  1.6063
 4395SOL    MW417348   1.263   2.314   2.931  0.1221  0.2323  0.1931
 4396SOL     OW17349   1.972   1.081   4.738 -0.0040 -0.1241 -0.6823
 4396SOL    HW217350   1.954   1.061   4.830  0.4064  0.8397 -0.3731
 4396SOL    HW317351   1.983   0.996   4.696 -1.7560 -0.6466 -0.1791
 4396SOL    MW417352   1.971   1.067   4.745 -0.1810 -0.0659 -0.5751
 4397SOL     OW17353   2.885   4.691   4.036  0.5699 -0.2636 -0.2737
 4397SOL    HW217354   2.973   4.655   4.051  0.6435 -0.1307 -0.3835
 4397SOL    HW317355   2.883   4.770   4.090  1.1686  0.7350 -1.6476
 4397SOL    MW417356   2.897   4.697   4.045  0.6586 -0.1143 -0.4694
 4398SOL     OW17357   1.732   2.317   4.831  0.0229  0.2205 -0.1705
 4398SOL    HW217358   1.787   2.370   4.774 -0.9214  0.2414 -1.0831
 4398SOL    HW317359   1.752   2.226   4.807 -0.5480  0.2324 -0.7306
 4398SOL    MW417360   1.742   2.312   4.821 -0.1770  0.2249 -0.3648
 4399SOL     OW17361   3.395   3.059   3.562 -0.2923  0.2047  0.2852
 4399SOL    HW217362   3.376   3.122   3.631 -1.4637  0.2921 -0.0974
 4399SOL    HW317363   3.428   2.982   3.608 -1.0421  0.2703  0.9479
 4399SOL    MW417364   3.397   3.057   3.577 -0.5458  0.2249  0.3221
 4400SOL     OW17365   5.786   5.929   5.897 -0.4726  0.1187 -0.3050
 4400SOL    HW217366   5.832   5.921   5.980  0.5609  0.9036 -0.7758
 4400SOL    HW317367   5.727   6.004   5.909 -2.1966 -1.2830  0.5180
 4400SOL    MW417368   5.784   5.938   5.910 -0.5637  0.0373 -0.2585
 4401SOL     OW17369   6.408   4.791   4.469  0.2044 -0.1498  0.4235
 4401SOL    HW217370   6.416   4.770   4.562  3.5495  0.4407  0.3682
 4401SOL    HW317371   6.386   4.708   4.427  3.1710 -1.5254  1.3337
 4401SOL    MW417372   6.406   4.777   4.475  1.0371 -0.2534  0.5363
 4402SOL     OW17373   3.439   1.219   0.057  0.4588  1.0142  0.1756
 4402SOL    HW217374   3.421   1.201  -0.036 -0.7683 -0.1141  0.5934
 4402SOL    HW317375   3.361   1.265   0.088 -0.0197 -0.3544  1.0874
 4402SOL    MW417376   3.427   1.223   0.049  0.2337  0.6848  0.3510
 4403SOL     OW17377   2.433   1.971   0.027  0.0765  0.2228 -0.3294
 4403SOL    HW217378   2.414   2.064   0.038  0.3385  0.2610 -0.2047
 4403SOL    HW317379   2.465   1.963  -0.063 -2.3555 -0.1358 -1.2411
 4403SOL    MW417380   2.434   1.982   0.017 -0.2098  0.1805 -0.4332
 4404SOL     OW17381   5.922   4.326   6.295 -0.3232  0.2331  0.0959
 4404SOL    HW217382   5.959   4.260   6.354  0.0143  0.1434 -0.2129
 4404SOL    HW317383   5.978   4.403   6.308 -1.4161  0.8637  1.3271
 4404SOL    MW417384   5.934   4.328   6.305 -0.4228  0.3045  0.2176
 4405SOL     OW17385   0.544   2.414   1.403  0.0063 -0.7138  0.3228
 4405SOL    HW217386   0.530   2.387   1.494  0.1083 -1.1496  0.2099
 4405SOL    HW317387   0.553   2.332   1.355  0.0814 -0.4809 -0.0613
 4405SOL    MW417388   0.543   2.400   1.409  0.0297 -0.7406  0.2572
 4406SOL     OW17389   6.019   4.909   5.117  0.4016 -0.7839 -0.1568
 4406SOL    HW217390   6.040   4.966   5.043  1.7223  0.3800  1.0548
 4406SOL    HW317391   6.104   4.886   5.154 -0.1936 -2.2150  0.3921
 4406SOL    MW417392   6.033   4.914   5.112  0.4974 -0.8192  0.0755
 4407SOL     OW17393   0.268   1.483   2.293  0.0397 -0.0445  0.0922
 4407SOL    HW217394   0.279   1.493   2.198  1.3402  0.8093  0.3161
 4407SOL    HW317395   0.350   1.445   2.323 -0.0149  0.5264  1.0016
 4407SOL    MW417396   0.280   1.479   2.284  0.2040  0.1435  0.2417
 4408SOL     OW17397   3.599   2.035   0.258 -0.0822  0.3839 -0.5936
 4408SOL    HW217398   3.513   1.994   0.247 -0.3423  1.0621 -1.2330
 4408SOL    HW317399   3.584   2.127   0.235  0.1038  1.2352  2.2869
 4408SOL    MW417400   3.585   2.042   0.253 -0.0920  0.5857 -0.2979
 4409SOL     OW17401   6.292   6.052   0.500  0.0079  0.2619  0.1813
 4409SOL    HW217402   6.267   6.140   0.473 -1.1085 -0.7011 -2.2228
 4409SOL    HW317403   6.260   6.044   0.590 -3.2258  1.1289 -0.7693
 4409SOL    MW417404   6.284   6.062   0.509 -0.5661  0.2492 -0.2613
 4410SOL     OW17405   5.050   0.403   1.407  0.6276 -0.4076  0.3267
 4410SOL    HW217406   5.109   0.470   1.440 -1.0627  1.4862 -0.2816
 4410SOL    HW317407   5.018   0.438   1.324  1.7259 -3.2263 -1.4475
 4410SOL    MW417408   5.053   0.416   1.400  0.5495 -0.5296  0.0123
 4411SOL     OW17409   0.163   3.027   0.962 -0.6201 -0.1768 -0.4764
 4411SOL    HW217410   0.258   3.024   0.972 -0.3906  3.7279  0.0177
 4411SOL    HW317411   0.149   3.035   0.868 -0.5023 -1.0181 -0.5718
 4411SOL    MW417412   0.174   3.028   0.951 -0.5743  0.2274 -0.4238
 4412SOL     OW17413   2.152   5.937   1.722  0.3041 -0.0002  0.6860
 4412SOL    HW217414   2.104   5.854   1.722 -1.8478  1.1520  2.3360
 4412SOL    HW317415   2.239   5.913   1.690 -1.1214 -2.3013 -1.9564
 4412SOL    MW417416   2.157   5.923   1.718 -0.1679 -0.1518  0.5551
 4413SOL     OW17417   2.617   3.393   0.825  0.1727 -0.0154  0.1533
 4413SOL    HW217418   2.690   3.425   0.773  1.0025  0.0450  1.3407
 4413SOL    HW317419   2.649   3.391   0.915 -1.0251 -0.7376  0.5945
 4413SOL    MW417420   2.631   3.397   0.830  0.1241 -0.1027  0.3682
 4414SOL     OW17421   0.943   2.228   3.751 -0.0208  0.0075  0.1445
 4414SOL    HW217422   0.881   2.252   3.682  1.2286 -1.1561 -1.4730
 4414SOL    HW317423   1.029   2.236   3.710  0.7352 -1.2340  1.3908
 4414SOL    MW417424   0.946   2.232   3.736  0.2438 -0.3099  0.0955
 4415SOL     OW17425   2.504   0.749   3.517  0.7285 -0.0416 -0.5666
 4415SOL    HW217426   2.539   0.836   3.535  1.1546 -0.0538 -1.2976
 4415SOL    HW317427   2.488   0.711   3.603 -3.0408  2.1555 -0.0813
 4415SOL    MW417428   2.506   0.755   3.531  0.2874  0.2466 -0.5990
 4416SOL     OW17429   2.927   3.524   4.987 -0.3483 -0.0041 -0.5748
 4416SOL    HW217430   2.994   3.568   5.038 -0.7665 -0.1558  0.1135
 4416SOL    HW317431   2.969   3.444   4.954 -0.2519 -0.2012  0.0241
 4416SOL    MW417432   2.941   3.519   4.989 -0.3907 -0.0501 -0.4049
 4417SOL     OW17433   4.800   2.272   5.314  0.2450 -0.0853  0.5161
 4417SOL    HW217434   4.801   2.199   5.251  0.7253 -1.1358  1.6868
 4417SOL    HW317435   4.892   2.287   5.335  0.5376  3.2788 -2.2861
 4417SOL    MW417436   4.812   2.264   5.308  0.3470  0.2199  0.3008
 4418SOL     OW17437   2.238   3.759   4.436  0.6119  0.0736  0.1540
 4418SOL    HW217438   2.314   3.789   4.386 -0.1096  1.3077 -0.2467
 4418SOL    HW317439   2.272   3.687   4.490  1.9603  0.3216 -0.3157
 4418SOL    MW417440   2.253   3.753   4.436  0.6946  0.2691  0.0392
 4419SOL     OW17441   0.256   3.506   6.045  0.4228 -0.0454  0.0108
 4419SOL    HW217442   0.317   3.563   5.998  0.4360 -1.0246 -1.2115
 4419SOL    HW317443   0.173   3.554   6.043  0.1923 -0.4261 -1.8397
 4419SOL    MW417444   0.253   3.520   6.038  0.3941 -0.2249 -0.3946
 4420SOL     OW17445   2.415   5.677   5.631  0.3670 -0.5614 -0.0642
 4420SOL    HW217446   2.484   5.708   5.690  0.3674 -0.7896  0.0537
 4420SOL    HW317447   2.424   5.733   5.554  0.2853 -0.1768  0.1984
 4420SOL    MW417448   2.425   5.689   5.629  0.3562 -0.5407 -0.0140
 4421SOL     OW17449   4.876   3.308   6.136 -0.8585 -0.2288  0.1252
 4421SOL    HW217450   4.943   3.244   6.113 -0.6767 -0.6194  1.6542
 4421SOL    HW317451   4.921   3.393   6.129 -1.7534  0.1134 -4.4106
 4421SOL    MW417452   4.891   3.311   6.132 -0.9526 -0.2352 -0.2715
 4422SOL     OW17453   2.544   6.417   5.384  0.4347 -0.6538  0.0866
 4422SOL    HW217454   2.575   6.440   5.296  3.0793 -1.4357  0.7187
 4422SOL    HW317455   2.449   6.409   5.375  0.4668  0.7395 -2.3372
 4422SOL    MW417456   2.536   6.419   5.371  0.7879 -0.5731 -0.1498
 4423SOL     OW17457   1.909   0.289   0.268 -0.2391  0.5564  0.2059
 4423SOL    HW217458   1.861   0.232   0.208  0.7807  0.9320 -1.0225
 4423SOL    HW317459   1.979   0.234   0.303 -0.5948  0.4493  0.7670
 4423SOL    MW417460   1.912   0.274   0.265 -0.1515  0.5918  0.1179
 4424SOL     OW17461   6.211   5.829   1.997  0.3388 -0.0389 -0.0952
 4424SOL    HW217462   6.162   5.752   1.968  0.9151  0.9077 -4.1348
 4424SOL    HW317463   6.303   5.805   1.986  0.5204  1.2519 -1.6793
 4424SOL    MW417464   6.217   5.816   1.992  0.4388  0.2563 -0.8372
 4425SOL     OW17465   5.618   3.474   4.001  0.3736  0.2761 -0.5217
 4425SOL    HW217466   5.614   3.520   3.917  3.6675  0.3195 -0.7816
 4425SOL    HW317467   5.656   3.389   3.980 -0.2056 -0.3211  0.7552
 4425SOL    MW417468   5.623   3.469   3.987  0.7317  0.2031 -0.3875
 4426SOL     OW17469   5.372   5.788   3.445 -0.5635  0.3198 -0.7425
 4426SOL    HW217470   5.285   5.748   3.439  0.3438 -1.6562 -1.6853
 4426SOL    HW317471   5.355   5.878   3.473 -2.9434  0.1610 -1.4383
 4426SOL    MW417472   5.358   5.795   3.447 -0.7578  0.0381 -0.9587
 4427SOL     OW17473   2.656   2.005   3.125 -0.7921  0.6292  0.4590
 4427SOL    HW217474   2.613   2.052   3.053 -0.8061  1.2652  0.8807
 4427SOL    HW317475   2.603   1.925   3.135 -0.7127  0.4694 -0.3192
 4427SOL    MW417476   2.643   2.000   3.116 -0.7834  0.6921  0.4120
 4428SOL     OW17477   2.122   4.507   2.639  0.6146 -0.0163  0.1859
 4428SOL    HW217478   2.048   4.509   2.700 -1.1015  0.3618 -1.7912
 4428SOL    HW317479   2.179   4.577   2.669 -1.3707  1.7701  0.0140
 4428SOL    MW417480   2.119   4.516   2.651  0.1262  0.2693 -0.0976
 4429SOL     OW17481   4.306   4.614   5.365 -0.2219 -0.6826  0.3441
 4429SOL    HW217482   4.375   4.645   5.424  0.5828 -0.0673 -0.8732
 4429SOL    HW317483   4.331   4.523   5.345  0.0124 -0.5945  0.2322
 4429SOL    MW417484   4.319   4.606   5.370 -0.0848 -0.5898  0.1687
 4430SOL     OW17485   0.643   6.118   1.295 -0.1443 -0.4475 -0.1323
 4430SOL    HW217486   0.639   6.191   1.358  1.6047 -1.7939  1.6791
 4430SOL    HW317487   0.609   6.043   1.343  0.0363 -1.2512 -1.2332
 4430SOL    MW417488   0.638   6.118   1.310  0.1103 -0.7312 -0.0385
 4431SOL     OW17489   1.371   6.265   0.829  0.3672 -0.0177  0.1870
 4431SOL    HW217490   1.307   6.321   0.786 -0.1015  0.1683  1.1063
 4431SOL    HW317491   1.319   6.195   0.869  0.8537 -0.5452 -0.0800
 4431SOL    MW417492   1.355   6.263   0.829  0.3696 -0.0627  0.2730
 4432SOL     OW17493   5.882   2.844   1.305  0.2363 -0.4548  0.2134
 4432SOL    HW217494   5.937   2.768   1.283  0.4845 -0.4544  0.8410
 4432SOL    HW317495   5.902   2.908   1.237  0.8240 -0.5492  0.2897
 4432SOL    MW417496   5.892   2.842   1.293  0.3466 -0.4672  0.3063
 4433SOL     OW17497   2.551   5.271   0.353  0.1141  0.2088 -0.3491
 4433SOL    HW217498   2.481   5.334   0.338  1.8077  2.3831  0.3627
 4433SOL    HW317499   2.536   5.239   0.441 -0.3096  0.2259 -0.4147
 4433SOL    MW417500   2.540   5.275   0.362  0.2816  0.4979 -0.2638
 4434SOL     OW17501   4.254   5.053   2.064  0.4691  0.1988  0.2362
 4434SOL    HW217502   4.219   5.001   2.136  1.0647 -1.3715 -0.5763
 4434SOL    HW317503   4.347   5.063   2.083  0.5786  0.0001 -0.1742
 4434SOL    MW417504   4.261   5.048   2.076  0.5621 -0.0346  0.0749
 4435SOL     OW17505   4.128   1.437   5.130 -0.2499 -0.3604 -0.1936
 4435SOL    HW217506   4.067   1.485   5.187 -1.5978 -2.3683  0.1876
 4435SOL    HW317507   4.213   1.444   5.173 -0.6942  0.4837  0.5684
 4435SOL    MW417508   4.131   1.444   5.143 -0.4863 -0.5140 -0.0428
 4436SOL     OW17509   2.757   5.117   1.172  0.0639 -0.1368 -0.4307
 4436SOL    HW217510   2.786   5.181   1.237  1.0139 -0.2061 -0.7649
 4436SOL    HW317511   2.832   5.107   1.114  0.1745 -2.0496 -0.0162
 4436SOL    MW417512   2.771   5.124   1.173  0.2038 -0.3983 -0.4201
 4437SOL     OW17513   3.335   0.210   4.930 -0.0201 -0.6993 -0.2825
 4437SOL    HW217514   3.381   0.168   4.857 -1.5106 -2.3194 -0.3542
 4437SOL    HW317515   3.242   0.203   4.907 -0.4464  0.1380  1.0592
 4437SOL    MW417516   3.328   0.203   4.917 -0.2730 -0.8026 -0.1150
 4438SOL     OW17517   3.998   4.123   4.841  0.1766 -0.0037 -0.1465
 4438SOL    HW217518   4.071   4.067   4.868  0.8377 -0.2302 -2.1930
 4438SOL    HW317519   3.992   4.110   4.746 -2.8797 -0.3979 -0.0185
 4438SOL    MW417520   4.007   4.114   4.832 -0.1394 -0.0856 -0.3997
 4439SOL     OW17521   4.722   0.480   3.059 -1.2170 -0.1919  0.1383
 4439SOL    HW217522   4.773   0.557   3.031 -0.1828 -1.5659 -2.0604
 4439SOL    HW317523   4.647   0.478   3.000 -1.1709 -0.9085  0.0898
 4439SOL    MW417524   4.719   0.490   3.048 -1.0745 -0.4678 -0.1582
 4440SOL     OW17525   1.598   4.240   3.565 -0.3272  0.3742  0.4408
 4440SOL    HW217526   1.562   4.328   3.573 -0.2869  0.3296  1.1499
 4440SOL    HW317527   1.532   4.191   3.516  1.4038  1.8198 -3.7412
 4440SOL    MW417528   1.585   4.245   3.560 -0.0935  0.5590 -0.0174
 4441SOL     OW17529   4.088   1.214   4.315 -0.0767 -0.0858  0.2270
 4441SOL    HW217530   4.031   1.222   4.238  1.3225  2.1183 -0.6807
 4441SOL    HW317531   4.038   1.254   4.386 -1.9068 -3.2530  0.9170
 4441SOL    MW417532   4.074   1.221   4.314 -0.1335 -0.2129  0.1983
 4442SOL     OW17533   3.067   0.472   0.592  0.4212 -0.3459  0.3871
 4442SOL    HW217534   3.123   0.451   0.667  1.7129 -0.5654 -0.5977
 4442SOL    HW317535   3.128   0.478   0.518 -1.0603 -2.8073 -1.1796
 4442SOL    MW417536   3.083   0.470   0.592  0.3961 -0.6996  0.0505
 4443SOL     OW17537   5.623   5.650   4.550  0.2628 -0.3437 -0.4437
 4443SOL    HW217538   5.657   5.626   4.636 -1.8168  0.3031  0.6294
 4443SOL    HW317539   5.684   5.717   4.518 -2.1387  4.3005  3.4692
 4443SOL    MW417540   5.636   5.656   4.557 -0.3284  0.3544  0.2141
 4444SOL     OW17541   0.023   3.239   4.545  0.3176  0.5474 -0.2739
 4444SOL    HW217542   0.077   3.193   4.610 -1.1752  0.2028  0.7859
 4444SOL    HW317543  -0.044   3.282   4.597  0.9473  2.9753 -1.3567
 4444SOL    MW417544   0.021   3.238   4.561  0.2037  0.8223 -0.2770
 4445SOL     OW17545   1.538   5.695   5.430 -0.2336  0.5515  0.6951
 4445SOL    HW217546   1.603   5.639   5.471 -1.7840 -3.1379 -1.4566
 4445SOL    HW317547   1.458   5.681   5.481 -0.5898  1.1214  0.3074
 4445SOL    MW417548   1.536   5.686   5.442 -0.4852  0.1399  0.3601
 4446SOL     OW17549   6.242   3.004   4.810  0.1193 -0.1497 -0.4027
 4446SOL    HW217550   6.270   2.912   4.808 -1.1126 -0.5528 -1.7936
 4446SOL    HW317551   6.150   3.000   4.835 -0.3330  0.5486 -1.8361
 4446SOL    MW417552   6.234   2.991   4.813 -0.1029 -0.1107 -0.7753
 4447SOL     OW17553   1.673   0.615   3.833  0.0706 -0.0335 -0.5177
 4447SOL    HW217554   1.701   0.533   3.872 -0.1207  1.3235  2.8017
 4447SOL    HW317555   1.658   0.594   3.741  1.5094 -3.2989 -0.1436
 4447SOL    MW417556   1.675   0.602   3.826  0.2352 -0.2853 -0.0304
 4448SOL     OW17557   3.193   1.332   0.109  0.0751 -0.2403  0.1305
 4448SOL    HW217558   3.223   1.408   0.058 -0.2923 -1.4940 -2.1114
 4448SOL    HW317559   3.136   1.369   0.176 -1.3905  1.3909 -1.8938
 4448SOL    MW417560   3.190   1.347   0.111 -0.1667 -0.1905 -0.4324
 4449SOL     OW17561   4.254   5.561   0.973  0.1492  0.0508  0.0512
 4449SOL    HW217562   4.328   5.580   0.915 -0.1001 -1.1687 -0.7044
 4449SOL    HW317563   4.180   5.609   0.934  0.5542  1.4087  0.9036
 4449SOL    MW417564   4.254   5.570   0.960  0.1697  0.0690  0.0639
 4450SOL     OW17565   2.961   2.534   3.572 -0.0230  0.0052  0.5878
 4450SOL    HW217566   3.014   2.613   3.563 -1.1001  0.6534 -0.2724
 4450SOL    HW317567   2.874   2.566   3.598 -0.6747 -0.8065 -0.4791
 4450SOL    MW417568   2.956   2.548   3.574 -0.2510 -0.0164  0.3335
 4451SOL     OW17569   5.364   6.054   0.645 -0.6376 -0.2476  0.3417
 4451SOL    HW217570   5.316   6.000   0.582  1.5644 -0.9940 -0.8020
 4451SOL    HW317571   5.377   5.998   0.721 -2.4766  0.3451  1.1664
 4451SOL    MW417572   5.359   6.040   0.646 -0.5897 -0.2678  0.2996
 4452SOL     OW17573   2.398   5.422   4.495  0.2418  0.1930  0.1349
 4452SOL    HW217574   2.423   5.344   4.545  0.8046  0.9918  1.1502
 4452SOL    HW317575   2.324   5.458   4.543 -0.8937 -0.4284 -1.0906
 4452SOL    MW417576   2.392   5.416   4.508  0.1662  0.2164  0.1071
 4453SOL     OW17577   4.124   5.618   3.961 -0.4971  0.6044  0.0601
 4453SOL    HW217578   4.122   5.645   4.053  0.0418  0.0666  0.2367
 4453SOL    HW317579   4.217   5.603   3.943 -0.7517 -1.0934 -0.0249
 4453SOL    MW417580   4.136   5.619   3.971 -0.4596  0.3094  0.0722
 4454SOL     OW17581   3.150   6.184   4.367  0.2140  0.0382 -0.0261
 4454SOL    HW217582   3.187   6.131   4.296 -0.0221 -0.9962  0.6072
 4454SOL    HW317583   3.103   6.255   4.322 -0.0932 -0.7083 -0.9044
 4454SOL    MW417584   3.149   6.187   4.352  0.1423 -0.1967 -0.0584
 4455SOL     OW17585   3.514   5.158   2.171  0.1376  0.3121  0.2355
 4455SOL    HW217586   3.429   5.173   2.129  0.9540  2.4149 -0.8107
 4455SOL    HW317587   3.550   5.082   2.125 -0.7481  0.0077  0.0158
 4455SOL    MW417588   3.507   5.150   2.160  0.1284  0.5494  0.0685
 4456SOL     OW17589   3.478   1.893   4.011  0.1351 -0.1477  0.7587
 4456SOL    HW217590   3.393   1.858   4.036 -0.2003 -0.7136 -1.0534
 4456SOL    HW317591   3.526   1.818   3.976 -0.2429  0.8901 -2.2787
 4456SOL    MW417592   3.473   1.879   4.010  0.0410 -0.0854  0.1189
 4457SOL     OW17593   2.720   3.372   2.901  0.9120 -0.5999 -0.1018
 4457SOL    HW217594   2.782   3.441   2.881  1.8969 -0.9216  1.6594
 4457SOL    HW317595   2.645   3.416   2.939  0.2164 -0.2600 -1.7693
 4457SOL    MW417596   2.718   3.387   2.903  0.9502 -0.5975 -0.0894
 4458SOL     OW17597   6.305   0.012   5.889  0.2451  0.4982 -0.0868
 4458SOL    HW217598   6.320   0.088   5.833 -0.0728 -0.0857 -0.9814
 4458SOL    HW317599   6.374   0.017   5.955 -0.2052  1.9621  0.3243
 4458SOL    MW417600   6.316   0.023   5.890  0.1437  0.6143 -0.1506
 4459SOL     OW17601   5.512   5.384   4.386  0.2048  0.1059 -0.4324
 4459SOL    HW217602   5.568   5.440   4.440  0.4736 -1.2394  0.7694
 4459SOL    HW317603   5.424   5.420   4.399  0.3849  0.3361  0.2375
 4459SOL    MW417604   5.508   5.396   4.395  0.2640 -0.0412 -0.1855
 4460SOL     OW17605   5.113   3.649   5.256 -0.2990  0.2685  0.5084
 4460SOL    HW217606   5.029   3.690   5.238  0.5883  2.8084  1.5392
 4460SOL    HW317607   5.092   3.559   5.280 -2.4698  0.1954 -1.3424
 4460SOL    MW417608   5.099   3.643   5.257 -0.4683  0.5940  0.4002
 4461SOL     OW17609   3.849   0.254   2.141 -0.1189  0.4836  0.4937
 4461SOL    HW217610   3.760   0.243   2.106 -1.5333  0.1884  3.7986
 4461SOL    HW317611   3.879   0.337   2.104 -2.0762  0.9802 -0.1449
 4461SOL    MW417612   3.841   0.263   2.131 -0.5637  0.5101  0.8455
 4462SOL     OW17613   1.203   0.817   1.709  0.0735 -0.2220 -0.5531
 4462SOL    HW217614   1.200   0.764   1.789  1.4217 -0.8626 -0.8884
 4462SOL    HW317615   1.238   0.902   1.738 -1.5272  0.3270 -0.1173
 4462SOL    MW417616   1.207   0.821   1.723  0.0402 -0.2340 -0.5398
 4463SOL     OW17617   2.376   5.988   0.986 -0.3253  0.2426  0.0025
 4463SOL    HW217618   2.470   5.973   0.980  0.0476  2.2423  0.2652
 4463SOL    HW317619   2.356   6.047   0.913 -1.3713 -0.0749  0.0109
 4463SOL    MW417620   2.386   5.994   0.975 -0.4141  0.4645  0.0382
 4464SOL     OW17621   4.902   3.819   1.807 -0.2128 -0.3434 -0.3968
 4464SOL    HW217622   4.856   3.902   1.789 -2.6174 -1.3101  0.8053
 4464SOL    HW317623   4.941   3.833   1.893 -0.5564 -0.4296 -0.2258
 4464SOL    MW417624   4.901   3.832   1.816 -0.5754 -0.4823 -0.2157
 4465SOL     OW17625   3.111   3.232   4.461 -0.0529 -0.3619  0.0641
 4465SOL    HW217626   3.024   3.233   4.499  0.5847 -2.1237  1.7432
 4465SOL    HW317627   3.101   3.183   4.379 -1.0941  1.8706 -1.2366
 4465SOL    MW417628   3.098   3.226   4.455 -0.1062 -0.2998  0.1140
 4466SOL     OW17629   0.150   3.729   2.065 -0.1768  0.0343 -0.2267
 4466SOL    HW217630   0.201   3.775   1.997  0.6342 -2.9926 -1.8645
 4466SOL    HW317631   0.059   3.747   2.042  0.1084  1.0537 -0.6255
 4466SOL    MW417632   0.145   3.738   2.053 -0.0322 -0.2305 -0.4954
 4467SOL     OW17633   4.089   3.698   2.208  0.2954  0.8482  0.0841
 4467SOL    HW217634   4.105   3.612   2.247  0.7764  0.2281 -1.4201
 4467SOL    HW317635   4.071   3.755   2.283  0.0788 -0.5276  1.1175
 4467SOL    MW417636   4.089   3.694   2.223  0.3302  0.5849  0.0220
 4468SOL     OW17637   4.931   0.404   0.813  0.1786 -0.5044 -0.0932
 4468SOL    HW217638   4.860   0.398   0.877 -1.7559 -1.4211 -2.1878
 4468SOL    HW317639   4.972   0.317   0.815  2.5003  0.4954  2.3008
 4468SOL    MW417640   4.927   0.391   0.822  0.2297 -0.4934 -0.0537
 4469SOL     OW17641   3.432   0.887   2.762  0.0294  0.2202  0.1399
 4469SOL    HW217642   3.519   0.928   2.771 -0.6626  2.0929 -1.1626
 4469SOL    HW317643   3.370   0.959   2.774 -1.2599 -0.3830 -2.2481
 4469SOL    MW417644   3.436   0.902   2.765 -0.2320  0.3877 -0.3470
 4470SOL     OW17645   5.657   3.181   0.968  0.0586  0.7632  0.1122
 4470SOL    HW217646   5.699   3.099   0.945 -1.3899 -0.2785  0.9542
 4470SOL    HW317647   5.664   3.185   1.064  1.2255  2.2744 -0.0103
 4470SOL    MW417648   5.663   3.171   0.978  0.0214  0.8251  0.2071
 4471SOL     OW17649   4.319   6.402   5.976 -0.0700  0.2172 -0.1568
 4471SOL    HW217650   4.285   6.491   5.978 -1.3833 -0.2101  2.9915
 4471SOL    HW317651   4.401   6.406   6.026  1.3395  0.0723 -2.3291
 4471SOL    MW417652   4.325   6.414   5.983 -0.0573  0.1417 -0.0280
 4472SOL     OW17653   4.912   0.482   5.086 -0.1605  0.0618 -0.1632
 4472SOL    HW217654   4.867   0.482   5.002  1.7833  1.0573 -1.2763
 4472SOL    HW317655   4.895   0.569   5.122  0.4354  0.2817 -0.3848
 4472SOL    MW417656   4.904   0.493   5.080  0.1746  0.2222 -0.3393
 4473SOL     OW17657   3.540   1.655   0.243  0.2694 -0.2955 -0.3653
 4473SOL    HW217658   3.596   1.700   0.180 -1.0253  0.9276 -0.6898
 4473SOL    HW317659   3.598   1.633   0.316  0.9784  1.8627 -0.2189
 4473SOL    MW417660   3.555   1.658   0.245  0.1921  0.1506 -0.3888
 4474SOL     OW17661   4.994   2.737   2.253 -0.3482  0.1192 -0.1397
 4474SOL    HW217662   4.945   2.819   2.254 -1.0183 -0.1451  3.2493
 4474SOL    HW317663   5.020   2.724   2.345  1.9409 -2.1954 -0.9928
 4474SOL    MW417664   4.991   2.746   2.266 -0.1346 -0.2211  0.1949
 4475SOL     OW17665   2.262   5.018   5.596 -0.0368  0.2183 -0.2132
 4475SOL    HW217666   2.320   5.000   5.670  1.3333 -1.0065 -1.4990
 4475SOL    HW317667   2.174   5.010   5.631  0.5787 -1.1989  1.1051
 4475SOL    MW417668   2.258   5.015   5.610  0.2252 -0.1303 -0.2089
 4476SOL     OW17669   0.068   1.961   5.644  0.1240  0.1080 -0.8314
 4476SOL    HW217670   0.159   1.963   5.613  0.2643 -0.6477 -0.5012
 4476SOL    HW317671   0.065   2.028   5.712  0.8185 -0.7936  0.1304
 4476SOL    MW417672   0.080   1.970   5.649  0.2341 -0.1106 -0.6609
 4477SOL     OW17673   6.077   3.265   4.755 -0.4859 -0.6381  0.2830
 4477SOL    HW217674   6.040   3.242   4.670 -2.1279 -2.1320  1.3393
 4477SOL    HW317675   6.135   3.339   4.736 -0.4029 -1.2423 -2.1917
 4477SOL    MW417676   6.079   3.272   4.741 -0.6916 -0.9149  0.0958
 4478SOL     OW17677   5.923   3.478   5.216 -0.0795  0.2493  0.1902
 4478SOL    HW217678   5.888   3.533   5.147  0.9111  0.3351 -0.2582
 4478SOL    HW317679   5.951   3.398   5.171 -0.8196 -0.3342  0.7259
 4478SOL    MW417680   5.922   3.474   5.201 -0.0464  0.1836  0.2017
 4479SOL     OW17681   6.293   2.275   3.221  0.4901 -0.3085  0.0684
 4479SOL    HW217682   6.336   2.359   3.236 -0.4093  0.4290 -1.2874
 4479SOL    HW317683   6.210   2.282   3.268 -0.6523  0.5394 -1.9676
 4479SOL    MW417684   6.288   2.287   3.229  0.2207 -0.0993 -0.3791
 4480SOL     OW17685   4.942   0.929   4.756  0.0684 -0.4547 -0.2257
 4480SOL    HW217686   5.036   0.919   4.744 -0.1871 -1.8777 -1.2588
 4480SOL    HW317687   4.904   0.904   4.672 -1.3267 -1.6950  0.7289
 4480SOL    MW417688   4.950   0.925   4.743 -0.1494 -0.8061 -0.2361
 4481SOL     OW17689   3.316   4.830   0.609 -0.0034  0.0697 -0.7295
 4481SOL    HW217690   3.360   4.907   0.646  2.6145 -1.7566  0.2556
 4481SOL    HW317691   3.238   4.819   0.662  0.7849  0.7482  0.6290
 4481SOL    MW417692   3.312   4.839   0.621  0.4460 -0.0818 -0.4203
 4482SOL     OW17693   1.118   5.648   3.901 -0.5246 -0.0975  0.1763
 4482SOL    HW217694   1.063   5.618   3.828 -0.7325  0.3379  0.1498
 4482SOL    HW317695   1.056   5.670   3.970 -0.3604  0.0525  0.2750
 4482SOL    MW417696   1.102   5.647   3.900 -0.5304 -0.0203  0.1858
 4483SOL     OW17697   1.116   1.812   5.754 -0.1694 -0.1212  0.1624
 4483SOL    HW217698   1.073   1.726   5.747 -0.6701  0.1946 -0.8681
 4483SOL    HW317699   1.131   1.838   5.663  0.0801  0.8293  0.4713
 4483SOL    MW417700   1.112   1.804   5.741 -0.2026  0.0459  0.0672
 4484SOL     OW17701   0.523   4.672   3.111 -0.0490  0.9302 -0.3448
 4484SOL    HW217702   0.475   4.719   3.043 -0.6584  0.3002 -0.3520
 4484SOL    HW317703   0.607   4.650   3.070 -0.6739 -0.0533 -1.1470
 4484SOL    MW417704   0.528   4.675   3.097 -0.2119  0.7173 -0.4516
 4485SOL     OW17705   3.855   4.415   4.714  0.2952 -0.0789  0.1959
 4485SOL    HW217706   3.889   4.383   4.797  0.9246  0.0955  0.0075
 4485SOL    HW317707   3.787   4.353   4.690  1.5024 -1.2943 -0.1753
 4485SOL    MW417708   3.850   4.403   4.722  0.5375 -0.2163  0.1220
 4486SOL     OW17709   5.166   2.433   2.013  0.6120  0.3657 -0.3908
 4486SOL    HW217710   5.253   2.413   1.980  1.3843  1.0482  1.1422
 4486SOL    HW317711   5.173   2.522   2.048 -0.1468 -0.2412  1.4463
 4486SOL    MW417712   5.178   2.442   2.013  0.6138  0.3756  0.0538
 4487SOL     OW17713   2.015   5.048   5.710 -0.3677  0.0641  0.1857
 4487SOL    HW217714   2.019   5.103   5.788 -1.1966  1.0430 -0.4356
 4487SOL    HW317715   1.944   5.085   5.658 -0.6398 -1.3088 -0.4828
 4487SOL    MW417716   2.006   5.060   5.713 -0.5129  0.0121  0.0156
 4488SOL     OW17717   3.314   2.023   2.204  0.5051  0.7480  1.0365
 4488SOL    HW217718   3.400   1.989   2.230  2.4998  3.1467 -1.7485
 4488SOL    HW317719   3.281   1.960   2.141  1.5487  1.1252  0.0849
 4488SOL    MW417720   3.321   2.011   2.199  0.9060  1.1143  0.5435
 4489SOL     OW17721   5.158   2.338   4.585 -0.1227  0.3318 -0.2192
 4489SOL    HW217722   5.153   2.354   4.490  0.0111 -1.3064 -0.5359
 4489SOL    HW317723   5.132   2.421   4.625 -1.2207  0.7468 -1.7011
 4489SOL    MW417724   5.154   2.351   4.577 -0.2499  0.1704 -0.4565
 4490SOL     OW17725   5.022   0.087   5.742 -0.9435  0.6891  0.1698
 4490SOL    HW217726   4.969   0.110   5.666  0.3544  2.8769 -0.1769
 4490SOL    HW317727   5.110   0.070   5.706 -0.8749 -0.7870  0.9417
 4490SOL    MW417728   5.027   0.088   5.728 -0.7632  0.7830  0.2259
 4491SOL     OW17729   4.344   0.867   0.453  0.0004 -0.3002 -0.5645
 4491SOL    HW217730   4.357   0.960   0.438  1.6068 -0.3906 -0.0154
 4491SOL    HW317731   4.288   0.863   0.530  1.5052  0.2777  0.6249
 4491SOL    MW417732   4.338   0.879   0.461  0.4109 -0.2359 -0.3352
 4492SOL     OW17733   4.181   1.817   4.995 -0.0297 -0.3671 -0.0822
 4492SOL    HW217734   4.225   1.817   5.080  0.3647  0.6898 -0.2744
 4492SOL    HW317735   4.173   1.909   4.972  0.1974 -0.6484 -1.3671
 4492SOL    MW417736   4.186   1.829   5.004  0.0523 -0.2648 -0.2771
 4493SOL     OW17737   2.483   2.192   5.179  0.3207  0.1308 -0.4451
 4493SOL    HW217738   2.408   2.246   5.205 -0.0721  0.0484 -1.3778
 4493SOL    HW317739   2.526   2.170   5.262  0.2006  1.4384 -0.0009
 4493SOL    MW417740   2.479   2.196   5.193  0.2530  0.2924 -0.5095
 4494SOL     OW17741   3.974   0.864   1.291 -0.1715  0.0103 -0.1346
 4494SOL    HW217742   3.891   0.820   1.310  0.5464 -1.2559  0.1696
 4494SOL    HW317743   4.035   0.827   1.355  0.4644  1.4927  0.1557
 4494SOL    MW417744   3.971   0.854   1.302  0.0071  0.0388 -0.0562
 4495SOL     OW17745   0.043   5.220   2.097 -0.6913 -0.2462 -0.1455
 4495SOL    HW217746  -0.010   5.245   2.021  0.9210 -0.8012 -1.5128
 4495SOL    HW317747   0.127   5.192   2.059  0.6137  0.6562  1.9346
 4495SOL    MW417748   0.047   5.220   2.082 -0.3064 -0.2004 -0.0515
 4496SOL     OW17749   1.338   3.560   3.594 -0.2081  0.4555 -0.0860
 4496SOL    HW217750   1.421   3.571   3.640 -0.9428 -0.3407  1.5058
 4496SOL    HW317751   1.338   3.469   3.564 -0.4827  0.4795 -0.1626
 4496SOL    MW417752   1.349   3.550   3.596 -0.3413  0.3536  0.1140
 4497SOL     OW17753   4.538   3.123   2.943 -0.2472  0.1247  0.0743
 4497SOL    HW217754   4.543   3.030   2.963 -0.2090  0.2566  0.6872
 4497SOL    HW317755   4.446   3.139   2.923  0.0275 -0.3992 -1.8317
 4497SOL    MW417756   4.527   3.113   2.943 -0.2059  0.0730 -0.0963
 4498SOL     OW17757   5.404   0.353   5.839 -0.0441 -0.2813 -0.4738
 4498SOL    HW217758   5.446   0.433   5.870 -0.1350  0.0349 -1.1432
 4498SOL    HW317759   5.311   0.374   5.835 -0.2400 -0.8840  0.7086
 4498SOL    MW417760   5.398   0.366   5.843 -0.0820 -0.3191 -0.4061
 4499SOL     OW17761   2.897   2.714   5.520 -0.1920 -0.3248 -0.0899
 4499SOL    HW217762   2.923   2.629   5.556 -2.5959 -1.8075 -1.5997
 4499SOL    HW317763   2.962   2.733   5.452  1.6152  0.2010  1.6853
 4499SOL    MW417764   2.909   2.706   5.516 -0.2707 -0.4511 -0.0549
 4500SOL     OW17765   0.516   0.557   0.405 -0.2832  0.6414 -0.4146
 4500SOL    HW217766   0.471   0.543   0.489 -0.4816  1.5434 -0.3606
 4500SOL    HW317767   0.608   0.567   0.428 -0.1237 -0.6044 -0.4633
 4500SOL    MW417768   0.522   0.556   0.419 -0.2883  0.5960 -0.4139
 4501SOL     OW17769   0.470   0.793   4.371  0.1071 -0.3276 -0.5329
 4501SOL    HW217770   0.431   0.867   4.325 -1.0698  1.5330  3.0782
 4501SOL    HW317771   0.397   0.734   4.387 -0.0215  0.1709  0.8550
 4501SOL    MW417772   0.455   0.795   4.367 -0.0652 -0.0163  0.1267
 4502SOL     OW17773   1.564   2.978   1.991  0.4690 -0.2350 -0.4866
 4502SOL    HW217774   1.596   3.057   2.034 -0.0485  0.0594 -0.6442
 4502SOL    HW317775   1.633   2.955   1.928  1.8665 -1.4071  1.3515
 4502SOL    MW417776   1.577   2.985   1.988  0.5851 -0.3508 -0.2649
 4503SOL     OW17777   0.519   0.223   4.908  0.2359 -0.8218  0.5212
 4503SOL    HW217778   0.614   0.209   4.915  0.0570 -2.0140  0.7884
 4503SOL    HW317779   0.508   0.317   4.920  1.1639 -0.9555  3.1046
 4503SOL    MW417780   0.530   0.234   4.910  0.3347 -0.9967  0.8973
 4504SOL     OW17781   5.719   2.734   0.318 -0.5648  0.4837 -0.1541
 4504SOL    HW217782   5.664   2.809   0.294 -0.5542  0.6162  0.2307
 4504SOL    HW317783   5.717   2.677   0.240 -1.1503  0.5378 -0.1856
 4504SOL    MW417784   5.711   2.736   0.304 -0.6406  0.5083 -0.1075
 4505SOL     OW17785   2.215   3.581   1.455 -0.2544 -0.1405  0.9419
 4505SOL    HW217786   2.215   3.673   1.429  1.3436  0.1497  1.8422
 4505SOL    HW317787   2.255   3.581   1.542  2.5232 -1.9580 -0.2185
 4505SOL    MW417788   2.220   3.593   1.463  0.3229 -0.3420  0.9076
 4506SOL     OW17789   2.859   3.301   5.611 -0.4097 -0.4853 -0.5471
 4506SOL    HW217790   2.865   3.397   5.609 -1.7390 -0.2834  1.7909
 4506SOL    HW317791   2.765   3.283   5.612 -0.2730 -1.5899  2.2111
 4506SOL    MW417792   2.848   3.312   5.611 -0.5671 -0.6044  0.1253
 4507SOL     OW17793   4.083   0.083   5.011 -0.5154  0.3661  0.5640
 4507SOL    HW217794   4.133   0.104   5.090  0.7972  0.8546 -0.3586
 4507SOL    HW317795   4.079   0.166   4.963 -0.4081 -0.1567 -0.3671
 4507SOL    MW417796   4.089   0.097   5.015 -0.3280  0.3616  0.3194
 4508SOL     OW17797   3.512   0.311   3.957  0.2960 -0.1423  0.0704
 4508SOL    HW217798   3.475   0.398   3.938 -0.0340  0.2413  2.1907
 4508SOL    HW317799   3.456   0.276   4.026  1.8027 -1.0578  0.8768
 4508SOL    MW417800   3.500   0.318   3.964  0.4513 -0.2125  0.4566
 4509SOL     OW17801   0.591   4.782   3.356  0.3692  0.3342 -0.4290
 4509SOL    HW217802   0.583   4.758   3.264  1.4189  1.7176 -0.9170
 4509SOL    HW317803   0.569   4.702   3.404  2.3946 -1.2455 -1.9236
 4509SOL    MW417804   0.587   4.768   3.351  0.7749  0.3083 -0.6905
 4510SOL     OW17805   1.565   3.677   4.336 -0.1501 -0.1736 -0.7208
 4510SOL    HW217806   1.518   3.594   4.339  0.0746 -0.2757 -0.0289
 4510SOL    HW317807   1.544   3.712   4.249 -0.1582 -0.9977 -1.0634
 4510SOL    MW417808   1.556   3.671   4.325 -0.1215 -0.2958 -0.6747
 4511SOL     OW17809   0.210   2.662   5.621  0.1973  0.6395 -0.1319
 4511SOL    HW217810   0.184   2.573   5.597 -0.6176  1.3601 -2.1570
 4511SOL    HW317811   0.206   2.664   5.716  0.7326 -1.6219 -0.0085
 4511SOL    MW417812   0.206   2.651   5.630  0.1604  0.4362 -0.3828
 4512SOL     OW17813   4.896   6.046   2.455  0.6895 -0.1447  0.3227
 4512SOL    HW217814   4.933   6.017   2.538  0.2585  0.1402  0.6202
 4512SOL    HW317815   4.802   6.048   2.471  0.5585 -0.6214 -0.3457
 4512SOL    MW417816   4.889   6.042   2.468  0.6154 -0.1700  0.2738
 4513SOL     OW17817   2.551   3.004   0.056  0.2561 -0.1278 -0.0389
 4513SOL    HW217818   2.505   3.003  -0.027  2.7758 -0.7000 -1.5506
 4513SOL    HW317819   2.508   3.072   0.108 -2.0166 -0.4533 -1.3948
 4513SOL    MW417820   2.539   3.013   0.052  0.2887 -0.2462 -0.4173
 4514SOL     OW17821   3.472   1.341   3.631  0.3166 -0.1498  0.0213
 4514SOL    HW217822   3.478   1.253   3.593  2.6296  0.9585 -2.4902
 4514SOL    HW317823   3.560   1.377   3.622 -1.1879  3.5563 -2.0001
 4514SOL    MW417824   3.484   1.334   3.625  0.4233  0.4854 -0.5767
 4515SOL     OW17825   3.822   3.227   4.183 -0.0265 -0.5660  0.0606
 4515SOL    HW217826   3.728   3.224   4.166 -0.6487  1.1341  2.4615
 4515SOL    HW317827   3.836   3.315   4.220  2.3955 -0.9891  0.3121
 4515SOL    MW417828   3.812   3.238   4.186  0.2110 -0.3975  0.4106
 4516SOL     OW17829   0.174   1.785   5.129  0.2518  0.5704 -0.0445
 4516SOL    HW217830   0.244   1.851   5.124  2.1899 -1.3745 -0.4490
 4516SOL    HW317831   0.116   1.807   5.056  1.2052  1.4658 -0.5670
 4516SOL    MW417832   0.176   1.797   5.118  0.6333  0.4319 -0.1668
 4517SOL     OW17833   2.820   2.061   3.706  0.8708  0.0522 -0.3578
 4517SOL    HW217834   2.835   2.001   3.634 -1.3082 -1.0973  0.0670
 4517SOL    HW317835   2.832   2.008   3.785 -2.0258 -0.2158  0.0192
 4517SOL    MW417836   2.824   2.046   3.707  0.2012 -0.1348 -0.2520
 4518SOL     OW17837   0.677   4.214   3.509  0.1448  0.3772 -0.1722
 4518SOL    HW217838   0.619   4.191   3.581 -0.2131  0.1098 -0.5359
 4518SOL    HW317839   0.647   4.159   3.436  0.2077  0.9616 -0.6472
 4518SOL    MW417840   0.665   4.204   3.509  0.1059  0.4190 -0.2828
 4519SOL     OW17841   3.609   2.829   4.576  0.0707  0.0540  0.1382
 4519SOL    HW217842   3.592   2.747   4.623 -0.8219  0.0325 -0.2007
 4519SOL    HW317843   3.646   2.800   4.492 -2.5568 -0.2070 -1.0477
 4519SOL    MW417844   3.612   2.814   4.571 -0.3937  0.0168 -0.0630
 4520SOL     OW17845   3.444   0.458   0.211  0.1984  0.2915 -0.0830
 4520SOL    HW217846   3.526   0.413   0.229  0.8753  0.6883 -1.9219
 4520SOL    HW317847   3.466   0.551   0.214  0.7174  0.4311 -3.8219
 4520SOL    MW417848   3.458   0.465   0.214  0.3562  0.3622 -0.8189
 4521SOL     OW17849   4.433   1.201   2.954 -0.7802  0.2717  0.0598
 4521SOL    HW217850   4.387   1.282   2.975 -1.2919 -0.0266  0.1121
 4521SOL    HW317851   4.398   1.137   3.016  2.1540  0.7708  2.4487
 4521SOL    MW417852   4.422   1.203   2.965 -0.4606  0.2982  0.3819
 4522SOL     OW17853   1.813   5.431   1.627  0.4636  0.0272  0.1345
 4522SOL    HW217854   1.844   5.474   1.707 -0.2343  0.4706  0.1800
 4522SOL    HW317855   1.786   5.504   1.571  0.2126 -0.3186 -0.1923
 4522SOL    MW417856   1.814   5.446   1.630  0.3384  0.0401  0.0974
 4523SOL     OW17857   4.613   6.171   5.636  0.3470 -0.1546 -0.1755
 4523SOL    HW217858   4.682   6.179   5.701 -1.1904  1.5796  1.3432
 4523SOL    HW317859   4.536   6.210   5.677 -2.2650 -4.0456 -0.8087
 4523SOL    MW417860   4.612   6.177   5.650 -0.2005 -0.4391 -0.0587
 4524SOL     OW17861   1.047   5.452   4.662 -1.0790 -0.1450 -0.1168
 4524SOL    HW217862   1.066   5.375   4.714 -1.2574  1.5277  2.6054
 4524SOL    HW317863   1.126   5.506   4.669 -2.0057  1.1900  0.5208
 4524SOL    MW417864   1.060   5.449   4.670 -1.2248  0.2518  0.3265
 4525SOL     OW17865   3.566   6.210   5.251 -0.4461 -0.3319  0.1478
 4525SOL    HW217866   3.496   6.174   5.307  0.7479  0.0743  1.9734
 4525SOL    HW317867   3.646   6.170   5.284  0.2902 -0.2507 -1.4622
 4525SOL    MW417868   3.567   6.200   5.263 -0.1915 -0.2676  0.1762
 4526SOL     OW17869   0.721   2.007   1.580  0.5773  0.3753 -0.1520
 4526SOL    HW217870   0.730   2.101   1.593 -0.2635  0.2832  1.4474
 4526SOL    HW317871   0.627   1.994   1.563  0.4958 -0.2407  0.6790
 4526SOL    MW417872   0.710   2.018   1.580  0.4556  0.2819  0.1687
 4527SOL     OW17873   1.804   4.457   6.299 -0.1028  0.0934 -0.1734
 4527SOL    HW217874   1.884   4.502   6.272 -1.2782  1.4931 -1.5363
 4527SOL    HW317875   1.764   4.513   6.365 -1.1719  0.7135 -1.2966
 4527SOL    MW417876   1.809   4.470   6.304 -0.3990  0.3599 -0.5014
 4528SOL     OW17877   6.134   5.220   2.797 -0.4244 -0.7667 -0.0520
 4528SOL    HW217878   6.075   5.152   2.765  0.5560 -1.9993  0.6773
 4528SOL    HW317879   6.205   5.223   2.733 -0.4848 -0.3764 -0.1076
 4528SOL    MW417880   6.136   5.212   2.784 -0.3030 -0.8778  0.0369
 4529SOL     OW17881   3.159   0.714   6.195 -0.1479 -0.3340 -0.0179
 4529SOL    HW217882   3.136   0.645   6.257  1.6252  0.0381  1.1316
 4529SOL    HW317883   3.097   0.785   6.212 -0.9373 -0.9934 -0.0845
 4529SOL    MW417884   3.148   0.714   6.205 -0.0181 -0.3719  0.1250
 4530SOL     OW17885   5.633   5.113   3.367  0.4069 -0.4648 -0.4020
 4530SOL    HW217886   5.581   5.193   3.375  0.7839 -0.2901  0.4075
 4530SOL    HW317887   5.570   5.045   3.343  0.0559  0.0380 -0.9120
 4530SOL    MW417888   5.618   5.114   3.365  0.4103 -0.3754 -0.3625
 4531SOL     OW17889   0.433   1.268   1.889  0.6830  0.1382 -0.4800
 4531SOL    HW217890   0.410   1.216   1.966  0.7081  0.3480 -0.3323
 4531SOL    HW317891   0.354   1.267   1.834  0.3205  0.8424  0.0166
 4531SOL    MW417892   0.420   1.261   1.892  0.6385  0.2588 -0.3950
 4532SOL     OW17893   1.349   2.914   4.997  0.1117 -0.2414 -0.0967
 4532SOL    HW217894   1.317   2.999   5.028  1.0777  0.2334 -0.3581
 4532SOL    HW317895   1.276   2.879   4.946  0.1560  1.0573 -1.1306
 4532SOL    MW417896   1.335   2.921   4.994  0.2450 -0.0074 -0.2676
 4533SOL     OW17897   5.704   1.119   1.009  0.1640 -0.3547  0.0573
 4533SOL    HW217898   5.707   1.132   1.104  0.9085 -0.2707  0.0335
 4533SOL    HW317899   5.634   1.055   0.996  0.1637 -0.4955  0.6812
 4533SOL    MW417900   5.696   1.112   1.020  0.2622 -0.3622  0.1364
 4534SOL     OW17901   3.609   3.907   1.584  0.0885  0.3664  0.2224
 4534SOL    HW217902   3.643   3.971   1.646  2.2186 -0.7558  0.2911
 4534SOL    HW317903   3.600   3.826   1.635 -0.3630  0.0113 -0.3978
 4534SOL    MW417904   3.612   3.905   1.599  0.3100  0.1715  0.1496
 4535SOL     OW17905   4.050   3.148   3.984 -0.2335 -0.0239  0.1775
 4535SOL    HW217906   3.981   3.211   3.963 -1.7509 -0.5118  3.0501
 4535SOL    HW317907   4.012   3.063   3.963 -1.4019 -0.4403  3.3813
 4535SOL    MW417908   4.036   3.145   3.979 -0.5879 -0.1432  0.9792
 4536SOL     OW17909   1.539   0.625   4.639  0.1684 -0.4291 -0.2056
 4536SOL    HW217910   1.451   0.654   4.614  0.2267  2.1414  2.1083
 4536SOL    HW317911   1.571   0.579   4.561 -2.3947  0.4064 -1.9140
 4536SOL    MW417912   1.531   0.623   4.625 -0.1621  0.0203 -0.1257
 4537SOL     OW17913   3.105   0.867   5.928 -0.0701  0.0499  0.2381
 4537SOL    HW217914   3.040   0.826   5.985  0.1985 -0.1910  0.3794
 4537SOL    HW317915   3.113   0.808   5.854  1.7534 -1.2457  1.3571
 4537SOL    MW417916   3.098   0.854   5.926  0.2059 -0.1529  0.4043
 4538SOL     OW17917   1.121   1.720   3.808 -0.1249  0.2703  0.4901
 4538SOL    HW217918   1.164   1.805   3.808 -0.2553  0.3395  0.9458
 4538SOL    HW317919   1.147   1.680   3.725 -0.7648  1.1011 -0.1306
 4538SOL    MW417920   1.130   1.726   3.797 -0.2265  0.3890  0.4684
 4539SOL     OW17921   5.167   5.329   4.436 -0.5443  0.7012  0.2138
 4539SOL    HW217922   5.194   5.290   4.353  0.3114  1.9271 -0.1114
 4539SOL    HW317923   5.182   5.423   4.425 -0.5311  0.9050  1.7129
 4539SOL    MW417924   5.172   5.336   4.424 -0.4297  0.8898  0.3686
 4540SOL     OW17925   3.519   1.705   2.048  0.3614 -0.9968  0.7532
 4540SOL    HW217926   3.428   1.720   2.075  0.9334  0.2359  2.1029
 4540SOL    HW317927   3.555   1.793   2.035  0.9857 -1.4913 -1.1925
 4540SOL    MW417928   3.512   1.719   2.050  0.5193 -0.8994  0.6745
 4541SOL     OW17929   6.423   5.403   3.266  0.1041 -0.4735 -0.3628
 4541SOL    HW217930   6.425   5.404   3.362  0.4234 -1.5595 -0.3422
 4541SOL    HW317931   6.338   5.442   3.244 -0.2655 -0.8168  0.3927
 4541SOL    MW417932   6.412   5.408   3.276  0.0975 -0.6621 -0.2604
 4542SOL     OW17933   2.429   1.048   1.828  0.1333 -0.5579  0.1329
 4542SOL    HW217934   2.495   0.985   1.855 -1.7683 -3.5916 -1.7437
 4542SOL    HW317935   2.363   1.047   1.898  0.6833  0.3460  0.6823
 4542SOL    MW417936   2.429   1.040   1.841 -0.0450 -0.8389 -0.0422
 4543SOL     OW17937   2.645   0.513   2.472  0.1415  0.0281  0.4398
 4543SOL    HW217938   2.670   0.570   2.544  0.3370  0.2431  0.2005
 4543SOL    HW317939   2.700   0.540   2.399 -1.1442  0.8841 -0.2614
 4543SOL    MW417940   2.656   0.524   2.472 -0.0023  0.1694  0.3157
 4544SOL     OW17941   0.940   1.293   5.134 -0.1413  0.1909 -0.7479
 4544SOL    HW217942   0.903   1.242   5.062 -0.4290 -0.4507 -0.1524
 4544SOL    HW317943   1.035   1.281   5.125 -0.2418 -1.6830  0.2415
 4544SOL    MW417944   0.948   1.285   5.123 -0.1925 -0.1410 -0.5388
 4545SOL     OW17945   1.385   1.817   0.714  0.3684 -0.3176  0.3781
 4545SOL    HW217946   1.399   1.842   0.623  0.9652 -2.3264 -0.1346
 4545SOL    HW317947   1.324   1.744   0.710  0.1710 -0.2393  1.6174
 4545SOL    MW417948   1.379   1.810   0.701  0.4211 -0.5723  0.4740
 4546SOL     OW17949   3.862   4.804   5.543  0.2678  0.1772  0.3483
 4546SOL    HW217950   3.781   4.855   5.534  0.0323  0.0186  1.4216
 4546SOL    HW317951   3.891   4.788   5.453 -0.1996  1.3386 -0.0248
 4546SOL    MW417952   3.855   4.809   5.530  0.1751  0.3095  0.4406
 4547SOL     OW17953   0.229   4.490   3.353  0.1097  0.3323 -0.2330
 4547SOL    HW217954   0.150   4.483   3.300  0.6462  0.9116 -1.1393
 4547SOL    HW317955   0.301   4.473   3.292  0.7336  0.6820  0.3801
 4547SOL    MW417956   0.228   4.487   3.338  0.2628  0.4549 -0.2717
 4548SOL     OW17957   3.420   4.899   4.824 -0.1968 -0.7909 -0.4997
 4548SOL    HW217958   3.366   4.821   4.822  0.6629 -1.4075 -0.2553
 4548SOL    HW317959   3.412   4.933   4.913  0.0530 -1.0569 -0.3738
 4548SOL    MW417960   3.412   4.893   4.835 -0.0504 -0.9073 -0.4508
 4549SOL     OW17961   2.836   2.273   6.341  0.1607  0.0186  0.1093
 4549SOL    HW217962   2.894   2.346   6.318  2.4799 -1.6100  0.4288
 4549SOL    HW317963   2.895   2.201   6.362 -2.0125 -1.6379  0.9702
 4549SOL    MW417964   2.851   2.273   6.341  0.1800 -0.4148  0.2650
 4550SOL     OW17965   3.142   0.432   4.041  0.4326  0.7149  0.1192
 4550SOL    HW217966   3.142   0.438   3.945  1.6461 -0.6102  0.0087
 4550SOL    HW317967   3.055   0.399   4.063  0.9452 -1.4226 -0.7620
 4550SOL    MW417968   3.131   0.428   4.031  0.6604  0.2581 -0.0117
 4551SOL     OW17969   5.405   4.440   1.232 -0.4396 -0.2966 -0.5347
 4551SOL    HW217970   5.343   4.391   1.286  0.0839  0.6870  1.0198
 4551SOL    HW317971   5.486   4.389   1.234  0.4548  1.0439  1.9944
 4551SOL    MW417972   5.407   4.427   1.239 -0.2525  0.0100  0.0041
 4552SOL     OW17973   4.270   3.467   4.930 -0.2476 -0.1852  0.5496
 4552SOL    HW217974   4.333   3.415   4.981 -0.5851  0.2145  1.4039
 4552SOL    HW317975   4.225   3.520   4.996  1.3456  2.6035 -0.4143
 4552SOL    MW417976   4.273   3.467   4.946 -0.0819  0.2355  0.5351
 4553SOL     OW17977   3.981   5.781   4.694 -0.5548 -0.4653  0.4310
 4553SOL    HW217978   3.987   5.728   4.774 -0.0383 -2.0993 -0.6334
 4553SOL    HW317979   3.898   5.826   4.701 -0.4927 -0.5447  1.9163
 4553SOL    MW417980   3.971   5.780   4.705 -0.4785 -0.6914  0.4865
 4554SOL     OW17981   6.043   3.385   6.338  0.5127 -0.2018 -0.0111
 4554SOL    HW217982   6.001   3.332   6.406 -0.7370 -1.8451 -1.9534
 4554SOL    HW317983   6.007   3.473   6.350  1.5581 -0.0133  2.4037
 4554SOL    MW417984   6.033   3.389   6.348  0.4858 -0.3938  0.0512
 4555SOL     OW17985   2.654   5.108   2.110 -0.2359 -0.1005  0.0080
 4555SOL    HW217986   2.740   5.128   2.147 -0.4624  0.8612  0.0440
 4555SOL    HW317987   2.646   5.012   2.116  0.8984 -0.2104 -0.1617
 4555SOL    MW417988   2.664   5.098   2.116 -0.1161  0.0119 -0.0096
 4556SOL     OW17989   2.484   6.200   4.240 -0.3528  0.2715 -0.1323
 4556SOL    HW217990   2.578   6.215   4.234 -0.2629  0.3027  1.0852
 4556SOL    HW317991   2.463   6.216   4.332 -2.0430  3.0251 -0.8722
 4556SOL    MW417992   2.493   6.204   4.251 -0.5639  0.6389 -0.0693
 4557SOL     OW17993   5.131   3.488   3.578 -0.0683 -0.0893  0.5685
 4557SOL    HW217994   5.104   3.559   3.520  0.3141  1.0558  1.7331
 4557SOL    HW317995   5.129   3.527   3.666  3.2813 -0.4711  0.9642
 4557SOL    MW417996   5.127   3.503   3.582  0.4241  0.0114  0.7744
 4558SOL     OW17997   2.702   2.767   2.051  0.5822 -0.0245  0.5203
 4558SOL    HW217998   2.758   2.837   2.018  1.2412 -1.4990 -1.8143
 4558SOL    HW317999   2.760   2.691   2.056 -0.8074 -1.1964 -0.3375
 4558SOL    MW418000   2.717   2.766   2.047  0.4858 -0.3737  0.0991
 4559SOL     OW18001   4.002   5.416   6.199 -0.1307 -0.2063 -0.0535
 4559SOL    HW218002   4.025   5.401   6.107 -0.2478  0.7878 -0.2567
 4559SOL    HW318003   3.983   5.510   6.204 -2.1359 -0.6123  0.5507
 4559SOL    MW418004   4.003   5.427   6.187 -0.4107 -0.1287 -0.0006
 4560SOL     OW18005   0.072   5.012   2.427 -0.4049  0.3849  0.5613
 4560SOL    HW218006   0.042   4.970   2.508 -0.7164  0.4246  0.4668
 4560SOL    HW318007   0.149   4.961   2.401 -0.4845  0.1832  0.7179
 4560SOL    MW418008   0.078   5.000   2.434 -0.4565  0.3636  0.5695
 4561SOL     OW18009   5.823   1.532   0.380  0.0279 -0.0005  0.1673
 4561SOL    HW218010   5.807   1.601   0.444  0.0466 -1.1679  1.4782
 4561SOL    HW318011   5.783   1.565   0.299 -0.8907  1.0749  1.0248
 4561SOL    MW418012   5.816   1.546   0.378 -0.0908 -0.0126  0.4534
 4562SOL     OW18013   1.180   2.208   1.422  0.1929 -0.2644  0.0612
 4562SOL    HW218014   1.103   2.262   1.440  0.3243  0.9331 -2.4818
 4562SOL    HW318015   1.180   2.143   1.492 -1.4740  1.4278  1.7792
 4562SOL    MW418016   1.170   2.207   1.434 -0.0097  0.1169 -0.0477
 4563SOL     OW18017   6.051   0.103   6.018 -0.2595 -0.0461 -0.5401
 4563SOL    HW218018   6.075   0.196   6.027 -0.4679  0.0451 -0.9122
 4563SOL    HW318019   6.128   0.063   5.978 -0.0323 -0.1067 -0.0574
 4563SOL    MW418020   6.064   0.110   6.014 -0.2570 -0.0421 -0.5255
 4564SOL     OW18021   5.902   3.980   2.403  0.0446  0.3139  0.1750
 4564SOL    HW218022   5.954   3.907   2.437  0.1716  0.4609  0.2963
 4564SOL    HW318023   5.860   4.018   2.480 -1.2848 -0.5981 -0.0499
 4564SOL    MW418024   5.903   3.975   2.418 -0.1141  0.2130  0.1613
 4565SOL     OW18025   3.072   4.480   5.912 -0.3316 -0.2899 -0.1630
 4565SOL    HW218026   2.980   4.502   5.895 -0.5261 -1.2946 -0.4426
 4565SOL    HW318027   3.100   4.431   5.834 -0.1720 -1.8039  0.8186
 4565SOL    MW418028   3.064   4.477   5.899 -0.3362 -0.6223 -0.0704
 4566SOL     OW18029   6.021   6.226   1.909 -0.1059  0.1575 -0.0354
 4566SOL    HW218030   5.978   6.160   1.855  1.6801  0.6060 -2.1293
 4566SOL    HW318031   5.969   6.306   1.896  0.3878  0.2955 -1.2317
 4566SOL    MW418032   6.008   6.228   1.900  0.1949  0.2349 -0.4695
 4567SOL     OW18033   4.775   2.511   5.521 -0.1531  0.5447 -0.1096
 4567SOL    HW218034   4.781   2.464   5.604 -1.7799  0.7441  0.1426
 4567SOL    HW318035   4.737   2.596   5.544  0.0959  0.9015 -0.9680
 4567SOL    MW418036   4.771   2.516   5.535 -0.3349  0.6181 -0.1896
 4568SOL     OW18037   5.695   1.293   6.369 -0.4810 -0.4018 -0.0950
 4568SOL    HW218038   5.703   1.248   6.285  0.7498 -0.2470 -0.0856
 4568SOL    HW318039   5.718   1.384   6.349 -0.4560 -0.3069  0.3611
 4568SOL    MW418040   5.699   1.299   6.355 -0.3153 -0.3689 -0.0336
 4569SOL     OW18041   5.156   1.864   0.014 -0.4280 -0.6757  0.1409
 4569SOL    HW218042   5.125   1.955   0.009 -0.8287 -0.8651 -1.1377
 4569SOL    HW318043   5.250   1.870  -0.005 -0.5489 -0.5797 -0.4266
 4569SOL    MW418044   5.164   1.877   0.011 -0.4968 -0.6880 -0.1026
 4570SOL     OW18045   0.164   0.247   3.278  0.6215 -0.1718 -0.4665
 4570SOL    HW218046   0.162   0.157   3.310  4.3213 -0.1817  0.2341
 4570SOL    HW318047   0.076   0.264   3.245 -1.2181 -2.8159  2.5802
 4570SOL    MW418048   0.152   0.238   3.278  0.8670 -0.5220  0.0279
 4571SOL     OW18049   3.839   5.937   2.858  0.1021  0.1081 -0.1862
 4571SOL    HW218050   3.818   6.030   2.858 -1.7902 -0.2867 -0.0669
 4571SOL    HW318051   3.848   5.914   2.766 -0.2122  0.2420 -0.2499
 4571SOL    MW418052   3.837   5.946   2.846 -0.1891  0.0737 -0.1788
 4572SOL     OW18053   1.781   6.238   1.559  0.5095  0.4145 -0.2876
 4572SOL    HW218054   1.702   6.288   1.537 -0.3073 -0.8805 -0.4148
 4572SOL    HW318055   1.816   6.210   1.474  0.2166 -0.3155 -0.1755
 4572SOL    MW418056   1.775   6.241   1.545  0.3631  0.1474 -0.2896
 4573SOL     OW18057   5.071   1.933   2.391  0.0817  0.0178 -0.0896
 4573SOL    HW218058   5.017   1.892   2.323 -0.2962  1.7117 -0.8864
 4573SOL    HW318059   5.020   2.009   2.420  0.1101 -0.8110  2.3441
 4573SOL    MW418060   5.057   1.938   2.386  0.0356  0.1319  0.1264
 4574SOL     OW18061   4.751   1.578   5.172  0.1768 -0.0610 -0.1328
 4574SOL    HW218062   4.665   1.586   5.131  1.0043  1.7010 -1.6736
 4574SOL    HW318063   4.800   1.520   5.113  0.9072  1.2831 -0.9067
 4574SOL    MW418064   4.746   1.571   5.159  0.3823  0.3488 -0.4382
 4575SOL     OW18065   3.357   2.218   4.020 -0.0825 -0.3221 -0.2300
 4575SOL    HW218066   3.292   2.164   3.975 -0.5034 -0.2495  0.2903
 4575SOL    HW318067   3.421   2.239   3.952  0.9887 -2.8226 -0.1098
 4575SOL    MW418068   3.357   2.214   4.005  0.0033 -0.6425 -0.1455
 4576SOL     OW18069   1.006   0.678   6.204 -0.2703  0.3740  0.0613
 4576SOL    HW218070   0.939   0.655   6.140  0.8834 -0.7634 -0.7803
 4576SOL    HW318071   1.009   0.602   6.263 -1.4268  1.4634  1.6173
 4576SOL    MW418072   0.998   0.665   6.203 -0.2707  0.3677  0.1555
 4577SOL     OW18073   2.805   6.141   5.467 -0.5551  0.2324 -0.6220
 4577SOL    HW218074   2.797   6.089   5.387 -2.1455 -1.8794  0.8066
 4577SOL    HW318075   2.884   6.107   5.510  0.4866  1.5877 -1.3621
 4577SOL    MW418076   2.814   6.130   5.462 -0.6275  0.1326 -0.5312
 4578SOL     OW18077   4.167   2.373   1.966  0.5338 -0.7910  0.4514
 4578SOL    HW218078   4.243   2.318   1.947  0.7802 -0.5491  0.7177
 4578SOL    HW318079   4.205   2.455   1.997  0.1750 -1.1950  2.0716
 4578SOL    MW418080   4.182   2.376   1.968  0.5189 -0.8124  0.7003
 4579SOL     OW18081   2.242   3.314   4.036 -0.1157 -0.1129 -0.3647
 4579SOL    HW218082   2.310   3.250   4.012  1.1679  0.9686  0.2370
 4579SOL    HW318083   2.181   3.313   3.963 -0.1668 -2.0596 -0.3449
 4579SOL    MW418084   2.243   3.305   4.024  0.0469 -0.2270 -0.2827
 4580SOL     OW18085   1.993   3.849   1.135 -0.0990  0.0013  0.1660
 4580SOL    HW218086   1.993   3.790   1.059 -0.2961  0.2945 -0.0641
 4580SOL    HW318087   2.042   3.926   1.106  0.0451  0.0071  0.4218
 4580SOL    MW418088   1.999   3.851   1.121 -0.1060  0.0407  0.1694
 4581SOL     OW18089   5.606   3.113   2.760  0.3694 -0.4892  0.1179
 4581SOL    HW218090   5.560   3.028   2.758  2.2416 -1.6079  1.5518
 4581SOL    HW318091   5.676   3.103   2.695  0.4820  0.0163  0.1632
 4581SOL    MW418092   5.609   3.100   2.751  0.6313 -0.5701  0.3131
 4582SOL     OW18093   5.595   3.197   3.591 -0.6298 -0.9018 -0.0562
 4582SOL    HW218094   5.539   3.274   3.602 -1.5770 -1.4792 -0.6596
 4582SOL    HW318095   5.684   3.232   3.596 -1.0251  0.3946 -1.2159
 4582SOL    MW418096   5.600   3.212   3.593 -0.8069 -0.8070 -0.2888
 4583SOL     OW18097   4.717   5.971   4.253 -0.1512  0.0771 -0.3127
 4583SOL    HW218098   4.713   5.916   4.330  0.8965  0.1690 -0.1810
 4583SOL    HW318099   4.633   5.956   4.208 -1.3790  1.0647  1.5283
 4583SOL    MW418100   4.705   5.962   4.257 -0.1750  0.2195 -0.0524
 4584SOL     OW18101   5.144   4.669   4.523  0.4317 -0.0153  0.1480
 4584SOL    HW218102   5.181   4.592   4.566 -0.0306 -0.1514  0.3110
 4584SOL    HW318103   5.185   4.743   4.567  0.1321 -0.1569  0.6683
 4584SOL    MW418104   5.154   4.668   4.535  0.3311 -0.0520  0.2381
 4585SOL     OW18105   0.472   2.057   3.187  0.2975 -0.2891 -0.3724
 4585SOL    HW218106   0.510   2.128   3.135  1.3877 -1.1289 -0.7538
 4585SOL    HW318107   0.495   2.078   3.278 -1.3510  1.0225 -0.2141
 4585SOL    MW418108   0.480   2.069   3.192  0.2238 -0.2268 -0.4018
 4586SOL     OW18109   5.702   5.477   4.870 -0.6830 -0.0295 -0.8027
 4586SOL    HW218110   5.691   5.559   4.918 -1.5417 -0.6363  0.0631
 4586SOL    HW318111   5.767   5.429   4.921 -2.0564 -0.9388  0.1357
 4586SOL    MW418112   5.709   5.482   4.883 -0.9775 -0.2295 -0.5647
 4587SOL     OW18113   6.308   2.580   5.451  0.2209  0.4771 -0.1511
 4587SOL    HW218114   6.369   2.525   5.500 -0.2831 -0.5142 -0.6020
 4587SOL    HW318115   6.306   2.542   5.363 -2.3153 -0.5976  0.2990
 4587SOL    MW418116   6.316   2.568   5.446 -0.1802  0.2045 -0.1512
 4588SOL     OW18117   1.729   3.637   1.854  0.3093 -0.2053  0.2612
 4588SOL    HW218118   1.812   3.607   1.891  2.0208  0.5850 -2.5612
 4588SOL    HW318119   1.734   3.732   1.859 -1.0134 -0.1593  1.1307
 4588SOL    MW418120   1.741   3.646   1.860  0.3606 -0.0950  0.0035
 4589SOL     OW18121   5.341   1.745   4.787  0.0888  0.2741 -0.7504
 4589SOL    HW218122   5.261   1.797   4.779 -0.7649 -1.0426 -1.1749
 4589SOL    HW318123   5.350   1.729   4.881 -0.9672 -0.7452 -0.7956
 4589SOL    MW418124   5.332   1.749   4.798 -0.1631 -0.0342 -0.8124
 4590SOL     OW18125   0.968   5.339   1.083  0.0221 -0.2735 -0.1194
 4590SOL    HW218126   0.953   5.431   1.060  1.9979 -0.1110 -0.8868
 4590SOL    HW318127   0.967   5.339   1.179  1.2347  0.7921 -0.0830
 4590SOL    MW418128   0.966   5.351   1.093  0.4428 -0.1115 -0.2158
 4591SOL     OW18129   2.052   4.906   5.358  0.4292 -0.1429  0.4234
 4591SOL    HW218130   2.073   4.946   5.273  1.3090 -0.4140  0.5048
 4591SOL    HW318131   2.117   4.943   5.418 -0.9223  1.0018  1.2740
 4591SOL    MW418132   2.063   4.916   5.355  0.3670 -0.0276  0.5464
 4592SOL     OW18133   0.225   0.982   0.566  0.5395 -0.4855  0.1708
 4592SOL    HW218134   0.266   1.020   0.488 -1.5623  0.2774 -0.6461
 4592SOL    HW318135   0.212   1.056   0.626  1.6704 -0.9782  1.0529
 4592SOL    MW418136   0.228   0.997   0.564  0.4114 -0.4498  0.1794
 4593SOL     OW18137   3.563   0.410   3.494  0.0386 -0.1320  0.3808
 4593SOL    HW218138   3.561   0.359   3.575  2.0957  0.5148  0.9074
 4593SOL    HW318139   3.601   0.350   3.430 -1.7459 -0.6991 -0.1852
 4593SOL    MW418140   3.568   0.395   3.497  0.0746 -0.1215  0.3756
 4594SOL     OW18141   6.068   6.304   4.010 -0.3607 -0.1100  0.4770
 4594SOL    HW218142   5.998   6.275   4.069  0.9616 -1.8367  1.3051
 4594SOL    HW318143   6.076   6.234   3.946 -0.6690  0.9882 -0.7934
 4594SOL    MW418144   6.060   6.291   4.010 -0.2270 -0.1929  0.4187
 4595SOL     OW18145   1.341   2.482   2.237  0.1835 -0.7342 -0.3348
 4595SOL    HW218146   1.427   2.443   2.254  0.2726 -0.2395  0.3578
 4595SOL    HW318147   1.360   2.566   2.197  0.0261 -0.5433 -0.0107
 4595SOL    MW418148   1.355   2.488   2.234  0.1745 -0.6438 -0.2007
 4596SOL     OW18149   0.120   2.444   0.278 -0.2259 -0.2425  0.3204
 4596SOL    HW218150   0.033   2.456   0.314  0.1279  1.1198  0.7870
 4596SOL    HW318151   0.168   2.396   0.346 -0.8613 -1.9185 -0.3617
 4596SOL    MW418152   0.115   2.439   0.291 -0.2631 -0.2839  0.2919
 4597SOL     OW18153   4.172   1.052   3.767 -0.5424  0.3630  0.0927
 4597SOL    HW218154   4.169   1.126   3.828 -0.1280  0.3773  0.0960
 4597SOL    HW318155   4.190   1.091   3.682 -2.9279  0.5549 -0.4101
 4597SOL    MW418156   4.174   1.067   3.764 -0.8024  0.3902  0.0268
 4598SOL     OW18157   2.694   3.879   2.954 -0.0038  0.2982 -0.3784
 4598SOL    HW218158   2.761   3.886   2.886  1.1960  3.6882  0.8985
 4598SOL    HW318159   2.627   3.943   2.928 -2.9276 -2.9537 -1.5824
 4598SOL    MW418160   2.694   3.889   2.941 -0.2312  0.3164 -0.3688
 4599SOL     OW18161   1.645   0.761   1.398  0.1010  0.3579  0.0076
 4599SOL    HW218162   1.557   0.767   1.435 -1.1295  0.0049 -2.6421
 4599SOL    HW318163   1.641   0.685   1.340  2.3199  0.0687  0.1715
 4599SOL    MW418164   1.633   0.752   1.395  0.2314  0.2732 -0.3204
 4600SOL     OW18165   5.129   4.868   5.830  0.3987  0.1906 -0.4573
 4600SOL    HW218166   5.199   4.930   5.810 -0.1207  0.7424 -0.5841
 4600SOL    HW318167   5.059   4.921   5.869  0.2916 -0.4508  0.2338
 4600SOL    MW418168   5.129   4.883   5.832  0.3161  0.1788 -0.3829
 4601SOL     OW18169   5.907   2.045   1.064  0.4070  0.1574 -0.4145
 4601SOL    HW218170   5.843   1.974   1.066  2.3482 -1.7277 -0.6555
 4601SOL    HW318171   5.937   2.047   0.973  0.9289  0.7676 -0.2378
 4601SOL    MW418172   5.903   2.036   1.052  0.7320 -0.0108 -0.4230
 4602SOL     OW18173   1.366   1.789   0.436 -0.1017 -0.2810 -0.1386
 4602SOL    HW218174   1.440   1.776   0.376 -0.1733  0.1623 -0.3284
 4602SOL    HW318175   1.336   1.701   0.457 -2.5382 -0.5550 -3.7881
 4602SOL    MW418176   1.372   1.776   0.431 -0.4326 -0.2587 -0.6451
 4603SOL     OW18177   2.098   6.089   5.062 -0.5167 -0.2312  0.1813
 4603SOL    HW218178   2.024   6.050   5.015 -0.3987 -0.4153  0.1461
 4603SOL    HW318179   2.107   6.034   5.140 -0.5094 -0.1195  0.2595
 4603SOL    MW418180   2.089   6.076   5.066 -0.5001 -0.2408  0.1870
 4604SOL     OW18181   1.390   2.007   1.670  0.5526  0.2232  0.1078
 4604SOL    HW218182   1.387   2.097   1.703 -0.0031 -0.3028  1.5675
 4604SOL    HW318183   1.476   2.000   1.628  1.5557  0.8044  1.9435
 4604SOL    MW418184   1.401   2.018   1.669  0.6116  0.2305  0.5426
 4605SOL     OW18185   2.738   4.955   1.760  0.5759  0.3786  0.2512
 4605SOL    HW218186   2.766   4.889   1.824 -0.2488  0.1105  0.3418
 4605SOL    HW318187   2.666   4.914   1.713  0.9686  0.6971 -0.6524
 4605SOL    MW418188   2.732   4.941   1.762  0.5189  0.3853  0.1439
 4606SOL     OW18189   0.353   1.667   3.785  0.0839  0.7790 -0.1653
 4606SOL    HW218190   0.289   1.609   3.743  0.9974  0.0780 -0.6239
 4606SOL    HW318191   0.427   1.668   3.724 -0.8069  4.3655 -1.3996
 4606SOL    MW418192   0.354   1.659   3.771  0.0869  1.1597 -0.3886
 4607SOL     OW18193   5.443   2.489   0.225  0.4607 -0.2477  0.1014
 4607SOL    HW218194   5.429   2.546   0.300  0.2911  1.0911 -0.9006
 4607SOL    HW318195   5.518   2.529   0.179 -0.5520  0.0274 -1.3807
 4607SOL    MW418196   5.451   2.502   0.229  0.3047 -0.0348 -0.2264
 4608SOL     OW18197   4.252   5.972   6.213 -0.1295 -0.0593  0.0325
 4608SOL    HW218198   4.338   5.998   6.180 -0.2444 -0.1626 -0.3555
 4608SOL    HW318199   4.271   5.906   6.280  0.1447  0.7570  0.7864
 4608SOL    MW418200   4.266   5.967   6.218 -0.1085  0.0348  0.0808
 4609SOL     OW18201   5.816   0.800   6.175 -0.0703  0.4139  0.4101
 4609SOL    HW218202   5.865   0.720   6.197  0.5470  0.5985 -0.2699
 4609SOL    HW318203   5.843   0.821   6.086 -0.8968  0.8970  0.2651
 4609SOL    MW418204   5.826   0.792   6.166 -0.0979  0.5020  0.3012
 4610SOL     OW18205   5.822   1.356   1.882 -0.5150  0.0996  0.5896
 4610SOL    HW218206   5.747   1.403   1.848 -0.7493  0.0612  1.0427
 4610SOL    HW318207   5.897   1.392   1.834 -0.5815  1.5156  1.4751
 4610SOL    MW418208   5.822   1.367   1.871 -0.5547  0.2813  0.7662
 4611SOL     OW18209   2.760   3.338   1.052  0.2574  0.0311  0.4671
 4611SOL    HW218210   2.814   3.260   1.046 -2.7991 -2.1683 -0.8679
 4611SOL    HW318211   2.739   3.346   1.145 -0.3556 -1.4765  0.4789
 4611SOL    MW418212   2.764   3.329   1.063 -0.2268 -0.4580  0.2925
 4612SOL     OW18213   2.670   3.528   1.556  0.2445 -0.0446 -0.5104
 4612SOL    HW218214   2.707   3.576   1.630 -0.9279  1.6381 -0.9521
 4612SOL    HW318215   2.592   3.486   1.592 -0.2566  0.6729 -0.7264
 4612SOL    MW418216   2.665   3.529   1.570  0.0237  0.2721 -0.5972
 4613SOL     OW18217   1.055   1.355   0.859  0.6558 -0.1287 -0.1618
 4613SOL    HW218218   1.070   1.375   0.766  0.8328 -0.9246 -0.3125
 4613SOL    HW318219   1.047   1.260   0.862 -4.0463  0.0327 -0.0717
 4613SOL    MW418220   1.055   1.345   0.847  0.0588 -0.2124 -0.1698
 4614SOL     OW18221   0.620   5.575   1.303 -0.4610  0.6732 -0.1509
 4614SOL    HW218222   0.647   5.626   1.380 -1.5520 -0.4440  1.0190
 4614SOL    HW318223   0.628   5.484   1.331  1.0240  0.1630 -2.0520
 4614SOL    MW418224   0.624   5.570   1.317 -0.4091  0.4585 -0.2474
 4615SOL     OW18225   2.656   2.257   2.510  0.0521  0.2938  0.0287
 4615SOL    HW218226   2.632   2.338   2.554  0.2206  0.9571 -1.0655
 4615SOL    HW318227   2.573   2.223   2.477  0.0601  0.3300 -0.0281
 4615SOL    MW418228   2.642   2.263   2.511  0.0754  0.3861 -0.1232
 4616SOL     OW18229   6.252   2.389   1.061 -0.2038  0.4108  0.0622
 4616SOL    HW218230   6.210   2.319   1.111  1.0570  0.3116  1.0618
 4616SOL    HW318231   6.316   2.343   1.006  0.5581  0.7477  0.6508
 4616SOL    MW418232   6.255   2.373   1.061  0.0630  0.4421  0.2717
 4617SOL     OW18233   3.876   1.974   2.311 -0.0901 -0.1565 -0.0966
 4617SOL    HW218234   3.932   2.052   2.317 -0.7743  0.3040  0.4850
 4617SOL    HW318235   3.901   1.933   2.228  0.8449  0.2380 -0.0270
 4617SOL    MW418236   3.887   1.979   2.301 -0.0570 -0.0437 -0.0107
 4618SOL     OW18237   1.164   3.872   3.297 -0.3528 -0.0153  0.8480
 4618SOL    HW218238   1.113   3.806   3.343 -2.9616  1.4752  0.2981
 4618SOL    HW318239   1.128   3.955   3.327  0.8721  1.1019 -0.6063
 4618SOL    MW418240   1.153   3.874   3.307 -0.5354  0.3288  0.5835
 4619SOL     OW18241   0.362   3.711   2.239 -0.2128  0.2920 -0.2535
 4619SOL    HW218242   0.278   3.729   2.196 -0.0023  2.1168  0.0193
 4619SOL    HW318243   0.351   3.624   2.277 -2.2154  0.7101  0.2707
 4619SOL    MW418244   0.349   3.702   2.239 -0.4493  0.5879 -0.1483
 4620SOL     OW18245   2.158   1.503   2.673 -0.0122 -0.4455 -0.2111
 4620SOL    HW218246   2.192   1.417   2.650 -0.2857 -0.2192 -1.5087
 4620SOL    HW318247   2.064   1.490   2.687  0.2891 -0.7841  1.9422
 4620SOL    MW418248   2.150   1.490   2.672 -0.0085 -0.4603 -0.0982
 4621SOL     OW18249   3.163   3.443   1.953  0.2064  0.2835  0.1706
 4621SOL    HW218250   3.096   3.458   1.885  0.8156  1.0970 -0.2702
 4621SOL    HW318251   3.246   3.449   1.906  0.6924  2.0913  1.1678
 4621SOL    MW418252   3.165   3.446   1.938  0.3509  0.6293  0.2440
 4622SOL     OW18253   3.649   1.605   0.738  0.0981  0.5123  0.2510
 4622SOL    HW218254   3.627   1.517   0.709 -0.2027  0.7877 -0.3854
 4622SOL    HW318255   3.674   1.595   0.830  0.1037 -0.2368  0.1744
 4622SOL    MW418256   3.649   1.592   0.746  0.0592  0.4498  0.1569
 4623SOL     OW18257   4.464   2.148   0.773 -0.3052 -0.2324 -0.3515
 4623SOL    HW218258   4.424   2.208   0.835  0.0616 -2.7285  2.5056
 4623SOL    HW318259   4.396   2.133   0.707 -2.5546 -1.0907  2.0396
 4623SOL    MW418260   4.450   2.154   0.772 -0.5536 -0.6749  0.3410
 4624SOL     OW18261   1.364   2.051   4.043  0.8421  0.3399  0.1462
 4624SOL    HW218262   1.330   1.969   4.078 -0.0236  0.7987  0.4287
 4624SOL    HW318263   1.331   2.118   4.103  2.3396  0.8148  0.4735
 4624SOL    MW418264   1.355   2.049   4.055  0.9255  0.4631  0.2266
 4625SOL     OW18265   4.629   2.716   3.610  0.8183  0.3315 -0.6296
 4625SOL    HW218266   4.680   2.774   3.553  0.0363  0.9394 -0.7242
 4625SOL    HW318267   4.666   2.731   3.697 -0.1991  1.9794 -0.4230
 4625SOL    MW418268   4.641   2.726   3.614  0.5809  0.6291 -0.6148
 4626SOL     OW18269   1.077   0.808   0.591  0.4607 -0.1060  0.5632
 4626SOL    HW218270   1.034   0.752   0.656  1.0213  1.8050  2.7467
 4626SOL    HW318271   1.170   0.798   0.610  0.5462  1.9997  1.4831
 4626SOL    MW418272   1.083   0.799   0.602  0.5459  0.4239  0.9726
 4627SOL     OW18273   3.305   2.541   6.103 -0.4694 -0.2909  0.2690
 4627SOL    HW218274   3.296   2.600   6.178 -0.1714 -0.5331  0.4968
 4627SOL    HW318275   3.239   2.571   6.041  2.4493  3.1723 -1.5306
 4627SOL    MW418276   3.295   2.553   6.105 -0.0450  0.1341  0.0616
 4628SOL     OW18277   3.309   2.245   3.104  0.1693  0.2201 -0.0002
 4628SOL    HW218278   3.293   2.314   3.169 -0.0864  0.3271 -0.1762
 4628SOL    HW318279   3.405   2.236   3.103  0.1239 -0.5892  1.2202
 4628SOL    MW418280   3.320   2.253   3.113  0.1296  0.1275  0.1376
 4629SOL     OW18281   0.757   5.568   4.943 -0.1509  0.2557 -0.1593
 4629SOL    HW218282   0.685   5.520   4.904 -0.2647 -0.3170  0.7242
 4629SOL    HW318283   0.717   5.619   5.014  0.3017 -0.1549  0.4106
 4629SOL    MW418284   0.743   5.568   4.947 -0.1062  0.1260  0.0325
 4630SOL     OW18285   2.318   6.035   4.522  0.2204  0.3259 -0.2240
 4630SOL    HW218286   2.407   6.001   4.509  0.2344  0.9235 -1.9797
 4630SOL    HW318287   2.332   6.125   4.552  0.2155  0.3520 -0.2995
 4630SOL    MW418288   2.332   6.043   4.524  0.2216  0.4082 -0.4656
 4631SOL     OW18289   5.217   6.002   4.909 -0.2529 -0.1103 -0.2952
 4631SOL    HW218290   5.245   6.002   5.000 -0.4704 -0.4402 -0.2286
 4631SOL    HW318291   5.206   5.910   4.886 -1.0890 -0.0019 -0.3756
 4631SOL    MW418292   5.219   5.990   4.918 -0.3919 -0.1395 -0.2970
 4632SOL     OW18293   2.279   4.826   4.548  0.7763  0.2670 -0.9445
 4632SOL    HW218294   2.189   4.795   4.542  0.9744 -0.8569  1.0024
 4632SOL    HW318295   2.277   4.895   4.615  1.2220  0.9009 -1.5605
 4632SOL    MW418296   2.267   4.831   4.556  0.8612  0.2023 -0.7689
 4633SOL     OW18297   5.691   3.830   4.040  0.2145 -0.5700  0.5386
 4633SOL    HW218298   5.651   3.851   4.124 -0.3116  0.7956 -0.0284
 4633SOL    HW318299   5.618   3.820   3.980  0.6388  0.7244 -0.2369
 4633SOL    MW418300   5.676   3.832   4.043  0.2011 -0.2191  0.3614
 4634SOL     OW18301   6.345   3.705   5.129 -0.4846  0.6234 -0.3170
 4634SOL    HW218302   6.326   3.617   5.096 -2.2958  0.7611  0.2101
 4634SOL    HW318303   6.402   3.744   5.064 -0.9817 -0.3825 -1.3872
 4634SOL    MW418304   6.350   3.698   5.116 -0.7892  0.5088 -0.3887
 4635SOL     OW18305   0.029   2.865   5.694  0.2805 -0.4397  0.0951
 4635SOL    HW218306   0.062   2.784   5.655  2.1648  0.0685  0.5250
 4635SOL    HW318307   0.095   2.931   5.671 -0.5869  0.7131  0.7975
 4635SOL    MW418308   0.042   2.863   5.686  0.4147 -0.2205  0.2445
 4636SOL     OW18309   5.180   2.058   4.929 -0.2866  0.3843  0.1778
 4636SOL    HW218310   5.147   1.985   4.876  0.7154 -1.3624  1.8888
 4636SOL    HW318311   5.270   2.070   4.900  0.4194 -0.8838  1.6987
 4636SOL    MW418312   5.187   2.050   4.918 -0.0612 -0.0134  0.6042
 4637SOL     OW18313   0.967   0.024   5.684 -0.0731  0.2971  0.3355
 4637SOL    HW218314   0.929   0.040   5.771 -0.6264  0.8170 -0.0006
 4637SOL    HW318315   1.053  -0.014   5.703  0.8554  2.5986  1.1825
 4637SOL    MW418316   0.973   0.021   5.698 -0.0236  0.6693  0.4029
 4638SOL     OW18317   5.982   3.915   0.695 -0.3138  0.3871 -0.2065
 4638SOL    HW218318   5.962   3.978   0.763 -1.0791 -1.1592  1.0542
 4638SOL    HW318319   5.919   3.844   0.708  0.4783 -0.6223 -1.5951
 4638SOL    MW418320   5.971   3.914   0.705 -0.3103  0.0499 -0.2234
 4639SOL     OW18321   2.083   5.296   0.545  0.4304  0.7125  0.1358
 4639SOL    HW218322   2.128   5.238   0.606  0.0996 -1.0273 -1.1953
 4639SOL    HW318323   2.004   5.248   0.519  0.5596  1.3692 -1.6524
 4639SOL    MW418324   2.078   5.282   0.549  0.4038  0.5696 -0.2757
 4640SOL     OW18325   5.342   3.747   1.311 -0.6506 -0.1022  0.3085
 4640SOL    HW218326   5.319   3.792   1.393 -2.2609 -0.3748  0.0406
 4640SOL    HW318327   5.267   3.691   1.293  0.0057 -0.5977 -0.9797
 4640SOL    MW418328   5.329   3.746   1.320 -0.7765 -0.2036  0.1032
 4641SOL     OW18329   0.850   6.258   1.126  0.0384 -0.1449  0.3672
 4641SOL    HW218330   0.789   6.205   1.177 -1.3052 -0.4507 -1.4245
 4641SOL    HW318331   0.936   6.237   1.161 -0.5167 -2.9363  0.2893
 4641SOL    MW418332   0.853   6.248   1.137 -0.2121 -0.5535  0.1206
 4642SOL     OW18333   1.784   2.587   1.716  0.1863  0.2687 -0.3106
 4642SOL    HW218334   1.722   2.644   1.672  0.6417  1.2116  0.2324
 4642SOL    HW318335   1.864   2.591   1.663  0.4389  0.6834  0.0931
 4642SOL    MW418336   1.787   2.595   1.703  0.2797  0.4478 -0.1857
 4643SOL     OW18337   6.059   3.275   0.679  0.1564 -0.0639 -0.4384
 4643SOL    HW218338   6.075   3.282   0.773  0.0887  0.7315 -0.4818
 4643SOL    HW318339   6.018   3.189   0.668 -2.1807  0.8620  0.5753
 4643SOL    MW418340   6.056   3.264   0.690 -0.1609  0.1632 -0.3104
 4644SOL     OW18341   3.111   3.962   3.613 -0.2617 -0.2578  0.0767
 4644SOL    HW218342   3.035   3.958   3.671 -0.1090  1.9988  0.5227
 4644SOL    HW318343   3.100   4.044   3.565  1.8577  0.0849  0.0980
 4644SOL    MW418344   3.099   3.972   3.614  0.0380  0.0852  0.1384
 4645SOL     OW18345   3.248   4.981   3.811  0.4235 -0.0723 -0.0283
 4645SOL    HW218346   3.308   4.979   3.737 -0.0416  2.8716 -0.6239
 4645SOL    HW318347   3.162   4.959   3.774  0.4012  0.1875 -0.1368
 4645SOL    MW418348   3.244   4.978   3.797  0.3592  0.3504 -0.1212
 4646SOL     OW18349   4.299   4.898   1.239 -0.4098 -0.5153 -0.1392
 4646SOL    HW218350   4.210   4.919   1.268 -1.0566 -1.3792 -1.4042
 4646SOL    HW318351   4.332   4.839   1.307 -1.4300 -1.4876 -0.4406
 4646SOL    MW418352   4.291   4.893   1.252 -0.6297 -0.7576 -0.3459
 4647SOL     OW18353   5.197   2.033   3.184  0.2622 -0.2188 -0.2258
 4647SOL    HW218354   5.233   1.993   3.105  1.1086  0.0831 -0.0020
 4647SOL    HW318355   5.266   2.092   3.215 -0.8459  1.2298 -0.4052
 4647SOL    MW418356   5.211   2.035   3.178  0.2276  0.0122 -0.2199
 4648SOL     OW18357   0.329   5.457   2.013  0.2679  0.1166  1.2368
 4648SOL    HW218358   0.352   5.478   1.923  0.1987 -2.0516  0.6538
 4648SOL    HW318359   0.383   5.516   2.066 -0.4484  2.1734 -0.1737
 4648SOL    MW418360   0.339   5.468   2.008  0.1643  0.1019  0.9738
 4649SOL     OW18361   1.141   1.262   5.534  0.0003  0.3951  0.4483
 4649SOL    HW218362   1.208   1.253   5.601  0.4783  0.5309 -0.0000
 4649SOL    HW318363   1.136   1.175   5.494  0.9014  0.7247 -0.4275
 4649SOL    MW418364   1.149   1.249   5.537  0.1822  0.4565  0.2736
 4650SOL     OW18365   2.453   4.081   3.646  0.1051 -0.2472  0.0431
 4650SOL    HW218366   2.471   4.072   3.740 -1.5994 -3.3706  0.2036
 4650SOL    HW318367   2.522   4.031   3.604 -0.1625 -0.3834 -0.2382
 4650SOL    MW418368   2.464   4.074   3.653 -0.1551 -0.6773  0.0272
 4651SOL     OW18369   2.332   4.518   4.177 -0.3428 -0.2505 -0.0543
 4651SOL    HW218370   2.381   4.440   4.149 -0.3716  0.0183 -0.8797
 4651SOL    HW318371   2.271   4.534   4.105 -1.8948 -0.7742  1.1029
 4651SOL    MW418372   2.331   4.510   4.164 -0.5514 -0.2841 -0.0106
 4652SOL     OW18373   0.352   5.215   5.801 -0.8317 -0.4960  0.1647
 4652SOL    HW218374   0.416   5.144   5.807  0.1778  0.3518 -0.3238
 4652SOL    HW318375   0.330   5.219   5.707 -0.4268  0.2270  0.0973
 4652SOL    MW418376   0.357   5.206   5.789 -0.6451 -0.2887  0.0914
 4653SOL     OW18377   4.821   1.076   2.459 -0.5730 -0.0073  0.4062
 4653SOL    HW218378   4.888   1.081   2.527 -0.2552 -1.7294  0.2912
 4653SOL    HW318379   4.851   1.137   2.391  0.7662 -0.5332  0.4871
 4653SOL    MW418380   4.834   1.084   2.459 -0.3544 -0.3039  0.4017
 4654SOL     OW18381   5.207   3.210   5.851  0.1216 -0.4943  0.9303
 4654SOL    HW218382   5.165   3.282   5.899 -1.3698 -1.0409  0.4853
 4654SOL    HW318383   5.289   3.248   5.819  0.0612  0.5633  1.9440
 4654SOL    MW418384   5.213   3.224   5.853 -0.0831 -0.4269  1.0053
 4655SOL     OW18385   1.035   4.495   1.330 -0.4003  0.3739  0.7798
 4655SOL    HW218386   1.012   4.431   1.262 -0.6404  1.0101  0.2602
 4655SOL    HW318387   1.123   4.468   1.359 -0.3550  0.0097  0.3229
 4655SOL    MW418388   1.044   4.483   1.325 -0.4260  0.4098  0.6510
 4656SOL     OW18389   6.246   1.874   4.565 -0.2551 -0.2402  0.3537
 4656SOL    HW218390   6.184   1.879   4.637 -1.7686  0.4639 -0.9375
 4656SOL    HW318391   6.207   1.813   4.503  0.7581 -0.4313 -0.1274
 4656SOL    MW418392   6.233   1.867   4.566 -0.3211 -0.1725  0.1199
 4657SOL     OW18393   0.857   0.490   3.928  0.1816 -0.0138  0.0022
 4657SOL    HW218394   0.795   0.545   3.977  1.2265  1.7378 -0.5390
 4657SOL    HW318395   0.925   0.551   3.899  2.3250 -1.8968  0.7925
 4657SOL    MW418396   0.858   0.505   3.930  0.6022 -0.0311  0.0351
 4658SOL     OW18397   2.607   1.937   4.726  0.5393 -0.0463 -0.4479
 4658SOL    HW218398   2.693   1.897   4.731  0.8367 -0.0140 -3.3835
 4658SOL    HW318399   2.616   2.005   4.659 -1.2157  1.5448  0.8027
 4658SOL    MW418400   2.619   1.941   4.717  0.3470  0.1679 -0.6702
 4659SOL     OW18401   1.750   2.199   1.408  0.3786 -0.5147 -0.8810
 4659SOL    HW218402   1.735   2.263   1.338 -0.5535  0.6646  0.3374
 4659SOL    HW318403   1.831   2.227   1.449  0.3699 -0.5717 -0.8251
 4659SOL    MW418404   1.758   2.211   1.404  0.2545 -0.3666 -0.7128
 4660SOL     OW18405   4.318   6.351   2.151 -0.4674 -0.1021  0.1984
 4660SOL    HW218406   4.225   6.367   2.165 -0.5527  0.4701 -0.9177
 4660SOL    HW318407   4.362   6.414   2.208 -0.7989  1.2901 -1.0139
 4660SOL    MW418408   4.311   6.362   2.160 -0.5224  0.1571 -0.1088
 4661SOL     OW18409   6.374   1.270   0.655  0.6010  0.1422  0.0308
 4661SOL    HW218410   6.309   1.225   0.710 -0.7762  0.8583 -0.9754
 4661SOL    HW318411   6.456   1.262   0.705 -0.4490  0.1615  1.8560
 4661SOL    MW418412   6.376   1.263   0.669  0.2808  0.2392  0.1389
 4662SOL     OW18413   6.310   1.037   0.487  0.0084  0.0540 -0.2663
 4662SOL    HW218414   6.343   1.112   0.537  0.2443 -1.1278  1.4479
 4662SOL    HW318415   6.230   1.069   0.446 -0.1355  1.1223  0.7879
 4662SOL    MW418416   6.304   1.051   0.488  0.0205  0.0390  0.0989
 4663SOL     OW18417   4.935   1.936   5.950 -0.1602 -0.2594 -0.1601
 4663SOL    HW218418   4.931   1.945   6.046 -1.5796  2.8474 -0.4025
 4663SOL    HW318419   4.844   1.937   5.922  0.2838  0.4765 -1.6348
 4663SOL    MW418420   4.923   1.937   5.959 -0.2889  0.2476 -0.3866
 4664SOL     OW18421   3.187   0.418   0.336  0.2634  0.2383 -0.0127
 4664SOL    HW218422   3.267   0.432   0.286  0.5710  2.1196  0.9020
 4664SOL    HW318423   3.117   0.450   0.279  0.5736  2.0197  0.5478
 4664SOL    MW418424   3.188   0.424   0.322  0.3449  0.7216  0.1819
 4665SOL     OW18425   0.732   0.709   4.360  0.3586 -0.6137  0.0496
 4665SOL    HW218426   0.641   0.726   4.385  1.2759  0.2811  3.1592
 4665SOL    HW318427   0.740   0.614   4.365 -0.3981 -0.7129 -0.3509
 4665SOL    MW418428   0.721   0.699   4.364  0.3798 -0.5088  0.4070
 4666SOL     OW18429   2.658   1.031   6.196 -0.1909 -0.0006  0.5479
 4666SOL    HW218430   2.564   1.017   6.203 -0.4166  1.0835 -0.1718
 4666SOL    HW318431   2.685   1.057   6.285 -0.8354  1.1467  0.4282
 4666SOL    MW418432   2.649   1.033   6.209 -0.3057  0.2938  0.4371
 4667SOL     OW18433   0.164   4.838   5.463 -0.0709  0.0059 -0.2670
 4667SOL    HW218434   0.110   4.815   5.387  1.0831 -0.1189 -1.0762
 4667SOL    HW318435   0.238   4.777   5.459 -0.8257 -1.1436  1.9329
 4667SOL    MW418436   0.167   4.827   5.452 -0.0182 -0.1622 -0.0835
 4668SOL     OW18437   6.292   2.311   3.702 -0.2010 -0.4340  0.2218
 4668SOL    HW218438   6.338   2.256   3.638  1.2128 -1.0506  1.6833
 4668SOL    HW318439   6.296   2.260   3.783 -2.3385  0.1228  0.7270
 4668SOL    MW418440   6.299   2.297   3.704 -0.2965 -0.4419  0.4813
 4669SOL     OW18441   3.171   2.095   3.842  0.1508  0.3473 -0.2943
 4669SOL    HW218442   3.117   2.174   3.846  1.6118  1.3579  2.9817
 4669SOL    HW318443   3.126   2.031   3.898 -1.0089 -1.2778 -2.8972
 4669SOL    MW418444   3.158   2.097   3.850  0.1906  0.2662 -0.2055
 4670SOL     OW18445   0.181   0.661   5.766  0.0707 -0.9283 -0.1673
 4670SOL    HW218446   0.195   0.756   5.766 -0.1904 -0.8865 -0.3634
 4670SOL    HW318447   0.157   0.640   5.856  0.8647 -0.9239  0.0453
 4670SOL    MW418448   0.179   0.671   5.778  0.1410 -0.9222 -0.1652
 4671SOL     OW18449   4.758   5.105   0.289  0.3586 -0.3557 -0.2826
 4671SOL    HW218450   4.707   5.064   0.358 -0.4101  0.5688 -0.2824
 4671SOL    HW318451   4.695   5.122   0.219  1.1453 -1.3654 -1.2664
 4671SOL    MW418452   4.743   5.102   0.289  0.3609 -0.3670 -0.4123
 4672SOL     OW18453   2.415   1.984   2.085 -0.1080 -0.0801  0.3034
 4672SOL    HW218454   2.378   1.940   2.162  1.0137 -1.9063 -0.1338
 4672SOL    HW318455   2.344   2.040   2.054 -1.5072 -1.2908  1.1362
 4672SOL    MW418456   2.401   1.985   2.091 -0.1446 -0.4807  0.3556
 4673SOL     OW18457   1.003   5.639   6.068 -0.0468 -0.4844  0.4048
 4673SOL    HW218458   0.916   5.628   6.031 -0.5603  0.7142  1.1964
 4673SOL    HW318459   1.042   5.710   6.016  0.8717 -1.7206 -0.6348
 4673SOL    MW418460   0.997   5.647   6.057  0.0066 -0.4894  0.3721
 4674SOL     OW18461   6.378   2.828   4.022  0.0654  0.3424 -0.0437
 4674SOL    HW218462   6.321   2.761   3.986 -0.6154  0.7143  0.3048
 4674SOL    HW318463   6.319   2.886   4.070  0.5104  1.6860 -1.0554
 4674SOL    MW418464   6.363   2.827   4.024  0.0343  0.5688 -0.1312
 4675SOL     OW18465   5.630   2.526   2.071 -0.1580 -0.5172  0.5308
 4675SOL    HW218466   5.711   2.475   2.069  0.3067  0.2159 -0.7769
 4675SOL    HW318467   5.574   2.484   2.005  0.0935  0.4137 -0.3012
 4675SOL    MW418468   5.633   2.513   2.062 -0.0635 -0.2977  0.2485
 4676SOL     OW18469   5.500   4.633   0.166  0.0529 -1.1092 -0.0510
 4676SOL    HW218470   5.562   4.705   0.181  0.6401 -1.4156 -0.9365
 4676SOL    HW318471   5.479   4.639   0.073  1.0163 -2.7934 -0.4029
 4676SOL    MW418472   5.506   4.643   0.156  0.2575 -1.3719 -0.2142
 4677SOL     OW18473   6.128   4.334   2.233  0.3320  0.0818 -0.4527
 4677SOL    HW218474   6.100   4.318   2.323  1.2947 -0.5330 -0.2518
 4677SOL    HW318475   6.154   4.426   2.232  0.3761  0.0735 -0.0901
 4677SOL    MW418476   6.127   4.344   2.245  0.4648 -0.0004 -0.3783
 4678SOL     OW18477   4.035   5.733   1.299 -0.4736  0.0562  0.2878
 4678SOL    HW218478   3.952   5.689   1.281  0.4286 -0.9128 -1.9028
 4678SOL    HW318479   4.042   5.800   1.231  0.2368  0.5770  0.8602
 4678SOL    MW418480   4.025   5.736   1.287 -0.2609 -0.0029  0.0743
 4679SOL     OW18481   1.766   5.124   5.576 -0.4986 -0.3252 -0.7885
 4679SOL    HW218482   1.767   5.070   5.497  1.4762 -0.8463 -0.4729
 4679SOL    HW318483   1.782   5.213   5.544  0.1010 -0.5056 -1.0020
 4679SOL    MW418484   1.768   5.128   5.561 -0.1589 -0.4177 -0.7750
 4680SOL     OW18485   1.391   5.442   3.589  0.0629 -0.1297 -0.3054
 4680SOL    HW218486   1.313   5.388   3.601  0.7845 -1.5791 -1.6440
 4680SOL    HW318487   1.411   5.476   3.676 -0.5458 -1.9240  0.5856
 4680SOL    MW418488   1.384   5.439   3.602  0.0778 -0.5577 -0.3645
 4681SOL     OW18489   1.876   2.524   3.218  0.1720 -0.0544  0.2116
 4681SOL    HW218490   1.920   2.440   3.229  1.6986  0.7094  0.1953
 4681SOL    HW318491   1.920   2.565   3.143 -0.8492  0.5863 -0.0645
 4681SOL    MW418492   1.887   2.518   3.209  0.2387  0.1309  0.1730
 4682SOL     OW18493   1.486   3.472   1.228  0.0576  0.0440 -0.2601
 4682SOL    HW218494   1.561   3.499   1.174  1.7808  0.3555  2.1133
 4682SOL    HW318495   1.448   3.554   1.258  1.0504 -0.0630  1.4243
 4682SOL    MW418496   1.491   3.486   1.225  0.4160  0.0710  0.2753
 4683SOL     OW18497   2.764   5.496   2.842  0.5051 -0.0162 -0.0276
 4683SOL    HW218498   2.710   5.539   2.775  1.6934  3.4663  1.0204
 4683SOL    HW318499   2.722   5.517   2.924  0.6949 -1.7092  0.5452
 4683SOL    MW418500   2.752   5.504   2.844  0.6870  0.2199  0.1862
 4684SOL     OW18501   2.687   3.854   0.046  0.3177 -0.0727  0.4832
 4684SOL    HW218502   2.635   3.798   0.103  0.5694  1.2843  2.1497
 4684SOL    HW318503   2.683   3.812  -0.040  1.2471 -3.1405  1.7795
 4684SOL    MW418504   2.680   3.841   0.042  0.4736 -0.2984  0.8741
 4685SOL     OW18505   2.323   0.353   5.410  0.3346 -0.2466  0.1986
 4685SOL    HW218506   2.271   0.324   5.335  1.2555 -1.3605 -0.0474
 4685SOL    HW318507   2.412   0.324   5.390  0.4075 -1.6732  2.2694
 4685SOL    MW418508   2.328   0.345   5.397  0.4658 -0.5818  0.4394
 4686SOL     OW18509   0.065   5.840   4.350 -0.1422 -0.0964 -0.4387
 4686SOL    HW218510   0.089   5.845   4.442 -2.7319 -2.3728  0.5212
 4686SOL    HW318511   0.125   5.775   4.313 -1.8678 -2.6483  0.9020
 4686SOL    MW418512   0.076   5.832   4.357 -0.7116 -0.7334 -0.1352
 4687SOL     OW18513   1.584   4.066   1.866  0.4394  0.2563  0.0870
 4687SOL    HW218514   1.517   3.998   1.867  0.9027 -0.2241  2.1387
 4687SOL    HW318515   1.598   4.084   1.773 -1.1929 -0.9329 -0.4418
 4687SOL    MW418516   1.577   4.060   1.854  0.2852  0.0361  0.2879
 4688SOL     OW18517   4.641   1.440   0.781  0.4345 -0.2275 -0.4855
 4688SOL    HW218518   4.615   1.437   0.873 -0.8127 -0.0193 -0.8097
 4688SOL    HW318519   4.589   1.371   0.740  1.9739 -1.2397 -0.8245
 4688SOL    MW418520   4.630   1.430   0.788  0.4730 -0.3336 -0.5730
 4689SOL     OW18521   4.213   2.465   6.177 -0.0456  0.3860 -0.0606
 4689SOL    HW218522   4.257   2.381   6.164 -0.5632  0.0894  0.0612
 4689SOL    HW318523   4.253   2.501   6.257 -1.5854 -0.9486  1.4089
 4689SOL    MW418524   4.224   2.459   6.186 -0.3170  0.1708  0.1493
 4690SOL     OW18525   4.258   5.301   1.103  0.0004 -0.4108  0.3088
 4690SOL    HW218526   4.260   5.396   1.092 -0.5737 -0.2801  1.2807
 4690SOL    HW318527   4.168   5.276   1.083  0.4306 -0.9252 -1.1365
 4690SOL    MW418528   4.247   5.311   1.099 -0.0186 -0.4615  0.2463
 4691SOL     OW18529   4.690   4.371   5.223 -0.6110  0.1115  0.3330
 4691SOL    HW218530   4.694   4.284   5.264 -2.2811  0.2408  0.8799
 4691SOL    HW318531   4.690   4.354   5.129  2.1505 -0.2618  0.3412
 4691SOL    MW418532   4.690   4.357   5.216 -0.4670  0.0793  0.4062
 4692SOL     OW18533   6.261   2.263   1.366 -0.1098  0.3486 -0.0906
 4692SOL    HW218534   6.345   2.218   1.362 -0.2730 -0.1686  1.6548
 4692SOL    HW318535   6.200   2.204   1.321 -0.2556 -1.1017  1.8845
 4692SOL    MW418536   6.264   2.249   1.359 -0.1506  0.0890  0.4003
 4693SOL     OW18537   5.232   3.980   6.272 -0.2625  0.2564 -0.5763
 4693SOL    HW218538   5.321   4.016   6.277 -0.3375  0.4282 -0.4668
 4693SOL    HW318539   5.176   4.056   6.260 -0.4160  0.1671 -0.4280
 4693SOL    MW418540   5.237   3.995   6.271 -0.2926  0.2673 -0.5423
 4694SOL     OW18541   0.245   4.275   4.837  0.2450  0.1192 -0.2622
 4694SOL    HW218542   0.149   4.269   4.838  0.3054 -0.7882  0.6997
 4694SOL    HW318543   0.275   4.192   4.872  1.3948  0.4614 -0.4053
 4694SOL    MW418544   0.236   4.264   4.842  0.4046  0.0447 -0.1542
 4695SOL     OW18545   3.017   0.891   3.639 -0.2072 -0.4156  0.3359
 4695SOL    HW218546   2.942   0.950   3.644  0.4964  0.6072 -0.5353
 4695SOL    HW318547   3.042   0.892   3.546  1.1417 -0.3613  0.6694
 4695SOL    MW418548   3.011   0.899   3.627  0.0636 -0.2735  0.2649
 4696SOL     OW18549   5.688   1.176   1.281 -0.5977  0.1683  0.0832
 4696SOL    HW218550   5.741   1.251   1.306 -1.7588  0.5898  1.4442
 4696SOL    HW318551   5.722   1.104   1.334  0.5079 -0.2976 -1.2134
 4696SOL    MW418552   5.699   1.176   1.291 -0.6050  0.1624  0.0917
 4697SOL     OW18553   1.375   4.304   5.964  0.5045 -0.4320 -0.0186
 4697SOL    HW218554   1.336   4.386   5.994 -2.9364 -2.3126  1.2563
 4697SOL    HW318555   1.342   4.292   5.875 -0.4721 -1.2174  0.4341
 4697SOL    MW418556   1.366   4.313   5.956 -0.0783 -0.7837  0.2093
 4698SOL     OW18557   4.140   1.469   3.685 -0.3101 -0.1693 -0.2934
 4698SOL    HW218558   4.087   1.516   3.750 -1.1385 -0.8740 -0.4491
 4698SOL    HW318559   4.229   1.473   3.719 -0.7800 -0.8125  1.0611
 4698SOL    MW418560   4.144   1.476   3.698 -0.4814 -0.3471 -0.1352
 4699SOL     OW18561   1.396   0.765   0.867 -0.4059 -0.2270  0.0860
 4699SOL    HW218562   1.486   0.761   0.898  0.3598 -2.3086 -2.1378
 4699SOL    HW318563   1.394   0.841   0.809 -0.2314  0.0812  0.4739
 4699SOL    MW418564   1.407   0.775   0.863 -0.2819 -0.4609 -0.1562
 4700SOL     OW18565   1.753   2.740   2.806  0.0074 -0.2528 -0.0097
 4700SOL    HW218566   1.759   2.763   2.713  0.8783 -0.0821  0.0813
 4700SOL    HW318567   1.679   2.791   2.839 -0.2711 -0.2716 -0.5950
 4700SOL    MW418568   1.744   2.750   2.798  0.0856 -0.2328 -0.0749
 4701SOL     OW18569   2.364   0.375   2.432 -0.0351 -0.2951 -0.3742
 4701SOL    HW218570   2.438   0.349   2.377  0.5838 -0.5422  0.5556
 4701SOL    HW318571   2.400   0.441   2.492 -1.0312  1.0118 -1.1552
 4701SOL    MW418572   2.379   0.380   2.433 -0.0849 -0.1553 -0.3546
 4702SOL     OW18573   1.842   5.934   1.406 -0.1829 -0.0111  0.7062
 4702SOL    HW218574   1.749   5.955   1.413 -0.8165 -2.6150  1.3165
 4702SOL    HW318575   1.857   5.925   1.311 -0.4600  0.7697  0.5855
 4702SOL    MW418576   1.832   5.935   1.394 -0.3031 -0.2517  0.7708
 4703SOL     OW18577   3.452   5.488   5.583  0.6929 -0.2149  0.0849
 4703SOL    HW218578   3.473   5.483   5.489 -0.9444 -1.3673 -0.2632
 4703SOL    HW318579   3.534   5.466   5.626  1.0555 -1.4308 -1.1363
 4703SOL    MW418580   3.466   5.484   5.576  0.5247 -0.5273 -0.1222
 4704SOL     OW18581   6.343   3.011   4.356 -0.2880  0.2791 -0.0978
 4704SOL    HW218582   6.356   3.103   4.378 -0.2377  0.7011 -1.7600
 4704SOL    HW318583   6.431   2.976   4.347 -0.2901  0.4962 -1.0662
 4704SOL    MW418584   6.356   3.018   4.358 -0.2817  0.3634 -0.4449
 4705SOL     OW18585   0.152   3.643   2.654 -0.1376 -0.1132  0.0748
 4705SOL    HW218586   0.139   3.702   2.579  0.6420 -0.5170 -0.3947
 4705SOL    HW318587   0.170   3.701   2.727  0.4369  0.2507 -0.3458
 4705SOL    MW418588   0.153   3.658   2.654  0.0410 -0.1185 -0.0426
 4706SOL     OW18589   2.257   3.247   0.025  0.2402  0.4935 -0.2469
 4706SOL    HW218590   2.317   3.225   0.096  0.2226  0.1253 -0.3447
 4706SOL    HW318591   2.261   3.343   0.019 -1.0206  0.6758  1.3320
 4706SOL    MW418592   2.266   3.257   0.033  0.0715  0.4690 -0.0515
 4707SOL     OW18593   2.400   4.816   6.375  0.0170  0.4275  0.1517
 4707SOL    HW218594   2.481   4.838   6.421 -0.6471  0.7863  1.1912
 4707SOL    HW318595   2.408   4.723   6.355  0.0178  0.0898  1.6642
 4707SOL    MW418596   2.412   4.807   6.378 -0.0705  0.4303  0.4884
 4708SOL     OW18597   2.056   3.573   2.903  0.1589 -0.2818 -0.0786
 4708SOL    HW218598   2.047   3.492   2.853 -0.3130 -0.1973 -0.1386
 4708SOL    HW318599   2.050   3.642   2.837  0.8763 -0.2051 -0.0660
 4708SOL    MW418600   2.054   3.572   2.888  0.1913 -0.2605 -0.0849
 4709SOL     OW18601   4.708   0.115   0.563 -0.4612  0.6377  0.4275
 4709SOL    HW218602   4.682   0.102   0.654  0.0355 -2.2754  0.2476
 4709SOL    HW318603   4.767   0.042   0.544  1.0691  2.2758 -1.6667
 4709SOL    MW418604   4.712   0.104   0.573 -0.1937  0.4695  0.1274
 4710SOL     OW18605   1.657   4.451   5.520  0.1798 -0.5377 -0.0829
 4710SOL    HW218606   1.568   4.429   5.494 -0.1219  0.5570 -0.0302
 4710SOL    HW318607   1.710   4.434   5.442  0.2043 -2.7071  0.3523
 4710SOL    MW418608   1.653   4.446   5.506  0.1432 -0.6795 -0.0185
 4711SOL     OW18609   6.046   5.443   0.518  0.6014 -0.4943 -0.0580
 4711SOL    HW218610   6.093   5.512   0.565  0.6261 -0.5311 -0.0280
 4711SOL    HW318611   6.062   5.364   0.571  0.8827 -0.5975 -0.2945
 4711SOL    MW418612   6.054   5.442   0.531  0.6418 -0.5128 -0.0852
 4712SOL     OW18613   1.875   3.948   0.311 -0.5592 -0.0363 -0.0610
 4712SOL    HW218614   1.847   3.924   0.223 -1.3817 -0.9643  0.4372
 4712SOL    HW318615   1.794   3.950   0.362  0.1380 -1.7434  1.1844
 4712SOL    MW418616   1.860   3.945   0.306 -0.5757 -0.3840  0.1691
 4713SOL     OW18617   2.379   5.958   3.269  0.3155  0.4883 -0.2729
 4713SOL    HW218618   2.385   5.872   3.311  1.0524  0.8405  0.3793
 4713SOL    HW318619   2.384   6.020   3.342 -0.8840  1.0767 -0.6840
 4713SOL    MW418620   2.381   5.955   3.284  0.2545  0.6124 -0.2411
 4714SOL     OW18621   1.036   2.178   3.361 -0.4017 -0.4731  0.0429
 4714SOL    HW218622   1.086   2.110   3.405  0.1382  0.5990  1.1438
 4714SOL    HW318623   0.950   2.139   3.346 -0.3381 -1.1466  1.3446
 4714SOL    MW418624   1.031   2.164   3.365 -0.3220 -0.4205  0.3599
 4715SOL     OW18625   1.478   4.697   4.849  0.5787  0.3851  0.0379
 4715SOL    HW218626   1.563   4.683   4.808  0.1564 -1.9382 -0.1676
 4715SOL    HW318627   1.416   4.653   4.791 -0.6318  0.9913  0.8262
 4715SOL    MW418628   1.481   4.690   4.836  0.3632  0.1586  0.1148
 4716SOL     OW18629   5.790   1.410   0.971  0.5120  0.8850 -0.0606
 4716SOL    HW218630   5.797   1.411   0.876  0.2035 -2.5072 -0.2455
 4716SOL    HW318631   5.739   1.331   0.991  1.0039  1.1980  2.9354
 4716SOL    MW418632   5.784   1.400   0.961  0.5362  0.4787  0.3103
 4717SOL     OW18633   2.083   2.634   3.000 -0.2808 -0.0996  0.2731
 4717SOL    HW218634   2.082   2.724   3.034 -2.4898  0.1086 -0.2031
 4717SOL    HW318635   2.152   2.590   3.050  0.8474  1.8366  0.5170
 4717SOL    MW418636   2.092   2.640   3.011 -0.4234  0.1833  0.2424
 4718SOL     OW18637   3.961   1.250   5.804  0.2961 -0.2336  0.0729
 4718SOL    HW218638   4.002   1.169   5.773 -0.5025 -1.0473  1.0698
 4718SOL    HW318639   3.938   1.298   5.725  0.9465 -0.8928 -0.5282
 4718SOL    MW418640   3.964   1.246   5.790  0.2766 -0.4279  0.1252
 4719SOL     OW18641   5.066   0.085   1.240  0.1710 -0.4304  0.5851
 4719SOL    HW218642   5.098   0.162   1.192  0.0384  0.0316  1.2240
 4719SOL    HW318643   5.077   0.012   1.179 -0.7953  0.2777 -0.4787
 4719SOL    MW418644   5.072   0.086   1.226  0.0260 -0.2760  0.5291
 4720SOL     OW18645   1.536   1.205   4.414 -0.9522  0.4351 -0.3912
 4720SOL    HW218646   1.536   1.293   4.376  1.4118 -0.5401 -2.9718
 4720SOL    HW318647   1.613   1.203   4.471 -3.4878  1.3057  3.4341
 4720SOL    MW418648   1.546   1.217   4.416 -0.9748  0.4213 -0.2269
 4721SOL     OW18649   5.096   1.382   5.543  0.5136 -1.0330  0.3875
 4721SOL    HW218650   5.001   1.385   5.530  0.6249  1.2688 -0.2945
 4721SOL    HW318651   5.113   1.451   5.607  1.7592 -1.2798  0.3349
 4721SOL    MW418652   5.085   1.392   5.549  0.6926 -0.7618  0.2906
 4722SOL     OW18653   1.091   2.670   2.004 -0.0452  0.2749 -0.3664
 4722SOL    HW218654   1.169   2.698   2.052 -0.0911  0.4583 -0.3967
 4722SOL    HW318655   1.019   2.683   2.065  0.0179 -0.4413 -0.1397
 4722SOL    MW418656   1.092   2.675   2.018 -0.0429  0.2046 -0.3405
 4723SOL     OW18657   2.286   2.176   5.879 -0.2805 -0.4306  0.2343
 4723SOL    HW218658   2.306   2.186   5.972 -0.8500 -0.9469  0.4233
 4723SOL    HW318659   2.310   2.086   5.858  0.4092 -0.1365 -0.2741
 4723SOL    MW418660   2.292   2.166   5.888 -0.2647 -0.4599  0.1921
 4724SOL     OW18661   0.882   5.173   0.787  0.1836  0.5255 -0.1307
 4724SOL    HW218662   0.967   5.195   0.824  0.3101  1.1195 -0.7440
 4724SOL    HW318663   0.846   5.258   0.759 -1.0373  0.4210  1.0189
 4724SOL    MW418664   0.888   5.187   0.788  0.0392  0.5901 -0.0599
 4725SOL     OW18665   2.103   1.576   5.192 -0.0366 -0.5846  0.5437
 4725SOL    HW218666   2.110   1.645   5.258 -1.2740  1.0275 -0.8853
 4725SOL    HW318667   2.067   1.501   5.238  0.9887 -0.1563  2.0885
 4725SOL    MW418668   2.099   1.575   5.207 -0.0646 -0.3154  0.5590
 4726SOL     OW18669   3.713   1.184   1.978  0.0155 -0.8082 -0.2625
 4726SOL    HW218670   3.647   1.239   2.021 -0.9519 -1.9823 -0.2079
 4726SOL    HW318671   3.664   1.111   1.941  1.1172 -1.0044 -1.4336
 4726SOL    MW418672   3.698   1.182   1.979  0.0333 -0.9890 -0.4098
 4727SOL     OW18673   0.180   5.668   2.253 -0.1077 -0.1593 -0.3610
 4727SOL    HW218674   0.194   5.753   2.213  1.0714  0.5791  1.4917
 4727SOL    HW318675   0.267   5.630   2.262 -0.3747 -0.5357  0.9177
 4727SOL    MW418676   0.193   5.674   2.249  0.0126 -0.1116  0.0521
 4728SOL     OW18677   1.050   3.617   0.108  0.2844 -0.2729  0.1190
 4728SOL    HW218678   1.096   3.689   0.065 -0.7741 -0.4677 -1.4232
 4728SOL    HW318679   0.993   3.660   0.172  0.6708  0.1494  0.1862
 4728SOL    MW418680   1.048   3.632   0.111  0.1958 -0.2429 -0.0756
 4729SOL     OW18681   3.851   5.509   1.292 -0.0135 -0.0411  0.0049
 4729SOL    HW218682   3.787   5.440   1.306  0.0249 -0.6316 -2.2420
 4729SOL    HW318683   3.918   5.495   1.359 -0.4417 -1.6471  0.1268
 4729SOL    MW418684   3.851   5.498   1.302 -0.0649 -0.3309 -0.2755
 4730SOL     OW18685   1.200   0.638   1.933 -0.3639  0.1693 -1.0257
 4730SOL    HW218686   1.218   0.552   1.896 -1.3619 -0.8706  0.7813
 4730SOL    HW318687   1.261   0.646   2.007 -2.1069 -0.2070  0.5164
 4730SOL    MW418688   1.211   0.628   1.938 -0.7255 -0.0176 -0.5838
 4731SOL     OW18689   3.064   4.168   0.180 -0.2529 -0.1991 -0.0067
 4731SOL    HW218690   3.033   4.078   0.171 -1.9908  0.2961  0.6977
 4731SOL    HW318691   2.994   4.214   0.226  1.1568  1.2200  0.8401
 4731SOL    MW418692   3.051   4.162   0.185 -0.2962  0.0534  0.1980
 4732SOL     OW18693   6.230   2.752   6.142 -0.2441 -0.0990  0.2193
 4732SOL    HW218694   6.279   2.812   6.087  0.6728 -1.1382 -0.1392
 4732SOL    HW318695   6.142   2.749   6.103 -0.1498  0.5866 -0.0599
 4732SOL    MW418696   6.224   2.760   6.130 -0.1106 -0.1456  0.1351
 4733SOL     OW18697   4.121   5.331   4.827  0.1761 -0.2212  0.0021
 4733SOL    HW218698   4.032   5.368   4.833  0.2780 -0.0580  0.5412
 4733SOL    HW318699   4.172   5.383   4.889  0.8884  0.3603 -1.0460
 4733SOL    MW418700   4.116   5.343   4.836  0.2835 -0.1229 -0.0651
 4734SOL     OW18701   2.013   0.934   4.312  0.3133 -0.1575  0.9439
 4734SOL    HW218702   2.003   1.009   4.255 -1.0090 -2.5881 -2.3553
 4734SOL    HW318703   2.102   0.941   4.346  0.5327  2.3728  0.0499
 4734SOL    MW418704   2.023   0.945   4.309  0.1678 -0.1443  0.3907
 4735SOL     OW18705   2.801   6.339   3.020 -0.4512 -0.6646 -0.0183
 4735SOL    HW218706   2.889   6.369   2.999 -0.5891 -1.8349 -2.5672
 4735SOL    HW318707   2.745   6.415   3.002 -0.0796 -0.1282  0.9768
 4735SOL    MW418708   2.805   6.353   3.015 -0.4204 -0.7482 -0.2233
 4736SOL     OW18709   4.935   3.873   0.897  0.0722 -0.6136 -0.0208
 4736SOL    HW218710   4.976   3.805   0.950 -0.2032 -0.9101 -0.1889
 4736SOL    HW318711   4.892   3.826   0.825 -1.9798 -0.4675  1.0469
 4736SOL    MW418712   4.935   3.858   0.894 -0.2349 -0.6335  0.0978
 4737SOL     OW18713   2.737   4.849   2.517 -0.2955  0.0328  0.2285
 4737SOL    HW218714   2.765   4.778   2.459 -0.8169 -0.3050  0.3811
 4737SOL    HW318715   2.649   4.871   2.486 -0.8902 -0.6612  1.3415
 4737SOL    MW418716   2.729   4.842   2.505 -0.4428 -0.1033  0.3955
 4738SOL     OW18717   1.904   2.373   2.359  0.1407 -1.0253 -0.1687
 4738SOL    HW218718   1.997   2.356   2.345  0.5288  1.5372 -1.4334
 4738SOL    HW318719   1.867   2.381   2.271 -0.4723  1.4113  0.2269
 4738SOL    MW418720   1.911   2.372   2.345  0.1111 -0.3657 -0.2833
 4739SOL     OW18721   1.188   4.366   6.380  0.7270  0.5071  0.0938
 4739SOL    HW218722   1.098   4.393   6.398  0.2092 -0.9242 -0.2092
 4739SOL    HW318723   1.186   4.271   6.385  2.5735  0.4896  1.6236
 4739SOL    MW418724   1.176   4.357   6.383  0.9023  0.3159  0.2556
 4740SOL     OW18725   6.361   1.338   3.391  0.5318  0.7126  0.0133
 4740SOL    HW218726   6.376   1.276   3.462 -0.7486  0.0592 -0.2679
 4740SOL    HW318727   6.449   1.364   3.363  1.1092 -1.2891 -0.1475
 4740SOL    MW418728   6.375   1.333   3.397  0.4390  0.3623 -0.0450
 4741SOL     OW18729   0.185   5.776   0.651  0.6042 -0.5073  0.0380
 4741SOL    HW218730   0.102   5.746   0.613  1.1728 -1.0360 -0.8413
 4741SOL    HW318731   0.161   5.820   0.732 -0.5153 -0.8588 -0.0932
 4741SOL    MW418732   0.171   5.778   0.657  0.5315 -0.6234 -0.0953
 4742SOL     OW18733   4.389   0.137   1.614 -0.0909  0.3685 -0.3414
 4742SOL    HW218734   4.452   0.065   1.602  1.4990  1.6423 -0.0654
 4742SOL    HW318735   4.310   0.094   1.648  0.4405 -1.3634 -1.1610
 4742SOL    MW418736   4.387   0.121   1.617  0.1890  0.3081 -0.4131
 4743SOL     OW18737   3.987   4.178   0.289 -0.3519 -0.2873  0.6016
 4743SOL    HW218738   3.951   4.147   0.206 -1.1992 -2.3313  1.6321
 4743SOL    HW318739   3.973   4.272   0.289 -1.8802 -0.4784 -0.8709
 4743SOL    MW418740   3.980   4.186   0.278 -0.6653 -0.5822  0.5433
 4744SOL     OW18741   3.016   2.628   3.231  0.8422  0.1113  0.1939
 4744SOL    HW218742   2.982   2.551   3.186  2.6268 -0.6221  0.0067
 4744SOL    HW318743   2.952   2.647   3.300 -0.0129 -1.0554 -0.2617
 4744SOL    MW418744   3.003   2.620   3.234  0.9648 -0.1394  0.1091
 4745SOL     OW18745   2.600   6.301   1.216 -0.8638 -0.0513  0.2158
 4745SOL    HW218746   2.675   6.345   1.256 -0.0341 -1.2177  0.0009
 4745SOL    HW318747   2.595   6.337   1.128  0.0066 -0.5922 -0.0663
 4745SOL    MW418748   2.609   6.312   1.210 -0.6395 -0.2766  0.1502
 4746SOL     OW18749   0.366   3.398   0.172 -0.0707  0.3438 -0.6581
 4746SOL    HW218750   0.360   3.428   0.263 -0.1341  0.4854 -0.7080
 4746SOL    HW318751   0.292   3.441   0.129  0.3024  0.7321 -0.9057
 4746SOL    MW418752   0.355   3.408   0.179 -0.0298  0.4137 -0.6973
 4747SOL     OW18753   5.777   2.781   3.178  0.5447 -0.0024  1.0359
 4747SOL    HW218754   5.803   2.755   3.266 -0.4870  1.5874  1.8614
 4747SOL    HW318755   5.783   2.877   3.178  2.8326 -0.0275 -1.3963
 4747SOL    MW418756   5.781   2.790   3.190  0.7105  0.2040  0.8239
 4748SOL     OW18757   0.330   5.922   6.289  0.4317 -0.1480 -0.1772
 4748SOL    HW218758   0.415   5.882   6.269  0.7263 -0.4807  1.5416
 4748SOL    HW318759   0.331   6.006   6.244  1.8274 -0.0080  0.0672
 4748SOL    MW418760   0.341   5.927   6.281  0.6547 -0.1735  0.0818
 4749SOL     OW18761   1.474   2.530   5.966  0.1017  0.0234 -0.3591
 4749SOL    HW218762   1.517   2.470   5.906  1.0175  0.6991 -0.4071
 4749SOL    HW318763   1.503   2.502   6.053  1.2250  0.8929 -0.4295
 4749SOL    MW418764   1.484   2.519   5.970  0.3707  0.2273 -0.3747
 4750SOL     OW18765   0.289   1.131   0.313 -0.1982  0.3591 -0.4141
 4750SOL    HW218766   0.368   1.133   0.259  0.2765  1.9473  0.3168
 4750SOL    HW318767   0.254   1.220   0.310 -0.3667  0.4079  1.5918
 4750SOL    MW418768   0.295   1.143   0.305 -0.1578  0.5751 -0.0530
 4751SOL     OW18769   5.282   4.385   5.636 -0.3061  0.1787  0.0997
 4751SOL    HW218770   5.319   4.375   5.724 -0.2909  2.0418  0.3455
 4751SOL    HW318771   5.308   4.305   5.590  1.0826 -0.1008  1.2926
 4751SOL    MW418772   5.291   4.373   5.642 -0.1209  0.3876  0.2896
 4752SOL     OW18773   1.202   1.302   4.421  0.3054  0.1078  0.2821
 4752SOL    HW218774   1.187   1.249   4.343 -2.3448  0.6045  0.3611
 4752SOL    HW318775   1.173   1.390   4.396 -1.8927  0.0127  2.1360
 4752SOL    MW418776   1.196   1.307   4.408 -0.3343  0.1608  0.5371
 4753SOL     OW18777   3.456   5.419   3.224 -0.6263 -0.6043 -0.4636
 4753SOL    HW218778   3.500   5.476   3.161  0.6181 -1.1264 -0.0934
 4753SOL    HW318779   3.490   5.446   3.309 -1.1181 -0.9397 -0.1524
 4753SOL    MW418780   3.466   5.430   3.227 -0.5270 -0.7174 -0.3737
 4754SOL     OW18781   1.045   3.743   1.531  0.0651 -0.0979  0.0426
 4754SOL    HW218782   0.964   3.793   1.540 -0.3519 -1.0357  1.7477
 4754SOL    HW318783   1.022   3.672   1.471  0.1880  0.7069 -1.0003
 4754SOL    MW418784   1.031   3.740   1.524  0.0263 -0.1155  0.1300
 4755SOL     OW18785   0.861   6.271   6.054 -0.4291 -0.6735  0.1175
 4755SOL    HW218786   0.940   6.226   6.086  0.9060  0.9611 -0.7394
 4755SOL    HW318787   0.794   6.250   6.119  0.7836 -1.8415  1.0562
 4755SOL    MW418788   0.863   6.262   6.067 -0.0929 -0.6119  0.1283
 4756SOL     OW18789   5.649   1.183   5.308  0.3633  0.6565 -0.0675
 4756SOL    HW218790   5.571   1.220   5.267 -0.5563 -0.5719  0.4995
 4756SOL    HW318791   5.721   1.205   5.248 -0.6389  0.5366 -1.3554
 4756SOL    MW418792   5.648   1.191   5.295  0.1098  0.4786 -0.1626
 4757SOL     OW18793   3.211   2.759   0.563  0.2270 -0.3576  0.2178
 4757SOL    HW218794   3.258   2.804   0.492 -3.5672  0.0062 -2.3616
 4757SOL    HW318795   3.229   2.666   0.549 -1.5594 -0.4125 -2.2603
 4757SOL    MW418796   3.220   2.753   0.552 -0.5093 -0.3168 -0.4494
 4758SOL     OW18797   4.685   4.929   5.695  0.4399 -0.4284  0.2819
 4758SOL    HW218798   4.731   4.894   5.619 -0.7192 -0.3322 -0.4827
 4758SOL    HW318799   4.629   4.857   5.724 -0.5612  0.1471 -0.1568
 4758SOL    MW418800   4.683   4.915   5.689  0.1549 -0.3398  0.1231
 4759SOL     OW18801   5.337   4.006   0.850 -0.1868  0.3452 -0.2200
 4759SOL    HW218802   5.254   4.040   0.817 -1.7505  0.4437  3.3389
 4759SOL    HW318803   5.313   3.955   0.927  3.0726  0.1244  0.8182
 4759SOL    MW418804   5.323   4.004   0.855  0.0369  0.3290  0.3865
 4760SOL     OW18805   1.218   5.930   5.499 -0.3686  0.3174  0.2361
 4760SOL    HW218806   1.277   5.887   5.560  1.0127  1.7786 -0.0049
 4760SOL    HW318807   1.211   5.870   5.425 -0.2240 -0.4352  0.8226
 4760SOL    MW418808   1.225   5.917   5.498 -0.1673  0.4109  0.2817
 4761SOL     OW18809   5.538   5.818   6.084 -0.0130  0.2016 -0.3296
 4761SOL    HW218810   5.470   5.842   6.146 -1.2275  0.0755 -1.5725
 4761SOL    HW318811   5.502   5.840   5.998  2.4426  2.4304 -0.9265
 4761SOL    MW418812   5.525   5.824   6.081  0.1508  0.4791 -0.5723
 4762SOL     OW18813   1.082   5.905   2.232 -0.0545 -0.0728 -0.0733
 4762SOL    HW218814   1.104   5.998   2.220 -0.8496  0.4218  1.9934
 4762SOL    HW318815   1.151   5.858   2.184  0.6463  1.5590 -0.7390
 4762SOL    MW418816   1.094   5.911   2.224 -0.0669  0.2078  0.1116
 4763SOL     OW18817   5.562   4.794   1.190 -0.1760  0.8656  0.0044
 4763SOL    HW218818   5.474   4.756   1.188 -0.4177  1.4713 -1.2917
 4763SOL    HW318819   5.554   4.876   1.141  0.9526  1.2836  0.4949
 4763SOL    MW418820   5.549   4.800   1.184 -0.0590  1.0007 -0.1019
 4764SOL     OW18821   1.133   5.403   3.307  0.1804 -0.0708 -0.3061
 4764SOL    HW218822   1.183   5.346   3.248  0.3086 -0.7581  0.4443
 4764SOL    HW318823   1.054   5.353   3.329  1.2429 -0.9078  1.9882
 4764SOL    MW418824   1.129   5.389   3.302  0.3375 -0.2719  0.0956
 4765SOL     OW18825   2.084   0.941   2.993  0.1702  0.1659 -0.3437
 4765SOL    HW218826   2.147   0.901   3.052 -0.5989 -0.4152  0.1006
 4765SOL    HW318827   2.137   0.995   2.934  1.1367 -0.7511 -0.3484
 4765SOL    MW418828   2.099   0.943   2.993  0.1962 -0.0318 -0.2857
 4766SOL     OW18829   4.867   1.557   5.912 -0.4221  0.2766  0.0496
 4766SOL    HW218830   4.943   1.549   5.855 -1.0554 -0.6461 -0.7015
 4766SOL    HW318831   4.806   1.491   5.880 -1.0026  0.0675  1.4954
 4766SOL    MW418832   4.869   1.547   5.900 -0.5822  0.1273  0.1413
 4767SOL     OW18833   1.515   3.250   6.216 -0.4210 -0.1994 -0.2599
 4767SOL    HW218834   1.508   3.339   6.180  0.2322  1.3847  3.0611
 4767SOL    HW318835   1.600   3.219   6.186  0.8956  1.7625  1.1695
 4767SOL    MW418836   1.525   3.258   6.207 -0.1611  0.2684  0.3669
 4768SOL     OW18837   4.201   0.018   3.542 -0.1128 -0.3343 -0.4052
 4768SOL    HW218838   4.191   0.067   3.460 -0.0849  0.6717  0.1745
 4768SOL    HW318839   4.251   0.076   3.599  0.1764 -1.1636  0.2158
 4768SOL    MW418840   4.206   0.032   3.539 -0.0710 -0.3110 -0.2468
 4769SOL     OW18841   1.985   6.166   0.762  0.3291  0.4577  0.4162
 4769SOL    HW218842   2.035   6.144   0.841  1.0852  0.4009 -0.0651
 4769SOL    HW318843   1.924   6.093   0.751 -0.7690  1.1314  1.7216
 4769SOL    MW418844   1.984   6.154   0.771  0.2840  0.5391  0.5249
 4770SOL     OW18845   6.093   1.703   5.490  0.2508 -0.1294 -0.8594
 4770SOL    HW218846   6.175   1.727   5.533  0.4887  0.1793 -1.4619
 4770SOL    HW318847   6.063   1.625   5.536  0.0655  0.6481  0.3937
 4770SOL    MW418848   6.100   1.696   5.502  0.2578  0.0139 -0.7736
 4771SOL     OW18849   0.060   5.338   3.939  0.1802  0.3314  0.1553
 4771SOL    HW218850   0.008   5.273   3.891 -0.2904  1.2589 -0.6142
 4771SOL    HW318851   0.125   5.286   3.987 -1.6073 -0.8989  1.3777
 4771SOL    MW418852   0.062   5.323   3.939 -0.1177  0.2914  0.2151
 4772SOL     OW18853   1.305   4.174   4.950 -0.4630  0.2562  0.1821
 4772SOL    HW218854   1.350   4.256   4.965  2.0408 -0.8481 -0.7738
 4772SOL    HW318855   1.246   4.192   4.876  1.0378  0.8817 -0.9085
 4772SOL    MW418856   1.303   4.187   4.942  0.0653  0.1930 -0.0879
 4773SOL     OW18857   4.371   5.391   1.436 -0.7348  0.0799  0.4847
 4773SOL    HW218858   4.376   5.296   1.447 -1.5363 -0.0025  0.1740
 4773SOL    HW318859   4.362   5.403   1.341 -2.8957  0.3513  0.6884
 4773SOL    MW418860   4.371   5.380   1.425 -1.1257  0.1048  0.4706
 4774SOL     OW18861   5.133   4.124   3.502  0.2905  0.0414  0.1389
 4774SOL    HW218862   5.165   4.204   3.459  0.3420  0.3821  0.7965
 4774SOL    HW318863   5.130   4.147   3.595  1.6516 -1.1746  0.5101
 4774SOL    MW418864   5.137   4.138   3.509  0.4769 -0.0741  0.2746
 4775SOL     OW18865   5.158   0.935   5.624 -0.2136 -0.6240 -0.1602
 4775SOL    HW218866   5.183   1.017   5.666  3.8559 -1.0023 -1.4031
 4775SOL    HW318867   5.224   0.921   5.556 -1.3996 -4.3368 -0.8098
 4775SOL    MW418868   5.170   0.944   5.621  0.1668 -1.1638 -0.4099
 4776SOL     OW18869   3.483   0.219   3.674 -0.2472  0.0918 -0.7618
 4776SOL    HW218870   3.491   0.230   3.768  0.4142 -0.3037 -0.7661
 4776SOL    HW318871   3.421   0.147   3.663  1.5675 -1.5737 -0.5525
 4776SOL    MW418872   3.476   0.211   3.685  0.0795 -0.1801 -0.7347
 4777SOL     OW18873   4.507   1.488   5.522 -0.6361  0.0370 -0.3208
 4777SOL    HW218874   4.472   1.441   5.598 -1.8482  1.1690 -0.1458
 4777SOL    HW318875   4.587   1.441   5.500  1.1043  1.0271  3.1365
 4777SOL    MW418876   4.513   1.476   5.529 -0.5664  0.3170  0.1584
 4778SOL     OW18877   3.608   5.257   2.701  0.6938 -0.2234 -0.7893
 4778SOL    HW218878   3.571   5.343   2.681 -1.0278 -0.1808  2.0394
 4778SOL    HW318879   3.557   5.196   2.648 -0.9838  0.1884  0.2806
 4778SOL    MW418880   3.597   5.260   2.691  0.2453 -0.1634 -0.2749
 4779SOL     OW18881   0.162   0.887   1.827 -0.2413  0.1811 -0.5197
 4779SOL    HW218882   0.257   0.882   1.814 -0.0726 -0.0922  0.7209
 4779SOL    HW318883   0.142   0.815   1.886 -1.3233 -0.1301 -1.2341
 4779SOL    MW418884   0.172   0.877   1.833 -0.3618  0.1040 -0.4503
 4780SOL     OW18885   1.485   1.265   1.104  0.1373  0.3850 -0.0843
 4780SOL    HW218886   1.515   1.332   1.165  0.5372 -1.2445  1.6063
 4780SOL    HW318887   1.455   1.314   1.028  2.4259  2.3499  0.1611
 4780SOL    MW418888   1.485   1.280   1.102  0.4920  0.4293  0.1711
 4781SOL     OW18889   5.109   2.907   0.879  0.2625  0.6917 -0.0504
 4781SOL    HW218890   5.117   2.928   0.972 -0.1624  1.8735 -0.2659
 4781SOL    HW318891   5.015   2.898   0.865  0.3417  0.2784 -0.3231
 4781SOL    MW418892   5.098   2.909   0.890  0.2169  0.7931 -0.1148
 4782SOL     OW18893   4.516   1.366   6.000 -0.0613  0.0420  0.0076
 4782SOL    HW218894   4.594   1.379   5.946 -0.6732  0.2918 -0.8289
 4782SOL    HW318895   4.479   1.454   6.010 -1.0731 -0.2569 -0.8979
 4782SOL    MW418896   4.522   1.380   5.994 -0.2755  0.0355 -0.2223
 4783SOL     OW18897   1.822   4.425   5.308 -0.6349  0.4114 -0.0964
 4783SOL    HW218898   1.798   4.412   5.216  0.3214  0.8221 -0.4205
 4783SOL    HW318899   1.872   4.507   5.308  0.9096 -0.4843  0.4812
 4783SOL    MW418900   1.825   4.434   5.296 -0.3050  0.3474 -0.0629
 4784SOL     OW18901   4.770   4.620   1.045 -0.4435 -0.3905  0.1313
 4784SOL    HW218902   4.762   4.596   0.953  0.5431  0.4066 -0.1860
 4784SOL    HW318903   4.685   4.598   1.083 -1.4798  0.8497 -1.3472
 4784SOL    MW418904   4.757   4.614   1.038 -0.4501 -0.1217 -0.1057
 4785SOL     OW18905   0.361   5.502   6.300 -0.3388 -0.0396  0.3373
 4785SOL    HW218906   0.345   5.475   6.391 -1.5510 -1.1092 -0.1541
 4785SOL    HW318907   0.301   5.575   6.285  1.5010  1.7107  1.0489
 4785SOL    MW418908   0.351   5.508   6.310 -0.2560  0.0502  0.3663
 4786SOL     OW18909   0.675   6.223   6.240  0.2363 -0.5131  0.3484
 4786SOL    HW218910   0.593   6.261   6.209  0.0615 -1.1014  0.0894
 4786SOL    HW318911   0.650   6.170   6.315  0.3596 -0.7903  0.1948
 4786SOL    MW418912   0.661   6.221   6.246  0.2295 -0.6273  0.2939
 4787SOL     OW18913   4.161   0.015   4.577 -0.0275 -1.3583 -0.1210
 4787SOL    HW218914   4.134  -0.061   4.525  2.8301 -2.5784 -0.0110
 4787SOL    HW318915   4.180  -0.020   4.664 -0.6551 -0.0990  0.5621
 4787SOL    MW418916   4.160   0.000   4.582  0.2667 -1.3532 -0.0164
 4788SOL     OW18917   0.435   0.768   5.528 -0.2378 -0.3012 -0.0809
 4788SOL    HW218918   0.391   0.807   5.604  0.4819 -1.6821  1.0914
 4788SOL    HW318919   0.496   0.705   5.565  0.5378 -0.6290 -1.8068
 4788SOL    MW418920   0.437   0.765   5.543 -0.0405 -0.5267 -0.1539
 4789SOL     OW18921   3.923   4.814   1.787  0.0273  0.1099  0.2157
 4789SOL    HW218922   4.002   4.837   1.836 -0.2980 -0.1788  0.8785
 4789SOL    HW318923   3.896   4.896   1.746 -0.8618  0.8493  2.1895
 4789SOL    MW418924   3.930   4.828   1.788 -0.1329  0.1694  0.5636
 4790SOL     OW18925   6.396   3.731   1.347  0.2477 -0.5287  0.1868
 4790SOL    HW218926   6.345   3.684   1.282 -1.6253  1.9530 -0.2774
 4790SOL    HW318927   6.481   3.745   1.306 -0.1902 -0.8633 -0.8492
 4790SOL    MW418928   6.401   3.727   1.333 -0.0572 -0.2454 -0.0111
 4791SOL     OW18929   1.173   2.328   5.144  0.3435 -0.1468 -0.4356
 4791SOL    HW218930   1.088   2.308   5.104  0.0079  1.9967 -0.9193
 4791SOL    HW318931   1.181   2.424   5.137  1.8594 -0.0749  1.4993
 4791SOL    MW418932   1.163   2.338   5.137  0.4992  0.1455 -0.2441
 4792SOL     OW18933   2.730   0.359   6.179  0.4195 -0.5943 -0.2612
 4792SOL    HW218934   2.676   0.418   6.127 -0.5076 -1.8693 -0.8046
 4792SOL    HW318935   2.820   0.374   6.148  0.0358 -0.3918 -1.3073
 4792SOL    MW418936   2.735   0.369   6.168  0.2466 -0.7358 -0.4709
 4793SOL     OW18937   2.632   4.633   0.862  0.5641  0.2241  0.0244
 4793SOL    HW218938   2.577   4.702   0.899  0.5663  0.7310 -0.8781
 4793SOL    HW318939   2.702   4.681   0.817  0.7503 -0.3743 -0.3307
 4793SOL    MW418940   2.634   4.648   0.861  0.5889  0.2120 -0.1415
 4794SOL     OW18941   0.565   5.027   5.057 -0.0766 -0.0894 -0.2843
 4794SOL    HW218942   0.473   5.039   5.034 -0.5032 -1.7162  0.3912
 4794SOL    HW318943   0.586   4.938   5.027  1.1720  0.1189 -0.1019
 4794SOL    MW418944   0.556   5.017   5.050  0.0319 -0.2765 -0.1711
 4795SOL     OW18945   5.752   3.641   5.042  0.0167 -0.2322 -0.8637
 4795SOL    HW218946   5.729   3.731   5.017  1.1530 -0.0718 -1.3626
 4795SOL    HW318947   5.709   3.629   5.127  0.1239  0.8967 -0.6328
 4795SOL    MW418948   5.743   3.651   5.050  0.1808 -0.0621 -0.8991
 4796SOL     OW18949   5.217   1.191   1.006 -0.2514  0.0988  0.3201
 4796SOL    HW218950   5.275   1.245   0.953  1.6456 -0.6287  1.5687
 4796SOL    HW318951   5.209   1.109   0.957  0.9162 -0.3052  0.7731
 4796SOL    MW418952   5.223   1.187   0.993  0.1529 -0.0505  0.5446
 4797SOL     OW18953   6.284   3.446   5.063 -0.6153  0.3897 -0.4312
 4797SOL    HW218954   6.201   3.419   5.103 -2.5065  2.1529 -2.8591
 4797SOL    HW318955   6.316   3.367   5.019 -2.5712  0.3197 -1.8533
 4797SOL    MW418956   6.277   3.432   5.063 -1.1229  0.6131 -0.9392
 4798SOL     OW18957   0.601   3.298   5.682 -0.3165 -0.6117 -0.3034
 4798SOL    HW218958   0.596   3.321   5.774 -2.4764 -0.0400 -0.5226
 4798SOL    HW318959   0.551   3.217   5.674  1.5783 -1.8100 -0.6745
 4798SOL    MW418960   0.594   3.290   5.693 -0.3515 -0.6944 -0.3813
 4799SOL     OW18961   4.947   6.111   4.624 -0.2103  0.0699 -0.1811
 4799SOL    HW218962   4.993   6.049   4.568 -0.3419  0.1922 -0.4292
 4799SOL    HW318963   5.016   6.158   4.670 -0.0763  0.3846 -0.6943
 4799SOL    MW418964   4.962   6.109   4.623 -0.2100  0.1276 -0.2816
 4800SOL     OW18965   1.321   0.140   6.412  0.2014  0.5220  0.7360
 4800SOL    HW218966   1.256   0.109   6.476 -0.4977  1.2273  0.3854
 4800SOL    HW318967   1.368   0.209   6.458  0.5436  0.1761  0.9081
 4800SOL    MW418968   1.319   0.145   6.427  0.1543  0.5694  0.7124
 4801SOL     OW18969   5.160   4.411   6.043 -0.0652  0.0309  0.5333
 4801SOL    HW218970   5.104   4.470   6.095 -1.0206  1.6439 -2.1041
 4801SOL    HW318971   5.100   4.345   6.010  0.5364 -0.9872  1.4183
 4801SOL    MW418972   5.145   4.410   6.045 -0.1119  0.1094  0.3021
 4802SOL     OW18973   2.409   0.267   5.073  0.7721 -0.6954  0.3277
 4802SOL    HW218974   2.321   0.302   5.087  1.8965  2.0524  1.2404
 4802SOL    HW318975   2.408   0.235   4.983 -0.7237  0.8081 -0.2472
 4802SOL    MW418976   2.397   0.268   5.063  0.7231 -0.1345  0.3723
 4803SOL     OW18977   5.405   3.065   0.525 -0.0339  0.5327  0.1509
 4803SOL    HW218978   5.364   3.112   0.598 -1.3078 -0.0753 -0.1386
 4803SOL    HW318979   5.428   2.980   0.561 -1.7154 -0.2055 -0.3909
 4803SOL    MW418980   5.403   3.060   0.539 -0.4238  0.3551  0.0412
 4804SOL     OW18981   2.589   2.510   4.131 -0.2291 -0.3502  1.2959
 4804SOL    HW218982   2.597   2.451   4.206  2.1359 -1.1742  0.5151
 4804SOL    HW318983   2.578   2.451   4.056 -1.1048  0.3932  0.8200
 4804SOL    MW418984   2.589   2.494   4.131 -0.0326 -0.3608  1.1301
 4805SOL     OW18985   2.212   6.073   6.280 -0.0438  0.3117  0.0472
 4805SOL    HW218986   2.219   6.032   6.366  1.9876 -3.6019 -1.7337
 4805SOL    HW318987   2.131   6.038   6.243 -0.9873  2.0892  0.2913
 4805SOL    MW418988   2.202   6.063   6.286  0.0997  0.0299 -0.1555
 4806SOL     OW18989   0.910   3.975   2.770  0.5128 -0.2809  0.1545
 4806SOL    HW218990   0.851   3.917   2.818  0.9495 -1.1628 -0.3427
 4806SOL    HW318991   0.971   4.008   2.836  0.3744 -0.5404  0.4145
 4806SOL    MW418992   0.911   3.972   2.785  0.5521 -0.4315  0.1232
 4807SOL     OW18993   2.471   5.653   1.467 -0.1543  0.0287  0.1325
 4807SOL    HW218994   2.541   5.591   1.490 -0.3165  0.2683  1.3635
 4807SOL    HW318995   2.423   5.610   1.397  1.7292  0.2320 -1.3537
 4807SOL    MW418996   2.474   5.639   1.461  0.0728  0.0872  0.0988
 4808SOL     OW18997   3.018   2.486   0.617 -0.2545  0.4845 -0.2056
 4808SOL    HW218998   2.992   2.397   0.639  1.2288 -0.2885 -1.3875
 4808SOL    HW318999   3.104   2.477   0.576  0.1594  2.5130  0.0803
 4808SOL    MW419000   3.026   2.473   0.614 -0.0042  0.6501 -0.3238
 4809SOL     OW19001   2.198   6.201   0.197  0.1945 -0.5884 -0.0862
 4809SOL    HW219002   2.271   6.256   0.169 -0.3830 -0.0013 -0.4552
 4809SOL    HW319003   2.188   6.220   0.290  1.4241 -1.7460  0.3260
 4809SOL    MW419004   2.207   6.211   0.206  0.2805 -0.6637 -0.0805
 4810SOL     OW19005   2.879   6.189   0.886  0.1117  0.2344  0.1755
 4810SOL    HW219006   2.830   6.107   0.890  0.6502 -0.0684  0.7922
 4810SOL    HW319007   2.944   6.181   0.956  0.0184  1.2822  0.3983
 4810SOL    MW419008   2.881   6.177   0.896  0.1704  0.3327  0.2863
 4811SOL     OW19009   2.337   4.713   1.187  0.2483 -0.1803 -0.3889
 4811SOL    HW219010   2.272   4.652   1.153  2.2240 -1.2134 -2.5052
 4811SOL    HW319011   2.366   4.674   1.270 -0.8473 -0.3741 -0.0838
 4811SOL    MW419012   2.332   4.700   1.194  0.3644 -0.3422 -0.6279
 4812SOL     OW19013   3.633   3.947   2.030  0.0696 -0.0636  0.1801
 4812SOL    HW219014   3.660   3.917   2.118  1.2977 -0.9929 -0.4748
 4812SOL    HW319015   3.638   4.042   2.035  1.8176 -0.1369  0.6468
 4812SOL    MW419016   3.637   3.955   2.042  0.4622 -0.1959  0.1553
 4813SOL     OW19017   3.641   5.259   5.089 -0.0111  0.3487 -0.8349
 4813SOL    HW219018   3.639   5.226   5.000 -0.3808 -1.5652 -0.1674
 4813SOL    HW319019   3.705   5.330   5.087  0.9015 -0.4617 -2.3613
 4813SOL    MW419020   3.649   5.264   5.077  0.0606 -0.0107 -0.9482
 4814SOL     OW19021   5.689   3.169   6.146  0.2321 -0.3383  0.2073
 4814SOL    HW219022   5.634   3.157   6.223 -0.9069  0.4275 -0.4615
 4814SOL    HW319023   5.652   3.244   6.100 -0.0369 -1.6301 -1.8493
 4814SOL    MW419024   5.677   3.177   6.150  0.0463 -0.4077 -0.1523
 4815SOL     OW19025   4.337   3.681   3.738  0.0213 -0.2679 -0.1526
 4815SOL    HW219026   4.281   3.648   3.808 -1.0710  0.6361 -0.5763
 4815SOL    HW319027   4.344   3.775   3.754 -0.7692  0.0639 -1.5970
 4815SOL    MW419028   4.331   3.689   3.750 -0.2271 -0.1049 -0.3991
 4816SOL     OW19029   5.444   6.086   3.846 -0.7534  0.0014 -0.0117
 4816SOL    HW219030   5.511   6.097   3.778 -0.5209 -0.6032  0.1166
 4816SOL    HW319031   5.429   5.992   3.850  0.1238 -0.1073  1.6186
 4816SOL    MW419032   5.451   6.075   3.837 -0.6070 -0.0927  0.2203
 4817SOL     OW19033   5.277   2.579   4.043  0.0509 -1.0444 -0.1447
 4817SOL    HW219034   5.264   2.485   4.057 -0.3806 -1.0653 -0.6453
 4817SOL    HW319035   5.362   2.586   4.001  0.2142 -1.1880  0.1609
 4817SOL    MW419036   5.286   2.567   4.039  0.0156 -1.0661 -0.1704
 4818SOL     OW19037   3.629   0.932   4.802  0.5787 -0.7243 -0.6639
 4818SOL    HW219038   3.682   0.908   4.878 -1.4562  0.5870  1.2960
 4818SOL    HW319039   3.610   1.025   4.814 -1.2045 -0.8820 -1.8646
 4818SOL    MW419040   3.633   0.941   4.814  0.0749 -0.5721 -0.5638
 4819SOL     OW19041   0.817   0.645   1.780  0.5077  0.5757 -0.4545
 4819SOL    HW219042   0.828   0.715   1.716 -0.9914  1.4681  0.2230
 4819SOL    HW319043   0.875   0.669   1.852 -1.1246  1.9965  0.4511
 4819SOL    MW419044   0.826   0.657   1.781  0.0946  0.8809 -0.2456
 4820SOL     OW19045   4.930   3.586   2.228 -0.2599  0.2557 -0.3566
 4820SOL    HW219046   5.011   3.551   2.267 -0.0489  0.1780 -0.8509
 4820SOL    HW319047   4.894   3.513   2.178 -1.1773 -0.0150  0.6711
 4820SOL    MW419048   4.936   3.572   2.227 -0.3531  0.2097 -0.2862
 4821SOL     OW19049   4.227   2.731   4.660  0.4006  0.3160  0.0059
 4821SOL    HW219050   4.210   2.704   4.570  0.4222  0.1198  0.0604
 4821SOL    HW319051   4.150   2.701   4.709 -0.0307  1.2122 -0.1044
 4821SOL    MW419052   4.214   2.723   4.655  0.3465  0.4084 -0.0015
 4822SOL     OW19053   5.828   6.228   4.163  0.6507  0.3547  0.1350
 4822SOL    HW219054   5.782   6.256   4.084 -2.0895 -2.1642  0.6411
 4822SOL    HW319055   5.783   6.272   4.235 -0.2683 -1.1852  0.5575
 4822SOL    MW419056   5.816   6.237   4.162  0.1679 -0.1808  0.2575
 4823SOL     OW19057   4.884   0.197   2.466 -0.3858  0.4704 -0.2663
 4823SOL    HW219058   4.866   0.107   2.440  0.6882  0.5503 -1.3677
 4823SOL    HW319059   4.885   0.194   2.562 -0.4595 -0.6634 -0.2852
 4823SOL    MW419060   4.882   0.185   2.475 -0.2538  0.3314 -0.4141
 4824SOL     OW19061   2.201   1.697   0.722 -0.1393 -0.0192  0.3151
 4824SOL    HW219062   2.171   1.762   0.785 -0.2060 -0.2289  0.5009
 4824SOL    HW319063   2.200   1.743   0.638  0.4969  0.4286  0.5442
 4824SOL    MW419064   2.197   1.712   0.719 -0.0642  0.0123  0.3698
 4825SOL     OW19065   0.279   0.612   2.668  0.2982  0.5456 -0.5548
 4825SOL    HW219066   0.297   0.684   2.608  1.1184  0.5214 -0.3559
 4825SOL    HW319067   0.211   0.561   2.625  3.0122 -1.2873 -3.0704
 4825SOL    MW419068   0.272   0.615   2.654  0.7645  0.3006 -0.8605
 4826SOL     OW19069   3.146   5.705   4.180  0.5129  0.2981  0.7603
 4826SOL    HW219070   3.132   5.611   4.198 -2.6397  0.2218 -1.3872
 4826SOL    HW319071   3.067   5.747   4.213  0.9536  1.9291 -0.1797
 4826SOL    MW419072   3.134   5.698   4.187  0.1551  0.5032  0.3530
 4827SOL     OW19073   2.146   0.718   1.544 -0.3308  0.3412  0.5043
 4827SOL    HW219074   2.194   0.641   1.573 -2.1175 -0.9139  0.2928
 4827SOL    HW319075   2.135   0.771   1.623  0.5343  0.1751  0.7414
 4827SOL    MW419076   2.151   0.715   1.558 -0.4524  0.1537  0.5077
 4828SOL     OW19077   0.264   1.534   4.123 -0.1192 -0.0750 -0.2530
 4828SOL    HW219078   0.323   1.573   4.187 -0.6627 -0.6607  0.6420
 4828SOL    HW319079   0.277   1.584   4.043  2.2516 -0.7465 -0.3676
 4828SOL    MW419080   0.273   1.546   4.121  0.1219 -0.2408 -0.1500
 4829SOL     OW19081   5.975   1.631   0.019  0.3632 -0.0182 -0.1192
 4829SOL    HW219082   6.004   1.565   0.082 -0.2078  0.8091  1.0461
 4829SOL    HW319083   5.881   1.636   0.032 -0.0709 -1.2113 -2.4284
 4829SOL    MW419084   5.967   1.623   0.029  0.2306 -0.0665 -0.2701
 4830SOL     OW19085   2.292   2.478   2.503  0.2816  0.3759  0.0237
 4830SOL    HW219086   2.354   2.495   2.432  1.4067  0.0596  0.9123
 4830SOL    HW319087   2.211   2.522   2.475  0.1589 -1.0998 -2.2352
 4830SOL    MW419088   2.289   2.486   2.490  0.4139  0.1395 -0.1571
 4831SOL     OW19089   0.914   2.176   5.703  0.6221  0.3170  0.0516
 4831SOL    HW219090   0.936   2.222   5.623 -0.7680 -2.1933 -1.9173
 4831SOL    HW319091   0.846   2.230   5.744 -0.9595  0.1434 -2.1506
 4831SOL    MW419092   0.908   2.189   5.698  0.2300 -0.0371 -0.4987
 4832SOL     OW19093   3.938   6.068   1.464  0.0885  0.3344 -0.5615
 4832SOL    HW219094   3.993   6.084   1.540 -0.6860  0.3623 -0.0028
 4832SOL    HW319095   3.953   5.976   1.442 -0.0211  0.2075 -0.1033
 4832SOL    MW419096   3.947   6.058   1.471 -0.0281  0.3213 -0.4274
 4833SOL     OW19097   0.066   4.678   6.126 -0.1906 -0.3112  0.2223
 4833SOL    HW219098   0.155   4.653   6.101  0.4384  1.4797  0.5105
 4833SOL    HW319099   0.011   4.637   6.059  1.0286  0.1851 -1.1597
 4833SOL    MW419100   0.071   4.669   6.114  0.0532 -0.0094  0.0780
 4834SOL     OW19101   1.519   1.657   4.059 -0.4409  0.7800  1.0467
 4834SOL    HW219102   1.558   1.575   4.088  0.4668  0.8674  0.0820
 4834SOL    HW319103   1.511   1.649   3.964 -1.6736  1.2448  1.0868
 4834SOL    MW419104   1.523   1.645   4.051 -0.4838  0.8529  0.9247
 4835SOL     OW19105   0.275   4.470   0.553  0.2511 -0.2616  0.0088
 4835SOL    HW219106   0.223   4.543   0.586 -0.9404 -0.6743 -0.8596
 4835SOL    HW319107   0.323   4.507   0.479 -2.5325 -0.9112 -2.2955
 4835SOL    MW419108   0.274   4.485   0.547 -0.2734 -0.4018 -0.4098
 4836SOL     OW19109   1.799   3.234   3.857 -0.3276  0.3270  0.2635
 4836SOL    HW219110   1.754   3.253   3.940 -1.9214  2.5726 -0.9977
 4836SOL    HW319111   1.730   3.238   3.791  1.1226 -0.0598 -1.3499
 4836SOL    MW419112   1.784   3.237   3.859 -0.3465  0.5722 -0.1158
 4837SOL     OW19113   4.694   0.412   2.428 -0.1583 -0.8440  0.2377
 4837SOL    HW219114   4.689   0.486   2.488 -2.9171 -1.0025  0.3507
 4837SOL    HW319115   4.706   0.336   2.486 -0.2437 -0.7463  0.3863
 4837SOL    MW419116   4.695   0.411   2.444 -0.5336 -0.8520  0.2722
 4838SOL     OW19117   0.967   4.073   3.474  0.1397 -0.3692 -0.0561
 4838SOL    HW219118   0.959   4.088   3.379 -1.2332 -1.3311 -0.1228
 4838SOL    HW319119   0.909   4.138   3.514  1.2932  0.5408  0.2015
 4838SOL    MW419120   0.958   4.084   3.466  0.1107 -0.3761 -0.0309
 4839SOL     OW19121   5.230   6.360   3.987  0.4354  0.1623 -0.0664
 4839SOL    HW219122   5.226   6.455   3.990  1.9908  0.2872 -0.7946
 4839SOL    HW319123   5.147   6.331   4.025  0.0102  1.7922  0.3287
 4839SOL    MW419124   5.219   6.368   3.992  0.5845  0.3938 -0.1104
 4840SOL     OW19125   6.325   0.696   1.823  0.6507  0.0025 -0.5982
 4840SOL    HW219126   6.280   0.635   1.881  0.4630  0.4510 -0.2717
 4840SOL    HW319127   6.270   0.774   1.823 -0.6136 -0.7772 -3.1830
 4840SOL    MW419128   6.311   0.698   1.830  0.4591 -0.0412 -0.8961
 4841SOL     OW19129   4.441   3.023   3.559 -0.8369  0.4202  0.1253
 4841SOL    HW219130   4.366   2.985   3.604  0.5205 -2.3764  0.2979
 4841SOL    HW319131   4.516   2.999   3.614  0.4168  0.9652 -1.2791
 4841SOL    MW419132   4.441   3.015   3.572 -0.4924  0.1231 -0.0372
 4842SOL     OW19133   6.368   0.197   2.684 -0.1624 -0.2771  0.2994
 4842SOL    HW219134   6.382   0.287   2.712 -1.9327 -0.2973  1.4132
 4842SOL    HW319135   6.445   0.149   2.715 -0.6342  0.2934  2.4739
 4842SOL    MW419136   6.380   0.202   2.692 -0.4582 -0.2045  0.7333
 4843SOL     OW19137   6.026   5.700   4.453 -0.2675 -0.1938 -0.5477
 4843SOL    HW219138   6.001   5.619   4.407 -2.0356  0.1693 -0.2732
 4843SOL    HW319139   6.122   5.694   4.460 -0.1262 -1.1747 -2.5525
 4843SOL    MW419140   6.036   5.688   4.448 -0.4822 -0.2753 -0.7760
 4844SOL     OW19141   1.035   6.399   3.274 -0.0365  0.0667  0.2770
 4844SOL    HW219142   1.038   6.474   3.332  0.9604 -0.3441  0.7823
 4844SOL    HW319143   1.090   6.424   3.199 -0.2914  0.1084  0.1003
 4844SOL    MW419144   1.043   6.412   3.271  0.0614  0.0180  0.3203
 4845SOL     OW19145   4.741   5.795   2.458  0.5491 -0.0593  0.4384
 4845SOL    HW219146   4.802   5.853   2.504  0.6530  0.9702 -0.8984
 4845SOL    HW319147   4.730   5.836   2.372  0.2613 -1.8155 -0.4091
 4845SOL    MW419148   4.748   5.808   2.452  0.5248 -0.1552  0.1502
 4846SOL     OW19149   1.388   3.269   3.643 -0.2718  0.0431 -0.1699
 4846SOL    HW219150   1.473   3.263   3.599 -0.4387  1.1248 -0.6751
 4846SOL    HW319151   1.334   3.202   3.601  0.2113 -0.3777 -0.1241
 4846SOL    MW419152   1.392   3.260   3.632 -0.2301  0.1303 -0.2305
 4847SOL     OW19153   2.019   4.797   3.678 -0.1733 -0.1135  0.2294
 4847SOL    HW219154   1.971   4.743   3.614  0.5296  0.4126 -0.7699
 4847SOL    HW319155   2.018   4.745   3.758  1.6097 -2.2810 -1.0124
 4847SOL    MW419156   2.012   4.783   3.680  0.1547 -0.3301 -0.0663
 4848SOL     OW19157   6.225   0.176   3.692  0.7158  0.0631  0.2765
 4848SOL    HW219158   6.231   0.216   3.605  1.5447 -1.7081 -0.5281
 4848SOL    HW319159   6.138   0.134   3.694 -0.8475  3.0100  1.7130
 4848SOL    MW419160   6.214   0.176   3.681  0.6189  0.2182  0.3599
 4849SOL     OW19161   0.844   0.218   6.323 -0.3014  0.0850  0.1710
 4849SOL    HW219162   0.787   0.255   6.255  0.3961  2.3174  0.7160
 4849SOL    HW319163   0.931   0.218   6.283 -0.1641 -0.2340  0.4698
 4849SOL    MW419164   0.848   0.223   6.308 -0.1912  0.3375  0.2824
 4850SOL     OW19165   4.304   1.188   3.565  0.5570 -0.5032 -0.4883
 4850SOL    HW219166   4.365   1.116   3.551 -0.2207 -1.0792 -0.9783
 4850SOL    HW319167   4.261   1.200   3.481  0.5239  0.4002 -0.3533
 4850SOL    MW419168   4.306   1.180   3.552  0.4500 -0.4600 -0.5352
 4851SOL     OW19169   3.785   6.105   6.373 -0.5777  0.1626  0.0965
 4851SOL    HW219170   3.779   6.148   6.459 -1.1975 -0.2593  0.2748
 4851SOL    HW319171   3.877   6.112   6.349  0.0553 -1.4707  1.7381
 4851SOL    MW419172   3.796   6.112   6.381 -0.5760 -0.1086  0.3366
 4852SOL     OW19173   1.840   5.810   3.280 -0.5987  0.0432 -0.1361
 4852SOL    HW219174   1.851   5.863   3.201 -1.6748 -1.3338 -1.2773
 4852SOL    HW319175   1.765   5.850   3.325 -0.3716  0.4667 -0.1318
 4852SOL    MW419176   1.832   5.822   3.276 -0.7107 -0.0826 -0.2861
 4853SOL     OW19177   1.146   0.595   3.312 -0.3993 -0.0759 -0.0448
 4853SOL    HW219178   1.176   0.679   3.276 -0.1782 -0.4293 -0.7145
 4853SOL    HW319179   1.085   0.619   3.382 -1.7301  0.6628 -1.3954
 4853SOL    MW419180   1.142   0.609   3.316 -0.5457 -0.0251 -0.3114
 4854SOL     OW19181   4.926   2.410   2.750  0.3270 -0.1843 -0.2003
 4854SOL    HW219182   4.956   2.342   2.811  0.3415 -1.1895 -1.2878
 4854SOL    HW319183   4.833   2.419   2.767  0.0662 -1.3796 -0.8494
 4854SOL    MW419184   4.918   2.402   2.760  0.2945 -0.4746 -0.4294
 4855SOL     OW19185   5.898   5.250   5.810  0.0375 -0.3405 -0.2147
 4855SOL    HW219186   5.848   5.286   5.736  1.0463  2.6444  0.4026
 4855SOL    HW319187   5.837   5.249   5.883 -0.4411 -1.5063 -0.6102
 4855SOL    MW419188   5.884   5.255   5.810  0.1075 -0.1005 -0.1854
 4856SOL     OW19189   4.318   3.867   6.062  0.2472 -0.5345 -0.8466
 4856SOL    HW219190   4.382   3.799   6.039  1.4610  0.2054  0.2005
 4856SOL    HW319191   4.369   3.948   6.063 -0.5994  0.0101  0.4807
 4856SOL    MW419192   4.333   3.869   6.059  0.2956 -0.3651 -0.5334
 4857SOL     OW19193   5.742   1.367   5.505  0.1560 -0.2453  0.0828
 4857SOL    HW219194   5.709   1.327   5.425  1.0956 -0.6049 -0.1349
 4857SOL    HW319195   5.666   1.409   5.544 -0.5345 -0.9926 -0.4406
 4857SOL    MW419196   5.728   1.368   5.500  0.1889 -0.3914 -0.0150
 4858SOL     OW19197   5.880   4.102   4.142 -0.2109  0.3051 -0.4377
 4858SOL    HW219198   5.881   4.030   4.205 -1.4856  0.0140 -0.7123
 4858SOL    HW319199   5.917   4.176   4.191 -1.2944  0.1226  0.7465
 4858SOL    MW419200   5.885   4.102   4.157 -0.5220  0.2426 -0.3177
 4859SOL     OW19201   4.945   0.870   5.928  0.1878 -0.3590  0.4998
 4859SOL    HW219202   5.014   0.848   5.991 -0.3377 -1.3409  0.7499
 4859SOL    HW319203   4.867   0.880   5.983  0.3599  2.1456  0.4115
 4859SOL    MW419204   4.944   0.868   5.944  0.1411 -0.1581  0.5212
 4860SOL     OW19205   5.644   0.576   2.693 -0.4923 -0.7170  0.2027
 4860SOL    HW219206   5.726   0.616   2.724 -0.7300  0.5185 -0.6875
 4860SOL    HW319207   5.643   0.593   2.599 -1.0552 -2.0744 -0.0635
 4860SOL    MW419208   5.655   0.584   2.684 -0.5979 -0.7330  0.0501
 4861SOL     OW19209   0.054   3.500   1.087 -0.3097  0.0859 -0.1624
 4861SOL    HW219210   0.078   3.440   1.016 -0.2447  0.0504 -0.1101
 4861SOL    HW319211   0.020   3.443   1.156 -2.1871  0.2510 -0.8866
 4861SOL    MW419212   0.052   3.485   1.087 -0.5489  0.1030 -0.2510
 4862SOL     OW19213   3.783   2.789   2.515 -0.6487 -0.2009 -0.3897
 4862SOL    HW219214   3.744   2.746   2.591 -0.5620  0.0957 -0.1769
 4862SOL    HW319215   3.812   2.716   2.459  1.1060 -0.4695  0.7850
 4862SOL    MW419216   3.782   2.774   2.518 -0.4058 -0.1972 -0.2067
 4863SOL     OW19217   2.400   3.811   3.811  0.1177 -0.3406 -0.6334
 4863SOL    HW219218   2.405   3.889   3.756 -1.5117  2.0719  2.3264
 4863SOL    HW319219   2.309   3.782   3.804 -0.2165  0.2378  1.0043
 4863SOL    MW419220   2.389   3.817   3.803 -0.1414  0.0541 -0.0268
 4864SOL     OW19221   0.797   3.012   0.169 -0.0543 -0.4119  0.2949
 4864SOL    HW219222   0.714   2.966   0.180 -0.4035 -0.0380 -0.7188
 4864SOL    HW319223   0.808   3.021   0.075  1.3495 -0.8207  0.3915
 4864SOL    MW419224   0.787   3.007   0.158  0.0848 -0.4165  0.1739
 4865SOL     OW19225   2.492   2.329   6.308 -0.4711  0.1261 -0.5101
 4865SOL    HW219226   2.575   2.287   6.283 -0.8997 -0.1080 -1.5854
 4865SOL    HW319227   2.508   2.422   6.295  0.3099  0.3093  1.3757
 4865SOL    MW419228   2.505   2.336   6.303 -0.4246  0.1194 -0.4032
 4866SOL     OW19229   0.089   5.858   3.172  0.0605 -0.4084 -0.0109
 4866SOL    HW219230   0.007   5.810   3.164  0.0841 -0.7005  1.2580
 4866SOL    HW319231   0.067   5.937   3.221  0.1544  0.5744 -1.4991
 4866SOL    MW419232   0.075   5.862   3.178  0.0760 -0.3173 -0.0398
 4867SOL     OW19233   3.858   4.065   0.513  0.7588 -0.2908 -0.1010
 4867SOL    HW219234   3.906   4.108   0.442  1.2333  0.0140  0.3907
 4867SOL    HW319235   3.888   4.110   0.592 -0.0551 -0.3587  0.2554
 4867SOL    MW419236   3.869   4.077   0.514  0.7140 -0.2595  0.0109
 4868SOL     OW19237   1.541   1.378   3.364  0.2824  0.1710 -0.1608
 4868SOL    HW219238   1.574   1.462   3.333  1.4031 -0.3658 -0.4771
 4868SOL    HW319239   1.617   1.336   3.404 -0.9714  0.6873  3.1240
 4868SOL    MW419240   1.555   1.383   3.365  0.2649  0.1683  0.2308
 4869SOL     OW19241   2.861   1.922   1.151  0.2564 -0.0950  0.2929
 4869SOL    HW219242   2.936   1.942   1.207  0.6638 -0.8529  0.0402
 4869SOL    HW319243   2.872   1.830   1.129 -0.7802 -0.2254  0.2810
 4869SOL    MW419244   2.872   1.913   1.156  0.1734 -0.2122  0.2580
 4870SOL     OW19245   1.408   4.712   3.874 -0.0886 -0.3715  0.3371
 4870SOL    HW219246   1.402   4.744   3.784 -1.3457 -0.9698  0.1818
 4870SOL    HW319247   1.479   4.763   3.913 -1.7110  2.3433  0.0175
 4870SOL    MW419248   1.416   4.723   3.867 -0.4685 -0.0923  0.2744
 4871SOL     OW19249   3.703   3.833   2.278  0.1378  0.3359 -0.9636
 4871SOL    HW219250   3.645   3.855   2.351  0.4022  0.8076 -0.8880
 4871SOL    HW319251   3.791   3.851   2.312  0.4602 -1.8098 -0.5477
 4871SOL    MW419252   3.707   3.839   2.292  0.2152  0.1151 -0.8987
 4872SOL     OW19253   3.519   5.395   0.939  0.2684 -0.1202  0.8201
 4872SOL    HW219254   3.499   5.382   1.032  2.1817  0.2232  1.3180
 4872SOL    HW319255   3.526   5.490   0.929 -0.8781 -0.0900  0.0775
 4872SOL    MW419256   3.517   5.406   0.950  0.3696 -0.0709  0.7878
 4873SOL     OW19257   5.715   3.099   4.590  0.2070  0.0364  0.8053
 4873SOL    HW219258   5.769   3.168   4.552 -1.9058  1.0095 -0.6337
 4873SOL    HW319259   5.776   3.048   4.644  2.4809  1.1459 -0.5395
 4873SOL    MW419260   5.730   3.102   4.592  0.2282  0.3112  0.4380
 4874SOL     OW19261   1.955   0.805   3.473  0.2421 -0.4570  0.0830
 4874SOL    HW219262   1.880   0.773   3.423 -1.4876  1.1826  1.4894
 4874SOL    HW319263   1.980   0.731   3.528 -1.5765 -0.4839  0.9414
 4874SOL    MW419264   1.949   0.791   3.474 -0.2261 -0.2442  0.3818
 4875SOL     OW19265   3.085   2.055   1.304  0.4891 -0.1547  0.3236
 4875SOL    HW219266   3.019   2.124   1.299  1.5481  0.9567  1.1168
 4875SOL    HW319267   3.068   2.011   1.387  0.4440 -0.1929  0.2943
 4875SOL    MW419268   3.074   2.058   1.314  0.6229 -0.0131  0.4244
 4876SOL     OW19269   1.528   3.034   5.965  0.0081  0.1784  0.3240
 4876SOL    HW219270   1.582   2.964   5.931 -0.5927  0.0214 -0.3378
 4876SOL    HW319271   1.567   3.114   5.929 -0.4422  0.0356 -0.5211
 4876SOL    MW419272   1.540   3.035   5.956 -0.1306  0.1388  0.1252
 4877SOL     OW19273   1.993   0.056   2.589 -0.1033 -0.1724  0.2073
 4877SOL    HW219274   1.929   0.122   2.614 -0.6844 -0.0867 -1.3620
 4877SOL    HW319275   2.078   0.095   2.610 -0.5155  0.0168  1.6178
 4877SOL    MW419276   1.995   0.070   2.595 -0.2343 -0.1361  0.1864
 4878SOL     OW19277   0.672   6.095   4.270  0.4694 -0.8136 -0.1739
 4878SOL    HW219278   0.637   6.131   4.352 -1.9621  0.0042 -1.4547
 4878SOL    HW319279   0.759   6.134   4.262  0.3409 -0.0911  1.4894
 4878SOL    MW419280   0.679   6.105   4.280  0.1316 -0.6104 -0.1234
 4879SOL     OW19281   1.651   2.623   2.381  0.4354  1.1821 -0.0416
 4879SOL    HW219282   1.709   2.553   2.352 -0.1714 -0.1956  1.9174
 4879SOL    HW319283   1.633   2.673   2.301 -0.1753 -1.6781 -1.8477
 4879SOL    MW419284   1.656   2.620   2.366  0.2748  0.6229 -0.0214
 4880SOL     OW19285   1.579   1.326   2.953 -0.1590 -0.0140 -0.0326
 4880SOL    HW219286   1.625   1.242   2.946 -0.9135 -0.3730 -0.9495
 4880SOL    HW319287   1.514   1.311   3.021 -0.5662 -0.3147 -0.4816
 4880SOL    MW419288   1.577   1.313   2.961 -0.3122 -0.1010 -0.2128
 4881SOL     OW19289   0.574   4.946   4.709  0.0736  0.2958  0.7032
 4881SOL    HW219290   0.574   4.864   4.660 -0.3975 -0.1215  1.3825
 4881SOL    HW319291   0.602   4.921   4.798 -0.9736  0.7019  1.1619
 4881SOL    MW419292   0.578   4.932   4.714 -0.1267  0.2943  0.8533
 4882SOL     OW19293   4.499   2.536   4.358 -0.2313 -0.7632 -0.5143
 4882SOL    HW219294   4.513   2.615   4.306 -0.4713 -1.1626 -1.2075
 4882SOL    HW319295   4.490   2.567   4.448  1.4604 -0.1685 -0.5190
 4882SOL    MW419296   4.499   2.550   4.363 -0.0398 -0.7374 -0.6064
 4883SOL     OW19297   4.117   6.126   0.864  0.1290 -0.3248  0.4143
 4883SOL    HW219298   4.141   6.035   0.848  0.9584 -0.1290  0.4966
 4883SOL    HW319299   4.148   6.144   0.952  0.7579  0.2921  0.0747
 4883SOL    MW419300   4.124   6.116   0.873  0.3214 -0.2176  0.3803
 4884SOL     OW19301   1.898   5.511   2.292  0.3154 -0.1964 -0.2865
 4884SOL    HW219302   1.904   5.606   2.283  0.3941 -0.1823 -0.0949
 4884SOL    HW319303   1.806   5.491   2.277  0.5763 -0.2659 -1.9568
 4884SOL    MW419304   1.887   5.521   2.289  0.3602 -0.2037 -0.4816
 4885SOL     OW19305   5.935   2.994   1.529 -0.3370  0.2324 -0.2300
 4885SOL    HW219306   5.904   2.931   1.464 -1.3767 -0.4981  0.9285
 4885SOL    HW319307   5.858   3.048   1.549  0.3737  1.4806 -0.7315
 4885SOL    MW419308   5.921   2.993   1.523 -0.3804  0.3007 -0.1433
 4886SOL     OW19309   0.665   4.546   5.840  0.8973  0.4982 -0.1147
 4886SOL    HW219310   0.745   4.578   5.798  3.4053 -0.3824  3.5233
 4886SOL    HW319311   0.637   4.618   5.897 -0.3333  0.3925 -0.5516
 4886SOL    MW419312   0.672   4.560   5.842  1.0659  0.3680  0.3076
 4887SOL     OW19313   2.753   4.293   3.465  0.1138 -0.6586 -0.1767
 4887SOL    HW219314   2.720   4.311   3.377 -0.6779 -0.8657  0.0654
 4887SOL    HW319315   2.674   4.284   3.518  0.5785  1.2158  0.9279
 4887SOL    MW419316   2.738   4.294   3.460  0.0707 -0.4386  0.0009
 4888SOL     OW19317   4.383   3.122   1.242  0.2704 -0.1649 -0.1240
 4888SOL    HW219318   4.373   3.170   1.159  0.1733 -0.1354 -0.0960
 4888SOL    HW319319   4.309   3.061   1.242 -0.8425  1.1109  0.8002
 4888SOL    MW419320   4.372   3.121   1.231  0.1107  0.0073  0.0016
 4889SOL     OW19321   5.608   0.116   1.415  0.2651 -0.4854 -0.2262
 4889SOL    HW219322   5.547   0.126   1.488  2.1985  0.1914  1.3845
 4889SOL    HW319323   5.586   0.188   1.355  0.1991  0.4575  0.8923
 4889SOL    MW419324   5.597   0.127   1.416  0.5115 -0.2717  0.1339
 4890SOL     OW19325   0.770   2.289   1.628  0.2906 -0.1963 -0.5243
 4890SOL    HW219326   0.818   2.292   1.711 -1.9201  1.3842  0.7906
 4890SOL    HW319327   0.834   2.316   1.562  1.9596 -0.9705  0.7056
 4890SOL    MW419328   0.785   2.293   1.630  0.2191 -0.0899 -0.1885
 4891SOL     OW19329   5.820   4.890   3.416 -0.0702 -0.0582 -0.3245
 4891SOL    HW219330   5.752   4.954   3.396 -0.2021 -0.5003 -1.3274
 4891SOL    HW319331   5.807   4.869   3.508 -1.1402  0.0334 -0.4494
 4891SOL    MW419332   5.809   4.896   3.426 -0.2288 -0.1044 -0.4733
 4892SOL     OW19333   4.903   3.807   2.436  0.2402  0.0777  0.1522
 4892SOL    HW219334   4.993   3.793   2.465 -0.8279 -1.6430  2.9993
 4892SOL    HW319335   4.888   3.738   2.371  1.2577  1.0750 -1.1906
 4892SOL    MW419336   4.913   3.796   2.431  0.2335 -0.0177  0.3507
 4893SOL     OW19337   2.015   4.749   4.561 -0.1284  0.4156  0.0562
 4893SOL    HW219338   1.958   4.826   4.565 -1.1193 -0.3131  0.2786
 4893SOL    HW319339   1.994   4.699   4.639  0.6386 -0.0039  0.0097
 4893SOL    MW419340   2.005   4.753   4.572 -0.1579  0.2641  0.0794
 4894SOL     OW19341   0.615   4.466   1.960  0.4285  0.0444 -0.2131
 4894SOL    HW219342   0.528   4.433   1.937  0.2072  0.7024 -0.3527
 4894SOL    HW319343   0.648   4.506   1.880  0.3725  0.8143  0.1320
 4894SOL    MW419344   0.608   4.467   1.947  0.3919  0.2328 -0.1860
 4895SOL     OW19345   4.029   1.843   2.670 -0.1382  0.4637 -0.3787
 4895SOL    HW219346   4.113   1.809   2.702 -1.3264 -1.6838  0.6391
 4895SOL    HW319347   4.004   1.783   2.600 -1.6407 -0.0221  0.5220
 4895SOL    MW419348   4.037   1.830   2.665 -0.4932  0.1162 -0.1256
 4896SOL     OW19349   6.064   6.262   2.193 -0.5525  0.2607  0.5482
 4896SOL    HW219350   6.095   6.352   2.178  1.6881 -0.5701 -0.1989
 4896SOL    HW319351   6.049   6.227   2.106 -1.1671 -0.1909  0.8302
 4896SOL    MW419352   6.066   6.269   2.180 -0.3379  0.0915  0.4869
 4897SOL     OW19353   2.607   2.580   0.771  0.1331  0.7499 -0.2697
 4897SOL    HW219354   2.699   2.578   0.795  0.5977  0.7396 -1.9215
 4897SOL    HW319355   2.585   2.673   0.766  0.3388  0.7745 -0.8264
 4897SOL    MW419356   2.616   2.592   0.773  0.2216  0.7518 -0.5611
 4898SOL     OW19357   5.357   5.146   0.516  0.1472  0.0440  0.5382
 4898SOL    HW219358   5.378   5.162   0.608  0.0187  2.0680  0.2533
 4898SOL    HW319359   5.262   5.139   0.513 -0.0372  1.9658  0.3475
 4898SOL    MW419360   5.347   5.147   0.527  0.1059  0.5646  0.4754
 4899SOL     OW19361   3.855   4.897   2.860 -0.2746 -0.1187  1.1720
 4899SOL    HW219362   3.879   4.895   2.952 -0.8160 -1.8626  1.3088
 4899SOL    HW319363   3.797   4.822   2.848 -0.1467  0.0097 -0.6070
 4899SOL    MW419364   3.851   4.887   2.870 -0.3292 -0.3318  0.9553
 4900SOL     OW19365   3.842   4.401   2.798  0.2640 -0.1992  0.1549
 4900SOL    HW219366   3.853   4.346   2.721  1.3756 -0.3007  0.3798
 4900SOL    HW319367   3.922   4.453   2.802  0.3203 -0.3549  1.3622
 4900SOL    MW419368   3.854   4.401   2.788  0.4181 -0.2331  0.3439
 4901SOL     OW19369   6.105   1.517   3.477 -0.2139  0.1546 -0.2544
 4901SOL    HW219370   6.167   1.446   3.493 -1.3288 -0.8925 -0.4001
 4901SOL    HW319371   6.021   1.483   3.507 -0.9135  1.1539 -0.9752
 4901SOL    MW419372   6.102   1.503   3.483 -0.4533  0.1483 -0.3687
 4902SOL     OW19373   5.909   2.816   2.447 -0.4609 -0.6354 -0.0723
 4902SOL    HW219374   5.925   2.812   2.352 -0.1783 -0.3129 -0.0423
 4902SOL    HW319375   5.995   2.838   2.484 -0.0059 -3.0314  0.4620
 4902SOL    MW419376   5.923   2.818   2.439 -0.3636 -0.9090  0.0021
 4903SOL     OW19377   5.467   0.539   1.416 -0.4528  0.1867  0.5051
 4903SOL    HW219378   5.553   0.525   1.456  0.1160 -2.1971 -1.3236
 4903SOL    HW319379   5.434   0.451   1.398 -2.4159  1.0838 -0.6252
 4903SOL    MW419380   5.474   0.525   1.419 -0.6368 -0.0095  0.1147
 4904SOL     OW19381   3.013   1.153   0.497 -0.1197 -0.3963  0.1415
 4904SOL    HW219382   3.075   1.093   0.455 -0.1846 -0.8283  0.6488
 4904SOL    HW319383   2.965   1.098   0.559  0.1069  0.2560  0.9208
 4904SOL    MW419384   3.015   1.138   0.500 -0.0984 -0.3672  0.3113
 4905SOL     OW19385   0.059   5.946   0.845 -0.0553 -0.1409  0.6317
 4905SOL    HW219386  -0.007   5.975   0.782  1.0499  1.0371 -0.0274
 4905SOL    HW319387   0.071   6.021   0.903  0.6192 -0.3886  0.8163
 4905SOL    MW419388   0.051   5.960   0.844  0.1796 -0.0182  0.5691
 4906SOL     OW19389   3.313   5.333   4.200  0.5016 -0.3876  0.1258
 4906SOL    HW219390   3.226   5.372   4.213  0.4622 -0.8146  1.3319
 4906SOL    HW319391   3.305   5.281   4.120 -0.1317  0.1788 -0.1855
 4906SOL    MW419392   3.300   5.331   4.191  0.4128 -0.3692  0.2438
 4907SOL     OW19393   2.963   5.047   1.600  0.2483  0.3915  0.5897
 4907SOL    HW219394   2.890   5.043   1.662 -0.1059 -0.2284  0.1567
 4907SOL    HW319395   2.958   4.964   1.553  0.7376  0.6912 -0.0055
 4907SOL    MW419396   2.952   5.036   1.602  0.2661  0.3493  0.4540
 4908SOL     OW19397   5.462   2.877   2.750  0.3622 -0.0511 -0.3419
 4908SOL    HW219398   5.519   2.820   2.802 -0.4217 -0.9567 -0.4501
 4908SOL    HW319399   5.468   2.842   2.662  0.1269  0.2460 -0.4768
 4908SOL    MW419400   5.470   2.865   2.745  0.2277 -0.1314 -0.3740
 4909SOL     OW19401   5.588   3.964   1.081 -0.2950 -0.2976  0.2558
 4909SOL    HW219402   5.540   3.891   1.041 -1.3234 -0.2848  1.3970
 4909SOL    HW319403   5.569   3.956   1.175  0.8485  0.5321  0.5726
 4909SOL    MW419404   5.579   3.953   1.088 -0.2798 -0.1864  0.4482
 4910SOL     OW19405   0.267   3.057   0.358  0.0643 -0.3117  0.1980
 4910SOL    HW219406   0.194   3.119   0.352  0.4038  0.3859  2.4820
 4910SOL    HW319407   0.345   3.111   0.368  0.8747 -1.0727 -1.5412
 4910SOL    MW419408   0.267   3.072   0.358  0.2160 -0.3201  0.2699
 4911SOL     OW19409   4.006   3.807   1.632 -0.4228 -0.4510 -0.5275
 4911SOL    HW219410   3.943   3.812   1.560 -1.9105  0.2304  0.7774
 4911SOL    HW319411   4.091   3.815   1.589 -1.3065  1.1823 -2.1209
 4911SOL    MW419412   4.009   3.809   1.617 -0.7357 -0.1456 -0.5656
 4912SOL     OW19413   4.761   5.713   3.272  0.6031  0.5828 -0.0812
 4912SOL    HW219414   4.666   5.718   3.263  0.4178 -0.6246  0.8181
 4912SOL    HW319415   4.777   5.623   3.301  2.0728  0.5972 -0.7687
 4912SOL    MW419416   4.751   5.702   3.275  0.7726  0.4254 -0.0532
 4913SOL     OW19417   4.445   4.437   4.071 -0.1145 -0.0376 -0.3003
 4913SOL    HW219418   4.380   4.445   4.001 -0.0654 -0.2569 -0.3713
 4913SOL    HW319419   4.414   4.363   4.123 -0.6110  0.6481  0.3928
 4913SOL    MW419420   4.432   4.428   4.069 -0.1736  0.0239 -0.2182
 4914SOL     OW19421   3.737   0.882   5.479 -0.4489 -0.2141  0.2243
 4914SOL    HW219422   3.652   0.839   5.466 -1.1095  1.1706 -0.3393
 4914SOL    HW319423   3.781   0.829   5.545 -1.9758 -0.6799  0.9282
 4914SOL    MW419424   3.731   0.869   5.486 -0.7375 -0.0929  0.2428
 4915SOL     OW19425   0.867   3.687   5.483 -0.5925 -0.5632 -0.2846
 4915SOL    HW219426   0.948   3.721   5.521 -0.8285 -0.9241  0.5785
 4915SOL    HW319427   0.830   3.633   5.552 -2.6061  1.2171  0.1491
 4915SOL    MW419428   0.873   3.685   5.497 -0.8893 -0.3759 -0.1135
 4916SOL     OW19429   0.405   2.510   0.844  0.3226  0.1859 -0.2193
 4916SOL    HW219430   0.334   2.516   0.779  0.2983  0.5750 -0.1598
 4916SOL    HW319431   0.471   2.572   0.814 -0.6369  2.0652  1.2831
 4916SOL    MW419432   0.404   2.519   0.832  0.1928  0.4852 -0.0132
 4917SOL     OW19433   0.393   4.654   5.450  1.0234  0.2508  0.0265
 4917SOL    HW219434   0.445   4.727   5.486  1.3331  0.0466  0.0010
 4917SOL    HW319435   0.377   4.598   5.526  0.6618  0.4185  0.0730
 4917SOL    MW419436   0.398   4.657   5.465  1.0166  0.2460  0.0292
 4918SOL     OW19437   5.555   0.508   0.717  0.1977 -0.1404 -0.3795
 4918SOL    HW219438   5.550   0.459   0.799  0.2469 -0.0971 -0.3497
 4918SOL    HW319439   5.466   0.510   0.684 -0.1359  1.2547  0.5196
 4918SOL    MW419440   5.543   0.502   0.724  0.1602  0.0494 -0.2570
 4919SOL     OW19441   0.818   0.135   3.155 -0.7044 -0.6742 -0.1755
 4919SOL    HW219442   0.880   0.063   3.169 -0.5781 -0.3952  0.7998
 4919SOL    HW319443   0.837   0.197   3.225 -2.0998 -0.6004  0.1700
 4919SOL    MW419444   0.829   0.134   3.166 -0.8718 -0.6276 -0.0012
 4920SOL     OW19445   4.647   4.964   4.222  0.0964 -0.3962 -0.3134
 4920SOL    HW219446   4.696   5.008   4.292  1.6167 -1.3528 -0.7197
 4920SOL    HW319447   4.700   4.978   4.144 -1.0021 -0.3162 -1.0642
 4920SOL    MW419448   4.660   4.972   4.221  0.1520 -0.5118 -0.4661
 4921SOL     OW19449   2.769   2.725   3.375 -0.4538 -0.5330 -0.1052
 4921SOL    HW219450   2.734   2.778   3.303 -0.7705  0.1729  0.5557
 4921SOL    HW319451   2.805   2.789   3.436  1.0903 -1.1903 -0.2826
 4921SOL    MW419452   2.769   2.740   3.373 -0.2918 -0.5266 -0.0414
 4922SOL     OW19453   1.197   4.326   0.569 -0.4584 -0.3421 -0.3501
 4922SOL    HW219454   1.115   4.279   0.589 -0.1864 -0.1946  1.2495
 4922SOL    HW319455   1.240   4.271   0.503 -0.2054 -2.3544  1.3874
 4922SOL    MW419456   1.192   4.312   0.563 -0.3891 -0.5881  0.0902
 4923SOL     OW19457   4.470   6.067   5.176 -0.5599  0.1982  0.4016
 4923SOL    HW219458   4.409   6.141   5.175 -1.5343 -0.5834 -0.0457
 4923SOL    HW319459   4.512   6.069   5.090  0.2771  0.8977  0.8066
 4923SOL    MW419460   4.467   6.077   5.164 -0.5781  0.1874  0.3960
 4924SOL     OW19461   5.155   0.362   0.472 -0.0697  0.5859  0.1077
 4924SOL    HW219462   5.193   0.405   0.395  1.0969 -0.6950 -0.0603
 4924SOL    HW319463   5.061   0.379   0.465  0.3177  3.1876  0.1205
 4924SOL    MW419464   5.148   0.370   0.461  0.1354  0.7601  0.0872
 4925SOL     OW19465   4.810   0.583   3.466 -0.7516 -0.0093 -0.2926
 4925SOL    HW219466   4.843   0.673   3.468 -0.4762 -0.1141 -0.1106
 4925SOL    HW319467   4.731   0.588   3.412 -1.8315  0.7113  1.2692
 4925SOL    MW419468   4.804   0.596   3.459 -0.8578  0.0720 -0.0625
 4926SOL     OW19469   3.777   2.972   3.711 -0.3951 -0.3273  0.1230
 4926SOL    HW219470   3.694   2.925   3.713 -0.7411  0.2549 -0.2719
 4926SOL    HW319471   3.813   2.963   3.799 -1.2307  0.0607  0.5033
 4926SOL    MW419472   3.771   2.964   3.723 -0.5510 -0.1993  0.1211
 4927SOL     OW19473   3.416   3.317   3.422  0.8634  0.1641  0.1131
 4927SOL    HW219474   3.455   3.237   3.455  1.1089  0.1461 -0.2169
 4927SOL    HW319475   3.322   3.300   3.420  0.7772  0.3988  1.4365
 4927SOL    MW419476   3.408   3.304   3.426  0.8844  0.1927  0.2442
 4928SOL     OW19477   5.984   0.089   1.884  0.0831  0.1679 -0.2606
 4928SOL    HW219478   6.039   0.129   1.817  1.3223  2.3831  1.9387
 4928SOL    HW319479   5.929   0.160   1.917 -0.0851 -0.7022  1.4566
 4928SOL    MW419480   5.984   0.103   1.880  0.2244  0.3454  0.2562
 4929SOL     OW19481   0.238   5.377   4.286 -0.1923 -0.8480  0.2738
 4929SOL    HW219482   0.170   5.366   4.353  0.6824  1.2869  1.6160
 4929SOL    HW319483   0.314   5.410   4.334  0.8305 -0.2842 -1.6366
 4929SOL    MW419484   0.239   5.380   4.301  0.0581 -0.4919  0.1988
 4930SOL     OW19485   3.382   6.082   1.527  0.7636  0.3049  0.2233
 4930SOL    HW219486   3.343   6.036   1.602 -0.0363 -0.7297 -0.7879
 4930SOL    HW319487   3.354   6.031   1.451  1.2144  1.5643 -0.8201
 4930SOL    MW419488   3.373   6.069   1.527  0.7175  0.3346 -0.0478
 4931SOL     OW19489   3.132   2.874   1.648  0.0705 -0.0053  0.6356
 4931SOL    HW219490   3.121   2.969   1.644 -0.8365 -0.1255  0.0026
 4931SOL    HW319491   3.196   2.855   1.579 -0.4153  0.0560  0.1653
 4931SOL    MW419492   3.139   2.884   1.638 -0.1133 -0.0130  0.4901
 4932SOL     OW19493   3.252   6.015   0.778 -0.2181 -0.3001  0.2342
 4932SOL    HW219494   3.221   6.017   0.688 -0.9053  0.1513  0.4690
 4932SOL    HW319495   3.334   5.965   0.775 -0.2697 -0.3410 -0.6213
 4932SOL    MW419496   3.259   6.008   0.766 -0.3156 -0.2459  0.1523
 4933SOL     OW19497   0.743   3.269   0.258 -0.1531 -0.3867  0.0769
 4933SOL    HW219498   0.754   3.180   0.225  2.7511 -0.4751  1.0263
 4933SOL    HW319499   0.750   3.325   0.180 -1.2245 -0.9024 -0.4132
 4933SOL    MW419500   0.745   3.265   0.243  0.0887 -0.4664  0.1375
 4934SOL     OW19501   1.785   2.229   6.013  0.0024 -0.0171 -0.6222
 4934SOL    HW219502   1.799   2.230   6.108 -0.5331  0.8280 -0.5375
 4934SOL    HW319503   1.873   2.236   5.975  0.2438 -0.6600 -0.2023
 4934SOL    MW419504   1.798   2.230   6.021 -0.0364  0.0096 -0.5556
 4935SOL     OW19505   2.586   3.167   4.567 -0.6827 -0.2853 -0.0320
 4935SOL    HW219506   2.671   3.205   4.589 -0.2695 -1.2929  0.1737
 4935SOL    HW319507   2.560   3.209   4.486 -1.3963  2.2151  1.3888
 4935SOL    MW419508   2.593   3.177   4.559 -0.7223 -0.0884  0.1826
 4936SOL     OW19509   4.924   4.536   1.273 -0.5108  0.5815  1.0375
 4936SOL    HW219510   4.986   4.607   1.292  2.8915 -1.5724 -1.0246
 4936SOL    HW319511   4.889   4.557   1.187 -2.0841  1.3232  1.8146
 4936SOL    MW419512   4.928   4.548   1.264 -0.2695  0.3952  0.8679
 4937SOL     OW19513   2.457   1.547   0.617  0.0859 -0.3321 -0.1823
 4937SOL    HW219514   2.390   1.479   0.632  0.0179 -0.2115  0.0669
 4937SOL    HW319515   2.539   1.498   0.615  0.2432 -0.2414  1.8347
 4937SOL    MW419516   2.459   1.531   0.619  0.0977 -0.3042  0.1167
 4938SOL     OW19517   3.284   5.339   5.807  0.0117  0.3676  0.2417
 4938SOL    HW219518   3.210   5.400   5.806  0.7235  1.3063  1.4373
 4938SOL    HW319519   3.333   5.360   5.728  0.0701  1.1553  0.4724
 4938SOL    MW419520   3.281   5.350   5.797  0.1133  0.5953  0.4299
 4939SOL     OW19521   4.293   3.023   2.276 -1.0841 -0.0293 -0.3798
 4939SOL    HW219522   4.247   3.101   2.247  0.7141  1.0918 -0.3680
 4939SOL    HW319523   4.376   3.025   2.229 -0.0975 -0.7574  1.2444
 4939SOL    MW419524   4.298   3.033   2.266 -0.7167  0.0226 -0.1639
 4940SOL     OW19525   4.213   1.242   5.516  0.3665 -0.0624 -0.3462
 4940SOL    HW219526   4.261   1.271   5.438  0.0658 -0.5376 -0.7087
 4940SOL    HW319527   4.247   1.154   5.534  2.1019  0.8817  1.4139
 4940SOL    MW419528   4.224   1.234   5.508  0.5558 -0.0006 -0.1618
 4941SOL     OW19529   0.667   4.930   4.327 -0.2147  0.1158 -0.3106
 4941SOL    HW219530   0.688   4.981   4.406  0.0216 -0.0982 -0.2352
 4941SOL    HW319531   0.615   4.990   4.273 -0.4804  0.2237  0.0597
 4941SOL    MW419532   0.662   4.945   4.330 -0.2186  0.1018 -0.2518
 4942SOL     OW19533   2.297   3.543   0.306 -0.1279 -0.0478  0.0830
 4942SOL    HW219534   2.219   3.548   0.251 -0.3751 -1.4237  0.2756
 4942SOL    HW319535   2.284   3.612   0.372 -0.8588  0.1689 -0.2748
 4942SOL    MW419536   2.285   3.553   0.308 -0.2569 -0.2007  0.0612
 4943SOL     OW19537   2.327   4.689   2.756  0.1695 -0.3127 -0.3476
 4943SOL    HW219538   2.420   4.667   2.766  0.5054  1.6030  1.2340
 4943SOL    HW319539   2.287   4.662   2.839 -0.0952  1.4951  0.1560
 4943SOL    MW419540   2.334   4.682   2.768  0.1789  0.1785 -0.0725
 4944SOL     OW19541   1.350   4.465   4.399  0.0575 -0.0969  0.4652
 4944SOL    HW219542   1.261   4.500   4.397  0.2959  0.6120  1.7231
 4944SOL    HW319543   1.364   4.431   4.310 -0.5286  2.1411 -0.5553
 4944SOL    MW419544   1.340   4.465   4.387  0.0117  0.2919  0.4965
 4945SOL     OW19545   5.670   4.382   2.678 -0.0585  0.0980  0.5369
 4945SOL    HW219546   5.714   4.408   2.759  0.5191  0.1912  0.1947
 4945SOL    HW319547   5.577   4.381   2.701  0.0554  0.6732  1.0472
 4945SOL    MW419548   5.663   4.385   2.692  0.0327  0.1862  0.5590
 4946SOL     OW19549   3.926   1.300   2.595  0.4888  0.0631 -0.1149
 4946SOL    HW219550   3.888   1.256   2.672  0.0084 -0.7151 -0.7811
 4946SOL    HW319551   3.890   1.389   2.598 -0.8611 -0.4590 -0.3525
 4946SOL    MW419552   3.916   1.306   2.606  0.2473 -0.1084 -0.2342
 4947SOL     OW19553   1.108   4.737   5.147  0.0905 -0.0719 -0.2829
 4947SOL    HW219554   1.072   4.653   5.119 -1.7068  0.1978  1.0234
 4947SOL    HW319555   1.189   4.715   5.193  0.1653 -0.9735 -0.8254
 4947SOL    MW419556   1.114   4.723   5.149 -0.1368 -0.1553 -0.1822
 4948SOL     OW19557   4.889   2.817   5.103  0.0767  0.2547 -0.3077
 4948SOL    HW219558   4.862   2.732   5.138 -0.8392  0.9144  0.6462
 4948SOL    HW319559   4.853   2.819   5.014 -0.0214 -0.3009 -0.2825
 4948SOL    MW419560   4.880   2.806   5.096 -0.0571  0.2684 -0.1785
 4949SOL     OW19561   0.288   1.388   4.714 -0.1784  0.1505 -0.0376
 4949SOL    HW219562   0.206   1.381   4.762  0.2594 -0.8279  0.6054
 4949SOL    HW319563   0.356   1.376   4.780  0.5294  1.8921 -0.4036
 4949SOL    MW419564   0.286   1.385   4.729 -0.0273  0.2512 -0.0010
 4950SOL     OW19565   4.361   0.896   1.110  0.3458 -0.1410 -0.2216
 4950SOL    HW219566   4.407   0.837   1.170 -0.1491  0.7446  1.0838
 4950SOL    HW319567   4.275   0.856   1.099 -0.8425  1.3473  2.4927
 4950SOL    MW419568   4.355   0.883   1.117  0.1237  0.1722  0.3087
 4951SOL     OW19569   0.577   0.019   2.314 -0.1492 -0.3184 -0.4360
 4951SOL    HW219570   0.564   0.085   2.246 -2.1602  0.7885  0.8960
 4951SOL    HW319571   0.597   0.070   2.393  2.0382 -1.5630 -0.1076
 4951SOL    MW419572   0.578   0.034   2.316 -0.1259 -0.3366 -0.2169
 4952SOL     OW19573   0.802   4.799   0.901  0.3853  0.3469  0.5546
 4952SOL    HW219574   0.810   4.835   0.813  0.1977 -0.4780  0.1955
 4952SOL    HW319575   0.871   4.733   0.906  0.2454  0.2289  0.9461
 4952SOL    MW419576   0.812   4.795   0.890  0.3421  0.2225  0.5588
 4953SOL     OW19577   1.494   3.269   3.895 -0.2404 -0.3513 -0.3331
 4953SOL    HW219578   1.451   3.266   3.810 -2.3528  0.5230  0.5927
 4953SOL    HW319579   1.458   3.194   3.943  0.3961 -0.4487 -0.0014
 4953SOL    MW419580   1.483   3.259   3.890 -0.4351 -0.2488 -0.1672
 4954SOL     OW19581   1.688   2.076   3.777 -0.3527 -0.4173  0.1999
 4954SOL    HW219582   1.742   2.126   3.716 -1.9836  0.9580 -0.1962
 4954SOL    HW319583   1.633   2.141   3.820 -0.6530 -1.5908  1.6896
 4954SOL    MW419584   1.688   2.091   3.775 -0.6075 -0.3907  0.3442
 4955SOL     OW19585   4.743   4.620   5.297  0.0066 -0.1903 -0.2363
 4955SOL    HW219586   4.827   4.659   5.272 -0.3050  0.2411 -0.6281
 4955SOL    HW319587   4.752   4.528   5.272  0.1861 -0.0412 -0.7398
 4955SOL    MW419588   4.756   4.613   5.290 -0.0109 -0.1137 -0.3545
 4956SOL     OW19589   0.450   3.150   0.077  0.3180 -0.1547  0.2174
 4956SOL    HW219590   0.412   3.225   0.123  1.5634  0.7807 -0.2253
 4956SOL    HW319591   0.508   3.188   0.012  1.5921 -1.5002  0.4932
 4956SOL    MW419592   0.453   3.165   0.075  0.6504 -0.2088  0.1954
 4957SOL     OW19593   4.775   5.841   3.525 -0.1842 -0.4723  0.4645
 4957SOL    HW219594   4.775   5.797   3.440 -0.0216 -2.1349  1.2632
 4957SOL    HW319595   4.697   5.807   3.569  0.4567 -0.6899  1.4657
 4957SOL    MW419596   4.765   5.830   3.520 -0.0782 -0.7203  0.7020
 4958SOL     OW19597   3.390   1.577   5.759 -0.4897 -0.4041  0.1185
 4958SOL    HW219598   3.308   1.535   5.735  0.7979 -3.2703  0.2754
 4958SOL    HW319599   3.402   1.556   5.852 -0.5919  1.8742  0.6905
 4958SOL    MW419600   3.381   1.569   5.768 -0.3333 -0.4816  0.2147
 4959SOL     OW19601   0.078   6.122   5.955  0.5776  0.0822 -0.3365
 4959SOL    HW219602  -0.005   6.087   5.924  1.1007 -1.9030  0.3764
 4959SOL    HW319603   0.055   6.207   5.994 -1.1498 -0.5052  0.0136
 4959SOL    MW419604   0.064   6.129   5.956  0.4187 -0.2572 -0.1962
 4960SOL     OW19605   0.986   2.969   4.175  0.1310 -0.4281  0.4598
 4960SOL    HW219606   0.939   3.051   4.186  0.3412 -0.2278 -0.1236
 4960SOL    HW319607   0.922   2.901   4.197  0.1280 -0.1020  1.5300
 4960SOL    MW419608   0.972   2.971   4.180  0.1584 -0.3586  0.5240
 4961SOL     OW19609   5.376   3.218   4.331 -0.7466  0.1924  0.0863
 4961SOL    HW219610   5.417   3.276   4.394  1.1141  0.2353 -1.0898
 4961SOL    HW319611   5.388   3.262   4.246  0.1264 -1.5415 -0.7478
 4961SOL    MW419612   5.383   3.231   4.328 -0.3859 -0.0307 -0.1790
 4962SOL     OW19613   3.870   2.478   4.731  0.1731  0.2619 -0.2051
 4962SOL    HW219614   3.780   2.509   4.737  0.1324  0.1498 -0.2252
 4962SOL    HW319615   3.924   2.551   4.761  0.0640  0.2594 -0.0070
 4962SOL    MW419616   3.865   2.492   4.736  0.1534  0.2468 -0.1816
 4963SOL     OW19617   5.553   2.289   1.346  0.7490 -0.1994 -0.0995
 4963SOL    HW219618   5.559   2.377   1.381 -0.3326 -0.7217  1.5275
 4963SOL    HW319619   5.483   2.293   1.280  0.0222 -0.0356  0.6697
 4963SOL    MW419620   5.544   2.301   1.342  0.5104 -0.2467  0.2166
 4964SOL     OW19621   2.361   6.003   5.847  0.1382 -0.1400 -0.0183
 4964SOL    HW219622   2.346   5.968   5.935 -0.6831  0.9102  0.2712
 4964SOL    HW319623   2.452   5.979   5.828  0.6578  0.4784  1.5295
 4964SOL    MW419624   2.371   5.995   5.856  0.0984  0.0801  0.2241
 4965SOL     OW19625   0.503   3.134   4.743 -0.3208  0.2537  0.1337
 4965SOL    HW219626   0.537   3.213   4.702 -0.0837 -0.6361 -1.4536
 4965SOL    HW319627   0.450   3.093   4.676 -1.9992 -0.0081  1.5445
 4965SOL    MW419628   0.501   3.139   4.729 -0.5110  0.1018  0.1104
 4966SOL     OW19629   1.952   2.969   0.973 -0.2338 -0.1135  0.1490
 4966SOL    HW219630   1.972   2.954   0.880  0.3249  0.9414  0.0905
 4966SOL    HW319631   1.945   2.881   1.010  0.6212 -0.5382 -0.6624
 4966SOL    MW419632   1.953   2.955   0.966 -0.0473 -0.0303  0.0343
 4967SOL     OW19633   2.558   3.231   5.577 -0.2070 -0.1659  0.5042
 4967SOL    HW219634   2.572   3.228   5.482  0.7470 -0.7318  0.6563
 4967SOL    HW319635   2.471   3.193   5.589 -1.6193  2.4623 -0.3683
 4967SOL    MW419636   2.548   3.226   5.566 -0.2675  0.1062  0.4091
 4968SOL     OW19637   1.235   3.557   2.828 -0.5781 -0.0138 -0.0213
 4968SOL    HW219638   1.144   3.586   2.837 -0.6501 -0.0615 -0.5629
 4968SOL    HW319639   1.284   3.610   2.891 -1.2782 -1.4263  1.8078
 4968SOL    MW419640   1.230   3.567   2.838 -0.6800 -0.2065  0.1485
 4969SOL     OW19641   2.599   1.398   3.348 -0.0349  0.1901 -0.4069
 4969SOL    HW219642   2.579   1.366   3.260  0.4967 -1.0014 -0.1159
 4969SOL    HW319643   2.641   1.483   3.333 -0.4819  0.2756 -1.2633
 4969SOL    MW419644   2.602   1.405   3.334 -0.0238  0.0442 -0.4815
 4970SOL     OW19645   0.798   0.863   0.898  0.1861  0.3370  0.2782
 4970SOL    HW219646   0.869   0.816   0.942  0.3068 -0.5070 -0.7722
 4970SOL    HW319647   0.779   0.810   0.820 -0.6533  1.2885 -0.1862
 4970SOL    MW419648   0.805   0.849   0.893  0.0913  0.3512  0.0783
 4971SOL     OW19649   2.071   3.280   2.410 -0.2027  0.2941 -0.4835
 4971SOL    HW219650   2.086   3.358   2.356 -0.0526  0.2455 -0.5139
 4971SOL    HW319651   2.009   3.308   2.477 -1.3256  0.0580 -1.3725
 4971SOL    MW419652   2.065   3.294   2.412 -0.3311  0.2566 -0.6048
 4972SOL     OW19653   4.491   2.610   0.919 -0.2884  0.1380 -0.2271
 4972SOL    HW219654   4.451   2.676   0.975 -1.9341 -0.8202 -0.1820
 4972SOL    HW319655   4.557   2.568   0.974  1.3265  2.1787 -0.4947
 4972SOL    MW419656   4.494   2.613   0.934 -0.2925  0.2808 -0.2565
 4973SOL     OW19657   2.166   4.041   1.013 -0.1312 -0.1882  0.4319
 4973SOL    HW219658   2.156   4.000   0.927  0.4844  1.4215 -0.4382
 4973SOL    HW319659   2.122   4.125   1.005  0.8438  0.4332  1.3533
 4973SOL    MW419660   2.159   4.046   1.001  0.0786  0.1062  0.4387
 4974SOL     OW19661   3.119   1.301   5.944 -0.2956 -0.0804  0.1991
 4974SOL    HW219662   3.045   1.249   5.912 -1.7123  0.1161  2.8578
 4974SOL    HW319663   3.193   1.240   5.942 -1.2821 -1.3362  0.5639
 4974SOL    MW419664   3.119   1.286   5.940 -0.6126 -0.2202  0.5980
 4975SOL     OW19665   0.556   0.139   3.127  0.6639  0.5760  0.1778
 4975SOL    HW219666   0.650   0.124   3.118  0.6801  0.8447 -0.1569
 4975SOL    HW319667   0.534   0.110   3.216  1.5585  2.9060  1.2335
 4975SOL    MW419668   0.565   0.133   3.138  0.7841  0.9189  0.2730
 4976SOL     OW19669   4.676   2.766   5.518  0.1768 -0.7810 -0.3215
 4976SOL    HW219670   4.656   2.771   5.424 -1.2057  0.2285  0.0078
 4976SOL    HW319671   4.715   2.850   5.539  1.8336 -1.5242 -0.2495
 4976SOL    MW419672   4.679   2.778   5.508  0.2130 -0.7459 -0.2686
 4977SOL     OW19673   2.217   0.434   0.967 -0.8794  0.6624  0.2378
 4977SOL    HW219674   2.247   0.358   0.917  0.8713  0.9353  0.7881
 4977SOL    HW319675   2.269   0.507   0.932 -0.3446  1.0344  1.7284
 4977SOL    MW419676   2.228   0.434   0.956 -0.5779  0.7475  0.5070
 4978SOL     OW19677   3.040   2.558   1.608  0.2689 -0.1490 -0.7515
 4978SOL    HW219678   2.970   2.535   1.670  0.5975 -2.2250 -1.0917
 4978SOL    HW319679   3.118   2.566   1.663  0.6330 -2.3492 -0.8762
 4978SOL    MW419680   3.041   2.556   1.624  0.3603 -0.7132 -0.8129
 4979SOL     OW19681   6.352   0.877   4.781  0.1794  0.3455 -0.1940
 4979SOL    HW219682   6.386   0.966   4.776 -0.4385  0.6292  0.5444
 4979SOL    HW319683   6.268   0.881   4.737  0.0403  0.1802  0.0561
 4979SOL    MW419684   6.346   0.889   4.774  0.0795  0.3611 -0.0636
 4980SOL     OW19685   1.896   0.314   1.589 -0.2491 -0.1685 -0.1561
 4980SOL    HW219686   1.945   0.332   1.669 -0.5481  0.3046 -0.0786
 4980SOL    HW319687   1.894   0.218   1.584 -1.4689 -0.2356  1.1785
 4980SOL    MW419688   1.902   0.303   1.599 -0.4495 -0.1149  0.0302
 4981SOL     OW19689   5.269   2.200   3.848 -0.1914 -0.4463 -0.1459
 4981SOL    HW219690   5.206   2.271   3.838  1.3463  1.1959  1.0703
 4981SOL    HW319691   5.222   2.133   3.897 -1.7648 -0.4111 -1.5374
 4981SOL    MW419692   5.255   2.201   3.853 -0.1961 -0.2250 -0.1691
 4982SOL     OW19693   4.256   4.180   3.321 -0.0124 -0.6017  0.1180
 4982SOL    HW219694   4.242   4.161   3.413  1.1263 -0.2439  0.3806
 4982SOL    HW319695   4.199   4.255   3.303  0.5734  0.0283  0.8189
 4982SOL    MW419696   4.247   4.187   3.330  0.2151 -0.4714  0.2451
 4983SOL     OW19697   1.580   0.957   0.135 -0.8810  0.6610 -0.1648
 4983SOL    HW219698   1.534   1.032   0.172 -1.3831  0.4687 -0.3973
 4983SOL    HW319699   1.523   0.925   0.065  0.4686  1.6030 -1.7906
 4983SOL    MW419700   1.567   0.962   0.131 -0.7692  0.7599 -0.4100
 4984SOL     OW19701   6.253   0.032   1.519  0.0347  0.2131 -0.2287
 4984SOL    HW219702   6.349   0.028   1.512  0.1564  0.4582  0.9713
 4984SOL    HW319703   6.226  -0.059   1.535 -0.1406 -0.1632 -2.3602
 4984SOL    MW419704   6.262   0.019   1.520  0.0276  0.1958 -0.3516
 4985SOL     OW19705   0.683   0.974   4.845  0.0919 -0.6717 -0.1285
 4985SOL    HW219706   0.655   0.960   4.754 -0.8472  1.3145 -0.1932
 4985SOL    HW319707   0.618   1.033   4.881  2.0529  0.9425  0.9502
 4985SOL    MW419708   0.671   0.980   4.837  0.2267 -0.1967  0.0053
 4986SOL     OW19709   2.424   2.117   3.795  0.8569 -0.6363  0.3925
 4986SOL    HW219710   2.452   2.129   3.704  0.3466 -0.6364  0.2364
 4986SOL    HW319711   2.443   2.201   3.836  0.9260 -0.5779  0.2453
 4986SOL    MW419712   2.430   2.130   3.788  0.7987 -0.6286  0.3525
 4987SOL     OW19713   2.049   0.077   6.379  0.5221 -0.0601  0.0657
 4987SOL    HW219714   2.045   0.152   6.320  1.6558  0.3098  0.4317
 4987SOL    HW319715   2.113   0.018   6.338  1.6883  0.4148  1.1300
 4987SOL    MW419716   2.057   0.079   6.366  0.8255  0.0514  0.2544
 4988SOL     OW19717   0.889   4.915   1.125  0.1640 -0.3882  0.3130
 4988SOL    HW219718   0.856   4.877   1.044 -2.0249  1.5591  0.1849
 4988SOL    HW319719   0.856   4.856   1.194 -0.7159 -0.3285 -0.0426
 4988SOL    MW419720   0.880   4.902   1.124 -0.2409 -0.1234  0.2492
 4989SOL     OW19721   6.235   2.426   2.925 -0.2139 -0.0397  0.0277
 4989SOL    HW219722   6.192   2.341   2.917 -0.5016 -0.1805  2.3262
 4989SOL    HW319723   6.238   2.442   3.019  1.5537  1.6373 -0.2618
 4989SOL    MW419724   6.229   2.417   2.936 -0.0187  0.1630  0.2928
 4990SOL     OW19725   6.195   2.879   0.919 -0.2539  0.1098  0.0156
 4990SOL    HW219726   6.265   2.857   0.980 -0.3293 -0.9539 -0.2683
 4990SOL    HW319727   6.136   2.804   0.921 -2.1596  1.5723  1.2988
 4990SOL    MW419728   6.197   2.866   0.927 -0.5153  0.1624  0.1475
 4991SOL     OW19729   2.876   0.670   5.958  0.0589  0.1647  0.0589
 4991SOL    HW219730   2.828   0.739   5.912  0.6829 -0.1804 -1.1546
 4991SOL    HW319731   2.820   0.646   6.031 -1.3553  0.1790 -0.9875
 4991SOL    MW419732   2.863   0.676   5.962 -0.0454  0.1211 -0.2393
 4992SOL     OW19733   3.851   0.792   3.671  0.6060 -0.5310 -0.3879
 4992SOL    HW219734   3.858   0.697   3.656 -1.2927 -0.5659 -1.4688
 4992SOL    HW319735   3.834   0.800   3.765  1.2987 -1.2196 -0.1956
 4992SOL    MW419736   3.850   0.780   3.681  0.4469 -0.6265 -0.5052
 4993SOL     OW19737   2.397   6.188   0.789 -0.2539 -0.1035  0.2692
 4993SOL    HW219738   2.452   6.248   0.839 -1.3465  2.1837 -1.1414
 4993SOL    HW319739   2.440   6.180   0.704 -1.8230  1.5084 -0.7603
 4993SOL    MW419740   2.410   6.195   0.785 -0.6051  0.4110 -0.0527
 4994SOL     OW19741   6.342   2.634   4.226 -0.5369  0.6521  0.6553
 4994SOL    HW219742   6.372   2.699   4.163 -0.4069 -1.2121 -1.2928
 4994SOL    HW319743   6.422   2.605   4.271 -0.5707  1.6499  1.3864
 4994SOL    MW419744   6.356   2.639   4.224 -0.5242  0.5378  0.4948
 4995SOL     OW19745   5.799   1.605   4.111  0.3489  0.2284  0.1610
 4995SOL    HW219746   5.714   1.632   4.147  0.6565  0.9114  0.3858
 4995SOL    HW319747   5.831   1.684   4.066  0.7001 -0.1387 -0.2343
 4995SOL    MW419748   5.792   1.619   4.110  0.4358  0.2701  0.1385
 4996SOL     OW19749   1.373   1.701   5.721  0.5417  0.1267  0.1532
 4996SOL    HW219750   1.281   1.724   5.734 -0.3796 -2.2103 -1.6087
 4996SOL    HW319751   1.406   1.768   5.662 -0.8188 -0.3899 -1.2889
 4996SOL    MW419752   1.365   1.713   5.715  0.2406 -0.2498 -0.2695
 4997SOL     OW19753   0.550   1.842   6.147  0.2846 -0.6542 -0.3034
 4997SOL    HW219754   0.505   1.762   6.121  0.6480 -1.1283  0.5143
 4997SOL    HW319755   0.537   1.848   6.241  0.6923 -0.0146 -0.2767
 4997SOL    MW419756   0.542   1.832   6.156  0.3863 -0.6324 -0.1920
 4998SOL     OW19757   3.465   0.677   2.591 -0.0479  0.4425 -0.4827
 4998SOL    HW219758   3.558   0.663   2.605  0.4248  2.5825 -1.0453
 4998SOL    HW319759   3.444   0.752   2.646 -1.4206  0.0673 -0.4662
 4998SOL    MW419760   3.474   0.685   2.600 -0.1667  0.6753 -0.5548
 4999SOL     OW19761   3.121   3.955   5.494 -0.1339 -0.4465 -0.8123
 4999SOL    HW219762   3.127   3.862   5.471 -1.5965 -0.4881 -1.1549
 4999SOL    HW319763   3.118   3.956   5.589  0.5127 -0.7032 -0.7869
 4999SOL    MW419764   3.121   3.943   5.503 -0.2415 -0.4859 -0.8542
 5000SOL     OW19765   4.014   0.987   3.016  0.2979  0.4501 -0.0142
 5000SOL    HW219766   4.009   1.081   3.032  0.1821  0.2478  1.2438
 5000SOL    HW319767   3.969   0.947   3.091  0.6938 -0.6132 -0.3216
 5000SOL    MW419768   4.007   0.994   3.028  0.3348  0.2831  0.1112
 5001SOL     OW19769   3.662   2.578   5.229  0.6276 -0.1209 -0.1119
 5001SOL    HW219770   3.643   2.663   5.271 -0.7104 -0.0724 -0.7518
 5001SOL    HW319771   3.753   2.586   5.201  0.5685  1.0642 -0.0563
 5001SOL    MW419772   3.672   2.591   5.231  0.4433  0.0419 -0.1890
 5002SOL     OW19773   2.346   5.375   0.878 -0.6292 -0.1238 -0.5493
 5002SOL    HW219774   2.371   5.358   0.969  1.7939  0.4583 -1.0502
 5002SOL    HW319775   2.295   5.456   0.882 -0.0323  0.2290  0.2497
 5002SOL    MW419776   2.343   5.383   0.890 -0.2307 -0.0005 -0.5100
 5003SOL     OW19777   0.440   1.724   2.501  0.2483 -0.2205  0.2966
 5003SOL    HW219778   0.414   1.800   2.449  1.1790 -0.2785 -0.2853
 5003SOL    HW319779   0.481   1.762   2.579  0.0688 -0.1275  0.3460
 5003SOL    MW419780   0.442   1.739   2.505  0.3474 -0.2159  0.2264
 5004SOL     OW19781   2.043   3.373   3.833 -0.5848 -0.3482  0.2960
 5004SOL    HW219782   1.972   3.315   3.806 -1.7654  1.0972  0.1157
 5004SOL    HW319783   2.008   3.421   3.908  1.3432 -1.7205  2.2007
 5004SOL    MW419784   2.029   3.372   3.839 -0.4862 -0.3385  0.5235
 5005SOL     OW19785   0.868   0.238   2.248 -0.0735  0.6650  0.0182
 5005SOL    HW219786   0.950   0.228   2.201  0.6886 -0.0789  1.4326
 5005SOL    HW319787   0.850   0.151   2.284 -2.0844  0.5339 -1.1732
 5005SOL    MW419788   0.876   0.225   2.247 -0.2383  0.5496  0.0476
 5006SOL     OW19789   6.202   4.780   6.123 -0.3434  0.5270 -0.1050
 5006SOL    HW219790   6.108   4.794   6.105 -0.2477  0.6484 -0.5245
 5006SOL    HW319791   6.216   4.687   6.107 -0.6222  0.2787  1.0304
 5006SOL    MW419792   6.191   4.770   6.118 -0.3676  0.5102 -0.0106
 5007SOL     OW19793   0.128   2.707   5.329  0.4659 -0.1149  0.1467
 5007SOL    HW219794   0.173   2.623   5.338  0.3378 -0.1147  0.8762
 5007SOL    HW319795   0.049   2.697   5.382  0.8822  0.7561  0.9815
 5007SOL    MW419796   0.124   2.695   5.337  0.5039  0.0000  0.3531
 5008SOL     OW19797   2.717   1.927   1.744 -0.1003  0.6494  0.0229
 5008SOL    HW219798   2.781   1.946   1.813  1.7632 -1.8991 -0.8734
 5008SOL    HW319799   2.639   1.899   1.792  1.1418 -1.0300  1.2002
 5008SOL    MW419800   2.715   1.926   1.760  0.3094  0.0916  0.0600
 5009SOL     OW19801   5.562   4.274   1.671  0.6389  0.2658 -0.0920
 5009SOL    HW219802   5.513   4.336   1.726  0.0916 -3.0793  3.6488
 5009SOL    HW319803   5.495   4.213   1.639  1.4344  0.2675 -1.8400
 5009SOL    MW419804   5.546   4.275   1.674  0.6716 -0.1753  0.1709
 5010SOL     OW19805   0.528   2.782   1.157  0.3573  0.3701 -0.0549
 5010SOL    HW219806   0.580   2.705   1.181  1.8282  1.0669 -0.8896
 5010SOL    HW319807   0.460   2.747   1.099  0.1583 -0.4854  0.6694
 5010SOL    MW419808   0.526   2.767   1.152  0.5251  0.3492 -0.0695
 5011SOL     OW19809   2.443   1.767   2.904  0.2187  0.0377  0.0998
 5011SOL    HW219810   2.367   1.712   2.921  0.3864 -0.5312 -0.9104
 5011SOL    HW319811   2.410   1.857   2.910 -1.2909 -0.1725 -3.2556
 5011SOL    MW419812   2.429   1.772   2.907  0.0417 -0.0651 -0.4762
 5012SOL     OW19813   5.209   1.207   5.716 -0.5012 -0.4369 -0.0066
 5012SOL    HW219814   5.177   1.250   5.637 -1.0958 -1.0790 -0.1267
 5012SOL    HW319815   5.130   1.192   5.768 -0.2887 -1.2514  0.0908
 5012SOL    MW419816   5.194   1.210   5.712 -0.5516 -0.6290 -0.0096
 5013SOL     OW19817   4.627   5.455   4.418 -0.0278  0.0154  0.0628
 5013SOL    HW219818   4.707   5.417   4.382  0.6596  1.6039 -0.1577
 5013SOL    HW319819   4.594   5.512   4.349 -0.0710  1.1614  1.0034
 5013SOL    MW419820   4.633   5.457   4.405  0.0572  0.3762  0.1578
 5014SOL     OW19821   6.110   4.079   2.752  0.1550 -0.7125  0.4543
 5014SOL    HW219822   6.183   4.030   2.791  0.2022 -1.1723 -0.1994
 5014SOL    HW319823   6.043   4.013   2.735 -0.2051 -0.3763  0.5556
 5014SOL    MW419824   6.111   4.064   2.755  0.1137 -0.7288  0.3814
 5015SOL     OW19825   0.906   5.884   1.863 -0.0285 -0.2900 -0.3503
 5015SOL    HW219826   0.886   5.944   1.936  0.8565  0.3481 -0.6102
 5015SOL    HW319827   0.986   5.840   1.890  0.3578  0.0206 -0.9755
 5015SOL    MW419828   0.914   5.886   1.876  0.1392 -0.1648 -0.4671
 5016SOL     OW19829   5.011   1.455   5.065 -0.1887 -0.1408  0.1062
 5016SOL    HW219830   5.022   1.393   5.137  0.3145  0.5306  0.6267
 5016SOL    HW319831   5.002   1.400   4.987  0.1274 -0.8665  0.5676
 5016SOL    MW419832   5.011   1.440   5.064 -0.0806 -0.1479  0.2358
 5017SOL     OW19833   4.138   2.077   4.886 -0.4942 -0.3255 -0.7280
 5017SOL    HW219834   4.060   2.026   4.865 -1.6545  1.5770 -1.3123
 5017SOL    HW319835   4.133   2.091   4.980 -0.4017 -0.9008 -0.6343
 5017SOL    MW419836   4.127   2.072   4.895 -0.6351 -0.1504 -0.7927
 5018SOL     OW19837   0.441   4.172   2.501  0.8176 -0.0843  0.0622
 5018SOL    HW219838   0.428   4.130   2.415  2.2497  0.0865 -0.2704
 5018SOL    HW319839   0.418   4.263   2.487  0.3466 -0.2065  0.0473
 5018SOL    MW419840   0.437   4.178   2.488  0.9444 -0.0779  0.0163
 5019SOL     OW19841   6.100   2.962   5.564 -0.7074 -0.5352 -0.3247
 5019SOL    HW219842   6.190   2.932   5.550 -0.8506 -0.6144 -1.1809
 5019SOL    HW319843   6.049   2.917   5.495 -1.5581 -1.1932  0.7032
 5019SOL    MW419844   6.105   2.952   5.553 -0.8385 -0.6325 -0.3021
 5020SOL     OW19845   3.901   5.430   3.293  0.2370  0.2384 -0.2980
 5020SOL    HW219846   3.864   5.456   3.209  1.3372 -1.1659 -1.2806
 5020SOL    HW319847   3.995   5.446   3.283  0.3570  0.2426  0.7463
 5020SOL    MW419848   3.909   5.435   3.280  0.3980  0.0537 -0.2899
 5021SOL     OW19849   5.040   5.643   2.681  0.1143 -0.0411  0.2156
 5021SOL    HW219850   4.992   5.726   2.678  0.7771  0.3331 -1.2459
 5021SOL    HW319851   5.034   5.609   2.592  0.0695 -1.4448  0.7374
 5021SOL    MW419852   5.033   5.650   2.669  0.1959 -0.1769  0.0916
 5022SOL     OW19853   6.234   1.874   2.057 -0.0288  0.7521 -0.2090
 5022SOL    HW219854   6.243   1.907   1.967 -0.1174 -0.2427 -0.5893
 5022SOL    HW319855   6.189   1.944   2.103  0.2515  1.3872 -0.8737
 5022SOL    MW419856   6.230   1.888   2.051 -0.0035  0.7047 -0.3469
 5023SOL     OW19857   4.746   4.894   6.307  0.1177 -0.6430  0.4837
 5023SOL    HW219858   4.739   4.803   6.335 -0.9300 -0.3386  1.2630
 5023SOL    HW319859   4.691   4.943   6.368 -0.9854  0.2509 -1.1445
 5023SOL    MW419860   4.738   4.889   6.319 -0.1661 -0.4849  0.3717
 5024SOL     OW19861   3.360   4.354   6.231  0.3307  0.0665  0.1553
 5024SOL    HW219862   3.357   4.263   6.204  2.1105 -0.0607  0.2539
 5024SOL    HW319863   3.453   4.378   6.226 -0.0686  1.8269  0.2662
 5024SOL    MW419864   3.372   4.345   6.227  0.5129  0.2820  0.1829
 5025SOL     OW19865   2.814   1.356   0.135  0.2106  0.1782  0.2285
 5025SOL    HW219866   2.830   1.419   0.065 -1.6970 -0.1800 -0.6076
 5025SOL    HW319867   2.740   1.392   0.184 -0.6535 -1.1635 -0.0184
 5025SOL    MW419868   2.806   1.369   0.132 -0.1551 -0.0461  0.0856
 5026SOL     OW19869   4.792   6.286   0.439  0.2159  0.0456  0.4259
 5026SOL    HW219870   4.749   6.210   0.477 -0.3949  0.2781  0.2141
 5026SOL    HW319871   4.881   6.257   0.422  0.0112 -0.5989  0.4174
 5026SOL    MW419872   4.798   6.273   0.442  0.1083 -0.0087  0.3968
 5027SOL     OW19873   3.611   0.593   0.678 -0.5133 -0.2093  0.0794
 5027SOL    HW219874   3.567   0.518   0.636 -0.2600 -0.3649  0.0891
 5027SOL    HW319875   3.658   0.636   0.607 -0.9268  0.1385  0.0104
 5027SOL    MW419876   3.611   0.588   0.663 -0.5344 -0.1840  0.0715
 5028SOL     OW19877   3.069   1.005   5.127  0.0806  0.1157  0.2788
 5028SOL    HW219878   3.155   0.971   5.155 -0.4517 -1.2854  0.2747
 5028SOL    HW319879   3.006   0.956   5.180 -0.7319  1.1739  0.3149
 5028SOL    MW419880   3.072   0.994   5.138 -0.0968  0.0704  0.2831
 5029SOL     OW19881   4.387   4.367   5.281  0.1518  0.0609 -0.2207
 5029SOL    HW219882   4.352   4.278   5.273 -0.6001  0.3819 -0.5613
 5029SOL    HW319883   4.477   4.360   5.250  0.1979 -0.6470  0.0562
 5029SOL    MW419884   4.394   4.354   5.276  0.0587  0.0098 -0.2291
 5030SOL     OW19885   3.682   4.757   1.600  0.1773  0.1845 -0.2172
 5030SOL    HW219886   3.629   4.690   1.642 -1.0385  0.8647 -0.6158
 5030SOL    HW319887   3.730   4.798   1.672  0.5776 -0.7915  0.0836
 5030SOL    MW419888   3.681   4.753   1.615  0.0697  0.1455 -0.2301
 5031SOL     OW19889   6.053   5.860   0.404 -0.6431  0.4405 -0.4910
 5031SOL    HW219890   5.982   5.924   0.416 -0.7418  0.3838 -0.7746
 5031SOL    HW319891   6.133   5.914   0.403 -0.7438  0.5857 -0.9648
 5031SOL    MW419892   6.054   5.876   0.405 -0.6694  0.4521 -0.5910
 5032SOL     OW19893   2.788   3.689   1.367 -0.4944  0.4816  0.3859
 5032SOL    HW219894   2.747   3.634   1.434 -0.7012  1.7115  1.2889
 5032SOL    HW319895   2.727   3.686   1.293 -1.0955  0.4614  0.8727
 5032SOL    MW419896   2.775   3.681   1.366 -0.6010  0.6412  0.5693
 5033SOL     OW19897   2.572   5.209   5.665 -0.0653  0.4507  0.1460
 5033SOL    HW219898   2.644   5.218   5.728  0.4374  1.0469 -0.5111
 5033SOL    HW319899   2.493   5.226   5.717  0.3904  1.6904  0.4746
 5033SOL    MW419900   2.571   5.212   5.680  0.0612  0.6929  0.1027
 5034SOL     OW19901   5.274   6.394   2.297  0.0674  0.0864 -0.5012
 5034SOL    HW219902   5.234   6.468   2.342 -0.6561 -1.3007  1.2255
 5034SOL    HW319903   5.366   6.420   2.285 -0.1382  1.1896  0.1803
 5034SOL    MW419904   5.281   6.407   2.301 -0.0552  0.0489 -0.1834
 5035SOL     OW19905   1.317   4.527   0.153 -0.3997 -0.2937 -0.7800
 5035SOL    HW219906   1.291   4.453   0.099  0.5118 -2.1722  1.2155
 5035SOL    HW319907   1.265   4.517   0.233  0.8912  0.2945  0.1599
 5035SOL    MW419908   1.307   4.516   0.157 -0.1092 -0.4639 -0.3927
 5036SOL     OW19909   1.531   2.967   3.811  0.0530 -0.0207  0.1334
 5036SOL    HW219910   1.562   3.050   3.776 -0.7882  0.6212  0.8603
 5036SOL    HW319911   1.506   2.987   3.902 -0.8283 -0.8872  0.0990
 5036SOL    MW419912   1.531   2.981   3.819 -0.1743 -0.0503  0.2248
 5037SOL     OW19913   3.909   2.515   5.419 -0.7495  0.8022  0.8696
 5037SOL    HW219914   3.922   2.585   5.484 -0.6598  1.5674  0.0364
 5037SOL    HW319915   3.922   2.558   5.335 -0.8290 -0.1989  0.3399
 5037SOL    MW419916   3.913   2.530   5.417 -0.7481  0.7711  0.6898
 5038SOL     OW19917   4.729   5.319   6.317 -0.1765  0.2646 -0.1995
 5038SOL    HW219918   4.762   5.277   6.238 -0.3740  0.8594 -0.6076
 5038SOL    HW319919   4.804   5.321   6.377  0.1104  0.2564 -0.5576
 5038SOL    MW419920   4.743   5.314   6.315 -0.1647  0.3420 -0.3006
 5039SOL     OW19921   1.863   1.625   2.019  0.5366 -0.4752  0.4962
 5039SOL    HW219922   1.953   1.613   1.988  1.3058  3.2545  0.8223
 5039SOL    HW319923   1.860   1.579   2.103  2.4533  0.0654  0.9169
 5039SOL    MW419924   1.875   1.617   2.026  0.8910  0.0882  0.5947
 5040SOL     OW19925   3.176   1.841   5.793 -0.0495  0.2368  0.7814
 5040SOL    HW219926   3.217   1.913   5.840 -0.0465  0.5589  0.2951
 5040SOL    HW319927   3.247   1.798   5.745 -0.0281 -0.1792  1.1833
 5040SOL    MW419928   3.191   1.845   5.793 -0.0463  0.2244  0.7703
 5041SOL     OW19929   2.085   4.165   1.952  0.3124  0.0629  0.1516
 5041SOL    HW219930   2.142   4.090   1.972  0.3565 -0.3847 -1.4902
 5041SOL    HW319931   2.027   4.171   2.027  1.9465 -0.0132  1.4856
 5041SOL    MW419932   2.085   4.156   1.964  0.5338 -0.0062  0.1110
 5042SOL     OW19933   4.923   1.151   5.803  0.1291 -0.3594 -0.0479
 5042SOL    HW219934   4.916   1.109   5.717  1.2127 -0.8933  0.1062
 5042SOL    HW319935   4.922   1.077   5.865  1.0724 -0.1112  0.2839
 5042SOL    MW419936   4.922   1.135   5.800  0.3965 -0.3971  0.0162
 5043SOL     OW19937   2.305   6.236   4.736 -0.2458  0.3902 -0.2814
 5043SOL    HW219938   2.377   6.299   4.744 -0.9101  1.1969 -0.4878
 5043SOL    HW319939   2.227   6.286   4.761 -0.4763 -1.1119  2.4479
 5043SOL    MW419940   2.304   6.251   4.741 -0.3639  0.2985  0.0514
 5044SOL     OW19941   0.352   4.405   1.245 -0.7753 -0.5253 -0.2615
 5044SOL    HW219942   0.371   4.341   1.177 -1.0759 -1.8769  0.8798
 5044SOL    HW319943   0.338   4.353   1.324  0.4361  1.0160  1.0604
 5044SOL    MW419944   0.353   4.390   1.247 -0.6551 -0.5003  0.0635
 5045SOL     OW19945   0.757   6.080   5.895  0.1425 -0.2969 -0.0049
 5045SOL    HW219946   0.814   6.125   5.958 -0.8077  0.5785  0.2546
 5045SOL    HW319947   0.703   6.022   5.948 -0.4100  0.1730 -0.0500
 5045SOL    MW419948   0.758   6.079   5.910 -0.0557 -0.1194  0.0234
 5046SOL     OW19949   0.654   0.526   5.475  0.0457 -0.2902 -0.2277
 5046SOL    HW219950   0.600   0.508   5.398  0.3785 -3.3039  0.1103
 5046SOL    HW319951   0.639   0.451   5.533  3.1975 -0.3830  0.6437
 5046SOL    MW419952   0.645   0.514   5.473  0.5055 -0.7001 -0.0681
 5047SOL     OW19953   5.084   4.318   5.147 -0.4797 -0.0096  0.1029
 5047SOL    HW219954   5.033   4.361   5.216 -0.1765  0.0119  0.3143
 5047SOL    HW319955   5.077   4.377   5.072 -0.1142  0.3826  0.3732
 5047SOL    MW419956   5.076   4.332   5.146 -0.3915  0.0450  0.1664
 5048SOL     OW19957   4.165   2.926   5.647  0.5592 -0.2963 -0.2483
 5048SOL    HW219958   4.259   2.918   5.632  0.4452 -0.7017 -0.8021
 5048SOL    HW319959   4.138   2.999   5.591  0.5128 -0.3308 -0.2720
 5048SOL    MW419960   4.174   2.934   5.637  0.5380 -0.3544 -0.3245
 5049SOL     OW19961   0.188   2.385   1.807  0.2793  0.3534  0.6085
 5049SOL    HW219962   0.283   2.393   1.799  0.2491  0.1202  0.0096
 5049SOL    HW319963   0.165   2.449   1.875  0.9774 -0.3226  1.5028
 5049SOL    MW419964   0.197   2.395   1.815  0.3675  0.2334  0.6475
 5050SOL     OW19965   0.341   0.924   1.081  0.0109  0.2726 -0.3738
 5050SOL    HW219966   0.402   0.947   1.151  0.6516 -2.1695 -0.0210
 5050SOL    HW319967   0.383   0.851   1.035 -1.6690 -0.0493 -1.5230
 5050SOL    MW419968   0.354   0.917   1.084 -0.1262 -0.0921 -0.4789
 5051SOL     OW19969   4.639   0.859   3.289  0.5770  0.0482  0.4308
 5051SOL    HW219970   4.616   0.913   3.365  0.9199 -0.4007  0.8589
 5051SOL    HW319971   4.578   0.786   3.292 -0.1217  0.5810 -0.3544
 5051SOL    MW419972   4.628   0.856   3.299  0.5301  0.0593  0.3837
 5052SOL     OW19973   3.874   1.801   4.152  0.2512 -0.6206 -0.2206
 5052SOL    HW219974   3.800   1.749   4.121 -0.9093 -1.3700  3.3395
 5052SOL    HW319975   3.838   1.888   4.166  0.9401 -0.1017 -1.4724
 5052SOL    MW419976   3.859   1.806   4.149  0.1890 -0.6510  0.0839
 5053SOL     OW19977   0.174   5.341   5.975  0.0953 -0.3132 -0.0674
 5053SOL    HW219978   0.221   5.296   5.904 -0.9487 -0.7366 -0.5274
 5053SOL    HW319979   0.198   5.433   5.965 -0.5330 -0.2628 -1.4089
 5053SOL    MW419980   0.183   5.347   5.964 -0.1254 -0.3624 -0.3051
 5054SOL     OW19981   3.981   6.256   3.413  0.3244  0.0236  0.2496
 5054SOL    HW219982   3.920   6.219   3.349 -0.9191 -1.5442  2.2056
 5054SOL    HW319983   3.947   6.344   3.429  0.5184  0.3460 -1.0638
 5054SOL    MW419984   3.968   6.263   3.407  0.1859 -0.1408  0.3344
 5055SOL     OW19985   3.901   1.794   5.068 -0.8971  0.2140 -0.1082
 5055SOL    HW219986   3.989   1.810   5.033 -1.0241  0.7950 -0.1763
 5055SOL    HW319987   3.849   1.767   4.992 -0.5103 -1.3044  0.1279
 5055SOL    MW419988   3.906   1.793   5.053 -0.8628  0.0903 -0.0860
 5056SOL     OW19989   5.387   5.511   0.841 -0.6318 -0.0069  0.0939
 5056SOL    HW219990   5.409   5.505   0.748  0.6019 -1.6627  0.4364
 5056SOL    HW319991   5.291   5.515   0.843 -0.6270  2.1439 -1.2825
 5056SOL    MW419992   5.377   5.510   0.829 -0.4684  0.0584 -0.0425
 5057SOL     OW19993   0.728   0.415   1.459 -0.0458 -0.3709 -0.0922
 5057SOL    HW219994   0.813   0.382   1.428 -0.6135 -0.1505 -1.9683
 5057SOL    HW319995   0.666   0.347   1.434 -0.6380  0.2010 -0.1842
 5057SOL    MW419996   0.731   0.402   1.452 -0.1988 -0.2664 -0.3519
 5058SOL     OW19997   2.080   5.226   2.738 -0.3526  0.2278  0.1404
 5058SOL    HW219998   2.079   5.300   2.677 -0.3417  0.4792  0.4391
 5058SOL    HW319999   1.991   5.193   2.737 -0.1642 -0.2789 -0.6198
 5058SOL    MW420000   2.068   5.232   2.730 -0.3263  0.1941  0.0795
 5059SOL     OW20001   2.906   0.896   4.021  0.0930  0.7113  0.5082
 5059SOL    HW220002   2.866   0.936   4.098 -1.5252  3.0423 -1.4018
 5059SOL    HW320003   2.978   0.955   3.998  0.2667  0.2981 -0.0289
 5059SOL    MW420004   2.910   0.909   4.028 -0.0976  0.9643  0.1853
 5060SOL     OW20005   0.157   4.569   1.439 -0.1615  0.0071  0.8087
 5060SOL    HW220006   0.109   4.580   1.521  0.7530 -0.1157  1.3651
 5060SOL    HW320007   0.247   4.554   1.465  0.3040  0.8223 -0.2368
 5060SOL    MW420008   0.162   4.569   1.453  0.0206  0.0984  0.7442
 5061SOL     OW20009   2.807   0.406   0.859 -0.0979  0.4230  0.1312
 5061SOL    HW220010   2.746   0.396   0.786  0.6494  0.7789 -0.5668
 5061SOL    HW320011   2.874   0.339   0.843  0.8906  1.5114 -0.3734
 5061SOL    MW420012   2.808   0.396   0.847  0.1311  0.6136 -0.0274
 5062SOL     OW20013   2.517   1.765   3.197 -0.0603 -0.2613  0.3570
 5062SOL    HW220014   2.430   1.751   3.235 -0.0958 -3.6860 -0.6305
 5062SOL    HW320015   2.509   1.737   3.106  1.0474  3.8577 -1.2291
 5062SOL    MW420016   2.505   1.759   3.190  0.0811 -0.1697  0.0175
 5063SOL     OW20017   5.204   0.851   5.078  0.2604 -0.1375  0.1527
 5063SOL    HW220018   5.263   0.886   5.145  0.4417 -0.8197  0.3585
 5063SOL    HW320019   5.232   0.760   5.066 -3.1296 -1.7970  3.0799
 5063SOL    MW420020   5.216   0.843   5.085 -0.1629 -0.4465  0.5660
 5064SOL     OW20021   4.580   4.934   5.010  0.4510  0.2270  0.0857
 5064SOL    HW220022   4.526   4.918   4.933  0.4926  1.3483 -0.1928
 5064SOL    HW320023   4.668   4.947   4.976  0.8320 -1.1061  0.4998
 5064SOL    MW420024   4.584   4.933   4.996  0.5067  0.1991  0.1036
 5065SOL     OW20025   3.664   3.873   6.281  0.2466  0.6163 -0.5302
 5065SOL    HW220026   3.756   3.855   6.260  0.0523  0.5393 -1.3621
 5065SOL    HW320027   3.623   3.891   6.196 -0.5737  0.3630 -0.1996
 5065SOL    MW420028   3.671   3.873   6.267  0.1127  0.5727 -0.5964
 5066SOL     OW20029   2.354   0.727   6.279  0.0453  0.2843 -0.2810
 5066SOL    HW220030   2.365   0.643   6.234  0.0929 -0.1399  0.5082
 5066SOL    HW320031   2.401   0.716   6.362  0.0662  1.0962 -0.1761
 5066SOL    MW420032   2.362   0.714   6.284  0.0544  0.3354 -0.1631
 5067SOL     OW20033   0.547   5.540   1.022  0.1349 -0.6684 -0.1772
 5067SOL    HW220034   0.457   5.569   1.037  0.9113  1.7320  0.2530
 5067SOL    HW320035   0.589   5.550   1.107  1.2074 -0.1545 -0.7512
 5067SOL    MW420036   0.541   5.545   1.035  0.3788 -0.2839 -0.1962
 5068SOL     OW20037   3.497   5.007   5.810  0.3556  0.1402  0.2889
 5068SOL    HW220038   3.507   4.912   5.816 -1.5866 -0.0449  1.2977
 5068SOL    HW320039   3.413   5.020   5.766  0.6052  1.4153  0.1399
 5068SOL    MW420040   3.487   4.996   5.805  0.1323  0.2840  0.4023
 5069SOL     OW20041   1.571   6.390   0.974  0.1287 -0.0173 -0.2598
 5069SOL    HW220042   1.553   6.349   1.058 -1.1260 -1.3572 -1.1300
 5069SOL    HW320043   1.509   6.349   0.913  1.0416  0.8484 -1.8556
 5069SOL    MW420044   1.561   6.379   0.977  0.0836 -0.0798 -0.5852
 5070SOL     OW20045   0.623   0.698   5.844  0.2505 -0.3768 -0.3738
 5070SOL    HW220046   0.680   0.740   5.779  1.1560 -1.6227 -0.4116
 5070SOL    HW320047   0.591   0.619   5.800  0.8908 -1.2494  0.6946
 5070SOL    MW420048   0.626   0.693   5.829  0.4545 -0.6563 -0.2378
 5071SOL     OW20049   2.832   2.112   5.842  0.0814  0.0780  0.3961
 5071SOL    HW220050   2.869   2.172   5.906  2.2591  0.5983 -1.2482
 5071SOL    HW320051   2.831   2.027   5.886 -2.2730  1.0556  2.4629
 5071SOL    MW420052   2.836   2.109   5.856  0.0581  0.2756  0.4519
 5072SOL     OW20053   4.118   3.157   5.484 -0.5586 -0.0287 -0.0114
 5072SOL    HW220054   4.104   3.185   5.393  1.1022  1.0974  0.0418
 5072SOL    HW320055   4.208   3.183   5.504 -0.1892 -2.0929  1.3235
 5072SOL    MW420056   4.128   3.164   5.475 -0.2907 -0.1525  0.1718
 5073SOL     OW20057   4.936   0.056   3.221 -0.5002 -0.3121 -0.3113
 5073SOL    HW220058   4.857   0.039   3.273 -0.0658  1.0312  0.8486
 5073SOL    HW320059   5.003   0.080   3.285  0.2741  0.6575 -1.4346
 5073SOL    MW420060   4.934   0.057   3.236 -0.3407 -0.0070 -0.3065
 5074SOL     OW20061   3.381   6.316   5.578 -0.4792  0.3635 -0.1637
 5074SOL    HW220062   3.369   6.293   5.670  1.2936  1.7454  0.4645
 5074SOL    HW320063   3.471   6.348   5.573 -1.7791  4.2860 -1.4810
 5074SOL    MW420064   3.391   6.317   5.590 -0.4168  1.0633 -0.2546
 5075SOL     OW20065   2.566   1.724   3.525 -0.0400  0.0267 -0.1732
 5075SOL    HW220066   2.575   1.817   3.503  1.7490  0.4332  1.9535
 5075SOL    HW320067   2.628   1.680   3.466 -2.8911 -0.2955 -3.2023
 5075SOL    MW420068   2.576   1.731   3.514 -0.1801  0.0378 -0.2923
 5076SOL     OW20069   5.460   0.013   0.808  0.0855  0.4406 -0.3746
 5076SOL    HW220070   5.394  -0.056   0.815  1.4813 -1.1618 -2.1669
 5076SOL    HW320071   5.410   0.090   0.779 -1.4152  0.1047  1.1537
 5076SOL    MW420072   5.445   0.014   0.805  0.0717  0.1849 -0.4094
 5077SOL     OW20073   4.638   1.415   4.667 -0.4185 -0.2198  0.2410
 5077SOL    HW220074   4.595   1.416   4.582 -0.0078  1.3076  0.0085
 5077SOL    HW320075   4.580   1.467   4.724 -0.9475 -1.6455  1.0484
 5077SOL    MW420076   4.625   1.422   4.664 -0.4341 -0.2064  0.3169
 5078SOL     OW20077   5.433   0.772   0.494  0.2021 -0.0913 -0.3589
 5078SOL    HW220078   5.467   0.698   0.444 -1.6265 -0.6713 -0.8272
 5078SOL    HW320079   5.466   0.760   0.582  0.4602 -1.1148 -0.5873
 5078SOL    MW420080   5.442   0.761   0.499 -0.0051 -0.3029 -0.4508
 5079SOL     OW20081   5.722   0.291   5.597  0.0910  0.0186  0.0012
 5079SOL    HW220082   5.730   0.217   5.537 -0.2085 -0.4962  0.5795
 5079SOL    HW320083   5.738   0.254   5.684 -2.0535  0.1975  0.5257
 5079SOL    MW420084   5.725   0.277   5.601 -0.2314 -0.0257  0.1467
 5080SOL     OW20085   5.387   6.161   4.126  0.1231 -0.1237 -0.1902
 5080SOL    HW220086   5.428   6.137   4.042  0.0121  0.4894 -0.4203
 5080SOL    HW320087   5.313   6.217   4.102  0.7757  1.0132  0.3794
 5080SOL    MW420088   5.382   6.165   4.112  0.1945  0.1072 -0.1454
 5081SOL     OW20089   3.342   1.934   0.176  0.5339  0.3436 -0.2134
 5081SOL    HW220090   3.272   2.000   0.180  0.4112  0.1740  0.9779
 5081SOL    HW320091   3.300   1.853   0.206  1.5534  0.5548  1.9826
 5081SOL    MW420092   3.327   1.932   0.181  0.6522  0.3491  0.2335
 5082SOL     OW20093   0.885   5.314   6.187 -0.5681  0.3603  0.0776
 5082SOL    HW220094   0.957   5.348   6.134 -0.1739  0.1710  0.4830
 5082SOL    HW320095   0.890   5.364   6.269 -1.6406  1.1897 -0.3238
 5082SOL    MW420096   0.895   5.325   6.191 -0.6576  0.4447  0.0782
 5083SOL     OW20097   4.248   3.269   3.178 -0.0172 -0.2345 -0.0225
 5083SOL    HW220098   4.283   3.337   3.121  1.9568 -2.5286 -1.8000
 5083SOL    HW320099   4.286   3.287   3.264  1.2334  0.4087 -0.6852
 5083SOL    MW420100   4.257   3.280   3.182  0.4083 -0.4523 -0.3445
 5084SOL     OW20101   5.789   2.230   1.247  0.9222 -0.1606 -0.5226
 5084SOL    HW220102   5.699   2.220   1.276  1.2059  0.9369  0.8307
 5084SOL    HW320103   5.810   2.147   1.204 -0.6453 -0.5149 -0.6654
 5084SOL    MW420104   5.780   2.218   1.245  0.7528 -0.0625 -0.3629
 5085SOL     OW20105   1.274   4.688   2.742  0.6445  0.2113  0.4815
 5085SOL    HW220106   1.364   4.722   2.745  0.3573  0.9703  2.6410
 5085SOL    HW320107   1.223   4.760   2.704  0.8981 -0.2089 -0.7175
 5085SOL    MW420108   1.279   4.702   2.737  0.6401  0.2560  0.6083
 5086SOL     OW20109   3.827   5.030   3.871 -0.3510 -0.1958 -0.4189
 5086SOL    HW220110   3.881   5.053   3.947  0.8854 -0.6211 -1.1347
 5086SOL    HW320111   3.890   5.003   3.805 -1.5336 -2.5111 -0.6959
 5086SOL    MW420112   3.843   5.029   3.872 -0.3439 -0.5574 -0.5499
 5087SOL     OW20113   5.801   1.769   5.510 -0.0020 -0.1811  0.1237
 5087SOL    HW220114   5.883   1.732   5.544  1.5714  0.4711 -2.6261
 5087SOL    HW320115   5.822   1.861   5.493 -1.9610  0.5032  1.1551
 5087SOL    MW420116   5.815   1.776   5.512 -0.0529 -0.0048 -0.1030
 5088SOL     OW20117   0.995   0.959   4.035  0.1084  0.0838 -0.6816
 5088SOL    HW220118   0.920   0.910   4.071  0.5818  0.7096  1.2971
 5088SOL    HW320119   1.072   0.914   4.069  0.6263  0.1913 -1.6769
 5088SOL    MW420120   0.995   0.947   4.044  0.2392  0.1805 -0.5519
 5089SOL     OW20121   4.218   4.119   3.002  0.0791 -0.1464 -0.1898
 5089SOL    HW220122   4.193   4.116   3.094 -0.3936 -0.1408 -0.3154
 5089SOL    HW320123   4.235   4.211   2.984  1.3422 -0.2858  0.1923
 5089SOL    MW420124   4.217   4.131   3.011  0.1834 -0.1640 -0.1559
 5090SOL     OW20125   1.893   3.388   0.070 -0.0400 -0.3087  0.4303
 5090SOL    HW220126   1.958   3.328   0.034  0.1049  0.4076 -0.5353
 5090SOL    HW320127   1.810   3.341   0.065  0.0755 -0.4403 -0.2955
 5090SOL    MW420128   1.891   3.374   0.065 -0.0057 -0.2316  0.2071
 5091SOL     OW20129   0.919   0.279   5.570  0.4387 -0.4000 -0.4048
 5091SOL    HW220130   0.955   0.207   5.621  0.3546 -0.7836 -0.8792
 5091SOL    HW320131   0.947   0.358   5.616  0.8263 -0.7274 -0.0760
 5091SOL    MW420132   0.927   0.280   5.583  0.4788 -0.4938 -0.4240
 5092SOL     OW20133   2.050   4.628   5.093  0.1763  0.4332 -0.5038
 5092SOL    HW220134   2.088   4.641   5.180 -1.2650 -0.0910  0.2275
 5092SOL    HW320135   2.095   4.551   5.058  0.6828  0.5793 -0.1891
 5092SOL    MW420136   2.061   4.620   5.100  0.0530  0.3833 -0.3658
 5093SOL     OW20137   0.128   4.476   5.761  1.0480  0.7062 -0.1630
 5093SOL    HW220138   0.220   4.458   5.743  0.2013 -1.9547 -2.6311
 5093SOL    HW320139   0.103   4.412   5.828  0.7574  0.6724 -0.3004
 5093SOL    MW420140   0.137   4.465   5.767  0.8980  0.3507 -0.5068
 5094SOL     OW20141   3.208   3.585   0.669  0.5321  0.8886 -0.4498
 5094SOL    HW220142   3.223   3.529   0.746  0.2424  1.4032 -0.0141
 5094SOL    HW320143   3.236   3.531   0.595  0.6410  0.3147 -0.0017
 5094SOL    MW420144   3.213   3.570   0.670  0.5082  0.8808 -0.3332
 5095SOL     OW20145   3.262   1.085   5.695  0.0939  0.3257 -0.5524
 5095SOL    HW220146   3.344   1.126   5.668  0.2862 -0.9001 -1.9667
 5095SOL    HW320147   3.280   1.049   5.781  1.0006  0.2027 -0.7881
 5095SOL    MW420148   3.275   1.086   5.702  0.2389  0.1478 -0.7701
 5096SOL     OW20149   3.207   4.514   3.162 -0.1500  0.3638 -0.3941
 5096SOL    HW220150   3.119   4.527   3.127  0.1308 -1.1832 -1.7915
 5096SOL    HW320151   3.235   4.430   3.127  0.9524 -0.3821  2.0147
 5096SOL    MW420152   3.199   4.505   3.153  0.0325  0.0613 -0.2606
 5097SOL     OW20153   0.767   4.266   5.955  0.3208 -0.6257  0.4630
 5097SOL    HW220154   0.762   4.199   5.887  0.2148  1.0156 -1.2496
 5097SOL    HW320155   0.721   4.341   5.917  1.0093  0.6448  2.0189
 5097SOL    MW420156   0.760   4.267   5.941  0.3977 -0.2415  0.4424
 5098SOL     OW20157   1.527   4.813   2.532  0.4034  0.1965  0.1660
 5098SOL    HW220158   1.517   4.718   2.543  0.8762  0.1256 -0.0043
 5098SOL    HW320159   1.519   4.827   2.438  1.7582  0.1423  0.0207
 5098SOL    MW420160   1.525   4.802   2.521  0.6445  0.1800  0.1244
 5099SOL     OW20161   2.434   2.819   2.688  0.6583  0.2877 -0.1870
 5099SOL    HW220162   2.437   2.872   2.768  0.4826  0.7560 -0.4844
 5099SOL    HW320163   2.343   2.823   2.660  0.9600  1.1844 -1.1055
 5099SOL    MW420164   2.422   2.827   2.695  0.6750  0.4678 -0.3474
 5100SOL     OW20165   1.283   5.120   6.347 -0.2575  0.0926  0.5168
 5100SOL    HW220166   1.303   5.211   6.326 -0.3306  0.2987  1.3257
 5100SOL    HW320167   1.192   5.120   6.374  0.0308 -0.0331  1.5369
 5100SOL    MW420168   1.274   5.132   6.348 -0.2291  0.1032  0.7581
 5101SOL     OW20169   3.756   0.337   3.307 -0.3865  0.0071 -0.0869
 5101SOL    HW220170   3.826   0.401   3.322 -1.1150  0.9154 -0.4842
 5101SOL    HW320171   3.719   0.361   3.223 -1.9766  0.3001  0.6674
 5101SOL    MW420172   3.760   0.348   3.298 -0.6924  0.1656 -0.0398
 5102SOL     OW20173   5.650   3.944   5.823  0.2505 -0.6462  0.0289
 5102SOL    HW220174   5.587   3.893   5.874  1.5006 -1.0399  1.2347
 5102SOL    HW320175   5.631   4.035   5.845  0.8983 -0.8167  1.3988
 5102SOL    MW420176   5.639   3.949   5.832  0.5009 -0.7206  0.3688
 5103SOL     OW20177   4.985   5.565   2.419 -0.3529 -0.4643 -0.0483
 5103SOL    HW220178   4.918   5.622   2.381 -1.5424 -1.9942 -0.3784
 5103SOL    HW320179   4.960   5.477   2.389  1.7739 -1.0890 -0.0978
 5103SOL    MW420180   4.973   5.561   2.410 -0.2293 -0.7486 -0.0984
 5104SOL     OW20181   4.131   1.804   6.111  0.1685 -0.2970 -0.0973
 5104SOL    HW220182   4.125   1.780   6.204 -0.8157 -1.8970 -0.5321
 5104SOL    HW320183   4.056   1.861   6.096  1.1180  1.1474  0.3681
 5104SOL    MW420184   4.121   1.809   6.121  0.1639 -0.3175 -0.0933
 5105SOL     OW20185   5.223   0.888   1.844 -0.4783  0.1506  0.1487
 5105SOL    HW220186   5.145   0.939   1.866 -0.7086  0.0904 -0.4976
 5105SOL    HW320187   5.238   0.832   1.921 -0.5253  0.8136  0.6496
 5105SOL    MW420188   5.215   0.887   1.857 -0.5149  0.2301  0.1295
 5106SOL     OW20189   6.091   3.265   2.737  0.3821  1.0108  0.3838
 5106SOL    HW220190   6.082   3.337   2.800  2.5775 -0.4180  2.4884
 5106SOL    HW320191   6.041   3.193   2.776 -0.3149  0.8221 -0.8132
 5106SOL    MW420192   6.083   3.265   2.750  0.5798  0.7974  0.5036
 5107SOL     OW20193   0.743   2.429   5.334 -0.1879 -0.3414 -0.3557
 5107SOL    HW220194   0.654   2.398   5.347 -1.2303  1.9909 -1.4252
 5107SOL    HW320195   0.768   2.395   5.248 -1.6578  2.2594 -1.9312
 5107SOL    MW420196   0.735   2.420   5.325 -0.5194  0.3095 -0.7047
 5108SOL     OW20197   5.694   3.655   1.139  0.2418  0.0789  0.7676
 5108SOL    HW220198   5.754   3.718   1.100 -0.6538 -0.1924 -1.1726
 5108SOL    HW320199   5.711   3.574   1.091 -0.9258 -0.2746  0.9282
 5108SOL    MW420200   5.704   3.652   1.128 -0.0304 -0.0035  0.5328
 5109SOL     OW20201   1.181   0.506   5.134 -0.6636  0.4352  0.1334
 5109SOL    HW220202   1.262   0.465   5.104 -0.1888  1.4374 -0.0088
 5109SOL    HW320203   1.140   0.442   5.192  0.9739  0.4984  1.4054
 5109SOL    MW420204   1.186   0.492   5.137 -0.3849  0.5758  0.2825
 5110SOL     OW20205   3.115   0.744   0.136  0.6994 -0.2626 -0.0557
 5110SOL    HW220206   3.198   0.787   0.115  0.6358 -0.6902 -1.2317
 5110SOL    HW320207   3.121   0.727   0.230  1.6765  0.2746 -0.0039
 5110SOL    MW420208   3.127   0.747   0.146  0.8199 -0.2481 -0.2040
 5111SOL     OW20209   1.415   2.306   5.499  0.2280 -0.1379 -0.0322
 5111SOL    HW220210   1.395   2.265   5.583  0.6446 -0.0634  0.1089
 5111SOL    HW320211   1.352   2.268   5.438 -1.7711  1.6984  0.7951
 5111SOL    MW420212   1.404   2.295   5.502  0.0192  0.1142  0.0955
 5112SOL     OW20213   0.688   2.829   2.670  0.2456  0.6277 -0.3532
 5112SOL    HW220214   0.749   2.845   2.741  1.4555  0.0103 -1.2248
 5112SOL    HW320215   0.671   2.735   2.673 -2.0253  0.9930  0.9142
 5112SOL    MW420216   0.694   2.819   2.680  0.1056  0.5944 -0.3010
 5113SOL     OW20217   1.519   2.814   6.136  0.6612  0.4055 -0.7385
 5113SOL    HW220218   1.514   2.904   6.103  2.7000  0.4175 -1.1724
 5113SOL    HW320219   1.475   2.762   6.068 -0.4726  1.0469 -0.5176
 5113SOL    MW420220   1.513   2.819   6.122  0.7806  0.4917 -0.7666
 5114SOL     OW20221   0.756   2.516   5.733 -0.1860 -0.5051  0.5065
 5114SOL    HW220222   0.669   2.482   5.753 -1.0976  1.3217 -0.1736
 5114SOL    HW320223   0.740   2.599   5.688  1.8882 -0.6689 -0.6583
 5114SOL    MW420224   0.743   2.522   5.730 -0.0326 -0.2857  0.2631
 5115SOL     OW20225   5.322   4.085   5.890 -0.8700 -0.3408 -0.1309
 5115SOL    HW220226   5.233   4.099   5.923 -0.3044  0.4237  1.1574
 5115SOL    HW320227   5.359   4.173   5.884 -0.0469 -0.6858 -0.2020
 5115SOL    MW420228   5.315   4.099   5.894 -0.6868 -0.2854  0.0297
 5116SOL     OW20229   4.479   5.917   4.098 -0.5820  0.1881  0.5295
 5116SOL    HW220230   4.384   5.919   4.086 -0.7286 -1.0821  1.3120
 5116SOL    HW320231   4.514   5.922   4.009 -1.3852  0.2689  0.2060
 5116SOL    MW420232   4.471   5.918   4.085 -0.7073  0.0312  0.5900
 5117SOL     OW20233   2.328   0.219   1.285  0.5944  0.3325 -0.5989
 5117SOL    HW220234   2.256   0.280   1.300  1.5745  1.2057  0.6860
 5117SOL    HW320235   2.405   0.274   1.274  1.1887 -0.6134 -1.4308
 5117SOL    MW420236   2.329   0.234   1.285  0.8021  0.3229 -0.5392
 5118SOL     OW20237   1.476   1.371   2.690  0.1069  0.3330 -0.5382
 5118SOL    HW220238   1.414   1.301   2.670 -1.1765  1.1398  0.4369
 5118SOL    HW320239   1.512   1.346   2.776  3.0839 -1.4085 -2.1403
 5118SOL    MW420240   1.472   1.358   2.699  0.3304  0.2097 -0.6209
 5119SOL     OW20241   0.902   2.353   1.156  0.2530  0.0537  1.2162
 5119SOL    HW220242   0.825   2.407   1.137 -0.1624 -0.9352 -0.0413
 5119SOL    HW320243   0.897   2.282   1.093  2.9549  0.6836  0.1720
 5119SOL    MW420244   0.891   2.351   1.146  0.5547  0.0064  0.9125
 5120SOL     OW20245   1.304   1.862   6.412  0.2772 -0.0573  0.2617
 5120SOL    HW220246   1.231   1.923   6.408 -0.1303 -0.6042 -2.0025
 5120SOL    HW320247   1.373   1.909   6.459 -0.8167  1.2466  0.5942
 5120SOL    MW420248   1.304   1.876   6.418  0.0791  0.0425  0.0068
 5121SOL     OW20249   4.693   3.795   5.609 -0.3822  0.5754  0.3032
 5121SOL    HW220250   4.762   3.731   5.626 -0.2249  1.0856  1.7645
 5121SOL    HW320251   4.622   3.745   5.570  0.5821 -0.0666 -0.6944
 5121SOL    MW420252   4.693   3.780   5.606 -0.2342  0.5580  0.3644
 5122SOL     OW20253   6.042   5.821   2.242  0.0382  0.2256  0.4356
 5122SOL    HW220254   6.114   5.824   2.179  0.3844 -1.4870  0.6995
 5122SOL    HW320255   5.968   5.861   2.197 -0.1130 -2.1523 -1.6249
 5122SOL    MW420256   6.042   5.827   2.228  0.0639 -0.3141  0.1986
 5123SOL     OW20257   2.240   3.816   0.829  0.7427  0.2934  0.1308
 5123SOL    HW220258   2.249   3.767   0.747  1.5550  1.4347 -0.4824
 5123SOL    HW320259   2.159   3.783   0.868  0.3378 -0.2471 -1.1332
 5123SOL    MW420260   2.231   3.805   0.824  0.7965  0.3727 -0.1169
 5124SOL     OW20261   2.218   1.486   0.431 -0.1070  0.2325  0.4743
 5124SOL    HW220262   2.226   1.516   0.521  3.1238 -0.3234  0.4665
 5124SOL    HW320263   2.259   1.555   0.379 -1.1206  0.1154 -0.5343
 5124SOL    MW420264   2.224   1.499   0.436  0.1855  0.1437  0.3402
 5125SOL     OW20265   0.068   0.568   0.550  0.6484 -0.1801  0.2367
 5125SOL    HW220266   0.052   0.625   0.625 -0.0507  1.3372 -0.9857
 5125SOL    HW320267   0.151   0.525   0.569  2.0793  2.5083  0.5506
 5125SOL    MW420268   0.076   0.570   0.562  0.7450  0.3748  0.1168
 5126SOL     OW20269   2.099   0.986   1.416  0.5907  0.2201  0.2228
 5126SOL    HW220270   2.171   1.002   1.476 -0.4094  0.8837  1.2864
 5126SOL    HW320271   2.026   0.960   1.472 -0.1326  0.0024 -0.7862
 5126SOL    MW420272   2.098   0.985   1.431  0.3633  0.2789  0.2300
 5127SOL     OW20273   0.016   0.314   0.030  0.3073  0.5063  0.0509
 5127SOL    HW220274  -0.008   0.322  -0.063  3.2570  0.4133 -0.8461
 5127SOL    HW320275  -0.035   0.240   0.062  0.8880 -0.9590 -2.1762
 5127SOL    MW420276   0.006   0.305   0.022  0.7731  0.3007 -0.3613
 5128SOL     OW20277   3.267   2.277   2.094  0.0754 -0.5293 -0.3944
 5128SOL    HW220278   3.293   2.187   2.113  0.1232 -0.6524 -1.0283
 5128SOL    HW320279   3.257   2.280   1.999 -1.5828 -0.3114 -0.2479
 5128SOL    MW420280   3.269   2.265   2.084 -0.1371 -0.5168 -0.4587
 5129SOL     OW20281   0.290   2.828   3.605 -0.9766 -0.4463 -0.2545
 5129SOL    HW220282   0.378   2.857   3.628 -1.1209 -1.4814  1.8853
 5129SOL    HW320283   0.236   2.853   3.680 -2.2464 -0.9568 -0.9592
 5129SOL    MW420284   0.294   2.835   3.618 -1.1632 -0.6502 -0.0652
 5130SOL     OW20285   3.020   2.329   3.917 -0.1117  0.2212  0.5227
 5130SOL    HW220286   2.994   2.284   3.997  0.2229  0.7346  0.9229
 5130SOL    HW320287   2.937   2.358   3.878 -0.2810 -0.1207  0.6229
 5130SOL    MW420288   3.006   2.327   3.922 -0.0899  0.2438  0.5887
 5131SOL     OW20289   0.635   5.272   4.713 -0.0145 -0.2642  0.2894
 5131SOL    HW220290   0.716   5.318   4.691 -0.3334  1.2184  1.9680
 5131SOL    HW320291   0.657   5.216   4.788 -0.6130  0.5161  1.0743
 5131SOL    MW420292   0.648   5.271   4.720 -0.1355  0.0344  0.6144
 5132SOL     OW20293   0.423   0.556   5.727 -0.1083  0.4809 -0.6066
 5132SOL    HW220294   0.346   0.607   5.754  0.8389  2.3853 -1.3416
 5132SOL    HW320295   0.392   0.503   5.654 -1.2652 -0.4710  0.5355
 5132SOL    MW420296   0.408   0.556   5.721 -0.1360  0.6066 -0.5529
 5133SOL     OW20297   5.413   3.726   2.419 -0.1465  0.5064 -0.1538
 5133SOL    HW220298   5.404   3.670   2.342  1.9055 -0.1208 -0.0097
 5133SOL    HW320299   5.394   3.814   2.387  1.6369  0.4077 -1.6759
 5133SOL    MW420300   5.409   3.730   2.405  0.3595  0.4107 -0.3356
 5134SOL     OW20301   0.808   1.632   6.329  0.0371 -0.2092 -0.7609
 5134SOL    HW220302   0.847   1.714   6.362 -0.5681 -0.0285 -0.4820
 5134SOL    HW320303   0.721   1.657   6.299 -0.6676 -0.9703  0.5365
 5134SOL    MW420304   0.802   1.646   6.330 -0.1357 -0.2858 -0.5529
 5135SOL     OW20305   1.958   1.310   1.092  0.1905  0.2792  0.2388
 5135SOL    HW220306   1.966   1.290   1.185  0.7740 -1.2981 -0.1152
 5135SOL    HW320307   2.043   1.286   1.055  0.4472  2.1467 -0.5211
 5135SOL    MW420308   1.970   1.304   1.099  0.3014  0.3175  0.0918
 5136SOL     OW20309   2.303   6.420   6.025  0.1806  0.2783 -0.2484
 5136SOL    HW220310   2.316   6.499   5.972 -0.5398  0.8002  0.3412
 5136SOL    HW320311   2.256   6.360   5.967 -0.5466  0.8229 -0.2276
 5136SOL    MW420312   2.299   6.422   6.010 -0.0104  0.4190 -0.1678
 5137SOL     OW20313   3.495   0.413   2.252  0.0524  0.1340 -0.1715
 5137SOL    HW220314   3.537   0.404   2.166  2.7696  2.9500  0.7021
 5137SOL    HW320315   3.404   0.434   2.232  0.7884  1.4804 -2.4358
 5137SOL    MW420316   3.489   0.415   2.238  0.5080  0.6831 -0.3550
 5138SOL     OW20317   1.079   3.578   4.729  0.3370  0.7520 -0.4095
 5138SOL    HW220318   1.054   3.668   4.750  0.2828  1.0743 -1.7755
 5138SOL    HW320319   1.171   3.584   4.703  0.4102  0.3705 -0.2416
 5138SOL    MW420320   1.087   3.591   4.728  0.3395  0.7442 -0.5675
 5139SOL     OW20321   2.062   2.224   4.760  0.5656 -0.3128 -0.0586
 5139SOL    HW220322   2.100   2.174   4.688  2.3022  0.4336  0.2984
 5139SOL    HW320323   2.087   2.314   4.742  0.5347 -0.0440  1.1698
 5139SOL    MW420324   2.070   2.229   4.748  0.7906 -0.1788  0.1506
 5140SOL     OW20325   4.525   4.783   3.912 -0.4955 -0.2051 -0.3374
 5140SOL    HW220326   4.619   4.801   3.902 -0.4265 -0.4382 -0.0908
 5140SOL    HW320327   4.512   4.696   3.874 -0.4801 -0.4929  0.3072
 5140SOL    MW420328   4.536   4.774   3.905 -0.4844 -0.2738 -0.2198
 5141SOL     OW20329   1.134   1.499   5.405 -0.1202  0.0863 -0.1275
 5141SOL    HW220330   1.056   1.503   5.351 -1.1766 -1.5949  1.1451
 5141SOL    HW320331   1.146   1.405   5.422  0.1998  0.5100  2.4199
 5141SOL    MW420332   1.125   1.487   5.400 -0.2173 -0.0796  0.3765
 5142SOL     OW20333   1.734   2.625   3.883  0.1319 -0.2214 -0.2673
 5142SOL    HW220334   1.684   2.567   3.941 -1.2910 -0.2591 -1.4719
 5142SOL    HW320335   1.721   2.589   3.796  2.0780 -0.0514 -0.6634
 5142SOL    MW420336   1.726   2.613   3.879  0.2009 -0.2039 -0.4785
 5143SOL     OW20337   2.119   2.990   2.421  0.2210  0.0974  0.7386
 5143SOL    HW220338   2.066   3.070   2.423 -0.9050 -0.5861 -0.2531
 5143SOL    HW320339   2.123   2.962   2.513 -2.4641 -0.6373  0.7222
 5143SOL    MW420340   2.113   2.997   2.434 -0.2818 -0.0897  0.6056
 5144SOL     OW20341   0.091   2.219   4.570  0.2421  0.6977  0.6409
 5144SOL    HW220342   0.138   2.233   4.487  0.2762 -0.6548  0.4121
 5144SOL    HW320343   0.156   2.179   4.628  0.3199  1.9561  1.4603
 5144SOL    MW420344   0.106   2.216   4.567  0.2568  0.6853  0.7189
 5145SOL     OW20345   1.270   5.211   2.137 -0.2516  0.2199 -0.4435
 5145SOL    HW220346   1.333   5.238   2.204 -1.2198  1.0411  0.1703
 5145SOL    HW320347   1.236   5.128   2.168 -0.7600  0.6391  0.1526
 5145SOL    MW420348   1.274   5.204   2.150 -0.4464  0.3836 -0.2839
 5146SOL     OW20349   0.770   4.358   0.457  0.2350  0.1987  0.5271
 5146SOL    HW220350   0.726   4.336   0.540  0.2988 -2.6517 -0.0848
 5146SOL    HW320351   0.710   4.327   0.389  1.4253 -0.0782 -0.4293
 5146SOL    MW420352   0.756   4.351   0.459  0.4005 -0.2139  0.3202
 5147SOL     OW20353   0.265   0.028   4.983 -0.2162 -0.4129  0.3237
 5147SOL    HW220354   0.201  -0.040   4.967  0.6594 -1.4509  1.0638
 5147SOL    HW320355   0.245   0.060   5.072 -0.4029  0.0513  0.1189
 5147SOL    MW420356   0.254   0.024   4.993 -0.1253 -0.4886  0.3944
 5148SOL     OW20357   5.892   3.313   4.509  0.4371  0.2448  0.0076
 5148SOL    HW220358   5.951   3.305   4.434  1.9160 -1.3197  1.2621
 5148SOL    HW320359   5.898   3.404   4.535 -0.3524  0.9089 -1.9205
 5148SOL    MW420360   5.901   3.324   4.502  0.5280  0.1260 -0.0813
 5149SOL     OW20361   6.097   0.340   4.220 -0.4623 -0.2967  0.0247
 5149SOL    HW220362   6.164   0.313   4.282  1.6847  2.6579 -0.7887
 5149SOL    HW320363   6.118   0.292   4.140  1.1130  0.9421 -0.3678
 5149SOL    MW420364   6.108   0.330   4.218  0.0288  0.2566 -0.1344
 5150SOL     OW20365   5.221   1.160   4.767  0.4753 -0.6855  0.3465
 5150SOL    HW220366   5.294   1.215   4.739 -0.6823  0.1771 -1.2062
 5150SOL    HW320367   5.247   1.071   4.743  1.2671 -0.4714  0.3902
 5150SOL    MW420368   5.234   1.156   4.760  0.4270 -0.5434  0.1474
 5151SOL     OW20369   0.390   6.167   2.649 -0.0023 -0.1333 -0.2022
 5151SOL    HW220370   0.406   6.181   2.556  1.8013  0.4394  0.1478
 5151SOL    HW320371   0.463   6.113   2.679 -0.6217 -0.4200  0.8574
 5151SOL    MW420372   0.402   6.162   2.641  0.1539 -0.0956 -0.0162
 5152SOL     OW20373   5.604   2.162   3.916 -0.1086 -0.6301 -0.3051
 5152SOL    HW220374   5.612   2.255   3.938  0.8588 -0.9162  0.6688
 5152SOL    HW320375   5.576   2.161   3.825 -0.5696  0.6168 -0.1940
 5152SOL    MW420376   5.601   2.174   3.907 -0.0418 -0.5033 -0.1619
 5153SOL     OW20377   1.746   5.684   1.516  0.4439  0.0507 -0.0728
 5153SOL    HW220378   1.720   5.711   1.604  0.2698 -0.1874 -0.0498
 5153SOL    HW320379   1.791   5.760   1.480 -1.6465  1.0682 -0.6953
 5153SOL    MW420380   1.749   5.698   1.523  0.1451  0.1535 -0.1519
 5154SOL     OW20381   6.199   5.389   3.944  0.4010 -0.2492 -0.0422
 5154SOL    HW220382   6.294   5.401   3.947  0.2111  1.3552  1.1195
 5154SOL    HW320383   6.176   5.406   3.853  0.8911  3.0563  0.3060
 5154SOL    MW420384   6.209   5.393   3.932  0.4406  0.3986  0.1570
 5155SOL     OW20385   2.141   4.783   0.022 -0.3629 -0.1301 -0.1294
 5155SOL    HW220386   2.114   4.852   0.083  1.6531 -0.3040  1.0550
 5155SOL    HW320387   2.234   4.799   0.006  0.0092 -2.1561 -0.3428
 5155SOL    MW420388   2.150   4.794   0.028 -0.0478 -0.4203 -0.0013
 5156SOL     OW20389   3.563   4.682   5.401 -0.0066  0.2319 -0.4963
 5156SOL    HW220390   3.593   4.768   5.431  0.5646  0.3277 -1.3136
 5156SOL    HW320391   3.644   4.635   5.382 -0.2622 -0.9233  1.1027
 5156SOL    MW420392   3.578   4.687   5.403  0.0351  0.0921 -0.3932
 5157SOL     OW20393   2.495   0.913   4.203  0.4895  0.5385 -0.5881
 5157SOL    HW220394   2.570   0.937   4.258  1.0421 -0.4207 -0.8971
 5157SOL    HW320395   2.498   0.976   4.130 -0.8489  2.4771  0.9376
 5157SOL    MW420396   2.505   0.925   4.200  0.3858  0.6677 -0.4276
 5158SOL     OW20397   0.675   1.025   0.533 -0.6856  0.1399 -0.3801
 5158SOL    HW220398   0.664   0.967   0.458 -0.9899 -0.3660  0.0444
 5158SOL    HW320399   0.769   1.035   0.542 -0.5461 -1.5473  0.4605
 5158SOL    MW420400   0.686   1.019   0.525 -0.7073 -0.1494 -0.2132
 5159SOL     OW20401   1.505   1.898   3.661 -0.5366 -0.2498  0.6527
 5159SOL    HW220402   1.441   1.905   3.732 -0.1460 -0.1479  0.9981
 5159SOL    HW320403   1.579   1.950   3.690 -1.0957  1.3698 -0.6501
 5159SOL    MW420404   1.506   1.906   3.674 -0.5588 -0.0226  0.5264
 5160SOL     OW20405   1.282   5.384   6.279 -0.0995  0.0872 -0.4545
 5160SOL    HW220406   1.368   5.420   6.260  0.8096 -1.0690  1.2513
 5160SOL    HW320407   1.239   5.450   6.334  1.0217 -0.7118  1.4829
 5160SOL    MW420408   1.287   5.397   6.284  0.1684 -0.1708  0.0262
 5161SOL     OW20409   3.139   3.599   0.338 -0.1388 -0.6910 -0.4528
 5161SOL    HW220410   3.188   3.535   0.390 -0.4833 -0.9424 -0.4337
 5161SOL    HW320411   3.189   3.607   0.257  0.4173 -0.2779 -0.0787
 5161SOL    MW420412   3.152   3.591   0.335 -0.1109 -0.6697 -0.4009
 5162SOL     OW20413   6.290   3.979   1.351 -0.1763 -0.4198  0.0982
 5162SOL    HW220414   6.197   3.955   1.357 -0.8138  1.4544 -1.1898
 5162SOL    HW320415   6.337   3.897   1.366 -2.0828 -1.7264 -0.6564
 5162SOL    MW420416   6.284   3.965   1.353 -0.5120 -0.3450 -0.1713
 5163SOL     OW20417   4.997   0.228   5.962 -0.5003  0.6444 -0.0314
 5163SOL    HW220418   4.996   0.172   5.884  0.0303  1.3706 -0.5706
 5163SOL    HW320419   4.906   0.227   5.993 -0.3543 -1.1501  0.4445
 5163SOL    MW420420   4.985   0.220   5.956 -0.4110  0.5034 -0.0397
 5164SOL     OW20421   1.583   5.721   4.124 -0.2234  0.9413  0.1174
 5164SOL    HW220422   1.580   5.816   4.132 -1.4099  0.8766  0.6503
 5164SOL    HW320423   1.649   5.705   4.057  1.3756  2.0424  1.3500
 5164SOL    MW420424   1.591   5.731   4.116 -0.1690  1.0781  0.3503
 5165SOL     OW20425   3.423   1.754   5.406  0.4491 -0.4254  0.2799
 5165SOL    HW220426   3.492   1.749   5.471  1.0534  1.1967 -0.1841
 5165SOL    HW320427   3.445   1.686   5.342  0.4769 -1.2586  1.1598
 5165SOL    MW420428   3.435   1.745   5.406  0.5325 -0.3213  0.3348
 5166SOL     OW20429   4.434   5.730   0.231  0.3269  0.1692 -0.0202
 5166SOL    HW220430   4.528   5.725   0.213  0.5247 -1.5882  1.1881
 5166SOL    HW320431   4.406   5.638   0.234 -0.7195  0.4786  2.9391
 5166SOL    MW420432   4.443   5.717   0.229  0.2150 -0.0218  0.5297
 5167SOL     OW20433   5.808   0.003   2.326  0.2161 -0.2937  0.5384
 5167SOL    HW220434   5.861  -0.048   2.265 -0.5365 -1.2982  0.7109
 5167SOL    HW320435   5.839  -0.024   2.413  1.0291  0.8600  0.6333
 5167SOL    MW420436   5.819  -0.007   2.330  0.2241 -0.2740  0.5737
 5168SOL     OW20437   2.671   1.264   3.823  0.5374 -0.2297  0.3458
 5168SOL    HW220438   2.662   1.353   3.857 -0.3187 -0.5895  1.1197
 5168SOL    HW320439   2.633   1.209   3.891 -0.2504 -1.0751 -0.7323
 5168SOL    MW420440   2.665   1.268   3.836  0.3205 -0.3887  0.3056
 5169SOL     OW20441   3.312   4.323   3.431 -0.2474  0.1646 -0.3012
 5169SOL    HW220442   3.340   4.415   3.437  0.3283 -0.0165 -0.1731
 5169SOL    HW320443   3.292   4.298   3.521 -0.8080  0.2810 -0.3857
 5169SOL    MW420444   3.313   4.332   3.444 -0.2454  0.1561 -0.2954
 5170SOL     OW20445   2.483   1.805   1.271 -0.4100 -0.6330 -0.3624
 5170SOL    HW220446   2.447   1.894   1.274 -0.8842 -0.7550 -1.7979
 5170SOL    HW320447   2.548   1.803   1.342 -0.9770  0.5894  0.2209
 5170SOL    MW420448   2.487   1.817   1.281 -0.5474 -0.4878 -0.4748
 5171SOL     OW20449   2.682   4.535   5.469 -0.0131  0.1833 -0.1825
 5171SOL    HW220450   2.660   4.552   5.378  0.3616 -2.1637 -0.7759
 5171SOL    HW320451   2.597   4.529   5.513 -0.2099  0.7703 -0.4710
 5171SOL    MW420452   2.668   4.536   5.463  0.0104 -0.0489 -0.2989
 5172SOL     OW20453   1.285   5.544   0.505 -0.2113 -0.1112  0.1270
 5172SOL    HW220454   1.350   5.474   0.502  1.3618  1.2692  0.5031
 5172SOL    HW320455   1.301   5.594   0.425 -0.3534  0.6206  0.5501
 5172SOL    MW420456   1.296   5.541   0.494 -0.0225  0.1675  0.2324
 5173SOL     OW20457   5.459   5.712   1.443  0.0660 -0.0400 -0.0962
 5173SOL    HW220458   5.506   5.739   1.364  1.2394 -1.6203  0.0158
 5173SOL    HW320459   5.392   5.651   1.412 -1.8616  2.0027 -0.2242
 5173SOL    MW420460   5.457   5.708   1.429 -0.0335  0.0210 -0.0983
 5174SOL     OW20461   3.878   1.088   3.628 -0.5885  0.1550 -0.4933
 5174SOL    HW220462   3.920   1.107   3.712 -0.0335 -0.6754 -0.5622
 5174SOL    HW320463   3.868   0.993   3.627  0.2122  0.0514 -1.7173
 5174SOL    MW420464   3.883   1.078   3.639 -0.4096  0.0318 -0.6639
 5175SOL     OW20465   3.310   3.833   5.283  0.4158  0.1958  0.3161
 5175SOL    HW220466   3.359   3.754   5.304  0.2755 -0.3514 -1.2674
 5175SOL    HW320467   3.347   3.863   5.200  0.7160  2.0169  1.0756
 5175SOL    MW420468   3.321   3.826   5.274  0.4369  0.3638  0.2074
 5176SOL     OW20469   0.994   6.195   1.840 -0.5336 -0.4866 -0.3384
 5176SOL    HW220470   0.953   6.154   1.916  0.8213 -0.4605  0.4228
 5176SOL    HW320471   1.034   6.275   1.874 -0.8531  0.1045 -1.2984
 5176SOL    MW420472   0.994   6.200   1.854 -0.3970 -0.4051 -0.3646
 5177SOL     OW20473   0.529   6.177   4.504 -0.3866  0.6797  0.1982
 5177SOL    HW220474   0.524   6.106   4.568  1.3276  0.3008 -0.0390
 5177SOL    HW320475   0.439   6.188   4.473 -0.6261 -1.7459 -0.1333
 5177SOL    MW420476   0.516   6.169   4.509 -0.1920  0.3097  0.1232
 5178SOL     OW20477   0.474   0.854   0.632  0.0065 -0.0329  0.5754
 5178SOL    HW220478   0.389   0.896   0.621 -0.0600 -0.5810 -1.4435
 5178SOL    HW320479   0.538   0.925   0.620 -0.1423  0.1128  0.6395
 5178SOL    MW420480   0.471   0.869   0.629 -0.0219 -0.0860  0.3175
 5179SOL     OW20481   4.231   1.612   4.321 -0.3914 -0.1681 -0.0103
 5179SOL    HW220482   4.228   1.690   4.267 -1.8030 -0.0598  0.1895
 5179SOL    HW320483   4.243   1.540   4.259 -0.4350  0.0888 -0.3189
 5179SOL    MW420484   4.232   1.613   4.306 -0.5834 -0.1199 -0.0246
 5180SOL     OW20485   4.044   0.687   0.581  0.1471  0.0423  0.2817
 5180SOL    HW220486   4.100   0.633   0.525 -0.0214 -1.5108  1.5511
 5180SOL    HW320487   3.987   0.733   0.520 -0.0551 -1.6151 -0.8579
 5180SOL    MW420488   4.044   0.686   0.565  0.0982 -0.3813  0.2989
 5181SOL     OW20489   4.378   5.906   0.443 -0.7603 -0.0400  0.0867
 5181SOL    HW220490   4.406   5.985   0.397 -0.9679  1.2025  1.9983
 5181SOL    HW320491   4.376   5.839   0.375  0.0977  1.4175 -1.4637
 5181SOL    MW420492   4.381   5.908   0.428 -0.6745  0.3162  0.1344
 5182SOL     OW20493   4.508   2.385   5.431  0.2296  0.2956 -0.2158
 5182SOL    HW220494   4.462   2.431   5.502  0.5663  1.0324 -0.4633
 5182SOL    HW320495   4.599   2.378   5.463  0.6705  1.7175 -1.0537
 5182SOL    MW420496   4.514   2.390   5.445  0.3322  0.5804 -0.3590
 5183SOL     OW20497   1.544   3.983   0.867 -0.2607 -0.1367  0.9147
 5183SOL    HW220498   1.454   3.960   0.846 -0.1524  0.2867 -0.0369
 5183SOL    HW320499   1.555   3.954   0.958 -0.5153 -2.7123  0.2095
 5183SOL    MW420500   1.534   3.976   0.876 -0.2800 -0.4207  0.6961
 5184SOL     OW20501   4.614   5.571   6.231 -0.6766 -0.3040  0.7769
 5184SOL    HW220502   4.650   5.492   6.271  0.9859 -0.1554 -0.3134
 5184SOL    HW320503   4.691   5.621   6.205 -1.6985  1.5344  1.1422
 5184SOL    MW420504   4.629   5.567   6.233 -0.5921 -0.0418  0.6812
 5185SOL     OW20505   1.430   0.254   4.584  0.1469  0.3171  0.3063
 5185SOL    HW220506   1.394   0.322   4.526 -1.5491 -1.6449 -1.0611
 5185SOL    HW320507   1.374   0.255   4.661 -1.1990 -0.8749 -0.6206
 5185SOL    MW420508   1.418   0.263   4.586 -0.2544 -0.0990  0.0036
 5186SOL     OW20509   4.144   5.682   6.301  0.4488 -0.1330  0.2452
 5186SOL    HW220510   4.162   5.682   6.395  0.1332  0.1863  0.3089
 5186SOL    HW320511   4.052   5.705   6.295  0.0037 -1.9261 -0.0718
 5186SOL    MW420512   4.135   5.685   6.313  0.3484 -0.3275  0.2118
 5187SOL     OW20513   1.914   5.036   3.801  0.1736  0.1898 -0.7185
 5187SOL    HW220514   1.820   5.026   3.788 -0.3502  3.0797  0.2043
 5187SOL    HW320515   1.953   4.963   3.752 -2.5372 -1.6171 -0.4065
 5187SOL    MW420516   1.907   5.025   3.793 -0.2532  0.3327 -0.5556
 5188SOL     OW20517   5.216   0.578   1.541 -0.1613 -0.3850  0.1435
 5188SOL    HW220518   5.236   0.547   1.629  2.5602 -1.5300 -0.7727
 5188SOL    HW320519   5.296   0.562   1.491 -1.7927 -0.2968 -2.6978
 5188SOL    MW420520   5.230   0.572   1.546 -0.0175 -0.5244 -0.3523
 5189SOL     OW20521   5.989   0.848   5.702  0.0047 -0.4930  0.2432
 5189SOL    HW220522   6.017   0.875   5.790 -0.6700 -1.2570  0.7116
 5189SOL    HW320523   6.056   0.883   5.644  0.5980 -0.1810  1.0882
 5189SOL    MW420524   6.002   0.856   5.706 -0.0060 -0.5526  0.4165
 5190SOL     OW20525   5.459   4.290   5.123 -0.5381 -0.1645 -0.3355
 5190SOL    HW220526   5.437   4.382   5.132  0.6044  0.0249  0.9306
 5190SOL    HW320527   5.397   4.244   5.180  1.0939  0.2005  1.8540
 5190SOL    MW420528   5.448   4.296   5.132 -0.1721 -0.0914  0.1204
 5191SOL     OW20529   4.444   2.292   2.503 -0.1631  0.3083  0.5573
 5191SOL    HW220530   4.527   2.337   2.516 -0.6488  1.5664 -0.5285
 5191SOL    HW320531   4.465   2.200   2.519  1.1814  0.7253  1.3755
 5191SOL    MW420532   4.458   2.285   2.507 -0.0498  0.5293  0.5220
 5192SOL     OW20533   3.507   5.214   0.214  0.0901  0.8104  0.2588
 5192SOL    HW220534   3.457   5.290   0.246 -0.2829  0.2943  0.9406
 5192SOL    HW320535   3.456   5.139   0.243  1.1293  0.2692  0.7165
 5192SOL    MW420536   3.493   5.214   0.222  0.1780  0.6709  0.4091
 5193SOL     OW20537   1.122   1.182   4.168 -0.0114 -0.1044  0.2930
 5193SOL    HW220538   1.136   1.087   4.169  3.1370  0.1974 -1.3794
 5193SOL    HW320539   1.079   1.200   4.085  0.0046 -0.0210  0.3021
 5193SOL    MW420540   1.118   1.172   4.157  0.4061 -0.0536  0.0735
 5194SOL     OW20541   0.446   3.613   3.549 -0.3221  0.4031  0.6957
 5194SOL    HW220542   0.425   3.535   3.498  0.4483 -0.1072  1.1351
 5194SOL    HW320543   0.380   3.615   3.618  1.2404 -1.4871  2.3942
 5194SOL    MW420544   0.435   3.603   3.551 -0.0143  0.0863  0.9777
 5195SOL     OW20545   0.828   2.405   4.699  0.3023 -0.1036 -0.3845
 5195SOL    HW220546   0.784   2.475   4.747  0.2008  0.3379 -1.1090
 5195SOL    HW320547   0.758   2.352   4.662  0.2637 -2.4019  2.5843
 5195SOL    MW420548   0.813   2.407   4.700  0.2838 -0.3486 -0.0884
 5196SOL     OW20549   1.080   0.625   4.183 -0.0303 -0.5979 -0.1658
 5196SOL    HW220550   1.136   0.572   4.127 -1.2757 -0.6992 -1.3694
 5196SOL    HW320551   1.103   0.716   4.159 -1.3501 -0.6353 -1.7277
 5196SOL    MW420552   1.091   0.630   4.172 -0.3687 -0.6162 -0.5307
 5197SOL     OW20553   4.134   3.816   2.690 -0.6038 -0.8835 -0.1440
 5197SOL    HW220554   4.098   3.870   2.760 -0.3931 -0.7297 -0.1537
 5197SOL    HW320555   4.203   3.870   2.650 -1.7831 -0.3295 -1.5066
 5197SOL    MW420556   4.139   3.830   2.694 -0.7316 -0.7901 -0.3251
 5198SOL     OW20557   0.832   3.431   0.025 -0.8128 -0.1916 -0.1675
 5198SOL    HW220558   0.897   3.486   0.069 -0.4035  0.4880 -1.5800
 5198SOL    HW320559   0.883   3.368  -0.024 -1.2813 -1.9762  1.5046
 5198SOL    MW420560   0.847   3.430   0.025 -0.8206 -0.3374 -0.1333
 5199SOL     OW20561   5.861   3.335   1.399 -0.3365  0.1836 -0.1914
 5199SOL    HW220562   5.858   3.430   1.405 -0.8558  0.1757 -0.2586
 5199SOL    HW320563   5.951   3.315   1.375 -0.1315  0.6360  0.2029
 5199SOL    MW420564   5.872   3.345   1.396 -0.3780  0.2422 -0.1482
 5200SOL     OW20565   1.584   4.544   0.539 -0.0138  0.2046 -0.6296
 5200SOL    HW220566   1.562   4.610   0.474 -0.0100 -0.9747 -1.8551
 5200SOL    HW320567   1.506   4.539   0.596 -0.7813 -0.0818 -1.6773
 5200SOL    MW420568   1.571   4.552   0.538 -0.1145  0.0112 -0.9295
 5201SOL     OW20569   1.632   5.974   5.355 -0.8663 -0.2527  0.0721
 5201SOL    HW220570   1.569   6.035   5.317 -0.2868  0.8227  0.7809
 5201SOL    HW320571   1.603   5.888   5.325 -1.3409  0.4131 -1.4757
 5201SOL    MW420572   1.620   5.971   5.346 -0.8525 -0.0229 -0.0386
 5202SOL     OW20573   4.072   3.733   1.947 -0.0907 -0.6481  0.6090
 5202SOL    HW220574   4.021   3.811   1.925  1.7489  0.3923 -0.1302
 5202SOL    HW320575   4.054   3.719   2.040 -1.4743 -0.1581  0.4523
 5202SOL    MW420576   4.063   3.742   1.957 -0.0306 -0.4462  0.4908
 5203SOL     OW20577   6.291   2.151   4.241  0.1487  0.6789 -0.6684
 5203SOL    HW220578   6.205   2.193   4.250  0.3665  1.1932 -0.9334
 5203SOL    HW320579   6.271   2.063   4.210 -0.2394  1.1224 -1.7261
 5203SOL    MW420580   6.277   2.145   4.238  0.1262  0.8053 -0.8429
 5204SOL     OW20581   6.426   1.753   3.090 -0.3480 -0.3981 -0.3296
 5204SOL    HW220582   6.492   1.684   3.082 -0.5637 -0.5328 -1.0131
 5204SOL    HW320583   6.476   1.834   3.091 -0.2101 -0.4300 -1.9700
 5204SOL    MW420584   6.441   1.754   3.089 -0.3583 -0.4201 -0.6362
 5205SOL     OW20585   0.304   2.865   0.577  0.1469 -0.4475  0.3682
 5205SOL    HW220586   0.304   2.911   0.493 -0.3965 -2.0659 -0.5638
 5205SOL    HW320587   0.394   2.874   0.610  0.5687 -0.4237 -0.7604
 5205SOL    MW420588   0.316   2.872   0.571  0.1309 -0.6579  0.0964
 5206SOL     OW20589   0.139   1.727   1.804  0.4302 -0.4965 -0.1254
 5206SOL    HW220590   0.090   1.676   1.868 -0.3874  0.5947  0.1534
 5206SOL    HW320591   0.153   1.667   1.731 -1.1547 -0.9028 -0.1240
 5206SOL    MW420592   0.135   1.712   1.803  0.1133 -0.4061 -0.0884
 5207SOL     OW20593   6.374   5.641   1.201 -0.4115 -0.8312  0.0119
 5207SOL    HW220594   6.405   5.729   1.184 -0.9301  0.2953  3.8474
 5207SOL    HW320595   6.279   5.645   1.186 -0.8625  0.1374  2.6015
 5207SOL    MW420596   6.365   5.653   1.197 -0.5394 -0.5548  0.8596
 5208SOL     OW20597   2.383   4.733   5.055  0.4384  0.2367  0.2385
 5208SOL    HW220598   2.391   4.704   4.964  0.3882  1.4710 -0.1756
 5208SOL    HW320599   2.462   4.784   5.071  1.8645 -2.2683  1.8133
 5208SOL    MW420600   2.394   4.736   5.045  0.6200  0.0690  0.3917
 5209SOL     OW20601   4.303   4.983   0.876 -0.0098  0.4620  0.2222
 5209SOL    HW220602   4.344   5.040   0.810  2.4280 -1.4828 -0.1200
 5209SOL    HW320603   4.366   4.982   0.948 -0.9426 -0.2413  1.0409
 5209SOL    MW420604   4.317   4.990   0.877  0.1888  0.1126  0.2851
 5210SOL     OW20605   2.091   1.892   1.852  0.3034  0.2375  0.0395
 5210SOL    HW220606   2.095   1.805   1.892  1.0770  0.0635 -0.4147
 5210SOL    HW320607   2.002   1.898   1.816  0.2456 -0.3487  0.0846
 5210SOL    MW420608   2.079   1.882   1.853  0.3978  0.1372 -0.0145
 5211SOL     OW20609   1.120   1.997   1.575 -0.3507 -0.3075  0.1251
 5211SOL    HW220610   1.207   1.974   1.607  0.4347  1.3085 -0.7082
 5211SOL    HW320611   1.100   1.932   1.508  0.7964  0.0508 -0.5814
 5211SOL    MW420612   1.129   1.986   1.570 -0.0957 -0.0470 -0.0781
 5212SOL     OW20613   4.437   3.506   0.564  0.2214 -0.3705 -0.1898
 5212SOL    HW220614   4.452   3.601   0.560 -0.0062 -0.3535 -0.7508
 5212SOL    HW320615   4.496   3.470   0.499 -1.0430 -0.4350 -1.3456
 5212SOL    MW420616   4.447   3.514   0.555  0.0246 -0.3768 -0.4163
 5213SOL     OW20617   0.539   0.865   3.358 -0.0367 -0.4534 -0.3164
 5213SOL    HW220618   0.523   0.915   3.438  1.6146  0.2251 -0.3752
 5213SOL    HW320619   0.602   0.918   3.309 -0.1338 -1.4223 -1.5306
 5213SOL    MW420620   0.545   0.879   3.362  0.1684 -0.4917 -0.4843
 5214SOL     OW20621   3.807   2.098   3.069 -0.6420 -0.5250 -0.2485
 5214SOL    HW220622   3.881   2.146   3.106 -0.4283  0.7391 -2.1755
 5214SOL    HW320623   3.784   2.034   3.137  0.1253  1.1798  1.7460
 5214SOL    MW420624   3.814   2.096   3.083 -0.5125 -0.1333 -0.2396
 5215SOL     OW20625   3.526   3.054   5.398  0.0043  0.1473  0.6626
 5215SOL    HW220626   3.532   3.043   5.493  1.6020 -0.8424  0.4968
 5215SOL    HW320627   3.433   3.055   5.379 -0.3392  0.2662  2.2336
 5215SOL    MW420628   3.515   3.053   5.408  0.1698  0.0324  0.8480
 5216SOL     OW20629   1.676   0.368   4.765  0.4611  0.4965  0.0910
 5216SOL    HW220630   1.588   0.366   4.726  0.6047 -0.6731 -0.2178
 5216SOL    HW320631   1.692   0.460   4.783 -0.3759  0.8520 -0.8870
 5216SOL    MW420632   1.666   0.380   4.762  0.3696  0.3891 -0.0788
 5217SOL     OW20633   3.043   1.076   0.085 -0.2109 -0.0953 -0.1587
 5217SOL    HW220634   3.093   1.154   0.060 -0.2589 -0.7843 -2.7073
 5217SOL    HW320635   2.952   1.100   0.065 -0.4831 -0.0949  1.0472
 5217SOL    MW420636   3.038   1.090   0.079 -0.2532 -0.1862 -0.3359
 5218SOL     OW20637   6.016   4.025   4.560  0.2969 -0.4790  0.9406
 5218SOL    HW220638   6.077   4.093   4.532  0.0231  0.3109  2.1964
 5218SOL    HW320639   6.071   3.961   4.605  0.4070 -0.5776  0.6705
 5218SOL    MW420640   6.031   4.026   4.562  0.2753 -0.3878  1.0706
 5219SOL     OW20641   2.608   3.267   2.661  0.0623  0.3980 -0.2724
 5219SOL    HW220642   2.625   3.173   2.658 -1.1742  0.1859 -1.4347
 5219SOL    HW320643   2.654   3.297   2.740  4.4590 -0.2869 -2.3061
 5219SOL    MW420644   2.616   3.259   2.671  0.4793  0.2797 -0.6940
 5220SOL     OW20645   2.875   2.475   1.058  0.2795  0.2821 -0.5497
 5220SOL    HW220646   2.880   2.556   1.109 -1.7552  0.5721 -0.6897
 5220SOL    HW320647   2.892   2.503   0.968 -1.1945  0.7583 -0.7162
 5220SOL    MW420648   2.878   2.489   1.053 -0.1834  0.3832 -0.5902
 5221SOL     OW20649   2.232   1.593   2.942 -0.0404  0.3352  1.0025
 5221SOL    HW220650   2.210   1.531   3.012  1.2903 -1.5791 -0.1838
 5221SOL    HW320651   2.223   1.543   2.861  0.5433  1.8642 -0.0617
 5221SOL    MW420652   2.228   1.578   2.941  0.2122  0.2843  0.7055
 5222SOL     OW20653   1.097   5.400   4.389 -0.4502  0.1015  0.0739
 5222SOL    HW220654   1.187   5.433   4.391 -0.7538  0.9440  1.1722
 5222SOL    HW320655   1.064   5.416   4.478 -0.8146 -2.6696  0.5267
 5222SOL    MW420656   1.104   5.407   4.401 -0.5383 -0.1529  0.2786
 5223SOL     OW20657   3.488   5.223   6.242 -0.4306 -0.0509 -0.5847
 5223SOL    HW220658   3.485   5.213   6.147  1.8592 -1.8864 -0.5676
 5223SOL    HW320659   3.581   5.228   6.262 -0.7278 -2.0864  1.7277
 5223SOL    MW420660   3.500   5.222   6.232 -0.1677 -0.5616 -0.2773
 5224SOL     OW20661   0.994   2.013   1.826 -0.2540  0.3163  0.7683
 5224SOL    HW220662   1.067   1.991   1.884 -0.6232  1.3747  1.6651
 5224SOL    HW320663   1.032   2.011   1.738  0.0849 -2.2909  0.8866
 5224SOL    MW420664   1.009   2.010   1.822 -0.2580  0.1119  0.9022
 5225SOL     OW20665   2.524   1.394   2.816  0.5046  0.5827 -0.6849
 5225SOL    HW220666   2.567   1.331   2.759 -0.1170  0.6816 -1.2771
 5225SOL    HW320667   2.479   1.454   2.757 -1.2509 -0.0773 -0.0904
 5225SOL    MW420668   2.524   1.394   2.801  0.1910  0.5087 -0.6846
 5226SOL     OW20669   1.131   3.378   3.408 -0.7681 -0.6020 -0.2575
 5226SOL    HW220670   1.089   3.392   3.323  1.4008  1.2132 -1.1439
 5226SOL    HW320671   1.059   3.358   3.467 -3.1201  3.4085 -1.3885
 5226SOL    MW420672   1.116   3.377   3.404 -0.7923  0.1666 -0.5236
 5227SOL     OW20673   2.056   3.775   6.374 -0.5177  0.6744  0.5908
 5227SOL    HW220674   2.150   3.786   6.392 -0.2554  0.4770 -0.5880
 5227SOL    HW320675   2.043   3.817   6.289 -1.0989 -0.9845 -0.1739
 5227SOL    MW420676   2.067   3.782   6.365 -0.5598  0.4295  0.3344
 5228SOL     OW20677   5.067   4.769   2.027  0.4420  0.2387  0.0327
 5228SOL    HW220678   4.975   4.793   2.016 -0.5746 -3.8612 -2.3001
 5228SOL    HW320679   5.066   4.699   2.092  1.9834  0.2582  0.1121
 5228SOL    MW420680   5.055   4.763   2.034  0.5113 -0.2997 -0.2647
 5229SOL     OW20681   4.198   2.392   4.992 -0.3472 -0.7976  0.2044
 5229SOL    HW220682   4.104   2.379   4.982 -0.3573  0.0151 -0.9393
 5229SOL    HW320683   4.236   2.356   4.911  0.2980 -0.8139  0.5092
 5229SOL    MW420684   4.191   2.385   4.980 -0.2634 -0.6925  0.0937
 5230SOL     OW20685   0.808   3.508   5.263 -0.2702  0.2480 -0.4675
 5230SOL    HW220686   0.810   3.569   5.336  0.3454  1.5366 -1.5094
 5230SOL    HW320687   0.722   3.521   5.222 -0.7754 -0.7589  0.2275
 5230SOL    MW420688   0.797   3.517   5.267 -0.2557  0.2852 -0.5133
 5231SOL     OW20689   2.067   2.592   0.081  0.7707 -0.0663 -0.0547
 5231SOL    HW220690   2.094   2.503   0.058  2.3110  0.1652  0.7593
 5231SOL    HW320691   2.050   2.588   0.176  1.8475  0.7148  0.1936
 5231SOL    MW420692   2.068   2.580   0.091  1.1160  0.0673  0.0855
 5232SOL     OW20693   6.277   1.159   3.624  0.0614  0.1485 -0.2611
 5232SOL    HW220694   6.283   1.070   3.590 -2.0648 -0.1589  0.0157
 5232SOL    HW320695   6.190   1.164   3.663 -0.2897  2.6700 -1.1684
 5232SOL    MW420696   6.266   1.148   3.625 -0.2655  0.4406 -0.3443
 5233SOL     OW20697   2.022   3.085   0.104  0.1306 -0.4428  0.4507
 5233SOL    HW220698   1.950   3.092   0.042  0.3966 -0.1188  0.1674
 5233SOL    HW320699   2.097   3.122   0.057 -0.1108  1.8146  1.6860
 5233SOL    MW420700   2.023   3.091   0.090  0.1338 -0.1022  0.5763
 5234SOL     OW20701   5.475   2.491   4.424  0.3348  0.1394 -0.2115
 5234SOL    HW220702   5.554   2.468   4.376  0.3990  0.1537 -0.1143
 5234SOL    HW320703   5.448   2.411   4.469 -0.3649 -0.1722 -1.1656
 5234SOL    MW420704   5.482   2.478   4.424  0.2509  0.1002 -0.3245
 5235SOL     OW20705   4.130   4.006   4.222  0.6085  0.2807 -0.1315
 5235SOL    HW220706   4.168   4.053   4.148 -0.1657  0.4053 -0.4590
 5235SOL    HW320707   4.182   3.927   4.230  0.5895  0.1795 -0.9215
 5235SOL    MW420708   4.142   4.002   4.214  0.5038  0.2838 -0.2789
 5236SOL     OW20709   2.360   5.500   2.136  0.0681  0.3088  0.1606
 5236SOL    HW220710   2.271   5.491   2.101 -0.4871 -0.7440  1.7023
 5236SOL    HW320711   2.358   5.582   2.185 -0.5349 -0.4085  1.3932
 5236SOL    MW420712   2.348   5.510   2.138 -0.0847  0.0752  0.5267
 5237SOL     OW20713   1.841   1.241   5.583  0.4817 -0.1055 -0.0217
 5237SOL    HW220714   1.780   1.201   5.645  1.5121  0.9532  1.7351
 5237SOL    HW320715   1.927   1.233   5.624  1.1772  0.7716 -1.2377
 5237SOL    MW420716   1.844   1.235   5.596  0.7094  0.1499  0.0497
 5238SOL     OW20717   0.772   5.434   0.441  0.9435  0.7010 -0.8820
 5238SOL    HW220718   0.859   5.436   0.401  1.3821 -2.0340 -0.2544
 5238SOL    HW320719   0.787   5.461   0.532  1.0282  0.8784 -0.9489
 5238SOL    MW420720   0.785   5.438   0.448  1.0126  0.3636 -0.8080
 5239SOL     OW20721   4.391   5.368   0.522  0.4165 -0.1648 -0.2355
 5239SOL    HW220722   4.351   5.454   0.537 -1.0072 -0.6619 -1.0189
 5239SOL    HW320723   4.460   5.363   0.588 -0.4829  0.9536  0.8572
 5239SOL    MW420724   4.395   5.379   0.533  0.1100 -0.0828 -0.1947
 5240SOL     OW20725   3.051   1.999   4.099 -0.5345 -0.5110  0.4849
 5240SOL    HW220726   2.958   2.020   4.093 -0.4726 -0.2549  0.4369
 5240SOL    HW320727   3.083   2.051   4.172 -0.1958  0.2341 -0.1788
 5240SOL    MW420728   3.043   2.008   4.108 -0.4816 -0.3789  0.3910
 5241SOL     OW20729   2.315   2.579   0.902  0.3075 -0.8144  0.1782
 5241SOL    HW220730   2.348   2.642   0.967  0.1493  0.8869 -1.3265
 5241SOL    HW320731   2.393   2.530   0.875  0.3566 -1.6232  1.7000
 5241SOL    MW420732   2.330   2.581   0.907  0.2931 -0.6967  0.1804
 5242SOL     OW20733   0.053   3.404   4.316  0.0151 -0.3074  0.2983
 5242SOL    HW220734   0.032   3.364   4.400  0.4864 -0.0603  0.5412
 5242SOL    HW320735  -0.010   3.367   4.255 -0.0175 -0.8684  0.6628
 5242SOL    MW420736   0.042   3.393   4.319  0.0730 -0.3488  0.3785
 5243SOL     OW20737   5.069   5.502   6.288 -0.5565  0.0544 -0.1670
 5243SOL    HW220738   5.021   5.528   6.210 -1.3771 -2.0781 -0.4344
 5243SOL    HW320739   5.161   5.511   6.264 -0.7874  1.5065 -0.5979
 5243SOL    MW420740   5.075   5.507   6.275 -0.6952 -0.0354 -0.2591
 5244SOL     OW20741   1.269   3.074   5.881  0.3361 -0.1002  0.2497
 5244SOL    HW220742   1.354   3.049   5.916 -0.1316 -0.4863  1.1590
 5244SOL    HW320743   1.226   2.991   5.862  0.2067  0.0945 -0.3219
 5244SOL    MW420744   1.274   3.060   5.883  0.2573 -0.1254  0.2943
 5245SOL     OW20745   0.507   3.223   3.009 -0.5905  0.1152 -0.8871
 5245SOL    HW220746   0.496   3.226   2.914 -0.4150 -1.0182 -0.9634
 5245SOL    HW320747   0.418   3.227   3.043 -0.6265  1.0314 -1.0725
 5245SOL    MW420748   0.494   3.224   3.001 -0.5721  0.0866 -0.9217
 5246SOL     OW20749   1.136   5.198   4.861  0.1960  0.2773 -0.2072
 5246SOL    HW220750   1.223   5.186   4.824 -0.8368  1.7301 -3.4873
 5246SOL    HW320751   1.138   5.286   4.899  0.9751 -0.8699  2.6973
 5246SOL    MW420752   1.147   5.208   4.862  0.1626  0.3176 -0.2567
 5247SOL     OW20753   1.952   3.401   3.438  0.2612 -0.0188 -0.6594
 5247SOL    HW220754   1.927   3.466   3.373 -1.7728  0.8830  0.9292
 5247SOL    HW320755   2.010   3.447   3.498  0.5175 -0.2857 -0.6977
 5247SOL    MW420756   1.956   3.415   3.437  0.0266  0.0650 -0.4548
 5248SOL     OW20757   5.405   5.701   5.069 -0.2330  0.5611  0.5843
 5248SOL    HW220758   5.341   5.725   5.136  0.4546 -2.7285  2.6515
 5248SOL    HW320759   5.356   5.651   5.005 -0.2391  0.4433  0.6799
 5248SOL    MW420760   5.390   5.698   5.070 -0.1431  0.1115  0.8696
 5249SOL     OW20761   0.072   4.338   1.695 -0.1410 -0.3677  0.1067
 5249SOL    HW220762   0.158   4.307   1.667 -0.1683 -1.2545  0.9365
 5249SOL    HW320763   0.065   4.310   1.786  0.2178  3.0004  1.2935
 5249SOL    MW420764   0.082   4.330   1.703 -0.0972 -0.0403  0.3727
 5250SOL     OW20765   0.344   2.634   1.665  0.4071 -0.0848  0.0906
 5250SOL    HW220766   0.294   2.570   1.615 -0.2769 -0.9441  1.7839
 5250SOL    HW320767   0.357   2.707   1.604  0.6617 -1.5368 -1.6937
 5250SOL    MW420768   0.339   2.636   1.650  0.3504 -0.3898  0.0786
 5251SOL     OW20769   2.664   2.271   3.594 -0.2269  0.3210 -0.0213
 5251SOL    HW220770   2.695   2.271   3.503  0.9267  1.8900  0.3383
 5251SOL    HW320771   2.703   2.193   3.633 -0.4701 -0.1893 -0.7771
 5251SOL    MW420772   2.673   2.261   3.587 -0.1068  0.4607 -0.0736
 5252SOL     OW20773   2.478   1.641   1.590 -0.0399 -0.5166 -0.0743
 5252SOL    HW220774   2.553   1.690   1.556 -0.8841  0.7441 -0.1560
 5252SOL    HW320775   2.405   1.702   1.588 -1.3023 -1.9753 -0.7883
 5252SOL    MW420776   2.479   1.655   1.585 -0.3178 -0.5427 -0.1793
 5253SOL     OW20777   2.336   0.576   0.301 -0.1123  0.2703  0.0121
 5253SOL    HW220778   2.344   0.540   0.389 -0.1295 -0.2388 -0.1961
 5253SOL    HW320779   2.323   0.670   0.316 -0.0543  0.1997  0.5488
 5253SOL    MW420780   2.335   0.584   0.315 -0.1069  0.1938  0.0554
 5254SOL     OW20781   2.950   4.293   3.787 -0.5517 -0.0459  0.0661
 5254SOL    HW220782   2.974   4.277   3.696 -0.4685  1.3045 -0.1664
 5254SOL    HW320783   2.899   4.374   3.785  0.7739  0.8788  1.3897
 5254SOL    MW420784   2.947   4.301   3.775 -0.3658  0.2543  0.2101
 5255SOL     OW20785   3.915   3.000   4.317  0.0196  0.6628 -0.3614
 5255SOL    HW220786   3.838   2.944   4.301  0.9183 -0.3236 -1.4570
 5255SOL    HW320787   3.893   3.083   4.274 -0.2466  0.2286 -1.0804
 5255SOL    MW420788   3.902   3.003   4.309  0.1031  0.4754 -0.6009
 5256SOL     OW20789   1.047   1.495   4.926 -0.3718  0.3544  0.8985
 5256SOL    HW220790   1.058   1.434   4.999 -2.7465 -0.1656  0.8937
 5256SOL    HW320791   1.095   1.455   4.854 -2.7882 -2.2308  0.5520
 5256SOL    MW420792   1.055   1.482   4.926 -1.0039 -0.0553  0.8522
 5257SOL     OW20793   2.450   3.192   3.694 -0.3225  0.1005  0.8703
 5257SOL    HW220794   2.496   3.245   3.759 -0.9763 -1.4354  2.6881
 5257SOL    HW320795   2.375   3.155   3.742 -1.5682 -0.0945 -1.1147
 5257SOL    MW420796   2.446   3.194   3.709 -0.5731 -0.1279  0.8482
 5258SOL     OW20797   1.690   4.274   1.408 -0.1045 -0.6991  0.7716
 5258SOL    HW220798   1.603   4.253   1.373 -0.5180  0.2985  1.1451
 5258SOL    HW320799   1.713   4.357   1.365  1.6887 -2.0477 -1.0499
 5258SOL    MW420800   1.681   4.282   1.398  0.0775 -0.7454  0.5805
 5259SOL     OW20801   1.909   3.582   3.695  0.3812  0.0739 -0.0533
 5259SOL    HW220802   1.960   3.518   3.744  0.4807  0.6050  0.5486
 5259SOL    HW320803   1.823   3.582   3.737  0.0451 -0.4231 -0.7213
 5259SOL    MW420804   1.904   3.574   3.707  0.3500  0.0784 -0.0620
 5260SOL     OW20805   0.145   5.206   3.673  0.5545 -0.4402 -0.6824
 5260SOL    HW220806   0.160   5.189   3.580  1.4120 -0.1621 -0.6088
 5260SOL    HW320807   0.229   5.187   3.715 -0.3337 -2.4896  0.3328
 5260SOL    MW420808   0.158   5.201   3.666  0.5504 -0.6739 -0.5388
 5261SOL     OW20809   0.384   0.379   3.698 -0.2139 -0.3980  0.1157
 5261SOL    HW220810   0.419   0.379   3.788  0.3239  0.2149 -0.0848
 5261SOL    HW320811   0.460   0.357   3.644 -0.2100  0.6193 -0.3033
 5261SOL    MW420812   0.399   0.376   3.703 -0.1425 -0.1829  0.0340
 5262SOL     OW20813   2.462   4.718   3.121 -0.4801  0.3074  0.3882
 5262SOL    HW220814   2.535   4.678   3.075 -2.1276 -0.1739 -1.9721
 5262SOL    HW320815   2.430   4.650   3.180 -0.4297 -0.2733 -0.2472
 5262SOL    MW420816   2.467   4.704   3.123 -0.6909  0.1673 -0.0071
 5263SOL     OW20817   1.741   1.416   5.149 -0.3885  0.3782 -0.6211
 5263SOL    HW220818   1.800   1.390   5.219 -1.5543  0.6231  0.4772
 5263SOL    HW320819   1.796   1.414   5.070  0.2279 -3.1079 -0.2904
 5263SOL    MW420820   1.756   1.412   5.148 -0.4610 -0.0494 -0.4325
 5264SOL     OW20821   6.226   5.487   0.754  0.3379  0.2001  0.4446
 5264SOL    HW220822   6.161   5.545   0.791 -0.0672  0.0953 -0.0880
 5264SOL    HW320823   6.300   5.491   0.814 -0.6140 -0.6165  1.7165
 5264SOL    MW420824   6.228   5.495   0.767  0.1588  0.0785  0.5422
 5265SOL     OW20825   1.475   5.253   4.524  0.1204  0.2154 -0.1041
 5265SOL    HW220826   1.553   5.262   4.578  0.1162  0.7296 -0.1778
 5265SOL    HW320827   1.508   5.254   4.434  0.1243 -0.6007 -0.1160
 5265SOL    MW420828   1.490   5.254   4.519  0.1204  0.1755 -0.1154
 5266SOL     OW20829   2.152   6.146   0.490  0.2111  0.0923 -0.0335
 5266SOL    HW220830   2.095   6.137   0.566 -0.1816  1.2121 -0.1696
 5266SOL    HW320831   2.190   6.059   0.477  0.2060 -0.1382  1.3751
 5266SOL    MW420832   2.150   6.134   0.498  0.1586  0.2096  0.1344
 5267SOL     OW20833   2.082   4.121   3.867  0.6127 -0.2169  0.0435
 5267SOL    HW220834   2.114   4.210   3.880  0.4441 -0.2013  0.3511
 5267SOL    HW320835   2.101   4.102   3.775  1.7746 -0.3186  0.2960
 5267SOL    MW420836   2.089   4.130   3.857  0.7437 -0.2283  0.1174
 5268SOL     OW20837   4.516   0.745   4.357 -0.7677 -0.9817  0.1892
 5268SOL    HW220838   4.529   0.709   4.444 -0.1391 -1.0253  0.0869
 5268SOL    HW320839   4.436   0.797   4.363  0.3098  0.6392  1.3240
 5268SOL    MW420840   4.507   0.747   4.369 -0.5426 -0.7736  0.3254
 5269SOL     OW20841   4.422   0.364   4.910  0.6851  0.3029 -0.3160
 5269SOL    HW220842   4.433   0.276   4.875 -0.2068 -0.3357  0.9368
 5269SOL    HW320843   4.328   0.381   4.904  0.5514  0.3133  1.3651
 5269SOL    MW420844   4.411   0.355   4.905  0.5498  0.2200  0.0711
 5270SOL     OW20845   3.883   2.919   3.969 -0.0798  0.2039  0.3282
 5270SOL    HW220846   3.908   2.827   3.955 -0.5466 -0.0638  1.2116
 5270SOL    HW320847   3.884   2.930   4.064  1.8132  1.6418  0.2091
 5270SOL    MW420848   3.887   2.908   3.980  0.1084  0.3583  0.4290
 5271SOL     OW20849   0.179   2.026   0.892 -0.8171  0.1408  0.8658
 5271SOL    HW220850   0.098   1.986   0.862 -0.7655 -1.4529  2.6487
 5271SOL    HW320851   0.230   2.042   0.812 -1.5000 -1.9539 -0.0378
 5271SOL    MW420852   0.175   2.023   0.878 -0.9004 -0.3458  0.9818
 5272SOL     OW20853   4.953   5.505   4.628  0.4032 -0.5352  0.0866
 5272SOL    HW220854   4.996   5.424   4.657  0.2313 -0.7992 -0.3759
 5272SOL    HW320855   4.922   5.546   4.708  1.6318 -0.2747  0.4304
 5272SOL    MW420856   4.954   5.500   4.642  0.5426 -0.5357  0.0709
 5273SOL     OW20857   3.803   5.780   1.056  0.2684 -0.0978  0.7756
 5273SOL    HW220858   3.881   5.806   1.007 -1.1660  1.4189 -0.8465
 5273SOL    HW320859   3.745   5.743   0.990 -1.6190  1.7206  1.2989
 5273SOL    MW420860   3.806   5.778   1.041 -0.1699  0.3422  0.6306
 5274SOL     OW20861   5.575   0.190   6.011  0.1538  0.3182  0.3306
 5274SOL    HW220862   5.527   0.256   5.961  0.8434  2.3327  2.1771
 5274SOL    HW320863   5.518   0.113   6.010 -0.6781  0.8924 -1.8991
 5274SOL    MW420864   5.561   0.189   6.004  0.1350  0.6598  0.2800
 5275SOL     OW20865   2.608   4.686   2.795 -0.3433  0.5176 -0.1979
 5275SOL    HW220866   2.614   4.778   2.767  0.4142  0.3995 -0.4322
 5275SOL    HW320867   2.682   4.674   2.854  1.3200 -0.6934 -2.3624
 5275SOL    MW420868   2.618   4.697   2.799 -0.0239  0.3423 -0.5144
 5276SOL     OW20869   0.761   1.098   5.294 -0.3067 -0.3107 -0.1453
 5276SOL    HW220870   0.815   1.118   5.218 -0.0263  0.3556  0.2195
 5276SOL    HW320871   0.719   1.181   5.316 -1.4934 -0.8132 -0.4244
 5276SOL    MW420872   0.763   1.111   5.287 -0.4263 -0.2891 -0.1340
 5277SOL     OW20873   4.470   0.287   1.002  0.1439  0.4356  0.1689
 5277SOL    HW220874   4.438   0.269   1.090  1.3752  0.1647  0.5889
 5277SOL    HW320875   4.441   0.376   0.983 -1.3193  0.0072  0.2766
 5277SOL    MW420876   4.462   0.296   1.011  0.1133  0.3433  0.2385
 5278SOL     OW20877   2.725   0.416   1.328  0.3079 -0.0661  0.0389
 5278SOL    HW220878   2.735   0.335   1.377  0.1444  0.8178  1.5833
 5278SOL    HW320879   2.782   0.479   1.373 -0.2174  0.8967 -0.6070
 5278SOL    MW420880   2.734   0.413   1.340  0.2170  0.1775  0.1575
 5279SOL     OW20881   2.086   4.902   0.905 -0.0487 -0.0393  0.8342
 5279SOL    HW220882   2.040   4.846   0.967  0.6414 -0.8676  0.6209
 5279SOL    HW320883   2.087   4.988   0.947 -0.2064 -0.4261  1.6546
 5279SOL    MW420884   2.080   4.906   0.919  0.0215 -0.1997  0.9143
 5280SOL     OW20885   0.404   1.037   2.113 -0.4389  0.4077 -0.3633
 5280SOL    HW220886   0.323   1.013   2.157  0.0327 -1.7111 -0.5539
 5280SOL    HW320887   0.467   1.049   2.185 -0.3047 -0.4996 -0.3202
 5280SOL    MW420888   0.402   1.036   2.128 -0.3590  0.0084 -0.3828
 5281SOL     OW20889   1.194   5.605   0.016  0.1219  0.1783  0.2744
 5281SOL    HW220890   1.205   5.676  -0.047  1.3813  0.6526  1.0050
 5281SOL    HW320891   1.099   5.594   0.023 -0.0702  1.2424 -0.4462
 5281SOL    MW420892   1.183   5.613   0.009  0.2627  0.3812  0.2758
 5282SOL     OW20893   0.631   1.594   2.303  0.1139 -0.4982  0.4686
 5282SOL    HW220894   0.605   1.646   2.378  0.1002 -0.1515  0.2257
 5282SOL    HW320895   0.577   1.626   2.231  0.4351 -0.5267  0.2107
 5282SOL    MW420896   0.620   1.605   2.303  0.1545 -0.4562  0.4025
 5283SOL     OW20897   0.603   5.596   3.436 -0.2661  0.0936 -0.2045
 5283SOL    HW220898   0.684   5.565   3.396  0.2181 -1.8927  2.0952
 5283SOL    HW320899   0.623   5.686   3.462  0.3607  0.4393 -1.7747
 5283SOL    MW420900   0.617   5.604   3.434 -0.1195 -0.1229 -0.1082
 5284SOL     OW20901   4.592   0.038   3.636 -0.0794 -0.2011 -0.0346
 5284SOL    HW220902   4.643   0.041   3.555 -1.9994  1.3324 -1.2785
 5284SOL    HW320903   4.517  -0.018   3.616  0.4019 -1.4168  1.3672
 5284SOL    MW420904   4.589   0.031   3.622 -0.2692 -0.1592 -0.0138
 5285SOL     OW20905   5.031   2.597   0.833 -0.3189 -0.6673 -0.3417
 5285SOL    HW220906   5.074   2.535   0.892  0.1290 -0.2377 -0.2111
 5285SOL    HW320907   4.996   2.665   0.891 -0.1494 -0.4085 -0.5388
 5285SOL    MW420908   5.032   2.598   0.848 -0.2375 -0.5764 -0.3505
 5286SOL     OW20909   3.653   5.850   3.047  0.1404 -0.6484 -0.1223
 5286SOL    HW220910   3.578   5.909   3.048  1.0358  0.5866  1.4457
 5286SOL    HW320911   3.707   5.881   2.974  0.1526 -0.1025  0.1092
 5286SOL    MW420912   3.650   5.862   3.038  0.2602 -0.4134  0.1151
 5287SOL     OW20913   3.956   2.405   2.879  0.4397 -0.1409  0.2058
 5287SOL    HW220914   3.954   2.385   2.973 -0.0173  1.1627  0.4964
 5287SOL    HW320915   3.992   2.326   2.839  1.5683 -0.3851  1.5791
 5287SOL    MW420916   3.961   2.392   2.886  0.5283 -0.0011  0.4253
 5288SOL     OW20917   4.869   1.258   6.159  0.0442  0.8212  0.1196
 5288SOL    HW220918   4.947   1.287   6.113 -0.9175  0.3010 -1.9577
 5288SOL    HW320919   4.830   1.338   6.194  0.1223  1.4309 -1.1409
 5288SOL    MW420920   4.874   1.272   6.158 -0.0724  0.8330 -0.3208
 5289SOL     OW20921   3.466   3.124   2.152  0.6076 -0.5122  0.0828
 5289SOL    HW220922   3.436   3.129   2.061 -1.7849  1.3897  0.8543
 5289SOL    HW320923   3.481   3.215   2.178 -0.9824 -0.7733  2.2030
 5289SOL    MW420924   3.464   3.136   2.143  0.0822 -0.2957  0.4643
 5290SOL     OW20925   0.579   4.249   1.619 -0.0587 -0.6975 -0.0988
 5290SOL    HW220926   0.575   4.345   1.620 -1.7243 -0.7370 -0.7974
 5290SOL    HW320927   0.631   4.228   1.541 -3.0514 -0.3549 -2.3787
 5290SOL    MW420928   0.586   4.259   1.609 -0.6733 -0.6575 -0.4918
 5291SOL     OW20929   1.790   2.602   5.788  0.0725 -0.1750  0.1781
 5291SOL    HW220930   1.723   2.670   5.785 -0.9834 -1.1955 -0.0083
 5291SOL    HW320931   1.801   2.584   5.881 -1.3694 -1.3738  0.1463
 5291SOL    MW420932   1.782   2.609   5.800 -0.2570 -0.4678  0.1493
 5292SOL     OW20933   4.240   5.112   6.099  0.2030 -0.0680 -0.4562
 5292SOL    HW220934   4.300   5.105   6.025 -0.1177  1.9578 -0.9784
 5292SOL    HW320935   4.244   5.027   6.142  2.0058 -0.5902 -1.5625
 5292SOL    MW420936   4.248   5.100   6.095  0.3986  0.1304 -0.6710
 5293SOL     OW20937   0.477   0.024   5.333  0.1087 -0.2308 -0.3869
 5293SOL    HW220938   0.474  -0.036   5.258  2.8439 -2.4891  1.1004
 5293SOL    HW320939   0.425  -0.019   5.401  1.3529 -0.5735  0.3998
 5293SOL    MW420940   0.470   0.010   5.332  0.6337 -0.5740 -0.0869
 5294SOL     OW20941   5.003   1.226   3.660  0.4327 -0.1310 -0.1054
 5294SOL    HW220942   5.002   1.152   3.721 -1.8390 -1.5292 -1.6825
 5294SOL    HW320943   5.087   1.218   3.613  0.2269 -1.7407 -0.2493
 5294SOL    MW420944   5.014   1.215   3.662  0.1058 -0.5278 -0.3325
 5295SOL     OW20945   6.119   2.022   3.832 -0.0720 -0.4093 -0.0392
 5295SOL    HW220946   6.047   2.053   3.778  1.0076  0.0628 -1.2390
 5295SOL    HW320947   6.132   1.931   3.805  1.4877  0.2609 -1.8038
 5295SOL    MW420948   6.112   2.014   3.821  0.2763 -0.2586 -0.4303
 5296SOL     OW20949   5.268   6.233   0.826  0.4044 -0.0742 -0.5776
 5296SOL    HW220950   5.192   6.287   0.803 -0.7295 -0.6523  1.5823
 5296SOL    HW320951   5.286   6.181   0.747 -1.5663 -0.0642 -1.0728
 5296SOL    MW420952   5.260   6.233   0.813 -0.0052 -0.1491 -0.3579
 5297SOL     OW20953   3.286   0.410   3.455 -0.3083  0.2077  0.1047
 5297SOL    HW220954   3.374   0.407   3.493 -0.4213 -1.2159  0.2821
 5297SOL    HW320955   3.228   0.384   3.527 -0.7556 -0.1104 -0.3692
 5297SOL    MW420956   3.290   0.406   3.470 -0.3822 -0.0221  0.0656
 5298SOL     OW20957   0.522   1.282   1.096 -0.8294  0.5127  0.2854
 5298SOL    HW220958   0.547   1.209   1.153  1.0666 -0.5549 -1.7558
 5298SOL    HW320959   0.542   1.360   1.147  0.7187 -0.4003  1.1549
 5298SOL    MW420960   0.528   1.283   1.110 -0.3750  0.2514  0.1308
 5299SOL     OW20961   5.026   0.996   3.038 -0.7516 -0.6055  0.2248
 5299SOL    HW220962   5.032   1.087   3.010  0.4610 -0.0258  2.2068
 5299SOL    HW320963   4.932   0.980   3.049 -0.9036  1.0192  1.6332
 5299SOL    MW420964   5.014   1.006   3.036 -0.6117 -0.3146  0.6721
 5300SOL     OW20965   4.977   1.008   3.839 -0.6410  0.3355 -0.1906
 5300SOL    HW220966   4.974   0.913   3.832 -3.5406  0.2079  1.3344
 5300SOL    HW320967   5.009   1.025   3.928  0.2852  0.8426 -0.5999
 5300SOL    MW420968   4.981   0.998   3.850 -0.9014  0.3856 -0.0434
 5301SOL     OW20969   6.265   3.552   2.659  0.1126  0.2777 -0.0486
 5301SOL    HW220970   6.316   3.589   2.731  1.6806 -0.4086 -0.7678
 5301SOL    HW320971   6.259   3.623   2.595 -2.2183  1.2566  1.1425
 5301SOL    MW420972   6.271   3.566   2.660  0.0119  0.3163  0.0137
 5302SOL     OW20973   2.790   5.910   3.737 -0.3749  0.0650  0.2748
 5302SOL    HW220974   2.820   5.849   3.804  0.7525 -1.1705 -1.3007
 5302SOL    HW320975   2.850   5.984   3.743 -0.8841  0.4290  1.2384
 5302SOL    MW420976   2.802   5.912   3.747 -0.2933 -0.0500  0.1941
 5303SOL     OW20977   2.591   5.671   6.045  0.5641 -0.0807 -0.2766
 5303SOL    HW220978   2.639   5.685   6.127 -2.0445 -1.4601  1.6530
 5303SOL    HW320979   2.629   5.590   6.010 -0.9276 -1.8446  1.8563
 5303SOL    MW420980   2.602   5.662   6.051  0.0231 -0.4954  0.2594
 5304SOL     OW20981   4.782   1.226   5.030 -0.0231 -0.1588  0.3991
 5304SOL    HW220982   4.844   1.239   4.959  1.8519  0.4475  2.0613
 5304SOL    HW320983   4.696   1.238   4.989  1.0230  2.5345 -1.3026
 5304SOL    MW420984   4.779   1.229   5.015  0.3623  0.2766  0.3939
 5305SOL     OW20985   1.561   3.744   5.529 -0.2924  0.1924  0.0934
 5305SOL    HW220986   1.575   3.674   5.465 -2.7641  0.5434 -0.9481
 5305SOL    HW320987   1.619   3.722   5.602 -0.3921 -2.5125 -0.5404
 5305SOL    MW420988   1.570   3.731   5.530 -0.6317 -0.1181 -0.1277
 5306SOL     OW20989   4.403   3.213   4.406  0.1396 -0.5278 -0.0351
 5306SOL    HW220990   4.420   3.120   4.421 -0.6065 -0.6342  0.1986
 5306SOL    HW320991   4.312   3.216   4.377 -0.3401  0.2543  1.4303
 5306SOL    MW420992   4.393   3.201   4.404 -0.0221 -0.4387  0.1891
 5307SOL     OW20993   5.625   3.976   2.263 -0.0761 -0.5231 -0.1814
 5307SOL    HW220994   5.549   4.033   2.255  0.1930 -0.0986  0.2194
 5307SOL    HW320995   5.661   3.995   2.350  1.5419  0.6217 -1.0473
 5307SOL    MW420996   5.620   3.986   2.273  0.1729 -0.3161 -0.2428
 5308SOL     OW20997   1.355   4.468   3.019  0.7110 -0.2993 -0.8456
 5308SOL    HW220998   1.433   4.454   2.966  0.6626 -1.5359 -0.6313
 5308SOL    HW320999   1.388   4.496   3.104  1.0786 -2.5142 -0.1883
 5308SOL    MW421000   1.369   4.470   3.023  0.7531 -0.7547 -0.7306
 5309SOL     OW21001   0.898   2.668   2.831 -0.1007  0.0228 -0.0343
 5309SOL    HW221002   0.867   2.610   2.761 -0.9236  2.0856 -1.4791
 5309SOL    HW321003   0.973   2.714   2.793  0.2984  0.1995  0.9357
 5309SOL    MW421004   0.904   2.666   2.816 -0.1566  0.3183 -0.0969
 5310SOL     OW21005   2.786   3.378   3.208  0.0496 -0.1948 -0.0033
 5310SOL    HW221006   2.854   3.444   3.196  2.7162 -2.4753  1.4028
 5310SOL    HW321007   2.780   3.334   3.122 -0.0985  0.4029 -0.3025
 5310SOL    MW421008   2.794   3.381   3.195  0.3819 -0.4168  0.1427
 5311SOL     OW21009   0.702   4.104   1.836  0.4148 -0.3519  0.5510
 5311SOL    HW221010   0.648   4.160   1.780  1.0001  0.3838  0.7060
 5311SOL    HW321011   0.768   4.164   1.873  0.4865 -0.9699  1.4420
 5311SOL    MW421012   0.704   4.120   1.833  0.5015 -0.3363  0.6890
 5312SOL     OW21013   0.275   1.280   5.306  0.7317  0.4552 -0.3830
 5312SOL    HW221014   0.200   1.331   5.276  0.4003 -1.1429 -2.5218
 5312SOL    HW321015   0.326   1.262   5.227  1.1638 -1.9078  0.3490
 5312SOL    MW421016   0.272   1.284   5.292  0.7450 -0.0674 -0.5686
 5313SOL     OW21017   1.817   1.955   5.569  0.3797 -0.3744  0.4603
 5313SOL    HW221018   1.792   1.913   5.651 -1.6772 -0.2537 -0.0566
 5313SOL    HW321019   1.883   2.020   5.594 -2.5837  2.1037  2.6631
 5313SOL    MW421020   1.823   1.958   5.583 -0.2826 -0.0315  0.6827
 5314SOL     OW21021   5.817   3.339   0.359 -0.1823 -0.2665 -0.5041
 5314SOL    HW221022   5.851   3.403   0.422 -0.3303  1.2735 -1.8966
 5314SOL    HW321023   5.748   3.293   0.406  0.3334  0.1849  0.7366
 5314SOL    MW421024   5.813   3.342   0.373 -0.1338 -0.0037 -0.5242
 5315SOL     OW21025   3.872   3.511   4.144 -0.0219 -0.4763 -0.0098
 5315SOL    HW221026   3.922   3.593   4.142  0.1273 -0.5561 -2.2241
 5315SOL    HW321027   3.785   3.537   4.174  0.1822  0.4083 -0.1448
 5315SOL    MW421028   3.867   3.525   4.148  0.0247 -0.3701 -0.3198
 5316SOL     OW21029   1.248   3.987   4.585  0.2134  0.4679  0.2217
 5316SOL    HW221030   1.310   3.953   4.649 -0.4641  0.2077  0.7518
 5316SOL    HW321031   1.299   3.995   4.504  0.6579 -0.8045  0.3512
 5316SOL    MW421032   1.263   3.983   4.583  0.1826  0.2657  0.3087
 5317SOL     OW21033   4.855   2.974   5.610 -0.0953 -0.3447  0.0357
 5317SOL    HW221034   4.862   3.067   5.587 -0.9133 -0.2350  0.1921
 5317SOL    HW321035   4.942   2.951   5.643 -0.2130  0.6848  1.1279
 5317SOL    MW421036   4.868   2.983   5.611 -0.2188 -0.1944  0.2004
 5318SOL     OW21037   2.801   0.617   2.268 -0.1229 -0.2088 -0.3731
 5318SOL    HW221038   2.837   0.703   2.287  0.3026 -0.4963  0.1543
 5318SOL    HW321039   2.849   0.587   2.191  1.7571 -1.1352  1.0715
 5318SOL    MW421040   2.812   0.624   2.260  0.1813 -0.3690 -0.1129
 5319SOL     OW21041   2.034   4.274   1.007 -0.2395  1.0957  0.1440
 5319SOL    HW221042   1.979   4.281   0.930 -1.8647 -1.0321  1.0199
 5319SOL    HW321043   1.978   4.235   1.074  1.8902  0.2197  1.5557
 5319SOL    MW421044   2.020   4.270   1.006 -0.1729  0.6994  0.4458
 5320SOL     OW21045   6.098   2.356   0.694 -0.1472 -0.4504  0.4209
 5320SOL    HW221046   6.106   2.448   0.672  1.4541 -0.1133  2.1816
 5320SOL    HW321047   6.003   2.340   0.697 -0.4403  1.0093 -0.3044
 5320SOL    MW421048   6.086   2.366   0.692  0.0254 -0.2133  0.5575
 5321SOL     OW21049   6.015   2.518   1.959 -0.2868  0.0733  0.1067
 5321SOL    HW221050   6.034   2.511   1.866 -0.4582 -0.0961  0.0853
 5321SOL    HW321051   6.091   2.564   1.995 -0.3696  0.4347 -0.1693
 5321SOL    MW421052   6.028   2.523   1.951 -0.3204  0.0986  0.0675
 5322SOL     OW21053   0.466   0.792   6.261  0.0933 -0.2797  0.0282
 5322SOL    HW221054   0.528   0.719   6.249  1.2156  0.6111  0.2036
 5322SOL    HW321055   0.430   0.778   6.349  0.4746 -0.4973  0.1533
 5322SOL    MW421056   0.470   0.780   6.271  0.2917 -0.1909  0.0679
 5323SOL     OW21057   3.132   4.931   4.317 -0.0526 -0.1933  0.0613
 5323SOL    HW221058   3.127   4.846   4.361 -1.2118  0.0082  0.3239
 5323SOL    HW321059   3.155   4.993   4.386  1.5595 -0.3711 -0.2604
 5323SOL    MW421060   3.135   4.928   4.332  0.0071 -0.1901  0.0535
 5324SOL     OW21061   5.224   5.162   6.075  0.1720 -0.3380 -0.5050
 5324SOL    HW221062   5.281   5.236   6.096 -0.9430  0.3248  0.2902
 5324SOL    HW321063   5.220   5.111   6.156 -0.9560  0.0410 -0.3055
 5324SOL    MW421064   5.231   5.165   6.088 -0.1240 -0.2005 -0.3737
 5325SOL     OW21065   0.646   2.025   4.698 -0.5594  0.5748  0.5522
 5325SOL    HW221066   0.721   2.002   4.752 -0.6306  1.4314  1.0482
 5325SOL    HW321067   0.570   2.006   4.753 -0.6365  1.3297  0.7291
 5325SOL    MW421068   0.646   2.020   4.713 -0.5790  0.7874  0.6410
 5326SOL     OW21069   1.658   0.584   2.186  0.4697  0.0694  0.0362
 5326SOL    HW221070   1.563   0.592   2.181  0.3487 -0.1610  1.5743
 5326SOL    HW321071   1.691   0.661   2.141 -0.4217 -0.1607 -1.0642
 5326SOL    MW421072   1.650   0.595   2.179  0.3361  0.0086  0.0939
 5327SOL     OW21073   3.579   2.287   3.111  0.3736  0.5739  0.0058
 5327SOL    HW221074   3.590   2.363   3.054  1.3685  0.2715 -0.2204
 5327SOL    HW321075   3.640   2.222   3.076  0.4545  0.1203  0.9716
 5327SOL    MW421076   3.589   2.289   3.099  0.5156  0.4742  0.1034
 5328SOL     OW21077   5.056   6.360   0.707  0.2126 -0.2439  0.4540
 5328SOL    HW221078   5.004   6.283   0.685 -0.8106  0.5008  0.2016
 5328SOL    HW321079   5.117   6.370   0.634 -0.9683  0.3046 -0.4882
 5328SOL    MW421080   5.057   6.351   0.695 -0.0782 -0.0733  0.2964
 5329SOL     OW21081   2.551   5.758   0.837 -0.2256  0.6030  0.2989
 5329SOL    HW221082   2.629   5.711   0.867 -0.9535 -0.8689 -0.0324
 5329SOL    HW321083   2.586   5.837   0.797  0.9903  0.7954  1.6402
 5329SOL    MW421084   2.566   5.762   0.836 -0.1612  0.4342  0.4321
 5330SOL     OW21085   2.633   1.553   2.263  0.4061  0.1833  0.1145
 5330SOL    HW221086   2.650   1.541   2.356  0.9148 -2.5995 -0.2348
 5330SOL    HW321087   2.670   1.639   2.242 -0.9139  1.4658  2.6859
 5330SOL    MW421088   2.640   1.563   2.272  0.2990 -0.0146  0.4077
 5331SOL     OW21089   2.131   1.005   1.093  0.4390  0.0405 -0.4047
 5331SOL    HW221090   2.164   1.027   1.181  1.2471 -2.2894 -0.0706
 5331SOL    HW321091   2.036   1.013   1.101  0.5819  2.8115 -0.2317
 5331SOL    MW421092   2.123   1.009   1.106  0.5644  0.0987 -0.3378
 5332SOL     OW21093   0.539   5.780   0.377 -0.5126 -0.0101 -0.1404
 5332SOL    HW221094   0.490   5.835   0.316  1.7014  1.8803 -0.3651
 5332SOL    HW321095   0.581   5.714   0.321  1.6283  1.8012 -0.8287
 5332SOL    MW421096   0.538   5.779   0.361  0.0620  0.4783 -0.2609
 5333SOL     OW21097   2.295   3.500   4.224  0.5274  0.0550 -0.3450
 5333SOL    HW221098   2.308   3.587   4.186  1.7205  0.3945  0.7511
 5333SOL    HW321099   2.273   3.444   4.150  1.1685  1.0054 -1.2873
 5333SOL    MW421100   2.294   3.504   4.210  0.7694  0.2252 -0.3247
 5334SOL     OW21101   2.820   0.785   0.151 -0.4370  0.6208 -0.1798
 5334SOL    HW221102   2.809   0.708   0.206 -2.0519  0.7980 -0.2138
 5334SOL    HW321103   2.908   0.777   0.116 -0.0358 -0.4233  1.0014
 5334SOL    MW421104   2.830   0.774   0.154 -0.5972  0.5064 -0.0284
 5335SOL     OW21105   1.695   1.522   1.806 -0.1982  0.2460  0.2217
 5335SOL    HW221106   1.733   1.558   1.887  1.5005 -0.0177 -0.4201
 5335SOL    HW321107   1.676   1.431   1.827  0.9290 -0.0199  0.1112
 5335SOL    MW421108   1.697   1.515   1.819  0.1746  0.1762  0.1224
 5336SOL     OW21109   2.766   1.040   4.228 -0.5305 -0.2741 -0.1067
 5336SOL    HW221110   2.786   1.046   4.322  3.3467 -1.4571 -0.6981
 5336SOL    HW321111   2.818   1.108   4.187 -1.6436 -0.2153 -1.5122
 5336SOL    MW421112   2.775   1.050   4.235 -0.1658 -0.4224 -0.3702
 5337SOL     OW21113   0.482   4.442   3.741  0.2709  0.5480 -0.0152
 5337SOL    HW221114   0.524   4.359   3.765  2.2577  1.0689 -1.3910
 5337SOL    HW321115   0.486   4.444   3.646  0.7485  2.4294  0.0093
 5337SOL    MW421116   0.488   4.431   3.732  0.5960  0.8650 -0.1935
 5338SOL     OW21117   3.224   2.216   5.601 -0.3705 -0.6839  0.0377
 5338SOL    HW221118   3.147   2.161   5.611 -0.5075 -0.8074 -1.5027
 5338SOL    HW321119   3.298   2.156   5.613 -0.4504 -0.3993  2.4234
 5338SOL    MW421120   3.224   2.201   5.604 -0.3991 -0.6626  0.1492
 5339SOL     OW21121   5.661   4.036   0.320  0.0584  0.2779  0.3471
 5339SOL    HW221122   5.731   4.025   0.384  1.6284  0.4466 -1.2566
 5339SOL    HW321123   5.655   3.952   0.276  1.2099  1.0249 -1.3540
 5339SOL    MW421124   5.670   4.024   0.323  0.4175  0.3987 -0.0889
 5340SOL     OW21125   1.511   4.521   2.580  0.0112 -0.1779 -0.0566
 5340SOL    HW221126   1.420   4.511   2.552 -0.1712  1.7018 -0.2088
 5340SOL    HW321127   1.559   4.459   2.525 -1.2397 -1.9302  0.6914
 5340SOL    MW421128   1.505   4.511   2.569 -0.1779 -0.1611  0.0220
 5341SOL     OW21129   4.661   3.146   3.225  0.1360 -0.5028 -0.4736
 5341SOL    HW221130   4.616   3.210   3.170  0.4957  0.4025  0.2559
 5341SOL    HW321131   4.631   3.061   3.193 -1.1691  0.0525 -0.7703
 5341SOL    MW421132   4.651   3.143   3.214  0.0113 -0.3101 -0.4165
 5342SOL     OW21133   3.081   2.301   5.970 -0.1566  0.4288 -0.1368
 5342SOL    HW221134   3.070   2.334   6.059  0.7440 -0.3207  0.2687
 5342SOL    HW321135   3.111   2.377   5.920  1.1828  0.4193  0.6188
 5342SOL    MW421136   3.083   2.315   5.975  0.1390  0.3287  0.0164
 5343SOL     OW21137   4.189   1.441   4.114  0.4672  0.0597 -0.1383
 5343SOL    HW221138   4.221   1.351   4.104  0.8576  0.2827 -0.9623
 5343SOL    HW321139   4.135   1.457   4.037  1.6511  1.0462 -0.7984
 5343SOL    MW421140   4.186   1.431   4.103  0.6749  0.2193 -0.3341
 5344SOL     OW21141   4.338   4.275   6.382 -0.5495  0.1589  0.7055
 5344SOL    HW221142   4.308   4.227   6.459  1.8346  0.1846  1.7180
 5344SOL    HW321143   4.305   4.364   6.394 -0.3675  0.1111  1.5746
 5344SOL    MW421144   4.330   4.280   6.394 -0.2109  0.1560  0.9537
 5345SOL     OW21145   5.779   4.297   0.686  0.3111  0.0840  0.6633
 5345SOL    HW221146   5.867   4.260   0.683  0.2414 -0.0462 -0.2888
 5345SOL    HW321147   5.723   4.225   0.712  0.4099 -0.0051  0.6321
 5345SOL    MW421148   5.784   4.283   0.689  0.3149  0.0551  0.5336
 5346SOL     OW21149   5.839   0.432   0.961 -0.4522 -0.2682  0.8299
 5346SOL    HW221150   5.886   0.394   0.886 -1.2832 -0.2857  0.2991
 5346SOL    HW321151   5.905   0.482   1.008 -0.2344  1.1693 -0.8841
 5346SOL    MW421152   5.854   0.434   0.957 -0.5331 -0.0809  0.5337
 5347SOL     OW21153   5.801   0.860   3.235 -0.1671  0.8057 -0.2346
 5347SOL    HW221154   5.779   0.768   3.218 -1.5755  1.2929 -1.2187
 5347SOL    HW321155   5.782   0.905   3.152  0.2650  2.0406  0.3090
 5347SOL    MW421156   5.796   0.854   3.222 -0.2959  1.0329 -0.2927
 5348SOL     OW21157   0.840   4.349   2.473  0.3436 -0.2906 -0.3566
 5348SOL    HW221158   0.782   4.365   2.399 -0.5213 -1.6921 -0.0129
 5348SOL    HW321159   0.838   4.431   2.524  0.3030  0.3869 -1.4283
 5348SOL    MW421160   0.832   4.362   2.470  0.2241 -0.3861 -0.4526
 5349SOL     OW21161   0.026   0.493   1.608  0.5832  0.3617 -0.0068
 5349SOL    HW221162  -0.069   0.500   1.592  0.4131 -0.2656  0.7028
 5349SOL    HW321163   0.060   0.580   1.586  0.2133 -0.0824 -2.6025
 5349SOL    MW421164   0.018   0.506   1.603  0.5120  0.2203 -0.2556
 5350SOL     OW21165   1.974   3.005   3.901 -0.0432 -0.0578 -0.2706
 5350SOL    HW221166   1.921   3.076   3.866 -1.6875 -1.2632 -0.3267
 5350SOL    HW321167   1.953   2.929   3.846  0.3411 -1.0172  0.8535
 5350SOL    MW421168   1.964   3.004   3.889 -0.2095 -0.3434 -0.1297
 5351SOL     OW21169   3.854   0.871   4.990 -0.4956 -0.3852  0.2469
 5351SOL    HW221170   3.875   0.899   5.079  1.1820 -2.0242  0.4571
 5351SOL    HW321171   3.788   0.803   5.001 -0.7953 -0.1061  0.1782
 5351SOL    MW421172   3.848   0.865   5.003 -0.3138 -0.5646  0.2655
 5352SOL     OW21173   2.424   2.243   0.128  0.4672 -0.1151  0.0940
 5352SOL    HW221174   2.514   2.248   0.162  0.6018  0.3430 -0.3208
 5352SOL    HW321175   2.430   2.274   0.038 -0.1075 -0.0767  0.0619
 5352SOL    MW421176   2.437   2.248   0.121  0.4091 -0.0496  0.0350
 5353SOL     OW21177   3.878   1.001   1.061  0.5099 -0.6497 -0.7240
 5353SOL    HW221178   3.952   0.995   1.000  1.7702 -3.2454  0.8653
 5353SOL    HW321179   3.916   0.982   1.147 -1.5451  0.9463  0.6324
 5353SOL    MW421180   3.893   0.997   1.064  0.4050 -0.7816 -0.3354
 5354SOL     OW21181   4.325   2.209   4.025 -0.7610 -0.7867 -0.1849
 5354SOL    HW221182   4.378   2.233   4.102 -1.9779  2.8213 -0.2768
 5354SOL    HW321183   4.388   2.171   3.964  1.0640  0.1162  1.0222
 5354SOL    MW421184   4.340   2.208   4.027 -0.6808 -0.1916 -0.0378
 5355SOL     OW21185   3.146   2.995   3.426  0.1207  0.1768  1.2086
 5355SOL    HW221186   3.227   3.032   3.460  0.4427 -0.5297  1.2248
 5355SOL    HW321187   3.171   2.954   3.343 -0.2995  0.3170  1.0098
 5355SOL    MW421188   3.160   2.994   3.420  0.1078  0.1021  1.1846
 5356SOL     OW21189   0.650   1.166   2.895  0.2207  0.1279 -0.2435
 5356SOL    HW221190   0.676   1.169   2.803 -0.0673 -1.7997 -0.4399
 5356SOL    HW321191   0.647   1.072   2.916 -1.0297  0.4773  1.3615
 5356SOL    MW421192   0.653   1.154   2.886  0.0178 -0.0803 -0.0577
 5357SOL     OW21193   6.393   4.787   1.915  0.5472 -0.0026  0.1731
 5357SOL    HW221194   6.443   4.846   1.971 -1.6348  1.7992  0.3942
 5357SOL    HW321195   6.318   4.761   1.969  0.5983 -1.6629 -0.5104
 5357SOL    MW421196   6.389   4.791   1.930  0.2660  0.0161  0.1121
 5358SOL     OW21197   3.841   5.856   5.295  0.0336  0.1752  0.4718
 5358SOL    HW221198   3.850   5.877   5.202  2.9699 -1.9456  0.1419
 5358SOL    HW321199   3.929   5.862   5.330 -0.5582 -1.5660  2.5113
 5358SOL    MW421200   3.854   5.859   5.287  0.3430 -0.3344  0.6973
 5359SOL     OW21201   0.842   5.772   2.340  0.4285  0.2201 -0.2405
 5359SOL    HW221202   0.904   5.843   2.324  0.1050  0.4784 -0.3514
 5359SOL    HW321203   0.833   5.769   2.436  1.3319 -0.4418 -0.1603
 5359SOL    MW421204   0.849   5.781   2.351  0.5050  0.1669 -0.2446
 5360SOL     OW21205   0.298   2.887   4.971 -0.0324  0.0695  0.0524
 5360SOL    HW221206   0.242   2.911   4.898 -0.9963  2.1751  1.3929
 5360SOL    HW321207   0.356   2.820   4.935 -1.7239 -0.3804 -2.0761
 5360SOL    MW421208   0.298   2.881   4.957 -0.3828  0.2880 -0.0515
 5361SOL     OW21209   4.450   3.479   2.031 -0.4642  0.4454  0.4661
 5361SOL    HW221210   4.390   3.537   1.984 -1.1879  0.1841  1.0536
 5361SOL    HW321211   4.495   3.536   2.093  0.2262  0.7217 -0.2593
 5361SOL    MW421212   4.448   3.494   2.033 -0.4686  0.4474  0.4479
 5362SOL     OW21213   0.144   1.108   1.019 -0.0118  0.4654 -0.2360
 5362SOL    HW221214   0.055   1.073   1.026 -0.3500  1.5707  1.6810
 5362SOL    HW321215   0.200   1.030   1.025 -0.7935 -0.0143  2.0027
 5362SOL    MW421216   0.139   1.093   1.021 -0.1596  0.5480  0.3123
 5363SOL     OW21217   5.720   0.110   5.394 -0.5705 -0.7295  0.1898
 5363SOL    HW221218   5.689   0.158   5.318 -1.7797 -2.7857 -0.6798
 5363SOL    HW321219   5.815   0.103   5.382 -0.6295 -0.1792 -0.5981
 5363SOL    MW421220   5.728   0.115   5.383 -0.7378 -0.9282 -0.0289
 5364SOL     OW21221   1.781   1.688   5.204  0.2006 -0.0530  0.1717
 5364SOL    HW221222   1.720   1.721   5.271 -0.0696 -1.8870  0.8672
 5364SOL    HW321223   1.756   1.597   5.191  2.4813 -0.7407  0.1360
 5364SOL    MW421224   1.770   1.681   5.211  0.4659 -0.3857  0.2588
 5365SOL     OW21225   3.727   1.471   5.176  0.4018  0.0491  0.3125
 5365SOL    HW221226   3.791   1.527   5.220 -0.7116  0.4029  1.5239
 5365SOL    HW321227   3.706   1.518   5.095  1.6809 -0.0959 -0.1329
 5365SOL    MW421228   3.733   1.485   5.171  0.4237  0.0767  0.4135
 5366SOL     OW21229   1.620   0.023   3.134  0.1811 -0.5568  0.0001
 5366SOL    HW221230   1.662   0.070   3.062  0.5771 -0.8530  0.0340
 5366SOL    HW321231   1.677   0.041   3.210  0.7419 -1.6850 -0.1440
 5366SOL    MW421232   1.633   0.032   3.135  0.3074 -0.7447 -0.0144
 5367SOL     OW21233   3.978   3.590   0.824  0.2749  0.2748  0.0510
 5367SOL    HW221234   3.947   3.572   0.913 -1.0918  1.2648 -0.1891
 5367SOL    HW321235   4.025   3.511   0.798 -0.2093 -0.4369  1.2660
 5367SOL    MW421236   3.980   3.577   0.832  0.0307  0.3115  0.1796
 5368SOL     OW21237   0.597   0.291   5.622  0.4040 -0.2244 -0.3069
 5368SOL    HW221238   0.511   0.299   5.580  0.2131 -0.7312 -0.0174
 5368SOL    HW321239   0.612   0.197   5.628  0.4093 -0.1622  0.8011
 5368SOL    MW421240   0.588   0.280   5.617  0.3795 -0.2831 -0.1225
 5369SOL     OW21241   0.095   0.823   3.061 -0.7912 -0.1311  0.5115
 5369SOL    HW221242   0.134   0.906   3.033 -0.3873  0.0454  1.5525
 5369SOL    HW321243   0.007   0.846   3.090 -0.6384 -0.0454  0.9096
 5369SOL    MW421244   0.089   0.837   3.061 -0.7177 -0.0965  0.7014
 5370SOL     OW21245   1.983   5.808   2.286 -0.1814 -0.1071 -0.2819
 5370SOL    HW221246   2.017   5.828   2.199  2.1477 -0.1043  0.5486
 5370SOL    HW321247   1.932   5.885   2.310 -0.0137  0.3157 -1.2509
 5370SOL    MW421248   1.981   5.821   2.278  0.1480 -0.0510 -0.3002
 5371SOL     OW21249   4.302   5.002   4.446  0.1789 -0.2989  0.2867
 5371SOL    HW221250   4.249   5.072   4.484  0.1623 -0.8523  1.3435
 5371SOL    HW321251   4.295   5.015   4.352 -0.4512  0.6528  0.4460
 5371SOL    MW421252   4.294   5.013   4.439  0.0936 -0.2463  0.4472
 5372SOL     OW21253   1.564   1.784   5.339 -0.2954 -0.6409 -0.2455
 5372SOL    HW221254   1.542   1.843   5.411 -0.2858 -0.1500 -0.6405
 5372SOL    HW321255   1.513   1.816   5.264  0.5531 -0.4477 -0.7585
 5372SOL    MW421256   1.554   1.796   5.338 -0.1822 -0.5506 -0.3653
 5373SOL     OW21257   2.402   4.431   0.949  0.3119  0.1423  0.6952
 5373SOL    HW221258   2.465   4.503   0.944  0.9486 -0.4671 -0.9327
 5373SOL    HW321259   2.353   4.437   0.867 -0.2037 -0.7680  0.9271
 5373SOL    MW421260   2.404   4.441   0.937  0.3279 -0.0582  0.5110
 5374SOL     OW21261   5.518   2.651   4.663 -0.1687 -0.0624 -0.2616
 5374SOL    HW221262   5.589   2.704   4.626 -0.5740 -1.4046 -3.2363
 5374SOL    HW321263   5.493   2.591   4.592 -2.9498 -0.9893  1.3483
 5374SOL    MW421264   5.524   2.650   4.649 -0.5891 -0.3618 -0.4417
 5375SOL     OW21265   0.614   0.041   0.707 -0.2950  0.2108 -0.4481
 5375SOL    HW221266   0.572   0.003   0.784 -0.9323 -1.1069 -1.4165
 5375SOL    HW321267   0.542   0.080   0.658  0.0857  0.8785 -0.4930
 5375SOL    MW421268   0.599   0.041   0.711 -0.3288  0.1250 -0.5818
 5376SOL     OW21269   2.686   0.737   3.944 -0.3022  0.4881 -0.5874
 5376SOL    HW221270   2.766   0.788   3.928 -0.2574  0.3313 -0.8692
 5376SOL    HW321271   2.623   0.770   3.881 -1.7552  3.3567  2.0899
 5376SOL    MW421272   2.688   0.748   3.934 -0.4880  0.8459 -0.2713
 5377SOL     OW21273   1.933   0.408   4.552 -0.2716  0.7903  0.1255
 5377SOL    HW221274   1.855   0.463   4.543  0.3897  1.5455 -1.2064
 5377SOL    HW321275   2.006   0.464   4.528  0.5405 -0.3547 -0.2000
 5377SOL    MW421276   1.932   0.422   4.548 -0.0772  0.7388 -0.0932
 5378SOL     OW21277   0.684   5.340   1.923 -0.2828 -0.3293 -0.4446
 5378SOL    HW221278   0.706   5.254   1.886  1.3193  0.6280 -1.8573
 5378SOL    HW321279   0.648   5.320   2.009  0.3085 -2.4058 -0.6169
 5378SOL    MW421280   0.682   5.326   1.929  0.0066 -0.4770 -0.6537
 5379SOL     OW21281   3.769   2.481   1.506  0.4169  0.1748 -0.2368
 5379SOL    HW221282   3.813   2.566   1.515  3.2634 -1.2081  0.0322
 5379SOL    HW321283   3.816   2.423   1.566  0.8292 -2.4069 -2.8297
 5379SOL    MW421284   3.781   2.485   1.515  0.8469 -0.3482 -0.5434
 5380SOL     OW21285   4.411   2.363   3.661 -0.8543  0.4335  0.1246
 5380SOL    HW221286   4.408   2.422   3.586 -2.6726  0.5003  0.1920
 5380SOL    HW321287   4.320   2.337   3.674 -0.2970 -1.2186  1.0257
 5380SOL    MW421288   4.398   2.367   3.653 -1.0206  0.2244  0.2524
 5381SOL     OW21289   4.993   4.325   5.688  0.0971 -0.2301 -0.1487
 5381SOL    HW221290   5.085   4.347   5.706 -0.1559  0.0457  0.8506
 5381SOL    HW321291   4.998   4.242   5.640  0.8623 -0.3678  0.1433
 5381SOL    MW421292   5.006   4.317   5.684  0.1647 -0.2119  0.0217
 5382SOL     OW21293   4.460   3.299   5.082  0.0965 -0.5201  0.7675
 5382SOL    HW221294   4.532   3.347   5.042 -1.5159  1.6488  0.2832
 5382SOL    HW321295   4.498   3.215   5.108  2.2499 -0.3565 -1.4760
 5382SOL    MW421296   4.474   3.294   5.080  0.1678 -0.2124  0.4076
 5383SOL     OW21297   3.909   1.597   1.472 -0.6072  0.1430 -0.0948
 5383SOL    HW221298   3.909   1.687   1.505 -0.2801  0.4832 -0.9969
 5383SOL    HW321299   3.963   1.549   1.535 -0.7045  0.6002  0.3417
 5383SOL    MW421300   3.916   1.603   1.485 -0.5769  0.2482 -0.1562
 5384SOL     OW21301   0.122   3.772   5.327  0.8355  0.0089  0.1510
 5384SOL    HW221302   0.080   3.802   5.408 -0.7660 -0.9642 -0.2884
 5384SOL    HW321303   0.054   3.777   5.261  1.2590 -2.0218 -0.5044
 5384SOL    MW421304   0.108   3.777   5.329  0.6801 -0.3874  0.0065
 5385SOL     OW21305   4.724   1.827   4.919  0.1414  0.6733 -0.3829
 5385SOL    HW221306   4.643   1.857   4.960 -1.1764 -0.7818 -1.7574
 5385SOL    HW321307   4.695   1.776   4.844  2.3593  0.0617 -0.9008
 5385SOL    MW421308   4.710   1.824   4.915  0.2602  0.4006 -0.6326
 5386SOL     OW21309   5.831   5.196   5.243 -0.0664  0.3608  0.2311
 5386SOL    HW221310   5.888   5.167   5.314  1.4721 -0.9310 -1.4534
 5386SOL    HW321311   5.762   5.130   5.239  1.1579 -0.8931 -0.9531
 5386SOL    MW421312   5.829   5.184   5.252  0.2981  0.0249 -0.1474
 5387SOL     OW21313   0.738   1.194   2.141  0.2737  0.3686 -0.3840
 5387SOL    HW221314   0.735   1.099   2.133 -0.5563  0.1652  1.7445
 5387SOL    HW321315   0.728   1.226   2.051 -0.8089 -1.5317 -0.9915
 5387SOL    MW421316   0.736   1.186   2.128  0.0214  0.0910 -0.1833
 5388SOL     OW21317   1.588   1.048   0.735 -0.1635  0.0055  0.2354
 5388SOL    HW221318   1.658   0.996   0.696 -2.0196 -2.3879 -0.1200
 5388SOL    HW321319   1.629   1.090   0.810  1.7507 -1.0106 -0.1686
 5388SOL    MW421320   1.603   1.047   0.740 -0.1559 -0.4444  0.1352
 5389SOL     OW21321   0.516   1.338   3.870 -0.4295  0.2159  0.7050
 5389SOL    HW221322   0.461   1.271   3.911 -1.3437  0.3858 -0.1996
 5389SOL    HW321323   0.503   1.416   3.924  0.1173 -0.1347  1.3696
 5389SOL    MW421324   0.507   1.339   3.883 -0.4780  0.1920  0.6733
 5390SOL     OW21325   0.979   3.218   6.303 -0.0980  0.2603  0.7442
 5390SOL    HW221326   1.058   3.223   6.249  1.0573  0.7531  2.3735
 5390SOL    HW321327   0.912   3.183   6.246  1.1355  0.4759 -0.8993
 5390SOL    MW421328   0.981   3.214   6.289  0.2171  0.3538  0.7423
 5391SOL     OW21329   1.885   3.871   2.182  0.2936  0.4449 -0.4129
 5391SOL    HW221330   1.801   3.858   2.226  0.9413 -0.8356  0.5126
 5391SOL    HW321331   1.901   3.965   2.190  0.1614  0.3478  1.7287
 5391SOL    MW421332   1.876   3.882   2.189  0.3616  0.2631 -0.0082
 5392SOL     OW21333   0.547   4.522   3.478  0.2437  0.1771 -0.2613
 5392SOL    HW221334   0.511   4.470   3.406 -0.4662 -0.8243  0.7813
 5392SOL    HW321335   0.640   4.500   3.480  0.3331  0.4455 -1.0528
 5392SOL    MW421336   0.554   4.512   3.468  0.1618  0.0804 -0.2282
 5393SOL     OW21337   1.967   4.030   3.342 -0.0350  0.1264 -0.0280
 5393SOL    HW221338   2.026   4.027   3.266 -2.1344 -0.8288 -1.7363
 5393SOL    HW321339   1.956   3.939   3.367  0.9674  0.4642  1.7649
 5393SOL    MW421340   1.974   4.018   3.335 -0.1797  0.0450 -0.0169
 5394SOL     OW21341   1.192   5.485   5.296 -0.2316 -0.0847 -0.0759
 5394SOL    HW221342   1.127   5.417   5.275  0.9517 -1.0706 -0.7079
 5394SOL    HW321343   1.230   5.457   5.379  1.3072 -1.0930 -1.0438
 5394SOL    MW421344   1.189   5.472   5.304  0.1276 -0.3478 -0.2870
 5395SOL     OW21345   4.412   5.204   5.551 -0.0213 -0.5222 -0.1819
 5395SOL    HW221346   4.444   5.174   5.466 -1.7390 -1.5057 -0.5151
 5395SOL    HW321347   4.486   5.190   5.610  0.5691 -1.6515 -1.1426
 5395SOL    MW421348   4.426   5.198   5.548 -0.1701 -0.8010 -0.3526
 5396SOL     OW21349   0.455   2.369   3.407  0.1580  0.3482  0.0387
 5396SOL    HW221350   0.474   2.453   3.366  1.5780  0.2757  0.5224
 5396SOL    HW321351   0.408   2.391   3.488 -1.2941  0.5540 -0.8168
 5396SOL    MW421352   0.451   2.383   3.412  0.1537  0.3658 -0.0104
 5397SOL     OW21353   5.682   5.090   0.372  0.2842  0.5626 -0.4280
 5397SOL    HW221354   5.759   5.138   0.341  1.0990  0.4785  1.3410
 5397SOL    HW321355   5.700   4.999   0.349  0.6635  0.5604 -0.1335
 5397SOL    MW421356   5.694   5.085   0.365  0.4417  0.5512 -0.1557
 5398SOL     OW21357   4.787   0.054   1.787 -0.3236 -0.5215 -0.6722
 5398SOL    HW221358   4.794   0.085   1.696 -2.1264  0.3402 -0.5855
 5398SOL    HW321359   4.762   0.132   1.836  0.9174 -0.9182  0.6376
 5398SOL    MW421360   4.784   0.069   1.781 -0.3977 -0.4601 -0.4879
 5399SOL     OW21361   0.413   2.507   3.659 -0.1899  0.1956  0.0366
 5399SOL    HW221362   0.357   2.564   3.606  0.1834  0.4935 -0.0432
 5399SOL    HW321363   0.360   2.486   3.736 -0.6168  0.0202 -0.2995
 5399SOL    MW421364   0.399   2.512   3.662 -0.1970  0.2118 -0.0183
 5400SOL     OW21365   0.020   1.401   5.312  0.1203  0.4855 -0.2611
 5400SOL    HW221366  -0.011   1.486   5.342 -0.9768  0.2824 -0.7556
 5400SOL    HW321367  -0.041   1.338   5.350  0.2384  0.0238 -0.8154
 5400SOL    MW421368   0.008   1.404   5.321 -0.0089  0.3978 -0.3995
 5401SOL     OW21369   5.123   4.026   0.110  0.0028 -0.2394 -0.3175
 5401SOL    HW221370   5.056   3.964   0.140 -1.7361  1.0601 -1.2960
 5401SOL    HW321371   5.142   4.000   0.020  0.4136 -0.2602 -0.2272
 5401SOL    MW421372   5.117   4.015   0.102 -0.1724 -0.0707 -0.4347
 5402SOL     OW21373   3.475   5.852   4.596 -0.2176 -0.1071 -0.1128
 5402SOL    HW221374   3.482   5.891   4.509 -1.1862 -0.3402 -0.3114
 5402SOL    HW321375   3.460   5.759   4.579 -3.4699  0.2434  0.1481
 5402SOL    MW421376   3.474   5.845   4.582 -0.7745 -0.0916 -0.1046
 5403SOL     OW21377   5.792   0.728   1.639 -0.4363  0.1967 -0.4320
 5403SOL    HW221378   5.803   0.823   1.649  2.0245 -0.1933  2.0857
 5403SOL    HW321379   5.871   0.691   1.679 -1.2518 -2.9452 -1.4350
 5403SOL    MW421380   5.804   0.736   1.646 -0.2192 -0.2693 -0.2321
 5404SOL     OW21381   4.016   1.552   4.853 -0.4105  0.3555 -0.2317
 5404SOL    HW221382   4.061   1.532   4.936  0.1012  0.4125 -0.4915
 5404SOL    HW321383   4.079   1.528   4.785 -0.3599  1.4321 -0.5838
 5404SOL    MW421384   4.030   1.546   4.855 -0.3363  0.5051 -0.3125
 5405SOL     OW21385   2.458   2.948   5.273  0.5253  0.1463  0.3711
 5405SOL    HW221386   2.493   2.913   5.191 -0.1687 -0.4380  0.3153
 5405SOL    HW321387   2.363   2.951   5.259  0.3442 -0.6016  1.4012
 5405SOL    MW421388   2.450   2.944   5.260  0.4098 -0.0295  0.4996
 5406SOL     OW21389   0.893   1.430   1.284  0.2557 -0.0046 -0.0279
 5406SOL    HW221390   0.875   1.355   1.227 -0.4170  0.1297  0.0012
 5406SOL    HW321391   0.977   1.409   1.326 -0.1847 -1.0021  0.3951
 5406SOL    MW421392   0.901   1.417   1.282  0.1088 -0.1185  0.0317
 5407SOL     OW21393   0.058   4.927   0.718 -0.3543 -0.2985 -0.1138
 5407SOL    HW221394   0.064   4.831   0.716 -1.0305 -0.3385 -1.2319
 5407SOL    HW321395   0.149   4.956   0.713 -0.2186 -0.9069 -2.4953
 5407SOL    MW421396   0.071   4.918   0.717 -0.4256 -0.3840 -0.5755
 5408SOL     OW21397   0.413   0.641   0.150  0.0909 -0.1629 -0.1803
 5408SOL    HW221398   0.424   0.736   0.144  1.7391 -0.2266  1.0716
 5408SOL    HW321399   0.433   0.621   0.242 -1.7546 -1.5560 -0.0366
 5408SOL    MW421400   0.417   0.651   0.161  0.0649 -0.3551  0.0038
 5409SOL     OW21401   3.367   3.541   4.322 -0.2357 -0.3461  0.5147
 5409SOL    HW221402   3.347   3.610   4.258  0.5063 -2.2961 -2.0144
 5409SOL    HW321403   3.292   3.540   4.381 -2.2848 -0.0967 -1.9142
 5409SOL    MW421404   3.354   3.550   4.321 -0.4082 -0.5705 -0.1395
 5410SOL     OW21405   5.234   2.536   0.021 -0.6175  0.4166  0.1681
 5410SOL    HW221406   5.312   2.504   0.066 -0.4755 -0.3123 -0.5756
 5410SOL    HW321407   5.225   2.479  -0.055 -0.7796  1.6765 -0.7929
 5410SOL    MW421408   5.243   2.525   0.017 -0.6202  0.4866 -0.0568
 5411SOL     OW21409   3.024   4.978   1.291  0.7804  0.0020 -0.5743
 5411SOL    HW221410   2.945   4.937   1.327  1.0630  0.6659  0.8438
 5411SOL    HW321411   3.038   4.933   1.207 -1.1312 -0.0731 -0.8820
 5411SOL    MW421412   3.016   4.967   1.285  0.5655  0.0797 -0.4278
 5412SOL     OW21413   2.318   4.332   1.319 -0.6082  0.1807  0.4431
 5412SOL    HW221414   2.278   4.248   1.342 -0.4695 -0.1025 -0.3110
 5412SOL    HW321415   2.252   4.376   1.264  0.3988 -0.6585 -1.5371
 5412SOL    MW421416   2.304   4.327   1.315 -0.4571  0.0326  0.0823
 5413SOL     OW21417   3.333   4.676   1.421 -0.3219 -0.2340 -0.4020
 5413SOL    HW221418   3.239   4.661   1.432 -0.2643 -1.1607 -1.0364
 5413SOL    HW321419   3.344   4.771   1.429 -1.1824 -0.2071  0.5624
 5413SOL    MW421420   3.322   4.687   1.424 -0.4279 -0.3527 -0.3585
 5414SOL     OW21421   4.599   2.153   0.030  0.3427  0.1614 -0.0583
 5414SOL    HW221422   4.638   2.131  -0.055  0.2382  1.0857 -0.3550
 5414SOL    HW321423   4.661   2.118   0.094  1.4030  1.1117 -0.5275
 5414SOL    MW421424   4.613   2.146   0.028  0.4688  0.4087 -0.1594
 5415SOL     OW21425   1.636   4.860   6.314  0.1853  0.5776  0.0424
 5415SOL    HW221426   1.641   4.770   6.348  0.6588  0.8034  0.5972
 5415SOL    HW321427   1.674   4.855   6.227  0.1927  0.2319  0.0636
 5415SOL    MW421428   1.642   4.847   6.307  0.2488  0.5618  0.1184
 5416SOL     OW21429   4.819   3.706   1.564  0.5819  0.2460  0.1233
 5416SOL    HW221430   4.786   3.694   1.653  0.2310 -2.1479 -0.2670
 5416SOL    HW321431   4.901   3.754   1.575  1.7217 -1.9254  1.9966
 5416SOL    MW421432   4.825   3.711   1.577  0.6860 -0.3563  0.3190
 5417SOL     OW21433   4.852   5.318   2.330 -0.1355  0.3707 -0.3210
 5417SOL    HW221434   4.891   5.239   2.294  0.0649  0.4689 -0.3196
 5417SOL    HW321435   4.802   5.356   2.258 -0.1494  0.2987 -0.3497
 5417SOL    MW421436   4.850   5.312   2.316 -0.1109  0.3742 -0.3246
 5418SOL     OW21437   4.949   0.367   3.621  0.9806  0.2719  0.4873
 5418SOL    HW221438   5.018   0.433   3.629 -0.0576  1.2614  1.6332
 5418SOL    HW321439   4.875   0.415   3.584  0.7412 -0.6711 -0.2943
 5418SOL    MW421440   4.949   0.382   3.617  0.8120  0.2780  0.5354
 5419SOL     OW21441   1.917   5.935   4.912  0.4324 -0.3543  0.0536
 5419SOL    HW221442   1.904   5.868   4.980 -2.0505  1.1943  1.2372
 5419SOL    HW321443   1.837   5.987   4.914  1.4624  1.4788 -2.1895
 5419SOL    MW421444   1.905   5.933   4.921  0.2407  0.0919 -0.0862
 5420SOL     OW21445   2.015   2.771   5.821  0.8061 -0.2636 -0.3099
 5420SOL    HW221446   2.020   2.790   5.915  0.4831 -0.9906 -0.1316
 5420SOL    HW321447   1.943   2.708   5.814  2.2015 -1.8852 -0.7514
 5420SOL    MW421448   2.006   2.765   5.833  0.9476 -0.5735 -0.3446
 5421SOL     OW21449   0.813   3.830   4.946 -0.2604  0.2668  0.1132
 5421SOL    HW221450   0.888   3.842   4.888  0.7262 -0.4865  1.2028
 5421SOL    HW321451   0.850   3.828   5.034 -1.8454  2.8113  0.9616
 5421SOL    MW421452   0.828   3.832   4.950 -0.3393  0.5031  0.3689
 5422SOL     OW21453   5.021   1.464   2.381  1.3084  0.2278 -0.2398
 5422SOL    HW221454   4.960   1.532   2.351  1.3303  0.2698 -0.1903
 5422SOL    HW321455   4.985   1.383   2.346  0.2112  0.0204  1.2638
 5422SOL    MW421456   5.008   1.462   2.372  1.1665  0.2060 -0.0349
 5423SOL     OW21457   0.686   3.697   0.448  0.0106  0.8767  0.2108
 5423SOL    HW221458   0.735   3.640   0.507 -0.6773 -0.7628 -0.7349
 5423SOL    HW321459   0.610   3.725   0.499 -0.4707 -0.3554  0.2015
 5423SOL    MW421460   0.682   3.693   0.463 -0.1437  0.4978  0.0848
 5424SOL     OW21461   5.145   4.484   0.657  0.0951  0.3518 -0.6559
 5424SOL    HW221462   5.085   4.556   0.638  0.6972  0.9847 -0.2040
 5424SOL    HW321463   5.118   4.452   0.742 -0.9316 -0.7596 -1.3735
 5424SOL    MW421464   5.133   4.490   0.666  0.0391  0.2887 -0.6910
 5425SOL     OW21465   3.960   3.447   1.688  0.0959  0.3768 -0.4778
 5425SOL    HW221466   4.018   3.509   1.645 -0.0792 -0.0550 -1.3556
 5425SOL    HW321467   3.897   3.501   1.734  1.4969  0.8701  0.9590
 5425SOL    MW421468   3.960   3.462   1.688  0.2577  0.3849 -0.4041
 5426SOL     OW21469   6.297   4.278   0.103  0.0506 -0.7442  0.0472
 5426SOL    HW221470   6.237   4.252   0.172 -0.7815 -1.3242 -0.8704
 5426SOL    HW321471   6.366   4.212   0.105 -0.2253 -1.0371  0.0144
 5426SOL    MW421472   6.298   4.266   0.112 -0.0956 -0.8594 -0.0782
 5427SOL     OW21473   2.355   5.782   2.206  0.0468  0.0080  0.2162
 5427SOL    HW221474   2.389   5.860   2.163 -0.6714  0.6273  0.7484
 5427SOL    HW321475   2.394   5.784   2.293  1.8497 -1.4790 -0.4992
 5427SOL    MW421476   2.365   5.793   2.212  0.1899 -0.1065  0.1920
 5428SOL     OW21477   4.088   5.368   3.789 -0.0148 -0.1835  0.3302
 5428SOL    HW221478   4.052   5.417   3.862 -0.8168 -0.0121 -0.1662
 5428SOL    HW321479   4.163   5.320   3.826  1.2231  1.9088  0.6801
 5428SOL    MW421480   4.093   5.368   3.803  0.0427  0.1152  0.3109
 5429SOL     OW21481   4.002   5.569   0.452  0.0470 -0.5055  0.3386
 5429SOL    HW221482   4.007   5.542   0.544  0.3156 -0.8073  0.2390
 5429SOL    HW321483   4.075   5.522   0.410 -0.6124 -1.0607 -0.2061
 5429SOL    MW421484   4.013   5.559   0.459 -0.0045 -0.6186  0.2536
 5430SOL     OW21485   2.433   2.757   3.140 -0.2526  0.0794  0.0314
 5430SOL    HW221486   2.440   2.805   3.222 -3.0949  2.3718 -0.8796
 5430SOL    HW321487   2.393   2.674   3.164 -1.2370  0.8050  1.0116
 5430SOL    MW421488   2.428   2.753   3.154 -0.7575  0.4776  0.0406
 5431SOL     OW21489   3.435   0.315   0.917 -0.1345 -0.4254 -0.5680
 5431SOL    HW221490   3.469   0.387   0.970 -0.6353 -0.6680  0.1013
 5431SOL    HW321491   3.346   0.343   0.895  0.9141  0.9320 -3.6265
 5431SOL    MW421492   3.428   0.328   0.921 -0.0622 -0.2783 -0.8833
 5432SOL     OW21493   4.295   1.846   4.194  0.7724  0.1520 -0.1118
 5432SOL    HW221494   4.228   1.881   4.136  1.4240  1.2532 -0.2248
 5432SOL    HW321495   4.284   1.892   4.277  3.1940  2.6251 -0.9963
 5432SOL    MW421496   4.285   1.857   4.197  1.1779  0.6236 -0.2434
 5433SOL     OW21497   1.220   6.095   4.854  0.4018 -0.2534 -0.6168
 5433SOL    HW221498   1.169   6.109   4.774  1.0593  0.2092 -0.9626
 5433SOL    HW321499   1.168   6.137   4.923  1.2712  2.0544 -1.2818
 5433SOL    MW421500   1.206   6.102   4.852  0.6033  0.1121 -0.7502
 5434SOL     OW21501   1.986   5.689   3.685  0.1051 -0.9321  0.0726
 5434SOL    HW221502   2.029   5.738   3.615  0.8234  2.7335  2.7540
 5434SOL    HW321503   1.902   5.662   3.647  0.1670  1.4356 -2.0562
 5434SOL    MW421504   1.981   5.692   3.671  0.2081 -0.1361  0.1455
 5435SOL     OW21505   0.222   0.107   4.538  0.3910 -0.0292 -0.6041
 5435SOL    HW221506   0.133   0.089   4.567  0.6473  0.0976  0.3039
 5435SOL    HW321507   0.251   0.026   4.497  0.1053 -0.3108 -0.2547
 5435SOL    MW421508   0.214   0.094   4.536  0.3871 -0.0496 -0.4382
 5436SOL     OW21509   4.482   6.102   6.157 -0.6058 -0.1695  0.2138
 5436SOL    HW221510   4.453   6.192   6.145  0.3163  0.1848  0.5823
 5436SOL    HW321511   4.525   6.101   6.243  0.7207 -0.6031 -0.4308
 5436SOL    MW421512   4.484   6.114   6.167 -0.3091 -0.1800  0.1774
 5437SOL     OW21513   6.287   1.585   4.849  0.0624 -0.2890 -0.7296
 5437SOL    HW221514   6.249   1.521   4.910 -0.0009 -0.7902 -1.2885
 5437SOL    HW321515   6.241   1.569   4.767 -0.3196  0.8273 -0.7434
 5437SOL    MW421516   6.276   1.574   4.846  0.0037 -0.2078 -0.8051
 5438SOL     OW21517   4.600   2.780   5.259  0.4248 -0.1481  0.6709
 5438SOL    HW221518   4.573   2.872   5.259  2.6729  0.6000 -0.2747
 5438SOL    HW321519   4.690   2.782   5.226  0.1208 -2.8174 -0.5904
 5438SOL    MW421520   4.609   2.793   5.254  0.6813 -0.4016  0.3797
 5439SOL     OW21521   0.218   0.199   3.981 -0.5364  0.0731 -0.1933
 5439SOL    HW221522   0.159   0.212   4.055  0.8799  0.2704  0.9359
 5439SOL    HW321523   0.168   0.146   3.919 -1.0863 -1.7795  1.7518
 5439SOL    MW421524   0.204   0.194   3.982 -0.4221 -0.1453  0.2123
 5440SOL     OW21525   5.153   2.634   3.666 -0.0194 -0.0211 -0.0866
 5440SOL    HW221526   5.093   2.618   3.594 -0.3002 -0.4169  0.2287
 5440SOL    HW321527   5.105   2.691   3.726 -0.2742 -0.7346  0.4025
 5440SOL    MW421528   5.139   2.639   3.665 -0.0901 -0.1675  0.0195
 5441SOL     OW21529   5.473   3.319   2.083  0.2943  0.6116  0.1529
 5441SOL    HW221530   5.413   3.268   2.028 -1.2726  0.5348  1.8645
 5441SOL    HW321531   5.483   3.268   2.163  2.7556  0.5946 -0.0862
 5441SOL    MW421532   5.466   3.306   2.086  0.4123  0.5992  0.3472
 5442SOL     OW21533   3.031   3.470   1.080  0.0209 -0.0537 -0.5167
 5442SOL    HW221534   3.088   3.394   1.068  0.6725  0.3001  0.2513
 5442SOL    HW321535   2.943   3.436   1.067  0.4327 -0.3757 -2.9188
 5442SOL    MW421536   3.027   3.456   1.077  0.1612 -0.0495 -0.7323
 5443SOL     OW21537   5.219   5.220   4.164 -0.3719  0.4297  0.0862
 5443SOL    HW221538   5.192   5.139   4.208 -0.4501  0.9741  1.0857
 5443SOL    HW321539   5.282   5.191   4.098  2.7427 -0.2281  2.9929
 5443SOL    MW421540   5.224   5.205   4.161  0.0287  0.4147  0.6016
 5444SOL     OW21541   1.417   5.326   0.957 -0.0762 -0.3568  0.1103
 5444SOL    HW221542   1.471   5.403   0.937 -0.4400 -0.1450 -0.0577
 5444SOL    HW321543   1.429   5.312   1.051  0.6809 -0.6241 -0.0164
 5444SOL    MW421544   1.426   5.334   0.967 -0.0243 -0.3642  0.0714
 5445SOL     OW21545   1.045   3.672   0.421 -0.6174 -0.3514  0.0599
 5445SOL    HW221546   1.103   3.723   0.365 -1.2373  0.9326  0.5489
 5445SOL    HW321547   1.081   3.681   0.509  0.0935 -1.9869 -0.0283
 5445SOL    MW421548   1.057   3.680   0.425 -0.6054 -0.3977  0.1128
 5446SOL     OW21549   2.565   0.787   2.358 -0.4969  0.3248  0.0435
 5446SOL    HW221550   2.483   0.769   2.312 -0.9747 -0.6736  1.2193
 5446SOL    HW321551   2.625   0.719   2.329  0.3740  1.7641 -1.7608
 5446SOL    MW421552   2.562   0.776   2.348 -0.4451  0.3830 -0.0395
 5447SOL     OW21553   1.583   6.215   1.193  0.3483  0.2341 -0.4001
 5447SOL    HW221554   1.674   6.233   1.171  0.4732 -0.3159 -0.3398
 5447SOL    HW321555   1.562   6.280   1.261  0.0697  1.6864 -1.8154
 5447SOL    MW421556   1.592   6.226   1.199  0.3280  0.3532 -0.5789
 5448SOL     OW21557   4.474   2.693   1.879 -0.4900  0.7325 -0.4934
 5448SOL    HW221558   4.521   2.613   1.903 -1.5899  0.2006 -0.0404
 5448SOL    HW321559   4.383   2.665   1.869 -1.4809  2.3704  2.5123
 5448SOL    MW421560   4.468   2.679   1.881 -0.7658  0.8784 -0.0371
 5449SOL     OW21561   2.368   3.372   3.493  0.1267 -0.4572  0.0443
 5449SOL    HW221562   2.452   3.407   3.464  0.3349  0.0999  1.2562
 5449SOL    HW321563   2.389   3.318   3.569 -0.7769  1.5867  1.8972
 5449SOL    MW421564   2.382   3.370   3.499  0.0349 -0.1140  0.4487
 5450SOL     OW21565   5.979   2.150   6.155 -0.1353 -0.0876 -0.0628
 5450SOL    HW221566   5.932   2.094   6.217 -0.8671  1.3414  0.6953
 5450SOL    HW321567   5.934   2.234   6.159 -0.7289 -0.1413 -3.1340
 5450SOL    MW421568   5.967   2.153   6.163 -0.3102  0.0938 -0.3680
 5451SOL     OW21569   1.996   5.529   6.392 -0.1941 -0.5547 -0.1631
 5451SOL    HW221570   1.922   5.534   6.453  0.3016  0.6852  0.3705
 5451SOL    HW321571   2.033   5.442   6.405 -0.8593 -0.7606  0.4024
 5451SOL    MW421572   1.991   5.518   6.402 -0.2165 -0.4183 -0.0181
 5452SOL     OW21573   3.607   4.767   0.055  0.1093 -0.2940  0.1050
 5452SOL    HW221574   3.553   4.772   0.133 -0.8918  0.2559 -0.5954
 5452SOL    HW321575   3.576   4.839  -0.000  1.9204  0.3747 -0.1055
 5452SOL    MW421576   3.596   4.777   0.058  0.2161 -0.1332 -0.0152
 5453SOL     OW21577   5.866   0.155   1.561  0.3031  0.1003 -0.1488
 5453SOL    HW221578   5.776   0.137   1.533  0.3949  1.9207 -1.8157
 5453SOL    HW321579   5.857   0.214   1.636  0.1140 -2.8587  2.3520
 5453SOL    MW421580   5.853   0.160   1.567  0.2902 -0.0500 -0.0388
 5454SOL     OW21581   2.711   4.244   1.451  0.1350  0.2222  0.0335
 5454SOL    HW221582   2.701   4.158   1.409 -0.9875  0.5542 -0.4023
 5454SOL    HW321583   2.799   4.272   1.426  0.5279 -0.8132  0.2031
 5454SOL    MW421584   2.721   4.236   1.442  0.0387  0.1294 -0.0016
 5455SOL     OW21585   0.823   1.675   3.758 -0.0747  0.0889  0.5907
 5455SOL    HW221586   0.917   1.689   3.766 -0.1105  0.4668  0.3902
 5455SOL    HW321587   0.796   1.642   3.843  0.1310  0.6119  0.8648
 5455SOL    MW421588   0.832   1.673   3.770 -0.0523  0.2078  0.6004
 5456SOL     OW21589   0.577   4.784   6.010 -0.1043 -0.3086 -0.3782
 5456SOL    HW221590   0.554   4.859   6.064 -0.5185 -0.1721 -0.7405
 5456SOL    HW321591   0.654   4.746   6.052 -1.2986 -1.1039  1.1780
 5456SOL    MW421592   0.584   4.789   6.022 -0.3166 -0.3955 -0.2207
 5457SOL     OW21593   1.080   0.052   0.462  0.3375 -0.3130 -0.0526
 5457SOL    HW221594   1.101   0.041   0.555 -2.1967  0.8995  0.7610
 5457SOL    HW321595   0.988   0.078   0.461  0.4995  0.5217 -2.8725
 5457SOL    MW421596   1.070   0.054   0.474  0.0245 -0.0429 -0.3173
 5458SOL     OW21597   1.667   1.163   2.325  0.6710  0.6132  0.6331
 5458SOL    HW221598   1.598   1.170   2.259 -0.2289 -0.7340  1.3732
 5458SOL    HW321599   1.727   1.097   2.291  1.9393  2.1420 -0.2473
 5458SOL    MW421600   1.665   1.156   2.312  0.7196  0.6372  0.6146
 5459SOL     OW21601   6.215   2.935   3.738 -0.1428 -0.0615  0.1778
 5459SOL    HW221602   6.251   2.869   3.678 -1.3790 -0.5016 -0.1142
 5459SOL    HW321603   6.163   2.885   3.800 -1.7779  0.6697 -0.5351
 5459SOL    MW421604   6.213   2.920   3.738 -0.5217 -0.0231  0.0452
 5460SOL     OW21605   4.723   5.378   0.983  0.1607  0.0623  0.2174
 5460SOL    HW221606   4.794   5.313   0.981 -0.2054 -0.3760  1.0186
 5460SOL    HW321607   4.658   5.341   1.043  0.0381  1.2639  0.8533
 5460SOL    MW421608   4.724   5.364   0.990  0.0962  0.1630  0.4070
 5461SOL     OW21609   4.762   2.506   4.410  0.4002 -0.2823 -0.3112
 5461SOL    HW221610   4.790   2.552   4.330 -1.5027  0.8754 -0.3714
 5461SOL    HW321611   4.668   2.494   4.399  0.4070 -1.7425  0.9755
 5461SOL    MW421612   4.753   2.511   4.398  0.1501 -0.3222 -0.1494
 5462SOL     OW21613   1.994   0.759   5.146 -0.8983  0.3262  0.2402
 5462SOL    HW221614   1.978   0.677   5.192 -0.5655 -0.1799 -0.5227
 5462SOL    HW321615   1.945   0.752   5.064 -1.4035  1.1689  0.4556
 5462SOL    MW421616   1.986   0.747   5.141 -0.9211  0.3706  0.1680
 5463SOL     OW21617   4.300   2.229   3.028  0.7348 -0.2108  0.3512
 5463SOL    HW221618   4.349   2.304   3.062 -0.8438  1.1221 -0.2013
 5463SOL    HW321619   4.282   2.252   2.937  2.5317 -2.4989 -0.7012
 5463SOL    MW421620   4.304   2.242   3.020  0.7636 -0.3368  0.1395
 5464SOL     OW21621   1.940   5.107   6.166  0.5127  0.5196 -0.0155
 5464SOL    HW221622   1.875   5.047   6.130 -0.5926 -0.1576  2.8791
 5464SOL    HW321623   1.978   5.149   6.089 -2.1545 -0.2623 -1.9101
 5464SOL    MW421624   1.937   5.104   6.151  0.0150  0.3271  0.1165
 5465SOL     OW21625   3.102   6.068   3.142  0.1644  0.1120 -0.1731
 5465SOL    HW221626   3.073   6.146   3.191 -0.9467  0.9829 -2.1124
 5465SOL    HW321627   3.021   6.033   3.105  0.5053 -2.5607  1.3779
 5465SOL    MW421628   3.087   6.074   3.144  0.0628 -0.1257 -0.2243
 5466SOL     OW21629   1.375   0.595   2.413 -0.1864 -0.5629  0.5342
 5466SOL    HW221630   1.341   0.673   2.456 -0.6780 -0.0609 -0.7204
 5466SOL    HW321631   1.333   0.522   2.460  0.6167 -0.1175  1.9893
 5466SOL    MW421632   1.365   0.595   2.425 -0.1453 -0.4379  0.5607
 5467SOL     OW21633   5.993   4.459   2.680 -0.0281 -0.1866  0.0210
 5467SOL    HW221634   5.984   4.501   2.595 -2.0538 -0.3382  0.1021
 5467SOL    HW321635   6.087   4.449   2.693  0.3406  0.6213 -1.8019
 5467SOL    MW421636   6.004   4.463   2.670 -0.2467 -0.1000 -0.2088
 5468SOL     OW21637   5.178   1.837   5.894 -0.7358  0.5542  0.0031
 5468SOL    HW221638   5.229   1.918   5.891 -0.6125  0.4651 -0.3565
 5468SOL    HW321639   5.094   1.863   5.932 -0.5255  0.7574  0.3236
 5468SOL    MW421640   5.174   1.851   5.898 -0.6918  0.5693 -0.0021
 5469SOL     OW21641   3.946   6.296   5.520  0.1954 -0.6696  0.8427
 5469SOL    HW221642   3.868   6.330   5.564 -0.7846 -2.6655  0.7506
 5469SOL    HW321643   3.957   6.353   5.444 -1.2473 -0.4079  0.8019
 5469SOL    MW421644   3.937   6.308   5.515 -0.1243 -0.8984  0.8252
 5470SOL     OW21645   5.807   2.070   4.094  0.6367  0.3985 -0.0373
 5470SOL    HW221646   5.739   2.104   4.036  1.0520 -1.5349 -1.7790
 5470SOL    HW321647   5.883   2.127   4.079  0.5537  0.2654 -0.9908
 5470SOL    MW421648   5.808   2.082   4.085  0.6806  0.1258 -0.3929
 5471SOL     OW21649   1.461   3.688   6.297  0.0542  0.0165  0.0608
 5471SOL    HW221650   1.498   3.645   6.221  0.9615 -0.0425  0.5285
 5471SOL    HW321651   1.439   3.617   6.357 -0.2950  0.0885  0.0227
 5471SOL    MW421652   1.463   3.673   6.295  0.1278  0.0183  0.1175
 5472SOL     OW21653   4.027   2.686   4.854 -0.1570  0.3827 -0.0058
 5472SOL    HW221654   3.969   2.751   4.892 -0.0883  1.2325 -1.2697
 5472SOL    HW321655   4.102   2.682   4.913 -0.3724  1.1281  0.3274
 5472SOL    MW421656   4.029   2.694   4.867 -0.1764  0.5932 -0.1286
 5473SOL     OW21657   3.058   2.138   1.696  0.0350 -0.5064  0.0080
 5473SOL    HW221658   2.989   2.199   1.671  1.7466  0.8406 -1.7426
 5473SOL    HW321659   3.132   2.195   1.720  1.3142 -1.8897 -0.5211
 5473SOL    MW421660   3.059   2.154   1.696  0.4296 -0.5112 -0.2928
 5474SOL     OW21661   6.159   2.621   0.646  0.3508 -0.4568  0.5643
 5474SOL    HW221662   6.223   2.680   0.686 -0.5498  0.9551 -0.0051
 5474SOL    HW321663   6.083   2.676   0.628  0.2333 -1.2842 -1.9367
 5474SOL    MW421664   6.157   2.636   0.649  0.2165 -0.3797  0.1592
 5475SOL     OW21665   0.077   1.923   1.609 -0.3161  0.7018  0.7042
 5475SOL    HW221666   0.093   1.866   1.684 -1.3956  1.1988  1.3381
 5475SOL    HW321667   0.062   2.009   1.648  1.2764  1.4563 -0.2231
 5475SOL    MW421668   0.077   1.927   1.624 -0.2484  0.8669  0.6655
 5476SOL     OW21669   1.489   1.920   5.593 -0.4693 -0.0369  0.5598
 5476SOL    HW221670   1.568   1.899   5.642  0.5926 -0.3317 -1.1719
 5476SOL    HW321671   1.445   1.987   5.645  2.0958  1.8372  0.5247
 5476SOL    MW421672   1.494   1.926   5.606  0.0093  0.1715  0.3267
 5477SOL     OW21673   3.110   5.684   2.724  0.8503  0.3838  0.0474
 5477SOL    HW221674   3.123   5.589   2.732  0.9293  0.1803 -1.9539
 5477SOL    HW321675   3.044   5.694   2.656  2.8305  1.7774 -1.8204
 5477SOL    MW421676   3.103   5.673   2.716  1.1220  0.5408 -0.4631
 5478SOL     OW21677   3.834   2.491   1.203 -0.1270  0.5556  0.3209
 5478SOL    HW221678   3.773   2.497   1.277  0.1540  0.3986  0.5665
 5478SOL    HW321679   3.847   2.397   1.191 -1.1781  0.5278 -0.7627
 5478SOL    MW421680   3.828   2.479   1.211 -0.2286  0.5312  0.2103
 5479SOL     OW21681   1.621   0.605   0.192  0.4384  0.0421  0.1685
 5479SOL    HW221682   1.565   0.543   0.144  0.6935  0.3357 -0.5241
 5479SOL    HW321683   1.561   0.651   0.251  0.2103 -0.7122  0.5441
 5479SOL    MW421684   1.606   0.603   0.193  0.4420 -0.0187  0.1267
 5480SOL     OW21685   0.968   4.398   2.917 -0.4609  0.4672 -0.1216
 5480SOL    HW221686   1.061   4.376   2.914 -0.2543  1.1403  0.6869
 5480SOL    HW321687   0.927   4.340   2.853  0.9460  2.3797 -2.9953
 5480SOL    MW421688   0.975   4.388   2.908 -0.2480  0.8083 -0.3941
 5481SOL     OW21689   4.646   4.127   0.697 -0.5815 -0.0314  0.2143
 5481SOL    HW221690   4.732   4.164   0.679 -0.5573  0.0909  0.5790
 5481SOL    HW321691   4.619   4.088   0.613  0.0564 -0.5364  0.2358
 5481SOL    MW421692   4.654   4.126   0.683 -0.4942 -0.0819  0.2652
 5482SOL     OW21693   3.434   2.398   4.733 -0.2215  0.1045  0.1451
 5482SOL    HW221694   3.347   2.364   4.753 -0.5488  0.0951 -1.1795
 5482SOL    HW321695   3.493   2.324   4.749 -0.6458 -0.3667 -0.4105
 5482SOL    MW421696   3.430   2.384   4.738 -0.3207  0.0411 -0.1030
 5483SOL     OW21697   0.539   4.995   5.828 -0.3083 -0.3648  0.5342
 5483SOL    HW221698   0.621   5.008   5.781 -0.5241  0.8981  0.4685
 5483SOL    HW321699   0.554   4.918   5.883 -0.0063 -1.8078 -1.4774
 5483SOL    MW421700   0.552   4.986   5.829 -0.2969 -0.3885  0.2601
 5484SOL     OW21701   3.737   1.504   4.097 -0.5242 -0.4910 -0.3473
 5484SOL    HW221702   3.675   1.508   4.169 -0.9310 -2.0022 -0.5649
 5484SOL    HW321703   3.690   1.541   4.022 -0.6258 -0.2667 -0.1727
 5484SOL    MW421704   3.723   1.509   4.096 -0.5913 -0.6608 -0.3530
 5485SOL     OW21705   3.755   0.641   2.541 -0.1788  0.0672  0.7017
 5485SOL    HW221706   3.723   0.653   2.452  3.2056  0.2903 -0.6131
 5485SOL    HW321707   3.800   0.723   2.562  2.5156 -1.3678  0.9615
 5485SOL    MW421708   3.757   0.653   2.532  0.6232 -0.0927  0.5625
 5486SOL     OW21709   5.635   4.212   5.937 -0.1155 -0.2439  0.1295
 5486SOL    HW221710   5.729   4.225   5.951 -0.1849  1.4957 -0.7143
 5486SOL    HW321711   5.597   4.227   6.024  0.3047  0.1927  0.2498
 5486SOL    MW421712   5.643   4.216   5.950 -0.0692  0.0433  0.0340
 5487SOL     OW21713   6.352   5.076   5.119  0.0207 -0.6991  0.1729
 5487SOL    HW221714   6.431   5.079   5.173 -0.1239 -1.0302  0.4076
 5487SOL    HW321715   6.298   5.148   5.151  0.6201  0.1131 -0.6092
 5487SOL    MW421716   6.355   5.086   5.130  0.0807 -0.6356  0.1006
 5488SOL     OW21717   4.283   3.174   2.865 -0.3203  0.4877  0.2937
 5488SOL    HW221718   4.228   3.133   2.797  0.8666 -1.0557  0.2182
 5488SOL    HW321719   4.224   3.236   2.908 -1.9234 -0.5567 -0.2740
 5488SOL    MW421720   4.268   3.176   2.861 -0.3752  0.1462  0.2088
 5489SOL     OW21721   4.549   5.397   6.000  0.0577  0.6784 -0.2836
 5489SOL    HW221722   4.498   5.385   6.081  0.7917 -1.8315 -0.1126
 5489SOL    HW321723   4.622   5.453   6.026 -1.1885  2.1868  0.0847
 5489SOL    MW421724   4.552   5.403   6.014 -0.0099  0.5462 -0.2125
 5490SOL     OW21725   1.337   2.149   5.010 -0.4728  0.2532 -0.0033
 5490SOL    HW221726   1.374   2.092   5.077 -0.4679  0.8012  0.4723
 5490SOL    HW321727   1.274   2.203   5.056 -0.4830  0.6283 -0.4428
 5490SOL    MW421728   1.334   2.149   5.025 -0.4735  0.3750  0.0015
 5491SOL     OW21729   0.148   3.971   5.901 -0.5475 -0.2139 -0.0761
 5491SOL    HW221730   0.218   3.960   5.966  0.3241 -3.1106 -1.3739
 5491SOL    HW321731   0.194   3.978   5.817 -1.7653 -1.5081 -0.8795
 5491SOL    MW421732   0.164   3.971   5.899 -0.5932 -0.7669 -0.3534
 5492SOL     OW21733   3.417   1.041   3.537  0.1431 -0.1541  0.1693
 5492SOL    HW221734   3.345   1.027   3.600 -0.2957  1.5066  0.0689
 5492SOL    HW321735   3.472   0.963   3.547 -0.9723 -0.8552  1.1896
 5492SOL    MW421736   3.414   1.029   3.547 -0.0619 -0.0275  0.2907
 5493SOL     OW21737   2.227   2.743   5.232 -0.1069  0.3845 -0.8165
 5493SOL    HW221738   2.155   2.681   5.223 -0.2016  0.3426  0.1867
 5493SOL    HW321739   2.304   2.689   5.245 -0.2105  0.4626  0.2083
 5493SOL    MW421740   2.228   2.728   5.232 -0.1331  0.3893 -0.5489
 5494SOL     OW21741   2.455   1.347   1.063 -0.0886 -0.3122 -0.1232
 5494SOL    HW221742   2.525   1.412   1.056  0.3446 -0.8970 -1.7782
 5494SOL    HW321743   2.499   1.263   1.048 -0.4455 -1.1720  2.9555
 5494SOL    MW421744   2.470   1.345   1.060 -0.0785 -0.5028  0.0647
 5495SOL     OW21745   2.879   3.181   3.431  0.0839 -0.2284 -0.0349
 5495SOL    HW221746   2.877   3.231   3.350  1.1190 -0.4051 -0.1699
 5495SOL    HW321747   2.944   3.113   3.417 -0.5476 -0.9724  0.5363
 5495SOL    MW421748   2.887   3.179   3.419  0.1372 -0.3499  0.0226
 5496SOL     OW21749   3.177   3.571   5.729 -0.0111 -0.1032  0.2262
 5496SOL    HW221750   3.141   3.482   5.732 -0.1841 -0.0540 -0.2281
 5496SOL    HW321751   3.140   3.608   5.649  0.3397  0.2596  0.2311
 5496SOL    MW421752   3.167   3.564   5.719  0.0123 -0.0488  0.1669
 5497SOL     OW21753   6.315   0.557   2.247 -0.3185  0.4204 -0.4177
 5497SOL    HW221754   6.262   0.570   2.168 -0.2730  1.4819 -0.2799
 5497SOL    HW321755   6.254   0.516   2.309 -0.3479 -0.4431 -0.9925
 5497SOL    MW421756   6.300   0.553   2.245 -0.3164  0.4465 -0.4753
 5498SOL     OW21757   4.028   5.694   0.873  0.1119 -0.3528 -0.3781
 5498SOL    HW221758   3.979   5.630   0.924 -0.6049 -0.2478 -0.9098
 5498SOL    HW321759   4.005   5.674   0.782  0.2900  0.3299 -0.5778
 5498SOL    MW421760   4.018   5.683   0.867  0.0408 -0.2489 -0.4746
 5499SOL     OW21761   4.095   3.354   0.691 -0.3579 -0.2466 -0.3808
 5499SOL    HW221762   4.118   3.372   0.600 -2.1308  0.7485 -0.6944
 5499SOL    HW321763   4.010   3.311   0.686 -1.3563  1.4320  0.8201
 5499SOL    MW421764   4.087   3.351   0.678 -0.7236  0.1061 -0.2637
 5500SOL     OW21765   6.028   4.953   2.700  0.5825 -0.2724  0.5176
 5500SOL    HW221766   6.115   4.921   2.677  0.7731  0.6426 -0.0892
 5500SOL    HW321767   6.010   4.916   2.786  1.1318 -1.3144  0.1970
 5500SOL    MW421768   6.037   4.944   2.708  0.6802 -0.2891  0.3953
 5501SOL     OW21769   5.856   1.006   4.863 -0.1510  0.1685  0.2392
 5501SOL    HW221770   5.798   1.041   4.794 -0.6174 -2.1326 -0.6196
 5501SOL    HW321771   5.824   1.047   4.943 -3.2524 -1.1818 -0.1623
 5501SOL    MW421772   5.844   1.016   4.864 -0.6217 -0.3133  0.0730
 5502SOL     OW21773   4.742   1.153   4.740  0.9180 -0.1825  0.0852
 5502SOL    HW221774   4.828   1.189   4.764  0.3329  0.5503  1.1401
 5502SOL    HW321775   4.689   1.229   4.717 -0.1058 -0.4005  1.5894
 5502SOL    MW421776   4.747   1.168   4.740  0.7057 -0.1146  0.4228
 5503SOL     OW21777   0.428   6.260   1.160  0.1228 -0.2537 -0.0498
 5503SOL    HW221778   0.498   6.194   1.164  0.8995  0.5945  1.2268
 5503SOL    HW321779   0.442   6.306   1.078 -0.1188 -1.3389 -0.7145
 5503SOL    MW421780   0.439   6.257   1.150  0.1934 -0.2850  0.0309
 5504SOL     OW21781   1.091   1.288   2.055 -0.6041  0.2547 -0.3032
 5504SOL    HW221782   1.070   1.222   1.989  0.2544  0.9053 -1.2533
 5504SOL    HW321783   1.011   1.340   2.062 -0.4660  0.6375 -1.3937
 5504SOL    MW421784   1.078   1.286   2.047 -0.4726  0.3910 -0.5724
 5505SOL     OW21785   4.974   3.875   5.773  0.0698  0.1640  0.5910
 5505SOL    HW221786   4.906   3.843   5.832  0.3047  0.2636  0.9191
 5505SOL    HW321787   5.052   3.826   5.798 -0.0332 -0.4397 -0.2351
 5505SOL    MW421788   4.975   3.865   5.784  0.0872  0.0975  0.5253
 5506SOL     OW21789   1.466   3.326   2.268  0.2328 -0.0027 -0.2215
 5506SOL    HW221790   1.433   3.236   2.275 -0.1040  0.1018 -0.4053
 5506SOL    HW321791   1.388   3.378   2.246 -0.0045  0.6589  1.9394
 5506SOL    MW421792   1.451   3.321   2.266  0.1571  0.0984  0.0393
 5507SOL     OW21793   2.196   5.597   0.297  0.3703 -0.3964 -0.0144
 5507SOL    HW221794   2.108   5.561   0.287 -0.2794  0.7758  1.1803
 5507SOL    HW321795   2.236   5.544   0.365  0.0913 -0.1094  0.3845
 5507SOL    MW421796   2.190   5.586   0.304  0.2477 -0.2039  0.1959
 5508SOL     OW21797   2.115   1.628   1.586  0.0104 -0.2322 -0.2891
 5508SOL    HW221798   2.128   1.715   1.548  2.0194 -0.3457 -0.0061
 5508SOL    HW321799   2.139   1.568   1.516  2.2969 -0.4582  0.5829
 5508SOL    MW421800   2.120   1.632   1.572  0.5771 -0.2770 -0.1367
 5509SOL     OW21801   3.794   2.235   3.556 -0.1846  0.4504  0.7058
 5509SOL    HW221802   3.732   2.268   3.491 -0.3136 -1.9091 -0.5036
 5509SOL    HW321803   3.880   2.264   3.525 -0.3964  0.8611  0.4967
 5509SOL    MW421804   3.797   2.243   3.544 -0.2296  0.1933  0.5186
 5510SOL     OW21805   1.658   2.842   5.821 -0.6458  0.0081 -0.4371
 5510SOL    HW221806   1.576   2.822   5.775 -0.6565  1.6331 -1.2004
 5510SOL    HW321807   1.693   2.918   5.774 -0.1015  1.0746  1.5959
 5510SOL    MW421808   1.651   2.850   5.809 -0.5754  0.3632 -0.2695
 5511SOL     OW21809   0.323   3.572   4.285 -0.1484  0.6558 -0.0064
 5511SOL    HW221810   0.245   3.517   4.291 -0.7774  1.4872 -0.4043
 5511SOL    HW321811   0.305   3.646   4.343 -0.1529  1.4309 -0.9746
 5511SOL    MW421812   0.311   3.574   4.294 -0.2320  0.8677 -0.1866
 5512SOL     OW21813   3.076   1.989   0.903 -0.7146  0.1221 -0.1755
 5512SOL    HW221814   3.005   1.991   0.968 -0.9170 -1.9641 -0.2435
 5512SOL    HW321815   3.146   1.939   0.946 -0.1380  0.2787 -0.9144
 5512SOL    MW421816   3.076   1.983   0.917 -0.6652 -0.1325 -0.2819
 5513SOL     OW21817   4.421   4.131   6.029  0.5427  0.3372 -0.9068
 5513SOL    HW221818   4.330   4.160   6.031  0.4991  0.2819 -1.8689
 5513SOL    HW321819   4.453   4.157   5.943  0.3442 -2.9545 -2.0998
 5513SOL    MW421820   4.413   4.138   6.018  0.5107 -0.1044 -1.1911
 5514SOL     OW21821   1.195   4.427   5.248  0.0849 -0.4430 -0.3024
 5514SOL    HW221822   1.156   4.343   5.273 -1.5593  0.3194 -0.1254
 5514SOL    HW321823   1.251   4.407   5.174 -1.2134 -1.5288 -1.0377
 5514SOL    MW421824   1.197   4.413   5.242 -0.3033 -0.4856 -0.3760
 5515SOL     OW21825   2.737   3.617   3.612  0.0715  0.3081  0.2522
 5515SOL    HW221826   2.812   3.556   3.614 -0.4632 -0.3358  1.2274
 5515SOL    HW321827   2.776   3.701   3.586  0.6347 -0.6748 -2.5369
 5515SOL    MW421828   2.752   3.620   3.609  0.0753  0.0935  0.0129
 5516SOL     OW21829   4.078   5.288   5.231 -0.5641  0.1184 -0.5405
 5516SOL    HW221830   4.020   5.249   5.296 -0.4045 -0.4943 -0.7557
 5516SOL    HW321831   4.104   5.214   5.175 -1.8826  0.8862 -2.2252
 5516SOL    MW421832   4.074   5.273   5.232 -0.7170  0.1389 -0.7912
 5517SOL     OW21833   1.649   6.149   5.829  0.1272  0.0358 -0.4461
 5517SOL    HW221834   1.569   6.119   5.786  1.0009  0.4333 -2.4864
 5517SOL    HW321835   1.714   6.082   5.808 -0.0825 -1.5224  3.1363
 5517SOL    MW421836   1.647   6.137   5.820  0.2148 -0.1173 -0.2427
 5518SOL     OW21837   2.358   2.544   6.021  0.3247 -0.1604 -0.6078
 5518SOL    HW221838   2.344   2.579   5.933  1.6706  1.1680 -0.3329
 5518SOL    HW321839   2.399   2.616   6.069 -0.5015 -0.8218  1.1561
 5518SOL    MW421840   2.362   2.558   6.016  0.3933 -0.0724 -0.3388
 5519SOL     OW21841   0.492   6.419   2.723 -0.7587 -0.8050  0.0753
 5519SOL    HW221842   0.473   6.330   2.693 -0.0056 -1.2593  0.9071
 5519SOL    HW321843   0.493   6.412   2.819  0.6107 -0.1809  0.1226
 5519SOL    MW421844   0.490   6.407   2.732 -0.4787 -0.7826  0.1913
 5520SOL     OW21845   5.149   0.781   0.212 -0.4046  0.3618  0.5892
 5520SOL    HW221846   5.097   0.819   0.283 -0.8996 -0.5373  0.7210
 5520SOL    HW321847   5.229   0.833   0.211 -0.8419  1.0648  1.1063
 5520SOL    MW421848   5.153   0.793   0.221 -0.5276  0.3359  0.6748
 5521SOL     OW21849   4.914   2.439   1.277 -0.2698 -0.4502  0.1592
 5521SOL    HW221850   4.857   2.450   1.353  0.4724 -1.5638  0.9082
 5521SOL    HW321851   4.856   2.404   1.209 -0.8167  0.0024  0.3775
 5521SOL    MW421852   4.899   2.436   1.278 -0.2440 -0.5374  0.2868
 5522SOL     OW21853   1.165   1.910   5.479  0.4419 -0.5530 -0.0978
 5522SOL    HW221854   1.217   1.987   5.456 -0.3878 -0.1662 -0.7288
 5522SOL    HW321855   1.075   1.942   5.486 -0.2765 -1.7694 -2.4516
 5522SOL    MW421856   1.160   1.924   5.477  0.2377 -0.6624 -0.4916
 5523SOL     OW21857   5.355   0.234   4.297 -0.1242  0.1816  0.7404
 5523SOL    HW221858   5.376   0.159   4.352  0.6465  0.1949  0.4764
 5523SOL    HW321859   5.280   0.206   4.245  0.4286 -0.5577  0.3345
 5523SOL    MW421860   5.348   0.220   4.298  0.0504  0.0858  0.6520
 5524SOL     OW21861   4.347   6.065   2.147  0.3618  0.0969 -0.3224
 5524SOL    HW221862   4.370   6.035   2.059  3.3798 -1.6599  0.9159
 5524SOL    HW321863   4.353   6.160   2.142 -0.4846  0.0972 -2.2057
 5524SOL    MW421864   4.351   6.073   2.135  0.6483 -0.1349 -0.4075
 5525SOL     OW21865   4.163   2.720   5.303 -0.1108  0.7093  0.3155
 5525SOL    HW221866   4.208   2.804   5.314 -0.8885  1.0768  0.7320
 5525SOL    HW321867   4.116   2.707   5.385 -1.3221  0.6588 -0.3737
 5525SOL    MW421868   4.163   2.729   5.315 -0.3732  0.7511  0.2795
 5526SOL     OW21869   0.999   3.511   4.992 -0.3264 -0.8011 -0.0352
 5526SOL    HW221870   1.024   3.536   4.903 -0.5294  0.6022  0.2634
 5526SOL    HW321871   0.909   3.543   5.001 -1.7397 -4.2251 -0.5172
 5526SOL    MW421872   0.990   3.519   4.981 -0.5396 -1.0677 -0.0594
 5527SOL     OW21873   5.589   5.733   0.606 -0.4396 -0.0201 -0.0020
 5527SOL    HW221874   5.661   5.683   0.643 -0.6713  0.4715  1.1587
 5527SOL    HW321875   5.603   5.822   0.637 -0.1888  0.6139 -1.7986
 5527SOL    MW421876   5.601   5.738   0.615 -0.4371  0.1284 -0.0859
 5528SOL     OW21877   4.267   2.047   3.391 -0.2223  0.3433  0.3409
 5528SOL    HW221878   4.273   1.953   3.408  0.4932  0.2681 -0.2191
 5528SOL    HW321879   4.298   2.089   3.471 -0.3030  0.0940  0.5013
 5528SOL    MW421880   4.272   2.040   3.404 -0.1386  0.3005  0.2882
 5529SOL     OW21881   6.250   3.183   2.198  0.3396 -0.1181  0.5773
 5529SOL    HW221882   6.230   3.209   2.288  0.1546 -0.5686  0.6701
 5529SOL    HW321883   6.278   3.091   2.206 -0.9414 -0.5729  0.0120
 5529SOL    MW421884   6.251   3.174   2.211  0.1462 -0.2375  0.5150
 5530SOL     OW21885   4.260   0.126   5.239 -0.4531 -0.5656  0.0856
 5530SOL    HW221886   4.280   0.034   5.255 -0.0011 -0.3718  0.6685
 5530SOL    HW321887   4.228   0.159   5.322 -0.5015 -0.1688 -0.0868
 5530SOL    MW421888   4.259   0.119   5.252 -0.3998 -0.4877  0.1398
 5531SOL     OW21889   4.436   4.448   0.625  0.4425 -0.0270 -0.1360
 5531SOL    HW221890   4.414   4.404   0.707  0.7404  0.5163  0.2412
 5531SOL    HW321891   4.427   4.380   0.558  0.0500 -0.4374  0.3244
 5531SOL    MW421892   4.432   4.433   0.627  0.4300 -0.0095 -0.0255
 5532SOL     OW21893   2.405   3.825   5.184 -0.0137 -0.3762  0.3170
 5532SOL    HW221894   2.326   3.878   5.168 -1.1019 -1.9548  0.1974
 5532SOL    HW321895   2.457   3.836   5.105 -0.3686  0.2344  0.1562
 5532SOL    MW421896   2.401   3.834   5.172 -0.2041 -0.5039  0.2800
 5533SOL     OW21897   4.318   5.948   4.437 -0.0654  0.3962 -0.2381
 5533SOL    HW221898   4.379   6.022   4.436 -1.2996  1.4692  0.6434
 5533SOL    HW321899   4.300   5.932   4.530 -0.4920 -0.4386 -0.4512
 5533SOL    MW421900   4.324   5.956   4.449 -0.2845  0.4277 -0.1500
 5534SOL     OW21901   4.389   0.769   2.807 -0.0785  0.1037 -0.0734
 5534SOL    HW221902   4.297   0.774   2.780  0.3444  0.6842 -1.5011
 5534SOL    HW321903   4.386   0.742   2.898 -1.7267  1.8438  0.4450
 5534SOL    MW421904   4.377   0.766   2.815 -0.2402  0.4099 -0.1934
 5535SOL     OW21905   3.224   3.573   4.759  0.8687 -0.2089  0.5947
 5535SOL    HW221906   3.234   3.660   4.797  1.6984 -0.6641  1.4634
 5535SOL    HW321907   3.200   3.590   4.668 -0.1167  0.9103  1.0332
 5535SOL    MW421908   3.222   3.587   4.752  0.8482 -0.1213  0.7672
 5536SOL     OW21909   4.899   1.014   0.971  0.0787  0.3875  0.5653
 5536SOL    HW221910   4.973   1.000   0.912 -0.9815  0.3600 -0.8086
 5536SOL    HW321911   4.824   1.024   0.913 -1.5796 -2.7523  1.9431
 5536SOL    MW421912   4.899   1.013   0.955 -0.2799 -0.0304  0.5658
 5537SOL     OW21913   2.219   3.934   2.257  0.1310 -0.1254 -0.2547
 5537SOL    HW221914   2.168   3.895   2.329  0.8954  1.2551  1.0975
 5537SOL    HW321915   2.155   3.987   2.209 -0.5583 -1.6647 -1.1418
 5537SOL    MW421916   2.204   3.935   2.260  0.1409 -0.1463 -0.1933
 5538SOL     OW21917   1.100   6.089   1.251  0.0893 -0.1774  0.6767
 5538SOL    HW221918   1.124   6.146   1.324 -0.0446 -0.6453  1.0929
 5538SOL    HW321919   1.027   6.037   1.285 -1.4745  1.1404 -0.5065
 5538SOL    MW421920   1.093   6.090   1.265 -0.1347 -0.0653  0.5755
 5539SOL     OW21921   5.157   3.831   3.182  0.3514  0.2875 -0.3362
 5539SOL    HW221922   5.220   3.875   3.240  2.1492 -0.9995 -1.2380
 5539SOL    HW321923   5.172   3.871   3.096  1.0187 -1.0598 -0.8667
 5539SOL    MW421924   5.167   3.842   3.178  0.6766 -0.0600 -0.5252
 5540SOL     OW21925   1.266   2.346   4.144  0.3031  0.0217  0.0178
 5540SOL    HW221926   1.179   2.322   4.110  0.9067 -1.0390 -0.8376
 5540SOL    HW321927   1.252   2.359   4.238 -0.4139 -2.1611  0.2728
 5540SOL    MW421928   1.253   2.345   4.152  0.2882 -0.4062 -0.0614
 5541SOL     OW21929   6.426   0.620   5.560  0.4840 -0.5990  0.0498
 5541SOL    HW221930   6.382   0.702   5.535  2.6858  0.1408 -1.7156
 5541SOL    HW321931   6.484   0.644   5.631 -1.3165 -1.4388  1.9115
 5541SOL    MW421932   6.428   0.634   5.566  0.5370 -0.6122  0.0625
 5542SOL     OW21933   5.147   3.907   2.927 -0.2328 -0.3496 -0.0623
 5542SOL    HW221934   5.156   3.947   2.841  0.7723  0.5286  0.4302
 5542SOL    HW321935   5.082   3.838   2.915  0.6371 -0.9142 -1.7571
 5542SOL    MW421936   5.139   3.903   2.914  0.0146 -0.3082 -0.2209
 5543SOL     OW21937   3.590   3.743   3.058 -0.3995  0.0921  0.2185
 5543SOL    HW221938   3.600   3.784   2.972 -1.9376 -0.3498 -0.2129
 5543SOL    HW321939   3.569   3.816   3.117  4.1465  0.9755  1.0733
 5543SOL    MW421940   3.588   3.758   3.054 -0.0026  0.1503  0.2744
 5544SOL     OW21941   2.424   2.444   1.495  0.3092 -0.2762 -0.5814
 5544SOL    HW221942   2.400   2.417   1.584  0.5836  0.3578 -0.3124
 5544SOL    HW321943   2.519   2.453   1.498  0.2356  0.5944 -0.6984
 5544SOL    MW421944   2.433   2.442   1.507  0.3357 -0.0777 -0.5614
 5545SOL     OW21945   5.745   6.196   5.959 -0.0989 -0.0157 -0.2489
 5545SOL    HW221946   5.778   6.217   5.871  0.1545  2.6043  0.4027
 5545SOL    HW321947   5.823   6.192   6.014 -0.3083 -1.0701 -0.0012
 5545SOL    MW421948   5.760   6.198   5.954 -0.0931  0.1909 -0.1302
 5546SOL     OW21949   3.700   5.833   5.567 -0.0506  0.2722 -0.1112
 5546SOL    HW221950   3.705   5.928   5.570 -2.6995  0.4584  1.1884
 5546SOL    HW321951   3.725   5.804   5.655  0.1111 -0.1817 -0.3023
 5546SOL    MW421952   3.704   5.842   5.579 -0.3788  0.2368  0.0351
 5547SOL     OW21953   1.001   2.646   1.399 -0.7413 -0.4999 -0.1837
 5547SOL    HW221954   1.055   2.649   1.320 -0.8621 -0.8731 -0.2826
 5547SOL    HW321955   1.018   2.729   1.443 -1.4382  0.1629 -1.1112
 5547SOL    MW421956   1.010   2.657   1.394 -0.8492 -0.4617 -0.3191
 5548SOL     OW21957   3.034   3.801   5.063  0.1308  0.0308  0.6707
 5548SOL    HW221958   2.984   3.833   4.988 -0.5262 -0.1116  1.0412
 5548SOL    HW321959   3.069   3.880   5.105  1.6815  0.0483 -0.5690
 5548SOL    MW421960   3.032   3.816   5.059  0.2487  0.0143  0.5560
 5549SOL     OW21961   2.731   1.879   5.066 -0.5359  0.4032  0.8436
 5549SOL    HW221962   2.716   1.848   5.155 -0.1592 -0.4541  0.6204
 5549SOL    HW321963   2.643   1.889   5.029 -0.6815  0.4160  1.1839
 5549SOL    MW421964   2.717   1.877   5.073 -0.5054  0.2918  0.8590
 5550SOL     OW21965   5.393   5.551   0.568  0.0140  0.2127 -0.4680
 5550SOL    HW221966   5.421   5.485   0.506 -0.7326  0.7323 -1.3850
 5550SOL    HW321967   5.465   5.614   0.571  0.3874 -0.2185 -0.1881
 5550SOL    MW421968   5.406   5.551   0.560 -0.0352  0.2244 -0.5520
 5551SOL     OW21969   4.553   3.781   0.496 -0.0899 -0.4769  0.1813
 5551SOL    HW221970   4.514   3.868   0.489  0.8462 -0.1086 -0.7873
 5551SOL    HW321971   4.609   3.785   0.574 -0.9563 -0.5981  0.8203
 5551SOL    MW421972   4.555   3.793   0.505 -0.0807 -0.4443  0.1378
 5552SOL     OW21973   5.762   2.217   5.518  0.4121 -0.8762 -0.1728
 5552SOL    HW221974   5.780   2.270   5.440 -1.9816 -0.0881 -0.2704
 5552SOL    HW321975   5.691   2.159   5.492 -0.3767 -0.6601  1.3594
 5552SOL    MW421976   5.755   2.217   5.505 -0.0078 -0.7437  0.0165
 5553SOL     OW21977   4.138   3.549   2.846 -0.0726 -0.1799 -0.2723
 5553SOL    HW221978   4.068   3.576   2.906 -1.4225  0.1787 -1.9165
 5553SOL    HW321979   4.155   3.626   2.792  1.2734 -0.4202 -0.2333
 5553SOL    MW421980   4.131   3.563   2.847 -0.0731 -0.1643 -0.4841
 5554SOL     OW21981   3.068   6.384   2.866 -0.8852 -0.2987  0.4381
 5554SOL    HW221982   3.100   6.450   2.805 -0.3088 -1.4905 -0.5670
 5554SOL    HW321983   3.048   6.308   2.812 -2.5417 -0.6198  1.4417
 5554SOL    MW421984   3.070   6.383   2.851 -1.0277 -0.4983  0.4379
 5555SOL     OW21985   0.303   5.190   2.044 -0.4744  0.3425 -0.1296
 5555SOL    HW221986   0.322   5.284   2.047  0.1687  0.1979  0.9191
 5555SOL    HW321987   0.382   5.151   2.008 -0.4631  0.1409  0.1117
 5555SOL    MW421988   0.316   5.197   2.040 -0.3880  0.2968  0.0406
 5556SOL     OW21989   3.527   3.080   4.691  0.2094 -0.1273  0.0168
 5556SOL    HW221990   3.553   3.012   4.629  2.5360  0.0088  0.7700
 5556SOL    HW321991   3.558   3.162   4.651  0.4653  0.1129  0.6913
 5556SOL    MW421992   3.534   3.082   4.677  0.5502 -0.0776  0.2052
 5557SOL     OW21993   5.374   3.676   5.151 -0.5718  0.5430  0.1703
 5557SOL    HW221994   5.388   3.648   5.060 -1.4042  3.2911 -0.8990
 5557SOL    HW321995   5.287   3.643   5.173 -0.7107  0.5503 -0.3427
 5557SOL    MW421996   5.364   3.668   5.142 -0.7000  0.9065 -0.0385
 5558SOL     OW21997   2.468   4.380   1.560  0.2594 -0.0605 -0.2887
 5558SOL    HW221998   2.530   4.330   1.506 -0.4917 -1.6188  0.2425
 5558SOL    HW321999   2.385   4.373   1.513 -0.8091 -2.8405  1.7524
 5558SOL    MW422000   2.466   4.372   1.547  0.0193 -0.6329  0.0507
 5559SOL     OW22001   5.882   5.213   0.221  0.6611  0.3670 -0.1286
 5559SOL    HW222002   5.874   5.128   0.178  1.7317 -1.0003  2.1611
 5559SOL    HW322003   5.976   5.230   0.224  0.5085  1.2421  0.1627
 5559SOL    MW422004   5.893   5.204   0.216  0.7822  0.3021  0.2120
 5560SOL     OW22005   3.688   3.674   5.883  0.3321  0.0752 -0.0917
 5560SOL    HW222006   3.729   3.661   5.968  0.3459 -1.4025 -0.2992
 5560SOL    HW322007   3.745   3.737   5.838 -0.1072  1.5087  1.2431
 5560SOL    MW422008   3.701   3.681   5.888  0.2759  0.0693  0.0571
 5561SOL     OW22009   2.392   2.112   3.485 -0.3038 -0.6127 -0.0412
 5561SOL    HW222010   2.480   2.088   3.456 -0.0413 -1.9669  1.7363
 5561SOL    HW322011   2.334   2.060   3.429  0.0863 -1.0186 -0.0716
 5561SOL    MW422012   2.396   2.102   3.474 -0.2177 -0.8449  0.1893
 5562SOL     OW22013   2.025   0.286   3.925 -0.1593  0.6617 -0.1878
 5562SOL    HW222014   1.978   0.346   3.866  0.5353  1.6116  0.2092
 5562SOL    HW322015   2.036   0.336   4.006  2.4005  0.8473 -0.5908
 5562SOL    MW422016   2.020   0.301   3.928  0.2701  0.8115 -0.1886
 5563SOL     OW22017   4.459   1.636   6.006  0.2172 -0.5629  0.0947
 5563SOL    HW222018   4.490   1.707   6.062 -1.1481  1.0519 -1.0981
 5563SOL    HW322019   4.473   1.667   5.917  0.2650 -2.1289 -0.4809
 5563SOL    MW422020   4.465   1.649   6.002  0.0433 -0.5564 -0.1386
 5564SOL     OW22021   6.197   0.782   0.580 -0.3848  0.0251 -0.1214
 5564SOL    HW222022   6.255   0.845   0.537  0.5285 -0.7654 -0.0804
 5564SOL    HW322023   6.122   0.775   0.521  0.8401 -1.0307 -1.6166
 5564SOL    MW422024   6.195   0.790   0.567 -0.1027 -0.2185 -0.3132
 5565SOL     OW22025   5.538   2.716   5.917 -0.4228  0.2273 -0.0417
 5565SOL    HW222026   5.604   2.768   5.963  2.4943 -2.7967 -0.3328
 5565SOL    HW322027   5.484   2.678   5.986  1.9077 -1.7448  0.8484
 5565SOL    MW422028   5.540   2.718   5.932  0.2695 -0.4319  0.0373
 5566SOL     OW22029   5.699   1.632   0.170  0.5802 -0.1020  0.0585
 5566SOL    HW222030   5.627   1.579   0.135 -0.2554  0.8978  0.2107
 5566SOL    HW322031   5.661   1.719   0.182  2.1012  0.7187 -0.7885
 5566SOL    MW422032   5.684   1.637   0.167  0.6706  0.1382 -0.0332
 5567SOL     OW22033   4.261   3.401   6.068 -0.8068  0.7621 -0.2603
 5567SOL    HW222034   4.341   3.434   6.026 -1.2667  1.0905 -0.9025
 5567SOL    HW322035   4.226   3.477   6.115 -0.4002  0.4471  0.5640
 5567SOL    MW422036   4.267   3.416   6.069 -0.8138  0.7639 -0.2363
 5568SOL     OW22037   6.278   6.022   3.695 -0.2120 -0.2169  0.2987
 5568SOL    HW222038   6.193   6.052   3.726  0.0606  1.0551 -0.1394
 5568SOL    HW322039   6.264   5.931   3.670 -1.9260  0.5043 -1.5759
 5568SOL    MW422040   6.265   6.014   3.696 -0.4022  0.0461 -0.0064
 5569SOL     OW22041   3.317   5.628   0.604  0.2439 -0.2428 -0.5681
 5569SOL    HW222042   3.347   5.667   0.522 -0.8521  3.7389  0.6553
 5569SOL    HW322043   3.223   5.649   0.607  0.6196  1.6389  2.4804
 5569SOL    MW422044   3.308   5.636   0.593  0.1489  0.5308 -0.0044
 5570SOL     OW22045   0.174   1.362   6.032  0.3634  0.4195  0.1488
 5570SOL    HW222046   0.118   1.387   6.106  0.3170  2.4312 -0.5199
 5570SOL    HW322047   0.183   1.442   5.980  0.3881 -0.9251 -2.0460
 5570SOL    MW422048   0.168   1.376   6.035  0.3606  0.5075 -0.2290
 5571SOL     OW22049   5.828   0.978   2.206  0.1271  0.1214  0.2983
 5571SOL    HW222050   5.754   1.021   2.248 -0.3008 -1.2431  1.0164
 5571SOL    HW322051   5.878   0.940   2.278  0.2642 -0.9119 -0.3146
 5571SOL    MW422052   5.825   0.978   2.221  0.0887 -0.1950  0.3122
 5572SOL     OW22053   1.177   5.642   0.977  0.7369  0.5333 -0.4122
 5572SOL    HW222054   1.171   5.580   0.905  1.3800 -1.3551  1.0737
 5572SOL    HW322055   1.211   5.591   1.051 -0.2579  2.2664  1.3648
 5572SOL    MW422056   1.180   5.627   0.977  0.6905  0.5128  0.0183
 5573SOL     OW22057   3.452   4.237   1.312  0.4807 -0.5008  0.2160
 5573SOL    HW222058   3.469   4.143   1.311 -0.6103 -0.7331  1.0340
 5573SOL    HW322059   3.447   4.262   1.220 -1.2729 -1.6733 -0.0705
 5573SOL    MW422060   3.453   4.228   1.300  0.1054 -0.6861  0.2861
 5574SOL     OW22061   3.675   1.945   2.026 -0.7532  0.1964  0.3287
 5574SOL    HW222062   3.751   1.887   2.020  0.7046  1.8684  1.4339
 5574SOL    HW322063   3.713   2.032   2.038 -2.8645  1.0363  1.3726
 5574SOL    MW422064   3.690   1.949   2.027 -0.8395  0.5279  0.6123
 5575SOL     OW22065   1.467   3.462   0.270 -0.4017 -0.3418 -0.2925
 5575SOL    HW222066   1.525   3.393   0.301 -0.4098 -0.1410  0.1775
 5575SOL    HW322067   1.525   3.535   0.250 -0.2901 -0.7793 -1.6767
 5575SOL    MW422068   1.482   3.463   0.271 -0.3880 -0.3730 -0.4131
 5576SOL     OW22069   6.048   6.356   5.138  0.1746  0.0335  0.2278
 5576SOL    HW222070   6.113   6.288   5.119 -0.6064 -0.3546 -1.2198
 5576SOL    HW322071   6.052   6.414   5.062  0.7256  1.5558  1.3828
 5576SOL    MW422072   6.057   6.355   5.125  0.1442  0.1831  0.1892
 5577SOL     OW22073   4.571   4.538   3.781  0.0118  0.1991  0.4108
 5577SOL    HW222074   4.651   4.487   3.793 -0.5981 -0.3186  2.7794
 5577SOL    HW322075   4.507   4.476   3.745  0.7840  0.7962 -2.2330
 5577SOL    MW422076   4.573   4.523   3.778  0.0332  0.2095  0.3745
 5578SOL     OW22077   4.602   6.413   0.068 -0.7122 -0.2395  0.4184
 5578SOL    HW222078   4.585   6.504   0.042 -3.1954 -0.3047  1.4961
 5578SOL    HW322079   4.565   6.406   0.156  0.5033 -2.0029  0.8397
 5578SOL    MW422080   4.595   6.424   0.076 -0.8794 -0.4808  0.6161
 5579SOL     OW22081   0.699   4.346   6.219 -0.3189  0.0425  0.3735
 5579SOL    HW222082   0.605   4.363   6.221 -0.0058  2.1008 -0.1376
 5579SOL    HW322083   0.715   4.306   6.134 -0.6067  0.7018  0.0014
 5579SOL    MW422084   0.689   4.343   6.208 -0.3155  0.4011  0.2569
 5580SOL     OW22085   1.791   1.652   3.482  0.6835 -0.0913 -0.1836
 5580SOL    HW222086   1.748   1.667   3.398  1.5249 -1.0368 -0.8007
 5580SOL    HW322087   1.719   1.634   3.542 -0.0684  2.3386 -0.2639
 5580SOL    MW422088   1.776   1.652   3.479  0.6953  0.1045 -0.2756
 5581SOL     OW22089   2.943   5.542   4.454  0.2305 -0.4706 -0.0963
 5581SOL    HW222090   3.001   5.503   4.519  2.2539  0.6283 -1.1738
 5581SOL    HW322091   2.866   5.485   4.455  1.3518 -2.0705  1.2781
 5581SOL    MW422092   2.940   5.529   4.463  0.6454 -0.5367 -0.0571
 5582SOL     OW22093   5.652   4.410   2.101  0.0930  0.0704 -0.1520
 5582SOL    HW222094   5.695   4.368   2.027 -0.0517  1.2314 -0.9224
 5582SOL    HW322095   5.661   4.504   2.085  0.4020  0.3631  1.5101
 5582SOL    MW422096   5.659   4.417   2.089  0.1147  0.2622 -0.0344
 5583SOL     OW22097   3.432   6.140   0.053  0.5109 -0.5720 -0.4303
 5583SOL    HW222098   3.452   6.074  -0.014 -1.8333 -0.2616 -1.5340
 5583SOL    HW322099   3.490   6.213   0.032  2.6257 -1.9052  0.3714
 5583SOL    MW422100   3.442   6.141   0.041  0.4807 -0.7069 -0.4701
 5584SOL     OW22101   6.302   1.138   3.171 -0.3134  1.0929 -0.4061
 5584SOL    HW222102   6.314   1.198   3.244 -0.4549  1.5873 -0.7806
 5584SOL    HW322103   6.208   1.118   3.171  0.0088 -0.6887  0.9089
 5584SOL    MW422104   6.291   1.143   3.181 -0.2895  0.9231 -0.2820
 5585SOL     OW22105   3.116   3.572   5.205  0.1173 -0.1890 -0.2210
 5585SOL    HW222106   3.137   3.658   5.169  0.5051 -0.1979 -0.0220
 5585SOL    HW322107   3.202   3.531   5.218  0.0501  0.2336  1.7601
 5585SOL    MW422108   3.130   3.578   5.202  0.1596 -0.1344  0.0667
 5586SOL     OW22109   4.821   3.016   1.476  0.2133  0.1386 -0.3730
 5586SOL    HW222110   4.753   3.071   1.438  0.5141  0.5064 -0.3831
 5586SOL    HW322111   4.847   2.958   1.404 -0.1455 -0.0597 -0.3445
 5586SOL    MW422112   4.816   3.016   1.461  0.2057  0.1610 -0.3706
 5587SOL     OW22113   1.844   3.035   2.119 -0.1846  0.1531  0.4337
 5587SOL    HW222114   1.924   3.083   2.099  0.5823 -1.4212 -0.4457
 5587SOL    HW322115   1.806   3.083   2.193  1.6426  0.8397  0.9953
 5587SOL    MW422116   1.850   3.048   2.127  0.1577  0.0360  0.3918
 5588SOL     OW22117   2.548   3.677   0.692  0.0626  0.3702  0.5184
 5588SOL    HW222118   2.461   3.662   0.655  1.1938 -1.0375 -1.8210
 5588SOL    HW322119   2.536   3.667   0.786 -2.1326 -0.6425  0.2042
 5588SOL    MW422120   2.535   3.674   0.700 -0.0778  0.0509  0.1683
 5589SOL     OW22121   2.912   2.047   2.171  0.2052 -0.4907 -0.0611
 5589SOL    HW222122   2.946   2.075   2.256 -0.6293  0.9186 -0.1648
 5589SOL    HW322123   2.875   1.960   2.188  1.1983 -0.7811  0.7095
 5589SOL    MW422124   2.911   2.039   2.184  0.2261 -0.3431  0.0269
 5590SOL     OW22125   4.107   0.100   1.750 -0.6050  0.5564  0.7645
 5590SOL    HW222126   4.060   0.023   1.781 -0.0098  0.2199  0.8582
 5590SOL    HW322127   4.084   0.169   1.812 -1.3634  0.5268  0.5160
 5590SOL    MW422128   4.098   0.099   1.762 -0.6265  0.5081  0.7441
 5591SOL     OW22129   3.115   0.700   4.133 -0.0835  0.6407  0.5106
 5591SOL    HW222130   3.048   0.762   4.105 -1.8742 -0.1858  2.6848
 5591SOL    HW322131   3.109   0.629   4.069 -0.2340  1.2609 -0.1729
 5591SOL    MW422132   3.105   0.699   4.121 -0.3396  0.6135  0.7072
 5592SOL     OW22133   1.811   4.855   4.857 -0.1623 -0.4998 -0.2594
 5592SOL    HW222134   1.791   4.946   4.881 -0.5687 -0.2896 -1.3501
 5592SOL    HW322135   1.788   4.805   4.935 -2.0944  0.0919 -0.4015
 5592SOL    MW422136   1.805   4.861   4.870 -0.4708 -0.3940 -0.4220
 5593SOL     OW22137   4.510   1.902   5.345  0.4303 -0.0178 -0.6318
 5593SOL    HW222138   4.579   1.908   5.411 -1.3167  2.5567  1.1457
 5593SOL    HW322139   4.459   1.825   5.369 -0.2598  0.9507  1.2205
 5593SOL    MW422140   4.513   1.893   5.357  0.1087  0.4496 -0.1529
 5594SOL     OW22141   0.680   5.504   3.711 -0.1094  0.0017 -0.3473
 5594SOL    HW222142   0.638   5.554   3.641 -0.2978 -0.9029 -0.8835
 5594SOL    HW322143   0.610   5.451   3.748  0.4198 -1.0750 -0.8561
 5594SOL    MW422144   0.665   5.504   3.707 -0.0644 -0.2597 -0.4852
 5595SOL     OW22145   4.016   5.675   4.961  0.2281 -0.0104 -0.3741
 5595SOL    HW222146   3.978   5.599   5.005 -0.6568 -0.0684 -1.2166
 5595SOL    HW322147   3.957   5.747   4.983 -0.3852 -0.0978 -1.6748
 5595SOL    MW422148   4.003   5.674   4.970  0.0304 -0.0296 -0.6568
 5596SOL     OW22149   3.982   5.147   1.140  0.6578 -0.4063  0.0025
 5596SOL    HW222150   3.939   5.092   1.074 -1.3525  1.9609 -0.8280
 5596SOL    HW322151   3.911   5.169   1.201  1.6405  0.4134  0.8751
 5596SOL    MW422152   3.967   5.142   1.139  0.5223  0.0142  0.0080
 5597SOL     OW22153   4.769   2.106   4.858  0.1004  0.3732  0.2017
 5597SOL    HW222154   4.787   2.141   4.945 -1.0612 -0.7824  0.9340
 5597SOL    HW322155   4.799   2.015   4.862  3.2677  1.1688 -1.7321
 5597SOL    MW422156   4.775   2.099   4.870  0.3651  0.3257  0.0432
 5598SOL     OW22157   3.994   5.050   4.104 -0.7968 -0.1684 -0.2627
 5598SOL    HW222158   4.005   5.135   4.147  0.0111 -0.8251  0.8390
 5598SOL    HW322159   3.966   4.991   4.173 -0.3390 -1.0480 -0.8133
 5598SOL    MW422160   3.991   5.054   4.118 -0.6298 -0.3711 -0.1900
 5599SOL     OW22161   3.342   0.251   1.501  0.4505  0.6834 -0.6115
 5599SOL    HW222162   3.360   0.162   1.531 -0.7280  0.5532 -0.2563
 5599SOL    HW322163   3.308   0.241   1.412  0.3045  0.7800 -0.5671
 5599SOL    MW422164   3.340   0.238   1.493  0.2757  0.6789 -0.5588
 5600SOL     OW22165   2.616   1.435   6.308  0.3223 -0.0822  0.0154
 5600SOL    HW222166   2.711   1.428   6.300  0.3548  0.1846  0.1257
 5600SOL    HW322167   2.603   1.498   6.380  0.0669  0.1292 -0.2111
 5600SOL    MW422168   2.627   1.443   6.316  0.2929 -0.0191  0.0001
 5601SOL     OW22169   1.896   1.612   3.900 -0.3457 -0.2049 -0.0129
 5601SOL    HW222170   1.966   1.591   3.962 -0.5403 -0.7241  0.0347
 5601SOL    HW322171   1.898   1.708   3.893  0.8210 -0.2409 -0.5304
 5601SOL    MW422172   1.906   1.622   3.907 -0.2174 -0.2782 -0.0749
 5602SOL     OW22173   5.823   5.961   3.429 -0.1168 -0.0010  0.0283
 5602SOL    HW222174   5.843   6.048   3.464 -1.4185 -0.3318  1.7937
 5602SOL    HW322175   5.758   5.977   3.361 -2.2078  0.3588  1.9596
 5602SOL    MW422176   5.817   5.975   3.425 -0.5644  0.0028  0.5160
 5603SOL     OW22177   4.985   0.921   1.214  0.1758  0.4232 -0.3944
 5603SOL    HW222178   4.951   0.959   1.133  2.2486  3.8419  0.1540
 5603SOL    HW322179   5.080   0.921   1.203  0.4068 -1.9087  0.9370
 5603SOL    MW422180   4.993   0.926   1.202  0.4798  0.5666 -0.1463
 5604SOL     OW22181   4.783   4.360   4.408 -0.3991  0.3817  0.1713
 5604SOL    HW222182   4.785   4.456   4.402 -0.4316  0.5591  2.3192
 5604SOL    HW322183   4.870   4.336   4.441 -0.9292 -0.1524  1.2379
 5604SOL    MW422184   4.795   4.370   4.412 -0.4733  0.3346  0.5954
 5605SOL     OW22185   4.343   0.727   5.899  0.0090 -0.7079 -0.1024
 5605SOL    HW222186   4.389   0.661   5.950  2.4331  0.6263 -0.4248
 5605SOL    HW322187   4.411   0.769   5.846 -1.6680  1.0557 -0.9939
 5605SOL    MW422188   4.358   0.724   5.899  0.1076 -0.2992 -0.2626
 5606SOL     OW22189   3.320   3.388   1.067  0.1306  0.4397 -0.2972
 5606SOL    HW222190   3.350   3.478   1.063 -0.3279  0.5769 -0.8598
 5606SOL    HW322191   3.385   3.343   1.121  0.9102  0.8858 -0.8435
 5606SOL    MW422192   3.332   3.394   1.074  0.1730  0.5167 -0.4435
 5607SOL     OW22193   2.992   1.465   2.732  0.5767 -0.2756  0.2289
 5607SOL    HW222194   2.906   1.502   2.751  0.8172 -0.4396  1.6927
 5607SOL    HW322195   2.976   1.407   2.657 -0.6585 -0.5611  0.6858
 5607SOL    MW422196   2.979   1.462   2.724  0.4455 -0.3349  0.4823
 5608SOL     OW22197   1.220   1.268   5.115 -0.0560  0.0457  0.2390
 5608SOL    HW222198   1.230   1.174   5.106 -1.3117 -0.0392 -0.4039
 5608SOL    HW322199   1.308   1.299   5.137  0.8515 -1.0266 -1.6083
 5608SOL    MW422200   1.233   1.260   5.117 -0.1019 -0.1070 -0.0896
 5609SOL     OW22201   3.020   5.762   1.892  0.4056  0.0798  0.1863
 5609SOL    HW222202   3.063   5.769   1.807  1.2262  1.2319  0.6575
 5609SOL    HW322203   3.086   5.722   1.949  0.7105  1.3975  0.7957
 5609SOL    MW422204   3.035   5.758   1.889  0.5541  0.4056  0.3289
 5610SOL     OW22205   4.151   0.496   2.163 -1.2529  0.1973 -0.2038
 5610SOL    HW222206   4.196   0.553   2.226 -1.0302  0.1159 -0.2893
 5610SOL    HW322207   4.181   0.408   2.185 -0.6007  0.2416 -0.9044
 5610SOL    MW422208   4.161   0.492   2.175 -1.1375  0.1924 -0.3075
 5611SOL     OW22209   0.602   0.261   2.504  0.2289 -0.4743 -0.8997
 5611SOL    HW222210   0.563   0.307   2.578  1.4275  0.2797 -0.7127
 5611SOL    HW322211   0.602   0.325   2.433  1.5794 -0.2797 -0.7416
 5611SOL    MW422212   0.597   0.275   2.504  0.5652 -0.3491 -0.8541
 5612SOL     OW22213   3.346   0.136   6.290  0.3978 -0.3295  0.0331
 5612SOL    HW222214   3.431   0.115   6.252  0.6039 -1.6321  1.1228
 5612SOL    HW322215   3.359   0.222   6.330  0.6441  0.3103 -1.3714
 5612SOL    MW422216   3.359   0.145   6.290  0.4575 -0.4169 -0.0085
 5613SOL     OW22217   0.483   5.407   2.943  0.7384 -0.1049 -0.6757
 5613SOL    HW222218   0.477   5.328   2.890 -0.6152 -0.3565 -0.1718
 5613SOL    HW322219   0.477   5.479   2.881 -2.1833 -0.3660 -0.8329
 5613SOL    MW422220   0.482   5.406   2.928  0.1744 -0.1725 -0.6300
 5614SOL     OW22221   4.346   0.710   3.199  0.5328 -0.5202  0.8037
 5614SOL    HW222222   4.378   0.786   3.151 -1.0841  0.2772  0.9318
 5614SOL    HW322223   4.322   0.744   3.285 -0.8502 -1.0326  0.6354
 5614SOL    MW422224   4.347   0.725   3.204  0.1370 -0.4826  0.7984
 5615SOL     OW22225   1.705   4.489   4.153 -0.2359  0.7168 -0.4787
 5615SOL    HW222226   1.775   4.433   4.184 -0.3533 -0.1200 -1.6550
 5615SOL    HW322227   1.657   4.514   4.232  0.0674 -0.5090  0.1110
 5615SOL    MW422228   1.708   4.485   4.167 -0.2114  0.4447 -0.5561
 5616SOL     OW22229   4.579   6.336   1.555  0.1979 -0.9953 -0.1832
 5616SOL    HW222230   4.655   6.303   1.507  1.8248 -1.9162  2.7903
 5616SOL    HW322231   4.538   6.258   1.593 -1.8027 -0.4281 -1.0563
 5616SOL    MW422232   4.584   6.322   1.554  0.1486 -1.0420  0.0939
 5617SOL     OW22233   5.532   5.454   5.827  0.2627 -0.0571 -0.1809
 5617SOL    HW222234   5.551   5.538   5.785 -0.4440 -0.2098 -0.8340
 5617SOL    HW322235   5.533   5.473   5.921 -0.8602  0.9123 -0.3405
 5617SOL    MW422236   5.535   5.468   5.834  0.0213  0.0507 -0.2881
 5618SOL     OW22237   0.702   3.837   2.115 -0.3368 -0.2012  0.0268
 5618SOL    HW222238   0.727   3.748   2.140 -1.9743 -1.1617 -1.5071
 5618SOL    HW322239   0.633   3.825   2.050 -1.8845  2.2131  1.0688
 5618SOL    MW422240   0.696   3.823   2.110 -0.7570 -0.0094 -0.0381
 5619SOL     OW22241   5.059   0.873   2.195 -0.3349  0.4061 -0.1670
 5619SOL    HW222242   5.080   0.855   2.286 -2.2837 -4.2300 -0.3559
 5619SOL    HW322243   5.142   0.861   2.148  0.0069 -0.6913  0.6770
 5619SOL    MW422244   5.073   0.869   2.200 -0.5470 -0.3504 -0.0806
 5620SOL     OW22245   4.564   4.941   0.964 -0.1832 -0.2086 -0.3322
 5620SOL    HW222246   4.541   4.876   0.897 -1.7532  0.1387 -0.1705
 5620SOL    HW322247   4.654   4.966   0.943 -0.3097 -0.8165 -1.7312
 5620SOL    MW422248   4.572   4.935   0.953 -0.4070 -0.2430 -0.4955
 5621SOL     OW22249   4.262   2.878   3.967 -0.2838  0.2519 -0.1389
 5621SOL    HW222250   4.230   2.910   4.051  0.2890  0.0274  0.1676
 5621SOL    HW322251   4.353   2.906   3.963 -0.6867  1.5000 -1.3230
 5621SOL    MW422252   4.270   2.886   3.978 -0.2614  0.3870 -0.2547
 5622SOL     OW22253   2.443   0.866   4.616  0.0291 -0.4359  0.1246
 5622SOL    HW222254   2.505   0.794   4.624 -0.3102 -0.7442  0.0143
 5622SOL    HW322255   2.403   0.873   4.703  2.7836  2.1584  1.3677
 5622SOL    MW422256   2.446   0.857   4.629  0.3478 -0.1343  0.2741
 5623SOL     OW22257   3.975   2.317   6.165 -0.4914  0.1628 -0.2860
 5623SOL    HW222258   4.039   2.385   6.189 -2.9356  2.3136  0.5610
 5623SOL    HW322259   3.947   2.280   6.249  0.5466 -1.7450 -0.7189
 5623SOL    MW422260   3.980   2.321   6.180 -0.6769  0.1948 -0.2314
 5624SOL     OW22261   3.621   5.153   1.788 -0.8687  0.3319  0.1271
 5624SOL    HW222262   3.701   5.146   1.736 -0.9724  1.1543 -0.1581
 5624SOL    HW322263   3.640   5.104   1.868  0.1980  1.1295  0.3863
 5624SOL    MW422264   3.634   5.146   1.792 -0.7416  0.5456  0.1237
 5625SOL     OW22265   2.856   4.312   5.531 -0.1697  0.3593 -0.2570
 5625SOL    HW222266   2.876   4.273   5.446  0.3607 -1.3159  0.5705
 5625SOL    HW322267   2.808   4.392   5.511 -0.0816 -0.0105 -2.1169
 5625SOL    MW422268   2.852   4.317   5.517 -0.0881  0.0895 -0.3932
 5626SOL     OW22269   3.553   0.339   4.384 -0.2269  0.0846 -0.6048
 5626SOL    HW222270   3.484   0.349   4.318  1.5088  0.0024 -2.5555
 5626SOL    HW322271   3.594   0.425   4.389  1.6930 -0.6689 -2.1091
 5626SOL    MW422272   3.549   0.351   4.376  0.2554 -0.0257 -1.0607
 5627SOL     OW22273   0.245   5.917   3.751  0.3194  0.7013  0.2257
 5627SOL    HW222274   0.200   5.879   3.675 -1.1691  1.8820  0.4797
 5627SOL    HW322275   0.323   5.862   3.762  0.0966 -0.0625 -1.5817
 5627SOL    MW422276   0.250   5.904   3.742  0.0936  0.7563  0.0207
 5628SOL     OW22277   2.962   4.702   5.526 -0.5012  0.4067  0.2412
 5628SOL    HW222278   2.922   4.770   5.580 -0.8383 -1.1223  2.0153
 5628SOL    HW322279   2.900   4.629   5.527  0.3900 -0.4082 -0.5545
 5628SOL    MW422280   2.949   4.701   5.533 -0.4281  0.0974  0.3703
 5629SOL     OW22281   3.104   5.404   1.329  0.4226 -0.0628 -0.0798
 5629SOL    HW222282   3.100   5.357   1.246 -0.1448  1.7646 -1.1374
 5629SOL    HW322283   3.032   5.367   1.381  0.2070 -0.5978 -0.7416
 5629SOL    MW422284   3.094   5.393   1.325  0.3193  0.1077 -0.3067
 5630SOL     OW22285   2.084   3.169   5.815  0.0966 -0.1898  0.5045
 5630SOL    HW222286   2.145   3.214   5.757  0.5499  0.3028  1.3482
 5630SOL    HW322287   2.034   3.111   5.757  0.6222  0.1968 -0.3508
 5630SOL    MW422288   2.085   3.167   5.799  0.2258 -0.0738  0.5030
 5631SOL     OW22289   1.012   2.226   4.037  0.1534 -0.2312  0.3331
 5631SOL    HW222290   0.983   2.209   3.948 -1.1590  1.2802  0.4338
 5631SOL    HW322291   1.034   2.139   4.072 -1.0701 -1.0552 -0.8584
 5631SOL    MW422292   1.011   2.212   4.030 -0.1812 -0.1405  0.1892
 5632SOL     OW22293   0.951   4.949   4.792  0.1844  0.2165 -0.3995
 5632SOL    HW222294   1.023   4.918   4.847  0.3762  0.7249 -0.3675
 5632SOL    HW322295   0.932   4.875   4.735  0.0792 -0.2701  0.2518
 5632SOL    MW422296   0.958   4.935   4.792  0.1959  0.2194 -0.3094
 5633SOL     OW22297   4.854   2.555   4.790  0.2091 -0.4479 -0.1422
 5633SOL    HW222298   4.783   2.494   4.770  0.0417 -0.5357  0.6874
 5633SOL    HW322299   4.847   2.622   4.722 -0.1577 -0.8876 -0.5476
 5633SOL    MW422300   4.843   2.556   4.778  0.1386 -0.5175 -0.0862
 5634SOL     OW22301   3.535   1.864   0.692 -0.2001  0.0229  0.3620
 5634SOL    HW222302   3.575   1.782   0.665 -1.2135  0.0044 -1.1572
 5634SOL    HW322303   3.601   1.905   0.749  1.6665 -0.3390 -1.4443
 5634SOL    MW422304   3.549   1.859   0.696 -0.0875 -0.0273 -0.0768
 5635SOL     OW22305   3.529   3.639   5.418  0.0707 -0.5436 -0.2428
 5635SOL    HW222306   3.495   3.572   5.478 -0.7696  0.9833  1.0860
 5635SOL    HW322307   3.569   3.704   5.475  0.8460  0.1083 -1.4921
 5635SOL    MW422308   3.530   3.639   5.434  0.0621 -0.2561 -0.2323
 5636SOL     OW22309   4.415   6.132   0.251  0.5088 -0.2869 -0.2822
 5636SOL    HW222310   4.459   6.103   0.171 -0.3598 -1.7883 -0.2451
 5636SOL    HW322311   4.322   6.138   0.227  0.4392  0.7755  0.2055
 5636SOL    MW422312   4.408   6.129   0.238  0.3850 -0.3448 -0.2130
 5637SOL     OW22313   1.651   3.449   0.663 -0.0991 -0.1597 -0.1466
 5637SOL    HW222314   1.585   3.380   0.662 -0.3788  0.0576  1.1110
 5637SOL    HW322315   1.605   3.525   0.698  0.5235  0.3169 -0.3397
 5637SOL    MW422316   1.636   3.450   0.668 -0.0539 -0.0681 -0.0062
 5638SOL     OW22317   3.285   5.645   3.019  0.0491  0.0507  0.2323
 5638SOL    HW222318   3.198   5.675   3.045 -0.2023 -1.5678  1.4333
 5638SOL    HW322319   3.340   5.662   3.094  0.7731  0.9471 -0.4797
 5638SOL    MW422320   3.280   5.651   3.032  0.1114 -0.0446  0.2968
 5639SOL     OW22321   6.072   2.567   0.233  0.0551  0.4035 -0.3287
 5639SOL    HW222322   6.006   2.622   0.191 -0.3612  0.0065 -0.2028
 5639SOL    HW322323   6.097   2.503   0.166 -1.0048 -0.5694  0.1819
 5639SOL    MW422324   6.067   2.566   0.219 -0.1397  0.2228 -0.2448
 5640SOL     OW22325   4.281   1.214   4.007 -0.2135  0.0790 -0.0428
 5640SOL    HW222326   4.308   1.148   4.072 -1.1547  2.0402  2.5138
 5640SOL    HW322327   4.352   1.214   3.942  1.2407 -1.3836  1.4399
 5640SOL    MW422328   4.294   1.205   4.007 -0.1458  0.1448  0.4901
 5641SOL     OW22329   3.714   3.604   0.238  0.2575  0.8687  0.0333
 5641SOL    HW222330   3.791   3.606   0.180  0.0635  1.6061 -0.2191
 5641SOL    HW322331   3.709   3.693   0.273  0.3045  0.4594  1.1144
 5641SOL    MW422332   3.723   3.616   0.235  0.2381  0.9120  0.1426
 5642SOL     OW22333   5.026   3.843   2.060 -0.5036 -0.2239  0.3011
 5642SOL    HW222334   5.049   3.929   2.094  0.8833 -0.6249  0.4471
 5642SOL    HW322335   4.990   3.796   2.136 -1.9405  0.4244  0.0591
 5642SOL    MW422336   5.024   3.848   2.075 -0.5102 -0.1912  0.2884
 5643SOL     OW22337   3.737   2.431   5.936 -0.4925  0.6897  0.4029
 5643SOL    HW222338   3.665   2.447   5.876 -0.8762 -1.8305  0.0865
 5643SOL    HW322339   3.702   2.369   6.000  1.2823 -0.3248  0.4500
 5643SOL    MW422340   3.723   2.425   5.937 -0.3090  0.2233  0.3674
 5644SOL     OW22341   1.664   0.703   5.612  0.5297  0.6627 -0.0101
 5644SOL    HW222342   1.670   0.614   5.645  2.1211  0.5938 -0.4070
 5644SOL    HW322343   1.633   0.693   5.521  0.9805  0.4861 -0.1470
 5644SOL    MW422344   1.660   0.690   5.604  0.7991  0.6303 -0.0806
 5645SOL     OW22345   3.250   1.632   1.762 -0.1930 -0.0530 -0.2606
 5645SOL    HW222346   3.265   1.718   1.802 -0.2012  0.1124 -0.6049
 5645SOL    HW322347   3.216   1.578   1.833 -1.4628  0.5975 -0.3367
 5645SOL    MW422348   3.248   1.636   1.777 -0.3616  0.0546 -0.3161
 5646SOL     OW22349   1.337   4.458   1.369  0.1721  0.2624  0.5659
 5646SOL    HW222350   1.296   4.465   1.455  0.5055  1.5347  0.6430
 5646SOL    HW322351   1.395   4.534   1.364  1.4076 -0.6892 -0.1269
 5646SOL    MW422352   1.339   4.469   1.380  0.3791  0.3047  0.4847
 5647SOL     OW22353   3.205   0.127   0.654 -0.3551  0.2352  0.0882
 5647SOL    HW222354   3.129   0.161   0.701 -0.5258 -0.6800  0.5068
 5647SOL    HW322355   3.222   0.042   0.695  1.5535  0.8670  0.7405
 5647SOL    MW422356   3.197   0.120   0.666 -0.1258  0.1978  0.2295
 5648SOL     OW22357   4.450   4.020   2.862  0.1037 -0.0208 -0.1070
 5648SOL    HW222358   4.382   4.063   2.913  0.0075  0.4607 -0.6186
 5648SOL    HW322359   4.500   3.970   2.925 -0.0784  0.4741  0.4401
 5648SOL    MW422360   4.448   4.019   2.877  0.0670  0.1080 -0.1023
 5649SOL     OW22361   6.413   3.944   5.540 -0.3930  0.8443 -0.3241
 5649SOL    HW222362   6.343   3.931   5.476  1.1979  0.0923 -1.9909
 5649SOL    HW322363   6.440   4.035   5.527  0.5877  0.4110 -1.4652
 5649SOL    MW422364   6.407   3.954   5.530 -0.0537  0.6879 -0.6946
 5650SOL     OW22365   3.269   4.768   5.590 -0.1906 -0.2630 -0.1322
 5650SOL    HW222366   3.296   4.678   5.607 -0.6181 -0.2746  0.5310
 5650SOL    HW322367   3.252   4.771   5.496 -1.0254 -1.1055 -0.0204
 5650SOL    MW422368   3.270   4.757   5.580 -0.3571 -0.3757 -0.0299
 5651SOL     OW22369   3.631   2.212   4.114  0.4199 -0.6012 -0.0956
 5651SOL    HW222370   3.547   2.235   4.076  1.2838 -1.1527 -2.5031
 5651SOL    HW322371   3.620   2.122   4.143  0.4454 -1.0041 -1.3001
 5651SOL    MW422372   3.619   2.203   4.113  0.5373 -0.7271 -0.5722
 5652SOL     OW22373   0.206   1.549   3.031 -0.6954 -0.3070  0.0745
 5652SOL    HW222374   0.214   1.459   2.999 -1.3698 -0.0553 -0.8286
 5652SOL    HW322375   0.292   1.588   3.015  0.4965 -1.5042  2.8687
 5652SOL    MW422376   0.218   1.542   3.025 -0.6271 -0.4317  0.3240
 5653SOL     OW22377   5.514   0.075   2.255 -0.3489  0.1106 -0.0731
 5653SOL    HW222378   5.592   0.063   2.308 -0.6026  0.9558  0.5150
 5653SOL    HW322379   5.517   0.166   2.227 -1.1521  0.1680 -0.0007
 5653SOL    MW422380   5.524   0.085   2.258 -0.4883  0.2297  0.0140
 5654SOL     OW22381   1.369   3.796   2.678  0.2023 -0.4302 -0.5977
 5654SOL    HW222382   1.289   3.843   2.652  0.6887  0.2130 -0.9402
 5654SOL    HW322383   1.437   3.830   2.620  0.9617 -0.1920  0.4201
 5654SOL    MW422384   1.367   3.807   2.667  0.3667 -0.3139 -0.5086
 5655SOL     OW22385   6.011   4.542   0.381  0.7734 -0.0612 -0.2992
 5655SOL    HW222386   6.103   4.548   0.355  0.9158 -1.4871 -0.2282
 5655SOL    HW322387   5.994   4.447   0.386 -0.8174  0.1724 -0.7357
 5655SOL    MW422388   6.021   4.530   0.378  0.5823 -0.2185 -0.3474
 5656SOL     OW22389   3.053   1.244   6.253  0.4272 -0.5665 -0.0743
 5656SOL    HW222390   2.979   1.257   6.193 -0.1525 -1.9714  0.2893
 5656SOL    HW322391   3.131   1.249   6.197 -0.1275 -2.7630 -1.1850
 5656SOL    MW422392   3.053   1.246   6.238  0.2775 -1.0417 -0.1729
 5657SOL     OW22393   4.076   3.298   1.917  0.4198  0.7979  0.2522
 5657SOL    HW222394   4.088   3.205   1.899 -0.6843  0.7077 -0.0920
 5657SOL    HW322395   4.048   3.335   1.833  2.0331  1.6858  0.0550
 5657SOL    MW422396   4.074   3.291   1.904  0.4870  0.9032  0.1808
 5658SOL     OW22397   0.075   1.537   0.523 -0.1547  0.1959 -0.2807
 5658SOL    HW222398   0.071   1.449   0.486 -0.3193  0.2882 -0.4794
 5658SOL    HW322399   0.094   1.523   0.616  1.4796 -0.0082 -0.6083
 5658SOL    MW422400   0.077   1.524   0.530  0.0392  0.1812 -0.3502
 5659SOL     OW22401   5.097   3.433   5.954 -0.1439  0.3309 -0.1349
 5659SOL    HW222402   5.006   3.414   5.932  0.0920  1.2689 -2.0883
 5659SOL    HW322403   5.111   3.522   5.923  1.9558 -0.4529 -1.6152
 5659SOL    MW422404   5.087   3.442   5.947  0.1642  0.3513 -0.5879
 5660SOL     OW22405   6.245   4.043   0.813  0.2088 -1.2322  0.6579
 5660SOL    HW222406   6.215   3.964   0.858 -0.0912 -0.6863  1.4430
 5660SOL    HW322407   6.247   4.110   0.881  1.5656 -0.8258  0.2498
 5660SOL    MW422408   6.241   4.041   0.828  0.3482 -1.1066  0.7076
 5661SOL     OW22409   2.392   1.176   1.332 -0.3383 -0.3835 -0.2519
 5661SOL    HW222410   2.353   1.263   1.322  1.3307  0.3688 -0.4731
 5661SOL    HW322411   2.449   1.166   1.256  0.3133 -1.2339  0.3337
 5661SOL    MW422412   2.394   1.186   1.321 -0.0321 -0.3964 -0.2038
 5662SOL     OW22413   6.159   0.303   2.322 -0.2192 -0.0139  0.4855
 5662SOL    HW222414   6.099   0.285   2.395 -1.1612 -0.3270 -0.3508
 5662SOL    HW322415   6.132   0.244   2.253  0.0896  0.9071 -0.4463
 5662SOL    MW422416   6.148   0.293   2.323 -0.3027  0.0663  0.2522
 5663SOL     OW22417   3.709   3.173   5.082  0.0947 -0.1952  0.1462
 5663SOL    HW222418   3.622   3.211   5.079  0.3533  0.3988 -0.0687
 5663SOL    HW322419   3.718   3.127   4.998  0.3374  0.5583 -0.2534
 5663SOL    MW422420   3.699   3.172   5.070  0.1608 -0.0174  0.0651
 5664SOL     OW22421   5.018   4.273   0.096 -0.3526 -0.5084  0.3255
 5664SOL    HW222422   5.060   4.196   0.132 -1.0350 -1.2530 -0.4151
 5664SOL    HW322423   4.944   4.290   0.155 -0.2136 -0.4413  0.4779
 5664SOL    MW422424   5.014   4.265   0.108 -0.4243 -0.5978  0.2479
 5665SOL     OW22425   6.124   0.290   0.402 -0.1116 -0.6350 -0.0653
 5665SOL    HW222426   6.089   0.334   0.325 -2.7254  0.5544  1.6701
 5665SOL    HW322427   6.148   0.361   0.462  4.5456 -1.3902 -0.6345
 5665SOL    MW422428   6.123   0.305   0.400  0.1580 -0.5777  0.0886
 5666SOL     OW22429   4.081   1.473   3.152  0.1217 -0.0089 -0.0597
 5666SOL    HW222430   4.051   1.563   3.137  1.5471  0.5634  0.3169
 5666SOL    HW322431   4.050   1.424   3.076  1.3211  1.3224 -1.4839
 5666SOL    MW422432   4.073   1.478   3.140  0.4680  0.2422 -0.1979
 5667SOL     OW22433   2.098   1.007   2.257 -0.6498 -0.0395  0.7618
 5667SOL    HW222434   2.107   1.102   2.270 -1.4071 -0.0160  1.2214
 5667SOL    HW322435   2.133   0.991   2.170  0.7990  0.4464  1.2289
 5667SOL    MW422436   2.104   1.018   2.247 -0.5586  0.0277  0.8841
 5668SOL     OW22437   2.944   5.635   2.172 -0.1843  0.2273 -1.0304
 5668SOL    HW222438   2.991   5.692   2.233 -0.6554 -0.8498  0.3995
 5668SOL    HW322439   2.864   5.682   2.152 -1.1743 -0.3922  1.1452
 5668SOL    MW422440   2.940   5.649   2.178 -0.3771  0.0035 -0.5547
 5669SOL     OW22441   2.577   3.251   0.601  0.5046  0.2506  0.5938
 5669SOL    HW222442   2.502   3.295   0.563  1.4022  0.7764 -0.6589
 5669SOL    HW322443   2.600   3.303   0.678 -0.4900 -0.0060  1.0750
 5669SOL    MW422444   2.570   3.263   0.606  0.4918  0.2861  0.4920
 5670SOL     OW22445   2.794   4.413   4.223  0.3672  0.5367  0.1746
 5670SOL    HW222446   2.790   4.509   4.230  0.6064  0.8216 -2.5037
 5670SOL    HW322447   2.886   4.392   4.236  0.4214  0.7367  0.1142
 5670SOL    MW422448   2.806   4.423   4.226  0.4059  0.6006 -0.1868
 5671SOL     OW22449   5.819   5.968   0.972 -0.1946  0.2656  0.3591
 5671SOL    HW222450   5.830   6.053   0.927 -1.4513 -0.0239 -0.5475
 5671SOL    HW322451   5.732   5.972   1.010 -0.4290 -0.7735 -0.0391
 5671SOL    MW422452   5.809   5.980   0.971 -0.3913  0.0903  0.1870
 5672SOL     OW22453   4.625   0.089   0.820 -0.4381  0.5597 -0.0515
 5672SOL    HW222454   4.595   0.174   0.853 -0.0451  0.6246  0.1440
 5672SOL    HW322455   4.547   0.034   0.819 -0.8366  1.1233 -0.8166
 5672SOL    MW422456   4.611   0.093   0.824 -0.4388  0.6426 -0.1267
 5673SOL     OW22457   1.521   4.185   2.926 -0.3208  0.1697  0.0624
 5673SOL    HW222458   1.546   4.276   2.908 -1.8748  0.7638  0.7404
 5673SOL    HW322459   1.488   4.186   3.016 -1.5748 -0.7992 -0.3570
 5673SOL    MW422460   1.520   4.197   2.936 -0.6913  0.1203  0.0965
 5674SOL     OW22461   2.233   5.176   0.750  0.1405 -0.0871  0.6905
 5674SOL    HW222462   2.284   5.242   0.796 -0.5742 -0.1781  1.6441
 5674SOL    HW322463   2.291   5.100   0.743  1.0435  0.6854 -0.5989
 5674SOL    MW422464   2.247   5.175   0.755  0.1654  0.0029  0.6462
 5675SOL     OW22465   3.422   5.949   2.019  0.7041  0.1838 -0.0663
 5675SOL    HW222466   3.468   5.868   2.036  3.2716  1.0968 -1.9819
 5675SOL    HW322467   3.339   5.922   1.978  1.3654 -1.4768 -0.3678
 5675SOL    MW422468   3.417   5.935   2.016  1.1301  0.0851 -0.3588
 5676SOL     OW22469   6.143   4.408   4.689 -0.0176 -0.5007 -0.3817
 5676SOL    HW222470   6.205   4.438   4.623 -0.6131  1.1060 -0.2684
 5676SOL    HW322471   6.151   4.472   4.760  0.5187 -2.1197  1.0844
 5676SOL    MW422472   6.152   4.421   4.690 -0.0254 -0.5023 -0.1733
 5677SOL     OW22473   3.536   4.640   4.105 -0.5901  0.1676 -0.2947
 5677SOL    HW222474   3.603   4.683   4.053 -1.9982  2.3544 -0.4218
 5677SOL    HW322475   3.581   4.612   4.185  0.5379  1.3397 -0.5004
 5677SOL    MW422476   3.551   4.642   4.109 -0.6271  0.6108 -0.3386
 5678SOL     OW22477   1.575   1.687   2.398  0.4126  0.0327  0.0515
 5678SOL    HW222478   1.631   1.688   2.476 -0.0158 -0.5633  0.3659
 5678SOL    HW322479   1.498   1.637   2.424 -0.2567  0.8111 -0.3961
 5678SOL    MW422480   1.572   1.681   2.412  0.2678  0.0568  0.0340
 5679SOL     OW22481   6.045   4.694   1.751 -0.0884  0.0598 -0.4507
 5679SOL    HW222482   6.084   4.629   1.693 -2.8140 -0.6976 -1.5511
 5679SOL    HW322483   5.985   4.644   1.807  0.7137  1.1141  1.4759
 5679SOL    MW422484   6.042   4.679   1.751 -0.3421  0.0990 -0.3417
 5680SOL     OW22485   5.584   0.809   1.977 -0.1804 -0.1099 -0.5097
 5680SOL    HW222486   5.651   0.752   2.016 -0.4804 -0.2018 -0.1308
 5680SOL    HW322487   5.540   0.753   1.913 -1.1590 -0.6205  0.5861
 5680SOL    MW422488   5.587   0.794   1.974 -0.3491 -0.1894 -0.3152
 5681SOL     OW22489   5.370   2.013   2.927 -0.3705 -0.0857 -0.6627
 5681SOL    HW222490   5.425   1.956   2.981 -1.8098 -0.3520  0.5566
 5681SOL    HW322491   5.408   2.100   2.938 -0.0263 -0.3100 -0.0474
 5681SOL    MW422492   5.383   2.017   2.935 -0.5150 -0.1505 -0.4206
 5682SOL     OW22493   0.062   6.244   2.719 -0.3789  0.2593 -0.0617
 5682SOL    HW222494   0.123   6.171   2.710 -0.5890  0.0301  0.4096
 5682SOL    HW322495   0.119   6.321   2.730 -0.1606  0.1767 -0.5667
 5682SOL    MW422496   0.078   6.245   2.719 -0.3778  0.2182 -0.0661
 5683SOL     OW22497   2.064   0.668   6.235  0.1086  0.1149 -0.1041
 5683SOL    HW222498   2.027   0.651   6.322 -0.3259  1.8802  0.0965
 5683SOL    HW322499   2.157   0.682   6.251 -0.0791  1.0748  0.1826
 5683SOL    MW422500   2.071   0.667   6.249  0.0265  0.4745 -0.0398
 5684SOL     OW22501   4.869   1.556   0.725 -0.6448 -0.3349 -0.3169
 5684SOL    HW222502   4.869   1.548   0.630 -1.9946 -0.8480 -0.2917
 5684SOL    HW322503   4.783   1.525   0.752  0.2348 -1.6891  1.1865
 5684SOL    MW422504   4.858   1.551   0.716 -0.7068 -0.5813 -0.1152
 5685SOL     OW22505   3.417   3.467   5.621 -0.8975  0.3452 -0.1067
 5685SOL    HW222506   3.374   3.496   5.701 -1.3753  0.4876 -0.4114
 5685SOL    HW322507   3.364   3.394   5.591 -1.0586  0.6584 -0.5994
 5685SOL    MW422508   3.405   3.461   5.628 -0.9818  0.4053 -0.2119
 5686SOL     OW22509   6.271   1.164   4.245 -0.1425 -0.0282 -0.0162
 5686SOL    HW222510   6.278   1.244   4.193  0.7225  0.6025  1.0254
 5686SOL    HW322511   6.177   1.148   4.253 -0.3013  0.2469 -1.1666
 5686SOL    MW422512   6.260   1.172   4.239 -0.0493  0.0913 -0.0306
 5687SOL     OW22513   4.688   5.786   0.151 -0.0251  0.0705 -0.5956
 5687SOL    HW222514   4.754   5.740   0.099  0.5100 -0.8394  0.8456
 5687SOL    HW322515   4.735   5.861   0.188 -0.5499  1.0477 -1.8331
 5687SOL    MW422516   4.703   5.790   0.149 -0.0237  0.0794 -0.5687
 5688SOL     OW22517   3.713   2.051   6.269 -0.2128  0.2917  0.1430
 5688SOL    HW222518   3.638   1.996   6.289 -0.6414  0.3515 -1.1961
 5688SOL    HW322519   3.676   2.129   6.228  0.5551  0.3996 -0.3810
 5688SOL    MW422520   3.698   2.054   6.266 -0.1680  0.3138 -0.1028
 5689SOL     OW22521   5.159   5.766   4.727  0.3600 -0.2194 -0.1440
 5689SOL    HW222522   5.158   5.702   4.798 -0.4091 -0.6564 -0.5420
 5689SOL    HW322523   5.246   5.758   4.688  0.1550 -1.2774 -0.4120
 5689SOL    MW422524   5.171   5.757   4.731  0.2314 -0.4167 -0.2319
 5690SOL     OW22525   5.656   6.024   4.664 -0.1138 -0.5960 -0.8157
 5690SOL    HW222526   5.705   5.993   4.741 -0.5296 -0.3766 -0.4582
 5690SOL    HW322527   5.671   5.957   4.598 -2.2917 -2.4906  0.4310
 5690SOL    MW422528   5.664   6.011   4.666 -0.4560 -0.8171 -0.6040
 5691SOL     OW22529   5.155   3.632   3.854 -0.0194  0.3544  0.6331
 5691SOL    HW222530   5.218   3.704   3.845  0.3962  0.0412  0.9852
 5691SOL    HW322531   5.071   3.676   3.867  0.1157  0.7801  0.0983
 5691SOL    MW422532   5.152   3.648   3.855  0.0533  0.3692  0.6090
 5692SOL     OW22533   0.939   4.617   2.555 -0.3175  0.1422  0.3629
 5692SOL    HW222534   1.014   4.560   2.537  0.5286  1.2203  0.3958
 5692SOL    HW322535   0.977   4.697   2.592 -1.6072  0.0644  1.9937
 5692SOL    MW422536   0.954   4.620   2.557 -0.3761  0.2741  0.5824
 5693SOL     OW22537   5.447   1.220   1.405  0.2102 -0.0835 -0.5354
 5693SOL    HW222538   5.478   1.201   1.493 -2.0495  2.2419  0.8693
 5693SOL    HW322539   5.521   1.197   1.348  2.6213  0.5892  2.1373
 5693SOL    MW422540   5.461   1.214   1.409  0.2302  0.3121  0.0026
 5694SOL     OW22541   0.833   4.938   3.416  0.5498 -0.0376  0.1334
 5694SOL    HW222542   0.819   4.939   3.511  0.8126  2.5704  0.2071
 5694SOL    HW322543   0.754   4.895   3.382 -1.6296  2.6829  1.3432
 5694SOL    MW422544   0.820   4.932   3.424  0.2969  0.6654  0.3027
 5695SOL     OW22545   3.380   3.333   4.751 -0.5943  0.4710  0.3107
 5695SOL    HW222546   3.333   3.415   4.739 -0.7567  0.2265 -0.8483
 5695SOL    HW322547   3.385   3.295   4.663 -0.1015 -0.5271  0.7523
 5695SOL    MW422548   3.374   3.339   4.738 -0.5507  0.3071  0.2161
 5696SOL     OW22549   3.599   6.134   0.747 -0.4999 -0.2303  0.0519
 5696SOL    HW222550   3.534   6.118   0.815  0.9509  0.4963  1.7006
 5696SOL    HW322551   3.681   6.100   0.784  0.1891 -0.6208 -1.7203
 5696SOL    MW422552   3.601   6.128   0.761 -0.2176 -0.1860  0.0356
 5697SOL     OW22553   5.273   6.368   1.777  0.0677  0.2624 -0.4901
 5697SOL    HW222554   5.217   6.298   1.811  0.6787 -0.4389 -0.8672
 5697SOL    HW322555   5.305   6.414   1.854 -1.1399  0.7756 -0.2792
 5697SOL    MW422556   5.270   6.364   1.791 -0.0111  0.2376 -0.5120
 5698SOL     OW22557   4.793   2.533   2.215 -0.1808 -0.4208  0.3707
 5698SOL    HW222558   4.864   2.597   2.222 -0.0909 -0.6984  2.3575
 5698SOL    HW322559   4.756   2.548   2.127  1.8211  0.2270 -0.4087
 5698SOL    MW422560   4.797   2.543   2.204  0.0952 -0.3719  0.5300
 5699SOL     OW22561   2.436   0.608   3.766  0.3048  0.0093 -0.7203
 5699SOL    HW222562   2.398   0.529   3.804  0.0790 -1.0957 -3.0497
 5699SOL    HW322563   2.426   0.675   3.833  1.3776 -2.1266  1.7591
 5699SOL    MW422564   2.430   0.607   3.779  0.4166 -0.4183 -0.7005
 5700SOL     OW22565   3.538   0.453   2.831  0.6372 -0.2830 -0.0221
 5700SOL    HW222566   3.529   0.397   2.754 -0.1272 -3.0733  1.9195
 5700SOL    HW322567   3.465   0.514   2.826  0.9455 -0.0170 -1.7711
 5700SOL    MW422568   3.527   0.453   2.820  0.5770 -0.6160  0.0033
 5701SOL     OW22569   1.301   1.491   0.426  0.0599 -0.3829 -0.0858
 5701SOL    HW222570   1.246   1.461   0.354 -0.5783  2.0655 -0.7248
 5701SOL    HW322571   1.264   1.449   0.504 -1.4664 -0.3448 -0.7529
 5701SOL    MW422572   1.289   1.481   0.427 -0.2257 -0.0548 -0.2581
 5702SOL     OW22573   1.539   4.293   2.023 -0.1421  0.0585  0.4560
 5702SOL    HW222574   1.622   4.340   2.028  0.3486 -0.7447  0.0878
 5702SOL    HW322575   1.557   4.219   1.966 -1.0676 -0.2309  0.5247
 5702SOL    MW422576   1.553   4.289   2.016 -0.1994 -0.0857  0.4165
 5703SOL     OW22577   1.211   2.837   6.064 -0.0187  0.0570 -0.0174
 5703SOL    HW222578   1.242   2.854   6.153  1.0285 -0.6074 -0.2383
 5703SOL    HW322579   1.118   2.816   6.074 -0.2186  1.2163  0.7679
 5703SOL    MW422580   1.203   2.837   6.077  0.0931  0.1223  0.0570
 5704SOL     OW22581   6.155   6.196   6.373  0.1081  0.1570  0.2807
 5704SOL    HW222582   6.245   6.189   6.404  0.9821 -1.0432 -2.2473
 5704SOL    HW322583   6.132   6.288   6.385  2.6779  1.1329 -1.4414
 5704SOL    MW422584   6.164   6.207   6.378  0.5625  0.1274 -0.2800
 5705SOL     OW22585   0.634   4.354   2.245 -0.2266 -0.7419 -0.6260
 5705SOL    HW222586   0.538   4.361   2.243 -0.2303  1.9949  2.1297
 5705SOL    HW322587   0.661   4.374   2.156 -2.1604  2.4939 -0.6627
 5705SOL    MW422588   0.625   4.357   2.233 -0.4822  0.0461 -0.2673
 5706SOL     OW22589   0.304   0.963   5.715  0.1572 -0.1078 -0.7377
 5706SOL    HW222590   0.388   1.004   5.734  1.2587 -1.8854 -1.5129
 5706SOL    HW322591   0.263   1.021   5.651  0.3399  1.2718  0.3452
 5706SOL    MW422592   0.310   0.976   5.709  0.3267 -0.1603 -0.6971
 5707SOL     OW22593   4.037   1.361   0.670 -0.4454  0.3175  0.0810
 5707SOL    HW222594   3.976   1.318   0.731  1.1972 -0.5102  1.2341
 5707SOL    HW322595   4.060   1.292   0.607  0.5851  0.0867  0.6836
 5707SOL    MW422596   4.032   1.346   0.670 -0.0928  0.1778  0.3127
 5708SOL     OW22597   4.430   1.922   2.113  0.2000 -0.4147 -0.0934
 5708SOL    HW222598   4.465   1.923   2.024  1.8037 -0.2241  0.5163
 5708SOL    HW322599   4.396   1.833   2.124  2.5395 -1.3727  0.0207
 5708SOL    MW422600   4.430   1.911   2.103  0.7203 -0.5159  0.0021
 5709SOL     OW22601   6.209   6.153   4.621  0.1723  0.5430  0.0038
 5709SOL    HW222602   6.184   6.181   4.533 -1.8823  1.1646  0.7165
 5709SOL    HW322603   6.140   6.188   4.677  1.9916  1.1159  2.0332
 5709SOL    MW422604   6.197   6.162   4.617  0.1412  0.7006  0.3656
 5710SOL     OW22605   5.235   2.268   5.817 -0.1269 -0.1485 -0.2626
 5710SOL    HW222606   5.154   2.261   5.869 -1.0103  0.9038 -1.4311
 5710SOL    HW322607   5.212   2.232   5.732  0.9832 -0.8518 -0.2853
 5710SOL    MW422608   5.221   2.262   5.813 -0.0970 -0.1024 -0.4198
 5711SOL     OW22609   0.201   1.359   5.619  0.4290 -0.1394 -0.7261
 5711SOL    HW222610   0.277   1.417   5.629 -0.3931  0.8836 -0.1273
 5711SOL    HW322611   0.144   1.405   5.556 -0.4077 -0.0990  0.0400
 5711SOL    MW422612   0.203   1.373   5.612  0.2101  0.0009 -0.5460
 5712SOL     OW22613   2.865   4.800   2.963 -0.4639 -0.2718  0.2190
 5712SOL    HW222614   2.903   4.861   2.899 -0.3461 -0.9471 -0.3758
 5712SOL    HW322615   2.855   4.852   3.043 -1.6630  0.9150 -0.6478
 5712SOL    MW422616   2.869   4.815   2.965 -0.6066 -0.2043  0.0261
 5713SOL     OW22617   5.969   5.373   4.746  0.2880 -0.2995 -0.1849
 5713SOL    HW222618   5.957   5.313   4.819  0.9704 -1.6055 -1.1114
 5713SOL    HW322619   6.022   5.325   4.683 -0.8376  0.5307 -1.8586
 5713SOL    MW422620   5.974   5.359   4.748  0.2295 -0.3623 -0.5280
 5714SOL     OW22621   2.434   0.285   6.402 -0.4088 -0.3608  0.3284
 5714SOL    HW222622   2.357   0.245   6.441 -0.3002 -0.2427  0.6723
 5714SOL    HW322623   2.402   0.326   6.322 -1.0525  1.1197  1.2914
 5714SOL    MW422624   2.420   0.285   6.397 -0.4794 -0.1499  0.5008
 5715SOL     OW22625   2.459   3.792   2.230 -0.5649 -0.6882  0.5191
 5715SOL    HW222626   2.373   3.832   2.237 -0.3318 -0.4157  2.1902
 5715SOL    HW322627   2.469   3.772   2.137 -2.4126 -0.7051  0.2938
 5715SOL    MW422628   2.449   3.794   2.219 -0.7779 -0.6545  0.7099
 5716SOL     OW22629   6.086   5.296   1.905  0.3996 -0.3776  0.4234
 5716SOL    HW222630   6.011   5.302   1.845 -0.2184  0.2160  1.2320
 5716SOL    HW322631   6.048   5.265   1.988  1.4225 -2.3458  0.2160
 5716SOL    MW422632   6.071   5.293   1.908  0.4530 -0.5589  0.5027
 5717SOL     OW22633   0.515   2.207   6.134  0.0826 -0.1324  0.2545
 5717SOL    HW222634   0.556   2.162   6.208 -0.9838 -0.3281  0.7357
 5717SOL    HW322635   0.472   2.284   6.173  1.6989  1.2507 -0.5234
 5717SOL    MW422636   0.515   2.212   6.149  0.1552  0.0242  0.2153
 5718SOL     OW22637   4.743   0.018   5.858 -0.6078  0.0633  0.1010
 5718SOL    HW222638   4.752   0.012   5.763  0.2298  0.3724  0.1534
 5718SOL    HW322639   4.808  -0.043   5.892 -0.2970  0.6018  0.4851
 5718SOL    MW422640   4.753   0.009   5.850 -0.4563  0.1751  0.1586
 5719SOL     OW22641   5.928   6.033   2.487 -0.0068  0.0364 -0.0724
 5719SOL    HW222642   5.967   5.946   2.484 -0.2263 -0.0819  0.3271
 5719SOL    HW322643   5.993   6.091   2.448  1.4566  0.1589  2.3277
 5719SOL    MW422644   5.941   6.029   2.482  0.1573  0.0370  0.2969
 5720SOL     OW22645   0.522   4.838   3.968 -0.3807 -0.1546  0.6465
 5720SOL    HW222646   0.567   4.922   3.973 -1.4687  0.4562  0.4446
 5720SOL    HW322647   0.485   4.836   3.880 -0.6796 -0.6793  0.7801
 5720SOL    MW422648   0.523   4.849   3.957 -0.5637 -0.1433  0.6375
 5721SOL     OW22649   3.825   1.978   5.260 -0.6471  0.6437 -0.2352
 5721SOL    HW222650   3.859   1.953   5.346 -1.2175  1.3150  0.1945
 5721SOL    HW322651   3.845   1.903   5.204 -0.6138  0.0327  0.5745
 5721SOL    MW422652   3.832   1.965   5.264 -0.7180  0.6517 -0.0717
 5722SOL     OW22653   3.702   1.067   4.239 -0.5742 -0.6570 -0.4814
 5722SOL    HW222654   3.645   1.022   4.176 -0.4280 -1.8751  0.2241
 5722SOL    HW322655   3.737   0.997   4.294 -0.1127  0.3085  0.4933
 5722SOL    MW422656   3.699   1.052   4.238 -0.4940 -0.6903 -0.2597
 5723SOL     OW22657   3.838   5.168   1.391 -0.7433 -0.4299 -0.1059
 5723SOL    HW222658   3.823   5.074   1.384  0.7098 -0.6035 -1.5215
 5723SOL    HW322659   3.751   5.206   1.406 -0.9612 -2.2926  6.1531
 5723SOL    MW422660   3.824   5.161   1.392 -0.5804 -0.6986  0.5331
 5724SOL     OW22661   1.740   3.969   5.443  0.4955  0.2243  0.2236
 5724SOL    HW222662   1.709   4.040   5.499  1.4762  0.8381  0.0084
 5724SOL    HW322663   1.681   3.896   5.462  2.1806 -0.4228  3.8906
 5724SOL    MW422664   1.728   3.968   5.453  0.8472  0.2199  0.6790
 5725SOL     OW22665   0.624   5.822   3.586  0.1529 -0.1178 -0.7258
 5725SOL    HW222666   0.693   5.888   3.582 -1.4507  1.7301  0.1574
 5725SOL    HW322667   0.563   5.847   3.516 -0.9709 -0.0164  0.2526
 5725SOL    MW422668   0.625   5.834   3.576 -0.2070  0.1394 -0.4802
 5726SOL     OW22669   1.387   2.081   0.405  0.2887  0.2521 -0.2728
 5726SOL    HW222670   1.325   2.008   0.411  0.7393 -0.1999 -0.9382
 5726SOL    HW322671   1.339   2.157   0.438 -0.1552 -0.3669  0.5248
 5726SOL    MW422672   1.373   2.081   0.410  0.2896  0.1108 -0.2553
 5727SOL     OW22673   4.659   0.552   0.115  0.6509 -0.3098 -0.1973
 5727SOL    HW222674   4.730   0.580   0.056  0.9280  1.8925  1.0672
 5727SOL    HW322675   4.580   0.559   0.061  1.0585  0.1358 -0.7581
 5727SOL    MW422676   4.658   0.557   0.100  0.7412  0.0396 -0.1045
 5728SOL     OW22677   0.178   0.727   1.607  0.1773 -0.0460  0.2901
 5728SOL    HW222678   0.152   0.781   1.682 -0.7400  0.3393 -0.2863
 5728SOL    HW322679   0.224   0.788   1.548  0.3695 -0.2103  0.2704
 5728SOL    MW422680   0.181   0.742   1.609  0.0817 -0.0169  0.2115
 5729SOL     OW22681   1.850   5.386   0.917  0.0267 -0.0415  0.1412
 5729SOL    HW222682   1.899   5.377   0.998  0.8560  0.8094 -0.2513
 5729SOL    HW322683   1.778   5.446   0.938  1.1664  1.4787 -0.1225
 5729SOL    MW422684   1.847   5.393   0.930  0.2864  0.2713  0.0546
 5730SOL     OW22685   3.864   3.382   3.892 -0.1909 -0.5168 -0.3344
 5730SOL    HW222686   3.868   3.417   3.980 -3.7813 -1.6588  0.4532
 5730SOL    HW322687   3.784   3.420   3.855  1.0265 -0.3449 -3.0159
 5730SOL    MW422688   3.854   3.392   3.898 -0.5040 -0.6448 -0.5843
 5731SOL     OW22689   0.651   4.487   1.254 -0.7574 -0.1198  0.2618
 5731SOL    HW222690   0.557   4.497   1.267 -1.2610 -2.4380 -1.0072
 5731SOL    HW322691   0.670   4.398   1.284  1.1250  0.4314  0.8355
 5731SOL    MW422692   0.641   4.477   1.260 -0.5755 -0.3529  0.1700
 5732SOL     OW22693   5.088   4.894   0.382 -0.3206 -0.3334  0.0098
 5732SOL    HW222694   5.033   4.894   0.303 -0.8117 -2.3936  0.2733
 5732SOL    HW322695   5.101   4.986   0.403 -1.6355  0.2389 -1.4828
 5732SOL    MW422696   5.082   4.906   0.374 -0.5588 -0.5297 -0.1524
 5733SOL     OW22697   4.304   5.233   3.894  0.2401  0.0511 -0.2397
 5733SOL    HW222698   4.312   5.219   3.989 -0.5031 -0.3656 -0.2336
 5733SOL    HW322699   4.356   5.163   3.855  2.0678  1.2738 -0.1471
 5733SOL    MW422700   4.312   5.222   3.901  0.3832  0.1574 -0.2266
 5734SOL     OW22701   5.448   4.845   2.476 -0.7578  0.3671 -0.4556
 5734SOL    HW222702   5.364   4.817   2.514 -0.9495 -1.0698 -1.8456
 5734SOL    HW322703   5.512   4.824   2.544 -1.3919  0.4373  0.1864
 5734SOL    MW422704   5.445   4.838   2.490 -0.8668  0.1868 -0.5543
 5735SOL     OW22705   3.338   3.135   6.153 -0.1994  1.1760 -0.0304
 5735SOL    HW222706   3.324   3.059   6.096  0.1347  1.3867 -0.3991
 5735SOL    HW322707   3.301   3.208   6.105  0.8969  1.5091 -0.4023
 5735SOL    MW422708   3.332   3.134   6.139 -0.0107  1.2477 -0.1281
 5736SOL     OW22709   3.873   4.673   3.834  0.0395  0.4415 -0.1821
 5736SOL    HW222710   3.818   4.705   3.906  0.5411 -1.7011  1.2342
 5736SOL    HW322711   3.962   4.696   3.860  0.0575  1.6428 -1.2402
 5736SOL    MW422712   3.877   4.680   3.847  0.1080  0.3173 -0.1348
 5737SOL     OW22713   0.855   1.722   5.564  0.0910 -0.2721  0.4518
 5737SOL    HW222714   0.821   1.734   5.653 -0.0020 -0.2345  0.4112
 5737SOL    HW322715   0.857   1.810   5.527 -1.8787 -0.5027 -0.3244
 5737SOL    MW422716   0.851   1.735   5.571 -0.1812 -0.2976  0.3440
 5738SOL     OW22717   4.021   6.152   4.452  0.3539  0.2710 -0.0944
 5738SOL    HW222718   3.962   6.226   4.433 -0.4224 -0.0976  0.8178
 5738SOL    HW322719   4.019   6.144   4.547  2.1780  0.4647 -0.0155
 5738SOL    MW422720   4.013   6.161   4.462  0.4922  0.2479  0.0363
 5739SOL     OW22721   3.542   0.119   1.330 -0.0635  0.2963 -0.0821
 5739SOL    HW222722   3.526   0.108   1.424 -3.2290  1.7931 -0.3018
 5739SOL    HW322723   3.631   0.153   1.324  0.6604 -0.9711  2.2385
 5739SOL    MW422724   3.551   0.122   1.341 -0.3856  0.3266  0.1951
 5740SOL     OW22725   5.341   4.941   5.077  0.2799 -0.1729 -0.1240
 5740SOL    HW222726   5.425   4.984   5.094 -0.2006  0.3461  1.0163
 5740SOL    HW322727   5.279   5.013   5.066 -0.6028 -0.5222  2.1145
 5740SOL    MW422728   5.344   4.956   5.077  0.1001 -0.1505  0.3218
 5741SOL     OW22729   2.695   4.450   6.314 -0.1152  0.2025 -0.6383
 5741SOL    HW222730   2.734   4.372   6.353 -1.9053 -1.8751 -2.6991
 5741SOL    HW322731   2.768   4.511   6.303  1.0725 -0.5159  2.4203
 5741SOL    MW422732   2.710   4.448   6.318 -0.1947 -0.1664 -0.5066
 5742SOL     OW22733   2.584   0.893   5.556  0.4132 -0.2806 -0.2305
 5742SOL    HW222734   2.633   0.930   5.482  2.6529 -0.8258  0.8913
 5742SOL    HW322735   2.621   0.937   5.633 -0.0388 -1.5824  0.7624
 5742SOL    MW422736   2.595   0.904   5.556  0.6490 -0.5243  0.0485
 5743SOL     OW22737   0.538   2.929   0.788 -0.1921  0.6208  0.5640
 5743SOL    HW222738   0.594   2.922   0.864 -1.0087  0.4615  1.1675
 5743SOL    HW322739   0.492   3.013   0.799 -1.1197  0.0961  0.8252
 5743SOL    MW422740   0.539   2.939   0.799 -0.4222  0.5306  0.6781
 5744SOL     OW22741   1.729   2.262   2.799  0.3310  0.1163 -0.3784
 5744SOL    HW222742   1.785   2.339   2.803  0.2509  0.1641 -0.1740
 5744SOL    HW322743   1.678   2.274   2.719 -1.5684  1.6030  0.9448
 5744SOL    MW422744   1.729   2.274   2.789  0.0698  0.3188 -0.1768
 5745SOL     OW22745   3.848   1.336   0.348  0.2710  0.4762 -0.3288
 5745SOL    HW222746   3.803   1.319   0.266 -1.2214  1.1400  0.3201
 5745SOL    HW322747   3.826   1.427   0.370  0.8152  0.3812  0.6916
 5745SOL    MW422748   3.839   1.346   0.340  0.1459  0.5512 -0.1086
 5746SOL     OW22749   4.839   3.546   3.078  0.3946  0.3764 -0.4157
 5746SOL    HW222750   4.934   3.556   3.080  0.8745  0.9009 -6.4996
 5746SOL    HW322751   4.823   3.452   3.088  1.8930 -0.0836 -2.0444
 5746SOL    MW422752   4.849   3.535   3.080  0.6556  0.3849 -1.4333
 5747SOL     OW22753   4.631   3.329   4.301  0.7586  0.7869 -0.4903
 5747SOL    HW222754   4.689   3.325   4.377  1.0999  1.1048 -0.7338
 5747SOL    HW322755   4.551   3.285   4.330  0.7552  1.2202  0.1687
 5747SOL    MW422756   4.628   3.323   4.315  0.8032  0.8860 -0.4355
 5748SOL     OW22757   4.101   3.446   5.342  0.8113 -0.0939  0.0276
 5748SOL    HW222758   4.039   3.481   5.406  1.0020 -1.0532  0.7609
 5748SOL    HW322759   4.052   3.377   5.297  0.3906  1.1478 -1.5054
 5748SOL    MW422760   4.086   3.441   5.345  0.7809 -0.0566 -0.0779
 5749SOL     OW22761   3.601   1.077   1.036  0.2237  0.0741  0.0300
 5749SOL    HW222762   3.596   1.172   1.029 -0.4773  0.0072 -0.5451
 5749SOL    HW322763   3.694   1.057   1.033  0.3149  0.5210 -3.4347
 5749SOL    MW422764   3.612   1.087   1.035  0.1432  0.1243 -0.5030
 5750SOL     OW22765   0.046   4.401   1.145 -0.0413 -0.1647  0.4746
 5750SOL    HW222766   0.026   4.408   1.238  1.9361 -0.0112  0.9269
 5750SOL    HW322767   0.138   4.376   1.142  0.3688  1.3233 -1.4547
 5750SOL    MW422768   0.055   4.399   1.157  0.2737  0.0519  0.2797
 5751SOL     OW22769   2.263   1.725   3.281 -0.2283  0.4325 -0.1054
 5751SOL    HW222770   2.264   1.678   3.365  1.2204  2.1946  0.9421
 5751SOL    HW322771   2.220   1.808   3.301 -1.0603  0.3523 -1.4650
 5751SOL    MW422772   2.257   1.729   3.295 -0.1469  0.6544 -0.1466
 5752SOL     OW22773   3.018   6.381   1.513 -0.5195  0.0446  0.1292
 5752SOL    HW222774   3.010   6.458   1.570 -1.7942 -0.8299  1.2138
 5752SOL    HW322775   3.007   6.307   1.573  0.2918 -0.9761 -0.9525
 5752SOL    MW422776   3.015   6.381   1.529 -0.5807 -0.2055  0.1296
 5753SOL     OW22777   2.462   2.765   4.520  0.4210 -0.0634  0.2460
 5753SOL    HW222778   2.428   2.853   4.537  1.3949  0.2290  0.7282
 5753SOL    HW322779   2.468   2.760   4.425  0.6980  0.5287  0.2277
 5753SOL    MW422780   2.458   2.776   4.510  0.5860  0.0533  0.3072
 5754SOL     OW22781   0.841   3.882   1.715 -0.2477  0.5104  0.4393
 5754SOL    HW222782   0.793   3.800   1.724 -0.4288  0.6662  0.9061
 5754SOL    HW322783   0.778   3.949   1.742 -0.2392  0.8421 -0.3286
 5754SOL    MW422784   0.826   3.880   1.720 -0.2705  0.5748  0.3996
 5755SOL     OW22785   3.984   2.180   5.532  0.3256  0.0500  0.4773
 5755SOL    HW222786   3.990   2.243   5.605  0.2392  0.4422  0.1516
 5755SOL    HW322787   3.914   2.215   5.477  1.6692  0.8271 -0.8094
 5755SOL    MW422788   3.975   2.193   5.534  0.4915  0.2043  0.2646
 5756SOL     OW22789   5.754   2.347   6.196  0.9796 -0.1000 -0.2455
 5756SOL    HW222790   5.797   2.409   6.254  0.2779 -0.6949  0.9479
 5756SOL    HW322791   5.720   2.400   6.125 -1.4784  1.2724  1.8045
 5756SOL    MW422792   5.755   2.362   6.194  0.5627  0.0026  0.1824
 5757SOL     OW22793   1.125   0.794   2.740 -0.0722 -0.0332 -0.1879
 5757SOL    HW222794   1.167   0.810   2.655  0.4788  2.3570  0.4763
 5757SOL    HW322795   1.096   0.703   2.735 -0.4337  0.1396 -3.1046
 5757SOL    MW422796   1.126   0.784   2.728 -0.0472  0.3049 -0.4851
 5758SOL     OW22797   2.134   1.114   5.158  0.1439 -0.5696  0.1358
 5758SOL    HW222798   2.169   1.123   5.070 -1.9903  2.8728 -0.5860
 5758SOL    HW322799   2.063   1.050   5.149 -0.0249 -0.2840 -0.6713
 5758SOL    MW422800   2.129   1.107   5.145 -0.1600 -0.0777 -0.0659
 5759SOL     OW22801   2.911   6.266   0.064  0.1692 -0.6607 -1.1866
 5759SOL    HW222802   3.003   6.254   0.086 -0.1958 -0.4794  0.6032
 5759SOL    HW322803   2.892   6.198  -0.001  1.8479  0.1025 -2.5513
 5759SOL    MW422804   2.921   6.255   0.058  0.3425 -0.5361 -1.1305
 5760SOL     OW22805   3.735   2.442   1.792 -0.4924  0.4446 -0.8387
 5760SOL    HW222806   3.678   2.496   1.848 -1.4202 -2.4024  1.2254
 5760SOL    HW322807   3.822   2.453   1.829 -0.9235 -0.5372  0.5914
 5760SOL    MW422808   3.739   2.451   1.804 -0.6717 -0.0606 -0.3777
 5761SOL     OW22809   5.865   3.621   1.349  0.1757 -0.8861 -0.2793
 5761SOL    HW222810   5.796   3.613   1.283  1.2423 -0.2715 -1.5237
 5761SOL    HW322811   5.839   3.696   1.402 -0.2431 -0.8184 -0.5711
 5761SOL    MW422812   5.852   3.630   1.347  0.2612 -0.7961 -0.4820
 5762SOL     OW22813   5.114   1.324   1.715  0.7509  0.4072 -0.1436
 5762SOL    HW222814   5.094   1.305   1.623  0.6906 -2.3099  0.3650
 5762SOL    HW322815   5.185   1.263   1.737 -1.0591 -0.9566  2.3232
 5762SOL    MW422816   5.121   1.314   1.706  0.5041 -0.1312  0.2490
 5763SOL     OW22817   4.009   3.748   4.072 -0.3755  0.0549  0.8178
 5763SOL    HW222818   3.997   3.821   4.132  3.8849  2.3021 -0.6367
 5763SOL    HW322819   3.969   3.778   3.990  0.8881  0.5881  0.3756
 5763SOL    MW422820   4.002   3.762   4.069  0.3534  0.4218  0.5675
 5764SOL     OW22821   3.727   1.266   0.104 -0.1652 -0.6687  0.1086
 5764SOL    HW222822   3.748   1.325   0.031 -2.9290  1.3788  0.8096
 5764SOL    HW322823   3.633   1.252   0.097 -0.3437 -1.2276  2.7101
 5764SOL    MW422824   3.717   1.272   0.093 -0.5534 -0.4723  0.5443
 5765SOL     OW22825   5.018   3.234   1.494  0.3546 -0.0363  0.3525
 5765SOL    HW222826   4.951   3.169   1.472 -0.5326  1.0235 -0.1989
 5765SOL    HW322827   4.995   3.264   1.582  0.7941 -0.5047  0.6279
 5765SOL    MW422828   5.006   3.230   1.503  0.2955  0.0417  0.3161
 5766SOL     OW22829   0.360   4.353   1.896  0.4223  0.0170  0.1416
 5766SOL    HW222830   0.314   4.296   1.834  0.1688  0.4227 -0.0435
 5766SOL    HW322831   0.327   4.440   1.878  2.4415  0.5928 -1.1459
 5766SOL    MW422832   0.350   4.357   1.885  0.6553  0.1465 -0.0527
 5767SOL     OW22833   3.093   5.475   5.174 -0.6252 -0.2048 -0.5652
 5767SOL    HW222834   3.031   5.426   5.121 -0.8483  1.4004 -1.8922
 5767SOL    HW322835   3.172   5.480   5.120  0.1356 -0.9096  0.4529
 5767SOL    MW422836   3.095   5.469   5.159 -0.5542 -0.0860 -0.6060
 5768SOL     OW22837   2.258   4.053   4.039  0.2000 -0.1279 -0.1269
 5768SOL    HW222838   2.211   4.018   4.115  0.9283 -0.3872  0.2208
 5768SOL    HW322839   2.189   4.080   3.978 -0.3919 -0.5720  0.3297
 5768SOL    MW422840   2.243   4.052   4.041  0.2180 -0.2207 -0.0208
 5769SOL     OW22841   0.426   1.018   3.590  0.3017  0.2136 -0.0695
 5769SOL    HW222842   0.457   1.108   3.595  0.1609  0.2809 -0.4239
 5769SOL    HW322843   0.352   1.020   3.529  0.7804 -0.2659 -0.6875
 5769SOL    MW422844   0.421   1.030   3.582  0.3463  0.1592 -0.1978
 5770SOL     OW22845   1.622   1.678   3.268 -0.0057 -0.1816 -0.2013
 5770SOL    HW222846   1.665   1.654   3.186  1.1796  0.5649  0.1875
 5770SOL    HW322847   1.553   1.739   3.241  1.6734  1.6835 -0.4926
 5770SOL    MW422848   1.618   1.683   3.253  0.3722  0.1630 -0.1884
 5771SOL     OW22849   6.033   0.352   5.360  0.7412 -0.0304  0.0602
 5771SOL    HW222850   6.061   0.381   5.273  1.4984  0.5732  0.5006
 5771SOL    HW322851   5.967   0.417   5.386  1.6931  0.7427  0.6106
 5771SOL    MW422852   6.028   0.364   5.352  0.9667  0.1513  0.1909
 5772SOL     OW22853   1.554   6.339   5.291  0.1831  0.1183 -0.5306
 5772SOL    HW222854   1.647   6.330   5.274  0.2308 -0.5635  0.0462
 5772SOL    HW322855   1.529   6.419   5.246  1.5238  1.6201  1.2556
 5772SOL    MW422856   1.563   6.348   5.282  0.3663  0.2265 -0.2188
 5773SOL     OW22857   3.587   3.688   0.642  0.3573  0.4408  0.1950
 5773SOL    HW222858   3.682   3.682   0.630  0.4576  1.0881  0.6736
 5773SOL    HW322859   3.573   3.672   0.735 -0.0884 -0.5470 -0.0287
 5773SOL    MW422860   3.598   3.685   0.653  0.3118  0.3959  0.2286
 5774SOL     OW22861   0.111   2.883   3.402  0.4693 -1.0923  0.2057
 5774SOL    HW222862   0.183   2.854   3.458  1.7570  0.9324 -0.2924
 5774SOL    HW322863   0.087   2.969   3.437 -0.4325 -0.9083 -0.8033
 5774SOL    MW422864   0.117   2.891   3.414  0.5202 -0.8009  0.0069
 5775SOL     OW22865   0.862   1.037   6.243 -0.2946 -0.6769 -0.6343
 5775SOL    HW222866   0.886   0.981   6.316  0.8075 -0.1244 -0.5439
 5775SOL    HW322867   0.919   1.008   6.171 -0.6861 -0.5815 -0.9895
 5775SOL    MW422868   0.873   1.026   6.243 -0.2009 -0.5914 -0.6692
 5776SOL     OW22869   0.163   2.630   0.663  0.2611 -0.2959 -0.4794
 5776SOL    HW222870   0.092   2.649   0.724 -1.3108 -1.4130 -1.8578
 5776SOL    HW322871   0.197   2.716   0.637  0.1996  0.2158  1.0413
 5776SOL    MW422872   0.158   2.644   0.668  0.0456 -0.3758 -0.4607
 5777SOL     OW22873   0.443   4.738   2.600 -0.0629  0.3213  0.2285
 5777SOL    HW222874   0.433   4.645   2.578 -0.5945  0.8596 -2.0908
 5777SOL    HW322875   0.536   4.749   2.620  0.1448 -0.5809 -0.2143
 5777SOL    MW422876   0.454   4.727   2.599 -0.1056  0.2733 -0.1359
 5778SOL     OW22877   0.064   1.394   4.894 -0.5357 -0.0137 -0.2822
 5778SOL    HW222878   0.008   1.467   4.866 -1.2476 -0.0577  0.9510
 5778SOL    HW322879   0.116   1.430   4.966 -0.5692 -0.5934  0.0335
 5778SOL    MW422880   0.063   1.409   4.900 -0.6340 -0.0960 -0.0778
 5779SOL     OW22881   1.103   5.097   1.136 -0.2520  0.2577 -0.5985
 5779SOL    HW222882   1.035   5.030   1.143  0.9290 -0.8078  1.9478
 5779SOL    HW322883   1.057   5.175   1.107 -2.7340 -0.2472  1.6358
 5779SOL    MW422884   1.088   5.098   1.133 -0.4236  0.0505  0.0323
 5780SOL     OW22885   0.086   2.049   3.829 -0.0961  0.2471  0.5599
 5780SOL    HW222886   0.088   2.079   3.738  1.3314  1.9902  1.1159
 5780SOL    HW322887   0.056   2.124   3.879 -3.1332 -1.3603  1.3834
 5780SOL    MW422888   0.083   2.063   3.824 -0.3085  0.2650  0.7419
 5781SOL     OW22889   0.564   5.930   1.518 -0.2568  0.4039  0.3239
 5781SOL    HW222890   0.468   5.932   1.520 -0.2634  0.5063 -0.1285
 5781SOL    HW322891   0.590   5.973   1.600 -0.5861  2.3256 -0.5287
 5781SOL    MW422892   0.555   5.936   1.529 -0.3011  0.6709  0.1517
 5782SOL     OW22893   5.421   4.931   6.055  0.4242 -0.5246 -0.1420
 5782SOL    HW222894   5.383   4.971   6.133  1.7318  0.3214  0.0932
 5782SOL    HW322895   5.384   4.843   6.052  0.7850 -0.7640  1.7434
 5782SOL    MW422896   5.411   4.925   6.065  0.6444 -0.4446  0.1378
 5783SOL     OW22897   3.338   3.014   5.052 -0.2417  0.1414 -0.1542
 5783SOL    HW222898   3.381   2.931   5.034 -0.0274 -0.1019  1.3778
 5783SOL    HW322899   3.264   3.017   4.991  0.3843 -0.6507 -0.9742
 5783SOL    MW422900   3.334   3.004   5.042 -0.1308  0.0048 -0.0602
 5784SOL     OW22901   1.094   4.196   4.114  0.2187 -0.1478 -0.2859
 5784SOL    HW222902   1.106   4.105   4.141 -2.6336  0.1070  2.3917
 5784SOL    HW322903   1.179   4.221   4.078  1.3905 -3.5464 -0.2837
 5784SOL    MW422904   1.107   4.187   4.113 -0.0031 -0.5626  0.0677
 5785SOL     OW22905   4.303   0.776   3.449  0.1504  0.1476  0.3631
 5785SOL    HW222906   4.237   0.751   3.513  0.4971 -1.8704 -0.0094
 5785SOL    HW322907   4.371   0.820   3.500 -2.1375  4.0022  0.5536
 5785SOL    MW422908   4.303   0.779   3.464 -0.1058  0.3899  0.3391
 5786SOL     OW22909   6.288   0.579   1.248  0.0781  0.1258 -0.0527
 5786SOL    HW222910   6.338   0.633   1.187  1.1621 -0.2841  0.4465
 5786SOL    HW322911   6.297   0.624   1.332 -0.1478 -0.1103  0.0970
 5786SOL    MW422912   6.296   0.592   1.251  0.1913  0.0406  0.0329
 5787SOL     OW22913   3.998   2.176   0.265 -0.7266 -0.0786  0.3954
 5787SOL    HW222914   4.022   2.083   0.261  0.5589  0.2808 -1.5680
 5787SOL    HW322915   3.949   2.191   0.185 -0.1957  1.1192  0.2816
 5787SOL    MW422916   3.995   2.166   0.254 -0.4870  0.1269  0.1213
 5788SOL     OW22917   5.405   3.523   3.352 -0.7200 -0.4757 -0.3639
 5788SOL    HW222918   5.349   3.446   3.344  1.8619 -2.4242 -1.1347
 5788SOL    HW322919   5.494   3.488   3.347  0.5934  2.6994 -2.4360
 5788SOL    MW422920   5.409   3.508   3.350 -0.2060 -0.3139 -0.7390
 5789SOL     OW22921   3.853   5.030   5.079 -0.3681  0.2170  0.1880
 5789SOL    HW222922   3.833   4.974   5.004  0.3826  0.5960 -0.3143
 5789SOL    HW322923   3.793   5.103   5.072 -0.8849 -0.1797  0.4516
 5789SOL    MW422924   3.843   5.032   5.068 -0.3373  0.2147  0.1565
 5790SOL     OW22925   0.577   3.670   4.312  0.1204 -0.0602  0.2671
 5790SOL    HW222926   0.501   3.618   4.288 -0.2073  0.0659  0.9823
 5790SOL    HW322927   0.546   3.761   4.306  0.2849 -0.0003  0.3204
 5790SOL    MW422928   0.563   3.675   4.308  0.0989 -0.0356  0.3685
 5791SOL     OW22929   6.175   4.840   1.246 -0.5724  0.0272 -0.0096
 5791SOL    HW222930   6.139   4.760   1.283 -1.8375  0.1636 -0.8988
 5791SOL    HW322931   6.269   4.836   1.268 -0.9800 -0.6364  1.8129
 5791SOL    MW422932   6.183   4.829   1.254 -0.7931 -0.0423  0.1135
 5792SOL     OW22933   5.876   0.662   4.622 -1.0973  0.1234  0.2334
 5792SOL    HW222934   5.905   0.584   4.670 -2.1892 -1.3373 -1.3376
 5792SOL    HW322935   5.809   0.701   4.679  1.8606  2.0688  2.6832
 5792SOL    MW422936   5.871   0.656   4.636 -0.8511  0.1874  0.3493
 5793SOL     OW22937   1.221   3.301   2.032 -0.2089 -0.2323 -0.4486
 5793SOL    HW222938   1.224   3.377   2.091 -0.2177 -0.8904  0.4131
 5793SOL    HW322939   1.298   3.312   1.975 -0.2677  0.4753 -0.4024
 5793SOL    MW422940   1.232   3.313   2.032 -0.2178 -0.2258 -0.3288
 5794SOL     OW22941   0.302   5.116   4.959  0.5473  0.3451 -0.8290
 5794SOL    HW222942   0.261   5.057   5.023 -2.2522  1.7810 -1.1784
 5794SOL    HW322943   0.302   5.066   4.877  0.3786 -0.0207 -0.6099
 5794SOL    MW422944   0.297   5.102   4.957  0.1557  0.4863 -0.8462
 5795SOL     OW22945   1.746   4.563   1.422 -0.3424  0.9186 -0.0558
 5795SOL    HW222946   1.713   4.593   1.338 -2.2726 -2.2547 -0.5833
 5795SOL    HW322947   1.680   4.592   1.485 -0.1272  1.2174  0.0361
 5795SOL    MW422948   1.733   4.571   1.420 -0.5687  0.5393 -0.1133
 5796SOL     OW22949   1.456   2.759   5.655  0.4571  0.5877 -0.1381
 5796SOL    HW222950   1.484   2.676   5.617  0.4846 -0.0943  1.2980
 5796SOL    HW322951   1.386   2.735   5.716  0.2311  1.6665  0.0571
 5796SOL    MW422952   1.450   2.745   5.658  0.4309  0.6401  0.0771
 5797SOL     OW22953   2.274   2.953   4.298 -0.1924  0.5611  0.7923
 5797SOL    HW222954   2.257   2.860   4.287 -1.4175  0.4550  3.0158
 5797SOL    HW322955   2.201   2.997   4.254  0.6249  0.5382 -0.6567
 5797SOL    MW422956   2.262   2.947   4.291 -0.2462  0.5441  0.8945
 5798SOL     OW22957   5.530   0.543   5.998 -0.2949  0.1653 -0.2868
 5798SOL    HW222958   5.489   0.488   6.064  1.5097  1.0165  1.6634
 5798SOL    HW322959   5.624   0.527   6.008  0.1735  2.1072 -0.9967
 5798SOL    MW422960   5.537   0.534   6.008  0.0050  0.5338 -0.1231
 5799SOL     OW22961   2.561   5.240   3.402  0.1466 -0.0285  0.5823
 5799SOL    HW222962   2.614   5.161   3.412  0.2002 -0.0029  0.5082
 5799SOL    HW322963   2.596   5.301   3.468  0.1806 -0.0273  0.5634
 5799SOL    MW422964   2.573   5.238   3.412  0.1582 -0.0250  0.5700
 5800SOL     OW22965   5.858   3.581   3.434 -0.1043 -0.4963  0.0213
 5800SOL    HW222966   5.804   3.503   3.441  1.3580 -1.4385  1.3712
 5800SOL    HW322967   5.947   3.549   3.424  0.3658  1.0143 -1.0453
 5800SOL    MW422968   5.863   3.567   3.434  0.1507 -0.4213  0.0587
 5801SOL     OW22969   2.666   4.340   6.048  0.2266 -1.0489 -0.3654
 5801SOL    HW222970   2.594   4.279   6.062  1.2928 -2.2495  0.1419
 5801SOL    HW322971   2.681   4.380   6.133 -1.6213  1.3372 -1.0639
 5801SOL    MW422972   2.659   4.337   6.061  0.1235 -0.8925 -0.3906
 5802SOL     OW22973   2.399   4.940   3.975  0.1379 -0.1147 -0.9404
 5802SOL    HW222974   2.313   4.979   3.989  0.0688 -1.0124  1.5085
 5802SOL    HW322975   2.381   4.850   3.947  0.2050 -0.8261  1.1549
 5802SOL    MW422976   2.385   4.933   3.973  0.1377 -0.3270 -0.3408
 5803SOL     OW22977   2.579   0.669   0.562  0.2027  0.1444  0.3749
 5803SOL    HW222978   2.495   0.625   0.546  0.1326  0.7239 -0.9436
 5803SOL    HW322979   2.559   0.762   0.554  0.8440  0.3084  0.6908
 5803SOL    MW422980   2.565   0.675   0.559  0.2781  0.2425  0.2427
 5804SOL     OW22981   5.752   5.359   4.075 -0.2862 -0.0961 -0.2702
 5804SOL    HW222982   5.703   5.285   4.112  1.7919 -0.5394  1.8100
 5804SOL    HW322983   5.818   5.318   4.019  1.4586  0.0330  1.5931
 5804SOL    MW422984   5.754   5.344   4.073  0.2182 -0.1375  0.2501
 5805SOL     OW22985   5.781   0.057   5.063  0.2031  0.6209  0.5783
 5805SOL    HW222986   5.831  -0.023   5.081  0.1943  0.6034  0.5235
 5805SOL    HW322987   5.704   0.051   5.120 -0.0619  0.3413  0.1895
 5805SOL    MW422988   5.778   0.046   5.073  0.1670  0.5817  0.5198
 5806SOL     OW22989   2.159   2.515   1.820  0.1858 -0.1954 -0.2627
 5806SOL    HW222990   2.203   2.597   1.841  1.1133 -0.5745 -0.6859
 5806SOL    HW322991   2.230   2.452   1.807 -0.5147 -1.6553  2.3517
 5806SOL    MW422992   2.174   2.518   1.821  0.2157 -0.4380  0.0264
 5807SOL     OW22993   3.827   4.170   2.976 -0.4290  0.0641 -0.1593
 5807SOL    HW222994   3.823   4.221   3.057 -0.3996  1.1747 -0.8307
 5807SOL    HW322995   3.844   4.235   2.908 -3.0973 -0.4428 -1.4364
 5807SOL    MW422996   3.829   4.185   2.978 -0.7772  0.1438 -0.4164
 5808SOL     OW22997   6.398   1.904   0.731 -0.1104 -0.2028 -0.2241
 5808SOL    HW222998   6.402   1.834   0.666  0.2002  0.4889 -0.9633
 5808SOL    HW322999   6.353   1.976   0.686  0.2802  0.3487  0.2554
 5808SOL    MW423000   6.392   1.904   0.716 -0.0179 -0.0388 -0.2584
 5809SOL     OW23001   0.254   2.017   4.107  0.2090  0.2758 -0.0647
 5809SOL    HW223002   0.228   1.934   4.068  3.0456 -0.1103 -1.3870
 5809SOL    HW323003   0.278   2.073   4.033 -1.7647  2.4022  0.7819
 5809SOL    MW423004   0.254   2.013   4.092  0.3228  0.5054 -0.1275
 5810SOL     OW23005   4.826   2.469   0.697  0.5293  0.0644 -0.0993
 5810SOL    HW223006   4.746   2.516   0.673 -0.8873 -1.6655  0.9855
 5810SOL    HW323007   4.875   2.530   0.752 -1.0131  0.4598  0.8858
 5810SOL    MW423008   4.822   2.483   0.701  0.1389 -0.1117  0.1738
 5811SOL     OW23009   6.355   0.680   5.246  0.2274 -0.3608  0.7665
 5811SOL    HW223010   6.350   0.683   5.151  1.7714  1.2726  0.6816
 5811SOL    HW323011   6.418   0.610   5.265  1.2465  0.4465  0.4751
 5811SOL    MW423012   6.363   0.671   5.236  0.5656 -0.0387  0.7168
 5812SOL     OW23013   5.901   3.723   2.952 -0.3380 -0.4350  0.2810
 5812SOL    HW223014   5.989   3.696   2.979 -0.4793 -1.4243 -0.2159
 5812SOL    HW323015   5.858   3.748   3.034  0.1696 -0.6507  0.6205
 5812SOL    MW423016   5.907   3.723   2.967 -0.2896 -0.5940  0.2602
 5813SOL     OW23017   4.128   2.534   4.463  0.0015 -0.2713 -0.6640
 5813SOL    HW223018   4.038   2.526   4.431 -0.2010 -1.9809  0.1874
 5813SOL    HW323019   4.170   2.452   4.437  1.3124  0.4741 -0.9860
 5813SOL    MW423020   4.122   2.522   4.455  0.1478 -0.3985 -0.5942
 5814SOL     OW23021   0.801   0.184   4.839 -0.2676 -0.1392 -0.2133
 5814SOL    HW223022   0.813   0.269   4.796  0.1332  0.4030  0.9388
 5814SOL    HW323023   0.775   0.125   4.768  0.9343  0.5937 -1.3230
 5814SOL    MW423024   0.799   0.187   4.824 -0.0562  0.0290 -0.2077
 5815SOL     OW23025   2.557   4.917   3.740  0.2218 -0.0988 -0.1597
 5815SOL    HW223026   2.516   4.953   3.661 -0.2942 -0.0314  0.1389
 5815SOL    HW323027   2.498   4.942   3.811  0.7264 -0.0937  0.2580
 5815SOL    MW423028   2.544   4.925   3.739  0.2203 -0.0892 -0.0652
 5816SOL     OW23029   4.881   1.237   2.239  1.1207 -0.0739 -0.2851
 5816SOL    HW223030   4.956   1.201   2.190 -0.6900 -0.3616 -3.1278
 5816SOL    HW323031   4.815   1.254   2.171 -1.5461 -0.2027  2.0974
 5816SOL    MW423032   4.882   1.235   2.223  0.5300 -0.1289 -0.3458
 5817SOL     OW23033   5.947   1.149   2.580 -0.0723  0.4428  0.4192
 5817SOL    HW223034   6.003   1.169   2.655 -1.0778  1.5320  0.9113
 5817SOL    HW323035   6.007   1.115   2.513  1.3563  2.4758  0.5699
 5817SOL    MW423036   5.963   1.147   2.581 -0.0164  0.8547  0.5040
 5818SOL     OW23037   5.880   1.910   0.325  0.0148  0.0925  0.1043
 5818SOL    HW223038   5.788   1.920   0.301  0.2878 -0.2062 -1.1898
 5818SOL    HW323039   5.913   1.999   0.330  0.3566  0.1976 -2.5509
 5818SOL    MW423040   5.872   1.923   0.322  0.0960  0.0670 -0.4167
 5819SOL     OW23041   6.214   2.550   4.612 -0.0699  0.5135  0.6097
 5819SOL    HW223042   6.196   2.602   4.533  0.9613 -0.3621 -0.2296
 5819SOL    HW323043   6.131   2.506   4.630 -0.6704  1.6475  0.7531
 5819SOL    MW423044   6.200   2.551   4.604 -0.0131  0.5476  0.5179
 5820SOL     OW23045   5.688   2.880   6.109  0.3307 -0.3378  0.2444
 5820SOL    HW223046   5.675   2.974   6.116 -0.7231 -0.4107 -0.5416
 5820SOL    HW323047   5.679   2.848   6.199  1.4700  0.3781  0.6379
 5820SOL    MW423048   5.685   2.888   6.122  0.3420 -0.2529  0.1926
 5821SOL     OW23049   2.025   3.206   0.386 -0.8377  0.2659  0.0336
 5821SOL    HW223050   2.009   3.156   0.306 -0.7291  0.6000 -0.1945
 5821SOL    HW323051   1.975   3.286   0.376  0.1647  0.8751 -0.2527
 5821SOL    MW423052   2.017   3.210   0.374 -0.6911  0.3904 -0.0343
 5822SOL     OW23053   1.422   5.684   1.720 -0.2217 -0.4125  0.5157
 5822SOL    HW223054   1.359   5.747   1.685  0.9383  2.2143  2.8177
 5822SOL    HW323055   1.373   5.635   1.786 -0.3939  0.0705  0.7424
 5822SOL    MW423056   1.407   5.686   1.724 -0.0914 -0.0022  0.8493
 5823SOL     OW23057   1.079   4.044   5.057 -0.2037  0.6291 -0.3071
 5823SOL    HW223058   1.141   4.095   5.006 -1.6173  0.0336 -2.7625
 5823SOL    HW323059   1.074   3.960   5.012 -2.8534  0.7017 -0.3126
 5823SOL    MW423060   1.086   4.039   5.045 -0.7398  0.5601 -0.6318
 5824SOL     OW23061   5.652   2.165   1.570 -0.7069  0.7049  0.0732
 5824SOL    HW223062   5.603   2.201   1.495 -1.8317 -0.8833 -0.0089
 5824SOL    HW323063   5.689   2.083   1.537  0.9961  1.2646  0.5268
 5824SOL    MW423064   5.650   2.159   1.555 -0.6306  0.5692  0.1222
 5825SOL     OW23065   5.962   4.489   5.102  0.1485  0.3392  0.4731
 5825SOL    HW223066   5.873   4.510   5.131 -1.3315 -0.7161 -2.8162
 5825SOL    HW323067   5.954   4.402   5.063  2.3064  0.7939 -1.1570
 5825SOL    MW423068   5.949   4.480   5.101  0.2379  0.2599 -0.1759
 5826SOL     OW23069   5.080   4.478   3.662 -0.3389 -0.2320  0.9869
 5826SOL    HW223070   4.992   4.478   3.701 -0.2251  0.8085  1.2682
 5826SOL    HW323071   5.119   4.560   3.691 -0.0946  0.3955 -1.0050
 5826SOL    MW423072   5.074   4.489   3.671 -0.2917 -0.0120  0.7612
 5827SOL     OW23073   0.879   3.915   1.068  0.3382  0.7110  0.5461
 5827SOL    HW223074   0.877   3.825   1.100 -1.0475  1.0532  1.5263
 5827SOL    HW323075   0.788   3.937   1.050  0.6542  1.9017  0.2479
 5827SOL    MW423076   0.867   3.906   1.070  0.1970  0.9132  0.6360
 5828SOL     OW23077   5.307   5.138   3.557 -0.2243 -0.0510  0.4772
 5828SOL    HW223078   5.373   5.082   3.598  0.5623  0.4680 -0.0639
 5828SOL    HW323079   5.324   5.225   3.593  0.1676  0.3156 -0.5792
 5828SOL    MW423080   5.318   5.142   3.568 -0.0688  0.0658  0.2664
 5829SOL     OW23081   1.857   6.240   1.266 -0.4149 -0.3214  0.0679
 5829SOL    HW223082   1.889   6.329   1.281 -0.6625  0.1389 -1.8781
 5829SOL    HW323083   1.918   6.204   1.202  0.1789 -1.8950  1.4317
 5829SOL    MW423084   1.869   6.247   1.260 -0.3692 -0.4683 -0.0089
 5830SOL     OW23085   3.463   1.204   5.431 -0.5048  0.3102  0.1210
 5830SOL    HW223086   3.370   1.228   5.429 -0.7310 -0.5648 -0.2140
 5830SOL    HW323087   3.488   1.195   5.339 -0.8769 -2.3332  0.2104
 5830SOL    MW423088   3.454   1.206   5.419 -0.5838 -0.1540  0.0886
 5831SOL     OW23089   5.588   6.319   1.263  0.0518 -0.2187 -0.6942
 5831SOL    HW223090   5.493   6.308   1.269 -0.2101  0.5122 -2.5682
 5831SOL    HW323091   5.607   6.397   1.315 -0.5427  0.2270 -1.1292
 5831SOL    MW423092   5.578   6.327   1.270 -0.0612 -0.0635 -0.9988
 5832SOL     OW23093   3.568   5.565   3.457 -0.3077 -0.0764 -0.2765
 5832SOL    HW223094   3.634   5.616   3.410 -0.3243 -0.2097 -0.4444
 5832SOL    HW323095   3.564   5.606   3.544 -1.1192  0.9261 -0.7575
 5832SOL    MW423096   3.576   5.577   3.462 -0.4169  0.0383 -0.3621
 5833SOL     OW23097   2.837   2.466   5.201 -0.3323  0.3280 -0.1828
 5833SOL    HW223098   2.835   2.389   5.259 -0.4690 -0.0851 -0.7255
 5833SOL    HW323099   2.789   2.438   5.123  0.5244  0.6171 -0.8207
 5833SOL    MW423100   2.830   2.452   5.198 -0.2373  0.3117 -0.3385
 5834SOL     OW23101   5.470   2.137   4.324  0.2539 -0.5853 -0.1203
 5834SOL    HW223102   5.529   2.177   4.388  0.2149 -0.6965 -0.0156
 5834SOL    HW323103   5.412   2.082   4.376  0.7666 -1.3467 -0.3376
 5834SOL    MW423104   5.470   2.135   4.339  0.3164 -0.7005 -0.1352
 5835SOL     OW23105   4.188   0.887   1.477 -0.5953 -0.1354  0.2526
 5835SOL    HW223106   4.223   0.799   1.490  0.1310  0.1550  0.3078
 5835SOL    HW323107   4.170   0.919   1.566  1.6192  0.7463  0.4445
 5835SOL    MW423108   4.190   0.880   1.491 -0.2073  0.0192  0.2852
 5836SOL     OW23109   4.300   2.984   5.009 -0.2372 -0.0061 -0.9715
 5836SOL    HW223110   4.351   2.977   5.089 -0.2532  0.8944 -0.8703
 5836SOL    HW323111   4.240   3.058   5.025 -0.2696  0.1563 -1.7864
 5836SOL    MW423112   4.299   2.993   5.021 -0.2436  0.1341 -1.0657
 5837SOL     OW23113   2.667   5.886   2.829 -0.0899  0.5251 -0.4303
 5837SOL    HW223114   2.642   5.969   2.869 -0.9265 -0.3020  0.8529
 5837SOL    HW323115   2.763   5.891   2.823 -0.1940  2.0715 -1.5921
 5837SOL    MW423116   2.676   5.898   2.834 -0.2140  0.6200 -0.4143
 5838SOL     OW23117   3.694   3.926   4.597  0.0086 -0.1405 -0.2914
 5838SOL    HW223118   3.710   3.947   4.689 -0.0223  0.4087 -0.4082
 5838SOL    HW323119   3.737   3.842   4.583  1.4447  0.5487 -0.1983
 5838SOL    MW423120   3.702   3.918   4.607  0.1940  0.0229 -0.2945
 5839SOL     OW23121   5.442   1.686   0.445  0.3127  0.5107 -0.1575
 5839SOL    HW223122   5.501   1.612   0.430 -0.8834 -0.5577  0.2411
 5839SOL    HW323123   5.393   1.696   0.364  0.1800  0.5920 -0.0692
 5839SOL    MW423124   5.443   1.678   0.432  0.1374  0.3804 -0.0933
 5840SOL     OW23125   4.900   2.109   3.042  0.2569  0.9936 -0.1185
 5840SOL    HW223126   4.807   2.116   3.022 -0.2753 -3.3662 -0.1526
 5840SOL    HW323127   4.905   2.112   3.138  0.1296  1.4739 -0.1259
 5840SOL    MW423128   4.888   2.110   3.052  0.1699  0.4817 -0.1240
 5841SOL     OW23129   2.068   5.361   5.096  0.2202 -0.3406  0.4763
 5841SOL    HW223130   2.112   5.429   5.045  0.5351 -0.8363  0.0712
 5841SOL    HW323131   2.121   5.352   5.175 -1.0367  1.4034  1.5901
 5841SOL    MW423132   2.081   5.369   5.100  0.0959 -0.1759  0.5698
 5842SOL     OW23133   4.055   3.606   5.108  0.1335 -0.0224 -0.2236
 5842SOL    HW223134   4.053   3.571   5.198  1.4285 -1.0302 -0.5564
 5842SOL    HW323135   3.972   3.576   5.070  0.8421 -2.1429 -0.2385
 5842SOL    MW423136   4.044   3.597   5.115  0.3979 -0.4351 -0.2694
 5843SOL     OW23137   2.350   1.293   4.740  0.2208 -0.4083 -0.0864
 5843SOL    HW223138   2.277   1.305   4.680 -1.4260 -1.0943  1.6864
 5843SOL    HW323139   2.321   1.224   4.799  1.8883  0.0342  1.3143
 5843SOL    MW423140   2.337   1.285   4.740  0.2235 -0.4404  0.3323
 5844SOL     OW23141   5.859   3.940   5.096 -0.2619 -0.1138 -0.1069
 5844SOL    HW223142   5.922   3.867   5.101 -0.6356 -0.6004 -1.8873
 5844SOL    HW323143   5.914   4.019   5.097  0.2015 -0.4269  0.9118
 5844SOL    MW423144   5.875   3.941   5.097 -0.2501 -0.2193 -0.2074
 5845SOL     OW23145   5.200   0.861   4.749 -0.5730  0.1248 -0.1141
 5845SOL    HW223146   5.238   0.784   4.707 -2.7888 -0.5327 -1.0481
 5845SOL    HW323147   5.200   0.840   4.842 -2.2195 -1.6134 -0.4337
 5845SOL    MW423148   5.205   0.848   4.756 -1.0826 -0.1913 -0.2795
 5846SOL     OW23149   2.597   3.370   3.842  0.0394  0.0235  0.2206
 5846SOL    HW223150   2.584   3.465   3.839 -0.6537 -0.0753 -0.3219
 5846SOL    HW323151   2.685   3.356   3.809  0.9311  0.6092  2.1959
 5846SOL    MW423152   2.607   3.381   3.837  0.0656  0.0877  0.4097
 5847SOL     OW23153   1.029   2.086   2.163 -0.2802 -0.3145  0.1446
 5847SOL    HW223154   0.949   2.046   2.131 -1.8505 -0.7976  4.1370
 5847SOL    HW323155   1.091   2.014   2.171 -0.5570 -0.5506  0.1608
 5847SOL    MW423156   1.027   2.071   2.160 -0.5239 -0.4094  0.6735
 5848SOL     OW23157   3.178   1.442   1.006  1.1004  0.0036  0.2742
 5848SOL    HW223158   3.210   1.473   0.921  1.1782 -1.4289 -0.2418
 5848SOL    HW323159   3.239   1.374   1.032 -0.8578 -2.1025 -0.2692
 5848SOL    MW423160   3.190   1.437   0.998  0.8523 -0.4633  0.1344
 5849SOL     OW23161   4.551   3.847   4.081  0.1654  0.1485 -0.0952
 5849SOL    HW223162   4.598   3.764   4.071 -1.8390 -1.0753  0.0372
 5849SOL    HW323163   4.595   3.892   4.153  1.6190 -0.5412 -0.5275
 5849SOL    MW423164   4.563   3.842   4.089  0.0927 -0.1040 -0.1348
 5850SOL     OW23165   2.204   0.097   4.352 -0.2365 -0.2322 -0.0644
 5850SOL    HW223166   2.217   0.037   4.279  1.9026 -2.8646  2.2589
 5850SOL    HW323167   2.157   0.045   4.418  0.3295  1.1096  1.4698
 5850SOL    MW423168   2.199   0.082   4.351  0.1204 -0.4024  0.4446
 5851SOL     OW23169   0.903   2.303   2.762 -0.0097 -0.3311  0.1372
 5851SOL    HW223170   0.850   2.223   2.754 -0.7918  0.2701 -1.0455
 5851SOL    HW323171   0.902   2.323   2.855  0.9701 -2.1868  0.6026
 5851SOL    MW423172   0.896   2.295   2.773  0.0164 -0.4966  0.0425
 5852SOL     OW23173   2.606   5.782   5.794 -0.5722  0.0027  0.1614
 5852SOL    HW223174   2.695   5.756   5.771 -0.4042  0.8716 -0.2290
 5852SOL    HW323175   2.593   5.749   5.883  0.2915  0.2320  0.3771
 5852SOL    MW423176   2.616   5.774   5.803 -0.4361  0.1476  0.1384
 5853SOL     OW23177   5.962   5.727   2.575 -0.1380 -0.0092  0.3253
 5853SOL    HW223178   6.011   5.645   2.575 -0.6805 -0.3406  0.4359
 5853SOL    HW323179   5.875   5.703   2.608 -0.3240  0.5958  0.2899
 5853SOL    MW423180   5.957   5.713   2.579 -0.2341  0.0269  0.3352
 5854SOL     OW23181   2.470   3.708   0.950  0.2440 -0.4619  0.2101
 5854SOL    HW223182   2.405   3.775   0.929  2.4190  1.2394 -1.5305
 5854SOL    HW323183   2.420   3.626   0.952 -2.2279  0.9517  0.7978
 5854SOL    MW423184   2.455   3.706   0.948  0.2048 -0.0509  0.0580
 5855SOL     OW23185   4.210   5.965   4.085 -0.2768  0.5826  0.4770
 5855SOL    HW223186   4.184   5.901   4.151 -1.4890  0.9141  0.3417
 5855SOL    HW323187   4.183   6.049   4.122  1.2176  1.0271  0.6112
 5855SOL    MW423188   4.203   5.968   4.099 -0.2396  0.6850  0.4769
 5856SOL     OW23189   3.192   2.982   2.164  0.2017 -0.2099 -0.2317
 5856SOL    HW223190   3.273   3.033   2.168 -0.7448  1.2968  2.2610
 5856SOL    HW323191   3.212   2.902   2.212  0.5615 -0.3744 -0.6555
 5856SOL    MW423192   3.205   2.978   2.171  0.1243 -0.0328  0.0413
 5857SOL     OW23193   3.509   2.659   1.188 -0.6380  0.4036 -0.3149
 5857SOL    HW223194   3.545   2.741   1.222 -1.0195  0.3752  0.1799
 5857SOL    HW323195   3.414   2.675   1.184 -0.7809 -0.2082  0.3529
 5857SOL    MW423196   3.501   2.672   1.192 -0.7072  0.3192 -0.1615
 5858SOL     OW23197   5.692   2.610   0.586  0.3992  0.2209  0.6151
 5858SOL    HW223198   5.741   2.642   0.661  0.1362  1.9863  0.0830
 5858SOL    HW323199   5.738   2.645   0.510  0.2727 -0.9670 -0.0363
 5858SOL    MW423200   5.704   2.619   0.586  0.3478  0.2971  0.4589
 5859SOL     OW23201   1.720   1.600   0.823 -0.1910  0.1147 -0.0519
 5859SOL    HW223202   1.639   1.592   0.874 -0.6416  0.0406 -0.7633
 5859SOL    HW323203   1.729   1.694   0.807 -0.0626  0.1355  0.1331
 5859SOL    MW423204   1.710   1.611   0.828 -0.2336  0.1077 -0.1213
 5860SOL     OW23205   1.200   5.081   4.030  0.3709  0.2515 -0.3286
 5860SOL    HW223206   1.132   5.020   4.002  1.6491 -1.4664  0.0845
 5860SOL    HW323207   1.166   5.121   4.109 -0.1346 -0.6564 -0.0716
 5860SOL    MW423208   1.187   5.078   4.036  0.4729 -0.0950 -0.2402
 5861SOL     OW23209   1.559   1.920   2.231  0.3315  0.5570  0.2512
 5861SOL    HW223210   1.629   1.972   2.268  2.6343 -1.0603 -1.5082
 5861SOL    HW323211   1.560   1.838   2.281  0.9061 -0.1258 -0.8142
 5861SOL    MW423212   1.568   1.916   2.242  0.7111  0.2535 -0.1215
 5862SOL     OW23213   0.065   0.230   4.867 -0.3098 -0.0299  0.4856
 5862SOL    HW223214   0.150   0.193   4.891  0.1498  0.4969 -0.2978
 5862SOL    HW323215   0.028   0.262   4.949 -0.0310 -0.8237  0.9287
 5862SOL    MW423216   0.071   0.229   4.881 -0.2124 -0.0651  0.4407
 5863SOL     OW23217   5.606   1.434   1.713  0.9341 -0.4194 -0.6919
 5863SOL    HW223218   5.557   1.477   1.783  3.6342  0.7560  0.6496
 5863SOL    HW323219   5.555   1.450   1.634 -0.7511  0.7756  0.5675
 5863SOL    MW423220   5.593   1.442   1.712  1.0680 -0.1066 -0.3488
 5864SOL     OW23221   6.331   5.129   3.804 -0.4665 -0.4098 -0.4871
 5864SOL    HW223222   6.416   5.130   3.760 -0.8367  0.0862 -1.2166
 5864SOL    HW323223   6.350   5.099   3.893  0.8013  1.6844  0.0212
 5864SOL    MW423224   6.345   5.125   3.810 -0.3481 -0.0681 -0.5163
 5865SOL     OW23225   4.598   5.095   0.032 -0.2959 -0.2556 -0.1983
 5865SOL    HW223226   4.615   5.182  -0.004  0.5576 -0.7086 -0.9394
 5865SOL    HW323227   4.503   5.091   0.040 -0.3063  0.9827  0.4705
 5865SOL    MW423228   4.588   5.106   0.028 -0.1847 -0.1520 -0.2079
 5866SOL     OW23229   0.814   3.227   5.368  0.4409 -0.8712 -0.1649
 5866SOL    HW223230   0.851   3.162   5.309  0.4710 -1.1441  0.1560
 5866SOL    HW323231   0.826   3.310   5.321  0.1970 -1.1149 -0.6732
 5866SOL    MW423232   0.820   3.230   5.354  0.4127 -0.9394 -0.1896
 5867SOL     OW23233   0.832   3.410   2.521  0.0360 -0.0263  0.4350
 5867SOL    HW223234   0.777   3.334   2.503 -0.0818 -0.4836  2.4889
 5867SOL    HW323235   0.776   3.485   2.504 -0.4613 -0.4340  0.2301
 5867SOL    MW423236   0.818   3.410   2.517 -0.0451 -0.1404  0.6790
 5868SOL     OW23237   6.214   3.587   6.002  0.0302  0.4918 -0.1655
 5868SOL    HW223238   6.279   3.566   6.069 -1.3624 -1.4629  0.6644
 5868SOL    HW323239   6.173   3.668   6.034 -1.1515 -0.8176  1.8313
 5868SOL    MW423240   6.217   3.595   6.015 -0.3095  0.0611  0.2075
 5869SOL     OW23241   3.653   2.310   6.171  0.5607 -0.2390 -0.4201
 5869SOL    HW223242   3.562   2.323   6.198  0.4615  0.2412 -0.9579
 5869SOL    HW323243   3.704   2.366   6.229  0.4392  0.0766 -0.6170
 5869SOL    MW423244   3.647   2.319   6.182  0.5315 -0.1340 -0.5170
 5870SOL     OW23245   4.286   4.105   5.297  0.2848  0.2928  0.3019
 5870SOL    HW223246   4.202   4.147   5.277  0.9497  1.5322 -0.0241
 5870SOL    HW323247   4.273   4.065   5.383  0.0121  2.4085  1.3239
 5870SOL    MW423248   4.273   4.105   5.306  0.3366  0.7355  0.3937
 5871SOL     OW23249   2.264   0.485   4.157  0.4862  0.3002  0.1904
 5871SOL    HW223250   2.300   0.563   4.114  1.2293  0.2745  0.7461
 5871SOL    HW323251   2.170   0.500   4.160  0.3591  0.1463 -1.7721
 5871SOL    MW423252   2.256   0.497   4.152  0.5674  0.2765  0.0048
 5872SOL     OW23253   1.309   4.086   1.526  0.5322 -0.3621 -0.3656
 5872SOL    HW223254   1.394   4.091   1.569  1.1026 -0.6666 -1.4182
 5872SOL    HW323255   1.247   4.117   1.592  1.3141 -1.1823  0.8019
 5872SOL    MW423256   1.312   4.090   1.540  0.7106 -0.5105 -0.3504
 5873SOL     OW23257   5.259   2.266   5.308  0.1896  0.1969 -0.1513
 5873SOL    HW223258   5.255   2.172   5.291 -0.6792 -0.0227  1.1312
 5873SOL    HW323259   5.176   2.287   5.351  0.9820  1.2537  0.9427
 5873SOL    MW423260   5.248   2.257   5.312  0.1795  0.3073  0.1623
 5874SOL     OW23261   5.210   4.912   2.954  0.3479 -0.1400  0.3194
 5874SOL    HW223262   5.144   4.891   3.020  0.1197  0.5313  0.3199
 5874SOL    HW323263   5.293   4.905   3.000  0.3021 -1.2368  0.2555
 5874SOL    MW423264   5.212   4.908   2.969  0.3117 -0.1962  0.3110
 5875SOL     OW23265   2.615   3.476   3.404  0.1966 -0.3634  0.3788
 5875SOL    HW223266   2.667   3.422   3.344  0.0510 -2.2821  1.8861
 5875SOL    HW323267   2.679   3.526   3.454  0.3007  2.0246 -1.9207
 5875SOL    MW423268   2.630   3.475   3.402  0.1911 -0.3015  0.2743
 5876SOL     OW23269   2.879   4.221   5.254 -0.3139  0.1040  0.2463
 5876SOL    HW223270   2.804   4.166   5.230 -1.4641  0.5957  2.4087
 5876SOL    HW323271   2.875   4.295   5.194 -1.7574  0.2479  0.4729
 5876SOL    MW423272   2.868   4.223   5.243 -0.6561  0.1879  0.5615
 5877SOL     OW23273   5.225   0.058   4.846  0.6460 -0.0311  0.1487
 5877SOL    HW223274   5.221  -0.003   4.772  0.9090  0.4563 -0.2711
 5877SOL    HW323275   5.137   0.096   4.850 -0.4553 -2.4828  2.1961
 5877SOL    MW423276   5.213   0.055   4.837  0.5354 -0.2902  0.3635
 5878SOL     OW23277   2.249   4.334   2.311  0.1287  0.4517  0.3982
 5878SOL    HW223278   2.184   4.354   2.244  0.1683 -0.3836  0.1012
 5878SOL    HW323279   2.218   4.254   2.352  1.8963 -1.0742 -1.0475
 5878SOL    MW423280   2.237   4.326   2.307  0.3671  0.1402  0.1682
 5879SOL     OW23281   3.860   5.317   4.430 -0.7306 -0.0028  0.1969
 5879SOL    HW223282   3.810   5.395   4.406  0.5295  1.3849  1.7978
 5879SOL    HW323283   3.794   5.249   4.441 -1.8806  0.8563 -1.1399
 5879SOL    MW423284   3.845   5.318   4.429 -0.7161  0.2936  0.2317
 5880SOL     OW23285   2.296   2.481   2.785 -0.4270 -0.3888  0.0524
 5880SOL    HW223286   2.305   2.576   2.791  1.2348 -0.3452 -2.0609
 5880SOL    HW323287   2.258   2.466   2.699 -3.0686 -1.6044  1.3265
 5880SOL    MW423288   2.292   2.492   2.774 -0.5563 -0.5435 -0.0583
 5881SOL     OW23289   2.831   3.947   5.444 -0.1300 -0.9070  0.5268
 5881SOL    HW223290   2.780   4.027   5.460  0.4908 -0.1826 -1.0033
 5881SOL    HW323291   2.922   3.975   5.450  0.1852 -2.1756  3.1579
 5881SOL    MW423292   2.836   3.961   5.447 -0.0065 -0.9788  0.6720
 5882SOL     OW23293   6.337   5.182   4.867 -0.2634 -0.2053  0.0120
 5882SOL    HW223294   6.331   5.277   4.880  0.1580 -0.1251 -0.3328
 5882SOL    HW323295   6.385   5.150   4.943 -0.6367 -0.1758  0.2592
 5882SOL    MW423296   6.343   5.190   4.879 -0.2571 -0.1908 -0.0009
 5883SOL     OW23297   1.149   5.473   4.960  0.6154 -0.0818  0.5554
 5883SOL    HW223298   1.139   5.568   4.954  0.6506 -0.1075  0.0201
 5883SOL    HW323299   1.066   5.442   4.995  0.6420  0.1561  0.8357
 5883SOL    MW423300   1.137   5.482   4.964  0.6236 -0.0538  0.5218
 5884SOL     OW23301   3.030   5.038   3.047  0.0685  0.1407  0.1458
 5884SOL    HW223302   2.980   5.063   3.125 -0.4840  1.1205 -0.4940
 5884SOL    HW323303   3.087   4.967   3.076  0.9030  1.4128  1.8011
 5884SOL    MW423304   3.031   5.032   3.061  0.1057  0.4379  0.2798
 5885SOL     OW23305   1.028   2.020   1.192 -0.4672  0.0624 -0.2974
 5885SOL    HW223306   1.083   2.092   1.223 -2.0225  1.2133 -0.0632
 5885SOL    HW323307   1.047   2.014   1.099  2.0057 -1.3934  0.2165
 5885SOL    MW423308   1.038   2.029   1.184 -0.3462  0.0221 -0.1987
 5886SOL     OW23309   6.252   4.875   5.287  0.2097  0.8172 -0.3558
 5886SOL    HW223310   6.285   4.943   5.229 -0.1592  0.1640 -1.3647
 5886SOL    HW323311   6.320   4.808   5.286  0.8012  1.3564  1.0298
 5886SOL    MW423312   6.265   4.875   5.279  0.2391  0.8022 -0.3061
 5887SOL     OW23313   2.354   5.978   4.154 -0.1677 -0.0045 -0.3197
 5887SOL    HW223314   2.352   5.989   4.059  0.7320  0.4423 -0.2984
 5887SOL    HW323315   2.399   6.056   4.187  2.3317 -1.5530  0.2194
 5887SOL    MW423316   2.360   5.990   4.146  0.2808 -0.1499 -0.2458
 5888SOL     OW23317   3.611   5.540   1.575 -0.3780  0.7185 -0.2374
 5888SOL    HW223318   3.701   5.571   1.579  0.4421 -1.2218 -1.7889
 5888SOL    HW323319   3.604   5.475   1.645 -1.3263  2.4436  1.3622
 5888SOL    MW423320   3.622   5.535   1.585 -0.3949  0.6901 -0.2311
 5889SOL     OW23321   4.138   5.163   3.424  0.2455 -0.3228  0.2890
 5889SOL    HW223322   4.095   5.104   3.486 -1.2299  1.0208  0.6032
 5889SOL    HW323323   4.178   5.230   3.480  0.6131 -0.1908 -0.1289
 5889SOL    MW423324   4.138   5.164   3.440  0.0994 -0.1281  0.2753
 5890SOL     OW23325   5.483   2.279   2.961  0.3101  0.0810  0.0298
 5890SOL    HW223326   5.570   2.320   2.952  0.5414 -0.3446  0.3112
 5890SOL    HW323327   5.428   2.326   2.898  1.1586 -0.7949 -1.4172
 5890SOL    MW423328   5.487   2.291   2.951  0.4525 -0.0907 -0.1240
 5891SOL     OW23329   1.271   4.537   4.711 -0.0869 -0.0568  0.2869
 5891SOL    HW223330   1.250   4.569   4.624 -1.6375 -0.5339  0.4537
 5891SOL    HW323331   1.297   4.446   4.698 -1.5572 -0.5271  0.4142
 5891SOL    MW423332   1.272   4.529   4.698 -0.4855 -0.1818  0.3257
 5892SOL     OW23333   1.742   5.422   3.416  0.4018  0.6957 -0.5200
 5892SOL    HW223334   1.720   5.487   3.483 -0.7312  0.6884 -0.8558
 5892SOL    HW323335   1.822   5.455   3.376 -0.0718  1.8212 -0.5843
 5892SOL    MW423336   1.750   5.435   3.420  0.1898  0.8432 -0.5728
 5893SOL     OW23337   4.515   4.832   6.092 -0.2488 -0.2229 -0.0490
 5893SOL    HW223338   4.495   4.752   6.043 -0.2665 -1.0377  1.2329
 5893SOL    HW323339   4.580   4.804   6.156 -0.2495  0.8050  0.4132
 5893SOL    MW423340   4.521   4.818   6.094 -0.2512 -0.1948  0.1811
 5894SOL     OW23341   1.117   4.166   5.316 -0.3661 -0.0368 -0.5582
 5894SOL    HW223342   1.102   4.120   5.233 -1.9495  2.6564 -1.9237
 5894SOL    HW323343   1.035   4.154   5.365 -0.6309  0.9120 -0.7514
 5894SOL    MW423344   1.104   4.158   5.311 -0.6099  0.4437 -0.7639
 5895SOL     OW23345   0.231   2.819   4.098  0.3282  0.6408  0.1210
 5895SOL    HW223346   0.147   2.821   4.054  0.3969 -0.5521 -0.0938
 5895SOL    HW323347   0.291   2.862   4.038 -0.4537  3.2880  1.0950
 5895SOL    MW423348   0.228   2.825   4.085  0.2341  0.8327  0.2212
 5896SOL     OW23349   2.992   1.153   4.889 -0.1420  0.4997  0.1520
 5896SOL    HW223350   2.900   1.136   4.870  0.2221 -0.6237 -0.7899
 5896SOL    HW323351   3.009   1.105   4.970 -0.4440  0.9172  0.4631
 5896SOL    MW423352   2.982   1.144   4.897 -0.1338  0.4066  0.0688
 5897SOL     OW23353   4.804   0.779   4.158  0.1323 -0.5492  0.3560
 5897SOL    HW223354   4.832   0.688   4.168 -0.2764 -0.7559 -0.3035
 5897SOL    HW323355   4.883   0.830   4.171  1.2075 -1.1679 -2.7564
 5897SOL    MW423356   4.818   0.774   4.161  0.2202 -0.6581 -0.1417
 5898SOL     OW23357   1.651   4.268   0.447 -0.0604 -0.4353  0.4996
 5898SOL    HW223358   1.615   4.348   0.486  0.2213 -1.3864  2.8895
 5898SOL    HW323359   1.710   4.299   0.378 -0.0221  1.4050  1.2976
 5898SOL    MW423360   1.654   4.283   0.443 -0.0182 -0.3180  0.9202
 5899SOL     OW23361   4.563   1.507   2.372  0.4470 -0.4725 -0.0454
 5899SOL    HW223362   4.520   1.552   2.444  0.3214  0.4358 -0.6772
 5899SOL    HW323363   4.652   1.542   2.372 -0.3923  1.9596 -2.2751
 5899SOL    MW423364   4.569   1.518   2.381  0.3197 -0.0318 -0.4229
 5900SOL     OW23365   5.562   1.085   2.315 -0.0142 -0.3466  0.2656
 5900SOL    HW223366   5.490   1.140   2.282  0.4968 -0.1321 -0.5126
 5900SOL    HW323367   5.615   1.145   2.369 -1.6670 -1.0219  2.8627
 5900SOL    MW423368   5.559   1.100   2.318 -0.1648 -0.4074  0.5056
 5901SOL     OW23369   5.600   5.167   1.541  0.0134 -0.1020 -0.0537
 5901SOL    HW223370   5.584   5.255   1.573  0.5333 -0.2279  0.5704
 5901SOL    HW323371   5.525   5.147   1.485  0.7955  1.4744 -1.7712
 5901SOL    MW423372   5.588   5.176   1.537  0.1852  0.0894 -0.1980
 5902SOL     OW23373   2.912   6.066   4.908 -0.1210  0.0819  0.4104
 5902SOL    HW223374   2.994   6.115   4.903 -0.7759  1.1399 -0.0453
 5902SOL    HW323375   2.859   6.113   4.972 -1.1608  0.5918 -0.7984
 5902SOL    MW423376   2.916   6.079   4.916 -0.3446  0.2888  0.1908
 5903SOL     OW23377   2.769   0.677   5.620 -0.4768  0.0859  0.8358
 5903SOL    HW223378   2.704   0.741   5.590 -0.4506  0.2150  1.0483
 5903SOL    HW323379   2.717   0.599   5.643 -0.2789 -1.0758 -2.1731
 5903SOL    MW423380   2.753   0.675   5.619 -0.4473 -0.0503  0.4669
 5904SOL     OW23381   3.119   5.121   4.518 -0.1891 -0.6746  0.7599
 5904SOL    HW223382   3.085   5.093   4.602 -2.3026 -2.3400 -0.5399
 5904SOL    HW323383   3.051   5.178   4.481  0.9980  0.5852  0.4194
 5904SOL    MW423384   3.106   5.125   4.524 -0.3113 -0.7281  0.5435
 5905SOL     OW23385   1.957   2.869   0.691 -0.2023 -0.2980  0.5051
 5905SOL    HW223386   1.892   2.845   0.625 -0.3539 -1.0212  0.9103
 5905SOL    HW323387   2.027   2.911   0.641  0.0387 -1.5206 -0.2305
 5905SOL    MW423388   1.957   2.871   0.675 -0.1905 -0.5547  0.4615
 5906SOL     OW23389   5.671   2.959   5.502 -0.0859  0.2011 -0.1992
 5906SOL    HW223390   5.671   2.884   5.443 -0.6021  0.2498 -0.2673
 5906SOL    HW323391   5.594   2.946   5.557  0.0283  0.4920  0.0324
 5906SOL    MW423392   5.661   2.947   5.502 -0.1389  0.2459 -0.1776
 5907SOL     OW23393   5.780   4.018   2.033 -0.1475  0.1933  0.2012
 5907SOL    HW223394   5.829   4.100   2.038  0.0212  0.0522  1.0884
 5907SOL    HW323395   5.759   3.997   2.124 -1.9582  0.3109 -0.1552
 5907SOL    MW423396   5.784   4.026   2.046 -0.3642  0.1902  0.2713
 5908SOL     OW23397   0.371   1.163   6.100  0.4228  0.8451  0.3285
 5908SOL    HW223398   0.426   1.139   6.025 -0.4690  0.8651 -0.3465
 5908SOL    HW323399   0.317   1.235   6.068 -1.7501 -0.7558  0.1459
 5908SOL    MW423400   0.372   1.169   6.086  0.0184  0.6365  0.2154
 5909SOL     OW23401   3.994   3.329   3.275 -0.8257  0.4329 -0.1111
 5909SOL    HW223402   3.957   3.240   3.277  0.1034 -0.0978 -2.6719
 5909SOL    HW323403   4.076   3.319   3.228 -0.5651  2.6503 -0.1992
 5909SOL    MW423404   4.000   3.316   3.269 -0.6687  0.6554 -0.4606
 5910SOL     OW23405   3.430   4.479   0.335 -0.7532 -0.0231 -0.3522
 5910SOL    HW223406   3.364   4.415   0.360  1.2684 -1.5434  1.5009
 5910SOL    HW323407   3.491   4.431   0.279  0.8472  0.1772  1.1318
 5910SOL    MW423408   3.430   4.464   0.331 -0.2753 -0.1973  0.0881
 5911SOL     OW23409   2.200   2.001   3.311  0.1813  0.0877  0.4037
 5911SOL    HW223410   2.105   2.013   3.316  0.3277  2.4983 -0.9794
 5911SOL    HW323411   2.218   1.996   3.217  1.4812  0.4540  0.6152
 5911SOL    MW423412   2.190   2.002   3.299  0.3721  0.4540  0.2491
 5912SOL     OW23413   2.626   4.138   5.485  0.4004  0.1470 -0.0275
 5912SOL    HW223414   2.685   4.193   5.536 -0.1131  0.8252 -0.1504
 5912SOL    HW323415   2.592   4.196   5.417  1.1672 -0.7688 -1.2425
 5912SOL    MW423416   2.629   4.153   5.483  0.4338  0.1157 -0.2040
 5913SOL     OW23417   2.020   4.562   0.128 -0.2457 -0.2206  0.1755
 5913SOL    HW223418   1.989   4.585   0.216 -0.7153 -0.3098  0.0373
 5913SOL    HW323419   2.038   4.646   0.086 -0.9690 -0.1347  0.0233
 5913SOL    MW423420   2.018   4.576   0.134 -0.4031 -0.2210  0.1372
 5914SOL     OW23421   1.633   3.761   3.302 -0.0027 -0.2325 -0.6770
 5914SOL    HW223422   1.631   3.702   3.227 -2.0214  0.5839 -1.3308
 5914SOL    HW323423   1.543   3.763   3.334  0.1780  1.8142 -0.1432
 5914SOL    MW423424   1.621   3.753   3.296 -0.2452  0.1452 -0.6928
 5915SOL     OW23425   1.552   3.908   2.501  0.3229  0.6017 -0.0719
 5915SOL    HW223426   1.595   3.976   2.553  0.9419 -0.4094  0.8064
 5915SOL    HW323427   1.495   3.955   2.441  0.3894  1.8694  0.8165
 5915SOL    MW423428   1.550   3.923   2.500  0.4133  0.6355  0.1612
 5916SOL     OW23429   1.913   2.845   2.315 -0.2874 -0.2924  0.0172
 5916SOL    HW223430   1.874   2.891   2.241  0.7351  0.6022  0.0254
 5916SOL    HW323431   1.989   2.897   2.340 -0.9407 -0.2269  2.1004
 5916SOL    MW423432   1.918   2.858   2.309 -0.2387 -0.1657  0.2931
 5917SOL     OW23433   2.962   0.271   2.634 -0.2345  0.4089  0.1971
 5917SOL    HW223434   3.014   0.320   2.698 -1.2514  1.6078  0.1262
 5917SOL    HW323435   2.949   0.331   2.562 -1.7397  0.1491  0.2177
 5917SOL    MW423436   2.967   0.285   2.633 -0.5672  0.5328  0.1905
 5918SOL     OW23437   2.896   2.636   0.804 -0.1634  0.1764 -0.0580
 5918SOL    HW223438   2.940   2.575   0.745  1.5626  0.6099  0.7116
 5918SOL    HW323439   2.966   2.671   0.858 -1.2433  2.1230  0.1706
 5918SOL    MW423440   2.911   2.633   0.803 -0.0782  0.4904  0.0737
 5919SOL     OW23441   6.001   3.205   5.472  0.0474 -0.6904 -0.2892
 5919SOL    HW223442   6.024   3.279   5.528  0.5953  0.3443 -1.8223
 5919SOL    HW323443   6.047   3.131   5.511 -1.4638 -0.5558  1.9925
 5919SOL    MW423444   6.010   3.205   5.485 -0.0797 -0.5361 -0.1904
 5920SOL     OW23445   1.141   6.105   2.906  0.1705  0.4131 -0.3957
 5920SOL    HW223446   1.233   6.083   2.921  0.4083  0.1586 -2.0160
 5920SOL    HW323447   1.123   6.073   2.818 -1.5305  0.3057 -0.0479
 5920SOL    MW423448   1.150   6.098   2.896 -0.0226  0.3653 -0.5636
 5921SOL     OW23449   4.655   3.364   6.412  0.4036 -0.0188 -0.4400
 5921SOL    HW223450   4.574   3.397   6.373  1.6232  1.4538 -1.8566
 5921SOL    HW323451   4.663   3.275   6.377 -1.6254 -0.9982  1.3957
 5921SOL    MW423452   4.646   3.356   6.402  0.2968  0.0463 -0.3847
 5922SOL     OW23453   1.761   0.215   2.579  0.0910 -0.0419  0.6016
 5922SOL    HW223454   1.719   0.283   2.632 -0.8957 -1.0965  1.2132
 5922SOL    HW323455   1.752   0.246   2.489 -0.1100  0.7556  0.8840
 5922SOL    MW423456   1.754   0.228   2.574 -0.0657 -0.0758  0.7196
 5923SOL     OW23457   6.186   3.987   1.678  0.2119 -0.0556  0.3129
 5923SOL    HW223458   6.165   3.903   1.637 -1.0506  0.7676 -0.8003
 5923SOL    HW323459   6.158   4.053   1.614  1.3740  1.2302  1.0617
 5923SOL    MW423460   6.180   3.985   1.664  0.1986  0.2226  0.2648
 5924SOL     OW23461   0.177   5.635   4.212 -0.4072  0.0962  0.0734
 5924SOL    HW223462   0.199   5.548   4.247 -0.7106 -0.2366 -0.5507
 5924SOL    HW323463   0.120   5.617   4.137 -1.1083  0.8711  0.4117
 5924SOL    MW423464   0.173   5.621   4.207 -0.5398  0.1545  0.0357
 5925SOL     OW23465   2.994   2.877   5.090 -0.0077  0.4273  0.1487
 5925SOL    HW223466   2.986   2.948   5.026 -0.2290 -1.3001 -1.8526
 5925SOL    HW323467   2.928   2.897   5.156 -0.0171  2.1110 -0.3384
 5925SOL    MW423468   2.984   2.889   5.090 -0.0382  0.4215 -0.1796
 5926SOL     OW23469   0.776   2.469   3.284 -0.3734 -0.1510 -0.2874
 5926SOL    HW223470   0.700   2.484   3.228  1.3513  0.4898 -2.5901
 5926SOL    HW323471   0.808   2.557   3.304 -0.5013 -0.4013  1.1292
 5926SOL    MW423472   0.770   2.482   3.280 -0.1628 -0.0995 -0.4043
 5927SOL     OW23473   1.366   3.470   0.016  0.0959  0.1074 -0.3726
 5927SOL    HW223474   1.355   3.375   0.009  0.0859  0.1978 -2.0709
 5927SOL    HW323475   1.417   3.483   0.096  1.3040 -1.4399 -0.8434
 5927SOL    MW423476   1.371   3.459   0.026  0.2540 -0.0848 -0.6588
 5928SOL     OW23477   1.281   5.973   2.417  0.3508 -0.1042 -0.5970
 5928SOL    HW223478   1.213   5.945   2.356 -0.7181  0.3332  0.3656
 5928SOL    HW323479   1.331   6.039   2.369  1.0545 -1.4863 -1.8380
 5928SOL    MW423480   1.279   5.978   2.403  0.3026 -0.2289 -0.6337
 5929SOL     OW23481   5.221   3.910   1.108  0.5747  0.0008 -0.1535
 5929SOL    HW223482   5.140   3.891   1.154  0.4173 -1.6111 -1.0045
 5929SOL    HW323483   5.282   3.843   1.138  1.1228  0.2574 -0.6663
 5929SOL    MW423484   5.218   3.899   1.118  0.6263 -0.1780 -0.3334
 5930SOL     OW23485   3.905   1.135   4.779  0.2140  0.5174 -0.2761
 5930SOL    HW223486   3.846   1.083   4.833  0.3753  0.1676 -0.4344
 5930SOL    HW323487   3.980   1.152   4.836 -0.6943  2.3134  0.4811
 5930SOL    MW423488   3.907   1.131   4.794  0.1155  0.7082 -0.1971
 5931SOL     OW23489   3.595   1.823   1.191 -0.2169 -0.4066 -0.1714
 5931SOL    HW223490   3.525   1.788   1.246 -0.2395 -0.1605 -0.0410
 5931SOL    HW323491   3.589   1.918   1.203  1.5606 -0.4419  1.6303
 5931SOL    MW423492   3.585   1.831   1.200  0.0147 -0.3788  0.0835
 5932SOL     OW23493   3.429   0.786   6.081 -0.3620 -0.0175  0.1634
 5932SOL    HW223494   3.461   0.697   6.094  0.4496  0.3675  0.8950
 5932SOL    HW323495   3.336   0.781   6.101 -0.2365 -0.6158  0.6220
 5932SOL    MW423496   3.421   0.773   6.085 -0.2384 -0.0456  0.3204
 5933SOL     OW23497   2.629   5.624   2.030  0.6637  0.1847 -0.0260
 5933SOL    HW223498   2.613   5.598   2.121  2.9276  1.0458  0.6880
 5933SOL    HW323499   2.564   5.692   2.013 -0.4381 -0.6855  0.5996
 5933SOL    MW423500   2.618   5.630   2.040  0.8170  0.1835  0.1507
 5934SOL     OW23501   4.099   5.860   1.835  0.5151 -0.0595 -0.0980
 5934SOL    HW223502   4.080   5.825   1.748  1.1944  1.8832 -1.0821
 5934SOL    HW323503   4.033   5.927   1.849  1.8247  1.2950 -0.1761
 5934SOL    MW423504   4.088   5.864   1.825  0.7775  0.3755 -0.2381
 5935SOL     OW23505   1.233   1.976   4.825  0.1010 -0.4110  0.1837
 5935SOL    HW223506   1.232   2.029   4.745  0.1504 -0.7368 -0.0320
 5935SOL    HW323507   1.247   2.040   4.895 -0.8933 -0.0045  0.0269
 5935SOL    MW423508   1.235   1.992   4.824 -0.0236 -0.4003  0.1346
 5936SOL     OW23509   2.678   6.333   1.512  0.1826 -0.0793  0.7814
 5936SOL    HW223510   2.586   6.346   1.489 -0.2730 -1.3895  1.7121
 5936SOL    HW323511   2.686   6.239   1.528  1.8599 -0.1039  0.0435
 5936SOL    MW423512   2.667   6.322   1.511  0.3438 -0.2554  0.8068
 5937SOL     OW23513   5.898   4.269   1.971  0.1605  1.0942  0.3212
 5937SOL    HW223514   5.990   4.292   1.985  1.0390 -0.9048 -1.4548
 5937SOL    HW323515   5.889   4.263   1.876 -0.9458 -1.6925  0.4969
 5937SOL    MW423516   5.909   4.271   1.960  0.1305  0.4628  0.1101
 5938SOL     OW23517   2.050   2.529   5.252  0.2274  0.1413  0.2632
 5938SOL    HW223518   1.967   2.487   5.227  0.0062  1.9822 -2.6488
 5938SOL    HW323519   2.116   2.461   5.242 -0.6288 -0.6946  0.1652
 5938SOL    MW423520   2.047   2.514   5.247  0.0852  0.2739 -0.1339
 5939SOL     OW23521   3.721   5.752   5.832  0.2647  0.4184  0.1821
 5939SOL    HW223522   3.707   5.820   5.898  1.1672  0.5150  0.2812
 5939SOL    HW323523   3.635   5.711   5.822 -0.1680  1.2282  0.5012
 5939SOL    MW423524   3.708   5.756   5.840  0.3267  0.5380  0.2373
 5940SOL     OW23525   3.461   1.932   4.811  0.5263 -0.7735  0.4640
 5940SOL    HW223526   3.465   1.882   4.893  0.7862 -1.3746  0.0934
 5940SOL    HW323527   3.368   1.931   4.788  0.2923  0.2793  1.2706
 5940SOL    MW423528   3.449   1.925   4.819  0.5297 -0.7139  0.5216
 5941SOL     OW23529   0.963   3.037   3.669  0.1957 -0.0219  0.0497
 5941SOL    HW223530   1.056   3.054   3.651 -0.1368  2.0963  0.1412
 5941SOL    HW323531   0.964   2.982   3.747  1.3678  0.3641  0.3257
 5941SOL    MW423532   0.975   3.032   3.677  0.3065  0.3085  0.0982
 5942SOL     OW23533   0.389   6.417   5.878  0.1822 -0.0790  0.5642
 5942SOL    HW223534   0.348   6.332   5.867 -1.5408  0.8076 -0.1683
 5942SOL    HW323535   0.383   6.435   5.972 -2.6449  0.7155  0.3037
 5942SOL    MW423536   0.383   6.409   5.889 -0.4181  0.1428  0.4332
 5943SOL     OW23537   1.084   0.197   2.096 -0.4749  0.5721  0.1215
 5943SOL    HW223538   1.104   0.122   2.040  0.4078  0.6429  0.3297
 5943SOL    HW323539   1.138   0.185   2.173 -0.6748  1.1867  0.3648
 5943SOL    MW423540   1.093   0.186   2.099 -0.3848  0.6625  0.1810
 5944SOL     OW23541   2.546   4.097   4.555 -0.0166 -0.3019  0.0318
 5944SOL    HW223542   2.499   4.179   4.571  0.7949 -0.0124  1.0137
 5944SOL    HW323543   2.592   4.112   4.473 -1.9014 -0.7316 -1.1789
 5944SOL    MW423544   2.546   4.110   4.546 -0.1582 -0.3204  0.0016
 5945SOL     OW23545   5.868   2.368   1.634  0.3676  0.3836 -0.0441
 5945SOL    HW223546   5.896   2.374   1.542 -0.6010  0.9403 -0.3118
 5945SOL    HW323547   5.788   2.317   1.631 -0.1121  1.1023  0.3937
 5945SOL    MW423548   5.861   2.362   1.621  0.1766  0.5519 -0.0217
 5946SOL     OW23549   3.380   5.446   2.479 -0.0083 -0.1493 -0.2334
 5946SOL    HW223550   3.450   5.434   2.416  0.3680  1.1398 -0.0924
 5946SOL    HW323551   3.373   5.361   2.524  0.3214 -0.7984 -1.3644
 5946SOL    MW423552   3.388   5.433   2.477  0.0848 -0.0649 -0.3640
 5947SOL     OW23553   2.897   1.317   0.725 -0.1943  0.0098 -0.1043
 5947SOL    HW223554   2.955   1.274   0.663  0.2304  0.8945 -0.3494
 5947SOL    HW323555   2.944   1.397   0.750 -0.7866  0.1486  0.6072
 5947SOL    MW423556   2.911   1.322   0.720 -0.2164  0.1448 -0.0428
 5948SOL     OW23557   3.084   4.297   5.689  0.5598 -0.0181  0.0029
 5948SOL    HW223558   3.097   4.203   5.704  1.1324 -0.0373 -0.5866
 5948SOL    HW323559   2.995   4.304   5.656  0.4182 -0.3192  0.3079
 5948SOL    MW423560   3.074   4.286   5.687  0.6167 -0.0604 -0.0347
 5949SOL     OW23561   1.547   5.986   0.984 -0.1181  0.7432  0.4792
 5949SOL    HW223562   1.481   5.952   0.924  0.4885  2.0000 -0.9656
 5949SOL    HW323563   1.505   6.062   1.025  0.7621  2.3484 -1.4038
 5949SOL    MW423564   1.532   5.992   0.982  0.0781  1.1208  0.0401
 5950SOL     OW23565   2.850   4.898   4.220 -0.3940  0.0686  0.1663
 5950SOL    HW223566   2.802   4.840   4.280  0.1370  0.8487  1.3824
 5950SOL    HW323567   2.939   4.898   4.254  0.0175  0.2241 -0.8805
 5950SOL    MW423568   2.855   4.890   4.233 -0.2696  0.1920  0.1887
 5951SOL     OW23569   2.653   0.575   4.165 -0.7620 -0.0929 -0.2252
 5951SOL    HW223570   2.676   0.658   4.122 -1.0937  0.8462  1.3188
 5951SOL    HW323571   2.734   0.525   4.166 -0.9428 -0.5286 -2.6724
 5951SOL    MW423572   2.667   0.579   4.160 -0.8296 -0.0265 -0.3444
 5952SOL     OW23573   1.016   3.396   3.151 -0.3103 -0.0825  0.0665
 5952SOL    HW223574   0.962   3.332   3.104 -0.1145 -0.0623 -0.1907
 5952SOL    HW323575   0.995   3.479   3.109 -0.1176 -0.0678 -0.0021
 5952SOL    MW423576   1.006   3.398   3.139 -0.2590 -0.0779  0.0235
 5953SOL     OW23577   5.287   1.999   2.022 -0.1230 -0.0386  0.1135
 5953SOL    HW223578   5.236   1.926   2.058 -0.6502 -0.6283 -1.7475
 5953SOL    HW323579   5.236   2.030   1.948  1.0522  0.9777 -0.3044
 5953SOL    MW423580   5.274   1.993   2.017 -0.0375  0.0177 -0.1871
 5954SOL     OW23581   0.834   3.058   4.664  0.0714 -0.0387 -0.2702
 5954SOL    HW223582   0.899   2.996   4.631 -0.6265 -0.6241 -0.5488
 5954SOL    HW323583   0.764   3.004   4.698  0.0382  0.5847  0.6867
 5954SOL    MW423584   0.834   3.043   4.664 -0.0251 -0.0337 -0.1807
 5955SOL     OW23585   5.438   2.372   5.978 -0.2791  0.0131 -0.0162
 5955SOL    HW223586   5.411   2.348   5.890  1.2725  0.8089 -0.7467
 5955SOL    HW323587   5.528   2.403   5.968  0.3167 -0.8962  2.0186
 5955SOL    MW423588   5.446   2.373   5.965  0.0043 -0.0019  0.1559
 5956SOL     OW23589   2.394   5.780   0.352 -0.3155  0.0246 -0.3689
 5956SOL    HW223590   2.349   5.696   0.341 -1.2211  0.2345  1.3045
 5956SOL    HW323591   2.364   5.833   0.279 -1.4857 -0.4049 -0.2246
 5956SOL    MW423592   2.384   5.776   0.341 -0.5894 -0.0044 -0.1291
 5957SOL     OW23593   5.833   2.823   2.795  0.0723  0.2746 -0.5022
 5957SOL    HW223594   5.757   2.764   2.788  0.2345 -0.2537  1.5737
 5957SOL    HW323595   5.907   2.764   2.811  0.6252  0.9135 -0.6839
 5957SOL    MW423596   5.832   2.807   2.796  0.1666  0.2892 -0.2523
 5958SOL     OW23597   1.805   0.138   2.969 -0.0547 -0.1304 -0.0783
 5958SOL    HW223598   1.849   0.053   2.970 -1.7145 -1.0490 -0.4838
 5958SOL    HW323599   1.846   0.187   3.040  1.3394 -1.0387 -0.2075
 5958SOL    MW423600   1.816   0.134   2.978 -0.0897 -0.3715 -0.1489
 5959SOL     OW23601   1.502   2.956   0.277  0.0887 -0.9458 -0.3693
 5959SOL    HW223602   1.438   2.969   0.347  1.5297  3.2579  0.4861
 5959SOL    HW323603   1.458   2.987   0.198  0.6959  1.3539  0.1119
 5959SOL    MW423604   1.488   2.962   0.276  0.3589 -0.0878 -0.1930
 5960SOL     OW23605   6.241   4.632   1.017 -0.2385 -0.0294 -0.2301
 5960SOL    HW223606   6.276   4.586   1.093 -0.2172 -4.2480 -2.5325
 5960SOL    HW323607   6.274   4.722   1.027  2.7766 -1.2546  2.8556
 5960SOL    MW423608   6.250   4.638   1.028  0.1621 -0.7477 -0.1268
 5961SOL     OW23609   5.744   5.045   6.060 -0.1783 -0.0001  0.1073
 5961SOL    HW223610   5.678   5.040   5.990  1.0156  0.3641 -1.1021
 5961SOL    HW323611   5.700   5.093   6.131 -1.1656  0.3653 -0.7174
 5961SOL    MW423612   5.729   5.051   6.060 -0.1510  0.0961 -0.1611
 5962SOL     OW23613   0.332   4.991   0.789  0.1342  0.3562  0.5275
 5962SOL    HW223614   0.388   5.061   0.755 -1.3713  1.0277 -0.6798
 5962SOL    HW323615   0.292   5.029   0.868 -1.8168  1.5013 -0.9179
 5962SOL    MW423616   0.334   5.005   0.795 -0.3219  0.5959  0.1775
 5963SOL     OW23617   5.996   2.252   0.054 -0.0566  0.2453 -0.7540
 5963SOL    HW223618   6.085   2.285   0.039  0.2790 -0.7585 -1.0713
 5963SOL    HW323619   5.994   2.229   0.147  0.5353 -1.1802 -1.0741
 5963SOL    MW423620   6.008   2.253   0.064  0.0658 -0.0752 -0.8381
 5964SOL     OW23621   4.908   1.565   3.652 -0.1143  0.0495  0.3297
 5964SOL    HW223622   4.910   1.657   3.677 -1.5938  0.1093  0.2967
 5964SOL    HW323623   4.961   1.521   3.718 -0.1662  0.8052  0.8899
 5964SOL    MW423624   4.915   1.571   3.664 -0.3164  0.1571  0.3992
 5965SOL     OW23625   4.905   0.699   2.967 -0.0140 -0.1908  0.5285
 5965SOL    HW223626   4.881   0.757   3.040 -1.1993  0.0183 -0.0041
 5965SOL    HW323627   4.874   0.744   2.889  0.7929 -0.6519 -0.0760
 5965SOL    MW423628   4.898   0.712   2.967 -0.0640 -0.2241  0.3785
 5966SOL     OW23629   0.523   3.709   3.070  0.6647  0.8745  0.1981
 5966SOL    HW223630   0.492   3.650   3.002  0.8597  0.6844  0.2722
 5966SOL    HW323631   0.569   3.652   3.132  0.6725  1.0746  0.3782
 5966SOL    MW423632   0.525   3.694   3.069  0.6915  0.8759  0.2317
 5967SOL     OW23633   0.272   1.946   1.176 -0.0413 -0.4830 -0.1387
 5967SOL    HW223634   0.358   1.904   1.168  0.9602  1.4300 -0.0866
 5967SOL    HW323635   0.244   1.962   1.085 -0.5936 -1.5201 -0.1688
 5967SOL    MW423636   0.280   1.942   1.163  0.0179 -0.3675 -0.1358
 5968SOL     OW23637   3.011   3.520   3.538  0.5953  0.4250 -0.5926
 5968SOL    HW223638   3.003   3.463   3.462  0.2382  0.0434 -0.2704
 5968SOL    HW323639   3.037   3.461   3.609  0.0162  0.6309 -0.2120
 5968SOL    MW423640   3.014   3.505   3.537  0.4718  0.4018 -0.4999
 5969SOL     OW23641   6.351   1.692   6.342 -0.0954 -0.1420  0.7913
 5969SOL    HW223642   6.422   1.750   6.314 -0.7083  1.1674  1.8287
 5969SOL    HW323643   6.312   1.737   6.417 -1.4154 -1.2997  0.8312
 5969SOL    MW423644   6.355   1.705   6.348 -0.3504 -0.1220  0.9335
 5970SOL     OW23645   6.121   3.088   0.252  0.4055 -0.3859  0.1708
 5970SOL    HW223646   6.167   3.093   0.168 -0.0218 -0.1535 -0.0512
 5970SOL    HW323647   6.170   3.146   0.310  0.1446  0.2048 -0.1865
 5970SOL    MW423648   6.133   3.096   0.248  0.3147 -0.2773  0.0944
 5971SOL     OW23649   1.832   6.059   4.534 -0.1115  0.5474  0.3662
 5971SOL    HW223650   1.853   5.970   4.560 -0.1851  0.7059  0.9957
 5971SOL    HW323651   1.761   6.085   4.592 -1.1462  0.4905 -0.8478
 5971SOL    MW423652   1.826   6.051   4.545 -0.2578  0.5608  0.2891
 5972SOL     OW23653   4.208   3.716   5.545  0.1170  0.1723  0.0933
 5972SOL    HW223654   4.278   3.685   5.487 -1.2037  1.9697 -2.6211
 5972SOL    HW323655   4.240   3.800   5.578 -0.0466  0.1893  0.2071
 5972SOL    MW423656   4.222   3.723   5.542 -0.0789  0.4117 -0.2498
 5973SOL     OW23657   4.134   4.350   0.958 -0.2603 -0.2615  0.0420
 5973SOL    HW223658   4.212   4.340   1.013 -0.1204  2.9730  0.6703
 5973SOL    HW323659   4.169   4.375   0.872 -0.5770 -1.0231 -0.3148
 5973SOL    MW423660   4.149   4.352   0.954 -0.2836  0.0648  0.0778
 5974SOL     OW23661   1.176   6.240   1.451  0.3496  0.0806  0.3823
 5974SOL    HW223662   1.102   6.215   1.505  0.4344  1.8685  1.4310
 5974SOL    HW323663   1.252   6.200   1.494  0.1711 -0.3352  0.3061
 5974SOL    MW423664   1.177   6.232   1.464  0.3373  0.2617  0.5106
 5975SOL     OW23665   0.992   4.330   1.111  0.1196 -0.4167  0.1123
 5975SOL    HW223666   0.905   4.295   1.097  0.0393 -1.4005  2.5653
 5975SOL    HW323667   1.051   4.267   1.070 -0.2778 -0.2002 -0.7971
 5975SOL    MW423668   0.988   4.317   1.104  0.0566 -0.5179  0.3160
 5976SOL     OW23669   6.015   2.048   0.810  0.1206  0.5210  0.7794
 5976SOL    HW223670   5.963   2.030   0.732  0.7666  1.3211  0.1445
 5976SOL    HW323671   6.071   1.972   0.819 -0.2031  0.2676  0.6665
 5976SOL    MW423672   6.016   2.036   0.801  0.1631  0.5931  0.6807
 5977SOL     OW23673   3.492   4.743   4.462 -0.7258 -0.5210  0.2340
 5977SOL    HW223674   3.539   4.667   4.426  1.0210 -0.0451  1.3537
 5977SOL    HW323675   3.474   4.798   4.386  1.9905 -0.0050 -0.1416
 5977SOL    MW423676   3.496   4.741   4.447 -0.1369 -0.3901  0.3322
 5978SOL     OW23677   2.915   1.259   2.539  0.3078 -0.1010 -0.6549
 5978SOL    HW223678   2.832   1.221   2.569 -0.4966  2.0560  0.0345
 5978SOL    HW323679   2.982   1.205   2.582 -0.7498 -0.9580 -0.0006
 5978SOL    MW423680   2.913   1.247   2.549  0.0621  0.0705 -0.4776
 5979SOL     OW23681   1.282   2.795   0.963  0.2028 -0.4355  0.4932
 5979SOL    HW223682   1.238   2.763   1.041 -1.0385 -1.2939 -0.5282
 5979SOL    HW323683   1.252   2.886   0.954 -3.0368 -1.5088 -1.2174
 5979SOL    MW423684   1.272   2.803   0.972 -0.3884 -0.6904  0.1328
 5980SOL     OW23685   3.882   5.460   1.847  0.3046 -0.7112  0.4135
 5980SOL    HW223686   3.872   5.478   1.754 -1.2796 -0.1476  0.6538
 5980SOL    HW323687   3.833   5.530   1.891  1.9762 -0.2902  1.7301
 5980SOL    MW423688   3.874   5.472   1.841  0.3161 -0.5813  0.6189
 5981SOL     OW23689   0.953   1.113   4.488  0.4268 -0.3885  0.3037
 5981SOL    HW223690   0.908   1.149   4.411 -0.6912 -1.6015  0.3494
 5981SOL    HW323691   1.043   1.100   4.460  0.5331  1.1390 -0.1259
 5981SOL    MW423692   0.959   1.116   4.474  0.2933 -0.3470  0.2530
 5982SOL     OW23693   5.564   1.725   3.896 -0.5690  0.1275  0.4400
 5982SOL    HW223694   5.526   1.794   3.843  0.3307 -0.5485 -1.1411
 5982SOL    HW323695   5.575   1.651   3.836 -0.7124 -1.1158  1.8740
 5982SOL    MW423696   5.560   1.724   3.881 -0.4692 -0.1257  0.4206
 5983SOL     OW23697   0.784   3.568   4.153 -0.4082  0.4261 -0.2840
 5983SOL    HW223698   0.717   3.605   4.211 -1.5705  0.0439 -1.3511
 5983SOL    HW323699   0.867   3.583   4.200 -1.1736  1.3685  0.8210
 5983SOL    MW423700   0.786   3.575   4.167 -0.6626  0.5000 -0.2790
 5984SOL     OW23701   2.423   5.410   6.135  0.0305  0.4353 -0.2305
 5984SOL    HW223702   2.430   5.321   6.100  0.2438  0.7373 -0.9890
 5984SOL    HW323703   2.480   5.462   6.078 -0.2614  1.0987  0.0743
 5984SOL    MW423704   2.432   5.405   6.123  0.0201  0.5627 -0.2903
 5985SOL     OW23705   5.997   1.136   4.133 -0.1878 -0.0461  0.0800
 5985SOL    HW223706   5.917   1.188   4.136 -0.2508  0.0188 -1.7760
 5985SOL    HW323707   5.967   1.045   4.131 -0.1484 -0.0804  0.6442
 5985SOL    MW423708   5.983   1.131   4.133 -0.1909 -0.0421 -0.0904
 5986SOL     OW23709   4.290   2.354   5.909 -0.2733  0.4658  0.2510
 5986SOL    HW223710   4.228   2.426   5.920 -2.1742 -0.7045 -1.8770
 5986SOL    HW323711   4.241   2.276   5.936  0.4243 -0.4467 -1.0269
 5986SOL    MW423712   4.275   2.353   5.914 -0.4321  0.1910 -0.1983
 5987SOL     OW23713   1.002   5.378   5.612  0.0106  0.0716  0.4174
 5987SOL    HW223714   0.941   5.408   5.544 -2.0209 -0.8046  1.7592
 5987SOL    HW323715   1.018   5.456   5.665 -2.3240 -0.2620  1.7393
 5987SOL    MW423716   0.996   5.392   5.610 -0.5654 -0.0880  0.7689
 5988SOL     OW23717   2.350   6.189   1.520 -0.3762 -0.7021 -0.0653
 5988SOL    HW223718   2.257   6.178   1.502 -1.0301  0.1943  2.3456
 5988SOL    HW323719   2.374   6.271   1.478 -1.0753 -0.1606  0.5873
 5988SOL    MW423720   2.341   6.198   1.512 -0.5547 -0.5124  0.3389
 5989SOL     OW23721   3.764   0.517   3.883 -0.0725  0.0942  0.1716
 5989SOL    HW223722   3.779   0.504   3.789  0.4973 -0.4147  0.3316
 5989SOL    HW323723   3.669   0.508   3.893 -0.1896  0.5448 -0.4119
 5989SOL    MW423724   3.753   0.514   3.872 -0.0127  0.0865  0.1157
 5990SOL     OW23725   4.164   2.635   0.593  0.4857  0.2709  0.5348
 5990SOL    HW223726   4.147   2.607   0.504 -0.8255 -0.6261  1.0524
 5990SOL    HW323727   4.204   2.722   0.583  0.3910  0.1718 -0.9115
 5990SOL    MW423728   4.167   2.643   0.580  0.3002  0.1395  0.4123
 5991SOL     OW23729   0.824   0.092   3.731  0.2129 -0.0238 -0.4057
 5991SOL    HW223730   0.843   0.178   3.693 -0.1886  1.0373  1.6878
 5991SOL    HW323731   0.787   0.111   3.817  1.4520 -2.3063  0.7224
 5991SOL    MW423732   0.822   0.106   3.737  0.3234 -0.1850  0.0194
 5992SOL     OW23733   2.011   1.875   3.117 -0.3134 -0.3120 -0.1217
 5992SOL    HW223734   1.991   1.782   3.106 -0.3243 -0.3828  0.4332
 5992SOL    HW323735   1.925   1.916   3.128 -0.3013 -0.2530 -0.2492
 5992SOL    MW423736   1.997   1.868   3.117 -0.3132 -0.3136 -0.0653
 5993SOL     OW23737   0.026   4.020   3.767 -0.0073 -0.0729 -0.1810
 5993SOL    HW223738   0.029   4.111   3.737  0.8031 -0.3251 -0.8872
 5993SOL    HW323739   0.096   3.976   3.719 -1.0770 -1.3243 -0.6509
 5993SOL    MW423740   0.035   4.026   3.757 -0.0415 -0.2712 -0.3362
 5994SOL     OW23741   2.684   2.485   1.489  0.4377  0.0390  0.1789
 5994SOL    HW223742   2.678   2.516   1.399  0.2347 -1.3675 -0.3206
 5994SOL    HW323743   2.680   2.564   1.543 -1.1861  0.7776 -0.9686
 5994SOL    MW423744   2.683   2.500   1.484  0.1967 -0.0491 -0.0384
 5995SOL     OW23745   1.544   3.761   4.727 -0.3184  0.3185 -0.0009
 5995SOL    HW223746   1.565   3.854   4.729 -0.4040  0.3617  2.7697
 5995SOL    HW323747   1.629   3.717   4.717 -0.1899  0.6563 -0.4313
 5995SOL    MW423748   1.558   3.767   4.726 -0.3128  0.3687  0.3079
 5996SOL     OW23749   2.373   1.262   0.351 -0.0402  0.3205  0.4599
 5996SOL    HW223750   2.324   1.331   0.396  0.2406  1.4917 -0.9514
 5996SOL    HW323751   2.315   1.235   0.279  0.1522 -0.4215  0.5751
 5996SOL    MW423752   2.359   1.268   0.347  0.0223  0.3771  0.2889
 5997SOL     OW23753   5.322   0.112   1.987  0.3586  0.2541  0.1011
 5997SOL    HW223754   5.295   0.163   2.064 -0.3571 -2.4177  1.7319
 5997SOL    HW323755   5.414   0.133   1.976  0.0570  2.0266  0.5534
 5997SOL    MW423756   5.330   0.122   1.996  0.2244  0.1355  0.3759
 5998SOL     OW23757   1.163   5.816   1.615 -0.8066  0.2021  0.5065
 5998SOL    HW223758   1.071   5.834   1.633 -0.9362 -0.0364  0.1207
 5998SOL    HW323759   1.176   5.844   1.524 -0.5313  0.1243  0.5189
 5998SOL    MW423760   1.153   5.822   1.605 -0.7874  0.1603  0.4572
 5999SOL     OW23761   5.160   5.037   1.180  0.3140 -0.2163  0.5892
 5999SOL    HW223762   5.210   5.085   1.247  1.8475 -0.7429 -0.1277
 5999SOL    HW323763   5.075   5.021   1.220  0.1254  2.1159  1.2752
 5999SOL    MW423764   5.156   5.041   1.194  0.4914  0.0220  0.5851
 6000SOL     OW23765   2.165   4.492   1.117  0.5561 -0.1280  0.3303
 6000SOL    HW223766   2.245   4.489   1.066  0.7787  0.9829  0.5977
 6000SOL    HW323767   2.108   4.426   1.077  1.7118 -1.1714  0.3496
 6000SOL    MW423768   2.168   4.483   1.105  0.7379 -0.1191  0.3682
 6001SOL     OW23769   2.148   3.844   1.367 -0.1899  0.2328  0.2728
 6001SOL    HW223770   2.092   3.819   1.293 -0.5095  0.6520  0.3641
 6001SOL    HW323771   2.230   3.874   1.326 -0.1427 -0.1043  0.1218
 6001SOL    MW423772   2.152   3.845   1.352 -0.2258  0.2436  0.2649
 6002SOL     OW23773   6.426   4.599   1.671 -0.1141 -1.0599  0.3146
 6002SOL    HW223774   6.444   4.517   1.717  2.6549  0.4539  2.2204
 6002SOL    HW323775   6.391   4.657   1.739 -0.6495 -0.2164 -0.6614
 6002SOL    MW423776   6.423   4.596   1.686  0.1806 -0.7489  0.4373
 6003SOL     OW23777   0.377   4.394   2.289  0.0491  0.2564 -0.5053
 6003SOL    HW223778   0.368   4.415   2.382  1.2138 -3.0384  0.4999
 6003SOL    HW323779   0.289   4.369   2.262 -0.1335  0.3134  0.0165
 6003SOL    MW423780   0.364   4.393   2.298  0.1787 -0.1708 -0.3038
 6004SOL     OW23781   0.164   1.487   0.786  0.2377 -0.4358 -0.5441
 6004SOL    HW223782   0.199   1.401   0.763  1.7712  0.1510 -0.5306
 6004SOL    HW323783   0.224   1.549   0.743 -0.2976  0.6217  0.2016
 6004SOL    MW423784   0.177   1.484   0.778  0.3694 -0.2188 -0.4439
 6005SOL     OW23785   2.774   5.779   3.456 -0.4603 -0.6762 -0.7446
 6005SOL    HW223786   2.829   5.704   3.480 -1.5666 -1.3608 -0.2707
 6005SOL    HW323787   2.729   5.803   3.537  0.1674  0.7782 -0.7954
 6005SOL    MW423788   2.776   5.772   3.470 -0.5235 -0.5747 -0.6888
 6006SOL     OW23789   1.261   2.701   3.493 -0.0213  0.1380  0.5386
 6006SOL    HW223790   1.216   2.658   3.566  1.2473 -0.5338  0.9522
 6006SOL    HW323791   1.222   2.663   3.415  1.2810 -2.1076  0.8888
 6006SOL    MW423792   1.250   2.690   3.493  0.3179 -0.2469  0.6394
 6007SOL     OW23793   5.491   2.346   5.065 -0.2132 -0.1657  0.1571
 6007SOL    HW223794   5.533   2.407   5.005 -0.0970  0.8047  1.1865
 6007SOL    HW323795   5.563   2.313   5.119 -0.4486 -0.2485  0.4237
 6007SOL    MW423796   5.506   2.350   5.064 -0.2290 -0.0486  0.3281
 6008SOL     OW23797   0.722   3.940   4.562  0.5453 -0.0516  0.4002
 6008SOL    HW223798   0.809   3.977   4.574 -0.0938  1.8133 -0.2932
 6008SOL    HW323799   0.729   3.886   4.483  0.5035  2.2587 -1.2740
 6008SOL    MW423800   0.734   3.938   4.553  0.4555  0.4993  0.0878
 6009SOL     OW23801   2.739   2.825   4.467 -0.1148  0.1226 -0.2661
 6009SOL    HW223802   2.652   2.785   4.460 -0.2226  0.5483 -1.4951
 6009SOL    HW323803   2.747   2.846   4.560 -1.5212  0.4848 -0.1964
 6009SOL    MW423804   2.728   2.822   4.478 -0.3146  0.2265 -0.4191
 6010SOL     OW23805   5.351   5.404   1.432  0.2589  0.4902  0.2200
 6010SOL    HW223806   5.291   5.386   1.504  0.6467  0.0386  0.4332
 6010SOL    HW323807   5.298   5.455   1.370 -0.9765 -1.5559 -0.5248
 6010SOL    MW423808   5.336   5.409   1.433  0.1471  0.1606  0.1499
 6011SOL     OW23809   5.838   0.033   6.193 -0.1513 -0.0491 -0.4522
 6011SOL    HW223810   5.848  -0.023   6.271  0.6055  0.1875 -0.3726
 6011SOL    HW323811   5.918   0.019   6.144 -0.0036  0.8954 -0.4817
 6011SOL    MW423812   5.850   0.023   6.197 -0.0320  0.1067 -0.4456
 6012SOL     OW23813   4.598   2.780   0.140  0.0144  0.2375  0.0727
 6012SOL    HW223814   4.537   2.801   0.211 -1.0848 -0.1283 -0.7400
 6012SOL    HW323815   4.600   2.858   0.085 -0.6533 -0.1529 -0.5346
 6012SOL    MW423816   4.590   2.793   0.142 -0.2187  0.1377 -0.1146
 6013SOL     OW23817   1.932   0.164   5.940  0.1615  0.0224  0.0763
 6013SOL    HW223818   1.853   0.165   5.993  0.9068 -0.5858  1.2602
 6013SOL    HW323819   1.904   0.189   5.852 -1.9897 -3.5533 -0.4239
 6013SOL    MW423820   1.918   0.167   5.935 -0.0240 -0.5296  0.1665
 6014SOL     OW23821   5.035   2.987   3.195 -0.7404  0.0337 -1.0586
 6014SOL    HW223822   5.018   2.896   3.171  0.2656 -0.0843 -1.4001
 6014SOL    HW323823   5.130   2.996   3.186 -0.5387  0.5103  1.1187
 6014SOL    MW423824   5.046   2.976   3.191 -0.5810  0.0810 -0.8164
 6015SOL     OW23825   0.162   0.066   2.804 -0.3725 -0.1370 -0.2524
 6015SOL    HW223826   0.214   0.115   2.741 -0.7096 -0.2971 -0.6542
 6015SOL    HW323827   0.226   0.037   2.870 -0.2096  1.0833  0.1456
 6015SOL    MW423828   0.178   0.069   2.805 -0.3955  0.0029 -0.2529
 6016SOL     OW23829   4.697   3.197   0.623 -0.1651 -0.4687 -0.0697
 6016SOL    HW223830   4.616   3.207   0.673 -0.8245 -0.7984 -1.0457
 6016SOL    HW323831   4.692   3.109   0.585  0.6128 -0.4636 -0.2087
 6016SOL    MW423832   4.686   3.187   0.624 -0.1495 -0.5115 -0.2168
 6017SOL     OW23833   2.499   5.566   0.627 -0.2933 -0.3765  0.3177
 6017SOL    HW223834   2.495   5.633   0.696  1.4667 -1.9295  2.0228
 6017SOL    HW323835   2.540   5.611   0.553  1.1362  0.4118  1.5301
 6017SOL    MW423836   2.504   5.581   0.627  0.1275 -0.4774  0.7026
 6018SOL     OW23837   4.687   4.707   0.415  0.3611  0.7033 -0.3705
 6018SOL    HW223838   4.654   4.792   0.446 -1.4055 -0.6845  1.7891
 6018SOL    HW323839   4.623   4.679   0.350  0.3202  0.4835 -0.2329
 6018SOL    MW423840   4.675   4.715   0.410  0.1226  0.4912 -0.0674
 6019SOL     OW23841   2.990   6.098   1.302 -0.4581  0.5075  0.3616
 6019SOL    HW223842   2.985   6.106   1.207 -0.7768  2.2753  0.4930
 6019SOL    HW323843   2.934   6.023   1.323  1.0666 -1.1094 -0.9531
 6019SOL    MW423844   2.982   6.089   1.292 -0.2990  0.5274  0.2055
 6020SOL     OW23845   1.968   2.702   1.120  0.1138  0.2308 -0.1356
 6020SOL    HW223846   1.915   2.697   1.200 -0.1156  0.3297 -0.2786
 6020SOL    HW323847   2.057   2.683   1.149  0.3103  1.8579  0.4292
 6020SOL    MW423848   1.973   2.699   1.135  0.1095  0.4585 -0.0799
 6021SOL     OW23849   5.805   2.089   4.364  0.6582 -0.0444 -0.0751
 6021SOL    HW223850   5.813   2.057   4.274  0.2904 -0.5084  0.0514
 6021SOL    HW323851   5.822   2.012   4.419  0.3873  0.1214  0.2479
 6021SOL    MW423852   5.809   2.075   4.360  0.5739 -0.0838 -0.0158
 6022SOL     OW23853   3.756   0.169   1.782  0.5666 -0.1090 -0.0783
 6022SOL    HW223854   3.698   0.212   1.845  0.1342 -1.7422  0.6977
 6022SOL    HW323855   3.827   0.231   1.770  1.0905 -0.0124  2.6759
 6022SOL    MW423856   3.758   0.183   1.789  0.5787 -0.3117  0.3875
 6023SOL     OW23857   0.275   4.874   0.503  0.0559  0.0900  0.0348
 6023SOL    HW223858   0.319   4.854   0.586 -0.1125  1.5300  0.5024
 6023SOL    HW323859   0.189   4.832   0.511 -0.2110  0.7789  0.8775
 6023SOL    MW423860   0.269   4.866   0.515 -0.0016  0.3709  0.2077
 6024SOL     OW23861   4.286   0.888   5.501  0.4158 -0.2973 -0.1425
 6024SOL    HW223862   4.275   0.858   5.411  1.7411 -2.9405  0.4805
 6024SOL    HW323863   4.374   0.924   5.504  0.3397 -0.1277  0.0930
 6024SOL    MW423864   4.296   0.889   5.489  0.5807 -0.6237 -0.0292
 6025SOL     OW23865   4.105   2.747   3.425  0.4140  0.2524 -0.8966
 6025SOL    HW223866   4.152   2.807   3.482 -0.6702  1.0452 -0.8113
 6025SOL    HW323867   4.013   2.763   3.443  0.0616 -0.0436 -2.2905
 6025SOL    MW423868   4.099   2.757   3.435  0.2245  0.3179 -1.0692
 6026SOL     OW23869   4.279   0.344   2.899  0.2720 -0.7641  0.1939
 6026SOL    HW223870   4.272   0.253   2.928  0.1715 -1.3875 -1.6647
 6026SOL    HW323871   4.231   0.393   2.965 -0.7829 -2.2119  0.5614
 6026SOL    MW423872   4.272   0.338   2.912  0.1196 -1.0374 -0.0028
 6027SOL     OW23873   5.934   2.472   4.274 -0.2250 -0.0541 -0.3019
 6027SOL    HW223874   6.006   2.410   4.263  2.4186  2.6806  0.2970
 6027SOL    HW323875   5.927   2.516   4.189 -2.4488 -1.3951 -0.8994
 6027SOL    MW423876   5.942   2.470   4.262 -0.1696  0.1298 -0.3017
 6028SOL     OW23877   2.158   5.713   6.020 -0.1941  0.3294 -0.4426
 6028SOL    HW223878   2.234   5.766   6.044 -0.0274 -0.1428  0.0824
 6028SOL    HW323879   2.087   5.777   6.008  0.2831  0.7762 -0.9603
 6028SOL    MW423880   2.158   5.728   6.021 -0.1092  0.3261 -0.4417
 6029SOL     OW23881   3.188   3.095   4.819  0.1882 -0.0517 -0.2029
 6029SOL    HW223882   3.124   3.040   4.774 -0.6216  0.4391  0.3160
 6029SOL    HW323883   3.269   3.085   4.769 -0.2825 -0.7261 -0.8416
 6029SOL    MW423884   3.190   3.087   4.807  0.0193 -0.0759 -0.2187
 6030SOL     OW23885   4.594   5.360   3.886 -0.1736 -0.3824  0.5027
 6030SOL    HW223886   4.587   5.319   3.800 -0.9217  0.9962 -0.1130
 6030SOL    HW323887   4.506   5.352   3.924 -0.2512  0.4096  0.4901
 6030SOL    MW423888   4.582   5.353   3.880 -0.2826 -0.0960  0.4198
 6031SOL     OW23889   2.329   0.701   2.854  0.0311  0.4664  0.2516
 6031SOL    HW223890   2.412   0.654   2.865  0.1436  0.1418 -1.6988
 6031SOL    HW323891   2.350   0.773   2.794 -1.2137 -0.0182 -0.8109
 6031SOL    MW423892   2.343   0.704   2.848 -0.1183  0.3596 -0.1459
 6032SOL     OW23893   2.299   2.805   4.042  0.5151 -0.4645 -0.0545
 6032SOL    HW223894   2.342   2.775   3.962  1.1665  0.1450  0.0601
 6032SOL    HW323895   2.223   2.747   4.051 -0.0332 -0.0410 -1.5455
 6032SOL    MW423896   2.294   2.794   4.033  0.5287 -0.3282 -0.2361
 6033SOL     OW23897   0.927   0.842   0.011  0.1725  0.4230  0.1558
 6033SOL    HW223898   0.999   0.898   0.039  1.1758 -0.4257 -0.6100
 6033SOL    HW323899   0.959   0.800  -0.070 -0.9176 -0.4780  0.1586
 6033SOL    MW423900   0.941   0.844   0.004  0.1611  0.1922  0.0551
 6034SOL     OW23901   6.030   1.221   3.210  0.0057  0.1711  0.6823
 6034SOL    HW223902   6.010   1.210   3.303 -0.2310  0.7774  0.7101
 6034SOL    HW323903   6.093   1.293   3.207  1.4916 -1.0883  0.5117
 6034SOL    MW423904   6.036   1.229   3.221  0.1705  0.0849  0.6635
 6035SOL     OW23905   5.598   0.237   5.191  0.3275 -0.3295  0.0162
 6035SOL    HW223906   5.514   0.211   5.229  0.7248 -0.9278  0.5085
 6035SOL    HW323907   5.577   0.311   5.134 -0.4696 -0.2107  0.4494
 6035SOL    MW423908   5.584   0.243   5.189  0.2747 -0.3928  0.1383
 6036SOL     OW23909   1.720   5.772   0.318 -0.1587  0.1695 -0.4940
 6036SOL    HW223910   1.669   5.797   0.395  0.5290  0.5614 -0.1547
 6036SOL    HW323911   1.781   5.844   0.305  0.3973 -0.3426 -0.8103
 6036SOL    MW423912   1.721   5.784   0.327  0.0054  0.1537 -0.4910
 6037SOL     OW23913   2.361   2.244   4.176 -0.1724 -0.6723 -0.1067
 6037SOL    HW223914   2.405   2.272   4.096 -1.7093 -0.6033 -0.9687
 6037SOL    HW323915   2.304   2.318   4.199 -1.2706 -1.4971 -0.1190
 6037SOL    MW423916   2.359   2.258   4.169 -0.5201 -0.7720 -0.2221
 6038SOL     OW23917   3.386   0.684   5.126 -0.0492 -0.0202 -0.2451
 6038SOL    HW223918   3.465   0.682   5.072 -0.4519 -1.3626 -0.8294
 6038SOL    HW323919   3.411   0.640   5.208  0.1977  0.8440  0.1510
 6038SOL    MW423920   3.400   0.678   5.130 -0.0697 -0.0833 -0.2700
 6039SOL     OW23921   2.621   1.142   5.314 -0.4914  0.5254  0.1744
 6039SOL    HW223922   2.682   1.164   5.385 -0.3138 -0.7027  0.4336
 6039SOL    HW323923   2.534   1.159   5.350 -0.3599  0.9992  0.2764
 6039SOL    MW423924   2.618   1.147   5.328 -0.4506  0.4259  0.2221
 6040SOL     OW23925   1.823   2.784   4.900  0.0241 -0.3670 -0.7020
 6040SOL    HW223926   1.775   2.758   4.978 -0.8268 -0.1703 -1.1562
 6040SOL    HW323927   1.839   2.878   4.912  0.0632 -0.3760 -0.6821
 6040SOL    MW423928   1.819   2.793   4.912 -0.0830 -0.3423 -0.7593
 6041SOL     OW23929   3.809   3.876   4.281  0.6977 -0.4230 -0.3786
 6041SOL    HW223930   3.872   3.851   4.349 -0.8672 -1.9862  0.6059
 6041SOL    HW323931   3.781   3.964   4.304  2.7618  0.4580 -1.0652
 6041SOL    MW423932   3.813   3.884   4.293  0.7636 -0.5130 -0.3393
 6042SOL     OW23933   3.509   1.458   4.777 -0.6107 -0.2222 -0.1933
 6042SOL    HW223934   3.549   1.404   4.709  1.4427 -0.8927  1.4553
 6042SOL    HW323935   3.583   1.488   4.830 -2.0113  1.5239  0.8889
 6042SOL    MW423936   3.524   1.455   4.775 -0.5246 -0.0803  0.1670
 6043SOL     OW23937   2.407   4.095   1.128  0.3635 -0.1651 -0.2815
 6043SOL    HW223938   2.405   4.191   1.125 -0.2090 -0.1733 -0.1897
 6043SOL    HW323939   2.321   4.068   1.097  0.3690 -0.6423  0.1038
 6043SOL    MW423940   2.395   4.104   1.123  0.2887 -0.2291 -0.2185
 6044SOL     OW23941   5.309   4.796   3.962 -0.1835  0.3043  0.1631
 6044SOL    HW223942   5.296   4.818   4.054  1.0685 -0.6997  0.6055
 6044SOL    HW323943   5.403   4.804   3.948 -0.0150 -1.9228 -0.3446
 6044SOL    MW423944   5.320   4.800   3.972  0.0039 -0.1220  0.1545
 6045SOL     OW23945   4.784   4.544   2.175 -0.1214  0.1975  0.4938
 6045SOL    HW223946   4.827   4.460   2.189 -1.3482 -0.5361  0.0700
 6045SOL    HW323947   4.693   4.529   2.201 -1.0872  0.4881 -2.3403
 6045SOL    MW423948   4.777   4.531   2.180 -0.4107  0.1390  0.0640
 6046SOL     OW23949   3.862   5.295   3.578 -0.1966  0.1069 -0.0243
 6046SOL    HW223950   3.928   5.327   3.640  1.2641 -0.3171 -1.3044
 6046SOL    HW323951   3.876   5.346   3.499 -2.3219  0.9338  0.0578
 6046SOL    MW423952   3.873   5.306   3.576 -0.2843  0.1601 -0.1823
 6047SOL     OW23953   2.552   0.457   5.714  0.2351  0.1031 -0.4449
 6047SOL    HW223954   2.615   0.386   5.700  0.5724  0.5910 -1.5032
 6047SOL    HW323955   2.472   0.427   5.671 -0.3174 -0.5589  0.9834
 6047SOL    MW423956   2.550   0.444   5.706  0.2067  0.0801 -0.3961
 6048SOL     OW23957   5.201   0.068   0.503  0.0281 -0.3783 -0.6304
 6048SOL    HW223958   5.134   0.048   0.438 -1.3111 -0.4545  0.7353
 6048SOL    HW323959   5.198   0.163   0.513  0.5199 -0.3229 -0.9615
 6048SOL    MW423960   5.192   0.078   0.496 -0.0837 -0.3811 -0.4939
 6049SOL     OW23961   2.633   3.069   3.335  0.4253  0.3489 -0.2332
 6049SOL    HW223962   2.718   3.097   3.370 -0.1301  1.0384  0.6021
 6049SOL    HW323963   2.582   3.149   3.328 -0.0881 -0.0270 -0.9574
 6049SOL    MW423964   2.638   3.083   3.338  0.2843  0.3902 -0.2185
 6050SOL     OW23965   0.492   1.069   1.654 -0.2851 -0.5111 -0.2260
 6050SOL    HW223966   0.527   1.158   1.643  0.1212 -0.6751 -0.2834
 6050SOL    HW323967   0.455   1.069   1.742  0.3291 -0.4849  0.0406
 6050SOL    MW423968   0.492   1.081   1.664 -0.1505 -0.5293 -0.1984
 6051SOL     OW23969   0.487   4.882   5.569  0.1620 -0.4021 -0.0588
 6051SOL    HW223970   0.583   4.884   5.569  0.2993 -2.7562 -1.9890
 6051SOL    HW323971   0.464   4.876   5.662  1.9298 -0.6245  0.4042
 6051SOL    MW423972   0.497   4.881   5.581  0.4133 -0.7421 -0.2523
 6052SOL     OW23973   6.213   3.432   0.115  0.1138 -0.1609 -0.1338
 6052SOL    HW223974   6.146   3.408   0.051  0.3961  1.3991 -1.0728
 6052SOL    HW323975   6.166   3.435   0.199 -0.8255  0.1338 -0.6515
 6052SOL    MW423976   6.198   3.429   0.118  0.0271  0.0838 -0.3260
 6053SOL     OW23977   1.079   3.378   5.723 -0.3050  0.2448  0.1165
 6053SOL    HW223978   1.044   3.458   5.764 -1.6768  0.5562 -1.5348
 6053SOL    HW323979   1.166   3.368   5.761 -0.0723  2.5683  0.3545
 6053SOL    MW423980   1.086   3.388   5.733 -0.4553  0.5924 -0.0700
 6054SOL     OW23981   3.996   0.819   1.777  0.1033  0.1928 -0.4460
 6054SOL    HW223982   3.950   0.822   1.860 -0.1474 -0.2949 -0.5614
 6054SOL    HW323983   4.007   0.911   1.752  1.2939  0.3980  0.7181
 6054SOL    MW423984   3.992   0.831   1.784  0.2273  0.1556 -0.3076
 6055SOL     OW23985   0.703   1.087   3.277 -0.0199  0.0690  0.3913
 6055SOL    HW223986   0.714   1.124   3.364 -1.9137 -0.9635  1.1266
 6055SOL    HW323987   0.743   1.151   3.218  1.4246  0.7087  2.0060
 6055SOL    MW423988   0.710   1.100   3.281 -0.0792  0.0172  0.7014
 6056SOL     OW23989   5.071   4.580   2.952  0.3011  0.5617  0.6797
 6056SOL    HW223990   5.164   4.595   2.968  0.6054 -0.4210 -0.0688
 6056SOL    HW323991   5.050   4.630   2.874  0.3278  0.3752  0.5522
 6056SOL    MW423992   5.080   4.588   2.944  0.3448  0.4074  0.5641
 6057SOL     OW23993   2.362   6.066   4.939 -0.0824 -0.1110 -0.0941
 6057SOL    HW223994   2.346   6.122   4.863  0.3754  0.3041  0.1085
 6057SOL    HW323995   2.276   6.058   4.981 -0.2921 -0.1594 -0.5267
 6057SOL    MW423996   2.349   6.072   4.935 -0.0497 -0.0626 -0.1244
 6058SOL     OW23997   0.161   0.690   2.048  0.0032 -0.4322 -0.1374
 6058SOL    HW223998   0.097   0.714   2.115 -0.6305 -2.4577  0.0499
 6058SOL    HW323999   0.246   0.711   2.088 -0.4486  2.4439 -0.4495
 6058SOL    MW424000   0.164   0.696   2.062 -0.1400 -0.3200 -0.1539
 6059SOL     OW24001   0.611   1.871   5.313  0.1411  0.2641 -0.1568
 6059SOL    HW224002   0.669   1.837   5.246  0.0071  0.9396 -0.6236
 6059SOL    HW324003   0.582   1.793   5.361 -0.4582 -0.3400 -1.4369
 6059SOL    MW424004   0.615   1.856   5.310  0.0443  0.2735 -0.3873
 6060SOL     OW24005   4.759   4.814   3.091  0.1555 -0.5383  0.5021
 6060SOL    HW224006   4.724   4.885   3.037  3.7375 -1.0788 -3.0075
 6060SOL    HW324007   4.711   4.736   3.062  0.5147 -0.4643 -0.3138
 6060SOL    MW424008   4.748   4.813   3.080  0.6755 -0.5999 -0.0686
 6061SOL     OW24009   0.515   2.936   1.704  0.0478 -0.1911  0.1759
 6061SOL    HW224010   0.561   2.916   1.785 -0.0436 -1.1505 -0.0043
 6061SOL    HW324011   0.583   2.937   1.637  0.3392  1.8960  0.4257
 6061SOL    MW424012   0.530   2.934   1.706  0.0742 -0.0423  0.1851
 6062SOL     OW24013   1.888   0.876   6.297  0.0640  0.4126  0.8082
 6062SOL    HW224014   1.932   0.960   6.309  0.9547 -0.0824  1.0459
 6062SOL    HW324015   1.952   0.821   6.252 -0.5761 -0.0926  0.4923
 6062SOL    MW424016   1.902   0.880   6.293  0.0971  0.2806  0.7979
 6063SOL     OW24017   0.303   1.069   4.705 -0.5089 -0.1752  0.2289
 6063SOL    HW224018   0.356   0.995   4.678  0.7273  0.5947  0.4549
 6063SOL    HW324019   0.361   1.120   4.763 -1.7060  0.3579  0.9958
 6063SOL    MW424020   0.318   1.066   4.709 -0.5037 -0.0033  0.3599
 6064SOL     OW24021   4.308   0.819   5.007  0.8274  0.4516 -0.0962
 6064SOL    HW224022   4.290   0.770   4.927  1.1969  0.5160 -0.2217
 6064SOL    HW324023   4.385   0.872   4.986 -0.0952  1.7553 -0.2499
 6064SOL    MW424024   4.316   0.819   4.994  0.7545  0.6321 -0.1330
 6065SOL     OW24025   4.646   4.078   3.785 -0.5299 -0.4959  0.3447
 6065SOL    HW224026   4.642   4.126   3.703 -0.9582 -0.4052  0.4166
 6065SOL    HW324027   4.697   3.999   3.764 -1.5081 -0.9830 -0.2667
 6065SOL    MW424028   4.652   4.074   3.771 -0.7155 -0.5482  0.2735
 6066SOL     OW24029   3.624   1.946   4.228 -0.2077 -0.2275  0.2944
 6066SOL    HW224030   3.613   1.886   4.301  0.2605  1.0656  1.4705
 6066SOL    HW324031   3.557   1.920   4.165 -1.0170 -0.9881  1.4368
 6066SOL    MW424032   3.614   1.935   4.229 -0.2527 -0.1572  0.6003
 6067SOL     OW24033   0.738   2.229   5.976  0.5751  0.0130 -0.4978
 6067SOL    HW224034   0.659   2.224   6.030  0.4043  1.3863 -0.5666
 6067SOL    HW324035   0.799   2.283   6.027  0.3450  1.4932 -1.6866
 6067SOL    MW424036   0.736   2.236   5.990  0.5222  0.3895 -0.6637
 6068SOL     OW24037   4.221   0.967   2.051  0.3900 -0.3534  0.0699
 6068SOL    HW224038   4.134   1.006   2.061  0.6916  0.3388  0.0560
 6068SOL    HW324039   4.275   1.012   2.116  0.5593 -1.3384  0.6260
 6068SOL    MW424040   4.217   0.978   2.061  0.4522 -0.3920  0.1414
 6069SOL     OW24041   6.144   5.225   0.711 -0.3618 -0.0196 -0.3099
 6069SOL    HW224042   6.173   5.313   0.738 -2.2117  0.6162 -0.2342
 6069SOL    HW324043   6.212   5.194   0.652  1.4828  0.5028  1.4148
 6069SOL    MW424044   6.157   5.233   0.707 -0.3625  0.1332 -0.0724
 6070SOL     OW24045   3.517   3.341   0.721  0.0579 -0.0004  0.2855
 6070SOL    HW224046   3.537   3.248   0.711  0.2466 -0.1525  1.8886
 6070SOL    HW324047   3.560   3.367   0.802 -0.4996  1.3560  0.1799
 6070SOL    MW424048   3.526   3.332   0.730  0.0093  0.1585  0.4831
 6071SOL     OW24049   1.249   0.138   2.330  0.1014 -0.4238 -0.0393
 6071SOL    HW224050   1.316   0.204   2.313 -0.3112 -0.0399 -0.2297
 6071SOL    HW324051   1.294   0.055   2.326  0.0920 -0.3758 -2.9152
 6071SOL    MW424052   1.264   0.136   2.328  0.0457 -0.3668 -0.4438
 6072SOL     OW24053   4.106   4.936   0.192  0.0543  0.3805  0.1063
 6072SOL    HW224054   4.167   4.968   0.126 -1.2908  0.8718 -0.9152
 6072SOL    HW324055   4.034   4.897   0.143 -1.1898  1.1401  1.2678
 6072SOL    MW424056   4.105   4.935   0.177 -0.2873  0.5455  0.1247
 6073SOL     OW24057   2.714   1.405   0.543  0.5409 -0.2612  0.3965
 6073SOL    HW224058   2.762   1.479   0.507  1.7698 -1.5068 -0.6161
 6073SOL    HW324059   2.773   1.367   0.609  0.8516 -1.5931 -0.6092
 6073SOL    MW424060   2.728   1.410   0.547  0.7441 -0.6012  0.1302
 6074SOL     OW24061   1.353   5.081   4.726 -0.4119  0.4995  0.4277
 6074SOL    HW224062   1.399   5.102   4.807 -2.7184  4.4340  0.9694
 6074SOL    HW324063   1.376   5.152   4.665 -1.7355 -0.2307 -1.0121
 6074SOL    MW424064   1.362   5.093   4.728 -0.8908  0.9222  0.3092
 6075SOL     OW24065   3.189   1.734   4.909  0.2085 -0.4923 -0.1809
 6075SOL    HW224066   3.206   1.647   4.945 -0.4894 -0.2281  0.8527
 6075SOL    HW324067   3.097   1.732   4.883 -0.1577  0.2682  0.9446
 6075SOL    MW424068   3.179   1.722   4.910  0.0681 -0.3571  0.1040
 6076SOL     OW24069   0.911   5.605   1.012  0.4606  0.0699 -0.1885
 6076SOL    HW224070   1.002   5.631   1.000  0.1577  1.0089 -0.5805
 6076SOL    HW324071   0.865   5.646   0.938 -0.3451 -0.0147  0.2544
 6076SOL    MW424072   0.917   5.614   1.000  0.3144  0.1827 -0.1818
 6077SOL     OW24073   5.389   3.849   4.196 -0.0682  0.0646 -0.0543
 6077SOL    HW224074   5.469   3.828   4.244  0.0298 -1.1335 -0.7240
 6077SOL    HW324075   5.355   3.765   4.166 -1.0213  0.6468 -0.6733
 6077SOL    MW424076   5.395   3.835   4.198 -0.1810 -0.0166 -0.2243
 6078SOL     OW24077   5.290   3.677   4.535  0.4580  0.0283 -0.4512
 6078SOL    HW224078   5.260   3.592   4.567  0.5633 -0.1508 -0.8204
 6078SOL    HW324079   5.225   3.703   4.470  0.3308  0.3144 -0.2098
 6078SOL    MW424080   5.278   3.669   4.531  0.4551  0.0424 -0.4680
 6079SOL     OW24081   0.725   2.360   2.096  0.5661  0.1416  0.6866
 6079SOL    HW224082   0.674   2.431   2.058 -0.1968  0.8650  2.8732
 6079SOL    HW324083   0.680   2.280   2.067 -0.9175  0.7181  1.3091
 6079SOL    MW424084   0.712   2.359   2.087  0.2697  0.3131  1.0572
 6080SOL     OW24085   2.583   3.201   5.308 -0.2195  0.3311  0.2751
 6080SOL    HW224086   2.518   3.261   5.270 -0.8659 -0.6740 -0.2411
 6080SOL    HW324087   2.539   3.116   5.311  1.3468 -0.5648 -0.8535
 6080SOL    MW424088   2.568   3.198   5.304 -0.0981  0.0803  0.0581
 6081SOL     OW24089   0.749   0.028   5.085 -0.0689 -0.0328  0.0238
 6081SOL    HW224090   0.789   0.112   5.107  1.7512 -0.5828 -0.9825
 6081SOL    HW324091   0.789   0.003   5.001 -0.2508 -2.0938  0.4905
 6081SOL    MW424092   0.759   0.035   5.076  0.1472 -0.3773 -0.0474
 6082SOL     OW24093   3.382   3.485   5.207  0.3397  0.0052 -0.0921
 6082SOL    HW224094   3.424   3.423   5.148  0.7358 -0.0783  0.2695
 6082SOL    HW324095   3.452   3.514   5.265  0.3080  1.2791 -0.6562
 6082SOL    MW424096   3.397   3.481   5.207  0.3878  0.1622 -0.1188
 6083SOL     OW24097   5.953   0.111   0.550 -0.3769 -0.0426 -0.2464
 6083SOL    HW224098   5.994   0.171   0.488 -0.9103  0.9530  0.3529
 6083SOL    HW324099   5.868   0.090   0.510 -1.1650  1.4148  0.6096
 6083SOL    MW424100   5.948   0.116   0.536 -0.5512  0.2810 -0.0544
 6084SOL     OW24101   5.923   2.068   4.953 -0.0993  0.0064  0.0908
 6084SOL    HW224102   5.985   2.010   4.909  1.2024  0.5899  1.0914
 6084SOL    HW324103   5.953   2.071   5.044 -1.2187  0.8323  0.4631
 6084SOL    MW424104   5.935   2.061   4.960 -0.0753  0.1924  0.2719
 6085SOL     OW24105   3.220   4.466   2.299  0.1706 -0.3674  0.0942
 6085SOL    HW224106   3.192   4.379   2.269  0.5557 -0.7505  0.8174
 6085SOL    HW324107   3.285   4.494   2.234 -1.1227  0.0877 -1.0299
 6085SOL    MW424108   3.225   4.458   2.287  0.0508 -0.3579  0.0413
 6086SOL     OW24109   6.143   5.411   1.054  0.5519  0.1421  0.2311
 6086SOL    HW224110   6.173   5.396   1.143 -1.9944  0.5281  1.2583
 6086SOL    HW324111   6.075   5.344   1.040  1.2668 -0.2622 -1.6491
 6086SOL    MW424112   6.138   5.400   1.064  0.3103  0.1397  0.1186
 6087SOL     OW24113   0.823   5.920   4.044  0.4746 -0.8704  0.0756
 6087SOL    HW224114   0.842   5.987   4.110 -1.9155 -0.5054  0.4525
 6087SOL    HW324115   0.844   5.963   3.961  1.8171 -0.7326  0.4512
 6087SOL    MW424116   0.829   5.935   4.042  0.3364 -0.8040  0.1749
 6088SOL     OW24117   1.577   4.553   1.053 -0.1451 -1.0882 -0.0621
 6088SOL    HW224118   1.606   4.562   0.962  1.3357  1.4636  0.5627
 6088SOL    HW324119   1.483   4.571   1.049  0.3837  2.1854 -0.8283
 6088SOL    MW424120   1.568   4.556   1.041  0.1200 -0.3196 -0.0808
 6089SOL     OW24121   0.324   3.540   1.170 -0.1736  0.4489 -0.2274
 6089SOL    HW224122   0.368   3.459   1.195 -0.0204  0.8737  0.9219
 6089SOL    HW324123   0.240   3.512   1.133  0.5004 -0.2949 -1.2327
 6089SOL    MW424124   0.318   3.526   1.169 -0.0644  0.4068 -0.2084
 6090SOL     OW24125   5.428   4.588   3.489  0.5494  0.1692  0.8268
 6090SOL    HW224126   5.363   4.650   3.455  3.8753  2.0588 -3.0225
 6090SOL    HW324127   5.390   4.502   3.475 -0.9211  1.1532 -2.0911
 6090SOL    MW424128   5.415   4.585   3.482  0.7942  0.5483 -0.0660
 6091SOL     OW24129   0.335   2.049   0.648 -0.3167  0.0733 -0.6326
 6091SOL    HW224130   0.375   1.966   0.674 -2.4831 -0.5036  1.1940
 6091SOL    HW324131   0.403   2.114   0.662  1.0208 -1.2075 -0.8687
 6091SOL    MW424132   0.349   2.046   0.653 -0.4260 -0.1718 -0.4228
 6092SOL     OW24133   1.719   2.086   3.394 -0.1897  0.0103 -0.0875
 6092SOL    HW224134   1.740   2.151   3.462 -1.2548  2.0853 -1.6353
 6092SOL    HW324135   1.766   2.007   3.421 -1.2488  0.4397  3.5144
 6092SOL    MW424136   1.728   2.084   3.407 -0.4699  0.3407  0.1836
 6093SOL     OW24137   2.661   4.302   4.003 -0.2116  0.7606  0.8131
 6093SOL    HW224138   2.687   4.362   3.933 -1.9573  1.3571  0.6378
 6093SOL    HW324139   2.725   4.318   4.073 -0.2483  2.3667  0.5110
 6093SOL    MW424140   2.673   4.312   4.003 -0.4468  1.0512  0.7501
 6094SOL     OW24141   6.184   4.210   4.439 -0.4811  0.2289 -0.0425
 6094SOL    HW224142   6.127   4.248   4.372  0.7798  1.4147 -0.4739
 6094SOL    HW324143   6.237   4.283   4.470  0.9186 -0.8744  0.2464
 6094SOL    MW424144   6.183   4.225   4.435 -0.1301  0.2398 -0.0613
 6095SOL     OW24145   4.371   0.556   1.793  0.4230  0.0098 -0.5754
 6095SOL    HW224146   4.277   0.573   1.789  0.1863 -1.2043 -0.3839
 6095SOL    HW324147   4.379   0.462   1.805  1.6295  0.2806  1.1728
 6095SOL    MW424148   4.360   0.546   1.794  0.5510 -0.1147 -0.3195
 6096SOL     OW24149   0.661   2.252   5.021 -0.3109  0.1396  0.3996
 6096SOL    HW224150   0.732   2.189   5.013 -0.1808  0.0806  1.6777
 6096SOL    HW324151   0.606   2.237   4.945  1.2641  0.4863 -0.8513
 6096SOL    MW424152   0.663   2.241   5.010 -0.0859  0.1775  0.4032
 6097SOL     OW24153   4.561   2.565   6.088 -0.0191 -0.7617 -0.1037
 6097SOL    HW224154   4.614   2.644   6.094 -1.5560  0.2156  1.3200
 6097SOL    HW324155   4.508   2.565   6.168 -2.6971 -1.2722 -1.7584
 6097SOL    MW424156   4.561   2.575   6.099 -0.5752 -0.7001 -0.1342
 6098SOL     OW24157   6.212   1.759   3.754  0.0516  0.0526  0.1014
 6098SOL    HW224158   6.290   1.777   3.702  1.3337  0.1632  1.9765
 6098SOL    HW324159   6.231   1.677   3.799 -0.3429  0.7064  1.5488
 6098SOL    MW424160   6.225   1.751   3.753  0.1687  0.1535  0.5398
 6099SOL     OW24161   2.370   4.778   0.304 -0.6171  0.3541 -0.1103
 6099SOL    HW224162   2.404   4.857   0.262 -1.2322  1.1321  0.8153
 6099SOL    HW324163   2.416   4.706   0.260 -0.8994  1.1422 -1.7911
 6099SOL    MW424164   2.380   4.779   0.293 -0.7355  0.5607 -0.2099
 6100SOL     OW24165   5.819   0.976   2.984 -0.5031  0.2125  0.2907
 6100SOL    HW224166   5.731   0.949   2.957 -0.2960 -0.1926  0.0120
 6100SOL    HW324167   5.813   1.071   2.993 -1.5566  0.0020  2.4201
 6100SOL    MW424168   5.806   0.985   2.981 -0.6148  0.1313  0.5349
 6101SOL     OW24169   2.787   4.837   1.386  0.1553  0.2151  0.8831
 6101SOL    HW224170   2.717   4.901   1.387 -1.1356 -1.1003 -0.0252
 6101SOL    HW324171   2.756   4.766   1.442  0.6855 -0.4454  0.3695
 6101SOL    MW424172   2.774   4.836   1.393  0.0550 -0.0456  0.6955
 6102SOL     OW24173   0.283   5.236   2.326  0.3884 -0.2492 -0.5178
 6102SOL    HW224174   0.192   5.225   2.353 -0.3394 -0.2578 -2.8237
 6102SOL    HW324175   0.283   5.219   2.232  3.0263 -1.6193 -0.3613
 6102SOL    MW424176   0.271   5.232   2.317  0.6404 -0.4311 -0.8014
 6103SOL     OW24177   5.649   1.903   1.359 -0.4208 -0.7591 -0.1955
 6103SOL    HW224178   5.589   1.857   1.417  0.0014 -1.3567 -0.2228
 6103SOL    HW324179   5.734   1.894   1.401 -0.5686  1.5880  0.7645
 6103SOL    MW424180   5.652   1.896   1.372 -0.3846 -0.5283 -0.0724
 6104SOL     OW24181   0.141   5.810   4.625  0.0462  0.0247  0.5365
 6104SOL    HW224182   0.188   5.882   4.667 -0.5482  0.7530 -0.0218
 6104SOL    HW324183   0.053   5.813   4.663  0.2043 -0.8384  1.0011
 6104SOL    MW424184   0.135   5.820   4.635 -0.0114  0.0069  0.5241
 6105SOL     OW24185   3.339   0.313   4.204  0.4006 -0.8839 -0.3479
 6105SOL    HW224186   3.254   0.346   4.174  0.8579 -0.2979 -1.0062
 6105SOL    HW324187   3.316   0.240   4.263 -0.6085  0.1174  0.5630
 6105SOL    MW424188   3.325   0.308   4.208  0.3278 -0.6745 -0.3145
 6106SOL     OW24189   1.169   2.588   2.958  0.6056 -0.3008 -0.2207
 6106SOL    HW224190   1.179   2.493   2.943 -0.0716 -0.0614 -2.7220
 6106SOL    HW324191   1.076   2.605   2.941  1.2385  1.1794 -2.8835
 6106SOL    MW424192   1.158   2.577   2.954  0.5998 -0.0739 -0.9020
 6107SOL     OW24193   3.365   6.061   4.944 -0.3400 -0.1257 -0.1977
 6107SOL    HW224194   3.292   6.052   5.005 -2.3270  2.8882 -1.8398
 6107SOL    HW324195   3.326   6.043   4.858  1.7275 -1.7159 -0.8827
 6107SOL    MW424196   3.350   6.057   4.940 -0.3294  0.0621 -0.5047
 6108SOL     OW24197   4.633   3.307   1.683  0.1863 -0.3859 -0.8243
 6108SOL    HW224198   4.729   3.309   1.672  0.2804 -0.0137 -0.0388
 6108SOL    HW324199   4.600   3.270   1.601  0.9611  0.1333 -1.3898
 6108SOL    MW424200   4.642   3.303   1.671  0.3010 -0.2683 -0.7952
 6109SOL     OW24201   3.592   2.658   5.607 -0.2404  0.1540 -0.3405
 6109SOL    HW224202   3.571   2.576   5.563 -0.9955  0.5403 -0.7167
 6109SOL    HW324203   3.538   2.657   5.686  0.1477  0.0523 -0.0713
 6109SOL    MW424204   3.582   2.647   5.612 -0.2888  0.1916 -0.3546
 6110SOL     OW24205   4.323   3.496   3.032  0.3598 -0.3872  0.3562
 6110SOL    HW224206   4.318   3.556   3.107 -0.2425 -0.3805  0.3147
 6110SOL    HW324207   4.262   3.532   2.968  0.7209 -0.5088 -0.0636
 6110SOL    MW424208   4.314   3.508   3.034  0.3280 -0.4024  0.2953
 6111SOL     OW24209   3.986   1.518   3.935 -0.0431  0.0641 -0.3273
 6111SOL    HW224210   3.938   1.511   4.018  0.5770 -1.2813 -0.0460
 6111SOL    HW324211   4.001   1.611   3.924 -3.1224  0.6486 -0.6784
 6111SOL    MW424212   3.981   1.529   3.945 -0.3675 -0.0363 -0.3365
 6112SOL     OW24213   4.872   5.794   3.043  0.1457 -0.5005  0.2139
 6112SOL    HW224214   4.851   5.772   3.133 -0.3257 -1.0308 -0.0268
 6112SOL    HW324215   4.823   5.732   2.990  0.5249 -0.2824 -0.4090
 6112SOL    MW424216   4.863   5.783   3.048  0.1335 -0.5417  0.0999
 6113SOL     OW24217   2.085   5.531   2.079  0.1639  0.3967 -0.0137
 6113SOL    HW224218   2.067   5.616   2.040 -1.1679 -0.0582 -0.4575
 6113SOL    HW324219   2.017   5.520   2.146  0.8599  0.0487  0.6610
 6113SOL    MW424220   2.074   5.540   2.083  0.0800  0.2907  0.0168
 6114SOL     OW24221   3.523   2.329   5.157 -0.0412 -0.1927  0.5964
 6114SOL    HW224222   3.570   2.405   5.190 -0.0579 -0.0262  0.2394
 6114SOL    HW324223   3.591   2.267   5.130 -0.0255 -0.5139  1.3578
 6114SOL    MW424224   3.538   2.330   5.158 -0.0413 -0.2131  0.6498
 6115SOL     OW24225   1.810   1.232   3.390  0.1187 -0.3518  0.7169
 6115SOL    HW224226   1.852   1.168   3.447  2.9725 -1.1604 -2.0281
 6115SOL    HW324227   1.819   1.196   3.302 -2.8751  1.4351 -0.4810
 6115SOL    MW424228   1.816   1.219   3.386  0.1002 -0.2227  0.1967
 6116SOL     OW24229   4.236   5.460   0.297  0.2763 -0.0528 -0.4764
 6116SOL    HW224230   4.286   5.404   0.356  2.8647  1.5091 -1.0458
 6116SOL    HW324231   4.273   5.444   0.210 -2.1758 -0.9029 -1.4513
 6116SOL    MW424232   4.247   5.451   0.293  0.2943  0.0411 -0.6802
 6117SOL     OW24233   1.240   2.304   0.539 -0.4180  0.6675 -0.1292
 6117SOL    HW224234   1.158   2.255   0.541  0.1314 -0.2540  0.2261
 6117SOL    HW324235   1.233   2.359   0.461 -1.1789  0.2636 -0.3554
 6117SOL    MW424236   1.228   2.305   0.529 -0.4459  0.4926 -0.1122
 6118SOL     OW24237   3.792   5.926   3.979  0.3588  0.2592 -0.3663
 6118SOL    HW224238   3.864   5.894   3.924  1.5397 -1.0795  1.8297
 6118SOL    HW324239   3.829   5.998   4.029 -0.4870  0.9722 -0.7334
 6118SOL    MW424240   3.806   5.931   3.978  0.4030  0.1767 -0.1250
 6119SOL     OW24241   1.936   1.508   0.415 -0.1827 -0.0040 -0.0939
 6119SOL    HW224242   1.909   1.431   0.366 -1.0636 -1.2040  2.1516
 6119SOL    HW324243   2.030   1.496   0.429  0.0423  0.2607 -1.2583
 6119SOL    MW424244   1.945   1.496   0.410 -0.2692 -0.1274  0.0487
 6120SOL     OW24245   3.335   3.105   3.143 -0.2189 -0.1476  0.0822
 6120SOL    HW224246   3.366   3.181   3.192 -0.5816  0.4348 -0.5719
 6120SOL    HW324247   3.248   3.130   3.112 -0.5626 -1.0356  0.3027
 6120SOL    MW424248   3.328   3.118   3.145 -0.3121 -0.1880  0.0250
 6121SOL     OW24249   0.051   3.703   5.926  0.3447  0.2616  0.4251
 6121SOL    HW224250  -0.035   3.673   5.955 -0.0072 -1.9015 -2.4336
 6121SOL    HW324251   0.043   3.798   5.920 -2.7689 -0.0058 -2.1399
 6121SOL    MW424252   0.038   3.711   5.929 -0.1126 -0.0591 -0.2904
 6122SOL     OW24253   1.323   4.852   4.355  0.2189 -0.7579 -0.1898
 6122SOL    HW224254   1.327   4.780   4.292 -0.5916 -1.3066  0.3684
 6122SOL    HW324255   1.229   4.872   4.361  0.5613  1.9766 -2.1612
 6122SOL    MW424256   1.311   4.845   4.347  0.1572 -0.4695 -0.3763
 6123SOL     OW24257   2.667   2.158   6.178 -0.0047  0.2372  0.1182
 6123SOL    HW224258   2.744   2.190   6.226  1.4821 -1.1138 -1.2259
 6123SOL    HW324259   2.634   2.235   6.132  1.2777  0.6311 -0.1915
 6123SOL    MW424260   2.673   2.173   6.178  0.3607  0.1109 -0.1000
 6124SOL     OW24261   5.051   1.217   1.441  0.1440  0.1443  0.1423
 6124SOL    HW224262   4.980   1.200   1.380  1.0038 -1.0718 -0.5448
 6124SOL    HW324263   5.121   1.253   1.387  0.2557  0.8494  0.7346
 6124SOL    MW424264   5.051   1.220   1.426  0.2722  0.0769  0.1298
 6125SOL     OW24265   1.689   3.383   3.483 -0.4122  0.0371  0.2676
 6125SOL    HW224266   1.676   3.457   3.543  1.6022 -0.5616  1.5474
 6125SOL    HW324267   1.781   3.390   3.456 -0.5571 -1.2405 -0.6478
 6125SOL    MW424268   1.700   3.394   3.488 -0.1655 -0.2105  0.3157
 6126SOL     OW24269   2.890   1.657   1.973  0.6745 -0.0465  0.8714
 6126SOL    HW224270   2.880   1.712   1.895 -0.8610  1.0013  1.7622
 6126SOL    HW324271   2.974   1.613   1.960  0.1011 -0.5723 -1.7786
 6126SOL    MW424272   2.899   1.659   1.961  0.3962  0.0224  0.6393
 6127SOL     OW24273   3.460   1.898   3.146 -0.0294 -0.2361  0.4206
 6127SOL    HW224274   3.408   1.949   3.209  0.3524  0.0292  0.5228
 6127SOL    HW324275   3.545   1.887   3.188  0.1844 -0.1708  0.0047
 6127SOL    MW424276   3.464   1.903   3.160  0.0492 -0.1925  0.3792
 6128SOL     OW24277   2.346   4.203   4.983  0.0884  0.2101  0.4166
 6128SOL    HW224278   2.432   4.240   4.960  0.9896 -1.8550  0.2053
 6128SOL    HW324279   2.334   4.131   4.921 -2.3429  1.1131 -0.2749
 6128SOL    MW424280   2.356   4.198   4.972 -0.1135  0.0568  0.2975
 6129SOL     OW24281   5.180   5.558   3.992  0.1701  0.1568  0.7425
 6129SOL    HW224282   5.248   5.537   4.056 -0.0447  3.0412  2.0756
 6129SOL    HW324283   5.100   5.566   4.043 -0.9189 -1.6112 -0.5718
 6129SOL    MW424284   5.179   5.556   4.007 -0.0019  0.3041  0.7450
 6130SOL     OW24285   0.985   4.483   4.802 -0.0584  0.0570 -0.3647
 6130SOL    HW224286   0.981   4.471   4.897  0.5990  1.7414 -0.0794
 6130SOL    HW324287   1.073   4.454   4.778 -0.7280 -1.7830 -0.7263
 6130SOL    MW424288   0.996   4.477   4.811 -0.0600  0.0365 -0.3747
 6131SOL     OW24289   2.631   3.798   2.464 -0.0262 -0.3269 -0.2386
 6131SOL    HW224290   2.633   3.889   2.493 -0.1744 -0.0345 -1.0926
 6131SOL    HW324291   2.575   3.799   2.386 -0.5586 -1.2687  0.1133
 6131SOL    MW424292   2.624   3.810   2.457 -0.1160 -0.4125 -0.3048
 6132SOL     OW24293   1.157   0.909   2.212  0.3271  0.5781  0.6753
 6132SOL    HW224294   1.122   0.851   2.145  0.7883  1.6865 -0.5713
 6132SOL    HW324295   1.127   0.871   2.295 -1.2149 -0.2061 -0.1979
 6132SOL    MW424296   1.148   0.896   2.214  0.1845  0.6209  0.3956
 6133SOL     OW24297   0.494   0.234   1.475 -0.7178 -0.3905 -0.2060
 6133SOL    HW224298   0.404   0.264   1.467 -0.7245  0.3152  1.9415
 6133SOL    HW324299   0.508   0.222   1.569  1.6167  0.1869 -0.4097
 6133SOL    MW424300   0.484   0.237   1.486 -0.4107 -0.2212  0.0505
 6134SOL     OW24301   2.334   3.788   0.009  0.3540 -0.0233 -0.1220
 6134SOL    HW224302   2.409   3.819  -0.042  1.1000 -1.9953 -0.3078
 6134SOL    HW324303   2.329   3.848   0.084  0.1329  2.0378 -1.7092
 6134SOL    MW424304   2.343   3.800   0.012  0.4232 -0.0116 -0.3559
 6135SOL     OW24305   5.077   4.043   0.729  0.7899 -0.4381 -0.3680
 6135SOL    HW224306   5.036   3.982   0.790 -0.8953  0.4150 -0.6017
 6135SOL    HW324307   5.016   4.116   0.722  1.9188  0.4564 -1.4781
 6135SOL    MW424308   5.064   4.044   0.736  0.7165 -0.2075 -0.5453
 6136SOL     OW24309   1.178   6.268   3.527 -0.1366 -0.2511 -0.1153
 6136SOL    HW224310   1.186   6.355   3.488  0.4090 -0.0211  0.4931
 6136SOL    HW324311   1.133   6.283   3.611 -0.7428 -0.6616 -0.3550
 6136SOL    MW424312   1.173   6.281   3.533 -0.1446 -0.2749 -0.0667
 6137SOL     OW24313   4.591   5.392   0.732  0.6729  0.2323  0.0669
 6137SOL    HW224314   4.624   5.368   0.819 -2.0574 -0.0171  1.1169
 6137SOL    HW324315   4.669   5.390   0.676  2.3198 -0.8045  2.2373
 6137SOL    MW424316   4.606   5.389   0.736  0.5299  0.0626  0.4918
 6138SOL     OW24317   4.980   5.655   5.703 -0.0641  0.0446 -0.4416
 6138SOL    HW224318   5.067   5.617   5.691 -0.0203  0.4842 -1.6333
 6138SOL    HW324319   4.923   5.580   5.721  0.5270 -0.2554  0.2350
 6138SOL    MW424320   4.984   5.640   5.704  0.0197  0.0630 -0.5095
 6139SOL     OW24321   4.772   0.810   1.394  0.1257  0.3028 -0.3786
 6139SOL    HW224322   4.811   0.802   1.481 -2.0534  0.0152  0.6173
 6139SOL    HW324323   4.838   0.857   1.343  2.2643 -1.1610  0.8668
 6139SOL    MW424324   4.786   0.815   1.398  0.1204  0.0717 -0.0829
 6140SOL     OW24325   3.696   6.360   5.622  0.0428  0.2302  0.1693
 6140SOL    HW224326   3.692   6.390   5.712  0.6737  0.9296 -0.0220
 6140SOL    HW324327   3.678   6.439   5.570 -0.9892 -0.3028 -0.3133
 6140SOL    MW424328   3.693   6.374   5.627 -0.0101  0.2521  0.0804
 6141SOL     OW24329   0.915   6.145   3.272 -0.6596  0.1699 -0.0716
 6141SOL    HW224330   0.994   6.139   3.326  0.0706  0.4284 -1.0879
 6141SOL    HW324331   0.920   6.232   3.231  0.4956 -1.2042 -3.0716
 6141SOL    MW424332   0.926   6.156   3.274 -0.4109  0.0227 -0.6015
 6142SOL     OW24333   5.808   4.961   0.065 -0.6703  0.2729  0.5186
 6142SOL    HW224334   5.875   4.961  -0.004 -2.1954 -0.3234 -1.0650
 6142SOL    HW324335   5.820   4.878   0.111 -1.3841 -0.6793 -0.9283
 6142SOL    MW424336   5.818   4.950   0.062 -0.9657  0.0686  0.1188
 6143SOL     OW24337   1.955   4.269   4.189  0.1607 -0.6062  0.2790
 6143SOL    HW224338   1.918   4.221   4.115 -2.1284 -0.0211  0.9566
 6143SOL    HW324339   1.909   4.235   4.265  1.0848  0.1534  1.2129
 6143SOL    MW424340   1.944   4.258   4.189 -0.0194 -0.4288  0.4916
 6144SOL     OW24341   0.269   3.725   0.843  0.0868 -0.1698  0.2192
 6144SOL    HW224342   0.238   3.814   0.830 -0.8369 -0.3769  0.9326
 6144SOL    HW324343   0.291   3.721   0.936  0.7470 -0.4998  0.0549
 6144SOL    MW424344   0.268   3.736   0.854  0.0521 -0.2407  0.2917
 6145SOL     OW24345   3.848   4.309   5.968 -0.1567 -0.5167  0.0213
 6145SOL    HW224346   3.871   4.389   5.921  0.4609 -1.6087 -1.6542
 6145SOL    HW324347   3.785   4.337   6.034  0.4980  1.4237 -0.1205
 6145SOL    MW424348   3.842   4.323   5.970  0.0111 -0.4047 -0.2185
 6146SOL     OW24349   4.200   5.036   5.495 -0.5919 -0.1375  0.2683
 6146SOL    HW224350   4.114   5.074   5.515  0.4206  1.3287  2.1351
 6146SOL    HW324351   4.260   5.110   5.497  0.8420 -1.2490 -0.2153
 6146SOL    MW424352   4.196   5.051   5.498 -0.2691 -0.0907  0.4508
 6147SOL     OW24353   1.804   3.938   4.984 -0.0947  0.0791 -0.2472
 6147SOL    HW224354   1.746   4.002   5.025 -0.8120  0.1434 -1.3061
 6147SOL    HW324355   1.757   3.855   4.991  0.4690 -0.1942  0.4035
 6147SOL    MW424356   1.790   3.936   4.990 -0.1150  0.0515 -0.3010
 6148SOL     OW24357   0.733   5.334   0.168  0.4683 -0.1986  0.6603
 6148SOL    HW224358   0.689   5.413   0.200  0.2346 -0.0584  0.0049
 6148SOL    HW324359   0.769   5.293   0.247  1.0247  0.8284  0.9498
 6148SOL    MW424360   0.732   5.339   0.183  0.5109 -0.0446  0.6120
 6149SOL     OW24361   1.033   2.756   1.732 -0.5233 -1.2563 -0.2318
 6149SOL    HW224362   1.047   2.724   1.821 -1.2265  0.0267  0.3584
 6149SOL    HW324363   1.120   2.753   1.692  0.0031 -0.8314  0.8451
 6149SOL    MW424364   1.047   2.752   1.738 -0.5466 -1.0310 -0.0119
 6150SOL     OW24365   0.819   1.990   3.280 -0.2118 -0.1687 -0.0351
 6150SOL    HW224366   0.838   1.941   3.200 -0.1745 -0.3996  0.1130
 6150SOL    HW324367   0.872   1.948   3.347 -0.4717 -0.1704  0.1730
 6150SOL    MW424368   0.828   1.978   3.278 -0.2411 -0.1994  0.0119
 6151SOL     OW24369   4.701   2.974   4.523  0.0146  0.2056 -0.0600
 6151SOL    HW224370   4.607   2.957   4.527  0.0379  0.1465  0.2555
 6151SOL    HW324371   4.718   3.033   4.596  0.4408 -0.8368  0.7090
 6151SOL    MW424372   4.691   2.980   4.533  0.0739  0.0603  0.0831
 6152SOL     OW24373   1.692   0.429   5.669  0.5923 -0.7598  0.3649
 6152SOL    HW224374   1.619   0.367   5.670  0.2624 -0.3681  0.9975
 6152SOL    HW324375   1.770   0.373   5.667  0.2912 -1.1885  0.3637
 6152SOL    MW424376   1.693   0.413   5.669  0.5090 -0.7647  0.4482
 6153SOL     OW24377   0.926   6.406   0.042 -0.5009 -0.2260  0.4672
 6153SOL    HW224378   0.863   6.337   0.062 -1.0235  0.3781  0.9267
 6153SOL    HW324379   0.890   6.449  -0.036  0.7965 -1.6593 -0.9948
 6153SOL    MW424380   0.913   6.403   0.034 -0.3987 -0.3354  0.3350
 6154SOL     OW24381   4.969   0.442   2.813 -0.3913 -0.0269 -0.0689
 6154SOL    HW224382   4.887   0.393   2.811 -0.4898  0.1035  0.5615
 6154SOL    HW324383   4.947   0.526   2.853 -0.8721  1.8318 -3.7996
 6154SOL    MW424384   4.955   0.447   2.818 -0.4678  0.2355 -0.4779
 6155SOL     OW24385   1.527   5.521   4.772 -0.2176  0.0623  0.2578
 6155SOL    HW224386   1.580   5.442   4.761 -0.4477 -0.1181  0.4406
 6155SOL    HW324387   1.474   5.503   4.850 -0.2719  0.3953  0.2956
 6155SOL    MW424388   1.527   5.508   4.781 -0.2551  0.0824  0.2869
 6156SOL     OW24389   5.215   0.601   2.256 -0.3396 -0.3250  0.0747
 6156SOL    HW224390   5.274   0.569   2.325  0.4947  0.3659 -0.3012
 6156SOL    HW324391   5.128   0.584   2.290  0.0671 -0.5071  1.0667
 6156SOL    MW424392   5.212   0.595   2.270 -0.1758 -0.2579  0.1560
 6157SOL     OW24393   0.291   0.127   3.604 -0.4287  0.4743 -0.0487
 6157SOL    HW224394   0.291   0.218   3.633 -0.3546  0.2463  0.6905
 6157SOL    HW324395   0.335   0.079   3.674  0.4268  0.0008 -0.8838
 6157SOL    MW424396   0.297   0.132   3.617 -0.3061  0.3817 -0.0613
 6158SOL     OW24397   2.033   3.755   2.386 -0.7962 -0.6304 -0.1231
 6158SOL    HW224398   2.071   3.679   2.342 -0.9600 -0.9990  0.3711
 6158SOL    HW324399   1.996   3.808   2.314  1.2505  0.1122 -0.7014
 6158SOL    MW424400   2.033   3.752   2.370 -0.5478 -0.5811 -0.1342
 6159SOL     OW24401   2.632   4.933   5.649 -0.1065 -0.3767  0.3214
 6159SOL    HW224402   2.698   4.931   5.579 -0.1564  2.1272  0.1202
 6159SOL    HW324403   2.627   5.025   5.674  0.3803 -1.2188  4.1106
 6159SOL    MW424404   2.640   4.945   5.643 -0.0489 -0.1574  0.7948
 6160SOL     OW24405   1.259   2.250   2.369  0.1902 -0.1899 -0.7493
 6160SOL    HW224406   1.253   2.281   2.460  0.9830  2.2584 -1.4666
 6160SOL    HW324407   1.352   2.256   2.348  0.2916 -2.5362 -1.1881
 6160SOL    MW424408   1.270   2.255   2.379  0.3082 -0.1765 -0.9019
 6161SOL     OW24409   5.452   0.718   3.304  0.3255  0.5468  0.8524
 6161SOL    HW224410   5.451   0.661   3.227  0.3580  0.6091  0.8063
 6161SOL    HW324411   5.421   0.802   3.273 -1.3662  0.1213  1.2628
 6161SOL    MW424412   5.448   0.721   3.290  0.1066  0.4989  0.9005
 6162SOL     OW24413   5.849   2.337   2.076 -0.2799  0.4173 -0.0497
 6162SOL    HW224414   5.841   2.343   2.172  1.4555 -0.4852  0.1959
 6162SOL    HW324415   5.916   2.402   2.054 -0.6555  0.6006 -0.6693
 6162SOL    MW424416   5.857   2.347   2.086 -0.1005  0.3224 -0.0991
 6163SOL     OW24417   5.255   5.604   2.855 -0.6018  0.2659  0.2808
 6163SOL    HW224418   5.180   5.617   2.797  0.8047 -1.4050 -2.1073
 6163SOL    HW324419   5.266   5.509   2.857  0.8261  0.4299  1.4596
 6163SOL    MW424420   5.246   5.593   2.847 -0.2278  0.0671  0.1213
 6164SOL     OW24421   1.817   2.378   2.104 -0.5822 -0.2637 -0.0262
 6164SOL    HW224422   1.898   2.418   2.072 -0.9092  1.6942  1.4344
 6164SOL    HW324423   1.775   2.342   2.025  2.2480 -2.5320 -0.6695
 6164SOL    MW424424   1.822   2.378   2.089 -0.2519 -0.3047  0.0816
 6165SOL     OW24425   3.533   4.204   5.069 -0.0845  0.2986 -0.0045
 6165SOL    HW224426   3.487   4.194   5.152  1.6300  1.7915  1.1926
 6165SOL    HW324427   3.490   4.278   5.026 -0.7813 -0.2896 -0.3396
 6165SOL    MW424428   3.521   4.213   5.074  0.0498  0.4180  0.1092
 6166SOL     OW24429   1.610   6.203   4.716  0.2442  0.2040 -0.9935
 6166SOL    HW224430   1.554   6.126   4.721  0.3056  0.2115  0.0876
 6166SOL    HW324431   1.563   6.263   4.659 -0.4022 -0.1531 -0.8526
 6166SOL    MW424432   1.597   6.201   4.710  0.1670  0.1579 -0.8323
 6167SOL     OW24433   1.831   2.366   0.577  0.1610  0.3544  0.4035
 6167SOL    HW224434   1.887   2.378   0.654  0.9438  2.0372 -0.3785
 6167SOL    HW324435   1.742   2.382   0.608  0.4914  1.2221  0.9361
 6167SOL    MW424436   1.827   2.370   0.591  0.3079  0.6909  0.3706
 6168SOL     OW24437   0.086   1.208   1.485 -0.3987 -0.2050 -0.2237
 6168SOL    HW224438   0.131   1.237   1.406 -2.8485 -0.2002 -1.7078
 6168SOL    HW324439   0.042   1.127   1.460  0.4850 -1.3896  1.7964
 6168SOL    MW424440   0.086   1.201   1.472 -0.6053 -0.3607 -0.1530
 6169SOL     OW24441   3.027   2.739   2.512 -0.2914 -0.1128  0.0961
 6169SOL    HW224442   2.936   2.717   2.493 -0.8431  1.1656  1.1537
 6169SOL    HW324443   3.023   2.805   2.581  1.4933 -3.2531  3.6322
 6169SOL    MW424444   3.015   2.745   2.519 -0.1287 -0.3585  0.7021
 6170SOL     OW24445   4.172   4.213   1.884  0.2837 -0.1661 -0.7205
 6170SOL    HW224446   4.262   4.235   1.908  0.3155 -0.6037 -0.4164
 6170SOL    HW324447   4.157   4.127   1.924 -0.2725 -0.0923 -0.7584
 6170SOL    MW424448   4.182   4.204   1.892  0.2145 -0.2141 -0.6854
 6171SOL     OW24449   5.956   3.666   2.483  0.5919 -0.7356  0.1331
 6171SOL    HW224450   5.944   3.585   2.532 -0.0718 -0.6742  0.0731
 6171SOL    HW324451   6.050   3.668   2.463  0.4618 -1.9581 -0.6976
 6171SOL    MW424452   5.967   3.656   2.487  0.4872 -0.8888  0.0156
 6172SOL     OW24453   4.451   3.269   4.706  0.2198 -0.5125  0.6802
 6172SOL    HW224454   4.520   3.335   4.709  0.7883 -1.1112  2.3109
 6172SOL    HW324455   4.441   3.248   4.614  2.2761 -0.4447  0.3995
 6172SOL    MW424456   4.459   3.275   4.694  0.5661 -0.5825  0.8583
 6173SOL     OW24457   4.940   0.142   4.814 -0.4363 -0.2052  0.2196
 6173SOL    HW224458   4.876   0.116   4.747 -0.6839  0.0028  0.3740
 6173SOL    HW324459   4.892   0.202   4.871 -0.4115 -0.8787  0.9587
 6173SOL    MW424460   4.925   0.146   4.813 -0.4657 -0.2666  0.3375
 6174SOL     OW24461   4.455   3.604   1.438  0.2559 -0.0146  0.2088
 6174SOL    HW224462   4.367   3.602   1.476 -0.2536 -1.5252 -0.9770
 6174SOL    HW324463   4.514   3.606   1.514 -0.7710 -0.4711  1.0386
 6174SOL    MW424464   4.452   3.604   1.453  0.0532 -0.2741  0.1618
 6175SOL     OW24465   2.231   5.387   5.315  0.1487  0.1244 -0.4676
 6175SOL    HW224466   2.323   5.381   5.290 -0.3724  0.2357 -2.5461
 6175SOL    HW324467   2.231   5.377   5.411  2.1470 -1.6442 -0.5959
 6175SOL    MW424468   2.243   5.385   5.325  0.3436 -0.0943 -0.7588
 6176SOL     OW24469   2.106   5.699   3.018 -0.4808  0.7010 -0.8721
 6176SOL    HW224470   2.043   5.641   3.060  0.6631  0.0026 -0.0554
 6176SOL    HW324471   2.074   5.708   2.928 -1.3738 -0.1636 -0.6635
 6176SOL    MW424472   2.093   5.693   3.012 -0.4477  0.4947 -0.7368
 6177SOL     OW24473   2.339   3.402   1.264 -0.1555 -0.2143  0.0491
 6177SOL    HW224474   2.279   3.448   1.323  1.2114 -1.3761  2.4874
 6177SOL    HW324475   2.389   3.471   1.222 -1.8411  0.6838 -0.5942
 6177SOL    MW424476   2.338   3.417   1.266 -0.1975 -0.2491  0.2860
 6178SOL     OW24477   6.050   5.443   2.948  0.1215  0.0204  0.3911
 6178SOL    HW224478   6.089   5.365   2.908  1.2854  0.8004 -0.0266
 6178SOL    HW324479   5.968   5.456   2.899  0.3713 -0.4017 -0.1522
 6178SOL    MW424480   6.044   5.434   2.936  0.3080  0.0676  0.2643
 6179SOL     OW24481   2.420   3.910   1.593 -0.0307  0.4328 -0.3176
 6179SOL    HW224482   2.512   3.889   1.611  0.1202 -0.1298 -1.6665
 6179SOL    HW324483   2.401   3.982   1.652  1.2960  0.6040 -0.0535
 6179SOL    MW424484   2.430   3.916   1.604  0.1643  0.3812 -0.4607
 6180SOL     OW24485   3.819   0.263   5.414 -0.2324  0.1183 -0.5607
 6180SOL    HW224486   3.857   0.269   5.502 -0.1346 -1.0331 -0.5073
 6180SOL    HW324487   3.725   0.255   5.429 -0.0519 -3.1592 -0.3250
 6180SOL    MW424488   3.812   0.262   5.428 -0.1957 -0.4660 -0.5226
 6181SOL     OW24489   3.067   0.071   1.052 -0.2984 -0.5726  0.4355
 6181SOL    HW224490   2.991   0.056   1.109 -0.8098 -0.7086 -0.2635
 6181SOL    HW324491   3.127  -0.001   1.072 -0.0332 -0.0768  1.4973
 6181SOL    MW424492   3.065   0.060   1.062 -0.3309 -0.5251  0.4834
 6182SOL     OW24493   0.172   3.849   3.576  0.1611 -0.0373  0.9771
 6182SOL    HW224494   0.261   3.872   3.549 -0.2238 -0.0670 -0.3674
 6182SOL    HW324495   0.122   3.844   3.494 -0.5575 -2.3231  1.4791
 6182SOL    MW424496   0.177   3.851   3.562  0.0155 -0.3428  0.8660
 6183SOL     OW24497   3.842   3.504   1.075 -0.2777  0.5341  0.2281
 6183SOL    HW224498   3.790   3.432   1.039 -0.4703  0.9834 -0.4261
 6183SOL    HW324499   3.807   3.518   1.163  1.7673 -2.1482  1.5829
 6183SOL    MW424500   3.831   3.496   1.082 -0.0333  0.2394  0.3205
 6184SOL     OW24501   5.393   2.428   0.786 -0.2190  0.0291 -0.7210
 6184SOL    HW224502   5.312   2.390   0.822  1.5395 -1.5267  1.9034
 6184SOL    HW324503   5.373   2.522   0.778 -2.7469 -0.4914 -1.6934
 6184SOL    MW424504   5.379   2.435   0.790 -0.3205 -0.2448 -0.5031
 6185SOL     OW24505   0.307   0.548   2.336  0.2836  0.2660  0.1004
 6185SOL    HW224506   0.336   0.585   2.253  0.1759  1.9611  0.7887
 6185SOL    HW324507   0.245   0.479   2.311 -0.9469  1.7799 -1.2374
 6185SOL    MW424508   0.302   0.544   2.322  0.1071  0.6894  0.0147
 6186SOL     OW24509   1.126   3.180   2.780  0.3734  0.5704  0.1597
 6186SOL    HW224510   1.055   3.243   2.794 -0.3981 -0.1142 -0.5572
 6186SOL    HW324511   1.203   3.222   2.819  0.1271  2.4693 -1.2368
 6186SOL    MW424512   1.127   3.194   2.787  0.2391  0.7306 -0.1191
 6187SOL     OW24513   0.736   1.784   0.771 -0.3085 -0.3806 -0.6688
 6187SOL    HW224514   0.738   1.695   0.807  1.1188 -0.1696 -0.1586
 6187SOL    HW324515   0.666   1.828   0.820 -0.2541 -0.9037 -0.1146
 6187SOL    MW424516   0.727   1.778   0.783 -0.1130 -0.4218 -0.5283
 6188SOL     OW24517   4.198   3.903   3.502  0.2314 -0.2001 -0.3260
 6188SOL    HW224518   4.126   3.859   3.547  0.2294  0.7168  0.6072
 6188SOL    HW324519   4.204   3.989   3.545  1.9043 -0.2735 -0.3642
 6188SOL    MW424520   4.189   3.909   3.514  0.4519 -0.0888 -0.2079
 6189SOL     OW24521   3.944   2.553   5.127  0.0342 -0.4311 -0.0516
 6189SOL    HW224522   3.952   2.493   5.054 -0.8704 -0.8929  0.2087
 6189SOL    HW324523   3.921   2.637   5.087 -1.8803 -1.0021 -0.2416
 6189SOL    MW424524   3.942   2.556   5.112 -0.3377 -0.5674 -0.0424
 6190SOL     OW24525   3.225   4.994   2.435 -0.0025 -0.4275 -0.7746
 6190SOL    HW224526   3.259   4.919   2.483  1.5778 -0.6520 -2.1542
 6190SOL    HW324527   3.163   5.035   2.495 -0.3246 -2.3769  0.3024
 6190SOL    MW424528   3.221   4.990   2.449  0.1635 -0.7143 -0.8145
 6191SOL     OW24529   4.034   0.646   4.833  0.1143 -0.1542  0.9736
 6191SOL    HW224530   4.009   0.730   4.872  0.5652 -0.3095  1.6125
 6191SOL    HW324531   3.968   0.630   4.765 -0.3713  0.3810  1.3146
 6191SOL    MW424532   4.022   0.655   4.829  0.1098 -0.1041  1.1029
 6192SOL     OW24533   1.931   2.125   2.974 -0.0236 -1.1048 -0.1425
 6192SOL    HW224534   1.842   2.135   2.941 -0.6870 -0.8479  1.6392
 6192SOL    HW324535   1.954   2.035   2.954 -0.1254 -0.7848 -1.8617
 6192SOL    MW424536   1.923   2.115   2.967 -0.1245 -1.0287 -0.1342
 6193SOL     OW24537   1.272   4.242   1.047 -0.4874  0.0174 -0.2766
 6193SOL    HW224538   1.341   4.253   0.982  3.6567 -0.2769  3.5603
 6193SOL    HW324539   1.241   4.152   1.036  1.5006 -0.6606 -0.7516
 6193SOL    MW424540   1.277   4.232   1.037  0.3217 -0.1109  0.1670
 6194SOL     OW24541   0.185   5.521   1.290  0.2019 -0.0470 -0.2796
 6194SOL    HW224542   0.189   5.425   1.290  0.5207 -0.0355 -0.4249
 6194SOL    HW324543   0.108   5.542   1.237  0.7065 -0.2053 -1.0926
 6194SOL    MW424544   0.175   5.511   1.283  0.3105 -0.0664 -0.4061
 6195SOL     OW24545   6.270   4.041   3.181 -0.5498  0.3932 -0.6789
 6195SOL    HW224546   6.337   4.108   3.193 -1.0026  0.8439 -0.6792
 6195SOL    HW324547   6.316   3.959   3.198 -0.3727  0.7890  0.9454
 6195SOL    MW424548   6.285   4.039   3.185 -0.5862  0.5049 -0.4646
 6196SOL     OW24549   4.031   2.721   2.755  0.5645  0.0056 -0.3362
 6196SOL    HW224550   4.068   2.803   2.723  0.4016 -0.2480 -1.1786
 6196SOL    HW324551   3.974   2.747   2.828  1.2663  0.5356  0.0286
 6196SOL    MW424552   4.028   2.735   2.761  0.6356  0.0421 -0.3992
 6197SOL     OW24553   0.296   2.448   5.007 -0.2959  0.2448  0.0860
 6197SOL    HW224554   0.353   2.502   5.062  0.7366 -0.5695 -0.1420
 6197SOL    HW324555   0.276   2.372   5.062  1.3795 -0.9605 -0.8651
 6197SOL    MW424556   0.301   2.445   5.022  0.0614 -0.0217 -0.0696
 6198SOL     OW24557   0.400   4.482   5.688 -0.3905 -0.2433  0.0252
 6198SOL    HW224558   0.432   4.392   5.685 -0.5341 -0.2787 -0.5696
 6198SOL    HW324559   0.457   4.525   5.752  0.6849 -0.3815 -0.8000
 6198SOL    MW424560   0.412   4.476   5.696 -0.2675 -0.2662 -0.1621
 6199SOL     OW24561   1.251   1.354   2.920  0.0471  0.3008  0.1273
 6199SOL    HW224562   1.276   1.383   3.007  0.3899  0.3984 -0.0031
 6199SOL    HW324563   1.287   1.420   2.861  0.4080 -0.1266 -0.1337
 6199SOL    MW424564   1.259   1.366   2.923  0.1399  0.2573  0.0757
 6200SOL     OW24565   5.790   3.967   3.817 -0.1645 -0.6513 -0.1150
 6200SOL    HW224566   5.814   3.884   3.773 -1.3010 -1.0601  0.0139
 6200SOL    HW324567   5.781   3.943   3.909  1.2319  0.0045  0.2237
 6200SOL    MW424568   5.792   3.953   3.823 -0.1302 -0.6187 -0.0533
 6201SOL     OW24569   4.980   4.440   5.384  0.1093  0.1028  0.0138
 6201SOL    HW224570   5.039   4.508   5.415 -1.5308  0.7400  2.0250
 6201SOL    HW324571   4.951   4.395   5.464 -1.8921 -0.3281 -0.8886
 6201SOL    MW424572   4.984   4.443   5.399 -0.3711  0.1300  0.1601
 6202SOL     OW24573   4.310   5.180   2.641  0.3647  0.5170  0.4394
 6202SOL    HW224574   4.307   5.190   2.546  1.8600 -2.0230  0.0566
 6202SOL    HW324575   4.400   5.200   2.665  1.0107 -2.4000  0.7633
 6202SOL    MW424576   4.321   5.184   2.632  0.6472 -0.2030  0.4316
 6203SOL     OW24577   5.127   1.318   6.051 -0.0758  0.3057  0.3365
 6203SOL    HW224578   5.140   1.411   6.032  0.2788  0.1850 -0.0323
 6203SOL    HW324579   5.209   1.290   6.094 -0.4999  0.3513  1.1971
 6203SOL    MW424580   5.140   1.326   6.054 -0.0850  0.2958  0.4014
 6204SOL     OW24581   1.070   2.632   0.679  0.2526  0.3862 -0.0943
 6204SOL    HW224582   0.998   2.611   0.620  1.2750 -1.3811 -0.8027
 6204SOL    HW324583   1.028   2.655   0.761 -1.1288 -0.0347 -0.6539
 6204SOL    MW424584   1.055   2.632   0.682  0.2052  0.0975 -0.2616
 6205SOL     OW24585   0.836   2.276   0.637 -0.4423 -0.2628 -0.0288
 6205SOL    HW224586   0.863   2.256   0.726  0.9416 -0.5708 -0.4842
 6205SOL    HW324587   0.743   2.253   0.633 -1.5707  3.0894  2.3123
 6205SOL    MW424588   0.827   2.270   0.648 -0.4086  0.1389  0.2200
 6206SOL     OW24589   5.096   5.852   0.803 -0.4607 -0.6954  0.0863
 6206SOL    HW224590   5.101   5.762   0.771 -1.7555 -0.8514  0.2639
 6206SOL    HW324591   5.186   5.883   0.802 -0.3399 -0.8590 -3.2035
 6206SOL    MW424592   5.108   5.844   0.799 -0.6156 -0.7376 -0.3243
 6207SOL     OW24593   5.667   3.410   3.359  0.1579 -0.2420 -0.0562
 6207SOL    HW224594   5.730   3.387   3.291 -1.7688  0.4763 -2.2141
 6207SOL    HW324595   5.637   3.325   3.394  0.3509 -0.6835 -0.9274
 6207SOL    MW424596   5.671   3.395   3.355 -0.0708 -0.2055 -0.4558
 6208SOL     OW24597   4.661   5.800   0.454 -0.1607 -0.4618 -0.0066
 6208SOL    HW224598   4.666   5.779   0.361  0.8675 -3.3079  0.5954
 6208SOL    HW324599   4.567   5.811   0.471 -0.5041 -1.4888 -1.1159
 6208SOL    MW424600   4.649   5.799   0.444 -0.0704 -0.9728 -0.0736
 6209SOL     OW24601   5.731   6.296   1.926  0.1101 -0.6537  0.5146
 6209SOL    HW224602   5.723   6.259   1.838 -1.9668  1.7128 -0.4105
 6209SOL    HW324603   5.699   6.227   1.984 -0.1931 -1.6082 -0.7537
 6209SOL    MW424604   5.726   6.282   1.922 -0.2039 -0.4674  0.2252
 6210SOL     OW24605   1.744   3.376   4.912  0.1716  0.2101  0.5485
 6210SOL    HW224606   1.797   3.344   4.839 -1.0992  1.1249 -0.8402
 6210SOL    HW324607   1.719   3.465   4.887 -3.4166 -0.7265  0.2349
 6210SOL    MW424608   1.748   3.383   4.899 -0.4695  0.2072  0.3239
 6211SOL     OW24609   5.430   6.006   5.575 -0.6551 -0.1031  1.0163
 6211SOL    HW224610   5.510   5.989   5.526 -0.4214 -0.8621  1.6437
 6211SOL    HW324611   5.400   6.091   5.543  0.0656 -0.0956  0.3339
 6211SOL    MW424612   5.437   6.015   5.564 -0.5292 -0.2023  1.0091
 6212SOL     OW24613   3.043   3.049   1.297  0.3950  0.5680  0.9830
 6212SOL    HW224614   3.127   3.064   1.339  0.7785  0.4151  0.2919
 6212SOL    HW324615   3.046   3.102   1.217 -0.7598  1.7361  1.6804
 6212SOL    MW424616   3.054   3.058   1.292  0.2932  0.7020  0.9839
 6213SOL     OW24617   2.079   3.152   5.457  0.2775 -0.0519  0.0700
 6213SOL    HW224618   2.073   3.078   5.518  0.3722  0.3457  0.5679
 6213SOL    HW324619   2.128   3.219   5.506 -1.0545  0.8894  0.1718
 6213SOL    MW424620   2.085   3.151   5.472  0.1142  0.1248  0.1492
 6214SOL     OW24621   4.864   5.334   4.326  0.3008  0.0832 -0.2352
 6214SOL    HW224622   4.950   5.339   4.366  0.2372  1.0905 -0.2051
 6214SOL    HW324623   4.868   5.394   4.252 -0.2700 -0.1052 -0.4268
 6214SOL    MW424624   4.876   5.343   4.322  0.2171  0.1912 -0.2565
 6215SOL     OW24625   5.998   5.055   3.682 -0.3360 -0.2077 -0.8330
 6215SOL    HW224626   5.933   5.068   3.613 -1.6680 -0.2307  0.3895
 6215SOL    HW324627   6.023   5.143   3.709 -0.5329 -0.1985 -0.6816
 6215SOL    MW424628   5.993   5.068   3.676 -0.5377 -0.2095 -0.6517
 6216SOL     OW24629   4.368   3.034   1.616 -0.1717 -0.1429  0.0084
 6216SOL    HW224630   4.390   2.948   1.581 -1.9680 -1.7506  2.4464
 6216SOL    HW324631   4.402   3.033   1.706  1.7019  2.6295 -0.5361
 6216SOL    MW424632   4.375   3.023   1.623 -0.1615  0.0108  0.2582
 6217SOL     OW24633   5.504   3.815   6.216  0.2696  0.3895 -0.6892
 6217SOL    HW224634   5.482   3.887   6.276  0.7875 -0.0763  0.0735
 6217SOL    HW324635   5.478   3.736   6.263  2.2034 -0.0992 -0.3527
 6217SOL    MW424636   5.498   3.814   6.230  0.5930  0.2636 -0.5442
 6218SOL     OW24637   3.508   2.139   5.986  0.6705 -0.3739  0.2868
 6218SOL    HW224638   3.583   2.142   5.926  0.5485  0.1859  0.1508
 6218SOL    HW324639   3.531   2.200   6.056  0.2037  0.0573  0.0720
 6218SOL    MW424640   3.521   2.148   5.987  0.5928 -0.2431  0.2405
 6219SOL     OW24641   5.630   2.315   2.628 -0.0830  0.5693  0.3603
 6219SOL    HW224642   5.563   2.275   2.683 -0.4007  0.3077 -0.2154
 6219SOL    HW324643   5.582   2.354   2.556  0.4677 -0.6711 -0.7102
 6219SOL    MW424644   5.615   2.315   2.626 -0.0522  0.3712  0.1431
 6220SOL     OW24645   4.703   5.984   1.472  0.6310  0.4517 -0.0560
 6220SOL    HW224646   4.724   6.077   1.466  1.5467  0.2002 -0.9284
 6220SOL    HW324647   4.608   5.980   1.464  0.7631  1.1384 -2.8703
 6220SOL    MW424648   4.693   5.996   1.470  0.7693  0.5091 -0.5424
 6221SOL     OW24649   3.792   0.205   4.310  0.1544  0.0041 -0.4977
 6221SOL    HW224650   3.806   0.242   4.223 -0.6042  1.5875  0.0239
 6221SOL    HW324651   3.711   0.245   4.341  2.1656  2.2973  2.3759
 6221SOL    MW424652   3.783   0.215   4.303  0.3196  0.5156 -0.0498
 6222SOL     OW24653   4.591   2.567   3.949 -0.4324 -0.0533 -0.1024
 6222SOL    HW224654   4.507   2.520   3.946  0.7512 -2.3243  0.1053
 6222SOL    HW324655   4.655   2.504   3.915  1.3796  1.1536  0.9032
 6222SOL    MW424656   4.588   2.552   3.944 -0.0371 -0.1937  0.0576
 6223SOL     OW24657   2.371   0.732   4.012  0.6029 -0.3934  0.2242
 6223SOL    HW224658   2.313   0.806   4.031  0.9672  0.1893 -0.8524
 6223SOL    HW324659   2.452   0.754   4.058  0.5012 -0.4353  0.4247
 6223SOL    MW424660   2.374   0.745   4.021  0.6375 -0.3220  0.1086
 6224SOL     OW24661   5.585   1.097   1.974 -0.1299  0.1836 -0.5438
 6224SOL    HW224662   5.498   1.104   1.933 -0.8052 -0.8933  0.6421
 6224SOL    HW324663   5.596   1.003   1.990  2.2160 -0.0061 -2.6257
 6224SOL    MW424664   5.575   1.085   1.971  0.0905  0.0165 -0.6620
 6225SOL     OW24665   1.154   1.965   2.513  1.0797  0.6964 -0.6785
 6225SOL    HW224666   1.097   2.040   2.498  1.8233  1.1922 -1.1033
 6225SOL    HW324667   1.189   1.944   2.426  1.3904  0.2731 -0.4557
 6225SOL    MW424668   1.151   1.972   2.499  1.2188  0.7060 -0.7051
 6226SOL     OW24669   2.406   4.952   0.752 -0.3830 -0.3306 -0.6126
 6226SOL    HW224670   2.481   4.964   0.810 -2.0371  1.1017  1.4064
 6226SOL    HW324671   2.357   4.880   0.791 -1.0741  0.0846 -0.6913
 6226SOL    MW424672   2.409   4.944   0.765 -0.6924 -0.0869 -0.3566
 6227SOL     OW24673   6.369   5.589   3.714  0.2230  0.5493  0.1320
 6227SOL    HW224674   6.384   5.510   3.663  0.5029  0.5748  0.1759
 6227SOL    HW324675   6.280   5.616   3.690 -0.4182 -0.5527  1.1761
 6227SOL    MW424676   6.359   5.582   3.704  0.1753  0.4073  0.2755
 6228SOL     OW24677   4.110   4.395   4.610  0.4864 -0.3239  0.5436
 6228SOL    HW224678   4.031   4.403   4.662 -0.4692  1.4649 -1.0646
 6228SOL    HW324679   4.147   4.310   4.635 -3.2071 -2.4509 -0.3612
 6228SOL    MW424680   4.105   4.384   4.620 -0.1270 -0.3685  0.2121
 6229SOL     OW24681   2.605   6.074   1.572  0.3887  0.2013 -0.7787
 6229SOL    HW224682   2.517   6.100   1.543  0.7872  2.4651 -0.1821
 6229SOL    HW324683   2.602   6.083   1.668  1.7197  2.1087 -0.8499
 6229SOL    MW424684   2.593   6.079   1.581  0.6169  0.7517 -0.7094
 6230SOL     OW24685   0.384   3.109   2.419 -0.2225 -0.7404  0.0162
 6230SOL    HW224686   0.448   3.062   2.366  0.8666  0.4099  0.2765
 6230SOL    HW324687   0.304   3.106   2.367  0.5043 -0.6754 -1.1480
 6230SOL    MW424688   0.382   3.102   2.405  0.0171 -0.5801 -0.1031
 6231SOL     OW24689   3.052   4.507   2.040 -0.2229  0.3457 -0.3555
 6231SOL    HW224690   3.132   4.458   2.021 -0.9145 -0.2026 -2.0134
 6231SOL    HW324691   3.058   4.584   1.984  0.7157  2.1127  2.0109
 6231SOL    MW424692   3.063   4.511   2.030 -0.1903  0.5065 -0.2620
 6232SOL     OW24693   6.279   1.990   3.349 -0.0882 -0.0763  0.2831
 6232SOL    HW224694   6.304   1.991   3.257  0.8120 -0.4816  0.5185
 6232SOL    HW324695   6.307   1.905   3.381 -1.3244 -0.3480  0.6932
 6232SOL    MW424696   6.286   1.979   3.341 -0.1325 -0.1656  0.3682
 6233SOL     OW24697   2.187   4.427   1.920 -0.3050 -0.2491  0.1404
 6233SOL    HW224698   2.153   4.338   1.921  0.0041 -0.3682  0.8350
 6233SOL    HW324699   2.114   4.480   1.887 -0.0496 -0.9080 -1.5953
 6233SOL    MW424700   2.173   4.422   1.916 -0.2306 -0.3518  0.0030
 6234SOL     OW24701   1.998   0.152   3.512  0.3490  0.4683  0.1820
 6234SOL    HW224702   1.975   0.224   3.571  2.4046  1.0734  0.3171
 6234SOL    HW324703   2.001   0.074   3.568 -0.9423  0.4128  0.2119
 6234SOL    MW424704   1.995   0.151   3.527  0.4498  0.5408  0.2038
 6235SOL     OW24705   2.752   3.493   2.158  0.6801 -0.0772 -0.2637
 6235SOL    HW224706   2.671   3.498   2.210 -0.4220  0.0280 -1.9087
 6235SOL    HW324707   2.792   3.580   2.168  1.0000 -0.3725  1.1581
 6235SOL    MW424708   2.747   3.505   2.166  0.5769 -0.1023 -0.2932
 6236SOL     OW24709   4.086   0.376   4.266  0.2243  0.2029  0.4516
 6236SOL    HW224710   4.119   0.435   4.198 -1.7710 -1.0152 -1.7586
 6236SOL    HW324711   3.991   0.384   4.260 -0.0832 -2.1193  1.0604
 6236SOL    MW424712   4.078   0.385   4.256 -0.0795 -0.2642  0.2403
 6237SOL     OW24713   4.531   5.716   5.437  0.4945 -0.0961  0.0534
 6237SOL    HW224714   4.543   5.642   5.496  1.4281 -0.2102 -0.2600
 6237SOL    HW324715   4.591   5.783   5.470 -1.2103  1.0063  1.0689
 6237SOL    MW424716   4.541   5.715   5.449  0.3928  0.0343  0.1460
 6238SOL     OW24717   1.642   2.415   4.078 -0.2291  1.2247 -0.0251
 6238SOL    HW224718   1.632   2.335   4.027  0.2078  1.7048 -0.8804
 6238SOL    HW324719   1.622   2.389   4.168 -2.2607  0.6236 -0.5972
 6238SOL    MW424720   1.638   2.401   4.083 -0.4395  1.2087 -0.2134
 6239SOL     OW24721   5.430   4.564   5.177 -0.0249 -0.1971 -0.5333
 6239SOL    HW224722   5.522   4.587   5.163  0.1491 -0.4026  0.2052
 6239SOL    HW324723   5.418   4.574   5.271 -0.2821 -1.8711 -0.3697
 6239SOL    MW424724   5.441   4.569   5.188 -0.0359 -0.4451 -0.4143
 6240SOL     OW24725   0.165   4.759   5.735  0.3403  0.2841 -0.2550
 6240SOL    HW224726   0.150   4.667   5.753 -1.5878  0.3044 -1.4320
 6240SOL    HW324727   0.110   4.778   5.658  0.3696  2.4781  0.1815
 6240SOL    MW424728   0.155   4.750   5.727  0.0897  0.5763 -0.3527
 6241SOL     OW24729   1.317   3.173   3.346 -0.5107 -0.7410  0.0972
 6241SOL    HW224730   1.371   3.213   3.277 -1.6004 -0.0010 -0.3570
 6241SOL    HW324731   1.244   3.234   3.357 -1.3692 -1.8199  0.5438
 6241SOL    MW424732   1.314   3.187   3.338 -0.7678 -0.7857  0.0962
 6242SOL     OW24733   3.651   0.017   0.326  0.2015 -0.7285  0.2320
 6242SOL    HW224734   3.565  -0.002   0.288  0.3094  0.0610 -0.4416
 6242SOL    HW324735   3.636   0.017   0.421  0.0051 -3.0799  0.2466
 6242SOL    MW424736   3.638   0.015   0.334  0.1898 -0.9346  0.1451
 6243SOL     OW24737   4.512   4.786   2.067 -0.0306  0.1497 -0.6845
 6243SOL    HW224738   4.438   4.726   2.071 -0.1724  0.3329 -0.4842
 6243SOL    HW324739   4.508   4.833   2.151 -0.0007  0.5260 -0.8920
 6243SOL    MW424740   4.502   4.785   2.079 -0.0454  0.2235 -0.6854
 6244SOL     OW24741   6.020   6.284   3.071  0.2195 -0.3860  0.0632
 6244SOL    HW224742   5.980   6.308   2.987  0.9949 -0.7160 -0.4150
 6244SOL    HW324743   6.018   6.188   3.072 -1.8039 -0.3923  1.4397
 6244SOL    MW424744   6.015   6.274   3.060  0.0549 -0.4304  0.1817
 6245SOL     OW24745   1.984   5.056   1.527 -0.1517  0.5218 -0.5457
 6245SOL    HW224746   1.901   5.038   1.570  0.6480  0.1550  0.9248
 6245SOL    HW324747   2.042   4.985   1.555  1.2815  1.9463  0.3002
 6245SOL    MW424748   1.981   5.044   1.536  0.1429  0.6613 -0.2401
 6246SOL     OW24749   4.685   5.118   3.427  0.0287  0.2268 -0.3538
 6246SOL    HW224750   4.641   5.179   3.368 -0.2788  0.4413  0.0911
 6246SOL    HW324751   4.664   5.150   3.515 -0.9753 -1.0717 -0.0778
 6246SOL    MW424752   4.676   5.130   3.431 -0.1443  0.0838 -0.2587
 6247SOL     OW24753   0.980   3.782   0.831  0.2287 -0.0461 -0.2185
 6247SOL    HW224754   1.042   3.844   0.792 -2.0610  2.3681 -0.3334
 6247SOL    HW324755   0.957   3.820   0.916 -1.8345 -0.2530 -0.6184
 6247SOL    MW424756   0.985   3.795   0.837 -0.3456  0.2451 -0.2864
 6248SOL     OW24757   0.098   0.443   3.541 -0.1809  0.0363 -0.2871
 6248SOL    HW224758   0.131   0.439   3.631  0.9923  0.3152 -0.6894
 6248SOL    HW324759   0.177   0.442   3.487 -0.8787 -0.2491 -1.3228
 6248SOL    MW424760   0.113   0.442   3.546 -0.1182  0.0354 -0.4768
 6249SOL     OW24761   1.227   6.347   5.797 -0.3849  0.9531  0.0147
 6249SOL    HW224762   1.302   6.305   5.754  0.2307  1.2535  0.7762
 6249SOL    HW324763   1.219   6.301   5.881  0.5336  2.5591  1.0296
 6249SOL    MW424764   1.236   6.335   5.803 -0.1825  1.2046  0.2490
 6250SOL     OW24765   4.141   0.501   3.546 -0.5798 -0.3221  0.2273
 6250SOL    HW224766   4.193   0.531   3.620  0.1045 -0.4367 -0.2040
 6250SOL    HW324767   4.081   0.437   3.584  1.3087 -2.1162  0.3242
 6250SOL    MW424768   4.140   0.497   3.561 -0.2404 -0.5739  0.1832
 6251SOL     OW24769   3.937   2.885   0.608  0.1721  0.2135  0.5626
 6251SOL    HW224770   3.971   2.795   0.607  0.1767  0.2117  0.7727
 6251SOL    HW324771   3.893   2.892   0.693  1.1888  0.7934  1.0620
 6251SOL    MW424772   3.936   2.874   0.619  0.3068  0.2898  0.6562
 6252SOL     OW24773   2.314   2.342   5.622  0.0989  0.7567  0.1176
 6252SOL    HW224774   2.315   2.316   5.714  1.4353  0.7687  0.1231
 6252SOL    HW324775   2.340   2.263   5.574  0.6806  1.1000 -0.1428
 6252SOL    MW424776   2.317   2.328   5.627  0.3520  0.8036  0.0839
 6253SOL     OW24777   0.534   5.669   2.803  0.2963  0.7688 -0.2384
 6253SOL    HW224778   0.474   5.735   2.836 -0.5275 -0.8474  1.6619
 6253SOL    HW324779   0.621   5.703   2.824 -0.0776  1.5942 -0.0082
 6253SOL    MW424780   0.538   5.682   2.810  0.1383  0.6645  0.0427
 6254SOL     OW24781   3.301   1.425   3.412 -0.2202 -0.0395  0.1165
 6254SOL    HW224782   3.270   1.513   3.432  1.0132  0.7464 -1.2668
 6254SOL    HW324783   3.365   1.406   3.481 -0.4317  0.1648  0.3723
 6254SOL    MW424784   3.305   1.434   3.424 -0.0853  0.0911 -0.0323
 6255SOL     OW24785   5.563   6.056   2.820  0.1979 -0.3077 -0.1993
 6255SOL    HW224786   5.586   6.098   2.902  1.5909  0.0231 -0.7364
 6255SOL    HW324787   5.612   6.104   2.753  0.0504 -1.3398 -1.0886
 6255SOL    MW424788   5.573   6.068   2.822  0.3622 -0.4003 -0.3875
 6256SOL     OW24789   4.468   5.150   1.511  0.3417  0.2195 -0.0485
 6256SOL    HW224790   4.381   5.119   1.535 -0.2490  1.5710 -0.3480
 6256SOL    HW324791   4.495   5.093   1.439  0.4014 -1.2211  1.0731
 6256SOL    MW424792   4.460   5.139   1.504  0.2717  0.2078  0.0599
 6257SOL     OW24793   4.865   0.028   4.298  0.3871 -0.0423  0.1048
 6257SOL    HW224794   4.826   0.106   4.260  0.1452 -1.0907 -1.9095
 6257SOL    HW324795   4.797  -0.039   4.290  1.2241 -0.9125  0.1646
 6257SOL    MW424796   4.851   0.030   4.292  0.4656 -0.2954 -0.1531
 6258SOL     OW24797   1.311   1.658   5.990  0.1507 -0.0680  0.2364
 6258SOL    HW224798   1.367   1.671   5.914  0.0670 -1.0602 -0.0162
 6258SOL    HW324799   1.291   1.564   5.989  1.1427 -0.3505  2.1815
 6258SOL    MW424800   1.315   1.647   5.980  0.2706 -0.2362  0.4597
 6259SOL     OW24801   6.273   5.727   3.152 -0.5191  0.5276 -0.1585
 6259SOL    HW224802   6.254   5.707   3.060  0.4782 -0.3321 -0.1905
 6259SOL    HW324803   6.189   5.758   3.187 -1.5421 -1.3891 -0.7633
 6259SOL    MW424804   6.259   5.728   3.145 -0.5225  0.1613 -0.2425
 6260SOL     OW24805   3.866   4.095   1.273  0.2065  0.6520  0.7892
 6260SOL    HW224806   3.815   4.167   1.312  0.9905  1.3216  0.6007
 6260SOL    HW324807   3.892   4.128   1.187 -0.4448 -0.3370  0.1945
 6260SOL    MW424808   3.863   4.109   1.267  0.2240  0.6098  0.6858
 6261SOL     OW24809   2.974   1.977   1.918  0.1670  0.3031 -0.2620
 6261SOL    HW224810   2.997   2.051   1.862 -0.9384  1.3632  0.6388
 6261SOL    HW324811   2.953   2.016   2.003  0.8938 -1.1816  0.6483
 6261SOL    MW424812   2.974   1.992   1.922  0.1171  0.2471 -0.0230
 6262SOL     OW24813   5.843   0.463   5.935  0.2267  0.4593  0.0056
 6262SOL    HW224814   5.910   0.531   5.941  2.4695 -1.4581 -1.4956
 6262SOL    HW324815   5.865   0.402   6.006  0.5261 -0.5175 -0.8974
 6262SOL    MW424816   5.855   0.464   5.945  0.5621  0.0774 -0.3116
 6263SOL     OW24817   4.299   3.263   1.478  0.3288  0.1618  0.2240
 6263SOL    HW224818   4.309   3.235   1.387  2.3869  0.4982  0.2941
 6263SOL    HW324819   4.331   3.190   1.530  3.6368  1.5954  0.4678
 6263SOL    MW424820   4.305   3.250   1.473  1.0368  0.3954  0.2654
 6264SOL     OW24821   3.132   1.443   0.557 -0.3007  0.0871  0.0647
 6264SOL    HW224822   3.072   1.435   0.483 -0.8132 -1.7299  0.6376
 6264SOL    HW324823   3.202   1.501   0.525 -1.7543  1.3498 -0.9793
 6264SOL    MW424824   3.134   1.450   0.543 -0.5601  0.0140  0.0025
 6265SOL     OW24825   1.009   2.833   4.625  0.4960  0.2238  0.4280
 6265SOL    HW224826   1.009   2.738   4.613  0.0552  0.2248  0.4271
 6265SOL    HW324827   1.097   2.860   4.598  1.0750 -0.3440  1.6586
 6265SOL    MW424828   1.021   2.824   4.620  0.5142  0.1490  0.5902
 6266SOL     OW24829   0.543   2.271   3.010 -0.0906  0.0563  0.2354
 6266SOL    HW224830   0.637   2.289   3.011 -0.0678  0.1940 -1.2559
 6266SOL    HW324831   0.503   2.347   3.052  0.5529 -0.9818  2.8942
 6266SOL    MW424832   0.550   2.283   3.016 -0.0027 -0.0625  0.3894
 6267SOL     OW24833   3.087   3.079   4.234  0.5658  0.3108  0.1978
 6267SOL    HW224834   2.992   3.082   4.235  0.5607  1.0259  2.2772
 6267SOL    HW324835   3.109   3.001   4.285  1.1152  0.4343  0.1558
 6267SOL    MW424836   3.078   3.069   4.240  0.6376  0.4215  0.4666
 6268SOL     OW24837   2.941   0.566   4.638 -0.2765  0.2610  0.0848
 6268SOL    HW224838   2.906   0.644   4.595 -1.0584  0.3471  0.8533
 6268SOL    HW324839   2.996   0.601   4.709  2.3136  0.1616 -1.7319
 6268SOL    MW424840   2.944   0.581   4.642 -0.0380  0.2593 -0.0535
 6269SOL     OW24841   0.868   0.998   2.740  0.1346  0.3081  0.4431
 6269SOL    HW224842   0.916   0.917   2.760  0.2102 -0.0999 -1.2240
 6269SOL    HW324843   0.915   1.067   2.787  1.4853 -0.2929 -0.0051
 6269SOL    MW424844   0.880   0.996   2.749  0.3228  0.1750  0.1640
 6270SOL     OW24845   2.431   2.446   2.010 -0.9398  0.8305 -0.4354
 6270SOL    HW224846   2.466   2.466   2.097 -1.2219  0.6239 -0.2738
 6270SOL    HW324847   2.505   2.410   1.962 -1.5269 -2.3848  0.7903
 6270SOL    MW424848   2.445   2.444   2.015 -1.0545  0.3790 -0.2524
 6271SOL     OW24849   5.163   3.703   5.914  0.5608  0.9858 -0.0110
 6271SOL    HW224850   5.257   3.724   5.913  0.7295  0.2601  0.4398
 6271SOL    HW324851   5.133   3.733   6.000  1.1052 -1.8135  1.2586
 6271SOL    MW424852   5.172   3.710   5.925  0.6549  0.5207  0.2160
 6272SOL     OW24853   1.756   2.939   3.501  0.7346  0.0017  0.1934
 6272SOL    HW224854   1.767   2.912   3.409 -0.6905 -0.4107  0.1137
 6272SOL    HW324855   1.698   2.872   3.538  0.6603  0.5970  1.1815
 6272SOL    MW424856   1.749   2.926   3.494  0.5368  0.0259  0.3132
 6273SOL     OW24857   2.766   5.343   0.157  0.3737  0.1857 -0.1085
 6273SOL    HW224858   2.727   5.367   0.073  1.0180 -0.8726 -0.7198
 6273SOL    HW324859   2.692   5.314   0.210 -0.1658  1.6864  0.0251
 6273SOL    MW424860   2.751   5.342   0.153  0.3875  0.2441 -0.1715
 6274SOL     OW24861   0.627   2.268   4.567 -0.0303  0.5709 -0.1254
 6274SOL    HW224862   0.549   2.302   4.611  0.3602 -1.2003  2.1941
 6274SOL    HW324863   0.625   2.174   4.587  1.8982  0.2345 -1.3140
 6274SOL    MW424864   0.617   2.260   4.576  0.2757  0.2928  0.0238
 6275SOL     OW24865   3.137   2.116   0.211  0.1574  0.2007  0.1934
 6275SOL    HW224866   3.100   2.204   0.216 -0.4548 -0.0675  0.6520
 6275SOL    HW324867   3.085   2.065   0.274  1.1550 -0.2577  0.6739
 6275SOL    MW424868   3.125   2.121   0.220  0.2082  0.1048  0.3173
 6276SOL     OW24869   1.710   2.988   1.759  0.3192  0.3405  0.1388
 6276SOL    HW224870   1.759   2.919   1.714 -0.2243 -1.2091  1.7937
 6276SOL    HW324871   1.777   3.051   1.786  0.7919  0.6448 -1.6436
 6276SOL    MW424872   1.725   2.987   1.757  0.3099  0.1762  0.1220
 6277SOL     OW24873   3.891   3.144   2.312  0.1411 -0.5243 -0.3694
 6277SOL    HW224874   3.894   3.087   2.389 -0.4595 -1.9094 -1.3269
 6277SOL    HW324875   3.809   3.192   2.321 -0.0285 -0.8341 -0.2370
 6277SOL    MW424876   3.880   3.143   2.324  0.0395 -0.7479 -0.4783
 6278SOL     OW24877   4.307   6.190   3.896  0.0096 -0.4075  0.1221
 6278SOL    HW224878   4.299   6.095   3.904 -1.0969 -0.4282 -0.9652
 6278SOL    HW324879   4.217   6.221   3.883  0.0279  1.0632  2.7302
 6278SOL    MW424880   4.294   6.182   3.896 -0.1340 -0.2162  0.3227
 6279SOL     OW24881   5.818   3.432   0.968  0.0294 -0.3731  0.6186
 6279SOL    HW224882   5.903   3.404   0.935 -0.6478 -0.6524 -1.0175
 6279SOL    HW324883   5.776   3.351   0.997  0.4523 -0.1831  1.8259
 6279SOL    MW424884   5.824   3.417   0.967 -0.0042 -0.3849  0.5620
 6280SOL     OW24885   6.399   3.769   3.958  0.2272  0.3208  0.2622
 6280SOL    HW224886   6.425   3.854   3.921 -3.0767  1.2005 -0.3021
 6280SOL    HW324887   6.365   3.791   4.045  0.0491 -0.5498  0.4202
 6280SOL    MW424888   6.398   3.783   3.965 -0.2322  0.3220  0.2086
 6281SOL     OW24889   6.260   1.872   1.118 -0.3413  0.2210  0.1178
 6281SOL    HW224890   6.332   1.871   1.182 -0.0381 -1.0087 -0.2126
 6281SOL    HW324891   6.205   1.798   1.145  0.4518 -1.1276 -1.7448
 6281SOL    MW424892   6.263   1.862   1.130 -0.1966 -0.1192 -0.1716
 6282SOL     OW24893   4.562   4.357   1.341 -0.3209 -0.0400 -0.1466
 6282SOL    HW224894   4.506   4.363   1.418 -1.8238  0.1424 -1.1989
 6282SOL    HW324895   4.562   4.445   1.304 -0.2974 -0.2974 -0.7882
 6282SOL    MW424896   4.554   4.369   1.346 -0.5161 -0.0499 -0.3701
 6283SOL     OW24897   4.048   5.939   0.306 -0.3145  0.1264  0.1988
 6283SOL    HW224898   3.955   5.949   0.330 -0.9620  0.5305 -2.2082
 6283SOL    HW324899   4.069   6.019   0.258  0.7325 -0.7504 -0.8742
 6283SOL    MW424900   4.038   5.951   0.303 -0.2618  0.0641 -0.2603
 6284SOL     OW24901   0.871   1.503   1.906  0.5288  0.4262  0.5074
 6284SOL    HW224902   0.838   1.413   1.909 -1.2584  0.8953 -1.7487
 6284SOL    HW324903   0.797   1.555   1.873  1.9800  2.4638  0.2140
 6284SOL    MW424904   0.857   1.498   1.902  0.4845  0.7570  0.1710
 6285SOL     OW24905   1.358   5.003   5.201 -0.2404  0.1651 -0.4433
 6285SOL    HW224906   1.271   5.011   5.160  0.9029 -1.0960 -3.3783
 6285SOL    HW324907   1.371   4.909   5.211  1.0836  0.3040 -0.7461
 6285SOL    MW424908   1.348   4.992   5.197  0.0851  0.0170 -0.8705
 6286SOL     OW24909   1.789   5.876   1.989  0.1603 -0.1552  0.2124
 6286SOL    HW224910   1.721   5.890   2.055  0.1110 -0.8195  0.3129
 6286SOL    HW324911   1.772   5.943   1.923  0.1116  0.4093  0.7941
 6286SOL    MW424912   1.777   5.886   1.989  0.1474 -0.1684  0.3024
 6287SOL     OW24913   2.145   5.508   1.618  0.6937  0.1606  0.2397
 6287SOL    HW224914   2.144   5.412   1.612  1.9025  0.1964 -1.9714
 6287SOL    HW324915   2.198   5.527   1.695 -0.7960 -0.9081  1.5818
 6287SOL    MW424916   2.152   5.498   1.627  0.6566  0.0243  0.1251
 6288SOL     OW24917   5.791   3.519   1.674 -0.5602 -0.0050 -0.2374
 6288SOL    HW224918   5.744   3.554   1.749  0.1916 -1.6514  1.0497
 6288SOL    HW324919   5.732   3.534   1.600 -1.5624  1.1170  0.7476
 6288SOL    MW424920   5.777   3.526   1.674 -0.5932 -0.0742  0.0623
 6289SOL     OW24921   3.968   6.180   0.505 -0.3838  0.7554 -0.1313
 6289SOL    HW224922   4.062   6.177   0.519 -0.3619 -0.7916 -0.4376
 6289SOL    HW324923   3.935   6.099   0.543 -1.6203  1.3410  0.1079
 6289SOL    MW424924   3.976   6.169   0.512 -0.5440  0.6285 -0.1401
 6290SOL     OW24925   5.767   3.873   6.289  0.4475  0.2189 -0.1699
 6290SOL    HW224926   5.813   3.906   6.212 -0.1323  1.9322  0.1774
 6290SOL    HW324927   5.678   3.856   6.258  0.1429  1.1601  0.1578
 6290SOL    MW424928   5.762   3.875   6.274  0.3308  0.5691 -0.0808
 6291SOL     OW24929   5.899   3.671   0.242  0.4200  0.6636  0.0397
 6291SOL    HW224930   5.812   3.652   0.278  0.6603 -0.8538 -0.0887
 6291SOL    HW324931   5.919   3.760   0.271 -1.3265  1.1847 -0.2507
 6291SOL    MW424932   5.890   3.680   0.251  0.2213  0.5322 -0.0156
 6292SOL     OW24933   5.113   1.934   3.436  0.6062  0.6721  0.0689
 6292SOL    HW224934   5.156   1.967   3.357  0.5279 -2.1530 -1.2995
 6292SOL    HW324935   5.027   1.904   3.406  1.1869 -1.9828  0.7903
 6292SOL    MW424936   5.107   1.934   3.422  0.6725 -0.0509 -0.0165
 6293SOL     OW24937   5.376   6.061   3.495 -0.2546  0.2134  0.3514
 6293SOL    HW224938   5.355   6.125   3.427 -0.8181  2.2346  2.3087
 6293SOL    HW324939   5.466   6.082   3.520  0.1479 -0.8917 -0.1286
 6293SOL    MW424940   5.385   6.073   3.489 -0.2759  0.3343  0.5463
 6294SOL     OW24941   4.126   3.415   0.114 -0.2047  0.1204  0.1015
 6294SOL    HW224942   4.148   3.380   0.028  0.4389  1.4229 -0.2842
 6294SOL    HW324943   4.194   3.480   0.132  0.1714 -0.7077  1.9694
 6294SOL    MW424944   4.138   3.419   0.105 -0.0702  0.1830  0.2970
 6295SOL     OW24945   5.349   1.263   2.261 -0.0883 -0.5030 -0.3891
 6295SOL    HW224946   5.276   1.227   2.211 -1.2962  1.7095 -0.3753
 6295SOL    HW324947   5.334   1.358   2.259  2.6231  0.0088 -0.0935
 6295SOL    MW424948   5.338   1.271   2.254  0.1101 -0.1435 -0.3483
 6296SOL     OW24949   5.801   1.643   5.243 -0.2264 -0.3620 -0.4492
 6296SOL    HW224950   5.870   1.579   5.264 -0.7824 -1.1260 -0.9177
 6296SOL    HW324951   5.779   1.682   5.328 -1.6308 -2.5879  0.3133
 6296SOL    MW424952   5.807   1.639   5.257 -0.4850 -0.7565 -0.4104
 6297SOL     OW24953   5.726   4.254   5.206 -0.1310  0.5971 -0.2315
 6297SOL    HW224954   5.634   4.266   5.183 -0.2399 -0.1010 -0.1764
 6297SOL    HW324955   5.724   4.195   5.282  0.4331 -0.8804 -1.3304
 6297SOL    MW424956   5.714   4.248   5.213 -0.0710  0.3101 -0.3692
 6298SOL     OW24957   0.559   5.623   4.450  0.5129 -0.2450  0.2147
 6298SOL    HW224958   0.611   5.576   4.515  0.2359 -0.9706 -0.0814
 6298SOL    HW324959   0.614   5.696   4.423  0.0992  0.9651  2.3214
 6298SOL    MW424960   0.573   5.626   4.455  0.4217 -0.1811  0.4536
 6299SOL     OW24961   0.503   2.932   3.005 -0.3506 -0.2589 -0.1298
 6299SOL    HW224962   0.408   2.934   2.991 -0.2677 -0.7412 -0.8226
 6299SOL    HW324963   0.529   3.024   3.013 -0.8850 -0.1277  0.1096
 6299SOL    MW424964   0.494   2.944   3.004 -0.4102 -0.3052 -0.1896
 6300SOL     OW24965   0.990   1.433   1.650  0.3002  0.2244  0.1327
 6300SOL    HW224966   0.931   1.448   1.724 -0.0806 -0.1677 -0.0815
 6300SOL    HW324967   1.075   1.417   1.690 -0.0646 -0.7944  0.5415
 6300SOL    MW424968   0.993   1.433   1.665  0.2018  0.0382  0.1584
 6301SOL     OW24969   4.304   4.946   3.539 -0.3883  0.3364 -0.5439
 6301SOL    HW224970   4.257   5.015   3.493 -0.1201 -0.4215 -2.0490
 6301SOL    HW324971   4.371   4.918   3.476 -0.9240 -1.7442 -0.2723
 6301SOL    MW424972   4.307   4.951   3.525 -0.4236 -0.0381 -0.7066
 6302SOL     OW24973   0.618   0.567   6.322  0.3709  0.4892 -0.0690
 6302SOL    HW224974   0.542   0.521   6.286  0.8415 -0.7569  0.4641
 6302SOL    HW324975   0.684   0.561   6.253  0.5568  0.0091  0.1445
 6302SOL    MW424976   0.617   0.560   6.308  0.4575  0.2615  0.0295
 6303SOL     OW24977   0.961   0.559   5.696 -0.0042 -0.7081 -0.0360
 6303SOL    HW224978   1.029   0.555   5.764 -1.3680  0.2357  1.4551
 6303SOL    HW324979   0.882   0.525   5.739 -1.6629  2.6683 -0.0513
 6303SOL    MW424980   0.960   0.554   5.711 -0.4029 -0.1381  0.1587
 6304SOL     OW24981   2.232   1.412   1.431 -0.5194 -0.0380  0.3056
 6304SOL    HW224982   2.157   1.354   1.419  0.0298 -0.8394  0.6039
 6304SOL    HW324983   2.224   1.478   1.362 -2.3787  0.8787  1.3242
 6304SOL    MW424984   2.221   1.413   1.420 -0.6923 -0.0228  0.4793
 6305SOL     OW24985   0.901   4.417   6.417  0.3407  0.0666  0.7034
 6305SOL    HW224986   0.826   4.406   6.359  0.1388  0.2186  0.9344
 6305SOL    HW324987   0.867   4.466   6.492  0.9058  1.0366  0.3429
 6305SOL    MW424988   0.887   4.422   6.419  0.3886  0.2147  0.6863
 6306SOL     OW24989   6.014   3.954   3.261  0.2241  0.3210 -0.1020
 6306SOL    HW224990   6.085   4.016   3.245 -0.8322  1.5336 -0.2362
 6306SOL    HW324991   5.959   3.959   3.183  0.2176 -0.9727 -0.2155
 6306SOL    MW424992   6.016   3.963   3.248  0.0838  0.3103 -0.1347
 6307SOL     OW24993   5.370   2.452   2.776 -0.1363 -0.0688  0.3867
 6307SOL    HW224994   5.310   2.484   2.844  0.2222 -1.1360  1.2316
 6307SOL    HW324995   5.318   2.455   2.695 -2.2013 -3.0842  1.4254
 6307SOL    MW424996   5.355   2.456   2.774 -0.3614 -0.6074  0.6352
 6308SOL     OW24997   4.674   4.431   1.949  0.0731  0.1361 -0.1057
 6308SOL    HW224998   4.725   4.479   2.014  0.4210  0.8961 -0.9193
 6308SOL    HW324999   4.681   4.483   1.870 -1.4330 -0.0908 -0.4166
 6308SOL    MW425000   4.682   4.444   1.947 -0.0797  0.2065 -0.2540
 6309SOL     OW25001   3.336   3.548   3.875  1.2340 -0.0692 -0.2237
 6309SOL    HW225002   3.338   3.507   3.788 -0.3095  1.0373 -0.8265
 6309SOL    HW325003   3.356   3.640   3.858  0.1946  0.2994  0.4805
 6309SOL    MW425004   3.339   3.555   3.861  0.8932  0.1254 -0.2103
 6310SOL     OW25005   3.959   6.137   4.740  0.2406  0.5989 -0.5787
 6310SOL    HW225006   3.934   6.205   4.802 -2.2513 -0.3098 -0.4657
 6310SOL    HW325007   4.013   6.077   4.791 -1.2783  0.1719  0.6020
 6310SOL    MW425008   3.962   6.138   4.755 -0.2886  0.4227 -0.4080
 6311SOL     OW25009   3.442   6.289   2.564 -0.4695 -0.6330 -0.2770
 6311SOL    HW225010   3.500   6.364   2.574 -0.0655 -0.6284 -2.2301
 6311SOL    HW325011   3.367   6.322   2.515 -1.4250 -0.9875  0.9105
 6311SOL    MW425012   3.440   6.303   2.558 -0.5423 -0.6792 -0.3780
 6312SOL     OW25013   2.922   4.561   0.606 -0.0650 -0.4096  0.3133
 6312SOL    HW225014   2.856   4.493   0.594 -0.7406  0.0462  1.2286
 6312SOL    HW325015   2.974   4.531   0.681  1.6376 -1.3951 -1.1894
 6312SOL    MW425016   2.920   4.548   0.614  0.0705 -0.4795  0.2358
 6313SOL     OW25017   5.981   2.388   4.631 -0.3449  0.0606  0.4392
 6313SOL    HW225018   6.002   2.326   4.561 -0.5544  1.1964 -0.6572
 6313SOL    HW325019   5.892   2.365   4.658 -1.0239  0.8278 -1.0331
 6313SOL    MW425020   5.972   2.377   4.626 -0.4621  0.3117  0.1003
 6314SOL     OW25021   3.051   5.439   4.241  0.5855 -0.3785  0.0509
 6314SOL    HW225022   3.018   5.485   4.318  1.7107 -0.0308  0.3362
 6314SOL    HW325023   2.973   5.426   4.186 -0.1811 -0.4407  1.1365
 6314SOL    MW425024   3.036   5.444   4.244  0.6328 -0.3408  0.2318
 6315SOL     OW25025   3.538   0.573   6.236 -0.4755  0.1294 -0.1590
 6315SOL    HW225026   3.489   0.507   6.286 -1.9532  0.3921 -1.1783
 6315SOL    HW325027   3.609   0.599   6.293 -0.0849 -2.0602  0.4332
 6315SOL    MW425028   3.541   0.567   6.250 -0.6189 -0.1249 -0.2153
 6316SOL     OW25029   5.041   2.495   1.769 -0.1804 -0.1335 -0.0572
 6316SOL    HW225030   4.991   2.416   1.751 -0.8012  0.1889  0.2272
 6316SOL    HW325031   5.097   2.471   1.843  0.9069 -0.8301 -1.0706
 6316SOL    MW425032   5.042   2.481   1.777 -0.1189 -0.1829 -0.1534
 6317SOL     OW25033   0.386   4.086   3.981  0.1157  0.4257 -0.1801
 6317SOL    HW225034   0.436   4.155   4.025 -0.3368  0.0256  1.0018
 6317SOL    HW325035   0.295   4.104   4.003 -0.0546 -0.2328 -0.3245
 6317SOL    MW425036   0.381   4.097   3.990  0.0335  0.2860 -0.0432
 6318SOL     OW25037   5.579   0.689   6.381 -0.2605  0.5515  0.0776
 6318SOL    HW225038   5.494   0.679   6.337 -0.0883  2.5613 -0.7842
 6318SOL    HW325039   5.561   0.746   6.455  0.4105  1.3230 -0.3469
 6318SOL    MW425040   5.565   0.695   6.385 -0.1493  0.9184 -0.0921
 6319SOL     OW25041   0.889   5.221   3.387  0.3037  0.4836 -0.0714
 6319SOL    HW225042   0.866   5.135   3.352  0.3964  1.0057 -1.4884
 6319SOL    HW325043   0.821   5.240   3.451  0.3834 -0.7130  0.3918
 6319SOL    MW425044   0.877   5.212   3.391  0.3264  0.3946 -0.1973
 6320SOL     OW25045   6.134   4.995   4.126  0.3548 -0.1151  0.3083
 6320SOL    HW225046   6.230   4.999   4.119  0.3776  2.1297  1.1841
 6320SOL    HW325047   6.117   5.000   4.220 -0.6277 -2.2964  0.2984
 6320SOL    MW425048   6.145   4.996   4.138  0.2282 -0.1067  0.4226
 6321SOL     OW25049   3.162   4.577   6.289 -0.2236  0.5319 -0.2640
 6321SOL    HW225050   3.213   4.500   6.263 -1.0351 -0.3180  0.5658
 6321SOL    HW325051   3.159   4.573   6.384 -2.6853 -0.0442 -0.3154
 6321SOL    MW425052   3.168   4.566   6.298 -0.6555  0.3438 -0.1613
 6322SOL     OW25053   6.019   4.845   2.938 -0.0020  0.1138  0.4206
 6322SOL    HW225054   5.948   4.792   2.902 -0.9719  3.1479 -2.7920
 6322SOL    HW325055   5.988   4.870   3.026 -0.5094 -2.5852  1.0933
 6322SOL    MW425056   6.006   4.842   2.945 -0.1969  0.1580  0.0855
 6323SOL     OW25057   5.445   0.995   3.188  0.0699 -0.3906 -0.2661
 6323SOL    HW225058   5.497   0.989   3.107  1.1605 -1.3246  0.4683
 6323SOL    HW325059   5.431   1.089   3.200  1.7393 -0.0893 -0.4187
 6323SOL    MW425060   5.450   1.006   3.179  0.4340 -0.4741 -0.1893
 6324SOL     OW25061   2.562   3.644   0.213  0.2132 -0.1067  0.3723
 6324SOL    HW225062   2.597   3.681   0.294 -1.1134 -0.4312  1.1213
 6324SOL    HW325063   2.468   3.638   0.228 -0.1019  0.0556 -1.2929
 6324SOL    MW425064   2.554   3.648   0.226 -0.0034 -0.1281  0.2514
 6325SOL     OW25065   1.958   4.673   3.384  0.3398  0.0752  0.1705
 6325SOL    HW225066   2.034   4.704   3.336 -0.5997  1.4933 -0.4798
 6325SOL    HW325067   1.891   4.741   3.369 -0.7206 -0.6246  1.5448
 6325SOL    MW425068   1.959   4.686   3.375  0.0759  0.1700  0.2660
 6326SOL     OW25069   2.350   1.861   4.371 -0.1827 -0.2880  0.0337
 6326SOL    HW225070   2.422   1.922   4.358  0.3569 -0.5375  1.5845
 6326SOL    HW325071   2.370   1.818   4.454 -1.3047 -1.5215 -0.3027
 6326SOL    MW425072   2.362   1.863   4.381 -0.2595 -0.4837  0.1939
 6327SOL     OW25073   1.013   5.856   3.229 -0.0865  0.5724 -0.5565
 6327SOL    HW225074   1.065   5.916   3.282  1.3876 -1.0814 -0.0295
 6327SOL    HW325075   0.923   5.868   3.261  0.3869  1.4393  0.5219
 6327SOL    MW425076   1.008   5.866   3.241  0.1705  0.4686 -0.3447
 6328SOL     OW25077   5.046   5.299   3.278 -0.8299  0.0963 -0.4630
 6328SOL    HW225078   5.015   5.343   3.199 -1.6569  0.7327  0.1882
 6328SOL    HW325079   5.127   5.346   3.301 -0.3126 -0.4134 -1.1841
 6328SOL    MW425080   5.053   5.311   3.271 -0.8707  0.1130 -0.4722
 6329SOL     OW25081   1.465   1.595   4.625  0.2549 -0.3698 -0.0071
 6329SOL    HW225082   1.388   1.542   4.603 -0.4053  0.8285 -0.6993
 6329SOL    HW325083   1.440   1.642   4.704  1.2519 -1.8771  1.2535
 6329SOL    MW425084   1.452   1.594   4.632  0.2993 -0.4106  0.0679
 6330SOL     OW25085   1.360   3.279   5.515 -0.2385 -0.4078  0.4158
 6330SOL    HW225086   1.284   3.283   5.456 -0.9226 -0.8440  1.2468
 6330SOL    HW325087   1.381   3.186   5.521 -0.7229 -0.4596  1.5267
 6330SOL    MW425088   1.353   3.268   5.508 -0.3927 -0.4722  0.6720
 6331SOL     OW25089   5.189   0.289   2.148 -0.2127  0.6873 -0.0565
 6331SOL    HW225090   5.188   0.378   2.114 -0.7786  0.5759 -0.3361
 6331SOL    HW325091   5.100   0.256   2.133 -0.7421  0.9159  2.2824
 6331SOL    MW425092   5.177   0.297   2.142 -0.3572  0.7028  0.2152
 6332SOL     OW25093   1.395   1.207   4.846  0.1228 -0.1008  0.3371
 6332SOL    HW225094   1.334   1.193   4.919  0.7293 -2.7898  0.4437
 6332SOL    HW325095   1.479   1.224   4.888  0.0014  0.8785  0.2079
 6332SOL    MW425096   1.398   1.207   4.861  0.1868 -0.3264  0.3341
 6333SOL     OW25097   0.477   5.562   2.219 -0.0916 -0.3452 -0.5504
 6333SOL    HW225098   0.518   5.550   2.305  1.4673 -2.5630 -1.4966
 6333SOL    HW325099   0.540   5.614   2.169 -0.6868  0.3669 -0.5730
 6333SOL    MW425100   0.490   5.567   2.224  0.0355 -0.5439 -0.6783
 6334SOL     OW25101   1.413   6.041   3.283  0.0901  0.0106 -0.5667
 6334SOL    HW225102   1.412   6.131   3.249  0.2301  0.5153  0.7286
 6334SOL    HW325103   1.338   6.036   3.342 -0.4514 -1.0173 -1.3026
 6334SOL    MW425104   1.403   6.052   3.286  0.0371 -0.0584 -0.4929
 6335SOL     OW25105   3.300   1.165   1.071  0.0910  0.1480 -0.5061
 6335SOL    HW225106   3.389   1.141   1.046  0.2072 -1.5786  1.3410
 6335SOL    HW325107   3.248   1.151   0.992  1.1510 -0.6327 -1.0847
 6335SOL    MW425108   3.305   1.160   1.058  0.2462 -0.1828 -0.3387
 6336SOL     OW25109   3.881   4.909   4.321  0.1474 -0.2320  0.0491
 6336SOL    HW225110   3.826   4.975   4.362  1.6375  0.6206  0.7440
 6336SOL    HW325111   3.938   4.877   4.392  1.5774  0.0072 -0.9412
 6336SOL    MW425112   3.881   4.913   4.336  0.5326 -0.0880  0.0101
 6337SOL     OW25113   0.375   1.734   5.456 -0.3135  0.0973 -0.8309
 6337SOL    HW225114   0.282   1.737   5.434 -0.6558  0.5520  0.6294
 6337SOL    HW325115   0.392   1.816   5.503  0.0920 -1.3193  1.6512
 6337SOL    MW425116   0.365   1.745   5.459 -0.3052 -0.0296 -0.3108
 6338SOL     OW25117   3.358   2.100   5.175  0.5318  0.5800 -0.1535
 6338SOL    HW225118   3.410   2.163   5.125  0.5747  0.0560 -0.7805
 6338SOL    HW325119   3.423   2.053   5.229  0.5764  0.6608 -0.1371
 6338SOL    MW425120   3.374   2.102   5.176  0.5433  0.5215 -0.2340
 6339SOL     OW25121   5.402   4.096   0.448 -0.4661 -0.1438  0.1882
 6339SOL    HW225122   5.416   4.190   0.457 -1.0950 -0.1700  1.8000
 6339SOL    HW325123   5.489   4.060   0.430 -0.0366  0.6501  0.6282
 6339SOL    MW425124   5.415   4.104   0.447 -0.4924 -0.0425  0.4589
 6340SOL     OW25125   0.043   3.123   2.527 -0.3130  0.0796 -0.8283
 6340SOL    HW225126   0.072   3.087   2.443  0.5520 -0.9599 -0.1107
 6340SOL    HW325127   0.100   3.199   2.541  1.5712 -1.4442  0.1615
 6340SOL    MW425128   0.055   3.128   2.517  0.0497 -0.2586 -0.6030
 6341SOL     OW25129   0.449   0.216   4.628  0.0916 -0.4859 -0.2264
 6341SOL    HW225130   0.361   0.180   4.615 -1.3341  1.9581  1.8545
 6341SOL    HW325131   0.465   0.207   4.722  1.6664  0.0363 -0.4117
 6341SOL    MW425132   0.439   0.210   4.639  0.1112 -0.0946  0.0237
 6342SOL     OW25133   0.137   6.264   5.728 -0.1653 -0.0352  0.3494
 6342SOL    HW225134   0.121   6.220   5.811 -0.8548  0.0785  0.2773
 6342SOL    HW325135   0.050   6.283   5.693  0.0920 -0.7568 -0.7543
 6342SOL    MW425136   0.124   6.260   5.734 -0.2223 -0.1154  0.1943
 6343SOL     OW25137   1.929   3.538   2.050 -0.4210  0.8738 -0.1363
 6343SOL    HW225138   1.960   3.448   2.065 -1.0055  0.7518  0.4095
 6343SOL    HW325139   1.851   3.545   2.106 -0.7285  1.5229 -0.6435
 6343SOL    MW425140   1.923   3.527   2.060 -0.5387  0.9433 -0.1312
 6344SOL     OW25141   5.982   4.970   5.783 -0.1207  0.0659 -0.2498
 6344SOL    HW225142   6.075   4.967   5.806  0.2595 -0.3692 -1.7313
 6344SOL    HW325143   5.958   5.062   5.793  0.8815  0.4647 -1.2978
 6344SOL    MW425144   5.991   4.982   5.787  0.0617  0.0611 -0.5836
 6345SOL     OW25145   2.231   0.213   2.831  0.0342 -0.4620 -0.0272
 6345SOL    HW225146   2.240   0.307   2.820  2.2330 -0.5643  0.4648
 6345SOL    HW325147   2.254   0.176   2.746 -1.1220 -0.5817 -0.3110
 6345SOL    MW425148   2.235   0.220   2.819  0.1718 -0.4913  0.0003
 6346SOL     OW25149   5.073   1.442   3.815 -0.4623 -0.6988  0.1744
 6346SOL    HW225150   5.018   1.440   3.893 -1.7994 -0.6161 -0.7424
 6346SOL    HW325151   5.046   1.366   3.764 -0.4062 -0.1096 -0.7482
 6346SOL    MW425152   5.062   1.432   3.818 -0.6313 -0.6102 -0.0683
 6347SOL     OW25153   2.590   0.256   4.684 -0.6113  0.2392 -0.2163
 6347SOL    HW225154   2.587   0.338   4.733 -1.2399 -0.4430  0.9427
 6347SOL    HW325155   2.537   0.272   4.606  1.2211  1.6641 -1.2551
 6347SOL    MW425156   2.582   0.269   4.680 -0.4525  0.3372 -0.2005
 6348SOL     OW25157   1.795   3.911   1.919 -0.4989 -0.4966 -0.0808
 6348SOL    HW225158   1.711   3.957   1.918 -1.4043 -2.0387  0.5833
 6348SOL    HW325159   1.811   3.891   2.012  0.0309 -1.1888 -0.3058
 6348SOL    MW425160   1.786   3.914   1.931 -0.5485 -0.7914 -0.0228
 6349SOL     OW25161   1.642   5.182   0.877 -0.6009 -0.3023 -0.5832
 6349SOL    HW225162   1.721   5.237   0.884 -1.2838  0.5023  4.2557
 6349SOL    HW325163   1.570   5.245   0.871 -1.1081 -0.8985 -0.8678
 6349SOL    MW425164   1.643   5.198   0.877 -0.7579 -0.2748  0.0177
 6350SOL     OW25165   3.408   0.502   4.713 -0.1197  0.5818  0.2083
 6350SOL    HW225166   3.501   0.502   4.739  0.5832 -1.8338 -1.8963
 6350SOL    HW325167   3.364   0.450   4.780  0.0547  1.4811  1.0517
 6350SOL    MW425168   3.415   0.495   4.725 -0.0040  0.3817  0.0419
 6351SOL     OW25169   1.083   0.257   4.486  0.0526 -0.5935 -0.0633
 6351SOL    HW225170   1.040   0.286   4.405 -0.7050 -2.1501 -0.2624
 6351SOL    HW325171   1.036   0.303   4.556 -1.0366 -1.2006 -0.3676
 6351SOL    MW425172   1.071   0.267   4.484 -0.1910 -0.8790 -0.1297
 6352SOL     OW25173   6.219   0.037   3.257  0.4324  0.6753 -0.1852
 6352SOL    HW225174   6.146  -0.002   3.209  0.2899  1.9568 -1.0746
 6352SOL    HW325175   6.290   0.044   3.192  1.6305 -1.1911  0.8358
 6352SOL    MW425176   6.219   0.033   3.242  0.5717  0.5982 -0.1678
 6353SOL     OW25177   1.652   5.971   3.407  0.0781  0.0293  0.3090
 6353SOL    HW225178   1.716   6.041   3.412  0.1579  0.0155 -0.3966
 6353SOL    HW325179   1.586   6.003   3.345 -0.1939 -0.2731  0.4381
 6353SOL    MW425180   1.652   5.984   3.399  0.0527 -0.0124  0.2329
 6354SOL     OW25181   1.513   5.413   0.140 -0.7215  0.5404 -0.9039
 6354SOL    HW225182   1.452   5.340   0.136 -0.1887 -0.0820  1.3152
 6354SOL    HW325183   1.463   5.484   0.181 -0.6452  0.8055 -1.2579
 6354SOL    MW425184   1.498   5.413   0.145 -0.6412  0.4933 -0.6578
 6355SOL     OW25185   6.418   2.678   6.345 -0.1496 -0.4980 -0.1490
 6355SOL    HW225186   6.373   2.695   6.262 -0.2636  3.2172  0.5027
 6355SOL    HW325187   6.355   2.705   6.412  1.1773 -0.1061  0.9858
 6355SOL    MW425188   6.404   2.684   6.343  0.0104  0.0439  0.0867
 6356SOL     OW25189   2.693   1.692   4.342  0.0114  0.2285 -0.0994
 6356SOL    HW225190   2.769   1.658   4.389 -0.0651  1.2521  0.8051
 6356SOL    HW325191   2.621   1.686   4.405 -0.5123 -0.1011 -0.7188
 6356SOL    MW425192   2.693   1.687   4.356 -0.0678  0.3201 -0.0618
 6357SOL     OW25193   2.693   2.717   1.651 -0.1586 -0.0735 -0.4884
 6357SOL    HW225194   2.606   2.753   1.667  0.2590  0.3581  1.0712
 6357SOL    HW325195   2.726   2.765   1.575 -1.0235  0.2251 -0.6852
 6357SOL    MW425196   2.686   2.728   1.643 -0.2176  0.0229 -0.3086
 6358SOL     OW25197   5.682   5.319   5.638  0.4576 -0.2848  0.0694
 6358SOL    HW225198   5.697   5.398   5.587 -0.0471  0.6966  1.3997
 6358SOL    HW325199   5.632   5.348   5.715 -1.6761 -2.2054 -0.4542
 6358SOL    MW425200   5.677   5.333   5.641  0.1095 -0.4087  0.1758
 6359SOL     OW25201   4.371   4.355   3.013  0.3756  0.2675  0.6668
 6359SOL    HW225202   4.453   4.315   3.042 -0.5988 -2.0788  0.3993
 6359SOL    HW325203   4.386   4.378   2.922  0.0313 -2.5018 -0.1748
 6359SOL    MW425204   4.384   4.353   3.005  0.2016 -0.4074  0.5204
 6360SOL     OW25205   0.012   4.775   1.300 -0.1804  0.4618 -0.0036
 6360SOL    HW225206   0.042   4.833   1.370  1.2546 -0.2915  0.0357
 6360SOL    HW325207   0.038   4.688   1.328 -0.5935  0.0146 -0.9536
 6360SOL    MW425208   0.019   4.772   1.313 -0.0456  0.3034 -0.1238
 6361SOL     OW25209   4.884   0.347   0.534 -0.7846 -0.2642  0.3876
 6361SOL    HW225210   4.896   0.363   0.627 -2.2662 -0.7634  0.6958
 6361SOL    HW325211   4.824   0.272   0.530 -1.7271  0.5066 -0.9491
 6361SOL    MW425212   4.878   0.339   0.546 -1.1045 -0.2284  0.2519
 6362SOL     OW25213   5.449   3.720   3.521 -0.0370 -0.4212  0.4953
 6362SOL    HW225214   5.516   3.760   3.466 -1.6457  0.8402 -0.6552
 6362SOL    HW325215   5.411   3.651   3.467 -1.9276  1.1166 -0.2784
 6362SOL    MW425216   5.453   3.716   3.507 -0.4987 -0.0518  0.2414
 6363SOL     OW25217   5.554   0.483   5.035  0.5338  0.3964  0.5529
 6363SOL    HW225218   5.542   0.560   5.089  0.0026 -0.4347  1.6603
 6363SOL    HW325219   5.470   0.469   4.993  1.2619  1.7142 -1.4717
 6363SOL    MW425220   5.542   0.491   5.037  0.5598  0.4606  0.4319
 6364SOL     OW25221   6.209   5.440   4.226 -0.0735 -0.0074 -0.1261
 6364SOL    HW225222   6.200   5.421   4.133  0.0308 -1.1160  0.0756
 6364SOL    HW325223   6.259   5.366   4.261  2.0789  1.5971  0.3828
 6364SOL    MW425224   6.215   5.428   4.219  0.2242  0.0581 -0.0324
 6365SOL     OW25225   3.383   2.390   0.107 -0.0280 -0.1235  0.4020
 6365SOL    HW225226   3.477   2.377   0.110  0.1290  0.1880 -1.8055
 6365SOL    HW325227   3.349   2.332   0.176  1.5101 -2.9095 -1.0026
 6365SOL    MW425228   3.391   2.381   0.117  0.1957 -0.4500 -0.0746
 6366SOL     OW25229   5.647   5.150   6.302  0.0973 -0.9566 -0.1877
 6366SOL    HW225230   5.679   5.078   6.357 -2.1303 -2.2572 -0.4740
 6366SOL    HW325231   5.568   5.181   6.347  0.0053  0.0853 -1.0382
 6366SOL    MW425232   5.641   5.144   6.315 -0.2087 -0.9907 -0.3377
 6367SOL     OW25233   2.258   1.830   2.584 -0.2360 -0.8715 -0.0384
 6367SOL    HW225234   2.319   1.764   2.618  2.6319  1.7807  0.4552
 6367SOL    HW325235   2.282   1.838   2.491  0.8082  0.6825  0.3151
 6367SOL    MW425236   2.269   1.823   2.576  0.2801 -0.3166  0.0733
 6368SOL     OW25237   4.823   1.444   4.273 -0.9915 -0.1023  0.4568
 6368SOL    HW225238   4.877   1.509   4.319  0.6610 -0.6867 -0.5526
 6368SOL    HW325239   4.841   1.362   4.319  0.2050 -0.5775 -0.7854
 6368SOL    MW425240   4.832   1.442   4.285 -0.6156 -0.2421  0.1597
 6369SOL     OW25241   0.292   5.924   2.142  0.0363  0.0490 -0.1608
 6369SOL    HW225242   0.246   6.007   2.155 -0.6336 -0.2259 -0.7192
 6369SOL    HW325243   0.372   5.948   2.094  1.4355  0.7744  2.3652
 6369SOL    MW425244   0.296   5.938   2.137  0.1325  0.1084  0.0988
 6370SOL     OW25245   5.056   3.026   4.767 -0.2558  0.1267  0.8968
 6370SOL    HW225246   5.129   3.088   4.766  0.7845 -1.0431 -0.8081
 6370SOL    HW325247   5.086   2.954   4.823 -0.4828  0.0478  0.9200
 6370SOL    MW425248   5.070   3.024   4.774 -0.1485 -0.0380  0.6749
 6371SOL     OW25249   1.186   4.459   2.580  0.4520 -0.4285  0.1745
 6371SOL    HW225250   1.196   4.373   2.622  0.6490  0.6213  2.4701
 6371SOL    HW325251   1.208   4.521   2.650 -0.3100  1.4974 -1.2376
 6371SOL    MW425252   1.190   4.456   2.595  0.3775 -0.0359  0.2911
 6372SOL     OW25253   4.763   6.105   3.345 -0.0786 -0.4154 -0.0263
 6372SOL    HW225254   4.730   6.106   3.255  1.2679 -0.3594 -0.5368
 6372SOL    HW325255   4.747   6.015   3.375  1.7433 -1.2088 -1.2329
 6372SOL    MW425256   4.756   6.093   3.337  0.3395 -0.5127 -0.2528
 6373SOL     OW25257   4.659   2.317   4.749 -0.4947  0.2592 -0.3536
 6373SOL    HW225258   4.693   2.245   4.801 -0.6327  0.2385 -0.2925
 6373SOL    HW325259   4.632   2.277   4.667  0.7284  0.4480 -0.8852
 6373SOL    MW425260   4.660   2.302   4.745 -0.3515  0.2814 -0.4157
 6374SOL     OW25261   1.325   1.565   2.427  0.0118  0.1409  0.0316
 6374SOL    HW225262   1.301   1.474   2.445 -0.2319  0.1678 -0.1559
 6374SOL    HW325263   1.320   1.573   2.332 -1.1041  0.6518  0.1069
 6374SOL    MW425264   1.321   1.554   2.417 -0.1676  0.2118  0.0168
 6375SOL     OW25265   6.007   5.609   6.291  0.7786  0.3331 -0.4343
 6375SOL    HW225266   5.923   5.650   6.310 -0.4490 -1.9826 -0.5460
 6375SOL    HW325267   6.029   5.562   6.371  1.9700  0.8642 -0.4305
 6375SOL    MW425268   5.999   5.608   6.304  0.7738  0.0976 -0.4485
 6376SOL     OW25269   3.057   3.134   3.105 -0.3013 -0.2354  0.5705
 6376SOL    HW225270   3.018   3.048   3.089 -0.1837 -0.1568 -0.1817
 6376SOL    HW325271   3.043   3.182   3.023  2.6588 -0.6852 -0.3293
 6376SOL    MW425272   3.050   3.129   3.092  0.1047 -0.2844  0.3525
 6377SOL     OW25273   0.176   1.983   2.553 -0.0535 -0.1839  0.1722
 6377SOL    HW225274   0.121   2.061   2.564 -0.7898 -0.6686 -0.0357
 6377SOL    HW325275   0.155   1.928   2.629  1.1597  0.2166  0.8278
 6377SOL    MW425276   0.166   1.986   2.565  0.0095 -0.1950  0.2312
 6378SOL     OW25277   3.576   0.998   3.985 -0.1640  0.0161  0.1113
 6378SOL    HW225278   3.585   1.072   3.925 -0.1156  1.2003  1.5153
 6378SOL    HW325279   3.483   0.998   4.010 -0.1798 -0.4383  0.0483
 6378SOL    MW425280   3.565   1.008   3.981 -0.1597  0.1124  0.2883
 6379SOL     OW25281   2.486   4.091   2.262  0.9031 -0.2203 -0.9116
 6379SOL    HW225282   2.418   4.135   2.312  1.7650  1.7266 -1.3521
 6379SOL    HW325283   2.463   3.998   2.265  0.3654 -0.0694  2.1793
 6379SOL    MW425284   2.474   4.085   2.269  0.9459  0.0565 -0.5619
 6380SOL     OW25285   4.928   0.478   4.041 -0.4780 -0.3011 -0.1075
 6380SOL    HW225286   5.011   0.521   4.062 -0.2575 -1.2627  1.0799
 6380SOL    HW325287   4.950   0.415   3.972 -0.1940 -0.6655  0.3180
 6380SOL    MW425288   4.942   0.476   4.034 -0.4115 -0.4760  0.1053
 6381SOL     OW25289   1.728   0.429   1.025 -0.3241  0.4753 -0.3045
 6381SOL    HW225290   1.807   0.461   0.981 -0.1109 -1.2758 -1.3145
 6381SOL    HW325291   1.710   0.345   0.982 -1.5182 -0.1603  1.3470
 6381SOL    MW425292   1.736   0.422   1.014 -0.4535  0.1604 -0.2199
 6382SOL     OW25293   4.180   1.353   5.948 -0.2534 -0.0777  0.2392
 6382SOL    HW225294   4.146   1.442   5.942 -2.0789 -0.5358  2.4454
 6382SOL    HW325295   4.117   1.299   5.900 -0.9321 -0.5365  1.5972
 6382SOL    MW425296   4.168   1.357   5.941 -0.5838 -0.1987  0.7095
 6383SOL     OW25297   3.836   5.973   4.376 -0.6914 -0.6678 -0.1225
 6383SOL    HW225298   3.866   5.883   4.391  2.1550 -0.2469 -2.3559
 6383SOL    HW325299   3.909   6.028   4.407 -2.2795  0.9016  1.0071
 6383SOL    MW425300   3.850   5.969   4.382 -0.5254 -0.4052 -0.2681
 6384SOL     OW25301   1.165   0.043   0.990 -0.2874  0.5133  0.0178
 6384SOL    HW225302   1.223   0.114   1.018  1.1542 -0.4860 -0.3093
 6384SOL    HW325303   1.200  -0.035   1.033 -1.5874 -0.0850  0.0418
 6384SOL    MW425304   1.177   0.042   0.999 -0.2687  0.3025 -0.0222
 6385SOL     OW25305   2.265   4.348   5.401  0.0790 -0.0276 -0.4034
 6385SOL    HW225306   2.317   4.372   5.478 -0.8699 -0.9598  0.5665
 6385SOL    HW325307   2.256   4.430   5.352 -0.5460  0.9367  1.2513
 6385SOL    MW425308   2.271   4.362   5.405 -0.1287 -0.0234 -0.0571
 6386SOL     OW25309   5.791   5.609   5.597 -0.4027  0.8173 -0.7127
 6386SOL    HW225310   5.808   5.641   5.686 -0.5992 -1.6845  0.2888
 6386SOL    HW325311   5.872   5.565   5.572 -0.6717  0.7249 -1.4279
 6386SOL    MW425312   5.804   5.608   5.606 -0.4642  0.4750 -0.6749
 6387SOL     OW25313   0.849   0.854   5.890 -0.3849 -0.1017  0.0876
 6387SOL    HW225314   0.776   0.873   5.949  0.4192  0.4355  0.9540
 6387SOL    HW325315   0.920   0.910   5.922  0.9281 -1.8211  0.3282
 6387SOL    MW425316   0.849   0.864   5.902 -0.1056 -0.2577  0.2337
 6388SOL     OW25317   5.551   0.948   2.935 -0.2626  0.0815  0.4420
 6388SOL    HW225318   5.503   0.871   2.907  0.4130 -0.7276  1.4480
 6388SOL    HW325319   5.522   1.017   2.875 -1.9292 -0.5973  0.4112
 6388SOL    MW425320   5.541   0.947   2.924 -0.3933 -0.1148  0.5706
 6389SOL     OW25321   4.265   0.788   4.718 -0.4008 -0.0883  0.5703
 6389SOL    HW225322   4.183   0.741   4.731 -0.6991  0.4384  0.6400
 6389SOL    HW325323   4.331   0.720   4.706 -0.4389 -0.5885  2.8161
 6389SOL    MW425324   4.263   0.773   4.718 -0.4452 -0.0848  0.8758
 6390SOL     OW25325   5.154   0.684   4.403  0.0734  0.0590  0.6798
 6390SOL    HW225326   5.202   0.759   4.438 -0.7255  0.6889  0.4651
 6390SOL    HW325327   5.207   0.608   4.428  1.9436  0.7907 -0.8117
 6390SOL    MW425328   5.167   0.684   4.411  0.2148  0.2387  0.4547
 6391SOL     OW25329   2.561   0.558   2.910  0.0327 -0.5077 -0.6065
 6391SOL    HW225330   2.532   0.471   2.940  0.6200 -0.4924  0.0280
 6391SOL    HW325331   2.578   0.606   2.991  1.5122 -0.4126 -0.9497
 6391SOL    MW425332   2.559   0.553   2.925  0.3054 -0.4931 -0.5681
 6392SOL     OW25333   5.614   4.518   0.630 -0.3466 -0.4122 -0.0694
 6392SOL    HW225334   5.685   4.454   0.642  0.6410  1.0256  2.7485
 6392SOL    HW325335   5.660   4.601   0.615 -1.5858 -0.0221 -2.1660
 6392SOL    MW425336   5.630   4.520   0.629 -0.3798 -0.1710  0.0258
 6393SOL     OW25337   4.364   1.347   5.304  0.4473 -0.2577 -0.2122
 6393SOL    HW225338   4.441   1.384   5.347 -0.4939 -0.9963  2.2837
 6393SOL    HW325339   4.387   1.256   5.287 -0.6520 -1.2689  2.9984
 6393SOL    MW425340   4.377   1.340   5.307  0.1781 -0.4886  0.5407
 6394SOL     OW25341   3.737   4.566   5.004 -0.2924  0.7145  0.0072
 6394SOL    HW225342   3.769   4.588   5.092  1.4949 -0.3121 -0.3467
 6394SOL    HW325343   3.776   4.633   4.948  0.7262 -0.1251 -0.3263
 6394SOL    MW425344   3.747   4.578   5.008  0.0778  0.4682 -0.0835
 6395SOL     OW25345   0.444   3.524   2.557 -0.5933  0.3474 -0.1839
 6395SOL    HW225346   0.480   3.444   2.518 -2.9487 -1.8864  1.8614
 6395SOL    HW325347   0.361   3.538   2.510  0.3687  2.4333 -1.3871
 6395SOL    MW425348   0.438   3.515   2.546 -0.7771  0.3279 -0.0728
 6396SOL     OW25349   2.500   0.487   1.499 -0.0865 -0.1415  0.8025
 6396SOL    HW225350   2.519   0.486   1.406  1.3584 -0.7506  1.0770
 6396SOL    HW325351   2.579   0.524   1.540 -1.5669  2.3494  1.6365
 6396SOL    MW425352   2.513   0.492   1.492 -0.0912  0.1068  0.9488
 6397SOL     OW25353   1.401   4.041   2.316  0.2838 -0.2521  0.4048
 6397SOL    HW225354   1.335   4.109   2.306 -0.6636 -1.2289 -0.1767
 6397SOL    HW325355   1.392   3.986   2.238  1.9621 -0.2700  0.1809
 6397SOL    MW425356   1.391   4.043   2.305  0.3802 -0.3833  0.2986
 6398SOL     OW25357   1.006   2.064   5.140  0.5862  0.3790 -0.4126
 6398SOL    HW225358   0.914   2.071   5.165  0.3574  1.5297 -1.4706
 6398SOL    HW325359   1.033   1.978   5.172  0.1300  1.3701  2.9877
 6398SOL    MW425360   0.997   2.054   5.148  0.4958  0.6616 -0.1035
 6399SOL     OW25361   6.335   6.155   2.104  0.1829 -0.1576  0.1676
 6399SOL    HW225362   6.254   6.165   2.155  1.2525  0.1839  1.8888
 6399SOL    HW325363   6.375   6.242   2.105  0.9591 -0.5043  0.0458
 6399SOL    MW425364   6.329   6.168   2.111  0.4265 -0.1583  0.3786
 6400SOL     OW25365   1.712   3.858   1.512 -0.2112 -0.0713  0.2088
 6400SOL    HW225366   1.722   3.852   1.417 -1.8941 -0.1106  0.0132
 6400SOL    HW325367   1.683   3.771   1.539  2.6783 -0.8554  1.1504
 6400SOL    MW425368   1.710   3.846   1.503 -0.0520 -0.1800  0.3072
 6401SOL     OW25369   5.371   4.077   2.638 -0.1903  0.3509  0.1770
 6401SOL    HW225370   5.429   4.017   2.687  0.0251 -0.0865 -0.5993
 6401SOL    HW325371   5.386   4.162   2.679  1.1578  0.2852 -0.1098
 6401SOL    MW425372   5.381   4.080   2.650  0.0160  0.2845  0.0368
 6402SOL     OW25373   1.879   3.482   5.884 -0.3606  0.4421  0.2147
 6402SOL    HW225374   1.926   3.412   5.839 -0.8574  0.6946 -0.7246
 6402SOL    HW325375   1.940   3.556   5.884 -0.0376  0.1859  0.7363
 6402SOL    MW425376   1.893   3.483   5.878 -0.3836  0.4416  0.1596
 6403SOL     OW25377   3.187   5.697   6.417  0.0173 -0.1628  0.3183
 6403SOL    HW225378   3.138   5.643   6.480 -0.3457  0.5877  0.6855
 6403SOL    HW325379   3.267   5.647   6.400 -0.2327 -0.7354  0.7918
 6403SOL    MW425380   3.191   5.683   6.423 -0.0636 -0.1393  0.4292
 6404SOL     OW25381   3.891   0.578   2.155 -0.3179 -0.3192  0.1655
 6404SOL    HW225382   3.981   0.551   2.172 -0.1283  0.9424  1.3997
 6404SOL    HW325383   3.899   0.662   2.110 -0.8970 -1.3008 -1.9098
 6404SOL    MW425384   3.904   0.586   2.151 -0.3693 -0.2823  0.0545
 6405SOL     OW25385   2.546   0.474   0.147  0.0921 -0.0226  0.2345
 6405SOL    HW225386   2.500   0.403   0.102  1.4998  0.4739 -2.1991
 6405SOL    HW325387   2.478   0.518   0.198 -1.5462 -0.9610 -1.0247
 6405SOL    MW425388   2.531   0.470   0.148  0.0616 -0.0809 -0.2527
 6406SOL     OW25389   2.989   6.122   3.710 -0.0296  0.2142  0.1469
 6406SOL    HW225390   3.016   6.146   3.622 -1.1059 -0.4877 -0.3856
 6406SOL    HW325391   2.933   6.194   3.739  0.8654  0.7770  0.5480
 6406SOL    MW425392   2.985   6.135   3.702 -0.0535  0.1959  0.1296
 6407SOL     OW25393   0.267   0.900   3.826  0.0383  0.2474 -0.0654
 6407SOL    HW225394   0.196   0.963   3.832 -1.0474 -1.0402  1.4443
 6407SOL    HW325395   0.317   0.928   3.749  0.8722  4.1335  1.6648
 6407SOL    MW425396   0.264   0.912   3.816  0.0051  0.5903  0.3621
 6408SOL     OW25397   0.675   3.488   2.922  0.2795  0.2194  0.1473
 6408SOL    HW225398   0.744   3.444   2.872 -1.5868 -2.6380 -0.1390
 6408SOL    HW325399   0.684   3.454   3.010 -0.7827 -0.2239  0.0921
 6408SOL    MW425400   0.685   3.478   2.927 -0.1069 -0.2161  0.1023
 6409SOL     OW25401   3.654   4.644   1.110  0.4489  0.4260 -0.0205
 6409SOL    HW225402   3.734   4.596   1.091 -0.0117  0.2334 -1.5839
 6409SOL    HW325403   3.611   4.593   1.178  0.6210 -0.6518 -0.6996
 6409SOL    MW425404   3.659   4.631   1.117  0.4108  0.2584 -0.3164
 6410SOL     OW25405   4.394   5.660   5.708  0.2136  0.1149 -0.4268
 6410SOL    HW225406   4.389   5.573   5.749 -0.6973  0.1559 -0.4229
 6410SOL    HW325407   4.471   5.700   5.747 -0.9385  0.3685  1.7498
 6410SOL    MW425408   4.403   5.654   5.719 -0.0586  0.1538 -0.1391
 6411SOL     OW25409   3.079   4.704   4.490 -0.0189 -0.1980  0.9520
 6411SOL    HW225410   3.014   4.663   4.548  0.2106  0.9838  2.0923
 6411SOL    HW325411   3.113   4.632   4.437 -0.7085 -1.2034  1.8387
 6411SOL    MW425412   3.075   4.689   4.491 -0.0796 -0.1747  1.2194
 6412SOL     OW25413   4.192   4.582   0.808  0.9099  0.0383  0.2975
 6412SOL    HW225414   4.158   4.658   0.856 -0.6889 -0.1238 -0.5196
 6412SOL    HW325415   4.232   4.620   0.729  0.1344  0.0632 -0.0980
 6412SOL    MW425416   4.193   4.597   0.804  0.5967  0.0202  0.1375
 6413SOL     OW25417   5.408   1.788   3.308  0.0387 -0.4486  0.2562
 6413SOL    HW225418   5.472   1.797   3.238 -0.0559 -1.3720  0.0472
 6413SOL    HW325419   5.444   1.842   3.380  1.5684 -1.7292  0.5062
 6413SOL    MW425420   5.421   1.796   3.309  0.2281 -0.7394  0.2616
 6414SOL     OW25421   5.357   5.123   3.933 -0.1728  0.1955 -0.0867
 6414SOL    HW225422   5.380   5.212   3.906  0.1398 -0.0644 -0.6642
 6414SOL    HW325423   5.389   5.067   3.864 -0.1384 -0.4003  0.4041
 6414SOL    MW425424   5.364   5.127   3.921 -0.1270  0.0826 -0.0981
 6415SOL     OW25425   2.729   3.323   4.076 -0.4480  0.2249 -0.1733
 6415SOL    HW225426   2.748   3.230   4.079 -1.4067  0.0349  0.5523
 6415SOL    HW325427   2.664   3.333   4.006 -0.6596  0.2815  0.0292
 6415SOL    MW425428   2.723   3.312   4.067 -0.6024  0.2073 -0.0509
 6416SOL     OW25429   1.250   0.270   4.799 -0.4007 -0.2907  0.5712
 6416SOL    HW225430   1.192   0.341   4.772  0.8805  0.5915  0.0584
 6416SOL    HW325431   1.293   0.304   4.878  0.0319 -0.6057  0.4684
 6416SOL    MW425432   1.248   0.284   4.806 -0.1746 -0.2159  0.4900
 6417SOL     OW25433   5.481   2.656   1.691  0.2382  0.0941 -0.1688
 6417SOL    HW225434   5.552   2.689   1.745  0.6473  0.3142 -0.8236
 6417SOL    HW325435   5.524   2.626   1.611 -0.3402 -0.3199 -0.3324
 6417SOL    MW425436   5.496   2.657   1.687  0.2158  0.0685 -0.2767
 6418SOL     OW25437   4.051   4.263   5.268 -0.2075  0.3096 -0.1192
 6418SOL    HW225438   3.985   4.260   5.199  0.8715  2.6280 -1.3682
 6418SOL    HW325439   4.025   4.338   5.323 -0.1292 -0.4857  1.0372
 6418SOL    MW425440   4.039   4.273   5.266 -0.0548  0.5105 -0.1314
 6419SOL     OW25441   0.662   0.633   3.449  0.3259  0.4821  0.1957
 6419SOL    HW225442   0.681   0.631   3.542 -1.1668 -0.5372  0.5265
 6419SOL    HW325443   0.607   0.711   3.437  0.2387  0.4286  0.2427
 6419SOL    MW425444   0.657   0.643   3.459  0.1174  0.3406  0.2455
 6420SOL     OW25445   0.681   0.493   2.807 -0.4421  0.0645 -0.4480
 6420SOL    HW225446   0.735   0.428   2.851 -0.2891  0.2812 -0.3162
 6420SOL    HW325447   0.652   0.552   2.876  0.8558  1.1692 -0.7958
 6420SOL    MW425448   0.684   0.492   2.822 -0.2507  0.2389 -0.4765
 6421SOL     OW25449   4.149   0.775   3.682 -0.0662  0.2021  0.3404
 6421SOL    HW225450   4.160   0.867   3.707 -0.5744 -0.2142  2.2557
 6421SOL    HW325451   4.058   0.755   3.703 -0.0763 -0.6601 -0.4269
 6421SOL    MW425452   4.138   0.784   3.688 -0.1346  0.0334  0.4919
 6422SOL     OW25453   5.482   2.837   3.802  0.3126 -0.1401 -0.5252
 6422SOL    HW225454   5.474   2.861   3.710  0.4941  1.6946 -0.0971
 6422SOL    HW325455   5.575   2.850   3.822  0.5272 -1.7162 -0.3644
 6422SOL    MW425456   5.494   2.842   3.793  0.3649 -0.1060 -0.4475
 6423SOL     OW25457   2.989   2.997   3.817 -0.3603 -0.2317 -0.4946
 6423SOL    HW225458   3.064   3.000   3.876  0.9528  0.0716 -2.0922
 6423SOL    HW325459   2.943   3.080   3.831 -2.5048 -1.7829  2.9626
 6423SOL    MW425460   2.992   3.008   3.826 -0.4700 -0.3964 -0.2493
 6424SOL     OW25461   2.509   3.166   1.282  0.2797 -0.3134  0.5194
 6424SOL    HW225462   2.525   3.163   1.188  2.6237  0.6715  0.8174
 6424SOL    HW325463   2.438   3.229   1.293  1.3262  1.0917 -0.4843
 6424SOL    MW425464   2.501   3.174   1.271  0.7271  0.0019  0.4263
 6425SOL     OW25465   1.566   5.500   3.206 -0.6580 -0.1217 -0.1482
 6425SOL    HW225466   1.531   5.590   3.209  0.0831  0.1534  1.4074
 6425SOL    HW325467   1.617   5.492   3.286  1.7172 -0.9899 -1.6576
 6425SOL    MW425468   1.568   5.511   3.217 -0.2468 -0.1999 -0.1421
 6426SOL     OW25469   3.700   2.170   5.742  0.6088  0.8558  0.0743
 6426SOL    HW225470   3.634   2.169   5.673  1.2566 -1.5617 -0.6194
 6426SOL    HW325471   3.771   2.223   5.708  1.0502 -0.5609 -1.3147
 6426SOL    MW425472   3.701   2.177   5.729  0.7525  0.3500 -0.2005
 6427SOL     OW25473   2.665   6.379   5.639 -0.0137 -0.4634  0.2013
 6427SOL    HW225474   2.727   6.306   5.643 -1.3368 -1.6183  0.7041
 6427SOL    HW325475   2.644   6.387   5.546  1.3967  0.4069 -0.0567
 6427SOL    MW425476   2.670   6.370   5.627 -0.0021 -0.5010  0.2336
 6428SOL     OW25477   1.424   3.988   3.609  0.1222  0.2112 -0.1531
 6428SOL    HW225478   1.397   3.921   3.546  1.2326  0.6563 -1.1389
 6428SOL    HW325479   1.347   4.045   3.618  0.2918  0.8066 -2.0229
 6428SOL    MW425480   1.410   3.987   3.602  0.2911  0.3485 -0.5299
 6429SOL     OW25481   2.847   3.586   2.807 -0.4906 -0.0395  0.0503
 6429SOL    HW225482   2.888   3.667   2.838  0.3695 -1.3824  2.7371
 6429SOL    HW325483   2.769   3.615   2.761  0.4461  2.3603 -0.1892
 6429SOL    MW425484   2.842   3.600   2.805 -0.2535  0.0999  0.3732
 6430SOL     OW25485   3.118   5.495   0.829  0.1502  0.7978  0.2617
 6430SOL    HW225486   3.129   5.583   0.792  1.9348 -0.3646 -2.2713
 6430SOL    HW325487   3.041   5.460   0.784  2.1324 -0.4965 -2.4351
 6430SOL    MW425488   3.109   5.502   0.818  0.6472  0.4737 -0.4283
 6431SOL     OW25489   5.684   1.655   2.627  0.5946  0.1338  0.2136
 6431SOL    HW225490   5.612   1.718   2.624 -1.6542 -2.2892 -2.2078
 6431SOL    HW325491   5.730   1.667   2.543  0.0927 -1.3910 -0.3146
 6431SOL    MW425492   5.681   1.665   2.615  0.2317 -0.3871 -0.1756
 6432SOL     OW25493   1.385   4.866   3.625 -0.1431 -0.0103  0.0531
 6432SOL    HW225494   1.362   4.954   3.657 -0.5149 -0.4228  0.9511
 6432SOL    HW325495   1.473   4.876   3.589  0.1660  0.5366  0.9462
 6432SOL    MW425496   1.394   4.879   3.624 -0.1514  0.0074  0.2895
 6433SOL     OW25497   4.596   2.175   4.519 -0.0443 -0.1860 -0.1755
 6433SOL    HW225498   4.582   2.080   4.522 -1.1938 -0.0891 -1.3589
 6433SOL    HW325499   4.691   2.185   4.510  0.0766 -1.2309 -0.1517
 6433SOL    MW425500   4.607   2.164   4.518 -0.1800 -0.3111 -0.3285
 6434SOL     OW25501   0.522   2.900   0.206  0.5288 -0.7997 -0.2376
 6434SOL    HW225502   0.529   2.903   0.302  1.4941 -1.0855 -0.2944
 6434SOL    HW325503   0.488   2.987   0.182 -0.9688 -1.1691  0.4521
 6434SOL    MW425504   0.518   2.912   0.216  0.4586 -0.8862 -0.1541
 6435SOL     OW25505   2.516   5.464   3.236  0.4248  0.0899  0.0771
 6435SOL    HW225506   2.431   5.445   3.197  0.2670  0.5658  0.1829
 6435SOL    HW325507   2.540   5.384   3.282  0.3557 -0.2890 -0.5282
 6435SOL    MW425508   2.508   5.451   3.237  0.3949  0.1027  0.0112
 6436SOL     OW25509   3.252   5.821   3.486  0.3545  0.1685 -0.4335
 6436SOL    HW225510   3.165   5.853   3.461  0.3609 -0.2148 -0.9502
 6436SOL    HW325511   3.303   5.901   3.500 -0.0716  0.3956 -0.1519
 6436SOL    MW425512   3.247   5.836   3.484  0.2992  0.1479 -0.4645
 6437SOL     OW25513   1.503   1.748   4.403 -0.0762  0.0958  0.1207
 6437SOL    HW225514   1.470   1.688   4.470 -1.7500  0.2518 -0.5261
 6437SOL    HW325515   1.594   1.721   4.389 -0.9614 -2.7442 -0.6278
 6437SOL    MW425516   1.511   1.737   4.410 -0.4138 -0.2583 -0.0634
 6438SOL     OW25517   5.084   4.970   1.517  0.0415  0.0872 -0.5322
 6438SOL    HW225518   5.103   4.932   1.603  0.0490  0.1790 -0.4931
 6438SOL    HW325519   5.095   4.897   1.456 -0.6829 -0.1516 -0.3789
 6438SOL    MW425520   5.088   4.956   1.521 -0.0531  0.0678 -0.5068
 6439SOL     OW25521   5.371   2.628   5.612 -0.5999 -0.0681 -0.8461
 6439SOL    HW225522   5.323   2.613   5.694 -0.3831 -1.5756 -0.9605
 6439SOL    HW325523   5.306   2.612   5.544 -1.0151  2.0219 -1.0185
 6439SOL    MW425524   5.356   2.624   5.614 -0.6261  0.0087 -0.8839
 6440SOL     OW25525   3.704   3.315   0.946 -0.7695  0.0684 -0.3302
 6440SOL    HW225526   3.770   3.274   0.890  1.4085  0.8363  1.5413
 6440SOL    HW325527   3.683   3.248   1.011 -0.4496  0.4430  0.1640
 6440SOL    MW425528   3.710   3.301   0.947 -0.4399  0.2192 -0.0181
 6441SOL     OW25529   0.466   2.993   1.329  0.2312  0.2960  0.4999
 6441SOL    HW225530   0.540   2.990   1.390 -0.9013 -0.3283  1.8991
 6441SOL    HW325531   0.494   2.939   1.255  1.0391 -0.2126  1.1609
 6441SOL    MW425532   0.479   2.985   1.327  0.1884  0.1465  0.7717
 6442SOL     OW25533   0.023   0.085   3.824  0.4324 -0.1498 -0.4240
 6442SOL    HW225534  -0.061   0.120   3.792  1.2562  1.8581 -0.5186
 6442SOL    HW325535   0.002  -0.004   3.853 -1.5515  0.0079 -1.2153
 6442SOL    MW425536   0.009   0.078   3.823  0.2793  0.1359 -0.5409
 6443SOL     OW25537   5.934   2.379   5.044  0.0570 -0.4875 -0.4520
 6443SOL    HW225538   6.010   2.366   4.987  0.8555  0.5767  0.3342
 6443SOL    HW325539   5.923   2.474   5.047 -0.6100 -0.5809  0.3740
 6443SOL    MW425540   5.942   2.390   5.037  0.0744 -0.3594 -0.2393
 6444SOL     OW25541   6.142   3.043   4.558 -0.4624 -0.4961  0.2470
 6444SOL    HW225542   6.181   3.047   4.645 -0.2187 -2.0126  0.2360
 6444SOL    HW325543   6.216   3.030   4.499 -0.5385  1.3226 -0.3140
 6444SOL    MW425544   6.157   3.042   4.562 -0.4403 -0.4562  0.1715
 6445SOL     OW25545   2.317   0.409   3.201 -0.2701  0.1358  0.0143
 6445SOL    HW225546   2.313   0.455   3.285  1.1446  0.6530 -0.1700
 6445SOL    HW325547   2.270   0.327   3.217 -0.1347  0.2772  1.2799
 6445SOL    MW425548   2.311   0.404   3.214 -0.0656  0.2227  0.1569
 6446SOL     OW25549   2.058   0.069   5.241  0.1671 -0.2924 -0.5659
 6446SOL    HW225550   1.990   0.099   5.301 -0.7266 -0.3721 -1.5033
 6446SOL    HW325551   2.019  -0.006   5.195  0.4876  0.2743 -1.8283
 6446SOL    MW425552   2.044   0.063   5.243  0.0915 -0.2281 -0.8562
 6447SOL     OW25553   5.994   0.067   4.297  0.0826  0.1384  0.5226
 6447SOL    HW225554   5.943   0.050   4.218  2.3940 -0.6332 -0.9329
 6447SOL    HW325555   6.036   0.151   4.281  1.3642 -0.4929  0.4150
 6447SOL    MW425556   5.993   0.076   4.284  0.5566 -0.0467  0.3164
 6448SOL     OW25557   0.906   5.343   1.369 -0.1461 -0.1948  0.4497
 6448SOL    HW225558   0.942   5.350   1.458 -0.1496  0.0082  0.4359
 6448SOL    HW325559   0.813   5.324   1.382 -0.2006  0.1040  0.4907
 6448SOL    MW425560   0.898   5.341   1.383 -0.1537 -0.1286  0.4533
 6449SOL     OW25561   2.815   5.932   1.453 -0.5681 -0.0405  0.2475
 6449SOL    HW225562   2.770   5.852   1.425 -0.5214  0.1550 -0.4124
 6449SOL    HW325563   2.750   5.979   1.505  0.5100 -2.1771  3.8514
 6449SOL    MW425564   2.801   5.928   1.456 -0.4197 -0.2966  0.6359
 6450SOL     OW25565   3.734   1.665   6.126  0.0134  0.2931  0.4888
 6450SOL    HW225566   3.770   1.601   6.188  1.4685 -0.1749 -0.7827
 6450SOL    HW325567   3.748   1.625   6.040  1.2045  2.3840 -0.3699
 6450SOL    MW425568   3.741   1.651   6.123  0.3625  0.5072  0.2078
 6451SOL     OW25569   0.914   5.960   1.595 -0.1425  0.1840 -0.0507
 6451SOL    HW225570   0.868   5.957   1.679 -2.8397 -1.3740 -1.4479
 6451SOL    HW325571   0.913   6.052   1.570 -0.6351  0.4558  0.9275
 6451SOL    MW425572   0.908   5.972   1.603 -0.5634  0.0143 -0.1060
 6452SOL     OW25573   0.249   2.402   0.526 -0.2980  0.1691 -0.4021
 6452SOL    HW225574   0.234   2.491   0.557 -2.1466 -0.4454  0.6297
 6452SOL    HW325575   0.187   2.349   0.576  1.6773 -1.9064  0.0175
 6452SOL    MW425576   0.239   2.407   0.537 -0.2813 -0.1858 -0.2106
 6453SOL     OW25577   2.178   3.166   1.922  0.2022 -0.0968  0.2406
 6453SOL    HW225578   2.168   3.072   1.939  0.7496 -0.2571 -0.3020
 6453SOL    HW325579   2.252   3.193   1.978  0.8236 -0.2462 -0.4938
 6453SOL    MW425580   2.187   3.157   1.932  0.3564 -0.1377  0.0721
 6454SOL     OW25581   3.048   6.278   0.484  0.0787  0.3141 -0.0046
 6454SOL    HW225582   3.002   6.331   0.549  0.0667  0.9218 -0.4959
 6454SOL    HW325583   2.981   6.255   0.420  0.5238  1.6284 -0.9951
 6454SOL    MW425584   3.033   6.282   0.484  0.1358  0.5677 -0.2001
 6455SOL     OW25585   1.677   1.717   1.397  0.6481  0.1975 -0.6946
 6455SOL    HW225586   1.731   1.654   1.445 -0.5412 -1.4910 -1.4504
 6455SOL    HW325587   1.738   1.761   1.338  1.2783 -1.6475 -1.5204
 6455SOL    MW425588   1.692   1.714   1.396  0.5743 -0.2687 -0.9033
 6456SOL     OW25589   5.325   4.127   5.550  0.2512  0.1340 -0.2107
 6456SOL    HW225590   5.333   4.132   5.454  1.4746  1.6874 -0.0724
 6456SOL    HW325591   5.321   4.033   5.569  2.2641 -0.3063 -1.6498
 6456SOL    MW425592   5.326   4.115   5.540  0.6782  0.2809 -0.3824
 6457SOL     OW25593   2.249   6.376   5.428 -0.0963  0.2807  0.0179
 6457SOL    HW225594   2.186   6.421   5.484 -0.9765 -0.3672 -0.4302
 6457SOL    HW325595   2.223   6.399   5.339  0.9714  0.8792 -0.1574
 6457SOL    MW425596   2.238   6.385   5.424 -0.0716  0.2742 -0.0643
 6458SOL     OW25597   5.053   4.130   1.948  0.7952 -0.0428  0.0676
 6458SOL    HW225598   5.110   4.085   1.885  1.6515 -1.1095  1.5350
 6458SOL    HW325599   4.969   4.137   1.904  1.5733 -0.0361 -1.4880
 6458SOL    MW425600   5.049   4.125   1.934  1.0108 -0.1826  0.0560
 6459SOL     OW25601   6.301   4.801   6.379 -0.2748  0.3086 -0.0287
 6459SOL    HW225602   6.285   4.714   6.418 -1.3850  0.5651  0.0966
 6459SOL    HW325603   6.286   4.789   6.286  1.9060 -0.1843 -0.3879
 6459SOL    MW425604   6.297   4.788   6.372 -0.1336  0.2775 -0.0596
 6460SOL     OW25605   6.006   5.340   6.163  0.4478  0.3160  0.2294
 6460SOL    HW225606   6.075   5.405   6.154 -0.7985  1.8923  1.2525
 6460SOL    HW325607   5.968   5.358   6.250  1.1725 -2.9631  1.3731
 6460SOL    MW425608   6.010   5.351   6.173  0.3790  0.0913  0.5153
 6461SOL     OW25609   2.555   2.349   5.984 -0.2369  0.7814 -0.1056
 6461SOL    HW225610   2.494   2.422   5.977 -1.1851 -0.1180 -2.1286
 6461SOL    HW325611   2.552   2.308   5.898  0.5561 -1.4084  0.8490
 6461SOL    MW425612   2.546   2.353   5.972 -0.2574  0.3738 -0.2466
 6462SOL     OW25613   6.019   2.290   3.318 -0.5568  0.2894 -0.0476
 6462SOL    HW225614   6.007   2.309   3.411 -1.6302  1.9010 -0.4767
 6462SOL    HW325615   5.969   2.209   3.304 -0.5165  0.1172  0.7317
 6462SOL    MW425616   6.010   2.282   3.329 -0.6931  0.4793 -0.0014
 6463SOL     OW25617   0.421   2.839   5.494 -0.7745  0.1419  0.1010
 6463SOL    HW225618   0.383   2.892   5.425 -1.1129 -2.0852 -1.5372
 6463SOL    HW325619   0.347   2.798   5.537 -0.4872  0.2736  0.7267
 6463SOL    MW425620   0.406   2.840   5.490 -0.7812 -0.1346 -0.0326
 6464SOL     OW25621   3.932   4.080   4.586  0.1534  0.9026  0.1618
 6464SOL    HW225622   3.849   4.039   4.563  0.0936  0.8625  0.4487
 6464SOL    HW325623   3.961   4.123   4.505  0.3806  0.0231 -0.2418
 6464SOL    MW425624   3.925   4.080   4.572  0.1755  0.7813  0.1464
 6465SOL     OW25625   3.908   0.373   5.163  0.0267 -0.4091 -0.5932
 6465SOL    HW225626   3.879   0.301   5.107  2.6869 -0.9995 -1.3296
 6465SOL    HW325627   3.926   0.331   5.247 -0.0717 -0.2735 -0.5043
 6465SOL    MW425628   3.907   0.358   5.167  0.3647 -0.4691 -0.6786
 6466SOL     OW25629   2.304   6.161   1.184 -0.5896  0.2951  0.0502
 6466SOL    HW225630   2.379   6.186   1.238 -1.1322  1.9504  0.0944
 6466SOL    HW325631   2.337   6.089   1.129  1.5747  2.0818 -1.1467
 6466SOL    MW425632   2.318   6.155   1.184 -0.3756  0.7492 -0.1019
 6467SOL     OW25633   1.463   1.499   1.583  0.1206 -0.5778  0.2646
 6467SOL    HW225634   1.402   1.449   1.637 -0.3641  0.6341  0.8686
 6467SOL    HW325635   1.533   1.524   1.643 -0.5782  1.0519  0.4531
 6467SOL    MW425636   1.465   1.496   1.598 -0.0355 -0.2029  0.3692
 6468SOL     OW25637   6.156   1.923   4.094  0.1668 -0.7122  0.4059
 6468SOL    HW225638   6.218   1.852   4.080  1.9975  1.3020 -3.3264
 6468SOL    HW325639   6.103   1.926   4.014 -1.4849  0.6785  1.4517
 6468SOL    MW425640   6.157   1.914   4.082  0.1904 -0.2629  0.0514
 6469SOL     OW25641   2.657   6.075   5.865 -0.3768 -0.6829  0.0480
 6469SOL    HW225642   2.722   6.136   5.831  1.8473 -2.6340  0.5767
 6469SOL    HW325643   2.690   5.988   5.843 -1.7598 -1.8314  2.0913
 6469SOL    MW425644   2.670   6.071   5.858 -0.2659 -1.0918  0.3874
 6470SOL     OW25645   1.826   5.470   5.218 -0.5007 -0.6670 -0.5550
 6470SOL    HW225646   1.769   5.531   5.171 -0.6849  0.3310  0.8701
 6470SOL    HW325647   1.894   5.446   5.155 -1.1396  0.0509 -1.5343
 6470SOL    MW425648   1.828   5.475   5.204 -0.6093 -0.4406 -0.4962
 6471SOL     OW25649   3.439   5.514   4.684  0.0578  0.1730 -0.2176
 6471SOL    HW225650   3.427   5.470   4.768  0.5341 -0.0525 -0.2569
 6471SOL    HW325651   3.471   5.444   4.626  2.7735  0.9180  0.2189
 6471SOL    MW425652   3.442   5.499   4.687  0.4790  0.2416 -0.1652
 6472SOL     OW25653   6.109   5.347   3.655  0.8081 -0.2310 -0.2502
 6472SOL    HW225654   6.192   5.312   3.624  1.3320  1.3251 -0.7133
 6472SOL    HW325655   6.043   5.311   3.595  1.2977 -0.5483 -0.5975
 6472SOL    MW425656   6.111   5.338   3.643  0.9418 -0.0675 -0.3571
 6473SOL     OW25657   5.524   4.273   6.210  0.2561  0.4501  0.1624
 6473SOL    HW225658   5.437   4.299   6.241  0.7000  1.3947  0.6668
 6473SOL    HW325659   5.585   4.325   6.264  1.1486 -0.5686  0.1654
 6473SOL    MW425660   5.521   4.284   6.221  0.4324  0.4403  0.2293
 6474SOL     OW25661   1.309   4.045   5.477 -0.8320 -0.2624  0.5431
 6474SOL    HW225662   1.359   3.999   5.410 -1.3251 -0.9546  0.6396
 6474SOL    HW325663   1.236   4.084   5.430  1.2687  3.3090 -0.1634
 6474SOL    MW425664   1.306   4.044   5.462 -0.6199  0.1175  0.4626
 6475SOL     OW25665   3.252   3.339   0.806  0.0612  0.1997 -0.0904
 6475SOL    HW225666   3.339   3.320   0.770 -0.1452 -0.5082 -0.2407
 6475SOL    HW325667   3.269   3.368   0.895  0.4196 -0.6288  0.1240
 6475SOL    MW425668   3.266   3.340   0.813  0.0813 -0.0030 -0.0819
 6476SOL     OW25669   4.013   6.401   0.293 -0.4233 -0.0888 -0.1473
 6476SOL    HW225670   4.092   6.439   0.331  0.0320 -0.2918 -0.8643
 6476SOL    HW325671   3.961   6.476   0.265 -0.5985  0.0512  0.5341
 6476SOL    MW425672   4.017   6.416   0.295 -0.3864 -0.0971 -0.1520
 6477SOL     OW25673   5.313   3.436   0.330  0.1184 -0.1869  0.4416
 6477SOL    HW225674   5.233   3.388   0.310 -0.0319 -0.3940  1.4870
 6477SOL    HW325675   5.346   3.396   0.411  1.1676  0.0296  0.1415
 6477SOL    MW425676   5.307   3.424   0.338  0.2370 -0.1856  0.5399
 6478SOL     OW25677   5.202   5.057   3.296  0.2710  0.3663 -0.5323
 6478SOL    HW225678   5.255   5.097   3.366  0.3898  0.5746 -0.7408
 6478SOL    HW325679   5.124   5.112   3.291  0.5137  0.6755 -0.9367
 6478SOL    MW425680   5.199   5.070   3.305  0.3187  0.4346 -0.6132
 6479SOL     OW25681   4.624   3.194   1.372  0.4154  0.1707 -0.0990
 6479SOL    HW225682   4.536   3.165   1.346 -0.1253  1.9159 -0.3693
 6479SOL    HW325683   4.644   3.265   1.311 -0.1327  3.2349  3.0227
 6479SOL    MW425684   4.615   3.199   1.360  0.2717  0.8053  0.2772
 6480SOL     OW25685   0.302   0.960   1.475 -0.4034  0.0707 -0.0849
 6480SOL    HW225686   0.234   1.024   1.455 -1.2012 -0.1447  1.7198
 6480SOL    HW325687   0.356   1.002   1.541  1.8642  0.5957 -2.1290
 6480SOL    MW425688   0.300   0.974   1.481 -0.2095  0.1115 -0.1165
 6481SOL     OW25689   5.302   0.883   5.344  0.2418 -0.3102 -0.6169
 6481SOL    HW225690   5.308   0.788   5.353  0.3201 -0.2666 -0.2199
 6481SOL    HW325691   5.392   0.912   5.327  0.2522 -0.2809 -0.5092
 6481SOL    MW425692   5.315   0.875   5.343  0.2535 -0.3005 -0.5503
 6482SOL     OW25693   1.690   3.694   5.060  0.5078  0.2247  0.0475
 6482SOL    HW225694   1.738   3.672   5.139  0.6384  0.5915  0.0727
 6482SOL    HW325695   1.614   3.636   5.061  0.9775 -0.4000 -0.0226
 6482SOL    MW425696   1.686   3.684   5.070  0.5870  0.1907  0.0416
 6483SOL     OW25697   0.119   1.350   0.307  0.4268  0.3388  0.0120
 6483SOL    HW225698   0.061   1.275   0.295  0.3948  0.0243  1.8913
 6483SOL    HW325699   0.154   1.367   0.219  0.6657 -2.0586 -0.4351
 6483SOL    MW425700   0.116   1.343   0.294  0.4541 -0.0190  0.2010
 6484SOL     OW25701   4.818   0.433   1.666 -0.2552  0.1281 -0.5625
 6484SOL    HW225702   4.780   0.371   1.729 -0.0634  0.6059  0.0257
 6484SOL    HW325703   4.913   0.418   1.673 -0.2527 -0.0758 -1.0096
 6484SOL    MW425704   4.826   0.423   1.675 -0.2295  0.1642 -0.5439
 6485SOL     OW25705   2.178   3.799   1.677  0.0480 -0.3812  0.4202
 6485SOL    HW225706   2.100   3.854   1.675 -0.2127 -0.7059  1.1775
 6485SOL    HW325707   2.243   3.848   1.627  0.2787  1.3257  2.2769
 6485SOL    MW425708   2.176   3.812   1.670  0.0440 -0.1988  0.7651
 6486SOL     OW25709   4.786   2.213   4.016 -0.5417  0.7064  0.1107
 6486SOL    HW225710   4.710   2.221   4.074 -0.2822  0.5978  0.4673
 6486SOL    HW325711   4.837   2.292   4.033 -0.7304  0.9388 -0.3652
 6486SOL    MW425712   4.783   2.225   4.026 -0.5323  0.7228  0.0950
 6487SOL     OW25713   1.507   2.378   1.530 -0.1055 -0.5087  0.5623
 6487SOL    HW225714   1.579   2.318   1.513  0.6869  0.1966  1.3018
 6487SOL    HW325715   1.433   2.342   1.481  0.5251 -1.6933  0.4497
 6487SOL    MW425716   1.506   2.366   1.521  0.0822 -0.5719  0.6450
 6488SOL     OW25717   5.747   0.619   3.121 -0.2751 -0.2435  0.3196
 6488SOL    HW225718   5.752   0.674   3.043 -1.5026 -2.8250 -1.7051
 6488SOL    HW325719   5.839   0.598   3.141  0.0398  0.0557 -0.7296
 6488SOL    MW425720   5.760   0.624   3.113 -0.3955 -0.5446 -0.0859
 6489SOL     OW25721   2.199   4.195   5.762 -0.7118  0.3238 -0.5068
 6489SOL    HW225722   2.107   4.221   5.753 -0.3926  1.7647  0.1093
 6489SOL    HW325723   2.223   4.162   5.675 -1.4691  1.1430 -1.0445
 6489SOL    MW425724   2.190   4.194   5.749 -0.7696  0.6220 -0.4964
 6490SOL     OW25725   0.057   4.720   5.230 -0.3821  0.1949  0.0178
 6490SOL    HW225726   0.073   4.770   5.150  1.9141  0.1343  0.3579
 6490SOL    HW325727   0.012   4.640   5.201 -1.1472  0.9636 -0.9502
 6490SOL    MW425728   0.053   4.716   5.216 -0.1801  0.2884 -0.0650
 6491SOL     OW25729   5.979   4.554   2.010 -0.4683  0.6875 -0.4929
 6491SOL    HW225730   6.056   4.499   1.999  0.3553  1.9869 -1.5699
 6491SOL    HW325731   5.914   4.497   2.050  0.4087 -0.9811 -1.3597
 6491SOL    MW425732   5.981   4.539   2.014 -0.2439  0.6388 -0.7493
 6492SOL     OW25733   2.593   4.425   2.786  0.0981  0.2656 -0.1642
 6492SOL    HW225734   2.528   4.402   2.852 -0.4169 -0.5879 -0.9526
 6492SOL    HW325735   2.583   4.520   2.773 -0.2401  0.3226  0.5001
 6492SOL    MW425736   2.583   4.435   2.793 -0.0145  0.1605 -0.1806
 6493SOL     OW25737   4.742   3.176   4.104 -0.1049  0.2043 -0.4696
 6493SOL    HW225738   4.747   3.084   4.130  3.4557  0.8439  1.7614
 6493SOL    HW325739   4.701   3.220   4.178  0.3059  0.6748 -0.5130
 6493SOL    MW425740   4.737   3.169   4.117  0.4191  0.3508 -0.1809
 6494SOL     OW25741   4.514   1.233   4.997  0.4412 -0.0321 -0.1987
 6494SOL    HW225742   4.542   1.143   4.982  0.2455 -0.0432 -0.5122
 6494SOL    HW325743   4.436   1.244   4.942 -0.4556 -0.1407  1.0163
 6494SOL    MW425744   4.508   1.223   4.987  0.2971 -0.0479 -0.0798
 6495SOL     OW25745   4.950   6.019   1.883  0.3743 -0.0866  0.7578
 6495SOL    HW225746   4.856   6.004   1.886  0.2479  0.7401  1.1081
 6495SOL    HW325747   4.960   6.111   1.860  1.1183 -0.3817 -0.1744
 6495SOL    MW425748   4.939   6.029   1.880  0.4558 -0.0165  0.6810
 6496SOL     OW25749   2.241   1.655   4.175 -0.6998  0.0371 -0.3739
 6496SOL    HW225750   2.205   1.686   4.091 -0.1101 -0.8958 -0.9968
 6496SOL    HW325751   2.281   1.732   4.214 -2.5602  0.9134 -0.0749
 6496SOL    MW425752   2.241   1.669   4.169 -0.8674  0.0296 -0.4167
 6497SOL     OW25753   4.131   3.410   1.061  0.0890  0.6283  0.0762
 6497SOL    HW225754   4.125   3.423   1.156  0.4529  1.7450 -0.0301
 6497SOL    HW325755   4.061   3.464   1.025 -0.3826 -0.2068 -0.2683
 6497SOL    MW425756   4.121   3.419   1.069  0.0748  0.6654  0.0167
 6498SOL     OW25757   2.846   2.402   3.331  0.5029  0.3653  0.1645
 6498SOL    HW225758   2.895   2.450   3.398  1.1068  1.4304 -1.0039
 6498SOL    HW325759   2.763   2.448   3.324  0.6116  0.5215 -0.1161
 6498SOL    MW425760   2.841   2.414   3.339  0.5969  0.5264 -0.0267
 6499SOL     OW25761   3.700   3.560   2.284  0.3968  0.1573 -0.0039
 6499SOL    HW225762   3.679   3.653   2.289  0.5501  0.1868  0.0988
 6499SOL    HW325763   3.616   3.517   2.269  0.5971  0.5054 -2.6534
 6499SOL    MW425764   3.687   3.567   2.283  0.4434  0.2071 -0.3399
 6500SOL     OW25765   5.239   4.833   2.682  0.0864  0.8383 -0.4084
 6500SOL    HW225766   5.157   4.784   2.687 -0.0909  1.1211 -0.5391
 6500SOL    HW325767   5.244   4.880   2.765 -0.2507  1.4013 -0.7053
 6500SOL    MW425768   5.229   4.833   2.694  0.0186  0.9499 -0.4649
 6501SOL     OW25769   4.307   1.822   0.779 -0.1896  0.1005 -0.1233
 6501SOL    HW225770   4.299   1.728   0.769 -0.4828  0.1363 -0.2285
 6501SOL    HW325771   4.399   1.837   0.798  0.1682 -0.0588 -1.6611
 6501SOL    MW425772   4.318   1.812   0.780 -0.1811  0.0842 -0.3401
 6502SOL     OW25773   4.826   5.072   1.499  0.8262  0.2060  0.5773
 6502SOL    HW225774   4.906   5.030   1.529  0.8635 -1.1950 -1.2975
 6502SOL    HW325775   4.855   5.134   1.432  0.3715 -0.4543 -0.2581
 6502SOL    MW425776   4.840   5.074   1.494  0.7711 -0.0660  0.2197
 6503SOL     OW25777   3.532   1.156   5.710 -0.3206 -0.0910  0.4866
 6503SOL    HW225778   3.522   1.160   5.615  0.2304  1.1420  0.4659
 6503SOL    HW325779   3.549   1.246   5.736  1.9766 -0.7358  1.4557
 6503SOL    MW425780   3.533   1.168   5.701  0.0552 -0.0134  0.6117
 6504SOL     OW25781   3.664   4.046   2.603 -0.7522 -0.6470 -0.4140
 6504SOL    HW225782   3.660   3.996   2.685 -1.0564 -1.5282 -0.9678
 6504SOL    HW325783   3.746   4.096   2.611 -1.6296  0.6749  1.2144
 6504SOL    MW425784   3.674   4.046   2.615 -0.9081 -0.5889 -0.2722
 6505SOL     OW25785   5.266   0.654   6.297  0.3959  0.3715 -0.3722
 6505SOL    HW225786   5.261   0.726   6.235 -1.6538 -0.0953 -0.8178
 6505SOL    HW325787   5.196   0.671   6.360  0.2027 -0.9509 -0.1906
 6505SOL    MW425788   5.256   0.665   6.297  0.1000  0.1355 -0.4070
 6506SOL     OW25789   2.138   5.181   2.307 -0.2085 -0.0825  0.0127
 6506SOL    HW225790   2.223   5.215   2.278 -0.0074  0.3538  1.0554
 6506SOL    HW325791   2.156   5.142   2.392 -0.9947 -0.2781  0.0946
 6506SOL    MW425792   2.152   5.181   2.314 -0.2857 -0.0508  0.1611
 6507SOL     OW25793   6.306   3.436   4.726 -0.2243 -0.0100  0.4451
 6507SOL    HW225794   6.374   3.497   4.698 -0.6905 -0.6820 -2.4898
 6507SOL    HW325795   6.348   3.382   4.793  0.8266  2.1112  1.5788
 6507SOL    MW425796   6.320   3.437   4.732 -0.1472  0.1812  0.2075
 6508SOL     OW25797   2.611   4.282   5.775 -0.2556 -0.0697  0.1826
 6508SOL    HW225798   2.664   4.311   5.849 -1.0294 -0.0206  0.7323
 6508SOL    HW325799   2.631   4.189   5.765 -0.0171 -0.0356  0.3491
 6508SOL    MW425800   2.620   4.274   5.783 -0.3262 -0.0587  0.2771
 6509SOL     OW25801   5.668   0.727   4.775  0.3238 -0.3643 -0.4329
 6509SOL    HW225802   5.681   0.723   4.870 -1.2330  0.9048 -0.1203
 6509SOL    HW325803   5.655   0.820   4.756 -3.4856 -0.9016 -1.2183
 6509SOL    MW425804   5.668   0.739   4.785 -0.3842 -0.2678 -0.4953
 6510SOL     OW25805   1.652   4.109   5.181  0.0923  0.1003 -0.7078
 6510SOL    HW225806   1.564   4.073   5.169 -1.2499  2.4915  1.1552
 6510SOL    HW325807   1.682   4.073   5.264 -0.6102  1.9069  0.3765
 6510SOL    MW425808   1.644   4.099   5.190 -0.1774  0.6542 -0.3189
 6511SOL     OW25809   2.511   3.522   4.925 -0.5602 -0.6007 -0.3217
 6511SOL    HW225810   2.504   3.529   5.020  1.2356 -0.9943 -0.1222
 6511SOL    HW325811   2.482   3.433   4.906 -0.6634 -0.6164 -0.0979
 6511SOL    MW425812   2.506   3.511   4.935 -0.3369 -0.6547 -0.2659
 6512SOL     OW25813   5.144   3.432   4.592  1.0367  0.5095  0.0988
 6512SOL    HW225814   5.183   3.386   4.666 -0.5586 -1.7109 -0.3361
 6512SOL    HW325815   5.138   3.366   4.523 -0.0425  1.7816 -1.0944
 6512SOL    MW425816   5.149   3.418   4.592  0.6838  0.3844 -0.1160
 6513SOL     OW25817   0.939   4.086   6.120  0.0108  0.6770 -0.4496
 6513SOL    HW225818   0.879   4.064   6.192  0.3507  1.1291 -0.0159
 6513SOL    HW325819   0.888   4.144   6.064  0.5946  2.6147  0.9148
 6513SOL    MW425820   0.924   4.091   6.122  0.1326  0.9923 -0.2123
 6514SOL     OW25821   0.263   2.210   3.295  0.1015  0.0074  0.2296
 6514SOL    HW225822   0.318   2.151   3.243  0.5024  0.8330 -0.3136
 6514SOL    HW325823   0.326   2.269   3.338 -0.2552 -0.3525  1.2715
 6514SOL    MW425824   0.279   2.210   3.293  0.1073  0.0689  0.2954
 6515SOL     OW25825   3.335   5.237   4.831  0.2081  0.0667 -0.2719
 6515SOL    HW225826   3.256   5.185   4.816 -0.0921  0.0433  1.2495
 6515SOL    HW325827   3.395   5.210   4.761 -0.9843 -0.1654 -1.2528
 6515SOL    MW425828   3.332   5.227   4.820  0.0112  0.0330 -0.2006
 6516SOL     OW25829   0.034   1.635   2.319 -0.0934  0.1726  0.2913
 6516SOL    HW225830   0.042   1.728   2.341 -2.5644  0.3967  0.5271
 6516SOL    HW325831   0.124   1.601   2.325  1.2033  2.8762 -1.5866
 6516SOL    MW425832   0.047   1.643   2.323 -0.2483  0.5589  0.0747
 6517SOL     OW25833   3.966   0.280   3.569 -0.1436 -0.2931  0.5124
 6517SOL    HW225834   3.968   0.226   3.648  0.9395 -0.0539  0.6573
 6517SOL    HW325835   3.954   0.217   3.498  0.7749 -0.7027  0.7115
 6517SOL    MW425836   3.965   0.264   3.570  0.1205 -0.3156  0.5578
 6518SOL     OW25837   1.849   5.110   0.496 -0.0760  0.2326  0.1589
 6518SOL    HW225838   1.831   5.069   0.411  1.1216  1.0691 -0.5127
 6518SOL    HW325839   1.874   5.037   0.552  0.0525 -0.2213 -0.4693
 6518SOL    MW425840   1.850   5.095   0.492  0.0990  0.2831 -0.0126
 6519SOL     OW25841   6.264   2.221   0.374  0.2561  0.1112 -0.3419
 6519SOL    HW225842   6.278   2.309   0.407 -0.2948  0.8170 -1.8924
 6519SOL    HW325843   6.345   2.199   0.328  0.8507 -0.6916  1.0182
 6519SOL    MW425844   6.276   2.230   0.372  0.2619  0.0984 -0.3670
 6520SOL     OW25845   5.301   5.478   1.800 -0.5716  0.4895  0.7914
 6520SOL    HW225846   5.227   5.432   1.762  0.0280  0.0053  0.1838
 6520SOL    HW325847   5.360   5.409   1.830  0.8552  0.7795 -1.1362
 6520SOL    MW425848   5.299   5.463   1.799 -0.3042  0.4639  0.4569
 6521SOL     OW25849   4.372   0.666   5.307 -0.4875  0.6409  0.5434
 6521SOL    HW225850   4.403   0.590   5.356 -0.0322 -0.4070 -1.2586
 6521SOL    HW325851   4.282   0.643   5.282 -0.3389  0.6871 -0.0335
 6521SOL    MW425852   4.364   0.653   5.310 -0.4078  0.5087  0.2295
 6522SOL     OW25853   5.110   0.281   6.213 -0.3767  0.0904  0.3602
 6522SOL    HW225854   5.170   0.355   6.199 -0.1396  0.0713  1.1716
 6522SOL    HW325855   5.079   0.258   6.126  0.2526  0.5631 -0.0020
 6522SOL    MW425856   5.114   0.288   6.200 -0.2624  0.1503  0.4194
 6523SOL     OW25857   3.463   3.899   4.433 -0.1615  0.3137  0.2505
 6523SOL    HW225858   3.544   3.902   4.484  0.0860  1.2098 -0.1790
 6523SOL    HW325859   3.395   3.886   4.499  0.3430 -0.7983  0.5851
 6523SOL    MW425860   3.465   3.898   4.448 -0.0623  0.2852  0.2380
 6524SOL     OW25861   3.776   3.542   5.020  0.0177 -0.0425  0.6144
 6524SOL    HW225862   3.703   3.597   4.991 -0.2646 -0.2333  0.9688
 6524SOL    HW325863   3.760   3.527   5.113 -0.3951 -1.4758  0.3333
 6524SOL    MW425864   3.764   3.547   5.028 -0.0740 -0.2568  0.6241
 6525SOL     OW25865   3.448   1.555   6.056 -0.4735 -0.5067  0.1198
 6525SOL    HW225866   3.378   1.602   6.101 -1.1465  0.6217 -1.9484
 6525SOL    HW325867   3.527   1.605   6.077 -0.7780  0.0174  0.0655
 6525SOL    MW425868   3.449   1.568   6.064 -0.6025 -0.2887 -0.1603
 6526SOL     OW25869   1.018   1.274   3.933 -0.0434 -1.1705  0.6850
 6526SOL    HW225870   1.066   1.239   3.858 -0.3164 -2.1330  0.9393
 6526SOL    HW325871   0.926   1.261   3.910 -0.3480  2.1473 -0.5296
 6526SOL    MW425872   1.012   1.267   3.920 -0.1196 -0.8597  0.5583
 6527SOL     OW25873   3.736   5.749   3.326  0.3402 -0.2827  0.1114
 6527SOL    HW225874   3.826   5.776   3.347  0.2020 -0.4494  0.9533
 6527SOL    HW325875   3.723   5.779   3.236  0.8547  0.7311  0.3579
 6527SOL    MW425876   3.746   5.756   3.317  0.3899 -0.1709  0.2550
 6528SOL     OW25877   1.691   1.862   0.789  0.3790 -0.8770 -0.0933
 6528SOL    HW225878   1.767   1.896   0.742  0.7781 -0.1493  1.0240
 6528SOL    HW325879   1.622   1.858   0.723  1.1297 -0.6451 -0.9136
 6528SOL    MW425880   1.692   1.866   0.774  0.5307 -0.7504 -0.0541
 6529SOL     OW25881   4.883   4.566   5.793  0.4293 -0.7516  0.1544
 6529SOL    HW225882   4.916   4.494   5.739  0.3451 -0.9864  0.4177
 6529SOL    HW325883   4.916   4.645   5.749  1.1658 -0.9756  0.2909
 6529SOL    MW425884   4.892   4.567   5.780  0.5154 -0.8121  0.2072
 6530SOL     OW25885   0.035   2.035   0.267 -0.3055 -0.0597 -0.0975
 6530SOL    HW225886  -0.001   1.948   0.249  0.5427 -0.2245 -1.1808
 6530SOL    HW325887   0.016   2.085   0.188 -0.3218  0.5803  0.3069
 6530SOL    MW425888   0.028   2.030   0.254 -0.1957  0.0030 -0.1871
 6531SOL     OW25889   1.341   4.240   3.973 -0.3463  0.0779  0.4460
 6531SOL    HW225890   1.407   4.212   3.909 -0.0618  0.6958  0.4507
 6531SOL    HW325891   1.292   4.308   3.928 -0.6444 -0.0211  0.6225
 6531SOL    MW425892   1.343   4.246   3.959 -0.3481  0.1464  0.4699
 6532SOL     OW25893   1.255   4.098   6.341  0.2027 -0.6171  0.3193
 6532SOL    HW225894   1.309   4.086   6.419 -0.1259 -0.2205  0.6151
 6532SOL    HW325895   1.316   4.089   6.268  1.1479  1.9963  0.6770
 6532SOL    MW425896   1.270   4.095   6.342  0.2840 -0.2200  0.4055
 6533SOL     OW25897   4.924   5.967   1.267  0.5353  0.2014  0.7596
 6533SOL    HW225898   4.894   5.953   1.357 -1.3779  1.0199  0.3018
 6533SOL    HW325899   4.844   5.990   1.219  1.7220  1.0562 -0.8767
 6533SOL    MW425900   4.909   5.968   1.272  0.4394  0.4222  0.4833
 6534SOL     OW25901   3.027   0.604   3.453  0.1769  0.2506 -0.1472
 6534SOL    HW225902   2.951   0.659   3.431 -0.6993 -0.0273  1.9449
 6534SOL    HW325903   2.989   0.520   3.480  1.2293  0.0170  0.6861
 6534SOL    MW425904   3.012   0.600   3.454  0.2001  0.1831  0.2388
 6535SOL     OW25905   1.853   6.260   2.988 -0.1680  0.0490  0.2331
 6535SOL    HW225906   1.855   6.269   2.892  0.7232  0.8203  0.3122
 6535SOL    HW325907   1.759   6.261   3.009 -0.3993 -0.7565 -0.6788
 6535SOL    MW425908   1.841   6.262   2.978 -0.0809  0.0445  0.1232
 6536SOL     OW25909   3.976   4.346   4.974 -0.7571 -0.0076 -0.1147
 6536SOL    HW225910   4.006   4.273   4.920 -1.9994  0.3291 -1.2991
 6536SOL    HW325911   4.054   4.401   4.983 -0.3432 -0.4215 -0.9754
 6536SOL    MW425912   3.990   4.343   4.968 -0.8664 -0.0177 -0.3845
 6537SOL     OW25913   2.602   0.056   5.083  0.1006  0.2597 -0.0637
 6537SOL    HW225914   2.510   0.033   5.072  0.4507 -1.6488  0.5564
 6537SOL    HW325915   2.609   0.144   5.047 -1.8894  0.3221 -0.4340
 6537SOL    MW425916   2.591   0.064   5.077 -0.1158  0.0161 -0.0308
 6538SOL     OW25917   4.297   1.219   0.899 -0.2458 -0.3054 -0.3963
 6538SOL    HW225918   4.313   1.309   0.870 -1.0966 -0.0336 -0.0539
 6538SOL    HW325919   4.327   1.218   0.990  0.6229 -0.6277 -0.6794
 6538SOL    MW425920   4.303   1.231   0.907 -0.2435 -0.3120 -0.3885
 6539SOL     OW25921   2.542   4.808   1.645 -0.0100  0.1495 -0.0785
 6539SOL    HW225922   2.518   4.756   1.568  0.1436  0.4586 -0.3364
 6539SOL    HW325923   2.482   4.778   1.714  0.5948 -0.9528  0.0066
 6539SOL    MW425924   2.531   4.797   1.644  0.0901  0.0449 -0.1013
 6540SOL     OW25925   3.708   3.299   4.619  0.0309  0.5340 -0.0617
 6540SOL    HW225926   3.765   3.226   4.598 -1.0255 -0.1542 -0.5819
 6540SOL    HW325927   3.697   3.346   4.537 -1.6420 -0.4105 -0.4045
 6540SOL    MW425928   3.714   3.296   4.606 -0.3292  0.3186 -0.1755
 6541SOL     OW25929   2.673   5.010   6.140  0.1418  0.4977 -0.0913
 6541SOL    HW225930   2.719   4.926   6.136 -2.2935 -0.9483  0.0666
 6541SOL    HW325931   2.738   5.071   6.173  1.0073 -2.1978  4.0275
 6541SOL    MW425932   2.688   5.007   6.144 -0.0653 -0.0487  0.4730
 6542SOL     OW25933   5.894   3.050   4.247  0.3833  0.4048 -0.1229
 6542SOL    HW225934   5.892   2.962   4.283  1.1748  0.9594  1.3587
 6542SOL    HW325935   5.824   3.051   4.182 -1.2574 -0.5856  1.5440
 6542SOL    MW425936   5.884   3.038   4.243  0.2713  0.3473  0.2925
 6543SOL     OW25937   6.056   2.031   5.214  0.4736 -1.0752 -0.2290
 6543SOL    HW225938   6.008   1.982   5.281  1.7920 -1.5116  0.4304
 6543SOL    HW325939   6.065   2.119   5.251  0.4951 -1.0913 -0.1955
 6543SOL    MW425940   6.051   2.036   5.228  0.6504 -1.1349 -0.1376
 6544SOL     OW25941   5.496   0.791   6.128  0.3776  0.2500  0.1853
 6544SOL    HW225942   5.511   0.705   6.089  0.3771 -0.0033  0.7420
 6544SOL    HW325943   5.565   0.799   6.194  0.5531  0.7957 -0.0608
 6544SOL    MW425944   5.507   0.781   6.132  0.4007  0.2886  0.2263
 6545SOL     OW25945   5.341   4.389   0.964 -0.1455 -0.4670  0.0927
 6545SOL    HW225946   5.365   4.413   1.053 -1.1199  0.1592  0.1954
 6545SOL    HW325947   5.312   4.298   0.971  0.1451 -0.5407  0.3451
 6545SOL    MW425948   5.340   4.380   0.976 -0.2357 -0.3941  0.1396
 6546SOL     OW25949   4.698   3.385   1.208  0.2916  0.4661 -0.7874
 6546SOL    HW225950   4.778   3.418   1.248  1.0879 -1.8977 -0.2786
 6546SOL    HW325951   4.726   3.349   1.124  0.1331 -1.8123  0.0685
 6546SOL    MW425952   4.712   3.384   1.202  0.3757 -0.1464 -0.6073
 6547SOL     OW25953   6.050   1.592   0.653  0.4435  0.2589  0.2422
 6547SOL    HW225954   5.973   1.642   0.626  0.8764  1.6831  1.5369
 6547SOL    HW325955   6.083   1.638   0.730  0.4333 -2.4659  2.0141
 6547SOL    MW425956   6.044   1.604   0.660  0.4993  0.0873  0.6468
 6548SOL     OW25957   0.761   0.204   5.369  0.2609  0.2478 -0.1574
 6548SOL    HW225958   0.804   0.264   5.430 -0.9338  1.0158 -0.0251
 6548SOL    HW325959   0.675   0.188   5.409  0.4609 -1.3545 -0.3351
 6548SOL    MW425960   0.755   0.210   5.382  0.1296  0.1377 -0.1634
 6549SOL     OW25961   0.854   1.329   6.269  0.2650  0.1904  0.4998
 6549SOL    HW225962   0.769   1.370   6.252  0.4895 -0.2705 -2.2758
 6549SOL    HW325963   0.841   1.236   6.247  1.0607 -0.2606  1.7959
 6549SOL    MW425964   0.841   1.322   6.264  0.3996  0.0701  0.3046
 6550SOL     OW25965   0.367   2.310   2.499 -0.3673 -0.0504  0.2361
 6550SOL    HW225966   0.411   2.341   2.578 -0.7141  0.1353  0.3562
 6550SOL    HW325967   0.275   2.306   2.523 -0.3322 -1.1991  0.2345
 6550SOL    MW425968   0.361   2.313   2.513 -0.4084 -0.1775  0.2517
 6551SOL     OW25969   5.264   4.672   6.076 -0.1224  0.1066 -0.5040
 6551SOL    HW225970   5.233   4.583   6.094 -0.6303  0.4286  0.2898
 6551SOL    HW325971   5.194   4.711   6.022  0.6902 -0.3667 -1.9565
 6551SOL    MW425972   5.250   4.666   6.071 -0.0822  0.0867 -0.5909
 6552SOL     OW25973   4.335   1.691   5.425 -0.8117 -0.4583 -0.5345
 6552SOL    HW225974   4.393   1.618   5.446 -0.9508 -0.3060  0.4153
 6552SOL    HW325975   4.277   1.699   5.501 -1.1141  0.3351 -0.8353
 6552SOL    MW425976   4.335   1.683   5.438 -0.8699 -0.3335 -0.4488
 6553SOL     OW25977   2.648   1.197   2.633 -0.4000 -0.0580  0.5695
 6553SOL    HW225978   2.647   1.101   2.638 -0.1274 -0.0122  1.8319
 6553SOL    HW325979   2.593   1.217   2.558 -0.6781 -1.1933  0.4433
 6553SOL    MW425980   2.641   1.187   2.624 -0.4007 -0.2017  0.7194
 6554SOL     OW25981   0.853   3.511   0.651  0.6448 -0.3170  0.3413
 6554SOL    HW225982   0.888   3.474   0.570 -0.2915  0.1099 -0.2777
 6554SOL    HW325983   0.928   3.515   0.710  1.9051  1.4716 -1.2459
 6554SOL    MW425984   0.867   3.507   0.648  0.6875 -0.0247  0.0502
 6555SOL     OW25985   4.622   3.661   3.234 -0.1501 -0.0496  0.6245
 6555SOL    HW225986   4.679   3.602   3.184 -1.2743 -0.8243  0.2046
 6555SOL    HW325987   4.590   3.606   3.307 -0.4610  0.3373  0.7797
 6555SOL    MW425988   4.625   3.646   3.237 -0.3394 -0.1008  0.5896
 6556SOL     OW25989   0.630   1.563   1.710  0.1450 -0.0581 -0.0046
 6556SOL    HW225990   0.690   1.605   1.649  0.6209 -0.3108  0.2869
 6556SOL    HW325991   0.568   1.632   1.733  0.5113  0.2968 -0.0629
 6556SOL    MW425992   0.630   1.577   1.705  0.2561 -0.0446  0.0262
 6557SOL     OW25993   1.768   4.695   5.063 -0.7916 -0.1121  0.0546
 6557SOL    HW225994   1.854   4.688   5.104 -0.7637  2.0367  0.4796
 6557SOL    HW325995   1.707   4.702   5.137 -1.2483 -0.7145 -0.2538
 6557SOL    MW425996   1.771   4.695   5.078 -0.8482  0.0919  0.0700
 6558SOL     OW25997   4.885   4.597   4.015 -0.0931 -0.3789  0.1250
 6558SOL    HW225998   4.824   4.534   4.053 -2.3575  1.5681 -0.0604
 6558SOL    HW325999   4.971   4.554   4.022 -1.0070 -2.0324  3.1447
 6558SOL    MW426000   4.888   4.583   4.021 -0.5124 -0.3402  0.4989
 6559SOL     OW26001   4.199   3.461   0.429 -0.2226 -0.2412  0.3398
 6559SOL    HW226002   4.276   3.466   0.486  0.9216  0.8057 -1.2318
 6559SOL    HW326003   4.202   3.372   0.393  0.0354 -0.3230  0.5579
 6559SOL    MW426004   4.210   3.450   0.432 -0.0376 -0.1139  0.1612
 6560SOL     OW26005   3.105   1.591   5.972 -0.5504  0.0782  0.4513
 6560SOL    HW226006   3.130   1.507   5.933 -0.6820  0.9435 -1.6092
 6560SOL    HW326007   3.135   1.657   5.909 -1.0810  1.5619  1.6808
 6560SOL    MW426008   3.112   1.589   5.959 -0.6378  0.3881  0.3417
 6561SOL     OW26009   2.362   3.392   2.721 -0.3303  0.5342  0.1811
 6561SOL    HW226010   2.433   3.347   2.676 -0.6465  0.1462  0.0633
 6561SOL    HW326011   2.381   3.485   2.711  0.4407  0.4291  0.6004
 6561SOL    MW426012   2.374   3.399   2.714 -0.2703  0.4691  0.2209
 6562SOL     OW26013   0.085   1.116   3.795 -0.2494  0.1493 -0.1051
 6562SOL    HW226014   0.090   1.204   3.834  2.4939  0.5589 -1.1427
 6562SOL    HW326015  -0.004   1.110   3.761 -0.5443  2.5189  0.0736
 6562SOL    MW426016   0.074   1.127   3.796  0.0736  0.5160 -0.2185
 6563SOL     OW26017   1.646   3.276   5.851  0.3318  0.0109  0.5099
 6563SOL    HW226018   1.575   3.318   5.802 -0.3764 -1.5402  0.1427
 6563SOL    HW326019   1.699   3.349   5.883  0.2080  1.1471 -1.6460
 6563SOL    MW426020   1.643   3.291   5.849  0.2221 -0.0438  0.1770
 6564SOL     OW26021   4.536   0.509   0.458 -0.0968  0.3091  0.3174
 6564SOL    HW226022   4.501   0.470   0.538 -0.6771  1.4297  0.6236
 6564SOL    HW326023   4.571   0.593   0.485  1.3306 -0.0440 -0.3048
 6564SOL    MW426024   4.536   0.515   0.472  0.0150  0.4104  0.2757
 6565SOL     OW26025   6.340   4.174   5.829 -0.4556 -0.3874 -0.0439
 6565SOL    HW226026   6.423   4.163   5.877 -0.3551 -1.9846 -0.5276
 6565SOL    HW326027   6.308   4.085   5.817 -1.2852  0.0883 -1.5427
 6565SOL    MW426028   6.347   4.161   5.833 -0.5518 -0.5354 -0.3055
 6566SOL     OW26029   1.773   4.277   4.427  0.1930 -0.0333 -0.2384
 6566SOL    HW226030   1.814   4.194   4.450 -2.5495 -1.0816  1.4457
 6566SOL    HW326031   1.766   4.325   4.510 -1.3087  0.3478 -0.5457
 6566SOL    MW426032   1.777   4.272   4.441 -0.3670 -0.1213 -0.0568
 6567SOL     OW26033   1.143   4.970   0.451 -0.2772  0.4705  0.1882
 6567SOL    HW226034   1.098   4.893   0.485  0.9167 -0.2885  0.1349
 6567SOL    HW326035   1.181   5.012   0.528 -0.0780  0.4267  0.1158
 6567SOL    MW426036   1.142   4.965   0.466 -0.0934  0.3646  0.1716
 6568SOL     OW26037   6.151   1.883   1.764  0.4239  0.0951  0.2760
 6568SOL    HW226038   6.068   1.894   1.717  0.6237  2.7329  0.3803
 6568SOL    HW326039   6.212   1.853   1.696 -0.4906 -1.4835  0.1124
 6568SOL    MW426040   6.148   1.881   1.749  0.3296  0.2348  0.2682
 6569SOL     OW26041   4.351   1.557   3.306  0.0906 -0.0145  0.4502
 6569SOL    HW226042   4.330   1.587   3.218  1.2432 -0.2650  0.0852
 6569SOL    HW326043   4.445   1.573   3.316  0.2182 -1.1182  1.1860
 6569SOL    MW426044   4.360   1.563   3.296  0.2595 -0.1932  0.4991
 6570SOL     OW26045   1.282   1.628   2.151 -0.1468  0.5362 -0.1718
 6570SOL    HW226046   1.189   1.637   2.127 -0.6290 -0.4404  1.2135
 6570SOL    HW326047   1.319   1.572   2.083 -0.4529  1.2758 -0.9686
 6570SOL    MW426048   1.274   1.622   2.139 -0.2508  0.5049 -0.0941
 6571SOL     OW26049   0.157   1.804   3.953  0.4814  0.1595  0.2686
 6571SOL    HW226050   0.112   1.878   3.912  0.7751  0.8397  1.1385
 6571SOL    HW326051   0.217   1.772   3.886  0.9022  1.2030  0.1284
 6571SOL    MW426052   0.159   1.810   3.939  0.5757  0.3869  0.3648
 6572SOL     OW26053   1.571   3.348   3.231 -0.6636  0.1546 -0.2194
 6572SOL    HW226054   1.631   3.351   3.305 -0.2551 -0.2703 -0.5288
 6572SOL    HW326055   1.591   3.265   3.187 -0.7026  0.5337 -0.9676
 6572SOL    MW426056   1.581   3.337   3.235 -0.6149  0.1486 -0.3590
 6573SOL     OW26057   2.886   0.294   4.608  0.2727 -0.5232  0.1013
 6573SOL    HW226058   2.795   0.278   4.633 -0.1839  0.0349 -1.1108
 6573SOL    HW326059   2.896   0.389   4.611  0.2033 -0.4222 -1.6605
 6573SOL    MW426060   2.875   0.304   4.612  0.2033 -0.4362 -0.2911
 6574SOL     OW26061   4.310   0.417   2.467 -0.2979  0.4828 -0.5111
 6574SOL    HW226062   4.253   0.493   2.480 -0.3184  0.5374 -0.9145
 6574SOL    HW326063   4.398   0.449   2.489 -0.4515  0.3274  0.3695
 6574SOL    MW426064   4.314   0.431   2.472 -0.3209  0.4695 -0.4481
 6575SOL     OW26065   4.452   4.501   4.351  0.5372 -0.8117  0.2430
 6575SOL    HW226066   4.434   4.410   4.325  0.4037 -0.6752 -0.1523
 6575SOL    HW326067   4.489   4.541   4.272  0.0175 -0.3552  0.2242
 6575SOL    MW426068   4.454   4.494   4.337  0.4511 -0.7334  0.1884
 6576SOL     OW26069   1.500   5.271   2.315 -0.3062 -0.2361  0.3399
 6576SOL    HW226070   1.525   5.363   2.321  0.5019 -0.5352  2.4025
 6576SOL    HW326071   1.551   5.228   2.384 -1.1230 -2.1311 -0.1769
 6576SOL    MW426072   1.510   5.277   2.325 -0.3074 -0.5256  0.5438
 6577SOL     OW26073   4.458   0.624   4.605  0.2494 -0.3096  0.2724
 6577SOL    HW226074   4.515   0.626   4.682  1.5624 -0.1380 -0.6753
 6577SOL    HW326075   4.431   0.532   4.598  0.9793 -0.5335  0.3269
 6577SOL    MW426076   4.462   0.612   4.615  0.5189 -0.3165  0.1545
 6578SOL     OW26077   3.457   2.055   5.570 -0.2307 -0.2511 -0.2873
 6578SOL    HW226078   3.515   2.038   5.496 -0.6004 -0.8214 -0.4586
 6578SOL    HW326079   3.443   1.969   5.609  0.3991  0.1213  0.7829
 6578SOL    MW426080   3.463   2.041   5.565 -0.1964 -0.2772 -0.1687
 6579SOL     OW26081   2.340   3.069   5.634  0.0467  0.0926 -0.4330
 6579SOL    HW226082   2.359   2.987   5.588 -2.2565 -0.9059  0.2529
 6579SOL    HW326083   2.387   3.061   5.717  0.7314 -0.0066 -0.8166
 6579SOL    MW426084   2.349   3.057   5.639 -0.1669 -0.0522 -0.3931
 6580SOL     OW26085   1.106   4.768   5.869 -0.0128  0.4446  0.5177
 6580SOL    HW226086   1.198   4.777   5.843  0.3809  1.2651  2.0595
 6580SOL    HW326087   1.108   4.713   5.947 -0.5664  2.1755  1.8181
 6580SOL    MW426088   1.118   4.762   5.876 -0.0339  0.7813  0.8927
 6581SOL     OW26089   3.829   2.544   4.457  0.2140 -0.0917  0.0576
 6581SOL    HW226090   3.764   2.478   4.437 -0.9948  1.1050 -0.0682
 6581SOL    HW326091   3.851   2.529   4.549  0.6679 -1.2333 -0.2162
 6581SOL    MW426092   3.824   2.534   4.467  0.1144 -0.0844  0.0049
 6582SOL     OW26093   6.006   3.032   5.814  0.1365  0.8184 -0.2162
 6582SOL    HW226094   6.049   2.995   5.737  0.9295  0.4763  0.3723
 6582SOL    HW326095   6.069   3.096   5.847  0.8626 -0.7290  1.5085
 6582SOL    MW426096   6.020   3.036   5.808  0.3370  0.5691  0.0890
 6583SOL     OW26097   4.233   1.533   0.814  0.6668  0.1202 -0.2333
 6583SOL    HW226098   4.169   1.477   0.771  0.3228 -0.7773  1.3879
 6583SOL    HW326099   4.210   1.529   0.907  1.5431  1.7869  0.0979
 6583SOL    MW426100   4.221   1.525   0.821  0.7370  0.2217  0.0243
 6584SOL     OW26101   6.160   4.937   2.384  0.1203  0.2719  0.0893
 6584SOL    HW226102   6.137   5.029   2.379  0.0736  0.2211 -0.8657
 6584SOL    HW326103   6.109   4.895   2.314  1.6757 -0.1380 -0.8605
 6584SOL    MW426104   6.150   4.943   2.374  0.3194  0.2111 -0.1620
 6585SOL     OW26105   3.376   4.805   2.586  0.1539  0.3980  0.1986
 6585SOL    HW226106   3.364   4.851   2.669 -2.2760  1.3857 -0.6157
 6585SOL    HW326107   3.297   4.751   2.576  1.8700 -2.2856  0.0224
 6585SOL    MW426108   3.364   4.804   2.595  0.0597  0.1743  0.0679
 6586SOL     OW26109   1.694   1.084   2.830  0.6268 -0.9724  0.3675
 6586SOL    HW226110   1.768   1.024   2.831  1.2909 -0.1784 -0.2210
 6586SOL    HW326111   1.645   1.060   2.752  0.8253 -0.8240  0.1982
 6586SOL    MW426112   1.697   1.072   2.820  0.7406 -0.8480  0.2675
 6587SOL     OW26113   6.231   2.190   4.607  0.0797  0.2680  0.3743
 6587SOL    HW226114   6.240   2.095   4.601 -1.0703  0.2232 -1.3489
 6587SOL    HW326115   6.309   2.224   4.564 -0.7040  0.0293 -1.3483
 6587SOL    MW426116   6.242   2.182   4.601 -0.1754  0.2306 -0.0804
 6588SOL     OW26117   3.475   0.918   0.705 -0.1177  0.0863  0.2824
 6588SOL    HW226118   3.569   0.900   0.714 -0.6873 -3.8383 -0.0393
 6588SOL    HW326119   3.434   0.864   0.772 -2.3132 -1.0135 -1.8184
 6588SOL    MW426120   3.482   0.909   0.715 -0.4825 -0.5766 -0.0372
 6589SOL     OW26121   4.790   0.297   4.204 -0.4619  0.5961  0.2731
 6589SOL    HW226122   4.821   0.358   4.137  0.7136 -0.4309 -0.1496
 6589SOL    HW326123   4.814   0.338   4.287  0.9527  0.4074 -0.0185
 6589SOL    MW426124   4.797   0.311   4.206 -0.1202  0.4357  0.1789
 6590SOL     OW26125   2.955   0.580   5.442 -0.7861  0.6369  0.3235
 6590SOL    HW226126   2.928   0.493   5.415  0.5007  0.3830 -0.2056
 6590SOL    HW326127   2.879   0.614   5.491 -1.8917 -0.1577 -0.7696
 6590SOL    MW426128   2.941   0.573   5.445 -0.7622  0.4985  0.1094
 6591SOL     OW26129   2.890   6.024   6.330 -0.1022  0.2426 -0.3573
 6591SOL    HW226130   2.878   5.959   6.399 -1.6839  1.3841  0.5282
 6591SOL    HW326131   2.817   6.009   6.269 -0.1840  0.8284 -0.4163
 6591SOL    MW426132   2.879   6.013   6.331 -0.3217  0.4705 -0.2483
 6592SOL     OW26133   1.486   4.718   1.993  0.5182 -0.1502 -0.1744
 6592SOL    HW226134   1.474   4.812   1.983  0.6938 -0.1344 -0.2440
 6592SOL    HW326135   1.580   4.708   2.012  0.8497 -0.4262 -1.8021
 6592SOL    MW426136   1.497   4.729   1.994  0.5851 -0.1846 -0.3984
 6593SOL     OW26137   6.208   1.309   0.013 -0.2145  0.5494  0.2334
 6593SOL    HW226138   6.161   1.312   0.096 -1.3469 -1.1120 -0.2796
 6593SOL    HW326139   6.245   1.396   0.002 -2.2212  1.5914  1.2471
 6593SOL    MW426140   6.207   1.321   0.023 -0.6287  0.4677  0.2995
 6594SOL     OW26141   3.050   3.531   1.701 -0.1121  0.1629  0.2820
 6594SOL    HW226142   3.103   3.507   1.625  0.0469 -0.7449  0.6672
 6594SOL    HW326143   3.094   3.608   1.738  0.4107 -0.0329  0.0700
 6594SOL    MW426144   3.063   3.538   1.695 -0.0222  0.0173  0.3048
 6595SOL     OW26145   1.446   3.527   5.116 -0.1391 -0.1896 -0.3154
 6595SOL    HW226146   1.360   3.499   5.147 -0.9919 -0.7528 -2.8865
 6595SOL    HW326147   1.475   3.456   5.058  1.7296  0.3268 -0.0646
 6595SOL    MW426148   1.438   3.514   5.112 -0.0051 -0.1958 -0.6215
 6596SOL     OW26149   5.854   1.972   3.417  0.2849 -0.1292 -0.0485
 6596SOL    HW226150   5.931   1.959   3.361  0.5190 -1.1927  0.4791
 6596SOL    HW326151   5.803   1.892   3.406 -0.2929  0.1876  0.2993
 6596SOL    MW426152   5.858   1.960   3.408  0.2396 -0.2277  0.0670
 6597SOL     OW26153   1.616   4.094   1.602  0.4401 -0.1543 -0.1012
 6597SOL    HW226154   1.659   4.166   1.556 -0.7823  0.3263 -0.5274
 6597SOL    HW326155   1.643   4.015   1.554 -0.1173  0.2567 -1.1043
 6597SOL    MW426156   1.625   4.093   1.590  0.2053 -0.0367 -0.2898
 6598SOL     OW26157   5.020   0.991   5.308  0.5438 -0.6695  0.4080
 6598SOL    HW226158   4.980   0.912   5.271  0.0267  0.0178 -0.5687
 6598SOL    HW326159   5.103   0.962   5.344  1.3569 -1.3228 -1.8324
 6598SOL    MW426160   5.025   0.977   5.308  0.5828 -0.6650 -0.0165
 6599SOL     OW26161   0.420   2.509   5.995 -0.5032 -0.3622  0.1428
 6599SOL    HW226162   0.357   2.579   5.983 -1.9706 -1.4982  0.8339
 6599SOL    HW326163   0.478   2.540   6.064  0.3463  1.0980 -1.1754
 6599SOL    MW426164   0.419   2.522   6.002 -0.5847 -0.3194  0.0601
 6600SOL     OW26165   0.420   2.948   2.647 -0.0295  0.5033  0.2310
 6600SOL    HW226166   0.505   2.905   2.646 -0.7216 -0.9134  0.0550
 6600SOL    HW326167   0.425   3.013   2.577  1.3712  1.4335  1.1377
 6600SOL    MW426168   0.432   2.951   2.638  0.0640  0.4391  0.3274
 6601SOL     OW26169   3.545   5.271   4.591  0.0739 -0.2101  0.1915
 6601SOL    HW226170   3.484   5.198   4.577 -1.2669  0.8428  0.3079
 6601SOL    HW326171   3.617   5.232   4.642 -1.7727 -0.9854  2.4286
 6601SOL    MW426172   3.546   5.256   4.596 -0.3466 -0.1735  0.5020
 6602SOL     OW26173   5.805   4.837   5.285  0.5918 -1.1173  0.3160
 6602SOL    HW226174   5.874   4.863   5.226  0.9308 -3.8025 -0.5977
 6602SOL    HW326175   5.834   4.866   5.372  1.1678  0.8093 -0.4854
 6602SOL    MW426176   5.818   4.844   5.289  0.7125 -1.2174  0.0897
 6603SOL     OW26177   2.686   5.411   1.002  0.0352  0.4263 -0.2381
 6603SOL    HW226178   2.655   5.386   0.915 -0.7376  0.4463  0.0225
 6603SOL    HW326179   2.746   5.342   1.028 -0.7931 -0.3024 -0.2200
 6603SOL    MW426180   2.690   5.399   0.994 -0.1761  0.3328 -0.2013
 6604SOL     OW26181   1.231   2.194   3.620  0.2788 -0.1207  0.2478
 6604SOL    HW226182   1.262   2.133   3.553  0.0919  0.3619 -0.2917
 6604SOL    HW326183   1.303   2.255   3.632  0.2617 -0.1289  0.3949
 6604SOL    MW426184   1.245   2.194   3.613  0.2519 -0.0581  0.1961
 6605SOL     OW26185   3.732   1.237   2.825 -0.9569 -0.4345  0.3749
 6605SOL    HW226186   3.726   1.142   2.817 -1.9011 -0.3217 -0.5376
 6605SOL    HW326187   3.675   1.270   2.756  0.9215  0.8094 -0.6644
 6605SOL    MW426188   3.723   1.229   2.815 -0.8337 -0.2555  0.1174
 6606SOL     OW26189   4.500   0.434   5.434  0.0450 -0.9007  0.0242
 6606SOL    HW226190   4.440   0.460   5.505 -2.0553 -2.3331 -1.1086
 6606SOL    HW326191   4.578   0.403   5.479 -0.3065  0.3559  1.6053
 6606SOL    MW426192   4.502   0.433   5.449 -0.2785 -0.9239  0.0834
 6607SOL     OW26193   3.132   0.306   5.747 -0.0872 -0.2728 -0.2712
 6607SOL    HW226194   3.052   0.354   5.726  0.3597  0.1715 -0.9948
 6607SOL    HW326195   3.129   0.230   5.689  1.3060  1.1187 -2.2940
 6607SOL    MW426196   3.121   0.302   5.737  0.1556 -0.0306 -0.6336
 6608SOL     OW26197   0.778   3.690   3.388  0.2956 -0.2542 -0.8659
 6608SOL    HW226198   0.872   3.678   3.406  0.3898  0.6434 -0.7342
 6608SOL    HW326199   0.735   3.658   3.468  0.4299 -1.4386 -1.2403
 6608SOL    MW426200   0.785   3.684   3.401  0.3257 -0.2921 -0.8979
 6609SOL     OW26201   1.124   3.039   2.061 -0.2831  0.1236  0.5542
 6609SOL    HW226202   1.148   3.128   2.037  0.3335  0.1166  1.1441
 6609SOL    HW326203   1.057   3.015   1.997  0.7827  0.3774 -0.7034
 6609SOL    MW426204   1.118   3.047   2.049 -0.0611  0.1562  0.4661
 6610SOL     OW26205   4.510   6.156   4.903 -0.4751  0.1469  0.5011
 6610SOL    HW226206   4.572   6.124   4.837  0.5591 -1.3656  2.1187
 6610SOL    HW326207   4.534   6.248   4.916  1.9036 -0.5308  1.4967
 6610SOL    MW426208   4.521   6.164   4.896 -0.0248 -0.1421  0.8459
 6611SOL     OW26209   0.031   6.131   6.414 -0.5078  0.0616  0.0021
 6611SOL    HW226210   0.031   6.097   6.504 -0.6017 -0.5259 -0.2161
 6611SOL    HW326211   0.011   6.055   6.360  1.0334  0.0927 -0.6447
 6611SOL    MW426212   0.028   6.117   6.419 -0.3168 -0.0118 -0.1120
 6612SOL     OW26213   1.222   5.992   1.842 -0.1566  0.2350 -0.5586
 6612SOL    HW226214   1.179   5.922   1.793 -0.7566 -0.6531  1.1658
 6612SOL    HW326215   1.163   6.067   1.833 -1.5126 -0.6232  0.7655
 6612SOL    MW426216   1.209   5.993   1.834 -0.4147  0.0046 -0.1564
 6613SOL     OW26217   4.337   2.377   2.737  0.0865 -0.8085  0.3555
 6613SOL    HW226218   4.355   2.351   2.647  1.4011  1.0449  0.0122
 6613SOL    HW326219   4.307   2.468   2.730  1.8717 -0.0205  1.8391
 6613SOL    MW426220   4.336   2.386   2.724  0.4955 -0.4600  0.5059
 6614SOL     OW26221   0.443   5.925   5.440 -0.0369  0.4226 -0.5437
 6614SOL    HW226222   0.395   5.920   5.357  0.0880 -1.1680 -0.5354
 6614SOL    HW326223   0.522   5.873   5.425 -0.1135 -0.0620  0.6444
 6614SOL    MW426224   0.447   5.918   5.427 -0.0305  0.1488 -0.3858
 6615SOL     OW26225   3.697   4.904   2.431 -0.0557  0.9886  0.6266
 6615SOL    HW226226   3.650   4.832   2.473 -0.2098 -0.4782 -1.8762
 6615SOL    HW326227   3.632   4.974   2.424 -0.9183  0.1594  0.1539
 6615SOL    MW426228   3.682   4.904   2.436 -0.1898  0.6856  0.2340
 6616SOL     OW26229   3.989   4.457   0.289 -0.2961 -0.1017  0.2902
 6616SOL    HW226230   4.022   4.454   0.379 -1.1552 -0.7182  0.5993
 6616SOL    HW326231   3.921   4.524   0.291  0.0179  0.2234 -0.0156
 6616SOL    MW426232   3.985   4.465   0.301 -0.3680 -0.1402  0.2907
 6617SOL     OW26233   3.668   2.588   0.611 -0.1916  0.6700  0.0074
 6617SOL    HW226234   3.701   2.560   0.525  0.6167 -0.9609  0.8016
 6617SOL    HW326235   3.747   2.601   0.663 -0.7109 -0.5538  1.1450
 6617SOL    MW426236   3.683   2.586   0.606 -0.1534  0.2934  0.2623
 6618SOL     OW26237   2.211   1.229   0.958 -0.5000 -0.0866  0.2250
 6618SOL    HW226238   2.216   1.138   0.987  1.2235 -0.9974 -2.4824
 6618SOL    HW326239   2.285   1.272   0.999 -0.0289 -0.4898 -0.1953
 6618SOL    MW426240   2.221   1.223   0.967 -0.2105 -0.2599 -0.1877
 6619SOL     OW26241   5.230   2.778   1.582  0.5160 -0.0086 -0.1134
 6619SOL    HW226242   5.311   2.733   1.605 -0.2371 -1.9082 -1.0167
 6619SOL    HW326243   5.216   2.841   1.653  2.0617 -0.5810  0.7320
 6619SOL    MW426244   5.239   2.781   1.594  0.6206 -0.3347 -0.1210
 6620SOL     OW26245   1.087   4.623   1.893 -0.3400  0.4079 -0.0639
 6620SOL    HW226246   1.083   4.529   1.873  2.0556  0.6538 -2.1836
 6620SOL    HW326247   1.122   4.663   1.814 -0.1197  2.9491  1.2133
 6620SOL    MW426248   1.091   4.616   1.880  0.0051  0.7756 -0.1750
 6621SOL     OW26249   0.091   3.599   4.662 -0.4951 -0.3121  0.0845
 6621SOL    HW226250   0.165   3.545   4.689  1.4612  1.6576 -1.0887
 6621SOL    HW326251   0.088   3.671   4.724 -1.8492 -0.6697  0.4742
 6621SOL    MW426252   0.100   3.601   4.674 -0.4157 -0.0994 -0.0188
 6622SOL     OW26253   6.423   2.138   0.005  0.3447 -0.3459 -0.1981
 6622SOL    HW226254   6.468   2.222  -0.005  1.4155 -0.9831 -0.8918
 6622SOL    HW326255   6.354   2.139  -0.061  0.1821  0.0943 -0.0226
 6622SOL    MW426256   6.420   2.149  -0.005  0.4645 -0.3719 -0.2664
 6623SOL     OW26257   2.765   0.170   4.139  0.9373  0.1899  0.2015
 6623SOL    HW226258   2.808   0.159   4.054 -0.0259 -0.7963 -0.1882
 6623SOL    HW326259   2.742   0.081   4.165  2.1003  0.3756  1.9862
 6623SOL    MW426260   2.768   0.157   4.131  0.9636  0.0843  0.3856
 6624SOL     OW26261   4.582   6.075   0.002 -0.1729  0.4309  0.4509
 6624SOL    HW226262   4.673   6.063  -0.027 -0.2898 -0.3598  0.4077
 6624SOL    HW326263   4.538   5.993  -0.020 -1.2326  1.2696 -0.7167
 6624SOL    MW426264   4.588   6.063  -0.005 -0.3281  0.4373  0.2912
 6625SOL     OW26265   2.145   2.050   4.567  0.2089 -0.3675  0.2606
 6625SOL    HW226266   2.173   1.977   4.622 -1.2457 -1.8179 -0.8483
 6625SOL    HW326267   2.132   2.012   4.480 -0.6899  1.1988 -0.3335
 6625SOL    MW426268   2.147   2.035   4.563 -0.1016 -0.3522  0.0359
 6626SOL     OW26269   0.467   4.091   5.232  0.1262  0.5205  1.0133
 6626SOL    HW226270   0.421   4.075   5.150  0.4590  2.2819  0.4411
 6626SOL    HW326271   0.406   4.062   5.300 -1.6028  2.1683  0.2612
 6626SOL    MW426272   0.453   4.085   5.230 -0.0581  0.9703  0.8386
 6627SOL     OW26273   3.987   2.773   1.952 -0.6172 -0.1158 -0.2405
 6627SOL    HW226274   4.009   2.688   1.914  4.1009  0.8692 -0.2862
 6627SOL    HW326275   3.982   2.756   2.046 -3.5543 -0.9923 -0.4737
 6627SOL    MW426276   3.989   2.760   1.959 -0.3822 -0.1015 -0.2773
 6628SOL     OW26277   4.098   4.573   1.244 -0.1444  0.2814  0.0090
 6628SOL    HW226278   4.174   4.570   1.186  1.3518 -1.9251  1.9051
 6628SOL    HW326279   4.135   4.571   1.332 -2.3448 -2.6525  1.0131
 6628SOL    MW426280   4.113   4.572   1.248 -0.2373 -0.3968  0.3917
 6629SOL     OW26281   2.344   5.324   4.917  0.0708 -0.4173 -0.3208
 6629SOL    HW226282   2.283   5.251   4.907 -0.6151 -0.0580  1.0163
 6629SOL    HW326283   2.388   5.307   5.000 -0.5373  0.9851  0.3262
 6629SOL    MW426284   2.342   5.312   4.927 -0.0999 -0.1848 -0.0591
 6630SOL     OW26285   5.233   1.749   3.617 -0.4701 -0.2892  0.4512
 6630SOL    HW226286   5.237   1.665   3.572  0.7213 -0.5192  0.9604
 6630SOL    HW326287   5.192   1.808   3.553  0.0053 -0.9129 -0.4475
 6630SOL    MW426288   5.228   1.746   3.602 -0.2502 -0.4018  0.3998
 6631SOL     OW26289   4.519   1.670   4.419  0.3564  0.0144 -0.4165
 6631SOL    HW226290   4.438   1.700   4.377  0.0753  0.1150  0.1909
 6631SOL    HW326291   4.587   1.687   4.354 -0.3920 -2.2125 -1.8897
 6631SOL    MW426292   4.517   1.676   4.405  0.2206 -0.2661 -0.5307
 6632SOL     OW26293   2.909   5.642   5.924  0.8424  0.1336 -0.3687
 6632SOL    HW226294   2.902   5.726   5.971  0.0536  1.1328 -2.1684
 6632SOL    HW326295   2.988   5.650   5.871  0.2715  0.1330 -1.2439
 6632SOL    MW426296   2.918   5.654   5.924  0.6630  0.2654 -0.7217
 6633SOL     OW26297   0.636   2.662   1.718  0.0198  0.1235 -0.6532
 6633SOL    HW226298   0.542   2.676   1.707 -0.2102 -2.2435 -2.4496
 6633SOL    HW326299   0.670   2.654   1.629  2.0631  1.3855 -0.0577
 6633SOL    MW426300   0.628   2.663   1.705  0.2590 -0.0223 -0.8117
 6634SOL     OW26301   1.107   0.372   2.892  0.3554  0.2522  0.1996
 6634SOL    HW226302   1.081   0.432   2.961 -3.3688 -0.3639 -0.4711
 6634SOL    HW326303   1.099   0.422   2.811 -0.1703 -0.3912 -0.1583
 6634SOL    MW426304   1.103   0.386   2.891 -0.2053  0.0861  0.0639
 6635SOL     OW26305   1.808   3.049   4.975 -0.2350 -0.0527  0.5970
 6635SOL    HW226306   1.889   3.095   4.997 -0.0178 -1.1441  2.2706
 6635SOL    HW326307   1.784   3.003   5.055 -0.6353 -2.5230 -0.8359
 6635SOL    MW426308   1.816   3.049   4.988 -0.2591 -0.5227  0.6288
 6636SOL     OW26309   2.893   1.431   4.948  0.0758  0.5175 -0.4406
 6636SOL    HW226310   2.816   1.404   4.998 -0.5858 -0.8399 -2.0936
 6636SOL    HW326311   2.939   1.350   4.928 -0.0635  0.8980 -2.5588
 6636SOL    MW426312   2.889   1.417   4.952 -0.0299  0.3886 -0.9382
 6637SOL     OW26313   5.879   5.478   3.287  0.0293  0.3402 -0.4194
 6637SOL    HW226314   5.864   5.551   3.346 -1.3104 -2.2342  2.7393
 6637SOL    HW326315   5.974   5.473   3.277  0.1399  2.9691 -1.5738
 6637SOL    MW426316   5.889   5.487   3.293 -0.1329  0.3474 -0.1550
 6638SOL     OW26317   5.760   4.578   2.456 -0.4581  0.4607  0.2852
 6638SOL    HW226318   5.765   4.662   2.410  0.4850  1.0085  1.3360
 6638SOL    HW326319   5.726   4.600   2.542  3.1184  0.4093  1.8877
 6638SOL    MW426320   5.756   4.592   2.461  0.1382  0.5262  0.6353
 6639SOL     OW26321   0.975   0.689   3.509  0.1630  0.2730  0.0955
 6639SOL    HW226322   1.054   0.709   3.559 -0.9812  1.5175  1.5113
 6639SOL    HW326323   0.963   0.764   3.452  0.2369 -0.1275 -0.4571
 6639SOL    MW426324   0.984   0.701   3.508  0.0218  0.3844  0.2094
 6640SOL     OW26325   1.436   0.357   2.017  0.0742 -0.0151 -0.4640
 6640SOL    HW226326   1.359   0.333   1.966  0.0941 -1.1508 -0.0087
 6640SOL    HW326327   1.499   0.389   1.953  0.0724 -1.3327 -1.1625
 6640SOL    MW426328   1.434   0.358   2.002  0.0766 -0.3388 -0.4961
 6641SOL     OW26329   3.150   4.677   0.428 -0.2108  0.3306 -0.2436
 6641SOL    HW226330   3.108   4.618   0.491 -1.1907  2.8151  1.5824
 6641SOL    HW326331   3.222   4.717   0.477  2.1349 -1.1494 -2.2482
 6641SOL    MW426332   3.154   4.674   0.443 -0.0306  0.4631 -0.2672
 6642SOL     OW26333   1.292   0.731   0.207  0.0692 -0.1466  0.2445
 6642SOL    HW226334   1.296   0.654   0.149 -0.5376  0.5361 -0.7201
 6642SOL    HW326335   1.202   0.731   0.240 -0.4683  1.0599 -1.0789
 6642SOL    MW426336   1.281   0.720   0.203 -0.0818  0.1027 -0.0574
 6643SOL     OW26337   2.842   2.674   6.297 -0.2281  0.5721  0.1073
 6643SOL    HW226338   2.840   2.757   6.344 -0.4895  0.0099  1.1240
 6643SOL    HW326339   2.752   2.642   6.303  0.3528 -0.8673  1.7445
 6643SOL    MW426340   2.830   2.681   6.304 -0.1859  0.3080  0.4574
 6644SOL     OW26341   5.558   0.885   2.518  0.0446 -0.5652  0.1491
 6644SOL    HW226342   5.559   0.938   2.439 -1.4837 -1.5070 -0.5432
 6644SOL    HW326343   5.644   0.899   2.557  0.3388  0.9568 -0.9650
 6644SOL    MW426344   5.570   0.894   2.513 -0.1182 -0.4886 -0.0893
 6645SOL     OW26345   4.584   1.896   4.582  0.0851  0.3924  0.3983
 6645SOL    HW226346   4.504   1.907   4.634 -0.8123 -0.6082 -0.6907
 6645SOL    HW326347   4.568   1.816   4.532  1.7806  0.1940  0.1345
 6645SOL    MW426348   4.571   1.887   4.582  0.1904  0.2342  0.2198
 6646SOL     OW26349   3.346   2.026   1.122 -0.8736  0.0089 -0.7099
 6646SOL    HW226350   3.295   2.087   1.175 -1.7001  0.0223 -1.5116
 6646SOL    HW326351   3.437   2.056   1.132 -0.9421 -0.2542  1.0538
 6646SOL    MW426352   3.352   2.038   1.131 -0.9917 -0.0241 -0.5830
 6647SOL     OW26353   2.457   3.477   5.671 -0.1134  0.5188  0.1768
 6647SOL    HW226354   2.480   3.390   5.638 -1.7389 -0.1482  0.7055
 6647SOL    HW326355   2.483   3.537   5.601 -1.3324 -0.6467 -1.3424
 6647SOL    MW426356   2.463   3.473   5.657 -0.4887  0.2770  0.0461
 6648SOL     OW26357   3.117   0.808   2.820 -0.7056  0.5269  0.3964
 6648SOL    HW226358   3.122   0.749   2.746  3.3200 -0.2766  1.0897
 6648SOL    HW326359   3.055   0.767   2.880 -1.9028 -0.2191 -1.2803
 6648SOL    MW426360   3.109   0.795   2.819 -0.3324  0.3225  0.2667
 6649SOL     OW26361   1.185   0.885   4.293 -0.3471  0.2349 -0.0797
 6649SOL    HW226362   1.168   0.896   4.387  0.8856 -1.4413  0.3933
 6649SOL    HW326363   1.272   0.923   4.279 -0.8677  1.2214 -0.7387
 6649SOL    MW426364   1.194   0.891   4.304 -0.2532  0.1439 -0.1043
 6650SOL     OW26365   5.714   0.505   3.430  0.0950 -0.2515 -0.4107
 6650SOL    HW226366   5.654   0.473   3.362 -0.2301 -0.6969  0.0806
 6650SOL    HW326367   5.675   0.587   3.459  1.4455  1.1451 -2.3626
 6650SOL    MW426368   5.701   0.511   3.425  0.2303 -0.1260 -0.6034
 6651SOL     OW26369   1.573   4.468   3.883  0.2623 -0.0385 -0.2728
 6651SOL    HW226370   1.548   4.377   3.868  0.3705 -0.3306  1.1314
 6651SOL    HW326371   1.604   4.469   3.974  1.0510  1.2352 -0.5329
 6651SOL    MW426372   1.574   4.456   3.893  0.3806  0.0910 -0.1219
 6652SOL     OW26373   0.995   5.109   0.049 -0.2331  0.7850 -0.1466
 6652SOL    HW226374   0.902   5.132   0.037  0.2432  2.1480 -1.5397
 6652SOL    HW326375   1.017   5.147   0.134 -1.4209 -1.3473  1.2226
 6652SOL    MW426376   0.985   5.117   0.059 -0.3270  0.6835 -0.1497
 6653SOL     OW26377   3.472   2.982   0.064 -0.1769 -0.5708  0.8982
 6653SOL    HW226378   3.532   2.969  -0.009 -1.9641 -0.3596 -0.6998
 6653SOL    HW326379   3.459   2.894   0.100 -1.5378 -1.2038 -0.9840
 6653SOL    MW426380   3.478   2.968   0.059 -0.5922 -0.6265  0.4390
 6654SOL     OW26381   1.823   2.506   6.067 -0.1736 -0.3594 -0.6608
 6654SOL    HW226382   1.799   2.422   6.029 -1.3800  0.3284 -1.4948
 6654SOL    HW326383   1.757   2.523   6.134  1.0535 -0.8383  0.7444
 6654SOL    MW426384   1.811   2.497   6.071 -0.1709 -0.3319 -0.5854
 6655SOL     OW26385   2.647   3.156   5.031 -0.4016  0.7639 -0.0390
 6655SOL    HW226386   2.614   3.176   5.119 -3.1555  0.0730 -0.8331
 6655SOL    HW326387   2.742   3.163   5.040 -0.5620  0.5700  3.0197
 6655SOL    MW426388   2.655   3.160   5.044 -0.7861  0.6471  0.2598
 6656SOL     OW26389   5.992   3.398   2.135 -0.8992  0.1425  0.2430
 6656SOL    HW226390   6.009   3.315   2.091 -0.5888  0.2856  0.0927
 6656SOL    HW326391   5.899   3.415   2.119 -0.4716  0.9526 -1.6876
 6656SOL    MW426392   5.982   3.389   2.127 -0.8018  0.2683 -0.0315
 6657SOL     OW26393   4.132   1.864   1.014 -0.2467 -0.1483 -0.0603
 6657SOL    HW226394   4.193   1.848   0.941 -1.6876 -0.1971 -1.2986
 6657SOL    HW326395   4.095   1.778   1.033 -1.0449  0.1186 -0.3595
 6657SOL    MW426396   4.135   1.850   1.007 -0.5421 -0.1195 -0.2631
 6658SOL     OW26397   6.100   3.228   1.269  0.0927  0.2972 -0.5328
 6658SOL    HW226398   6.137   3.202   1.354  0.4707  2.3084 -0.0263
 6658SOL    HW326399   6.079   3.146   1.226  1.0974 -0.8122  0.9852
 6658SOL    MW426400   6.102   3.214   1.275  0.2751  0.4162 -0.2657
 6659SOL     OW26401   5.804   0.288   2.007  0.3110  0.4620  0.2656
 6659SOL    HW226402   5.842   0.330   2.084  4.2777 -1.3004 -0.4754
 6659SOL    HW326403   5.794   0.360   1.944 -3.7129  2.0896  2.3218
 6659SOL    MW426404   5.807   0.303   2.009  0.3035  0.4442  0.4391
 6660SOL     OW26405   4.996   5.564   0.343  0.0901 -0.1008  0.6236
 6660SOL    HW226406   4.921   5.550   0.401  0.7118  0.0876  1.4841
 6660SOL    HW326407   5.032   5.476   0.329  0.0347 -0.1262  0.6377
 6660SOL    MW426408   4.991   5.550   0.349  0.1648 -0.0793  0.7390
 6661SOL     OW26409   0.615   0.691   3.941 -0.8607  0.4096  0.3754
 6661SOL    HW226410   0.657   0.679   3.855 -4.8885 -0.2244 -1.7579
 6661SOL    HW326411   0.671   0.755   3.986  1.8822  0.1941 -2.3479
 6661SOL    MW426412   0.628   0.698   3.935 -1.0302  0.2976 -0.2654
 6662SOL     OW26413   5.922   1.220   5.859 -0.0134 -0.8675 -0.1226
 6662SOL    HW226414   5.859   1.187   5.796  0.2546 -0.9413 -0.3531
 6662SOL    HW326415   5.883   1.300   5.893 -0.3652 -1.0692 -0.0443
 6662SOL    MW426416   5.909   1.226   5.855 -0.0244 -0.9038 -0.1427
 6663SOL     OW26417   2.837   2.171   4.079  0.3976 -0.6095  0.3673
 6663SOL    HW226418   2.756   2.130   4.049  0.2156  0.1607 -0.2474
 6663SOL    HW326419   2.831   2.170   4.174 -0.0278 -1.1586  0.3361
 6663SOL    MW426420   2.825   2.166   4.087  0.3174 -0.5803  0.2820
 6664SOL     OW26421   3.065   0.225   6.262 -0.0219 -0.1196  0.3917
 6664SOL    HW226422   3.155   0.211   6.231 -0.5340 -1.2307 -0.6489
 6664SOL    HW326423   3.026   0.282   6.196 -0.3693 -0.4511  0.3090
 6664SOL    MW426424   3.072   0.230   6.249 -0.1353 -0.3099  0.2435
 6665SOL     OW26425   2.274   5.652   0.899 -0.3045  0.5799 -0.0119
 6665SOL    HW226426   2.215   5.678   0.829  0.6965 -1.0205 -1.5295
 6665SOL    HW326427   2.345   5.716   0.896  0.7834 -0.6148 -1.9205
 6665SOL    MW426428   2.276   5.664   0.890 -0.0289  0.2111 -0.4639
 6666SOL     OW26429   5.411   4.535   5.441  0.5549  0.2859  0.5203
 6666SOL    HW226430   5.399   4.473   5.512 -0.7283  1.7508  1.6695
 6666SOL    HW326431   5.503   4.560   5.445  1.6553 -2.9507 -1.2819
 6666SOL    MW426432   5.421   4.530   5.451  0.5308  0.0522  0.4342
 6667SOL     OW26433   1.031   2.816   0.034  0.0671  0.6078 -0.2709
 6667SOL    HW226434   0.942   2.806   0.069  0.3892  0.6925  0.6206
 6667SOL    HW326435   1.029   2.898  -0.015 -0.1318  1.0849  0.5099
 6667SOL    MW426436   1.019   2.825   0.032  0.0834  0.6819 -0.0503
 6668SOL     OW26437   5.142   0.963   0.869 -0.6598 -0.6556  0.2689
 6668SOL    HW226438   5.198   0.905   0.921  0.8550  0.4328 -0.0744
 6668SOL    HW326439   5.163   0.941   0.778  0.2803  0.6824  0.1273
 6668SOL    MW426440   5.152   0.953   0.864 -0.3359 -0.3355  0.2049
 6669SOL     OW26441   3.555   0.916   5.845 -0.2963  0.2214  0.0541
 6669SOL    HW226442   3.525   0.996   5.801  1.2948 -0.4098 -2.4047
 6669SOL    HW326443   3.507   0.914   5.928 -1.9850  2.5743 -0.7688
 6669SOL    MW426444   3.545   0.926   5.850 -0.3092  0.4486 -0.3789
 6670SOL     OW26445   3.825   0.538   5.877 -0.0030  0.0946 -0.2075
 6670SOL    HW226446   3.920   0.546   5.881 -0.1561  1.3728  1.6841
 6670SOL    HW326447   3.792   0.604   5.937 -2.1060 -0.3531 -0.7829
 6670SOL    MW426448   3.833   0.548   5.885 -0.3007  0.2041 -0.0338
 6671SOL     OW26449   0.102   4.293   2.197 -0.0340  0.4021 -0.2897
 6671SOL    HW226450   0.102   4.207   2.239 -1.8349 -0.1718 -1.3381
 6671SOL    HW326451   0.051   4.349   2.255 -2.3012 -0.3247 -1.4511
 6671SOL    MW426452   0.096   4.289   2.210 -0.5708  0.2305 -0.5812
 6672SOL     OW26453   0.076   5.055   3.222  0.4614 -0.3906 -0.4871
 6672SOL    HW226454   0.117   5.099   3.147 -2.1686  0.4664 -1.5664
 6672SOL    HW326455   0.017   5.121   3.259 -0.3632 -1.6807  0.5963
 6672SOL    MW426456   0.074   5.069   3.217  0.0056 -0.4477 -0.4865
 6673SOL     OW26457   3.366   4.868   3.291  0.0704 -0.3966 -0.0803
 6673SOL    HW226458   3.373   4.963   3.282  3.4105 -0.4798  0.5607
 6673SOL    HW326459   3.330   4.855   3.378  1.4443  0.3341  0.6313
 6673SOL    MW426460   3.362   4.879   3.301  0.6923 -0.3112  0.0982
 6674SOL     OW26461   3.455   3.404   2.233 -0.4104  0.3896 -0.4703
 6674SOL    HW226462   3.425   3.448   2.154 -1.0339  1.9000  0.5554
 6674SOL    HW326463   3.378   3.404   2.291  0.0172 -0.7318  0.1244
 6674SOL    MW426464   3.441   3.410   2.230 -0.4363  0.4409 -0.2565
 6675SOL     OW26465   5.309   3.416   6.114  0.2582 -0.0758 -0.0565
 6675SOL    HW226466   5.234   3.418   6.055 -0.6507 -3.1260  0.7952
 6675SOL    HW326467   5.272   3.410   6.201  1.4713 -1.1244  0.4209
 6675SOL    MW426468   5.294   3.415   6.117  0.2983 -0.6165  0.1189
 6676SOL     OW26469   5.261   1.234   2.513  0.4557  0.2066 -0.3374
 6676SOL    HW226470   5.297   1.236   2.424  0.3255  0.8145 -0.3790
 6676SOL    HW326471   5.315   1.170   2.559  0.2356 -0.4452 -0.9765
 6676SOL    MW426472   5.273   1.226   2.508  0.4095  0.2008 -0.4272
 6677SOL     OW26473   3.877   2.224   6.419 -0.1534 -0.4212 -0.2744
 6677SOL    HW226474   3.969   2.199   6.411  0.3450  1.0942  0.4013
 6677SOL    HW326475   3.830   2.157   6.368  1.2821 -1.3399 -0.4621
 6677SOL    MW426476   3.883   2.211   6.411  0.1017 -0.3425 -0.2100
 6678SOL     OW26477   6.047   4.680   2.518 -0.3107 -0.2516 -0.3224
 6678SOL    HW226478   5.960   4.699   2.482  0.6793  1.5150 -1.9528
 6678SOL    HW326479   6.080   4.765   2.545  0.0709 -1.1925  2.4538
 6678SOL    MW426480   6.040   4.694   2.517 -0.1297 -0.1427 -0.1713
 6679SOL     OW26481   2.761   0.933   2.949  0.2813 -0.0523  0.1489
 6679SOL    HW226482   2.808   0.872   2.892 -2.3890 -0.0454 -2.2292
 6679SOL    HW326483   2.793   1.020   2.923  0.4047 -0.1505 -0.0289
 6679SOL    MW426484   2.772   0.937   2.938 -0.0547 -0.0643 -0.1883
 6680SOL     OW26485   5.084   2.124   6.402  0.1870 -0.1239 -0.2028
 6680SOL    HW226486   5.100   2.160   6.489 -0.0018 -2.2602  0.7805
 6680SOL    HW326487   5.167   2.136   6.355  0.0247  1.8250 -0.0675
 6680SOL    MW426488   5.097   2.130   6.407  0.1406 -0.1486 -0.0552
 6681SOL     OW26489   1.418   6.173   2.923  0.0861  0.0325 -0.4631
 6681SOL    HW226490   1.413   6.210   3.011 -0.6597 -0.5790 -0.2311
 6681SOL    HW326491   1.477   6.098   2.932 -2.3435 -1.9309  0.2728
 6681SOL    MW426492   1.425   6.168   2.936 -0.3329 -0.3072 -0.3354
 6682SOL     OW26493   5.574   0.286   0.012  0.2190  0.6377 -0.3661
 6682SOL    HW226494   5.554   0.229  -0.063 -1.2298  2.6024 -1.5707
 6682SOL    HW326495   5.668   0.303   0.004  0.5602 -1.0628 -0.3130
 6682SOL    MW426496   5.584   0.281   0.001  0.0728  0.6726 -0.5180
 6683SOL     OW26497   0.872   6.350   2.257 -0.1869  0.0151 -0.1013
 6683SOL    HW226498   0.804   6.343   2.324 -0.3183  1.4495 -0.0420
 6683SOL    HW326499   0.824   6.364   2.175 -0.0480 -2.2464 -0.6366
 6683SOL    MW426500   0.857   6.351   2.255 -0.1859 -0.0940 -0.1641
 6684SOL     OW26501   2.977   0.393   6.057  0.1748 -0.0747  0.1501
 6684SOL    HW226502   3.048   0.453   6.031 -0.6835  1.1833  0.5812
 6684SOL    HW326503   2.976   0.326   5.990  0.9997  0.5555 -0.5159
 6684SOL    MW426504   2.986   0.392   6.045  0.1704  0.1744  0.1191
 6685SOL     OW26505   4.142   2.866   0.021 -0.7867 -0.0560  0.4054
 6685SOL    HW226506   4.108   2.778   0.003  0.3794 -1.0388  2.6275
 6685SOL    HW326507   4.070   2.925  -0.003 -2.3689 -1.7500  0.7685
 6685SOL    MW426508   4.128   2.862   0.016 -0.8416 -0.4092  0.7465
 6686SOL     OW26509   5.350   2.709   0.859 -0.0562 -0.1912 -0.3247
 6686SOL    HW226510   5.361   2.708   0.954 -1.6285  0.5726 -0.1035
 6686SOL    HW326511   5.260   2.739   0.845  0.3851  0.4748 -2.0778
 6686SOL    MW426512   5.340   2.713   0.870 -0.2054 -0.0026 -0.5268
 6687SOL     OW26513   2.724   0.156   3.248 -0.2623 -0.1533  0.5572
 6687SOL    HW226514   2.691   0.246   3.255  0.9388  0.1677  2.9699
 6687SOL    HW326515   2.791   0.160   3.179  0.8758  1.1972  1.6901
 6687SOL    MW426516   2.728   0.168   3.240  0.0463  0.0672  1.0250
 6688SOL     OW26517   0.228   1.564   2.636  0.3137 -0.1276  0.7551
 6688SOL    HW226518   0.261   1.474   2.636  0.2667 -0.3117 -2.9906
 6688SOL    HW326519   0.296   1.614   2.590 -1.1594  1.0104 -0.2790
 6688SOL    MW426520   0.241   1.559   2.630  0.1131 -0.0018  0.1245
 6689SOL     OW26521   5.256   0.858   4.003  0.1586  0.0580  0.0756
 6689SOL    HW226522   5.296   0.842   3.918  0.3351  0.6375  0.0519
 6689SOL    HW326523   5.283   0.946   4.027 -2.1757  1.0305 -0.5675
 6689SOL    MW426524   5.265   0.867   3.995 -0.1261  0.2627 -0.0124
 6690SOL     OW26525   4.793   3.978   2.258  0.2695  0.4781 -0.1073
 6690SOL    HW226526   4.824   3.918   2.326 -0.4842  0.5824  0.3436
 6690SOL    HW326527   4.818   4.065   2.290  0.6581  0.4684 -0.3766
 6690SOL    MW426528   4.801   3.982   2.272  0.2213  0.4906 -0.0833
 6691SOL     OW26529   4.152   3.015   3.191 -0.2535 -0.4772  0.1691
 6691SOL    HW226530   4.105   3.024   3.274  0.6169  0.0894  0.6175
 6691SOL    HW326531   4.188   3.102   3.174  0.5291 -0.8638 -0.2150
 6691SOL    MW426532   4.150   3.028   3.200 -0.0354 -0.4534  0.1776
 6692SOL     OW26533   0.769   0.073   5.895 -0.0592 -0.0471 -0.1208
 6692SOL    HW226534   0.716   0.041   5.822  1.6643  0.7014 -1.7739
 6692SOL    HW326535   0.788  -0.004   5.947 -1.8647 -0.4948 -0.0520
 6692SOL    MW426536   0.764   0.059   5.892 -0.0701 -0.0074 -0.3298
 6693SOL     OW26537   3.753   4.496   5.315 -0.4117  0.1713  0.0950
 6693SOL    HW226538   3.837   4.540   5.330 -0.5167  0.7086 -0.8092
 6693SOL    HW326539   3.776   4.414   5.272 -0.3119  0.0184  0.4366
 6693SOL    MW426540   3.767   4.491   5.312 -0.4124  0.2220  0.0208
 6694SOL     OW26541   4.930   2.315   2.119 -0.9176  0.1799 -0.0321
 6694SOL    HW226542   4.884   2.382   2.170  0.6365  1.7777 -0.6652
 6694SOL    HW326543   5.014   2.354   2.098  0.5529 -2.4209  0.5700
 6694SOL    MW426544   4.935   2.329   2.123 -0.5186  0.0476 -0.0362
 6695SOL     OW26545   0.853   2.330   6.366 -0.2327  0.3692  0.2593
 6695SOL    HW226546   0.915   2.283   6.422  0.3868  0.4998 -0.3146
 6695SOL    HW326547   0.907   2.392   6.317 -1.0917  2.2310  1.5138
 6695SOL    MW426548   0.868   2.332   6.367 -0.2643  0.6320  0.3491
 6696SOL     OW26549   3.306   0.743   3.484  0.2381  0.0332  0.1364
 6696SOL    HW226550   3.393   0.706   3.470  0.0735 -1.0889  1.7700
 6696SOL    HW326551   3.247   0.670   3.466 -0.3156  0.5211 -0.0439
 6696SOL    MW426552   3.310   0.728   3.479  0.1433 -0.0505  0.3282
 6697SOL     OW26553   3.649   0.560   1.012  0.2495  0.1587  0.0493
 6697SOL    HW226554   3.684   0.632   0.959 -0.4166  1.1515  0.9059
 6697SOL    HW326555   3.578   0.600   1.063  0.2155 -0.9867  0.9543
 6697SOL    MW426556   3.644   0.575   1.012  0.1571  0.1386  0.2818
 6698SOL     OW26557   4.342   0.329   0.628  0.1015  0.6595 -0.4641
 6698SOL    HW226558   4.319   0.378   0.707  0.3708 -0.4417  0.3386
 6698SOL    HW326559   4.291   0.248   0.635  0.0867  0.5701 -1.4644
 6698SOL    MW426560   4.332   0.325   0.640  0.1351  0.5024 -0.4902
 6699SOL     OW26561   6.235   1.299   5.493  0.2016  0.2025 -0.1666
 6699SOL    HW226562   6.211   1.381   5.537 -1.0656  0.1182 -0.6395
 6699SOL    HW326563   6.156   1.245   5.500  0.6596 -0.5636 -0.8114
 6699SOL    MW426564   6.221   1.303   5.500  0.0948  0.0903 -0.3141
 6700SOL     OW26565   4.634   4.156   1.170 -0.2423  0.3921  0.4291
 6700SOL    HW226566   4.583   4.075   1.170 -0.6821  0.6209 -1.4902
 6700SOL    HW326567   4.576   4.220   1.211 -1.5403  0.6078 -1.5769
 6700SOL    MW426568   4.620   4.154   1.175 -0.4716  0.4508 -0.0888
 6701SOL     OW26569   5.866   4.330   1.690 -0.3520  0.5364  0.2921
 6701SOL    HW226570   5.875   4.419   1.725  0.0804  0.0978  1.3341
 6701SOL    HW326571   5.772   4.320   1.675 -0.3848  1.2305 -0.0080
 6701SOL    MW426572   5.854   4.341   1.692 -0.2993  0.5701  0.3900
 6702SOL     OW26573   4.968   4.681   0.610 -0.2295  0.1840  0.7468
 6702SOL    HW226574   4.986   4.751   0.548  0.7194 -0.0824  0.7140
 6702SOL    HW326575   4.992   4.717   0.695  0.3036 -0.1159  0.7245
 6702SOL    MW426576   4.973   4.695   0.613 -0.0339  0.1093  0.7395
 6703SOL     OW26577   3.288   2.847   1.443 -0.4977  0.2808  0.0702
 6703SOL    HW226578   3.375   2.814   1.423 -0.4557  1.6884 -2.4061
 6703SOL    HW326579   3.229   2.797   1.387 -1.3872 -0.8887  1.9560
 6703SOL    MW426580   3.291   2.836   1.433 -0.6095  0.3122 -0.0077
 6704SOL     OW26581   3.517   4.640   6.088  0.0356  0.4340 -0.4788
 6704SOL    HW226582   3.594   4.681   6.128 -0.7049 -1.4353  3.3076
 6704SOL    HW326583   3.442   4.687   6.126 -0.7079 -0.9637 -0.1386
 6704SOL    MW426584   3.517   4.651   6.098 -0.1602  0.0030  0.0656
 6705SOL     OW26585   4.945   1.584   3.198  0.1171 -0.4957  0.0113
 6705SOL    HW226586   4.971   1.641   3.125 -1.0291 -2.3493 -1.9673
 6705SOL    HW326587   4.921   1.501   3.156 -1.3465 -1.4059  2.4338
 6705SOL    MW426588   4.945   1.580   3.183 -0.2272 -0.8603  0.0698
 6706SOL     OW26589   5.285   5.738   1.880  0.0131  0.4541 -0.3568
 6706SOL    HW226590   5.295   5.732   1.975 -0.4128  0.2508 -0.3225
 6706SOL    HW326591   5.296   5.648   1.850 -1.2094  0.2994 -0.3641
 6706SOL    MW426592   5.288   5.725   1.889 -0.2043  0.4069 -0.3532
 6707SOL     OW26593   1.362   3.465   1.652  0.5274 -0.4584 -0.0263
 6707SOL    HW226594   1.389   3.404   1.721 -0.8443 -1.6127 -0.4701
 6707SOL    HW326595   1.425   3.452   1.582  0.3015 -1.3309 -0.0796
 6707SOL    MW426596   1.374   3.456   1.652  0.3166 -0.7258 -0.0919
 6708SOL     OW26597   1.946   6.137   0.105 -0.0542 -0.4708 -0.4878
 6708SOL    HW226598   1.941   6.075   0.177 -1.1826 -0.5154 -0.5854
 6708SOL    HW326599   2.040   6.156   0.096  0.0703  0.0840  1.4381
 6708SOL    MW426600   1.958   6.131   0.113 -0.1866 -0.4035 -0.2466
 6709SOL     OW26601   1.949   5.408   5.790 -0.2208  0.3005  0.5107
 6709SOL    HW226602   2.017   5.473   5.807 -0.7291  1.0072 -0.0533
 6709SOL    HW326603   1.933   5.415   5.696 -2.4977  1.6506  0.9089
 6709SOL    MW426604   1.956   5.418   5.780 -0.5883  0.5719  0.4888
 6710SOL     OW26605   1.505   2.214   6.329 -0.2723 -0.7424  0.3568
 6710SOL    HW226606   1.511   2.163   6.249 -0.1274  0.5328 -0.4758
 6710SOL    HW326607   1.530   2.153   6.399  0.2787 -1.6831 -0.6388
 6710SOL    MW426608   1.509   2.199   6.328 -0.1805 -0.6983  0.1156
 6711SOL     OW26609   1.712   3.888   3.919 -0.3377 -0.2596 -0.2656
 6711SOL    HW226610   1.636   3.857   3.967 -0.5536  1.6106  0.7178
 6711SOL    HW326611   1.692   3.870   3.827  0.5402 -4.9118  0.2209
 6711SOL    MW426612   1.699   3.882   3.913 -0.2504 -0.6266 -0.0717
 6712SOL     OW26613   3.574   2.596   2.726 -0.0241  0.1656 -0.1898
 6712SOL    HW226614   3.519   2.657   2.676  0.0188 -0.1366 -0.6085
 6712SOL    HW326615   3.549   2.510   2.694  1.1868  0.0537 -0.9121
 6712SOL    MW426616   3.564   2.593   2.715  0.1413  0.1110 -0.3404
 6713SOL     OW26617   5.227   2.823   0.209  0.0119 -0.1257 -0.0824
 6713SOL    HW226618   5.201   2.906   0.249  0.5416 -0.0793  0.1705
 6713SOL    HW326619   5.147   2.771   0.208 -0.2523  0.2725  0.0420
 6713SOL    MW426620   5.213   2.827   0.214  0.0469 -0.0670 -0.0326
 6714SOL     OW26621   0.727   0.906   2.155 -0.7282 -0.2092  0.2984
 6714SOL    HW226622   0.780   0.889   2.233  1.3193  0.6439 -0.8326
 6714SOL    HW326623   0.781   0.876   2.082 -2.5803 -0.9475 -0.8471
 6714SOL    MW426624   0.741   0.900   2.156 -0.7025 -0.1940 -0.0020
 6715SOL     OW26625   3.148   6.345   6.232 -0.2490 -0.1135 -0.2436
 6715SOL    HW226626   3.214   6.411   6.255  1.0300 -0.7911 -1.7555
 6715SOL    HW326627   3.199   6.272   6.197 -1.7637 -1.0919 -0.5116
 6715SOL    MW426628   3.164   6.344   6.230 -0.2801 -0.3320 -0.4784
 6716SOL     OW26629   2.166   6.011   5.654 -0.2804 -0.1546  0.0138
 6716SOL    HW226630   2.242   6.008   5.713 -0.1063 -2.0149 -0.2515
 6716SOL    HW326631   2.197   6.058   5.577 -0.5489  2.4668  1.3666
 6716SOL    MW426632   2.180   6.017   5.652 -0.2929 -0.0542  0.1573
 6717SOL     OW26633   3.545   1.818   5.046  0.2778 -0.0059  0.0922
 6717SOL    HW226634   3.533   1.886   5.112 -0.4225  0.3287 -0.3716
 6717SOL    HW326635   3.532   1.736   5.093 -1.2755  0.2592  0.1794
 6717SOL    MW426636   3.542   1.816   5.061 -0.0195  0.0732  0.0425
 6718SOL     OW26637   6.375   5.275   2.644  0.0425 -0.0417 -0.1759
 6718SOL    HW226638   6.398   5.266   2.551  1.8813  0.0897  0.2324
 6718SOL    HW326639   6.394   5.367   2.664 -0.6505  0.0104  0.2599
 6718SOL    MW426640   6.381   5.286   2.634  0.1936 -0.0175 -0.0646
 6719SOL     OW26641   2.940   2.852   0.268  0.7050  0.2836  0.1627
 6719SOL    HW226642   2.930   2.874   0.176  1.4027 -0.1420 -0.0254
 6719SOL    HW326643   2.872   2.901   0.312  2.0408  2.6646 -0.2466
 6719SOL    MW426644   2.930   2.861   0.262  0.9733  0.5416  0.0839
 6720SOL     OW26645   5.256   4.357   3.387 -0.2337 -0.4649 -0.4868
 6720SOL    HW226646   5.188   4.423   3.375  0.2573 -0.0787 -1.2497
 6720SOL    HW326647   5.290   4.341   3.299  1.3276  0.0828 -0.0149
 6720SOL    MW426648   5.252   4.363   3.374  0.0371 -0.3417 -0.5252
 6721SOL     OW26649   1.742   3.761   5.734  0.5585  0.7286  0.1894
 6721SOL    HW226650   1.699   3.704   5.798  0.8529  0.8699  0.5116
 6721SOL    HW326651   1.782   3.701   5.671 -1.4885  0.5710 -1.0616
 6721SOL    MW426652   1.741   3.746   5.734  0.3273  0.7265  0.0669
 6722SOL     OW26653   6.102   3.879   4.779 -0.7528  0.6418 -0.2730
 6722SOL    HW226654   6.093   3.880   4.874  0.6253  1.1571 -0.1216
 6722SOL    HW326655   6.051   3.804   4.751 -1.9585  1.0306  0.7788
 6722SOL    MW426656   6.094   3.869   4.788 -0.7300  0.7611 -0.1142
 6723SOL     OW26657   1.209   1.212   6.353  0.1074 -0.3882  0.4537
 6723SOL    HW226658   1.158   1.292   6.357 -0.4175 -0.5550 -1.6177
 6723SOL    HW326659   1.234   1.203   6.260  1.1682 -1.9888  0.8345
 6723SOL    MW426660   1.206   1.221   6.341  0.1781 -0.6214  0.2307
 6724SOL     OW26661   0.962   0.928   1.638 -0.3559  0.3075  0.4727
 6724SOL    HW226662   1.037   0.871   1.658 -0.2785 -0.2103 -1.1386
 6724SOL    HW326663   0.972   0.948   1.545 -3.2717 -1.3883 -0.3161
 6724SOL    MW426664   0.973   0.923   1.628 -0.7304  0.0155  0.1560
 6725SOL     OW26665   1.165   3.914   0.271  0.1733  0.7158 -0.2293
 6725SOL    HW226666   1.167   3.873   0.185 -0.4722  2.7433 -1.2839
 6725SOL    HW326667   1.082   3.963   0.272 -0.1127  0.2662  1.7878
 6725SOL    MW426668   1.154   3.915   0.260  0.0504  0.9240 -0.1023
 6726SOL     OW26669   5.388   6.279   1.545  0.4112 -0.0862 -0.1938
 6726SOL    HW226670   5.330   6.203   1.534  0.4321  0.0349 -1.1804
 6726SOL    HW326671   5.373   6.307   1.635  0.6615 -1.4807  0.3218
 6726SOL    MW426672   5.378   6.272   1.556  0.4470 -0.2542 -0.2559
 6727SOL     OW26673   2.810   3.047   4.297  0.7996  0.0700 -0.0934
 6727SOL    HW226674   2.779   2.987   4.365  2.0543  0.6416  1.0220
 6727SOL    HW326675   2.760   3.127   4.311  0.7641  0.0512 -0.1113
 6727SOL    MW426676   2.799   3.049   4.308  0.9605  0.1429  0.0514
 6728SOL     OW26677   3.881   3.853   1.033 -0.2868 -0.2458 -0.1612
 6728SOL    HW226678   3.850   3.935   1.072  0.1689 -0.4530  0.6743
 6728SOL    HW326679   3.802   3.813   0.995 -1.0173 -0.5689  1.5719
 6728SOL    MW426680   3.866   3.858   1.033 -0.3231 -0.3157  0.1777
 6729SOL     OW26681   5.661   2.693   4.145  0.0785  0.0658 -0.5431
 6729SOL    HW226682   5.628   2.722   4.230  0.7962  1.2730 -0.6450
 6729SOL    HW326683   5.623   2.607   4.132 -1.2372  0.4914  0.3268
 6729SOL    MW426684   5.652   2.686   4.154 -0.0004  0.2812 -0.4418
 6730SOL     OW26685   3.449   3.261   5.034  0.1934  0.9071  0.0856
 6730SOL    HW226686   3.429   3.280   4.943  2.3291 -0.2574 -0.7097
 6730SOL    HW326687   3.412   3.175   5.050  1.7614  0.0816 -0.4630
 6730SOL    MW426688   3.442   3.252   5.024  0.6821  0.6446 -0.0917
 6731SOL     OW26689   1.166   2.726   0.272  0.0297 -1.2470 -0.1630
 6731SOL    HW226690   1.142   2.758   0.185  1.5860 -1.6138 -0.7633
 6731SOL    HW326691   1.097   2.759   0.329 -0.4427 -0.0625 -1.3531
 6731SOL    MW426692   1.154   2.735   0.268  0.1727 -1.1391 -0.3992
 6732SOL     OW26693   5.802   2.328   0.694  0.0986 -0.3793  0.0297
 6732SOL    HW226694   5.758   2.408   0.665 -0.4919 -0.7918 -0.2325
 6732SOL    HW326695   5.790   2.327   0.788  2.0815  1.0019  0.3525
 6732SOL    MW426696   5.795   2.338   0.702  0.2823 -0.2515  0.0377
 6733SOL     OW26697   4.326   4.499   3.448  0.0585  0.1243  0.1768
 6733SOL    HW226698   4.254   4.470   3.392 -0.7434 -0.4789  1.4759
 6733SOL    HW326699   4.300   4.587   3.475  1.4300  1.2868 -1.9740
 6733SOL    MW426700   4.313   4.507   3.444  0.1337  0.1981  0.0644
 6734SOL     OW26701   1.800   0.124   4.564  0.3977 -0.6516 -0.1952
 6734SOL    HW226702   1.827   0.216   4.555 -0.8039 -0.2743 -0.0332
 6734SOL    HW326703   1.783   0.095   4.475 -1.8952  0.1356 -0.0786
 6734SOL    MW426704   1.802   0.133   4.551 -0.0634 -0.4979 -0.1584
 6735SOL     OW26705   2.240   1.181   0.117  0.3890 -0.2462 -0.0014
 6735SOL    HW226706   2.276   1.220   0.037 -1.0373  0.2442 -0.4476
 6735SOL    HW326707   2.298   1.108   0.137  0.6873 -0.4750 -1.5841
 6735SOL    MW426708   2.252   1.177   0.109  0.2402 -0.2117 -0.2691
 6736SOL     OW26709   3.221   2.756   5.465  0.0004 -0.0427  0.2893
 6736SOL    HW226710   3.235   2.849   5.449 -1.8364  0.2378  0.0364
 6736SOL    HW326711   3.168   2.727   5.391 -0.1686 -1.0759  0.7976
 6736SOL    MW426712   3.216   2.765   5.453 -0.2642 -0.1420  0.3230
 6737SOL     OW26713   5.228   1.984   4.014 -0.5621 -0.2198  0.4251
 6737SOL    HW226714   5.316   1.976   4.050  0.1210 -0.4090 -1.1686
 6737SOL    HW326715   5.221   1.911   3.952 -0.8814  1.1816 -1.2873
 6737SOL    MW426716   5.238   1.973   4.010 -0.5141 -0.0598 -0.0111
 6738SOL     OW26717   0.376   3.491   1.632 -0.4125 -0.1289 -0.5102
 6738SOL    HW226718   0.350   3.520   1.720 -1.2422 -0.3992 -0.6567
 6738SOL    HW326719   0.453   3.544   1.612 -0.6042  0.4132  0.1131
 6738SOL    MW426720   0.382   3.502   1.641 -0.5473 -0.0930 -0.4473
 6739SOL     OW26721   0.360   5.405   2.575  0.1099 -0.0205  0.2676
 6739SOL    HW226722   0.339   5.373   2.487 -0.8557 -1.3986  0.9488
 6739SOL    HW326723   0.282   5.453   2.603 -0.2897 -1.0410  0.9866
 6739SOL    MW426724   0.347   5.407   2.567 -0.0702 -0.3370  0.4524
 6740SOL     OW26725   4.975   5.351   3.781 -0.5467 -0.4332  0.3942
 6740SOL    HW226726   4.912   5.399   3.728 -0.6301  0.6546  1.4119
 6740SOL    HW326727   4.981   5.265   3.741 -0.9988  0.1756 -1.0372
 6740SOL    MW426728   4.968   5.346   3.769 -0.6174 -0.2094  0.3396
 6741SOL     OW26729   0.730   4.553   2.955 -0.4662  0.0008  0.1237
 6741SOL    HW226730   0.661   4.515   2.901 -0.7899  1.1671 -0.3261
 6741SOL    HW326731   0.808   4.500   2.937 -0.3963  0.7247 -2.0235
 6741SOL    MW426732   0.732   4.541   2.946 -0.4997  0.2502 -0.2189
 6742SOL     OW26733   6.174   4.340   1.885 -0.0575 -0.7089 -0.3800
 6742SOL    HW226734   6.255   4.389   1.898 -1.7308  1.7179  1.9336
 6742SOL    HW326735   6.156   4.348   1.791  1.3493  0.3745 -0.5857
 6742SOL    MW426736   6.182   4.347   1.874 -0.0927 -0.2458 -0.1019
 6743SOL     OW26737   5.186   3.145   2.313  0.2593 -0.2322 -0.6636
 6743SOL    HW226738   5.163   3.134   2.221  1.9692 -1.6854 -0.9662
 6743SOL    HW326739   5.281   3.151   2.314  0.2953 -0.4962  1.0368
 6743SOL    MW426740   5.195   3.144   2.301  0.4897 -0.4587 -0.4792
 6744SOL     OW26741   5.912   5.826   5.167  0.3845  0.4087 -0.3174
 6744SOL    HW226742   5.944   5.832   5.257 -0.1639 -0.2919 -0.0659
 6744SOL    HW326743   5.834   5.771   5.173 -0.0573  0.9222 -1.1221
 6744SOL    MW426744   5.906   5.820   5.179  0.2538  0.3840 -0.3904
 6745SOL     OW26745   5.810   0.975   6.406 -0.1689  0.8850 -0.0439
 6745SOL    HW226746   5.718   0.976   6.432 -0.6824  1.9069 -1.6812
 6745SOL    HW326747   5.812   0.922   6.326  0.9427 -0.3580  0.7706
 6745SOL    MW426748   5.798   0.968   6.399 -0.0900  0.8559 -0.1525
 6746SOL     OW26749   6.215   0.688   6.237 -0.5100  0.0105  0.4357
 6746SOL    HW226750   6.136   0.720   6.281 -0.8766  0.4790 -0.5252
 6746SOL    HW326751   6.258   0.632   6.302 -2.8004 -2.1206  0.2573
 6746SOL    MW426752   6.210   0.685   6.251 -0.8605 -0.2089  0.2854
 6747SOL     OW26753   5.967   3.415   4.025 -0.3950  0.5029  0.5126
 6747SOL    HW226754   5.943   3.505   4.049  0.1125  0.2575  2.1097
 6747SOL    HW326755   5.884   3.374   4.001 -0.7125  1.2583  0.2947
 6747SOL    MW426756   5.953   3.422   4.025 -0.3699  0.5702  0.6946
 6748SOL     OW26757   4.874   5.117   6.151  0.0500 -0.0298  0.2401
 6748SOL    HW226758   4.805   5.053   6.170  0.2828 -0.2580  0.3151
 6748SOL    HW326759   4.927   5.076   6.083  1.2078 -0.6524  1.4867
 6748SOL    MW426760   4.872   5.104   6.145  0.2335 -0.1420  0.4145
 6749SOL     OW26761   4.232   3.977   4.898  0.0491 -0.1641  0.1135
 6749SOL    HW226762   4.322   3.962   4.928 -0.1622  0.9147  1.3711
 6749SOL    HW326763   4.242   4.028   4.817  0.5983 -1.9356 -0.9726
 6749SOL    MW426764   4.245   3.982   4.891  0.0937 -0.2555  0.1361
 6750SOL     OW26765   3.288   1.094   4.425  0.1406 -0.1083  0.3902
 6750SOL    HW226766   3.291   1.063   4.335  0.9958  1.3635 -0.1095
 6750SOL    HW326767   3.331   1.024   4.475  0.1275 -0.6983 -0.3988
 6750SOL    MW426768   3.294   1.081   4.420  0.2517  0.0080  0.2202
 6751SOL     OW26769   4.339   0.616   5.621 -0.0552 -0.6120  0.2466
 6751SOL    HW226770   4.324   0.702   5.580 -0.4794 -0.6721  0.2715
 6751SOL    HW326771   4.312   0.628   5.712 -1.8118 -1.2492 -0.1616
 6751SOL    MW426772   4.334   0.629   5.628 -0.3429 -0.7040  0.1960
 6752SOL     OW26773   5.386   1.462   0.876  0.8258  0.1503  0.1415
 6752SOL    HW226774   5.310   1.521   0.868  1.2955  0.6365 -0.9254
 6752SOL    HW326775   5.436   1.496   0.950  0.0759 -0.1057  0.7822
 6752SOL    MW426776   5.382   1.474   0.885  0.7888  0.1807  0.0852
 6753SOL     OW26777   5.628   2.624   2.699  0.2141 -0.1147  0.5313
 6753SOL    HW226778   5.572   2.558   2.741  0.5611 -0.0830  1.0415
 6753SOL    HW326779   5.589   2.636   2.612  0.2107 -1.0761  0.3921
 6753SOL    MW426780   5.615   2.617   2.693  0.2594 -0.2373  0.5802
 6754SOL     OW26781   1.153   3.559   3.795  0.5265 -0.1038  0.1168
 6754SOL    HW226782   1.218   3.546   3.725 -0.6145 -2.9812 -0.5773
 6754SOL    HW326783   1.087   3.616   3.756  1.7955  1.5652  0.2933
 6754SOL    MW426784   1.153   3.564   3.780  0.5434 -0.2632  0.0485
 6755SOL     OW26785   0.219   0.512   1.289 -0.4470  0.3217  0.8676
 6755SOL    HW226786   0.180   0.598   1.274 -1.5934  0.0854  2.2208
 6755SOL    HW326787   0.176   0.480   1.369 -1.3631 -2.2661 -0.5434
 6755SOL    MW426788   0.208   0.519   1.298 -0.7192 -0.0509  0.8599
 6756SOL     OW26789   0.127   0.456   1.877 -0.0877 -0.3593  0.2328
 6756SOL    HW226790   0.128   0.527   1.941  3.0361 -0.5514  0.5620
 6756SOL    HW326791   0.072   0.489   1.806 -0.1680  1.6452  1.1532
 6756SOL    MW426792   0.120   0.470   1.876  0.3139 -0.1201  0.3977
 6757SOL     OW26793   0.900   4.267   2.055 -0.1734 -0.1374  0.1249
 6757SOL    HW226794   0.925   4.326   2.127  1.2073 -0.3793 -0.1318
 6757SOL    HW326795   0.881   4.184   2.098  0.8707 -0.3464  0.2258
 6757SOL    MW426796   0.901   4.264   2.070  0.1465 -0.1969  0.1044
 6758SOL     OW26797   4.216   6.054   2.962 -0.0838 -0.0542  0.2939
 6758SOL    HW226798   4.154   6.035   3.032 -0.5017 -2.5874 -0.6683
 6758SOL    HW326799   4.169   6.115   2.904 -0.8407 -0.2466  0.6975
 6758SOL    MW426800   4.201   6.060   2.964 -0.2388 -0.4138  0.2202
 6759SOL     OW26801   4.318   1.187   6.335  0.2767  0.2000 -0.3169
 6759SOL    HW226802   4.398   1.146   6.301  0.8158  1.4303 -0.6025
 6759SOL    HW326803   4.247   1.139   6.293  0.8983  0.3562 -1.6252
 6759SOL    MW426804   4.319   1.176   6.325  0.4299  0.3829 -0.5272
 6760SOL     OW26805   3.658   1.722   4.437  0.0620 -0.2572  0.5581
 6760SOL    HW226806   3.611   1.648   4.399  0.9556 -0.7377  0.3585
 6760SOL    HW326807   3.749   1.707   4.414  0.1302  1.5427 -0.5218
 6760SOL    MW426808   3.664   1.710   4.429  0.1889 -0.0832  0.3892
 6761SOL     OW26809   4.215   1.067   0.142 -0.1422  0.0360  0.1520
 6761SOL    HW226810   4.281   0.997   0.142 -0.1125  0.0661  0.3932
 6761SOL    HW326811   4.250   1.133   0.083  0.6130  0.5981  1.2133
 6761SOL    MW426812   4.228   1.066   0.134 -0.0387  0.1141  0.3238
 6762SOL     OW26813   5.870   0.037   4.770  0.0701 -0.4221  0.1149
 6762SOL    HW226814   5.812   0.051   4.844  0.8324  0.4967  0.5615
 6762SOL    HW326815   5.823   0.074   4.695  0.2709  0.8178  0.5652
 6762SOL    MW426816   5.856   0.044   4.770  0.1972 -0.1373  0.2332
 6763SOL     OW26817   4.846   6.152   5.801 -0.3548  0.3444 -0.3082
 6763SOL    HW226818   4.921   6.177   5.746  0.3140 -2.2708 -0.7183
 6763SOL    HW326819   4.884   6.141   5.888 -0.4745  0.0775 -0.2896
 6763SOL    MW426820   4.861   6.154   5.805 -0.2824 -0.0358 -0.3599
 6764SOL     OW26821   4.578   1.302   3.902  0.6340  0.0073 -0.2156
 6764SOL    HW226822   4.621   1.226   3.864  0.5307 -0.2671  0.2029
 6764SOL    HW326823   4.525   1.338   3.831 -0.2976 -1.0526 -0.0884
 6764SOL    MW426824   4.577   1.297   3.888  0.4975 -0.1687 -0.1436
 6765SOL     OW26825   2.416   4.761   4.316  0.0647  0.2936  0.4178
 6765SOL    HW226826   2.353   4.756   4.388 -0.8108  0.0232 -0.3476
 6765SOL    HW326827   2.395   4.686   4.260  1.1982  0.0945  0.2434
 6765SOL    MW426828   2.405   4.751   4.318  0.0987  0.2317  0.2938
 6766SOL     OW26829   4.704   3.688   1.239 -0.6060 -0.1186 -0.0392
 6766SOL    HW226830   4.718   3.610   1.292  1.6364 -0.6778 -1.3173
 6766SOL    HW326831   4.640   3.661   1.173 -0.8631 -0.4330  0.3319
 6766SOL    MW426832   4.697   3.674   1.237 -0.3440 -0.2338 -0.1589
 6767SOL     OW26833   1.026   0.340   0.176 -0.6043 -0.3945  0.4150
 6767SOL    HW226834   1.054   0.248   0.174  0.4608 -0.0689 -1.6984
 6767SOL    HW326835   0.931   0.336   0.176 -0.5738 -1.5119 -0.0936
 6767SOL    MW426836   1.017   0.327   0.176 -0.4598 -0.4990  0.0691
 6768SOL     OW26837   2.326   4.693   3.893 -0.0816 -0.2310  0.3842
 6768SOL    HW226838   2.366   4.606   3.904  2.3624  0.9815  1.7756
 6768SOL    HW326839   2.314   4.701   3.798  2.6395 -0.8962 -0.1181
 6768SOL    MW426840   2.330   4.682   3.882  0.5999 -0.1588  0.5015
 6769SOL     OW26841   4.588   5.567   2.623 -0.3890  0.4581 -0.5797
 6769SOL    HW226842   4.520   5.551   2.558  1.6691 -0.5555 -2.6281
 6769SOL    HW326843   4.641   5.638   2.587  0.9320 -0.2811 -0.1791
 6769SOL    MW426844   4.586   5.574   2.610  0.0568  0.2269 -0.7971
 6770SOL     OW26845   1.263   2.410   0.266 -0.4949  0.2348  0.5568
 6770SOL    HW226846   1.215   2.492   0.277 -0.3532  0.2659  0.9683
 6770SOL    HW326847   1.205   2.355   0.214 -1.0441  0.2097  1.1868
 6770SOL    MW426848   1.249   2.414   0.260 -0.5486  0.2356  0.6942
 6771SOL     OW26849   4.385   5.022   3.095  0.3393  0.0688  0.6914
 6771SOL    HW226850   4.373   4.928   3.084 -1.0595  0.4818 -2.2503
 6771SOL    HW326851   4.299   5.060   3.078  1.2803  1.9909 -0.1356
 6771SOL    MW426852   4.372   5.015   3.092  0.2789  0.3769  0.1942
 6772SOL     OW26853   1.184   3.504   5.213  0.5843  0.4080 -0.1453
 6772SOL    HW226854   1.115   3.506   5.147  1.9451 -0.3678 -1.6761
 6772SOL    HW326855   1.149   3.448   5.282  0.1674 -1.1380 -1.5267
 6772SOL    MW426856   1.170   3.497   5.213  0.7088  0.1016 -0.5295
 6773SOL     OW26857   6.432   2.501   3.272 -0.0097  0.6504 -0.5245
 6773SOL    HW226858   6.390   2.584   3.247 -0.9116  0.0252 -1.1703
 6773SOL    HW326859   6.502   2.490   3.208  0.2834  1.0497 -0.2722
 6773SOL    MW426860   6.435   2.511   3.260 -0.0900  0.6206 -0.5764
 6774SOL     OW26861   0.891   2.465   4.115 -0.3331 -0.3308 -0.7433
 6774SOL    HW226862   0.928   2.385   4.079 -0.2217 -0.0915 -1.1729
 6774SOL    HW326863   0.900   2.456   4.210  0.3720 -0.4993 -0.8214
 6774SOL    MW426864   0.897   2.454   4.123 -0.2253 -0.3215 -0.8103
 6775SOL     OW26865   0.774   5.748   2.945  0.2524 -0.0703  0.1156
 6775SOL    HW226866   0.805   5.836   2.965  0.0834  0.3314 -1.2461
 6775SOL    HW326867   0.847   5.691   2.967  1.0331  0.6026 -0.6297
 6775SOL    MW426868   0.788   5.752   2.950  0.3331  0.0715 -0.1624
 6776SOL     OW26869   5.585   4.875   3.990 -0.3323  0.0231  0.4138
 6776SOL    HW226870   5.649   4.928   3.944 -0.1628 -1.0461 -0.6142
 6776SOL    HW326871   5.637   4.811   4.039 -0.5454 -1.9257 -1.7110
 6776SOL    MW426872   5.600   4.873   3.991 -0.3380 -0.3751 -0.0021
 6777SOL     OW26873   6.278   0.853   5.569  0.4077  0.4544 -0.0360
 6777SOL    HW226874   6.314   0.905   5.640 -2.0760  2.0252  0.2169
 6777SOL    HW326875   6.281   0.911   5.493  0.7475 -0.2892 -0.5980
 6777SOL    MW426876   6.283   0.867   5.568  0.1249  0.5636 -0.0768
 6778SOL     OW26877   2.711   3.024   5.936  0.1415 -0.5762  0.5990
 6778SOL    HW226878   2.763   3.105   5.934  0.6008 -0.7968  2.2661
 6778SOL    HW326879   2.777   2.954   5.937 -0.1841 -0.8843  1.7398
 6778SOL    MW426880   2.727   3.026   5.936  0.1591 -0.6460  0.9695
 6779SOL     OW26881   2.555   5.272   2.525 -0.0377 -0.1339 -0.0268
 6779SOL    HW226882   2.573   5.288   2.618 -0.9563  1.2272 -0.0504
 6779SOL    HW326883   2.474   5.320   2.508  0.1557 -0.3059 -1.5491
 6779SOL    MW426884   2.547   5.281   2.535 -0.1334  0.0230 -0.2307
 6780SOL     OW26885   4.587   1.744   3.347 -0.2254 -0.6603 -0.1141
 6780SOL    HW226886   4.530   1.821   3.348 -0.7981 -1.0752 -0.1498
 6780SOL    HW326887   4.611   1.733   3.255  0.9213  0.2279  0.0479
 6780SOL    MW426888   4.583   1.753   3.335 -0.1497 -0.5978 -0.0974
 6781SOL     OW26889   5.195   4.254   3.767 -0.3311  0.4471  0.3772
 6781SOL    HW226890   5.147   4.329   3.732 -1.5655 -1.2140 -1.7397
 6781SOL    HW326891   5.255   4.230   3.697  0.6977 -0.0441  1.3893
 6781SOL    MW426892   5.197   4.261   3.753 -0.3582  0.1632  0.2315
 6782SOL     OW26893   1.061   1.137   2.943 -0.2612  0.2849 -0.2380
 6782SOL    HW226894   0.986   1.153   3.000 -0.3242  1.4165 -0.6116
 6782SOL    HW326895   1.102   1.223   2.933  1.8440 -0.5010  1.0002
 6782SOL    MW426896   1.057   1.150   2.949  0.0083  0.3305 -0.1239
 6783SOL     OW26897   1.157   3.936   4.194 -0.1376  0.1843 -0.6562
 6783SOL    HW226898   1.088   3.901   4.250  1.4765 -3.8083 -0.7819
 6783SOL    HW326899   1.235   3.935   4.248  0.3726  2.0353 -1.2960
 6783SOL    MW426900   1.158   3.931   4.208  0.1427 -0.0983 -0.7572
 6784SOL     OW26901   4.031   2.521   3.238 -0.3867 -0.0962 -0.0878
 6784SOL    HW226902   3.936   2.512   3.234 -0.3662 -0.0547 -0.8288
 6784SOL    HW326903   4.045   2.606   3.279 -0.6891  0.3510 -0.8882
 6784SOL    MW426904   4.020   2.531   3.243 -0.4239 -0.0317 -0.2912
 6785SOL     OW26905   4.567   5.238   2.759 -0.0951  0.1069  0.2322
 6785SOL    HW226906   4.577   5.294   2.835 -0.8592 -0.7057  0.9593
 6785SOL    HW326907   4.634   5.267   2.698  0.1760  1.1260  0.9982
 6785SOL    MW426908   4.577   5.249   2.761 -0.1601  0.1342  0.4292
 6786SOL     OW26909   5.283   2.107   2.278 -0.3004  0.0570 -0.2597
 6786SOL    HW226910   5.262   2.080   2.189 -1.6558  0.4484 -0.0863
 6786SOL    HW326911   5.219   2.060   2.333 -0.3145  0.7924  0.3749
 6786SOL    MW426912   5.272   2.097   2.274 -0.4811  0.2057 -0.1531
 6787SOL     OW26913   4.677   6.195   2.151 -0.3962  0.2503  0.4752
 6787SOL    HW226914   4.688   6.200   2.056  0.3719 -1.1529  0.4723
 6787SOL    HW326915   4.610   6.261   2.170 -1.4532 -0.2744 -1.1792
 6787SOL    MW426916   4.670   6.205   2.141 -0.4344 -0.0040  0.2565
 6788SOL     OW26917   5.051   4.080   5.596 -0.2349 -0.2865  0.4584
 6788SOL    HW226918   5.145   4.099   5.598  0.2038 -1.9389 -1.3128
 6788SOL    HW326919   5.040   4.013   5.664 -0.0788 -0.3164  0.4555
 6788SOL    MW426920   5.062   4.073   5.605 -0.1564 -0.5084  0.2243
 6789SOL     OW26921   0.810   0.509   2.118  0.1354  0.2720 -0.2374
 6789SOL    HW226922   0.850   0.428   2.149  0.7188  0.7383  0.2339
 6789SOL    HW326923   0.717   0.500   2.141  0.4224  0.2985  1.0215
 6789SOL    MW426924   0.803   0.497   2.125  0.2503  0.3370 -0.0091
 6790SOL     OW26925   1.809   5.929   6.382 -0.1062 -0.2069  0.2507
 6790SOL    HW226926   1.837   5.843   6.416  0.4580  0.0724  0.5015
 6790SOL    HW326927   1.839   5.991   6.448  0.3358  0.2760 -0.4016
 6790SOL    MW426928   1.816   5.926   6.396  0.0265 -0.1063  0.1977
 6791SOL     OW26929   2.182   4.745   3.246  0.0936  0.3859 -0.3010
 6791SOL    HW226930   2.138   4.815   3.198 -1.4237  0.1660  0.6970
 6791SOL    HW326931   2.239   4.790   3.308 -1.0453  0.7817  0.4990
 6791SOL    MW426932   2.184   4.760   3.248 -0.2568  0.4091 -0.0638
 6792SOL     OW26933   5.351   5.648   0.056 -0.0642 -0.5789  0.1837
 6792SOL    HW226934   5.412   5.681   0.123  1.1911 -2.7290  0.1817
 6792SOL    HW326935   5.342   5.721  -0.005 -0.7208  1.2295  2.2796
 6792SOL    MW426936   5.358   5.662   0.057  0.0148 -0.6240  0.4599
 6793SOL     OW26937   5.075   1.845   2.681 -0.3249  0.5436 -0.6791
 6793SOL    HW226938   5.167   1.834   2.706  0.1864  2.1126 -1.7208
 6793SOL    HW326939   5.078   1.866   2.588 -1.4597  3.6542 -0.1380
 6793SOL    MW426940   5.088   1.846   2.672 -0.4071  1.1610 -0.7451
 6794SOL     OW26941   5.505   3.416   0.132  1.1087  0.6032 -0.3096
 6794SOL    HW226942   5.484   3.486   0.070 -0.0245  1.7995  1.3507
 6794SOL    HW326943   5.435   3.420   0.197  2.5573 -0.2374  1.3678
 6794SOL    MW426944   5.493   3.426   0.132  1.1503  0.6502  0.1308
 6795SOL     OW26945   2.601   0.436   3.929  0.4406  0.7279  0.5204
 6795SOL    HW226946   2.625   0.476   4.012  0.1991  0.1774  0.8645
 6795SOL    HW326947   2.574   0.509   3.874  1.5909  1.2079  0.5685
 6795SOL    MW426948   2.600   0.451   3.933  0.5605  0.7186  0.5721
 6796SOL     OW26949   2.455   2.968   2.921 -0.4669  0.3939  0.6263
 6796SOL    HW226950   2.549   2.982   2.931 -0.1267  0.6558 -2.1987
 6796SOL    HW326951   2.432   2.911   2.994  2.1748 -0.8192  0.6467
 6796SOL    MW426952   2.464   2.962   2.932 -0.0735  0.2684  0.2563
 6797SOL     OW26953   3.906   6.301   4.942  0.4412 -0.5047 -0.4319
 6797SOL    HW226954   3.957   6.381   4.958  1.5219 -1.0635 -0.9153
 6797SOL    HW326955   3.817   6.332   4.929  0.9999  0.7519 -1.6205
 6797SOL    MW426956   3.901   6.316   4.942  0.6575 -0.4127 -0.6525
 6798SOL     OW26957   3.924   4.932   3.130  0.1603  0.0968 -0.0516
 6798SOL    HW226958   3.871   5.011   3.131 -0.2208 -0.1602  0.2824
 6798SOL    HW326959   4.009   4.961   3.095  0.1512  0.7337  0.4254
 6798SOL    MW426960   3.929   4.946   3.126  0.1088  0.1469  0.0554
 6799SOL     OW26961   4.783   2.981   6.032  0.0589 -0.1539  0.4084
 6799SOL    HW226962   4.752   3.038   6.103  1.4644  1.1645  0.0143
 6799SOL    HW326963   4.870   3.014   6.011 -1.1589  1.1152 -3.5330
 6799SOL    MW426964   4.790   2.993   6.039  0.0836  0.1875 -0.1636
 6800SOL     OW26965   4.071   5.112   0.623 -0.3082 -0.0491  0.5265
 6800SOL    HW226966   4.164   5.096   0.608 -0.1584  0.6428  0.6533
 6800SOL    HW326967   4.032   5.115   0.536  0.0222  0.9398  0.3982
 6800SOL    MW426968   4.078   5.110   0.610 -0.2449  0.1727  0.5263
 6801SOL     OW26969   4.706   2.545   2.477 -0.5269 -0.0694 -0.6785
 6801SOL    HW226970   4.745   2.471   2.523 -0.6487 -1.9938 -3.4267
 6801SOL    HW326971   4.724   2.528   2.385 -2.0046  2.5158 -1.5555
 6801SOL    MW426972   4.714   2.533   2.471 -0.7379  0.0178 -1.1568
 6802SOL     OW26973   4.520   1.835   5.756 -0.2766  0.1449 -0.4234
 6802SOL    HW226974   4.571   1.882   5.821 -1.4103  0.9153 -0.0685
 6802SOL    HW326975   4.430   1.864   5.770 -0.5294  0.4771 -2.4546
 6802SOL    MW426976   4.515   1.845   5.766 -0.4595  0.2904 -0.6446
 6803SOL     OW26977   3.954   1.325   5.543  0.2996 -0.3501  0.2032
 6803SOL    HW226978   3.892   1.272   5.493  0.1270  0.1702 -0.1435
 6803SOL    HW326979   4.040   1.288   5.522  0.1890 -0.4340 -0.1101
 6803SOL    MW426980   3.957   1.313   5.533  0.2623 -0.2925  0.1161
 6804SOL     OW26981   6.320   4.161   4.046 -0.9161 -0.2368  0.1615
 6804SOL    HW226982   6.293   4.138   3.957 -1.0446  0.9550 -0.1165
 6804SOL    HW326983   6.240   4.189   4.089 -0.6209  0.5414  0.2130
 6804SOL    MW426984   6.306   4.161   4.040 -0.8941  0.0231  0.1316
 6805SOL     OW26985   6.119   1.834   2.385 -0.2303  0.0953 -0.3571
 6805SOL    HW226986   6.089   1.808   2.473 -0.3291 -0.8285 -0.6518
 6805SOL    HW326987   6.211   1.858   2.397 -0.6917  1.6199  0.3042
 6805SOL    MW426988   6.127   1.834   2.398 -0.3042  0.1746 -0.3087
 6806SOL     OW26989   1.125   5.045   3.543  0.3312  0.7117  0.0672
 6806SOL    HW226990   1.146   5.121   3.598 -1.6911  1.2253  0.2085
 6806SOL    HW326991   1.037   5.063   3.511 -0.3414 -1.7687  0.3777
 6806SOL    MW426992   1.116   5.058   3.546 -0.0243  0.4522  0.1268
 6807SOL     OW26993   4.883   3.935   5.430  1.1854  0.2098  0.1596
 6807SOL    HW226994   4.831   3.888   5.495 -0.1353  1.8054  0.3117
 6807SOL    HW326995   4.954   3.976   5.480  0.1359  1.4878  0.6408
 6807SOL    MW426996   4.886   3.934   5.445  0.8727  0.5889  0.2431
 6808SOL     OW26997   2.800   3.998   1.980 -0.3287  0.3085 -0.4363
 6808SOL    HW226998   2.775   4.078   2.026 -0.3468  0.2249 -0.2977
 6808SOL    HW326999   2.741   3.993   1.905 -0.3416  0.4135 -0.4333
 6808SOL    MW427000   2.789   4.008   1.976 -0.3328  0.3113 -0.4176
 6809SOL     OW27001   2.113   4.395   3.146  0.1322  0.5020  0.0195
 6809SOL    HW227002   2.031   4.412   3.193 -0.6599  1.1808 -1.5446
 6809SOL    HW327003   2.122   4.468   3.085  0.8231 -0.6236 -1.2810
 6809SOL    MW427004   2.103   4.407   3.144  0.1189  0.4430 -0.3585
 6810SOL     OW27005   4.757   3.931   4.927 -0.3990  0.3465 -0.5973
 6810SOL    HW227006   4.806   4.002   4.969 -0.7812  0.8293 -0.9682
 6810SOL    HW327007   4.763   3.950   4.833 -0.1526 -0.3392 -0.7285
 6810SOL    MW427008   4.765   3.943   4.920 -0.4169  0.3197 -0.6636
 6811SOL     OW27009   2.033   1.201   3.810 -0.3822 -0.2878  0.1627
 6811SOL    HW227010   2.021   1.290   3.775  0.0287 -0.4888 -0.5111
 6811SOL    HW327011   2.121   1.202   3.847 -1.4479  0.4659  2.9147
 6811SOL    MW427012   2.043   1.213   3.810 -0.4686 -0.2149  0.4369
 6812SOL     OW27013   2.099   6.360   4.919  0.1556 -0.1412 -0.1714
 6812SOL    HW227014   2.091   6.273   4.959  1.9274 -1.1981 -1.9416
 6812SOL    HW327015   2.014   6.374   4.876  0.1699 -1.4541 -0.6910
 6812SOL    MW427016   2.087   6.350   4.919  0.3912 -0.4538 -0.4735
 6813SOL     OW27017   2.437   6.051   2.485  0.1472  0.8409  0.1560
 6813SOL    HW227018   2.416   6.092   2.569 -0.7560  1.5714 -0.4079
 6813SOL    HW327019   2.367   6.079   2.426  1.1906  1.0080 -1.0583
 6813SOL    MW427020   2.425   6.060   2.488  0.1657  0.9593 -0.0786
 6814SOL     OW27021   3.131   0.902   5.466 -0.3288 -0.1518 -0.4989
 6814SOL    HW227022   3.177   0.923   5.547 -1.2509  1.9895 -0.4438
 6814SOL    HW327023   3.199   0.904   5.399  0.3597 -1.4800  0.1205
 6814SOL    MW427024   3.146   0.905   5.468 -0.3596 -0.0446 -0.4099
 6815SOL     OW27025   0.775   0.674   0.192  0.0082  0.4354 -0.0529
 6815SOL    HW227026   0.749   0.668   0.100  0.0988  0.1235 -0.0592
 6815SOL    HW327027   0.856   0.725   0.191 -0.2637  0.8769 -0.0926
 6815SOL    MW427028   0.782   0.680   0.180 -0.0157  0.4525 -0.0590
 6816SOL     OW27029   4.019   4.602   2.436 -0.2124  0.3046 -0.4247
 6816SOL    HW227030   4.046   4.666   2.501 -1.5979  0.5162 -0.0138
 6816SOL    HW327031   3.982   4.654   2.364  1.4241  0.0820 -1.4703
 6816SOL    MW427032   4.017   4.617   2.435 -0.1793  0.3032 -0.5085
 6817SOL     OW27033   0.707   2.925   1.965 -0.0719 -0.3927  0.1776
 6817SOL    HW227034   0.701   3.010   2.010  0.0509 -0.5319  0.4547
 6817SOL    HW327035   0.755   2.869   2.025 -1.0855 -0.9725  0.4713
 6817SOL    MW427036   0.712   2.929   1.979 -0.1894 -0.4876  0.2529
 6818SOL     OW27037   5.910   6.088   5.302  0.4572  0.2564 -0.0307
 6818SOL    HW227038   5.842   6.145   5.338  1.0565  0.4493  0.8193
 6818SOL    HW327039   5.887   6.000   5.332 -0.0145  0.1521 -0.6638
 6818SOL    MW427040   5.898   6.084   5.311  0.4740  0.2681 -0.0021
 6819SOL     OW27041   3.956   1.871   4.794  0.6924  0.0980  0.1887
 6819SOL    HW227042   3.992   1.811   4.728  2.0196  0.9764  0.0781
 6819SOL    HW327043   3.863   1.877   4.772  0.6728 -1.3063 -0.2589
 6819SOL    MW427044   3.948   1.864   4.782  0.8649  0.0286  0.1151
 6820SOL     OW27045   4.814   0.547   1.260  0.4414  0.2204 -0.4219
 6820SOL    HW227046   4.783   0.474   1.314  0.3425 -0.8006 -1.7904
 6820SOL    HW327047   4.791   0.626   1.310 -0.2332 -0.6579  0.6988
 6820SOL    MW427048   4.807   0.548   1.274  0.3393 -0.0302 -0.4546
 6821SOL     OW27049   0.697   3.497   3.619  0.2344  0.8934  0.5315
 6821SOL    HW227050   0.617   3.543   3.595  0.4759  1.3310  0.5640
 6821SOL    HW327051   0.709   3.515   3.712  1.5855  2.7231  0.0549
 6821SOL    MW427052   0.688   3.505   3.628  0.4445  1.1925  0.4729
 6822SOL     OW27053   5.365   6.178   2.600 -0.4779 -0.6404  0.1530
 6822SOL    HW227054   5.432   6.137   2.655  0.0510  1.1760  0.9166
 6822SOL    HW327055   5.385   6.148   2.511  2.1215  0.7515  0.1711
 6822SOL    MW427056   5.377   6.168   2.595 -0.0652 -0.2171  0.2562
 6823SOL     OW27057   1.496   0.708   4.020 -0.6903  0.4003  0.6344
 6823SOL    HW227058   1.543   0.790   4.032 -3.2644  2.2240 -0.7319
 6823SOL    HW327059   1.536   0.669   3.942 -0.1884  0.9531  0.6102
 6823SOL    MW427060   1.508   0.714   4.011 -0.9637  0.7139  0.4509
 6824SOL     OW27061   6.014   3.957   1.260  0.2981 -0.5504 -0.9350
 6824SOL    HW227062   6.027   3.948   1.165  1.3215  1.5758 -1.0440
 6824SOL    HW327063   5.981   4.046   1.271  3.1543  0.3730  0.9318
 6824SOL    MW427064   6.011   3.967   1.249  0.8100 -0.1480 -0.7031
 6825SOL     OW27065   4.451   3.516   1.175  0.7172  0.2776 -0.1414
 6825SOL    HW227066   4.450   3.531   1.270  2.6346 -0.2736  0.0027
 6825SOL    HW327067   4.526   3.458   1.161  0.1168 -0.1101 -1.9465
 6825SOL    MW427068   4.461   3.510   1.186  0.8909  0.1538 -0.3605
 6826SOL     OW27069   0.100   2.280   2.560 -0.1594  0.0181 -0.4845
 6826SOL    HW227070   0.066   2.330   2.634 -0.2350  0.9128 -1.1071
 6826SOL    HW327071   0.062   2.323   2.483 -0.1280 -0.9305 -1.0427
 6826SOL    MW427072   0.091   2.293   2.560 -0.1653  0.0110 -0.6403
 6827SOL     OW27073   5.142   2.347   0.925 -0.8523 -0.2196  0.7298
 6827SOL    HW227074   5.135   2.311   1.013  1.5177 -0.4737  0.8852
 6827SOL    HW327075   5.114   2.276   0.868 -3.2298  0.2254  1.2352
 6827SOL    MW427076   5.137   2.333   0.929 -0.8533 -0.1944  0.8170
 6828SOL     OW27077   5.689   3.540   4.275  0.3658  0.2294 -0.3511
 6828SOL    HW227078   5.658   3.509   4.190 -0.0376  0.6031 -0.3478
 6828SOL    HW327079   5.783   3.558   4.262  0.3918 -0.0943 -0.6032
 6828SOL    MW427080   5.698   3.539   4.262  0.3160  0.2360 -0.3839
 6829SOL     OW27081   3.848   4.615   4.520  0.9860 -0.3168  0.1536
 6829SOL    HW227082   3.919   4.679   4.528  0.5313  0.3570 -0.9432
 6829SOL    HW327083   3.849   4.568   4.604  0.7331  1.7642  1.4001
 6829SOL    MW427084   3.858   4.618   4.532  0.8926  0.0467  0.1733
 6830SOL     OW27085   0.023   2.425   2.312  0.3509  0.4043 -0.6359
 6830SOL    HW227086  -0.045   2.490   2.294  0.6704  0.7378 -0.6544
 6830SOL    HW327087   0.043   2.387   2.226  0.8916  1.0138 -0.7887
 6830SOL    MW427088   0.017   2.429   2.298  0.4644  0.5287 -0.6585
 6831SOL     OW27089   3.070   1.806   0.706  0.4499  0.3291  0.2047
 6831SOL    HW227090   3.137   1.749   0.742  1.9386  1.5788 -0.4894
 6831SOL    HW327091   3.053   1.870   0.775  0.3128  0.3006  0.1983
 6831SOL    MW427092   3.076   1.807   0.720  0.6282  0.4902  0.1123
 6832SOL     OW27093   4.639   4.079   6.227  0.2660  0.2629  0.0644
 6832SOL    HW227094   4.594   4.043   6.303 -1.4658 -1.1160 -1.5376
 6832SOL    HW327095   4.569   4.107   6.168  1.4711 -1.0418 -2.0995
 6832SOL    MW427096   4.624   4.078   6.229  0.1965 -0.0912 -0.4324
 6833SOL     OW27097   5.774   1.786   1.711  0.3952  0.1985 -0.4419
 6833SOL    HW227098   5.842   1.759   1.773  0.0447 -0.3804 -0.2997
 6833SOL    HW327099   5.715   1.842   1.763  0.4520  0.2389 -0.4203
 6833SOL    MW427100   5.775   1.790   1.726  0.3564  0.1274 -0.4203
 6834SOL     OW27101   5.325   2.290   4.107  0.0150  0.2222 -0.1417
 6834SOL    HW227102   5.315   2.253   4.019 -0.6394 -0.7920  0.3400
 6834SOL    HW327103   5.375   2.223   4.155 -0.9667  0.0645  0.6819
 6834SOL    MW427104   5.330   2.276   4.102 -0.2009  0.0676  0.0305
 6835SOL     OW27105   4.579   0.852   5.826  0.4749  0.2009  0.1035
 6835SOL    HW227106   4.565   0.946   5.834 -0.6618 -0.0439  1.1466
 6835SOL    HW327107   4.616   0.841   5.738 -0.2219  1.5146 -0.3774
 6835SOL    MW427108   4.582   0.863   5.816  0.2330  0.3419  0.1777
 6836SOL     OW27109   6.424   2.329   0.641  0.2681  0.0893  0.3331
 6836SOL    HW227110   6.398   2.421   0.653  2.0003  0.6111  0.4097
 6836SOL    HW327111   6.341   2.282   0.634 -0.7034  1.4277  1.9069
 6836SOL    MW427112   6.410   2.335   0.641  0.3684  0.3347  0.5508
 6837SOL     OW27113   1.957   3.816   4.000  0.0388  0.2683 -0.1305
 6837SOL    HW227114   2.006   3.858   3.929  0.3703 -0.2376 -0.2017
 6837SOL    HW327115   1.868   3.851   3.991  0.0930  0.2512 -0.7571
 6837SOL    MW427116   1.952   3.826   3.989  0.0897  0.1993 -0.2226
 6838SOL     OW27117   1.340   1.820   0.991 -0.2128  0.3563 -0.4150
 6838SOL    HW227118   1.347   1.837   0.897 -0.7851  0.6985 -0.3993
 6838SOL    HW327119   1.248   1.797   1.004 -0.0437 -0.1164 -0.0024
 6838SOL    MW427120   1.329   1.819   0.980 -0.2660  0.3391 -0.3585
 6839SOL     OW27121   2.901   2.268   1.257 -0.2648  0.1987  0.0635
 6839SOL    HW227122   2.924   2.317   1.178 -0.0186  2.2098  1.3141
 6839SOL    HW327123   2.816   2.228   1.237  0.3274 -0.2689 -1.5984
 6839SOL    MW427124   2.893   2.269   1.244 -0.1541  0.4023  0.0093
 6840SOL     OW27125   4.396   2.464   3.118  0.2599  0.1358  0.2715
 6840SOL    HW227126   4.367   2.487   3.206  0.4867  0.5531  0.2406
 6840SOL    HW327127   4.358   2.532   3.062  1.6924  0.9819  0.2899
 6840SOL    MW427128   4.387   2.476   3.122  0.4788  0.3025  0.2699
 6841SOL     OW27129   6.299   0.623   0.120 -0.2932  0.7828  0.4305
 6841SOL    HW227130   6.309   0.711   0.083  0.6491  1.4052  2.0899
 6841SOL    HW327131   6.364   0.619   0.190 -0.2230 -1.2995  0.2984
 6841SOL    MW427132   6.309   0.634   0.124 -0.1596  0.5902  0.6320
 6842SOL     OW27133   4.875   5.000   2.643 -0.2470 -0.2100  0.6524
 6842SOL    HW227134   4.897   5.017   2.735  0.0120 -0.0354  0.5590
 6842SOL    HW327135   4.885   4.905   2.634  0.5103 -0.1367  0.6066
 6842SOL    MW427136   4.879   4.990   2.654 -0.1129 -0.1773  0.6340
 6843SOL     OW27137   4.427   5.431   0.066 -0.6143  0.0697 -0.0838
 6843SOL    HW227138   4.437   5.397  -0.023 -0.4981  1.3325 -0.5729
 6843SOL    HW327139   4.516   5.434   0.101 -0.6410 -0.2554  0.0160
 6843SOL    MW427140   4.440   5.427   0.059 -0.6025  0.1935 -0.1352
 6844SOL     OW27141   0.160   5.072   0.981 -0.9245  0.4381  0.4768
 6844SOL    HW227142   0.147   5.162   0.951  0.2743 -0.1080 -1.9526
 6844SOL    HW327143   0.075   5.030   0.970 -0.8427  0.6106 -1.1557
 6844SOL    MW427144   0.147   5.078   0.975 -0.7556  0.3888 -0.0591
 6845SOL     OW27145   5.004   0.306   3.096 -0.4818 -0.2667 -0.3216
 6845SOL    HW227146   4.967   0.308   3.008  0.6582 -1.3243 -0.8438
 6845SOL    HW327147   4.974   0.223   3.133  0.5174 -0.6625 -0.3809
 6845SOL    MW427148   4.995   0.295   3.090 -0.1995 -0.4584 -0.3984
 6846SOL     OW27149   3.033   1.858   5.268 -0.1148  0.0359  0.1464
 6846SOL    HW227150   2.982   1.781   5.244  0.7318 -0.1667 -1.0901
 6846SOL    HW327151   3.074   1.887   5.186  1.2906  0.5186  0.9824
 6846SOL    MW427152   3.032   1.852   5.254  0.1823  0.0729  0.0936
 6847SOL     OW27153   4.219   2.695   4.234  0.3104  0.1423 -0.2274
 6847SOL    HW227154   4.245   2.633   4.303  2.1708  1.2771  0.1417
 6847SOL    HW327155   4.153   2.647   4.184  1.3747 -1.9979  0.2813
 6847SOL    MW427156   4.214   2.680   4.237  0.6963  0.0096 -0.1116
 6848SOL     OW27157   6.281   2.618   2.593 -0.0200 -0.0412 -0.3391
 6848SOL    HW227158   6.223   2.691   2.613  0.3221  0.6008 -1.5927
 6848SOL    HW327159   6.223   2.548   2.562 -0.5358 -0.9753  2.4509
 6848SOL    MW427160   6.266   2.618   2.591 -0.0429 -0.0798 -0.1364
 6849SOL     OW27161   1.791   6.321   2.716 -0.2108 -0.0013 -0.0347
 6849SOL    HW227162   1.788   6.231   2.681 -0.2442 -0.5021  1.2078
 6849SOL    HW327163   1.869   6.360   2.677 -0.1428 -0.6021 -0.5124
 6849SOL    MW427164   1.801   6.314   2.706 -0.2062 -0.1466  0.0662
 6850SOL     OW27165   4.590   2.932   2.329  0.6874 -0.1250  0.2825
 6850SOL    HW227166   4.588   2.942   2.424  0.2280 -1.9632  0.5101
 6850SOL    HW327167   4.543   2.850   2.313 -0.8341  1.0290 -1.6740
 6850SOL    MW427168   4.584   2.922   2.340  0.4260 -0.2153  0.0544
 6851SOL     OW27169   3.342   5.629   6.069 -0.0555  0.8974  0.2598
 6851SOL    HW227170   3.362   5.635   5.976  0.9119  0.8531  0.4586
 6851SOL    HW327171   3.312   5.717   6.092 -1.9733  0.4865 -0.4438
 6851SOL    MW427172   3.341   5.641   6.060 -0.1809  0.8374  0.1932
 6852SOL     OW27173   5.948   2.801   0.028 -0.5466 -0.1156  0.2966
 6852SOL    HW227174   6.042   2.784   0.034 -0.7769 -0.9403  2.3198
 6852SOL    HW327175   5.941   2.876  -0.031  1.3907  0.2062  0.4056
 6852SOL    MW427176   5.959   2.809   0.021 -0.3214 -0.1819  0.5779
 6853SOL     OW27177   4.261   2.612   2.639 -0.7686  0.6648  0.3735
 6853SOL    HW227178   4.177   2.643   2.672 -1.0394 -0.4115  0.7328
 6853SOL    HW327179   4.241   2.576   2.552 -0.5550  0.9877  0.1869
 6853SOL    MW427180   4.248   2.612   2.632 -0.7761  0.5654  0.3963
 6854SOL     OW27181   3.261   5.232   3.950 -0.1348 -0.1554 -0.5605
 6854SOL    HW227182   3.257   5.140   3.924  0.5587  0.5639 -3.6252
 6854SOL    HW327183   3.182   5.271   3.913  0.7156  0.9015 -1.2894
 6854SOL    MW427184   3.250   5.225   3.942  0.0689  0.0789 -1.0610
 6855SOL     OW27185   2.051   1.640   5.755  0.8424 -0.3567  0.2856
 6855SOL    HW227186   1.975   1.612   5.706 -0.4993  0.1780  1.9458
 6855SOL    HW327187   2.034   1.732   5.776  2.8418  0.3561 -0.8837
 6855SOL    MW427188   2.039   1.649   5.751  0.9292 -0.1921  0.3504
 6856SOL     OW27189   3.133   5.664   5.768  0.5105 -0.2216  0.1561
 6856SOL    HW227190   3.144   5.646   5.675  0.6786  2.6610 -0.4714
 6856SOL    HW327191   3.182   5.745   5.784  0.4729 -0.6050  2.7587
 6856SOL    MW427192   3.141   5.673   5.758  0.5277  0.1081  0.4167
 6857SOL     OW27193   5.570   3.947   3.657  0.6124 -0.0466 -0.0530
 6857SOL    HW227194   5.646   3.974   3.709  0.7882 -0.1333 -0.2668
 6857SOL    HW327195   5.589   3.976   3.568  1.2494 -1.7047 -0.4986
 6857SOL    MW427196   5.583   3.954   3.652  0.7196 -0.2768 -0.1400
 6858SOL     OW27197   3.314   3.418   0.472 -0.6396  0.0352  0.2854
 6858SOL    HW227198   3.294   3.332   0.510  0.7978 -0.4581 -0.0240
 6858SOL    HW327199   3.409   3.418   0.461 -0.8624  0.6254 -2.1864
 6858SOL    MW427200   3.324   3.406   0.476 -0.4794  0.0480 -0.0816
 6859SOL     OW27201   6.348   5.919   1.419  0.4679  0.1030 -0.5754
 6859SOL    HW227202   6.331   5.998   1.368 -0.5629  0.7692  0.7479
 6859SOL    HW327203   6.361   5.950   1.508  2.9117 -0.9722 -0.4763
 6859SOL    MW427204   6.348   5.934   1.424  0.6543  0.0490 -0.3877
 6860SOL     OW27205   3.036   0.624   2.617 -0.6073  0.1241 -0.4463
 6860SOL    HW227206   3.023   0.693   2.552  0.8464  1.5017  0.6387
 6860SOL    HW327207   3.110   0.574   2.585 -0.8166 -0.0956 -0.5820
 6860SOL    MW427208   3.044   0.627   2.604 -0.4431  0.2768 -0.3211
 6861SOL     OW27209   4.865   0.567   0.361  0.6627 -0.0548  0.1058
 6861SOL    HW227210   4.780   0.579   0.319  0.7492  3.1119  0.5952
 6861SOL    HW327211   4.849   0.503   0.431 -0.9721 -0.4845 -0.6251
 6861SOL    MW427212   4.852   0.560   0.365  0.4584  0.3063  0.0740
 6862SOL     OW27213   0.375   4.295   0.052  0.4839  0.2531 -0.1502
 6862SOL    HW227214   0.344   4.348  -0.021  1.3960  0.7314 -0.2035
 6862SOL    HW327215   0.297   4.251   0.084  0.0443  0.1113 -1.3489
 6862SOL    MW427216   0.361   4.296   0.046  0.5462  0.2975 -0.3154
 6863SOL     OW27217   4.950   0.486   5.622 -0.0902 -0.4129 -0.7842
 6863SOL    HW227218   4.921   0.578   5.624 -1.7944 -0.9226  1.4014
 6863SOL    HW327219   5.030   0.485   5.674  0.1645 -0.1239 -1.1597
 6863SOL    MW427220   4.957   0.498   5.629 -0.2814 -0.4420 -0.5454
 6864SOL     OW27221   2.641   4.151   4.294 -0.6782  0.2985  0.6642
 6864SOL    HW227222   2.688   4.229   4.323 -1.9255  0.3737  2.6644
 6864SOL    HW327223   2.557   4.184   4.263 -1.3857 -0.2380  1.9201
 6864SOL    MW427224   2.636   4.165   4.294 -0.9361  0.2377  1.0938
 6865SOL     OW27225   4.844   4.749   2.382 -0.3778 -0.1303  0.1921
 6865SOL    HW227226   4.832   4.691   2.308  0.5532 -0.5862  0.3777
 6865SOL    HW327227   4.939   4.764   2.386 -0.6523  2.0907 -0.3647
 6865SOL    MW427228   4.855   4.743   2.373 -0.2912  0.1026  0.1431
 6866SOL     OW27229   1.779   1.148   0.052  0.0139 -0.4818 -0.1020
 6866SOL    HW227230   1.713   1.086   0.084 -0.2455 -0.5383 -0.7220
 6866SOL    HW327231   1.730   1.207  -0.006  0.1188  0.7265  0.9818
 6866SOL    MW427232   1.763   1.148   0.048 -0.0065 -0.3299 -0.0408
 6867SOL     OW27233   5.291   1.526   2.301 -0.1815  0.3085 -0.2170
 6867SOL    HW227234   5.203   1.509   2.334  0.0849 -2.1987 -0.6579
 6867SOL    HW327235   5.281   1.604   2.247 -2.3534 -0.4864 -1.0582
 6867SOL    MW427236   5.278   1.534   2.298 -0.4329 -0.1272 -0.3862
 6868SOL     OW27237   2.797   4.957   4.562 -0.2977  0.0644  0.0305
 6868SOL    HW227238   2.758   4.907   4.633 -1.1195 -2.1012 -1.8240
 6868SOL    HW327239   2.727   4.963   4.496  0.4841  1.8476 -0.7214
 6868SOL    MW427240   2.782   4.951   4.563 -0.3030  0.0140 -0.3134
 6869SOL     OW27241   3.956   6.359   5.852 -0.0017  0.0127  0.2317
 6869SOL    HW227242   3.984   6.434   5.799  0.7990  0.8569  1.7637
 6869SOL    HW327243   3.980   6.283   5.800 -0.6026  0.8015 -1.2604
 6869SOL    MW427244   3.963   6.359   5.838  0.0247  0.2282  0.2370
 6870SOL     OW27245   6.352   1.283   4.469  0.3392 -0.1248  0.1010
 6870SOL    HW227246   6.445   1.260   4.472  0.0961 -1.0702  0.6990
 6870SOL    HW327247   6.317   1.232   4.396  0.0535 -0.6844  0.6261
 6870SOL    MW427248   6.359   1.273   4.460  0.2695 -0.3234  0.2492
 6871SOL     OW27249   1.975   5.719   4.035  0.1885  0.1527  0.3528
 6871SOL    HW227250   2.032   5.779   4.083 -0.4892  0.1855  1.1374
 6871SOL    HW327251   1.971   5.641   4.090 -1.6770  0.6935  1.0672
 6871SOL    MW427252   1.982   5.717   4.049 -0.1470  0.2284  0.5505
 6872SOL     OW27253   0.218   1.947   3.528  0.2447 -0.5351 -0.7222
 6872SOL    HW227254   0.198   2.027   3.480  0.8142 -0.4773 -0.8657
 6872SOL    HW327255   0.303   1.964   3.569 -1.6106  0.7459  3.1125
 6872SOL    MW427256   0.227   1.960   3.527  0.0750 -0.3585 -0.2352
 6873SOL     OW27257   2.171   5.241   1.629  0.1621  0.2708 -0.0891
 6873SOL    HW227258   2.099   5.179   1.615 -1.2411  1.6109  0.8878
 6873SOL    HW327259   2.236   5.191   1.679 -0.0048 -0.9999 -1.0962
 6873SOL    MW427260   2.170   5.226   1.634 -0.0450  0.2800 -0.0931
 6874SOL     OW27261   1.183   3.952   1.074 -0.1087 -0.0381 -0.3548
 6874SOL    HW227262   1.087   3.959   1.075 -0.0276  1.3818 -0.3723
 6874SOL    HW327263   1.207   3.942   1.166 -0.2812 -0.6336 -0.3711
 6874SOL    MW427264   1.173   3.952   1.086 -0.1208  0.0707 -0.3593
 6875SOL     OW27265   3.003   5.905   3.385  0.2517 -0.6073  0.2603
 6875SOL    HW227266   2.914   5.877   3.404 -0.3271  1.2994  0.5763
 6875SOL    HW327267   3.013   5.890   3.290 -1.0947  0.8719 -0.1581
 6875SOL    MW427268   2.993   5.900   3.375 -0.0023 -0.1606  0.2468
 6876SOL     OW27269   5.869   5.987   1.819  0.0558  0.1195 -0.0236
 6876SOL    HW227270   5.816   5.964   1.742 -0.6748 -0.1182  0.5354
 6876SOL    HW327271   5.951   5.938   1.807 -0.0354  0.1200 -0.6707
 6876SOL    MW427272   5.873   5.977   1.807 -0.0526  0.0882 -0.0352
 6877SOL     OW27273   5.425   6.161   4.529 -0.2370 -0.0279 -0.0850
 6877SOL    HW227274   5.487   6.117   4.586  0.1902  0.8807  0.1757
 6877SOL    HW327275   5.394   6.093   4.470 -0.0316 -0.7895  0.6696
 6877SOL    MW427276   5.429   6.146   4.528 -0.1536 -0.0085  0.0490
 6878SOL     OW27277   3.736   0.555   4.377 -0.5648 -0.4302 -0.0477
 6878SOL    HW227278   3.726   0.650   4.384  2.2964 -0.0611  0.2080
 6878SOL    HW327279   3.763   0.541   4.286 -0.0969 -0.9104  0.1671
 6878SOL    MW427280   3.738   0.566   4.366 -0.1255 -0.4449  0.0144
 6879SOL     OW27281   3.762   0.467   4.816 -0.0765  0.0720 -0.2786
 6879SOL    HW227282   3.780   0.449   4.723 -1.5228 -0.9092 -0.4056
 6879SOL    HW327283   3.779   0.383   4.859 -0.5564  0.2056  0.1670
 6879SOL    MW427284   3.767   0.453   4.809 -0.3307 -0.0398 -0.2365
 6880SOL     OW27285   0.373   4.657   2.197 -0.2242  0.2546  0.1090
 6880SOL    HW227286   0.463   4.667   2.164  0.0519  2.5489  1.3398
 6880SOL    HW327287   0.370   4.568   2.232  1.7308  0.2825  0.4505
 6880SOL    MW427288   0.385   4.646   2.197  0.0702  0.5610  0.3165
 6881SOL     OW27289   1.118   3.779   5.541  0.3628 -0.0584 -0.3652
 6881SOL    HW227290   1.176   3.708   5.570 -0.2025  0.1432  1.4236
 6881SOL    HW327291   1.149   3.802   5.454  1.8793 -1.0967 -0.1391
 6881SOL    MW427292   1.130   3.772   5.533  0.4883 -0.1688 -0.0993
 6882SOL     OW27293   0.361   5.884   1.108  0.0629 -0.7906  0.4874
 6882SOL    HW227294   0.450   5.850   1.115 -0.0746 -1.2857 -0.1453
 6882SOL    HW327295   0.351   5.910   1.017 -0.5270 -0.9910  0.4845
 6882SOL    MW427296   0.371   5.883   1.097 -0.0331 -0.8823  0.4035
 6883SOL     OW27297   5.217   0.336   5.411 -0.0393 -0.1558  0.6255
 6883SOL    HW227298   5.141   0.290   5.445 -0.2176 -1.4407 -1.3214
 6883SOL    HW327299   5.288   0.314   5.472 -0.2621 -2.6011  0.1027
 6883SOL    MW427300   5.217   0.327   5.424 -0.0922 -0.6479  0.2996
 6884SOL     OW27301   1.633   1.578   6.185 -0.2701 -0.1808 -0.3058
 6884SOL    HW227302   1.643   1.649   6.248 -0.2710  0.5662 -1.1382
 6884SOL    HW327303   1.545   1.588   6.150 -0.1500 -0.3850 -0.6723
 6884SOL    MW427304   1.623   1.588   6.189 -0.2544 -0.1092 -0.4640
 6885SOL     OW27305   2.212   1.357   1.700 -0.1362 -0.7302  0.2237
 6885SOL    HW227306   2.233   1.375   1.609 -0.1873  0.5642  0.4458
 6885SOL    HW327307   2.161   1.277   1.698  0.5387 -1.1560 -0.8016
 6885SOL    MW427308   2.208   1.349   1.688 -0.0539 -0.6156  0.1177
 6886SOL     OW27309   2.614   0.936   1.606 -0.4382  0.2510 -0.4397
 6886SOL    HW227310   2.661   0.949   1.688  2.9881 -1.0855 -1.9753
 6886SOL    HW327311   2.551   0.866   1.625  1.2505 -1.0310  0.8229
 6886SOL    MW427312   2.612   0.928   1.619  0.2367 -0.0945 -0.4758
 6887SOL     OW27313   2.422   2.351   1.255 -0.0626  0.0846  0.1102
 6887SOL    HW227314   2.418   2.380   1.346  0.9253  1.3266 -0.2215
 6887SOL    HW327315   2.383   2.264   1.256 -0.6457  0.3394  1.6099
 6887SOL    MW427316   2.416   2.343   1.267 -0.0092  0.2821  0.2643
 6888SOL     OW27317   2.979   5.721   6.243 -0.5511 -0.5516  0.2029
 6888SOL    HW227318   3.047   5.733   6.309  1.3392 -1.0612 -1.5532
 6888SOL    HW327319   2.898   5.709   6.293  0.4184  1.2125  2.3524
 6888SOL    MW427320   2.977   5.721   6.258 -0.1738 -0.3861  0.2548
 6889SOL     OW27321   2.955   2.445   3.003 -0.1353 -0.7846  0.0533
 6889SOL    HW227322   2.868   2.452   2.964  0.5406  0.0153 -1.4119
 6889SOL    HW327323   3.001   2.523   2.971  0.1874  0.5791  3.3734
 6889SOL    MW427324   2.949   2.456   2.994 -0.0035 -0.4991  0.2981
 6890SOL     OW27325   6.158   4.725   4.129 -0.2233 -0.7091 -0.3911
 6890SOL    HW227326   6.154   4.820   4.139 -0.1550 -0.7020 -0.4341
 6890SOL    HW327327   6.082   4.704   4.075 -0.1276 -0.6568 -0.5467
 6890SOL    MW427328   6.147   4.734   4.123 -0.2016 -0.7013 -0.4173
 6891SOL     OW27329   1.910   1.135   5.952 -0.2301 -0.4862  0.1356
 6891SOL    HW227330   1.910   1.050   5.996 -1.1035 -0.0998  0.9168
 6891SOL    HW327331   1.955   1.194   6.012 -1.9587  0.1813  0.8638
 6891SOL    MW427332   1.916   1.131   5.965 -0.5734 -0.3471  0.3348
 6892SOL     OW27333   1.670   4.160   2.250  0.0559  0.5917  0.4529
 6892SOL    HW227334   1.593   4.128   2.298  1.2963 -1.9938  0.8785
 6892SOL    HW327335   1.634   4.200   2.171 -1.7305 -0.8983  0.4516
 6892SOL    MW427336   1.655   4.161   2.246 -0.0161  0.0540  0.5089
 6893SOL     OW27337   5.511   4.577   4.220  0.0124  0.3032 -0.1870
 6893SOL    HW227338   5.481   4.542   4.136 -0.5543  0.5399 -0.0913
 6893SOL    HW327339   5.466   4.661   4.228  0.6309  0.6174  0.0204
 6893SOL    MW427340   5.501   4.583   4.210  0.0192  0.3759 -0.1470
 6894SOL     OW27341   6.348   1.574   1.418  0.1285 -0.1652 -0.0996
 6894SOL    HW227342   6.384   1.656   1.383  1.5008 -1.0533 -0.8674
 6894SOL    HW327343   6.369   1.509   1.351  0.0446 -1.3487  0.9977
 6894SOL    MW427344   6.355   1.576   1.404  0.2985 -0.4385 -0.0561
 6895SOL     OW27345   1.615   3.019   0.777 -0.6158 -0.2490  0.8522
 6895SOL    HW227346   1.622   2.938   0.828 -0.7305 -0.1142  1.0831
 6895SOL    HW327347   1.703   3.032   0.742 -0.5416 -0.3592  0.9949
 6895SOL    MW427348   1.628   3.010   0.779 -0.6211 -0.2458  0.9015
 6896SOL     OW27349   6.188   0.215   1.730  0.1126 -0.3654  0.3696
 6896SOL    HW227350   6.236   0.158   1.669  0.4151  0.3693 -0.0935
 6896SOL    HW327351   6.248   0.225   1.804 -0.7137 -2.1971  1.3591
 6896SOL    MW427352   6.203   0.209   1.731  0.0435 -0.5101  0.4390
 6897SOL     OW27353   2.731   2.426   2.851  0.2415  0.2021  0.3429
 6897SOL    HW227354   2.775   2.351   2.812  2.7277  0.9768  1.4706
 6897SOL    HW327355   2.678   2.389   2.922  0.7150 -0.5631  0.3021
 6897SOL    MW427356   2.730   2.412   2.855  0.6320  0.2033  0.4863
 6898SOL     OW27357   0.058   1.636   5.488 -0.1477  0.8244 -0.4140
 6898SOL    HW227358   0.011   1.681   5.417 -0.7459  1.0045  0.0889
 6898SOL    HW327359  -0.009   1.617   5.553 -0.0144 -1.3319 -0.8518
 6898SOL    MW427360   0.043   1.640   5.487 -0.2090  0.5637 -0.4054
 6899SOL     OW27361   2.240   1.833   6.175 -0.3062  0.0179 -0.0504
 6899SOL    HW227362   2.291   1.909   6.148 -1.8502  0.5865 -1.5680
 6899SOL    HW327363   2.289   1.796   6.248  0.6895  2.2402  0.4988
 6899SOL    MW427364   2.253   1.838   6.181 -0.3786  0.3861 -0.1781
 6900SOL     OW27365   5.483   5.251   1.896 -0.0951  0.2289 -0.1821
 6900SOL    HW227366   5.578   5.245   1.908  0.0187  0.1114 -1.0781
 6900SOL    HW327367   5.447   5.208   1.972  0.5601  0.8925  0.5293
 6900SOL    MW427368   5.491   5.245   1.907  0.0063  0.3010 -0.2065
 6901SOL     OW27369   4.833   6.317   6.131  0.4951  0.0354  0.0979
 6901SOL    HW227370   4.843   6.312   6.226  0.3523 -0.4718  0.0863
 6901SOL    HW327371   4.739   6.324   6.117  0.3173 -2.0578 -0.0852
 6901SOL    MW427372   4.822   6.317   6.142  0.4528 -0.3077  0.0722
 6902SOL     OW27373   2.464   0.445   4.864 -0.0107  0.0917 -0.2839
 6902SOL    HW227374   2.450   0.422   4.956  0.0559 -0.9027 -0.5173
 6902SOL    HW327375   2.386   0.496   4.841  0.7105  1.7697  0.7527
 6902SOL    MW427376   2.452   0.449   4.873  0.0932  0.1819 -0.1779
 6903SOL     OW27377   3.195   5.511   3.478  0.3052 -0.0217  0.2333
 6903SOL    HW227378   3.193   5.472   3.390  0.9897 -0.0694  0.2321
 6903SOL    HW327379   3.229   5.599   3.464 -0.8980  0.4698  0.2851
 6903SOL    MW427380   3.199   5.517   3.464  0.2368  0.0369  0.2400
 6904SOL     OW27381   5.415   3.771   1.637  0.3904  0.6680  0.5802
 6904SOL    HW227382   5.384   3.692   1.681  0.9564 -0.1948 -0.5194
 6904SOL    HW327383   5.498   3.745   1.596 -0.1904  1.3602 -1.1375
 6904SOL    MW427384   5.422   3.757   1.638  0.3884  0.6455  0.2085
 6905SOL     OW27385   5.960   5.224   3.946  0.3247 -0.0982 -0.0969
 6905SOL    HW227386   6.043   5.270   3.941  0.0326  0.5824  1.0050
 6905SOL    HW327387   5.975   5.154   4.009 -0.1037  0.4312  0.6123
 6905SOL    MW427388   5.973   5.221   3.954  0.2297  0.0614  0.1421
 6906SOL     OW27389   0.961   0.608   0.759 -0.2062 -0.5701  0.2835
 6906SOL    HW227390   0.867   0.593   0.756 -0.3383  0.3217 -0.2545
 6906SOL    HW327391   0.978   0.632   0.850 -0.9072  1.6695 -0.1194
 6906SOL    MW427392   0.951   0.609   0.771 -0.3161 -0.1570  0.1594
 6907SOL     OW27393   0.789   4.741   6.397 -0.0986  0.2143 -0.3765
 6907SOL    HW227394   0.850   4.773   6.463  0.6409 -0.5758 -0.6603
 6907SOL    HW327395   0.754   4.820   6.355  1.2762  0.6683 -0.7043
 6907SOL    MW427396   0.792   4.756   6.400  0.1803  0.1699 -0.4572
 6908SOL     OW27397   5.495   4.856   3.332 -0.0979 -0.1778  0.0055
 6908SOL    HW227398   5.403   4.860   3.358 -1.5683 -0.7103 -4.3228
 6908SOL    HW327399   5.514   4.762   3.330  0.1903 -0.1135 -0.1705
 6908SOL    MW427400   5.485   4.844   3.335 -0.2539 -0.2396 -0.5888
 6909SOL     OW27401   3.858   3.180   5.608  0.2338 -0.1958 -0.2313
 6909SOL    HW227402   3.839   3.090   5.636  1.3031  0.0881  1.5572
 6909SOL    HW327403   3.940   3.173   5.559  0.3977 -0.1855  0.0387
 6909SOL    MW427404   3.867   3.167   5.605  0.3965 -0.1570  0.0403
 6910SOL     OW27405   3.907   4.280   3.686  0.0482  0.1911  0.6976
 6910SOL    HW227406   3.834   4.230   3.650  0.5418  0.3475 -0.5639
 6910SOL    HW327407   3.875   4.310   3.771 -0.7524 -1.1154  0.8931
 6910SOL    MW427408   3.893   4.277   3.693  0.0077  0.0393  0.5570
 6911SOL     OW27409   3.869   4.542   3.556 -0.2270  0.1087 -0.2137
 6911SOL    HW227410   3.875   4.605   3.627  1.5673  0.4272 -0.6065
 6911SOL    HW327411   3.912   4.464   3.590 -0.7099 -0.2608 -0.4308
 6911SOL    MW427412   3.875   4.540   3.570 -0.0540  0.1020 -0.2942
 6912SOL     OW27413   5.327   3.960   5.094 -0.0140 -0.5899 -0.8692
 6912SOL    HW227414   5.347   3.874   5.130  1.3034 -1.6093 -3.7274
 6912SOL    HW327415   5.249   3.946   5.040 -0.4365  0.2837 -0.5074
 6912SOL    MW427416   5.319   3.947   5.092  0.1041 -0.6091 -1.1985
 6913SOL     OW27417   2.488   3.618   4.584  0.0541  0.1893  0.2308
 6913SOL    HW227418   2.521   3.696   4.538 -2.7459  3.0620  2.5944
 6913SOL    HW327419   2.558   3.593   4.643  0.9549  1.0303 -0.4564
 6913SOL    MW427420   2.501   3.625   4.586 -0.1965  0.6792  0.4519
 6914SOL     OW27421   2.009   4.372   0.455 -0.3073  0.2744 -0.1454
 6914SOL    HW227422   1.925   4.387   0.413 -1.2145 -0.4824  1.3051
 6914SOL    HW327423   2.042   4.292   0.415 -1.1972 -0.4808  0.5879
 6914SOL    MW427424   2.003   4.363   0.444 -0.5444  0.0749  0.1427
 6915SOL     OW27425   0.115   3.745   4.910 -0.7277 -0.2783 -0.1773
 6915SOL    HW227426   0.101   3.837   4.887  2.5741  0.3249 -0.2680
 6915SOL    HW327427   0.190   3.746   4.970  0.7908 -2.9955 -1.8217
 6915SOL    MW427428   0.123   3.757   4.915 -0.0917 -0.5572 -0.4063
 6916SOL     OW27429   0.666   0.664   4.748 -0.5813  0.0910  0.4470
 6916SOL    HW227430   0.720   0.740   4.725  0.4031 -1.0560 -1.2788
 6916SOL    HW327431   0.710   0.590   4.706 -2.0918 -1.2857  1.1959
 6916SOL    MW427432   0.679   0.665   4.739 -0.6507 -0.2420  0.3181
 6917SOL     OW27433   0.017   2.813   1.031  0.5923 -0.2060  0.3750
 6917SOL    HW227434   0.016   2.816   1.127  1.6342  1.2645  0.3749
 6917SOL    HW327435   0.066   2.891   1.006 -0.7562  0.1082 -1.4023
 6917SOL    MW427436   0.024   2.823   1.041  0.5519  0.0295  0.1405
 6918SOL     OW27437   1.449   1.440   5.143 -0.3652  1.3223  0.0118
 6918SOL    HW227438   1.535   1.400   5.142 -0.4363  1.1715 -1.4218
 6918SOL    HW327439   1.434   1.462   5.235  0.9026  0.7352  0.3763
 6918SOL    MW427440   1.458   1.438   5.155 -0.2073  1.2249 -0.1293
 6919SOL     OW27441   0.357   5.124   5.493 -0.3666 -0.2989  0.8165
 6919SOL    HW227442   0.418   5.157   5.427 -3.2142  0.7626 -1.5183
 6919SOL    HW327443   0.403   5.052   5.535  2.4849  0.5324 -0.6515
 6919SOL    MW427444   0.371   5.119   5.490 -0.3661 -0.0492  0.3148
 6920SOL     OW27445   6.358   3.974   4.795  0.0957  0.1969  0.1621
 6920SOL    HW227446   6.384   3.980   4.703 -0.0440 -1.2639  0.0153
 6920SOL    HW327447   6.270   3.936   4.793 -0.2113  0.8367  0.8754
 6920SOL    MW427448   6.350   3.970   4.783  0.0367  0.0886  0.2368
 6921SOL     OW27449   5.690   6.378   3.567  0.0509  0.4999 -0.3144
 6921SOL    HW227450   5.725   6.451   3.618 -0.1981 -1.1968  2.5087
 6921SOL    HW327451   5.764   6.318   3.559 -0.5745 -0.3617  0.2526
 6921SOL    MW427452   5.705   6.380   3.573 -0.0645  0.1624  0.1329
 6922SOL     OW27453   1.583   5.723   5.839 -0.5966  0.1005 -0.4516
 6922SOL    HW227454   1.622   5.639   5.861 -0.6599 -0.0214 -0.7888
 6922SOL    HW327455   1.509   5.732   5.898  2.1717  2.1877  3.0926
 6922SOL    MW427456   1.578   5.713   5.850 -0.2397  0.3598 -0.0285
 6923SOL     OW27457   6.074   3.182   1.991 -0.6169  0.1823 -0.1925
 6923SOL    HW227458   6.146   3.183   2.054 -0.6438  0.1306 -0.1610
 6923SOL    HW327459   6.025   3.103   2.012 -0.0054 -0.4253 -0.9781
 6923SOL    MW427460   6.077   3.172   2.002 -0.5398  0.0953 -0.2920
 6924SOL     OW27461   2.256   2.351   5.249 -0.1186  0.0416 -0.1419
 6924SOL    HW227462   2.227   2.322   5.163 -0.7679 -0.8147  0.3560
 6924SOL    HW327463   2.238   2.277   5.307 -0.0747  0.7619  0.8126
 6924SOL    MW427464   2.250   2.337   5.246 -0.1985  0.0236  0.0497
 6925SOL     OW27465   0.972   4.514   5.080 -0.0477  0.0525 -0.4262
 6925SOL    HW227466   1.040   4.467   5.129 -0.0629 -0.8557 -1.2432
 6925SOL    HW327467   0.911   4.545   5.146 -1.1505 -2.8584  0.0479
 6925SOL    MW427468   0.973   4.512   5.095 -0.1952 -0.4514 -0.4714
 6926SOL     OW27469   1.379   3.246   0.928  0.3515  0.3049 -0.1850
 6926SOL    HW227470   1.413   3.225   0.841  0.5123 -2.2381  0.4236
 6926SOL    HW327471   1.450   3.225   0.988 -0.3823  0.2874  0.6971
 6926SOL    MW427472   1.393   3.241   0.924  0.2759 -0.0329  0.0117
 6927SOL     OW27473   4.349   1.510   0.449  0.3654 -0.3446  0.1286
 6927SOL    HW227474   4.260   1.546   0.453  0.7195  0.4948  0.5537
 6927SOL    HW327475   4.401   1.568   0.504  1.3664 -0.2910 -0.8476
 6927SOL    MW427476   4.344   1.522   0.457  0.5442 -0.2268  0.0559
 6928SOL     OW27477   0.815   4.739   2.236 -0.0077  0.2433  0.3962
 6928SOL    HW227478   0.892   4.686   2.255  0.3201  0.8681  0.8805
 6928SOL    HW327479   0.813   4.747   2.141  0.9958  0.8915  0.4167
 6928SOL    MW427480   0.824   4.733   2.226  0.1679  0.4112  0.4628
 6929SOL     OW27481   2.169   0.431   0.112 -0.0116  0.1414  0.0531
 6929SOL    HW227482   2.229   0.474   0.174  0.0992  1.1284 -0.7249
 6929SOL    HW327483   2.162   0.341   0.145  0.2779  0.5620  1.3267
 6929SOL    MW427484   2.176   0.425   0.125  0.0412  0.3272  0.1185
 6930SOL     OW27485   6.086   2.680   3.414  0.0690 -0.5592 -0.3455
 6930SOL    HW227486   6.176   2.706   3.436 -0.4359  2.1914 -1.2632
 6930SOL    HW327487   6.094   2.640   3.327  0.6511 -2.3771  0.4880
 6930SOL    MW427488   6.099   2.678   3.406  0.0792 -0.4361 -0.3566
 6931SOL     OW27489   1.847   5.735   4.325 -0.2589  0.7646 -0.2474
 6931SOL    HW227490   1.774   5.677   4.303 -0.1941  0.2133  0.9413
 6931SOL    HW327491   1.819   5.822   4.295 -1.0553  0.4165 -0.5291
 6931SOL    MW427492   1.834   5.739   4.318 -0.3554  0.6460 -0.1277
 6932SOL     OW27493   5.739   5.025   3.824  0.5225  0.2468 -0.5184
 6932SOL    HW227494   5.791   4.960   3.777  2.1431  0.2397  1.1580
 6932SOL    HW327495   5.804   5.079   3.869 -0.8892  0.9990  0.6874
 6932SOL    MW427496   5.754   5.023   3.824  0.5501  0.3451 -0.1381
 6933SOL     OW27497   4.698   2.647   2.915 -0.9057 -0.0132 -0.0429
 6933SOL    HW227498   4.751   2.676   2.841 -0.1415 -0.3971  0.3429
 6933SOL    HW327499   4.611   2.683   2.897 -0.8230 -0.3711 -1.2905
 6933SOL    MW427500   4.693   2.656   2.903 -0.7939 -0.1111 -0.1566
 6934SOL     OW27501   5.724   5.638   1.890  0.0409 -0.4766 -0.0503
 6934SOL    HW227502   5.690   5.718   1.930 -0.6852 -0.3985 -0.7872
 6934SOL    HW327503   5.670   5.568   1.929  1.2581 -0.7310  1.2620
 6934SOL    MW427504   5.712   5.639   1.901  0.1057 -0.4999  0.0256
 6935SOL     OW27505   1.814   3.045   4.211  0.1228  1.0284  0.4951
 6935SOL    HW227506   1.905   3.075   4.212  0.5877 -0.1504 -0.9030
 6935SOL    HW327507   1.816   2.968   4.154 -1.4575 -0.0438  1.8047
 6935SOL    MW427508   1.826   3.039   4.203 -0.0244  0.7314  0.4834
 6936SOL     OW27509   3.803   0.985   0.124 -0.1776  0.1855 -0.2632
 6936SOL    HW227510   3.826   0.917   0.062  0.3686 -0.0422  0.1773
 6936SOL    HW327511   3.803   1.066   0.073  2.2476  0.3107 -0.2158
 6936SOL    MW427512   3.806   0.987   0.109  0.2144  0.1719 -0.1989
 6937SOL     OW27513   2.176   5.656   5.297  0.0096  0.3141 -0.5661
 6937SOL    HW227514   2.150   5.676   5.386 -0.4522  1.4177 -0.9330
 6937SOL    HW327515   2.204   5.564   5.300  0.1735  0.3894  0.7378
 6937SOL    MW427516   2.177   5.646   5.309 -0.0297  0.4697 -0.4425
 6938SOL     OW27517   6.180   4.384   5.349 -0.0505  0.3412  0.2135
 6938SOL    HW227518   6.243   4.407   5.417  0.4835  1.3728 -0.5938
 6938SOL    HW327519   6.097   4.421   5.380 -0.3739 -1.3375  1.4505
 6938SOL    MW427520   6.177   4.392   5.362 -0.0227  0.2558  0.2702
 6939SOL     OW27521   1.427   1.049   4.203 -0.0163  1.2695 -0.5882
 6939SOL    HW227522   1.399   1.126   4.154  0.3809  2.5749  1.1340
 6939SOL    HW327523   1.475   1.085   4.278 -0.0159 -0.6539  0.3887
 6939SOL    MW427524   1.430   1.064   4.207  0.0362  1.1880 -0.2321
 6940SOL     OW27525   1.512   3.048   5.236  0.5118 -0.8642 -0.0228
 6940SOL    HW227526   1.488   2.972   5.182 -2.2189 -0.1048 -0.0322
 6940SOL    HW327527   1.449   3.048   5.308 -0.1559  1.7941 -0.4683
 6940SOL    MW427528   1.501   3.038   5.238  0.0634 -0.4133 -0.0828
 6941SOL     OW27529   3.196   4.749   5.892  0.1584 -0.0613  0.4390
 6941SOL    HW227530   3.216   4.759   5.799  0.7475 -0.9557  0.4497
 6941SOL    HW327531   3.166   4.658   5.901 -0.0272  0.0543  1.0976
 6941SOL    MW427532   3.195   4.738   5.881  0.2116 -0.1640  0.5273
 6942SOL     OW27533   0.830   0.146   0.398  0.0308 -0.4815 -0.3068
 6942SOL    HW227534   0.789   0.200   0.330 -0.9391 -1.0335 -0.1781
 6942SOL    HW327535   0.759   0.090   0.430  0.6690 -0.7870  0.6037
 6942SOL    MW427536   0.815   0.145   0.393 -0.0129 -0.5946 -0.1697
 6943SOL     OW27537   1.450   4.189   1.292 -0.7938 -0.7198 -0.1765
 6943SOL    HW227538   1.395   4.200   1.369 -0.5517  1.3955 -0.2362
 6943SOL    HW327539   1.405   4.237   1.222  0.8390  0.6732 -0.3356
 6943SOL    MW427540   1.437   4.197   1.293 -0.5464 -0.2569 -0.2053
 6944SOL     OW27541   0.539   1.814   6.422  0.0255 -0.0646 -0.5434
 6944SOL    HW227542   0.578   1.772   6.499  0.6416  2.3330  0.5326
 6944SOL    HW327543   0.452   1.775   6.415 -0.0890 -0.2534  1.4468
 6944SOL    MW427544   0.533   1.803   6.431  0.0917  0.2268 -0.1389
 6945SOL     OW27545   4.407   5.706   4.323  0.4465 -0.2368 -0.5956
 6945SOL    HW227546   4.346   5.641   4.356 -0.0261  0.1044 -0.7862
 6945SOL    HW327547   4.357   5.787   4.321  0.8166 -0.0132 -1.0371
 6945SOL    MW427548   4.393   5.708   4.327  0.4329 -0.1623 -0.6790
 6946SOL     OW27549   2.348   5.891   6.108 -0.3141  0.7850  0.0155
 6946SOL    HW227550   2.439   5.866   6.123 -0.0236  0.0060 -2.5547
 6946SOL    HW327551   2.339   5.977   6.150  0.7521 -0.3144  2.6948
 6946SOL    MW427552   2.359   5.899   6.115 -0.1351  0.5372  0.0299
 6947SOL     OW27553   0.952   1.073   0.548  0.3404  0.4181  0.3934
 6947SOL    HW227554   0.964   1.105   0.458  1.3501  2.3990  1.1730
 6947SOL    HW327555   0.984   0.983   0.546 -1.2205 -0.1714 -1.5831
 6947SOL    MW427556   0.958   1.065   0.536  0.2677  0.6017  0.2355
 6948SOL     OW27557   4.409   0.672   2.035 -0.6223  0.0136 -1.0627
 6948SOL    HW227558   4.357   0.749   2.012 -2.1538  0.0119  1.8868
 6948SOL    HW327559   4.373   0.601   1.982 -2.3534  0.4449 -0.5320
 6948SOL    MW427560   4.398   0.673   2.025 -1.0527  0.0702 -0.6036
 6949SOL     OW27561   1.114   4.265   5.783  0.7435 -0.2824 -0.7078
 6949SOL    HW227562   1.103   4.171   5.767 -2.0846 -0.1847  0.1066
 6949SOL    HW327563   1.101   4.275   5.877  0.9353  0.9442 -0.7983
 6949SOL    MW427564   1.111   4.254   5.793  0.3957 -0.1077 -0.6122
 6950SOL     OW27565   2.088   5.163   0.997  0.1850 -0.3869  0.3446
 6950SOL    HW227566   2.115   5.247   1.035  1.0811 -0.8399  0.7385
 6950SOL    HW327567   2.128   5.162   0.910 -0.0225 -0.3104  0.2468
 6950SOL    MW427568   2.097   5.174   0.991  0.2758 -0.4366  0.3837
 6951SOL     OW27569   0.206   2.404   3.099 -0.5360  0.9547 -0.0671
 6951SOL    HW227570   0.230   2.322   3.141  2.0816  1.7907  0.2185
 6951SOL    HW327571   0.180   2.378   3.010 -0.4084 -0.2229  0.2179
 6951SOL    MW427572   0.206   2.390   3.092 -0.1738  0.9096  0.0082
 6952SOL     OW27573   4.370   4.324   1.567  0.9946 -0.7736 -0.2709
 6952SOL    HW227574   4.284   4.305   1.528 -0.9059  1.6544  2.3039
 6952SOL    HW327575   4.401   4.239   1.598 -0.3718 -1.7448 -1.4236
 6952SOL    MW427576   4.363   4.310   1.566  0.5636 -0.5814 -0.0832
 6953SOL     OW27577   6.131   5.511   2.516 -0.3893  0.0304  0.7158
 6953SOL    HW227578   6.215   5.557   2.518 -1.0341  1.2218  1.5346
 6953SOL    HW327579   6.149   5.427   2.560  0.4286  0.1705  0.6561
 6953SOL    MW427580   6.144   5.506   2.522 -0.3665  0.2061  0.8159
 6954SOL     OW27581   0.975   2.875   3.888 -0.0561 -0.2679 -0.6104
 6954SOL    HW227582   0.980   2.878   3.984 -1.6675  0.2489 -0.5106
 6954SOL    HW327583   0.971   2.781   3.868  0.0583 -0.3733 -0.1668
 6954SOL    MW427584   0.975   2.863   3.898 -0.2536 -0.2136 -0.5387
 6955SOL     OW27585   3.880   4.824   0.044  0.1810  0.3634  0.2747
 6955SOL    HW227586   3.891   4.881  -0.031 -1.8956  0.2802 -0.1423
 6955SOL    HW327587   3.787   4.802   0.045  0.7100 -2.2715  0.9551
 6955SOL    MW427588   3.869   4.829   0.034 -0.0232  0.0048  0.3094
 6956SOL     OW27589   6.223   6.271   2.845 -0.0102 -0.0742 -0.1412
 6956SOL    HW227590   6.210   6.229   2.930 -0.0904  1.7157  0.7668
 6956SOL    HW327591   6.315   6.255   2.825 -0.0051 -0.5647  0.2436
 6956SOL    MW427592   6.234   6.263   2.854 -0.0201  0.0973  0.0293
 6957SOL     OW27593   0.012   3.037   1.452 -0.3530  0.0134  0.0730
 6957SOL    HW227594   0.043   2.990   1.375  1.5344  1.3810 -0.0679
 6957SOL    HW327595   0.085   3.032   1.514 -1.0451  0.7189  0.9734
 6957SOL    MW427596   0.026   3.030   1.450 -0.1953  0.2869  0.1732
 6958SOL     OW27597   6.360   5.553   0.291  0.0228 -0.1394 -0.2798
 6958SOL    HW227598   6.455   5.558   0.303  0.2599 -1.3867 -1.3641
 6958SOL    HW327599   6.333   5.476   0.342 -1.0221  2.1615  2.9788
 6958SOL    MW427600   6.369   5.543   0.299 -0.0838 -0.0004  0.0071
 6959SOL     OW27601   0.466   4.421   3.226 -0.1303  0.3368  0.1313
 6959SOL    HW227602   0.491   4.505   3.186  1.7765  0.4150  1.3767
 6959SOL    HW327603   0.534   4.360   3.197 -2.2743 -1.2693 -2.0052
 6959SOL    MW427604   0.478   4.424   3.217 -0.1616  0.1352  0.0137
 6960SOL     OW27605   1.459   5.275   5.274 -0.7680  0.3948 -0.2477
 6960SOL    HW227606   1.401   5.200   5.280  1.6042 -1.6096 -0.6323
 6960SOL    HW327607   1.450   5.320   5.358 -0.4896 -1.7617  1.0029
 6960SOL    MW427608   1.450   5.271   5.286 -0.4183 -0.1542 -0.1334
 6961SOL     OW27609   2.362   3.444   0.977  0.2687 -0.4226 -0.1713
 6961SOL    HW227610   2.382   3.352   0.959 -0.4517 -0.0979 -3.0371
 6961SOL    HW327611   2.283   3.440   1.032  1.1850 -1.4848  1.1517
 6961SOL    MW427612   2.354   3.431   0.982  0.2945 -0.5199 -0.3748
 6962SOL     OW27613   5.891   3.530   5.813 -0.2254 -0.4308  0.5625
 6962SOL    HW227614   5.837   3.555   5.737  0.8962 -1.5503 -0.6550
 6962SOL    HW327615   5.847   3.452   5.848 -0.4062 -0.2654  0.7105
 6962SOL    MW427616   5.878   3.523   5.807 -0.1013 -0.5567  0.4214
 6963SOL     OW27617   3.537   3.946   6.030  0.3706  0.7843  0.4361
 6963SOL    HW227618   3.549   3.860   5.989  2.0047 -0.3864  3.1412
 6963SOL    HW327619   3.569   4.008   5.964  2.1042 -0.9144 -0.4341
 6963SOL    MW427620   3.543   3.942   6.016  0.8149  0.4057  0.6782
 6964SOL     OW27621   1.341   5.478   5.892 -0.5710 -0.1093 -0.1795
 6964SOL    HW227622   1.403   5.412   5.861 -0.1073  0.3459 -0.2414
 6964SOL    HW327623   1.282   5.430   5.950 -0.7562 -0.7469 -0.8670
 6964SOL    MW427624   1.341   5.463   5.896 -0.5342 -0.1334 -0.2784
 6965SOL     OW27625   5.858   5.130   2.530  0.7588  0.3036 -0.1126
 6965SOL    HW227626   5.929   5.174   2.484  0.7396  0.5542  0.0935
 6965SOL    HW327627   5.892   5.043   2.549  0.3186 -0.2563 -1.7076
 6965SOL    MW427628   5.872   5.124   2.526  0.6982  0.2628 -0.2958
 6966SOL     OW27629   1.325   2.279   1.185 -0.6720 -0.2885  1.1319
 6966SOL    HW227630   1.291   2.257   1.271 -0.1800 -0.6665  1.2395
 6966SOL    HW327631   1.350   2.194   1.147 -1.1998 -0.1570  0.4857
 6966SOL    MW427632   1.324   2.265   1.191 -0.6767 -0.3210  1.0608
 6967SOL     OW27633   4.295   6.344   2.642 -0.2084  0.7471  0.0996
 6967SOL    HW227634   4.308   6.434   2.611  0.8283  0.2221 -1.0621
 6967SOL    HW327635   4.247   6.302   2.571  0.7137 -0.0357 -0.0657
 6967SOL    MW427636   4.290   6.351   2.628  0.0500  0.5746 -0.0755
 6968SOL     OW27637   2.087   0.630   3.634 -0.2241  0.1268 -0.3922
 6968SOL    HW227638   2.109   0.697   3.699  0.4369  0.0939 -0.5756
 6968SOL    HW327639   2.170   0.611   3.590  0.0228 -2.2809  0.9905
 6968SOL    MW427640   2.101   0.636   3.637 -0.1043 -0.1952 -0.2340
 6969SOL     OW27641   2.901   4.024   3.787  0.2892  0.0590  0.4918
 6969SOL    HW227642   2.806   4.015   3.781  0.3667 -1.7196  1.3703
 6969SOL    HW327643   2.915   4.119   3.797 -1.3667  0.3582  0.2956
 6969SOL    MW427644   2.890   4.036   3.788  0.0809 -0.1362  0.5818
 6970SOL     OW27645   0.465   4.387   0.744  0.3991 -0.0237  0.3442
 6970SOL    HW227646   0.493   4.471   0.781  1.3913  0.0819 -0.5931
 6970SOL    HW327647   0.393   4.409   0.686  1.3354  0.3504 -0.7108
 6970SOL    MW427648   0.459   4.401   0.741  0.6535  0.0396  0.0814
 6971SOL     OW27649   1.171   5.231   0.841  0.4416 -0.7443 -0.3832
 6971SOL    HW227650   1.230   5.281   0.897 -0.1020 -0.5131 -0.0059
 6971SOL    HW327651   1.209   5.143   0.838  0.2093 -0.8995  0.7698
 6971SOL    MW427652   1.184   5.226   0.848  0.3392 -0.7343 -0.1813
 6972SOL     OW27653   2.681   3.033   3.978  0.3110 -0.2324 -0.1754
 6972SOL    HW227654   2.698   2.940   3.993  1.3962 -0.0872 -0.4852
 6972SOL    HW327655   2.671   3.041   3.883  0.8264  0.0658 -0.2072
 6972SOL    MW427656   2.682   3.022   3.967  0.5222 -0.1739 -0.2204
 6973SOL     OW27657   4.259   3.912   4.501  0.0734  0.0039  0.1600
 6973SOL    HW227658   4.306   3.830   4.514 -0.0371 -0.1881 -0.5659
 6973SOL    HW327659   4.283   3.940   4.412 -1.0915 -0.0545 -0.1919
 6973SOL    MW427660   4.268   3.905   4.491 -0.0949 -0.0291  0.0178
 6974SOL     OW27661   3.127   6.072   5.345 -0.3655  0.0698  0.3478
 6974SOL    HW227662   3.109   6.162   5.321 -0.6415 -0.5795 -2.1496
 6974SOL    HW327663   3.161   6.032   5.265 -0.9021 -2.2077  1.1804
 6974SOL    MW427664   3.129   6.078   5.331 -0.4727 -0.3164  0.1282
 6975SOL     OW27665   2.521   5.400   1.688 -0.6323 -0.6387  0.7433
 6975SOL    HW227666   2.450   5.448   1.731 -0.1691 -0.5427  1.4126
 6975SOL    HW327667   2.546   5.332   1.751 -0.0186 -0.5618  0.5899
 6975SOL    MW427668   2.515   5.398   1.702 -0.4902 -0.6159  0.8114
 6976SOL     OW27669   5.469   0.429   3.645  0.2056  0.0691 -0.0015
 6976SOL    HW227670   5.409   0.414   3.571 -0.5741  2.5426  0.0604
 6976SOL    HW327671   5.499   0.519   3.634  1.4235 -0.0791  1.7766
 6976SOL    MW427672   5.465   0.439   3.634  0.2634  0.3759  0.2413
 6977SOL     OW27673   3.865   4.506   1.076  0.1499 -0.4221 -0.3881
 6977SOL    HW227674   3.900   4.453   1.004 -1.9388 -1.4772 -0.7348
 6977SOL    HW327675   3.938   4.516   1.136  0.6672 -3.9721 -0.2043
 6977SOL    MW427676   3.879   4.500   1.074 -0.0574 -1.0297 -0.4096
 6978SOL     OW27677   6.328   5.870   6.304 -0.3094  0.1714  0.7667
 6978SOL    HW227678   6.419   5.842   6.293 -0.8397 -1.4625  0.2808
 6978SOL    HW327679   6.297   5.820   6.380 -1.3176 -0.6773 -0.1777
 6978SOL    MW427680   6.336   5.859   6.313 -0.5124 -0.1562  0.5780
 6979SOL     OW27681   3.647   5.528   4.368  0.2702 -0.0382  0.4884
 6979SOL    HW227682   3.605   5.585   4.303  2.0933  1.3003  0.4210
 6979SOL    HW327683   3.576   5.473   4.400 -1.0047  0.3155 -1.5147
 6979SOL    MW427684   3.632   5.528   4.364  0.3425  0.1850  0.2153
 6980SOL     OW27685   5.893   3.987   0.439  0.7591  0.2011  0.1079
 6980SOL    HW227686   5.911   3.976   0.532  0.3845  0.9176  0.2670
 6980SOL    HW327687   5.904   4.081   0.423  2.7367 -0.1629 -0.9797
 6980SOL    MW427688   5.897   3.998   0.449  0.9706  0.2476 -0.0146
 6981SOL     OW27689   3.543   4.987   3.028 -0.4552 -0.0574 -0.0541
 6981SOL    HW227690   3.575   5.066   2.984  0.5828 -0.0803  0.6296
 6981SOL    HW327691   3.480   5.019   3.093 -0.1502  0.1923  0.1183
 6981SOL    MW427692   3.539   5.002   3.031 -0.2780 -0.0275  0.0588
 6982SOL     OW27693   1.216   3.062   3.944 -0.2577  0.0537  0.5620
 6982SOL    HW227694   1.185   3.150   3.962 -0.2764  0.8466 -2.7095
 6982SOL    HW327695   1.154   3.005   3.991 -1.8420  1.7266  0.6200
 6982SOL    MW427696   1.204   3.066   3.953 -0.4692  0.3790  0.1380
 6983SOL     OW27697   3.242   5.356   6.345  0.0969 -0.3717  0.0422
 6983SOL    HW227698   3.214   5.403   6.267 -1.5162 -0.7224  0.3800
 6983SOL    HW327699   3.334   5.335   6.328  0.0177  0.3056 -1.3812
 6983SOL    MW427700   3.250   5.359   6.332 -0.1263 -0.3286 -0.1010
 6984SOL     OW27701   5.506   6.030   6.415  0.7917 -0.6109 -0.0597
 6984SOL    HW227702   5.456   6.098   6.371  2.8306  0.5021 -0.7829
 6984SOL    HW327703   5.508   6.057   6.507 -1.3397 -1.6133  0.3503
 6984SOL    MW427704   5.500   6.042   6.421  0.7795 -0.5963 -0.1010
 6985SOL     OW27705   5.320   1.754   2.778 -0.6376 -0.5593 -0.2230
 6985SOL    HW227706   5.364   1.787   2.699 -1.5198  1.4275  0.0667
 6985SOL    HW327707   5.297   1.664   2.756  1.4749 -0.9239 -1.2340
 6985SOL    MW427708   5.323   1.746   2.764 -0.4753 -0.3453 -0.3182
 6986SOL     OW27709   3.417   4.579   3.336 -0.3432 -0.9211 -0.2690
 6986SOL    HW227710   3.349   4.547   3.276 -1.0292 -1.9862  1.0141
 6986SOL    HW327711   3.384   4.664   3.367  0.8054  0.4761 -2.5909
 6986SOL    MW427712   3.404   4.586   3.332 -0.2821 -0.8773 -0.4060
 6987SOL     OW27713   3.481   5.648   2.100  0.0987 -0.3559  0.4373
 6987SOL    HW227714   3.392   5.647   2.065  0.6318 -0.7670 -0.9711
 6987SOL    HW327715   3.487   5.568   2.152  0.5091 -1.9463 -1.8814
 6987SOL    MW427716   3.470   5.637   2.102  0.2232 -0.6200 -0.0545
 6988SOL     OW27717   1.413   6.145   1.563 -0.5739  0.5255  0.2872
 6988SOL    HW227718   1.462   6.225   1.544  2.1426 -0.9901  0.4669
 6988SOL    HW327719   1.416   6.138   1.659 -0.1781 -0.1434  0.2289
 6988SOL    MW427720   1.420   6.155   1.574 -0.1633  0.2373  0.3032
 6989SOL     OW27721   5.314   0.046   5.636 -0.0790  0.5965 -0.6695
 6989SOL    HW227722   5.342   0.020   5.724  0.2017  1.1031 -0.6020
 6989SOL    HW327723   5.362   0.127   5.619 -0.0645  0.4535 -1.3293
 6989SOL    MW427724   5.324   0.054   5.645 -0.0400  0.6445 -0.7476
 6990SOL     OW27725   4.932   5.205   0.963 -0.3475 -0.6779  0.4585
 6990SOL    HW227726   4.912   5.119   1.000 -0.6588 -0.8211 -0.0276
 6990SOL    HW327727   5.002   5.240   1.018 -0.9036 -0.8169  1.2709
 6990SOL    MW427728   4.938   5.198   0.975 -0.4619 -0.7152  0.5015
 6991SOL     OW27729   5.968   1.560   4.618 -0.0115  0.4875  0.1770
 6991SOL    HW227730   5.957   1.624   4.688 -0.5324 -0.4181  0.9471
 6991SOL    HW327731   6.053   1.581   4.580 -0.6553  2.3358 -0.3360
 6991SOL    MW427732   5.978   1.572   4.622 -0.1652  0.6119  0.2109
 6992SOL     OW27733   4.060   4.829   0.890  0.0082 -0.1657  0.8576
 6992SOL    HW227734   3.985   4.889   0.899 -0.5455 -0.7250  0.1397
 6992SOL    HW327735   4.134   4.886   0.870 -0.0612  0.4710  2.3468
 6992SOL    MW427736   4.060   4.845   0.888 -0.0740 -0.1555  0.9594
 6993SOL     OW27737   0.759   4.102   2.252  0.3884  0.3089 -0.6139
 6993SOL    HW227738   0.698   4.176   2.248  0.0013 -0.0439 -1.8807
 6993SOL    HW327739   0.710   4.029   2.215  0.5705 -0.7501  1.1471
 6993SOL    MW427740   0.745   4.103   2.246  0.3613  0.1227 -0.5487
 6994SOL     OW27741   0.968   1.951   4.073  0.7178  0.7084 -1.0732
 6994SOL    HW227742   0.960   1.858   4.096 -0.2816  1.2685  1.1450
 6994SOL    HW327743   0.907   1.963   4.000  0.6931 -0.3329 -1.2403
 6994SOL    MW427744   0.959   1.940   4.066  0.5827  0.6449 -0.8025
 6995SOL     OW27745   6.004   4.943   3.199  0.1646 -0.2028 -0.6165
 6995SOL    HW227746   5.950   4.916   3.274 -0.2456 -1.8886 -1.4783
 6995SOL    HW327747   5.976   5.033   3.182  0.8263  0.5168  1.7097
 6995SOL    MW427748   5.993   4.952   3.207  0.1978 -0.3303 -0.4233
 6996SOL     OW27749   3.297   5.214   2.634 -0.2502 -0.6667  0.1183
 6996SOL    HW227750   3.308   5.148   2.702 -2.2003 -3.1696 -1.8316
 6996SOL    HW327751   3.235   5.277   2.672 -1.6346 -2.2401  0.5921
 6996SOL    MW427752   3.290   5.214   2.648 -0.6901 -1.2046 -0.0764
 6997SOL     OW27753   3.752   6.345   2.146  0.5549  0.1090 -0.3201
 6997SOL    HW227754   3.747   6.272   2.209  0.4901  0.1394 -0.2900
 6997SOL    HW327755   3.661   6.358   2.118  0.3116  1.2612  0.9136
 6997SOL    MW427756   3.739   6.337   2.151  0.5142  0.2651 -0.1533
 6998SOL     OW27757   3.908   6.395   4.384 -0.2757 -0.0245 -0.0235
 6998SOL    HW227758   3.858   6.474   4.367  0.2274 -0.0733 -2.1215
 6998SOL    HW327759   3.985   6.403   4.328  0.4537 -1.3943  0.7159
 6998SOL    MW427760   3.912   6.406   4.374 -0.1130 -0.2116 -0.2028
 6999SOL     OW27761   0.308   0.359   2.949 -0.2066  0.1524 -0.6950
 6999SOL    HW227762   0.348   0.391   2.868  0.8778 -1.2351 -0.7479
 6999SOL    HW327763   0.371   0.381   3.017 -0.2052 -0.3929 -0.5128
 6999SOL    MW427764   0.322   0.366   2.947 -0.0634 -0.1026 -0.6779
 7000SOL     OW27765   1.687   1.819   6.285 -0.3298 -0.0166  0.1539
 7000SOL    HW227766   1.714   1.859   6.203 -2.1971  2.4320  0.6301
 7000SOL    HW327767   1.769   1.808   6.334  0.6879 -0.5891 -1.5815
 7000SOL    MW427768   1.702   1.822   6.281 -0.4419  0.2309 -0.0122
 7001SOL     OW27769   0.268   6.230   1.388  0.1986  0.1577  0.0566
 7001SOL    HW227770   0.325   6.258   1.316 -0.3968  2.8015  0.5004
 7001SOL    HW327771   0.256   6.136   1.374 -0.4326  0.6442 -3.6757
 7001SOL    MW427772   0.274   6.222   1.377  0.0368  0.5707 -0.3773
 7002SOL     OW27773   1.127   5.565   1.517  0.3001  0.3769 -0.1140
 7002SOL    HW227774   1.148   5.656   1.540 -0.2857  0.7165 -0.8647
 7002SOL    HW327775   1.078   5.572   1.435  0.6135 -0.6546 -0.4018
 7002SOL    MW427776   1.123   5.578   1.510  0.2642  0.2856 -0.2510
 7003SOL     OW27777   2.591   5.147   5.366 -0.6895  0.5014  0.5858
 7003SOL    HW227778   2.584   5.168   5.459 -1.7754  3.3642 -0.0319
 7003SOL    HW327779   2.682   5.167   5.344 -0.0826 -1.3649  1.2173
 7003SOL    MW427780   2.602   5.152   5.375 -0.7527  0.6328  0.5876
 7004SOL     OW27781   4.863   0.322   0.187 -0.2831 -0.0675 -0.0269
 7004SOL    HW227782   4.904   0.389   0.242  1.8906 -0.3999 -1.1174
 7004SOL    HW327783   4.776   0.310   0.224  0.0989  1.7057  1.5940
 7004SOL    MW427784   4.857   0.329   0.199  0.0541  0.1226  0.0431
 7005SOL     OW27785   1.585   4.731   1.271 -0.4032 -0.2068 -0.5956
 7005SOL    HW227786   1.505   4.782   1.266  0.8531  1.9155 -0.4106
 7005SOL    HW327787   1.588   4.682   1.189 -1.1419  0.9025 -1.3129
 7005SOL    MW427788   1.575   4.731   1.259 -0.3349  0.2195 -0.6658
 7006SOL     OW27789   3.365   6.215   6.117  0.0546  0.4383  0.4040
 7006SOL    HW227790   3.456   6.244   6.121  1.1925 -2.0893 -2.7339
 7006SOL    HW327791   3.367   6.125   6.148 -1.7030  0.7512  1.5803
 7006SOL    MW427792   3.377   6.207   6.122 -0.0272  0.1461  0.1452
 7007SOL     OW27793   3.094   2.015   0.528 -0.2119 -0.5725 -0.1405
 7007SOL    HW227794   3.180   2.046   0.557 -0.7828  2.3302 -1.1924
 7007SOL    HW327795   3.067   1.952   0.595  1.2708  1.0248  2.1016
 7007SOL    MW427796   3.101   2.011   0.541 -0.0916  0.0212  0.0166
 7008SOL     OW27797   5.901   1.350   4.449 -0.2066 -0.0503  0.0111
 7008SOL    HW227798   5.920   1.426   4.503 -0.0582  0.0023 -0.1157
 7008SOL    HW327799   5.970   1.288   4.468 -0.4198 -0.2183  0.2376
 7008SOL    MW427800   5.912   1.352   4.458 -0.2151 -0.0655  0.0242
 7009SOL     OW27801   3.228   0.496   4.976  0.3120 -0.5047 -0.4390
 7009SOL    HW227802   3.267   0.417   5.012  1.8373  0.6911  0.6875
 7009SOL    HW327803   3.279   0.568   5.013 -0.3655  0.9913 -2.1944
 7009SOL    MW427804   3.240   0.495   4.985  0.4238 -0.1496 -0.5219
 7010SOL     OW27805   1.654   5.216   2.543  0.0596  0.2225  0.0155
 7010SOL    HW227806   1.661   5.302   2.585  0.9038  0.0924  0.1460
 7010SOL    HW327807   1.739   5.202   2.503 -0.5308  0.0648 -1.2285
 7010SOL    MW427808   1.666   5.226   2.544  0.0931  0.1845 -0.1314
 7011SOL     OW27809   0.371   4.091   0.514  0.3740  0.3511 -0.0908
 7011SOL    HW227810   0.344   4.115   0.603 -0.9450  0.2597 -0.4488
 7011SOL    HW327811   0.462   4.062   0.524  0.2323  0.2829  1.2381
 7011SOL    MW427812   0.380   4.090   0.527  0.1813  0.3300  0.0373
 7012SOL     OW27813   3.286   1.734   3.010 -0.3442  0.4335 -0.2826
 7012SOL    HW227814   3.210   1.733   3.068  0.2738 -0.7708  0.5435
 7012SOL    HW327815   3.358   1.765   3.065  0.3636 -1.2177 -0.2386
 7012SOL    MW427816   3.285   1.738   3.025 -0.1693  0.0568 -0.1678
 7013SOL     OW27817   1.784   4.881   3.353  0.0493  0.4782 -0.4808
 7013SOL    HW227818   1.826   4.966   3.341  0.3142  0.6210  1.1740
 7013SOL    HW327819   1.693   4.902   3.373 -0.2298  0.2865 -1.4976
 7013SOL    MW427820   1.778   4.895   3.354  0.0474  0.4718 -0.3966
 7014SOL     OW27821   0.479   1.677   2.087  0.0915 -0.2564  0.0331
 7014SOL    HW227822   0.413   1.626   2.040 -1.5358  0.9276  0.9000
 7014SOL    HW327823   0.542   1.703   2.020 -1.3855  0.1807 -1.2473
 7014SOL    MW427824   0.479   1.674   2.072 -0.3181 -0.0425 -0.0215
 7015SOL     OW27825   5.693   2.726   1.880  1.1338 -0.1668  0.7937
 7015SOL    HW227826   5.750   2.667   1.831  0.0598 -1.7434  1.3646
 7015SOL    HW327827   5.651   2.670   1.945 -1.5470  0.7787  0.0089
 7015SOL    MW427828   5.695   2.710   1.882  0.6384 -0.2501  0.7655
 7016SOL     OW27829   4.450   0.401   1.501 -0.2825 -0.0495 -0.6996
 7016SOL    HW227830   4.541   0.379   1.486  0.3775  0.2670  2.1530
 7016SOL    HW327831   4.409   0.318   1.527 -0.6055 -0.0374 -1.1599
 7016SOL    MW427832   4.456   0.387   1.503 -0.2380 -0.0061 -0.3839
 7017SOL     OW27833   0.836   0.713   5.364  0.1352 -0.8099  0.3231
 7017SOL    HW227834   0.783   0.646   5.408 -0.0392 -1.3091 -0.6063
 7017SOL    HW327835   0.790   0.727   5.281  0.2617  0.3604  0.4449
 7017SOL    MW427836   0.823   0.706   5.359  0.1289 -0.7214  0.2165
 7018SOL     OW27837   2.694   5.682   5.307 -0.3488  0.5238  0.3272
 7018SOL    HW227838   2.788   5.699   5.315  0.0011 -1.5353  1.3243
 7018SOL    HW327839   2.652   5.757   5.349  0.7886  1.9396 -0.9734
 7018SOL    MW427840   2.701   5.694   5.314 -0.1526  0.4389  0.2871
 7019SOL     OW27841   6.355   1.773   5.301 -0.0138  0.0674  0.2998
 7019SOL    HW227842   6.422   1.799   5.239 -0.2298  2.8201  1.1016
 7019SOL    HW327843   6.345   1.848   5.359 -2.3420 -1.0371  1.4788
 7019SOL    MW427844   6.362   1.786   5.301 -0.3494  0.2849  0.5611
 7020SOL     OW27845   5.456   4.706   3.729 -0.3143  0.0717  0.2688
 7020SOL    HW227846   5.449   4.655   3.649  2.0771  0.9500 -0.5841
 7020SOL    HW327847   5.503   4.649   3.790  1.9369  0.9702 -0.5289
 7020SOL    MW427848   5.461   4.692   3.727  0.2982  0.3061  0.0510
 7021SOL     OW27849   2.764   0.586   0.347  0.2493 -0.3065 -0.0747
 7021SOL    HW227850   2.677   0.602   0.384  0.2819 -2.3598  1.0566
 7021SOL    HW327851   2.785   0.496   0.374  2.4078 -0.1263 -0.9708
 7021SOL    MW427852   2.755   0.576   0.355  0.5384 -0.5536 -0.0436
 7022SOL     OW27853   0.969   0.812   3.065 -0.1150 -1.1456 -0.1366
 7022SOL    HW227854   1.062   0.834   3.051 -0.2533  0.6456  1.4416
 7022SOL    HW327855   0.969   0.716   3.073  1.6277 -1.1744  0.0525
 7022SOL    MW427856   0.982   0.802   3.064  0.0967 -0.9131  0.0966
 7023SOL     OW27857   3.479   6.234   4.180 -0.4582  0.3112  0.1278
 7023SOL    HW227858   3.547   6.287   4.139  1.0394 -1.2996  0.4017
 7023SOL    HW327859   3.460   6.279   4.262  1.2752  0.1020  0.6827
 7023SOL    MW427860   3.486   6.247   4.185 -0.0319  0.0711  0.2372
 7024SOL     OW27861   5.194   2.941   1.818  0.6999  0.4842 -0.0210
 7024SOL    HW227862   5.267   2.994   1.850  1.0587 -0.5068  0.8756
 7024SOL    HW327863   5.162   2.895   1.895 -1.7899  1.8885 -0.0957
 7024SOL    MW427864   5.200   2.942   1.832  0.4187  0.5387  0.0875
 7025SOL     OW27865   5.105   4.208   6.258  0.4323 -0.0716  0.3461
 7025SOL    HW227866   5.055   4.240   6.333  1.7672  3.1054  0.0080
 7025SOL    HW327867   5.050   4.228   6.182  0.1590 -1.0321  0.2767
 7025SOL    MW427868   5.091   4.215   6.258  0.5724  0.2208  0.2923
 7026SOL     OW27869   2.971   5.803   4.963  0.5154  0.5852  0.0989
 7026SOL    HW227870   2.920   5.775   4.888 -1.6744  0.6905  1.4450
 7026SOL    HW327871   2.955   5.898   4.969 -3.1123  0.0226  3.1370
 7026SOL    MW427872   2.962   5.812   4.954 -0.2522  0.5249  0.6774
 7027SOL     OW27873   0.079   4.172   3.245  0.5360 -0.5957 -0.3933
 7027SOL    HW227874   0.165   4.150   3.281  1.0233  1.6545 -0.0843
 7027SOL    HW327875   0.034   4.218   3.316  0.5632  1.6577 -1.7501
 7027SOL    MW427876   0.084   4.175   3.259  0.6039 -0.0015 -0.5315
 7028SOL     OW27877   5.122   2.815   4.961  0.3208  0.0171  0.4925
 7028SOL    HW227878   5.051   2.786   5.018  0.8577 -0.4912  0.9112
 7028SOL    HW327879   5.131   2.745   4.896 -0.7393  0.8960 -0.6606
 7028SOL    MW427880   5.114   2.802   4.960  0.2518  0.0660  0.3956
 7029SOL     OW27881   5.664   4.284   4.108 -0.6114  0.2926  0.3005
 7029SOL    HW227882   5.731   4.217   4.093  0.1894  0.9768  0.7431
 7029SOL    HW327883   5.581   4.236   4.107 -0.0479 -0.7133  0.6285
 7029SOL    MW427884   5.661   4.269   4.106 -0.4314  0.2501  0.4022
 7030SOL     OW27885   3.341   2.784   1.942 -0.6618 -0.6692 -0.6215
 7030SOL    HW227886   3.378   2.804   1.857 -0.8409  0.2776 -0.4816
 7030SOL    HW327887   3.297   2.864   1.970  1.2263 -0.2044  1.3237
 7030SOL    MW427888   3.340   2.797   1.935 -0.4363 -0.4830 -0.3464
 7031SOL     OW27889   0.351   4.675   6.118  0.3028 -0.0195  0.0454
 7031SOL    HW227890   0.375   4.713   6.203  2.2190 -2.1404  0.5426
 7031SOL    HW327891   0.417   4.710   6.057 -0.3784  0.5902 -0.3606
 7031SOL    MW427892   0.363   4.685   6.121  0.4658 -0.2189  0.0574
 7032SOL     OW27893   6.355   0.024   4.546  0.1693 -0.1001  0.1779
 7032SOL    HW227894   6.283  -0.033   4.518 -0.2817  0.4536  0.1946
 7032SOL    HW327895   6.335   0.109   4.507  1.6583 -0.3212 -1.1480
 7032SOL    MW427896   6.343   0.027   4.538  0.3063 -0.0562  0.0052
 7033SOL     OW27897   3.141   3.167   1.073 -0.0159 -0.1360  0.4659
 7033SOL    HW227898   3.216   3.227   1.070 -0.5729  0.5421 -0.6981
 7033SOL    HW327899   3.177   3.082   1.046  0.3117  0.2192 -0.2527
 7033SOL    MW427900   3.156   3.164   1.069 -0.0462  0.0003  0.2175
 7034SOL     OW27901   5.357   5.891   0.849  0.1100 -0.0810 -0.6233
 7034SOL    HW227902   5.416   5.921   0.918  1.8518 -0.6682 -1.7983
 7034SOL    HW327903   5.377   5.798   0.840 -0.3095 -0.0739 -1.7243
 7034SOL    MW427904   5.367   5.882   0.857  0.2844 -0.1575 -0.9236
 7035SOL     OW27905   2.463   3.794   4.873 -0.1274 -0.2797  0.4500
 7035SOL    HW227906   2.461   3.698   4.868  2.9368 -0.4455  0.4145
 7035SOL    HW327907   2.549   3.814   4.910  0.8912  2.5331 -2.8987
 7035SOL    MW427908   2.474   3.784   4.878  0.4112  0.0695  0.0035
 7036SOL     OW27909   4.194   4.154   3.612 -0.0414 -0.4477 -0.2849
 7036SOL    HW227910   4.121   4.212   3.589  0.9456 -0.3662 -3.6167
 7036SOL    HW327911   4.261   4.212   3.648 -1.4837 -0.5246  2.8222
 7036SOL    MW427912   4.193   4.169   3.614 -0.1015 -0.4471 -0.3145
 7037SOL     OW27913   5.724   0.946   4.421  0.0882 -0.5985  0.2867
 7037SOL    HW227914   5.814   0.914   4.416 -0.0742 -0.9673 -0.2853
 7037SOL    HW327915   5.672   0.882   4.372 -0.5241 -0.5137  0.8083
 7037SOL    MW427916   5.729   0.933   4.414 -0.0140 -0.6360  0.2801
 7038SOL     OW27917   2.469   4.052   2.930 -0.0018 -0.2410 -0.1378
 7038SOL    HW227918   2.445   4.100   3.009 -0.5863 -0.5531 -0.1170
 7038SOL    HW327919   2.394   3.994   2.914  0.8828 -1.4672  0.0927
 7038SOL    MW427920   2.456   4.051   2.938  0.0378 -0.4440 -0.1046
 7039SOL     OW27921   2.294   1.856   1.661  0.0204 -0.2895 -0.4448
 7039SOL    HW227922   2.367   1.836   1.721 -0.0864 -0.7074 -0.4488
 7039SOL    HW327923   2.217   1.856   1.717  0.0418  0.3069 -0.4151
 7039SOL    MW427924   2.294   1.853   1.676  0.0092 -0.2659 -0.4414
 7040SOL     OW27925   1.228   1.624   2.731 -0.4083  0.1849  0.8039
 7040SOL    HW227926   1.260   1.615   2.641 -0.6335  0.7812  0.6597
 7040SOL    HW327927   1.306   1.645   2.782 -0.1796 -0.7299  0.8530
 7040SOL    MW427928   1.243   1.626   2.726 -0.4078  0.1429  0.7913
 7041SOL     OW27929   3.287   4.791   3.550  0.5075  0.2837 -0.2072
 7041SOL    HW227930   3.357   4.788   3.615 -0.6643 -0.3031  1.0618
 7041SOL    HW327931   3.229   4.719   3.574 -1.4084  1.7652 -0.2010
 7041SOL    MW427932   3.289   4.781   3.562  0.1002  0.4018 -0.0390
 7042SOL     OW27933   4.751   3.279   0.949 -0.0006  0.4071 -0.1663
 7042SOL    HW227934   4.728   3.188   0.964 -1.1183  1.0506  2.6265
 7042SOL    HW327935   4.676   3.316   0.903 -1.0209  0.5918  1.5622
 7042SOL    MW427936   4.738   3.272   0.945 -0.2827  0.5164  0.4302
 7043SOL     OW27937   0.127   3.697   5.656  0.0559 -0.6707 -0.1323
 7043SOL    HW227938   0.206   3.748   5.676  0.4036 -1.6978  1.2848
 7043SOL    HW327939   0.086   3.683   5.741 -1.1705 -0.9612 -0.7508
 7043SOL    MW427940   0.132   3.702   5.670 -0.0601 -0.8445 -0.0270
 7044SOL     OW27941   0.282   0.339   0.289 -0.0076  0.3632  0.1473
 7044SOL    HW227942   0.211   0.401   0.277  0.2367  0.9527  1.5651
 7044SOL    HW327943   0.239   0.253   0.293 -0.6407  0.7080  0.9501
 7044SOL    MW427944   0.267   0.336   0.288 -0.0589  0.4864  0.4403
 7045SOL     OW27945   5.580   5.058   5.107 -0.1460 -0.4437 -0.4141
 7045SOL    HW227946   5.555   5.063   5.199  0.3238 -0.8763 -0.2605
 7045SOL    HW327947   5.566   5.147   5.074  0.9667  0.0640  0.4111
 7045SOL    MW427948   5.574   5.071   5.115  0.0627 -0.4338 -0.2850
 7046SOL     OW27949   0.446   3.657   4.822  0.4524  0.5715  0.2757
 7046SOL    HW227950   0.533   3.624   4.842 -0.4851 -2.4148 -0.1018
 7046SOL    HW327951   0.461   3.733   4.767  2.8714 -1.1745 -1.6956
 7046SOL    MW427952   0.459   3.663   4.817  0.6479 -0.0529 -0.0342
 7047SOL     OW27953   4.244   3.138   6.078 -0.0218  0.1931  0.5114
 7047SOL    HW227954   4.252   3.233   6.077 -0.2879  0.2150 -0.3272
 7047SOL    HW327955   4.183   3.118   6.006 -1.5331 -0.4800  1.9186
 7047SOL    MW427956   4.237   3.148   6.068 -0.2563  0.1072  0.5864
 7048SOL     OW27957   3.367   0.065   0.203  0.6336  0.0111 -0.5312
 7048SOL    HW227958   3.304   0.124   0.246  1.7205 -0.2050  1.4616
 7048SOL    HW327959   3.315   0.020   0.136 -1.1241  0.5293  0.4075
 7048SOL    MW427960   3.352   0.067   0.200  0.5451  0.0510 -0.1444
 7049SOL     OW27961   4.886   5.483   1.637  0.0958  0.3760 -0.4919
 7049SOL    HW227962   4.878   5.465   1.731 -0.1820  0.5210 -0.4880
 7049SOL    HW327963   4.797   5.506   1.609  0.2148  0.5239 -0.7515
 7049SOL    MW427964   4.873   5.483   1.646  0.0748  0.4147 -0.5256
 7050SOL     OW27965   0.061   0.783   3.467  0.1207  0.0694  0.3672
 7050SOL    HW227966   0.027   0.713   3.411  0.6287 -0.5501  0.8253
 7050SOL    HW327967   0.135   0.744   3.513 -0.2736  0.5790  1.4677
 7050SOL    MW427968   0.066   0.769   3.465  0.1357  0.0549  0.5728
 7051SOL     OW27969   5.495   1.761   2.050  0.3720 -0.3104 -0.1380
 7051SOL    HW227970   5.572   1.709   2.073 -0.0422 -1.1929 -0.7153
 7051SOL    HW327971   5.464   1.796   2.134 -0.7621 -2.9680  0.6567
 7051SOL    MW427972   5.501   1.759   2.064  0.1677 -0.7775 -0.1093
 7052SOL     OW27973   4.143   2.981   2.729 -0.0302 -0.1242  0.5921
 7052SOL    HW227974   4.194   2.947   2.655 -2.7044 -1.6721 -0.7096
 7052SOL    HW327975   4.190   2.952   2.807  2.0978  0.2959 -0.4565
 7052SOL    MW427976   4.156   2.973   2.729 -0.1023 -0.2730  0.2820
 7053SOL     OW27977   5.614   6.124   3.628  0.1348  0.4892 -0.0239
 7053SOL    HW227978   5.638   6.213   3.602  0.9128  0.5390  0.8180
 7053SOL    HW327979   5.696   6.084   3.657 -0.5572  0.1919  1.6051
 7053SOL    MW427980   5.628   6.130   3.628  0.1462  0.4566  0.3021
 7054SOL     OW27981   2.482   1.502   5.775  0.2110  0.1337  0.0015
 7054SOL    HW227982   2.473   1.558   5.852 -0.3760  1.2366 -0.8435
 7054SOL    HW327983   2.404   1.447   5.777  1.5726 -1.9459  1.7614
 7054SOL    MW427984   2.471   1.502   5.786  0.3132  0.0048  0.1222
 7055SOL     OW27985   1.686   2.145   5.371 -0.0562  0.3079  0.0012
 7055SOL    HW227986   1.697   2.075   5.435  2.8154  1.0737  0.4426
 7055SOL    HW327987   1.624   2.205   5.412 -3.3911 -2.2707 -0.7850
 7055SOL    MW427988   1.679   2.143   5.385 -0.1173  0.0687 -0.0443
 7056SOL     OW27989   6.356   5.465   1.580 -0.7757 -0.0199  0.4257
 7056SOL    HW227990   6.271   5.422   1.591 -0.4965 -0.2020  2.2132
 7056SOL    HW327991   6.342   5.555   1.609 -0.1114 -0.3627  1.9024
 7056SOL    MW427992   6.343   5.471   1.585 -0.6512 -0.0892  0.8564
 7057SOL     OW27993   4.978   5.394   5.428 -0.1107 -0.3792 -0.0513
 7057SOL    HW227994   5.055   5.446   5.449  0.0579  0.1529 -1.8164
 7057SOL    HW327995   4.919   5.455   5.384 -1.1885 -0.9950  0.4720
 7057SOL    MW427996   4.980   5.409   5.425 -0.2307 -0.3903 -0.2152
 7058SOL     OW27997   1.074   4.303   6.052 -0.0906 -0.3121 -0.0000
 7058SOL    HW227998   1.166   4.305   6.081 -0.1938 -0.9815  0.4025
 7058SOL    HW327999   1.034   4.234   6.105 -0.9729  0.3577  0.2431
 7058SOL    MW428000   1.081   4.294   6.063 -0.2206 -0.3120  0.0852
 7059SOL     OW28001   1.883   5.150   2.413 -0.0372  0.6878  0.2193
 7059SOL    HW228002   1.965   5.180   2.374 -0.9822  1.7250 -1.0826
 7059SOL    HW328003   1.910   5.091   2.483  1.8316  1.5373  0.2884
 7059SOL    MW428004   1.897   5.146   2.417  0.0847  0.9367  0.0567
 7060SOL     OW28005   0.268   6.027   4.721 -0.0490 -0.0140 -0.3573
 7060SOL    HW228006   0.194   6.088   4.725 -0.2122 -0.2702  0.8884
 7060SOL    HW328007   0.326   6.056   4.791  1.0118  0.1368 -1.2766
 7060SOL    MW428008   0.266   6.039   4.731  0.0695 -0.0279 -0.3142
 7061SOL     OW28009   5.697   3.550   5.597  0.2547 -0.0671 -0.0741
 7061SOL    HW228010   5.727   3.481   5.537 -2.2300 -1.8736  0.5837
 7061SOL    HW328011   5.611   3.520   5.626  0.5220  1.7113  2.9050
 7061SOL    MW428012   5.690   3.537   5.593 -0.0378 -0.0708  0.4057
 7062SOL     OW28013   3.805   5.822   1.544  0.1942  0.1775 -0.1132
 7062SOL    HW228014   3.795   5.914   1.570  0.1337  0.2184 -0.2777
 7062SOL    HW328015   3.753   5.815   1.463  0.7021  0.1489 -0.4384
 7062SOL    MW428016   3.797   5.833   1.537  0.2533  0.1791 -0.1778
 7063SOL     OW28017   1.414   0.510   3.535 -0.4051 -0.3504 -0.3645
 7063SOL    HW228018   1.393   0.481   3.624 -0.3101  0.6254 -0.0095
 7063SOL    HW328019   1.369   0.448   3.478  1.3440 -2.3304  0.3242
 7063SOL    MW428020   1.405   0.498   3.539 -0.1618 -0.4829 -0.2268
 7064SOL     OW28021   2.609   4.820   5.198  0.0348  0.3027 -0.1967
 7064SOL    HW228022   2.685   4.878   5.197 -0.6376  1.2058 -1.0772
 7064SOL    HW328023   2.561   4.843   5.277  0.9372 -0.6555  0.6592
 7064SOL    MW428024   2.613   4.831   5.208  0.0651  0.2954 -0.1999
 7065SOL     OW28025   3.967   4.272   6.320 -0.0913 -0.3837  0.3697
 7065SOL    HW228026   4.051   4.259   6.275 -0.4153  0.5880 -0.5567
 7065SOL    HW328027   3.973   4.361   6.355 -0.6963 -0.3590  0.4066
 7065SOL    MW428028   3.979   4.282   6.319 -0.2139 -0.2522  0.2524
 7066SOL     OW28029   3.379   0.399   6.376 -0.0175  0.6018 -0.2526
 7066SOL    HW228030   3.295   0.441   6.360  0.7595  1.5628 -2.1520
 7066SOL    HW328031   3.392   0.407   6.470 -2.4421 -0.4183  0.2440
 7066SOL    MW428032   3.370   0.406   6.386 -0.2349  0.5940 -0.4377
 7067SOL     OW28033   3.991   1.695   0.734  0.3865  0.4499  0.0185
 7067SOL    HW228034   4.079   1.661   0.749  0.0292 -0.8574 -0.7051
 7067SOL    HW328035   3.938   1.656   0.803  0.3789  1.3605  0.5497
 7067SOL    MW428036   3.996   1.686   0.745  0.3383  0.3976 -0.0069
 7068SOL     OW28037   2.805   5.433   4.112 -0.6098  0.3297  0.2927
 7068SOL    HW228038   2.829   5.415   4.021  0.8466  2.2410  0.2285
 7068SOL    HW328039   2.759   5.355   4.141  1.9280 -1.8044 -1.0200
 7068SOL    MW428040   2.802   5.420   4.104 -0.0828  0.3003  0.1110
 7069SOL     OW28041   3.944   3.057   3.008  0.0777 -0.0053 -0.0379
 7069SOL    HW228042   4.023   3.050   3.061  0.0391 -0.2113 -0.0054
 7069SOL    HW328043   3.965   3.122   2.941  0.3946 -0.3198 -0.2459
 7069SOL    MW428044   3.957   3.065   3.006  0.1144 -0.0740 -0.0610
 7070SOL     OW28045   1.038   4.726   0.540  0.6363 -0.3684 -0.5960
 7070SOL    HW228046   1.068   4.670   0.468  1.9599 -0.8350  0.2716
 7070SOL    HW328047   1.087   4.695   0.616 -2.0862 -1.1655  0.9779
 7070SOL    MW428048   1.048   4.714   0.541  0.4517 -0.5351 -0.2739
 7071SOL     OW28049   1.266   1.495   3.674 -0.0779  0.3263  0.3507
 7071SOL    HW228050   1.190   1.453   3.633  0.7508 -0.3287 -0.5668
 7071SOL    HW328051   1.317   1.422   3.710  0.0142  0.7784  1.1477
 7071SOL    MW428052   1.263   1.479   3.674  0.0436  0.2996  0.3348
 7072SOL     OW28053   5.022   0.034   0.185  0.1077  0.6471 -0.4011
 7072SOL    HW228054   4.970  -0.035   0.144 -0.4154  0.7153  0.1234
 7072SOL    HW328055   4.985   0.115   0.150  0.2880  0.6793 -0.5170
 7072SOL    MW428056   5.010   0.036   0.175  0.0624  0.6604 -0.3472
 7073SOL     OW28057   2.641   6.354   3.689 -0.2691  0.2578 -0.3233
 7073SOL    HW228058   2.659   6.379   3.598 -0.0607 -0.4912 -0.4884
 7073SOL    HW328059   2.616   6.262   3.684 -1.4065  0.5303  0.2457
 7073SOL    MW428060   2.640   6.345   3.676 -0.3917  0.1949 -0.2700
 7074SOL     OW28061   0.215   1.247   4.500 -0.4320  0.1974  0.3533
 7074SOL    HW228062   0.221   1.323   4.558  0.6662  0.3161  0.1054
 7074SOL    HW328063   0.240   1.172   4.555 -0.4520  0.1671  0.3211
 7074SOL    MW428064   0.219   1.247   4.515 -0.2898  0.2091  0.3163
 7075SOL     OW28065   3.418   4.806   1.974 -0.0589  0.6697 -0.5168
 7075SOL    HW228066   3.369   4.812   1.892 -0.7267  2.5742 -0.0453
 7075SOL    HW328067   3.370   4.864   2.034  1.0205  0.1543  0.8971
 7075SOL    MW428068   3.405   4.815   1.971 -0.0046  0.8530 -0.2680
 7076SOL     OW28069   0.541   1.336   2.273 -0.1402 -0.1069  0.2360
 7076SOL    HW228070   0.612   1.287   2.231  0.7116  0.2483  1.2169
 7076SOL    HW328071   0.565   1.428   2.260 -1.2933  0.0732 -0.8576
 7076SOL    MW428072   0.554   1.342   2.266 -0.1800 -0.0363  0.2211
 7077SOL     OW28073   3.354   2.391   2.437  0.4484 -0.0140 -0.2539
 7077SOL    HW228074   3.391   2.408   2.351 -0.7775  0.2512 -0.7589
 7077SOL    HW328075   3.334   2.477   2.473  1.8172 -0.0712  0.7285
 7077SOL    MW428076   3.356   2.404   2.430  0.4672  0.0134 -0.1909
 7078SOL     OW28077   4.522   3.889   0.885 -0.8940  0.0918 -0.2066
 7078SOL    HW228078   4.486   3.931   0.963 -0.2893  0.9474 -0.3708
 7078SOL    HW328079   4.583   3.954   0.850  0.4332 -1.1189 -0.2011
 7078SOL    MW428080   4.525   3.903   0.891 -0.6391  0.0449 -0.2275
 7079SOL     OW28081   5.241   4.405   0.168  0.0831  0.2697  0.1577
 7079SOL    HW228082   5.225   4.494   0.199 -0.3112  0.1553  0.2873
 7079SOL    HW328083   5.155   4.371   0.146  0.3974  0.6287 -1.8530
 7079SOL    MW428084   5.228   4.412   0.169  0.0726  0.3020 -0.0905
 7080SOL     OW28085   2.525   2.610   3.518 -0.8389 -0.0288  0.1057
 7080SOL    HW228086   2.613   2.599   3.482  0.4453  1.1379  2.6273
 7080SOL    HW328087   2.494   2.693   3.482 -0.8427 -0.3577 -0.6560
 7080SOL    MW428088   2.532   2.619   3.509 -0.6700  0.0818  0.3379
 7081SOL     OW28089   5.243   5.522   5.679  0.2711 -0.3089 -0.0070
 7081SOL    HW228090   5.313   5.586   5.688 -0.0313 -0.2570  3.4710
 7081SOL    HW328091   5.288   5.438   5.669  0.7410  0.0219 -0.7293
 7081SOL    MW428092   5.258   5.519   5.679  0.2932 -0.2584  0.3566
 7082SOL     OW28093   4.504   4.701   5.734 -0.4271 -0.4315  0.5525
 7082SOL    HW228094   4.514   4.674   5.643 -1.1160 -1.2099  0.7029
 7082SOL    HW328095   4.447   4.778   5.730 -1.1538 -0.9711  0.3888
 7082SOL    MW428096   4.498   4.708   5.722 -0.6139 -0.6054  0.5507
 7083SOL     OW28097   3.508   3.290   6.322  0.2157 -0.0782 -0.0105
 7083SOL    HW228098   3.446   3.235   6.274  0.5302  0.3254 -0.8943
 7083SOL    HW328099   3.543   3.350   6.256  3.8377 -2.2247 -0.2853
 7083SOL    MW428100   3.504   3.291   6.307  0.7351 -0.3081 -0.1634
 7084SOL     OW28101   2.135   3.645   5.548 -0.5110  0.0343 -0.0237
 7084SOL    HW228102   2.159   3.737   5.561 -0.0783  0.0293 -0.7767
 7084SOL    HW328103   2.053   3.649   5.498 -0.4101  0.0007 -0.1889
 7084SOL    MW428104   2.127   3.658   5.543 -0.4406  0.0292 -0.1449
 7085SOL     OW28105   1.394   0.497   0.019  0.3731 -0.0433 -0.7106
 7085SOL    HW228106   1.396   0.421   0.077  0.1108  0.3718 -0.1464
 7085SOL    HW328107   1.434   0.467  -0.062 -1.0973 -1.2297 -1.0382
 7085SOL    MW428108   1.399   0.483   0.016  0.1445 -0.1450 -0.6794
 7086SOL     OW28109   3.205   2.713   4.966 -0.0313 -0.0012 -0.1137
 7086SOL    HW228110   3.150   2.772   5.018 -0.0418  0.7448 -0.9474
 7086SOL    HW328111   3.209   2.632   5.017 -0.3971  0.5668  0.8291
 7086SOL    MW428112   3.198   2.710   4.979 -0.0809  0.1722 -0.0993
 7087SOL     OW28113   5.705   4.986   1.941  0.6320  0.0104  0.1471
 7087SOL    HW228114   5.797   4.985   1.916 -0.2817  0.6876 -3.7768
 7087SOL    HW328115   5.700   5.053   2.010  2.7349  1.8677 -1.3610
 7087SOL    MW428116   5.717   4.995   1.947  0.7889  0.3448 -0.5696
 7088SOL     OW28117   4.466   2.624   4.619 -0.4133  0.1387  0.2009
 7088SOL    HW228118   4.518   2.626   4.700 -1.1191  1.0063  0.6519
 7088SOL    HW328119   4.378   2.646   4.647 -0.9711 -0.9676 -0.6139
 7088SOL    MW428120   4.461   2.627   4.633 -0.5800  0.1072  0.1529
 7089SOL     OW28121   6.235   0.505   0.514 -0.1890  0.5329  0.3198
 7089SOL    HW228122   6.327   0.504   0.541 -0.5976  1.7027  1.9001
 7089SOL    HW328123   6.199   0.584   0.555 -1.2661  1.6344 -2.5273
 7089SOL    MW428124   6.243   0.515   0.523 -0.3850  0.8326  0.1526
 7090SOL     OW28125   4.927   1.220   3.308 -0.8562 -0.2183 -0.0749
 7090SOL    HW228126   4.858   1.198   3.371 -1.6847 -0.7004 -1.1268
 7090SOL    HW328127   4.881   1.249   3.230  0.1086 -0.9205 -0.9460
 7090SOL    MW428128   4.912   1.221   3.306 -0.8382 -0.3745 -0.3286
 7091SOL     OW28129   4.175   2.584   2.984 -0.1625  0.2521 -0.4484
 7091SOL    HW228130   4.123   2.550   3.057 -0.2521  1.0952 -0.1067
 7091SOL    HW328131   4.120   2.571   2.907  0.4103 -1.7445 -0.5711
 7091SOL    MW428132   4.161   2.578   2.984 -0.0988  0.0999 -0.4195
 7092SOL     OW28133   0.181   4.510   2.986  0.4733  0.1218  0.5528
 7092SOL    HW228134   0.151   4.513   2.895  0.7109 -2.8943  0.2760
 7092SOL    HW328135   0.260   4.565   2.987 -1.2481  2.8236 -0.2148
 7092SOL    MW428136   0.187   4.518   2.974  0.2775  0.0803  0.4150
 7093SOL     OW28137   2.312   2.701   1.329 -0.3781 -0.2200 -0.3993
 7093SOL    HW228138   2.309   2.607   1.344  0.2543 -0.1706  0.1032
 7093SOL    HW328139   2.301   2.711   1.235 -0.0521 -0.8279 -0.5072
 7093SOL    MW428140   2.310   2.690   1.319 -0.2516 -0.2937 -0.3473
 7094SOL     OW28141   2.264   4.026   4.508  0.1588  0.1401  0.9562
 7094SOL    HW228142   2.350   4.034   4.467  0.1822  1.3128  1.2083
 7094SOL    HW328143   2.231   3.941   4.478  0.1524  0.9561 -1.5694
 7094SOL    MW428144   2.271   4.016   4.499  0.1610  0.4025  0.6563
 7095SOL     OW28145   5.667   4.440   6.370 -0.2588  0.6561 -0.1840
 7095SOL    HW228146   5.758   4.414   6.353 -0.1291  0.3435  0.9142
 7095SOL    HW328147   5.659   4.437   6.465 -1.8287 -0.7193 -0.3233
 7095SOL    MW428148   5.678   4.436   6.380 -0.4488  0.4334 -0.0575
 7096SOL     OW28149   4.669   3.139   5.406  0.8842 -0.1174 -0.3590
 7096SOL    HW228150   4.754   3.096   5.407  1.1640  0.4135  0.3817
 7096SOL    HW328151   4.689   3.230   5.384  0.3728 -0.2216 -1.3056
 7096SOL    MW428152   4.682   3.146   5.403  0.8537 -0.0611 -0.3862
 7097SOL     OW28153   0.271   5.196   4.063  0.0097  0.3848 -0.0355
 7097SOL    HW228154   0.353   5.227   4.024  0.8648 -1.0615  0.5246
 7097SOL    HW328155   0.263   5.247   4.144 -0.8156  2.0738 -1.1183
 7097SOL    MW428156   0.281   5.207   4.069  0.0136  0.4168 -0.1045
 7098SOL     OW28157   5.969   2.863   6.037 -0.8199 -0.2530 -0.1889
 7098SOL    HW228158   5.874   2.852   6.048 -1.0892 -0.2937 -2.2077
 7098SOL    HW328159   5.977   2.924   5.964  0.7391  1.3372  1.2116
 7098SOL    MW428160   5.957   2.870   6.029 -0.6498 -0.0486 -0.2705
 7099SOL     OW28161   0.676   2.911   1.488  0.1365 -0.5163 -0.4692
 7099SOL    HW228162   0.757   2.959   1.471 -0.5420  0.1926 -1.8521
 7099SOL    HW328163   0.700   2.819   1.474  0.5182 -0.2500 -1.7749
 7099SOL    MW428164   0.690   2.905   1.484  0.0973 -0.3876 -0.8239
 7100SOL     OW28165   3.472   1.850   5.767  0.4283 -0.6131 -0.6280
 7100SOL    HW228166   3.469   1.755   5.759 -0.2240 -0.5694 -0.9764
 7100SOL    HW328167   3.563   1.870   5.786  0.7219 -1.2441 -1.3560
 7100SOL    MW428168   3.483   1.840   5.769  0.3810 -0.6906 -0.7700
 7101SOL     OW28169   1.672   0.585   3.023 -0.3430  0.3836  0.2595
 7101SOL    HW228170   1.762   0.617   3.031 -0.1730 -0.4112  2.1639
 7101SOL    HW328171   1.620   0.663   3.004  0.7231  0.8646 -0.7924
 7101SOL    MW428172   1.677   0.599   3.022 -0.1799  0.3422  0.3720
 7102SOL     OW28173   6.047   2.234   4.393  0.8709 -0.0894 -0.2446
 7102SOL    HW228174   6.091   2.196   4.469 -0.4980 -1.2829 -0.0252
 7102SOL    HW328175   5.964   2.187   4.386 -1.0024  2.8885  0.0875
 7102SOL    MW428176   6.042   2.223   4.402  0.4432  0.1460 -0.1718
 7103SOL     OW28177   3.353   2.108   0.611  0.4524  0.6784 -0.5826
 7103SOL    HW228178   3.423   2.051   0.642 -0.3559  0.3702  0.7785
 7103SOL    HW328179   3.337   2.168   0.684 -0.8619  0.5863 -0.7687
 7103SOL    MW428180   3.360   2.109   0.625  0.1724  0.6256 -0.4276
 7104SOL     OW28181   4.296   4.297   1.174 -0.1041  0.2787 -0.0395
 7104SOL    HW228182   4.241   4.220   1.187 -0.5102  0.4385 -0.7790
 7104SOL    HW328183   4.360   4.292   1.245 -0.3032 -0.5822  0.0972
 7104SOL    MW428184   4.297   4.286   1.185 -0.1839  0.1862 -0.1190
 7105SOL     OW28185   3.821   2.797   5.058  0.5825 -0.2365  0.1761
 7105SOL    HW228186   3.761   2.851   5.006  0.9500 -0.2940 -0.3092
 7105SOL    HW328187   3.800   2.819   5.149  0.9662  0.9915 -0.0188
 7105SOL    MW428188   3.810   2.807   5.063  0.6816 -0.0820  0.0864
 7106SOL     OW28189   0.336   3.890   5.651 -0.5635  0.6151 -0.2882
 7106SOL    HW228190   0.417   3.843   5.630 -0.6767  0.5797 -0.6558
 7106SOL    HW328191   0.300   3.915   5.566 -0.4809  1.4178 -0.0937
 7106SOL    MW428192   0.342   3.887   5.637 -0.5676  0.7164 -0.3111
 7107SOL     OW28193   3.874   5.441   5.107 -0.2059 -0.2204  0.7049
 7107SOL    HW228194   3.837   5.497   5.175  0.9536 -0.6012  1.6949
 7107SOL    HW328195   3.944   5.393   5.151 -1.0609 -2.3611 -0.1288
 7107SOL    MW428196   3.878   5.442   5.122 -0.1657 -0.5531  0.7255
 7108SOL     OW28197   1.918   1.007   5.401 -0.2020  0.0123  0.7569
 7108SOL    HW228198   1.905   1.067   5.475 -1.8360 -0.3932  0.8226
 7108SOL    HW328199   1.942   0.924   5.442  0.9315  0.3025  0.7157
 7108SOL    MW428200   1.919   1.004   5.416 -0.2680 -0.0029  0.7601
 7109SOL     OW28201   0.052   6.206   4.697 -0.7140 -0.2688 -0.1053
 7109SOL    HW228202  -0.034   6.174   4.670 -1.1992 -0.1312  1.2252
 7109SOL    HW328203   0.076   6.268   4.628 -2.5325  1.1229  0.4161
 7109SOL    MW428204   0.044   6.210   4.684 -1.0179 -0.0670  0.1391
 7110SOL     OW28205   1.977   1.934   6.152 -0.0495 -0.5627  0.0753
 7110SOL    HW228206   2.049   1.996   6.166 -1.4469  1.3215 -0.6863
 7110SOL    HW328207   2.018   1.848   6.162  2.5468  0.3907 -1.2206
 7110SOL    MW428208   1.992   1.930   6.155  0.1087 -0.1883 -0.1962
 7111SOL     OW28209   4.183   5.908   3.585 -0.1770 -0.1549  0.4257
 7111SOL    HW228210   4.236   5.949   3.517  2.1506 -0.0739  2.1607
 7111SOL    HW328211   4.133   5.980   3.623 -0.0286  0.1431  0.0640
 7111SOL    MW428212   4.184   5.923   3.581  0.1497 -0.1049  0.6069
 7112SOL     OW28213   3.799   3.663   1.767  0.5983 -0.0249  0.4210
 7112SOL    HW228214   3.775   3.664   1.860  0.0674  1.7745  0.3144
 7112SOL    HW328215   3.877   3.719   1.763  2.1906 -2.1367  0.1015
 7112SOL    MW428216   3.806   3.671   1.779  0.7384 -0.0661  0.3648
 7113SOL     OW28217   5.238   5.586   4.370  0.3893 -1.0524 -0.0948
 7113SOL    HW228218   5.260   5.635   4.449 -0.4137 -1.3644  0.3251
 7113SOL    HW328219   5.185   5.647   4.318  0.0314 -1.2091  0.0844
 7113SOL    MW428220   5.234   5.601   4.373  0.2362 -1.1142 -0.0157
 7114SOL     OW28221   1.075   0.792   5.214 -0.3393 -0.0820 -0.1567
 7114SOL    HW228222   1.116   0.714   5.176 -0.5995 -0.5734  0.5503
 7114SOL    HW328223   1.005   0.757   5.269 -0.5209  0.6621  0.0916
 7114SOL    MW428224   1.071   0.777   5.216 -0.3976 -0.0487 -0.0307
 7115SOL     OW28225   2.281   4.716   0.828 -0.1378  0.7368 -0.2249
 7115SOL    HW228226   2.200   4.765   0.841 -1.5655 -1.6947  0.7245
 7115SOL    HW328227   2.263   4.659   0.754  0.5381 -0.1723  0.2955
 7115SOL    MW428228   2.268   4.715   0.820 -0.2370  0.2961 -0.0310
 7116SOL     OW28229   5.281   2.974   4.497  0.3539  0.2690 -0.4588
 7116SOL    HW228230   5.194   3.006   4.476  0.7031  0.5278 -1.5910
 7116SOL    HW328231   5.270   2.881   4.515  0.0162  0.0329 -1.8194
 7116SOL    MW428232   5.268   2.966   4.497  0.3554  0.2720 -0.7877
 7117SOL     OW28233   1.077   4.772   3.723  0.5441  0.4488  0.2068
 7117SOL    HW228234   1.151   4.823   3.691  0.4502  1.0057  0.8506
 7117SOL    HW328235   1.072   4.793   3.817 -0.8873  1.0031  0.0305
 7117SOL    MW428236   1.086   4.782   3.732  0.3429  0.5954  0.2685
 7118SOL     OW28237   4.605   0.790   0.536  0.9918  0.6075 -0.3849
 7118SOL    HW228238   4.650   0.873   0.525  2.1019 -0.1289 -1.7016
 7118SOL    HW328239   4.515   0.807   0.508  0.9208  1.6290  0.4494
 7118SOL    MW428240   4.599   0.803   0.530  1.1289  0.6452 -0.4486
 7119SOL     OW28241   2.215   5.161   3.315 -0.5488  0.1006 -0.4498
 7119SOL    HW228242   2.255   5.117   3.240  0.7794 -0.0216  0.3030
 7119SOL    HW328243   2.225   5.254   3.296  0.5057  0.0749 -0.0762
 7119SOL    MW428244   2.221   5.167   3.302 -0.2344  0.0811 -0.3012
 7120SOL     OW28245   3.661   6.132   2.308 -0.1753  0.3617 -0.9004
 7120SOL    HW228246   3.705   6.175   2.382  0.7503 -1.7685 -0.1256
 7120SOL    HW328247   3.691   6.041   2.312 -3.5591 -0.8913 -1.2379
 7120SOL    MW428248   3.671   6.125   2.318 -0.4997 -0.0847 -0.8427
 7121SOL     OW28249   5.376   4.085   1.586 -0.4248  0.3034  0.4348
 7121SOL    HW228250   5.366   4.012   1.647  0.2039  1.6439  2.2472
 7121SOL    HW328251   5.291   4.093   1.544 -0.8309 -0.7944  1.0120
 7121SOL    MW428252   5.364   4.076   1.589 -0.3954  0.3354  0.7501
 7122SOL     OW28253   1.505   0.241   5.669 -0.1473 -0.1853  0.5009
 7122SOL    HW228254   1.530   0.150   5.657 -0.6681 -0.1853 -0.7139
 7122SOL    HW328255   1.410   0.237   5.685 -0.5040  0.2282 -1.2760
 7122SOL    MW428256   1.496   0.228   5.670 -0.2631 -0.1308  0.1062
 7123SOL     OW28257   5.724   0.356   3.928  0.3141  0.3600  0.1005
 7123SOL    HW228258   5.731   0.425   3.994 -0.3951  2.5011 -1.9208
 7123SOL    HW328259   5.632   0.359   3.900  0.4385 -0.9680 -0.5384
 7123SOL    MW428260   5.713   0.365   3.933  0.2369  0.4673 -0.2504
 7124SOL     OW28261   0.760   4.953   2.399  0.9352 -0.8274  0.1218
 7124SOL    HW228262   0.752   4.891   2.471  0.0572 -1.0640 -0.1755
 7124SOL    HW328263   0.783   4.899   2.323  2.2413 -0.5355  0.2884
 7124SOL    MW428264   0.762   4.938   2.398  0.9917 -0.8201  0.1045
 7125SOL     OW28265   5.082   2.187   3.580 -0.1333  0.2399 -0.1182
 7125SOL    HW228266   5.102   2.110   3.526 -1.1180  0.7030 -1.1748
 7125SOL    HW328267   5.029   2.151   3.652  0.5027 -0.2641  0.1052
 7125SOL    MW428268   5.077   2.172   3.582 -0.1793  0.2345 -0.2282
 7126SOL     OW28269   2.698   4.353   0.850  0.5599 -0.0609 -0.1123
 7126SOL    HW228270   2.787   4.387   0.851  0.7366 -0.3762 -1.8784
 7126SOL    HW328271   2.644   4.427   0.881  1.1537  1.1886 -1.8723
 7126SOL    MW428272   2.703   4.367   0.854  0.6616  0.0624 -0.5775
 7127SOL     OW28273   4.218   5.338   2.076  0.2119  0.2690  0.0714
 7127SOL    HW228274   4.219   5.244   2.091 -1.2278  0.1300 -0.5629
 7127SOL    HW328275   4.129   5.365   2.099 -0.3068  0.9799 -2.5067
 7127SOL    MW428276   4.207   5.329   2.081 -0.0465  0.3444 -0.3525
 7128SOL     OW28277   2.956   0.932   3.145  0.1217 -0.5358 -0.3973
 7128SOL    HW228278   3.038   0.972   3.116  0.1684  0.4713  1.0449
 7128SOL    HW328279   2.897   0.944   3.071  1.2136 -1.1432 -1.4061
 7128SOL    MW428280   2.959   0.939   3.131  0.2720 -0.4831 -0.3401
 7129SOL     OW28281   4.965   4.784   5.614 -0.5466  0.1439  0.5348
 7129SOL    HW228282   5.022   4.741   5.549 -0.8330 -0.1893  0.5040
 7129SOL    HW328283   5.024   4.807   5.686 -0.6897 -2.0007  1.3981
 7129SOL    MW428284   4.981   4.781   5.615 -0.6033 -0.1830  0.6446
 7130SOL     OW28285   6.005   6.070   1.255 -0.5886 -0.7441 -0.0019
 7130SOL    HW228286   6.035   6.029   1.174 -1.8969 -1.5395 -0.1194
 7130SOL    HW328287   6.084   6.081   1.308  0.2374 -0.5079 -1.2542
 7130SOL    MW428288   6.019   6.066   1.251 -0.6522 -0.8179 -0.1826
 7131SOL     OW28289   0.023   0.022   1.795 -0.3103 -0.1746 -0.2611
 7131SOL    HW228290   0.062   0.024   1.707  0.2892 -0.7890 -0.0199
 7131SOL    HW328291  -0.040  -0.050   1.791 -1.8975  1.1779 -0.8225
 7131SOL    MW428292   0.020   0.013   1.783 -0.4406 -0.0772 -0.3034
 7132SOL     OW28293   1.086   2.146   3.080 -0.0107  0.5767  0.1863
 7132SOL    HW228294   1.112   2.055   3.070  0.1831  0.6285  0.2068
 7132SOL    HW328295   1.085   2.160   3.175 -2.2816 -0.0388  0.3073
 7132SOL    MW428296   1.090   2.136   3.091 -0.2847  0.5023  0.2049
 7133SOL     OW28297   2.620   0.632   4.562  0.4526 -0.0282  0.2766
 7133SOL    HW228298   2.554   0.602   4.499 -0.9136  0.4440  1.4414
 7133SOL    HW328299   2.687   0.675   4.508  0.9860 -2.4749 -1.1414
 7133SOL    MW428300   2.621   0.634   4.546  0.3427 -0.2887  0.2432
 7134SOL     OW28301   0.723   2.686   0.176 -0.0676 -0.0003 -0.2466
 7134SOL    HW228302   0.672   2.628   0.119  0.2651  0.1464 -0.6960
 7134SOL    HW328303   0.657   2.731   0.228 -0.2811 -2.3889  1.7382
 7134SOL    MW428304   0.707   2.684   0.175 -0.0519 -0.2961 -0.0440
 7135SOL     OW28305   3.885   5.638   3.623  0.1035  0.1591  0.1516
 7135SOL    HW228306   3.819   5.597   3.679  1.0875 -2.8062 -0.6965
 7135SOL    HW328307   3.838   5.656   3.541 -0.2253  0.3387  0.3757
 7135SOL    MW428308   3.870   5.635   3.620  0.1899 -0.2084  0.0693
 7136SOL     OW28309   1.399   0.307   0.227 -0.5648  0.0571 -0.8438
 7136SOL    HW228310   1.339   0.369   0.269  0.8771  0.8098  0.1800
 7136SOL    HW328311   1.468   0.294   0.291  1.6230  1.0536 -2.8624
 7136SOL    MW428312   1.400   0.314   0.241 -0.0859  0.2879 -0.9751
 7137SOL     OW28313   0.733   4.592   4.026  0.4886 -0.0081 -0.4233
 7137SOL    HW228314   0.648   4.594   4.069  0.1987 -1.3050 -0.8849
 7137SOL    HW328315   0.716   4.626   3.938  0.8535  1.5555  0.0807
 7137SOL    MW428316   0.719   4.597   4.020  0.4985  0.0271 -0.4177
 7138SOL     OW28317   3.718   0.962   2.810  0.2226 -0.0547  0.4509
 7138SOL    HW228318   3.704   0.901   2.883  0.1154 -1.0306 -0.3746
 7138SOL    HW328319   3.775   0.915   2.750  0.2916  0.7389 -0.1169
 7138SOL    MW428320   3.724   0.948   2.812  0.2176 -0.0787  0.2671
 7139SOL     OW28321   0.117   4.123   0.409  0.2335 -0.1142 -0.0462
 7139SOL    HW228322   0.077   4.207   0.431  0.0548  0.4120 -2.1581
 7139SOL    HW328323   0.204   4.125   0.450 -0.0839  0.7516  0.5909
 7139SOL    MW428324   0.123   4.134   0.417  0.1680  0.0695 -0.2408
 7140SOL     OW28325   1.452   1.029   4.624  0.2550  0.4094  0.1324
 7140SOL    HW228326   1.475   1.093   4.556 -1.4167  0.7094 -0.1757
 7140SOL    HW328327   1.439   1.082   4.703  1.1970  0.1665  0.4676
 7140SOL    MW428328   1.454   1.044   4.625  0.1587  0.4169  0.1359
 7141SOL     OW28329   2.202   3.332   1.677  0.3459  0.0329  0.4972
 7141SOL    HW228330   2.174   3.418   1.707 -0.6691  0.5520 -1.7367
 7141SOL    HW328331   2.206   3.279   1.757 -1.2967  1.5273  1.6449
 7141SOL    MW428332   2.199   3.336   1.692 -0.0047  0.2985  0.3539
 7142SOL     OW28333   4.661   6.260   1.864  0.5367  0.4259  0.1035
 7142SOL    HW228334   4.712   6.331   1.825  0.2558 -0.1878 -1.4500
 7142SOL    HW328335   4.573   6.296   1.873  0.0443 -0.1330 -2.0193
 7142SOL    MW428336   4.656   6.274   1.860  0.4347  0.2712 -0.3816
 7143SOL     OW28337   4.621   5.250   1.717  0.9280 -0.5554 -0.6702
 7143SOL    HW228338   4.605   5.193   1.642 -0.1805 -0.8926 -0.1977
 7143SOL    HW328339   4.536   5.259   1.759  0.4732  3.3281 -2.0026
 7143SOL    MW428340   4.608   5.243   1.713  0.7217 -0.0875 -0.7836
 7144SOL     OW28341   4.694   6.033   4.701 -0.0030  0.2882  0.1162
 7144SOL    HW228342   4.784   6.053   4.677  0.4308  0.0845  1.4937
 7144SOL    HW328343   4.644   6.045   4.620  1.5354 -1.5773 -1.2072
 7144SOL    MW428344   4.699   6.037   4.687  0.2572  0.0152  0.1234
 7145SOL     OW28345   2.551   5.015   4.388 -0.1582 -0.2160 -0.4443
 7145SOL    HW228346   2.575   5.073   4.316 -3.4509  0.6092 -1.0656
 7145SOL    HW328347   2.494   4.949   4.348  0.3034 -1.5203  0.9418
 7145SOL    MW428348   2.547   5.014   4.374 -0.5317 -0.2792 -0.3434
 7146SOL     OW28349   1.709   4.956   1.398  0.0306  0.1782 -0.7031
 7146SOL    HW228350   1.677   4.876   1.357  2.3509 -0.8363 -0.6749
 7146SOL    HW328351   1.738   5.011   1.325  0.5004  0.0598 -0.6029
 7146SOL    MW428352   1.708   4.953   1.383  0.3987  0.0287 -0.6862
 7147SOL     OW28353   1.454   6.373   4.575 -0.0475 -0.2843  0.2074
 7147SOL    HW228354   1.475   6.466   4.578 -0.8985 -0.1009  0.6250
 7147SOL    HW328355   1.468   6.348   4.484  1.8612 -0.1563  0.4309
 7147SOL    MW428356   1.459   6.382   4.563  0.0921 -0.2432  0.2920
 7148SOL     OW28357   2.007   3.663   0.930 -0.1324  0.1527  0.9387
 7148SOL    HW228358   1.991   3.636   0.839 -3.0266  1.5194  0.9456
 7148SOL    HW328359   2.000   3.582   0.980 -0.0571 -0.3829  0.1078
 7148SOL    MW428360   2.004   3.648   0.924 -0.5043  0.2623  0.8300
 7149SOL     OW28361   1.561   2.060   4.623  0.7529  0.0692 -0.1439
 7149SOL    HW228362   1.641   2.092   4.665  1.2024  0.0840 -0.9998
 7149SOL    HW328363   1.588   2.037   4.534 -0.2276  0.2078 -0.4854
 7149SOL    MW428364   1.575   2.061   4.617  0.6828  0.0895 -0.3019
 7150SOL     OW28365   4.318   3.909   0.243 -0.6690  0.2578  0.7297
 7150SOL    HW228366   4.283   3.821   0.228 -0.3445  0.3438 -0.6062
 7150SOL    HW328367   4.304   3.924   0.337  2.3035 -2.5687  1.8381
 7150SOL    MW428368   4.312   3.899   0.253 -0.2340 -0.1038  0.6997
 7151SOL     OW28369   2.430   6.303   0.082  0.1867  0.0640 -0.3586
 7151SOL    HW228370   2.503   6.360   0.057 -0.2098  0.6078 -0.3035
 7151SOL    HW328371   2.373   6.302   0.005 -1.8380  3.0026  0.9054
 7151SOL    MW428372   2.432   6.311   0.068 -0.1328  0.5234 -0.1846
 7152SOL     OW28373   3.294   2.570   1.748  0.4341 -0.1147  0.9322
 7152SOL    HW228374   3.292   2.633   1.820 -1.4774  2.4476 -1.1444
 7152SOL    HW328375   3.376   2.589   1.702  0.8298 -0.5512  1.4577
 7152SOL    MW428376   3.304   2.581   1.751  0.2341  0.1658  0.7275
 7153SOL     OW28377   3.292   2.880   0.795 -0.9192  0.4497 -0.7405
 7153SOL    HW228378   3.257   2.853   0.710 -2.6869  1.6976 -0.4633
 7153SOL    HW328379   3.370   2.826   0.807 -0.7823  0.0455 -3.0180
 7153SOL    MW428380   3.298   2.870   0.785 -1.1343  0.5610 -1.0044
 7154SOL     OW28381   4.155   0.611   2.570 -0.4669  0.6047  0.4082
 7154SOL    HW228382   4.099   0.595   2.646 -0.6822  3.9562  1.1242
 7154SOL    HW328383   4.122   0.693   2.533  2.2956  1.3268 -0.7038
 7154SOL    MW428384   4.143   0.620   2.575 -0.1308  1.1422  0.3560
 7155SOL     OW28385   1.863   3.429   0.410 -0.6764 -0.9553  0.2910
 7155SOL    HW228386   1.873   3.464   0.498  0.7296  1.6263 -0.7930
 7155SOL    HW328387   1.775   3.390   0.409 -1.5399  0.7721  2.2518
 7155SOL    MW428388   1.853   3.428   0.421 -0.6048 -0.3868  0.4067
 7156SOL     OW28389   0.444   0.594   1.607 -0.0476 -0.6213 -0.5007
 7156SOL    HW228390   0.453   0.500   1.623  0.0112 -0.4210  0.7532
 7156SOL    HW328391   0.349   0.609   1.608 -0.1758 -0.9996 -2.9127
 7156SOL    MW428392   0.433   0.584   1.610 -0.0568 -0.6448 -0.6535
 7157SOL     OW28393   0.747   0.402   5.840 -0.2659  0.4807  0.8425
 7157SOL    HW228394   0.784   0.326   5.886 -0.6978  0.5157  1.2653
 7157SOL    HW328395   0.712   0.366   5.759  0.9694  0.5028  0.2909
 7157SOL    MW428396   0.747   0.387   5.836 -0.1599  0.4882  0.8255
 7158SOL     OW28397   1.842   3.099   6.324  0.4514 -0.1415  0.1758
 7158SOL    HW228398   1.890   3.138   6.251 -1.5806  1.4018 -0.4108
 7158SOL    HW328399   1.839   3.006   6.304  1.9388 -0.0889 -0.4664
 7158SOL    MW428400   1.848   3.092   6.312  0.3795  0.0690  0.0137
 7159SOL     OW28401   1.490   2.282   2.612  0.2501 -0.3039  0.0424
 7159SOL    HW228402   1.540   2.263   2.533 -2.4313  1.2795 -2.2379
 7159SOL    HW328403   1.446   2.365   2.592  0.0736  0.6126  3.5838
 7159SOL    MW428404   1.491   2.291   2.599 -0.1270  0.0259  0.2088
 7160SOL     OW28405   2.810   5.455   3.234 -0.2256  0.2000 -0.1445
 7160SOL    HW228406   2.825   5.486   3.323 -0.3292 -2.0688  0.7247
 7160SOL    HW328407   2.722   5.486   3.212 -1.6268 -2.0040  1.9005
 7160SOL    MW428408   2.800   5.463   3.243 -0.4241 -0.3901  0.2400
 7161SOL     OW28409   3.337   6.341   5.857 -0.0055 -0.7349  0.0880
 7161SOL    HW228410   3.279   6.412   5.886 -3.6773 -2.8897 -1.3364
 7161SOL    HW328411   3.349   6.287   5.935 -0.7493 -0.7738  0.1833
 7161SOL    MW428412   3.331   6.343   5.871 -0.5880 -1.0243 -0.0873
 7162SOL     OW28413   4.455   6.062   1.184 -0.4987  0.1380 -0.6160
 7162SOL    HW228414   4.548   6.048   1.169 -0.4338  0.4009 -0.4632
 7162SOL    HW328415   4.447   6.156   1.201 -0.4628 -0.2217  1.6335
 7162SOL    MW428416   4.466   6.072   1.184 -0.4854  0.1252 -0.2990
 7163SOL     OW28417   5.029   3.991   4.525  0.1094 -0.5679  0.2930
 7163SOL    HW228418   5.068   4.012   4.441 -0.6349  1.2550  0.3668
 7163SOL    HW328419   5.103   3.970   4.582  0.6113 -1.9832 -0.8062
 7163SOL    MW428420   5.044   3.991   4.522  0.0774 -0.5141  0.1577
 7164SOL     OW28421   4.428   0.843   0.122 -0.3204 -0.1813 -0.0819
 7164SOL    HW228422   4.492   0.893   0.173 -0.4880 -0.6968  0.6428
 7164SOL    HW328423   4.431   0.755   0.159  1.8460 -1.5108 -2.9572
 7164SOL    MW428424   4.437   0.838   0.133 -0.0567 -0.4247 -0.3656
 7165SOL     OW28425   3.445   0.050   4.731 -0.3693  0.0749 -0.6043
 7165SOL    HW228426   3.384  -0.010   4.688 -0.7112  0.1923 -0.2896
 7165SOL    HW328427   3.491  -0.005   4.796 -1.9975  0.5143  0.9964
 7165SOL    MW428428   3.443   0.035   4.734 -0.6292  0.1484 -0.3516
 7166SOL     OW28429   6.155   1.181   0.816  0.5108  0.6980  0.3044
 7166SOL    HW228430   6.149   1.273   0.842  1.0882  0.7389  0.3131
 7166SOL    HW328431   6.078   1.166   0.761  0.2251  1.0886  0.6015
 7166SOL    MW428432   6.144   1.191   0.812  0.5493  0.7549  0.3447
 7167SOL     OW28433   0.158   1.098   5.488 -0.1984 -0.3564  0.4203
 7167SOL    HW228434   0.227   1.129   5.429 -1.5313  0.1527 -0.9418
 7167SOL    HW328435   0.124   1.178   5.528  0.5266 -0.6797  1.7169
 7167SOL    MW428436   0.162   1.113   5.485 -0.2786 -0.3319  0.4116
 7168SOL     OW28437   3.105   5.067   4.787 -0.1941 -0.4438 -0.4207
 7168SOL    HW228438   3.030   5.125   4.800  0.1639 -0.1056  0.1613
 7168SOL    HW328439   3.083   4.988   4.837 -0.7547 -0.8979 -1.3451
 7168SOL    MW428440   3.092   5.064   4.795 -0.2208 -0.4591 -0.4659
 7169SOL     OW28441   4.615   5.449   5.515 -0.2168 -0.2294  0.1098
 7169SOL    HW228442   4.565   5.371   5.538  0.4481 -0.6777  0.0403
 7169SOL    HW328443   4.640   5.436   5.424 -0.9599  0.5386 -0.2266
 7169SOL    MW428444   4.612   5.437   5.506 -0.2271 -0.1873  0.0562
 7170SOL     OW28445   4.013   2.714   5.604 -0.0732  0.0020  0.6211
 7170SOL    HW228446   4.076   2.785   5.618  0.5480 -0.3450 -0.3251
 7170SOL    HW328447   4.025   2.656   5.680 -0.5195  0.8385  1.3515
 7170SOL    MW428448   4.023   2.716   5.616 -0.0501  0.0666  0.5926
 7171SOL     OW28449   4.589   5.956   3.812 -0.4214  0.3660 -0.1226
 7171SOL    HW228450   4.624   6.034   3.768 -1.0534  0.5989 -0.2237
 7171SOL    HW328451   4.511   5.933   3.762  0.7130 -1.4039 -1.1657
 7171SOL    MW428452   4.583   5.963   3.800 -0.3551  0.1632 -0.2735
 7172SOL     OW28453   1.898   0.826   1.512  0.5865 -0.1520 -0.0857
 7172SOL    HW228454   1.830   0.793   1.455 -1.2616 -0.5267  2.1922
 7172SOL    HW328455   1.964   0.756   1.514 -0.6283 -1.3316  0.3249
 7172SOL    MW428456   1.898   0.812   1.505  0.1824 -0.3571  0.2690
 7173SOL     OW28457   3.588   2.929   3.355 -1.1022  0.6177  0.8667
 7173SOL    HW228458   3.609   2.986   3.281 -0.8011  1.4418  1.5788
 7173SOL    HW328459   3.537   2.984   3.414 -0.8845  0.1278  1.5211
 7173SOL    MW428460   3.584   2.944   3.353 -1.0337  0.6618  1.0470
 7174SOL     OW28461   3.985   5.173   5.977 -0.4428 -0.2550 -0.7473
 7174SOL    HW228462   3.919   5.191   6.044 -1.0464 -2.6284 -0.6343
 7174SOL    HW328463   4.067   5.168   6.025 -0.3491  1.2173 -0.6881
 7174SOL    MW428464   3.987   5.175   5.992 -0.5101 -0.3739 -0.7246
 7175SOL     OW28465   2.743   4.575   0.349 -0.3620  0.3442  0.4330
 7175SOL    HW228466   2.802   4.643   0.380  0.2091 -0.5128  1.3128
 7175SOL    HW328467   2.726   4.521   0.426  2.1802 -2.6674 -0.8705
 7175SOL    MW428468   2.749   4.577   0.363  0.0487 -0.1662  0.3771
 7176SOL     OW28469   5.377   1.933   5.590 -0.1614 -0.0826 -0.3093
 7176SOL    HW228470   5.346   1.850   5.554 -0.3691  0.5924 -1.7826
 7176SOL    HW328471   5.319   1.951   5.664 -0.4130 -1.0109 -0.2755
 7176SOL    MW428472   5.365   1.925   5.595 -0.2220 -0.1160 -0.4992
 7177SOL     OW28473   3.230   1.698   2.166 -1.0017  0.2715 -0.0468
 7177SOL    HW228474   3.141   1.677   2.195 -0.0405 -2.1533  1.4453
 7177SOL    HW328475   3.274   1.730   2.245  0.1508 -1.1099 -0.1013
 7177SOL    MW428476   3.224   1.699   2.180 -0.7228 -0.2307  0.1428
 7178SOL     OW28477   1.053   3.522   0.838  0.0668 -0.1961  0.8033
 7178SOL    HW228478   1.044   3.618   0.833 -0.9885 -0.3194  0.0771
 7178SOL    HW328479   1.114   3.508   0.910  2.4601  1.1489 -0.7921
 7178SOL    MW428480   1.060   3.533   0.847  0.2433 -0.0349  0.4970
 7179SOL     OW28481   0.751   5.301   2.999  0.3507  0.4569 -0.7496
 7179SOL    HW228482   0.688   5.343   2.941 -0.3202  0.3708 -0.0953
 7179SOL    HW328483   0.763   5.364   3.071 -2.6244 -1.3670  1.6219
 7179SOL    MW428484   0.744   5.315   3.001 -0.1303  0.2049 -0.3504
 7180SOL     OW28485   6.089   0.712   3.986  0.2354  0.2754 -0.3649
 7180SOL    HW228486   6.163   0.768   3.963  0.6496 -0.7588 -1.6912
 7180SOL    HW328487   6.116   0.668   4.066  1.1479 -0.1998 -0.9131
 7180SOL    MW428488   6.102   0.714   3.993  0.4104  0.0762 -0.6122
 7181SOL     OW28489   5.884   6.012   5.654 -0.4829 -0.2370  0.0388
 7181SOL    HW228490   5.891   6.106   5.670 -2.5960 -0.1034  0.4686
 7181SOL    HW328491   5.861   5.975   5.739 -0.2226 -1.0813 -0.2457
 7181SOL    MW428492   5.882   6.019   5.667 -0.7273 -0.3308  0.0580
 7182SOL     OW28493   6.246   1.585   0.429  0.3082  0.2015  0.1118
 7182SOL    HW228494   6.187   1.604   0.503  1.1940  2.1370  0.3962
 7182SOL    HW328495   6.330   1.565   0.470  0.5809  0.4033 -0.3467
 7182SOL    MW428496   6.249   1.585   0.444  0.4610  0.4835  0.0889
 7183SOL     OW28497   2.748   5.140   5.865  0.1223 -0.1232 -0.4822
 7183SOL    HW228498   2.726   5.058   5.909 -0.1278 -0.2359 -0.8154
 7183SOL    HW328499   2.843   5.134   5.850  0.4137  0.3866  0.9903
 7183SOL    MW428500   2.758   5.129   5.869  0.1277 -0.0708 -0.3319
 7184SOL     OW28501   1.799   3.803   0.613 -0.2007  0.5408  0.0608
 7184SOL    HW228502   1.765   3.892   0.610 -3.8089 -0.6847 -0.4242
 7184SOL    HW328503   1.770   3.763   0.531  1.5093 -1.0609  0.1582
 7184SOL    MW428504   1.791   3.810   0.601 -0.4512  0.1678  0.0097
 7185SOL     OW28505   0.373   0.076   0.069  0.0473  0.3285 -0.0805
 7185SOL    HW228506   0.344   0.160   0.033 -0.9546 -0.2518 -0.6816
 7185SOL    HW328507   0.468   0.081   0.070  0.0177  1.2044 -0.7534
 7185SOL    MW428508   0.382   0.088   0.065 -0.0888  0.3675 -0.2486
 7186SOL     OW28509   6.359   5.264   5.424 -0.1601 -0.7879  0.2331
 7186SOL    HW228510   6.440   5.292   5.383 -0.9636  1.2587 -0.0568
 7186SOL    HW328511   6.335   5.336   5.482 -2.1540 -0.9824 -0.2719
 7186SOL    MW428512   6.366   5.277   5.426 -0.5292 -0.5435  0.1282
 7187SOL     OW28513   6.078   2.410   5.883 -0.3609 -0.6567  0.3722
 7187SOL    HW228514   5.990   2.377   5.864 -1.0267  0.1488  1.9154
 7187SOL    HW328515   6.075   2.502   5.859  0.4814 -0.9038 -0.7698
 7187SOL    MW428516   6.066   2.418   5.877 -0.3376 -0.5830  0.4251
 7188SOL     OW28517   1.371   6.142   0.437  0.0249  0.1590 -0.6457
 7188SOL    HW228518   1.305   6.074   0.437  0.4558 -0.2608 -0.8973
 7188SOL    HW328519   1.335   6.211   0.381 -0.4882  0.2205 -0.2457
 7188SOL    MW428520   1.358   6.142   0.430  0.0140  0.1118 -0.6261
 7189SOL     OW28521   2.862   1.844   4.672  0.0957  0.8783 -0.1888
 7189SOL    HW228522   2.850   1.767   4.616 -0.0170  0.4657  0.3839
 7189SOL    HW328523   2.894   1.807   4.755 -0.9529  1.3465  0.4446
 7189SOL    MW428524   2.865   1.829   4.676 -0.0575  0.8856 -0.0297
 7190SOL     OW28525   4.723   0.144   2.228 -0.2275 -0.1301  0.1808
 7190SOL    HW228526   4.798   0.149   2.168 -0.3520  1.7980  0.1388
 7190SOL    HW328527   4.747   0.200   2.302 -1.8070  0.9536 -0.0802
 7190SOL    MW428528   4.736   0.152   2.230 -0.4523  0.2673  0.1408
 7191SOL     OW28529   1.065   6.216   5.086 -0.6026 -0.3351  0.2788
 7191SOL    HW228530   1.024   6.162   5.154 -0.0769  0.7638  1.5094
 7191SOL    HW328531   1.082   6.300   5.129 -1.1118  0.7165 -1.4971
 7191SOL    MW428532   1.062   6.220   5.101 -0.6005 -0.0513  0.2068
 7192SOL     OW28533   3.070   1.102   2.740 -0.2052  0.9124 -0.3521
 7192SOL    HW228534   3.157   1.139   2.756 -1.0282  2.4226  0.9631
 7192SOL    HW328535   3.086   1.011   2.717  1.7673  1.3698 -1.0110
 7192SOL    MW428536   3.084   1.095   2.739 -0.0535  1.1720 -0.2655
 7193SOL     OW28537   4.126   2.387   0.157 -0.2217  0.0104 -0.1269
 7193SOL    HW228538   4.099   2.306   0.199 -1.0799  0.2252 -0.2570
 7193SOL    HW328539   4.220   2.376   0.141  0.0342 -0.2784  1.3910
 7193SOL    MW428540   4.135   2.375   0.161 -0.3011  0.0006  0.0562
 7194SOL     OW28541   4.832   5.159   0.683 -0.2052 -0.4756 -0.2465
 7194SOL    HW228542   4.911   5.163   0.629 -0.6226  1.5555 -0.7938
 7194SOL    HW328543   4.864   5.165   0.773  0.3506 -1.6174 -0.3424
 7194SOL    MW428544   4.847   5.160   0.688 -0.1870 -0.3583 -0.3314
 7195SOL     OW28545   3.287   4.420   1.677  0.4906  0.0088  0.6638
 7195SOL    HW228546   3.379   4.448   1.677  0.2135  1.0002 -0.3385
 7195SOL    HW328547   3.238   4.501   1.691 -0.2509 -0.4185  0.5627
 7195SOL    MW428548   3.293   4.435   1.679  0.3562  0.0833  0.5182
 7196SOL     OW28549   5.262   1.370   1.249  0.1786  0.2101  0.1519
 7196SOL    HW228550   5.315   1.315   1.306 -0.9627 -0.5497  0.5152
 7196SOL    HW328551   5.260   1.325   1.165  0.1793  0.2923  0.1068
 7196SOL    MW428552   5.269   1.357   1.245  0.0281  0.1207  0.1939
 7197SOL     OW28553   6.241   5.397   1.314 -0.1305 -0.4552  0.3766
 7197SOL    HW228554   6.172   5.383   1.379 -0.9762 -2.3068 -0.8403
 7197SOL    HW328555   6.287   5.475   1.345 -2.3376  0.4656  1.6074
 7197SOL    MW428556   6.238   5.406   1.327 -0.5333 -0.5780  0.3784
 7198SOL     OW28557   3.576   6.374   0.026 -0.4571  0.0532  0.2459
 7198SOL    HW228558   3.652   6.407   0.074  0.8032 -0.0395 -1.5951
 7198SOL    HW328559   3.551   6.446  -0.032 -1.0422 -0.3346  0.0120
 7198SOL    MW428560   3.583   6.388   0.025 -0.3680 -0.0102 -0.0278
 7199SOL     OW28561   3.743   5.936   0.299  0.0594 -0.4829  0.7216
 7199SOL    HW228562   3.765   6.029   0.289  1.6871 -0.6640  2.1949
 7199SOL    HW328563   3.653   5.930   0.268 -0.6112  1.8667  1.9726
 7199SOL    MW428564   3.734   5.947   0.293  0.1857 -0.1968  1.0811
 7200SOL     OW28565   1.648   1.951   1.549 -0.2863  0.0006 -0.6107
 7200SOL    HW228566   1.650   1.877   1.489 -0.4959  0.1372 -0.7910
 7200SOL    HW328567   1.690   2.022   1.500  1.1086 -0.3385  0.0413
 7200SOL    MW428568   1.654   1.951   1.534 -0.1299 -0.0261 -0.5485
 7201SOL     OW28569   5.467   1.890   2.281 -0.4122 -0.0389 -0.1287
 7201SOL    HW228570   5.553   1.925   2.259 -0.0902 -0.6971  0.0630
 7201SOL    HW328571   5.405   1.959   2.256  0.3083  1.5001  2.0089
 7201SOL    MW428572   5.470   1.904   2.275 -0.2747  0.0773  0.1786
 7202SOL     OW28573   0.866   5.173   1.657 -0.1167  0.4944 -0.0748
 7202SOL    HW228574   0.903   5.149   1.572 -0.6345 -0.2212 -0.1055
 7202SOL    HW328575   0.862   5.269   1.655 -0.1826  0.4826 -0.8853
 7202SOL    MW428576   0.870   5.183   1.646 -0.1937  0.3984 -0.1858
 7203SOL     OW28577   3.044   2.670   5.269 -0.3845  0.0237 -0.1208
 7203SOL    HW228578   3.023   2.730   5.198  0.6622 -1.3201 -1.6250
 7203SOL    HW328579   2.974   2.604   5.266 -1.0448  0.6423  0.9576
 7203SOL    MW428580   3.032   2.669   5.259 -0.3335 -0.0720 -0.1770
 7204SOL     OW28581   1.418   1.342   5.936  0.1857  0.1029  0.1252
 7204SOL    HW228582   1.507   1.358   5.968 -0.9372  0.7327  3.3947
 7204SOL    HW328583   1.428   1.326   5.843  3.6839  0.3737  0.3227
 7204SOL    MW428584   1.431   1.342   5.928  0.4991  0.2217  0.5826
 7205SOL     OW28585   0.776   0.987   1.845 -0.3431  0.2884  0.8641
 7205SOL    HW228586   0.841   0.971   1.777  0.7928  0.0892  1.9594
 7205SOL    HW328587   0.700   0.935   1.819  0.6478 -1.0571  0.5659
 7205SOL    MW428588   0.774   0.978   1.833 -0.0625  0.0846  0.9693
 7206SOL     OW28589   2.055   4.973   2.141  0.2189 -0.3242  0.2304
 7206SOL    HW228590   1.962   4.958   2.162  0.1646 -0.3247 -0.0035
 7206SOL    HW328591   2.083   5.040   2.203 -0.3941  0.9324 -0.8033
 7206SOL    MW428592   2.046   4.980   2.152  0.1308 -0.1584  0.0632
 7207SOL     OW28593   1.879   3.291   0.759  0.4165 -0.2652  0.5310
 7207SOL    HW228594   1.838   3.227   0.701 -0.8346 -0.0939  1.1927
 7207SOL    HW328595   1.833   3.373   0.740  1.4131  0.2516  0.3084
 7207SOL    MW428596   1.867   3.293   0.749  0.3830 -0.1744  0.5889
 7208SOL     OW28597   4.257   1.721   4.736  0.0816 -0.5976  0.8533
 7208SOL    HW228598   4.293   1.808   4.717  0.3898 -1.0826 -0.9999
 7208SOL    HW328599   4.233   1.724   4.828  3.0725  0.4021  1.6929
 7208SOL    MW428600   4.258   1.733   4.745  0.5169 -0.5297  0.7195
 7209SOL     OW28601   0.710   2.951   1.004 -0.2626  0.7950  0.0762
 7209SOL    HW228602   0.664   2.914   1.079  1.2021  1.6609  1.4632
 7209SOL    HW328603   0.743   3.035   1.035  2.2347  0.2311 -0.8144
 7209SOL    MW428604   0.708   2.957   1.018  0.2601  0.8349  0.1417
 7210SOL     OW28605   4.632   3.469   6.052  0.2213  0.4115  0.6558
 7210SOL    HW228606   4.688   3.436   6.123  0.4716 -0.1785  0.1971
 7210SOL    HW328607   4.625   3.395   5.991  1.2873  1.3748 -0.7003
 7210SOL    MW428608   4.639   3.455   6.053  0.3950  0.4608  0.4164
 7211SOL     OW28609   4.207   3.102   0.790  0.2178  0.3100  1.2602
 7211SOL    HW228610   4.134   3.076   0.846 -0.5946 -0.2256  0.0008
 7211SOL    HW328611   4.182   3.188   0.757 -0.1647 -0.1338  0.3473
 7211SOL    MW428612   4.194   3.110   0.793  0.0602  0.1808  0.9736
 7212SOL     OW28613   2.542   4.405   3.624 -0.3016  1.0545 -0.4188
 7212SOL    HW228614   2.576   4.494   3.610  1.3106  1.3154  3.7287
 7212SOL    HW328615   2.511   4.405   3.715 -2.4109 -2.0544 -0.9762
 7212SOL    MW428616   2.543   4.417   3.634 -0.3672  0.6788  0.0549
 7213SOL     OW28617   2.700   0.592   4.851 -0.4356 -0.1917 -0.3834
 7213SOL    HW228618   2.717   0.601   4.757  2.5054 -2.0637 -0.1592
 7213SOL    HW328619   2.619   0.541   4.856 -0.1704 -0.8057 -1.9286
 7213SOL    MW428620   2.692   0.586   4.839 -0.0126 -0.5197 -0.5577
 7214SOL     OW28621   6.424   4.716   4.767  0.5106  0.0914  0.3259
 7214SOL    HW228622   6.515   4.693   4.784  0.9518  1.3422 -0.1704
 7214SOL    HW328623   6.374   4.672   4.836  1.6509  0.6163  1.5287
 7214SOL    MW428624   6.429   4.707   4.778  0.7192  0.3257  0.4191
 7215SOL     OW28625   1.502   4.867   2.254  0.4221 -0.4970 -0.9159
 7215SOL    HW228626   1.440   4.902   2.190 -1.1967  0.7273  1.1943
 7215SOL    HW328627   1.580   4.922   2.244 -0.5783  1.0522 -0.4607
 7215SOL    MW428628   1.504   4.879   2.244  0.0765 -0.1310 -0.5775
 7216SOL     OW28629   4.099   2.577   5.806 -0.4085  0.2422 -0.1923
 7216SOL    HW228630   4.179   2.617   5.770  0.1275 -0.1471  0.5353
 7216SOL    HW328631   4.083   2.625   5.887  1.4749 -2.2774  1.8594
 7216SOL    MW428632   4.108   2.589   5.812 -0.0893 -0.1416  0.1744
 7217SOL     OW28633   0.417   5.356   0.539  0.1756  0.0424 -0.3400
 7217SOL    HW228634   0.433   5.442   0.577  0.0077  0.1435 -0.4966
 7217SOL    HW328635   0.472   5.297   0.590  1.3046  0.4182 -1.0857
 7217SOL    MW428636   0.426   5.360   0.551  0.3024  0.1053 -0.4591
 7218SOL     OW28637   0.422   2.302   4.308  0.2528 -0.8309 -0.2142
 7218SOL    HW228638   0.328   2.316   4.302 -0.1674 -3.4562 -0.9649
 7218SOL    HW328639   0.434   2.253   4.390  0.9539 -0.6014 -0.1700
 7218SOL    MW428640   0.411   2.297   4.318  0.2899 -1.1470 -0.3074
 7219SOL     OW28641   6.061   0.153   4.926 -0.5905  0.1368  0.3421
 7219SOL    HW228642   5.997   0.102   4.876 -0.6272  1.0544 -0.5562
 7219SOL    HW328643   6.145   0.132   4.886 -0.2750 -1.1443  1.5843
 7219SOL    MW428644   6.063   0.143   4.914 -0.5537  0.0888  0.3875
 7220SOL     OW28645   0.876   1.173   4.881  0.2630  0.6129 -0.4802
 7220SOL    HW228646   0.872   1.233   4.806 -0.8499  0.6278 -0.4278
 7220SOL    HW328647   0.798   1.119   4.872  0.2313  0.4711  0.5529
 7220SOL    MW428648   0.865   1.174   4.870  0.1120  0.5961 -0.3370
 7221SOL     OW28649   5.927   4.261   3.752  0.1672  0.2038  0.3066
 7221SOL    HW228650   5.935   4.169   3.777  1.6651  0.3096  0.3359
 7221SOL    HW328651   5.989   4.272   3.680  0.3868  1.2955  0.6427
 7221SOL    MW428652   5.937   4.250   3.746  0.3938  0.3618  0.3548
 7222SOL     OW28653   3.601   1.377   2.635 -0.0846  0.2403 -0.2566
 7222SOL    HW228654   3.568   1.335   2.555 -1.1193 -0.7134  0.6322
 7222SOL    HW328655   3.666   1.439   2.604 -1.9845  1.4897 -2.0683
 7222SOL    MW428656   3.605   1.379   2.620 -0.4718  0.2793 -0.3784
 7223SOL     OW28657   6.412   4.351   0.494 -0.4729  0.2281  0.7513
 7223SOL    HW228658   6.433   4.345   0.587  1.7879 -0.6765  0.2457
 7223SOL    HW328659   6.477   4.411   0.458 -1.0603  0.2533 -0.3201
 7223SOL    MW428660   6.424   4.358   0.502 -0.2521  0.1121  0.5432
 7224SOL     OW28661   4.393   1.046   2.263  0.5716  0.1862  0.0215
 7224SOL    HW228662   4.354   1.034   2.349 -0.7402  0.0952 -0.5498
 7224SOL    HW328663   4.473   0.994   2.265 -0.2965 -1.1821  0.6453
 7224SOL    MW428664   4.398   1.037   2.274  0.2840 -0.0063  0.0284
 7225SOL     OW28665   4.631   1.031   0.831 -0.2011 -0.5996 -0.0998
 7225SOL    HW228666   4.593   1.054   0.746 -1.1253  0.8181  0.6528
 7225SOL    HW328667   4.587   0.949   0.856 -1.7900  0.2786  0.1151
 7225SOL    MW428668   4.620   1.023   0.823 -0.5327 -0.2967  0.0279
 7226SOL     OW28669   1.053   4.869   4.387 -0.5640  0.0141 -0.1233
 7226SOL    HW228670   1.011   4.919   4.456 -0.7488 -0.9723  0.4960
 7226SOL    HW328671   0.981   4.827   4.339 -0.3945  0.0390 -0.4064
 7226SOL    MW428672   1.038   4.870   4.390 -0.5660 -0.1128 -0.0789
 7227SOL     OW28673   0.494   3.032   5.683  0.0885  0.1981 -0.1293
 7227SOL    HW228674   0.462   2.978   5.611 -0.1647  1.5432 -1.0494
 7227SOL    HW328675   0.421   3.034   5.745  0.1360 -0.5831 -0.0372
 7227SOL    MW428676   0.480   3.025   5.682  0.0614  0.2725 -0.2385
 7228SOL     OW28677   1.609   3.707   0.809  0.3383 -0.1650  0.2651
 7228SOL    HW228678   1.676   3.734   0.746 -0.3846 -0.3112 -0.5818
 7228SOL    HW328679   1.548   3.780   0.811 -0.7963 -1.0386 -0.8643
 7228SOL    MW428680   1.610   3.720   0.801  0.0932 -0.2996  0.0044
 7229SOL     OW28681   0.765   4.898   5.652 -0.4177 -0.0133 -0.3048
 7229SOL    HW228682   0.785   4.947   5.573 -0.5692 -1.9095 -1.5837
 7229SOL    HW328683   0.825   4.933   5.718 -2.3404  3.7639 -0.2874
 7229SOL    MW428684   0.775   4.909   5.651 -0.6914  0.2349 -0.4712
 7230SOL     OW28685   3.795   6.122   5.360  0.2577  0.1153 -0.3702
 7230SOL    HW228686   3.809   6.028   5.367 -2.7922 -0.3597  1.0965
 7230SOL    HW328687   3.857   6.161   5.422  1.2986 -0.9140 -0.7312
 7230SOL    MW428688   3.805   6.115   5.369 -0.0074 -0.0832 -0.2243
 7231SOL     OW28689   2.912   1.964   0.324 -0.5249  0.0994  0.4112
 7231SOL    HW228690   2.977   1.966   0.394  0.3854 -0.6026 -0.3827
 7231SOL    HW328691   2.909   1.873   0.296 -0.6381  0.4191 -0.6721
 7231SOL    MW428692   2.920   1.952   0.329 -0.4197  0.0490  0.1635
 7232SOL     OW28693   0.676   1.966   5.921 -0.4932  0.1768  0.0952
 7232SOL    HW228694   0.707   2.050   5.953  1.1979 -0.5354  0.4545
 7232SOL    HW328695   0.656   1.916   6.000 -0.2694 -0.1910 -0.0784
 7232SOL    MW428696   0.677   1.970   5.936 -0.2405  0.0343  0.1197
 7233SOL     OW28697   6.336   1.194   2.416 -0.2343 -0.6179 -0.0914
 7233SOL    HW228698   6.403   1.197   2.348 -0.2816  0.4201 -0.1022
 7233SOL    HW328699   6.384   1.177   2.497 -0.2115 -2.2083 -0.4030
 7233SOL    MW428700   6.351   1.192   2.418 -0.2376 -0.6908 -0.1339
 7234SOL     OW28701   4.668   4.106   5.318 -0.1306  0.2663 -0.1016
 7234SOL    HW228702   4.728   4.046   5.363 -0.0295  0.2508 -0.2556
 7234SOL    HW328703   4.603   4.048   5.277 -0.0781  0.2659 -0.1849
 7234SOL    MW428704   4.667   4.090   5.319 -0.1103  0.2642 -0.1329
 7235SOL     OW28705   5.529   5.002   1.006  0.2914  0.1343  0.4183
 7235SOL    HW228706   5.610   5.053   1.014  1.1620 -0.8792 -1.2687
 7235SOL    HW328707   5.548   4.939   0.936 -2.2319  0.3850 -0.5937
 7235SOL    MW428708   5.543   5.001   0.998  0.0733  0.0336  0.0622
 7236SOL     OW28709   4.017   5.360   5.779  0.1622  0.0083 -0.1771
 7236SOL    HW228710   4.007   5.292   5.846 -0.2078  1.3915  1.2332
 7236SOL    HW328711   4.112   5.373   5.772  0.1793  0.1869  0.4115
 7236SOL    MW428712   4.028   5.353   5.787  0.1157  0.2143  0.0866
 7237SOL     OW28713   0.520   3.802   0.029 -1.2167 -0.1258 -0.0728
 7237SOL    HW228714   0.526   3.724   0.085  1.4879  0.6668  0.9146
 7237SOL    HW328715   0.537   3.875   0.089 -2.1908  1.1008 -1.2571
 7237SOL    MW428716   0.523   3.801   0.045 -0.9884  0.1406 -0.0987
 7238SOL     OW28717   5.285   4.166   5.276 -0.2056 -0.0724  0.1170
 7238SOL    HW228718   5.211   4.213   5.237 -1.5063 -2.0803  0.0040
 7238SOL    HW328719   5.291   4.085   5.226  0.9112 -0.7668  1.3153
 7238SOL    MW428720   5.276   4.162   5.264 -0.2299 -0.4290  0.2602
 7239SOL     OW28721   5.221   1.484   5.318  0.1884  0.1597 -0.1773
 7239SOL    HW228722   5.174   1.450   5.394  1.1712  0.0363  0.3988
 7239SOL    HW328723   5.155   1.530   5.267 -0.6935 -0.6174  0.2370
 7239SOL    MW428724   5.206   1.485   5.321  0.2017  0.0409 -0.0466
 7240SOL     OW28725   1.935   1.382   4.955 -0.2494  0.1615 -0.0853
 7240SOL    HW228726   2.019   1.353   4.989  0.7632  0.8078 -1.9091
 7240SOL    HW328727   1.957   1.435   4.879 -2.2564  1.4649  0.1691
 7240SOL    MW428728   1.949   1.385   4.949 -0.3806  0.4187 -0.2924
 7241SOL     OW28729   4.883   2.393   5.030 -0.0942  0.3021  0.2713
 7241SOL    HW228730   4.958   2.343   4.999 -0.0282  0.7801 -0.3663
 7241SOL    HW328731   4.872   2.463   4.965 -1.2153  0.1198  0.2438
 7241SOL    MW428732   4.891   2.396   5.018 -0.2334  0.3411  0.1836
 7242SOL     OW28733   2.297   3.207   2.944  0.6650  0.2818  0.6328
 7242SOL    HW228734   2.339   3.271   2.887 -0.9388  0.7816 -0.0527
 7242SOL    HW328735   2.346   3.126   2.930  2.7562  1.3139  1.5341
 7242SOL    MW428736   2.309   3.205   2.935  0.7293  0.4839  0.6612
 7243SOL     OW28737   3.243   5.028   5.688  0.6285  0.2758 -0.2813
 7243SOL    HW228738   3.167   5.031   5.746  1.0209  2.5735  0.2245
 7243SOL    HW328739   3.231   4.948   5.637 -1.1533 -0.3868  1.0537
 7243SOL    MW428740   3.231   5.018   5.689  0.4452  0.4915 -0.0384
 7244SOL     OW28741   5.072   5.747   3.754  0.8801  0.1183 -0.5969
 7244SOL    HW228742   4.989   5.757   3.800  0.3950 -0.3630 -1.3560
 7244SOL    HW328743   5.122   5.684   3.807 -0.3880 -1.8659 -1.6630
 7244SOL    MW428744   5.068   5.740   3.767  0.6488 -0.2070 -0.8377
 7245SOL     OW28745   5.762   4.692   1.352 -0.1651  0.0967 -0.1302
 7245SOL    HW228746   5.797   4.749   1.421  1.4145 -0.9171 -0.0311
 7245SOL    HW328747   5.695   4.744   1.309 -0.6596  1.0433  1.6790
 7245SOL    MW428748   5.758   4.706   1.356 -0.0220  0.0878  0.1215
 7246SOL     OW28749   5.303   0.613   5.312  0.1808 -0.1638 -0.2885
 7246SOL    HW228750   5.247   0.547   5.352 -0.0962  1.5732  2.4722
 7246SOL    HW328751   5.388   0.602   5.356  0.3501  0.7774 -0.3475
 7246SOL    MW428752   5.307   0.603   5.323  0.1666  0.1895  0.0680
 7247SOL     OW28753   6.426   1.930   2.356  0.2638  0.1454  0.2565
 7247SOL    HW228754   6.470   1.972   2.282  0.5204 -1.2450 -0.4195
 7247SOL    HW328755   6.486   1.940   2.429  1.0958 -0.5054 -0.3182
 7247SOL    MW428756   6.439   1.937   2.356  0.4074 -0.1239  0.0915
 7248SOL     OW28757   0.326   4.885   1.830 -0.3522 -0.1681  0.0058
 7248SOL    HW228758   0.388   4.930   1.887  0.2129  0.3300 -0.9788
 7248SOL    HW328759   0.243   4.931   1.843  0.0695  0.7609 -0.5113
 7248SOL    MW428760   0.323   4.897   1.839 -0.2220  0.0202 -0.1923
 7249SOL     OW28761   1.527   4.989   3.376 -0.3633 -0.1516 -0.1190
 7249SOL    HW228762   1.542   5.067   3.428 -0.2469 -1.5234  2.0503
 7249SOL    HW328763   1.436   4.994   3.349 -1.4885 -0.8749  3.0716
 7249SOL    MW428764   1.517   5.000   3.379 -0.4964 -0.4280  0.5882
 7250SOL     OW28765   3.393   1.502   3.829 -0.2545 -0.6220  0.0439
 7250SOL    HW228766   3.318   1.555   3.802 -0.0773  0.0363  0.8001
 7250SOL    HW328767   3.412   1.447   3.753 -1.3307 -0.6075 -0.2507
 7250SOL    MW428768   3.386   1.502   3.815 -0.3731 -0.5332  0.1048
 7251SOL     OW28769   2.870   1.495   3.085  0.5161  0.0089 -0.5945
 7251SOL    HW228770   2.873   1.413   3.134 -0.0650  0.2408 -0.1552
 7251SOL    HW328771   2.854   1.469   2.994 -1.0215 -0.3047 -0.2570
 7251SOL    MW428772   2.868   1.481   3.080  0.2366 -0.0018 -0.4920
 7252SOL     OW28773   2.829   3.153   0.479 -0.2284  0.0588  0.2454
 7252SOL    HW228774   2.764   3.213   0.516  0.5643  0.2897  1.3191
 7252SOL    HW328775   2.786   3.067   0.480 -0.6410  0.2647  0.6445
 7252SOL    MW428776   2.815   3.149   0.484 -0.1782  0.1164  0.4397
 7253SOL     OW28777   2.927   3.879   2.779  0.2593 -0.4564 -0.6831
 7253SOL    HW228778   2.937   3.848   2.688  1.9996 -0.0672 -0.6556
 7253SOL    HW328779   2.995   3.946   2.789 -1.3485  1.1164  0.2505
 7253SOL    MW428780   2.937   3.884   2.768  0.2768 -0.1975 -0.5563
 7254SOL     OW28781   0.327   6.302   5.516  0.6006 -0.1162 -0.1265
 7254SOL    HW228782   0.403   6.244   5.514  0.4272 -0.3283 -1.8849
 7254SOL    HW328783   0.268   6.262   5.580  1.8887 -0.0025  1.1983
 7254SOL    MW428784   0.329   6.289   5.524  0.7477 -0.1292 -0.1837
 7255SOL     OW28785   5.402   4.322   4.797  0.2994 -0.0840  0.6995
 7255SOL    HW228786   5.416   4.286   4.884  0.3266 -0.6372  0.4695
 7255SOL    HW328787   5.308   4.309   4.780  0.5545 -1.2323  0.0973
 7255SOL    MW428788   5.391   4.316   4.806  0.3366 -0.3085  0.5897
 7256SOL     OW28789   1.689   4.374   5.068  0.2061  0.3434  0.4602
 7256SOL    HW228790   1.766   4.361   5.012 -1.1035 -2.7785 -0.8387
 7256SOL    HW328791   1.671   4.287   5.104 -2.5145  1.0412  0.9647
 7256SOL    MW428792   1.697   4.361   5.065 -0.3256  0.0236  0.3554
 7257SOL     OW28793   0.498   5.489   4.846  0.0438  0.3208 -0.0539
 7257SOL    HW228794   0.511   5.440   4.765 -0.2983  0.0287  0.0643
 7257SOL    HW328795   0.452   5.428   4.904  0.6298  0.3932  0.4980
 7257SOL    MW428796   0.494   5.475   4.843  0.0760  0.2918  0.0345
 7258SOL     OW28797   0.826   1.247   3.105  0.1246 -0.2409 -0.5423
 7258SOL    HW228798   0.830   1.341   3.122  0.2195 -0.2932 -0.2627
 7258SOL    HW328799   0.754   1.236   3.043 -1.4072 -0.2079  1.1490
 7258SOL    MW428800   0.817   1.258   3.099 -0.0650 -0.2435 -0.2822
 7259SOL     OW28801   1.607   0.510   2.552 -0.1993  0.0582  0.0847
 7259SOL    HW228802   1.650   0.594   2.568 -1.9776  1.0030  0.1293
 7259SOL    HW328803   1.527   0.533   2.505 -1.6549 -1.4073  1.7309
 7259SOL    MW428804   1.602   0.524   2.548 -0.6260 -0.0105  0.3077
 7260SOL     OW28805   2.779   4.317   2.047 -0.2505 -0.6138 -0.3836
 7260SOL    HW228806   2.770   4.279   1.960 -1.2519  1.0381 -1.0361
 7260SOL    HW328807   2.851   4.380   2.040 -0.8215  0.0741 -0.2423
 7260SOL    MW428808   2.787   4.320   2.035 -0.4579 -0.3051 -0.4511
 7261SOL     OW28809   4.018   2.265   3.934  0.5794  0.3451 -0.1130
 7261SOL    HW228810   3.989   2.213   4.008  0.8063  1.1301  0.5388
 7261SOL    HW328811   3.941   2.274   3.879  0.5852 -0.8427 -0.3525
 7261SOL    MW428812   4.004   2.259   3.936  0.6101  0.2919 -0.0586
 7262SOL     OW28813   4.815   0.950   4.993 -0.4471 -0.0483 -0.6560
 7262SOL    HW228814   4.826   1.043   5.012  3.0491 -0.7059  1.4734
 7262SOL    HW328815   4.854   0.938   4.907  2.3515  0.0629  0.4998
 7262SOL    MW428816   4.822   0.961   4.984  0.3834 -0.1204 -0.2225
 7263SOL     OW28817   3.156   4.148   1.078  0.2822  0.1918  0.1846
 7263SOL    HW228818   3.079   4.090   1.073  0.5673 -0.2023  0.2984
 7263SOL    HW328819   3.163   4.170   1.171  1.1290 -0.9112  0.4005
 7263SOL    MW428820   3.147   4.143   1.090  0.4316 -0.0057  0.2281
 7264SOL     OW28821   3.720   4.820   6.165 -0.2808  0.7307  0.1920
 7264SOL    HW228822   3.794   4.855   6.116  0.6717 -0.8493  0.4488
 7264SOL    HW328823   3.667   4.897   6.186  1.1625  1.8712 -0.1851
 7264SOL    MW428824   3.722   4.835   6.161  0.0353  0.6727  0.1762
 7265SOL     OW28825   3.075   2.382   0.192 -0.3766 -0.8073 -0.0341
 7265SOL    HW228826   3.122   2.442   0.134 -0.0492 -0.9717  0.0557
 7265SOL    HW328827   2.999   2.431   0.221 -0.4272 -0.6469 -0.4323
 7265SOL    MW428828   3.071   2.396   0.188 -0.3401 -0.8078 -0.0748
 7266SOL     OW28829   1.059   0.642   1.377  0.0966  0.1718 -0.6476
 7266SOL    HW228830   1.077   0.597   1.460  0.7562  0.7880 -0.4415
 7266SOL    HW328831   1.060   0.735   1.399  2.2686  0.4554 -1.6733
 7266SOL    MW428832   1.062   0.648   1.391  0.4702  0.2905 -0.7558
 7267SOL     OW28833   4.901   5.892   2.687  0.3849 -0.4681  0.2010
 7267SOL    HW228834   4.829   5.885   2.750 -0.3035  3.4752  0.1371
 7267SOL    HW328835   4.976   5.918   2.740 -0.1256  2.5704 -0.3814
 7267SOL    MW428836   4.901   5.895   2.702  0.2267  0.4531  0.1157
 7268SOL     OW28837   4.277   0.516   0.830  0.1004 -0.0538 -0.7968
 7268SOL    HW228838   4.186   0.522   0.857 -0.3059 -0.4299 -2.0124
 7268SOL    HW328839   4.325   0.566   0.896 -1.3215  2.8405 -1.8132
 7268SOL    MW428840   4.272   0.523   0.842 -0.1408  0.2785 -1.0913
 7269SOL     OW28841   4.628   5.883   0.829  0.1273  0.0814  0.1218
 7269SOL    HW228842   4.715   5.862   0.864  0.7119 -0.7646 -1.6995
 7269SOL    HW328843   4.587   5.798   0.813 -0.1939  0.4216 -0.9639
 7269SOL    MW428844   4.634   5.869   0.832  0.1621  0.0147 -0.2617
 7270SOL     OW28845   5.837   4.837   1.582  0.5809  0.4918 -0.0672
 7270SOL    HW228846   5.889   4.777   1.635 -0.4682 -0.7810 -0.4346
 7270SOL    HW328847   5.755   4.847   1.630 -0.3506 -0.5972 -1.3579
 7270SOL    MW428848   5.833   4.831   1.595  0.3196  0.1802 -0.2860
 7271SOL     OW28849   3.629   4.967   2.029  0.2761  0.5810 -0.1885
 7271SOL    HW228850   3.557   4.913   1.995 -0.3140  1.7825 -0.8984
 7271SOL    HW328851   3.686   4.904   2.074 -2.3022 -0.1437  2.3285
 7271SOL    MW428852   3.627   4.951   2.030 -0.1419  0.6439  0.0499
 7272SOL     OW28853   5.309   2.107   6.216 -0.1194 -0.1112 -0.5039
 7272SOL    HW228854   5.290   2.201   6.223  0.3892 -0.1170  1.4292
 7272SOL    HW328855   5.401   2.099   6.240 -0.2757 -1.1659 -0.2053
 7272SOL    MW428856   5.318   2.119   6.220 -0.0730 -0.2511 -0.2095
 7273SOL     OW28857   0.657   4.706   0.373  0.3824  0.2196 -0.3097
 7273SOL    HW228858   0.708   4.672   0.446  0.7247 -1.1691 -1.1625
 7273SOL    HW328859   0.596   4.635   0.350  0.6735  0.3978 -1.7267
 7273SOL    MW428860   0.655   4.692   0.379  0.4659  0.0599 -0.6092
 7274SOL     OW28861   4.548   1.629   0.605  0.2343 -0.1062 -0.0376
 7274SOL    HW228862   4.638   1.656   0.584  0.9839 -1.1532  1.6129
 7274SOL    HW328863   4.558   1.566   0.675 -1.7202 -1.4755 -0.9030
 7274SOL    MW428864   4.561   1.624   0.611  0.0753 -0.4250  0.0660
 7275SOL     OW28865   5.305   1.194   6.213  0.0817 -0.0164 -0.3439
 7275SOL    HW228866   5.351   1.129   6.160  0.4054  0.2863 -0.4456
 7275SOL    HW328867   5.227   1.149   6.245  0.6614 -0.6840  0.1855
 7275SOL    MW428868   5.301   1.180   6.210  0.2009 -0.0645 -0.2875
 7276SOL     OW28869   0.290   4.864   4.125  0.0405  0.3546  0.0399
 7276SOL    HW228870   0.369   4.840   4.076 -0.4939 -0.6745 -0.3724
 7276SOL    HW328871   0.321   4.899   4.207  0.9387  0.4184 -0.3211
 7276SOL    MW428872   0.304   4.865   4.129  0.0885  0.2273 -0.0621
 7277SOL     OW28873   4.722   1.793   1.287 -0.1591  0.1794  0.2472
 7277SOL    HW228874   4.639   1.744   1.289  0.1478 -0.3242  0.9156
 7277SOL    HW328875   4.778   1.748   1.350  0.8813  0.0873 -0.7092
 7277SOL    MW428876   4.718   1.781   1.296  0.0186  0.1008  0.2092
 7278SOL     OW28877   6.394   2.548   6.034  0.3786 -0.5028  1.0342
 7278SOL    HW228878   6.353   2.634   6.027  1.1757 -0.2579 -1.3615
 7278SOL    HW328879   6.327   2.493   6.074  0.0653  1.3082  3.2240
 7278SOL    MW428880   6.380   2.552   6.038  0.4425 -0.2316  1.0071
 7279SOL     OW28881   5.510   2.542   3.828  0.6736 -0.1253 -0.1860
 7279SOL    HW228882   5.532   2.492   3.749  2.3054  0.5895 -0.2257
 7279SOL    HW328883   5.496   2.631   3.796  0.3294 -0.0340  0.2114
 7279SOL    MW428884   5.511   2.547   3.813  0.8435 -0.0190 -0.1388
 7280SOL     OW28885   2.429   4.901   5.378 -0.2076 -0.7699 -0.2535
 7280SOL    HW228886   2.491   4.974   5.373  0.5026 -1.4167 -1.0521
 7280SOL    HW328887   2.371   4.924   5.451  0.5016  0.2039  0.0191
 7280SOL    MW428888   2.430   4.914   5.387 -0.0203 -0.7268 -0.3229
 7281SOL     OW28889   3.722   2.975   4.859  0.2179 -0.4510  0.3967
 7281SOL    HW228890   3.640   3.015   4.830 -0.5364 -0.0263  2.9552
 7281SOL    HW328891   3.774   2.969   4.778 -2.3605 -0.9774 -1.3575
 7281SOL    MW428892   3.718   2.980   4.844 -0.2218 -0.4644  0.5028
 7282SOL     OW28893   1.636   5.990   2.965 -0.6862 -0.1460  0.1874
 7282SOL    HW228894   1.617   5.901   2.937  0.4283 -0.1529 -0.5850
 7282SOL    HW328895   1.725   5.986   2.999 -0.6599  0.6576  0.2313
 7282SOL    MW428896   1.645   5.978   2.966 -0.5357 -0.0409  0.0913
 7283SOL     OW28897   0.355   2.249   5.609 -0.3516  0.1014 -0.4647
 7283SOL    HW228898   0.393   2.269   5.694 -1.8701 -1.0231  0.5302
 7283SOL    HW328899   0.417   2.286   5.546  1.7801 -0.6698  1.0544
 7283SOL    MW428900   0.368   2.257   5.612 -0.2707 -0.1487 -0.1330
 7284SOL     OW28901   2.257   1.326   0.658 -0.5904 -0.4395 -0.3535
 7284SOL    HW228902   2.208   1.296   0.581 -1.6277  0.6382 -0.1450
 7284SOL    HW328903   2.200   1.305   0.732 -0.3290 -0.0015 -0.0233
 7284SOL    MW428904   2.243   1.319   0.657 -0.6927 -0.2395 -0.2824
 7285SOL     OW28905   3.798   2.972   5.897 -0.1407  0.1943  0.0592
 7285SOL    HW228906   3.761   3.060   5.887  0.5947  0.4435 -0.6635
 7285SOL    HW328907   3.794   2.935   5.809  3.2568  1.0533 -0.6081
 7285SOL    MW428908   3.793   2.979   5.884  0.4046  0.3405 -0.1242
 7286SOL     OW28909   0.779   4.737   1.294 -0.4070 -0.2611  0.0920
 7286SOL    HW228910   0.748   4.649   1.273 -0.6746 -0.1161 -0.1293
 7286SOL    HW328911   0.760   4.747   1.387  0.3750 -0.7404  0.3135
 7286SOL    MW428912   0.772   4.727   1.304 -0.3392 -0.3052  0.0920
 7287SOL     OW28913   5.405   2.498   1.188 -0.7775  0.0238  0.2640
 7287SOL    HW228914   5.319   2.457   1.189 -1.1387  0.7558 -0.0566
 7287SOL    HW328915   5.387   2.592   1.192 -0.0562  0.2524 -1.1200
 7287SOL    MW428916   5.391   2.505   1.189 -0.7300  0.1505  0.0391
 7288SOL     OW28917   1.878   0.410   5.036 -0.0666 -0.0586  0.4728
 7288SOL    HW228918   1.963   0.401   4.992  0.3480 -0.1440  1.2815
 7288SOL    HW328919   1.855   0.320   5.060 -0.7430 -0.1292 -0.3813
 7288SOL    MW428920   1.886   0.397   5.033 -0.1011 -0.0792  0.4668
 7289SOL     OW28921   6.408   6.240   3.846 -0.0306 -0.2473 -0.4828
 7289SOL    HW228922   6.403   6.199   3.933 -0.0239 -0.8817 -0.7744
 7289SOL    HW328923   6.383   6.170   3.786  0.8082 -0.0646 -1.0600
 7289SOL    MW428924   6.404   6.225   3.850  0.0809 -0.3069 -0.5974
 7290SOL     OW28925   4.159   0.503   3.117 -0.1620  0.7495 -0.3050
 7290SOL    HW228926   4.111   0.491   3.198 -0.8070  3.2540 -0.2242
 7290SOL    HW328927   4.234   0.557   3.141 -0.3830  1.5550 -1.3573
 7290SOL    MW428928   4.163   0.508   3.131 -0.2762  1.1862 -0.4332
 7291SOL     OW28929   6.074   1.461   0.225  0.0454 -0.3419  0.0261
 7291SOL    HW228930   6.123   1.529   0.271  1.4595 -0.3510 -1.4036
 7291SOL    HW328931   6.019   1.422   0.293  0.1873  1.3131  1.1604
 7291SOL    MW428932   6.073   1.465   0.240  0.2507 -0.1247 -0.0129
 7292SOL     OW28933   3.471   0.052   2.138  0.5209 -0.3196  0.4753
 7292SOL    HW228934   3.429  -0.031   2.163  1.4694 -0.8016  0.5139
 7292SOL    HW328935   3.494   0.093   2.222  0.7921 -0.4126  0.4481
 7292SOL    MW428936   3.469   0.046   2.153  0.6818 -0.3954  0.4768
 7293SOL     OW28937   5.073   0.161   1.782  0.1377  0.2334 -0.4720
 7293SOL    HW228938   5.038   0.170   1.693  0.7125 -1.3642 -0.8963
 7293SOL    HW328939   5.140   0.093   1.775  0.7496  0.6385  1.0416
 7293SOL    MW428940   5.077   0.153   1.770  0.2942  0.0761 -0.3283
 7294SOL     OW28941   0.421   5.307   4.521 -0.0989 -0.3289  0.2751
 7294SOL    HW228942   0.397   5.400   4.522 -1.3403 -0.5647 -1.5104
 7294SOL    HW328943   0.469   5.293   4.602 -2.3206  1.2398  1.9827
 7294SOL    MW428944   0.424   5.318   4.532 -0.5558 -0.1530  0.2648
 7295SOL     OW28945   4.228   4.525   6.015 -0.3439 -0.1191 -0.2712
 7295SOL    HW228946   4.317   4.510   5.983  0.2105  2.5061 -0.1122
 7295SOL    HW328947   4.239   4.568   6.099 -1.7823  0.2014 -0.2153
 7295SOL    MW428948   4.241   4.528   6.022 -0.4605  0.2696 -0.2429
 7296SOL     OW28949   4.089   5.355   2.961 -0.1004 -0.1929 -0.2727
 7296SOL    HW228950   4.005   5.388   2.990  0.3292  0.1420  0.6191
 7296SOL    HW328951   4.096   5.382   2.870 -0.5861  0.5073 -0.1041
 7296SOL    MW428952   4.079   5.363   2.953 -0.1078 -0.0563 -0.1328
 7297SOL     OW28953   0.563   0.446   2.254  0.2481  0.0247 -0.5765
 7297SOL    HW228954   0.545   0.368   2.200 -1.9785  0.6593 -0.8726
 7297SOL    HW328955   0.479   0.467   2.294  0.7836  2.2826 -0.4986
 7297SOL    MW428956   0.549   0.438   2.252  0.0250  0.4063 -0.6053
 7298SOL     OW28957   4.553   0.343   3.418  0.3580 -0.0286  0.0310
 7298SOL    HW228958   4.555   0.423   3.365 -0.8396 -0.4423 -0.6762
 7298SOL    HW328959   4.593   0.276   3.363  3.9080  0.5636  1.6193
 7298SOL    MW428960   4.559   0.345   3.404  0.6683 -0.0050  0.1473
 7299SOL     OW28961   0.284   4.980   4.710  0.1121 -0.4782  0.1655
 7299SOL    HW228962   0.376   4.990   4.686 -0.2278  0.5365 -0.8244
 7299SOL    HW328963   0.271   4.886   4.720  1.3516 -0.5972  0.7610
 7299SOL    MW428964   0.294   4.969   4.708  0.2308 -0.3600  0.1135
 7300SOL     OW28965   3.175   5.691   5.498 -0.0781 -0.4932 -0.0516
 7300SOL    HW228966   3.123   5.728   5.426  0.5128 -1.7815 -1.2035
 7300SOL    HW328967   3.259   5.738   5.493  0.9088 -2.2863 -1.9280
 7300SOL    MW428968   3.179   5.702   5.487  0.1301 -0.8997 -0.4511
 7301SOL     OW28969   6.020   3.484   3.746 -0.7631 -0.7655  0.2441
 7301SOL    HW228970   6.000   3.459   3.836 -2.3604 -1.0849 -0.1532
 7301SOL    HW328971   6.096   3.541   3.753 -1.2787 -0.2018  1.8815
 7301SOL    MW428972   6.027   3.489   3.759 -1.0419 -0.7333  0.4077
 7302SOL     OW28973   4.048   3.573   5.808  0.1478  0.3906  0.0877
 7302SOL    HW228974   4.031   3.604   5.719  2.7399 -0.8342 -0.9225
 7302SOL    HW328975   4.018   3.482   5.809  2.1852 -0.3184 -0.2878
 7302SOL    MW428976   4.042   3.565   5.797  0.7586  0.1354 -0.0951
 7303SOL     OW28977   4.065   0.611   2.863 -0.1144  0.4093  0.1720
 7303SOL    HW228978   4.093   0.700   2.840 -0.2538  0.5635  0.5850
 7303SOL    HW328979   4.107   0.594   2.948 -0.5251  0.2878  0.3505
 7303SOL    MW428980   4.074   0.621   2.871 -0.1870  0.4136  0.2500
 7304SOL     OW28981   5.322   5.340   2.913 -0.4091  0.1157 -0.1484
 7304SOL    HW228982   5.366   5.306   2.991 -1.3461 -1.1116 -0.1360
 7304SOL    HW328983   5.257   5.274   2.891 -0.3131  0.5521 -1.8526
 7304SOL    MW428984   5.319   5.327   2.921 -0.5200  0.0114 -0.3716
 7305SOL     OW28985   5.408   5.173   3.141 -0.3081 -0.1013  0.1104
 7305SOL    HW228986   5.335   5.124   3.179  1.1491 -0.8889  2.0198
 7305SOL    HW328987   5.446   5.221   3.214  1.4397 -0.1576 -0.7035
 7305SOL    MW428988   5.403   5.173   3.156  0.1148 -0.2126  0.2550
 7306SOL     OW28989   1.258   2.407   4.780  0.1209  0.2769 -0.2506
 7306SOL    HW228990   1.314   2.440   4.850 -1.5578  0.2617  1.1672
 7306SOL    HW328991   1.210   2.334   4.820  1.7219 -2.2193 -2.4786
 7306SOL    MW428992   1.259   2.402   4.794  0.1106 -0.0544 -0.3575
 7307SOL     OW28993   1.873   1.875   4.516 -0.4600 -0.7852 -0.2286
 7307SOL    HW228994   1.894   1.942   4.581  1.3650  0.8007 -2.2967
 7307SOL    HW328995   1.806   1.916   4.461  0.6284 -0.6096 -1.4713
 7307SOL    MW428996   1.867   1.889   4.518 -0.0756 -0.5528 -0.6654
 7308SOL     OW28997   3.766   1.914   5.812  0.2573 -0.5768 -0.0937
 7308SOL    HW228998   3.800   1.920   5.902  1.3646 -0.2769 -0.5235
 7308SOL    HW328999   3.756   2.004   5.784  0.3553 -0.6716 -0.4349
 7308SOL    MW429000   3.769   1.926   5.820  0.4163 -0.5497 -0.1954
 7309SOL     OW29001   6.356   4.798   2.262 -0.2393 -0.2693  0.1859
 7309SOL    HW229002   6.432   4.832   2.214 -0.9011  0.4844 -0.3610
 7309SOL    HW329003   6.307   4.876   2.287 -0.1567 -0.6831  1.6963
 7309SOL    MW429004   6.360   4.813   2.259 -0.3157 -0.2244  0.3130
 7310SOL     OW29005   0.656   0.673   2.584  0.5754  0.5760  0.0550
 7310SOL    HW229006   0.704   0.624   2.518 -0.7938 -1.6326  0.5924
 7310SOL    HW329007   0.653   0.615   2.660 -0.8939  1.5949  0.8326
 7310SOL    MW429008   0.662   0.659   2.585  0.2009  0.4191  0.2285
 7311SOL     OW29009   3.696   2.013   0.850  0.1080  0.3851 -0.7326
 7311SOL    HW229010   3.696   2.106   0.828  0.7793  0.2509 -1.3183
 7311SOL    HW329011   3.785   1.995   0.881 -0.0109 -0.0688 -0.6317
 7311SOL    MW429012   3.708   2.023   0.851  0.1809  0.3075 -0.7966
 7312SOL     OW29013   5.628   1.511   4.912 -0.0269 -0.0620 -0.4211
 7312SOL    HW229014   5.637   1.550   4.825  0.8524  2.5663  0.7417
 7312SOL    HW329015   5.535   1.490   4.919 -0.8087  2.8715 -0.8049
 7312SOL    MW429016   5.617   1.513   4.901 -0.0140  0.6718 -0.3183
 7313SOL     OW29017   0.232   3.490   2.358 -0.1186 -0.9325  0.0813
 7313SOL    HW229018   0.190   3.447   2.284 -0.3407 -0.2414 -0.1955
 7313SOL    HW329019   0.189   3.575   2.365  3.0084  1.0528 -1.9621
 7313SOL    MW429020   0.221   3.496   2.349  0.2646 -0.5794 -0.2249
 7314SOL     OW29021   0.175   6.358   6.333 -0.1776  0.4771 -0.7701
 7314SOL    HW229022   0.126   6.279   6.355 -0.5636  0.6760 -0.8900
 7314SOL    HW329023   0.225   6.379   6.412  0.5806 -0.3599 -1.0233
 7314SOL    MW429024   0.175   6.350   6.346 -0.1285  0.3929 -0.8193
 7315SOL     OW29025   5.395   5.790   4.546  0.0119  0.0417  0.9823
 7315SOL    HW229026   5.409   5.850   4.473  2.2046 -1.5963 -0.0648
 7315SOL    HW329027   5.472   5.733   4.546 -0.1245 -0.3666  4.2868
 7315SOL    MW429028   5.407   5.790   4.537  0.2832 -0.2283  1.2801
 7316SOL     OW29029   4.767   1.165   3.519 -0.4678  0.1789  0.1873
 7316SOL    HW229030   4.712   1.243   3.524 -0.6313  0.0307  0.7527
 7316SOL    HW329031   4.845   1.188   3.570 -0.3789  0.0841  0.0938
 7316SOL    MW429032   4.770   1.179   3.526 -0.4776  0.1469  0.2495
 7317SOL     OW29033   6.373   5.574   2.366  0.0902 -0.4914 -0.3377
 7317SOL    HW229034   6.333   5.541   2.285  0.3938  1.3172 -1.2734
 7317SOL    HW329035   6.459   5.607   2.339  0.3505 -0.1847  0.8074
 7317SOL    MW429036   6.379   5.574   2.351  0.1646 -0.2123 -0.3101
 7318SOL     OW29037   4.749   2.918   4.233 -0.3461  0.2239 -0.5155
 7318SOL    HW229038   4.759   2.935   4.327  0.9204 -3.3458  0.1781
 7318SOL    HW329039   4.660   2.882   4.225  0.2572 -1.4588 -0.1996
 7318SOL    MW429040   4.739   2.915   4.244 -0.0994 -0.4691 -0.3823
 7319SOL     OW29041   0.618   2.105   3.455  0.6375  0.9554 -0.3869
 7319SOL    HW229042   0.654   2.193   3.464 -0.2983  1.3831 -0.7346
 7319SOL    HW329043   0.686   2.056   3.407  1.7565  1.0923  0.9752
 7319SOL    MW429044   0.632   2.110   3.450  0.6617  1.0299 -0.2531
 7320SOL     OW29045   3.403   4.138   4.298  0.1255 -0.0948  0.0847
 7320SOL    HW229046   3.408   4.048   4.328 -0.2515  0.0820  0.6899
 7320SOL    HW329047   3.441   4.136   4.210 -0.3722 -0.9348 -0.1210
 7320SOL    MW429048   3.409   4.126   4.290  0.0101 -0.1823  0.1374
 7321SOL     OW29049   2.476   5.181   4.594  0.1045 -0.1704 -0.7848
 7321SOL    HW229050   2.561   5.219   4.618  0.3007  1.1043 -3.2685
 7321SOL    HW329051   2.497   5.113   4.530 -0.6041 -1.6322  0.4622
 7321SOL    MW429052   2.490   5.177   4.589  0.0369 -0.1951 -0.9479
 7322SOL     OW29053   0.225   0.610   4.959  0.3687 -0.0109 -0.2004
 7322SOL    HW229054   0.316   0.581   4.950  0.2070 -0.9190  0.8308
 7322SOL    HW329055   0.230   0.689   5.012  0.4605 -1.0355  1.3880
 7322SOL    MW429056   0.238   0.616   4.965  0.3595 -0.2659  0.1452
 7323SOL     OW29057   6.052   5.101   4.903 -0.3846 -0.2063 -0.2471
 7323SOL    HW229058   6.146   5.112   4.885 -0.0102  0.1496  1.6603
 7323SOL    HW329059   6.030   5.176   4.959 -1.9520  0.0020 -1.0869
 7323SOL    MW429060   6.062   5.113   4.908 -0.5420 -0.1319 -0.1062
 7324SOL     OW29061   1.720   5.471   1.279  0.9708 -0.1516  0.1564
 7324SOL    HW229062   1.691   5.515   1.359 -1.3328 -2.4573  0.7556
 7324SOL    HW329063   1.759   5.389   1.311  0.3825 -0.9217 -1.0418
 7324SOL    MW429064   1.722   5.466   1.294  0.5893 -0.5574  0.0774
 7325SOL     OW29065   1.995   1.461   3.704 -0.4096 -0.8655  0.3701
 7325SOL    HW229066   1.909   1.448   3.665 -0.3881 -1.7140  0.5825
 7325SOL    HW329067   1.980   1.523   3.776 -0.5471  0.2497 -0.6017
 7325SOL    MW429068   1.982   1.467   3.709 -0.4249 -0.8303  0.2699
 7326SOL     OW29069   5.642   2.749   2.258  0.1387 -0.0683 -0.0565
 7326SOL    HW229070   5.589   2.709   2.327  0.4710 -1.3307 -0.5229
 7326SOL    HW329071   5.657   2.679   2.195  1.4915  0.5482 -0.4496
 7326SOL    MW429072   5.637   2.735   2.259  0.3610 -0.1535 -0.1699
 7327SOL     OW29073   6.299   6.225   1.844 -0.0724  0.6592 -0.1913
 7327SOL    HW229074   6.323   6.200   1.933 -0.2744  1.3245  0.0530
 7327SOL    HW329075   6.203   6.223   1.842 -0.0902  1.3905 -0.1733
 7327SOL    MW429076   6.290   6.221   1.855 -0.1014  0.8435 -0.1567
 7328SOL     OW29077   4.324   5.882   5.311  0.2563  0.7957  0.2668
 7328SOL    HW229078   4.385   5.953   5.292  1.6892 -0.9019 -2.0016
 7328SOL    HW329079   4.377   5.816   5.355 -0.5992  0.3783  0.6837
 7328SOL    MW429080   4.339   5.882   5.314  0.3324  0.5166  0.0225
 7329SOL     OW29081   4.867   6.004   6.379  0.1764 -0.2763 -0.5024
 7329SOL    HW229082   4.881   5.969   6.467 -1.5226 -0.8234 -0.4190
 7329SOL    HW329083   4.873   5.928   6.321 -1.5602 -0.4492 -0.5247
 7329SOL    MW429084   4.870   5.990   6.383 -0.2769 -0.3713 -0.4944
 7330SOL     OW29085   1.730   5.516   5.933 -0.4011  0.8481 -0.2064
 7330SOL    HW229086   1.803   5.496   5.875 -0.4291  0.2221 -0.0312
 7330SOL    HW329087   1.693   5.431   5.955 -1.0477  1.1466 -0.1162
 7330SOL    MW429088   1.735   5.502   5.928 -0.4901  0.8049 -0.1714
 7331SOL     OW29089   5.640   3.628   0.328  0.4168  0.2445 -0.0026
 7331SOL    HW229090   5.629   3.548   0.275  2.4995 -0.1672  0.1098
 7331SOL    HW329091   5.617   3.699   0.269  1.0256 -0.3109 -0.9361
 7331SOL    MW429092   5.635   3.627   0.313  0.7719  0.1169 -0.1109
 7332SOL     OW29093   4.483   1.927   5.058  0.1929 -0.7395  0.1820
 7332SOL    HW229094   4.497   1.895   5.147  0.3667 -2.2874 -0.3723
 7332SOL    HW329095   4.464   2.020   5.069  2.5053 -0.3482  1.6560
 7332SOL    MW429096   4.482   1.935   5.071  0.5209 -0.8921  0.3034
 7333SOL     OW29097   6.056   5.990   4.256  0.3994  0.3312  0.2437
 7333SOL    HW229098   6.009   6.065   4.292 -1.1861 -0.7705  0.5721
 7333SOL    HW329099   6.146   6.021   4.244 -0.0571  2.0513  1.0284
 7333SOL    MW429100   6.062   6.004   4.259  0.1300  0.4128  0.3906
 7334SOL     OW29101   4.508   5.113   2.148 -0.4782  0.1656  0.1107
 7334SOL    HW229102   4.558   5.188   2.116  1.0983 -1.0637 -0.4058
 7334SOL    HW329103   4.572   5.059   2.195 -1.6305 -0.7358  0.6973
 7334SOL    MW429104   4.523   5.116   2.150 -0.4222 -0.1155  0.1200
 7335SOL     OW29105   6.286   0.590   5.819 -0.5633 -0.4821 -0.3712
 7335SOL    HW229106   6.314   0.502   5.845 -0.4541 -0.4158 -0.2584
 7335SOL    HW329107   6.333   0.607   5.738  0.6041  0.0675  0.3970
 7335SOL    MW429108   6.296   0.581   5.812 -0.3949 -0.4008 -0.2549
 7336SOL     OW29109   1.030   5.457   2.697 -0.5792 -0.0562 -0.5071
 7336SOL    HW229110   1.038   5.530   2.635 -0.6193  0.1209 -0.3029
 7336SOL    HW329111   0.940   5.426   2.687  0.0045 -1.4303 -2.1104
 7336SOL    MW429112   1.019   5.462   2.687 -0.5075 -0.2141 -0.6917
 7337SOL     OW29113   4.256   3.355   3.649  0.4291 -0.4198  0.3099
 7337SOL    HW229114   4.294   3.308   3.723  2.5397 -0.4492 -0.6883
 7337SOL    HW329115   4.313   3.431   3.638 -1.4962  1.0823  0.4023
 7337SOL    MW429116   4.269   3.359   3.657  0.4536 -0.2255  0.1904
 7338SOL     OW29117   6.039   2.636   1.002  0.0574 -0.0950 -0.3723
 7338SOL    HW229118   6.114   2.587   0.967  1.9622  1.7902  0.7864
 7338SOL    HW329119   6.035   2.611   1.094 -0.4159  0.1973 -0.3097
 7338SOL    MW429120   6.049   2.626   1.010  0.2463  0.1923 -0.2112
 7339SOL     OW29121   0.859   4.753   4.265 -0.3337 -0.0673  0.0083
 7339SOL    HW229122   0.780   4.805   4.281  0.1237  0.7386 -0.2797
 7339SOL    HW329123   0.842   4.710   4.181 -0.8499 -0.6571  0.4069
 7339SOL    MW429124   0.846   4.754   4.256 -0.3415 -0.0388  0.0229
 7340SOL     OW29125   4.703   6.059   3.038  0.0118  0.1720 -0.1652
 7340SOL    HW229126   4.757   5.981   3.055  0.2621  0.5939  1.0587
 7340SOL    HW329127   4.613   6.029   3.050  0.0604 -0.1048 -0.4633
 7340SOL    MW429128   4.698   6.045   3.042  0.0512  0.1911 -0.0431
 7341SOL     OW29129   4.099   4.414   3.303  0.4987  0.1037  0.1253
 7341SOL    HW229130   4.106   4.481   3.235 -0.1702  0.0817  0.0289
 7341SOL    HW329131   4.005   4.408   3.321  0.5993 -0.4628  0.4761
 7341SOL    MW429132   4.087   4.422   3.296  0.4237  0.0260  0.1588
 7342SOL     OW29133   4.692   2.907   1.712  0.5381  0.8957 -0.4976
 7342SOL    HW229134   4.746   2.934   1.637  1.8325  1.2554  0.5326
 7342SOL    HW329135   4.746   2.842   1.758 -0.7967 -0.3203 -0.5864
 7342SOL    MW429136   4.707   2.902   1.708  0.5327  0.7827 -0.3734
 7343SOL     OW29137   0.144   1.503   3.718 -0.0102  0.2555  0.5352
 7343SOL    HW229138   0.106   1.461   3.795 -0.5582  0.4476  0.3689
 7343SOL    HW329139   0.081   1.570   3.692  0.3227  0.4146  0.1119
 7343SOL    MW429140   0.131   1.506   3.724 -0.0386  0.3018  0.4574
 7344SOL     OW29141   4.261   4.044   0.990  0.3213 -0.7401 -0.0018
 7344SOL    HW229142   4.224   4.044   1.079 -2.1118  1.4685 -0.8909
 7344SOL    HW329143   4.203   3.987   0.940  1.0810 -1.1615 -0.4222
 7344SOL    MW429144   4.249   4.036   0.995  0.1005 -0.5043 -0.1746
 7345SOL     OW29145   4.897   4.972   5.931  0.0344 -0.2692  0.1320
 7345SOL    HW229146   4.895   4.888   5.977  0.1033  0.0575  0.7518
 7345SOL    HW329147   4.827   4.966   5.866 -0.6001 -0.4522  0.8160
 7345SOL    MW429148   4.887   4.960   5.929 -0.0402 -0.2502  0.3040
 7346SOL     OW29149   4.250   0.031   0.441  0.2498  0.2268  0.4032
 7346SOL    HW229150   4.336   0.020   0.401 -0.8745 -2.1117 -1.6589
 7346SOL    HW329151   4.238  -0.048   0.495 -0.8104  0.2029  0.1648
 7346SOL    MW429152   4.259   0.019   0.443 -0.0384 -0.0849  0.0997
 7347SOL     OW29153   0.922   1.287   5.760 -0.0337  0.3400  0.4502
 7347SOL    HW229154   0.920   1.232   5.681 -2.1859  0.0673  0.6177
 7347SOL    HW329155   0.980   1.359   5.738 -3.0095  2.0839 -2.7156
 7347SOL    MW429156   0.929   1.289   5.747 -0.7103  0.5341  0.0546
 7348SOL     OW29157   2.919   5.792   4.300  0.0107  0.1031 -0.0369
 7348SOL    HW229158   2.921   5.724   4.368  1.5607 -0.1012 -0.2354
 7348SOL    HW329159   2.826   5.809   4.285 -0.3915 -1.3328  0.6488
 7348SOL    MW429160   2.907   5.785   4.307  0.1621 -0.1133  0.0274
 7349SOL     OW29161   1.141   1.382   1.411 -0.0892 -0.6801  0.4326
 7349SOL    HW229162   1.103   1.406   1.496  0.5398 -0.9900  0.8065
 7349SOL    HW329163   1.165   1.290   1.420  0.5464 -0.5511  0.1388
 7349SOL    MW429164   1.139   1.373   1.423  0.0776 -0.7040  0.4432
 7350SOL     OW29165   6.358   0.327   1.294 -0.4263  0.1413  0.0578
 7350SOL    HW229166   6.335   0.417   1.270 -1.9558 -0.4160 -0.6542
 7350SOL    HW329167   6.367   0.281   1.211 -2.0041 -0.9030  0.4239
 7350SOL    MW429168   6.356   0.333   1.280 -0.8363 -0.0700  0.0121
 7351SOL     OW29169   3.497   4.952   3.968  0.6433 -0.2703  0.3833
 7351SOL    HW229170   3.508   4.908   3.884  2.5575  0.6715  0.0859
 7351SOL    HW329171   3.512   5.045   3.949 -2.5579  0.5109  1.1225
 7351SOL    MW429172   3.501   4.959   3.954  0.4735 -0.0430  0.4416
 7352SOL     OW29173   4.506   3.392   0.821 -0.2038  0.1769 -0.3225
 7352SOL    HW229174   4.434   3.339   0.857 -0.5759  0.7019 -0.2842
 7352SOL    HW329175   4.468   3.436   0.745  0.4671 -0.6082 -1.1326
 7352SOL    MW429176   4.491   3.391   0.816 -0.1644  0.1426 -0.4243
 7353SOL     OW29177   2.980   3.974   0.640  0.3376  0.0762  0.1371
 7353SOL    HW229178   2.903   4.024   0.616  0.5558  0.1721 -0.3815
 7353SOL    HW329179   3.029   3.965   0.559  1.0847  0.3789  0.5428
 7353SOL    MW429180   2.977   3.979   0.626  0.4650  0.1288  0.1222
 7354SOL     OW29181   1.614   3.048   4.434  0.4812 -0.4438  0.3142
 7354SOL    HW229182   1.656   3.038   4.519  0.8715  1.3799  0.3643
 7354SOL    HW329183   1.681   3.022   4.371  0.2895 -1.5097  0.5322
 7354SOL    MW429184   1.628   3.043   4.437  0.5074 -0.3438  0.3496
 7355SOL     OW29185   2.852   5.887   6.049  0.0457  0.1450 -0.0011
 7355SOL    HW229186   2.892   5.850   6.128 -0.2579  0.6464  0.3930
 7355SOL    HW329187   2.771   5.928   6.080  0.3368  1.0838 -0.4248
 7355SOL    MW429188   2.847   5.888   6.064  0.0441  0.3350 -0.0050
 7356SOL     OW29189   1.900   3.602   3.242 -0.4223 -0.5824  0.1703
 7356SOL    HW229190   1.900   3.695   3.223  0.4003 -0.2148  1.7901
 7356SOL    HW329191   1.885   3.560   3.157 -0.6662  1.0005 -0.6078
 7356SOL    MW429192   1.898   3.608   3.228 -0.3460 -0.3250  0.2813
 7357SOL     OW29193   3.834   4.986   0.939 -0.3920  0.1998 -0.0559
 7357SOL    HW229194   3.826   5.052   0.870 -0.6963  1.2332  0.9260
 7357SOL    HW329195   3.749   4.943   0.942 -0.2456 -0.1385 -0.5876
 7357SOL    MW429196   3.822   4.989   0.931 -0.4128  0.2915  0.0035
 7358SOL     OW29197   1.782   6.051   2.677 -0.5433 -0.5036  0.2417
 7358SOL    HW229198   1.743   6.012   2.755  0.0164 -1.3453  0.1128
 7358SOL    HW329199   1.713   6.047   2.611 -0.9667  0.0681  0.6394
 7358SOL    MW429200   1.768   6.046   2.679 -0.5253 -0.5392  0.2772
 7359SOL     OW29201   5.443   4.375   0.444 -0.1340 -0.1776 -0.1679
 7359SOL    HW229202   5.502   4.436   0.487  1.8081 -1.4520 -0.8696
 7359SOL    HW329203   5.400   4.427   0.376 -0.3784  0.9481  0.8219
 7359SOL    MW429204   5.445   4.390   0.440  0.0900 -0.1972 -0.1299
 7360SOL     OW29205   1.087   3.737   2.133 -0.1811 -0.0348 -0.0716
 7360SOL    HW229206   1.037   3.812   2.103 -0.3481  0.2421  0.8792
 7360SOL    HW329207   1.066   3.667   2.070 -1.1502  0.2978 -0.1261
 7360SOL    MW429208   1.077   3.737   2.121 -0.3310  0.0456  0.0467
 7361SOL     OW29209   6.186   5.191   3.065  0.4771  0.1131 -0.2408
 7361SOL    HW229210   6.097   5.185   3.098 -0.2393  0.0220 -2.0677
 7361SOL    HW329211   6.178   5.180   2.970  2.5591 -1.0776 -0.3481
 7361SOL    MW429212   6.173   5.189   3.057  0.6573 -0.0560 -0.4960
 7362SOL     OW29213   0.246   3.285   1.480  0.3812  0.1291 -0.2867
 7362SOL    HW229214   0.267   3.373   1.510 -0.0563  0.5119 -1.0863
 7362SOL    HW329215   0.318   3.231   1.513 -0.1664  0.4845  1.6113
 7362SOL    MW429216   0.258   3.289   1.488  0.2513  0.2265 -0.1418
 7363SOL     OW29217   1.899   6.011   5.753  0.1304 -0.0294 -0.0027
 7363SOL    HW229218   1.887   5.920   5.726 -0.0782  0.5199 -1.8571
 7363SOL    HW329219   1.993   6.024   5.756  0.1569 -0.2337  0.0733
 7363SOL    MW429220   1.910   6.001   5.750  0.1064  0.0161 -0.2373
 7364SOL     OW29221   4.788   4.831   1.995 -0.4246  0.0484 -0.5867
 7364SOL    HW229222   4.699   4.797   2.009  0.3025 -1.7045  0.0388
 7364SOL    HW329223   4.778   4.896   1.926 -1.7378 -2.5224 -3.0606
 7364SOL    MW429224   4.775   4.835   1.988 -0.5020 -0.5221 -0.8306
 7365SOL     OW29225   1.916   1.481   6.377 -0.0679  0.1919  0.5233
 7365SOL    HW229226   1.981   1.472   6.446  0.9185  0.1948 -0.3942
 7365SOL    HW329227   1.832   1.485   6.424  0.5624 -0.0172  1.6988
 7365SOL    MW429228   1.913   1.480   6.393  0.1454  0.1647  0.5573
 7366SOL     OW29229   0.692   2.120   2.673  0.2440  0.9137  0.4571
 7366SOL    HW229230   0.675   2.169   2.593  2.5664  2.3351  0.7237
 7366SOL    HW329231   0.606   2.100   2.708 -0.8199  1.4970 -1.6472
 7366SOL    MW429232   0.679   2.124   2.667  0.4100  1.1782  0.2146
 7367SOL     OW29233   0.628   3.247   6.259  0.1377 -0.4397 -0.8858
 7367SOL    HW229234   0.543   3.226   6.221 -0.4593  0.7096 -0.2555
 7367SOL    HW329235   0.625   3.342   6.274  1.2786 -0.4788 -0.2419
 7367SOL    MW429236   0.617   3.257   6.256  0.2095 -0.2932 -0.7177
 7368SOL     OW29237   2.341   3.957   3.268 -0.4226  0.3522 -0.5518
 7368SOL    HW229238   2.305   3.894   3.330 -0.9259 -0.4188 -1.6049
 7368SOL    HW329239   2.408   4.004   3.318 -0.3501 -0.7005  0.3834
 7368SOL    MW429240   2.345   3.955   3.283 -0.4795  0.1116 -0.5674
 7369SOL     OW29241   0.340   2.562   4.143 -0.3423  0.1201  0.3528
 7369SOL    HW229242   0.289   2.642   4.136  0.5275  0.5476 -2.2927
 7369SOL    HW329243   0.430   2.589   4.123 -0.2639 -1.6955 -2.1448
 7369SOL    MW429244   0.345   2.576   4.140 -0.2172 -0.0631 -0.3258
 7370SOL     OW29245   4.068   3.920   0.840  0.1424  0.1455  0.6605
 7370SOL    HW229246   4.004   3.896   0.908  1.0077 -1.9925  0.8168
 7370SOL    HW329247   4.040   4.006   0.810 -1.4765  0.2639  2.2927
 7370SOL    MW429248   4.056   3.928   0.845  0.0430 -0.1209  0.8965
 7371SOL     OW29249   1.466   6.118   1.838  0.6645  0.2968 -0.4934
 7371SOL    HW229250   1.389   6.062   1.853  1.7396 -1.3290 -0.8063
 7371SOL    HW329251   1.446   6.199   1.885 -0.8206 -0.4565  0.2533
 7371SOL    MW429252   1.453   6.121   1.846  0.6104 -0.0171 -0.4361
 7372SOL     OW29253   6.024   0.677   5.940 -0.0534  0.0760 -0.2542
 7372SOL    HW229254   6.033   0.771   5.950 -2.3065  0.4253 -1.0511
 7372SOL    HW329255   6.080   0.655   5.866  0.3733  0.7870 -0.1556
 7372SOL    MW429256   6.033   0.686   5.932 -0.2944  0.2159 -0.3464
 7373SOL     OW29257   2.547   6.041   0.053 -0.0375  0.0334  0.5774
 7373SOL    HW229258   2.473   5.982   0.070 -0.8855  0.7021 -0.6762
 7373SOL    HW329259   2.514   6.127   0.076  0.7379  0.2173  1.0540
 7373SOL    MW429260   2.533   6.044   0.059 -0.0471  0.1459  0.4749
 7374SOL     OW29261   5.139   3.427   6.343  0.0692 -0.3239 -0.0856
 7374SOL    HW229262   5.149   3.362   6.412  1.7504  1.1775  1.1790
 7374SOL    HW329263   5.070   3.485   6.374 -0.2292 -0.5178 -0.3865
 7374SOL    MW429264   5.131   3.426   6.356  0.2516 -0.1514  0.0416
 7375SOL     OW29265   4.838   4.510   0.290  0.1163 -0.3830  0.4786
 7375SOL    HW229266   4.922   4.478   0.324  0.5497  0.0940 -0.1214
 7375SOL    HW329267   4.816   4.584   0.346  0.1093 -0.4902  0.6185
 7375SOL    MW429268   4.846   4.516   0.302  0.1726 -0.3342  0.4179
 7376SOL     OW29269   4.437   0.094   4.817 -0.1468 -0.0003 -0.2432
 7376SOL    HW229270   4.367   0.029   4.814  0.1765 -0.4025  0.6044
 7376SOL    HW329271   4.501   0.058   4.879  1.1501  0.0155 -1.5136
 7376SOL    MW429272   4.437   0.081   4.825  0.0669 -0.0513 -0.2990
 7377SOL     OW29273   1.464   5.740   1.332 -0.1196  0.4108 -0.1468
 7377SOL    HW229274   1.497   5.823   1.366 -1.2580  0.2966  1.3384
 7377SOL    HW329275   1.491   5.675   1.396  3.1711 -0.9578 -2.5983
 7377SOL    MW429276   1.472   5.742   1.345  0.1643  0.2152 -0.2743
 7378SOL     OW29277   0.993   1.134   0.259  0.3012 -0.6216 -0.4282
 7378SOL    HW229278   1.055   1.092   0.200  0.4859  0.9964 -1.4435
 7378SOL    HW329279   0.912   1.141   0.208  0.4906  0.8729 -0.5682
 7378SOL    MW429280   0.991   1.130   0.245  0.3506 -0.2110 -0.5806
 7379SOL     OW29281   5.950   0.394   1.364 -0.4231  0.1400 -0.3468
 7379SOL    HW229282   6.023   0.391   1.426 -1.0201  0.2001  0.3795
 7379SOL    HW329283   5.931   0.302   1.344 -1.4776 -0.0037  1.1027
 7379SOL    MW429284   5.957   0.381   1.370 -0.6410  0.1290 -0.0597
 7380SOL     OW29285   5.699   5.188   2.958  0.2730 -0.9282 -0.6662
 7380SOL    HW229286   5.732   5.239   2.884  0.1781 -1.7055 -1.2544
 7380SOL    HW329287   5.615   5.229   2.980  0.7156 -0.1343 -0.3948
 7380SOL    MW429288   5.693   5.200   2.951  0.3189 -0.9260 -0.7080
 7381SOL     OW29289   3.645   6.406   0.616 -0.5052  0.5123  0.1017
 7381SOL    HW229290   3.588   6.476   0.648 -0.7184  0.1071  0.6300
 7381SOL    HW329291   3.620   6.330   0.668  0.4162  0.2905  0.2420
 7381SOL    MW429292   3.635   6.406   0.627 -0.4118  0.4296  0.1899
 7382SOL     OW29293   1.743   0.737   2.420  0.6156  0.2351  0.3229
 7382SOL    HW229294   1.761   0.801   2.351 -1.3356 -0.7649 -1.2218
 7382SOL    HW329295   1.677   0.679   2.382  0.7860 -1.4567  2.4117
 7382SOL    MW429296   1.737   0.738   2.406  0.3807 -0.1200  0.3947
 7383SOL     OW29297   3.486   1.132   5.162  0.0596 -0.1150 -0.4639
 7383SOL    HW229298   3.579   1.136   5.140  0.5378  0.2534  1.3898
 7383SOL    HW329299   3.441   1.161   5.083  1.5452  0.2733 -1.2102
 7383SOL    MW429300   3.492   1.136   5.149  0.3187 -0.0152 -0.3178
 7384SOL     OW29301   0.161   1.337   0.029 -0.6936  0.1756  0.3133
 7384SOL    HW229302   0.184   1.247   0.004  0.0811  0.4799 -0.0732
 7384SOL    HW329303   0.111   1.370  -0.045 -0.8581  0.1152  0.3958
 7384SOL    MW429304   0.157   1.329   0.016 -0.6131  0.2078  0.2732
 7385SOL     OW29305   5.164   2.729   4.251  0.3419  0.1024 -0.0987
 7385SOL    HW229306   5.186   2.821   4.240 -0.1153  0.2970  0.5255
 7385SOL    HW329307   5.232   2.681   4.204  1.0884  0.7359  0.3323
 7385SOL    MW429308   5.176   2.735   4.244  0.3801  0.2117  0.0405
 7386SOL     OW29309   1.735   2.377   5.617 -0.1654 -0.1838 -0.0660
 7386SOL    HW229310   1.789   2.373   5.538  0.7583  0.6831  0.4984
 7386SOL    HW329311   1.766   2.455   5.663 -2.6557  1.0023 -0.2485
 7386SOL    MW429312   1.747   2.387   5.613 -0.3721  0.0871 -0.0156
 7387SOL     OW29313   0.681   0.941   2.558 -0.0849 -0.3843  0.2097
 7387SOL    HW229314   0.681   0.848   2.580  0.3448 -0.6674 -0.9337
 7387SOL    HW329315   0.736   0.982   2.625  0.6541 -1.1176  0.0644
 7387SOL    MW429316   0.688   0.934   2.570  0.0693 -0.5184  0.0397
 7388SOL     OW29317   0.482   1.227   5.561  0.1797  0.1550  0.2473
 7388SOL    HW229318   0.396   1.255   5.531  1.0336  0.5605 -2.0702
 7388SOL    HW329319   0.503   1.152   5.505  2.7478  2.2329 -1.9097
 7388SOL    MW429320   0.474   1.221   5.550  0.6312  0.4827 -0.3431
 7389SOL     OW29321   4.925   3.026   5.295 -0.0328 -0.1032  0.5775
 7389SOL    HW229322   4.985   2.966   5.340  1.0067  0.4659 -0.0065
 7389SOL    HW329323   4.899   2.979   5.216  0.8059  0.2102  0.1038
 7389SOL    MW429324   4.929   3.012   5.290  0.2150  0.0133  0.4380
 7390SOL     OW29325   4.761   6.191   4.000  0.0115 -0.1204  0.1131
 7390SOL    HW229326   4.844   6.212   4.043 -0.3040  0.6106  0.3842
 7390SOL    HW329327   4.786   6.158   3.914  0.5683  0.4156  0.0672
 7390SOL    MW429328   4.775   6.189   3.994  0.0434  0.0468  0.1428
 7391SOL     OW29329   3.646   2.283   0.755  0.3758 -0.2816 -0.3900
 7391SOL    HW229330   3.670   2.360   0.806  1.1801  0.1880 -1.4284
 7391SOL    HW329331   3.698   2.291   0.674 -1.5544 -0.4894 -1.7117
 7391SOL    MW429332   3.656   2.294   0.751  0.2272 -0.2471 -0.7014
 7392SOL     OW29333   5.609   4.226   0.995  0.2427  0.2031 -0.4515
 7392SOL    HW229334   5.582   4.136   1.012  0.8836  0.1517  0.4242
 7392SOL    HW329335   5.537   4.265   0.946 -0.3686 -0.5728 -0.1834
 7392SOL    MW429336   5.596   4.220   0.991  0.2466  0.0940 -0.3006
 7393SOL     OW29337   0.493   5.054   3.357  0.3594  0.0831 -0.5715
 7393SOL    HW229338   0.515   4.961   3.368  0.3873  0.4139  3.6956
 7393SOL    HW329339   0.562   5.101   3.404  0.0885  2.3251 -2.2455
 7393SOL    MW429340   0.505   5.048   3.364  0.3273  0.4226 -0.2294
 7394SOL     OW29341   4.562   4.663   5.088 -0.4938 -0.3329 -0.6566
 7394SOL    HW229342   4.560   4.757   5.072 -1.0854 -0.6533 -2.8345
 7394SOL    HW329343   4.598   4.654   5.176 -0.9531  1.9386 -0.1751
 7394SOL    MW429344   4.567   4.674   5.097 -0.6325 -0.0755 -0.8804
 7395SOL     OW29345   5.808   1.787   2.822  0.8592 -0.0303 -0.4386
 7395SOL    HW229346   5.797   1.734   2.900 -0.9696  1.6097  0.4909
 7395SOL    HW329347   5.756   1.743   2.755 -0.4400  0.3983  0.2564
 7395SOL    MW429348   5.800   1.774   2.823  0.4465  0.2427 -0.2242
 7396SOL     OW29349   3.017   3.181   2.818  0.0505  0.3663  0.2559
 7396SOL    HW229350   3.095   3.129   2.797 -0.5807 -0.7932  0.7004
 7396SOL    HW329351   3.025   3.259   2.763  0.2523 -0.9132 -1.6242
 7396SOL    MW429352   3.029   3.185   2.808 -0.0061  0.0445  0.0665
 7397SOL     OW29353   1.447   2.325   3.477  0.3183 -0.3686 -0.2570
 7397SOL    HW229354   1.363   2.368   3.458 -0.3027 -1.0336  0.8662
 7397SOL    HW329355   1.513   2.386   3.445 -0.5645  1.0167  0.4559
 7397SOL    MW429356   1.444   2.339   3.471  0.1199 -0.2736 -0.0147
 7398SOL     OW29357   6.322   2.851   1.638  0.3451  0.1196 -0.7873
 7398SOL    HW229358   6.386   2.864   1.569  1.0514  2.2233  0.1683
 7398SOL    HW329359   6.367   2.799   1.704  0.5621  0.3099 -0.7837
 7398SOL    MW429360   6.336   2.846   1.638  0.4669  0.4223 -0.6607
 7399SOL     OW29361   0.291   0.161   2.576 -0.5286  0.5282  0.2600
 7399SOL    HW229362   0.337   0.245   2.578  0.6869  0.0191 -2.4851
 7399SOL    HW329363   0.359   0.096   2.593 -0.8884 -0.0468 -0.4289
 7399SOL    MW429364   0.306   0.163   2.579 -0.4157  0.3851 -0.1931
 7400SOL     OW29365   3.709   2.814   1.921 -0.1296 -0.7270 -0.3732
 7400SOL    HW229366   3.803   2.827   1.913 -0.3512  1.1290 -0.4856
 7400SOL    HW329367   3.689   2.838   2.012 -0.4286 -1.6712 -0.1768
 7400SOL    MW429368   3.718   2.819   1.932 -0.1983 -0.6067 -0.3621
 7401SOL     OW29369   2.445   3.381   6.020  0.2658  0.2425  1.0150
 7401SOL    HW229370   2.371   3.434   5.992  0.1103 -0.1498  0.6650
 7401SOL    HW329371   2.521   3.423   5.979 -0.0197 -0.6368 -0.4899
 7401SOL    MW429372   2.445   3.393   6.011  0.2076  0.0747  0.7703
 7402SOL     OW29373   3.911   6.311   1.382 -0.0026 -0.5998 -0.2635
 7402SOL    HW229374   3.895   6.218   1.397 -1.8561 -0.2634  0.0745
 7402SOL    HW329375   3.872   6.354   1.458  2.0767  0.4058  0.3036
 7402SOL    MW429376   3.904   6.304   1.394  0.0272 -0.4227 -0.1441
 7403SOL     OW29377   0.187   1.440   3.310  0.1879  0.1109  0.3646
 7403SOL    HW229378   0.188   1.452   3.215 -0.4471 -0.4116  0.2885
 7403SOL    HW329379   0.185   1.528   3.346 -1.1623  0.2921 -0.1301
 7403SOL    MW429380   0.187   1.453   3.302 -0.0740  0.0659  0.2893
 7404SOL     OW29381   3.922   3.189   1.556  0.1660  1.0841 -0.4922
 7404SOL    HW229382   3.976   3.114   1.582  0.8778  1.0350 -1.9932
 7404SOL    HW329383   3.957   3.263   1.605  0.6923  0.7882 -0.4206
 7404SOL    MW429384   3.933   3.189   1.566  0.3294  1.0386 -0.6808
 7405SOL     OW29385   2.542   2.832   0.755  0.2788  0.2070  0.1402
 7405SOL    HW229386   2.570   2.854   0.844 -1.3037 -2.6462  1.5017
 7405SOL    HW329387   2.448   2.852   0.755  0.3166  0.4384 -1.0287
 7405SOL    MW429388   2.533   2.838   0.767  0.0750 -0.1389  0.1656
 7406SOL     OW29389   5.372   3.535   2.221 -0.3201 -0.2639 -0.2250
 7406SOL    HW229390   5.392   3.449   2.182 -1.5170 -0.9109  0.5327
 7406SOL    HW329391   5.308   3.516   2.289 -1.5757  1.3904 -0.8861
 7406SOL    MW429392   5.366   3.521   2.225 -0.6437 -0.1310 -0.2123
 7407SOL     OW29393   5.459   3.086   4.679 -0.1568  0.0454  0.2790
 7407SOL    HW229394   5.542   3.096   4.633 -1.3926  1.8543 -1.8035
 7407SOL    HW329395   5.404   3.037   4.617 -0.8675 -0.4829  1.3077
 7407SOL    MW429396   5.462   3.081   4.665 -0.4136  0.2144  0.1400
 7408SOL     OW29397   5.895   6.335   2.832 -0.0081  0.3664  0.2860
 7408SOL    HW229398   5.911   6.313   2.740  0.4948  1.0085  0.2162
 7408SOL    HW329399   5.863   6.425   2.830  0.9669  0.7386  0.8158
 7408SOL    MW429400   5.893   6.344   2.819  0.1869  0.5002  0.3467
 7409SOL     OW29401   2.259   1.245   2.621  0.2125  0.0767  0.2329
 7409SOL    HW229402   2.186   1.212   2.569  1.4837 -1.5900 -0.5753
 7409SOL    HW329403   2.331   1.255   2.558  0.2941  3.3381  0.6506
 7409SOL    MW429404   2.259   1.242   2.606  0.3910  0.2871  0.1814
 7410SOL     OW29405   6.267   5.155   6.376 -0.6889  0.2229 -0.6495
 7410SOL    HW229406   6.363   5.158   6.370 -0.6395  1.6485  0.3067
 7410SOL    HW329407   6.240   5.247   6.374 -1.8647 -0.0178  1.2758
 7410SOL    MW429408   6.276   5.168   6.375 -0.8375  0.3792 -0.2693
 7411SOL     OW29409   5.942   4.613   3.933  0.2946  0.1808  0.0771
 7411SOL    HW229410   6.005   4.651   3.872 -1.4240 -0.5107 -2.2604
 7411SOL    HW329411   5.899   4.688   3.973  1.0000  0.6481 -0.0161
 7411SOL    MW429412   5.945   4.628   3.930  0.1609  0.1512 -0.2436
 7412SOL     OW29413   1.007   1.159   1.821 -0.2144 -0.4835  0.2264
 7412SOL    HW229414   0.952   1.226   1.780 -0.4823  0.8852  2.5974
 7412SOL    HW329415   0.996   1.081   1.766 -1.5400  0.8157 -1.4689
 7412SOL    MW429416   0.998   1.158   1.808 -0.4246 -0.1315  0.3155
 7413SOL     OW29417   0.827   5.924   0.186  0.1332  1.1840  0.4547
 7413SOL    HW229418   0.916   5.929   0.152 -0.2620  0.8719 -0.6452
 7413SOL    HW329419   0.831   5.856   0.253  0.4288  0.1788 -0.5616
 7413SOL    MW429420   0.839   5.916   0.191  0.1201  1.0102  0.1755
 7414SOL     OW29421   2.427   1.872   5.611 -0.3490  0.2062  0.1452
 7414SOL    HW229422   2.430   1.940   5.544  0.9813 -0.9869 -1.0713
 7414SOL    HW329423   2.471   1.797   5.571  0.2877 -0.6266  2.2739
 7414SOL    MW429424   2.433   1.871   5.597 -0.0895 -0.0611  0.2655
 7415SOL     OW29425   1.189   2.644   5.392 -0.3529  0.3921 -0.1970
 7415SOL    HW229426   1.276   2.638   5.431 -0.8837  2.1576  1.4453
 7415SOL    HW329427   1.132   2.596   5.453 -0.5115 -1.1685 -1.5094
 7415SOL    MW429428   1.193   2.637   5.405 -0.4439  0.4192 -0.1535
 7416SOL     OW29429   5.681   5.747   3.708 -0.3475 -0.3227 -0.2819
 7416SOL    HW229430   5.601   5.704   3.680 -0.0784 -2.0210  1.3705
 7416SOL    HW329431   5.703   5.706   3.791  0.3113  2.5699  1.1233
 7416SOL    MW429432   5.674   5.736   3.715 -0.2251 -0.1651  0.1215
 7417SOL     OW29433   6.370   5.347   1.838  0.3401 -0.0402 -0.3649
 7417SOL    HW229434   6.366   5.383   1.750  0.3619  0.8904  0.0039
 7417SOL    HW329435   6.281   5.355   1.872  0.8507  2.1132  0.6451
 7417SOL    MW429436   6.358   5.353   1.831  0.4104  0.3667 -0.1830
 7418SOL     OW29437   6.050   0.952   5.950 -0.1813 -0.8368 -0.7045
 7418SOL    HW229438   6.121   0.956   6.014  1.4397 -1.8172 -2.3565
 7418SOL    HW329439   6.000   1.033   5.965  2.4872  0.9528 -0.8043
 7418SOL    MW429440   6.052   0.964   5.961  0.3846 -0.7300 -0.9356
 7419SOL     OW29441   5.160   2.356   2.310 -0.1440 -0.1461  0.6286
 7419SOL    HW229442   5.070   2.365   2.277  0.5474  1.4795 -1.0180
 7419SOL    HW329443   5.186   2.267   2.283 -1.4823 -0.9471  1.8398
 7419SOL    MW429444   5.151   2.345   2.302 -0.2294 -0.0373  0.5712
 7420SOL     OW29445   2.965   0.375   2.385  0.0892  0.1697  0.6264
 7420SOL    HW229446   2.916   0.316   2.327 -0.4621 -0.7113  1.9454
 7420SOL    HW329447   2.937   0.463   2.359 -4.0099 -0.2985  2.7226
 7420SOL    MW429448   2.955   0.379   2.374 -0.5243 -0.0083  1.0770
 7421SOL     OW29449   5.018   2.308   5.488 -0.1740 -0.5082  0.4536
 7421SOL    HW229450   5.017   2.247   5.563 -3.2910  0.4276  1.3034
 7421SOL    HW329451   5.059   2.387   5.523  1.3654 -1.1310  0.1471
 7421SOL    MW429452   5.023   2.310   5.503 -0.3821 -0.4669  0.5253
 7422SOL     OW29453   2.899   0.787   5.234 -0.4132  0.4092  0.1459
 7422SOL    HW229454   2.914   0.723   5.164 -0.3193  0.1080  0.4370
 7422SOL    HW329455   2.923   0.740   5.314 -1.8217  0.2949  0.5213
 7422SOL    MW429456   2.904   0.773   5.235 -0.5866  0.3544  0.2338
 7423SOL     OW29457   5.817   3.692   0.733  0.4988 -0.0666  0.3225
 7423SOL    HW229458   5.754   3.717   0.665 -1.5833 -0.0206  2.1754
 7423SOL    HW329459   5.861   3.615   0.697 -0.4324  0.0351 -1.1284
 7423SOL    MW429460   5.815   3.685   0.719  0.1012 -0.0471  0.3755
 7424SOL     OW29461   4.627   2.212   1.187 -0.5646  0.2857  0.9253
 7424SOL    HW229462   4.630   2.191   1.281 -1.2981 -0.2136  0.8456
 7424SOL    HW329463   4.661   2.134   1.144 -0.8510  0.2604  0.7442
 7424SOL    MW429464   4.632   2.199   1.194 -0.6992  0.2165  0.8909
 7425SOL     OW29465   5.771   3.170   5.102  0.2393  0.1073  0.4008
 7425SOL    HW229466   5.735   3.194   5.016  1.3205  1.8532  0.3898
 7425SOL    HW329467   5.746   3.242   5.160  2.0813  0.4565  0.8151
 7425SOL    MW429468   5.763   3.182   5.098  0.6250  0.3837  0.4540
 7426SOL     OW29469   5.361   2.266   3.220 -0.4775  0.2626  0.0218
 7426SOL    HW229470   5.396   2.261   3.131 -1.6453 -2.3453 -0.4087
 7426SOL    HW329471   5.301   2.340   3.219  0.3780  0.9594 -1.0171
 7426SOL    MW429472   5.358   2.275   3.208 -0.5187  0.0105 -0.1721
 7427SOL     OW29473   1.241   0.800   3.968 -0.7760 -0.2085 -0.2465
 7427SOL    HW229474   1.328   0.761   3.978 -1.0358 -0.8855 -0.5163
 7427SOL    HW329475   1.255   0.876   3.912 -0.3299 -0.2129 -0.1454
 7427SOL    MW429476   1.255   0.805   3.962 -0.7514 -0.2984 -0.2687
 7428SOL     OW29477   2.886   1.467   5.788  0.1883  0.1189 -0.3459
 7428SOL    HW229478   2.861   1.557   5.769 -0.0822  0.1108 -0.0276
 7428SOL    HW329479   2.963   1.475   5.845  0.3008  0.1460 -0.5000
 7428SOL    MW429480   2.893   1.480   5.793  0.1674  0.1214 -0.3242
 7429SOL     OW29481   6.423   0.632   4.302 -0.3193 -0.6343 -0.3615
 7429SOL    HW229482   6.431   0.577   4.224 -0.5294 -0.6014 -0.4088
 7429SOL    HW329483   6.423   0.722   4.269 -1.3620 -0.6448 -0.4171
 7429SOL    MW429484   6.424   0.637   4.288 -0.4846 -0.6313 -0.3751
 7430SOL     OW29485   1.877   1.255   0.292  0.7012  0.2296 -0.4832
 7430SOL    HW229486   1.940   1.189   0.321 -1.0657 -0.6289  1.6844
 7430SOL    HW329487   1.841   1.218   0.211  0.5669 -0.9486  0.0816
 7430SOL    MW429488   1.880   1.241   0.285  0.4503 -0.0391 -0.1227
 7431SOL     OW29489   2.924   5.293   5.579  0.1418  0.7217  0.2388
 7431SOL    HW229490   2.883   5.379   5.589  0.9565  1.3934 -1.6805
 7431SOL    HW329491   3.015   5.313   5.557  0.3447 -0.6379 -0.2150
 7431SOL    MW429492   2.931   5.307   5.577  0.2760  0.6310 -0.0743
 7432SOL     OW29493   3.011   1.321   2.260 -0.2022 -0.0478  0.5723
 7432SOL    HW229494   3.000   1.295   2.351  0.3112 -1.2308  0.3183
 7432SOL    HW329495   2.921   1.325   2.225 -0.4364  0.9831  1.2657
 7432SOL    MW429496   2.997   1.318   2.267 -0.1654 -0.0678  0.6303
 7433SOL     OW29497   5.449   2.119   4.891  0.1709  0.1785 -0.5156
 7433SOL    HW229498   5.457   2.200   4.941  0.9558 -1.0403  1.4849
 7433SOL    HW329499   5.536   2.105   4.853  0.5278 -0.5163  0.5123
 7433SOL    MW429500   5.461   2.128   4.893  0.3216 -0.0740 -0.1160
 7434SOL     OW29501   6.313   4.229   1.004  0.5307  0.2658  0.2036
 7434SOL    HW229502   6.314   4.141   1.042  1.5587 -0.1479 -0.7215
 7434SOL    HW329503   6.352   4.284   1.071 -0.1797  0.0471  0.8187
 7434SOL    MW429504   6.318   4.224   1.018  0.5726  0.1824  0.1627
 7435SOL     OW29505   2.051   3.899   6.117 -0.1874  0.1789 -0.0076
 7435SOL    HW229506   2.117   3.948   6.069 -0.8529  0.9268 -0.1837
 7435SOL    HW329507   1.985   3.964   6.140  0.2141 -0.0931  2.1233
 7435SOL    MW429508   2.051   3.914   6.114 -0.2222  0.2417  0.2503
 7436SOL     OW29509   2.753   4.202   2.774 -0.2206  0.5606 -0.1628
 7436SOL    HW229510   2.794   4.191   2.860 -3.5951 -0.0839  1.5306
 7436SOL    HW329511   2.701   4.282   2.782 -1.1391  0.1139 -1.3507
 7436SOL    MW429512   2.752   4.211   2.786 -0.7870  0.4166 -0.0961
 7437SOL     OW29513   5.972   5.491   2.304  0.0458  0.0103 -0.1106
 7437SOL    HW229514   5.992   5.573   2.257  2.0177 -1.8715 -2.8654
 7437SOL    HW329515   6.041   5.483   2.369  0.8887 -0.2759 -1.0227
 7437SOL    MW429516   5.984   5.501   2.306  0.4172 -0.2757 -0.5944
 7438SOL     OW29517   5.780   3.345   5.424 -0.1928 -0.2651 -0.1070
 7438SOL    HW229518   5.841   3.280   5.460  1.4658  0.7276 -0.9971
 7438SOL    HW329519   5.828   3.386   5.352 -2.1004  0.2729 -1.1367
 7438SOL    MW429520   5.795   3.342   5.420 -0.2257 -0.0631 -0.3603
 7439SOL     OW29521   6.353   2.747   4.779  0.5592  0.6673  0.3289
 7439SOL    HW229522   6.321   2.672   4.730  1.7571  0.9469 -0.9338
 7439SOL    HW329523   6.392   2.710   4.858  1.5419 -0.0982 -0.4973
 7439SOL    MW429524   6.353   2.732   4.783  0.8469  0.6032  0.0533
 7440SOL     OW29525   1.194   0.975   4.558 -0.2968  0.6358 -0.3470
 7440SOL    HW229526   1.147   1.007   4.635 -0.6782  2.8026 -1.4188
 7440SOL    HW329527   1.287   0.989   4.579 -0.3921  1.1068 -0.2297
 7440SOL    MW429528   1.200   0.981   4.571 -0.3597  0.9838 -0.4729
 7441SOL     OW29529   0.538   1.868   4.056  0.9588 -0.0561  0.3265
 7441SOL    HW229530   0.556   1.957   4.024 -0.7738 -0.5254 -2.2520
 7441SOL    HW329531   0.451   1.874   4.094  1.1272 -0.5226  0.7916
 7441SOL    MW429532   0.529   1.880   4.057  0.7524 -0.1796  0.0477
 7442SOL     OW29533   2.667   4.548   4.602  0.7334 -0.5638 -0.2770
 7442SOL    HW229534   2.670   4.601   4.682 -0.9910 -0.6179 -0.1483
 7442SOL    HW329535   2.581   4.506   4.604  1.5813 -2.4271 -0.9987
 7442SOL    MW429536   2.656   4.550   4.613  0.6177 -0.8168 -0.3553
 7443SOL     OW29537   3.626   5.656   0.875  0.0476 -0.3594 -0.3383
 7443SOL    HW229538   3.551   5.710   0.851  0.4773  0.0813 -0.6969
 7443SOL    HW329539   3.686   5.662   0.801 -0.2512 -2.0217 -0.7702
 7443SOL    MW429540   3.624   5.664   0.862  0.0649 -0.5206 -0.4426
 7444SOL     OW29541   6.231   0.290   0.709 -0.1242  0.1517  0.2784
 7444SOL    HW229542   6.290   0.317   0.780 -1.2096  0.8415  0.9426
 7444SOL    HW329543   6.228   0.365   0.651 -0.4163  0.1463  0.2880
 7444SOL    MW429544   6.239   0.303   0.711 -0.3059  0.2420  0.3673
 7445SOL     OW29545   3.321   3.947   1.995  0.7238  0.4024 -0.1754
 7445SOL    HW229546   3.318   3.875   1.932  1.8283  0.2508 -0.0793
 7445SOL    HW329547   3.231   3.980   1.998  0.3707 -0.4474 -0.8244
 7445SOL    MW429548   3.308   3.942   1.987  0.8229  0.2703 -0.2484
 7446SOL     OW29549   5.245   5.003   0.887 -0.7113  0.3490 -0.3578
 7446SOL    HW229550   5.319   5.062   0.876 -0.4154  0.3011  1.1778
 7446SOL    HW329551   5.220   5.013   0.978 -1.8308 -0.5368 -0.5531
 7446SOL    MW429552   5.252   5.012   0.897 -0.8200  0.2258 -0.1810
 7447SOL     OW29553   1.381   4.935   0.270 -0.3105  0.7065  0.5470
 7447SOL    HW229554   1.343   4.886   0.197  1.0321  0.4969 -0.0391
 7447SOL    HW329555   1.316   4.929   0.339 -1.0330 -0.2290 -0.1870
 7447SOL    MW429556   1.367   4.928   0.269 -0.2287  0.5554  0.3728
 7448SOL     OW29557   2.108   4.119   0.347 -0.1774  0.7516 -0.0190
 7448SOL    HW229558   2.032   4.061   0.355  0.0088  0.3538 -0.9202
 7448SOL    HW329559   2.154   4.109   0.429 -1.4504  1.5200  0.8248
 7448SOL    MW429560   2.104   4.110   0.359 -0.3208  0.8005 -0.0266
 7449SOL     OW29561   3.539   4.513   1.331 -0.6219  0.8399  0.4878
 7449SOL    HW229562   3.484   4.571   1.384 -0.6202 -0.0714  1.5081
 7449SOL    HW329563   3.484   4.438   1.311 -0.1535  0.5044  0.4280
 7449SOL    MW429564   3.525   4.511   1.335 -0.5599  0.6754  0.6145
 7450SOL     OW29565   1.832   3.923   0.043  0.2048  0.1106 -0.0922
 7450SOL    HW229566   1.906   3.876   0.005  1.2785  1.3832  0.3432
 7450SOL    HW329567   1.757   3.899  -0.011  0.4294 -3.0327  0.8156
 7450SOL    MW429568   1.832   3.914   0.031  0.3761 -0.1362  0.0850
 7451SOL     OW29569   0.571   4.575   0.039  0.4254 -0.1373 -0.7956
 7451SOL    HW229570   0.574   4.542  -0.051  1.6961  2.5982 -1.8766
 7451SOL    HW329571   0.645   4.635   0.045 -1.1010  1.7173  1.2620
 7451SOL    MW429572   0.581   4.578   0.028  0.3916  0.4683 -0.6668
 7452SOL     OW29573   6.088   5.949   1.029  0.0948  0.3969 -0.3965
 7452SOL    HW229574   5.997   5.957   1.001 -0.2435  0.8176  0.7657
 7452SOL    HW329575   6.098   5.856   1.051 -0.5959  0.6671  1.1817
 7452SOL    MW429576   6.077   5.937   1.028 -0.0410  0.4880 -0.0349
 7453SOL     OW29577   5.153   4.671   5.449 -0.2389  0.2341  0.0712
 7453SOL    HW229578   5.239   4.629   5.445  0.9448  2.5224 -0.7643
 7453SOL    HW329579   5.151   4.727   5.371 -1.6198  1.7594  1.1242
 7453SOL    MW429580   5.164   4.673   5.438 -0.2649  0.7372  0.0999
 7454SOL     OW29581   1.112   2.615   5.120  0.3846 -0.2157 -0.3366
 7454SOL    HW229582   1.083   2.692   5.071  0.4166 -0.7691 -1.2531
 7454SOL    HW329583   1.111   2.643   5.212  1.1177  1.1155 -0.7026
 7454SOL    MW429584   1.108   2.629   5.126  0.4855 -0.1131 -0.5058
 7455SOL     OW29585   2.941   3.913   0.149 -0.2027 -0.4793  0.6002
 7455SOL    HW229586   2.982   3.849   0.090  0.5757  0.3407  0.2325
 7455SOL    HW329587   2.849   3.915   0.121 -0.0349 -0.7487  0.0071
 7455SOL    MW429588   2.934   3.905   0.138 -0.0779 -0.4067  0.4735
 7456SOL     OW29589   2.937   3.661   4.357  0.3271  0.1373  0.3613
 7456SOL    HW229590   2.945   3.753   4.334 -1.0682  0.0513 -0.5467
 7456SOL    HW329591   2.920   3.616   4.274  0.1972 -0.8383  0.8922
 7456SOL    MW429592   2.936   3.667   4.343  0.1259 -0.0028  0.3116
 7457SOL     OW29593   1.554   2.760   4.207 -0.0121  0.4710  0.1119
 7457SOL    HW229594   1.521   2.744   4.295  1.0062  0.9033  0.5825
 7457SOL    HW329595   1.515   2.690   4.154  0.3613 -0.5553  1.1495
 7457SOL    MW429596   1.544   2.749   4.212  0.1715  0.3926  0.3109
 7458SOL     OW29597   4.236   4.480   3.899 -0.3861  0.2933  0.6104
 7458SOL    HW229598   4.169   4.443   3.956  0.7143 -0.6431  1.3564
 7458SOL    HW329599   4.209   4.571   3.885 -2.1686 -0.2498  0.2839
 7458SOL    MW429600   4.224   4.487   3.905 -0.4761  0.0981  0.6658
 7459SOL     OW29601   2.560   2.986   2.480  0.1462 -0.2114 -0.4589
 7459SOL    HW229602   2.560   2.933   2.399  0.4529  0.0778 -0.6476
 7459SOL    HW329603   2.560   2.921   2.550  0.4847 -0.4656 -0.6902
 7459SOL    MW429604   2.560   2.970   2.478  0.2313 -0.2068 -0.5143
 7460SOL     OW29605   1.751   0.909   6.053 -0.0679 -0.2693 -0.4467
 7460SOL    HW229606   1.688   0.971   6.092 -0.3337  0.4256 -1.9347
 7460SOL    HW329607   1.801   0.877   6.128  0.5740  2.3054  0.3195
 7460SOL    MW429608   1.749   0.913   6.068 -0.0183  0.1621 -0.5419
 7461SOL     OW29609   3.352   6.383   3.303 -0.4068  0.1613 -0.2010
 7461SOL    HW229610   3.368   6.462   3.253  0.7160  0.0133 -0.0931
 7461SOL    HW329611   3.351   6.412   3.394 -0.3274  0.1053 -0.1822
 7461SOL    MW429612   3.354   6.397   3.308 -0.2481  0.1344 -0.1843
 7462SOL     OW29613   5.098   2.625   5.436 -0.7094 -0.3306 -0.3386
 7462SOL    HW229614   5.049   2.595   5.359 -2.7330 -0.1641  0.8456
 7462SOL    HW329615   5.039   2.611   5.510  0.7834  0.5132  1.0776
 7462SOL    MW429616   5.084   2.619   5.435 -0.7795 -0.1973  0.0045
 7463SOL     OW29617   4.557   2.285   5.939  0.4259 -0.0563 -0.3183
 7463SOL    HW229618   4.465   2.291   5.916  0.1746 -0.7733  0.4555
 7463SOL    HW329619   4.559   2.299   6.034  1.1121 -0.0754 -0.3215
 7463SOL    MW429620   4.545   2.288   5.948  0.4833 -0.1534 -0.2166
 7464SOL     OW29621   0.766   4.194   4.681 -0.6309  0.2806 -0.6016
 7464SOL    HW229622   0.770   4.289   4.689  0.6460  0.2590 -0.8422
 7464SOL    HW329623   0.801   4.176   4.594  0.9265 -0.5226  0.1646
 7464SOL    MW429624   0.771   4.204   4.671 -0.2569  0.1718 -0.5322
 7465SOL     OW29625   4.275   0.243   5.879 -0.1809 -0.2108  0.0026
 7465SOL    HW229626   4.334   0.221   5.807  0.2430  0.8242  0.0174
 7465SOL    HW329627   4.331   0.285   5.944 -1.1025  1.9377 -0.5060
 7465SOL    MW429628   4.290   0.245   5.878 -0.2465  0.2092 -0.0626
 7466SOL     OW29629   5.786   5.311   2.741 -0.6722  0.3720 -0.9350
 7466SOL    HW229630   5.801   5.240   2.678 -1.6371  0.0466 -0.8130
 7466SOL    HW329631   5.699   5.344   2.720  0.4287  2.7621 -2.1660
 7466SOL    MW429632   5.776   5.306   2.730 -0.6542  0.6444 -1.0813
 7467SOL     OW29633   0.609   4.739   4.528 -0.4637 -0.0619 -0.0399
 7467SOL    HW229634   0.624   4.808   4.463 -2.4984  1.1217  0.6555
 7467SOL    HW329635   0.694   4.729   4.572 -0.0773  1.9871 -0.2114
 7467SOL    MW429636   0.622   4.747   4.526 -0.6811  0.3646  0.0293
 7468SOL     OW29637   3.991   5.956   6.078  0.4429 -0.6596 -0.1230
 7468SOL    HW229638   4.078   5.968   6.116  0.0182 -0.2939  0.7632
 7468SOL    HW329639   3.967   5.867   6.104  0.4732 -0.6891 -0.1976
 7468SOL    MW429640   4.000   5.946   6.087  0.3908 -0.6152 -0.0159
 7469SOL     OW29641   2.556   3.118   1.780 -0.3369 -0.3851 -0.1345
 7469SOL    HW229642   2.531   3.107   1.872  0.7787 -1.0342  0.1131
 7469SOL    HW329643   2.629   3.179   1.783 -0.3593 -0.3362 -0.6076
 7469SOL    MW429644   2.562   3.124   1.793 -0.1926 -0.4643 -0.1643
 7470SOL     OW29645   6.014   1.285   1.116  0.5537 -0.2162  0.3199
 7470SOL    HW229646   5.946   1.325   1.062 -0.0363  0.9238  1.8351
 7470SOL    HW329647   6.096   1.314   1.075  0.2356 -2.1145 -1.8874
 7470SOL    MW429648   6.016   1.294   1.103  0.4339 -0.3162  0.2286
 7471SOL     OW29649   2.437   2.037   0.472 -0.0407 -0.3506 -0.5095
 7471SOL    HW229650   2.382   2.092   0.527 -0.3959 -1.2198  0.0157
 7471SOL    HW329651   2.511   2.093   0.449 -2.7074  2.1227 -4.1638
 7471SOL    MW429652   2.440   2.052   0.476 -0.4394 -0.1389 -0.9224
 7472SOL     OW29653   2.630   6.406   1.770  0.1629  0.2080  0.3419
 7472SOL    HW229654   2.577   6.486   1.769 -0.3866 -0.0647  2.1277
 7472SOL    HW329655   2.663   6.397   1.681  2.4616  3.8601  0.6467
 7472SOL    MW429656   2.627   6.415   1.758  0.3937  0.6539  0.6177
 7473SOL     OW29657   2.123   0.871   5.838 -0.0096  0.3399  0.0881
 7473SOL    HW229658   2.036   0.840   5.862  0.2069 -0.0807  0.3480
 7473SOL    HW329659   2.166   0.793   5.802 -0.8010  1.2307 -3.0968
 7473SOL    MW429660   2.117   0.856   5.836 -0.0854  0.4019 -0.2978
 7474SOL     OW29661   0.955   5.748   0.383  0.1159  0.0838  0.1361
 7474SOL    HW229662   0.964   5.657   0.354  0.5280  0.6805 -1.7324
 7474SOL    HW329663   0.926   5.741   0.474 -0.7808 -1.9036 -0.2494
 7474SOL    MW429664   0.953   5.735   0.391  0.0520 -0.0997 -0.1613
 7475SOL     OW29665   4.507   1.781   2.567 -0.5203  0.3098  0.3185
 7475SOL    HW229666   4.602   1.788   2.571 -0.5758  0.6857  1.0027
 7475SOL    HW329667   4.488   1.691   2.595 -0.3903  0.3562  0.5544
 7475SOL    MW429668   4.517   1.770   2.571 -0.5105  0.3655  0.4399
 7476SOL     OW29669   1.715   1.747   4.723 -0.3064  0.3170  0.0380
 7476SOL    HW229670   1.736   1.801   4.647 -0.1992  2.2986  1.4067
 7476SOL    HW329671   1.620   1.754   4.732 -0.2836  0.3262  0.2637
 7476SOL    MW429672   1.705   1.755   4.714 -0.2893  0.5797  0.2484
 7477SOL     OW29673   4.784   4.824   1.308  0.4907  0.2605  0.1975
 7477SOL    HW229674   4.877   4.835   1.325  0.3210 -0.0939  1.4655
 7477SOL    HW329675   4.778   4.741   1.262  0.9484  1.1481 -1.5388
 7477SOL    MW429676   4.795   4.815   1.304  0.5287  0.3308  0.1357
 7478SOL     OW29677   0.614   3.864   5.931  0.5221  0.1763 -0.0283
 7478SOL    HW229678   0.688   3.907   5.889 -0.0539 -0.7125 -2.0762
 7478SOL    HW329679   0.645   3.843   6.019  2.2349  0.9756 -0.3986
 7478SOL    MW429680   0.628   3.867   5.937  0.6721  0.1645 -0.3473
 7479SOL     OW29681   5.543   0.692   3.554 -0.6725 -0.2630  0.7920
 7479SOL    HW229682   5.601   0.763   3.582 -0.5507 -0.0432  0.0041
 7479SOL    HW329683   5.520   0.713   3.464 -0.7634 -1.1391  0.5933
 7479SOL    MW429684   5.548   0.704   3.546 -0.6684 -0.3496  0.6618
 7480SOL     OW29685   2.743   2.752   2.806  0.2621 -0.7668  0.0472
 7480SOL    HW229686   2.710   2.679   2.859 -0.5615  0.7595  1.7724
 7480SOL    HW329687   2.728   2.725   2.716  0.0728 -2.7579  0.6225
 7480SOL    MW429688   2.737   2.739   2.801  0.1285 -0.8281  0.3507
 7481SOL     OW29689   5.865   3.724   3.717  0.6321 -0.3651  0.5780
 7481SOL    HW229690   5.871   3.737   3.622  2.9420  0.7405  0.7916
 7481SOL    HW329691   5.923   3.649   3.734  2.0922  0.8793  1.3075
 7481SOL    MW429692   5.874   3.716   3.706  1.1295 -0.0550  0.7025
 7482SOL     OW29693   1.682   5.528   5.577  0.1113 -0.0413 -0.5210
 7482SOL    HW229694   1.764   5.497   5.539 -1.3545 -0.5320 -3.6208
 7482SOL    HW329695   1.624   5.452   5.575 -1.1806  0.9087 -0.8688
 7482SOL    MW429696   1.685   5.514   5.572 -0.2525  0.0193 -0.9758
 7483SOL     OW29697   3.613   0.907   1.965 -0.0185  0.3849 -0.0094
 7483SOL    HW229698   3.543   0.858   2.009 -0.1307 -0.0355 -0.6466
 7483SOL    HW329699   3.609   0.879   1.874  1.4812 -0.2305  0.0873
 7483SOL    MW429700   3.603   0.897   1.959  0.1645  0.2482 -0.0807
 7484SOL     OW29701   0.485   1.812   4.849  0.0709  0.4867 -0.2158
 7484SOL    HW229702   0.460   1.734   4.899  1.3164  0.2972  0.1478
 7484SOL    HW329703   0.404   1.839   4.805 -0.4323 -0.9008 -0.2049
 7484SOL    MW429704   0.471   1.805   4.849  0.1689  0.2786 -0.1664
 7485SOL     OW29705   5.550   0.575   0.318 -0.2360 -0.3357 -0.5819
 7485SOL    HW229706   5.617   0.510   0.296  1.2876  1.3412 -1.1613
 7485SOL    HW329707   5.467   0.530   0.301  0.6657 -2.7225  0.8382
 7485SOL    MW429708   5.547   0.561   0.313  0.0840 -0.4293 -0.4710
 7486SOL     OW29709   0.461   2.271   0.400  0.0461 -0.3649  0.3746
 7486SOL    HW229710   0.407   2.196   0.374  0.6187 -1.1134  1.2512
 7486SOL    HW329711   0.398   2.338   0.426 -0.5902  0.6036 -3.1290
 7486SOL    MW429712   0.446   2.270   0.400  0.0377 -0.3358  0.0280
 7487SOL     OW29713   6.018   1.095   0.380 -0.2921  1.1001 -0.8411
 7487SOL    HW229714   6.042   1.012   0.337 -1.1939  0.0066  0.6943
 7487SOL    HW329715   5.946   1.129   0.327 -1.0041  0.0706 -0.5554
 7487SOL    MW429716   6.012   1.088   0.367 -0.5050  0.8200 -0.6008
 7488SOL     OW29717   5.147   3.108   1.214  0.0021  0.0116 -0.0522
 7488SOL    HW229718   5.195   3.180   1.255 -0.1195 -0.5420  1.0949
 7488SOL    HW329719   5.123   3.142   1.127  1.5122  0.6822 -0.2464
 7488SOL    MW429720   5.150   3.122   1.208  0.1853  0.0270  0.0735
 7489SOL     OW29721   0.220   6.241   0.897  0.0090  0.2956  0.2173
 7489SOL    HW229722   0.280   6.169   0.878  1.3897  1.3348  0.4969
 7489SOL    HW329723   0.216   6.244   0.992  0.1399  0.7188  0.2119
 7489SOL    MW429724   0.228   6.232   0.907  0.2084  0.4885  0.2535
 7490SOL     OW29725   2.393   0.751   1.712  0.6758 -0.4548  0.5735
 7490SOL    HW229726   2.381   0.758   1.617  0.2914  1.3729  0.7122
 7490SOL    HW329727   2.329   0.813   1.748 -0.8248 -2.7797  2.1714
 7490SOL    MW429728   2.383   0.760   1.704  0.4271 -0.5204  0.8026
 7491SOL     OW29729   1.667   1.259   1.863  0.3966  0.1463  0.3617
 7491SOL    HW229730   1.605   1.235   1.932  0.3683  0.0055  0.2877
 7491SOL    HW329731   1.652   1.194   1.794  1.7252 -0.8731  0.9850
 7491SOL    MW429732   1.657   1.247   1.863  0.5682 -0.0068  0.4342
 7492SOL     OW29733   5.615   4.298   5.651 -0.0964  0.5159 -0.9378
 7492SOL    HW229734   5.648   4.387   5.667 -2.1315  1.0088  1.1129
 7492SOL    HW329735   5.607   4.260   5.739 -0.6359 -1.1718 -1.6849
 7492SOL    MW429736   5.618   4.305   5.665 -0.4361  0.3583 -0.7658
 7493SOL     OW29737   2.146   2.155   3.794 -0.1828  0.2918  0.1714
 7493SOL    HW229738   2.136   2.141   3.888  0.6099 -0.7885  0.1218
 7493SOL    HW329739   2.240   2.157   3.780 -0.2454 -1.3617 -0.8095
 7493SOL    MW429740   2.157   2.153   3.805 -0.0865 -0.0689  0.0355
 7494SOL     OW29741   2.824   1.320   3.514 -0.2069 -0.1684 -0.7080
 7494SOL    HW229742   2.862   1.298   3.429 -1.0069 -0.4943 -0.9932
 7494SOL    HW329743   2.752   1.379   3.494 -0.5749 -0.4641 -0.2776
 7494SOL    MW429744   2.820   1.325   3.500 -0.3610 -0.2504 -0.6888
 7495SOL     OW29745   2.560   0.743   0.072  0.1951 -0.5515  0.4405
 7495SOL    HW229746   2.550   0.650   0.094 -0.0052 -0.4460  0.7992
 7495SOL    HW329747   2.654   0.759   0.080  1.0763 -1.8822 -4.2918
 7495SOL    MW429748   2.571   0.733   0.076  0.2849 -0.7132 -0.1365
 7496SOL     OW29749   6.380   2.750   0.267  0.3832  0.2661 -0.0712
 7496SOL    HW229750   6.454   2.808   0.249  0.2393  0.5296  0.1878
 7496SOL    HW329751   6.413   2.689   0.333  1.3269 -1.5059 -2.0524
 7496SOL    MW429752   6.394   2.750   0.273  0.4887  0.0671 -0.2984
 7497SOL     OW29753   5.852   2.019   6.383 -0.3597 -0.0759  0.2805
 7497SOL    HW229754   5.896   2.101   6.407  2.7024 -0.6046 -2.7636
 7497SOL    HW329755   5.910   1.950   6.417 -0.1045 -0.8495 -1.6127
 7497SOL    MW429756   5.866   2.021   6.391  0.0780 -0.2477 -0.3709
 7498SOL     OW29757   2.013   2.874   3.602 -0.5043  0.9121 -0.5529
 7498SOL    HW229758   2.091   2.924   3.577  0.1496 -0.4629 -1.3741
 7498SOL    HW329759   1.940   2.933   3.581  0.1914  1.1734 -2.4321
 7498SOL    MW429760   2.014   2.889   3.596 -0.3263  0.7651 -0.9092
 7499SOL     OW29761   1.055   5.248   3.010  0.1523 -0.1450  0.4131
 7499SOL    HW229762   1.075   5.154   3.014  0.2988 -0.0799  1.9862
 7499SOL    HW329763   0.959   5.252   3.009  0.1464 -0.3267 -1.0370
 7499SOL    MW429764   1.045   5.236   3.011  0.1708 -0.1604  0.4293
 7500SOL     OW29765   5.566   3.727   2.124  0.3762 -0.0950  0.2185
 7500SOL    HW229766   5.563   3.801   2.185  0.9741 -1.6860  2.3284
 7500SOL    HW329767   5.494   3.671   2.151 -0.7810  0.1694 -2.0885
 7500SOL    MW429768   5.556   3.730   2.136  0.3024 -0.2700  0.1925
 7501SOL     OW29769   0.597   0.716   1.086  0.2673 -0.0377 -0.0816
 7501SOL    HW229770   0.580   0.707   1.179  0.9960 -4.0047 -0.1869
 7501SOL    HW329771   0.693   0.709   1.078  0.2456  0.5520 -1.1268
 7501SOL    MW429772   0.608   0.714   1.097  0.3606 -0.4833 -0.2334
 7502SOL     OW29773   5.232   3.295   3.340 -0.4627 -0.4709 -0.6177
 7502SOL    HW229774   5.307   3.237   3.351 -0.3133 -0.1760 -0.0699
 7502SOL    HW329775   5.230   3.314   3.246  0.3968 -0.1454 -0.5755
 7502SOL    MW429776   5.242   3.290   3.329 -0.3296 -0.3891 -0.5399
 7503SOL     OW29777   5.741   1.939   2.288  0.2101  0.3461  0.2438
 7503SOL    HW229778   5.757   2.003   2.358 -2.6732 -0.4523  1.8011
 7503SOL    HW329779   5.768   1.855   2.325 -1.4104 -0.0939  0.5164
 7503SOL    MW429780   5.746   1.936   2.302 -0.3841  0.1827  0.4852
 7504SOL     OW29781   5.563   0.013   4.702 -0.2618  0.3475 -0.7760
 7504SOL    HW229782   5.477  -0.014   4.669 -1.5073  0.1870  2.2730
 7504SOL    HW329783   5.564   0.108   4.689 -0.5348  0.2618 -1.5106
 7504SOL    MW429784   5.552   0.022   4.696 -0.4622  0.3150 -0.4706
 7505SOL     OW29785   1.623   1.195   1.367 -0.3348 -0.3552 -0.8569
 7505SOL    HW229786   1.578   1.277   1.345  2.2216  0.8920 -1.9026
 7505SOL    HW329787   1.580   1.129   1.312 -2.5139  0.2118  0.0782
 7505SOL    MW429788   1.611   1.197   1.357 -0.2850 -0.1158 -0.8715
 7506SOL     OW29789   0.232   4.484   3.840 -0.6163  0.1880 -0.1792
 7506SOL    HW229790   0.322   4.499   3.810 -0.4541  0.2635  0.3365
 7506SOL    HW329791   0.181   4.479   3.759  0.0968 -1.5898 -0.5706
 7506SOL    MW429792   0.237   4.486   3.825 -0.5008 -0.0366 -0.1628
 7507SOL     OW29793   2.657   5.005   4.034 -0.5827 -0.2543  0.0253
 7507SOL    HW229794   2.571   4.965   4.044 -0.0417 -2.1354 -2.1931
 7507SOL    HW329795   2.716   4.947   4.082 -0.0144 -1.3849 -1.9405
 7507SOL    MW429796   2.654   4.992   4.042 -0.4364 -0.6516 -0.5267
 7508SOL     OW29797   2.053   2.629   2.428 -0.2260 -0.1559 -0.6743
 7508SOL    HW229798   1.989   2.562   2.451  0.8375 -0.1278  2.9664
 7508SOL    HW329799   2.004   2.694   2.379 -2.3226 -1.4046 -0.3332
 7508SOL    MW429800   2.038   2.629   2.424 -0.3623 -0.3170 -0.1490
 7509SOL     OW29801   6.201   3.207   3.835  0.0788 -0.0207  0.3205
 7509SOL    HW229802   6.215   3.115   3.814 -0.1125 -0.0633  0.3798
 7509SOL    HW329803   6.131   3.207   3.900 -1.5307  0.2862 -1.3336
 7509SOL    MW429804   6.193   3.195   3.840 -0.1588  0.0142  0.1100
 7510SOL     OW29805   0.984   5.654   5.655  0.3881  0.4122 -0.1462
 7510SOL    HW229806   0.934   5.727   5.693  0.0853  0.1389 -0.0076
 7510SOL    HW329807   0.937   5.632   5.574 -0.0886 -0.2491  0.2968
 7510SOL    MW429808   0.971   5.660   5.649  0.2852  0.2889 -0.0694
 7511SOL     OW29809   4.666   1.264   2.595  0.0101 -0.4575 -0.5175
 7511SOL    HW229810   4.742   1.313   2.626 -0.2832 -0.7684  0.7602
 7511SOL    HW329811   4.702   1.199   2.534  0.5834  0.3310 -1.0330
 7511SOL    MW429812   4.681   1.262   2.591  0.0470 -0.3945 -0.4169
 7512SOL     OW29813   2.179   5.789   4.514 -0.0683 -0.0524  0.0731
 7512SOL    HW229814   2.217   5.877   4.505 -0.3845 -0.0300 -1.3361
 7512SOL    HW329815   2.097   5.804   4.561  0.0002  0.3731  0.0672
 7512SOL    MW429816   2.173   5.803   4.519 -0.1010  0.0067 -0.1136
 7513SOL     OW29817   5.918   4.893   5.525  0.2631  0.2395 -0.1475
 7513SOL    HW229818   5.979   4.922   5.593  0.2353  0.3095 -0.1527
 7513SOL    HW329819   5.838   4.942   5.543  0.0368 -0.2350  0.1791
 7513SOL    MW429820   5.915   4.903   5.536  0.2296  0.1861 -0.1051
 7514SOL     OW29821   5.354   5.753   2.146 -0.2583  0.3581 -0.1064
 7514SOL    HW229822   5.442   5.787   2.131 -1.2861  2.9006 -0.8983
 7514SOL    HW329823   5.341   5.762   2.240  0.5316 -0.7104  0.1313
 7514SOL    MW429824   5.364   5.759   2.156 -0.2897  0.5525 -0.1795
 7515SOL     OW29825   3.123   5.807   3.850  0.5079  0.5262 -0.5358
 7515SOL    HW229826   3.107   5.891   3.806  0.3372  2.3406  2.6382
 7515SOL    HW329827   3.202   5.822   3.902  0.0894 -1.0202  0.6375
 7515SOL    MW429828   3.131   5.820   3.851  0.4302  0.5616  0.0378
 7516SOL     OW29829   6.133   3.613   1.277 -0.6141  0.0645 -0.5566
 7516SOL    HW229830   6.038   3.606   1.272 -0.6253  0.6028 -1.3897
 7516SOL    HW329831   6.157   3.572   1.360 -1.5454 -0.3312 -0.4820
 7516SOL    MW429832   6.124   3.607   1.287 -0.7385  0.0833 -0.6567
 7517SOL     OW29833   2.953   5.924   2.898 -0.5062  0.1823  0.0310
 7517SOL    HW229834   2.973   6.009   2.860  2.5845  0.1620  1.2989
 7517SOL    HW329835   2.999   5.861   2.842 -1.6078 -0.5568 -0.0885
 7517SOL    MW429836   2.962   5.927   2.885 -0.2438  0.0821  0.1825
 7518SOL     OW29837   4.687   2.508   0.050 -0.3642  0.0658  0.5429
 7518SOL    HW229838   4.613   2.454   0.076 -1.0759  0.3942 -0.7075
 7518SOL    HW329839   4.660   2.598   0.069 -0.6099  0.2503 -0.5748
 7518SOL    MW429840   4.674   2.513   0.056 -0.4905  0.1335  0.2304
 7519SOL     OW29841   4.642   2.494   3.454  0.1894 -0.4564 -0.0175
 7519SOL    HW229842   4.717   2.447   3.491  0.1202 -0.6586 -0.1322
 7519SOL    HW329843   4.624   2.563   3.517  0.5818 -0.3005 -0.0718
 7519SOL    MW429844   4.650   2.497   3.467  0.2320 -0.4625 -0.0398
 7520SOL     OW29845   1.354   4.871   1.233 -0.8376  0.4007  0.2059
 7520SOL    HW229846   1.374   4.926   1.157  0.6049  0.2076  0.4023
 7520SOL    HW329847   1.278   4.820   1.207  0.0146 -0.1331 -1.3678
 7520SOL    MW429848   1.347   4.872   1.219 -0.5348  0.3048  0.0242
 7521SOL     OW29849   1.982   2.050   6.416  0.4787  0.4829  0.4242
 7521SOL    HW229850   1.959   1.978   6.356  1.8766  0.3476  0.0245
 7521SOL    HW329851   1.927   2.035   6.493  0.8919 -1.1513  0.4403
 7521SOL    MW429852   1.971   2.038   6.418  0.7176  0.2494  0.3736
 7522SOL     OW29853   4.309   2.950   5.354 -0.0833  0.0990 -0.0899
 7522SOL    HW229854   4.358   2.904   5.423 -0.5685 -2.1904 -1.1736
 7522SOL    HW329855   4.302   3.040   5.386  0.6878 -0.6033  2.3138
 7522SOL    MW429856   4.314   2.956   5.367 -0.0456 -0.2957  0.0843
 7523SOL     OW29857   5.289   0.237   0.825  0.3985  0.2123  0.0188
 7523SOL    HW229858   5.333   0.253   0.909  0.0745  1.1419  0.0194
 7523SOL    HW329859   5.293   0.320   0.780 -2.0268  0.5742  0.3292
 7523SOL    MW429860   5.295   0.250   0.830  0.0358  0.3827  0.0598
 7524SOL     OW29861   5.646   4.256   1.279  0.2527  0.2167  0.0421
 7524SOL    HW229862   5.598   4.184   1.322 -0.8111  1.0217  0.2485
 7524SOL    HW329863   5.642   4.235   1.186  0.8702 -0.5258  0.1707
 7524SOL    MW429864   5.639   4.244   1.272  0.1938  0.2250  0.0863
 7525SOL     OW29865   1.188   5.177   1.877 -0.0907  0.3848  0.4887
 7525SOL    HW229866   1.242   5.232   1.820 -0.0130  1.0363  1.1585
 7525SOL    HW329867   1.221   5.197   1.965 -1.2046  0.5386  0.8767
 7525SOL    MW429868   1.200   5.187   1.881 -0.2274  0.4910  0.6283
 7526SOL     OW29869   1.867   6.189   1.971  0.3242  0.2509  0.2632
 7526SOL    HW229870   1.854   6.136   1.892 -0.2466  2.1216 -0.9472
 7526SOL    HW329871   1.959   6.176   1.994  0.5612 -0.1245 -0.8509
 7526SOL    MW429872   1.877   6.180   1.964  0.2802  0.4482 -0.0435
 7527SOL     OW29873   6.159   6.213   2.440  0.1548 -0.0435  0.3812
 7527SOL    HW229874   6.247   6.178   2.448 -0.0251 -0.4074  0.8072
 7527SOL    HW329875   6.153   6.243   2.350  0.8849  0.4488  0.4866
 7527SOL    MW429876   6.169   6.213   2.429  0.2274 -0.0266  0.4513
 7528SOL     OW29877   6.180   6.275   4.386  0.6082  0.0245  0.3874
 7528SOL    HW229878   6.099   6.325   4.375  0.6077  0.0621  0.5583
 7528SOL    HW329879   6.243   6.319   4.330  1.9045  3.0822  3.8503
 7528SOL    MW429880   6.178   6.287   4.377  0.7792  0.4329  0.8669
 7529SOL     OW29881   0.596   1.460   1.308 -0.4056 -0.3129  0.1655
 7529SOL    HW229882   0.689   1.482   1.295  0.0868 -2.3144  0.0568
 7529SOL    HW329883   0.556   1.543   1.334  1.6059  0.3975  1.2432
 7529SOL    MW429884   0.603   1.474   1.310 -0.0752 -0.4833  0.2933
 7530SOL     OW29885   4.344   4.761   3.068  0.2118 -0.4448 -0.4815
 7530SOL    HW229886   4.403   4.729   3.137 -0.2108  1.0762  0.6479
 7530SOL    HW329887   4.390   4.742   2.986  1.8670 -0.1233  0.3258
 7530SOL    MW429888   4.358   4.754   3.066  0.3744 -0.2017 -0.2260
 7531SOL     OW29889   0.116   3.068   5.145  0.3690  0.0692 -0.1616
 7531SOL    HW229890   0.177   3.024   5.205 -0.4786 -1.5344 -0.4202
 7531SOL    HW329891   0.164   3.074   5.062  0.2293 -1.1907 -0.3638
 7531SOL    MW429892   0.131   3.063   5.142  0.2387 -0.3086 -0.2224
 7532SOL     OW29893   1.430   4.899   5.548 -0.6485  0.0658  0.1317
 7532SOL    HW229894   1.477   4.948   5.616 -1.1535  2.1428 -0.9395
 7532SOL    HW329895   1.499   4.874   5.486 -0.6428  1.4880 -0.4850
 7532SOL    MW429896   1.445   4.902   5.549 -0.7144  0.5275 -0.0910
 7533SOL     OW29897   2.091   4.548   5.611  0.0553 -0.0777 -0.3134
 7533SOL    HW229898   2.176   4.546   5.568  0.1469 -0.1041 -0.1313
 7533SOL    HW329899   2.107   4.592   5.695 -0.5986  2.3425 -1.3484
 7533SOL    MW429900   2.104   4.554   5.616 -0.0189  0.2381 -0.4260
 7534SOL     OW29901   0.754   3.013   2.401  0.1066  0.4771 -0.3660
 7534SOL    HW229902   0.758   3.059   2.485  0.2126  1.9399 -1.1259
 7534SOL    HW329903   0.845   3.013   2.369 -0.3347  2.8277 -1.8960
 7534SOL    MW429904   0.767   3.019   2.408  0.0624  0.9803 -0.6681
 7535SOL     OW29905   5.538   4.019   1.374 -0.6028  0.0781 -0.6731
 7535SOL    HW229906   5.483   4.027   1.452 -1.2966  0.3046 -1.1756
 7535SOL    HW329907   5.603   3.953   1.397  0.3050  1.4110  0.7332
 7535SOL    MW429908   5.539   4.011   1.387 -0.5746  0.2838 -0.5539
 7536SOL     OW29909   0.326   4.453   5.024  0.0541  0.0012 -0.5537
 7536SOL    HW229910   0.296   4.406   5.102  3.0003 -0.7762  0.2625
 7536SOL    HW329911   0.279   4.413   4.951 -3.0641  0.9947  0.7766
 7536SOL    MW429912   0.316   4.441   5.025  0.0314  0.0297 -0.2705
 7537SOL     OW29913   4.692   2.138   6.202  0.4812 -0.0495  0.0801
 7537SOL    HW229914   4.711   2.232   6.202 -0.9418  0.2662  1.5631
 7537SOL    HW329915   4.777   2.097   6.219  0.9650  0.9909  0.2748
 7537SOL    MW429916   4.706   2.145   6.204  0.3573  0.1295  0.3015
 7538SOL     OW29917   6.246   4.465   2.760  0.0639  0.2014  0.3463
 7538SOL    HW229918   6.248   4.560   2.768 -0.6227  0.2591 -0.1107
 7538SOL    HW329919   6.230   4.433   2.849 -0.2949  0.5379  0.4035
 7538SOL    MW429920   6.244   4.473   2.773 -0.0740  0.2534  0.2936
 7539SOL     OW29921   4.272   4.145   4.016 -0.3533  0.4128 -0.3811
 7539SOL    HW229922   4.205   4.170   3.952 -0.2181  0.7729 -0.3796
 7539SOL    HW329923   4.304   4.060   3.984  0.0163  0.7865 -1.0330
 7539SOL    MW429924   4.267   4.137   4.003 -0.2867  0.5096 -0.4669
 7540SOL     OW29925   6.302   0.307   5.480 -0.1989 -0.3839 -0.0441
 7540SOL    HW229926   6.306   0.211   5.480  0.3478 -0.4049 -1.8249
 7540SOL    HW329927   6.218   0.327   5.437  0.9236 -0.1314 -2.2792
 7540SOL    MW429928   6.291   0.297   5.474  0.0214 -0.3533 -0.5740
 7541SOL     OW29929   1.437   5.038   4.157  0.1025  0.0123  0.2989
 7541SOL    HW229930   1.398   4.997   4.234 -0.5769  3.2126  1.8444
 7541SOL    HW329931   1.362   5.057   4.100  0.3467 -0.4659 -0.1837
 7541SOL    MW429932   1.422   5.035   4.160  0.0451  0.3715  0.4392
 7542SOL     OW29933   2.711   5.844   2.324  0.8376 -0.3716 -0.6764
 7542SOL    HW229934   2.699   5.883   2.410  1.6287 -0.8629 -0.3326
 7542SOL    HW329935   2.683   5.753   2.335  1.7541 -0.6660 -0.7022
 7542SOL    MW429936   2.706   5.837   2.337  1.0629 -0.4753 -0.6345
 7543SOL     OW29937   0.111   4.323   5.185 -0.6098  0.4229 -0.5694
 7543SOL    HW229938   0.085   4.239   5.147  0.3705 -1.1779  2.0296
 7543SOL    HW329939   0.035   4.380   5.171 -1.5676 -1.0843 -1.8113
 7543SOL    MW429940   0.097   4.319   5.179 -0.6068  0.0128 -0.3903
 7544SOL     OW29941   3.206   0.131   3.835  0.4274  0.2627 -0.5788
 7544SOL    HW229942   3.249   0.061   3.884  0.5350  0.8700  0.2186
 7544SOL    HW329943   3.115   0.129   3.865 -0.0845 -0.8442 -2.0624
 7544SOL    MW429944   3.199   0.121   3.846  0.3741  0.1968 -0.6693
 7545SOL     OW29945   0.554   0.197   4.294  0.1649 -0.0151  0.1217
 7545SOL    HW229946   0.505   0.138   4.238  0.2143  1.2941 -1.3673
 7545SOL    HW329947   0.490   0.230   4.357 -0.6525  0.8032 -1.0934
 7545SOL    MW429948   0.539   0.194   4.295  0.0635  0.2656 -0.2351
 7546SOL     OW29949   6.418   1.628   2.028 -0.1310  0.0348  0.0812
 7546SOL    HW229950   6.442   1.631   2.121  0.1090  0.2303  0.0142
 7546SOL    HW329951   6.355   1.700   2.018 -1.5543 -1.1039  0.4757
 7546SOL    MW429952   6.413   1.638   2.039 -0.2871 -0.0897  0.1244
 7547SOL     OW29953   2.906   1.707   4.903 -0.6458  0.2695  0.0193
 7547SOL    HW229954   2.907   1.614   4.926  2.1526  0.2945  0.2322
 7547SOL    HW329955   2.867   1.750   4.979 -2.1072 -0.6784 -0.1393
 7547SOL    MW429956   2.901   1.700   4.916 -0.4694  0.1478  0.0264
 7548SOL     OW29957   3.451   4.167   2.141  0.1807  0.2224  0.2857
 7548SOL    HW229958   3.430   4.074   2.136 -4.7994  1.1193 -1.5383
 7548SOL    HW329959   3.449   4.187   2.234  1.9619 -1.5174  0.7507
 7548SOL    MW429960   3.448   4.158   2.152 -0.2414  0.1112  0.1064
 7549SOL     OW29961   3.689   6.292   3.505  0.8182 -0.9211  0.2539
 7549SOL    HW229962   3.728   6.268   3.589  2.3669 -3.4232 -1.0515
 7549SOL    HW329963   3.742   6.366   3.475  1.5892 -1.3303  0.5736
 7549SOL    MW429964   3.701   6.298   3.512  1.1243 -1.3052  0.1238
 7550SOL     OW29965   1.071   0.621   3.828  0.0753 -0.4614 -0.1066
 7550SOL    HW229966   1.117   0.679   3.889  0.4008  1.7205 -2.2656
 7550SOL    HW329967   1.135   0.602   3.760 -1.1433 -0.3317 -1.3310
 7550SOL    MW429968   1.085   0.626   3.827 -0.0425 -0.1564 -0.5530
 7551SOL     OW29969   1.481   2.749   4.498 -0.4159  0.2118 -0.4121
 7551SOL    HW229970   1.498   2.707   4.583 -2.8450 -0.1221 -0.0248
 7551SOL    HW329971   1.533   2.829   4.500  0.5124 -0.3921  0.8837
 7551SOL    MW429972   1.490   2.754   4.510 -0.6139  0.0881 -0.1900
 7552SOL     OW29973   4.561   6.388   5.047  0.2405  0.2452 -0.8220
 7552SOL    HW229974   4.569   6.469   5.098  0.9672  0.2570 -0.9382
 7552SOL    HW329975   4.651   6.358   5.035  0.0170 -0.2734 -1.2793
 7552SOL    MW429976   4.574   6.395   5.052  0.3069  0.1784 -0.8977
 7553SOL     OW29977   1.322   5.720   2.792 -0.5847  0.3490 -0.2312
 7553SOL    HW229978   1.280   5.742   2.875 -1.6766 -0.6546 -0.4989
 7553SOL    HW329979   1.413   5.749   2.803 -0.4534 -0.6359  1.6647
 7553SOL    MW429980   1.328   5.727   2.805 -0.7115  0.0866 -0.0164
 7554SOL     OW29981   4.980   4.294   2.916  0.2639  0.0239  0.2836
 7554SOL    HW229982   5.035   4.370   2.897 -0.6696  0.4766 -0.6867
 7554SOL    HW329983   4.947   4.309   3.004  2.5910 -0.8262  1.3733
 7554SOL    MW429984   4.983   4.306   2.925  0.4478 -0.0285  0.2994
 7555SOL     OW29985   2.654   2.972   1.423  0.2513  0.1029  0.3732
 7555SOL    HW229986   2.592   3.035   1.387 -0.3483 -0.5412  0.2315
 7555SOL    HW329987   2.736   3.020   1.433  0.4707  0.2855 -1.9364
 7555SOL    MW429988   2.656   2.986   1.420  0.2011  0.0420  0.0498
 7556SOL     OW29989   0.769   3.340   1.108 -0.0303  0.3436 -0.2097
 7556SOL    HW229990   0.855   3.310   1.138  0.1647  0.5771 -0.5248
 7556SOL    HW329991   0.781   3.354   1.014 -1.0631 -1.9379 -0.7566
 7556SOL    MW429992   0.782   3.338   1.100 -0.1409  0.0734 -0.3234
 7557SOL     OW29993   0.062   1.278   2.203 -0.6092  0.3048 -0.0723
 7557SOL    HW229994   0.119   1.338   2.251  0.2110  0.8184 -1.6151
 7557SOL    HW329995   0.108   1.194   2.208  0.0651  0.6107 -0.9011
 7557SOL    MW429996   0.076   1.275   2.210 -0.4121  0.4129 -0.3852
 7558SOL     OW29997   6.039   4.164   1.525 -0.4513 -0.2605  0.4504
 7558SOL    HW229998   5.972   4.191   1.588 -1.8341 -1.1734 -0.5396
 7558SOL    HW329999   6.041   4.234   1.460  0.9171  0.6432  1.4222
 7558SOL    MW430000   6.030   4.177   1.525 -0.4532 -0.2617  0.4480
 7559SOL     OW30001   0.202   5.622   0.372  0.2416  0.0037 -0.2887
 7559SOL    HW230002   0.203   5.600   0.465 -1.0335 -0.8138 -0.4525
 7559SOL    HW330003   0.253   5.704   0.367 -1.1023  1.0213  1.3601
 7559SOL    MW430004   0.209   5.630   0.384 -0.1039  0.0301 -0.0928
 7560SOL     OW30005   1.821   5.997   4.261 -0.2971 -0.1819 -0.1632
 7560SOL    HW230006   1.914   5.992   4.238  0.0557 -2.9159  1.4864
 7560SOL    HW330007   1.821   6.012   4.355 -1.4409 -2.3244  0.2290
 7560SOL    MW430008   1.833   5.998   4.270 -0.4015 -0.8253  0.1062
 7561SOL     OW30009   5.249   1.172   3.545 -0.3630  0.1059 -0.1622
 7561SOL    HW230010   5.339   1.190   3.573 -0.2185  0.7166 -0.9696
 7561SOL    HW330011   5.248   1.078   3.527  0.6003  0.3665 -1.7568
 7561SOL    MW430012   5.261   1.162   3.546 -0.2169  0.2209 -0.4791
 7562SOL     OW30013   5.904   6.265   1.602 -0.1434  0.1627 -0.3829
 7562SOL    HW230014   5.823   6.221   1.627 -0.3692  0.5592 -0.4114
 7562SOL    HW330015   5.877   6.353   1.577  0.3734  0.4902  0.1804
 7562SOL    MW430016   5.890   6.270   1.602 -0.1050  0.2582 -0.3123
 7563SOL     OW30017   3.604   3.582   1.611 -0.0309 -0.0091  0.0506
 7563SOL    HW230018   3.600   3.489   1.630 -0.3774 -0.6176 -2.6780
 7563SOL    HW330019   3.676   3.614   1.666  1.5755 -2.3290 -0.5408
 7563SOL    MW430020   3.613   3.574   1.621  0.1353 -0.3954 -0.3874
 7564SOL     OW30021   2.166   5.511   4.652  0.3817  0.0524 -0.2608
 7564SOL    HW230022   2.173   5.532   4.746 -0.2171 -0.3038 -0.1331
 7564SOL    HW330023   2.082   5.549   4.626 -0.2034 -1.2367 -0.2816
 7564SOL    MW430024   2.156   5.519   4.661  0.2255 -0.1647 -0.2467
 7565SOL     OW30025   0.438   5.724   3.776 -0.5035 -0.0608  0.4411
 7565SOL    HW230026   0.484   5.752   3.855  0.2399  0.8541 -0.2754
 7565SOL    HW330027   0.498   5.746   3.705 -1.5771  0.0964 -0.4511
 7565SOL    MW430028   0.452   5.731   3.777 -0.5471  0.0807  0.2288
 7566SOL     OW30029   2.400   5.847   2.764 -0.0004 -0.3560  0.5442
 7566SOL    HW230030   2.494   5.860   2.773  0.0217  0.4775 -0.5594
 7566SOL    HW330031   2.364   5.867   2.850  0.8200 -0.6323  0.9609
 7566SOL    MW430032   2.407   5.852   2.776  0.1108 -0.2825  0.4535
 7567SOL     OW30033   3.954   1.602   5.273 -0.1495 -0.0914  0.4476
 7567SOL    HW230034   3.976   1.631   5.361  0.5016  0.7565  0.0139
 7567SOL    HW330035   3.966   1.679   5.218  0.3659 -0.8501 -0.5313
 7567SOL    MW430036   3.958   1.616   5.277  0.0044 -0.0796  0.2612
 7568SOL     OW30037   4.831   4.590   5.011 -0.2019  0.0848 -0.2946
 7568SOL    HW230038   4.741   4.618   5.029 -0.7296 -1.1340 -0.8614
 7568SOL    HW330039   4.828   4.559   4.920  0.7099 -0.2904 -0.2043
 7568SOL    MW430040   4.819   4.589   5.001 -0.1513 -0.1255 -0.3575
 7569SOL     OW30041   3.300   5.726   2.548 -0.9114  0.2961  0.1962
 7569SOL    HW230042   3.239   5.715   2.620  1.4771 -1.7173  2.1040
 7569SOL    HW330043   3.320   5.637   2.519  1.2544  0.8386 -0.1676
 7569SOL    MW430044   3.295   5.713   2.553 -0.3105  0.1021  0.3999
 7570SOL     OW30045   5.358   3.831   1.961 -0.1401 -0.0630 -0.3097
 7570SOL    HW230046   5.423   3.880   1.911  1.2513 -0.2742  1.2183
 7570SOL    HW330047   5.408   3.786   2.029 -1.8264 -0.6419  0.6188
 7570SOL    MW430048   5.373   3.832   1.963 -0.1790 -0.1673  0.0144
 7571SOL     OW30049   5.594   3.603   1.486 -0.3591 -0.0218 -0.0993
 7571SOL    HW230050   5.597   3.666   1.415 -1.0984 -0.7067 -0.7597
 7571SOL    HW330051   5.505   3.568   1.483 -0.5607  0.2649  1.4598
 7571SOL    MW430052   5.583   3.607   1.476 -0.4832 -0.0744  0.0193
 7572SOL     OW30053   4.192   5.620   3.531  0.0993 -0.2892 -0.5298
 7572SOL    HW230054   4.109   5.580   3.559 -0.5236  0.7298 -0.8531
 7572SOL    HW330055   4.187   5.709   3.565  1.1100 -0.2422 -0.4970
 7572SOL    MW430056   4.180   5.626   3.539  0.1504 -0.1485 -0.5681
 7573SOL     OW30057   0.371   2.161   3.865  0.0375 -0.4519  0.1481
 7573SOL    HW230058   0.367   2.098   3.793  1.7228 -0.9897  0.4764
 7573SOL    HW330059   0.464   2.178   3.877 -0.3361  1.4814  0.6434
 7573SOL    MW430060   0.382   2.155   3.857  0.2105 -0.2678  0.2567
 7574SOL     OW30061   1.242   5.362   3.910 -0.2531 -0.7898  0.3674
 7574SOL    HW230062   1.211   5.294   3.969 -2.3852 -0.5360 -0.3607
 7574SOL    HW330063   1.192   5.440   3.934 -0.6694 -0.5018 -1.2880
 7574SOL    MW430064   1.231   5.363   3.921 -0.5893 -0.7183  0.0529
 7575SOL     OW30065   6.151   0.093   2.131  0.3216  0.3085 -0.2631
 7575SOL    HW230066   6.245   0.084   2.118  0.5475  1.8366  0.1112
 7575SOL    HW330067   6.116   0.114   2.045  0.3664  0.1002 -0.3331
 7575SOL    MW430068   6.159   0.094   2.118  0.3573  0.4826 -0.2230
 7576SOL     OW30069   0.803   0.358   3.360 -0.1959 -0.0991  0.4717
 7576SOL    HW230070   0.797   0.450   3.336 -0.7001 -0.8736 -3.0138
 7576SOL    HW330071   0.717   0.335   3.393 -0.5705  0.3563 -0.1738
 7576SOL    MW430072   0.791   0.367   3.361 -0.3119 -0.1412 -0.0733
 7577SOL     OW30073   3.495   3.070   0.689 -0.1122 -0.6490 -1.0866
 7577SOL    HW230074   3.427   3.009   0.714 -1.8747  1.5316 -0.2266
 7577SOL    HW330075   3.482   3.083   0.595  0.3611 -1.6431 -1.3026
 7577SOL    MW430076   3.485   3.064   0.680 -0.2823 -0.4924 -1.0017
 7578SOL     OW30077   6.275   4.332   6.266 -0.0750 -0.0849 -0.4187
 7578SOL    HW230078   6.276   4.320   6.361 -0.4540 -0.5585 -0.4674
 7578SOL    HW330079   6.273   4.243   6.231  0.4629  0.0812 -0.8788
 7578SOL    MW430080   6.275   4.319   6.274 -0.0541 -0.1255 -0.4858
 7579SOL     OW30081   2.483   2.344   3.924  0.1541 -0.0607  0.7625
 7579SOL    HW230082   2.441   2.420   3.882  0.0450 -0.3017  0.4303
 7579SOL    HW330083   2.571   2.342   3.885  0.2243  0.0142  0.9187
 7579SOL    MW430084   2.489   2.354   3.913  0.1490 -0.0826  0.7393
 7580SOL     OW30085   4.827   6.332   2.394 -0.5162 -0.2661 -0.3819
 7580SOL    HW230086   4.841   6.247   2.436  0.9612  0.3188  0.3661
 7580SOL    HW330087   4.804   6.310   2.303 -0.5083 -1.4572 -0.1152
 7580SOL    MW430088   4.826   6.318   2.387 -0.3202 -0.3461 -0.2480
 7581SOL     OW30089   2.425   1.699   4.806 -0.6489  0.2204 -0.0261
 7581SOL    HW230090   2.333   1.728   4.804 -0.6018  0.9862  3.1528
 7581SOL    HW330091   2.475   1.781   4.799 -0.2549 -0.0481 -0.3268
 7581SOL    MW430092   2.419   1.714   4.805 -0.5907  0.2860  0.3536
 7582SOL     OW30093   5.618   0.636   2.415  0.3342  0.1073  0.1047
 7582SOL    HW230094   5.533   0.593   2.428  0.1380  0.4113 -0.1704
 7582SOL    HW330095   5.600   0.729   2.429  0.9170  0.0406  1.5027
 7582SOL    MW430096   5.605   0.642   2.419  0.3852  0.1386  0.2529
 7583SOL     OW30097   3.095   5.994   0.543  0.4628  0.2025  0.5662
 7583SOL    HW230098   3.058   6.080   0.522 -1.8595 -1.4796 -3.2666
 7583SOL    HW330099   3.023   5.946   0.582  0.8877 -0.8704  0.0606
 7583SOL    MW430100   3.081   5.999   0.546  0.2125 -0.1610 -0.0062
 7584SOL     OW30101   6.173   4.031   3.785  0.1480 -0.1872 -0.0004
 7584SOL    HW230102   6.264   4.002   3.786 -0.4598 -2.2799  1.1155
 7584SOL    HW330103   6.137   3.994   3.704  0.5052  1.5075 -0.9684
 7584SOL    MW430104   6.180   4.022   3.775  0.1149 -0.2397  0.0191
 7585SOL     OW30105   5.419   3.380   0.574 -0.3012  0.1899 -0.1791
 7585SOL    HW230106   5.501   3.421   0.603 -0.6645  1.0157 -0.2716
 7585SOL    HW330107   5.359   3.393   0.648 -0.1879 -0.9091  0.1093
 7585SOL    MW430108   5.422   3.387   0.588 -0.3342  0.1539 -0.1533
 7586SOL     OW30109   4.143   5.721   0.144  0.0229 -0.0342  0.3736
 7586SOL    HW230110   4.120   5.643   0.194  1.1694 -0.5299  0.1624
 7586SOL    HW330111   4.134   5.793   0.206  1.8064 -0.6860  1.4548
 7586SOL    MW430112   4.139   5.720   0.159  0.4095 -0.1856  0.4884
 7587SOL     OW30113   0.409   3.744   0.573 -0.3483  0.7155  0.5294
 7587SOL    HW230114   0.372   3.720   0.658 -0.1845 -0.6297  0.2400
 7587SOL    HW330115   0.334   3.777   0.523 -1.0321 -1.1124  0.2698
 7587SOL    MW430116   0.394   3.745   0.578 -0.4169  0.2968  0.4570
 7588SOL     OW30117   1.520   2.315   2.998  0.4791 -0.3613 -0.1349
 7588SOL    HW230118   1.596   2.294   2.943  0.5786 -1.5251  0.4022
 7588SOL    HW330119   1.553   2.379   3.061  0.5394  0.4711 -0.9950
 7588SOL    MW430120   1.534   2.321   2.999  0.5002 -0.4050 -0.1775
 7589SOL     OW30121   5.365   4.678   0.637 -0.4002  0.5108 -0.3206
 7589SOL    HW230122   5.448   4.630   0.634 -0.1026  1.0349 -0.4640
 7589SOL    HW330123   5.299   4.609   0.637  0.0294 -0.0614  3.2867
 7589SOL    MW430124   5.367   4.662   0.636 -0.3042  0.5044  0.1364
 7590SOL     OW30125   2.302   3.152   5.995  0.6169  0.4332 -0.5489
 7590SOL    HW230126   2.356   3.231   5.989 -1.0645  1.7134  0.2381
 7590SOL    HW330127   2.220   3.176   5.951 -0.4463 -0.3784  0.8870
 7590SOL    MW430128   2.298   3.166   5.988  0.2548  0.4950 -0.2556
 7591SOL     OW30129   2.161   3.570   3.531 -0.4584  0.3936 -0.2493
 7591SOL    HW230130   2.230   3.504   3.527  0.9978  1.7186  1.3118
 7591SOL    HW330131   2.164   3.613   3.446 -0.3649 -0.5025 -0.7151
 7591SOL    MW430132   2.170   3.567   3.519 -0.2539  0.4502 -0.1048
 7592SOL     OW30133   4.138   2.366   5.316  0.0129  0.1823  0.1464
 7592SOL    HW230134   4.073   2.394   5.380 -0.2121  1.1873 -0.5026
 7592SOL    HW330135   4.197   2.309   5.366 -0.7513  0.0986  0.9898
 7592SOL    MW430136   4.137   2.362   5.331 -0.1176  0.3039  0.1720
 7593SOL     OW30137   3.157   2.815   4.471  0.6169 -0.1442  0.0540
 7593SOL    HW230138   3.096   2.743   4.457  0.5489 -0.1205  0.2295
 7593SOL    HW330139   3.121   2.864   4.545  0.6919  0.0381 -0.0281
 7593SOL    MW430140   3.144   2.812   4.479  0.6178 -0.1170  0.0663
 7594SOL     OW30141   3.051   1.283   5.221  0.3079 -0.0785 -0.2096
 7594SOL    HW230142   3.037   1.192   5.195  0.0497  0.0831 -0.6558
 7594SOL    HW330143   3.079   1.278   5.312 -0.4663 -0.5656  0.0144
 7594SOL    MW430144   3.053   1.270   5.230  0.1717 -0.1214 -0.2389
 7595SOL     OW30145   4.409   1.685   3.682 -0.4448 -0.0966 -0.2998
 7595SOL    HW230146   4.415   1.589   3.676  0.1651 -0.0004 -1.8163
 7595SOL    HW330147   4.360   1.710   3.603  0.3637  0.9065 -0.5009
 7595SOL    MW430148   4.403   1.675   3.671 -0.2577  0.0484 -0.5264
 7596SOL     OW30149   4.368   2.846   3.339  0.9603  0.0490  0.3141
 7596SOL    HW230150   4.400   2.907   3.406 -0.3794 -0.2259  1.2515
 7596SOL    HW330151   4.291   2.889   3.302  1.9804  0.4429 -1.4846
 7596SOL    MW430152   4.362   2.860   3.343  0.9182  0.0647  0.2005
 7597SOL     OW30153   4.226   3.541   1.845  0.3409  0.2925  0.4158
 7597SOL    HW230154   4.178   3.462   1.868 -0.0069  0.3265 -0.1719
 7597SOL    HW330155   4.171   3.612   1.879 -0.6484  0.3877 -1.2685
 7597SOL    MW430156   4.212   3.540   1.852  0.1645  0.3096  0.1160
 7598SOL     OW30157   0.668   0.931   6.079 -0.1592  0.2245  0.1701
 7598SOL    HW230158   0.593   0.908   6.133 -0.9013  0.7395 -0.6273
 7598SOL    HW330159   0.713   0.999   6.129 -1.1183  1.0523 -0.0628
 7598SOL    MW430160   0.664   0.937   6.093 -0.3837  0.4017  0.0342
 7599SOL     OW30161   4.047   2.220   3.151  0.3713  0.4594  0.6957
 7599SOL    HW230162   4.037   2.274   3.229 -0.3350  1.3476  0.0242
 7599SOL    HW330163   4.138   2.232   3.124  0.1121  1.7050  0.3095
 7599SOL    MW430164   4.057   2.229   3.158  0.2439  0.7410  0.5561
 7600SOL     OW30165   0.076   1.263   2.996  0.5283 -0.2672  0.2306
 7600SOL    HW230166   0.022   1.230   3.068  0.1909 -0.6234 -0.1710
 7600SOL    HW330167   0.141   1.194   2.981  0.3982 -0.3433 -0.0054
 7600SOL    MW430168   0.077   1.249   3.003  0.4666 -0.3243  0.1464
 7601SOL     OW30169   5.754   0.798   1.123  0.7614  0.9089  0.1479
 7601SOL    HW230170   5.755   0.868   1.188  1.4881  1.4485 -0.4297
 7601SOL    HW330171   5.822   0.737   1.152  0.9960  1.0832 -0.0383
 7601SOL    MW430172   5.763   0.799   1.135  0.8882  1.0031  0.0472
 7602SOL     OW30173   4.556   2.950   2.605 -0.4504  0.1440  0.4518
 7602SOL    HW230174   4.513   2.893   2.669 -0.0278 -0.1702  0.4615
 7602SOL    HW330175   4.503   3.030   2.605  0.5095  0.8533  2.4672
 7602SOL    MW430176   4.543   2.953   2.613 -0.2680  0.1961  0.7190
 7603SOL     OW30177   5.089   6.108   5.640  0.4363  0.5218  0.3513
 7603SOL    HW230178   5.042   6.040   5.591 -0.1772  1.1287  0.0773
 7603SOL    HW330179   5.151   6.144   5.576  0.2984  0.6620  0.2931
 7603SOL    MW430180   5.091   6.104   5.625  0.3372  0.6204  0.3075
 7604SOL     OW30181   2.965   4.432   0.854  0.2984 -0.3681  0.4985
 7604SOL    HW230182   3.044   4.379   0.843  0.6287 -0.0442  1.2626
 7604SOL    HW330183   2.960   4.449   0.948 -1.2267 -1.2182  0.6147
 7604SOL    MW430184   2.974   4.427   0.865  0.1408 -0.4375  0.6146
 7605SOL     OW30185   0.683   0.418   4.318 -0.4056 -0.1911 -0.3796
 7605SOL    HW230186   0.642   0.332   4.321 -1.7061  0.3818 -0.7668
 7605SOL    HW330187   0.758   0.408   4.260  0.1542 -1.3310  0.5119
 7605SOL    MW430188   0.687   0.405   4.311 -0.5033 -0.2659 -0.3131
 7606SOL     OW30189   2.896   5.855   1.093 -0.1610 -0.1619  0.7100
 7606SOL    HW230190   2.829   5.912   1.130  0.0878  0.5495  0.0682
 7606SOL    HW330191   2.933   5.809   1.169 -2.0194 -1.2971  0.9947
 7606SOL    MW430192   2.892   5.856   1.108 -0.3734 -0.2178  0.6629
 7607SOL     OW30193   0.460   3.192   2.748 -0.1558 -0.0457  0.2545
 7607SOL    HW230194   0.432   3.100   2.741 -0.6278  0.1617 -0.6434
 7607SOL    HW330195   0.387   3.242   2.712  0.0989  0.6903  0.7445
 7607SOL    MW430196   0.446   3.186   2.743 -0.1845  0.0787  0.2007
 7608SOL     OW30197   3.578   0.118   3.137 -0.2545 -0.2006 -0.0929
 7608SOL    HW230198   3.527   0.124   3.056  0.5886  0.4940 -0.5862
 7608SOL    HW330199   3.660   0.162   3.117 -0.2607  0.5110  1.3364
 7608SOL    MW430200   3.582   0.125   3.124 -0.1441 -0.0151  0.0306
 7609SOL     OW30201   1.499   5.537   3.856  0.1864 -0.4285  0.1678
 7609SOL    HW230202   1.425   5.479   3.875  0.3921 -1.1038 -0.9948
 7609SOL    HW330203   1.470   5.623   3.885 -1.4313 -0.4910 -1.1145
 7609SOL    MW430204   1.486   5.541   3.862  0.0001 -0.5258 -0.1548
 7610SOL     OW30205   5.905   5.641   4.707  0.3724  0.6171  0.0859
 7610SOL    HW230206   5.913   5.546   4.715 -1.9299  0.2337 -1.3258
 7610SOL    HW330207   5.941   5.660   4.620 -0.4974  0.8313 -0.2320
 7610SOL    MW430208   5.911   5.631   4.696 -0.0461  0.5948 -0.1423
 7611SOL     OW30209   2.866   0.064   5.179 -0.0601  0.4323  0.9474
 7611SOL    HW230210   2.899   0.154   5.182  1.5615 -0.1340  0.7906
 7611SOL    HW330211   2.773   0.074   5.156  0.0253  2.0706  1.1849
 7611SOL    MW430212   2.858   0.077   5.176  0.1651  0.5737  0.9580
 7612SOL     OW30213   3.397   5.003   5.113  0.6361  0.4421  0.6155
 7612SOL    HW230214   3.369   4.919   5.149  1.0384 -0.6691 -1.5196
 7612SOL    HW330215   3.453   5.041   5.180  1.1848 -1.4257  1.2615
 7612SOL    MW430216   3.401   4.997   5.126  0.7616  0.0490  0.4191
 7613SOL     OW30217   5.363   0.024   4.479 -0.2679 -0.2317 -0.4506
 7613SOL    HW230218   5.374  -0.070   4.488  0.7728 -0.0919 -0.1575
 7613SOL    HW330219   5.268   0.038   4.485 -0.3568 -1.1437  0.6226
 7613SOL    MW430220   5.352   0.013   4.481 -0.1423 -0.3336 -0.2703
 7614SOL     OW30221   0.641   5.500   6.228 -0.1435 -0.1417  0.2698
 7614SOL    HW230222   0.690   5.458   6.158 -1.1324 -0.6427 -0.1438
 7614SOL    HW330223   0.550   5.473   6.213 -0.2148 -1.4529  2.5848
 7614SOL    MW430224   0.636   5.491   6.217 -0.2834 -0.3808  0.5207
 7615SOL     OW30225   1.772   0.918   0.543 -0.7126  0.0907  0.0408
 7615SOL    HW230226   1.715   0.888   0.473  1.0082 -3.0482 -0.2350
 7615SOL    HW330227   1.840   0.969   0.499 -0.4980 -0.5709 -0.4205
 7615SOL    MW430228   1.774   0.921   0.528 -0.4573 -0.4108 -0.0565
 7616SOL     OW30229   5.981   5.031   0.549  0.3089 -0.0312  0.3955
 7616SOL    HW230230   6.031   5.082   0.613  1.3457  0.6436 -0.9104
 7616SOL    HW330231   5.890   5.049   0.570  0.6460  1.2633  0.8294
 7616SOL    MW430232   5.976   5.040   0.560  0.4902  0.2286  0.2805
 7617SOL     OW30233   1.808   2.673   1.331 -0.1420  0.5571  0.0399
 7617SOL    HW230234   1.835   2.696   1.420 -2.1258  1.0370  0.5604
 7617SOL    HW330235   1.824   2.579   1.325  0.2744  0.5689  0.7930
 7617SOL    MW430236   1.814   2.663   1.342 -0.3488  0.6220  0.2080
 7618SOL     OW30237   0.744   5.114   6.016  0.1494 -0.6469 -0.1132
 7618SOL    HW230238   0.816   5.074   5.967 -0.2210  0.3591 -1.5439
 7618SOL    HW330239   0.783   5.189   6.060 -0.1250  0.2844 -1.4165
 7618SOL    MW430240   0.758   5.118   6.016  0.0643 -0.3913 -0.4739
 7619SOL     OW30241   3.525   3.384   2.772  0.3049 -0.4797 -0.1772
 7619SOL    HW230242   3.613   3.410   2.746 -0.3080  0.5826 -1.2816
 7619SOL    HW330243   3.516   3.294   2.742  1.7987 -1.4373  2.0053
 7619SOL    MW430244   3.535   3.375   2.765  0.4212 -0.4659 -0.0350
 7620SOL     OW30245   3.775   4.049   5.344  0.1776  0.1086  0.2921
 7620SOL    HW230246   3.864   4.018   5.363  0.7249 -0.3767 -2.5817
 7620SOL    HW330247   3.789   4.131   5.295 -1.1239  1.8428  2.5980
 7620SOL    MW430248   3.789   4.056   5.340  0.0781  0.2733  0.2172
 7621SOL     OW30249   0.761   0.372   1.042 -0.7250 -0.0392  0.3156
 7621SOL    HW230250   0.773   0.453   1.092  3.0343  0.4819 -1.1245
 7621SOL    HW330251   0.825   0.311   1.078 -1.3512 -1.3451 -0.6800
 7621SOL    MW430252   0.771   0.375   1.053 -0.3116 -0.1428 -0.0057
 7622SOL     OW30253   1.129   0.092   0.199 -0.0895  0.0633 -0.3077
 7622SOL    HW230254   1.062   0.037   0.158 -1.0151  1.3450 -0.5819
 7622SOL    HW330255   1.114   0.083   0.293 -0.2923 -0.0781 -0.3546
 7622SOL    MW430256   1.118   0.083   0.206 -0.2384  0.2138 -0.3500
 7623SOL     OW30257   2.512   3.789   1.926  0.5685 -0.4642  0.1163
 7623SOL    HW230258   2.563   3.824   1.852 -0.2632 -0.2290 -0.3558
 7623SOL    HW330259   2.513   3.694   1.911  1.4097 -0.5222  0.4735
 7623SOL    MW430260   2.519   3.781   1.914  0.5697 -0.4408  0.1011
 7624SOL     OW30261   2.934   0.159   3.922  0.2446 -0.1769 -0.3935
 7624SOL    HW230262   2.923   0.065   3.905  0.6090 -0.1198 -0.9564
 7624SOL    HW330263   2.881   0.201   3.855  0.1249  0.0261 -0.1726
 7624SOL    MW430264   2.925   0.152   3.911  0.2769 -0.1426 -0.4386
 7625SOL     OW30265   0.757   3.832   3.137  0.2334 -0.0921  0.2777
 7625SOL    HW230266   0.753   3.788   3.222 -0.0104 -1.3013 -0.3414
 7625SOL    HW330267   0.681   3.799   3.090 -0.1365  1.2563 -0.1004
 7625SOL    MW430268   0.747   3.822   3.142  0.1524 -0.0738  0.1462
 7626SOL     OW30269   1.984   2.282   1.550  0.6494  0.5744 -0.9479
 7626SOL    HW230270   2.015   2.367   1.519  1.1257  0.0910 -1.8535
 7626SOL    HW330271   2.025   2.219   1.490  0.5517 -0.3097 -0.0994
 7626SOL    MW430272   1.993   2.285   1.538  0.6993  0.3940 -0.9554
 7627SOL     OW30273   4.122   5.604   2.505 -0.1660 -0.2215 -0.1628
 7627SOL    HW230274   4.089   5.687   2.538  2.4619  1.4283 -1.3400
 7627SOL    HW330275   4.124   5.546   2.582 -1.2302  1.0700  0.8653
 7627SOL    MW430276   4.118   5.607   2.520  0.0403  0.1666 -0.1824
 7628SOL     OW30277   2.859   0.999   5.544  0.4513  0.3611  0.3019
 7628SOL    HW230278   2.876   1.031   5.633  0.8034 -0.7393  0.6478
 7628SOL    HW330279   2.944   0.964   5.515 -0.1457 -1.2459  0.3737
 7628SOL    MW430280   2.873   0.999   5.552  0.4190  0.0039  0.3570
 7629SOL     OW30281   5.119   0.870   2.784 -0.1112 -0.0664  0.4499
 7629SOL    HW230282   5.080   0.942   2.733  0.0734  0.2651  0.7713
 7629SOL    HW330283   5.083   0.881   2.872  3.1704  2.2972  1.6925
 7629SOL    MW430284   5.109   0.881   2.789  0.3462  0.2892  0.6563
 7630SOL     OW30285   1.741   1.917   3.097 -0.1367  0.1021 -0.0439
 7630SOL    HW230286   1.749   1.917   3.002  0.2533 -0.3130 -0.0159
 7630SOL    HW330287   1.667   1.975   3.115  0.5840  1.2113 -0.5350
 7630SOL    MW430288   1.732   1.925   3.087  0.0099  0.1937 -0.1050
 7631SOL     OW30289   3.511   2.186   1.850 -0.1119  0.3601  0.0271
 7631SOL    HW230290   3.536   2.105   1.894  0.0431 -0.5328 -1.6316
 7631SOL    HW330291   3.586   2.244   1.864 -0.3828  0.3844  1.5473
 7631SOL    MW430292   3.524   2.183   1.858 -0.1272  0.2455  0.0088
 7632SOL     OW30293   1.618   3.908   4.462 -0.3264 -0.0433 -1.1080
 7632SOL    HW230294   1.620   3.818   4.430 -0.8040 -0.3474 -0.3039
 7632SOL    HW330295   1.706   3.942   4.443 -0.2001 -0.6189 -1.5701
 7632SOL    MW430296   1.630   3.901   4.455 -0.3727 -0.1594 -1.0629
 7633SOL     OW30297   5.107   0.247   4.607  0.1296 -0.2876  0.0226
 7633SOL    HW230298   5.061   0.301   4.543 -0.1211 -0.0467  0.3995
 7633SOL    HW330299   5.050   0.247   4.684  1.1390  0.7271  0.8048
 7633SOL    MW430300   5.094   0.254   4.609  0.2297 -0.1220  0.1755
 7634SOL     OW30301   0.973   3.732   3.661  0.1501  0.0278  0.2790
 7634SOL    HW230302   1.023   3.798   3.708  0.8958  0.1757 -0.6818
 7634SOL    HW330303   0.883   3.743   3.692 -0.1038  2.7382 -1.1474
 7634SOL    MW430304   0.967   3.742   3.671  0.2150  0.4049 -0.0359
 7635SOL     OW30305   3.188   3.008   6.396  0.2572 -0.7288 -0.0309
 7635SOL    HW230306   3.271   3.014   6.443 -0.5076 -1.5584  1.4848
 7635SOL    HW330307   3.212   3.019   6.304  1.7467  1.4045  0.5367
 7635SOL    MW430308   3.202   3.010   6.390  0.3528 -0.5568  0.2440
 7636SOL     OW30309   2.636   0.297   1.059 -0.4063 -0.4638 -0.2515
 7636SOL    HW230310   2.695   0.338   0.995 -1.0402  0.2017 -0.4305
 7636SOL    HW330311   2.676   0.315   1.144 -1.1290  1.3703 -0.2559
 7636SOL    MW430312   2.649   0.305   1.062 -0.5853 -0.1340 -0.2757
 7637SOL     OW30313   3.169   1.025   0.323 -0.4576  0.0252  0.5102
 7637SOL    HW230314   3.138   0.938   0.345  1.5282 -0.7180  0.5506
 7637SOL    HW330315   3.132   1.043   0.237 -1.0637 -0.7539  0.6037
 7637SOL    MW430316   3.160   1.016   0.315 -0.2755 -0.1756  0.5279
 7638SOL     OW30317   1.552   4.631   1.605  0.2616  0.5580 -0.0321
 7638SOL    HW230318   1.505   4.712   1.627 -1.3782  0.0386 -1.4487
 7638SOL    HW330319   1.538   4.574   1.681 -1.1754  0.5363 -0.2776
 7638SOL    MW430320   1.544   4.635   1.618 -0.1444  0.4866 -0.2514
 7639SOL     OW30321   4.140   5.085   3.010 -0.3810 -0.2421  0.2019
 7639SOL    HW230322   4.108   5.173   2.990  1.3746  1.1360  2.8455
 7639SOL    HW330323   4.172   5.052   2.927  1.3489  2.7371 -0.4726
 7639SOL    MW430324   4.140   5.093   2.997  0.0789  0.3328  0.4617
 7640SOL     OW30325   2.233   1.105   4.898  0.7894 -0.5300  0.1489
 7640SOL    HW230326   2.145   1.084   4.867  0.4113  0.3747  0.5926
 7640SOL    HW330327   2.283   1.025   4.881  0.7580  0.0337 -3.2529
 7640SOL    MW430328   2.228   1.092   4.891  0.7354 -0.3363 -0.2414
 7641SOL     OW30329   1.842   3.216   1.014 -0.4334  0.1813 -0.3098
 7641SOL    HW230330   1.884   3.131   1.008  1.2264  1.0182 -1.0470
 7641SOL    HW330331   1.845   3.252   0.925 -0.1224  1.4505  0.1853
 7641SOL    MW430332   1.848   3.210   1.002 -0.1734  0.4592 -0.3418
 7642SOL     OW30333   6.198   6.090   0.758  0.5345 -0.0902 -0.5049
 7642SOL    HW230334   6.129   6.154   0.736  0.2151 -0.4527 -0.5655
 7642SOL    HW330335   6.213   6.104   0.852  0.3764 -0.0054 -0.4907
 7642SOL    MW430336   6.191   6.101   0.768  0.4715 -0.1269 -0.5110
 7643SOL     OW30337   3.859   4.718   0.314  0.6807  0.2234  0.2347
 7643SOL    HW230338   3.879   4.751   0.227  0.7056  0.8227  0.4632
 7643SOL    HW330339   3.927   4.755   0.370  1.8632 -1.7607  0.2027
 7643SOL    MW430340   3.870   4.727   0.310  0.8400  0.0407  0.2607
 7644SOL     OW30341   4.168   4.813   1.921  0.2788 -0.4897  0.1056
 7644SOL    HW230342   4.192   4.896   1.962  1.8791 -0.1982 -1.3260
 7644SOL    HW330343   4.211   4.746   1.975  0.4849 -0.2606  0.2272
 7644SOL    MW430344   4.177   4.815   1.933  0.5171 -0.4210 -0.0672
 7645SOL     OW30345   5.954   4.738   0.163  0.2357 -0.7689 -0.5665
 7645SOL    HW230346   5.967   4.649   0.198 -1.5634  0.0536  2.6250
 7645SOL    HW330347   6.002   4.794   0.223 -0.4177  0.5752 -1.2580
 7645SOL    MW430348   5.962   4.734   0.176 -0.0879 -0.4831 -0.2366
 7646SOL     OW30349   0.912   2.503   5.971  0.4078  0.2282 -0.4839
 7646SOL    HW230350   0.858   2.504   5.892 -0.4638 -0.9588  0.0663
 7646SOL    HW330351   0.996   2.465   5.943 -0.3141 -1.3498 -0.6230
 7646SOL    MW430352   0.916   2.498   5.957  0.1976 -0.1366 -0.4296
 7647SOL     OW30353   5.657   4.282   3.155  0.2970  0.1806  0.2234
 7647SOL    HW230354   5.674   4.219   3.085 -0.3074 -0.4871  0.6559
 7647SOL    HW330355   5.571   4.319   3.134  0.8816  1.2687 -0.3157
 7647SOL    MW430356   5.648   4.279   3.143  0.2944  0.2361  0.2093
 7648SOL     OW30357   0.627   6.252   2.099 -0.3447 -0.4867  0.5155
 7648SOL    HW230358   0.569   6.306   2.047 -0.1663 -0.5049  0.2957
 7648SOL    HW330359   0.612   6.280   2.189 -0.9114 -0.6998  0.4921
 7648SOL    MW430360   0.618   6.263   2.104 -0.3959 -0.5172  0.4834
 7649SOL     OW30361   3.043   5.113   0.691  0.4583  0.3486 -0.2782
 7649SOL    HW230362   3.063   5.023   0.715 -2.6147 -1.0511 -2.3151
 7649SOL    HW330363   3.126   5.149   0.661  1.6607 -1.9822  0.0072
 7649SOL    MW430364   3.056   5.106   0.690  0.2115 -0.1436 -0.5093
 7650SOL     OW30365   2.199   2.653   3.414 -0.1958 -0.9616 -0.4401
 7650SOL    HW230366   2.122   2.618   3.458  0.2776 -0.3630  0.9263
 7650SOL    HW330367   2.232   2.721   3.473  2.3003 -2.2766 -0.1754
 7650SOL    MW430368   2.193   2.657   3.428  0.1960 -1.0561 -0.2249
 7651SOL     OW30369   5.854   6.292   5.733 -0.0146 -0.7369  0.6181
 7651SOL    HW230370   5.947   6.288   5.758  0.1721 -1.6503 -0.1373
 7651SOL    HW330371   5.828   6.381   5.752  0.3774 -1.0761  3.0481
 7651SOL    MW430372   5.863   6.303   5.738  0.0618 -0.9021  0.8391
 7652SOL     OW30373   0.094   5.600   5.065  0.1222 -0.3805  0.0574
 7652SOL    HW230374   0.162   5.535   5.051  0.1851 -0.0041 -1.4801
 7652SOL    HW330375   0.101   5.622   5.158  1.8030 -0.6560  0.0212
 7652SOL    MW430376   0.104   5.594   5.076  0.3523 -0.3672 -0.1502
 7653SOL     OW30377   4.927   0.989   1.597 -0.2144 -0.9077  0.3912
 7653SOL    HW230378   4.996   0.924   1.587  1.6648  0.6494  2.2603
 7653SOL    HW330379   4.959   1.066   1.548 -1.5543 -0.7610 -0.3104
 7653SOL    MW430380   4.940   0.991   1.589 -0.1433 -0.6829  0.5453
 7654SOL     OW30381   3.090   6.261   4.900 -0.2278  0.0700 -0.2782
 7654SOL    HW230382   3.130   6.311   4.972 -3.2087  2.7195 -0.2556
 7654SOL    HW330383   3.135   6.292   4.822 -0.6924  1.3793 -0.0518
 7654SOL    MW430384   3.102   6.272   4.899 -0.6824  0.5923 -0.2454
 7655SOL     OW30385   4.788   1.797   2.534 -0.2924 -0.2058  0.2894
 7655SOL    HW230386   4.811   1.745   2.457  1.5955  1.6730 -0.4924
 7655SOL    HW330387   4.818   1.744   2.608  0.2596 -0.8809 -0.3988
 7655SOL    MW430388   4.795   1.783   2.534  0.0295 -0.0470  0.0955
 7656SOL     OW30389   2.607   5.191   1.859  0.1685  0.3274  0.3069
 7656SOL    HW230390   2.597   5.161   1.950 -4.2277 -1.1837 -0.4309
 7656SOL    HW330391   2.665   5.126   1.819 -0.3413 -0.8282  1.3574
 7656SOL    MW430392   2.614   5.178   1.866 -0.4788 -0.0245  0.3482
 7657SOL     OW30393   6.378   4.003   4.511 -0.1732 -0.4806  0.8640
 7657SOL    HW230394   6.323   4.073   4.477  0.5072 -0.5738 -0.4632
 7657SOL    HW330395   6.462   4.015   4.468  0.7342 -0.6237  2.4979
 7657SOL    MW430396   6.382   4.014   4.501  0.0363 -0.5117  0.9045
 7658SOL     OW30397   3.722   6.378   0.982 -0.1636 -0.1161  0.3640
 7658SOL    HW230398   3.787   6.445   0.964 -1.1393  0.5941 -0.6782
 7658SOL    HW330399   3.704   6.338   0.897 -1.5137  0.1256  0.4995
 7658SOL    MW430400   3.728   6.382   0.968 -0.4705  0.0095  0.2444
 7659SOL     OW30401   3.242   1.889   1.906 -0.0036  0.0279  0.9008
 7659SOL    HW230402   3.155   1.926   1.891 -0.4198 -1.8662 -2.5444
 7659SOL    HW330403   3.295   1.924   1.834  1.2144 -1.2258  1.1492
 7659SOL    MW430404   3.237   1.898   1.895  0.1022 -0.3874  0.4790
 7660SOL     OW30405   2.057   6.318   5.893  0.2933  0.0800 -0.1519
 7660SOL    HW230406   2.018   6.405   5.897  1.0438  0.4278 -0.1836
 7660SOL    HW330407   1.997   6.263   5.944  0.1231  0.7376  0.3826
 7660SOL    MW430408   2.044   6.322   5.900  0.3698  0.2127 -0.0855
 7661SOL     OW30409   1.050   4.402   2.276 -0.0486 -0.5963  0.3313
 7661SOL    HW230410   1.013   4.376   2.360  4.0697  0.2978  2.6530
 7661SOL    HW330411   1.139   4.367   2.276  0.8272  1.1680 -2.7719
 7661SOL    MW430412   1.057   4.394   2.287  0.6103 -0.2455  0.2282
 7662SOL     OW30413   4.991   2.837   0.519  0.4566 -0.3347 -0.6590
 7662SOL    HW230414   5.051   2.766   0.541  1.5901  0.0119 -2.3823
 7662SOL    HW330415   4.906   2.795   0.506  0.1528 -0.7812  2.2085
 7662SOL    MW430416   4.987   2.822   0.520  0.5661 -0.3479 -0.5080
 7663SOL     OW30417   3.250   2.423   1.150 -0.3873  0.1794  0.2659
 7663SOL    HW230418   3.183   2.381   1.095  0.0852  0.0400 -0.2126
 7663SOL    HW330419   3.232   2.390   1.238  0.0123 -1.1145 -0.1058
 7663SOL    MW430420   3.239   2.413   1.154 -0.2723 -0.0097  0.1537
 7664SOL     OW30421   5.034   1.100   2.651 -0.4384 -0.3096 -0.3315
 7664SOL    HW230422   5.027   1.152   2.732  0.3121 -0.8682  0.1031
 7664SOL    HW330423   5.120   1.122   2.617 -0.5469 -0.4771 -0.7113
 7664SOL    MW430424   5.044   1.110   2.658 -0.3537 -0.4054 -0.3243
 7665SOL     OW30425   3.471   5.645   1.251 -0.1569 -0.2880  0.1751
 7665SOL    HW230426   3.514   5.560   1.242  1.6641  0.5533  0.4437
 7665SOL    HW330427   3.418   5.654   1.172  2.4122 -0.2033 -1.6613
 7665SOL    MW430428   3.470   5.635   1.240  0.4223 -0.1658 -0.0318
 7666SOL     OW30429   2.729   5.611   6.305  0.1131 -0.5404  0.3823
 7666SOL    HW230430   2.695   5.523   6.324  1.0555 -0.9372  0.2612
 7666SOL    HW330431   2.684   5.667   6.368 -0.3114 -1.1440  0.6335
 7666SOL    MW430432   2.718   5.607   6.316  0.1814 -0.6724  0.3995
 7667SOL     OW30433   0.042   0.413   2.892  0.1651 -0.5416 -0.5972
 7667SOL    HW230434   0.135   0.392   2.900  0.1205 -1.8562 -2.7648
 7667SOL    HW330435   0.040   0.509   2.890  1.2813 -0.4495  0.9482
 7667SOL    MW430436   0.054   0.423   2.893  0.3065 -0.7029 -0.6793
 7668SOL     OW30437   4.601   0.809   5.288 -0.2902  0.6773  0.4428
 7668SOL    HW230438   4.655   0.759   5.227  1.3953  0.7472  1.7808
 7668SOL    HW330439   4.523   0.756   5.301  0.5864 -0.6726  0.3609
 7668SOL    MW430440   4.598   0.795   5.282  0.0478  0.5084  0.6085
 7669SOL     OW30441   0.295   3.775   6.338  0.3681 -0.5897  0.0516
 7669SOL    HW230442   0.382   3.784   6.377  1.2343 -0.5901 -1.7845
 7669SOL    HW330443   0.273   3.682   6.350 -0.5077 -0.1250  2.6783
 7669SOL    MW430444   0.304   3.764   6.345  0.3669 -0.5284  0.1559
 7670SOL     OW30445   1.596   0.351   0.488 -0.1432  0.4797 -0.2150
 7670SOL    HW230446   1.642   0.289   0.544 -0.6695 -0.8524 -1.1756
 7670SOL    HW330447   1.665   0.398   0.442  0.2715  0.8421  0.7557
 7670SOL    MW430448   1.611   0.349   0.489 -0.1579  0.3517 -0.2137
 7671SOL     OW30449   1.229   0.755   3.594  0.3408  0.0768  0.7509
 7671SOL    HW230450   1.256   0.842   3.564 -0.5717 -0.1010 -0.6955
 7671SOL    HW330451   1.296   0.696   3.561  0.9450  0.2126  1.7084
 7671SOL    MW430452   1.241   0.759   3.585  0.3001  0.0713  0.6864
 7672SOL     OW30453   5.351   2.668   6.120  0.2427  0.4297  0.2272
 7672SOL    HW230454   5.368   2.727   6.195  0.2632  1.0872 -0.2837
 7672SOL    HW330455   5.325   2.585   6.160  0.4521  0.7139  0.9700
 7672SOL    MW430456   5.350   2.665   6.136  0.2730  0.5539  0.2578
 7673SOL     OW30457   1.182   1.135   3.360 -0.5615  0.2294  0.6558
 7673SOL    HW230458   1.255   1.194   3.342 -0.3563  0.2430  1.4575
 7673SOL    HW330459   1.108   1.193   3.378 -0.7743  0.2157 -0.1659
 7673SOL    MW430460   1.182   1.151   3.360 -0.5625  0.2294  0.6532
 7674SOL     OW30461   3.950   1.635   3.471  0.4057 -0.7866  0.9196
 7674SOL    HW230462   4.001   1.561   3.505 -2.2325 -1.9571  2.6703
 7674SOL    HW330463   3.872   1.596   3.433  0.7199  0.9345 -1.7649
 7674SOL    MW430464   3.947   1.620   3.471  0.0990 -0.7140  0.7964
 7675SOL     OW30465   4.310   2.213   6.221  0.0348 -0.1246 -0.4500
 7675SOL    HW230466   4.234   2.180   6.268  0.5010  0.6172  0.8573
 7675SOL    HW330467   4.346   2.136   6.176  0.2863 -1.1368  1.4045
 7675SOL    MW430468   4.305   2.198   6.221  0.1295 -0.1602 -0.0328
 7676SOL     OW30469   3.927   5.084   0.386  0.2076  0.1314 -0.3077
 7676SOL    HW230470   3.832   5.092   0.400  0.4235 -1.1161  2.3643
 7676SOL    HW330471   3.934   5.029   0.308 -1.3244 -0.9616  0.2704
 7676SOL    MW430472   3.915   5.077   0.377  0.0340 -0.1774  0.1211
 7677SOL     OW30473   3.929   0.879   5.253 -0.2762  0.5901 -0.6780
 7677SOL    HW230474   3.959   0.789   5.268  2.7039  1.6049  0.1094
 7677SOL    HW330475   3.850   0.887   5.306 -1.9935 -2.1681 -2.5599
 7677SOL    MW430476   3.923   0.868   5.262 -0.1096  0.3601 -0.8224
 7678SOL     OW30477   2.494   1.664   2.658 -0.0900  0.1019 -0.0202
 7678SOL    HW230478   2.503   1.701   2.746  0.5116  0.3201 -0.1733
 7678SOL    HW330479   2.515   1.735   2.599  2.2409 -0.7476 -0.3043
 7678SOL    MW430480   2.498   1.678   2.662  0.2969  0.0186 -0.0779
 7679SOL     OW30481   0.202   5.232   1.255  0.1313  0.3170 -0.6229
 7679SOL    HW230482   0.121   5.198   1.216  1.6823 -2.2960 -1.8583
 7679SOL    HW330483   0.267   5.164   1.238  2.4094  1.8938  1.1354
 7679SOL    MW430484   0.200   5.218   1.248  0.6365  0.1803 -0.5539
 7680SOL     OW30485   0.339   3.190   3.671  0.1615 -0.0793  0.0659
 7680SOL    HW230486   0.414   3.146   3.709  0.0302 -0.0018  0.4185
 7680SOL    HW330487   0.295   3.231   3.745 -0.8768 -1.0910  0.0380
 7680SOL    MW430488   0.343   3.190   3.685  0.0072 -0.2026  0.1087
 7681SOL     OW30489   1.206   0.391   0.705  0.0564 -0.3389 -0.6758
 7681SOL    HW230490   1.130   0.447   0.719 -0.3638 -1.1121  0.3073
 7681SOL    HW330491   1.197   0.359   0.615 -0.4939  0.0041 -0.7425
 7681SOL    MW430492   1.195   0.394   0.695 -0.0716 -0.3957 -0.5549
 7682SOL     OW30493   0.123   6.191   0.468 -0.4252  0.0849 -0.0258
 7682SOL    HW230494   0.053   6.130   0.491 -1.2856  0.8991 -0.4131
 7682SOL    HW330495   0.108   6.267   0.525  1.5483 -0.6215  1.5716
 7682SOL    MW430496   0.112   6.193   0.479 -0.2784  0.0991  0.1338
 7683SOL     OW30497   2.802   6.169   3.231 -0.4257 -0.9246 -0.2186
 7683SOL    HW230498   2.781   6.219   3.152  0.8704  0.1208  0.0566
 7683SOL    HW330499   2.763   6.083   3.216  0.2937 -0.9587 -2.2838
 7683SOL    MW430500   2.794   6.164   3.218 -0.1598 -0.7912 -0.4548
 7684SOL     OW30501   2.543   0.367   3.560  0.2403 -0.1250 -0.8067
 7684SOL    HW230502   2.486   0.425   3.610  1.1557  0.6790 -0.6705
 7684SOL    HW330503   2.486   0.296   3.531 -0.9523  0.9482 -1.1586
 7684SOL    MW430504   2.528   0.365   3.562  0.2037  0.1227 -0.8352
 7685SOL     OW30505   4.178   0.338   0.066 -0.1997 -0.0482  0.8011
 7685SOL    HW230506   4.240   0.289   0.014  0.4694  1.3569  0.2223
 7685SOL    HW330507   4.232   0.399   0.117 -1.0119  0.3339  1.2299
 7685SOL    MW430508   4.193   0.340   0.066 -0.2186  0.1876  0.7813
 7686SOL     OW30509   2.921   3.993   1.089 -0.2043  0.4922  0.0964
 7686SOL    HW230510   2.926   3.898   1.081  0.2475  0.6373 -1.6708
 7686SOL    HW330511   2.840   4.018   1.046 -0.8912  0.8486  1.5260
 7686SOL    MW430512   2.911   3.984   1.083 -0.2353  0.5584  0.0518
 7687SOL     OW30513   1.266   3.546   5.917 -0.7548 -0.0309  0.0957
 7687SOL    HW230514   1.270   3.520   6.009 -0.1620  1.5647  0.5514
 7687SOL    HW330515   1.280   3.465   5.869  0.2055 -0.6978  1.4232
 7687SOL    MW430516   1.268   3.532   5.923 -0.5499  0.0916  0.3310
 7688SOL     OW30517   2.349   1.912   5.867 -0.4086 -0.1875 -0.9922
 7688SOL    HW230518   2.368   1.896   5.775  1.4441 -0.8681 -0.5128
 7688SOL    HW330519   2.402   1.849   5.915  0.0265  1.3035  0.6072
 7688SOL    MW430520   2.358   1.902   5.861 -0.1067 -0.0805 -0.7179
 7689SOL     OW30521   5.835   1.350   5.025 -0.4407 -0.7828  0.0075
 7689SOL    HW230522   5.850   1.410   5.098  0.0340  1.1575 -1.5726
 7689SOL    HW330523   5.751   1.378   4.988 -0.9389 -2.0913  0.1181
 7689SOL    MW430524   5.826   1.362   5.029 -0.4438 -0.6995 -0.1863
 7690SOL     OW30525   2.834   1.837   2.531  0.4000 -0.2985 -0.3673
 7690SOL    HW230526   2.901   1.769   2.535  1.5057  0.5877 -2.4650
 7690SOL    HW330527   2.808   1.849   2.622  2.2405 -1.5002  0.3894
 7690SOL    MW430528   2.839   1.829   2.543  0.7887 -0.3401 -0.5442
 7691SOL     OW30529   2.791   5.655   0.903  0.0799  0.1271  0.2454
 7691SOL    HW230530   2.835   5.702   0.973  1.7944 -0.5999 -0.2880
 7691SOL    HW330531   2.771   5.569   0.940 -0.8314  0.4255  0.4576
 7691SOL    MW430532   2.794   5.649   0.917  0.1859  0.0706  0.2030
 7692SOL     OW30533   0.331   0.647   3.577  0.5256  0.1004  0.1561
 7692SOL    HW230534   0.332   0.575   3.513 -1.5628 -0.5992  0.8357
 7692SOL    HW330535   0.343   0.603   3.661 -2.7540  0.2022  0.7839
 7692SOL    MW430536   0.333   0.632   3.580 -0.1826  0.0216  0.3286
 7693SOL     OW30537   0.090   6.218   4.968 -0.1288 -0.3360 -0.2542
 7693SOL    HW230538   0.081   6.223   4.872 -0.3080  0.3361 -0.2042
 7693SOL    HW330539   0.112   6.126   4.984 -1.7717 -0.8808 -0.8120
 7693SOL    MW430540   0.092   6.206   4.957 -0.3692 -0.3192 -0.3212
 7694SOL     OW30541   0.926   4.438   4.231  0.4034 -0.6405  0.1510
 7694SOL    HW230542   0.913   4.378   4.159  1.7412 -1.4208  0.5127
 7694SOL    HW330543   0.839   4.450   4.269 -0.7818  1.5759 -2.8831
 7694SOL    MW430544   0.913   4.432   4.227  0.4235 -0.4510 -0.2016
 7695SOL     OW30545   0.441   0.033   0.952  0.0323  0.0029 -0.3904
 7695SOL    HW230546   0.450   0.127   0.967  0.0793 -0.0945  0.1849
 7695SOL    HW330547   0.353   0.024   0.914  0.1758  0.3168 -0.8126
 7695SOL    MW430548   0.431   0.044   0.949  0.0574  0.0315 -0.3702
 7696SOL     OW30549   0.079   4.515   3.611  0.2902 -0.1221 -0.4938
 7696SOL    HW230550   0.023   4.584   3.646  0.4382  0.0282 -0.5558
 7696SOL    HW330551   0.137   4.559   3.550 -0.5030 -0.5005 -1.5663
 7696SOL    MW430552   0.079   4.530   3.607  0.2050 -0.1522 -0.6435
 7697SOL     OW30553   6.343   2.063   2.717  0.1222 -0.0201 -0.2128
 7697SOL    HW230554   6.299   2.097   2.640 -0.7520  0.5704  0.5231
 7697SOL    HW330555   6.294   1.985   2.742 -0.3867  0.4976  0.4611
 7697SOL    MW430556   6.331   2.057   2.710 -0.0602  0.1261 -0.0268
 7698SOL     OW30557   3.061   2.154   3.048 -0.2243  0.1780 -0.3010
 7698SOL    HW230558   3.006   2.232   3.042  0.5653  0.8714  0.9981
 7698SOL    HW330559   3.142   2.186   3.088 -0.0716 -1.3993  0.6940
 7698SOL    MW430560   3.064   2.169   3.052 -0.1000  0.0614  0.0017
 7699SOL     OW30561   4.551   5.242   3.232  0.0561  0.2570  0.1281
 7699SOL    HW230562   4.483   5.185   3.196 -0.1144  1.5741 -1.7213
 7699SOL    HW330563   4.623   5.238   3.169  0.3085  1.5720  0.3055
 7699SOL    MW430564   4.552   5.234   3.219  0.0669  0.6042 -0.0925
 7700SOL     OW30565   3.551   4.142   2.974 -0.0195 -0.6088  0.1741
 7700SOL    HW230566   3.645   4.159   2.980  0.4599 -0.7328 -3.9625
 7700SOL    HW330567   3.510   4.221   3.007  1.7601  1.2967 -1.8289
 7700SOL    MW430568   3.558   4.154   2.979  0.2785 -0.3738 -0.6360
 7701SOL     OW30569   0.490   1.615   2.925 -0.9406  0.0367  0.4057
 7701SOL    HW230570   0.516   1.662   3.004  3.2840 -2.1730  0.6285
 7701SOL    HW330571   0.499   1.679   2.854  0.4419  0.7379  1.1800
 7701SOL    MW430572   0.495   1.630   2.926 -0.2008 -0.1623  0.5373
 7702SOL     OW30573   1.388   3.101   0.064 -0.0227  0.0382 -0.1100
 7702SOL    HW230574   1.311   3.140   0.106  0.1473  1.2139 -0.8472
 7702SOL    HW330575   1.352   3.046  -0.005 -0.2524 -0.8514  0.6980
 7702SOL    MW430576   1.373   3.099   0.060 -0.0306  0.0759 -0.1007
 7703SOL     OW30577   4.043   6.140   3.661 -0.4765 -0.7322 -0.1097
 7703SOL    HW230578   3.954   6.110   3.679 -1.2116  1.5774  0.5149
 7703SOL    HW330579   4.040   6.174   3.572 -0.9010  1.4177  0.6668
 7703SOL    MW430580   4.031   6.140   3.652 -0.6295 -0.1438  0.0751
 7704SOL     OW30581   2.867   3.166   1.473 -0.0677  0.9798  0.3267
 7704SOL    HW230582   2.926   3.129   1.408 -0.7474 -0.7511  0.6555
 7704SOL    HW330583   2.816   3.231   1.425  0.8934  1.2587 -0.3481
 7704SOL    MW430584   2.868   3.170   1.458 -0.0306  0.7883  0.2810
 7705SOL     OW30585   3.386   5.716   5.177 -0.7433  0.0151 -0.0937
 7705SOL    HW230586   3.401   5.622   5.175 -0.4037  0.0452  0.5919
 7705SOL    HW330587   3.409   5.742   5.266 -0.3116  0.8283 -0.4247
 7705SOL    MW430588   3.391   5.707   5.188 -0.6416  0.1264 -0.0469
 7706SOL     OW30589   6.156   0.875   2.614 -0.5046 -0.2453 -0.0802
 7706SOL    HW230590   6.149   0.780   2.601 -0.5797 -0.2110 -0.2845
 7706SOL    HW330591   6.150   0.886   2.709  0.7525 -0.5476  0.0529
 7706SOL    MW430592   6.154   0.864   2.625 -0.3487 -0.2806 -0.0896
 7707SOL     OW30593   4.728   4.491   3.418  0.8700 -0.0502  0.4242
 7707SOL    HW230594   4.781   4.555   3.467  0.9636 -0.1038  0.3928
 7707SOL    HW330595   4.689   4.541   3.347  0.9781 -0.0365  0.3740
 7707SOL    MW430596   4.730   4.506   3.415  0.8966 -0.0555  0.4134
 7708SOL     OW30597   5.440   0.349   1.045 -0.6632  0.5878  0.2913
 7708SOL    HW230598   5.505   0.410   1.079 -0.1399  0.1489  0.0829
 7708SOL    HW330599   5.479   0.262   1.057 -0.7480  0.3819 -0.8383
 7708SOL    MW430600   5.454   0.345   1.051 -0.6054  0.5027  0.1148
 7709SOL     OW30601   1.165   1.850   0.262 -0.3435 -0.3833 -0.2230
 7709SOL    HW230602   1.221   1.788   0.309 -1.4220 -1.8673 -0.7813
 7709SOL    HW330603   1.210   1.866   0.179  1.1004  1.5044  0.8416
 7709SOL    MW430604   1.178   1.844   0.258 -0.2953 -0.3300 -0.1562
 7710SOL     OW30605   1.180   4.669   0.796 -0.2334  0.0676 -0.2228
 7710SOL    HW230606   1.259   4.617   0.813 -0.6615 -0.0499  1.7410
 7710SOL    HW330607   1.210   4.760   0.796  0.2028 -0.0588 -1.6064
 7710SOL    MW430608   1.195   4.674   0.798 -0.2323  0.0354 -0.1462
 7711SOL     OW30609   4.583   2.215   3.388  0.5276 -0.2778  0.2936
 7711SOL    HW230610   4.582   2.311   3.396  0.2652 -0.3163  0.7312
 7711SOL    HW330611   4.606   2.184   3.475 -1.0952 -0.6659  0.6069
 7711SOL    MW430612   4.586   2.224   3.400  0.2789 -0.3341  0.3926
 7712SOL     OW30613   1.834   0.958   2.264  0.3707 -0.8198  0.3309
 7712SOL    HW230614   1.926   0.977   2.282  0.3248 -1.9313  1.9197
 7712SOL    HW330615   1.833   0.929   2.173  0.8971  3.3170 -1.2313
 7712SOL    MW430616   1.846   0.957   2.254  0.4341 -0.4207  0.3344
 7713SOL     OW30617   2.678   2.055   1.503  0.2743  0.1733 -0.1553
 7713SOL    HW230618   2.695   2.011   1.587  0.8282  0.6736 -0.0017
 7713SOL    HW330619   2.738   2.129   1.502 -1.1545  1.3727 -0.0907
 7713SOL    MW430620   2.689   2.059   1.514  0.1589  0.3976 -0.1265
 7714SOL     OW30621   2.001   1.149   4.142  0.0350 -0.4490  0.6426
 7714SOL    HW230622   1.916   1.145   4.098  0.2291  0.0512  0.2234
 7714SOL    HW330623   2.019   1.242   4.152  0.5921 -0.5488  0.6208
 7714SOL    MW430624   1.992   1.161   4.138  0.1341 -0.3962  0.5844
 7715SOL     OW30625   6.074   5.099   6.056 -0.4068 -0.0681  0.4499
 7715SOL    HW230626   5.986   5.061   6.056 -0.7869  0.6640 -1.6598
 7715SOL    HW330627   6.061   5.189   6.088 -0.0483 -0.5770  2.1384
 7715SOL    MW430628   6.060   5.106   6.060 -0.4097 -0.0387  0.3943
 7716SOL     OW30629   3.666   2.909   2.177  0.0615  0.8359  0.4546
 7716SOL    HW230630   3.727   2.914   2.250  1.3566  0.8539 -0.5796
 7716SOL    HW330631   3.622   2.994   2.176 -0.1618  0.7418  1.3545
 7716SOL    MW430632   3.669   2.921   2.186  0.2029  0.8259  0.4368
 7717SOL     OW30633   3.336   2.489   4.119 -0.2497  0.2561  0.2771
 7717SOL    HW230634   3.298   2.513   4.035  2.0819  2.8612 -0.1858
 7717SOL    HW330635   3.359   2.397   4.109  0.9199  0.7423 -2.3978
 7717SOL    MW430636   3.334   2.480   4.106  0.2123  0.6640 -0.1369
 7718SOL     OW30637   4.662   3.433   2.716  0.3519 -0.0324 -0.5224
 7718SOL    HW230638   4.613   3.509   2.748  0.5101  0.3553 -1.1899
 7718SOL    HW330639   4.596   3.364   2.707  0.4830 -0.5258  1.7372
 7718SOL    MW430640   4.647   3.434   2.719  0.3900 -0.0463 -0.3124
 7719SOL     OW30641   0.101   0.801   1.218  0.2286  0.1797  0.0486
 7719SOL    HW230642   0.071   0.768   1.133  0.6613 -0.1912  0.0344
 7719SOL    HW330643   0.174   0.859   1.197 -0.5624  1.2058  0.0706
 7719SOL    MW430644   0.107   0.804   1.204  0.1814  0.2661  0.0496
 7720SOL     OW30645   3.142   3.795   1.732 -0.2053 -0.1153  0.8278
 7720SOL    HW230646   3.068   3.854   1.718  0.4625  1.0161  1.7988
 7720SOL    HW330647   3.217   3.844   1.699  0.1016 -1.3101 -0.2905
 7720SOL    MW430648   3.142   3.809   1.726 -0.0767 -0.1237  0.8083
 7721SOL     OW30649   4.562   2.879   3.148 -0.0199  0.9889  0.1988
 7721SOL    HW230650   4.490   2.873   3.211 -0.7035 -2.3457 -0.6894
 7721SOL    HW330651   4.604   2.793   3.152  0.6720  1.0700 -2.9953
 7721SOL    MW430652   4.558   2.867   3.157 -0.0188  0.5596 -0.3398
 7722SOL     OW30653   2.393   5.714   5.000 -0.3386  0.6796 -0.1766
 7722SOL    HW230654   2.392   5.752   4.912 -0.1085  2.3824  0.5074
 7722SOL    HW330655   2.375   5.789   5.058 -1.2936 -0.5484  1.1728
 7722SOL    MW430656   2.390   5.729   4.996 -0.4342  0.7423  0.0917
 7723SOL     OW30657   3.484   0.609   3.940  0.2699 -0.9957  0.0652
 7723SOL    HW230658   3.496   0.629   4.033  0.0700  0.6258 -0.2153
 7723SOL    HW330659   3.455   0.692   3.902  1.2387 -1.3737 -1.6060
 7723SOL    MW430660   3.482   0.623   3.947  0.3714 -0.8316 -0.1923
 7724SOL     OW30661   0.933   3.579   5.868  0.3229  0.4072  0.1494
 7724SOL    HW230662   0.986   3.648   5.907 -0.5115  1.2200 -0.1277
 7724SOL    HW330663   0.916   3.518   5.940  1.0792  0.4671  0.3897
 7724SOL    MW430664   0.938   3.580   5.883  0.3126  0.5224  0.1446
 7725SOL     OW30665   4.415   0.138   4.331 -0.0716  0.4447 -0.4367
 7725SOL    HW230666   4.321   0.128   4.317 -0.3792  0.7207  1.2698
 7725SOL    HW330667   4.442   0.204   4.267 -1.3743  1.6730  0.2479
 7725SOL    MW430668   4.406   0.145   4.320 -0.2841  0.6431 -0.1212
 7726SOL     OW30669   1.324   0.402   4.385  0.9777 -0.2191  0.2737
 7726SOL    HW230670   1.250   0.341   4.390  0.3395  0.5922  1.1165
 7726SOL    HW330671   1.366   0.382   4.301 -3.0589  2.4837 -2.8466
 7726SOL    MW430672   1.319   0.391   4.374  0.3609  0.2445 -0.0268
 7727SOL     OW30673   0.746   5.602   5.983 -0.2342 -0.2489  0.1974
 7727SOL    HW230674   0.696   5.682   5.997 -0.2853 -0.4068  0.9920
 7727SOL    HW330675   0.691   5.550   5.923  0.0777  0.5372 -0.7962
 7727SOL    MW430676   0.732   5.605   5.977 -0.1998 -0.1660  0.1711
 7728SOL     OW30677   5.588   5.539   6.181  0.4616 -0.7168  0.3605
 7728SOL    HW230678   5.621   5.554   6.270  0.3690 -0.7249  0.3963
 7728SOL    HW330679   5.576   5.627   6.145 -0.9366 -0.6646  0.8828
 7728SOL    MW430680   5.591   5.553   6.188  0.2649 -0.7110  0.4341
 7729SOL     OW30681   2.886   0.629   1.468  0.0605  0.2951 -0.5442
 7729SOL    HW230682   2.856   0.717   1.443 -0.2499  0.5366  0.5921
 7729SOL    HW330683   2.830   0.605   1.542 -0.7557 -1.4325 -1.6612
 7729SOL    MW430684   2.874   0.638   1.474 -0.0882  0.0991 -0.5416
 7730SOL     OW30685   4.928   5.942   0.223  0.6075 -0.2356  0.6867
 7730SOL    HW230686   4.941   5.955   0.317  0.7473 -0.0787  0.6459
 7730SOL    HW330687   5.006   5.894   0.194  1.7698  1.8592  0.1966
 7730SOL    MW430688   4.940   5.937   0.231  0.7793  0.0615  0.6166
 7731SOL     OW30689   5.418   4.193   0.193  0.4525 -0.2521  0.6923
 7731SOL    HW230690   5.409   4.147   0.276  1.1420 -1.4609  0.1321
 7731SOL    HW330691   5.343   4.251   0.189 -0.6551 -1.5805  1.2894
 7731SOL    MW430692   5.407   4.194   0.203  0.3973 -0.5869  0.6972
 7732SOL     OW30693   4.763   2.754   3.849 -0.1486 -0.4011 -0.0849
 7732SOL    HW230694   4.698   2.695   3.889 -1.3436  1.0165  0.1662
 7732SOL    HW330695   4.842   2.740   3.901 -0.7266 -0.9676  0.6924
 7732SOL    MW430696   4.765   2.744   3.861 -0.3825 -0.2888  0.0508
 7733SOL     OW30697   6.231   3.157   5.187 -0.1426 -0.2270 -0.4604
 7733SOL    HW230698   6.313   3.167   5.139 -0.1824 -1.1881 -0.7496
 7733SOL    HW330699   6.163   3.183   5.124 -0.2530 -2.2492 -1.2304
 7733SOL    MW430700   6.233   3.162   5.172 -0.1624 -0.6206 -0.6002
 7734SOL     OW30701   6.102   3.919   0.011  0.8184  0.7012 -0.3286
 7734SOL    HW230702   6.145   3.963  -0.063 -0.8852 -0.6452 -2.2424
 7734SOL    HW330703   6.022   3.969   0.024 -0.0937 -0.5140 -1.1034
 7734SOL    MW430704   6.097   3.932   0.003  0.4733  0.3632 -0.6833
 7735SOL     OW30705   1.734   4.112   0.700  0.0984  0.4458  0.3638
 7735SOL    HW230706   1.678   4.118   0.623  0.1111 -4.1800 -0.2908
 7735SOL    HW330707   1.679   4.069   0.766  1.4293  0.1679  1.3424
 7735SOL    MW430708   1.719   4.107   0.699  0.2756 -0.2012  0.4065
 7736SOL     OW30709   2.442   3.657   2.892  0.0555  0.1988  0.2688
 7736SOL    HW230710   2.362   3.707   2.907 -1.3572 -1.8753 -0.0352
 7736SOL    HW330711   2.502   3.687   2.961 -1.7764  0.1614  1.9650
 7736SOL    MW430712   2.440   3.667   2.903 -0.3726 -0.0798  0.4525
 7737SOL     OW30713   5.571   4.974   5.824  0.2817 -0.2077  0.0153
 7737SOL    HW230714   5.592   4.884   5.797 -0.0585 -0.2155 -0.2267
 7737SOL    HW330715   5.520   4.964   5.904 -0.2537 -0.2539 -0.3288
 7737SOL    MW430716   5.567   4.961   5.831  0.1662 -0.2148 -0.0621
 7738SOL     OW30717   1.272   4.038   0.734 -0.1570  0.3095  0.2175
 7738SOL    HW230718   1.268   4.021   0.640  0.6104 -0.8289  0.3820
 7738SOL    HW330719   1.210   4.110   0.747  0.3092  1.0290 -1.2702
 7738SOL    MW430720   1.263   4.045   0.723  0.0058  0.2542  0.0429
 7739SOL     OW30721   6.136   2.546   1.714 -0.1962 -0.1469 -0.4006
 7739SOL    HW230722   6.119   2.640   1.712  3.4584  0.7440  1.8619
 7739SOL    HW330723   6.189   2.529   1.636 -0.4655 -0.2359 -0.5643
 7739SOL    MW430724   6.141   2.556   1.704  0.2504 -0.0411 -0.1237
 7740SOL     OW30725   3.797   5.285   0.852  0.4679 -0.0562 -0.1134
 7740SOL    HW230726   3.800   5.299   0.757 -0.7701 -0.8560 -0.2952
 7740SOL    HW330727   3.720   5.333   0.881  1.4111  1.0461  0.6774
 7740SOL    MW430728   3.787   5.293   0.843  0.4290 -0.0163 -0.0330
 7741SOL     OW30729   2.529   3.492   6.283  0.6090 -0.4735 -0.5689
 7741SOL    HW230730   2.439   3.513   6.311  0.3395 -1.7929 -0.4045
 7741SOL    HW330731   2.517   3.431   6.210  1.3867 -0.6481 -0.5525
 7741SOL    MW430732   2.515   3.487   6.277  0.6760 -0.6706 -0.5450
 7742SOL     OW30733   6.289   0.868   3.668  0.2200  0.7067 -0.5904
 7742SOL    HW230734   6.358   0.836   3.611 -0.9295 -0.0128 -1.6434
 7742SOL    HW330735   6.214   0.810   3.649 -0.3895  0.8556  1.1871
 7742SOL    MW430736   6.288   0.856   3.658 -0.0121  0.6314 -0.4948
 7743SOL     OW30737   3.878   5.906   5.022 -0.0264  0.4172  0.2084
 7743SOL    HW230738   3.933   5.983   5.040 -0.7446  0.7984  0.8025
 7743SOL    HW330739   3.797   5.942   4.986  0.1366 -0.1532 -0.7581
 7743SOL    MW430740   3.875   5.921   5.020 -0.0996  0.3923  0.1592
 7744SOL     OW30741   2.633   2.308   1.009 -0.0148  0.4660  0.7101
 7744SOL    HW230742   2.579   2.284   1.084  2.1164 -1.3979  1.8002
 7744SOL    HW330743   2.697   2.371   1.044  1.0524 -0.4808  0.5259
 7744SOL    MW430744   2.634   2.313   1.023  0.4071  0.0952  0.8297
 7745SOL     OW30745   0.739   0.231   0.143 -0.3990  0.3644  0.5748
 7745SOL    HW230746   0.668   0.291   0.123  0.6906  1.4143 -0.2628
 7745SOL    HW330747   0.785   0.219   0.060  0.5814 -0.0677  1.1592
 7745SOL    MW430748   0.736   0.237   0.130 -0.1259  0.4459  0.5414
 7746SOL     OW30749   3.580   3.960   0.727 -0.3906  0.1613 -0.3798
 7746SOL    HW230750   3.485   3.953   0.741 -0.2591 -2.6948 -0.3588
 7746SOL    HW330751   3.605   3.875   0.692  2.1801  0.8891 -0.4855
 7746SOL    MW430752   3.571   3.948   0.724 -0.0340 -0.1195 -0.3910
 7747SOL     OW30753   5.009   3.782   0.461  0.0168  0.1928  0.4417
 7747SOL    HW230754   5.034   3.874   0.452  0.0215  0.1658  0.1684
 7747SOL    HW330755   5.091   3.736   0.479  0.1692  0.1137 -0.3926
 7747SOL    MW430756   5.023   3.788   0.462  0.0375  0.1788  0.2956
 7748SOL     OW30757   1.835   3.553   6.275 -0.7310  0.0087 -0.6082
 7748SOL    HW230758   1.795   3.637   6.293 -0.4526 -0.0942  0.5923
 7748SOL    HW330759   1.838   3.509   6.360 -0.7238 -1.1467 -1.1792
 7748SOL    MW430760   1.830   3.558   6.288 -0.6933 -0.1573 -0.5252
 7749SOL     OW30761   5.431   4.172   3.627  0.5888 -0.4907 -0.1189
 7749SOL    HW230762   5.501   4.227   3.662  0.0921 -0.5620  1.0407
 7749SOL    HW330763   5.450   4.085   3.660  0.4044 -0.6729 -0.4860
 7749SOL    MW430764   5.442   4.168   3.636  0.4990 -0.5242 -0.0143
 7750SOL     OW30765   0.113   2.956   3.814 -0.1178  0.0978 -0.0808
 7750SOL    HW230766   0.021   2.951   3.839 -0.7434 -1.2818 -2.3789
 7750SOL    HW330767   0.142   3.042   3.844 -2.3135  0.8027  0.1578
 7750SOL    MW430768   0.105   2.967   3.821 -0.4901  0.0088 -0.3526
 7751SOL     OW30769   1.288   2.880   6.324 -0.5123 -0.0764  0.5429
 7751SOL    HW230770   1.240   2.813   6.371 -1.0917 -0.0390  0.0255
 7751SOL    HW330771   1.369   2.838   6.296 -1.0966 -0.7210 -0.2177
 7751SOL    MW430772   1.293   2.866   6.327 -0.6658 -0.1565  0.3743
 7752SOL     OW30773   4.150   2.960   3.621  0.3982  0.7928 -0.1821
 7752SOL    HW230774   4.136   2.922   3.707 -2.8871  0.7675 -0.6097
 7752SOL    HW330775   4.117   3.050   3.628  1.5559  1.3198 -1.0365
 7752SOL    MW430776   4.144   2.967   3.633  0.1175  0.8590 -0.3513
 7753SOL     OW30777   5.747   3.914   3.115 -0.0393  0.1863 -0.3877
 7753SOL    HW230778   5.662   3.955   3.099  0.6434  2.6948  1.6077
 7753SOL    HW330779   5.739   3.877   3.203  0.7601  0.0044 -0.3840
 7753SOL    MW430780   5.735   3.915   3.125  0.1562  0.4933 -0.1240
 7754SOL     OW30781   2.861   3.269   4.613  0.5133  0.2636 -0.1560
 7754SOL    HW230782   2.910   3.280   4.695 -0.5442  0.6672  0.4574
 7754SOL    HW330783   2.815   3.353   4.602 -1.0195 -0.5199 -0.0035
 7754SOL    MW430784   2.861   3.282   4.623  0.1715  0.2135 -0.0549
 7755SOL     OW30785   3.977   5.019   3.623 -0.3217 -0.3270  0.2062
 7755SOL    HW230786   3.926   5.096   3.599  0.2971 -0.7115 -2.6778
 7755SOL    HW330787   3.945   4.950   3.565  1.6600 -1.2416  0.1074
 7755SOL    MW430788   3.966   5.020   3.612  0.0214 -0.4984 -0.1874
 7756SOL     OW30789   6.034   5.566   1.928 -0.3003  0.0712  0.3559
 7756SOL    HW230790   6.023   5.474   1.904  1.5783  0.1039 -0.8300
 7756SOL    HW330791   5.947   5.604   1.918 -0.7427 -1.1980 -0.8662
 7756SOL    MW430792   6.021   5.559   1.924 -0.1108 -0.0919  0.0382
 7757SOL     OW30793   6.013   0.916   3.384  0.4105  0.3128 -0.0470
 7757SOL    HW230794   5.930   0.905   3.336 -0.3637 -2.4435  1.7199
 7757SOL    HW330795   5.997   0.991   3.441 -0.9364 -0.2204  0.3262
 7757SOL    MW430796   6.000   0.925   3.385  0.1307 -0.1212  0.2353
 7758SOL     OW30797   3.373   2.309   6.240 -0.5433  0.3683  0.1653
 7758SOL    HW230798   3.336   2.378   6.186  0.1842  1.5519  1.1368
 7758SOL    HW330799   3.354   2.336   6.330 -0.2607 -0.7008  0.5593
 7758SOL    MW430800   3.366   2.322   6.244 -0.4100  0.3834  0.3454
 7759SOL     OW30801   3.434   0.173   2.897  0.0720 -0.6910  0.4273
 7759SOL    HW230802   3.352   0.135   2.865  0.0450 -0.7456  0.5594
 7759SOL    HW330803   3.432   0.264   2.867 -0.0531 -0.6824  0.4624
 7759SOL    MW430804   3.423   0.180   2.889  0.0519 -0.6971  0.4493
 7760SOL     OW30805   0.369   0.777   5.958 -0.6745  0.0557  0.3249
 7760SOL    HW230806   0.450   0.744   5.918 -1.6535 -1.1693 -0.7663
 7760SOL    HW330807   0.336   0.840   5.895  0.1152  1.6309  1.4350
 7760SOL    MW430808   0.376   0.781   5.945 -0.6995  0.1019  0.3274
 7761SOL     OW30809   4.486   4.754   0.203  0.5374  0.2145  0.0517
 7761SOL    HW230810   4.392   4.741   0.216  0.8142 -1.3959  0.5671
 7761SOL    HW330811   4.502   4.724   0.114  0.8566 -1.3368  0.6031
 7761SOL    MW430812   4.476   4.748   0.193  0.6160 -0.2027  0.1925
 7762SOL     OW30813   0.564   0.291   3.479  0.4148  0.4244  0.5967
 7762SOL    HW230814   0.557   0.203   3.440 -1.8756  0.5780  0.5225
 7762SOL    HW330815   0.499   0.343   3.432  1.5945  2.1374  0.7806
 7762SOL    MW430816   0.554   0.286   3.468  0.2682  0.6707  0.6112
 7763SOL     OW30817   4.109   3.290   4.277 -0.0424  0.1617  0.4670
 7763SOL    HW230818   4.084   3.261   4.365 -0.1079 -0.9717  0.0911
 7763SOL    HW330819   4.040   3.255   4.220  0.6336 -0.1352 -0.1766
 7763SOL    MW430820   4.096   3.282   4.281  0.0382 -0.0270  0.3325
 7764SOL     OW30821   1.550   3.313   2.562 -0.0992  0.8698  0.5047
 7764SOL    HW230822   1.636   3.353   2.574  0.1737  1.1980 -1.9107
 7764SOL    HW330823   1.553   3.279   2.472 -0.8932 -3.1509  1.7706
 7764SOL    MW430824   1.562   3.314   2.552 -0.1679  0.3826  0.3530
 7765SOL     OW30825   3.313   5.899   6.105  0.1676 -0.0948 -0.4861
 7765SOL    HW230826   3.276   5.925   6.189  0.4188 -1.1041 -0.0468
 7765SOL    HW330827   3.249   5.929   6.040 -0.1408  0.4863  0.0773
 7765SOL    MW430828   3.300   5.907   6.108  0.1600 -0.1513 -0.3538
 7766SOL     OW30829   2.083   6.040   1.475  0.5388 -0.5471  0.5755
 7766SOL    HW230830   2.097   6.014   1.566 -0.3328 -0.3043  0.7842
 7766SOL    HW330831   2.002   5.998   1.450  0.7293 -0.5367 -0.0657
 7766SOL    MW430832   2.074   6.031   1.484  0.4489 -0.5137  0.5185
 7767SOL     OW30833   5.757   5.966   4.054 -0.0602  0.0080  0.1429
 7767SOL    HW230834   5.782   6.042   4.107  0.9897  1.3398 -2.0458
 7767SOL    HW330835   5.837   5.913   4.050  0.4925  0.8768 -1.5024
 7767SOL    MW430836   5.771   5.969   4.060  0.1513  0.2983 -0.3629
 7768SOL     OW30837   5.294   0.488   0.670 -0.1925  0.0262  0.1069
 7768SOL    HW230838   5.246   0.442   0.602  0.1618 -0.6642  0.3201
 7768SOL    HW330839   5.238   0.563   0.692 -0.2285  0.3618 -1.0622
 7768SOL    MW430840   5.280   0.492   0.664 -0.1505 -0.0206 -0.0192
 7769SOL     OW30841   4.836   1.032   5.537 -1.3102 -0.7672 -0.1934
 7769SOL    HW230842   4.830   0.941   5.568  1.1823 -1.1629 -0.6281
 7769SOL    HW330843   4.873   1.025   5.449 -2.0072  0.6543 -0.6309
 7769SOL    MW430844   4.840   1.019   5.530 -1.0733 -0.6319 -0.3085
 7770SOL     OW30845   0.599   0.838   0.321 -0.3217  0.0240  0.1156
 7770SOL    HW230846   0.554   0.782   0.384 -0.8519  0.8200  0.4579
 7770SOL    HW330847   0.659   0.779   0.275 -0.0885 -0.6159  1.2015
 7770SOL    MW430848   0.601   0.823   0.323 -0.3609  0.0446  0.3040
 7771SOL     OW30849   5.504   1.349   3.348 -0.0332  0.0354 -0.1676
 7771SOL    HW230850   5.556   1.365   3.269  1.8769 -0.3780  0.9433
 7771SOL    HW330851   5.449   1.427   3.356  0.5555  0.5975 -1.2698
 7771SOL    MW430852   5.504   1.361   3.338  0.2965  0.0550 -0.1665
 7772SOL     OW30853   0.599   6.376   0.412 -0.0807 -0.2936  0.1080
 7772SOL    HW230854   0.634   6.346   0.496  0.6969  0.4728  0.0690
 7772SOL    HW330855   0.663   6.346   0.348 -0.4798 -0.5411 -0.1807
 7772SOL    MW430856   0.612   6.368   0.415 -0.0308 -0.2252  0.0648
 7773SOL     OW30857   4.174   5.518   4.381  0.3988  0.3922  0.1815
 7773SOL    HW230858   4.180   5.445   4.320 -2.8850 -0.9800  1.3102
 7773SOL    HW330859   4.217   5.487   4.461 -0.4373 -0.1266  0.4469
 7773SOL    MW430860   4.181   5.505   4.384 -0.1448  0.1427  0.3655
 7774SOL     OW30861   4.234   2.014   4.407 -0.0777 -0.5210  0.0298
 7774SOL    HW230862   4.142   2.041   4.401 -0.3817 -1.7630 -1.3561
 7774SOL    HW330863   4.260   2.042   4.495 -1.5634  0.4681  0.2138
 7774SOL    MW430864   4.225   2.022   4.418 -0.3138 -0.5544 -0.1288
 7775SOL     OW30865   2.092   1.888   0.892  0.2792 -0.0929  0.2119
 7775SOL    HW230866   2.087   1.808   0.944  0.9422 -0.3123 -0.0522
 7775SOL    HW330867   2.006   1.895   0.851  0.1400 -0.5460  0.4199
 7775SOL    MW430868   2.080   1.879   0.894  0.3483 -0.1816  0.2045
 7776SOL     OW30869   3.142   1.473   1.970  0.0405 -0.2131 -0.1111
 7776SOL    HW230870   3.106   1.392   1.934 -0.2462  0.3453 -1.1067
 7776SOL    HW330871   3.182   1.446   2.053 -0.9108 -1.1984  0.0555
 7776SOL    MW430872   3.143   1.459   1.976 -0.1228 -0.2694 -0.2205
 7777SOL     OW30873   6.013   1.131   5.529  0.6474 -0.3947  0.0772
 7777SOL    HW230874   5.935   1.100   5.576 -0.3124 -0.4555 -1.4913
 7777SOL    HW330875   5.991   1.121   5.436  2.8095 -1.1203 -0.4206
 7777SOL    MW430876   6.000   1.125   5.523  0.8060 -0.4985 -0.1954
 7778SOL     OW30877   4.059   1.194   5.013  0.1222  0.0287 -0.7464
 7778SOL    HW230878   4.102   1.120   5.057  1.1432 -0.1058 -1.9174
 7778SOL    HW330879   4.080   1.269   5.068 -1.0523 -0.5389  0.5443
 7778SOL    MW430880   4.068   1.194   5.026  0.1019 -0.0639 -0.7306
 7779SOL     OW30881   0.038   1.146   2.645  0.0844  0.2211  0.5614
 7779SOL    HW230882   0.105   1.210   2.668  0.8173 -0.8743  1.6252
 7779SOL    HW330883   0.006   1.112   2.729  0.0299 -1.0974  0.0451
 7779SOL    MW430884   0.043   1.150   2.659  0.1739 -0.0974  0.6336
 7780SOL     OW30885   3.402   0.678   4.218 -0.1846 -0.6673  0.3362
 7780SOL    HW230886   3.322   0.640   4.181 -1.4619  1.4753  0.7132
 7780SOL    HW330887   3.387   0.677   4.313 -0.7659  1.6257  0.3337
 7780SOL    MW430888   3.389   0.673   4.226 -0.4298 -0.0821  0.3856
 7781SOL     OW30889   6.194   2.233   1.892 -0.5663 -0.1844 -0.3193
 7781SOL    HW230890   6.170   2.323   1.871  0.4388  0.2773  0.4629
 7781SOL    HW330891   6.133   2.180   1.840 -1.2806  0.9307 -0.6627
 7781SOL    MW430892   6.183   2.238   1.882 -0.5279  0.0236 -0.2614
 7782SOL     OW30893   2.616   3.852   4.454 -0.1325 -0.2644  0.0585
 7782SOL    HW230894   2.618   3.931   4.508  0.4616 -0.9394  1.0519
 7782SOL    HW330895   2.634   3.884   4.365 -0.3654  0.7692  0.3682
 7782SOL    MW430896   2.619   3.867   4.449 -0.0848 -0.2171  0.2304
 7783SOL     OW30897   4.424   4.709   4.559 -0.3395  0.0245  0.0282
 7783SOL    HW230898   4.341   4.676   4.593 -0.2120 -1.2007 -0.7973
 7783SOL    HW330899   4.441   4.657   4.481 -0.1446  2.1095 -1.4046
 7783SOL    MW430900   4.415   4.698   4.553 -0.2970  0.1380 -0.2698
 7784SOL     OW30901   3.165   4.180   0.644 -0.8009  0.2944  0.0950
 7784SOL    HW230902   3.248   4.132   0.633 -0.9145  0.4488 -1.7222
 7784SOL    HW330903   3.100   4.111   0.656 -0.4685  0.1604  1.2501
 7784SOL    MW430904   3.168   4.164   0.644 -0.7720  0.2971  0.0077
 7785SOL     OW30905   3.035   5.238   0.225  0.4184  0.0999 -0.1458
 7785SOL    HW230906   2.943   5.264   0.215  0.2012 -1.1291 -1.7073
 7785SOL    HW330907   3.084   5.319   0.210 -0.3166  0.1781 -2.4525
 7785SOL    MW430908   3.029   5.252   0.222  0.2928 -0.0519 -0.6562
 7786SOL     OW30909   4.002   0.961   0.319  0.7110  0.0473  0.5235
 7786SOL    HW230910   4.071   1.023   0.296  0.3664  0.9861  1.9177
 7786SOL    HW330911   3.936   0.973   0.251  0.4440  1.5680  1.0113
 7786SOL    MW430912   4.003   0.970   0.307  0.6303  0.3718  0.7718
 7787SOL     OW30913   4.924   1.405   2.668  0.1210 -0.1979  0.2284
 7787SOL    HW230914   4.894   1.493   2.689 -1.7113 -0.5643 -0.6982
 7787SOL    HW330915   4.962   1.413   2.580  0.0832 -0.3208  0.2016
 7787SOL    MW430916   4.925   1.418   2.659 -0.1257 -0.2625  0.1026
 7788SOL     OW30917   1.782   5.014   3.083 -0.8840 -0.0963 -0.3577
 7788SOL    HW230918   1.780   5.050   2.995  0.1956 -1.3938 -0.9394
 7788SOL    HW330919   1.696   5.036   3.120 -0.9856  1.3022 -1.3613
 7788SOL    MW430920   1.770   5.022   3.077 -0.7549 -0.0830 -0.5668
 7789SOL     OW30921   5.969   3.024   6.287 -0.6566 -0.3441  0.0477
 7789SOL    HW230922   5.980   2.978   6.204  0.1516 -0.7088  0.3468
 7789SOL    HW330923   5.886   3.070   6.278 -1.8701 -2.4261 -0.0221
 7789SOL    MW430924   5.959   3.024   6.275 -0.7101 -0.6669  0.0779
 7790SOL     OW30925   3.029   2.892   5.731  0.1716  0.2182 -0.0513
 7790SOL    HW230926   3.106   2.834   5.724  0.0720  0.2144 -1.5241
 7790SOL    HW330927   2.954   2.832   5.728  0.0990  0.3103 -0.0882
 7790SOL    MW430928   3.030   2.876   5.729  0.1489  0.2298 -0.2505
 7791SOL     OW30929   6.075   1.944   5.762 -0.3276  0.7108  0.1172
 7791SOL    HW230930   6.037   1.857   5.760  0.8638  0.0715  2.3380
 7791SOL    HW330931   6.010   1.997   5.809  0.5183  0.1136  2.0348
 7791SOL    MW430932   6.061   1.940   5.768 -0.0588  0.5476  0.6632
 7792SOL     OW30933   3.678   1.799   4.712 -0.2489  0.2102 -0.7552
 7792SOL    HW230934   3.657   1.762   4.626  0.5011  1.5305 -1.5418
 7792SOL    HW330935   3.597   1.839   4.742 -1.2459 -2.3921  0.3647
 7792SOL    MW430936   3.665   1.799   4.705 -0.2815  0.0410 -0.7112
 7793SOL     OW30937   4.077   1.564   6.378  0.2871  0.3203 -0.3906
 7793SOL    HW230938   4.135   1.528   6.311 -0.9892  0.1642 -1.4491
 7793SOL    HW330939   4.131   1.568   6.457  1.5791 -0.2829 -1.2147
 7793SOL    MW430940   4.092   1.560   6.379  0.2892  0.2201 -0.6390
 7794SOL     OW30941   4.757   6.411   5.562 -0.0119 -0.0112 -0.0119
 7794SOL    HW230942   4.818   6.408   5.489 -0.8350  1.7240 -0.8524
 7794SOL    HW330943   4.701   6.335   5.551 -0.5605  0.5870 -1.6379
 7794SOL    MW430944   4.758   6.401   5.551 -0.1929  0.2967 -0.3373
 7795SOL     OW30945   3.036   6.394   4.228  0.2456  0.4058  0.2471
 7795SOL    HW230946   3.119   6.397   4.180  0.1145  1.8123  0.0730
 7795SOL    HW330947   3.052   6.445   4.308  0.4254 -1.7947  1.6990
 7795SOL    MW430948   3.049   6.401   4.233  0.2520  0.3011  0.4157
 7796SOL     OW30949   3.607   3.663   3.467  0.2586  0.3461  0.0895
 7796SOL    HW230950   3.649   3.588   3.425 -0.8601 -0.9546  1.1624
 7796SOL    HW330951   3.531   3.625   3.512 -0.2902  2.1249  0.7434
 7796SOL    MW430952   3.602   3.648   3.468  0.0386  0.4092  0.3173
 7797SOL     OW30953   6.425   5.289   2.366 -0.3770 -0.1595 -0.4991
 7797SOL    HW230954   6.395   5.379   2.353 -2.8180 -0.8297  0.1045
 7797SOL    HW330955   6.448   5.259   2.278  0.7779  1.1042 -0.6745
 7797SOL    MW430956   6.424   5.297   2.353 -0.5467 -0.0812 -0.4426
 7798SOL     OW30957   4.418   4.063   1.608 -0.4011 -0.7251  0.3067
 7798SOL    HW230958   4.346   4.029   1.556 -0.1266  0.1582 -0.6834
 7798SOL    HW330959   4.494   4.012   1.581  0.1200  0.8964 -1.5614
 7798SOL    MW430960   4.418   4.052   1.598 -0.2961 -0.3946 -0.0704
 7799SOL     OW30961   3.532   5.123   5.312 -0.3449 -0.5117 -0.7337
 7799SOL    HW230962   3.577   5.191   5.262  0.3918 -0.0844  0.4770
 7799SOL    HW330963   3.463   5.170   5.360  0.1081 -0.6153  0.0353
 7799SOL    MW430964   3.529   5.138   5.312 -0.1879 -0.4690 -0.4725
 7800SOL     OW30965   1.363   3.841   2.128  0.3679  0.1454 -0.3034
 7800SOL    HW230966   1.279   3.795   2.124  1.1584 -1.3807 -0.1933
 7800SOL    HW330967   1.404   3.823   2.043  1.6367 -1.3052  0.5715
 7800SOL    MW430968   1.357   3.832   2.116  0.6396 -0.2474 -0.1734
 7801SOL     OW30969   0.242   3.933   1.501  0.0984 -0.2905 -0.3480
 7801SOL    HW230970   0.188   3.892   1.568  0.2783  1.2400  0.7942
 7801SOL    HW330971   0.239   3.872   1.427 -2.6196 -0.5876 -0.1032
 7801SOL    MW430972   0.235   3.920   1.500 -0.2364 -0.1277 -0.1650
 7802SOL     OW30973   0.299   2.187   1.599  0.0954  0.5001 -0.6473
 7802SOL    HW230974   0.316   2.138   1.680 -0.7223  1.4272  0.1153
 7802SOL    HW330975   0.373   2.247   1.591 -0.4331  1.2833  0.1224
 7802SOL    MW430976   0.311   2.188   1.609 -0.0822  0.7257 -0.4451
 7803SOL     OW30977   2.824   2.692   4.946 -0.8395  0.2434 -0.1806
 7803SOL    HW230978   2.860   2.610   4.913 -1.7183 -1.0908  1.9672
 7803SOL    HW330979   2.894   2.729   4.999  0.1215  1.7537 -2.3640
 7803SOL    MW430980   2.838   2.686   4.949 -0.8287  0.2667 -0.1853
 7804SOL     OW30981   0.123   1.907   6.304  0.1860  0.1187 -0.2020
 7804SOL    HW230982   0.083   1.981   6.350  1.9167 -0.1155  1.8317
 7804SOL    HW330983   0.181   1.948   6.239 -1.0298  0.4618 -1.1225
 7804SOL    MW430984   0.125   1.922   6.301  0.2539  0.1331 -0.0552
 7805SOL     OW30985   5.426   2.773   5.162 -0.3783 -0.5960  0.1686
 7805SOL    HW230986   5.387   2.688   5.183 -1.7957 -0.0969 -0.2835
 7805SOL    HW330987   5.421   2.778   5.066 -2.1219  0.7525  0.2634
 7805SOL    MW430988   5.420   2.762   5.152 -0.7954 -0.3523  0.1215
 7806SOL     OW30989   1.090   0.233   6.163  0.5076 -0.0973  0.1560
 7806SOL    HW230990   1.183   0.213   6.153  0.6954  1.2367 -1.0823
 7806SOL    HW330991   1.089   0.323   6.196 -0.2914  1.2199 -3.0697
 7806SOL    MW430992   1.102   0.242   6.166  0.4270  0.2525 -0.4330
 7807SOL     OW30993   6.286   0.024   4.822 -0.6020 -0.7574  0.2174
 7807SOL    HW230994   6.313   0.005   4.732 -0.2608  1.0469 -0.1013
 7807SOL    HW330995   6.359   0.073   4.859 -1.3562 -0.1655  0.9782
 7807SOL    MW430996   6.299   0.028   4.815 -0.6565 -0.4413  0.2757
 7808SOL     OW30997   3.464   5.830   0.727  0.5168 -0.1963 -0.1400
 7808SOL    HW230998   3.416   5.756   0.692  1.6140 -1.4473  0.8808
 7808SOL    HW330999   3.517   5.862   0.654 -1.1321  0.6296 -1.0186
 7808SOL    MW431000   3.465   5.825   0.713  0.4440 -0.2524 -0.1212
 7809SOL     OW31001   5.967   1.172   6.205 -0.5531  0.0775  0.2722
 7809SOL    HW231002   6.036   1.237   6.193 -1.0113  0.6431  0.6108
 7809SOL    HW331003   6.002   1.108   6.266 -0.4498  0.5444  0.7039
 7809SOL    MW431004   5.980   1.172   6.211 -0.5999  0.2138  0.3738
 7810SOL     OW31005   3.688   4.112   3.641 -0.7723 -0.3310  0.8072
 7810SOL    HW231006   3.607   4.106   3.691  0.5346 -1.6309  2.9235
 7810SOL    HW331007   3.726   4.024   3.646 -0.3208 -0.3995 -2.1445
 7810SOL    MW431008   3.682   4.100   3.648 -0.5403 -0.5116  0.6970
 7811SOL     OW31009   3.114   4.058   5.153  0.1945  0.4496  0.0281
 7811SOL    HW231010   3.189   4.060   5.213 -0.6756  0.5291  1.1490
 7811SOL    HW331011   3.051   4.118   5.193 -0.4536  0.4159 -0.9246
 7811SOL    MW431012   3.116   4.066   5.166 -0.0058  0.4556  0.0503
 7812SOL     OW31013   3.663   3.693   0.919  0.1672  0.8605  0.4269
 7812SOL    HW231014   3.722   3.625   0.954  0.4933  1.4904  1.1227
 7812SOL    HW331015   3.589   3.694   0.980 -0.6254  0.0083 -0.4982
 7812SOL    MW431016   3.661   3.684   0.932  0.1056  0.8311  0.3967
 7813SOL     OW31017   3.705   0.451   3.044 -0.4141 -0.2445  0.3661
 7813SOL    HW231018   3.654   0.439   2.964 -1.6238  1.7196  0.7880
 7813SOL    HW331019   3.752   0.533   3.031  0.8404 -0.8324  0.9577
 7813SOL    MW431020   3.705   0.460   3.032 -0.4082 -0.0629  0.4998
 7814SOL     OW31021   2.229   3.586   5.285  0.1898 -0.2531 -0.1169
 7814SOL    HW231022   2.219   3.583   5.381  1.5273 -2.4188  0.0200
 7814SOL    HW331023   2.283   3.663   5.269  2.0417 -1.2015  1.1604
 7814SOL    MW431024   2.235   3.595   5.296  0.6106 -0.6639  0.0697
 7815SOL     OW31025   2.606   5.148   3.052 -0.2799 -0.6562 -0.1789
 7815SOL    HW231026   2.540   5.101   3.103  0.1514  0.0182  1.0275
 7815SOL    HW331027   2.614   5.097   2.971 -0.2604 -2.3210  0.8293
 7815SOL    MW431028   2.598   5.135   3.048 -0.2204 -0.7869  0.1133
 7816SOL     OW31029   3.572   4.701   3.024 -0.1696  0.0956  0.0864
 7816SOL    HW231030   3.591   4.670   3.113 -0.0926  1.9112  0.7443
 7816SOL    HW331031   3.582   4.796   3.029  0.2501  0.2109 -1.9768
 7816SOL    MW431032   3.576   4.709   3.037 -0.1041  0.3504 -0.0990
 7817SOL     OW31033   0.225   2.671   5.909  0.0633  0.2529  0.1382
 7817SOL    HW231034   0.175   2.752   5.914 -2.1133 -0.7082 -3.1192
 7817SOL    HW331035   0.178   2.609   5.965 -0.2135  0.3507  0.0120
 7817SOL    MW431036   0.212   2.673   5.917 -0.2604  0.1390 -0.3082
 7818SOL     OW31037   1.113   3.987   5.737  0.2681  0.0869  0.5951
 7818SOL    HW231038   1.151   3.947   5.659  0.1903  0.7617  0.2034
 7818SOL    HW331039   1.110   3.916   5.801  2.2693  0.0163  0.6797
 7818SOL    MW431040   1.118   3.972   5.735  0.5219  0.1666  0.5546
 7819SOL     OW31041   2.871   6.283   5.817 -0.2306  0.0657  0.3793
 7819SOL    HW231042   2.957   6.270   5.777  0.4399  0.0151  1.7907
 7819SOL    HW331043   2.882   6.253   5.907 -2.0758 -1.1606  0.2591
 7819SOL    MW431044   2.884   6.277   5.824 -0.3856 -0.1028  0.5496
 7820SOL     OW31045   6.105   1.664   5.919  0.2386  0.4887  0.1057
 7820SOL    HW231046   6.186   1.635   5.877 -1.4042 -1.4900 -1.9349
 7820SOL    HW331047   6.121   1.649   6.013  2.2888  0.3572 -0.2030
 7820SOL    MW431048   6.118   1.658   5.926  0.2924  0.2103 -0.2042
 7821SOL     OW31049   6.128   5.914   5.026  0.6772 -0.9561 -0.1838
 7821SOL    HW231050   6.045   5.901   5.071 -0.0444 -1.1156 -1.5143
 7821SOL    HW331051   6.137   5.838   4.968  0.4062  0.3381 -2.0197
 7821SOL    MW431052   6.118   5.902   5.024  0.5462 -0.8064 -0.6016
 7822SOL     OW31053   5.761   4.667   4.817  0.6436  0.4108 -0.1155
 7822SOL    HW231054   5.714   4.750   4.813 -0.0124  0.1803  1.9189
 7822SOL    HW331055   5.853   4.691   4.807  0.5795  1.5747  1.6283
 7822SOL    MW431056   5.767   4.681   4.815  0.5486  0.5339  0.3830
 7823SOL     OW31057   3.588   4.185   3.372  0.1218 -0.6474 -0.2061
 7823SOL    HW231058   3.612   4.141   3.454  0.5151 -3.0964 -1.5189
 7823SOL    HW331059   3.500   4.218   3.387  0.7245  0.2242  1.6522
 7823SOL    MW431060   3.580   4.183   3.384  0.2532 -0.8555 -0.1342
 7824SOL     OW31061   3.307   3.906   1.029  0.3641 -0.3558 -0.9045
 7824SOL    HW231062   3.253   3.980   1.056 -0.3071 -0.8916 -0.7446
 7824SOL    HW331063   3.397   3.937   1.038  0.0889  0.4747 -0.9502
 7824SOL    MW431064   3.311   3.920   1.034  0.2393 -0.3169 -0.8894
 7825SOL     OW31065   3.342   1.188   2.745 -0.1411  0.1529 -0.1258
 7825SOL    HW231066   3.416   1.211   2.688 -1.5406  0.7623 -1.7814
 7825SOL    HW331067   3.374   1.205   2.833  0.6280  3.7334 -0.9299
 7825SOL    MW431068   3.356   1.193   2.749 -0.2243  0.7057 -0.4503
 7826SOL     OW31069   2.803   1.833   6.414 -0.2825 -0.0762 -0.2288
 7826SOL    HW231070   2.742   1.857   6.485 -1.0690  1.2048 -1.2804
 7826SOL    HW331071   2.853   1.760   6.449 -2.2808 -1.0509  0.7862
 7826SOL    MW431072   2.801   1.827   6.428 -0.6499 -0.0358 -0.2336
 7827SOL     OW31073   3.272   1.585   0.008  0.1849  0.1147 -0.3538
 7827SOL    HW231074   3.220   1.631  -0.059  0.2947 -1.1430 -1.3507
 7827SOL    HW331075   3.361   1.582  -0.029  0.9787  2.0655  1.2425
 7827SOL    MW431076   3.277   1.590  -0.006  0.3041  0.2061 -0.2747
 7828SOL     OW31077   4.724   1.712   4.234 -0.4398  0.1981  0.7248
 7828SOL    HW231078   4.804   1.742   4.191 -1.3261  2.1732  0.3631
 7828SOL    HW331079   4.723   1.617   4.218  0.5701  0.4862 -1.4163
 7828SOL    MW431080   4.734   1.703   4.226 -0.4235  0.4967  0.3946
 7829SOL     OW31081   1.966   0.541   4.069  0.0369  0.0107  0.0719
 7829SOL    HW231082   1.894   0.512   4.125  0.4100  0.3724  0.7448
 7829SOL    HW331083   1.937   0.625   4.034 -0.1132 -0.1235 -0.1314
 7829SOL    MW431084   1.953   0.548   4.072  0.0663  0.0407  0.1339
 7830SOL     OW31085   0.349   5.838   5.943 -0.3309 -0.1056  0.1782
 7830SOL    HW231086   0.347   5.743   5.939 -3.1094 -0.1817  1.5118
 7830SOL    HW331087   0.333   5.866   5.852  0.3286 -0.8689 -0.1870
 7830SOL    MW431088   0.347   5.829   5.930 -0.6105 -0.2164  0.3060
 7831SOL     OW31089   4.260   5.594   0.609  0.2482 -0.2963 -0.1336
 7831SOL    HW231090   4.208   5.534   0.664 -0.4424  0.2142 -0.2111
 7831SOL    HW331091   4.202   5.668   0.594 -0.0533 -0.9375 -2.5631
 7831SOL    MW431092   4.245   5.596   0.614  0.1173 -0.3135 -0.4643
 7832SOL     OW31093   0.886   4.643   5.714 -0.4152  0.3747  0.1626
 7832SOL    HW231094   0.855   4.724   5.673  0.2737  0.2021 -0.7586
 7832SOL    HW331095   0.966   4.669   5.760  0.6922 -0.0192 -1.4275
 7832SOL    MW431096   0.893   4.657   5.714 -0.1782  0.3000 -0.1687
 7833SOL     OW31097   3.401   2.655   0.147 -0.0019 -0.1033 -0.1165
 7833SOL    HW231098   3.386   2.562   0.162 -1.2784  0.0928 -0.0858
 7833SOL    HW331099   3.384   2.696   0.232 -1.8935  0.4171 -0.7149
 7833SOL    MW431100   3.397   2.649   0.160 -0.4199 -0.0088 -0.1914
 7834SOL     OW31101   3.896   0.058   0.579  0.3818 -0.2925 -0.5270
 7834SOL    HW231102   3.807   0.034   0.605 -0.1686  1.4469 -0.6498
 7834SOL    HW331103   3.906   0.020   0.492 -0.9150  0.9261 -1.2549
 7834SOL    MW431104   3.885   0.050   0.571  0.1381  0.0978 -0.6393
 7835SOL     OW31105   0.367   4.452   2.568  0.1414  0.4938 -0.4603
 7835SOL    HW231106   0.279   4.452   2.606 -0.6792 -0.8354 -2.2072
 7835SOL    HW331107   0.423   4.419   2.638 -1.1683 -1.0887 -0.1022
 7835SOL    MW431108   0.362   4.448   2.582 -0.1397  0.1097 -0.6436
 7836SOL     OW31109   1.015   5.476   0.350 -0.0038  0.2167  0.4063
 7836SOL    HW231110   1.073   5.472   0.426 -0.3641  1.1729  0.7448
 7836SOL    HW331111   1.009   5.385   0.319  0.8126 -0.0501  1.0066
 7836SOL    MW431112   1.022   5.463   0.356  0.0564  0.3077  0.5301
 7837SOL     OW31113   1.093   4.750   1.232  0.2533  0.1605 -0.2999
 7837SOL    HW231114   1.032   4.797   1.175  0.6222 -1.1424 -1.8475
 7837SOL    HW331115   1.045   4.671   1.258  0.0671  0.7628  1.3038
 7837SOL    MW431116   1.078   4.746   1.228  0.2774  0.0681 -0.2925
 7838SOL     OW31117   2.216   3.359   5.618  0.3723  0.5272  0.2500
 7838SOL    HW231118   2.140   3.412   5.593  0.7011  0.6323 -0.5792
 7838SOL    HW331119   2.282   3.423   5.646  0.7160  0.5635 -0.6051
 7838SOL    MW431120   2.215   3.374   5.618  0.4611  0.5458  0.0278
 7839SOL     OW31121   3.638   4.867   0.453 -0.0232 -0.2199 -0.0801
 7839SOL    HW231122   3.663   4.826   0.536  1.5618 -0.0050 -0.4029
 7839SOL    HW331123   3.681   4.813   0.387 -1.6963 -0.6919 -0.8178
 7839SOL    MW431124   3.647   4.854   0.456 -0.0349 -0.2538 -0.2200
 7840SOL     OW31125   2.354   4.778   1.842 -0.2947  0.0425  0.0145
 7840SOL    HW231126   2.354   4.683   1.856 -0.5356  0.2283  1.3968
 7840SOL    HW331127   2.274   4.795   1.792  0.5189 -0.6405 -1.5772
 7840SOL    MW431128   2.344   4.768   1.837 -0.2192 -0.0231 -0.0131
 7841SOL     OW31129   1.953   0.922   2.533 -0.2216 -0.3738 -0.0933
 7841SOL    HW231130   2.028   0.865   2.516 -1.6700 -2.1197 -1.0683
 7841SOL    HW331131   1.917   0.890   2.616 -1.1542 -1.0462 -0.7384
 7841SOL    MW431132   1.958   0.910   2.542 -0.5358 -0.6929 -0.3071
 7842SOL     OW31133   3.112   0.523   6.382  0.2986  0.1178 -0.1412
 7842SOL    HW231134   3.073   0.442   6.415 -1.6486  0.0974 -2.2280
 7842SOL    HW331135   3.091   0.589   6.448 -0.5214 -0.5599  0.2877
 7842SOL    MW431136   3.104   0.521   6.395 -0.0665  0.0257 -0.3600
 7843SOL     OW31137   4.454   4.481   4.879 -0.0354 -0.0653 -0.1186
 7843SOL    HW231138   4.384   4.455   4.939  0.0053  0.5419  0.1948
 7843SOL    HW331139   4.520   4.522   4.935  1.1649 -1.7635 -0.2129
 7843SOL    MW431140   4.453   4.483   4.894  0.1283 -0.2092 -0.0897
 7844SOL     OW31141   6.042   4.308   4.228 -0.2281 -0.0908 -0.4654
 7844SOL    HW231142   6.070   4.306   4.137  0.3058 -0.0319 -0.3033
 7844SOL    HW331143   5.980   4.381   4.233 -0.0125  0.1064 -0.7061
 7844SOL    MW431144   6.037   4.317   4.217 -0.1292 -0.0570 -0.4758
 7845SOL     OW31145   0.678   3.578   0.962  0.1724  0.2708 -0.2368
 7845SOL    HW231146   0.606   3.516   0.947 -1.6354  2.2037  0.0518
 7845SOL    HW331147   0.684   3.628   0.881  1.3888 -0.0271 -0.3460
 7845SOL    MW431148   0.669   3.576   0.949  0.0944  0.4865 -0.2132
 7846SOL     OW31149   3.826   1.470   6.310 -0.1197  0.2368 -0.3416
 7846SOL    HW231150   3.835   1.386   6.265 -0.1231 -0.1751  0.4188
 7846SOL    HW331151   3.914   1.491   6.339 -0.0006  0.8328 -1.1155
 7846SOL    MW431152   3.839   1.461   6.308 -0.1044  0.2611 -0.3434
 7847SOL     OW31153   5.569   5.441   1.616 -0.4341  0.4516 -0.3281
 7847SOL    HW231154   5.504   5.457   1.549 -0.0174 -0.5395 -0.9877
 7847SOL    HW331155   5.533   5.482   1.695 -0.4846  2.4929 -1.3426
 7847SOL    MW431156   5.556   5.449   1.618 -0.3858  0.5902 -0.5490
 7848SOL     OW31157   4.110   5.233   0.014  0.0409 -0.6109 -0.2607
 7848SOL    HW231158   4.130   5.322  -0.015 -1.1728 -0.0102  0.6515
 7848SOL    HW331159   4.055   5.245   0.092  1.5216 -2.1789  1.0847
 7848SOL    MW431160   4.105   5.247   0.020  0.0762 -0.7385  0.0371
 7849SOL     OW31161   2.343   5.015   5.013 -0.8080  0.1887 -0.3692
 7849SOL    HW231162   2.346   4.919   5.011 -0.9206  0.1482  0.7844
 7849SOL    HW331163   2.327   5.040   4.922  1.9373 -0.7784 -1.2249
 7849SOL    MW431164   2.342   5.006   5.001 -0.4606  0.0558 -0.3299
 7850SOL     OW31165   3.856   4.794   2.204  1.1790 -0.4611  0.7631
 7850SOL    HW231166   3.924   4.855   2.175  1.4823 -0.5887  1.2011
 7850SOL    HW331167   3.816   4.836   2.280 -0.5898  0.5474 -0.6412
 7850SOL    MW431168   3.859   4.808   2.210  0.9856 -0.3448  0.6356
 7851SOL     OW31169   1.084   6.071   2.638  0.4814  0.8935 -0.1721
 7851SOL    HW231170   1.135   6.148   2.612  0.0133  0.6194 -2.0932
 7851SOL    HW331171   1.138   5.997   2.611 -0.6939  0.6013 -1.8501
 7851SOL    MW431172   1.098   6.072   2.631  0.2646  0.8188 -0.6470
 7852SOL     OW31173   5.231   4.980   4.441  0.2956 -0.2658 -0.4944
 7852SOL    HW231174   5.227   4.986   4.536  0.3803 -1.8432 -0.3778
 7852SOL    HW331175   5.306   5.035   4.417  1.2115 -1.0635  0.4861
 7852SOL    MW431176   5.241   4.988   4.450  0.4276 -0.5792 -0.3496
 7853SOL     OW31177   1.269   6.266   2.580 -0.1579  0.3673  0.4335
 7853SOL    HW231178   1.356   6.241   2.610  0.2320 -1.5996 -2.0330
 7853SOL    HW331179   1.283   6.302   2.492 -1.8705 -0.4757 -0.2249
 7853SOL    MW431180   1.282   6.268   2.573 -0.3324 -0.0034  0.0212
 7854SOL     OW31181   0.823   5.077   5.403  0.4785  0.0951  0.3993
 7854SOL    HW231182   0.841   4.985   5.383 -0.5882  0.1727 -1.1173
 7854SOL    HW331183   0.900   5.124   5.371  0.9698 -0.2389  1.0601
 7854SOL    MW431184   0.835   5.071   5.396  0.4026  0.0613  0.2864
 7855SOL     OW31185   4.441   2.128   5.675 -0.2666  0.1827  0.2672
 7855SOL    HW231186   4.531   2.142   5.646 -0.2906 -0.3422 -0.0626
 7855SOL    HW331187   4.387   2.148   5.598 -0.4722  1.0501  0.6238
 7855SOL    MW431188   4.446   2.133   5.661 -0.2969  0.2279  0.2707
 7856SOL     OW31189   1.692   0.169   4.965  0.0690  0.9106  0.9024
 7856SOL    HW231190   1.683   0.231   4.893 -0.0264 -0.5399 -0.3963
 7856SOL    HW331191   1.750   0.101   4.931  2.5200  1.6281  3.2480
 7856SOL    MW431192   1.698   0.168   4.951  0.3798  0.8139  1.0405
 7857SOL     OW31193   4.940   1.806   3.020  0.0340  0.4882  0.0499
 7857SOL    HW231194   4.928   1.896   3.048 -0.9241  1.2460 -2.5049
 7857SOL    HW331195   5.035   1.796   3.012  0.1809  2.7958 -3.6944
 7857SOL    MW431196   4.951   1.816   3.022 -0.0730  0.8926 -0.7812
 7858SOL     OW31197   3.234   4.527   4.369  0.8671  0.3631 -0.0809
 7858SOL    HW231198   3.172   4.455   4.384  1.5530 -0.0766  0.7316
 7858SOL    HW331199   3.293   4.525   4.444  0.6709  2.0410  0.1620
 7858SOL    MW431200   3.234   4.517   4.381  0.9317  0.5264  0.0583
 7859SOL     OW31201   1.603   1.545   5.604 -0.1843  0.0058 -0.3372
 7859SOL    HW231202   1.581   1.554   5.512 -1.0896 -0.1912 -0.1576
 7859SOL    HW331203   1.541   1.603   5.649  0.2348  0.0840  0.1439
 7859SOL    MW431204   1.592   1.554   5.598 -0.2485 -0.0099 -0.2501
 7860SOL     OW31205   0.271   3.035   5.841  0.2599  0.2571  0.2003
 7860SOL    HW231206   0.255   3.117   5.889  0.4933  0.7332 -0.5196
 7860SOL    HW331207   0.313   2.978   5.905  1.7840  1.3448  0.2277
 7860SOL    MW431208   0.274   3.038   5.856  0.4918  0.4634  0.1089
 7861SOL     OW31209   4.871   3.394   5.798 -0.1299  0.2076 -0.5288
 7861SOL    HW231210   4.926   3.336   5.747  0.1436  0.9067 -1.0443
 7861SOL    HW331211   4.879   3.479   5.755  2.6139  1.6659  2.3980
 7861SOL    MW431212   4.879   3.398   5.786  0.2682  0.4922 -0.2106
 7862SOL     OW31213   0.390   5.016   1.264  0.0538  1.1759  0.2699
 7862SOL    HW231214   0.477   5.030   1.227 -0.1151  1.8301  0.1047
 7862SOL    HW331215   0.366   4.928   1.237  0.3165  1.3050 -0.4082
 7862SOL    MW431216   0.398   5.007   1.256  0.0662  1.2792  0.1586
 7863SOL     OW31217   2.889   0.977   0.655  0.0634 -0.3474 -0.1838
 7863SOL    HW231218   2.812   1.010   0.701  1.5703  0.4979  1.9134
 7863SOL    HW331219   2.876   0.882   0.652 -0.2284 -0.4250  1.8924
 7863SOL    MW431220   2.877   0.969   0.661  0.2237 -0.2461  0.3669
 7864SOL     OW31221   1.352   4.660   4.145  0.4788  0.4973  0.4543
 7864SOL    HW231222   1.389   4.686   4.060  0.3863  0.0941  0.2881
 7864SOL    HW331223   1.258   4.653   4.128  0.4553  0.4626  0.6032
 7864SOL    MW431224   1.345   4.663   4.131  0.4635  0.4396  0.4520
 7865SOL     OW31225   5.808   1.028   1.690 -0.2153  0.3699  0.0624
 7865SOL    HW231226   5.868   1.056   1.622  0.7306  0.8661  1.0698
 7865SOL    HW331227   5.838   1.073   1.769 -0.1199 -1.6045  1.2156
 7865SOL    MW431228   5.820   1.037   1.692 -0.0779  0.1749  0.3475
 7866SOL     OW31229   3.148   0.639   2.274 -0.5626  0.3193 -0.1399
 7866SOL    HW231230   3.198   0.605   2.199 -0.8985 -1.1909  0.3006
 7866SOL    HW331231   3.088   0.702   2.235  1.0756  1.5668 -0.7929
 7866SOL    MW431232   3.147   0.643   2.259 -0.3907  0.2846 -0.1679
 7867SOL     OW31233   4.378   5.338   6.212  0.5410 -0.5873  0.0073
 7867SOL    HW231234   4.329   5.257   6.193 -0.2170  0.1940 -1.5744
 7867SOL    HW331235   4.319   5.408   6.185  2.3656  0.4103 -1.6456
 7867SOL    MW431236   4.364   5.336   6.206  0.6817 -0.3526 -0.4195
 7868SOL     OW31237   1.066   0.540   2.660  0.3222  0.5432  0.1659
 7868SOL    HW231238   0.978   0.503   2.656 -0.2050  1.6912  0.6758
 7868SOL    HW331239   1.120   0.478   2.611 -0.3552 -1.3436  1.6822
 7868SOL    MW431240   1.061   0.527   2.653  0.1633  0.4457  0.4333
 7869SOL     OW31241   2.488   5.831   5.417  0.3770  0.3101  0.3536
 7869SOL    HW231242   2.427   5.828   5.343 -1.4561 -2.1742  1.8120
 7869SOL    HW331243   2.483   5.921   5.449 -1.9902  0.3844 -0.0568
 7869SOL    MW431244   2.479   5.843   5.411 -0.1771 -0.0079  0.4919
 7870SOL     OW31245   4.779   2.511   1.511  0.6589  0.5882 -0.3333
 7870SOL    HW231246   4.850   2.576   1.511 -0.2766  1.6864 -1.7008
 7870SOL    HW331247   4.704   2.558   1.548  0.2346 -0.0316 -0.3980
 7870SOL    MW431248   4.779   2.526   1.516  0.4795  0.6513 -0.5223
 7871SOL     OW31249   1.059   1.210   2.635 -0.0256 -0.4895  0.5488
 7871SOL    HW231250   1.031   1.140   2.576  0.5532  0.0456 -0.3912
 7871SOL    HW331251   0.978   1.256   2.656 -0.2082 -0.5103 -0.0741
 7871SOL    MW431252   1.044   1.207   2.630  0.0267 -0.4216  0.3426
 7872SOL     OW31253   5.786   2.144   2.474 -0.0176  0.1677  0.3499
 7872SOL    HW231254   5.727   2.176   2.543  0.0590  1.1982 -0.0524
 7872SOL    HW331255   5.869   2.127   2.520 -0.9642 -2.7804  1.2435
 7872SOL    MW431256   5.789   2.146   2.489 -0.1324 -0.0853  0.4147
 7873SOL     OW31257   1.360   5.376   1.778  0.5999 -0.6149 -0.3263
 7873SOL    HW231258   1.447   5.339   1.760  0.4769 -0.5124 -1.1812
 7873SOL    HW331259   1.327   5.403   1.692 -0.1202 -0.2966  0.0396
 7873SOL    MW431260   1.367   5.375   1.765  0.4887 -0.5594 -0.3908
 7874SOL     OW31261   1.092   2.013   0.923  0.1289  0.4398 -0.2587
 7874SOL    HW231262   1.173   2.055   0.895  1.0752 -0.7724  0.5510
 7874SOL    HW331263   1.063   1.962   0.847  0.5432  0.2904 -0.3185
 7874SOL    MW431264   1.099   2.012   0.909  0.3084  0.2601 -0.1597
 7875SOL     OW31265   4.765   5.109   5.214 -0.5624 -0.0322 -0.3253
 7875SOL    HW231266   4.722   5.194   5.217  2.2625  1.5008 -0.1524
 7875SOL    HW331267   4.803   5.098   5.302 -0.2528 -1.1397 -0.5775
 7875SOL    MW431268   4.765   5.119   5.226 -0.1489  0.0240 -0.3358
 7876SOL     OW31269   3.867   1.729   1.212 -0.0460  0.1551  0.1745
 7876SOL    HW231270   3.883   1.699   1.301 -0.0510  1.4477  0.6230
 7876SOL    HW331271   3.775   1.755   1.211 -0.2136 -0.4287 -0.3882
 7876SOL    MW431272   3.857   1.728   1.223 -0.0688  0.2486  0.1594
 7877SOL     OW31273   1.625   0.438   1.818 -0.7353 -0.2272 -0.3188
 7877SOL    HW231274   1.629   0.411   1.726 -0.9394  0.4803 -0.5437
 7877SOL    HW331275   1.687   0.380   1.862 -1.6646 -1.5268 -0.6527
 7877SOL    MW431276   1.634   0.426   1.811 -0.8848 -0.3053 -0.3925
 7878SOL     OW31277   4.728   2.195   0.713 -0.0366  0.4705  0.1658
 7878SOL    HW231278   4.633   2.200   0.722 -0.1041 -0.3099 -0.0454
 7878SOL    HW331279   4.757   2.286   0.713 -0.9211  0.7764 -1.3343
 7878SOL    MW431280   4.719   2.207   0.714 -0.1622  0.4079 -0.0600
 7879SOL     OW31281   0.474   3.203   0.735 -0.0222  0.9176 -0.0335
 7879SOL    HW231282   0.405   3.215   0.669 -0.2605  1.1877  0.2572
 7879SOL    HW331283   0.453   3.268   0.802 -0.5675 -0.2596  0.9605
 7879SOL    MW431284   0.462   3.213   0.735 -0.1256  0.7979  0.1360
 7880SOL     OW31285   2.652   2.998   3.677 -0.7428 -0.4526  0.3363
 7880SOL    HW231286   2.711   3.025   3.606 -1.5687 -3.7776 -1.8810
 7880SOL    HW331287   2.577   3.055   3.669 -0.5553 -0.3685 -1.1583
 7880SOL    MW431288   2.650   3.009   3.666 -0.8271 -0.8802 -0.1535
 7881SOL     OW31289   5.649   1.213   3.851 -0.1855  0.2733 -0.4384
 7881SOL    HW231290   5.596   1.226   3.772 -1.2959 -0.2354  0.1893
 7881SOL    HW331291   5.675   1.121   3.847 -0.1870  0.2645 -0.2561
 7881SOL    MW431292   5.645   1.203   3.840 -0.3322  0.2050 -0.3315
 7882SOL     OW31293   6.259   5.998   5.871  0.6307  0.3634  0.3111
 7882SOL    HW231294   6.198   5.956   5.931  1.1781 -0.2374  0.4668
 7882SOL    HW331295   6.205   6.056   5.818 -0.2271 -0.8295 -0.1791
 7882SOL    MW431296   6.244   6.000   5.872  0.5898  0.1267  0.2670
 7883SOL     OW31297   0.813   6.369   2.537  0.5856  0.1521 -0.0802
 7883SOL    HW231298   0.777   6.393   2.622 -0.1199  0.1327 -0.3653
 7883SOL    HW331299   0.843   6.279   2.548  1.7436  0.5965  0.5272
 7883SOL    MW431300   0.812   6.360   2.549  0.6453  0.2081 -0.0377
 7884SOL     OW31301   6.303   1.983   5.459 -0.3018 -0.0174 -0.1363
 7884SOL    HW231302   6.217   2.007   5.492  0.2723  0.2785  1.2043
 7884SOL    HW331303   6.362   1.993   5.534  1.0213  0.4288 -1.1913
 7884SOL    MW431304   6.300   1.987   5.473 -0.0515  0.0805 -0.0986
 7885SOL     OW31305   5.363   4.600   3.000  0.2261  0.1318  0.1682
 7885SOL    HW231306   5.392   4.682   3.039  1.5540 -0.6480  0.9216
 7885SOL    HW331307   5.400   4.601   2.912  0.4797  0.2184  0.2747
 7885SOL    MW431308   5.372   4.611   2.994  0.4347  0.0403  0.2817
 7886SOL     OW31309   6.157   1.498   3.888  0.1919 -0.1931 -0.1732
 7886SOL    HW231310   6.175   1.414   3.933  0.8759 -0.0444 -0.1621
 7886SOL    HW331311   6.068   1.488   3.855  0.2476 -0.9125 -0.1311
 7886SOL    MW431312   6.148   1.485   3.890  0.2895 -0.2684 -0.1662
 7887SOL     OW31313   5.312   1.156   1.803  0.1417  0.9559  0.4928
 7887SOL    HW231314   5.392   1.155   1.750  0.0314  1.2914  0.3121
 7887SOL    HW331315   5.287   1.064   1.812  0.7411  0.8247  0.8457
 7887SOL    MW431316   5.319   1.144   1.797  0.2063  0.9828  0.5155
 7888SOL     OW31317   1.963   2.207   3.260  0.4307 -0.2276 -0.3172
 7888SOL    HW231318   1.901   2.143   3.295  1.5567 -0.7693  0.7802
 7888SOL    HW331319   1.999   2.165   3.182  0.1630 -0.3399 -0.3821
 7888SOL    MW431320   1.959   2.193   3.254  0.5440 -0.3139 -0.1810
 7889SOL     OW31321   3.399   5.917   1.150  0.2446 -0.0757 -0.2840
 7889SOL    HW231322   3.469   5.886   1.207  1.4876  0.8505 -1.2472
 7889SOL    HW331323   3.334   5.954   1.209  1.2462  0.3677  0.5585
 7889SOL    MW431324   3.400   5.918   1.165  0.5407  0.1050 -0.2999
 7890SOL     OW31325   1.454   5.336   1.231 -0.3859 -0.0777 -0.3255
 7890SOL    HW231326   1.536   5.385   1.238 -0.4500 -0.0966  0.6431
 7890SOL    HW331327   1.427   5.320   1.321 -1.6834  0.3031 -0.6216
 7890SOL    MW431328   1.461   5.340   1.244 -0.5656 -0.0300 -0.2368
 7891SOL     OW31329   4.155   4.705   3.574 -0.5273 -0.3337 -0.0300
 7891SOL    HW231330   4.090   4.714   3.504  1.8794 -1.4577 -2.5876
 7891SOL    HW331331   4.207   4.785   3.569 -1.4980  0.4888  1.8999
 7891SOL    MW431332   4.153   4.717   3.564 -0.3379 -0.3735 -0.1128
 7892SOL     OW31333   1.289   4.554   1.090 -0.1644  0.2445  0.1297
 7892SOL    HW231334   1.214   4.597   1.132 -1.7750  0.2765 -2.5320
 7892SOL    HW331335   1.296   4.469   1.134 -1.5937  0.3690  0.6437
 7892SOL    MW431336   1.280   4.548   1.101 -0.5654  0.2651 -0.1536
 7893SOL     OW31337   1.792   4.249   3.073 -0.0870  0.8164  0.3745
 7893SOL    HW231338   1.761   4.192   3.143  0.0742  0.4886  0.1804
 7893SOL    HW331339   1.837   4.321   3.119 -1.8828  1.7774  0.7022
 7893SOL    MW431340   1.794   4.251   3.088 -0.3026  0.8999  0.3921
 7894SOL     OW31341   3.128   1.312   2.991 -0.3258 -0.1605  0.0363
 7894SOL    HW231342   3.199   1.354   3.039 -0.4706 -0.1242  0.2207
 7894SOL    HW331343   3.121   1.361   2.909 -0.4139  0.0960  0.1986
 7894SOL    MW431344   3.136   1.324   2.986 -0.3565 -0.1219  0.0821
 7895SOL     OW31345   2.928   0.458   3.230  0.0711  0.1097  0.4988
 7895SOL    HW231346   2.977   0.507   3.296 -0.9342 -0.2792  1.5628
 7895SOL    HW331347   2.836   0.470   3.255 -0.4779  1.3434 -1.7950
 7895SOL    MW431348   2.922   0.466   3.242 -0.1340  0.2212  0.3365
 7896SOL     OW31349   0.386   2.046   0.032 -0.0491  0.0548  0.6599
 7896SOL    HW231350   0.454   1.979   0.023  0.3220  0.3079  1.5554
 7896SOL    HW331351   0.332   2.015   0.105 -1.2233 -0.4217 -0.3793
 7896SOL    MW431352   0.388   2.033   0.040 -0.1550  0.0253  0.6409
 7897SOL     OW31353   1.890   1.775   2.331  0.7261  0.7549  0.3117
 7897SOL    HW231354   1.829   1.711   2.295  0.2584  0.7225  1.1394
 7897SOL    HW331355   1.864   1.858   2.292 -1.6077  1.2496  2.5930
 7897SOL    MW431356   1.878   1.777   2.321  0.3565  0.8159  0.7219
 7898SOL     OW31357   2.578   2.732   0.147 -0.3827 -0.1418 -0.3369
 7898SOL    HW231358   2.581   2.827   0.135  1.0571 -0.1570 -0.2433
 7898SOL    HW331359   2.523   2.719   0.224  0.1231  0.6760  0.1794
 7898SOL    MW431360   2.571   2.743   0.155 -0.1260 -0.0359 -0.2564
 7899SOL     OW31361   0.949   6.120   4.217 -0.3189 -0.4036  0.5068
 7899SOL    HW231362   0.953   6.060   4.290  0.2872  1.5491  2.1660
 7899SOL    HW331363   1.022   6.180   4.230  0.0712 -0.2259 -1.9400
 7899SOL    MW431364   0.959   6.120   4.228 -0.1875 -0.1225  0.4029
 7900SOL     OW31365   5.009   4.871   3.155  0.0722 -0.3799  0.2339
 7900SOL    HW231366   5.015   4.896   3.247  0.1627 -0.7860  0.3403
 7900SOL    HW331367   4.919   4.840   3.145 -0.0481  0.0106  0.0959
 7900SOL    MW431368   4.998   4.871   3.166  0.0682 -0.3820  0.2298
 7901SOL     OW31369   3.821   5.459   3.026  0.2950 -0.0189 -0.1081
 7901SOL    HW231370   3.754   5.526   3.012 -1.5036 -1.6554  0.2919
 7901SOL    HW331371   3.776   5.377   3.008  2.1241 -1.1998  0.5288
 7901SOL    MW431372   3.806   5.457   3.022  0.2990 -0.3906  0.0287
 7902SOL     OW31373   4.059   3.059   5.888  0.4281  0.0036  0.0663
 7902SOL    HW231374   4.108   3.016   5.818 -0.5562 -1.2144  0.0917
 7902SOL    HW331375   3.973   3.016   5.887 -0.2875  1.3491  0.7040
 7902SOL    MW431376   4.054   3.048   5.878  0.2038  0.0205  0.1538
 7903SOL     OW31377   0.564   1.435   0.725  0.2977  0.5990  0.2346
 7903SOL    HW231378   0.648   1.456   0.766  0.3270  1.4279 -0.2232
 7903SOL    HW331379   0.587   1.405   0.637  0.0994  1.2962 -0.0644
 7903SOL    MW431380   0.578   1.434   0.719  0.2754  0.8004  0.1348
 7904SOL     OW31381   0.296   0.834   5.097  0.0801 -0.1200 -0.3179
 7904SOL    HW231382   0.386   0.864   5.103 -0.3355  1.1613 -0.1578
 7904SOL    HW331383   0.248   0.909   5.060 -0.8257 -0.9644 -0.9147
 7904SOL    MW431384   0.301   0.848   5.093 -0.0943 -0.0623 -0.3755
 7905SOL     OW31385   1.965   4.622   4.797 -0.5504  0.4759 -0.3692
 7905SOL    HW231386   1.927   4.550   4.846 -0.6434 -0.9520 -2.4190
 7905SOL    HW331387   1.918   4.700   4.829 -2.3568 -0.7051  0.0120
 7905SOL    MW431388   1.954   4.623   4.808 -0.8010  0.1317 -0.5894
 7906SOL     OW31389   4.910   4.247   1.610 -0.4396  0.2328 -0.2133
 7906SOL    HW231390   4.844   4.198   1.660 -0.1218 -0.1569 -0.1725
 7906SOL    HW331391   4.864   4.326   1.581 -0.8713  0.0551 -0.0245
 7906SOL    MW431392   4.895   4.251   1.613 -0.4546  0.1580 -0.1830
 7907SOL     OW31393   6.296   2.933   5.345 -0.5539 -0.2219 -0.2159
 7907SOL    HW231394   6.345   2.883   5.281 -0.1579 -0.7810  0.5124
 7907SOL    HW331395   6.269   3.013   5.298 -1.4072 -1.1994 -1.4574
 7907SOL    MW431396   6.299   2.937   5.331 -0.6142 -0.4247 -0.2836
 7908SOL     OW31397   4.064   3.729   1.199 -0.0930  0.3125 -0.2621
 7908SOL    HW231398   4.138   3.725   1.137  0.2635  1.4810  0.0524
 7908SOL    HW331399   3.989   3.753   1.144  0.1836  1.1546 -0.2847
 7908SOL    MW431400   4.064   3.732   1.183 -0.0095  0.5778 -0.2236
 7909SOL     OW31401   4.310   3.809   4.250  0.1473 -0.0953 -0.4179
 7909SOL    HW231402   4.393   3.813   4.203  1.4860 -2.5380  1.4462
 7909SOL    HW331403   4.284   3.717   4.244  0.0445 -0.4024  2.8515
 7909SOL    MW431404   4.318   3.797   4.243  0.3104 -0.4581  0.2594
 7910SOL     OW31405   0.827   0.038   1.994 -0.6256 -0.1913 -0.5416
 7910SOL    HW231406   0.862   0.123   2.020 -1.7904  0.1020  0.1313
 7910SOL    HW331407   0.893   0.002   1.934  2.0203 -0.7106  2.4189
 7910SOL    MW431408   0.840   0.044   1.989 -0.4302 -0.2211 -0.0622
 7911SOL     OW31409   2.879   0.055   1.945 -0.6097  0.4675  0.6019
 7911SOL    HW231410   2.962   0.009   1.951 -0.5819 -0.0074 -2.0772
 7911SOL    HW331411   2.825   0.000   1.887 -1.9936  1.8380  0.5024
 7911SOL    MW431412   2.883   0.042   1.938 -0.7886  0.5857  0.2353
 7912SOL     OW31413   4.247   6.274   5.248 -0.3920  0.0569  1.0505
 7912SOL    HW231414   4.244   6.231   5.333 -1.1011 -1.5034  0.2820
 7912SOL    HW331415   4.165   6.248   5.206  0.8836 -1.0119 -0.9375
 7912SOL    MW431416   4.235   6.265   5.253 -0.3172 -0.2900  0.6868
 7913SOL     OW31417   0.901   2.410   4.407 -0.1305  0.1122 -0.1177
 7913SOL    HW231418   0.888   2.316   4.400  0.5711  0.1046 -1.8595
 7913SOL    HW331419   0.973   2.420   4.470  3.1214 -0.8952 -3.3465
 7913SOL    MW431420   0.909   2.399   4.415  0.3912 -0.0217 -0.7735
 7914SOL     OW31421   0.590   4.264   4.066  0.3647  0.3489  0.1792
 7914SOL    HW231422   0.677   4.273   4.027  0.7234 -1.0070  0.6010
 7914SOL    HW331423   0.568   4.352   4.096  1.3711  0.8152 -0.3930
 7914SOL    MW431424   0.599   4.277   4.065  0.5448  0.2315  0.1594
 7915SOL     OW31425   1.391   0.837   5.224 -0.0475  0.2645 -0.8706
 7915SOL    HW231426   1.410   0.797   5.140  0.4441 -0.1945 -0.5449
 7915SOL    HW331427   1.458   0.802   5.283 -0.6234  0.2775 -0.2004
 7915SOL    MW431428   1.403   0.827   5.221 -0.0586  0.2056 -0.7392
 7916SOL     OW31429   0.185   4.612   4.118  0.0213  0.5793  0.2136
 7916SOL    HW231430   0.172   4.590   4.025 -1.8445 -0.6109  0.7065
 7916SOL    HW331431   0.214   4.704   4.117  1.1504  0.2661 -1.5738
 7916SOL    MW431432   0.187   4.621   4.105 -0.0759  0.3809  0.0428
 7917SOL     OW31433   3.634   0.215   4.614 -0.8055 -0.1777 -0.7372
 7917SOL    HW231434   3.597   0.257   4.536 -1.3197 -0.6492 -0.7478
 7917SOL    HW331435   3.561   0.169   4.654 -0.5671  0.1203  0.0770
 7917SOL    MW431436   3.620   0.215   4.609 -0.8419 -0.2006 -0.6311
 7918SOL     OW31437   4.635   2.611   0.559 -0.1349  0.7236 -0.8419
 7918SOL    HW231438   4.621   2.699   0.595  0.3255  0.9823 -1.2866
 7918SOL    HW331439   4.699   2.623   0.490 -0.8242  0.1865 -1.5984
 7918SOL    MW431440   4.641   2.624   0.555 -0.1651  0.6869 -1.0004
 7919SOL     OW31441   3.519   5.112   2.458 -0.5864  0.4263  0.7140
 7919SOL    HW231442   3.513   5.126   2.363  0.7891 -1.8450  0.2140
 7919SOL    HW331443   3.428   5.099   2.485 -0.9706  0.7035 -0.3558
 7919SOL    MW431444   3.506   5.112   2.449 -0.4556  0.1632  0.5069
 7920SOL     OW31445   0.517   5.012   2.266 -0.6053 -0.0479 -0.0557
 7920SOL    HW231446   0.505   5.107   2.274 -0.2799 -0.0069 -0.0713
 7920SOL    HW331447   0.586   4.991   2.328 -1.0118 -0.3487  0.2973
 7920SOL    MW431448   0.524   5.022   2.275 -0.6160 -0.0822 -0.0112
 7921SOL     OW31449   0.847   1.771   5.188 -0.2149 -0.1619  0.0542
 7921SOL    HW231450   0.826   1.769   5.095  1.4457 -1.0750 -0.3537
 7921SOL    HW331451   0.862   1.679   5.211 -0.2537  0.0893  1.1336
 7921SOL    MW431452   0.846   1.758   5.179 -0.0010 -0.2493  0.1428
 7922SOL     OW31453   4.942   0.259   3.868  0.3399 -0.2653 -0.2428
 7922SOL    HW231454   4.900   0.173   3.869 -0.7544  0.2514  0.0179
 7922SOL    HW331455   4.953   0.278   3.774 -0.6787 -0.1101 -0.3440
 7922SOL    MW431456   4.938   0.250   3.856  0.0612 -0.1767 -0.2218
 7923SOL     OW31457   4.063   2.335   3.489  0.2369  0.0419  0.1136
 7923SOL    HW231458   4.058   2.421   3.532  0.7836 -0.6013  1.5147
 7923SOL    HW331459   4.117   2.282   3.547 -0.2869 -1.3324 -0.6100
 7923SOL    MW431460   4.069   2.340   3.502  0.2400 -0.2243  0.2030
 7924SOL     OW31461   1.063   5.239   5.295 -0.1746  0.3623  0.3245
 7924SOL    HW231462   1.104   5.189   5.365 -0.8708 -0.4925  0.1356
 7924SOL    HW331463   1.068   5.181   5.219 -0.8211  0.6532  0.0555
 7924SOL    MW431464   1.069   5.225   5.294 -0.3518  0.2879  0.2641
 7925SOL     OW31465   4.005   2.419   0.958 -0.2004  0.2151  0.1547
 7925SOL    HW231466   4.091   2.436   0.996 -0.6808 -1.5272  2.2492
 7925SOL    HW331467   3.958   2.372   1.027 -3.1088  1.7564 -0.6253
 7925SOL    MW431468   4.010   2.415   0.972 -0.6475  0.1886  0.3281
 7926SOL     OW31469   6.310   0.947   0.912  0.0104  0.4518  0.0253
 7926SOL    HW231470   6.263   1.027   0.887 -1.0059 -0.7528 -2.2016
 7926SOL    HW331471   6.242   0.890   0.949  0.3676 -0.0614 -0.0982
 7926SOL    MW431472   6.295   0.950   0.914 -0.0765  0.2251 -0.2848
 7927SOL     OW31473   1.206   3.777   5.278 -0.4113 -0.2988  0.6070
 7927SOL    HW231474   1.205   3.683   5.260 -0.5306 -0.1754 -0.0466
 7927SOL    HW331475   1.116   3.805   5.265 -0.3315 -0.0528  0.5722
 7927SOL    MW431476   1.194   3.768   5.274 -0.4165 -0.2501  0.5161
 7928SOL     OW31477   2.871   3.746   2.137 -0.3356 -0.1115  0.3813
 7928SOL    HW231478   2.914   3.808   2.195 -2.2682  1.9033 -0.1762
 7928SOL    HW331479   2.812   3.800   2.084 -1.1008 -2.2779 -1.1243
 7928SOL    MW431480   2.869   3.761   2.138 -0.6915 -0.1315  0.1091
 7929SOL     OW31481   0.291   5.957   1.385 -0.8957  0.0640  0.1641
 7929SOL    HW231482   0.318   5.937   1.295 -0.1381 -1.2773  0.6620
 7929SOL    HW331483   0.241   5.880   1.413 -1.8536  0.8296  0.6233
 7929SOL    MW431484   0.288   5.944   1.376 -0.9221 -0.0119  0.2904
 7930SOL     OW31485   4.837   2.126   3.303  0.1649  0.3213 -0.7524
 7930SOL    HW231486   4.824   2.035   3.330  0.5367  0.2232 -0.8991
 7930SOL    HW331487   4.757   2.171   3.331  0.4398  0.1832  0.2998
 7930SOL    MW431488   4.825   2.120   3.310  0.2502  0.2902 -0.6329
 7931SOL     OW31489   5.486   4.456   4.454  0.0691  0.2856 -0.0279
 7931SOL    HW231490   5.400   4.413   4.455  0.2605 -0.3332 -2.7045
 7931SOL    HW331491   5.489   4.501   4.370  3.0654 -1.2567 -0.9004
 7931SOL    MW431492   5.475   4.456   4.443  0.4897  0.0005 -0.4962
 7932SOL     OW31493   1.846   2.061   4.764  0.0710  0.3459  0.0150
 7932SOL    HW231494   1.928   2.109   4.758  0.3021 -0.0479 -0.0322
 7932SOL    HW331495   1.859   2.000   4.837 -0.4873  0.8614  0.5532
 7932SOL    MW431496   1.858   2.059   4.772  0.0278  0.3619  0.0798
 7933SOL     OW31497   0.582   5.761   6.281 -0.1980 -0.1911  0.0873
 7933SOL    HW231498   0.581   5.667   6.265 -1.2227 -0.4009  1.3061
 7933SOL    HW331499   0.674   5.781   6.300  0.2070 -0.7421 -1.1470
 7933SOL    MW431500   0.594   5.751   6.281 -0.2798 -0.2915  0.0853
 7934SOL     OW31501   5.367   0.112   5.278 -0.1304 -0.3632  0.1787
 7934SOL    HW231502   5.294   0.162   5.315 -1.6162 -2.0063 -0.4089
 7934SOL    HW331503   5.326   0.037   5.234  1.9040 -1.2939 -0.2727
 7934SOL    MW431504   5.352   0.109   5.277 -0.0580 -0.7028  0.0416
 7935SOL     OW31505   3.730   2.169   5.097  0.3014 -0.6976  0.4573
 7935SOL    HW231506   3.796   2.219   5.049  0.1114 -1.6065 -0.8016
 7935SOL    HW331507   3.778   2.096   5.136  0.3345 -0.3656  1.0400
 7935SOL    MW431508   3.745   2.166   5.096  0.2807 -0.7737  0.3681
 7936SOL     OW31509   0.042   1.612   4.319 -0.3270  0.3849  0.3308
 7936SOL    HW231510  -0.000   1.658   4.246  0.1926  1.0737  0.4527
 7936SOL    HW331511   0.123   1.577   4.281 -1.6468 -2.1889 -0.2846
 7936SOL    MW431512   0.047   1.614   4.304 -0.4326  0.1362  0.2657
 7937SOL     OW31513   2.679   6.354   6.193  0.1689  0.2475 -0.3195
 7937SOL    HW231514   2.640   6.411   6.259 -0.4158  0.2222 -0.6332
 7937SOL    HW331515   2.605   6.304   6.158  0.5817 -0.2752 -0.4692
 7937SOL    MW431516   2.664   6.355   6.197  0.1462  0.1752 -0.3806
 7938SOL     OW31517   3.515   3.151   0.427  0.3972 -0.1614  0.0461
 7938SOL    HW231518   3.485   3.164   0.337  1.0360 -1.4923 -0.3902
 7938SOL    HW331519   3.571   3.226   0.445  0.5978 -0.0948 -0.8306
 7938SOL    MW431520   3.519   3.162   0.417  0.5080 -0.3282 -0.1271
 7939SOL     OW31521   4.678   5.923   2.188 -0.3777 -0.0913  0.3664
 7939SOL    HW231522   4.619   5.882   2.125  0.2948 -0.8899  0.2474
 7939SOL    HW331523   4.680   6.016   2.162  1.2744 -0.6889 -1.9187
 7939SOL    MW431524   4.670   5.930   2.176 -0.0710 -0.2755  0.0492
 7940SOL     OW31525   1.648   3.276   4.171 -0.0179 -0.1710  0.1999
 7940SOL    HW231526   1.710   3.204   4.184 -0.9580 -0.5927  2.7202
 7940SOL    HW331527   1.563   3.233   4.164 -0.3292  0.5738 -0.7788
 7940SOL    MW431528   1.645   3.261   4.171 -0.1830 -0.1284  0.4033
 7941SOL     OW31529   0.990   0.535   3.070  0.0553  0.0824  0.0220
 7941SOL    HW231530   1.036   0.551   3.153 -0.9940 -2.5825  1.2299
 7941SOL    HW331531   0.897   0.542   3.092 -0.2301  0.4340 -1.2156
 7941SOL    MW431532   0.984   0.538   3.084 -0.1208 -0.2228  0.0181
 7942SOL     OW31533   3.236   1.023   3.759 -0.0491  0.0240 -0.3128
 7942SOL    HW231534   3.284   0.942   3.776 -1.9557 -0.9418  0.9230
 7942SOL    HW331535   3.166   0.997   3.698 -1.1555  0.5228  0.7008
 7942SOL    MW431536   3.233   1.008   3.753 -0.4466 -0.0376 -0.0160
 7943SOL     OW31537   1.372   0.997   3.819 -0.1893  0.2579  0.6351
 7943SOL    HW231538   1.458   1.013   3.858  0.4880  0.6826 -0.9552
 7943SOL    HW331539   1.390   0.987   3.726 -1.5181 -2.4613  0.5789
 7943SOL    MW431540   1.386   0.998   3.812 -0.2753 -0.0448  0.4178
 7944SOL     OW31541   1.635   1.138   5.774  0.5544  0.8538 -0.4149
 7944SOL    HW231542   1.572   1.198   5.735 -0.9066  0.8016  1.6662
 7944SOL    HW331543   1.665   1.183   5.853  1.1383 -0.2050 -0.0165
 7944SOL    MW431544   1.630   1.151   5.779  0.4387  0.7072 -0.0877
 7945SOL     OW31545   2.097   4.149   5.456 -0.7395 -0.2049  0.4130
 7945SOL    HW231546   2.142   4.232   5.446 -1.0566 -0.0278  0.4609
 7945SOL    HW331547   2.034   4.163   5.526  0.4452 -1.0165  1.6872
 7945SOL    MW431548   2.094   4.161   5.464 -0.6250 -0.2886  0.5874
 7946SOL     OW31549   0.762   5.002   3.065 -0.1006  0.0736  0.1688
 7946SOL    HW231550   0.761   5.092   3.032  1.8978  0.0807  0.0180
 7946SOL    HW331551   0.847   4.992   3.107  0.1513 -2.0460 -0.6947
 7946SOL    MW431552   0.773   5.013   3.066  0.1963 -0.2051  0.0350
 7947SOL     OW31553   2.099   2.401   6.126 -0.5199  0.4629 -0.0704
 7947SOL    HW231554   2.014   2.442   6.109 -0.5011  0.4169 -0.2810
 7947SOL    HW331555   2.163   2.463   6.092 -0.5623 -0.7625 -2.6009
 7947SOL    MW431556   2.096   2.415   6.119 -0.5230  0.2951 -0.4321
 7948SOL     OW31557   2.072   5.977   4.115  0.2983 -0.2644 -0.0142
 7948SOL    HW231558   2.160   5.959   4.148  0.3554 -0.3324 -0.2048
 7948SOL    HW331559   2.081   6.059   4.067  0.1935 -0.1124  0.2210
 7948SOL    MW431560   2.085   5.985   4.113  0.2920 -0.2533 -0.0083
 7949SOL     OW31561   2.868   1.307   4.415 -0.0579  0.0892  0.4489
 7949SOL    HW231562   2.955   1.346   4.409 -0.2064  0.3225 -0.3303
 7949SOL    HW331563   2.816   1.371   4.463  0.0119  0.3042  0.2412
 7949SOL    MW431564   2.873   1.320   4.420 -0.0683  0.1483  0.3187
 7950SOL     OW31565   4.637   4.885   1.625 -0.1667  0.0245 -0.1181
 7950SOL    HW231566   4.701   4.954   1.608 -1.9830  1.8047 -0.1273
 7950SOL    HW331567   4.578   4.922   1.691 -0.6302 -1.9253  0.6413
 7950SOL    MW431568   4.638   4.899   1.631 -0.4675  0.0021 -0.0191
 7951SOL     OW31569   1.678   2.754   0.249  0.0343  0.2502 -0.1859
 7951SOL    HW231570   1.620   2.679   0.237 -1.0999  0.9404  0.8260
 7951SOL    HW331571   1.619   2.829   0.257  1.0982  1.0697  0.1662
 7951SOL    MW431572   1.663   2.754   0.249  0.0251  0.4494 -0.0059
 7952SOL     OW31573   0.503   4.513   4.145  0.5906 -0.2060 -0.1726
 7952SOL    HW231574   0.426   4.532   4.091  0.0531  0.8340  0.9120
 7952SOL    HW331575   0.474   4.528   4.235  1.5319 -1.6715  0.4139
 7952SOL    MW431576   0.489   4.518   4.149  0.6439 -0.2622  0.0479
 7953SOL     OW31577   0.847   2.033   4.910 -0.1845 -0.3774 -0.2212
 7953SOL    HW231578   0.890   2.102   4.858 -1.1898  1.9171  1.8028
 7953SOL    HW331579   0.917   1.997   4.964 -0.0230  0.6612  0.2950
 7953SOL    MW431580   0.862   2.038   4.910 -0.2958  0.0623  0.1140
 7954SOL     OW31581   1.114   2.513   3.685 -0.8803 -0.4056 -0.0371
 7954SOL    HW231582   1.069   2.553   3.759  0.6080  0.6598  0.3469
 7954SOL    HW331583   1.198   2.485   3.721  0.1491  0.7467 -1.4446
 7954SOL    MW431584   1.119   2.515   3.699 -0.5481 -0.1130 -0.1721
 7955SOL     OW31585   1.859   3.314   5.637  0.0976  0.0862  0.3860
 7955SOL    HW231586   1.917   3.243   5.610  0.5438  0.4354  0.3989
 7955SOL    HW331587   1.782   3.271   5.673  0.8528 -0.4156  1.4626
 7955SOL    MW431588   1.856   3.299   5.638  0.2561  0.0661  0.5297
 7956SOL     OW31589   5.085   1.990   4.470  0.3162 -0.3415 -0.6881
 7956SOL    HW231590   5.040   1.997   4.386 -1.4302 -1.2461  0.1097
 7956SOL    HW331591   5.122   2.076   4.485 -2.2490  0.8860 -0.8505
 7956SOL    MW431592   5.084   2.002   4.461 -0.2527 -0.2989 -0.6043
 7957SOL     OW31593   3.880   5.559   1.593 -0.6997 -0.8043  0.4790
 7957SOL    HW231594   3.862   5.647   1.558 -2.6000 -0.7516  1.4522
 7957SOL    HW331595   3.950   5.525   1.537 -0.9846  0.7316 -0.9008
 7957SOL    MW431596   3.887   5.566   1.581 -0.9880 -0.5947  0.4253
 7958SOL     OW31597   1.237   3.502   6.196  0.5817  0.4307 -0.0362
 7958SOL    HW231598   1.220   3.408   6.199 -1.8631  0.7965 -0.2938
 7958SOL    HW331599   1.262   3.526   6.285 -1.4285 -0.0725  0.7074
 7958SOL    MW431600   1.238   3.493   6.208 -0.0061  0.4126  0.0279
 7959SOL     OW31601   5.041   4.184   5.953  0.0164 -0.3243  0.2735
 7959SOL    HW231602   4.989   4.233   5.890  1.1858  0.5445 -0.0448
 7959SOL    HW331603   4.982   4.114   5.984 -0.7725 -0.3998 -1.3025
 7959SOL    MW431604   5.026   4.181   5.949  0.0666 -0.2196  0.0236
 7960SOL     OW31605   3.785   0.191   4.033  0.2647 -0.1648 -0.3835
 7960SOL    HW231606   3.759   0.103   4.060  0.7239  0.6454  3.1857
 7960SOL    HW331607   3.702   0.236   4.015 -0.0874 -0.7429 -0.2403
 7960SOL    MW431608   3.771   0.185   4.034  0.2788 -0.1342  0.1063
 7961SOL     OW31609   6.296   3.383   3.615  0.1032 -0.3480 -0.6328
 7961SOL    HW231610   6.294   3.467   3.660  2.4675 -1.1986  1.3001
 7961SOL    HW331611   6.273   3.319   3.683  1.8637 -1.5095 -1.0503
 7961SOL    MW431612   6.293   3.386   3.630  0.6474 -0.6135 -0.4329
 7962SOL     OW31613   1.897   4.407   3.311 -0.3836 -0.1244 -0.9723
 7962SOL    HW231614   1.887   4.498   3.340  3.0546  0.0934 -0.0243
 7962SOL    HW331615   1.906   4.357   3.393  4.3043 -0.2396 -1.3033
 7962SOL    MW431616   1.896   4.412   3.326  0.6885 -0.1108 -0.8909
 7963SOL     OW31617   5.802   2.627   1.647 -0.0749 -0.0346 -0.2556
 7963SOL    HW231618   5.884   2.676   1.661 -0.9788  1.1749  1.1523
 7963SOL    HW331619   5.829   2.535   1.649  1.1051  0.2849  1.5522
 7963SOL    MW431620   5.817   2.621   1.649 -0.0385  0.1671  0.1687
 7964SOL     OW31621   0.377   3.258   4.319  0.1208  0.2672  0.4284
 7964SOL    HW231622   0.380   3.347   4.354  2.9859  0.5841 -0.3499
 7964SOL    HW331623   0.388   3.270   4.224  2.8018 -0.9005  0.5075
 7964SOL    MW431624   0.379   3.272   4.311  0.8526  0.1549  0.3362
 7965SOL     OW31625   5.282   6.235   3.317 -0.2361  0.1372  0.1488
 7965SOL    HW231626   5.343   6.304   3.343 -0.3224  0.0495  0.6015
 7965SOL    HW331627   5.205   6.249   3.373 -0.7186  0.3721 -0.5532
 7965SOL    MW431628   5.280   6.246   3.328 -0.3111  0.1567  0.1159
 7966SOL     OW31629   4.526   3.028   0.006 -0.3252 -0.4065  0.4268
 7966SOL    HW231630   4.447   3.007  -0.042 -0.9720  0.5331  1.0398
 7966SOL    HW331631   4.586   3.063  -0.059 -0.8027 -0.1348  0.1318
 7966SOL    MW431632   4.524   3.030  -0.009 -0.4735 -0.2467  0.4688
 7967SOL     OW31633   4.508   5.790   2.000 -0.5662  0.0547 -0.5276
 7967SOL    HW231634   4.441   5.732   2.035 -1.7830  0.3929 -2.1820
 7967SOL    HW331635   4.565   5.733   1.948 -0.1883 -0.0532 -0.0088
 7967SOL    MW431636   4.507   5.775   1.998 -0.6769  0.0851 -0.6774
 7968SOL     OW31637   3.664   0.299   0.279 -0.3407  0.2038  0.0879
 7968SOL    HW231638   3.644   0.208   0.301 -1.6820  0.7657  1.4046
 7968SOL    HW331639   3.752   0.314   0.313 -1.2278  0.1841  2.6218
 7968SOL    MW431640   3.673   0.289   0.286 -0.6347  0.2753  0.5960
 7969SOL     OW31641   3.732   3.432   3.368  0.2483 -0.1714  0.2805
 7969SOL    HW231642   3.714   3.376   3.443 -1.5486  1.6499  1.3159
 7969SOL    HW331643   3.827   3.428   3.357  0.6029 -0.3008  2.8281
 7969SOL    MW431644   3.742   3.424   3.376  0.0580  0.0518  0.7532
 7970SOL     OW31645   3.623   1.205   4.856  0.1210  0.1634 -0.0860
 7970SOL    HW231646   3.678   1.233   4.782 -1.3867  0.2407 -1.2138
 7970SOL    HW331647   3.670   1.235   4.933  0.5478  2.2621 -1.0963
 7970SOL    MW431648   3.637   1.212   4.856 -0.0216  0.4505 -0.3681
 7971SOL     OW31649   4.511   0.233   5.209 -0.0608 -0.0024  0.1775
 7971SOL    HW231650   4.423   0.203   5.187 -0.1387 -0.1144  0.6242
 7971SOL    HW331651   4.497   0.296   5.280  0.2806 -0.6786  0.8628
 7971SOL    MW431652   4.497   0.237   5.215 -0.0260 -0.1064  0.3268
 7972SOL     OW31653   1.334   2.753   2.128  0.1691  0.3478  0.1966
 7972SOL    HW231654   1.343   2.794   2.043 -0.2797 -0.9199 -0.4851
 7972SOL    HW331655   1.335   2.826   2.190  1.4799  1.2206 -0.7955
 7972SOL    MW431656   1.336   2.768   2.125  0.2829  0.2957 -0.0242
 7973SOL     OW31657   5.846   2.804   3.571  0.0421  0.4151  0.3212
 7973SOL    HW231658   5.765   2.760   3.545  0.5985 -0.5614  0.1948
 7973SOL    HW331659   5.912   2.773   3.509  0.4179  1.5837  0.1182
 7973SOL    MW431660   5.844   2.794   3.560  0.1651  0.4404  0.2777
 7974SOL     OW31661   4.366   2.191   1.127 -0.3581 -0.6518  0.0505
 7974SOL    HW231662   4.357   2.255   1.057 -0.3567 -1.8923 -1.1218
 7974SOL    HW331663   4.457   2.201   1.156 -0.7461  0.8018  0.8399
 7974SOL    MW431664   4.377   2.201   1.122 -0.4091 -0.6237 -0.0000
 7975SOL     OW31665   4.894   5.036   2.934  0.1220 -0.2479 -0.6980
 7975SOL    HW231666   4.800   5.056   2.944 -0.0545  0.2261 -2.8218
 7975SOL    HW331667   4.918   4.993   3.016 -1.9562 -0.3876 -0.1008
 7975SOL    MW431668   4.884   5.033   2.946 -0.1755 -0.2038 -0.8994
 7976SOL     OW31669   5.409   0.532   4.225 -0.6944 -0.0740 -0.7073
 7976SOL    HW231670   5.407   0.436   4.223 -2.5613 -0.0919 -0.0713
 7976SOL    HW331671   5.332   0.559   4.176  0.4537  1.1767 -1.9312
 7976SOL    MW431672   5.399   0.523   4.218 -0.7893  0.0886 -0.7848
 7977SOL     OW31673   0.098   6.223   3.121 -0.6143 -0.1091 -0.0087
 7977SOL    HW231674   0.095   6.173   3.040 -1.3813 -1.0769  0.5802
 7977SOL    HW331675   0.077   6.313   3.095 -1.0660 -0.4453 -0.8525
 7977SOL    MW431676   0.095   6.228   3.107 -0.7751 -0.2812 -0.0424
 7978SOL     OW31677   2.056   0.012   4.592  0.2711  0.4234 -0.1460
 7978SOL    HW231678   1.968   0.051   4.589  0.4296  0.7252 -1.8334
 7978SOL    HW331679   2.041  -0.082   4.584  0.0658  0.3619  0.7638
 7978SOL    MW431680   2.042   0.005   4.591  0.2649  0.4551 -0.2486
 7979SOL     OW31681   6.248   2.062   5.016 -0.1894  0.0552  0.1444
 7979SOL    HW231682   6.183   2.032   5.079 -1.4880  0.1537 -1.0933
 7979SOL    HW331683   6.214   2.146   4.986  0.8928  0.4517 -0.0194
 7979SOL    MW431684   6.235   2.069   5.021 -0.2180  0.1205 -0.0405
 7980SOL     OW31685   4.497   3.021   4.809  0.3477 -0.1254 -0.0700
 7980SOL    HW231686   4.433   3.000   4.877  0.1204  0.1646 -0.1916
 7980SOL    HW331687   4.478   3.112   4.786  1.3516  0.2335  0.4886
 7980SOL    MW431688   4.486   3.031   4.815  0.4502 -0.0398 -0.0123
 7981SOL     OW31689   4.622   3.270   5.838  0.2270 -0.0029 -0.1318
 7981SOL    HW231690   4.625   3.177   5.815 -0.4502  0.2856 -1.5563
 7981SOL    HW331691   4.714   3.297   5.839  0.6967 -1.3140  3.3976
 7981SOL    MW431692   4.635   3.261   5.835  0.1996 -0.1378  0.1459
 7982SOL     OW31693   2.561   1.899   6.228 -0.2229 -0.0456  0.0411
 7982SOL    HW231694   2.612   1.970   6.188 -1.7036  0.6278 -0.7536
 7982SOL    HW331695   2.625   1.830   6.245  1.1815  1.2894  0.3914
 7982SOL    MW431696   2.576   1.900   6.225 -0.2330  0.2194 -0.0176
 7983SOL     OW31697   0.900   4.073   1.473  0.0555  0.1282  0.0100
 7983SOL    HW231698   0.934   4.059   1.562 -0.8806 -0.4290  0.2980
 7983SOL    HW331699   0.978   4.081   1.419  0.7021 -1.8522  0.5306
 7983SOL    MW431700   0.915   4.072   1.478  0.0173 -0.2066  0.1167
 7984SOL     OW31701   1.080   0.314   5.332  0.2688 -0.2786  0.1355
 7984SOL    HW231702   1.028   0.291   5.409 -0.4467 -0.5431 -0.4176
 7984SOL    HW331703   1.164   0.270   5.346 -0.3538 -1.5089  0.0943
 7984SOL    MW431704   1.084   0.305   5.344  0.0923 -0.4759  0.0571
 7985SOL     OW31705   3.406   4.004   5.522  0.1193  0.2983 -0.2046
 7985SOL    HW231706   3.472   3.935   5.513 -0.7429 -0.4980 -0.6770
 7985SOL    HW331707   3.326   3.965   5.487 -1.1874  0.3897  2.3935
 7985SOL    MW431708   3.404   3.989   5.516 -0.1669  0.2053  0.0759
 7986SOL     OW31709   6.100   0.048   5.624 -0.5103  0.3230  0.0306
 7986SOL    HW231710   6.067   0.129   5.661 -1.8581 -0.9683  1.7834
 7986SOL    HW331711   6.061   0.044   5.536 -1.2061  1.0830  0.2982
 7986SOL    MW431712   6.091   0.058   5.617 -0.7799  0.2529  0.2971
 7987SOL     OW31713   3.724   6.202   2.740  0.0188  0.5462  0.0049
 7987SOL    HW231714   3.632   6.209   2.717 -0.6665 -0.0943  2.2590
 7987SOL    HW331715   3.729   6.234   2.830  1.7479 -0.6154  0.3867
 7987SOL    MW431716   3.713   6.207   2.749  0.1565  0.3085  0.3526
 7988SOL     OW31717   2.657   5.473   4.429 -0.2652  0.0108 -0.0632
 7988SOL    HW231718   2.661   5.405   4.363 -0.1597 -0.7164  0.6708
 7988SOL    HW331719   2.564   5.477   4.454 -0.1041 -0.6882  0.7076
 7988SOL    MW431720   2.645   5.465   4.424 -0.2300 -0.1774  0.1353
 7989SOL     OW31721   3.127   0.190   5.327 -0.1940  0.0151  0.5243
 7989SOL    HW231722   3.113   0.202   5.421 -0.7867  1.2102  0.3049
 7989SOL    HW331723   3.060   0.245   5.286  0.0251 -0.5318 -0.6023
 7989SOL    MW431724   3.116   0.199   5.334 -0.2433  0.1007  0.3467
 7990SOL     OW31725   3.961   1.240   3.854  0.3923  0.0785  0.6516
 7990SOL    HW231726   3.978   1.323   3.809 -1.6443  0.7602  1.0233
 7990SOL    HW331727   3.937   1.265   3.943  0.8103 -1.0031  1.0913
 7990SOL    MW431728   3.960   1.254   3.860  0.1787  0.0258  0.7587
 7991SOL     OW31729   6.174   0.877   2.182 -0.3194  0.0826 -0.2658
 7991SOL    HW231730   6.130   0.961   2.197  0.9236  0.9575 -1.3305
 7991SOL    HW331731   6.267   0.895   2.197  0.2437 -0.5085 -2.6666
 7991SOL    MW431732   6.180   0.891   2.186 -0.0811  0.1200 -0.7231
 7992SOL     OW31733   5.989   0.076   5.374 -0.6655  0.3542 -0.4218
 7992SOL    HW231734   6.005   0.026   5.294 -0.5118  0.9499 -0.7764
 7992SOL    HW331735   5.994   0.168   5.345 -1.5480  0.5735  0.0842
 7992SOL    MW431736   5.992   0.082   5.359 -0.7617  0.4617 -0.4018
 7993SOL     OW31737   5.417   5.927   5.834 -0.0026 -0.1785 -0.3739
 7993SOL    HW231738   5.329   5.946   5.867 -0.8705 -3.5044 -0.4624
 7993SOL    HW331739   5.415   5.953   5.742 -0.7341  0.2013 -0.2548
 7993SOL    MW431740   5.405   5.933   5.826 -0.2136 -0.5672 -0.3699
 7994SOL     OW31741   5.327   3.935   3.396 -0.3156  0.1356  0.0128
 7994SOL    HW231742   5.359   3.869   3.456  1.5271  1.9857  1.2079
 7994SOL    HW331743   5.252   3.975   3.440 -3.4622 -2.9780 -2.0053
 7994SOL    MW431744   5.321   3.932   3.409 -0.4876 -0.0311 -0.0958
 7995SOL     OW31745   5.826   1.830   3.944  0.0925 -0.4917  0.0659
 7995SOL    HW231746   5.828   1.912   3.992 -0.0516 -2.1157  3.1348
 7995SOL    HW331747   5.737   1.824   3.909 -0.3508  0.0027  1.0842
 7995SOL    MW431748   5.815   1.840   3.946  0.0150 -0.6408  0.6052
 7996SOL     OW31749   5.416   5.263   1.085  0.8543 -0.6510  0.0377
 7996SOL    HW231750   5.447   5.173   1.077  0.2100 -0.9192  0.5517
 7996SOL    HW331751   5.494   5.316   1.066  1.8152 -1.3067  1.9275
 7996SOL    MW431752   5.431   5.258   1.081  0.8960 -0.7729  0.3549
 7997SOL     OW31753   0.218   2.866   1.998 -0.4404 -0.4905  0.3225
 7997SOL    HW231754   0.304   2.857   2.039 -0.2243 -0.6930 -0.1633
 7997SOL    HW331755   0.194   2.957   2.014  0.9216  0.2562 -1.5464
 7997SOL    MW431756   0.227   2.876   2.006 -0.2322 -0.4187  0.0118
 7998SOL     OW31757   2.089   5.189   3.939  0.0906  0.0980  0.0037
 7998SOL    HW231758   2.024   5.191   3.869 -0.2899  0.3199  0.3662
 7998SOL    HW331759   2.080   5.102   3.978  0.6627 -0.2253 -0.5543
 7998SOL    MW431760   2.079   5.178   3.935  0.1159  0.0846 -0.0221
 7999SOL     OW31761   2.909   5.539   3.759 -0.2852  0.3324 -0.3431
 7999SOL    HW231762   2.926   5.461   3.812  0.5504  0.6025 -0.2010
 7999SOL    HW331763   2.893   5.608   3.824 -2.3937  0.0187 -0.4598
 7999SOL    MW431764   2.909   5.538   3.775 -0.4532  0.3266 -0.3398
 8000SOL     OW31765   1.235   3.480   2.255 -0.2875  0.0405  0.3914
 8000SOL    HW231766   1.255   3.485   2.348 -0.7798 -0.4967  0.5341
 8000SOL    HW331767   1.212   3.569   2.230  1.1596  0.4608  0.4666
 8000SOL    MW431768   1.234   3.492   2.264 -0.1615  0.0251  0.4202
 8001SOL     OW31769   5.368   1.427   4.924 -0.0003 -0.4462 -0.1486
 8001SOL    HW231770   5.337   1.512   4.955  1.1396 -0.1412  0.1981
 8001SOL    HW331771   5.397   1.381   5.003  0.5250 -0.6681 -0.4585
 8001SOL    MW431772   5.368   1.432   4.939  0.2194 -0.4352 -0.1438
 8002SOL     OW31773   0.159   0.292   1.475 -0.3712 -0.1976 -0.0553
 8002SOL    HW231774   0.092   0.284   1.406 -0.5202 -3.4135  0.3153
 8002SOL    HW331775   0.120   0.353   1.538 -2.8087 -1.5610 -0.1049
 8002SOL    MW431776   0.145   0.299   1.474 -0.7125 -0.8018 -0.0129
 8003SOL     OW31777   0.612   0.005   5.675  0.9702 -0.2924  0.1925
 8003SOL    HW231778   0.541  -0.013   5.736  0.8651 -0.0033  0.1538
 8003SOL    HW331779   0.614  -0.072   5.617  1.8454 -1.1481  1.2958
 8003SOL    MW431780   0.603  -0.008   5.675  1.0718 -0.3672  0.3329
 8004SOL     OW31781   6.172   5.804   3.542 -0.4394  0.6345  0.4944
 8004SOL    HW231782   6.087   5.784   3.580 -0.6833 -1.0573 -0.8338
 8004SOL    HW331783   6.158   5.800   3.447  1.2555 -0.4500  0.2404
 8004SOL    MW431784   6.159   5.801   3.534 -0.2480  0.2682  0.2857
 8005SOL     OW31785   4.091   0.606   5.235 -0.6352 -0.0068  0.1146
 8005SOL    HW231786   4.042   0.536   5.192 -0.1939 -0.5958  0.5583
 8005SOL    HW331787   4.102   0.577   5.325  0.1965  0.2902  0.1251
 8005SOL    MW431788   4.086   0.593   5.241 -0.4672 -0.0454  0.1745
 8006SOL     OW31789   1.527   1.163   2.070 -1.0261 -0.0680 -0.2983
 8006SOL    HW231790   1.530   1.071   2.044 -0.3860 -0.2736  0.4718
 8006SOL    HW331791   1.445   1.171   2.119 -1.1572 -0.1957 -0.4972
 8006SOL    MW431792   1.516   1.152   2.073 -0.9589 -0.1120 -0.2230
 8007SOL     OW31793   1.582   1.741   0.275 -0.4504 -0.7792 -0.8187
 8007SOL    HW231794   1.632   1.673   0.230 -0.3282 -0.4883 -1.1234
 8007SOL    HW331795   1.595   1.820   0.222 -0.4200 -0.4680 -0.3519
 8007SOL    MW431796   1.590   1.743   0.262 -0.4303 -0.6998 -0.7973
 8008SOL     OW31797   0.934   3.360   2.103 -0.5449 -0.4260 -0.3771
 8008SOL    HW231798   1.009   3.379   2.047 -0.8055 -1.3290 -1.0689
 8008SOL    HW331799   0.971   3.310   2.176 -0.1814  0.8835  0.3602
 8008SOL    MW431800   0.949   3.356   2.105 -0.5313 -0.3724 -0.3711
 8009SOL     OW31801   0.616   2.743   2.371 -0.1889  0.5734 -0.1636
 8009SOL    HW231802   0.682   2.803   2.404 -0.6883  0.8118  0.4099
 8009SOL    HW331803   0.615   2.670   2.433  0.0003  0.2496 -0.5342
 8009SOL    MW431804   0.625   2.741   2.383 -0.2298  0.5621 -0.1368
 8010SOL     OW31805   1.110   3.330   3.962 -0.4168  0.0731  0.0347
 8010SOL    HW231806   1.131   3.392   3.892 -0.8661  0.1083 -0.0704
 8010SOL    HW331807   1.029   3.288   3.934  0.0891 -0.8602 -0.0838
 8010SOL    MW431808   1.102   3.333   3.949 -0.4093 -0.0454  0.0052
 8011SOL     OW31809   0.249   6.185   3.792 -0.4526 -0.1707  0.4080
 8011SOL    HW231810   0.246   6.091   3.770  0.3384 -0.0911 -0.0960
 8011SOL    HW331811   0.159   6.207   3.816 -0.3092 -1.5393  2.5849
 8011SOL    MW431812   0.237   6.175   3.793 -0.3293 -0.3408  0.6287
 8012SOL     OW31813   6.035   1.776   1.279  0.6292  0.0150  0.1216
 8012SOL    HW231814   5.985   1.858   1.270 -0.2726 -0.3478  1.4658
 8012SOL    HW331815   5.992   1.731   1.352  0.4675 -2.1236 -1.2266
 8012SOL    MW431816   6.022   1.781   1.288  0.4889 -0.3150  0.1211
 8013SOL     OW31817   4.927   3.716   4.870  0.6144  0.3494  0.1089
 8013SOL    HW231818   4.858   3.781   4.882 -1.4800 -1.3441 -1.7113
 8013SOL    HW331819   4.904   3.646   4.931  1.9595  0.6256  0.9590
 8013SOL    MW431820   4.915   3.715   4.880  0.5155  0.1624 -0.0191
 8014SOL     OW31821   2.759   1.113   0.011  0.0810  0.5407 -0.2360
 8014SOL    HW231822   2.737   1.061   0.089 -0.5524 -0.4609 -1.0569
 8014SOL    HW331823   2.742   1.203   0.037  0.1602  0.2518  0.8825
 8014SOL    MW431824   2.754   1.118   0.025  0.0079  0.3704 -0.1967
 8015SOL     OW31825   5.579   2.767   3.453 -0.1236 -0.2982  0.0501
 8015SOL    HW231826   5.514   2.710   3.412 -0.3993  0.6113 -0.8154
 8015SOL    HW331827   5.538   2.854   3.455  0.7970  0.1570  0.1162
 8015SOL    MW431828   5.565   2.771   3.448 -0.0385 -0.1181 -0.0554
 8016SOL     OW31829   1.140   4.249   4.393 -0.4952  0.2654 -0.0563
 8016SOL    HW231830   1.068   4.304   4.363 -1.8547 -2.0383 -1.3125
 8016SOL    HW331831   1.171   4.206   4.314  2.6354  1.4781  0.3671
 8016SOL    MW431832   1.135   4.251   4.379 -0.2615  0.1214 -0.1662
 8017SOL     OW31833   3.975   5.660   5.815 -0.2617  0.8410 -0.6122
 8017SOL    HW231834   3.970   5.565   5.800 -0.7766  0.4686  1.5594
 8017SOL    HW331835   3.884   5.689   5.806 -0.0594  1.2101 -1.5824
 8017SOL    MW431836   3.962   5.651   5.812 -0.3030  0.8405 -0.4537
 8018SOL     OW31837   2.417   2.785   1.058 -0.3806 -0.1367  0.2278
 8018SOL    HW231838   2.375   2.866   1.027 -1.5251 -0.5623  0.6063
 8018SOL    HW331839   2.509   2.808   1.066 -0.5642  0.9115 -0.4129
 8018SOL    MW431840   2.423   2.799   1.055 -0.5558 -0.0545  0.1932
 8019SOL     OW31841   5.278   3.616   4.127 -0.5060  0.3043 -0.4942
 8019SOL    HW231842   5.237   3.636   4.043  0.1277  0.0256 -0.8826
 8019SOL    HW331843   5.298   3.523   4.123 -1.8941 -0.0738  0.6128
 8019SOL    MW431844   5.275   3.606   4.116 -0.6055  0.2177 -0.3994
 8020SOL     OW31845   4.404   1.137   0.420  0.4202 -0.2646  0.1188
 8020SOL    HW231846   4.444   1.172   0.341 -1.2617 -0.9174 -1.0860
 8020SOL    HW331847   4.315   1.172   0.419  0.2746 -0.5475  1.5563
 8020SOL    MW431848   4.397   1.146   0.409  0.1791 -0.3880  0.1495
 8021SOL     OW31849   2.494   3.940   0.436  0.2044 -0.1233 -0.3574
 8021SOL    HW231850   2.476   3.979   0.522 -0.6452 -0.6370 -0.2956
 8021SOL    HW331851   2.583   3.906   0.444  1.4220  2.6504 -0.7449
 8021SOL    MW431852   2.504   3.941   0.449  0.2530  0.1749 -0.4004
 8022SOL     OW31853   5.437   0.241   2.504  0.0472 -0.1890  0.2154
 8022SOL    HW231854   5.481   0.270   2.423 -1.2901  2.2294  0.2533
 8022SOL    HW331855   5.353   0.205   2.474 -0.7228  1.2900  0.5122
 8022SOL    MW431856   5.432   0.240   2.489 -0.2309  0.3252  0.2596
 8023SOL     OW31857   3.465   5.234   5.977 -0.4851 -0.2507 -0.1708
 8023SOL    HW231858   3.493   5.158   5.924 -0.4440  0.5561 -1.3449
 8023SOL    HW331859   3.392   5.272   5.927 -0.2142  0.7386  0.1771
 8023SOL    MW431860   3.459   5.229   5.963 -0.4439 -0.0137 -0.2798
 8024SOL     OW31861   2.442   5.056   0.211  0.1285  0.8538  0.4956
 8024SOL    HW231862   2.479   5.131   0.257  0.8825  1.2456 -0.7200
 8024SOL    HW331863   2.512   5.025   0.154 -1.3193  1.5657 -1.8227
 8024SOL    MW431864   2.456   5.061   0.210  0.0370  0.9994  0.0294
 8025SOL     OW31865   6.250   3.149   3.102 -0.3751 -0.6472 -0.0771
 8025SOL    HW231866   6.205   3.071   3.068 -0.3280 -1.2364  1.1303
 8025SOL    HW331867   6.239   3.142   3.197  0.6941  0.1741  0.1196
 8025SOL    MW431868   6.243   3.138   3.110 -0.2278 -0.6166  0.1082
 8026SOL     OW31869   1.673   2.337   1.832  0.5066 -0.6299  0.1863
 8026SOL    HW231870   1.740   2.393   1.792 -0.1517 -0.6349 -0.9650
 8026SOL    HW331871   1.628   2.395   1.894 -0.2587  0.2071 -1.0925
 8026SOL    MW431872   1.676   2.352   1.835  0.3188 -0.5201 -0.1343
 8027SOL     OW31873   1.696   0.132   1.232  0.0620  0.3610  0.3171
 8027SOL    HW231874   1.628   0.141   1.299 -0.4891 -1.6395  0.1043
 8027SOL    HW331875   1.651   0.153   1.150  0.2913  1.1688  0.3942
 8027SOL    MW431876   1.681   0.136   1.230  0.0195  0.2036  0.2992
 8028SOL     OW31877   5.131   4.348   1.330  0.7304 -0.2409  0.6768
 8028SOL    HW231878   5.144   4.306   1.245 -0.6100 -0.8322  0.7308
 8028SOL    HW331879   5.041   4.382   1.326 -0.2532 -2.3575  2.6772
 8028SOL    MW431880   5.121   4.347   1.318  0.4238 -0.5982  0.9478
 8029SOL     OW31881   3.620   5.775   4.965 -0.0095  0.3211 -0.3981
 8029SOL    HW231882   3.587   5.864   4.982  0.6137  0.5953 -0.6050
 8029SOL    HW331883   3.574   5.721   5.029  0.7119  1.0194  0.7433
 8029SOL    MW431884   3.609   5.780   4.976  0.1679  0.4494 -0.2748
 8030SOL     OW31885   4.202   3.873   3.233  0.7555 -0.1390  0.4706
 8030SOL    HW231886   4.112   3.861   3.203  1.0106 -0.7082 -0.0877
 8030SOL    HW331887   4.194   3.902   3.324  0.0308 -0.8674  0.6464
 8030SOL    MW431888   4.189   3.876   3.241  0.6936 -0.3102  0.4201
 8031SOL     OW31889   3.414   3.505   3.013  0.0230  0.1629 -0.3553
 8031SOL    HW231890   3.486   3.561   3.043  0.5116 -0.1151 -0.9756
 8031SOL    HW331891   3.449   3.463   2.934 -0.5526 -0.5619 -0.2287
 8031SOL    MW431892   3.428   3.507   3.006  0.0115  0.0306 -0.4204
 8032SOL     OW31893   4.318   2.549   3.353 -0.1473 -0.9723  0.2379
 8032SOL    HW231894   4.327   2.632   3.306  0.1618 -1.1302  0.0055
 8032SOL    HW331895   4.225   2.540   3.370  0.0723  1.1361  3.4444
 8032SOL    MW431896   4.307   2.558   3.349 -0.0776 -0.7149  0.6303
 8033SOL     OW31897   4.543   3.163   2.194  0.5629  0.2176 -0.0849
 8033SOL    HW231898   4.600   3.175   2.118 -1.6712 -1.1805 -2.1382
 8033SOL    HW331899   4.578   3.085   2.239  0.9297  0.0478 -0.6559
 8033SOL    MW431900   4.555   3.154   2.190  0.3165  0.0107 -0.4312
 8034SOL     OW31901   3.764   2.843   1.104 -0.1118 -0.2419  0.2847
 8034SOL    HW231902   3.831   2.781   1.132 -0.1767  0.1227  1.2976
 8034SOL    HW331903   3.691   2.788   1.075  0.4561 -0.6384 -0.4443
 8034SOL    MW431904   3.763   2.828   1.104 -0.0455 -0.2461  0.3222
 8035SOL     OW31905   5.815   0.321   3.064  0.3669 -0.2922 -0.1889
 8035SOL    HW231906   5.820   0.279   3.150 -3.1367 -1.2220 -0.2870
 8035SOL    HW331907   5.753   0.393   3.076 -0.8018 -0.9176 -2.0541
 8035SOL    MW431908   5.807   0.325   3.077 -0.2496 -0.4974 -0.4479
 8036SOL     OW31909   1.947   5.511   0.685  0.0835 -0.1807 -0.0148
 8036SOL    HW231910   2.012   5.449   0.652  1.2534  0.0532  1.7030
 8036SOL    HW331911   1.916   5.471   0.767 -0.7744  0.4783 -0.0029
 8036SOL    MW431912   1.951   5.497   0.692  0.1247 -0.0629  0.2134
 8037SOL     OW31913   4.493   1.513   2.663  0.2128  0.4753  0.2865
 8037SOL    HW231914   4.538   1.435   2.632  0.2134  0.8445 -0.6808
 8037SOL    HW331915   4.403   1.485   2.677 -0.2460  0.7028 -1.8680
 8037SOL    MW431916   4.487   1.499   2.661  0.1524  0.5540 -0.1254
 8038SOL     OW31917   2.932   0.343   3.536  0.4129 -0.3261 -0.0324
 8038SOL    HW231918   2.943   0.255   3.498 -2.6692 -0.7486 -0.1491
 8038SOL    HW331919   2.865   0.332   3.604 -0.7211  2.0859 -0.6631
 8038SOL    MW431920   2.925   0.330   3.540 -0.1434 -0.0636 -0.1310
 8039SOL     OW31921   4.896   0.782   2.488 -0.0686  0.3696 -0.1798
 8039SOL    HW231922   4.882   0.786   2.582  2.0725  0.9795  0.1502
 8039SOL    HW331923   4.874   0.870   2.456 -2.3439 -0.2524 -0.5653
 8039SOL    MW431924   4.891   0.794   2.496 -0.0863  0.3680 -0.1871
 8040SOL     OW31925   2.728   1.754   1.455  0.1490  0.0339  0.3883
 8040SOL    HW231926   2.758   1.843   1.473  1.3337 -0.2101 -0.2868
 8040SOL    HW331927   2.807   1.706   1.433 -0.4807 -1.1925  0.7074
 8040SOL    MW431928   2.742   1.760   1.454  0.2222 -0.1601  0.3414
 8041SOL     OW31929   0.141   3.057   2.273 -0.2155  0.6367  0.2799
 8041SOL    HW231930   0.134   2.962   2.266  0.7374  0.5254  0.6560
 8041SOL    HW331931   0.128   3.089   2.183 -0.8135  0.1775  0.2012
 8041SOL    MW431932   0.139   3.049   2.260 -0.1687  0.5614  0.3191
 8042SOL     OW31933   5.955   5.882   1.469  0.3261 -0.5101 -0.2484
 8042SOL    HW231934   5.954   5.966   1.423  2.4864  0.1577  0.8055
 8042SOL    HW331935   5.879   5.886   1.527  0.5678  0.8727  0.0113
 8042SOL    MW431936   5.945   5.893   1.470  0.6430 -0.2395 -0.0751
 8043SOL     OW31937   0.875   3.325   2.794  0.5513 -0.1052  0.5218
 8043SOL    HW231938   0.878   3.395   2.728  0.1651  0.1032  0.7207
 8043SOL    HW331939   0.823   3.256   2.753  1.9797 -0.8054 -0.1673
 8043SOL    MW431940   0.869   3.325   2.780  0.6888 -0.1701  0.4571
 8044SOL     OW31941   0.975   4.037   4.548 -0.0915 -0.5900 -0.2963
 8044SOL    HW231942   1.069   4.043   4.566  0.0268  1.3008 -1.2525
 8044SOL    HW331943   0.969   3.984   4.469  0.2034 -0.4645 -0.4054
 8044SOL    MW431944   0.987   4.031   4.540 -0.0370 -0.3240 -0.4369
 8045SOL     OW31945   3.587   1.445   5.443 -0.1387 -0.6533 -0.1030
 8045SOL    HW231946   3.651   1.436   5.372 -1.1925 -1.6789 -0.9509
 8045SOL    HW331947   3.546   1.359   5.450 -0.0289 -0.5995  1.8162
 8045SOL    MW431948   3.590   1.432   5.435 -0.2632 -0.7815  0.0383
 8046SOL     OW31949   1.357   5.631   0.240  0.0483  0.2518  0.0000
 8046SOL    HW231950   1.296   5.608   0.170 -0.9311 -0.4334  1.0292
 8046SOL    HW331951   1.403   5.708   0.208  0.6830 -0.8989 -1.9856
 8046SOL    MW431952   1.355   5.638   0.227  0.0028  0.0096 -0.1262
 8047SOL     OW31953   6.094   0.998   5.030  0.6677 -0.3173  0.1639
 8047SOL    HW231954   6.083   0.909   5.062 -0.1442 -0.4169 -0.3661
 8047SOL    HW331955   6.029   1.007   4.960  0.0796  1.0004  0.8513
 8047SOL    MW431956   6.084   0.988   5.025  0.4830 -0.1565  0.1847
 8048SOL     OW31957   3.342   0.775   3.758 -0.0081 -0.0190  0.3850
 8048SOL    HW231958   3.255   0.737   3.771  0.1969 -0.1146  1.6016
 8048SOL    HW331959   3.355   0.772   3.664 -0.9528 -0.8473  0.2566
 8048SOL    MW431960   3.332   0.770   3.748 -0.1057 -0.1409  0.5286
 8049SOL     OW31961   3.533   5.167   4.243 -0.2190 -0.1299 -0.1518
 8049SOL    HW231962   3.452   5.218   4.238  0.6734  1.4719  0.8561
 8049SOL    HW331963   3.504   5.076   4.241 -1.9608  0.3954 -0.8693
 8049SOL    MW431964   3.519   5.162   4.242 -0.3311  0.1508 -0.1135
 8050SOL     OW31965   1.516   2.237   3.897 -0.0394  0.2131  0.1844
 8050SOL    HW231966   1.454   2.308   3.879  1.4895  1.8550  1.0705
 8050SOL    HW331967   1.462   2.166   3.931 -1.5858  1.0564 -0.4319
 8050SOL    MW431968   1.501   2.237   3.899 -0.0417  0.5410  0.2200
 8051SOL     OW31969   6.310   1.425   4.146 -0.1213 -0.0006  0.3637
 8051SOL    HW231970   6.222   1.462   4.156  0.1769  1.3888 -1.4392
 8051SOL    HW331971   6.356   1.450   4.226 -0.8726  0.8291  0.5560
 8051SOL    MW431972   6.304   1.433   4.158 -0.1811  0.2922  0.1512
 8052SOL     OW31973   1.989   2.933   2.817 -0.1430 -0.0750 -0.2029
 8052SOL    HW231974   2.011   2.945   2.910  2.5461 -0.1936 -0.7489
 8052SOL    HW331975   1.916   2.871   2.818 -0.3837  0.1650  1.8403
 8052SOL    MW431976   1.982   2.926   2.830  0.1801 -0.0590 -0.0054
 8053SOL     OW31977   0.791   3.143   3.374  0.9325 -0.3037  0.0473
 8053SOL    HW231978   0.870   3.088   3.372  1.6341  0.6204  1.1099
 8053SOL    HW331979   0.812   3.213   3.436 -0.6469  0.0947  0.1811
 8053SOL    MW431980   0.804   3.145   3.382  0.8167 -0.1292  0.2052
 8054SOL     OW31981   2.483   0.749   6.020 -0.1959  0.4314 -0.1682
 8054SOL    HW231982   2.547   0.772   6.087 -0.2773 -0.8619  0.3870
 8054SOL    HW331983   2.448   0.833   5.990  0.4365  1.0646  0.8183
 8054SOL    MW431984   2.487   0.763   6.025 -0.1232  0.3443  0.0352
 8055SOL     OW31985   1.028   6.180   0.380 -0.3825 -0.1452 -0.5390
 8055SOL    HW231986   1.065   6.104   0.425 -3.8841 -0.7538  1.7057
 8055SOL    HW331987   1.074   6.255   0.418  0.3858 -0.9468  0.1633
 8055SOL    MW431988   1.039   6.180   0.391 -0.7432 -0.3313 -0.1502
 8056SOL     OW31989   1.302   5.355   1.505  0.3966  0.1660  0.2658
 8056SOL    HW231990   1.252   5.273   1.498  0.3272  0.3040 -1.1783
 8056SOL    HW331991   1.237   5.424   1.492  1.0636  0.3332 -3.3082
 8056SOL    MW431992   1.287   5.353   1.502  0.4754  0.2063 -0.3963
 8057SOL     OW31993   3.936   1.368   3.352  0.3022  0.5176 -0.5823
 8057SOL    HW231994   3.967   1.404   3.269 -0.2412  0.8643 -0.6398
 8057SOL    HW331995   3.897   1.284   3.329  1.6036 -0.1440 -0.4433
 8057SOL    MW431996   3.935   1.362   3.338  0.4022  0.4760 -0.5716
 8058SOL     OW31997   3.937   5.486   5.510  0.0656  0.7805  0.2896
 8058SOL    HW231998   4.020   5.534   5.517  0.5199  0.3442 -1.6543
 8058SOL    HW331999   3.915   5.463   5.601  3.2441 -1.0120  0.7613
 8058SOL    MW432000   3.945   5.489   5.523  0.5449  0.4864  0.0954
 8059SOL     OW32001   4.523   0.690   1.259  0.6877 -0.3442  0.3359
 8059SOL    HW232002   4.590   0.731   1.313 -0.3294  0.0952  1.3135
 8059SOL    HW332003   4.477   0.631   1.319 -2.1680  2.0672  0.7745
 8059SOL    MW432004   4.526   0.687   1.274  0.1768  0.0319  0.5227
 8060SOL     OW32005   4.840   1.648   5.430 -0.3339  0.1975 -0.1476
 8060SOL    HW232006   4.778   1.703   5.479 -0.5170  0.6796 -0.8980
 8060SOL    HW332007   4.797   1.633   5.346 -0.4409 -1.4091  0.1592
 8060SOL    MW432008   4.826   1.654   5.425 -0.3722  0.0491 -0.2061
 8061SOL     OW32009   5.981   5.778   4.073  0.4305  0.1496  0.6912
 8061SOL    HW232010   5.985   5.819   4.159  1.8943  2.6676 -0.4459
 8061SOL    HW332011   6.071   5.778   4.041 -0.1981  0.3338 -1.2593
 8061SOL    MW432012   5.993   5.784   4.080  0.5407  0.5061  0.2838
 8062SOL     OW32013   1.918   2.623   3.493 -0.2066 -0.7134 -0.1636
 8062SOL    HW232014   1.929   2.634   3.398  0.9618 -1.1318 -0.0837
 8062SOL    HW332015   1.885   2.708   3.523 -0.3754 -0.5058 -0.9119
 8062SOL    MW432016   1.915   2.636   3.484 -0.0747 -0.7412 -0.2518
 8063SOL     OW32017   3.743   5.887   2.077 -0.2827 -0.6275 -0.4065
 8063SOL    HW232018   3.769   5.960   2.020 -1.4463 -1.5868 -2.2567
 8063SOL    HW332019   3.721   5.816   2.016 -0.2752 -2.1576  1.3122
 8063SOL    MW432020   3.743   5.887   2.061 -0.4353 -0.9560 -0.4239
 8064SOL     OW32021   1.938   1.402   4.495 -0.1772  0.3422  0.4504
 8064SOL    HW232022   2.019   1.368   4.531 -0.7432 -0.9153  0.6007
 8064SOL    HW332023   1.871   1.341   4.525 -1.0246  0.7324 -0.5680
 8064SOL    MW432024   1.940   1.389   4.503 -0.3637  0.2278  0.3358
 8065SOL     OW32025   0.759   5.498   4.596  0.2070 -0.2039  0.6127
 8065SOL    HW232026   0.846   5.531   4.620  0.7537 -0.3855 -0.9459
 8065SOL    HW332027   0.775   5.447   4.516 -1.5740  1.1768 -0.7100
 8065SOL    MW432028   0.773   5.495   4.588  0.0441 -0.0457  0.2325
 8066SOL     OW32029   4.896   3.022   0.312  0.0351  0.1755 -0.0839
 8066SOL    HW232030   4.866   2.977   0.391 -0.0776  1.2931  0.5322
 8066SOL    HW332031   4.989   3.040   0.328 -0.2074  1.2391  0.2243
 8066SOL    MW432032   4.904   3.019   0.324 -0.0118  0.4633  0.0381
 8067SOL     OW32033   5.833   5.613   1.007 -0.1408 -0.0893 -0.4054
 8067SOL    HW232034   5.825   5.644   0.917 -1.3044  3.5993  0.7592
 8067SOL    HW332035   5.920   5.642   1.035 -0.5538  0.5877  0.2118
 8067SOL    MW432036   5.844   5.621   0.999 -0.3488  0.4867 -0.1703
 8068SOL     OW32037   4.553   4.744   5.454  0.4072 -0.1221 -0.3195
 8068SOL    HW232038   4.568   4.836   5.432 -0.0524  0.1095  0.3055
 8068SOL    HW332039   4.632   4.699   5.424  1.5033  0.7639  1.0763
 8068SOL    MW432040   4.565   4.751   5.448  0.4912  0.0253 -0.0529
 8069SOL     OW32041   5.640   2.238   3.357 -0.1993 -0.3125 -0.4913
 8069SOL    HW232042   5.556   2.262   3.319 -0.2634 -0.1480 -0.2504
 8069SOL    HW332043   5.693   2.318   3.350 -0.4154 -0.0852  0.3165
 8069SOL    MW432044   5.636   2.252   3.351 -0.2363 -0.2608 -0.3530
 8070SOL     OW32045   0.425   4.663   1.483 -0.2413 -0.4183  0.2275
 8070SOL    HW232046   0.495   4.629   1.539  1.1126  1.6023 -0.1345
 8070SOL    HW332047   0.427   4.758   1.497 -0.5560  0.0524 -2.4201
 8070SOL    MW432048   0.435   4.671   1.492 -0.1042 -0.0896 -0.1696
 8071SOL     OW32049   3.321   1.634   4.682  0.2446  0.1849 -0.1184
 8071SOL    HW232050   3.277   1.667   4.759 -0.5514  1.6461 -1.1636
 8071SOL    HW332051   3.384   1.571   4.716 -0.7001  0.1256  1.6331
 8071SOL    MW432052   3.324   1.630   4.697  0.0149  0.3699 -0.0253
 8072SOL     OW32053   1.731   5.578   3.648  0.5791 -0.2915 -0.0878
 8072SOL    HW232054   1.730   5.507   3.713  0.5223 -0.9579 -0.8051
 8072SOL    HW332055   1.668   5.642   3.681 -0.7005 -1.3979 -0.3155
 8072SOL    MW432056   1.723   5.577   3.661  0.4028 -0.5254 -0.2125
 8073SOL     OW32057   5.038   1.056   6.277 -0.4718 -0.1674 -0.0802
 8073SOL    HW232058   4.975   1.113   6.233 -0.1609 -0.0645 -0.3958
 8073SOL    HW332059   5.053   1.099   6.362 -1.1791 -0.4428  0.1960
 8073SOL    MW432060   5.032   1.069   6.283 -0.5241 -0.1902 -0.0854
 8074SOL     OW32061   1.273   1.300   2.460 -0.6321 -0.4918 -0.3570
 8074SOL    HW232062   1.281   1.247   2.380 -3.3188  1.2594 -1.9652
 8074SOL    HW332063   1.207   1.255   2.512 -0.7907 -0.2604 -0.3578
 8074SOL    MW432064   1.265   1.287   2.456 -1.0075 -0.2302 -0.5693
 8075SOL     OW32065   0.445   0.338   5.971  0.3629  0.2332 -0.2326
 8075SOL    HW232066   0.518   0.277   5.985 -1.2129 -1.3774  1.3778
 8075SOL    HW332067   0.461   0.374   5.883  2.5072 -0.8490 -0.3592
 8075SOL    MW432068   0.457   0.334   5.961  0.4379 -0.1221 -0.0368
 8076SOL     OW32069   2.747   0.655   2.691 -0.3509 -0.0708  0.3783
 8076SOL    HW232070   2.734   0.611   2.775 -0.3396  0.9051  0.9130
 8076SOL    HW332071   2.837   0.636   2.667 -0.8950 -1.9171 -0.3714
 8076SOL    MW432072   2.757   0.647   2.699 -0.4212 -0.1856  0.3499
 8077SOL     OW32073   4.487   1.493   0.007  0.0754 -0.7151  0.2246
 8077SOL    HW232074   4.574   1.463  -0.022  1.2122  1.1400  1.4796
 8077SOL    HW332075   4.432   1.487  -0.072  1.8732 -0.0168 -1.1622
 8077SOL    MW432076   4.491   1.488  -0.008  0.4626 -0.3782  0.2072
 8078SOL     OW32077   1.540   6.404   5.894 -0.2758 -0.0908  0.3403
 8078SOL    HW232078   1.478   6.390   5.965  0.6532  0.1726  1.2243
 8078SOL    HW332079   1.593   6.324   5.892 -0.8806 -0.4812 -0.6684
 8078SOL    MW432080   1.539   6.392   5.903 -0.2330 -0.1076  0.3239
 8079SOL     OW32081   2.297   2.896   2.207  0.0022  0.0097  0.3529
 8079SOL    HW232082   2.236   2.924   2.276 -1.8579 -2.8153  0.0384
 8079SOL    HW332083   2.243   2.888   2.129  1.2755 -0.4998 -0.5105
 8079SOL    MW432084   2.282   2.899   2.206 -0.0752 -0.4302  0.1975
 8080SOL     OW32085   3.542   0.968   0.285 -0.1650 -0.1647 -0.4563
 8080SOL    HW232086   3.510   1.059   0.286  1.1057  0.3054  1.2608
 8080SOL    HW332087   3.632   0.975   0.252  0.0808 -0.7478  0.0878
 8080SOL    MW432088   3.549   0.981   0.281  0.0351 -0.1796 -0.1580
 8081SOL     OW32089   4.557   1.124   5.531  0.2939 -0.4385 -0.6729
 8081SOL    HW232090   4.648   1.094   5.526  0.7732  0.7760  0.2794
 8081SOL    HW332091   4.518   1.093   5.449  1.4121 -1.4227 -0.8722
 8081SOL    MW432092   4.564   1.116   5.519  0.5047 -0.4081 -0.5735
 8082SOL     OW32093   1.642   0.514   0.709  0.1295  0.7247 -0.2091
 8082SOL    HW232094   1.629   0.469   0.625  1.8138 -0.3039  0.0174
 8082SOL    HW332095   1.735   0.538   0.708  0.4865 -0.3319  1.8087
 8082SOL    MW432096   1.653   0.511   0.697  0.3988  0.4496  0.0870
 8083SOL     OW32097   5.187   4.152   2.171 -0.0965  0.5350  0.4236
 8083SOL    HW232098   5.136   4.150   2.090 -1.3653  0.8029  1.1951
 8083SOL    HW332099   5.274   4.183   2.144 -0.1748 -0.3943 -0.9906
 8083SOL    MW432100   5.192   4.156   2.157 -0.2742  0.4478  0.3388
 8084SOL     OW32101   5.337   1.930   4.430  0.2118  0.7636 -0.5012
 8084SOL    HW232102   5.385   1.924   4.513  1.0045  0.3643 -0.9778
 8084SOL    HW332103   5.245   1.923   4.456  0.4593  0.3404  0.3246
 8084SOL    MW432104   5.331   1.928   4.444  0.3491  0.6551 -0.4551
 8085SOL     OW32105   2.278   2.698   5.792 -0.3785 -0.0654 -0.7218
 8085SOL    HW232106   2.307   2.784   5.823  0.6523 -0.3252 -0.9253
 8085SOL    HW332107   2.183   2.706   5.786 -0.7333 -0.1425  2.8908
 8085SOL    MW432108   2.269   2.711   5.795 -0.2893 -0.1099 -0.2720
 8086SOL     OW32109   2.411   3.385   5.180 -0.1369  0.4248 -0.1286
 8086SOL    HW232110   2.365   3.459   5.219 -1.3953 -0.9532  1.1475
 8086SOL    HW332111   2.354   3.357   5.108  0.7512  1.1890 -1.1468
 8086SOL    MW432112   2.397   3.391   5.176 -0.1858  0.3438 -0.0946
 8087SOL     OW32113   0.113   6.016   2.938 -0.0504  0.2396 -0.0457
 8087SOL    HW232114   0.035   6.016   2.882 -0.6160  0.0894  0.7138
 8087SOL    HW332115   0.090   5.956   3.009  1.0345 -0.3379 -0.1716
 8087SOL    MW432116   0.099   6.008   2.940  0.0181  0.1436  0.0379
 8088SOL     OW32117   6.034   1.812   2.659  0.3252 -0.6491  0.7549
 8088SOL    HW232118   6.102   1.818   2.726  0.5953  0.0586  0.4282
 8088SOL    HW332119   5.953   1.801   2.707  0.5249 -0.2174  1.2016
 8088SOL    MW432120   6.032   1.811   2.674  0.3872 -0.4988  0.7707
 8089SOL     OW32121   1.708   3.802   2.892 -0.0730 -0.2704 -0.2799
 8089SOL    HW232122   1.685   3.726   2.840  1.3528 -2.0279  1.5019
 8089SOL    HW332123   1.625   3.831   2.931 -0.3314 -2.5791  1.0582
 8089SOL    MW432124   1.694   3.796   2.890  0.0810 -0.8069  0.1318
 8090SOL     OW32125   5.192   5.825   4.189  0.4152  0.1968 -0.0935
 8090SOL    HW232126   5.250   5.894   4.223  1.2590 -1.0721  1.2176
 8090SOL    HW332127   5.235   5.795   4.109  1.2279 -0.2657  0.5032
 8090SOL    MW432128   5.206   5.830   4.183  0.6338 -0.0316  0.1582
 8091SOL     OW32129   2.358   1.714   0.294  0.3618  0.1886  0.4893
 8091SOL    HW232130   2.425   1.701   0.227  0.9680 -1.4868  1.3577
 8091SOL    HW332131   2.288   1.761   0.250  2.0628  2.0087 -0.4726
 8091SOL    MW432132   2.358   1.719   0.280  0.6662  0.2077  0.4769
 8092SOL     OW32133   5.574   0.779   0.749  0.4994  0.1972  0.2596
 8092SOL    HW232134   5.574   0.687   0.777  0.7532  1.1822  4.0272
 8092SOL    HW332135   5.659   0.812   0.777 -0.1359  1.9104  0.2642
 8092SOL    MW432136   5.585   0.771   0.756  0.4491  0.5532  0.7573
 8093SOL     OW32137   1.699   2.044   1.130  0.1331  0.2952  0.2476
 8093SOL    HW232138   1.726   2.114   1.189  0.9927 -0.0352  0.2654
 8093SOL    HW332139   1.612   2.020   1.159  0.9284 -0.5633  2.0693
 8093SOL    MW432140   1.691   2.050   1.141  0.3515  0.1384  0.4903
 8094SOL     OW32141   3.883   0.092   3.369 -0.3035 -0.0381  0.0727
 8094SOL    HW232142   3.951   0.095   3.303  0.0296 -1.0238  0.3544
 8094SOL    HW332143   3.829   0.170   3.353  0.3338  0.2373 -0.7372
 8094SOL    MW432144   3.885   0.103   3.358 -0.1754 -0.1318  0.0030
 8095SOL     OW32145   5.198   1.190   5.060  0.3779  0.2246  0.0916
 8095SOL    HW232146   5.150   1.108   5.064  1.1830 -0.2479  0.3640
 8095SOL    HW332147   5.240   1.190   4.974  0.1599  0.4773 -0.0156
 8095SOL    MW432148   5.197   1.179   5.049  0.4554  0.1956  0.1134
 8096SOL     OW32149   1.403   2.049   3.461 -0.0643  0.0145  0.2094
 8096SOL    HW232150   1.448   2.133   3.454 -1.1222  0.4879 -1.4812
 8096SOL    HW332151   1.452   2.002   3.528  1.9659  1.0868 -0.4093
 8096SOL    MW432152   1.416   2.054   3.469  0.0640  0.2185 -0.0953
 8097SOL     OW32153   0.865   4.422   0.771 -0.0006 -0.0795  0.2636
 8097SOL    HW232154   0.914   4.463   0.842  2.4988 -0.4460 -1.1324
 8097SOL    HW332155   0.824   4.495   0.725 -1.9347  0.1387  2.1752
 8097SOL    MW432156   0.866   4.437   0.774  0.0740 -0.0991  0.3316
 8098SOL     OW32157   0.974   5.543   2.257 -0.5104 -0.0301  0.3610
 8098SOL    HW232158   0.985   5.557   2.163 -2.3068 -0.2387  0.0961
 8098SOL    HW332159   0.921   5.618   2.286 -0.6627 -0.3970  1.0473
 8098SOL    MW432160   0.969   5.555   2.248 -0.7675 -0.1060  0.4166
 8099SOL     OW32161   2.537   4.678   5.763 -0.0584  0.1381 -0.4282
 8099SOL    HW232162   2.553   4.772   5.756  0.2265  0.0433 -1.0809
 8099SOL    HW332163   2.496   4.668   5.849 -0.7426  0.9436 -0.6431
 8099SOL    MW432164   2.534   4.689   5.774 -0.1111  0.2319 -0.5426
 8100SOL     OW32165   4.536   4.477   2.228 -0.1192 -0.4799  0.1845
 8100SOL    HW232166   4.462   4.518   2.183  0.3380 -0.3283 -0.4513
 8100SOL    HW332167   4.521   4.496   2.320 -0.4419  0.2739 -0.0099
 8100SOL    MW432168   4.524   4.485   2.234 -0.1015 -0.3605  0.0749
 8101SOL     OW32169   1.535   0.102   0.363 -0.2681 -0.3163 -0.1814
 8101SOL    HW232170   1.616   0.102   0.311  0.4563  2.0446  0.7759
 8101SOL    HW332171   1.543   0.026   0.421  0.4834 -1.0554 -1.2329
 8101SOL    MW432172   1.547   0.092   0.364 -0.0734 -0.1023 -0.1939
 8102SOL     OW32173   3.482   3.971   3.200  0.4323 -0.5800  0.1700
 8102SOL    HW232174   3.513   4.026   3.129 -0.4328 -0.2488  0.0366
 8102SOL    HW332175   3.539   3.993   3.274  1.9399 -1.5908 -0.6235
 8102SOL    MW432176   3.494   3.981   3.201  0.5171 -0.6697  0.0477
 8103SOL     OW32177   3.871   4.399   3.933 -0.2938  0.6925  0.5407
 8103SOL    HW232178   3.930   4.378   4.005 -0.6923  0.1015  0.7037
 8103SOL    HW332179   3.900   4.485   3.903 -0.4565  1.2081  1.7694
 8103SOL    MW432180   3.882   4.408   3.939 -0.3678  0.6826  0.7243
 8104SOL     OW32181   2.203   5.058   2.536 -0.9751  0.7078 -0.0697
 8104SOL    HW232182   2.150   5.089   2.610 -1.3235 -0.8084  0.3355
 8104SOL    HW332183   2.187   4.964   2.532 -0.1083  0.5926 -1.4070
 8104SOL    MW432184   2.194   5.050   2.546 -0.9067  0.4926 -0.1927
 8105SOL     OW32185   2.273   3.975   4.817  0.0714 -0.0565  0.2996
 8105SOL    HW232186   2.337   3.907   4.836 -1.6499 -1.6811  0.6452
 8105SOL    HW332187   2.308   4.021   4.740  1.7754 -0.6300  0.6917
 8105SOL    MW432188   2.286   3.972   4.809  0.0691 -0.3465  0.3969
 8106SOL     OW32189   2.099   0.957   0.760  0.1191 -0.2704  0.4689
 8106SOL    HW232190   2.143   0.969   0.844 -0.4681  0.4960  0.6745
 8106SOL    HW332191   2.051   1.038   0.746 -1.1975 -1.0641  0.2303
 8106SOL    MW432192   2.098   0.969   0.770 -0.1321 -0.2740  0.4645
 8107SOL     OW32193   0.136   5.116   1.745 -0.2539  0.3501 -0.0653
 8107SOL    HW232194   0.141   5.163   1.828  1.4383 -0.6572  0.4561
 8107SOL    HW332195   0.141   5.184   1.678  0.3413  1.0574  0.6753
 8107SOL    MW432196   0.138   5.131   1.747  0.0479  0.3105  0.1012
 8108SOL     OW32197   4.906   3.481   1.371  0.0029  0.2540  0.0932
 8108SOL    HW232198   4.951   3.408   1.413  1.2220  1.2819  0.6203
 8108SOL    HW332199   4.863   3.528   1.443 -0.2559  0.4219 -0.1657
 8108SOL    MW432200   4.906   3.477   1.386  0.1296  0.4117  0.1286
 8109SOL     OW32201   4.426   3.815   3.080 -0.2263 -0.1471 -0.0582
 8109SOL    HW232202   4.348   3.840   3.129  0.2680  0.5189  0.4129
 8109SOL    HW332203   4.491   3.793   3.147  0.8378  1.9286 -0.3235
 8109SOL    MW432204   4.424   3.816   3.095 -0.0207  0.2146 -0.0310
 8110SOL     OW32205   1.788   0.035   3.342 -0.1536  0.4336  0.0599
 8110SOL    HW232206   1.813   0.122   3.374  0.6703  0.5622 -0.9017
 8110SOL    HW332207   1.767  -0.014   3.422  0.9396  1.0297  0.7481
 8110SOL    MW432208   1.789   0.040   3.357  0.0993  0.5292  0.0239
 8111SOL     OW32209   0.397   1.970   5.098  0.5794  0.1681 -0.5653
 8111SOL    HW232210   0.429   1.913   5.027  2.6693  0.8553 -0.2362
 8111SOL    HW332211   0.443   1.939   5.176 -0.3782  0.5479  0.1606
 8111SOL    MW432212   0.408   1.958   5.099  0.7288  0.3089 -0.4261
 8112SOL     OW32213   0.967   4.580   0.980 -0.3319  0.5943  0.2562
 8112SOL    HW232214   1.056   4.600   0.949 -1.2135  1.2439 -2.0429
 8112SOL    HW332215   0.977   4.498   1.030  1.6319  0.9830  0.5924
 8112SOL    MW432216   0.980   4.572   0.983 -0.1891  0.7313 -0.0028
 8113SOL     OW32217   3.301   0.589   2.945 -0.1794 -0.1366  0.5254
 8113SOL    HW232218   3.265   0.670   2.908 -1.9621 -0.9692  0.3367
 8113SOL    HW332219   3.313   0.609   3.038  2.9558  1.4980 -0.0952
 8113SOL    MW432220   3.298   0.602   2.953 -0.0009 -0.0308  0.4186
 8114SOL     OW32221   3.212   6.144   3.873  1.1444  0.0334 -0.0642
 8114SOL    HW232222   3.141   6.154   3.811  1.4069  1.4165 -0.1669
 8114SOL    HW332223   3.290   6.132   3.819  0.7891 -4.1207 -0.0011
 8114SOL    MW432224   3.213   6.144   3.858  1.1322 -0.3322 -0.0695
 8115SOL     OW32225   0.381   3.485   0.443 -0.1133 -0.0995 -0.2146
 8115SOL    HW232226   0.384   3.573   0.480  1.1264 -0.6217  1.0329
 8115SOL    HW332227   0.305   3.444   0.484 -0.1893  0.1133 -0.1384
 8115SOL    MW432228   0.372   3.491   0.453  0.0403 -0.1403 -0.0400
 8116SOL     OW32229   4.068   4.440   2.022  0.1713  0.2913 -0.6030
 8116SOL    HW232230   4.077   4.352   1.986 -1.8295  0.6520 -2.1759
 8116SOL    HW332231   3.990   4.476   1.979 -1.0627  1.6367  2.4270
 8116SOL    MW432232   4.059   4.433   2.012 -0.2555  0.5164 -0.4108
 8117SOL     OW32233   1.571   0.685   5.357  0.3278 -0.1312  0.6233
 8117SOL    HW232234   1.636   0.750   5.331  0.8359  0.0904  2.2958
 8117SOL    HW332235   1.617   0.601   5.348  0.2547 -0.1260  0.1575
 8117SOL    MW432236   1.586   0.682   5.352  0.3852 -0.1013  0.7825
 8118SOL     OW32237   3.658   3.061   6.272  0.3232 -0.2697 -0.4583
 8118SOL    HW232238   3.614   3.144   6.291 -0.8879 -0.2333 -2.9844
 8118SOL    HW332239   3.748   3.074   6.303 -0.1075  1.5884  0.1447
 8118SOL    MW432240   3.664   3.074   6.279  0.1066 -0.0198 -0.7120
 8119SOL     OW32241   6.064   4.634   1.374  0.7005  0.0029 -0.3991
 8119SOL    HW232242   5.972   4.654   1.353  0.6310 -0.1564 -0.2487
 8119SOL    HW332243   6.081   4.553   1.325  0.8098  0.1195 -0.5549
 8119SOL    MW432244   6.054   4.626   1.365  0.7057 -0.0027 -0.3998
 8120SOL     OW32245   0.564   5.279   2.193 -0.2978  0.4310  0.5722
 8120SOL    HW232246   0.520   5.364   2.196 -0.3039  0.4022  1.3418
 8120SOL    HW332247   0.633   5.285   2.259  0.5156  0.2848 -0.2383
 8120SOL    MW432248   0.567   5.291   2.202 -0.1913  0.4079  0.5668
 8121SOL     OW32249   2.628   3.996   6.071  0.3812  0.0691  0.9590
 8121SOL    HW232250   2.716   4.013   6.106  1.4743  0.2767 -1.6598
 8121SOL    HW332251   2.616   3.902   6.083  1.4298 -0.1532  0.4251
 8121SOL    MW432252   2.638   3.986   6.078  0.6638  0.0671  0.5430
 8122SOL     OW32253   0.819   1.527   3.144  0.0557 -0.2690  0.6111
 8122SOL    HW232254   0.738   1.556   3.187 -0.9436 -1.7915 -0.1688
 8122SOL    HW332255   0.802   1.538   3.051  1.8280  2.0392  0.4641
 8122SOL    MW432256   0.806   1.533   3.137  0.1577 -0.1653  0.4888
 8123SOL     OW32257   3.146   5.425   3.209 -0.0018 -0.1875  0.2166
 8123SOL    HW232258   3.233   5.417   3.171 -0.0235 -0.8442  0.2945
 8123SOL    HW332259   3.089   5.448   3.136  0.2997  0.6560  0.2388
 8123SOL    MW432260   3.150   5.427   3.195  0.0351 -0.1628  0.2298
 8124SOL     OW32261   4.877   2.733   1.844  0.1849  0.9646  0.1398
 8124SOL    HW232262   4.818   2.731   1.919  0.6674 -0.4619  0.5126
 8124SOL    HW332263   4.933   2.656   1.855 -1.1284 -0.5773 -2.7946
 8124SOL    MW432264   4.877   2.722   1.855  0.0753  0.5729 -0.1982
 8125SOL     OW32265   0.130   5.649   5.568 -0.2742 -0.0237  0.3134
 8125SOL    HW232266   0.090   5.689   5.491  0.6184  1.1987  0.4608
 8125SOL    HW332267   0.099   5.702   5.642  0.8312  0.3731  0.5199
 8125SOL    MW432268   0.120   5.661   5.568 -0.0106  0.1900  0.3601
 8126SOL     OW32269   1.404   1.431   0.020  0.2790 -0.0517  0.2379
 8126SOL    HW232270   1.364   1.486  -0.047  0.7826 -0.3465 -0.3211
 8126SOL    HW332271   1.354   1.349   0.017 -0.5435  0.3974  1.1482
 8126SOL    MW432272   1.392   1.427   0.010  0.2370 -0.0313  0.2843
 8127SOL     OW32273   5.395   1.838   1.793 -0.1696  0.4306 -1.0946
 8127SOL    HW232274   5.396   1.802   1.882 -0.5147  0.2023 -1.1830
 8127SOL    HW332275   5.358   1.926   1.804 -0.2101  0.4037 -1.0112
 8127SOL    MW432276   5.390   1.845   1.806 -0.2205  0.3969 -1.0953
 8128SOL     OW32277   4.925   0.862   3.478  0.2995  0.3165  0.6687
 8128SOL    HW232278   4.879   0.940   3.446  0.1176 -0.0699 -0.0309
 8128SOL    HW332279   5.007   0.860   3.428  0.4612  0.2513  0.9361
 8128SOL    MW432280   4.930   0.872   3.467  0.2968  0.2569  0.6117
 8129SOL     OW32281   4.952   4.147   4.961 -0.4739 -0.1089 -0.4115
 8129SOL    HW232282   5.017   4.078   4.946 -1.0122 -0.7319  0.0803
 8129SOL    HW332283   4.978   4.187   5.044 -2.1588 -2.0948  1.1997
 8129SOL    MW432284   4.964   4.143   4.970 -0.7672 -0.4531 -0.1340
 8130SOL     OW32285   2.673   3.485   5.888 -0.0594 -0.1948 -0.2032
 8130SOL    HW232286   2.633   3.505   5.803 -2.0993  1.7965  1.1192
 8130SOL    HW332287   2.725   3.562   5.909  1.9854 -1.4402 -0.4072
 8130SOL    MW432288   2.675   3.498   5.880 -0.0587 -0.0964 -0.0556
 8131SOL     OW32289   1.667   3.498   2.197  0.4162  0.0775  0.2418
 8131SOL    HW232290   1.650   3.589   2.224 -0.8677  0.2007 -0.8829
 8131SOL    HW332291   1.592   3.449   2.231  0.2358 -0.2574 -0.6345
 8131SOL    MW432292   1.655   3.504   2.205  0.2230  0.0496 -0.0222
 8132SOL     OW32293   0.303   4.207   1.601  0.3373 -0.2275 -0.0962
 8132SOL    HW232294   0.398   4.214   1.611  0.3872 -0.3505 -0.4569
 8132SOL    HW332295   0.289   4.118   1.568  0.2448  0.3205 -1.6345
 8132SOL    MW432296   0.314   4.196   1.598  0.3317 -0.1714 -0.3467
 8133SOL     OW32297   4.307   2.917   6.241  0.4592 -0.3534  0.2039
 8133SOL    HW232298   4.283   2.999   6.199  1.9299 -0.7028 -1.4445
 8133SOL    HW332299   4.245   2.907   6.313 -0.2888  1.7543 -0.0924
 8133SOL    MW432300   4.296   2.926   6.245  0.5546 -0.1214 -0.0527
 8134SOL     OW32301   1.746   4.828   4.230  0.0357  0.5577  0.2552
 8134SOL    HW232302   1.685   4.764   4.268 -0.0942  1.4721  1.6719
 8134SOL    HW332303   1.830   4.783   4.229  0.2545  0.7769  2.5937
 8134SOL    MW432304   1.749   4.814   4.235  0.0474  0.7073  0.7506
 8135SOL     OW32305   0.038   5.766   5.813  0.9131 -0.3231  0.2125
 8135SOL    HW232306   0.046   5.767   5.908 -0.3824 -0.1759  0.3378
 8135SOL    HW332307  -0.040   5.818   5.795  0.1812 -1.7166 -0.8193
 8135SOL    MW432308   0.029   5.773   5.823  0.6456 -0.4875  0.0929
 8136SOL     OW32309   2.182   3.218   4.698 -0.0012  0.3831 -0.7882
 8136SOL    HW232310   2.182   3.289   4.633 -2.2558 -0.4421 -1.8084
 8136SOL    HW332311   2.242   3.152   4.661  2.6473  1.9166  0.4979
 8136SOL    MW432312   2.190   3.218   4.684  0.0507  0.4766 -0.7531
 8137SOL     OW32313   3.706   4.573   3.328 -0.2341 -0.4249 -0.1490
 8137SOL    HW232314   3.617   4.588   3.360 -0.4686  2.2992 -1.7385
 8137SOL    HW332315   3.762   4.580   3.405 -1.1975  0.4563  0.4816
 8137SOL    MW432316   3.702   4.576   3.342 -0.3922  0.0508 -0.2755
 8138SOL     OW32317   5.328   5.411   6.154 -0.4013 -0.1866 -0.2710
 8138SOL    HW232318   5.301   5.461   6.077  0.7082 -0.5366 -0.9027
 8138SOL    HW332319   5.406   5.455   6.186 -0.6369 -0.2699  0.4429
 8138SOL    MW432320   5.335   5.424   6.148 -0.2860 -0.2438 -0.2601
 8139SOL     OW32321   2.282   2.155   6.155  0.3235  0.4290 -0.3038
 8139SOL    HW232322   2.218   2.226   6.165 -0.2858 -0.2229  0.5632
 8139SOL    HW332323   2.365   2.193   6.185  0.0116  0.7867  0.1153
 8139SOL    MW432324   2.284   2.169   6.160  0.2020  0.3902 -0.1341
 8140SOL     OW32325   1.752   0.501   6.210  0.2230  0.3653  0.7103
 8140SOL    HW232326   1.712   0.573   6.258  3.6004  2.8881  0.1085
 8140SOL    HW332327   1.725   0.514   6.119 -0.5022 -0.1946  0.8329
 8140SOL    MW432328   1.743   0.512   6.204  0.5729  0.6243  0.6471
 8141SOL     OW32329   3.882   5.065   1.663  0.5713  0.0675  0.2667
 8141SOL    HW232330   3.951   5.124   1.693  1.9554 -1.3376 -0.0707
 8141SOL    HW332331   3.879   5.078   1.568  0.0993  0.3840  0.3189
 8141SOL    MW432332   3.890   5.074   1.655  0.6916 -0.0761  0.2291
 8142SOL     OW32333   4.253   5.347   4.168 -0.2722  0.0134 -0.6335
 8142SOL    HW232334   4.301   5.422   4.133 -0.6456  0.3739 -0.3728
 8142SOL    HW332335   4.174   5.341   4.114 -1.2637  1.0800  0.6434
 8142SOL    MW432336   4.249   5.356   4.156 -0.4523  0.2017 -0.4306
 8143SOL     OW32337   1.328   0.980   0.690 -0.3221  0.3579 -0.1866
 8143SOL    HW232338   1.266   1.021   0.751  0.8180 -1.5586  2.4276
 8143SOL    HW332339   1.414   1.011   0.719  0.2894 -1.0542 -0.4282
 8143SOL    MW432340   1.331   0.989   0.702 -0.0910 -0.0813  0.1265
 8144SOL     OW32341   5.729   1.417   5.955  0.0137 -0.0876  0.2288
 8144SOL    HW232342   5.643   1.394   5.920  0.0597  1.4514 -1.0109
 8144SOL    HW332343   5.710   1.481   6.024  0.1533  0.6468 -0.3934
 8144SOL    MW432344   5.715   1.422   5.959  0.0382  0.2123 -0.0169
 8145SOL     OW32345   2.062   5.096   1.890 -0.2072 -0.2242 -0.3975
 8145SOL    HW232346   2.153   5.109   1.865 -0.2775 -2.4689 -2.1819
 8145SOL    HW332347   2.067   5.051   1.975  0.1706  2.5531  1.1776
 8145SOL    MW432348   2.075   5.092   1.898 -0.1666 -0.1539 -0.4251
 8146SOL     OW32349   5.788   0.116   4.085  0.5580 -0.3148 -0.0862
 8146SOL    HW232350   5.709   0.084   4.130  0.4720 -1.4512 -1.0081
 8146SOL    HW332351   5.759   0.197   4.043 -0.0597 -0.6061 -0.2365
 8146SOL    MW432352   5.774   0.123   4.086  0.4651 -0.5032 -0.2277
 8147SOL     OW32353   3.540   5.987   4.344  0.3996  0.3092 -0.2802
 8147SOL    HW232354   3.630   6.009   4.369  0.0130  0.2492  1.3004
 8147SOL    HW332355   3.512   6.059   4.288  0.5580  1.7316  1.3961
 8147SOL    MW432356   3.548   5.999   4.340  0.3695  0.4889  0.1495
 8148SOL     OW32357   3.339   4.363   3.732 -0.2695  0.0169  0.1503
 8148SOL    HW232358   3.419   4.396   3.690 -0.1167 -0.0403  0.3935
 8148SOL    HW332359   3.367   4.283   3.777 -0.2398  0.5208  1.0571
 8148SOL    MW432360   3.353   4.357   3.732 -0.2454  0.0758  0.3021
 8149SOL     OW32361   2.919   4.683   3.604 -0.1651 -0.4261 -0.3303
 8149SOL    HW232362   2.951   4.762   3.648  0.5918 -0.2604 -1.1354
 8149SOL    HW332363   2.982   4.615   3.629 -0.4476 -0.6204 -0.1538
 8149SOL    MW432364   2.932   4.685   3.613 -0.1025 -0.4299 -0.4133
 8150SOL     OW32365   5.241   4.334   4.334 -0.1000 -0.0155 -0.6304
 8150SOL    HW232366   5.180   4.381   4.275 -0.7351 -1.6351 -1.3166
 8150SOL    HW332367   5.186   4.305   4.406  0.3376  0.4508 -0.1014
 8150SOL    MW432368   5.225   4.337   4.335 -0.1260 -0.1677 -0.6511
 8151SOL     OW32369   0.477   0.041   3.400 -0.3021  0.5759 -0.0902
 8151SOL    HW232370   0.548   0.004   3.452 -0.9272  0.0865  0.4327
 8151SOL    HW332371   0.404   0.049   3.462 -1.0996 -0.1241 -0.9239
 8151SOL    MW432372   0.477   0.037   3.415 -0.4898  0.4190 -0.1312
 8152SOL     OW32373   2.157   2.803   2.644  0.4016  0.2128 -0.1798
 8152SOL    HW232374   2.104   2.819   2.722  2.5476 -1.0765  1.6748
 8152SOL    HW332375   2.103   2.749   2.588 -0.6066 -0.2610  1.1989
 8152SOL    MW432376   2.143   2.798   2.647  0.5517 -0.0199  0.2468
 8153SOL     OW32377   5.608   0.702   4.306 -0.3055 -0.3309 -0.0689
 8153SOL    HW232378   5.680   0.647   4.275 -0.1146 -1.7136  2.4968
 8153SOL    HW332379   5.529   0.654   4.281 -0.1458 -2.8989  3.4670
 8153SOL    MW432380   5.607   0.688   4.299 -0.2592 -0.8522  0.7361
 8154SOL     OW32381   3.750   0.771   6.006 -0.3346  0.3113  0.3375
 8154SOL    HW232382   3.785   0.832   6.072  1.5624  0.0610 -0.3659
 8154SOL    HW332383   3.670   0.812   5.975 -0.8381  0.8420  2.1857
 8154SOL    MW432384   3.744   0.784   6.011 -0.1508  0.3483  0.4885
 8155SOL     OW32385   2.645   0.426   3.306 -0.5466  0.0082  0.0572
 8155SOL    HW232386   2.603   0.502   3.266 -2.2766 -0.6117  0.6246
 8155SOL    HW332387   2.602   0.416   3.391  0.6950 -0.7367  0.6425
 8155SOL    MW432388   2.634   0.435   3.312 -0.6110 -0.1719  0.2093
 8156SOL     OW32389   3.928   4.882   6.009  0.0947 -0.2428 -0.0693
 8156SOL    HW232390   3.940   4.840   5.924 -1.8271  0.9269 -0.9709
 8156SOL    HW332391   3.944   4.975   5.993  1.6693 -0.2180  1.3300
 8156SOL    MW432392   3.932   4.888   5.996  0.0489 -0.0852 -0.0036
 8157SOL     OW32393   5.012   2.148   0.799  0.4049  0.0338  0.4541
 8157SOL    HW232394   5.016   2.075   0.861 -0.7199  0.4836  1.0761
 8157SOL    HW332395   4.921   2.152   0.771  0.1995  1.8188  1.2089
 8157SOL    MW432396   5.001   2.139   0.803  0.2294  0.3286  0.6357
 8158SOL     OW32397   0.916   1.880   3.548  0.0717  0.0688  0.7044
 8158SOL    HW232398   0.998   1.855   3.505 -0.4272 -0.9399  0.3166
 8158SOL    HW332399   0.863   1.800   3.549 -2.3646  1.3892 -2.3121
 8158SOL    MW432400   0.920   1.866   3.542 -0.3156  0.1099  0.2553
 8159SOL     OW32401   4.654   5.642   5.178 -0.0416 -0.3309 -0.1179
 8159SOL    HW232402   4.621   5.684   5.099  1.3691  1.3483  0.1098
 8159SOL    HW332403   4.601   5.680   5.249 -0.9752 -1.4634 -0.1927
 8159SOL    MW432404   4.643   5.653   5.177  0.0214 -0.2588 -0.0977
 8160SOL     OW32405   2.113   3.553   5.019 -0.1056 -0.1154  0.6652
 8160SOL    HW232406   2.143   3.575   5.107 -0.3558 -0.1824  0.7683
 8160SOL    HW332407   2.106   3.637   4.974  3.1138 -0.2376 -0.3328
 8160SOL    MW432408   2.116   3.567   5.024  0.2861 -0.1404  0.5471
 8161SOL     OW32409   2.458   6.182   1.827  0.5557  0.3164  0.3531
 8161SOL    HW232410   2.526   6.250   1.830  0.8918 -0.0431  1.4384
 8161SOL    HW332411   2.389   6.221   1.774  1.2389  1.0448 -0.0311
 8161SOL    MW432412   2.458   6.196   1.821  0.6902  0.3650  0.4456
 8162SOL     OW32413   6.420   0.954   5.805  0.2738 -0.2524 -0.2372
 8162SOL    HW232414   6.445   1.046   5.795  3.4141 -0.7399  1.6758
 8162SOL    HW332415   6.384   0.949   5.894 -0.0019 -0.8731 -0.3776
 8162SOL    MW432416   6.418   0.966   5.816  0.6517 -0.3986 -0.0034
 8163SOL     OW32417   6.324   1.573   5.721  0.1909 -0.1219 -0.1692
 8163SOL    HW232418   6.320   1.499   5.782  1.2583  0.3006  0.4498
 8163SOL    HW332419   6.376   1.639   5.767  1.8282 -0.1356 -1.8703
 8163SOL    MW432420   6.331   1.572   5.735  0.5478 -0.0679 -0.3120
 8164SOL     OW32421   3.356   3.875   2.727  0.2464  0.2400 -0.4365
 8164SOL    HW232422   3.360   3.851   2.634 -0.8876  0.2388 -0.4992
 8164SOL    HW332423   3.316   3.800   2.770 -1.4753  1.1482 -0.3358
 8164SOL    MW432424   3.351   3.862   2.720 -0.1304  0.3597 -0.4315
 8165SOL     OW32425   2.592   2.202   5.721  0.3820 -0.5464 -1.0897
 8165SOL    HW232426   2.655   2.138   5.753  0.6193  1.4987  3.2322
 8165SOL    HW332427   2.638   2.247   5.649  1.9000 -2.2144 -1.2238
 8165SOL    MW432428   2.606   2.199   5.716  0.6136 -0.4966 -0.5371
 8166SOL     OW32429   5.791   0.500   5.423  0.8196  0.1693 -0.0016
 8166SOL    HW232430   5.773   0.429   5.485  0.5145 -0.6038 -0.9469
 8166SOL    HW332431   5.831   0.568   5.476 -1.2999  0.3804  1.4872
 8166SOL    MW432432   5.794   0.499   5.439  0.4997  0.0952  0.0701
 8167SOL     OW32433   5.150   0.619   4.113 -0.4396  0.1149  0.0121
 8167SOL    HW232434   5.138   0.641   4.205  0.2657  1.0381 -0.1031
 8167SOL    HW332435   5.166   0.703   4.070 -0.3622 -0.3513 -0.8849
 8167SOL    MW432436   5.151   0.633   4.119 -0.3364  0.1752 -0.1215
 8168SOL     OW32437   5.580   1.873   3.094 -0.3214  0.3698  0.5035
 8168SOL    HW232438   5.633   1.795   3.074  0.3937  0.1356  2.9241
 8168SOL    HW332439   5.644   1.944   3.096 -0.6113  0.6294  0.4189
 8168SOL    MW432440   5.596   1.872   3.091 -0.2653  0.3732  0.8117
 8169SOL     OW32441   0.839   2.745   2.162 -0.0857 -0.2205 -0.3304
 8169SOL    HW232442   0.769   2.709   2.216 -0.7513  0.2625 -0.8555
 8169SOL    HW332443   0.888   2.802   2.221  0.4313 -1.2514  0.2740
 8169SOL    MW432444   0.837   2.748   2.177 -0.1053 -0.2928 -0.3199
 8170SOL     OW32445   4.467   6.305   2.893  0.2850 -0.1127 -0.1089
 8170SOL    HW232446   4.462   6.275   2.803 -1.9316  0.6975 -0.3154
 8170SOL    HW332447   4.472   6.225   2.945  0.8235 -0.6112 -0.9153
 8170SOL    MW432448   4.467   6.291   2.888  0.0636 -0.0716 -0.2425
 8171SOL     OW32449   1.411   0.129   0.641  0.3318  0.1216  0.8353
 8171SOL    HW232450   1.444   0.168   0.560 -1.5282  0.3536  0.1304
 8171SOL    HW332451   1.452   0.179   0.711  3.5562 -1.3423  0.1848
 8171SOL    MW432452   1.421   0.141   0.640  0.5118 -0.0409  0.6565
 8172SOL     OW32453   6.380   5.992   0.219  0.1329  0.2268  0.3344
 8172SOL    HW232454   6.332   5.919   0.180  1.4450 -0.2680 -0.4445
 8172SOL    HW332455   6.386   5.970   0.311  0.1972 -0.4810  0.1679
 8172SOL    MW432456   6.375   5.980   0.226  0.3145  0.0681  0.2097
 8173SOL     OW32457   4.759   5.905   4.940  0.2481  0.0698 -0.9278
 8173SOL    HW232458   4.668   5.887   4.965  0.4221 -1.3635 -1.2453
 8173SOL    HW332459   4.752   5.946   4.854 -0.2126  2.7428  0.2556
 8173SOL    MW432460   4.746   5.908   4.932  0.2103  0.2334 -0.8136
 8174SOL     OW32461   2.289   0.865   4.365  0.6084  0.9604 -0.5769
 8174SOL    HW232462   2.348   0.852   4.440  1.1738 -2.1519 -1.4111
 8174SOL    HW332463   2.348   0.866   4.289 -0.2338 -1.6898 -1.3813
 8174SOL    MW432464   2.305   0.863   4.365  0.5718  0.2001 -0.7931
 8175SOL     OW32465   1.506   5.844   0.143  0.0168  0.0611 -0.6266
 8175SOL    HW232466   1.584   5.825   0.196 -0.0247  2.7468  0.6016
 8175SOL    HW332467   1.534   5.827   0.053  0.9410 -2.1528  0.0220
 8175SOL    MW432468   1.520   5.839   0.138  0.1333  0.1234 -0.3790
 8176SOL     OW32469   5.490   0.951   0.952  0.2876  0.6236  0.4733
 8176SOL    HW232470   5.418   0.931   1.011  0.7630 -1.9571  0.3309
 8176SOL    HW332471   5.519   0.865   0.920  2.2657  1.6945 -0.8450
 8176SOL    MW432472   5.485   0.937   0.955  0.6113  0.4244  0.2806
 8177SOL     OW32473   3.215   1.788   4.044 -0.1961 -0.5254 -0.5037
 8177SOL    HW232474   3.186   1.784   3.953  0.9798  0.5253 -0.9526
 8177SOL    HW332475   3.159   1.855   4.083  0.4371  0.2692 -0.9226
 8177SOL    MW432476   3.204   1.797   4.037  0.0426 -0.2820 -0.6182
 8178SOL     OW32477   0.761   0.858   4.117 -0.4078 -0.2355 -0.2126
 8178SOL    HW232478   0.749   0.805   4.196  0.9899  0.4009  0.4603
 8178SOL    HW332479   0.728   0.944   4.141  1.0837  0.2724  0.0961
 8178SOL    MW432480   0.755   0.862   4.131 -0.0266 -0.0845 -0.0831
 8179SOL     OW32481   4.431   1.321   2.210  0.3558 -0.0084  0.2494
 8179SOL    HW232482   4.486   1.364   2.275  1.6579  1.7676 -1.9013
 8179SOL    HW332483   4.427   1.230   2.238  2.6589  0.2438  1.6379
 8179SOL    MW432484   4.437   1.315   2.222  0.8315  0.2592  0.1489
 8180SOL     OW32485   6.089   3.599   4.812  0.5137  0.4155 -0.0972
 8180SOL    HW232486   6.032   3.603   4.736  0.3054  0.9945  0.0772
 8180SOL    HW332487   6.169   3.557   4.781 -0.9499 -2.9728  0.2819
 8180SOL    MW432488   6.092   3.594   4.798  0.2931  0.0449 -0.0242
 8181SOL     OW32489   3.096   1.461   4.637  0.1620  0.1261 -0.0017
 8181SOL    HW232490   3.169   1.500   4.684 -0.4205 -0.0015  1.0307
 8181SOL    HW332491   3.099   1.368   4.661  0.3893 -0.1179 -0.9265
 8181SOL    MW432492   3.106   1.454   4.646  0.1151  0.0771  0.0125
 8182SOL     OW32493   3.193   2.701   1.197  0.3534  0.2129 -0.2523
 8182SOL    HW232494   3.206   2.607   1.186  1.0510  0.2764 -0.0274
 8182SOL    HW332495   3.145   2.728   1.119 -0.5314 -0.4513  0.0368
 8182SOL    MW432496   3.188   2.692   1.186  0.3287  0.1336 -0.1845
 8183SOL     OW32497   3.654   6.239   6.124  0.3129  0.4137 -0.4896
 8183SOL    HW232498   3.692   6.212   6.208  0.5593  1.3023 -0.3074
 8183SOL    HW332499   3.693   6.180   6.060  0.6403  0.1630 -0.0639
 8183SOL    MW432500   3.664   6.228   6.127  0.3886  0.4978 -0.4094
 8184SOL     OW32501   4.563   5.299   4.665 -0.3673 -0.6543  0.0032
 8184SOL    HW232502   4.599   5.371   4.614 -0.3940  0.1237  1.0513
 8184SOL    HW332503   4.566   5.224   4.606  1.3767 -0.2286 -0.4976
 8184SOL    MW432504   4.568   5.299   4.651 -0.1407 -0.4955  0.0754
 8185SOL     OW32505   6.365   4.581   4.236 -0.2242 -0.2325 -0.0235
 8185SOL    HW232506   6.302   4.632   4.186 -0.0199 -0.9099 -1.0160
 8185SOL    HW332507   6.447   4.588   4.186  0.2202 -0.2212  0.6834
 8185SOL    MW432508   6.368   4.589   4.223 -0.1386 -0.3204 -0.0612
 8186SOL     OW32509   5.518   0.119   0.230  0.2629  0.4563 -0.1318
 8186SOL    HW232510   5.540   0.182   0.161  0.8723 -0.9664 -1.2756
 8186SOL    HW332511   5.434   0.083   0.203 -0.0425  0.6939  0.4784
 8186SOL    MW432512   5.510   0.123   0.218  0.3030  0.3000 -0.2022
 8187SOL     OW32513   4.001   3.915   5.452 -0.1242 -0.0020  0.1061
 8187SOL    HW232514   4.027   3.895   5.362 -2.3346 -2.8644 -0.0519
 8187SOL    HW332515   4.034   3.840   5.502  0.4718  1.2196  1.6068
 8187SOL    MW432516   4.009   3.902   5.447 -0.3372 -0.2185  0.2832
 8188SOL     OW32517   3.202   0.554   5.959 -0.2944  0.7282 -0.3239
 8188SOL    HW232518   3.182   0.621   6.024 -2.5375 -0.1964  0.0474
 8188SOL    HW332519   3.151   0.578   5.882 -1.5178 -0.7468 -0.0241
 8188SOL    MW432520   3.193   0.566   5.958 -0.7517  0.4116 -0.2354
 8189SOL     OW32521   0.114   2.066   2.145  0.4346  0.1235 -0.3139
 8189SOL    HW232522   0.084   2.145   2.100  1.7452  1.3895  0.9286
 8189SOL    HW332523   0.129   2.003   2.074 -0.8726  0.8771 -1.3125
 8189SOL    MW432524   0.112   2.068   2.130  0.4350  0.3899 -0.2817
 8190SOL     OW32525   4.394   6.308   5.733  0.0978  0.4590 -0.1496
 8190SOL    HW232526   4.364   6.336   5.820  0.9906 -0.0092  0.3210
 8190SOL    HW332527   4.342   6.230   5.714 -0.6606  1.0067 -0.3981
 8190SOL    MW432528   4.383   6.301   5.742  0.1155  0.4695 -0.1203
 8191SOL     OW32529   5.553   2.738   3.003 -0.1824 -0.4952 -0.5744
 8191SOL    HW232530   5.602   2.790   3.066 -0.0233 -1.7011  0.3296
 8191SOL    HW332531   5.470   2.718   3.047 -0.5206 -0.4454 -1.1736
 8191SOL    MW432532   5.549   2.742   3.017 -0.2060 -0.6477 -0.5342
 8192SOL     OW32533   5.185   6.080   1.484  0.4600  0.1234  0.4731
 8192SOL    HW232534   5.116   6.031   1.529  0.9724 -0.5741  0.5159
 8192SOL    HW332535   5.255   6.017   1.472  1.0702  0.8070  0.3729
 8192SOL    MW432536   5.185   6.065   1.489  0.6081  0.1216  0.4655
 8193SOL     OW32537   3.379   5.278   1.787 -0.1406  0.1229  0.2209
 8193SOL    HW232538   3.333   5.207   1.741 -0.2933 -0.3214  1.0491
 8193SOL    HW332539   3.465   5.242   1.807 -0.0908  0.3009  0.3265
 8193SOL    MW432540   3.384   5.264   1.783 -0.1542  0.0878  0.3441
 8194SOL     OW32541   5.930   1.199   3.468 -1.1496  0.0357 -0.3073
 8194SOL    HW232542   5.873   1.275   3.455  0.3748  1.2236 -0.2521
 8194SOL    HW332543   5.954   1.202   3.560  0.3485  0.5535 -0.6880
 8194SOL    MW432544   5.925   1.209   3.478 -0.7508  0.2607 -0.3503
 8195SOL     OW32545   3.709   5.073   4.462 -0.3568 -0.2404  0.0582
 8195SOL    HW232546   3.621   5.099   4.435 -0.1701 -0.5287 -0.8735
 8195SOL    HW332547   3.695   5.001   4.524 -0.8235  1.1511  1.6304
 8195SOL    MW432548   3.696   5.067   4.467 -0.3937 -0.0948  0.1427
 8196SOL     OW32549   1.489   0.924   2.304  0.1738  0.1883  0.2038
 8196SOL    HW232550   1.567   0.980   2.308  1.2100 -1.1997 -0.1171
 8196SOL    HW332551   1.480   0.902   2.212  0.4692 -1.1120  0.4729
 8196SOL    MW432552   1.498   0.929   2.292  0.3495 -0.1664  0.1970
 8197SOL     OW32553   2.259   3.322   4.933 -0.1334 -0.0519  0.4561
 8197SOL    HW232554   2.238   3.272   4.854  1.3675 -0.1084  0.0572
 8197SOL    HW332555   2.211   3.404   4.924 -0.6326 -0.4033 -0.1055
 8197SOL    MW432556   2.250   3.326   4.921 -0.0013 -0.1057  0.3294
 8198SOL     OW32557   6.106   1.782   4.341 -0.3117 -0.5387  0.2811
 8198SOL    HW232558   6.132   1.837   4.267 -0.7802  0.8451  1.0948
 8198SOL    HW332559   6.082   1.698   4.301 -1.4219  0.4420 -1.2611
 8198SOL    MW432560   6.106   1.778   4.326 -0.5200 -0.2267  0.1850
 8199SOL     OW32561   1.864   3.788   3.454  0.1491 -0.6686  0.3436
 8199SOL    HW232562   1.890   3.706   3.497  1.9261 -1.8750 -2.6750
 8199SOL    HW332563   1.795   3.762   3.393  0.3987  0.1354 -0.3062
 8199SOL    MW432564   1.858   3.774   3.452  0.4164 -0.7217 -0.1404
 8200SOL     OW32565   6.332   5.208   4.302 -0.3833  0.3642 -0.0609
 8200SOL    HW232566   6.297   5.142   4.363  1.6021 -0.5654  0.1680
 8200SOL    HW332567   6.410   5.242   4.347 -0.0395  1.1393 -1.2126
 8200SOL    MW432568   6.338   5.204   4.316 -0.0760  0.3438 -0.1827
 8201SOL     OW32569   3.469   2.784   2.560  0.4497  0.1904 -0.1448
 8201SOL    HW232570   3.390   2.731   2.554 -0.9259  2.1580 -0.4011
 8201SOL    HW332571   3.516   2.768   2.478 -1.6225  1.8182 -1.7591
 8201SOL    MW432572   3.465   2.775   2.549 -0.0052  0.6648 -0.3916
 8202SOL     OW32573   0.431   1.883   5.849 -0.2244  0.5098 -0.4644
 8202SOL    HW232574   0.512   1.931   5.865  0.2327 -0.6681  0.9873
 8202SOL    HW332575   0.376   1.902   5.925 -0.8796  0.3861 -0.8916
 8202SOL    MW432576   0.434   1.892   5.861 -0.2505  0.3381 -0.3293
 8203SOL     OW32577   6.328   4.502   5.147  0.3194  0.5607  0.4577
 8203SOL    HW232578   6.284   4.523   5.065  0.7617 -1.5767 -0.3975
 8203SOL    HW332579   6.258   4.479   5.207  0.0648 -3.1683 -0.9940
 8203SOL    MW432580   6.313   4.501   5.144  0.3441 -0.2133  0.1533
 8204SOL     OW32581   2.406   5.654   4.333 -0.3178 -0.2143  0.0080
 8204SOL    HW232582   2.342   5.709   4.379  0.0018 -2.1481  2.9942
 8204SOL    HW332583   2.409   5.573   4.383  3.3355 -0.8213 -0.8964
 8204SOL    MW432584   2.398   5.651   4.346  0.2064 -0.5495  0.2826
 8205SOL     OW32585   0.233   0.693   5.325 -0.3651  0.1690  0.1836
 8205SOL    HW232586   0.275   0.749   5.390  1.5290 -0.1524 -0.6901
 8205SOL    HW332587   0.271   0.722   5.241 -2.3959  0.2841 -0.7586
 8205SOL    MW432588   0.243   0.704   5.322 -0.3832  0.1418 -0.0560
 8206SOL     OW32589   3.124   0.712   4.423 -0.4571 -0.4023  0.6042
 8206SOL    HW232590   3.122   0.708   4.327  0.2877  1.8477  0.4286
 8206SOL    HW332591   3.204   0.667   4.448 -1.3277 -2.2009  0.3151
 8206SOL    MW432592   3.134   0.706   4.413 -0.4737 -0.3427  0.5429
 8207SOL     OW32593   1.819   2.029   2.215 -0.2597 -0.0939  0.1689
 8207SOL    HW232594   1.909   2.010   2.188  0.1861  0.8732  0.9161
 8207SOL    HW332595   1.778   2.067   2.137  0.1662  0.0177 -0.0027
 8207SOL    MW432596   1.825   2.032   2.201 -0.1447  0.0484  0.2449
 8208SOL     OW32597   6.092   0.778   0.833 -0.0424  0.0021  0.0075
 8208SOL    HW232598   6.002   0.807   0.822  0.3125  1.2557  0.2503
 8208SOL    HW332599   6.130   0.783   0.745 -0.4486 -1.4825 -0.2895
 8208SOL    MW432600   6.085   0.782   0.820 -0.0492 -0.0284  0.0004
 8209SOL     OW32601   1.090   4.599   4.068  0.1939 -0.5348 -0.2204
 8209SOL    HW232602   1.137   4.544   4.004  0.3436 -0.0163 -0.5637
 8209SOL    HW332603   1.032   4.538   4.113 -0.0724 -0.8786 -1.0055
 8209SOL    MW432604   1.089   4.583   4.065  0.1785 -0.5117 -0.3693
 8210SOL     OW32605   4.881   3.997   6.083 -0.7203 -0.1230 -0.2718
 8210SOL    HW232606   4.846   3.929   6.025 -1.6702  0.8528 -0.8869
 8210SOL    HW332607   4.805   4.028   6.133 -0.1259 -0.1426  0.6664
 8210SOL    MW432608   4.866   3.992   6.082 -0.7672  0.0032 -0.2292
 8211SOL     OW32609   0.332   3.917   6.090 -0.3333  0.0234 -0.5435
 8211SOL    HW232610   0.402   3.856   6.067 -0.0255  0.6493 -1.3158
 8211SOL    HW332611   0.293   3.880   6.169  0.4828 -0.6501 -0.4423
 8211SOL    MW432612   0.336   3.904   6.098 -0.1851  0.0171 -0.6320
 8212SOL     OW32613   4.794   3.765   5.942 -0.3977  0.2894 -0.2817
 8212SOL    HW232614   4.701   3.765   5.918 -1.1243  2.4782  2.1233
 8212SOL    HW332615   4.806   3.687   5.995 -1.2841  0.7558  0.6385
 8212SOL    MW432616   4.783   3.755   5.946 -0.6105  0.6397  0.1570
 8213SOL     OW32617   5.070   5.915   4.475 -0.7029  0.5077 -0.1204
 8213SOL    HW232618   5.131   5.875   4.537 -1.2530  1.2291  0.8981
 8213SOL    HW332619   5.033   5.840   4.428 -0.3764 -0.0590  0.5012
 8213SOL    MW432620   5.073   5.900   4.477 -0.7324  0.5281  0.0960
 8214SOL     OW32621   2.956   5.362   5.956 -0.4179 -0.6733  0.5534
 8214SOL    HW232622   2.896   5.430   5.923 -1.0582 -0.7515  1.5130
 8214SOL    HW332623   3.007   5.406   6.024 -1.1867 -1.2515  1.5389
 8214SOL    MW432624   2.954   5.377   5.961 -0.6038 -0.7599  0.8101
 8215SOL     OW32625   5.884   4.100   0.881  0.0181 -0.7157  0.2866
 8215SOL    HW232626   5.906   4.187   0.915 -0.1910 -0.3336 -0.5438
 8215SOL    HW332627   5.789   4.093   0.892 -0.0073 -0.7154  0.0731
 8215SOL    MW432628   5.874   4.110   0.887 -0.0129 -0.6652  0.1489
 8216SOL     OW32629   0.279   0.366   4.401  0.6249 -0.1267  0.3675
 8216SOL    HW232630   0.239   0.445   4.439 -0.8292 -0.3544 -0.6321
 8216SOL    HW332631   0.287   0.305   4.475  1.7744  0.9133  1.1581
 8216SOL    MW432632   0.275   0.369   4.416  0.5847 -0.0195  0.3399
 8217SOL     OW32633   1.384   3.002   5.502  0.1181  0.2355 -0.3450
 8217SOL    HW232634   1.417   2.922   5.543 -0.2901 -0.0231 -0.5162
 8217SOL    HW332635   1.290   2.988   5.495  0.1342  0.4530 -0.9931
 8217SOL    MW432636   1.376   2.989   5.507  0.0664  0.2301 -0.4531
 8218SOL     OW32637   4.524   4.812   0.709 -0.3967 -0.4083  0.9590
 8218SOL    HW232638   4.563   4.878   0.652 -1.6123 -0.1157  0.4361
 8218SOL    HW332639   4.584   4.738   0.703 -1.9270 -1.6141 -3.2292
 8218SOL    MW432640   4.537   4.811   0.700 -0.7590 -0.5288  0.3374
 8219SOL     OW32641   3.748   5.187   4.774 -0.1107 -0.1481 -0.2287
 8219SOL    HW232642   3.810   5.123   4.741 -0.1586 -0.3404  0.0460
 8219SOL    HW332643   3.797   5.270   4.776 -0.2256 -0.0574 -1.1231
 8219SOL    MW432644   3.763   5.190   4.770 -0.1322 -0.1615 -0.3104
 8220SOL     OW32645   4.401   4.553   1.760  0.5567  0.4513  0.2711
 8220SOL    HW232646   4.398   4.476   1.703  0.7223 -0.7715  1.8511
 8220SOL    HW332647   4.486   4.593   1.742  0.6929 -0.0309 -0.1805
 8220SOL    MW432648   4.411   4.548   1.750  0.5965  0.2264  0.4200
 8221SOL     OW32649   3.622   2.103   1.102 -0.3698  0.4917 -0.0086
 8221SOL    HW232650   3.576   2.184   1.079  0.6890  1.3908  0.8966
 8221SOL    HW332651   3.652   2.068   1.019 -1.7212  0.4736 -0.5065
 8221SOL    MW432652   3.620   2.109   1.088 -0.4084  0.6079  0.0452
 8222SOL     OW32653   0.513   4.617   5.186  0.0309 -0.0023 -0.3940
 8222SOL    HW232654   0.452   4.633   5.259  1.8414 -2.2191  1.7835
 8222SOL    HW332655   0.468   4.554   5.130 -0.5481  0.1060 -0.0639
 8222SOL    MW432656   0.499   4.611   5.188  0.1934 -0.2805 -0.0631
 8223SOL     OW32657   4.707   4.274   4.939  0.0663 -0.2455 -0.6525
 8223SOL    HW232658   4.726   4.341   4.874  2.2719  0.0884  0.2581
 8223SOL    HW332659   4.789   4.226   4.949 -0.3991 -0.7419  1.3408
 8223SOL    MW432660   4.721   4.276   4.932  0.2959 -0.2670 -0.2694
 8224SOL     OW32661   0.037   4.820   3.367  0.5377 -0.1712 -0.1465
 8224SOL    HW232662   0.044   4.902   3.319  3.0537  0.9365  1.8097
 8224SOL    HW332663  -0.052   4.818   3.400 -0.2587  0.5840 -2.1333
 8224SOL    MW432664   0.026   4.830   3.365  0.7646  0.0746 -0.1506
 8225SOL     OW32665   6.185   4.988   4.400  0.2944  0.5462  0.0526
 8225SOL    HW232666   6.164   5.004   4.492  0.2867 -0.3908  0.2231
 8225SOL    HW332667   6.233   4.905   4.400  0.7649  0.8093 -0.7323
 8225SOL    MW432668   6.188   4.979   4.412  0.3554  0.4573 -0.0284
 8226SOL     OW32669   5.397   5.807   2.443 -0.2608  0.3137 -0.4213
 8226SOL    HW232670   5.372   5.836   2.531 -0.9454 -0.9241 -0.1791
 8226SOL    HW332671   5.485   5.841   2.430 -1.2626  3.1496 -0.5049
 8226SOL    MW432672   5.405   5.815   2.453 -0.4833  0.5246 -0.4004
 8227SOL     OW32673   0.639   3.996   0.557 -0.3561  0.3156  0.0512
 8227SOL    HW232674   0.695   4.055   0.607 -0.9587 -0.9617  2.3910
 8227SOL    HW332675   0.691   3.971   0.481  0.7835  2.0268  0.2271
 8227SOL    MW432676   0.653   4.000   0.554 -0.2852  0.3728  0.3831
 8228SOL     OW32677   2.504   2.205   4.579  0.6550  0.2619 -0.3046
 8228SOL    HW232678   2.483   2.197   4.672  0.8310  0.2239 -0.2674
 8228SOL    HW332679   2.494   2.298   4.560  0.3816  0.2336 -0.3068
 8228SOL    MW432680   2.500   2.216   4.589  0.6422  0.2532 -0.3000
 8229SOL     OW32681   6.116   3.865   3.560 -0.7611  0.4011  0.0064
 8229SOL    HW232682   6.030   3.899   3.536 -0.9879 -1.2348 -1.8181
 8229SOL    HW332683   6.157   3.842   3.477  1.6232  1.4442  0.7988
 8229SOL    MW432684   6.110   3.866   3.546 -0.4765  0.3229 -0.1298
 8230SOL     OW32685   2.118   3.819   3.746  0.4118 -0.1145 -0.0043
 8230SOL    HW232686   2.079   3.740   3.709  0.0653  0.3095 -0.5531
 8230SOL    HW332687   2.114   3.883   3.676  0.2716  0.5295  0.5795
 8230SOL    MW432688   2.112   3.817   3.732  0.3476  0.0264  0.0003
 8231SOL     OW32689   1.651   4.236   5.881  0.5436 -0.0109 -0.4730
 8231SOL    HW232690   1.646   4.221   5.786  0.3505 -0.4796 -0.3919
 8231SOL    HW332691   1.562   4.256   5.907  0.4507 -0.6706 -0.2670
 8231SOL    MW432692   1.639   4.236   5.872  0.5059 -0.1598 -0.4351
 8232SOL     OW32693   5.767   4.607   1.753  0.4238 -0.6909 -0.1996
 8232SOL    HW232694   5.701   4.612   1.822  0.2847  0.7203 -0.4042
 8232SOL    HW332695   5.718   4.578   1.676  0.0757  0.0837 -0.2824
 8232SOL    MW432696   5.752   4.604   1.752  0.3595 -0.4025 -0.2375
 8233SOL     OW32697   2.173   1.697   3.896  0.5586  0.2817  0.8527
 8233SOL    HW232698   2.133   1.772   3.854 -0.0755  0.3477  1.5474
 8233SOL    HW332699   2.239   1.666   3.834  0.7847  1.3710  0.5383
 8233SOL    MW432700   2.176   1.703   3.882  0.5048  0.4342  0.9028
 8234SOL     OW32701   3.969   3.835   6.369 -0.1316 -0.0225 -0.1829
 8234SOL    HW232702   3.973   3.761   6.431 -2.4665 -2.8750 -3.0568
 8234SOL    HW332703   3.943   3.909   6.423  0.0921 -1.7798  2.5785
 8234SOL    MW432704   3.966   3.835   6.384 -0.4101 -0.6307 -0.1977
 8235SOL     OW32705   5.275   5.602   5.400  0.0260 -0.2826  0.2253
 8235SOL    HW232706   5.249   5.693   5.416  1.0610  0.2440 -0.9319
 8235SOL    HW332707   5.365   5.597   5.433 -0.0997 -0.9596  0.4847
 8235SOL    MW432708   5.283   5.613   5.407  0.1460 -0.3024  0.1068
 8236SOL     OW32709   6.017   5.472   5.575  0.2576 -0.0086  0.1888
 8236SOL    HW232710   6.101   5.474   5.621  1.2081  2.6381 -1.4210
 8236SOL    HW332711   6.014   5.385   5.533  1.4759 -0.6948  1.4580
 8236SOL    MW432712   6.028   5.461   5.575  0.5438  0.2500  0.1438
 8237SOL     OW32713   2.496   0.037   0.480 -0.3294 -0.0469  0.8007
 8237SOL    HW232714   2.402   0.056   0.480 -0.3672 -0.1916  0.1556
 8237SOL    HW332715   2.536   0.120   0.454 -0.2513  0.1247  1.4697
 8237SOL    MW432716   2.489   0.050   0.476 -0.3241 -0.0433  0.8038
 8238SOL     OW32717   6.415   1.437   6.249  0.5694  0.1334 -0.4116
 8238SOL    HW232718   6.384   1.525   6.269  0.1614  0.0789 -0.7745
 8238SOL    HW332719   6.341   1.396   6.204  1.3174  0.1429 -1.6862
 8238SOL    MW432720   6.401   1.443   6.246  0.6143  0.1275 -0.6276
 8239SOL     OW32721   4.042   3.764   4.429 -0.0527  0.6329 -0.0320
 8239SOL    HW232722   4.097   3.693   4.396 -0.9476 -0.3490  0.5018
 8239SOL    HW332723   4.103   3.831   4.457  0.8972 -0.4826  0.6720
 8239SOL    MW432724   4.057   3.763   4.428 -0.0455  0.3562  0.1313
 8240SOL     OW32725   5.596   5.613   3.449  0.2159  0.0070  0.3231
 8240SOL    HW232726   5.671   5.652   3.494  2.6484 -0.8614 -2.6385
 8240SOL    HW332727   5.530   5.683   3.448  1.6842  1.5001  1.3754
 8240SOL    MW432728   5.598   5.627   3.455  0.7305  0.0895  0.0712
 8241SOL     OW32729   6.337   4.448   4.478 -0.2313 -0.0813  0.2354
 8241SOL    HW232730   6.307   4.501   4.404  0.8236 -0.4038 -0.4516
 8241SOL    HW332731   6.430   4.435   4.462 -0.2408 -1.2229  0.9619
 8241SOL    MW432732   6.345   4.453   4.466 -0.0934 -0.2745  0.2407
 8242SOL     OW32733   0.340   2.500   2.159 -0.3227 -0.2122  0.5330
 8242SOL    HW232734   0.414   2.537   2.111 -0.9918  0.5312  0.0379
 8242SOL    HW332735   0.263   2.545   2.122 -0.9685 -0.5683  1.4091
 8242SOL    MW432736   0.339   2.511   2.148 -0.4962 -0.1611  0.5833
 8243SOL     OW32737   0.402   6.089   4.942  0.3610 -0.1466  0.2950
 8243SOL    HW232738   0.425   6.174   4.979  1.5381 -0.9242  1.4282
 8243SOL    HW332739   0.480   6.035   4.953  0.1682 -0.9612 -1.7837
 8243SOL    MW432740   0.415   6.093   4.948  0.4908 -0.3567  0.1703
 8244SOL     OW32741   1.311   6.223   6.080  0.4650  0.3614  0.1735
 8244SOL    HW232742   1.308   6.304   6.129  2.6204  0.8489 -0.4134
 8244SOL    HW332743   1.399   6.188   6.095  0.6924 -0.2157 -2.0987
 8244SOL    MW432744   1.322   6.229   6.088  0.7794  0.3495 -0.2037
 8245SOL     OW32745   1.506   4.488   3.602 -0.5176  0.1219  0.4427
 8245SOL    HW232746   1.569   4.560   3.592 -0.5424  0.0842 -0.0068
 8245SOL    HW332747   1.491   4.482   3.696 -0.6053  0.7812  0.4743
 8245SOL    MW432748   1.513   4.496   3.613 -0.5325  0.2039  0.3876
 8246SOL     OW32749   0.567   2.167   1.998 -0.0371  0.1685 -0.1376
 8246SOL    HW232750   0.621   2.095   2.029 -1.8944 -1.0520  0.4117
 8246SOL    HW332751   0.498   2.176   2.065 -1.4477  0.5651 -1.5881
 8246SOL    MW432752   0.565   2.159   2.011 -0.4682  0.0598 -0.2565
 8247SOL     OW32753   1.955   6.408   0.625  0.1831  0.7409 -0.5078
 8247SOL    HW232754   1.930   6.326   0.668 -0.5245  1.1453 -0.1205
 8247SOL    HW332755   1.931   6.396   0.534 -1.3389  1.0630 -0.1700
 8247SOL    MW432756   1.949   6.396   0.619 -0.1111  0.8367 -0.4121
 8248SOL     OW32757   1.400   1.106   5.462  0.0153 -0.0154  0.0374
 8248SOL    HW232758   1.446   1.033   5.502  1.3201  1.2902  1.0269
 8248SOL    HW332759   1.316   1.069   5.434  1.1316 -2.1759 -0.7091
 8248SOL    MW432760   1.395   1.092   5.463  0.3347 -0.1282  0.0694
 8249SOL     OW32761   3.601   5.603   6.161 -0.1491 -0.6947  0.2276
 8249SOL    HW232762   3.512   5.603   6.128  0.2583  1.9207 -1.1022
 8249SOL    HW332763   3.592   5.583   6.254 -2.3884  1.5646  0.6024
 8249SOL    MW432764   3.588   5.600   6.169 -0.3908 -0.0516  0.1016
 8250SOL     OW32765   1.074   4.187   4.792 -0.2546  0.4612  0.8956
 8250SOL    HW232766   1.009   4.228   4.849 -0.9407 -1.5789  1.6706
 8250SOL    HW332767   1.024   4.159   4.715  0.6752  3.2783 -0.8974
 8250SOL    MW432768   1.059   4.189   4.790 -0.2225  0.5637  0.7613
 8251SOL     OW32769   2.413   4.244   4.157  0.1458 -0.0419 -0.5707
 8251SOL    HW232770   2.347   4.266   4.223 -0.0016  1.3643 -1.1532
 8251SOL    HW332771   2.368   4.185   4.097  1.0015 -3.5361  1.8823
 8251SOL    MW432772   2.398   4.239   4.158  0.2393 -0.3174 -0.3239
 8252SOL     OW32773   2.814   2.934   5.281  0.3451  0.0256  0.2821
 8252SOL    HW232774   2.724   2.933   5.314  0.4876  1.9357  0.8783
 8252SOL    HW332775   2.863   2.983   5.347  1.7746 -0.7144 -0.1849
 8252SOL    MW432776   2.808   2.941   5.294  0.5525  0.1799  0.2992
 8253SOL     OW32777   2.962   3.689   0.699  0.4424 -0.0717  0.5267
 8253SOL    HW232778   3.050   3.656   0.683 -0.0102 -0.0336 -2.4301
 8253SOL    HW332779   2.964   3.780   0.669 -0.6440 -0.1306  0.2311
 8253SOL    MW432780   2.974   3.697   0.693  0.2394 -0.0745  0.0976
 8254SOL     OW32781   2.380   2.098   1.554 -0.0432  0.5084  0.2715
 8254SOL    HW232782   2.354   2.013   1.590  0.1629 -0.3946 -1.6094
 8254SOL    HW332783   2.459   2.079   1.502 -0.3734  1.7159 -0.7136
 8254SOL    MW432784   2.387   2.084   1.552 -0.0596  0.5486 -0.1066
 8255SOL     OW32785   3.060   0.709   4.865  0.3732  0.5213 -0.0840
 8255SOL    HW232786   3.093   0.791   4.828  0.3999  0.6926  0.3163
 8255SOL    HW332787   3.138   0.655   4.876  0.2063 -0.0817 -1.6127
 8255SOL    MW432788   3.075   0.713   4.861  0.3547  0.4644 -0.2329
 8256SOL     OW32789   4.429   1.397   3.686  0.1632  0.3094 -0.0117
 8256SOL    HW232790   4.375   1.326   3.651 -1.7707  1.3519  0.6905
 8256SOL    HW332791   4.495   1.413   3.619 -1.3509 -0.0037 -1.6573
 8256SOL    MW432792   4.431   1.390   3.673 -0.2917  0.4056 -0.1361
 8257SOL     OW32793   1.416   0.603   1.569 -0.5604 -0.5866  0.0382
 8257SOL    HW232794   1.438   0.644   1.652 -1.0148 -0.9376  0.3350
 8257SOL    HW332795   1.477   0.529   1.561 -0.4706 -0.5111  0.0225
 8257SOL    MW432796   1.427   0.598   1.579 -0.6085 -0.6229  0.0753
 8258SOL     OW32797   1.791   3.500   4.286  0.0571 -0.1374  0.5054
 8258SOL    HW232798   1.729   3.436   4.252  0.9565  1.3190 -4.7757
 8258SOL    HW332799   1.741   3.581   4.294  0.1131 -0.2133  1.7909
 8258SOL    MW432800   1.776   3.502   4.282  0.1832  0.0448 -0.0218
 8259SOL     OW32801   4.269   1.461   5.712 -0.5232  0.2100 -0.9966
 8259SOL    HW232802   4.226   1.398   5.654 -0.8053  0.0019 -0.5642
 8259SOL    HW332803   4.286   1.412   5.792  0.7321  0.2238 -1.2352
 8259SOL    MW432804   4.265   1.446   5.715 -0.3948  0.1843 -0.9711
 8260SOL     OW32805   0.760   0.724   3.701  0.1597 -0.4285  0.5542
 8260SOL    HW232806   0.732   0.815   3.701  0.7948 -0.2229  0.9228
 8260SOL    HW332807   0.825   0.719   3.631  0.0563 -0.6208  0.4706
 8260SOL    MW432808   0.765   0.735   3.692  0.2299 -0.4267  0.5918
 8261SOL     OW32809   5.866   1.649   5.810  0.0887 -0.8089  0.0466
 8261SOL    HW232810   5.820   1.568   5.836  0.5081 -1.6424 -1.6777
 8261SOL    HW332811   5.954   1.638   5.847 -0.2516 -0.4838  0.9888
 8261SOL    MW432812   5.872   1.637   5.819  0.0992 -0.8760 -0.0566
 8262SOL     OW32813   2.431   4.149   1.742  0.3320  0.2052 -0.0932
 8262SOL    HW232814   2.452   4.183   1.829 -0.3106  1.1092 -0.2704
 8262SOL    HW332815   2.433   4.227   1.685  1.3538 -0.4517 -1.0177
 8262SOL    MW432816   2.434   4.164   1.746  0.3820  0.2378 -0.2386
 8263SOL     OW32817   1.737   3.196   2.338  0.2401 -0.1904 -0.4484
 8263SOL    HW232818   1.718   3.260   2.269 -2.6761  1.0463  1.3159
 8263SOL    HW332819   1.767   3.248   2.412  1.2898 -1.2754 -0.0734
 8263SOL    MW432820   1.738   3.211   2.338 -0.0061 -0.1704 -0.1662
 8264SOL     OW32821   4.691   0.279   1.408  0.0652 -0.4964  0.2698
 8264SOL    HW232822   4.763   0.256   1.467 -0.4582 -1.5554  0.5062
 8264SOL    HW332823   4.717   0.242   1.323  0.2241 -0.0788  0.1344
 8264SOL    MW432824   4.704   0.271   1.404  0.0171 -0.5810  0.2831
 8265SOL     OW32825   0.533   4.152   4.439  0.2835  0.0004  0.3850
 8265SOL    HW232826   0.454   4.139   4.492  0.1023  0.2245  0.1757
 8265SOL    HW332827   0.600   4.100   4.482  0.3569  0.8247  1.3104
 8265SOL    MW432828   0.531   4.143   4.452  0.2693  0.1387  0.4795
 8266SOL     OW32829   2.098   0.843   3.825  0.1433 -0.8259 -0.6551
 8266SOL    HW232830   2.017   0.813   3.866 -0.5105  0.9730 -0.5386
 8266SOL    HW332831   2.140   0.897   3.892  0.3045  0.0744 -1.4549
 8266SOL    MW432832   2.093   0.846   3.839  0.0783 -0.4698 -0.7453
 8267SOL     OW32833   5.430   5.132   2.637  0.7432  0.8091 -0.3941
 8267SOL    HW232834   5.411   5.060   2.577 -2.1192  0.2537  1.0118
 8267SOL    HW332835   5.349   5.184   2.637  0.0493  0.0549  3.8367
 8267SOL    MW432836   5.417   5.130   2.629  0.2740  0.6363  0.3496
 8268SOL     OW32837   3.686   6.343   4.039  0.4572 -0.1194 -0.0285
 8268SOL    HW232838   3.689   6.352   3.944 -0.3360 -2.0539 -0.2674
 8268SOL    HW332839   3.741   6.267   4.059  1.7976  1.1078  1.2425
 8268SOL    MW432840   3.694   6.335   4.029  0.5294 -0.2127  0.1077
 8269SOL     OW32841   2.902   2.910   2.221  1.1185 -0.3010  0.6674
 8269SOL    HW232842   2.855   2.986   2.186 -0.3767 -1.0261  1.0019
 8269SOL    HW332843   2.994   2.932   2.211  0.7361  0.7383 -1.0385
 8269SOL    MW432844   2.908   2.923   2.215  0.8707 -0.2596  0.4864
 8270SOL     OW32845   1.242   4.470   3.838 -0.4270 -0.2873  0.1087
 8270SOL    HW232846   1.298   4.548   3.842  0.0869 -0.7011  1.6482
 8270SOL    HW332847   1.222   4.460   3.745  0.3932  1.0441 -0.2446
 8270SOL    MW432848   1.247   4.479   3.826 -0.2510 -0.1662  0.2652
 8271SOL     OW32849   0.596   1.440   4.250  0.0192 -0.3250  0.1797
 8271SOL    HW232850   0.589   1.493   4.171 -0.9588 -0.5405  0.1131
 8271SOL    HW332851   0.623   1.502   4.318  0.2156 -0.0129 -0.1771
 8271SOL    MW432852   0.599   1.455   4.249 -0.0839 -0.3123  0.1238
 8272SOL     OW32853   1.375   2.739   2.687  0.5776  0.3024  0.3726
 8272SOL    HW232854   1.427   2.709   2.762  0.5535  0.2336  0.3618
 8272SOL    HW332855   1.388   2.672   2.620 -0.3114 -0.2189  0.7134
 8272SOL    MW432856   1.384   2.726   2.688  0.4571  0.2245  0.4162
 8273SOL     OW32857   1.536   0.893   2.026  0.1652  1.0147  0.1577
 8273SOL    HW232858   1.499   0.832   1.962 -1.8030  2.6794 -0.4063
 8273SOL    HW332859   1.618   0.852   2.053 -1.1088 -1.9569 -0.0413
 8273SOL    MW432860   1.542   0.880   2.021 -0.2626  0.8422  0.0570
 8274SOL     OW32861   2.938   4.378   1.369  0.1087 -0.2786  0.3343
 8274SOL    HW232862   2.938   4.400   1.276  0.8409 -1.4147  0.0443
 8274SOL    HW332863   3.018   4.326   1.381 -0.0918 -0.3328  1.5493
 8274SOL    MW432864   2.949   4.374   1.358  0.1789 -0.4356  0.4564
 8275SOL     OW32865   2.233   1.406   5.761  0.1638 -0.2308  0.7308
 8275SOL    HW232866   2.169   1.335   5.770 -0.6789  0.4402  0.2150
 8275SOL    HW332867   2.180   1.486   5.759  1.1529  0.4956  2.2106
 8275SOL    MW432868   2.217   1.407   5.762  0.1831 -0.0464  0.8580
 8276SOL     OW32869   6.010   2.778   2.179 -0.1317  0.4088  0.2515
 8276SOL    HW232870   6.083   2.835   2.204 -1.1545  1.2327  1.4806
 8276SOL    HW332871   5.956   2.831   2.121  0.4608 -0.3709 -1.0779
 8276SOL    MW432872   6.013   2.792   2.175 -0.1885  0.4147  0.2383
 8277SOL     OW32873   6.009   0.745   6.412  0.0907 -0.1017 -0.0007
 8277SOL    HW232874   5.943   0.803   6.449  1.3258  0.0977  2.0483
 8277SOL    HW332875   5.967   0.659   6.412 -0.9726  0.3778 -1.0027
 8277SOL    MW432876   5.995   0.741   6.417  0.1134 -0.0121  0.1375
 8278SOL     OW32877   4.502   3.955   0.038 -0.3396 -0.3288  0.2765
 8278SOL    HW232878   4.429   3.928   0.092 -0.4427 -0.7542 -0.0662
 8278SOL    HW332879   4.530   3.875  -0.007  0.5128 -0.2347  0.6112
 8278SOL    MW432880   4.496   3.941   0.039 -0.2408 -0.3725  0.2755
 8279SOL     OW32881   2.634   4.823   3.319 -0.2740 -0.2941 -0.4135
 8279SOL    HW232882   2.700   4.759   3.347 -1.8399 -1.4111  0.8667
 8279SOL    HW332883   2.628   4.811   3.225  0.2401 -1.2687 -0.3342
 8279SOL    MW432884   2.642   4.813   3.310 -0.4128 -0.5700 -0.2341
 8280SOL     OW32885   0.039   2.533   1.975 -0.0448 -0.6099 -0.1237
 8280SOL    HW232886   0.039   2.602   1.909 -2.5430 -0.2155  0.2183
 8280SOL    HW332887  -0.037   2.551   2.030  1.1931 -1.6681  2.1238
 8280SOL    MW432888   0.029   2.544   1.974 -0.2111 -0.6975  0.2180
 8281SOL     OW32889   5.645   0.069   2.606 -0.1706 -0.0111  0.1807
 8281SOL    HW232890   5.550   0.067   2.612 -0.2190 -2.8795 -0.2781
 8281SOL    HW332891   5.674   0.070   2.697 -0.6588 -0.6300  0.3500
 8281SOL    MW432892   5.636   0.069   2.619 -0.2414 -0.4712  0.1425
 8282SOL     OW32893   1.837   3.181   2.840  0.1192 -0.0726 -0.0858
 8282SOL    HW232894   1.891   3.103   2.830  0.5865  0.2316  0.0644
 8282SOL    HW332895   1.753   3.157   2.799  0.4331 -0.4702 -0.5073
 8282SOL    MW432896   1.833   3.168   2.833  0.2223 -0.0850 -0.1216
 8283SOL     OW32897   2.482   0.043   4.800 -1.4456 -0.0870  0.2834
 8283SOL    HW232898   2.533   0.112   4.759 -1.1035 -2.3587 -3.5472
 8283SOL    HW332899   2.391   0.074   4.794 -1.1600  0.8154  0.4013
 8283SOL    MW432900   2.476   0.056   4.794 -1.3628 -0.2677 -0.2064
 8284SOL     OW32901   4.700   4.214   3.521  0.6693  0.5666 -0.1262
 8284SOL    HW232902   4.692   4.308   3.504 -0.9459  0.5739  0.5649
 8284SOL    HW332903   4.632   4.174   3.467  2.2982 -0.3935 -1.5797
 8284SOL    MW432904   4.690   4.221   3.512  0.6711  0.4409 -0.2268
 8285SOL     OW32905   5.398   2.589   3.369 -0.2111 -0.0325  0.1520
 8285SOL    HW232906   5.364   2.506   3.401 -1.4980  0.1917 -0.5411
 8285SOL    HW332907   5.340   2.611   3.296  1.3031  0.5203 -0.9181
 8285SOL    MW432908   5.386   2.581   3.364 -0.1811  0.0700 -0.0807
 8286SOL     OW32909   1.345   0.234   1.091  0.5420 -0.3674 -0.1869
 8286SOL    HW232910   1.317   0.316   1.131  1.5008 -1.0064  1.9433
 8286SOL    HW332911   1.392   0.260   1.012  0.4644  1.1083  0.2309
 8286SOL    MW432912   1.348   0.248   1.086  0.6583 -0.2570  0.1493
 8287SOL     OW32913   0.765   1.194   0.094 -0.0030 -0.1609  0.5451
 8287SOL    HW232914   0.831   1.218   0.030 -0.6437  1.7426  0.5150
 8287SOL    HW332915   0.708   1.271   0.099 -0.0553 -0.2819  3.2908
 8287SOL    MW432916   0.766   1.207   0.086 -0.0944  0.0742  0.9034
 8288SOL     OW32917   3.076   1.691   6.230  0.4145  0.3272 -0.2790
 8288SOL    HW232918   3.060   1.783   6.207 -0.5696  0.0418 -0.8261
 8288SOL    HW332919   3.072   1.645   6.146 -1.5041 -0.5223  0.2335
 8288SOL    MW432920   3.073   1.697   6.216  0.0316  0.1775 -0.2836
 8289SOL     OW32921   4.896   3.185   2.516  0.2141  0.0593  0.5887
 8289SOL    HW232922   4.864   3.118   2.576 -0.0043  0.5099  0.9852
 8289SOL    HW332923   4.991   3.183   2.526  0.5962 -2.6890 -2.0739
 8289SOL    MW432924   4.904   3.176   2.525  0.2357 -0.2438  0.2897
 8290SOL     OW32925   3.595   1.082   1.349  0.4555  0.7524 -0.0672
 8290SOL    HW232926   3.634   1.079   1.261  0.8470  1.1208  0.0912
 8290SOL    HW332927   3.660   1.128   1.402  1.5984 -1.9555  1.0989
 8290SOL    MW432928   3.609   1.088   1.344  0.6579  0.4437  0.1076
 8291SOL     OW32929   5.482   5.354   5.439 -0.1287 -0.1273 -0.1592
 8291SOL    HW232930   5.408   5.293   5.432  1.7981 -2.4310 -2.3836
 8291SOL    HW332931   5.534   5.321   5.512  0.8982 -1.2566 -1.3435
 8291SOL    MW432932   5.479   5.342   5.448  0.2610 -0.5803 -0.6089
 8292SOL     OW32933   2.345   4.973   2.792  0.2719  0.2729 -0.3737
 8292SOL    HW232934   2.311   5.005   2.708  2.0365 -0.5921 -1.4685
 8292SOL    HW332935   2.328   4.879   2.789  0.4056  0.2312  0.2210
 8292SOL    MW432936   2.338   4.965   2.780  0.5224  0.1533 -0.4397
 8293SOL     OW32937   0.782   1.003   3.696  0.1979 -0.1420  0.4590
 8293SOL    HW232938   0.764   1.070   3.762  0.5424  1.5741 -1.0850
 8293SOL    HW332939   0.871   0.973   3.716 -0.1819 -0.5944  1.5208
 8293SOL    MW432940   0.791   1.008   3.707  0.1933  0.0248  0.3954
 8294SOL     OW32941   2.982   2.727   3.926  0.7161  0.5561 -0.2253
 8294SOL    HW232942   2.914   2.738   3.993  0.3279 -1.1060 -0.2875
 8294SOL    HW332943   2.986   2.811   3.882 -1.6008  0.6008 -0.4766
 8294SOL    MW432944   2.973   2.739   3.929  0.3592  0.3427 -0.2667
 8295SOL     OW32945   6.068   0.493   0.186  0.2074  0.9217  0.4676
 8295SOL    HW232946   6.148   0.543   0.170 -0.0553  1.2382  0.1419
 8295SOL    HW332947   6.003   0.559   0.210 -0.8512  1.0825 -2.4884
 8295SOL    MW432948   6.070   0.508   0.187  0.0331  0.9847  0.0346
 8296SOL     OW32949   3.421   3.716   2.168  0.3446  0.1389 -0.7071
 8296SOL    HW232950   3.411   3.784   2.102 -0.5029  1.3072  0.5607
 8296SOL    HW332951   3.341   3.664   2.162  0.2790  0.2300 -0.6356
 8296SOL    MW432952   3.409   3.718   2.159  0.2241  0.3051 -0.5304
 8297SOL     OW32953   3.674   1.329   4.602 -0.1596  0.0571 -0.0829
 8297SOL    HW232954   3.764   1.350   4.577 -0.7593  2.6474 -0.3686
 8297SOL    HW332955   3.636   1.288   4.524  0.1898  0.8736 -0.6886
 8297SOL    MW432956   3.681   1.326   4.589 -0.1926  0.5066 -0.2005
 8298SOL     OW32957   0.167   3.525   3.027 -0.9699  0.3951  0.2871
 8298SOL    HW232958   0.239   3.533   2.964 -0.5870 -0.0266  0.6696
 8298SOL    HW332959   0.101   3.473   2.981 -1.0167  0.7454 -0.0486
 8298SOL    MW432960   0.168   3.519   3.013 -0.9256  0.3856  0.2932
 8299SOL     OW32961   5.531   1.337   0.674 -0.1763 -0.3984 -0.1330
 8299SOL    HW232962   5.485   1.394   0.735  1.4584  1.4597 -0.5272
 8299SOL    HW332963   5.623   1.356   0.688  0.3610 -1.8529 -1.3728
 8299SOL    MW432964   5.537   1.347   0.684  0.1103 -0.3452 -0.3486
 8300SOL     OW32965   1.079   5.971   6.376 -0.4122 -0.2465  0.1476
 8300SOL    HW232966   1.096   6.050   6.428  0.4748  1.3436 -2.3783
 8300SOL    HW332967   1.166   5.939   6.352 -0.7958 -1.2710  0.0904
 8300SOL    MW432968   1.092   5.977   6.380 -0.3458 -0.1719 -0.1932
 8301SOL     OW32969   5.907   6.212   3.533 -0.3670  0.1056 -0.1661
 8301SOL    HW232970   5.973   6.255   3.588 -0.6547  0.1228  0.1774
 8301SOL    HW332971   5.913   6.257   3.449  0.0006  0.1640 -0.1102
 8301SOL    MW432972   5.917   6.224   3.529 -0.3565  0.1155 -0.1134
 8302SOL     OW32973   3.049   4.309   6.143  0.0316 -0.6445  0.6122
 8302SOL    HW232974   3.045   4.361   6.223  0.1214  0.5277 -0.1279
 8302SOL    HW332975   3.045   4.373   6.072 -1.2700 -1.7425 -0.3523
 8302SOL    MW432976   3.048   4.324   6.144 -0.1283 -0.6347  0.3873
 8303SOL     OW32977   2.775   6.280   4.157  0.3651  0.1024 -0.3119
 8303SOL    HW232978   2.862   6.313   4.178  0.8226 -0.7015 -0.8631
 8303SOL    HW332979   2.789   6.187   4.138 -0.2479  0.4108 -2.5483
 8303SOL    MW432980   2.789   6.272   4.157  0.3446  0.0370 -0.6797
 8304SOL     OW32981   5.153   5.337   1.081  0.9817 -0.4857  0.6154
 8304SOL    HW232982   5.243   5.307   1.078  0.3014 -2.8119  1.5527
 8304SOL    HW332983   5.121   5.311   1.167 -0.6079  0.2732  0.3116
 8304SOL    MW432984   5.160   5.330   1.092  0.6822 -0.6925  0.6990
 8305SOL     OW32985   3.069   4.851   1.913 -0.2635  0.0003  0.0254
 8305SOL    HW232986   2.995   4.804   1.951  0.4140 -0.7054  0.5070
 8305SOL    HW332987   3.111   4.894   1.988 -0.2807  0.5351 -0.2661
 8305SOL    MW432988   3.065   4.851   1.928 -0.1763 -0.0223  0.0505
 8306SOL     OW32989   4.215   6.295   3.259  0.3607 -0.0398 -1.4341
 8306SOL    HW232990   4.161   6.296   3.339  1.9284  1.5827 -0.3081
 8306SOL    HW332991   4.154   6.271   3.189 -1.4868  0.2969 -0.0158
 8306SOL    MW432992   4.200   6.292   3.260  0.3238  0.2187 -1.0984
 8307SOL     OW32993   5.339   2.820   6.363  0.2394  0.2304 -0.2325
 8307SOL    HW232994   5.312   2.777   6.444 -0.4259 -0.3223 -0.7366
 8307SOL    HW332995   5.276   2.892   6.352 -1.7393 -1.6287 -1.9039
 8307SOL    MW432996   5.327   2.824   6.372 -0.1095 -0.0878 -0.5196
 8308SOL     OW32997   0.662   6.040   2.315 -0.2699  0.4432  0.6813
 8308SOL    HW232998   0.723   6.043   2.389  0.8913 -0.7866 -0.1783
 8308SOL    HW332999   0.617   5.956   2.324 -1.6010  1.1683  1.0856
 8308SOL    MW433000   0.664   6.030   2.326 -0.2923  0.3766  0.6212
 8309SOL     OW33001   2.304   0.340   3.876 -1.2829  0.6145  0.3500
 8309SOL    HW233002   2.208   0.339   3.874 -1.3059  2.1193 -1.2032
 8309SOL    HW333003   2.325   0.375   3.963 -2.0457 -1.4736  1.4655
 8309SOL    MW433004   2.294   0.345   3.887 -1.3866  0.5375  0.2923
 8310SOL     OW33005   4.859   3.495   0.691 -0.2461  0.5591  0.1821
 8310SOL    HW233006   4.791   3.428   0.682 -0.1286  0.5162 -0.4201
 8310SOL    HW333007   4.934   3.459   0.643 -0.1534  1.0873 -0.0706
 8310SOL    MW433008   4.860   3.481   0.684 -0.2184  0.6231  0.0693
 8311SOL     OW33009   0.085   2.410   2.846 -0.1573  0.4336  0.0556
 8311SOL    HW233010   0.127   2.493   2.824 -1.1530  1.2513  1.1334
 8311SOL    HW333011  -0.003   2.434   2.876 -0.5180 -1.0218  0.2679
 8311SOL    MW433012   0.079   2.424   2.847 -0.3362  0.3495  0.2258
 8312SOL     OW33013   4.033   0.005   1.179  0.3188 -0.1601  0.0301
 8312SOL    HW233014   4.076   0.074   1.229  2.1537 -0.2443 -1.3313
 8312SOL    HW333015   3.974  -0.036   1.242  1.5375  0.6013  1.7650
 8312SOL    MW433016   4.031   0.008   1.194  0.7217 -0.0707  0.0794
 8313SOL     OW33017   0.073   2.496   4.634 -0.5766  0.4653  0.0152
 8313SOL    HW233018   0.096   2.403   4.633 -0.6800  0.4232  0.8513
 8313SOL    HW333019  -0.021   2.497   4.653 -0.4735  0.7436  0.5469
 8313SOL    MW433020   0.064   2.484   4.637 -0.5766  0.4965  0.1957
 8314SOL     OW33021   0.475   1.186   4.367 -0.3855 -0.1346  0.2124
 8314SOL    HW233022   0.495   1.255   4.303  2.0296 -2.3670 -1.6812
 8314SOL    HW333023   0.385   1.203   4.393 -0.5635  2.5111 -1.7063
 8314SOL    MW433024   0.466   1.197   4.362 -0.0903 -0.0800 -0.2906
 8315SOL     OW33025   3.053   4.028   5.741 -0.0597  0.0717 -0.4226
 8315SOL    HW233026   3.114   4.039   5.814 -0.1759  1.1700 -0.4619
 8315SOL    HW333027   2.972   3.999   5.781  0.4022 -1.1695 -0.3416
 8315SOL    MW433028   3.051   4.026   5.756 -0.0141  0.0528 -0.4171
 8316SOL     OW33029   6.278   6.080   3.110 -0.5416 -0.2080  0.3386
 8316SOL    HW233030   6.226   6.073   3.190 -0.0632 -1.2566  0.5745
 8316SOL    HW333031   6.358   6.126   3.138 -0.9759  0.6814  0.1488
 8316SOL    MW433032   6.282   6.086   3.125 -0.5358 -0.2290  0.3447
 8317SOL     OW33033   4.783   5.465   5.724  0.3837 -0.1648  0.1046
 8317SOL    HW233034   4.729   5.495   5.651  1.2807 -0.0398 -0.5230
 8317SOL    HW333035   4.743   5.504   5.802 -1.2871 -1.2506 -0.1676
 8317SOL    MW433036   4.771   5.474   5.725  0.2816 -0.2915 -0.0141
 8318SOL     OW33037   0.840   3.258   3.914 -0.2232  0.3801 -0.1887
 8318SOL    HW233038   0.789   3.337   3.897 -1.3016 -0.2395  0.0698
 8318SOL    HW333039   0.830   3.242   4.007 -0.6464 -0.4738 -0.3676
 8318SOL    MW433040   0.832   3.266   3.924 -0.4213  0.1857 -0.1782
 8319SOL     OW33041   5.322   0.032   1.363  0.4893  0.3068 -0.2165
 8319SOL    HW233042   5.233   0.011   1.334  1.1225 -1.4894 -1.0531
 8319SOL    HW333043   5.339  -0.029   1.435  1.3962 -0.1446 -0.7847
 8319SOL    MW433044   5.313   0.021   1.368  0.6925  0.0102 -0.4018
 8320SOL     OW33045   4.144   0.561   6.325 -0.6116 -0.0304 -0.7674
 8320SOL    HW233046   4.153   0.495   6.393  2.0629  2.2800  1.3691
 8320SOL    HW333047   4.158   0.514   6.243  2.4685 -2.0149  0.7241
 8320SOL    MW433048   4.147   0.546   6.323  0.1476  0.0126 -0.2887
 8321SOL     OW33049   0.426   5.237   1.593 -0.1916  0.0456  0.1234
 8321SOL    HW233050   0.336   5.258   1.566 -1.2013  0.3955  3.4036
 8321SOL    HW333051   0.426   5.142   1.605  0.9156 -0.4718 -2.9010
 8321SOL    MW433052   0.414   5.228   1.591 -0.1788  0.0235  0.1571
 8322SOL     OW33053   3.501   5.068   1.269  0.0766  0.0168  0.2890
 8322SOL    HW233054   3.559   5.013   1.322 -2.1787 -0.7982  2.0703
 8322SOL    HW333055   3.529   5.052   1.179  0.5266 -2.9235  0.8342
 8322SOL    MW433056   3.512   5.058   1.264 -0.1616 -0.4787  0.5960
 8323SOL     OW33057   3.916   3.034   2.585  0.3110 -0.0407  0.3304
 8323SOL    HW233058   3.868   2.952   2.570  1.2207 -0.6340  0.5439
 8323SOL    HW333059   3.998   3.006   2.626 -0.2130  1.1412  2.3120
 8323SOL    MW433060   3.920   3.019   2.589  0.3619  0.0370  0.6200
 8324SOL     OW33061   3.793   2.479   0.346 -0.2236  0.0463  0.0401
 8324SOL    HW233062   3.810   2.396   0.389  0.1453  0.9429  1.7058
 8324SOL    HW333063   3.878   2.522   0.339 -0.1576 -0.3347 -2.2522
 8324SOL    MW433064   3.806   2.474   0.350 -0.1662  0.1143 -0.0426
 8325SOL     OW33065   6.102   3.322   0.953 -0.3904  0.1497  0.3546
 8325SOL    HW233066   6.143   3.409   0.953 -0.3534  0.1443  1.5188
 8325SOL    HW333067   6.112   3.291   1.043  0.4892 -1.4905 -0.2670
 8325SOL    MW433068   6.109   3.329   0.965 -0.2695 -0.0674  0.4262
 8326SOL     OW33069   4.232   5.873   0.850  0.4750 -0.0861 -0.0202
 8326SOL    HW233070   4.299   5.846   0.912 -0.2341 -2.4438 -0.2011
 8326SOL    HW333071   4.156   5.818   0.870 -0.6961  0.9832 -1.2377
 8326SOL    MW433072   4.231   5.862   0.861  0.2269 -0.2561 -0.2047
 8327SOL     OW33073   4.105   2.779   2.233  0.3344 -0.2394  0.1476
 8327SOL    HW233074   4.149   2.864   2.239 -1.0344  0.4850  0.3972
 8327SOL    HW333075   4.132   2.733   2.312  0.4994  0.2680  0.3967
 8327SOL    MW433076   4.114   2.784   2.244  0.1756 -0.0769  0.2134
 8328SOL     OW33077   3.319   0.898   0.065 -0.3455 -0.1203  0.4486
 8328SOL    HW233078   3.244   0.935   0.018  0.6809 -1.3182 -2.3317
 8328SOL    HW333079   3.359   0.973   0.108 -1.7871  0.9285  0.0449
 8328SOL    MW433080   3.314   0.913   0.064 -0.4003 -0.1400  0.0285
 8329SOL     OW33081   0.700   5.818   5.440 -0.8491  0.3356 -0.1233
 8329SOL    HW233082   0.718   5.724   5.431 -0.5023  0.2065  1.6264
 8329SOL    HW333083   0.740   5.857   5.363  0.9424 -0.7323  0.2050
 8329SOL    MW433084   0.708   5.811   5.429 -0.5670  0.1777  0.1509
 8330SOL     OW33085   1.904   3.858   3.091 -0.7069 -0.4222  0.1267
 8330SOL    HW233086   1.919   3.952   3.083  3.8682 -0.8879  0.9968
 8330SOL    HW333087   1.893   3.827   3.001  1.7723  0.5077 -0.5529
 8330SOL    MW433088   1.904   3.866   3.078  0.2238 -0.3609  0.1518
 8331SOL     OW33089   5.221   1.765   3.051  0.5637  0.0447 -0.1338
 8331SOL    HW233090   5.278   1.774   3.127 -0.2376  0.1717  0.4657
 8331SOL    HW333091   5.279   1.780   2.976  2.0357 -2.8701  0.2442
 8331SOL    MW433092   5.236   1.768   3.051  0.6522 -0.3231 -0.0049
 8332SOL     OW33093   2.209   4.675   0.543 -0.0631 -0.3118 -0.1027
 8332SOL    HW233094   2.212   4.580   0.552 -1.3575 -0.3969 -0.3988
 8332SOL    HW333095   2.260   4.693   0.464  1.3969 -0.6053  0.7382
 8332SOL    MW433096   2.216   4.665   0.533 -0.0412 -0.3618 -0.0308
 8333SOL     OW33097   4.875   3.018   2.285 -0.3716 -0.0106 -0.0350
 8333SOL    HW233098   4.922   3.065   2.354  0.4562  0.4997 -0.9264
 8333SOL    HW333099   4.785   3.012   2.317  0.3061 -1.1900  1.8158
 8333SOL    MW433100   4.870   3.023   2.298 -0.1730 -0.0989  0.0915
 8334SOL     OW33101   3.125   3.305   3.328  0.4023 -0.0693  0.0351
 8334SOL    HW233102   3.088   3.264   3.250 -0.8041  1.5653 -0.3139
 8334SOL    HW333103   3.155   3.391   3.297 -0.0109  0.5655  1.3392
 8334SOL    MW433104   3.124   3.311   3.313  0.1886  0.2301  0.1611
 8335SOL     OW33105   0.150   2.949   4.745  0.2484 -0.3398  0.1086
 8335SOL    HW233106   0.059   2.920   4.751 -0.0061  0.0661 -1.3988
 8335SOL    HW333107   0.198   2.871   4.719  0.2844 -0.4764  0.5788
 8335SOL    MW433108   0.144   2.935   4.742  0.2196 -0.3043 -0.0282
 8336SOL     OW33109   0.903   0.842   2.431 -0.5385 -0.1760 -0.4020
 8336SOL    HW233110   0.821   0.875   2.468 -0.4195  0.9700 -1.1078
 8336SOL    HW333111   0.901   0.748   2.447 -1.7509 -0.0825  0.0564
 8336SOL    MW433112   0.892   0.834   2.438 -0.6828 -0.0125 -0.4346
 8337SOL     OW33113   4.874   3.562   4.302 -0.0120  0.4399 -0.6885
 8337SOL    HW233114   4.949   3.621   4.300 -0.4216  1.0403  0.6283
 8337SOL    HW333115   4.813   3.602   4.364 -0.4327 -1.2197  0.0280
 8337SOL    MW433116   4.876   3.575   4.310 -0.1216  0.3001 -0.4202
 8338SOL     OW33117   1.231   3.210   6.180  0.5528 -0.2215 -0.5186
 8338SOL    HW233118   1.317   3.206   6.221  0.1548 -1.3016  0.2486
 8338SOL    HW333119   1.222   3.127   6.133  0.0534  0.0201 -0.8647
 8338SOL    MW433120   1.241   3.199   6.179  0.4344 -0.3321 -0.4630
 8339SOL     OW33121   1.160   2.417   3.436 -0.7107  0.2799  0.2109
 8339SOL    HW233122   1.107   2.338   3.429  1.4263 -1.2743  0.8415
 8339SOL    HW333123   1.137   2.453   3.522 -1.3410  0.1118  0.1214
 8339SOL    MW433124   1.150   2.412   3.446 -0.5119  0.0527  0.2823
 8340SOL     OW33125   5.406   1.449   6.195  0.2899 -0.0584  0.4223
 8340SOL    HW233126   5.381   1.358   6.210  0.0420 -0.0714 -0.0354
 8340SOL    HW333127   5.383   1.466   6.103  0.4964  0.4119  0.4495
 8340SOL    MW433128   5.400   1.440   6.185  0.2844  0.0019  0.3655
 8341SOL     OW33129   1.397   4.697   5.121 -0.0784 -0.6234 -0.6233
 8341SOL    HW233130   1.460   4.705   5.192 -0.2584 -0.1321 -0.5138
 8341SOL    HW333131   1.446   4.721   5.043 -0.7397  2.3456 -0.2387
 8341SOL    MW433132   1.412   4.701   5.120 -0.1894 -0.1668 -0.5581
 8342SOL     OW33133   1.018   4.848   3.982  0.8528 -0.7417 -0.0954
 8342SOL    HW233134   0.964   4.904   4.038 -0.8135 -1.2142 -1.1596
 8342SOL    HW333135   1.029   4.767   4.031  1.0421 -0.4602  0.3337
 8342SOL    MW433136   1.013   4.845   3.996  0.6579 -0.7669 -0.1792
 8343SOL     OW33137   1.401   1.551   5.383 -0.0483  0.1512  0.3168
 8343SOL    HW233138   1.305   1.553   5.378  0.0255  0.4164 -2.1608
 8343SOL    HW333139   1.429   1.632   5.342  1.2631 -0.9880 -1.1726
 8343SOL    MW433140   1.392   1.562   5.377  0.1345  0.0359 -0.2066
 8344SOL     OW33141   2.907   6.153   2.443 -0.2469 -0.4624  0.4224
 8344SOL    HW233142   2.847   6.083   2.467  0.4655 -1.4485 -0.6230
 8344SOL    HW333143   2.967   6.114   2.381  0.9157  0.7613  0.7317
 8344SOL    MW433144   2.907   6.139   2.438  0.0005 -0.4311  0.3253
 8345SOL     OW33145   1.531   3.964   1.135  0.0647 -0.1736 -0.4937
 8345SOL    HW233146   1.494   4.037   1.184 -3.0981 -2.4264  0.8295
 8345SOL    HW333147   1.600   3.930   1.192 -0.4447  0.0304  0.2621
 8345SOL    MW433148   1.536   3.969   1.149 -0.4198 -0.4439 -0.2194
 8346SOL     OW33149   6.153   1.370   6.134  0.3162  0.4128 -0.3864
 8346SOL    HW233150   6.124   1.460   6.148  0.4322  0.5889 -1.2039
 8346SOL    HW333151   6.166   1.364   6.039  1.6483 -0.0618 -0.1933
 8346SOL    MW433152   6.151   1.381   6.123  0.5073  0.3734 -0.4688
 8347SOL     OW33153   5.291   1.802   0.761 -0.5364  0.5614  0.2043
 8347SOL    HW233154   5.255   1.728   0.712 -0.2729  0.6804 -0.1716
 8347SOL    HW333155   5.310   1.868   0.694 -0.9600  1.0524  0.5522
 8347SOL    MW433156   5.289   1.801   0.745 -0.5575  0.6419  0.2006
 8348SOL     OW33157   0.820   4.056   3.816  0.7314  0.2360  0.1178
 8348SOL    HW233158   0.885   4.125   3.809  0.6210  0.5143  1.6149
 8348SOL    HW333159   0.801   4.049   3.909 -2.1342  0.8553 -0.3329
 8348SOL    MW433160   0.826   4.064   3.827  0.3388  0.3544  0.2559
 8349SOL     OW33161   0.094   0.909   0.264 -0.2252 -0.2178  0.1870
 8349SOL    HW233162   0.165   0.973   0.267 -1.2076  0.8497  1.6387
 8349SOL    HW333163   0.043   0.925   0.343 -1.1503 -2.0655  0.0126
 8349SOL    MW433164   0.096   0.920   0.275 -0.4769 -0.3208  0.3555
 8350SOL     OW33165   4.416   2.198   5.084  0.4050  0.2516 -0.4726
 8350SOL    HW233166   4.331   2.239   5.068 -0.4642 -1.0256  0.6652
 8350SOL    HW333167   4.479   2.270   5.078 -0.8268  1.3560 -0.6285
 8350SOL    MW433168   4.413   2.213   5.081  0.1278  0.2288 -0.3430
 8351SOL     OW33169   5.392   0.854   5.780 -0.2959  0.3736 -0.4214
 8351SOL    HW233170   5.396   0.771   5.733  1.0836  0.4856 -0.5461
 8351SOL    HW333171   5.303   0.886   5.766 -0.5579 -0.6330 -1.1373
 8351SOL    MW433172   5.381   0.847   5.772 -0.1485  0.2556 -0.5323
 8352SOL     OW33173   5.593   4.551   1.540 -0.7014 -0.1656 -0.3255
 8352SOL    HW233174   5.652   4.612   1.494 -1.6391  1.4163  0.4698
 8352SOL    HW333175   5.630   4.465   1.523 -0.7643  0.3617 -3.6572
 8352SOL    MW433176   5.606   4.548   1.532 -0.8334  0.1127 -0.6601
 8353SOL     OW33177   6.072   2.048   2.215 -0.4672  0.3398 -0.1823
 8353SOL    HW233178   6.063   1.977   2.278  3.1530 -1.3955 -1.3257
 8353SOL    HW333179   6.009   2.028   2.146  0.3362 -1.7034 -0.3754
 8353SOL    MW433180   6.063   2.036   2.215  0.1165 -0.1587 -0.3587
 8354SOL     OW33181   1.924   0.690   3.094 -0.0419 -0.2287  0.4036
 8354SOL    HW233182   1.946   0.772   3.050  0.7777  0.8293  2.6320
 8354SOL    HW333183   1.984   0.625   3.057  0.2462  0.4832 -0.4012
 8354SOL    MW433184   1.935   0.692   3.084  0.1043  0.0048  0.5914
 8355SOL     OW33185   4.855   3.777   5.190 -0.4227 -0.1834  0.1245
 8355SOL    HW233186   4.869   3.846   5.255  0.7831 -0.9879  0.7462
 8355SOL    HW333187   4.799   3.818   5.124 -1.0015  0.9068  1.2469
 8355SOL    MW433188   4.849   3.791   5.190 -0.3400 -0.1457  0.3546
 8356SOL     OW33189   5.205   0.911   0.606 -0.2469  0.2399  0.3350
 8356SOL    HW233190   5.267   0.852   0.563 -0.5805 -0.3860  0.7001
 8356SOL    HW333191   5.253   0.993   0.615  0.9136 -0.5341  1.5418
 8356SOL    MW433192   5.220   0.914   0.602 -0.1378  0.0552  0.5424
 8357SOL     OW33193   4.507   2.045   3.868  0.1322  0.3318  0.4098
 8357SOL    HW233194   4.552   1.970   3.909  1.8841  0.9956 -0.2123
 8357SOL    HW333195   4.426   2.008   3.834  1.1057 -1.3746 -0.1638
 8357SOL    MW433196   4.502   2.030   3.869  0.4918  0.1942  0.2521
 8358SOL     OW33197   0.876   4.536   0.270  0.3187 -0.5420  0.0233
 8358SOL    HW233198   0.823   4.615   0.272  1.7955  0.5163 -0.4039
 8358SOL    HW333199   0.838   4.480   0.337 -1.5788 -0.0359 -0.5782
 8358SOL    MW433200   0.864   4.539   0.279  0.2632 -0.3356 -0.1125
 8359SOL     OW33201   4.848   0.382   6.325  0.3283 -0.4181  0.3604
 8359SOL    HW233202   4.853   0.365   6.420  0.2555 -1.7366  0.1556
 8359SOL    HW333203   4.917   0.327   6.288  0.9066  0.7312 -0.2893
 8359SOL    MW433204   4.858   0.372   6.333  0.3950 -0.4404  0.2477
 8360SOL     OW33205   0.584   6.177   5.509  0.1975  0.3595 -0.1951
 8360SOL    HW233206   0.642   6.226   5.451 -0.5140  0.6129 -0.6948
 8360SOL    HW333207   0.561   6.099   5.459  0.0894  0.2668 -0.0003
 8360SOL    MW433208   0.589   6.173   5.495  0.0893  0.3807 -0.2354
 8361SOL     OW33209   0.477   4.118   2.048 -0.3687  0.0304  0.5381
 8361SOL    HW233210   0.436   4.201   2.023  0.3367  0.3236  0.3407
 8361SOL    HW333211   0.537   4.098   1.976 -1.5210 -1.3673 -0.1091
 8361SOL    MW433212   0.479   4.126   2.035 -0.4277 -0.1153  0.4267
 8362SOL     OW33213   4.530   3.044   5.164  0.0169  0.3460 -0.6710
 8362SOL    HW233214   4.579   3.069   5.243 -1.9171 -0.6438  0.9287
 8362SOL    HW333215   4.597   3.014   5.103  1.4394 -1.6247  1.6580
 8362SOL    MW433216   4.545   3.044   5.167 -0.0506 -0.0446 -0.1527
 8363SOL     OW33217   4.431   4.293   1.938  0.1504 -0.2593  0.7055
 8363SOL    HW233218   4.491   4.367   1.947 -1.0505  0.9544 -0.6878
 8363SOL    HW333219   4.486   4.216   1.952  1.7278  0.8461  0.8708
 8363SOL    MW433220   4.446   4.293   1.941  0.2001  0.0467  0.5435
 8364SOL     OW33221   3.042   4.242   3.511 -0.9437  0.0919 -0.3672
 8364SOL    HW233222   3.096   4.287   3.446  0.0369 -0.5076  0.0235
 8364SOL    HW333223   2.953   4.249   3.476 -0.6542  1.2060 -0.9518
 8364SOL    MW433224   3.037   4.249   3.498 -0.7761  0.1598 -0.3928
 8365SOL     OW33225   5.267   2.026   5.211  0.0433  0.6729  0.7548
 8365SOL    HW233226   5.357   1.992   5.221  0.0241 -0.2870 -1.7875
 8365SOL    HW333227   5.258   2.042   5.118 -2.3779  0.9789  1.0008
 8365SOL    MW433228   5.278   2.023   5.200 -0.2787  0.5866  0.4518
 8366SOL     OW33229   4.973   1.655   4.424  0.6501  0.3327  0.0417
 8366SOL    HW233230   5.059   1.686   4.395  0.3495  2.0628  0.8793
 8366SOL    HW333231   4.943   1.722   4.485 -1.4275 -0.0839 -0.4564
 8366SOL    MW433232   4.980   1.668   4.428  0.3363  0.5060  0.0865
 8367SOL     OW33233   0.954   0.342   3.614  0.1304 -0.1165 -0.2856
 8367SOL    HW233234   0.905   0.398   3.673 -0.7927 -0.3672 -0.7924
 8367SOL    HW333235   0.915   0.358   3.528  1.8302  0.6843 -0.9492
 8367SOL    MW433236   0.943   0.351   3.610  0.2329 -0.0439 -0.4400
 8368SOL     OW33237   5.623   2.121   0.413  0.1960  0.0017 -0.3767
 8368SOL    HW233238   5.617   2.208   0.452 -0.7647  0.3006 -1.1474
 8368SOL    HW333239   5.569   2.065   0.469  0.7193 -0.0835  0.0517
 8368SOL    MW433240   5.615   2.125   0.425  0.1383  0.0299 -0.4219
 8369SOL     OW33241   0.352   4.753   2.879  0.0429  0.3618  0.3774
 8369SOL    HW233242   0.373   4.725   2.790  0.3388  0.0496  0.5430
 8369SOL    HW333243   0.264   4.790   2.873 -1.0406 -2.0270  0.4430
 8369SOL    MW433244   0.343   4.754   2.867 -0.0610  0.0055  0.4079
 8370SOL     OW33245   5.601   5.491   1.052  0.2003  0.0021  0.6097
 8370SOL    HW233246   5.680   5.534   1.018 -1.0609  1.2476 -0.9325
 8370SOL    HW333247   5.535   5.505   0.984 -1.6824 -0.0113  2.3418
 8370SOL    MW433248   5.603   5.498   1.038 -0.2145  0.1646  0.6347
 8371SOL     OW33249   1.294   0.366   3.340 -0.1133  0.5129 -0.1853
 8371SOL    HW233250   1.258   0.453   3.326 -0.3474  0.5604  0.6811
 8371SOL    HW333251   1.369   0.362   3.281  0.0999  1.4255  0.0064
 8371SOL    MW433252   1.299   0.377   3.330 -0.1160  0.6396 -0.0457
 8372SOL     OW33253   0.231   3.541   1.856 -0.5759 -0.2559 -0.4486
 8372SOL    HW233254   0.229   3.448   1.876  0.5913 -0.0449  0.8666
 8372SOL    HW333255   0.184   3.582   1.929  1.1944  0.3315  0.4232
 8372SOL    MW433256   0.225   3.534   1.869 -0.1884 -0.1506 -0.1601
 8373SOL     OW33257   1.866   1.512   5.572 -0.1967  0.8425 -0.0948
 8373SOL    HW233258   1.773   1.532   5.578 -0.6320 -1.0574  0.1681
 8373SOL    HW333259   1.869   1.417   5.558  1.7134  0.5205  1.9222
 8373SOL    MW433260   1.854   1.502   5.571 -0.0021  0.5494  0.2060
 8374SOL     OW33261   1.498   2.022   0.137  0.0254 -0.5687  0.3226
 8374SOL    HW233262   1.452   2.039   0.219 -1.4407  0.2953 -0.6254
 8374SOL    HW333263   1.591   2.030   0.159 -0.1338 -3.4734  2.5430
 8374SOL    MW433264   1.505   2.026   0.151 -0.1891 -0.8380  0.4905
 8375SOL     OW33265   2.352   4.116   2.537 -0.2093  0.2889 -0.3892
 8375SOL    HW233266   2.334   4.184   2.601 -1.7615 -0.1990 -0.2710
 8375SOL    HW333267   2.428   4.069   2.573  0.4190  1.4787 -0.1216
 8375SOL    MW433268   2.360   4.119   2.550 -0.3312  0.3815 -0.3383
 8376SOL     OW33269   5.522   2.366   0.537  0.0856  0.2169  0.1085
 8376SOL    HW233270   5.497   2.369   0.629  1.0388 -1.2643  0.4333
 8376SOL    HW333271   5.528   2.458   0.511  0.3362  0.6601  1.6619
 8376SOL    MW433272   5.519   2.379   0.546  0.2444  0.0800  0.3563
 8377SOL     OW33273   3.127   6.109   1.039 -0.4253 -0.1214  0.4342
 8377SOL    HW233274   3.153   6.107   0.947 -1.5613  0.8308  0.0665
 8377SOL    HW333275   3.185   6.174   1.079 -0.4197  0.0019  0.2269
 8377SOL    MW433276   3.139   6.117   1.033 -0.5744  0.0205  0.3584
 8378SOL     OW33277   3.821   2.830   3.466 -0.1598 -0.8856 -0.2362
 8378SOL    HW233278   3.800   2.873   3.548 -0.2537  0.8869 -1.1346
 8378SOL    HW333279   3.746   2.850   3.409  0.2633 -1.4048 -0.9856
 8378SOL    MW433280   3.808   2.839   3.469 -0.1164 -0.7202 -0.4536
 8379SOL     OW33281   2.932   0.118   0.053 -0.2206 -0.0604 -0.5003
 8379SOL    HW233282   2.924   0.023   0.055 -0.5068 -0.0328  1.3177
 8379SOL    HW333283   2.971   0.137  -0.032 -1.4235 -1.6804 -1.4735
 8379SOL    MW433284   2.936   0.108   0.042 -0.4170 -0.2705 -0.3888
 8380SOL     OW33285   5.525   0.356   2.238  0.8851 -0.1783 -0.2198
 8380SOL    HW233286   5.619   0.344   2.244  0.6958 -2.2574 -0.7492
 8380SOL    HW333287   5.507   0.363   2.144  0.5662  0.9939 -0.0910
 8380SOL    MW433288   5.535   0.355   2.226  0.8181 -0.2980 -0.2727
 8381SOL     OW33289   5.670   4.801   0.811 -0.2523  0.2419  0.0168
 8381SOL    HW233290   5.639   4.719   0.848 -0.0821  0.4808  0.7102
 8381SOL    HW333291   5.720   4.842   0.881  0.6155  0.4227 -0.6869
 8381SOL    MW433292   5.673   4.796   0.825 -0.1154  0.2973  0.0154
 8382SOL     OW33293   6.251   0.478   3.590  0.9393  0.0026  0.0620
 8382SOL    HW233294   6.204   0.427   3.523 -1.1669  0.6417  0.9758
 8382SOL    HW333295   6.342   0.451   3.580  0.2990 -1.9136 -1.2769
 8382SOL    MW433296   6.257   0.468   3.580  0.5769 -0.1659  0.0059
 8383SOL     OW33297   3.837   2.371   2.592 -0.0585 -0.1966 -0.4444
 8383SOL    HW233298   3.889   2.406   2.664  1.0859 -0.2086 -1.2422
 8383SOL    HW333299   3.805   2.287   2.625  1.9241 -1.0455 -0.5386
 8383SOL    MW433300   3.840   2.364   2.606  0.3541 -0.3102 -0.5621
 8384SOL     OW33301   0.078   2.628   4.988 -0.1553 -0.1676 -0.4745
 8384SOL    HW233302   0.155   2.571   4.977  1.7443  1.5533  2.5664
 8384SOL    HW333303   0.025   2.583   5.053 -0.2201  0.0779 -0.3607
 8384SOL    MW433304   0.081   2.614   4.995  0.0868  0.0918 -0.0583
 8385SOL     OW33305   2.973   4.060   4.598 -0.0497 -0.3174  0.5778
 8385SOL    HW233306   2.903   4.122   4.576  0.8217  0.5679  0.2744
 8385SOL    HW333307   2.969   4.052   4.693  1.4006  2.1175  0.9056
 8385SOL    MW433308   2.963   4.067   4.607  0.2566  0.1206  0.5810
 8386SOL     OW33309   2.046   4.267   6.284 -0.0894 -0.2159  0.1430
 8386SOL    HW233310   1.956   4.263   6.319 -1.0095  2.3168 -1.6555
 8386SOL    HW333311   2.034   4.272   6.189  2.1008 -1.6738 -0.2761
 8386SOL    MW433312   2.032   4.267   6.276  0.0782 -0.0741 -0.1496
 8387SOL     OW33313   5.912   5.225   4.478  0.1464 -0.4616  0.4632
 8387SOL    HW233314   5.914   5.296   4.414  1.0094 -2.2689 -1.6014
 8387SOL    HW333315   5.833   5.242   4.529 -0.7692  0.8609 -1.2811
 8387SOL    MW433316   5.902   5.237   4.477  0.1395 -0.5255 -0.0394
 8388SOL     OW33317   5.141   2.943   5.727  0.4805 -0.5367 -0.3435
 8388SOL    HW233318   5.180   3.023   5.761  1.9097 -0.9330 -0.9515
 8388SOL    HW333319   5.169   2.941   5.635 -0.2514 -1.3038 -0.5567
 8388SOL    MW433320   5.150   2.953   5.719  0.5725 -0.6902 -0.4518
 8389SOL     OW33321   0.895   1.669   2.289 -0.0562 -0.2539  0.0317
 8389SOL    HW233322   0.799   1.664   2.295 -0.0660 -0.1718 -0.0516
 8389SOL    HW333323   0.923   1.691   2.377 -0.2549  1.8226 -0.3687
 8389SOL    MW433324   0.886   1.671   2.301 -0.0837  0.0309 -0.0322
 8390SOL     OW33325   0.335   0.452   3.355 -0.0920 -0.6770  0.0071
 8390SOL    HW233326   0.315   0.516   3.287  1.3532 -1.6086 -1.3792
 8390SOL    HW333327   0.286   0.373   3.329  1.3445 -1.3936 -0.6541
 8390SOL    MW433328   0.326   0.450   3.342  0.2882 -0.8944 -0.2630
 8391SOL     OW33329   3.786   3.350   2.657  0.4804 -0.2215 -0.8702
 8391SOL    HW233330   3.783   3.279   2.594 -2.5748  1.2027 -2.5495
 8391SOL    HW333331   3.827   3.423   2.610  1.1764 -0.0533 -0.0491
 8391SOL    MW433332   3.791   3.351   2.643  0.1691 -0.0114 -0.9834
 8392SOL     OW33333   2.081   5.822   3.459 -0.3713  0.4584 -0.3319
 8392SOL    HW233334   2.002   5.829   3.405  0.7424  0.0710 -2.1014
 8392SOL    HW333335   2.143   5.882   3.417  1.1754 -1.3353 -0.7015
 8392SOL    MW433336   2.079   5.831   3.446 -0.0203  0.1706 -0.6141
 8393SOL     OW33337   3.529   2.302   3.824 -0.0119  0.4342 -0.4144
 8393SOL    HW233338   3.509   2.261   3.740  1.5187  0.4586 -0.8299
 8393SOL    HW333339   3.592   2.371   3.802  1.1777 -0.1977  0.8369
 8393SOL    MW433340   3.535   2.305   3.810  0.3470  0.3541 -0.3041
 8394SOL     OW33341   2.955   0.379   0.139  0.0039  0.0082 -0.2538
 8394SOL    HW233342   2.959   0.292   0.099  1.7665  0.9856 -2.4541
 8394SOL    HW333343   2.901   0.430   0.078  0.4164  0.8616  0.0908
 8394SOL    MW433344   2.949   0.374   0.125  0.2909  0.2498 -0.4986
 8395SOL     OW33345   3.663   3.500   3.739 -0.4652  0.1535  0.0980
 8395SOL    HW233346   3.692   3.591   3.747 -1.9848  0.5827  1.3873
 8395SOL    HW333347   3.577   3.505   3.698 -0.4527 -0.7401 -0.0730
 8395SOL    MW433348   3.656   3.512   3.735 -0.6640  0.0922  0.2455
 8396SOL     OW33349   5.588   1.996   5.425  0.1262 -0.1358 -0.0729
 8396SOL    HW233350   5.499   1.975   5.455  0.0660  1.6156  1.1357
 8396SOL    HW333351   5.581   2.000   5.330 -0.9840 -0.5083 -0.0193
 8396SOL    MW433352   5.575   1.994   5.416 -0.0282  0.0461  0.0937
 8397SOL     OW33353   3.016   3.093   5.480  0.0780  0.1784  0.1722
 8397SOL    HW233354   2.988   3.082   5.571  0.7291  1.2275  0.5148
 8397SOL    HW333355   2.965   3.169   5.449 -1.2471 -1.0620 -0.8232
 8397SOL    MW433356   3.006   3.102   5.488 -0.0110  0.1532  0.0861
 8398SOL     OW33357   6.202   2.639   3.952 -0.3298 -0.1038  0.6877
 8398SOL    HW233358   6.150   2.630   3.872  2.0923 -0.8555 -0.9136
 8398SOL    HW333359   6.196   2.554   3.995  1.3536 -1.0079 -0.7302
 8398SOL    MW433360   6.195   2.627   3.947  0.2119 -0.3223  0.2894
 8399SOL     OW33361   3.816   0.140   2.421  0.3603 -0.5574 -0.4080
 8399SOL    HW233362   3.836   0.190   2.342  1.7881 -1.1646 -0.4735
 8399SOL    HW333363   3.890   0.159   2.480 -0.0899 -1.0262  0.3248
 8399SOL    MW433364   3.829   0.149   2.419  0.4893 -0.6993 -0.3200
 8400SOL     OW33365   2.898   5.225   4.401  0.7059 -0.7864 -0.2289
 8400SOL    HW233366   2.923   5.204   4.311  1.7996 -2.5161  0.4313
 8400SOL    HW333367   2.862   5.143   4.435 -1.8163  0.4299  0.2648
 8400SOL    MW433368   2.896   5.211   4.393  0.5174 -0.8541 -0.0767
 8401SOL     OW33369   0.052   1.366   1.925  0.5797  0.2704  0.1586
 8401SOL    HW233370  -0.008   1.330   1.859  1.3646 -2.1549  0.6858
 8401SOL    HW333371   0.015   1.337   2.008  1.3248  0.5850  0.6040
 8401SOL    MW433372   0.039   1.357   1.927  0.7815 -0.0081  0.2869
 8402SOL     OW33373   1.136   1.362   0.589 -0.5815  0.0557 -0.6974
 8402SOL    HW233374   1.155   1.282   0.541 -0.6719  0.2251 -1.0169
 8402SOL    HW333375   1.055   1.395   0.550 -1.7140 -0.7974  0.8138
 8402SOL    MW433376   1.128   1.356   0.577 -0.7429 -0.0345 -0.5402
 8403SOL     OW33377   4.667   2.394   3.065 -0.4451 -0.5363 -0.1563
 8403SOL    HW233378   4.578   2.417   3.093  0.1582 -0.5971  1.9803
 8403SOL    HW333379   4.683   2.450   2.989 -1.3073  1.5581  1.1105
 8403SOL    MW433380   4.657   2.405   3.059 -0.4792 -0.2680  0.2927
 8404SOL     OW33381   2.079   4.958   5.086 -0.5517 -0.4045 -0.0703
 8404SOL    HW233382   2.156   5.001   5.050  0.3254 -0.6335  1.4104
 8404SOL    HW333383   2.080   4.870   5.047  0.7083 -0.8463  0.8616
 8404SOL    MW433384   2.089   4.952   5.076 -0.2698 -0.4930  0.2480
 8405SOL     OW33385   3.206   4.364   4.611  0.2849  0.3278  0.2993
 8405SOL    HW233386   3.268   4.433   4.633  0.8550  0.3481 -1.2574
 8405SOL    HW333387   3.254   4.283   4.627  1.3794  0.3430 -2.5041
 8405SOL    MW433388   3.220   4.363   4.616  0.5046  0.3325 -0.2760
 8406SOL     OW33389   1.579   2.142   0.824 -0.4697  0.3286  0.2298
 8406SOL    HW233390   1.595   2.127   0.731  1.4112 -0.4981  0.6570
 8406SOL    HW333391   1.593   2.057   0.866 -2.1626  0.4658  1.2077
 8406SOL    MW433392   1.583   2.129   0.818 -0.4449  0.2376  0.4152
 8407SOL     OW33393   0.587   3.576   0.182  0.1658 -0.3559 -0.2408
 8407SOL    HW233394   0.619   3.610   0.266  0.3422 -0.1449 -0.3918
 8407SOL    HW333395   0.519   3.514   0.206 -0.4602  0.4165  0.0207
 8407SOL    MW433396   0.582   3.572   0.196  0.1065 -0.2261 -0.2262
 8408SOL     OW33397   6.128   0.381   6.102  0.4167  0.2751 -0.5075
 8408SOL    HW233398   6.119   0.359   6.195  3.5089  1.0623  0.0966
 8408SOL    HW333399   6.103   0.473   6.097  1.1715  0.4959 -0.2606
 8408SOL    MW433400   6.123   0.390   6.114  0.9242  0.4081 -0.3952
 8409SOL     OW33401   1.387   3.905   6.000  0.4441  0.5227  0.0831
 8409SOL    HW233402   1.300   3.865   6.003  0.8368 -0.3432  0.5935
 8409SOL    HW333403   1.394   3.942   5.912  0.1735 -0.8470 -0.5405
 8409SOL    MW433404   1.376   3.904   5.989  0.4602  0.2277  0.0682
 8410SOL     OW33405   1.723   0.838   1.718  0.3302 -0.2837  0.2980
 8410SOL    HW233406   1.776   0.812   1.644  0.8920  2.0274 -0.1945
 8410SOL    HW333407   1.784   0.840   1.792  0.6141  0.8592  0.0525
 8410SOL    MW433408   1.738   0.835   1.718  0.4417  0.1720  0.2006
 8411SOL     OW33409   5.576   4.924   1.692 -0.4393 -0.3596  0.2153
 8411SOL    HW233410   5.606   4.946   1.780 -0.2222 -0.3190  0.1332
 8411SOL    HW333411   5.567   5.008   1.647 -1.6927 -0.2985  0.5518
 8411SOL    MW433412   5.579   4.938   1.698 -0.5760 -0.3462  0.2488
 8412SOL     OW33413   6.128   5.310   0.272 -0.4659 -0.0953  0.4352
 8412SOL    HW233414   6.100   5.358   0.350 -1.9870 -1.3093  0.6849
 8412SOL    HW333415   6.194   5.248   0.305 -0.6888 -0.2136  0.6688
 8412SOL    MW433416   6.133   5.308   0.287 -0.6960 -0.2710  0.4990
 8413SOL     OW33417   2.615   5.841   4.238 -0.4732  0.6989  0.1157
 8413SOL    HW233418   2.553   5.881   4.177 -0.5079 -0.4831 -0.6602
 8413SOL    HW333419   2.566   5.770   4.279  0.1296  0.2399  0.0575
 8413SOL    MW433420   2.601   5.837   4.235 -0.3983  0.4824  0.0057
 8414SOL     OW33421   0.053   4.203   5.428 -0.0948 -0.0108  0.0927
 8414SOL    HW233422   0.084   4.242   5.346 -1.2968 -1.0260 -0.8884
 8414SOL    HW333423   0.007   4.275   5.472 -0.8021  0.1513 -0.8783
 8414SOL    MW433424   0.051   4.218   5.423 -0.3467 -0.1234 -0.1649
 8415SOL     OW33425   5.162   5.059   5.369 -0.4606  0.4280 -0.1753
 8415SOL    HW233426   5.069   5.041   5.380 -0.2745 -1.2017 -0.9544
 8415SOL    HW333427   5.182   5.124   5.437 -1.9576  0.1256  0.5963
 8415SOL    MW433428   5.152   5.065   5.379 -0.6335  0.1730 -0.1763
 8416SOL     OW33429   0.745   6.034   4.867  0.0081  0.7158  0.3322
 8416SOL    HW233430   0.772   5.987   4.946  1.1262  0.2268 -0.3207
 8416SOL    HW333431   0.774   6.124   4.882  0.2508  0.6170  0.4719
 8416SOL    MW433432   0.752   6.039   4.879  0.1877  0.6382  0.2645
 8417SOL     OW33433   1.350   4.701   5.739  0.1409  0.6348  0.4516
 8417SOL    HW233434   1.326   4.759   5.667 -0.1472 -0.0198  0.0158
 8417SOL    HW333435   1.334   4.613   5.706  0.4560  0.3052  1.1510
 8417SOL    MW433436   1.345   4.697   5.725  0.1444  0.5049  0.4864
 8418SOL     OW33437   3.776   3.191   2.025 -0.2367  0.1602 -0.5858
 8418SOL    HW233438   3.793   3.167   2.116 -2.0062  1.1290  0.0436
 8418SOL    HW333439   3.836   3.264   2.009 -0.5347  0.5761  0.1173
 8418SOL    MW433440   3.786   3.197   2.035 -0.5095  0.3429 -0.4100
 8419SOL     OW33441   3.664   0.897   3.271  0.0107  0.2884 -0.8359
 8419SOL    HW233442   3.703   0.984   3.264 -1.4019  1.3336  2.4931
 8419SOL    HW333443   3.582   0.904   3.221 -0.4031  1.1069 -0.0638
 8419SOL    MW433444   3.658   0.910   3.263 -0.2303  0.5343 -0.2948
 8420SOL     OW33445   1.988   0.270   4.301 -0.2111 -0.0123 -0.5502
 8420SOL    HW233446   2.065   0.213   4.301  0.8273  1.3092  0.7476
 8420SOL    HW333447   2.001   0.328   4.376 -2.1135  0.7436 -0.7516
 8420SOL    MW433448   2.000   0.270   4.311 -0.3251  0.2618 -0.4056
 8421SOL     OW33449   2.972   0.939   6.206  0.2995  0.2274  0.0128
 8421SOL    HW233450   2.928   0.959   6.124  1.5692  0.0092 -0.7495
 8421SOL    HW333451   2.985   1.024   6.248 -4.4387  0.1624  2.3239
 8421SOL    MW433452   2.968   0.953   6.201 -0.1581  0.1900  0.2171
 8422SOL     OW33453   5.014   4.932   4.189 -0.6923 -0.0664  0.0609
 8422SOL    HW233454   5.028   4.935   4.095  1.0968  2.1847  0.3112
 8422SOL    HW333455   4.974   4.847   4.205  1.7133 -1.7988 -2.3694
 8422SOL    MW433456   5.010   4.922   4.179 -0.1389  0.0020 -0.2267
 8423SOL     OW33457   0.421   0.704   0.878 -0.4786  0.2515  0.2899
 8423SOL    HW233458   0.496   0.707   0.937 -0.6787 -0.0590  0.5635
 8423SOL    HW333459   0.441   0.769   0.811  0.3752 -0.3378 -0.0479
 8423SOL    MW433460   0.434   0.713   0.877 -0.3924  0.1328  0.2814
 8424SOL     OW33461   0.695   0.529   5.130  0.3666  0.2822 -0.5625
 8424SOL    HW233462   0.616   0.498   5.173  0.7091  0.4225  0.1939
 8424SOL    HW333463   0.755   0.454   5.133  0.0943  0.0113 -1.5881
 8424SOL    MW433464   0.693   0.515   5.136  0.3759  0.2650 -0.5980
 8425SOL     OW33465   1.000   0.666   4.930 -0.0769 -0.0885  0.1701
 8425SOL    HW233466   0.917   0.698   4.964 -0.5181 -1.2797  0.2536
 8425SOL    HW333467   1.043   0.627   5.005 -1.0067 -2.6320 -0.5305
 8425SOL    MW433468   0.995   0.665   4.944 -0.2578 -0.5813  0.0886
 8426SOL     OW33469   5.093   1.609   1.189 -0.2225  0.0778 -0.0811
 8426SOL    HW233470   5.139   1.693   1.198 -1.8795  0.9005  1.3193
 8426SOL    HW333471   5.159   1.543   1.210  0.2949  1.2296  2.2942
 8426SOL    MW433472   5.108   1.611   1.193 -0.3729  0.3383  0.4170
 8427SOL     OW33473   4.869   4.711   6.040 -0.1550  0.1866  0.7089
 8427SOL    HW233474   4.868   4.664   5.957  1.3155  2.2062 -0.5158
 8427SOL    HW333475   4.898   4.645   6.104 -3.1044 -1.9114  0.0700
 8427SOL    MW433476   4.873   4.696   6.038 -0.3501  0.1762  0.4630
 8428SOL     OW33477   2.252   3.924   1.919  0.0742 -0.1281 -0.9897
 8428SOL    HW233478   2.219   3.884   1.839  0.4843  0.1171 -1.2825
 8428SOL    HW333479   2.346   3.908   1.918 -0.0606 -1.1579  0.0333
 8428SOL    MW433480   2.260   3.916   1.909  0.1105 -0.2316 -0.8934
 8429SOL     OW33481   0.276   0.950   4.210 -0.1079  0.3241  0.5767
 8429SOL    HW233482   0.182   0.951   4.232 -0.1752 -0.6378  0.3739
 8429SOL    HW333483   0.289   0.866   4.166  0.9945  0.1457  1.2099
 8429SOL    MW433484   0.265   0.939   4.207  0.0287  0.1737  0.6335
 8430SOL     OW33485   1.452   4.249   4.254  0.3894 -0.1466 -0.0342
 8430SOL    HW233486   1.543   4.247   4.284  0.5589 -0.0698 -0.5385
 8430SOL    HW333487   1.458   4.267   4.161 -0.1309 -0.5048 -0.1417
 8430SOL    MW433488   1.465   4.251   4.246  0.3431 -0.1837 -0.1149
 8431SOL     OW33489   0.461   2.830   2.130  0.3452 -0.3624 -0.1774
 8431SOL    HW233490   0.500   2.804   2.214  1.4352 -1.1190 -0.8823
 8431SOL    HW333491   0.529   2.881   2.087  1.1890 -2.7874 -1.9821
 8431SOL    MW433492   0.475   2.833   2.135  0.6003 -0.7822 -0.5085
 8432SOL     OW33493   2.031   6.097   1.039  0.7068 -0.1281  0.3536
 8432SOL    HW233494   1.965   6.037   1.074  0.1087  0.6656  0.6168
 8432SOL    HW333495   2.111   6.076   1.088  0.3158 -0.2197  0.9628
 8432SOL    MW433496   2.033   6.087   1.050  0.5763 -0.0355  0.4687
 8433SOL     OW33497   5.764   3.190   5.705  0.4701  0.5683  0.1176
 8433SOL    HW233498   5.728   3.133   5.637  0.8594 -0.6727  0.9013
 8433SOL    HW333499   5.827   3.134   5.751  1.1778  1.7834  0.6594
 8433SOL    MW433500   5.768   3.175   5.702  0.6148  0.5649  0.2925
 8434SOL     OW33501   4.997   5.270   1.318  0.3825  0.8232  0.3839
 8434SOL    HW233502   4.939   5.346   1.320  0.2760  0.8358 -1.2475
 8434SOL    HW333503   5.042   5.270   1.402 -0.8046  1.7501  1.0288
 8434SOL    MW433504   4.996   5.280   1.329  0.2118  0.9472  0.2537
 8435SOL     OW33505   5.571   4.926   4.520 -0.5966 -0.0294 -0.0267
 8435SOL    HW233506   5.535   4.843   4.552 -0.0987 -0.5192 -0.7291
 8435SOL    HW333507   5.665   4.910   4.512 -0.2910  1.0113  1.0702
 8435SOL    MW433508   5.578   4.913   4.523 -0.4906  0.0433  0.0253
 8436SOL     OW33509   2.239   0.456   1.589 -0.1461 -0.0987 -0.3491
 8436SOL    HW233510   2.328   0.459   1.555  0.0706  0.2336  0.2538
 8436SOL    HW333511   2.189   0.411   1.520  0.1341  1.2258 -1.4659
 8436SOL    MW433512   2.244   0.451   1.575 -0.0805  0.1199 -0.4169
 8437SOL     OW33513   5.557   0.302   4.679  0.2542 -0.4994  0.2346
 8437SOL    HW233514   5.602   0.364   4.622  0.8122 -0.1219  1.0640
 8437SOL    HW333515   5.609   0.301   4.760  1.2693 -3.2960 -0.3197
 8437SOL    MW433516   5.570   0.310   4.682  0.4617 -0.8186  0.2709
 8438SOL     OW33517   0.846   0.373   1.707  0.2392  0.3160 -0.1003
 8438SOL    HW233518   0.794   0.382   1.628 -1.5692  0.9137  1.0800
 8438SOL    HW333519   0.864   0.463   1.735 -1.4453  0.2228  1.5278
 8438SOL    MW433520   0.842   0.386   1.701 -0.2217  0.3826  0.2702
 8439SOL     OW33521   3.341   1.453   3.105 -0.2058 -0.4039 -0.3639
 8439SOL    HW233522   3.317   1.538   3.070  0.9692 -0.0748 -0.4182
 8439SOL    HW333523   3.331   1.462   3.200  1.7046  0.4307 -0.1938
 8439SOL    MW433524   3.337   1.465   3.113  0.2013 -0.2504 -0.3486
 8440SOL     OW33525   0.840   3.380   6.016 -0.5125  0.0344 -0.1248
 8440SOL    HW233526   0.876   3.310   5.962 -0.6546  1.0827 -1.6171
 8440SOL    HW333527   0.748   3.356   6.027 -0.2171 -0.7952  0.6940
 8440SOL    MW433528   0.832   3.367   6.011 -0.4922  0.0632 -0.2137
 8441SOL     OW33529   1.140   4.527   0.368 -0.3517  0.0627  0.0201
 8441SOL    HW233530   1.156   4.464   0.439  0.3212  0.4268  0.2049
 8441SOL    HW333531   1.047   4.519   0.349 -0.4000 -0.5332  0.4795
 8441SOL    MW433532   1.130   4.518   0.375 -0.2693  0.0321  0.1051
 8442SOL     OW33533   4.005   6.157   5.155 -0.1055 -0.2077 -0.6090
 8442SOL    HW233534   3.949   6.151   5.233  0.5846 -0.3208 -0.1105
 8442SOL    HW333535   3.961   6.220   5.099 -1.0574 -0.7567 -0.5011
 8442SOL    MW433536   3.992   6.164   5.158 -0.1400 -0.2951 -0.5290
 8443SOL     OW33537   1.377   3.914   0.452  0.5492  0.3868  0.1587
 8443SOL    HW233538   1.303   3.934   0.394  0.8135  1.1356  0.0603
 8443SOL    HW333539   1.338   3.868   0.526  0.1852 -0.4524 -0.5352
 8443SOL    MW433540   1.362   3.911   0.454  0.5360  0.3748  0.0541
 8444SOL     OW33541   2.837   4.781   0.725 -0.6182 -0.5209 -0.0667
 8444SOL    HW233542   2.794   4.827   0.653 -0.2705 -1.6250 -1.0054
 8444SOL    HW333543   2.878   4.705   0.684  1.8845  0.2471  0.8484
 8444SOL    MW433544   2.836   4.777   0.710 -0.2421 -0.5652 -0.0698
 8445SOL     OW33545   4.840   2.567   5.256 -0.3258  0.2098  0.5022
 8445SOL    HW233546   4.843   2.518   5.338  2.8810 -0.4718  0.1356
 8445SOL    HW333547   4.856   2.501   5.189 -1.4613  0.9819 -0.5586
 8445SOL    MW433548   4.843   2.552   5.258 -0.0525  0.2217  0.3139
 8446SOL     OW33549   0.206   3.320   0.609  0.5100 -0.2230 -0.4292
 8446SOL    HW233550   0.156   3.241   0.592 -0.2738  0.1942 -0.1285
 8446SOL    HW333551   0.147   3.392   0.584  1.3708  0.2628 -1.1359
 8446SOL    MW433552   0.192   3.319   0.604  0.5202 -0.1039 -0.4827
 8447SOL     OW33553   1.337   5.235   0.232  0.2121  0.5475  0.4919
 8447SOL    HW233554   1.389   5.272   0.304  0.8193  0.1195  0.2711
 8447SOL    HW333555   1.367   5.145   0.224 -0.8097  0.1803  0.5926
 8447SOL    MW433556   1.348   5.228   0.241  0.1574  0.4426  0.4761
 8448SOL     OW33557   2.084   4.090   2.817  0.0232 -0.4610  0.2468
 8448SOL    HW233558   2.144   4.159   2.788  0.0498 -0.3746  0.4986
 8448SOL    HW333559   2.094   4.089   2.913 -1.1068  0.2549  0.4025
 8448SOL    MW433560   2.093   4.099   2.826 -0.1223 -0.3551  0.3006
 8449SOL     OW33561   4.197   3.211   0.312  0.5260 -0.2126 -0.2082
 8449SOL    HW233562   4.118   3.189   0.360  0.4195  1.1388  0.2764
 8449SOL    HW333563   4.166   3.248   0.229  0.7033 -1.8131 -1.0367
 8449SOL    MW433564   4.183   3.213   0.307  0.5354 -0.2455 -0.2536
 8450SOL     OW33565   5.782   5.304   0.760  0.4775  0.7712 -0.1720
 8450SOL    HW233566   5.762   5.293   0.853 -0.6358  1.9959 -0.2369
 8450SOL    HW333567   5.741   5.228   0.718  2.1551 -0.5373  0.4334
 8450SOL    MW433568   5.774   5.293   0.766  0.5520  0.7601 -0.1007
 8451SOL     OW33569   2.531   4.585   0.185 -0.6052  0.0426  0.6293
 8451SOL    HW233570   2.608   4.580   0.242 -0.3600  1.8880  0.5216
 8451SOL    HW333571   2.524   4.497   0.147 -1.2604 -1.5063  4.0314
 8451SOL    MW433572   2.540   4.572   0.187 -0.6593  0.0817  1.0640
 8452SOL     OW33573   5.534   1.147   1.649 -0.2779  0.4056  0.2542
 8452SOL    HW233574   5.610   1.090   1.654 -1.8081 -1.7474  0.3692
 8452SOL    HW333575   5.565   1.232   1.681  1.7740 -0.6629  1.2837
 8452SOL    MW433576   5.548   1.151   1.654 -0.2091 -0.0194  0.4052
 8453SOL     OW33577   2.927   2.086   4.581  0.5116 -0.2955 -0.1481
 8453SOL    HW233578   2.892   1.998   4.599 -0.3872 -0.1630 -1.1409
 8453SOL    HW333579   2.876   2.116   4.506  2.4398  0.1405 -1.3257
 8453SOL    MW433580   2.915   2.078   4.574  0.6474 -0.2205 -0.4345
 8454SOL     OW33581   1.961   5.346   4.382 -0.2282 -0.2273  0.0471
 8454SOL    HW233582   1.982   5.416   4.319  0.6815 -0.5333 -0.0108
 8454SOL    HW333583   1.937   5.271   4.328  0.8692 -0.5902  0.0224
 8454SOL    MW433584   1.961   5.345   4.367  0.0366 -0.3156  0.0362
 8455SOL     OW33585   5.868   2.351   2.769 -0.2657 -0.2387 -0.0557
 8455SOL    HW233586   5.785   2.343   2.722 -1.0392  0.7242  1.1005
 8455SOL    HW333587   5.884   2.264   2.805 -0.5837 -0.5219 -0.5894
 8455SOL    MW433588   5.860   2.339   2.767 -0.4097 -0.1490  0.0265
 8456SOL     OW33589   3.293   4.718   3.944 -0.0200 -0.9669 -0.3507
 8456SOL    HW233590   3.294   4.811   3.919 -2.6681 -0.2770  1.6932
 8456SOL    HW333591   3.379   4.704   3.983  0.0660  0.9830  0.3077
 8456SOL    MW433592   3.305   4.729   3.946 -0.3581 -0.6186  0.0058
 8457SOL     OW33593   1.809   4.340   0.833  0.1746 -0.4979 -0.3145
 8457SOL    HW233594   1.784   4.266   0.778  1.4553 -0.5041 -0.9320
 8457SOL    HW333595   1.759   4.414   0.799 -0.7640 -0.9736  0.0062
 8457SOL    MW433596   1.799   4.340   0.821  0.2198 -0.5615 -0.3536
 8458SOL     OW33597   1.558   2.924   2.896 -0.4156  0.4660 -0.5924
 8458SOL    HW233598   1.472   2.954   2.926  0.0962  0.8118  0.6174
 8458SOL    HW333599   1.574   2.971   2.815 -0.1682  2.6082  0.6210
 8458SOL    MW433600   1.549   2.934   2.889 -0.3155  0.7943 -0.2727
 8459SOL     OW33601   6.291   0.287   5.753 -0.5271  0.5466 -0.1872
 8459SOL    HW233602   6.195   0.289   5.757 -0.6610  0.8632 -2.3624
 8459SOL    HW333603   6.311   0.306   5.662  1.5829 -0.7425 -0.0437
 8459SOL    MW433604   6.281   0.289   5.742 -0.2664  0.4183 -0.4552
 8460SOL     OW33605   0.276   5.447   3.802  0.0885  0.1467 -0.3019
 8460SOL    HW233606   0.202   5.426   3.859  1.0676  2.1740  1.8879
 8460SOL    HW333607   0.299   5.536   3.826  2.3043  0.0931 -2.0015
 8460SOL    MW433608   0.269   5.456   3.813  0.5100  0.4071 -0.2372
 8461SOL     OW33609   3.207   4.847   3.041 -0.3571 -0.5576  0.0166
 8461SOL    HW233610   3.265   4.849   3.117 -0.2603 -1.1102 -0.0402
 8461SOL    HW333611   3.242   4.777   2.986 -0.5862 -0.3389 -0.4115
 8461SOL    MW433612   3.220   4.838   3.044 -0.3746 -0.6016 -0.0474
 8462SOL     OW33613   3.620   4.252   4.737  0.5241 -0.3019 -0.4765
 8462SOL    HW233614   3.582   4.308   4.805  2.0058  0.9239 -0.5994
 8462SOL    HW333615   3.674   4.190   4.785  2.0802  0.9689 -0.5188
 8462SOL    MW433616   3.622   4.251   4.753  0.9249  0.0275 -0.4983
 8463SOL     OW33617   0.607   3.999   3.364  0.2649 -0.2267  0.3676
 8463SOL    HW233618   0.532   3.972   3.417  1.2848 -0.8743  1.5194
 8463SOL    HW333619   0.664   3.922   3.361  0.3288 -0.1574 -1.5642
 8463SOL    MW433620   0.605   3.985   3.370  0.4079 -0.3030  0.2647
 8464SOL     OW33621   4.948   5.676   0.044 -0.5627 -0.4086  0.0867
 8464SOL    HW233622   4.988   5.626  -0.027 -1.8175 -0.8745 -0.3130
 8464SOL    HW333623   4.980   5.635   0.124  1.1275  0.3294 -0.1743
 8464SOL    MW433624   4.957   5.664   0.045 -0.5053 -0.3727 -0.0005
 8465SOL     OW33625   2.900   5.147   2.212 -0.1433 -0.2927 -0.4625
 8465SOL    HW233626   2.957   5.071   2.219 -1.1524 -1.0645 -0.4438
 8465SOL    HW333627   2.942   5.204   2.147  0.1281 -1.3019 -1.1823
 8465SOL    MW433628   2.913   5.145   2.204 -0.2407 -0.5277 -0.5550
 8466SOL     OW33629   2.533   1.968   0.747  0.2945  0.3521 -0.4307
 8466SOL    HW233630   2.529   1.970   0.651 -0.9855 -0.6429 -0.4245
 8466SOL    HW333631   2.581   1.888   0.767 -0.0998  0.1565 -0.2500
 8466SOL    MW433632   2.539   1.958   0.737  0.0736  0.1950 -0.4060
 8467SOL     OW33633   3.885   5.806   0.066  0.0263  0.0770 -0.2461
 8467SOL    HW233634   3.858   5.877   0.125 -1.7779 -1.6997  1.1823
 8467SOL    HW333635   3.981   5.808   0.070 -0.0046  1.4235  0.9892
 8467SOL    MW433636   3.894   5.816   0.074 -0.2158  0.0203  0.1053
 8468SOL     OW33637   5.637   4.674   2.005 -0.5336 -0.1415 -0.0981
 8468SOL    HW233638   5.579   4.672   2.081  0.7275  0.7405  0.9351
 8468SOL    HW333639   5.665   4.765   1.999  0.3707 -0.4566 -0.8568
 8468SOL    MW433640   5.633   4.686   2.014 -0.2479 -0.0667 -0.0619
 8469SOL     OW33641   0.836   0.881   4.604 -0.1582 -0.0478 -0.4171
 8469SOL    HW233642   0.856   0.971   4.581  0.6650  0.4351  1.9309
 8469SOL    HW333643   0.896   0.829   4.550  2.6271  1.0666  1.3538
 8469SOL    MW433644   0.847   0.886   4.594  0.3179  0.1630  0.1263
 8470SOL     OW33645   1.202   0.379   1.834  0.0030 -1.0428 -0.0655
 8470SOL    HW233646   1.199   0.411   1.743 -0.5670 -1.5076 -0.2133
 8470SOL    HW333647   1.145   0.302   1.834 -1.3447 -0.0831  1.0782
 8470SOL    MW433648   1.194   0.373   1.822 -0.2500 -0.9775  0.0659
 8471SOL     OW33649   4.606   1.043   2.821 -0.1636 -0.4671 -0.3710
 8471SOL    HW233650   4.631   1.103   2.750  1.0819  0.1322  0.5288
 8471SOL    HW333651   4.535   1.088   2.867 -1.3738 -1.1134 -1.5382
 8471SOL    MW433652   4.600   1.057   2.818 -0.1590 -0.4733 -0.4063
 8472SOL     OW33653   0.832   1.795   1.718  0.4179 -0.0989 -0.2459
 8472SOL    HW233654   0.805   1.870   1.664  0.5700 -1.5402 -2.4668
 8472SOL    HW333655   0.901   1.829   1.774 -0.0971  1.6186 -0.5946
 8472SOL    MW433656   0.837   1.809   1.718  0.3700 -0.0625 -0.5849
 8473SOL     OW33657   0.124   0.363   2.231 -0.3421  0.3628  0.4783
 8473SOL    HW233658   0.090   0.288   2.279  0.2572 -1.8855 -2.3769
 8473SOL    HW333659   0.049   0.421   2.221 -0.9842 -0.1192  2.1631
 8473SOL    MW433660   0.110   0.361   2.236 -0.3477  0.0026  0.3239
 8474SOL     OW33661   5.163   2.854   1.304  0.3918  0.4702  0.4222
 8474SOL    HW233662   5.166   2.948   1.285  1.2978  0.3917  0.1372
 8474SOL    HW333663   5.204   2.845   1.389 -0.6103  0.4347  0.9152
 8474SOL    MW433664   5.169   2.865   1.312  0.3791  0.4551  0.4496
 8475SOL     OW33665   5.337   5.845   6.279  0.0872 -0.0138 -0.2004
 8475SOL    HW233666   5.274   5.911   6.309  0.2379 -0.7455  1.9316
 8475SOL    HW333667   5.418   5.867   6.325  0.9467 -0.0847 -1.6224
 8475SOL    MW433668   5.339   5.857   6.289  0.2205 -0.1197 -0.1067
 8476SOL     OW33669   0.258   2.220   5.201  0.3262 -0.1780 -0.1663
 8476SOL    HW233670   0.165   2.199   5.208  0.2376 -1.1385 -3.0653
 8476SOL    HW333671   0.299   2.138   5.174  1.6375  0.7953 -1.2484
 8476SOL    MW433672   0.251   2.207   5.199  0.4875 -0.1763 -0.6915
 8477SOL     OW33673   0.578   4.368   4.894  0.1243 -0.0530  0.4204
 8477SOL    HW233674   0.499   4.387   4.945 -0.4183 -0.6781 -0.1632
 8477SOL    HW333675   0.641   4.335   4.958 -0.1441  0.2993  0.8681
 8477SOL    MW433676   0.576   4.366   4.909  0.0173 -0.0890  0.4025
 8478SOL     OW33677   0.314   2.544   1.312 -0.0383  0.3782  0.4395
 8478SOL    HW233678   0.399   2.500   1.320 -1.3116 -2.8289 -1.6900
 8478SOL    HW333679   0.308   2.565   1.219 -1.3317  1.1222  0.6724
 8478SOL    MW433680   0.325   2.541   1.300 -0.3769  0.0533  0.1893
 8479SOL     OW33681   4.640   3.927   1.480 -0.1771  0.1298  0.2434
 8479SOL    HW233682   4.695   3.849   1.480 -0.3350 -0.0033  1.6155
 8479SOL    HW333683   4.695   3.995   1.441  0.7848 -0.1323  1.1040
 8479SOL    MW433684   4.655   3.926   1.475 -0.0710  0.0776  0.5380
 8480SOL     OW33685   5.702   4.630   5.098 -0.6004  0.2022 -0.0263
 8480SOL    HW233686   5.737   4.708   5.141  0.0369 -0.3564  0.4875
 8480SOL    HW333687   5.726   4.641   5.006  1.1499 -0.2601  0.3366
 8480SOL    MW433688   5.710   4.642   5.092 -0.2854  0.0675  0.0893
 8481SOL     OW33689   0.141   5.093   2.761 -0.4986  0.2724 -0.2063
 8481SOL    HW233690   0.193   5.088   2.681 -1.3911 -3.3987 -0.7333
 8481SOL    HW333691   0.075   5.159   2.742 -0.3637 -0.1150 -2.3290
 8481SOL    MW433692   0.139   5.101   2.748 -0.5986 -0.2631 -0.5559
 8482SOL     OW33693   2.922   1.979   3.205  0.0182  0.1934  0.4471
 8482SOL    HW233694   2.971   2.034   3.144 -0.4163 -1.5597 -1.6184
 8482SOL    HW333695   2.830   1.991   3.179 -0.0499 -1.7836 -0.3528
 8482SOL    MW433696   2.916   1.988   3.194 -0.0481 -0.2988  0.0690
 8483SOL     OW33697   0.558   3.368   5.963 -0.3841 -0.0691  0.0207
 8483SOL    HW233698   0.541   3.462   5.961  1.3403  0.3944  2.5074
 8483SOL    HW333699   0.484   3.331   6.011  0.0239  0.3559  0.9960
 8483SOL    MW433700   0.546   3.376   5.969 -0.1028  0.0481  0.4774
 8484SOL     OW33701   2.933   1.565   1.425 -0.1860  0.1372  0.0489
 8484SOL    HW233702   2.863   1.514   1.386 -1.8822  0.7828  2.0688
 8484SOL    HW333703   3.009   1.549   1.369 -1.0771 -3.1476 -0.4121
 8484SOL    MW433704   2.934   1.556   1.413 -0.5274 -0.2110  0.2546
 8485SOL     OW33705   4.369   2.840   0.980 -0.1044 -0.0829  0.4277
 8485SOL    HW233706   4.281   2.824   0.947 -0.8835  4.3817 -0.3032
 8485SOL    HW333707   4.360   2.836   1.075 -1.5130  1.5497  0.4143
 8485SOL    MW433708   4.356   2.837   0.988 -0.3930  0.7215  0.3295
 8486SOL     OW33709   0.419   1.331   2.919 -0.0879  0.0041  0.2735
 8486SOL    HW233710   0.449   1.421   2.907  0.2463 -0.4302 -3.6813
 8486SOL    HW333711   0.499   1.278   2.913 -0.6544 -0.7063 -2.3185
 8486SOL    MW433712   0.434   1.335   2.916 -0.1186 -0.1469 -0.5903
 8487SOL     OW33713   5.699   6.377   0.094  0.6156 -0.0226  0.3958
 8487SOL    HW233714   5.647   6.396   0.173  1.9304  0.4444  1.1828
 8487SOL    HW333715   5.647   6.413   0.022  0.3010  1.3692  1.2675
 8487SOL    MW433716   5.685   6.385   0.095  0.7476  0.2226  0.6146
 8488SOL     OW33717   5.320   3.804   0.153  0.1139 -0.1876  0.0966
 8488SOL    HW233718   5.265   3.882   0.156 -0.8239 -0.8050 -0.4790
 8488SOL    HW333719   5.328   3.776   0.244  1.6330  1.3403  0.4960
 8488SOL    MW433720   5.314   3.811   0.165  0.1906 -0.0675  0.0733
 8489SOL     OW33721   5.636   4.918   4.832  0.1416 -0.0080  0.1784
 8489SOL    HW233722   5.653   4.947   4.922  0.2472 -0.5159  0.3250
 8489SOL    HW333723   5.562   4.972   4.804  0.6578  0.7616  0.2611
 8489SOL    MW433724   5.628   4.929   4.841  0.2236  0.0266  0.2087
 8490SOL     OW33725   4.471   5.828   6.392 -0.2721 -0.1119  0.3466
 8490SOL    HW233726   4.553   5.785   6.370  0.3619  0.0062  2.2818
 8490SOL    HW333727   4.448   5.794   6.478 -0.8531  1.7894  1.0091
 8490SOL    MW433728   4.479   5.818   6.401 -0.2651  0.1546  0.6894
 8491SOL     OW33729   4.758   5.387   1.346  0.2971  0.1678  0.8798
 8491SOL    HW233730   4.709   5.396   1.427 -1.6443 -0.4243 -0.1586
 8491SOL    HW333731   4.708   5.324   1.295  1.5546  0.3937 -0.7201
 8491SOL    MW433732   4.745   5.380   1.350  0.2069  0.1195  0.5317
 8492SOL     OW33733   4.605   0.943   4.640  0.3953 -0.7389 -0.0750
 8492SOL    HW233734   4.657   1.017   4.672 -0.0613 -0.3423 -0.2350
 8492SOL    HW333735   4.652   0.866   4.671 -0.4300 -0.3884  2.2521
 8492SOL    MW433736   4.618   0.943   4.649  0.2262 -0.6403  0.2110
 8493SOL     OW33737   0.219   2.997   1.642 -0.0806 -0.1003  0.6973
 8493SOL    HW233738   0.189   2.914   1.678  0.2515 -0.2682  0.5879
 8493SOL    HW333739   0.313   2.999   1.659  0.3251 -0.7489 -1.2315
 8493SOL    MW433740   0.228   2.986   1.649  0.0167 -0.2080  0.4284
 8494SOL     OW33741   3.303   1.257   0.683  0.3622 -0.1270  0.0073
 8494SOL    HW233742   3.258   1.190   0.733  0.1450 -0.0123 -0.0344
 8494SOL    HW333743   3.233   1.304   0.637  0.6049 -0.6621 -0.9399
 8494SOL    MW433744   3.288   1.254   0.684  0.3655 -0.1824 -0.1232
 8495SOL     OW33745   4.058   0.343   1.050  0.3640 -0.0853 -0.8601
 8495SOL    HW233746   3.996   0.277   1.021  0.8311 -0.2173 -1.5929
 8495SOL    HW333747   4.120   0.295   1.105 -0.5413  0.1711  0.4100
 8495SOL    MW433748   4.058   0.328   1.053  0.3062 -0.0689 -0.7892
 8496SOL     OW33749   4.538   4.057   2.332  0.4451 -0.1268  0.3810
 8496SOL    HW233750   4.573   4.088   2.415 -0.0034 -0.2591  0.6204
 8496SOL    HW333751   4.609   4.008   2.292  1.3375  1.5498 -0.2000
 8496SOL    MW433752   4.552   4.055   2.338  0.5036  0.0770  0.3359
 8497SOL     OW33753   4.062   3.467   1.321  0.0982 -0.5127 -0.3287
 8497SOL    HW233754   4.067   3.550   1.275 -1.0399 -0.3208 -0.1157
 8497SOL    HW333755   4.112   3.481   1.402 -1.4800  0.5223  0.5102
 8497SOL    MW433756   4.070   3.480   1.326 -0.2602 -0.3508 -0.1899
 8498SOL     OW33757   4.025   6.051   5.803 -0.1165 -0.7316  0.0547
 8498SOL    HW233758   4.018   6.028   5.896  0.8428  0.4920  0.4696
 8498SOL    HW333759   4.103   6.005   5.773  0.3950 -0.0261  0.2534
 8498SOL    MW433760   4.034   6.042   5.812  0.0776 -0.4770  0.1357
 8499SOL     OW33761   4.809   5.042   1.805  0.2317 -0.1069  0.4335
 8499SOL    HW233762   4.746   5.111   1.783  0.4014 -0.7985 -2.7350
 8499SOL    HW333763   4.883   5.089   1.843 -0.1836  1.3559 -0.4681
 8499SOL    MW433764   4.810   5.058   1.807  0.1993 -0.0052 -0.1035
 8500SOL     OW33765   2.738   2.363   2.253 -0.3825 -0.0607  0.3952
 8500SOL    HW233766   2.723   2.296   2.186  0.6835 -0.7207  0.7812
 8500SOL    HW333767   2.717   2.319   2.336 -0.7136  0.4274  0.5749
 8500SOL    MW433768   2.733   2.348   2.255 -0.2856 -0.0834  0.4698
 8501SOL     OW33769   4.935   6.057   3.627  0.6151  0.1558  0.6620
 8501SOL    HW233770   4.999   6.032   3.694  0.6809 -0.3303  0.4233
 8501SOL    HW333771   4.882   5.978   3.615 -0.9636  0.9538  1.8917
 8501SOL    MW433772   4.936   6.043   3.634  0.4155  0.1969  0.7927
 8502SOL     OW33773   1.751   2.808   0.511  0.1176 -0.3242  0.1349
 8502SOL    HW233774   1.678   2.767   0.556 -1.6325  2.1744 -0.2218
 8502SOL    HW333775   1.733   2.795   0.418  2.1003 -2.7767 -0.0135
 8502SOL    MW433776   1.739   2.801   0.505  0.1483 -0.3181  0.0682
 8503SOL     OW33777   2.095   5.913   3.812  0.7411 -0.8283  0.0493
 8503SOL    HW233778   2.054   5.831   3.787  0.8560 -0.7116 -0.5299
 8503SOL    HW333779   2.029   5.958   3.865  0.2325 -0.7699 -0.6257
 8503SOL    MW433780   2.081   5.909   3.816  0.6891 -0.8052 -0.1161
 8504SOL     OW33781   5.951   0.333   0.723 -0.0025  0.2072  0.8767
 8504SOL    HW233782   5.938   0.246   0.686 -1.7493  0.3837  0.9910
 8504SOL    HW333783   6.045   0.338   0.740  0.1744 -1.5457  0.6204
 8504SOL    MW433784   5.962   0.322   0.720 -0.2096 -0.0008  0.8580
 8505SOL     OW33785   2.457   4.232   2.031 -0.1450 -0.0456  0.1029
 8505SOL    HW233786   2.438   4.172   2.103  0.1115 -0.5121 -0.2078
 8505SOL    HW333787   2.465   4.317   2.072  0.6486 -0.4080  0.7210
 8505SOL    MW433788   2.455   4.235   2.046 -0.0065 -0.1549  0.1434
 8506SOL     OW33789   3.423   2.822   0.383 -0.3818  0.3734  0.2116
 8506SOL    HW233790   3.509   2.845   0.419 -1.5631  2.4013  1.9875
 8506SOL    HW333791   3.376   2.905   0.379 -1.8180 -0.4668 -2.0782
 8506SOL    MW433792   3.429   2.836   0.387 -0.7272  0.5301  0.1438
 8507SOL     OW33793   5.246   0.533   3.389  0.3492  0.2349  0.1642
 8507SOL    HW233794   5.156   0.559   3.365  0.1602 -0.9973 -0.5342
 8507SOL    HW333795   5.301   0.603   3.354 -0.3004  0.7692  0.1914
 8507SOL    MW433796   5.241   0.546   3.381  0.2385  0.1428  0.0757
 8508SOL     OW33797   1.143   5.694   1.879  0.8461  0.3545 -0.3411
 8508SOL    HW233798   1.189   5.714   1.960 -0.4320 -1.9158  1.0721
 8508SOL    HW333799   1.140   5.598   1.877 -2.0742  0.3731 -1.3037
 8508SOL    MW433800   1.148   5.684   1.889  0.2922  0.0574 -0.2817
 8509SOL     OW33801   6.240   2.570   2.155  0.4138  0.0254 -0.0680
 8509SOL    HW233802   6.169   2.634   2.153 -0.2339 -0.6966 -1.6569
 8509SOL    HW333803   6.198   2.487   2.179  1.1864  0.0631  1.6060
 8509SOL    MW433804   6.225   2.568   2.158  0.4303 -0.0649 -0.0568
 8510SOL     OW33805   1.072   1.797   1.383  0.3700  0.0681 -0.0695
 8510SOL    HW233806   1.071   1.857   1.308  1.3134 -1.4239 -1.3162
 8510SOL    HW333807   1.159   1.758   1.383 -0.5500 -2.1335  0.0238
 8510SOL    MW433808   1.083   1.800   1.373  0.3731 -0.4192 -0.2217
 8511SOL     OW33809   5.160   2.693   5.896  0.0987  0.3300 -0.3457
 8511SOL    HW233810   5.168   2.776   5.849 -0.2066  0.5704  0.0282
 8511SOL    HW333811   5.217   2.703   5.972 -2.2169  1.3729  1.3723
 8511SOL    MW433812   5.169   2.705   5.900 -0.2471  0.4993 -0.0697
 8512SOL     OW33813   4.605   4.956   2.516 -0.5044  0.5248  0.6410
 8512SOL    HW233814   4.670   5.012   2.558 -0.3272 -1.0193  2.5848
 8512SOL    HW333815   4.636   4.867   2.531 -1.3139 -0.1668 -1.4342
 8512SOL    MW433816   4.618   4.952   2.524 -0.5878  0.2298  0.6236
 8513SOL     OW33817   4.805   4.468   4.762  0.0303  0.0352 -0.2332
 8513SOL    HW233818   4.859   4.540   4.728  1.3652 -0.7509  0.1481
 8513SOL    HW333819   4.738   4.455   4.695  0.0461  1.3179 -0.5322
 8513SOL    MW433820   4.803   4.476   4.749  0.2085  0.1007 -0.2223
 8514SOL     OW33821   2.518   3.758   6.163 -0.1734 -0.0991  0.3790
 8514SOL    HW233822   2.526   3.665   6.185  1.5594 -0.3225 -0.9462
 8514SOL    HW333823   2.442   3.762   6.105 -0.7515 -0.5423  1.0859
 8514SOL    MW433824   2.509   3.746   6.158 -0.0211 -0.1870  0.2974
 8515SOL     OW33825   1.944   0.774   5.555 -0.1890  0.0678 -0.7404
 8515SOL    HW233826   1.987   0.781   5.640 -0.3434 -0.8577 -0.5773
 8515SOL    HW333827   1.857   0.741   5.575 -0.2812  0.0022 -1.2481
 8515SOL    MW433828   1.939   0.771   5.569 -0.2215 -0.0629 -0.7859
 8516SOL     OW33829   0.817   0.561   1.238  0.0814 -0.0081 -0.0012
 8516SOL    HW233830   0.770   0.514   1.307 -0.7061  2.1303  1.0063
 8516SOL    HW333831   0.899   0.587   1.280 -0.0980  0.6956 -0.0764
 8516SOL    MW433832   0.822   0.558   1.253 -0.0462  0.3669  0.1218
 8517SOL     OW33833   6.255   3.948   2.299  0.0248 -0.1855 -0.5876
 8517SOL    HW233834   6.207   3.958   2.217  1.5901 -0.1071 -1.5329
 8517SOL    HW333835   6.342   3.984   2.281 -0.4755  2.9079  2.0666
 8517SOL    MW433836   6.260   3.954   2.286  0.1653  0.2330 -0.3621
 8518SOL     OW33837   2.648   6.024   1.139 -0.2508  0.2823 -0.0925
 8518SOL    HW233838   2.634   6.115   1.164  0.6561  0.5053 -0.3411
 8518SOL    HW333839   2.600   5.973   1.203 -0.4041  0.9286  0.3095
 8518SOL    MW433840   2.640   6.029   1.150 -0.1514  0.3970 -0.0722
 8519SOL     OW33841   6.109   0.881   4.651  0.1709  0.5051 -0.4782
 8519SOL    HW233842   6.032   0.831   4.680 -0.2843  0.5494 -1.5721
 8519SOL    HW333843   6.072   0.953   4.600  0.9132  0.9569 -0.3799
 8519SOL    MW433844   6.094   0.884   4.648  0.2088  0.5705 -0.6096
 8520SOL     OW33845   5.698   6.404   0.450  0.0152 -0.5688 -0.1720
 8520SOL    HW233846   5.677   6.381   0.540 -2.3575  2.6484  0.2689
 8520SOL    HW333847   5.613   6.418   0.408  1.0958  0.2563 -2.2501
 8520SOL    MW433848   5.684   6.403   0.456 -0.1553 -0.0354 -0.3880
 8521SOL     OW33849   0.201   3.346   2.704 -0.3481 -0.7064  0.4379
 8521SOL    HW233850   0.180   3.429   2.662  1.0781 -0.2093  0.6389
 8521SOL    HW333851   0.126   3.328   2.760 -0.9224  0.1632 -0.0236
 8521SOL    MW433852   0.189   3.355   2.706 -0.2357 -0.5261  0.4035
 8522SOL     OW33853   5.552   0.020   4.209  0.2462 -0.4107  0.2142
 8522SOL    HW233854   5.570  -0.027   4.290  1.1216 -1.8185 -0.7332
 8522SOL    HW333855   5.470  -0.018   4.177  1.0195 -1.4705 -0.6160
 8522SOL    MW433856   5.544   0.009   4.215  0.4637 -0.7363 -0.0204
 8523SOL     OW33857   0.118   2.728   1.780  0.6931 -0.2733 -0.5889
 8523SOL    HW233858   0.155   2.786   1.847  1.0792  1.5885 -2.3282
 8523SOL    HW333859   0.195   2.684   1.742  0.8149  0.8959 -1.7626
 8523SOL    MW433860   0.133   2.730   1.784  0.7601  0.1266 -0.9732
 8524SOL     OW33861   1.569   5.240   3.533  0.1359  0.1140 -0.0198
 8524SOL    HW233862   1.490   5.293   3.547  0.9213  0.9205  1.7303
 8524SOL    HW333863   1.623   5.292   3.474 -0.0481  0.2207 -0.0941
 8524SOL    MW433864   1.565   5.254   3.527  0.2153  0.2345  0.2013
 8525SOL     OW33865   4.528   5.864   6.024  0.3513  0.3520 -0.6064
 8525SOL    HW233866   4.504   5.951   6.056 -1.6819  0.0801 -1.2022
 8525SOL    HW333867   4.464   5.806   6.066  1.8029 -0.8969 -0.0601
 8525SOL    MW433868   4.516   5.868   6.034  0.2746  0.1513 -0.6130
 8526SOL     OW33869   3.951   3.209   1.283  0.2944 -0.5211 -0.0997
 8526SOL    HW233870   3.949   3.191   1.377 -0.6437 -0.1546 -0.0477
 8526SOL    HW333871   3.969   3.303   1.277 -1.1006 -0.2462 -0.2474
 8526SOL    MW433872   3.953   3.219   1.295 -0.0134 -0.4365 -0.1123
 8527SOL     OW33873   0.655   5.307   1.398  0.1839 -0.8720 -0.8443
 8527SOL    HW233874   0.652   5.236   1.335 -1.4793 -0.9595 -0.7145
 8527SOL    HW333875   0.580   5.291   1.456 -1.0333  1.6294 -1.5641
 8527SOL    MW433876   0.645   5.296   1.397 -0.1961 -0.5535 -0.9221
 8528SOL     OW33877   5.527   2.246   3.654 -0.1898  0.4613 -0.7806
 8528SOL    HW233878   5.434   2.267   3.651 -0.3182 -0.1337 -0.9804
 8528SOL    HW333879   5.561   2.278   3.571 -0.1317  1.0352 -0.5459
 8528SOL    MW433880   5.519   2.253   3.643 -0.1991  0.4585 -0.7760
 8529SOL     OW33881   3.858   0.561   5.517  0.1396  0.3948  0.2750
 8529SOL    HW233882   3.809   0.495   5.566  0.7559 -0.4324 -0.2167
 8529SOL    HW333883   3.855   0.639   5.573 -0.9657  0.0933  0.6599
 8529SOL    MW433884   3.851   0.563   5.531  0.0751  0.2459  0.2609
 8530SOL     OW33885   3.338   0.914   5.256 -0.2578 -0.2983 -0.2505
 8530SOL    HW233886   3.396   0.980   5.217 -0.8060  0.3734  0.0470
 8530SOL    HW333887   3.348   0.837   5.199  2.0802 -0.7477  0.6566
 8530SOL    MW433888   3.347   0.913   5.243 -0.0217 -0.2690 -0.0916
 8531SOL     OW33889   5.507   4.418   2.388 -0.4365 -0.2316 -0.0912
 8531SOL    HW233890   5.530   4.380   2.304  0.0163  0.1745 -0.1564
 8531SOL    HW333891   5.589   4.455   2.421 -0.5091 -0.7350  0.7150
 8531SOL    MW433892   5.521   4.418   2.381 -0.3863 -0.2444  0.0066
 8532SOL     OW33893   0.434   0.396   2.702  0.2021 -0.2665  0.2290
 8532SOL    HW233894   0.392   0.477   2.673 -0.6861 -0.5701  0.6624
 8532SOL    HW333895   0.512   0.426   2.748  1.0935  0.2713 -1.5174
 8532SOL    MW433896   0.439   0.411   2.704  0.2025 -0.2356  0.0557
 8533SOL     OW33897   6.001   6.217   4.812  0.2598  0.0202  0.1654
 8533SOL    HW233898   5.952   6.294   4.784 -1.5447 -1.4214 -0.8950
 8533SOL    HW333899   5.935   6.160   4.852  1.0544 -1.9341 -1.1463
 8533SOL    MW433900   5.986   6.219   4.814  0.1265 -0.4278 -0.1476
 8534SOL     OW33901   5.189   5.523   5.940 -0.0126  0.1083 -0.2243
 8534SOL    HW233902   5.159   5.613   5.956 -0.3356  0.0630 -0.5583
 8534SOL    HW333903   5.207   5.520   5.846  0.7129  0.0296 -0.0919
 8534SOL    MW433904   5.187   5.534   5.930  0.0405  0.0919 -0.2509
 8535SOL     OW33905   3.419   3.648   1.083  0.1718 -0.3704  0.1535
 8535SOL    HW233906   3.442   3.660   1.175  1.1799  0.9982 -0.2517
 8535SOL    HW333907   3.369   3.726   1.060  0.5840 -0.3277 -0.6514
 8535SOL    MW433908   3.415   3.660   1.092  0.3592 -0.1842 -0.0061
 8536SOL     OW33909   5.744   2.503   5.371 -0.0265 -0.3042 -0.4151
 8536SOL    HW233910   5.671   2.492   5.431 -0.2906 -0.4366 -0.7551
 8536SOL    HW333911   5.819   2.524   5.427 -0.6809  1.6499 -0.1766
 8536SOL    MW433912   5.744   2.505   5.386 -0.1477 -0.0638 -0.4285
 8537SOL     OW33913   3.763   5.583   5.314 -0.0413 -0.4802 -0.1306
 8537SOL    HW233914   3.767   5.676   5.289  0.8039 -0.6208 -0.5577
 8537SOL    HW333915   3.832   5.573   5.380  0.8475 -1.0944 -1.1170
 8537SOL    MW433916   3.773   5.594   5.319  0.1875 -0.5798 -0.3171
 8538SOL     OW33917   2.796   5.387   1.973 -0.2641 -0.1785 -0.2560
 8538SOL    HW233918   2.737   5.318   1.943 -0.6175  1.0458 -2.6469
 8538SOL    HW333919   2.739   5.463   1.989  0.3838  0.3377 -0.3417
 8538SOL    MW433920   2.781   5.388   1.971 -0.2253  0.0511 -0.5827
 8539SOL     OW33921   6.265   3.681   6.393  0.1338 -0.2604 -0.2195
 8539SOL    HW233922   6.226   3.606   6.437  0.7760  0.4271  1.5986
 8539SOL    HW333923   6.205   3.753   6.410  0.3139 -0.0122 -0.6085
 8539SOL    MW433924   6.252   3.681   6.401  0.2423 -0.1370 -0.0310
 8540SOL     OW33925   6.111   1.200   2.783 -0.2918  0.0357 -0.1734
 8540SOL    HW233926   6.185   1.145   2.809  0.3336  0.5035 -0.9109
 8540SOL    HW333927   6.132   1.286   2.820 -0.9460 -0.0537  0.4266
 8540SOL    MW433928   6.123   1.204   2.791 -0.2956  0.0856 -0.1916
 8541SOL     OW33929   5.166   6.172   4.339  0.1642  1.0078  0.0128
 8541SOL    HW233930   5.133   6.093   4.383  0.2118  1.3706  0.7129
 8541SOL    HW333931   5.132   6.245   4.391 -0.2765  1.4730 -0.9062
 8541SOL    MW433932   5.157   6.171   4.352  0.1123  1.1171 -0.0161
 8542SOL     OW33933   1.307   5.574   4.584  0.2425 -0.0082 -0.0883
 8542SOL    HW233934   1.381   5.576   4.644 -0.2104 -3.2658  0.7196
 8542SOL    HW333935   1.347   5.583   4.497  1.3517  0.1895  0.4203
 8542SOL    MW433936   1.322   5.576   4.580  0.3291 -0.4119  0.0854
 8543SOL     OW33937   4.427   2.882   5.606 -0.1961 -0.3546 -0.2402
 8543SOL    HW233938   4.492   2.813   5.594 -0.5075 -0.4125 -1.7392
 8543SOL    HW333939   4.476   2.955   5.643  0.4284 -0.8845  0.0024
 8543SOL    MW433940   4.442   2.883   5.609 -0.1548 -0.4321 -0.4060
 8544SOL     OW33941   3.034   3.238   2.060 -0.5753  0.2740 -0.1523
 8544SOL    HW233942   3.091   3.305   2.023 -0.7561 -0.3313 -1.6007
 8544SOL    HW333943   3.093   3.180   2.108 -0.1829  0.5085 -0.3480
 8544SOL    MW433944   3.049   3.239   2.061 -0.5474  0.2251 -0.3692
 8545SOL     OW33945   4.121   3.240   2.196 -0.0550 -0.1919 -0.2889
 8545SOL    HW233946   4.035   3.207   2.219  0.1075 -0.9002 -0.6673
 8545SOL    HW333947   4.115   3.263   2.103  0.0739  0.0602 -0.2374
 8545SOL    MW433948   4.109   3.239   2.187 -0.0166 -0.2521 -0.3320
 8546SOL     OW33949   1.330   5.616   5.601  0.3746 -0.3359 -0.2468
 8546SOL    HW233950   1.332   5.626   5.696  1.7054 -0.7485 -0.2094
 8546SOL    HW333951   1.258   5.672   5.572  1.8238  2.1973  0.7372
 8546SOL    MW433952   1.321   5.625   5.609  0.7414 -0.0561 -0.1121
 8547SOL     OW33953   4.253   1.965   5.816  0.4294 -0.3777  0.1522
 8547SOL    HW233954   4.295   2.039   5.772  0.0334 -1.2224 -1.7129
 8547SOL    HW333955   4.169   2.000   5.845  0.1379 -0.1376 -0.9343
 8547SOL    MW433956   4.248   1.980   5.814  0.3387 -0.4575 -0.2373
 8548SOL     OW33957   2.350   5.326   1.174 -0.6215 -0.5149  0.3603
 8548SOL    HW233958   2.359   5.421   1.183  3.8706 -0.5385 -1.5643
 8548SOL    HW333959   2.374   5.291   1.259 -1.0970  0.0171  0.7187
 8548SOL    MW433960   2.354   5.334   1.186 -0.0916 -0.4478  0.1536
 8549SOL     OW33961   5.433   3.799   2.968 -0.3364  0.2285  0.5819
 8549SOL    HW233962   5.459   3.714   3.004  1.7109  1.1029  1.3181
 8549SOL    HW333963   5.436   3.859   3.042 -1.2814  1.0579 -0.0205
 8549SOL    MW433964   5.437   3.795   2.982 -0.1909  0.4533  0.5996
 8550SOL     OW33965   5.268   6.120   2.002 -0.5052 -0.3174  0.6198
 8550SOL    HW233966   5.194   6.085   2.050  0.0818  0.0891  1.8612
 8550SOL    HW333967   5.324   6.160   2.069 -0.4796  1.7939 -0.5547
 8550SOL    MW433968   5.266   6.121   2.017 -0.4244  0.0148  0.6286
 8551SOL     OW33969   0.710   2.218   0.221 -0.0931  0.0030 -0.3760
 8551SOL    HW233970   0.623   2.213   0.262  0.6871 -0.6120  1.3202
 8551SOL    HW333971   0.741   2.306   0.244 -0.1208  0.0804 -0.6409
 8551SOL    MW433972   0.702   2.229   0.230  0.0062 -0.0679 -0.1872
 8552SOL     OW33973   0.480   0.666   1.340  0.2686  0.2639  0.2061
 8552SOL    HW233974   0.409   0.603   1.326  0.6067 -0.2753  0.8329
 8552SOL    HW333975   0.513   0.645   1.428  0.4544  1.2570  0.3774
 8552SOL    MW433976   0.475   0.655   1.350  0.3377  0.3237  0.3114
 8553SOL     OW33977   3.584   4.679   5.810 -0.2096  0.1843 -0.3778
 8553SOL    HW233978   3.519   4.633   5.758 -0.7931  2.0891 -1.4349
 8553SOL    HW333979   3.554   4.669   5.901 -2.2249  1.3192 -0.8684
 8553SOL    MW433980   3.571   4.672   5.815 -0.5525  0.5854 -0.5820
 8554SOL     OW33981   4.027   3.559   3.429 -0.2752 -0.1231  0.6551
 8554SOL    HW233982   4.027   3.474   3.386  0.8935  1.1018 -1.9793
 8554SOL    HW333983   4.015   3.539   3.522 -0.8891 -3.0693  0.0379
 8554SOL    MW433984   4.025   3.546   3.435 -0.2020 -0.3502  0.2261
 8555SOL     OW33985   3.200   1.670   3.450  0.6193  0.0594  0.0352
 8555SOL    HW233986   3.272   1.731   3.459  1.4141 -0.7569 -0.5908
 8555SOL    HW333987   3.160   1.692   3.366  1.2464 -0.6038 -0.4533
 8555SOL    MW433988   3.204   1.681   3.440  0.8069 -0.1358 -0.1118
 8556SOL     OW33989   2.346   5.279   4.272  0.4753 -0.1589 -0.5424
 8556SOL    HW233990   2.353   5.336   4.348 -1.5405 -1.7268  0.9426
 8556SOL    HW333991   2.289   5.327   4.212  0.5760  0.3208 -0.2577
 8556SOL    MW433992   2.339   5.293   4.274  0.2226 -0.3025 -0.3089
 8557SOL     OW33993   2.753   0.735   3.387 -0.2208 -0.3689  0.2516
 8557SOL    HW233994   2.677   0.719   3.444  1.0477  0.3762  2.2614
 8557SOL    HW333995   2.770   0.828   3.396  2.7250 -0.9603  2.3459
 8557SOL    MW433996   2.745   0.745   3.396  0.3352 -0.3487  0.7931
 8558SOL     OW33997   5.368   4.360   2.654 -0.4835  0.2163  0.5722
 8558SOL    HW233998   5.393   4.359   2.561 -1.1440  0.9904  0.3708
 8558SOL    HW333999   5.380   4.451   2.681 -1.9369  0.3762  0.7674
 8558SOL    MW434000   5.373   4.372   2.645 -0.7624  0.3395  0.5714
 8559SOL     OW34001   6.036   4.713   4.692 -0.0255  0.1167  0.8544
 8559SOL    HW234002   6.089   4.688   4.617 -0.5726 -0.0809  0.5299
 8559SOL    HW334003   6.005   4.801   4.671  0.1904  0.2413  1.0546
 8559SOL    MW434004   6.039   4.721   4.679 -0.0692  0.1070  0.8380
 8560SOL     OW34005   1.076   3.134   0.409 -0.0129  0.4595  0.9453
 8560SOL    HW234006   1.036   3.213   0.446  1.1589  1.9857 -0.8559
 8560SOL    HW334007   1.089   3.155   0.316 -1.3842 -2.5758 -0.0810
 8560SOL    MW434008   1.072   3.147   0.402 -0.0392  0.2604  0.5722
 8561SOL     OW34009   4.805   5.518   3.645 -0.3571  0.2192  0.2934
 8561SOL    HW234010   4.883   5.570   3.626 -0.1060 -0.1309  0.3483
 8561SOL    HW334011   4.739   5.582   3.671  0.1732  0.4407  1.1128
 8561SOL    MW434012   4.807   5.533   3.646 -0.2540  0.2022  0.4087
 8562SOL     OW34013   2.055   1.687   4.490 -0.6904 -0.1178 -0.0142
 8562SOL    HW234014   1.982   1.748   4.491 -0.6759 -0.0846  1.4715
 8562SOL    HW334015   2.088   1.690   4.400 -1.2795  1.3403 -0.2096
 8562SOL    MW434016   2.050   1.696   4.478 -0.7662  0.0790  0.1560
 8563SOL     OW34017   6.009   4.763   0.761  0.0863 -0.0622 -0.0400
 8563SOL    HW234018   6.043   4.676   0.780  2.0547  0.5808 -0.4156
 8563SOL    HW334019   5.971   4.792   0.844 -0.2810 -1.1312  0.1844
 8563SOL    MW434020   6.009   4.755   0.775  0.2976 -0.1184 -0.0599
 8564SOL     OW34021   3.954   2.050   0.917 -0.0329 -0.8326 -0.1046
 8564SOL    HW234022   4.016   1.978   0.927  0.7354 -0.9348 -3.8776
 8564SOL    HW334023   3.963   2.103   0.996  1.5478 -3.2477  1.4346
 8564SOL    MW434024   3.963   2.048   0.929  0.2771 -1.1647 -0.3993
 8565SOL     OW34025   3.127   5.497   6.142 -0.1772  0.3316 -0.0633
 8565SOL    HW234026   3.067   5.571   6.155 -0.5962 -0.0721  0.3373
 8565SOL    HW334027   3.206   5.536   6.106 -1.0015  0.7672 -1.4763
 8565SOL    MW434028   3.130   5.512   6.139 -0.3413  0.3358 -0.1969
 8566SOL     OW34029   1.738   5.570   0.078  0.3466 -0.2587 -0.0999
 8566SOL    HW234030   1.672   5.507   0.106 -1.7005  1.1084 -1.5483
 8566SOL    HW334031   1.788   5.590   0.157 -1.2247 -1.0754  1.1515
 8566SOL    MW434032   1.736   5.564   0.092 -0.1308 -0.1861 -0.1259
 8567SOL     OW34033   1.202   5.755   3.026 -0.0246  0.7144  0.1781
 8567SOL    HW234034   1.271   5.731   3.087  1.5555  0.3659 -1.6348
 8567SOL    HW334035   1.145   5.814   3.075  0.4244 -0.5480  2.3303
 8567SOL    MW434036   1.203   5.759   3.040  0.2431  0.5019  0.2228
 8568SOL     OW34037   6.098   2.861   5.019  0.3519 -0.3266  0.1548
 8568SOL    HW234038   6.062   2.890   5.103  0.2274 -0.5598  0.1823
 8568SOL    HW334039   6.191   2.885   5.024  0.2743 -0.0327  0.2205
 8568SOL    MW434040   6.106   2.868   5.031  0.3252 -0.3186  0.1671
 8569SOL     OW34041   2.777   0.172   1.451 -0.7325 -0.0467  0.1141
 8569SOL    HW234042   2.831   0.167   1.530 -0.9125  1.4158  0.3566
 8569SOL    HW334043   2.711   0.104   1.463  0.8804 -1.7195 -0.0908
 8569SOL    MW434044   2.775   0.162   1.463 -0.5434 -0.0745  0.1190
 8570SOL     OW34045   2.547   3.677   1.220 -0.6797 -0.3649 -0.2334
 8570SOL    HW234046   2.512   3.755   1.262  0.7555 -0.2784  0.8715
 8570SOL    HW334047   2.546   3.697   1.126  1.5161  1.8218  0.1244
 8570SOL    MW434048   2.543   3.690   1.213 -0.2006 -0.0650 -0.0404
 8571SOL     OW34049   0.114   5.830   6.068  0.1841 -0.5661 -0.4650
 8571SOL    HW234050   0.204   5.838   6.035 -0.3859 -2.4286 -2.6988
 8571SOL    HW334051   0.073   5.913   6.046  1.3452  0.3882  0.7464
 8571SOL    MW434052   0.121   5.842   6.061  0.2621 -0.6859 -0.5999
 8572SOL     OW34053   3.941   2.598   0.758 -0.0429 -0.3003  0.6287
 8572SOL    HW234054   4.026   2.584   0.717  0.0301 -0.1304  0.7235
 8572SOL    HW334055   3.929   2.522   0.815 -0.3048 -0.7244  0.0293
 8572SOL    MW434056   3.951   2.586   0.760 -0.0678 -0.3338  0.5621
 8573SOL     OW34057   6.307   5.473   5.587  0.2113  0.5324  0.2493
 8573SOL    HW234058   6.393   5.514   5.599  1.2021 -1.3670  0.0416
 8573SOL    HW334059   6.283   5.441   5.674  1.0897 -1.4198 -0.1725
 8573SOL    MW434060   6.315   5.474   5.600  0.4579  0.0242  0.1662
 8574SOL     OW34061   5.849   1.188   0.157 -0.3762 -0.2151  0.0465
 8574SOL    HW234062   5.860   1.114   0.097 -4.4136 -1.2786  0.2950
 8574SOL    HW334063   5.819   1.260   0.101 -0.4116 -0.0143  0.3212
 8574SOL    MW434064   5.847   1.188   0.142 -0.9136 -0.3289  0.1156
 8575SOL     OW34065   5.417   3.418   3.656  0.2391  0.3775 -0.1255
 8575SOL    HW234066   5.343   3.468   3.619 -0.5020 -0.0408  0.7439
 8575SOL    HW334067   5.468   3.484   3.703 -0.0316  0.5337 -0.0452
 8575SOL    MW434068   5.414   3.433   3.657  0.1056  0.3429 -0.0002
 8576SOL     OW34069   0.063   5.506   0.862 -0.3765  0.2530 -0.0052
 8576SOL    HW234070   0.091   5.490   0.772  2.6213 -0.8570  1.0322
 8576SOL    HW334071   0.119   5.577   0.892 -3.2128  2.5884  0.2559
 8576SOL    MW434072   0.074   5.514   0.854 -0.3552  0.4147  0.1661
 8577SOL     OW34073   5.213   5.891   5.428  0.6694  0.3321 -0.1436
 8577SOL    HW234074   5.293   5.919   5.473  1.3484  0.7086 -1.5359
 8577SOL    HW334075   5.208   5.947   5.351 -0.6674 -0.0482 -0.3504
 8577SOL    MW434076   5.223   5.902   5.424  0.5826  0.3316 -0.3546
 8578SOL     OW34077   1.869   0.890   0.215 -0.2195  0.2646  0.6845
 8578SOL    HW234078   1.773   0.895   0.212 -0.1805  1.1942  0.7434
 8578SOL    HW334079   1.891   0.819   0.154 -0.9460  0.0199  0.6983
 8578SOL    MW434080   1.859   0.881   0.206 -0.3102  0.3550  0.6941
 8579SOL     OW34081   3.894   1.619   5.567 -0.4532 -0.4784 -0.5140
 8579SOL    HW234082   3.909   1.525   5.556 -3.4882 -1.0729 -0.4574
 8579SOL    HW334083   3.959   1.647   5.632  0.2026 -2.6150 -0.1873
 8579SOL    MW434084   3.905   1.611   5.574 -0.7671 -0.8387 -0.4634
 8580SOL     OW34085   0.476   6.321   5.058  0.6372  0.1607 -0.1518
 8580SOL    HW234086   0.551   6.377   5.040  1.0763 -0.6690 -0.9959
 8580SOL    HW334087   0.401   6.371   5.025  0.9278  0.6003 -0.1570
 8580SOL    MW434088   0.476   6.335   5.051  0.7335  0.1093 -0.2639
 8581SOL     OW34089   4.935   3.722   2.857  0.1052 -0.2266 -0.1173
 8581SOL    HW234090   4.879   3.765   2.793  0.2176 -2.1948 -1.6266
 8581SOL    HW334091   4.876   3.700   2.929 -0.7758 -0.9046 -1.0141
 8581SOL    MW434092   4.919   3.725   2.858  0.0038 -0.5757 -0.4347
 8582SOL     OW34093   4.378   5.621   2.439 -0.3483  0.2960  0.0063
 8582SOL    HW234094   4.396   5.714   2.425  0.9001  0.1059  0.2251
 8582SOL    HW334095   4.283   5.617   2.454 -0.1618  1.8041  2.0327
 8582SOL    MW434096   4.368   5.632   2.439 -0.1590  0.4699  0.3025
 8583SOL     OW34097   5.061   6.333   2.126 -0.3053 -0.3553  0.1717
 8583SOL    HW234098   5.148   6.355   2.159 -0.0547 -1.1678  0.0569
 8583SOL    HW334099   5.031   6.262   2.182 -0.1366 -1.3194 -0.9241
 8583SOL    MW434100   5.069   6.327   2.137 -0.2499 -0.5897  0.0120
 8584SOL     OW34101   6.157   5.408   0.013  0.2799  0.3552  0.1483
 8584SOL    HW234102   6.247   5.438  -0.001 -0.0917  1.7233  0.5756
 8584SOL    HW334103   6.156   5.379   0.104  0.6753 -1.1699 -0.3034
 8584SOL    MW434104   6.169   5.408   0.023  0.2830  0.3345  0.1450
 8585SOL     OW34105   5.308   4.685   1.165  0.0321  0.1948 -0.0841
 8585SOL    HW234106   5.341   4.598   1.188 -0.7657 -0.4028 -1.1427
 8585SOL    HW334107   5.305   4.686   1.070 -1.4069  0.8144 -0.0668
 8585SOL    MW434108   5.312   4.674   1.156 -0.2630  0.1977 -0.2215
 8586SOL     OW34109   5.727   6.308   3.918 -0.4126 -0.1094 -0.3170
 8586SOL    HW234110   5.733   6.402   3.937  2.9490 -0.3699  0.5102
 8586SOL    HW334111   5.640   6.297   3.878 -0.5702  3.4708 -1.2996
 8586SOL    MW434112   5.716   6.319   3.915  0.0101  0.3286 -0.3375
 8587SOL     OW34113   5.500   1.552   4.664 -0.1257 -0.1998 -0.1810
 8587SOL    HW234114   5.441   1.623   4.685 -0.2582 -0.5374  0.6280
 8587SOL    HW334115   5.558   1.588   4.597  0.8875  1.2324  1.3857
 8587SOL    MW434116   5.500   1.566   4.658 -0.0095 -0.0554  0.1324
 8588SOL     OW34117   0.558   1.808   2.740  0.7174  0.6966  0.5353
 8588SOL    HW234118   0.648   1.828   2.765  0.3522  3.3316  0.0867
 8588SOL    HW334119   0.513   1.893   2.742 -0.9641  0.0207 -2.3412
 8588SOL    MW434120   0.564   1.822   2.743  0.4474  0.9551  0.0966
 8589SOL     OW34121   5.815   3.366   3.130 -0.4577  0.2564 -0.2213
 8589SOL    HW234122   5.812   3.270   3.125  0.8753  0.2358 -1.0758
 8589SOL    HW334123   5.806   3.395   3.039 -2.4279  1.0284  0.1788
 8589SOL    MW434124   5.813   3.357   3.117 -0.5418  0.3555 -0.2813
 8590SOL     OW34125   4.953   3.096   3.894 -0.1977  0.1526 -0.0148
 8590SOL    HW234126   4.895   3.117   3.966 -1.0594 -0.9612 -0.3522
 8590SOL    HW334127   5.034   3.066   3.936 -0.2912  0.5670  0.4668
 8590SOL    MW434128   4.956   3.095   3.909 -0.3238  0.0603  0.0042
 8591SOL     OW34129   2.544   3.494   2.384  0.7270  0.2513 -0.0488
 8591SOL    HW234130   2.576   3.511   2.473  2.9255 -0.7551 -0.6053
 8591SOL    HW334131   2.511   3.405   2.387 -0.0061  0.5150 -0.0494
 8591SOL    MW434132   2.544   3.485   2.396  0.9203  0.1533 -0.1223
 8592SOL     OW34133   0.769   6.266   5.318 -0.0354 -0.4154 -0.0063
 8592SOL    HW234134   0.843   6.312   5.356 -0.8661  0.9236  0.0842
 8592SOL    HW334135   0.751   6.313   5.237 -0.8847 -0.6071  0.0586
 8592SOL    MW434136   0.776   6.278   5.312 -0.2570 -0.2640  0.0142
 8593SOL     OW34137   1.599   3.366   2.902  0.1990 -0.4008 -0.3853
 8593SOL    HW234138   1.693   3.362   2.919  0.7233  4.2831 -0.8646
 8593SOL    HW334139   1.562   3.405   2.981 -1.6386 -3.1126  0.2266
 8593SOL    MW434140   1.607   3.371   2.915  0.0257 -0.1406 -0.3678
 8594SOL     OW34141   0.014   5.407   6.255 -0.4617 -0.2257 -0.3631
 8594SOL    HW234142   0.062   5.487   6.275 -0.8882 -0.2400  0.7920
 8594SOL    HW334143  -0.050   5.433   6.188 -2.0232  0.9554  1.4572
 8594SOL    MW434144   0.012   5.421   6.249 -0.7240 -0.0717  0.0295
 8595SOL     OW34145   2.534   6.188   0.549  0.3026  0.3743 -0.4870
 8595SOL    HW234146   2.518   6.273   0.509  0.7294  0.6926 -0.0085
 8595SOL    HW334147   2.582   6.138   0.483 -0.4456  0.3021 -0.9793
 8595SOL    MW434148   2.538   6.193   0.535  0.2602  0.4068 -0.4888
 8596SOL     OW34149   2.509   4.843   1.003  0.0140 -0.6575  0.6029
 8596SOL    HW234150   2.496   4.935   1.023  1.4027 -0.2345 -0.2951
 8596SOL    HW334151   2.439   4.798   1.050 -0.8542  0.8650  0.8246
 8596SOL    MW434152   2.498   4.849   1.012  0.0827 -0.4008  0.5137
 8597SOL     OW34153   4.943   5.908   1.587  0.1431  0.4911  0.1089
 8597SOL    HW234154   4.946   5.920   1.682 -0.5041 -1.1906  0.3782
 8597SOL    HW334155   4.851   5.923   1.564  0.3274  1.0400 -0.2724
 8597SOL    MW434156   4.931   5.911   1.597  0.0820  0.3416  0.0941
 8598SOL     OW34157   0.876   5.776   6.297 -0.1331 -0.4649 -0.2683
 8598SOL    HW234158   0.929   5.853   6.316 -1.0304  0.7286 -2.2740
 8598SOL    HW334159   0.932   5.720   6.244  0.9143 -1.8304  2.1028
 8598SOL    MW434160   0.890   5.779   6.293 -0.1133 -0.4876 -0.2201
 8599SOL     OW34161   3.276   3.939   0.036 -0.6965  0.3169  0.2711
 8599SOL    HW234162   3.327   3.981  -0.033 -1.0035  0.4736  0.1368
 8599SOL    HW334163   3.189   3.928  -0.002 -0.5600 -0.6755  0.2091
 8599SOL    MW434164   3.271   3.943   0.022 -0.7190  0.2066  0.2452
 8600SOL     OW34165   1.317   2.623   4.112 -0.0883 -0.0290  0.1590
 8600SOL    HW234166   1.279   2.663   4.190  0.4155 -1.6444  1.2853
 8600SOL    HW334167   1.311   2.528   4.128 -1.5481 -0.4892 -2.5297
 8600SOL    MW434168   1.311   2.615   4.125 -0.2145 -0.3029 -0.0472
 8601SOL     OW34169   2.992   0.298   5.099 -0.2907  0.7299  0.1169
 8601SOL    HW234170   2.988   0.393   5.083 -0.7667  0.5209 -1.0907
 8601SOL    HW334171   3.047   0.264   5.028 -1.2176 -0.0520 -0.2420
 8601SOL    MW434172   2.999   0.306   5.088 -0.4758  0.5992 -0.0898
 8602SOL     OW34173   1.514   6.333   2.719 -0.4476  0.1423  0.2913
 8602SOL    HW234174   1.608   6.353   2.710 -0.2836 -0.3532  0.8859
 8602SOL    HW334175   1.508   6.278   2.797 -1.0590 -1.0782 -0.5935
 8602SOL    MW434176   1.526   6.329   2.728 -0.5067 -0.0841  0.2530
 8603SOL     OW34177   5.545   1.398   2.689 -0.4285 -0.6342 -0.5756
 8603SOL    HW234178   5.459   1.437   2.675 -0.7628 -0.1131  2.3792
 8603SOL    HW334179   5.605   1.472   2.697 -0.0924 -0.9145 -0.4214
 8603SOL    MW434180   5.542   1.413   2.688 -0.4282 -0.6024 -0.1654
 8604SOL     OW34181   1.069   1.000   1.085 -0.1708  0.1774 -0.3389
 8604SOL    HW234182   1.159   1.012   1.117  1.3278  1.0227 -4.2686
 8604SOL    HW334183   1.029   1.086   1.093 -0.1494  0.1566  0.0386
 8604SOL    MW434184   1.076   1.013   1.091  0.0297  0.2862 -0.8076
 8605SOL     OW34185   4.864   3.277   2.830  0.1699 -0.4254 -0.7834
 8605SOL    HW234186   4.801   3.344   2.806 -0.0175 -1.1708 -2.5263
 8605SOL    HW334187   4.883   3.293   2.923 -0.6398  1.3666 -0.9008
 8605SOL    MW434188   4.858   3.288   2.839  0.0384 -0.2873 -1.0289
 8606SOL     OW34189   0.183   5.426   4.735  0.1144  0.4237 -0.0878
 8606SOL    HW234190   0.205   5.336   4.714  2.5244  0.7418  0.7835
 8606SOL    HW334191   0.220   5.477   4.663 -1.5236  0.7504 -0.7511
 8606SOL    MW434192   0.191   5.421   4.723  0.2162  0.5088 -0.0604
 8607SOL     OW34193   4.807   1.654   6.186  0.4680  0.2633 -0.2343
 8607SOL    HW234194   4.820   1.641   6.092 -0.1224  0.6526 -0.3769
 8607SOL    HW334195   4.727   1.705   6.192  0.8493  0.7980  0.4543
 8607SOL    MW434196   4.799   1.659   6.175  0.4404  0.3852 -0.1622
 8608SOL     OW34197   5.312   3.016   3.123 -0.0925 -0.0761 -0.2874
 8608SOL    HW234198   5.303   3.053   3.035  0.3074  1.4169  0.2772
 8608SOL    HW334199   5.361   3.081   3.172 -1.8209 -0.0707  1.5611
 8608SOL    MW434200   5.318   3.029   3.118 -0.2678  0.1216  0.0310
 8609SOL     OW34201   1.562   4.609   6.420  0.2207 -0.0701 -0.1889
 8609SOL    HW234202   1.561   4.547   6.347  1.5758 -1.4289  0.8756
 8609SOL    HW334203   1.479   4.594   6.465 -0.0881 -0.0841 -0.7559
 8609SOL    MW434204   1.551   4.599   6.416  0.3588 -0.2512 -0.1233
 8610SOL     OW34205   0.640   3.117   2.165  0.3493  0.0502  0.2164
 8610SOL    HW234206   0.630   3.208   2.138  0.8590  0.1093  0.2193
 8610SOL    HW334207   0.707   3.120   2.234  0.2818 -0.3081  0.2968
 8610SOL    MW434208   0.648   3.129   2.171  0.4076  0.0107  0.2274
 8611SOL     OW34209   0.727   0.269   4.000 -0.0613  0.0658  0.5982
 8611SOL    HW234210   0.783   0.340   3.967 -0.9311  0.5956  0.2460
 8611SOL    HW334211   0.638   0.300   3.987 -0.4524 -0.9013  0.8772
 8611SOL    MW434212   0.723   0.283   3.994 -0.2276  0.0081  0.5885
 8612SOL     OW34213   0.941   5.608   1.290  0.6059 -0.2961  0.2445
 8612SOL    HW234214   0.922   5.517   1.312  2.1147 -0.6559  0.1853
 8612SOL    HW334215   0.947   5.609   1.194  0.9025 -0.2062  0.2622
 8612SOL    MW434216   0.939   5.596   1.280  0.8441 -0.3317  0.2390
 8613SOL     OW34217   5.926   4.292   5.653  0.3455 -0.5868  0.1461
 8613SOL    HW234218   5.950   4.327   5.567  1.0282  1.3022  1.0330
 8613SOL    HW334219   5.831   4.282   5.650  0.3176 -0.1305 -0.6873
 8613SOL    MW434220   5.917   4.296   5.641  0.4319 -0.2773  0.1532
 8614SOL     OW34221   4.687   3.565   5.220  0.0776 -0.3981  0.0015
 8614SOL    HW234222   4.753   3.634   5.210  0.5223 -0.6444  1.1255
 8614SOL    HW334223   4.616   3.607   5.269  0.4953 -0.8180  0.9838
 8614SOL    MW434224   4.686   3.580   5.225  0.1914 -0.4860  0.2794
 8615SOL     OW34225   4.081   1.016   5.725 -0.3091  0.1576  0.0381
 8615SOL    HW234226   4.130   0.968   5.658 -1.6873 -0.3541 -0.6481
 8615SOL    HW334227   4.137   1.011   5.803 -0.0623 -1.9960 -0.1958
 8615SOL    MW434228   4.095   1.009   5.727 -0.4584 -0.1941 -0.0833
 8616SOL     OW34229   3.889   3.839   1.381  0.2442 -0.3760  0.2819
 8616SOL    HW234230   3.876   3.925   1.342 -0.0211 -0.1934  0.7647
 8616SOL    HW334231   3.973   3.808   1.346  0.2394 -0.0082 -0.0488
 8616SOL    MW434232   3.898   3.846   1.372  0.2086 -0.3034  0.3020
 8617SOL     OW34233   4.246   5.839   5.051  0.7091 -0.4414  0.1583
 8617SOL    HW234234   4.174   5.776   5.059  1.8678 -1.6989  1.1330
 8617SOL    HW334235   4.280   5.849   5.140  0.1408  2.1529  0.1740
 8617SOL    MW434236   4.241   5.832   5.063  0.7870 -0.2650  0.2890
 8618SOL     OW34237   2.894   2.226   5.309  0.4311  0.9080  0.2698
 8618SOL    HW234238   2.869   2.166   5.239 -1.3792  1.1533  0.6358
 8618SOL    HW334239   2.989   2.235   5.301  0.5398 -0.7447 -0.7749
 8618SOL    MW434240   2.903   2.219   5.299  0.2066  0.7223  0.1803
 8619SOL     OW34241   1.360   3.047   2.266 -0.1741  0.0300  0.0368
 8619SOL    HW234242   1.320   3.011   2.345 -0.4801  0.0109 -0.1266
 8619SOL    HW334243   1.290   3.048   2.202 -0.2111  1.0794  0.0855
 8619SOL    MW434244   1.346   3.042   2.268 -0.2194  0.1659  0.0217
 8620SOL     OW34245   3.714   3.917   3.392  0.0173 -0.1335  0.0992
 8620SOL    HW234246   3.681   3.827   3.393 -1.4235  0.3573 -0.9898
 8620SOL    HW334247   3.780   3.917   3.323  1.3320 -0.7543  1.2964
 8620SOL    MW434248   3.718   3.905   3.383  0.0007 -0.1506  0.1134
 8621SOL     OW34249   2.712   2.896   0.457  0.1499  0.2378  0.0296
 8621SOL    HW234250   2.778   2.863   0.518  1.0321  2.7119  0.5149
 8621SOL    HW334251   2.628   2.880   0.500  0.6087 -0.2157  0.7734
 8621SOL    MW434252   2.710   2.889   0.471  0.3268  0.5044  0.1918
 8622SOL     OW34253   0.309   2.897   5.242  0.1022  0.2156  0.1748
 8622SOL    HW234254   0.315   2.892   5.147  0.9435 -0.4109  0.2478
 8622SOL    HW334255   0.243   2.832   5.266 -2.1201  2.2204 -0.1394
 8622SOL    MW434256   0.301   2.888   5.233 -0.0800  0.3974  0.1430
 8623SOL     OW34257   2.882   2.291   1.523  0.2872 -0.4778 -0.1044
 8623SOL    HW234258   2.879   2.288   1.428  0.9364  0.2430 -0.1498
 8623SOL    HW334259   2.828   2.366   1.547  2.7951  1.4225 -0.0854
 8623SOL    MW434260   2.874   2.300   1.514  0.7037 -0.1319 -0.1079
 8624SOL     OW34261   6.099   3.622   5.401  0.2238  0.2206  0.1849
 8624SOL    HW234262   6.099   3.718   5.402 -1.5547  0.2348  0.6667
 8624SOL    HW334263   6.049   3.598   5.323  0.1125 -0.3103  0.4137
 8624SOL    MW434264   6.093   3.631   5.391 -0.0255  0.1524  0.2787
 8625SOL     OW34265   5.137   5.635   0.616 -0.0991 -0.5536  0.2523
 8625SOL    HW234266   5.107   5.632   0.525 -0.4371  1.6033  0.2251
 8625SOL    HW334267   5.228   5.605   0.613 -0.1671 -0.6768 -0.7772
 8625SOL    MW434268   5.145   5.631   0.603 -0.1526 -0.2853  0.1129
 8626SOL     OW34269   2.860   4.702   2.255 -0.2414  0.0894  0.5182
 8626SOL    HW234270   2.826   4.722   2.167  0.1350 -0.5138  0.2324
 8626SOL    HW334271   2.951   4.678   2.240  0.4288  1.9656  1.3159
 8626SOL    MW434272   2.868   4.702   2.241 -0.1033  0.2574  0.5858
 8627SOL     OW34273   3.298   3.648   0.099 -0.1279  0.3783 -0.6098
 8627SOL    HW234274   3.290   3.742   0.084 -1.5335 -0.0204 -2.7553
 8627SOL    HW334275   3.381   3.624   0.058  0.3277  0.6943  0.1122
 8627SOL    MW434276   3.308   3.657   0.092 -0.2532  0.3674 -0.7976
 8628SOL     OW34277   2.799   1.260   6.087 -0.0760  0.1000  0.2110
 8628SOL    HW234278   2.741   1.189   6.115  0.0551 -0.4135 -0.7987
 8628SOL    HW334279   2.800   1.255   5.992  1.0979  0.5274  0.1811
 8628SOL    MW434280   2.792   1.250   6.078  0.0962  0.0886  0.0738
 8629SOL     OW34281   5.068   1.608   5.742  0.4805 -0.3891  0.7510
 8629SOL    HW234282   5.064   1.679   5.679  0.7935 -0.6501  0.4301
 8629SOL    HW334283   5.121   1.642   5.814 -1.7198  0.7294  1.9650
 8629SOL    MW434284   5.074   1.622   5.743  0.2315 -0.2760  0.8688
 8630SOL     OW34285   3.111   3.212   1.764 -0.4831 -0.2115 -0.0980
 8630SOL    HW234286   3.031   3.180   1.806 -0.7331 -0.8557 -1.0363
 8630SOL    HW334287   3.088   3.299   1.731 -0.7743 -0.3599 -0.2907
 8630SOL    MW434288   3.097   3.219   1.766 -0.5545 -0.3161 -0.2472
 8631SOL     OW34289   4.151   5.407   2.703 -0.0841 -0.2890 -0.2010
 8631SOL    HW234290   4.226   5.456   2.737 -0.6165  0.8156 -0.5715
 8631SOL    HW334291   4.187   5.321   2.679  1.2176  0.4796 -1.1134
 8631SOL    MW434292   4.166   5.402   2.704  0.0174 -0.0419 -0.3702
 8632SOL     OW34293   1.349   4.286   4.622  0.0086  0.1807  0.1627
 8632SOL    HW234294   1.263   4.242   4.619 -0.2360  0.6620  0.0834
 8632SOL    HW334295   1.360   4.322   4.534  0.2927  0.1205  0.1740
 8632SOL    MW434296   1.339   4.285   4.610  0.0138  0.2362  0.1537
 8633SOL     OW34297   6.291   2.510   0.408  0.2030 -0.2735  0.4668
 8633SOL    HW234298   6.211   2.533   0.360 -1.1408 -1.9370  1.7480
 8633SOL    HW334299   6.279   2.550   0.494  0.9340 -0.2048  0.5374
 8633SOL    MW434300   6.279   2.518   0.413  0.1222 -0.4839  0.6452
 8634SOL     OW34301   4.320   4.642   1.062  0.3888 -0.2885 -0.1099
 8634SOL    HW234302   4.324   4.639   0.967 -1.0426  1.7916 -0.2943
 8634SOL    HW334303   4.340   4.733   1.084 -0.2012 -0.5226  1.5238
 8634SOL    MW434304   4.323   4.654   1.053  0.1221 -0.0449  0.0813
 8635SOL     OW34305   1.443   0.009   3.416  0.0314 -0.4047 -0.1077
 8635SOL    HW234306   1.418  -0.033   3.334  1.9691 -3.0456  0.5278
 8635SOL    HW334307   1.523   0.058   3.394 -1.1884  1.5556 -0.4200
 8635SOL    MW434308   1.450   0.010   3.402  0.1261 -0.4945 -0.0651
 8636SOL     OW34309   1.661   2.322   4.355 -0.4716  0.2087 -0.2085
 8636SOL    HW234310   1.747   2.358   4.377 -0.6287  0.0246  0.7543
 8636SOL    HW334311   1.605   2.349   4.428 -0.6673 -1.7061  0.4065
 8636SOL    MW434312   1.665   2.330   4.367 -0.5181 -0.0682 -0.0003
 8637SOL     OW34313   4.477   3.542   3.439 -0.1927 -0.2191  0.4786
 8637SOL    HW234314   4.416   3.604   3.397  0.2582 -0.5630 -0.7405
 8637SOL    HW334315   4.438   3.456   3.422  0.1533 -0.3832  0.5139
 8637SOL    MW434316   4.464   3.539   3.431 -0.0876 -0.2862  0.3224
 8638SOL     OW34317   1.331   1.704   1.358 -0.1489 -0.1719 -0.2956
 8638SOL    HW234318   1.380   1.662   1.429 -2.1606 -1.2867  0.5412
 8638SOL    HW334319   1.319   1.634   1.293  0.2120  0.3627 -0.9444
 8638SOL    MW434320   1.336   1.689   1.359 -0.3667 -0.2484 -0.2708
 8639SOL     OW34321   0.920   0.899   3.327 -0.4208  0.1318 -0.4638
 8639SOL    HW234322   0.844   0.953   3.306  0.3785  0.6644 -2.1350
 8639SOL    HW334323   0.945   0.858   3.244  0.8002 -0.4509  0.1592
 8639SOL    MW434324   0.913   0.901   3.313 -0.1542  0.1252 -0.6021
 8640SOL     OW34325   3.432   2.566   5.846 -0.3347 -0.2346  0.0624
 8640SOL    HW234326   3.406   2.558   5.937  0.6230 -0.6767  0.3117
 8640SOL    HW334327   3.369   2.513   5.797  0.0230 -1.2148  0.6365
 8640SOL    MW434328   3.421   2.558   5.851 -0.1612 -0.4222  0.1711
 8641SOL     OW34329   3.073   3.672   1.314  0.5394  0.4102 -0.1541
 8641SOL    HW234330   3.070   3.661   1.219  0.5749 -0.3638 -0.0700
 8641SOL    HW334331   2.981   3.681   1.340  0.4448 -0.4746 -0.1475
 8641SOL    MW434332   3.060   3.672   1.305  0.5316  0.1914 -0.1421
 8642SOL     OW34333   0.537   5.681   3.135  0.1106  0.3182  0.1782
 8642SOL    HW234334   0.455   5.688   3.085 -1.1916 -0.1665  2.1011
 8642SOL    HW334335   0.606   5.677   3.069 -1.5771 -1.4654 -1.6085
 8642SOL    MW434336   0.535   5.681   3.119 -0.2839  0.0189  0.1962
 8643SOL     OW34337   6.298   0.578   3.338 -0.2741 -0.3297 -0.0362
 8643SOL    HW234338   6.293   0.543   3.427  0.6849 -2.3135 -0.7025
 8643SOL    HW334339   6.332   0.506   3.285 -0.8499  0.7761 -2.0451
 8643SOL    MW434340   6.302   0.564   3.342 -0.2235 -0.4456 -0.3892
 8644SOL     OW34341   0.570   2.346   1.018 -0.1121 -0.1598 -1.1725
 8644SOL    HW234342   0.493   2.390   0.983 -1.0985 -0.6528  0.3215
 8644SOL    HW334343   0.538   2.262   1.051  1.0301 -0.3261 -0.3983
 8644SOL    MW434344   0.556   2.341   1.018 -0.0915 -0.2468 -0.8732
 8645SOL     OW34345   2.828   2.502   1.778  0.1580  0.0231  0.2053
 8645SOL    HW234346   2.847   2.517   1.871  0.3032 -0.7376  0.3079
 8645SOL    HW334347   2.796   2.586   1.746 -1.6714 -0.1424  1.3997
 8645SOL    MW434348   2.826   2.515   1.786 -0.0642 -0.0991  0.3764
 8646SOL     OW34349   6.075   3.429   5.620 -0.3651 -0.2178  0.5281
 8646SOL    HW234350   6.070   3.494   5.550  0.4540 -0.3753  0.3112
 8646SOL    HW334351   6.016   3.461   5.687 -1.4922 -0.2771 -0.4024
 8646SOL    MW434352   6.067   3.442   5.619 -0.4057 -0.2464  0.3768
 8647SOL     OW34353   5.822   0.227   1.120  0.2869 -0.6132 -0.1993
 8647SOL    HW234354   5.730   0.201   1.114 -0.0685  0.6914 -0.8126
 8647SOL    HW334355   5.829   0.303   1.063  2.1121 -1.5841 -1.3544
 8647SOL    MW434356   5.811   0.234   1.112  0.4809 -0.5692 -0.4326
 8648SOL     OW34357   5.958   0.396   4.725 -0.8495  0.2468 -0.1958
 8648SOL    HW234358   5.967   0.315   4.676 -1.1165  1.1966 -1.8938
 8648SOL    HW334359   5.917   0.370   4.808  0.8385 -1.5884  0.1326
 8648SOL    MW434360   5.954   0.382   4.730 -0.6620  0.1300 -0.3765
 8649SOL     OW34361   4.278   0.626   1.496 -0.2110  0.0427  0.1094
 8649SOL    HW234362   4.247   0.610   1.407  0.0306  2.3550 -0.4521
 8649SOL    HW334363   4.323   0.545   1.521 -1.3011 -1.0740 -1.3995
 8649SOL    MW434364   4.280   0.613   1.488 -0.3229  0.2005 -0.1638
 8650SOL     OW34365   3.147   3.600   2.168  0.0152  0.2661  0.6350
 8650SOL    HW234366   3.133   3.540   2.095  1.4741 -1.8874  2.0102
 8650SOL    HW334367   3.088   3.674   2.151 -4.0289 -2.7397  0.1715
 8650SOL    MW434368   3.137   3.602   2.156 -0.3259 -0.4146  0.7553
 8651SOL     OW34369   6.418   1.017   2.017 -0.1907  0.0192  0.0256
 8651SOL    HW234370   6.454   0.977   1.938  0.2022 -0.1874  0.3060
 8651SOL    HW334371   6.361   1.087   1.985 -0.2324 -0.2318 -0.4439
 8651SOL    MW434372   6.415   1.021   2.003 -0.1444 -0.0412  0.0007
 8652SOL     OW34373   2.867   2.539   0.259  0.3437  0.5188 -0.0668
 8652SOL    HW234374   2.874   2.632   0.239  1.3442  0.4407 -0.1273
 8652SOL    HW334375   2.869   2.535   0.355  0.7456  0.5229 -0.0769
 8652SOL    MW434376   2.868   2.550   0.269  0.5287  0.5091 -0.0761
 8653SOL     OW34377   2.481   5.835   1.947  0.2789  0.1193  0.0316
 8653SOL    HW234378   2.487   5.857   1.854 -1.4055 -1.1370 -0.4252
 8653SOL    HW334379   2.458   5.917   1.990 -0.5679  0.3904 -0.8967
 8653SOL    MW434380   2.479   5.848   1.940 -0.0550 -0.0107 -0.1511
 8654SOL     OW34381   2.616   0.077   6.414 -0.1263 -0.5286  0.0966
 8654SOL    HW234382   2.690   0.111   6.465  1.4236 -0.2677 -2.1643
 8654SOL    HW334383   2.563   0.154   6.393 -0.4247 -0.5473  0.7836
 8654SOL    MW434384   2.619   0.092   6.418  0.0388 -0.4966 -0.1110
 8655SOL     OW34385   2.940   4.407   2.762  0.3105 -0.1628 -0.2862
 8655SOL    HW234386   2.906   4.320   2.740 -0.8228  0.0172  0.6410
 8655SOL    HW334387   3.026   4.410   2.720  0.4483 -1.7935 -0.2110
 8655SOL    MW434388   2.947   4.396   2.753  0.1792 -0.3542 -0.1539
 8656SOL     OW34389   0.546   3.789   1.875  0.1915 -0.4448  0.0782
 8656SOL    HW234390   0.498   3.708   1.892 -2.4618  1.2617  1.3414
 8656SOL    HW334391   0.485   3.859   1.897  1.8511  1.9817 -2.3113
 8656SOL    MW434392   0.532   3.788   1.880  0.0604  0.1005 -0.0704
 8657SOL     OW34393   1.898   5.997   3.034 -0.0415  0.6698 -0.1143
 8657SOL    HW234394   1.874   6.089   3.021 -0.6672  0.9169  2.2812
 8657SOL    HW334395   1.990   6.001   3.061 -0.9710  1.0918  3.6021
 8657SOL    MW434396   1.907   6.010   3.036 -0.2467  0.7581  0.6921
 8658SOL     OW34397   5.577   1.866   0.822  0.4387  0.4160 -0.6931
 8658SOL    HW234398   5.563   1.956   0.852 -1.8616 -0.7128  2.1431
 8658SOL    HW334399   5.490   1.827   0.821  1.3137 -1.6797 -2.3102
 8658SOL    MW434400   5.564   1.872   0.826  0.2507 -0.0095 -0.5322
 8659SOL     OW34401   0.013   3.703   0.275  0.4696  0.0847  0.4828
 8659SOL    HW234402  -0.071   3.745   0.252  0.5663  0.3011  0.5181
 8659SOL    HW334403   0.058   3.768   0.329  1.3367  0.6202 -0.8437
 8659SOL    MW434404   0.008   3.717   0.279  0.5967  0.1839  0.3124
 8660SOL     OW34405   0.933   0.390   4.189 -0.0127 -0.0565  0.3147
 8660SOL    HW234406   0.981   0.471   4.207  1.9814 -1.3060  1.0135
 8660SOL    HW334407   0.907   0.398   4.097 -0.1178  1.4732  0.4436
 8660SOL    MW434408   0.936   0.402   4.180  0.2366 -0.0195  0.4239
 8661SOL     OW34409   6.255   5.159   3.350  0.4188  0.2921 -0.4598
 8661SOL    HW234410   6.210   5.080   3.381  0.1575  0.5235 -0.2496
 8661SOL    HW334411   6.230   5.166   3.258  0.2404  0.2703 -0.4133
 8661SOL    MW434412   6.245   5.149   3.342  0.3608  0.3197 -0.4259
 8662SOL     OW34413   1.594   4.173   5.609  0.1420  0.2027 -0.2556
 8662SOL    HW234414   1.530   4.238   5.580  2.0370  1.7550 -1.2484
 8662SOL    HW334415   1.542   4.096   5.633 -1.9198  0.5497 -3.1297
 8662SOL    MW434416   1.579   4.172   5.609  0.1200  0.4533 -0.7658
 8663SOL     OW34417   4.401   5.577   4.080 -0.2821 -0.2936 -0.1294
 8663SOL    HW234418   4.494   5.587   4.059 -0.0487 -0.3222  0.8396
 8663SOL    HW334419   4.390   5.622   4.163 -1.1772 -0.1739 -0.3009
 8663SOL    MW434420   4.412   5.584   4.088 -0.3694 -0.2816 -0.0242
 8664SOL     OW34421   6.163   0.611   4.224  0.0696  0.1431 -0.6878
 8664SOL    HW234422   6.155   0.516   4.226 -0.8824  0.2076 -1.0880
 8664SOL    HW334423   6.253   0.628   4.253  0.3832 -0.8942 -1.0033
 8664SOL    MW434424   6.174   0.601   4.228 -0.0146  0.0147 -0.7822
 8665SOL     OW34425   0.639   0.189   6.110 -0.0395 -0.1558  0.1915
 8665SOL    HW234426   0.674   0.145   6.033 -0.6597 -1.7302  0.7627
 8665SOL    HW334427   0.567   0.133   6.138 -0.2231  0.7247  1.5511
 8665SOL    MW434428   0.634   0.176   6.103 -0.1455 -0.2473  0.4462
 8666SOL     OW34429   5.497   1.529   1.476  0.7218  0.5948 -0.0847
 8666SOL    HW234430   5.477   1.623   1.476 -0.1954  0.4263 -1.4337
 8666SOL    HW334431   5.432   1.491   1.418  0.9733 -0.9230  0.5899
 8666SOL    MW434432   5.486   1.537   1.468  0.6339  0.3723 -0.1737
 8667SOL     OW34433   1.668   3.166   3.631 -0.5761  0.4428 -0.1352
 8667SOL    HW234434   1.695   3.248   3.590  0.8579 -0.1026 -0.3302
 8667SOL    HW334435   1.690   3.099   3.567 -1.1209 -0.1638  0.3030
 8667SOL    MW434436   1.674   3.168   3.617 -0.4588  0.2908 -0.1031
 8668SOL     OW34437   6.212   4.513   6.079 -0.2003 -0.0443  0.1075
 8668SOL    HW234438   6.226   4.442   6.142 -0.3657 -1.5503 -1.4898
 8668SOL    HW334439   6.170   4.471   6.005 -0.7094  1.8378 -0.7156
 8668SOL    MW434440   6.209   4.498   6.078 -0.2893  0.0053 -0.2118
 8669SOL     OW34441   4.150   4.266   6.066 -0.3425 -0.1898  0.2701
 8669SOL    HW234442   4.056   4.275   6.081 -0.1455  0.0176  1.4990
 8669SOL    HW334443   4.176   4.348   6.024 -1.0651 -1.1363 -2.2333
 8669SOL    MW434444   4.141   4.278   6.062 -0.4118 -0.2873  0.1019
 8670SOL     OW34445   3.368   3.720   5.894  0.6756  0.4915  0.4467
 8670SOL    HW234446   3.293   3.688   5.844  0.2604 -1.1447  2.0067
 8670SOL    HW334447   3.439   3.724   5.830 -0.4333  0.9909 -0.8161
 8670SOL    MW434448   3.367   3.716   5.879  0.4745  0.3415  0.4859
 8671SOL     OW34449   6.396   0.919   4.219 -0.0421 -0.2630 -0.2936
 8671SOL    HW234450   6.372   1.009   4.241  0.4011 -0.2053 -0.0283
 8671SOL    HW334451   6.369   0.908   4.128 -0.2724  0.0766 -0.2675
 8671SOL    MW434452   6.389   0.929   4.210 -0.0140 -0.2106 -0.2551
 8672SOL     OW34453   6.350   2.046   3.064 -0.6785 -0.1359  0.0609
 8672SOL    HW234454   6.310   2.064   2.978 -0.6889  0.3973  0.1731
 8672SOL    HW334455   6.328   2.123   3.117  1.7091  0.8923 -0.2967
 8672SOL    MW434456   6.342   2.059   3.059 -0.3648  0.0701  0.0285
 8673SOL     OW34457   1.957   5.429   4.079  0.2660  0.1737 -0.6243
 8673SOL    HW234458   2.010   5.362   4.036 -0.2319 -0.9301  0.4080
 8673SOL    HW334459   1.868   5.413   4.047 -0.1152 -0.6802  0.7571
 8673SOL    MW434460   1.952   5.418   4.069  0.1500 -0.0846 -0.3058
 8674SOL     OW34461   0.748   5.308   4.392 -0.4342 -0.1437 -0.0931
 8674SOL    HW234462   0.729   5.224   4.432  0.7429 -0.2676  0.2360
 8674SOL    HW334463   0.818   5.290   4.330 -2.0092  0.1037 -2.0491
 8674SOL    MW434464   0.754   5.295   4.389 -0.4867 -0.1274 -0.3077
 8675SOL     OW34465   5.580   4.994   2.818 -0.2614  0.3369 -0.1270
 8675SOL    HW234466   5.632   5.061   2.863 -1.9320  1.3312  0.4250
 8675SOL    HW334467   5.526   5.044   2.757 -0.6854 -0.6444 -0.5647
 8675SOL    MW434468   5.580   5.010   2.816 -0.5377  0.3386 -0.1119
 8676SOL     OW34469   0.511   5.024   1.986 -0.1427 -0.1095  0.4691
 8676SOL    HW234470   0.524   5.001   2.078 -0.0425 -0.8420  0.2780
 8676SOL    HW334471   0.597   5.052   1.956 -0.5366  1.9522  1.0673
 8676SOL    MW434472   0.524   5.025   1.994 -0.1814  0.0659  0.5228
 8677SOL     OW34473   5.744   6.118   6.305  0.5228  0.3339 -0.3712
 8677SOL    HW234474   5.814   6.116   6.370  0.4669  2.3410 -0.1931
 8677SOL    HW334475   5.664   6.104   6.356  0.7522 -3.0208 -0.7001
 8677SOL    MW434476   5.743   6.116   6.320  0.5457  0.1561 -0.3911
 8678SOL     OW34477   5.782   5.596   0.725  0.5026  0.2967 -0.0765
 8678SOL    HW234478   5.788   5.502   0.738 -0.5903 -0.2277 -2.7367
 8678SOL    HW334479   5.853   5.617   0.664 -0.6574  0.7454 -1.3189
 8678SOL    MW434480   5.792   5.587   0.719  0.2054  0.2867 -0.5914
 8679SOL     OW34481   3.856   2.221   1.155 -0.7503  0.1776 -0.3618
 8679SOL    HW234482   3.905   2.149   1.195 -0.3847  0.4486 -0.3225
 8679SOL    HW334483   3.774   2.180   1.125 -1.1506  0.0285  0.8989
 8679SOL    MW434484   3.851   2.206   1.156 -0.7549  0.1937 -0.1903
 8680SOL     OW34485   5.338   5.827   3.905 -0.0221 -0.2627 -0.2731
 8680SOL    HW234486   5.259   5.842   3.853 -0.9751 -0.4657  1.0808
 8680SOL    HW334487   5.378   5.750   3.866 -0.0042  0.3409 -1.5165
 8680SOL    MW434488   5.333   5.819   3.893 -0.1455 -0.2099 -0.2585
 8681SOL     OW34489   2.268   3.521   6.394 -0.1152 -0.0683 -0.2242
 8681SOL    HW234490   2.283   3.615   6.404  0.9988 -0.3222  0.7041
 8681SOL    HW334491   2.207   3.514   6.320 -0.8075  1.4120  0.1614
 8681SOL    MW434492   2.262   3.532   6.386 -0.0596  0.0935 -0.0509
 8682SOL     OW34493   6.404   4.470   1.958 -0.3674  0.4038 -0.5375
 8682SOL    HW234494   6.478   4.532   1.960  0.1935 -0.2372  1.9785
 8682SOL    HW334495   6.426   4.405   2.024 -2.3045 -0.9205 -1.1253
 8682SOL    MW434496   6.417   4.470   1.967 -0.5490  0.1445 -0.2831
 8683SOL     OW34497   0.536   0.993   5.097  0.2922  0.6790 -0.5721
 8683SOL    HW234498   0.539   0.981   5.192 -4.5669 -2.5180 -0.4880
 8683SOL    HW334499   0.617   0.952   5.065  1.0316 -0.1221  2.0858
 8683SOL    MW434500   0.547   0.986   5.105 -0.2513  0.1515 -0.2103
 8684SOL     OW34501   3.875   0.578   0.281  0.6663 -0.2314  0.1793
 8684SOL    HW234502   3.886   0.507   0.343 -0.1350 -1.3191 -0.8813
 8684SOL    HW334503   3.963   0.614   0.269  1.3667 -2.0176 -0.3720
 8684SOL    MW434504   3.888   0.574   0.287  0.6530 -0.6106 -0.0334
 8685SOL     OW34505   4.092   1.035   0.857 -0.2312  0.7262 -0.0557
 8685SOL    HW234506   4.157   1.098   0.891 -1.1732  1.9975 -0.5416
 8685SOL    HW334507   4.079   1.061   0.766  1.1254 -1.6963 -1.0507
 8685SOL    MW434508   4.099   1.047   0.849 -0.1765  0.5743 -0.2511
 8686SOL     OW34509   1.154   0.018   5.210 -0.2158  0.1705  0.0358
 8686SOL    HW234510   1.141   0.049   5.121 -0.4252  1.3678  0.4611
 8686SOL    HW334511   1.076   0.047   5.258  0.6323  1.0417  0.9668
 8686SOL    MW434512   1.142   0.026   5.205 -0.1315  0.4434  0.2148
 8687SOL     OW34513   5.793   2.695   0.856  0.2134  0.3371  0.3761
 8687SOL    HW234514   5.722   2.646   0.896 -0.2422 -0.8969 -1.7628
 8687SOL    HW334515   5.872   2.660   0.895 -0.1863 -1.1091 -0.0477
 8687SOL    MW434516   5.794   2.684   0.866  0.1005 -0.0166  0.0380
 8688SOL     OW34517   4.721   5.087   3.986 -0.3703 -0.0866 -0.3379
 8688SOL    HW234518   4.807   5.116   4.018 -1.3210 -1.0479  3.6612
 8688SOL    HW334519   4.673   5.168   3.970  0.7073  0.4627 -0.9012
 8688SOL    MW434520   4.726   5.101   3.988 -0.3535 -0.1409  0.1154
 8689SOL     OW34521   0.569   5.044   0.287  0.2699  0.2238 -0.5893
 8689SOL    HW234522   0.648   5.009   0.329  1.8098 -1.0480 -4.0708
 8689SOL    HW334523   0.507   4.971   0.288 -0.1506  0.5875  0.4624
 8689SOL    MW434524   0.572   5.030   0.292  0.4176  0.1040 -0.9099
 8690SOL     OW34525   6.375   2.860   5.945 -0.3893 -0.1781  0.0197
 8690SOL    HW234526   6.397   2.947   5.977 -0.1448 -0.3159  0.2375
 8690SOL    HW334527   6.387   2.865   5.850 -2.0322  0.4986 -0.1859
 8690SOL    MW434528   6.380   2.872   5.937 -0.5738 -0.1070  0.0213
 8691SOL     OW34529   5.670   5.038   5.547  0.0658 -0.5485 -0.0602
 8691SOL    HW234530   5.652   5.088   5.627  1.5699 -0.0699  0.0165
 8691SOL    HW334531   5.586   5.032   5.503 -0.0146  3.4086 -0.8363
 8691SOL    MW434532   5.657   5.044   5.552  0.2537  0.0367 -0.1525
 8692SOL     OW34533   3.854   0.404   0.765  0.7653 -0.0825  0.4327
 8692SOL    HW234534   3.764   0.436   0.775  0.8483  0.0649  0.7303
 8692SOL    HW334535   3.907   0.468   0.812  0.8334 -1.2274  2.0255
 8692SOL    MW434536   3.849   0.417   0.773  0.7852 -0.2141  0.6821
 8693SOL     OW34537   5.609   5.074   2.361 -0.3105 -0.6736 -0.3179
 8693SOL    HW234538   5.653   5.105   2.441  1.2784 -0.9916 -1.0324
 8693SOL    HW334539   5.520   5.109   2.368  0.4822  1.3342  0.4506
 8693SOL    MW434540   5.603   5.083   2.373  0.0038 -0.4507 -0.3108
 8694SOL     OW34541   0.943   2.577   6.241  0.1551 -0.2261 -0.7008
 8694SOL    HW234542   0.939   2.586   6.146 -0.5678  0.1455 -0.6443
 8694SOL    HW334543   1.034   2.595   6.264 -0.0866  1.6945 -1.1229
 8694SOL    MW434544   0.954   2.580   6.232  0.0279  0.0763 -0.7490
 8695SOL     OW34545   5.436   1.832   6.388  0.2995  0.6554 -0.2656
 8695SOL    HW234546   5.436   1.736   6.382 -1.3919  0.5997  0.0710
 8695SOL    HW334547   5.500   1.860   6.324  0.0284 -0.6805 -1.1617
 8695SOL    MW434548   5.444   1.823   6.379  0.0406  0.4718 -0.3394
 8696SOL     OW34549   0.760   5.059   1.876  0.1943 -0.7081  0.0895
 8696SOL    HW234550   0.837   5.051   1.932 -0.3935 -2.5248  0.7351
 8696SOL    HW334551   0.795   5.076   1.788  1.2601 -0.3377  0.5779
 8696SOL    MW434552   0.774   5.060   1.872  0.2573 -0.8989  0.2391
 8697SOL     OW34553   1.186   5.830   1.332  0.0215  0.3719 -0.3861
 8697SOL    HW234554   1.273   5.793   1.321 -0.6844 -0.7936 -2.5184
 8697SOL    HW334555   1.189   5.913   1.284  0.0040  0.4452 -0.2622
 8697SOL    MW434556   1.198   5.836   1.324 -0.0740  0.2278 -0.6511
 8698SOL     OW34557   1.320   0.837   1.362  0.0539  0.4699  0.1338
 8698SOL    HW234558   1.302   0.893   1.437 -1.2993  0.0624  0.1402
 8698SOL    HW334559   1.327   0.749   1.398  0.5506  0.4244 -0.0740
 8698SOL    MW434560   1.318   0.833   1.376 -0.0591  0.4101  0.1072
 8699SOL     OW34561   6.045   0.574   5.606 -0.3268  0.1239  0.0185
 8699SOL    HW234562   6.127   0.583   5.656 -0.7231 -2.2101  1.2447
 8699SOL    HW334563   5.987   0.640   5.642  0.4479  0.6047  0.4051
 8699SOL    MW434564   6.048   0.584   5.617 -0.2769 -0.1206  0.2313
 8700SOL     OW34565   4.246   3.850   1.455 -0.3492  0.3916 -0.2068
 8700SOL    HW234566   4.224   3.908   1.382 -0.0128  0.5752 -0.1600
 8700SOL    HW334567   4.318   3.796   1.423  0.4294  1.1027  0.2969
 8700SOL    MW434568   4.252   3.851   1.442 -0.2021  0.5096 -0.1341
 8701SOL     OW34569   3.568   6.161   1.896  0.3957 -0.0472  0.0457
 8701SOL    HW234570   3.518   6.084   1.922  0.1298  0.2171  0.3028
 8701SOL    HW334571   3.504   6.230   1.886  0.8582  0.6847  1.8182
 8701SOL    MW434572   3.553   6.160   1.898  0.4217  0.0842  0.3135
 8702SOL     OW34573   5.708   0.121   2.877  0.0444  0.0393  0.0419
 8702SOL    HW234574   5.742   0.186   2.938 -0.6952 -0.9580  1.5904
 8702SOL    HW334575   5.625   0.092   2.916  0.6996 -2.3496 -0.1787
 8702SOL    MW434576   5.701   0.126   2.890  0.0333 -0.4075  0.2171
 8703SOL     OW34577   0.079   3.466   0.153 -0.1803 -0.4199  0.1884
 8703SOL    HW234578  -0.008   3.440   0.122 -0.1507 -0.1612 -0.1131
 8703SOL    HW334579   0.068   3.554   0.188 -0.6913 -1.4817  2.9751
 8703SOL    MW434580   0.066   3.474   0.153 -0.2438 -0.5259  0.5163
 8704SOL     OW34581   1.453   4.466   3.293  0.5105 -0.3067 -0.4789
 8704SOL    HW234582   1.455   4.477   3.388  1.0681 -0.9595 -0.4015
 8704SOL    HW334583   1.521   4.526   3.261 -1.8467  2.3731 -0.7821
 8704SOL    MW434584   1.462   4.475   3.301  0.2731 -0.0392 -0.5087
 8705SOL     OW34585   2.943   2.825   0.624  0.1978  0.4025  0.0913
 8705SOL    HW234586   3.029   2.803   0.587  0.5357  1.8756 -0.0433
 8705SOL    HW334587   2.923   2.752   0.683  0.7238 -0.8262 -1.2073
 8705SOL    MW434588   2.952   2.812   0.627  0.3118  0.4347 -0.0978
 8706SOL     OW34589   0.341   1.593   4.994  0.8328  0.2675  0.2586
 8706SOL    HW234590   0.384   1.541   5.061  1.4091 -0.7630 -0.8631
 8706SOL    HW334591   0.265   1.631   5.038  0.5919 -1.2409  1.2299
 8706SOL    MW434592   0.337   1.591   5.008  0.8771 -0.0675  0.2388
 8707SOL     OW34593   0.453   3.544   2.015 -0.2466 -0.6140 -0.4652
 8707SOL    HW234594   0.376   3.528   1.962 -1.1994  2.7541 -0.3625
 8707SOL    HW334595   0.420   3.588   2.093  1.7089  0.9504 -0.4148
 8707SOL    MW434596   0.439   3.548   2.018 -0.1143  0.0368 -0.4450
 8708SOL     OW34597   0.139   6.069   4.238  0.3363  0.6826 -0.2456
 8708SOL    HW234598   0.086   5.996   4.269  0.0800  1.6318  1.7238
 8708SOL    HW334599   0.218   6.028   4.203 -0.0309 -0.5454  0.2986
 8708SOL    MW434600   0.142   6.054   4.237  0.2540  0.6458  0.0861
 8709SOL     OW34601   3.533   0.935   6.315  0.0958  0.4174 -0.0894
 8709SOL    HW234602   3.522   0.885   6.234  1.2702  1.8680 -1.1989
 8709SOL    HW334603   3.477   0.890   6.379 -2.1511  0.1885 -2.0995
 8709SOL    MW434604   3.524   0.922   6.313 -0.0457  0.5786 -0.5010
 8710SOL     OW34605   2.539   2.389   0.545 -0.2350 -0.0973  0.0678
 8710SOL    HW234606   2.587   2.319   0.589 -0.6343 -0.0440  0.6079
 8710SOL    HW334607   2.550   2.465   0.602 -1.1762 -0.1577  0.3508
 8710SOL    MW434608   2.547   2.390   0.559 -0.4119 -0.0982  0.1764
 8711SOL     OW34609   1.636   0.491   5.930  0.2372 -0.2988  0.6706
 8711SOL    HW234610   1.597   0.577   5.916 -0.2886 -0.4922  0.9375
 8711SOL    HW334611   1.639   0.452   5.842  2.8504  0.9592  0.0918
 8711SOL    MW434612   1.631   0.497   5.917  0.5126 -0.1583  0.6295
 8712SOL     OW34613   2.689   1.303   5.087  0.7924  0.3016  0.7543
 8712SOL    HW234614   2.683   1.260   5.172  3.3389  1.3369  1.5451
 8712SOL    HW334615   2.612   1.361   5.084  0.6465  0.2336  2.3400
 8712SOL    MW434616   2.678   1.305   5.098  1.1091  0.4292  1.0678
 8713SOL     OW34617   3.701   5.662   1.931  0.0831 -0.2771 -0.3857
 8713SOL    HW234618   3.666   5.703   1.852  1.2029 -0.7684 -1.1717
 8713SOL    HW334619   3.626   5.651   1.989 -0.4498  1.7617 -0.6295
 8713SOL    MW434620   3.687   5.666   1.928  0.1605 -0.0730 -0.5216
 8714SOL     OW34621   1.079   5.144   2.684 -0.6652  0.0886  0.1982
 8714SOL    HW234622   1.015   5.212   2.706  0.6524  1.6308 -0.4988
 8714SOL    HW334623   1.159   5.170   2.730  0.2040 -0.3112 -1.0198
 8714SOL    MW434624   1.081   5.157   2.693 -0.3767  0.2393 -0.0544
 8715SOL     OW34625   2.135   2.377   3.641 -0.0575 -0.1417  0.1663
 8715SOL    HW234626   2.156   2.296   3.686  0.9599 -1.5455 -2.6067
 8715SOL    HW334627   2.170   2.366   3.553 -1.0996  2.7778 -0.7515
 8715SOL    MW434628   2.143   2.365   3.636 -0.0608  0.0583 -0.3206
 8716SOL     OW34629   3.128   4.144   4.174  0.4733  0.0336  0.3607
 8716SOL    HW234630   3.126   4.211   4.106  1.1450  1.3582  1.5841
 8716SOL    HW334631   3.216   4.152   4.212  1.5008 -3.1842 -0.9941
 8716SOL    MW434632   3.139   4.154   4.170  0.6975 -0.2162  0.3434
 8717SOL     OW34633   4.150   4.762   5.073 -0.0919 -0.2575 -0.0561
 8717SOL    HW234634   4.213   4.810   5.127  0.7090 -1.1672 -0.1595
 8717SOL    HW334635   4.149   4.810   4.990  0.4351 -0.2037 -0.0379
 8717SOL    MW434636   4.158   4.775   5.069  0.0833 -0.3704 -0.0673
 8718SOL     OW34637   4.790   3.756   0.671 -0.1244 -0.7511  0.4030
 8718SOL    HW234638   4.855   3.781   0.605 -0.8713  0.2528  0.0133
 8718SOL    HW334639   4.796   3.661   0.676  0.5869 -0.7622 -0.4465
 8718SOL    MW434640   4.800   3.747   0.663 -0.1291 -0.6201  0.2395
 8719SOL     OW34641   1.309   2.432   0.798  0.2050  0.5047 -0.0143
 8719SOL    HW234642   1.263   2.509   0.832 -0.0100  0.3520  0.0423
 8719SOL    HW334643   1.267   2.413   0.715  0.5661  0.7265 -0.2510
 8719SOL    MW434644   1.298   2.440   0.792  0.2242  0.5138 -0.0380
 8720SOL     OW34645   2.021   4.501   4.400  0.1058 -0.3666  0.6813
 8720SOL    HW234646   1.957   4.445   4.444 -1.9820  0.5239 -1.0012
 8720SOL    HW334647   2.039   4.570   4.463 -0.2786 -0.8572  1.3453
 8720SOL    MW434648   2.015   4.503   4.414 -0.2204 -0.3139  0.5469
 8721SOL     OW34649   6.062   2.409   2.519  0.1234 -0.0429 -0.3619
 8721SOL    HW234650   6.004   2.483   2.535 -1.3002 -1.1595 -0.1624
 8721SOL    HW334651   6.033   2.341   2.580  0.8168 -1.0720 -1.1265
 8721SOL    MW434652   6.050   2.409   2.529  0.0271 -0.3260 -0.4364
 8722SOL     OW34653   0.587   5.123   4.111  0.3679 -0.1488 -0.3191
 8722SOL    HW234654   0.560   5.164   4.029  0.5719 -1.9681 -1.3464
 8722SOL    HW334655   0.509   5.129   4.167 -1.1104 -2.0975 -1.9703
 8722SOL    MW434656   0.573   5.129   4.108  0.1997 -0.6460 -0.6725
 8723SOL     OW34657   1.229   4.771   0.104  0.3052  0.1657  0.4368
 8723SOL    HW234658   1.256   4.681   0.124  2.8291  1.0915  1.6389
 8723SOL    HW334659   1.242   4.780   0.010  1.2335 -0.3975  0.4983
 8723SOL    MW434660   1.234   4.760   0.095  0.7607  0.2135  0.6035
 8724SOL     OW34661   5.675   3.937   4.740 -0.3243 -0.5287  0.4546
 8724SOL    HW234662   5.714   4.024   4.738 -1.7873  0.2154 -2.5266
 8724SOL    HW334663   5.634   3.931   4.826  0.1334  1.5921  0.8865
 8724SOL    MW434664   5.675   3.948   4.751 -0.4569 -0.1507  0.1183
 8725SOL     OW34665   3.927   0.191   0.113  1.0600  0.0589  0.3578
 8725SOL    HW234666   3.911   0.131   0.040  0.8798 -0.3636  0.7396
 8725SOL    HW334667   4.016   0.223   0.099  1.0306 -0.0330 -0.0399
 8725SOL    MW434668   3.936   0.187   0.102  1.0324 -0.0090  0.3557
 8726SOL     OW34669   5.459   2.421   1.864  0.2766 -0.3141  0.2280
 8726SOL    HW234670   5.430   2.468   1.786 -1.3616  0.4583  1.2456
 8726SOL    HW334671   5.474   2.331   1.833 -1.2084 -0.2394 -0.8234
 8726SOL    MW434672   5.457   2.415   1.849 -0.1355 -0.2023  0.2235
 8727SOL     OW34673   5.543   5.423   2.690 -0.2008  0.1355 -0.0380
 8727SOL    HW234674   5.473   5.419   2.756 -1.0803  0.2202 -0.9370
 8727SOL    HW334675   5.512   5.366   2.620  0.5549  0.3428 -0.5480
 8727SOL    MW434676   5.529   5.415   2.690 -0.2171  0.1740 -0.2239
 8728SOL     OW34677   1.972   0.079   1.273 -0.1912  0.4667 -0.1951
 8728SOL    HW234678   2.012   0.153   1.318 -1.8200  0.6165  1.0969
 8728SOL    HW334679   1.883   0.108   1.253 -1.3305 -1.5628  1.5816
 8728SOL    MW434680   1.965   0.093   1.276 -0.5564  0.2187  0.2097
 8729SOL     OW34681   3.070   1.518   4.182 -0.3443 -0.1018  0.8311
 8729SOL    HW234682   3.103   1.456   4.247 -2.4282 -0.5444  1.5465
 8729SOL    HW334683   3.068   1.602   4.227 -0.9997 -0.2487  1.0881
 8729SOL    MW434684   3.074   1.521   4.196 -0.7057 -0.1796  0.9594
 8730SOL     OW34685   1.660   6.025   4.022 -0.3666 -0.2320  0.5649
 8730SOL    HW234686   1.645   6.115   3.993 -0.3850 -0.4248 -0.0448
 8730SOL    HW334687   1.732   6.031   4.085 -2.0175  0.5255  2.4623
 8730SOL    MW434688   1.668   6.038   4.026 -0.5869 -0.1575  0.7348
 8731SOL     OW34689   3.930   2.049   4.434  0.0207  0.5784  0.0307
 8731SOL    HW234690   3.898   1.959   4.431  1.1361  0.1332  0.9114
 8731SOL    HW334691   3.856   2.100   4.468 -1.2041  0.3120 -2.0391
 8731SOL    MW434692   3.916   2.044   4.438  0.0063  0.4845 -0.1262
 8732SOL     OW34693   5.388   2.768   1.140 -0.0711  0.5289  0.0230
 8732SOL    HW234694   5.317   2.813   1.186 -0.7956 -1.5503  1.0660
 8732SOL    HW334695   5.468   2.793   1.188 -0.4916  0.4656  0.7676
 8732SOL    MW434696   5.389   2.778   1.153 -0.2221  0.2462  0.2588
 8733SOL     OW34697   4.704   1.495   2.914 -0.0414  0.0512  0.3144
 8733SOL    HW234698   4.692   1.565   2.978  0.2706  1.1768 -0.8335
 8733SOL    HW334699   4.627   1.501   2.856  1.3400  1.3105 -1.4868
 8733SOL    MW434700   4.692   1.505   2.915  0.1820  0.3658 -0.0747
 8734SOL     OW34701   2.871   0.462   5.745  0.2974  0.6379  0.1517
 8734SOL    HW234702   2.863   0.485   5.838 -2.8562  0.4778  0.0088
 8734SOL    HW334703   2.877   0.546   5.700  1.6564  0.7214  0.4445
 8734SOL    MW434704   2.871   0.476   5.751  0.0606  0.6278  0.1715
 8735SOL     OW34705   0.812   3.259   4.213 -0.0272 -0.6352  0.0131
 8735SOL    HW234706   0.770   3.239   4.297 -1.9500 -0.4462 -0.8490
 8735SOL    HW334707   0.819   3.355   4.213  2.4045 -0.7475  1.0205
 8735SOL    MW434708   0.807   3.269   4.224  0.0399 -0.6250  0.0323
 8736SOL     OW34709   3.389   1.150   6.218 -0.0776  0.1676 -0.3866
 8736SOL    HW234710   3.428   1.083   6.274 -0.9797 -0.1700 -0.1524
 8736SOL    HW334711   3.463   1.207   6.195  0.4297 -0.0670  0.5975
 8736SOL    MW434712   3.404   1.149   6.222 -0.1297  0.0921 -0.2259
 8737SOL     OW34713   0.384   1.780   0.427 -0.0202  0.3892 -0.8691
 8737SOL    HW234714   0.470   1.812   0.455 -0.7562 -0.1510  2.4100
 8737SOL    HW334715   0.346   1.854   0.379  1.0572  1.8220  0.3783
 8737SOL    MW434716   0.390   1.794   0.424  0.0248  0.5070 -0.2719
 8738SOL     OW34717   4.668   4.634   1.707 -0.5263  0.2492 -0.7254
 8738SOL    HW234718   4.681   4.728   1.690 -0.0894  0.1044 -1.2131
 8738SOL    HW334719   4.697   4.591   1.627  0.4281 -0.3774 -0.0555
 8738SOL    MW434720   4.673   4.641   1.694 -0.3427  0.1474 -0.7014
 8739SOL     OW34721   0.858   0.566   2.422  0.4977  0.2248  0.4015
 8739SOL    HW234722   0.852   0.551   2.328 -2.4156 -0.4213  0.6126
 8739SOL    HW334723   0.874   0.480   2.460  2.8699  0.6428  0.5022
 8739SOL    MW434724   0.859   0.553   2.415  0.4263  0.1947  0.4426
 8740SOL     OW34725   5.695   2.060   4.791 -0.4645 -0.0768 -0.1183
 8740SOL    HW234726   5.771   2.050   4.849 -0.2127  1.0916 -0.2054
 8740SOL    HW334727   5.708   2.146   4.751 -0.6021 -0.8863 -1.9670
 8740SOL    MW434728   5.707   2.070   4.794 -0.4494 -0.0295 -0.3737
 8741SOL     OW34729   0.928   3.382   0.420  0.1368  0.4124  0.0911
 8741SOL    HW234730   0.860   3.347   0.364 -0.1862  1.7817 -0.4138
 8741SOL    HW334731   0.971   3.450   0.367  1.3070  0.1895  0.7118
 8741SOL    MW434732   0.925   3.387   0.406  0.2486  0.5637  0.1064
 8742SOL     OW34733   1.995   4.795   2.862  0.7932 -0.7195  0.2041
 8742SOL    HW234734   1.912   4.754   2.886  0.2446  0.4352  0.2998
 8742SOL    HW334735   2.015   4.854   2.935  0.8403  0.2671 -0.5936
 8742SOL    MW434736   1.987   4.797   2.875  0.7270 -0.4370  0.1115
 8743SOL     OW34737   4.052   1.777   3.859  0.1842 -0.3464  0.3982
 8743SOL    HW234738   4.000   1.825   3.795 -2.5656 -3.1107  0.3426
 8743SOL    HW334739   4.047   1.830   3.939 -0.5288  0.6856 -0.3032
 8743SOL    MW434740   4.045   1.790   3.861 -0.2727 -0.5749  0.2983
 8744SOL     OW34741   0.018   0.056   5.494  0.0827 -0.2801 -0.2168
 8744SOL    HW234742   0.049   0.048   5.403 -0.9537  0.4678 -0.6601
 8744SOL    HW334743  -0.028  -0.026   5.511  0.5671 -0.5606 -0.2517
 8744SOL    MW434744   0.016   0.044   5.484  0.0099 -0.2184 -0.2799
 8745SOL     OW34745   5.523   3.174   5.441  0.3653  0.1747  0.0355
 8745SOL    HW234746   5.568   3.259   5.439 -0.8128  0.8327  0.0947
 8745SOL    HW334747   5.593   3.110   5.451  1.3175  1.1150 -0.3273
 8745SOL    MW434748   5.538   3.177   5.442  0.3355  0.3856 -0.0046
 8746SOL     OW34749   2.445   2.963   5.876  0.3177  0.5754  0.4549
 8746SOL    HW234750   2.393   3.031   5.920  1.0203  0.0481  2.1943
 8746SOL    HW334751   2.535   2.980   5.903  0.4412 -1.3749  1.4410
 8746SOL    MW434752   2.450   2.974   5.886  0.4267  0.2485  0.8145
 8747SOL     OW34753   3.436   0.587   1.230 -0.1315  0.0671  0.0705
 8747SOL    HW234754   3.409   0.675   1.258 -0.6914  0.1845 -0.8117
 8747SOL    HW334755   3.354   0.545   1.203 -0.0941 -1.2429  1.8231
 8747SOL    MW434756   3.421   0.593   1.230 -0.2004 -0.0903  0.1854
 8748SOL     OW34757   1.903   0.841   0.899  0.3149 -0.5284  0.5575
 8748SOL    HW234758   1.958   0.875   0.828 -0.0162 -1.1716 -0.0245
 8748SOL    HW334759   1.940   0.754   0.918 -0.0161 -0.6374  0.7073
 8748SOL    MW434760   1.915   0.834   0.892  0.2275 -0.6276  0.5004
 8749SOL     OW34761   0.856   0.107   4.323 -0.0075  0.3311 -0.2570
 8749SOL    HW234762   0.918   0.072   4.259 -0.2509  0.1806 -0.4160
 8749SOL    HW334763   0.781   0.135   4.270  0.0372  0.7615 -0.0930
 8749SOL    MW434764   0.854   0.106   4.307 -0.0337  0.3681 -0.2563
 8750SOL     OW34765   3.389   1.218   0.380  1.0000 -0.4606 -0.5694
 8750SOL    HW234766   3.391   1.218   0.476  1.9002  1.0929 -0.5613
 8750SOL    HW334767   3.313   1.165   0.358  0.2439 -0.1045  1.0290
 8750SOL    MW434768   3.379   1.211   0.390  1.0190 -0.2087 -0.3574
 8751SOL     OW34769   0.830   4.227   2.710  0.0621 -0.0213 -0.0526
 8751SOL    HW234770   0.833   4.133   2.722 -0.3580 -0.0104  0.1567
 8751SOL    HW334771   0.857   4.241   2.620 -1.2902 -0.4547 -0.5454
 8751SOL    MW434772   0.834   4.217   2.700 -0.1718 -0.0771 -0.0900
 8752SOL     OW34773   3.989   4.081   2.135 -0.0609  0.1597 -0.1511
 8752SOL    HW234774   3.978   4.043   2.048 -0.1758  1.5528 -0.7868
 8752SOL    HW334775   4.001   4.006   2.194 -0.4779 -0.8263 -1.2884
 8752SOL    MW434776   3.989   4.066   2.131 -0.1311  0.2134 -0.3850
 8753SOL     OW34777   1.688   1.960   6.035  0.0821 -0.0565 -0.3723
 8753SOL    HW234778   1.728   2.047   6.037  2.0669 -0.8141 -2.3018
 8753SOL    HW334779   1.597   1.974   6.062  0.6614  2.3901  0.5634
 8753SOL    MW434780   1.681   1.974   6.039  0.4204  0.1663 -0.5034
 8754SOL     OW34781   0.897   4.506   1.570  0.6837  0.3661  0.2696
 8754SOL    HW234782   0.944   4.453   1.633  0.2915 -0.5775 -0.2186
 8754SOL    HW334783   0.946   4.498   1.489 -0.2918 -0.6518 -0.2517
 8754SOL    MW434784   0.909   4.498   1.568  0.5032  0.1073  0.1364
 8755SOL     OW34785   1.993   2.589   0.848  0.0257  0.3946 -0.5476
 8755SOL    HW234786   1.994   2.633   0.933 -0.2788  0.5921 -0.6428
 8755SOL    HW334787   1.974   2.659   0.785 -2.4665 -0.1772 -0.5148
 8755SOL    MW434788   1.991   2.604   0.851 -0.3433  0.3452 -0.5558
 8756SOL     OW34789   4.617   5.202   5.743 -0.7161 -0.5783  0.2612
 8756SOL    HW234790   4.691   5.260   5.728 -0.4067 -0.9020  0.5057
 8756SOL    HW334791   4.647   5.116   5.712 -0.7901 -0.8260  0.8657
 8756SOL    MW434792   4.631   5.198   5.737 -0.6850 -0.6537  0.3732
 8757SOL     OW34793   4.526   4.390   4.615 -0.0522  0.1600 -0.1366
 8757SOL    HW234794   4.505   4.455   4.547  1.3593 -1.0361 -1.8014
 8757SOL    HW334795   4.496   4.431   4.696 -2.6548  1.2682 -1.5263
 8757SOL    MW434796   4.520   4.404   4.616 -0.2093  0.1484 -0.5396
 8758SOL     OW34797   4.696   4.169   2.564 -0.0192 -0.3885  0.2594
 8758SOL    HW234798   4.611   4.211   2.550 -1.8786 -3.5954  1.0474
 8758SOL    HW334799   4.694   4.139   2.655  1.3557 -1.8243 -0.1387
 8758SOL    MW434800   4.685   4.171   2.574 -0.0831 -1.0011  0.3108
 8759SOL     OW34801   5.818   0.195   3.329  0.3790 -0.0323 -0.4590
 8759SOL    HW234802   5.781   0.220   3.413 -0.6804  0.0749 -0.9368
 8759SOL    HW334803   5.824   0.099   3.332  0.6372 -0.0069 -0.1495
 8759SOL    MW434804   5.814   0.186   3.340  0.2733 -0.0148 -0.4812
 8760SOL     OW34805   0.589   4.599   0.895 -0.0340  0.4140  0.0130
 8760SOL    HW234806   0.505   4.645   0.900 -0.5769 -0.3923 -1.2827
 8760SOL    HW334807   0.654   4.669   0.897 -0.7635  1.1054  0.1914
 8760SOL    MW434808   0.587   4.615   0.896 -0.2019  0.3989 -0.1344
 8761SOL     OW34809   1.500   3.767   0.225 -0.4242 -0.0559 -0.3439
 8761SOL    HW234810   1.583   3.740   0.265 -1.3444 -1.8270  0.4934
 8761SOL    HW334811   1.443   3.786   0.300 -0.9192  0.7118 -0.9027
 8761SOL    MW434812   1.503   3.766   0.241 -0.6109 -0.1883 -0.3072
 8762SOL     OW34813   3.461   5.945   0.264 -0.6698 -0.4548 -0.0048
 8762SOL    HW234814   3.469   5.995   0.345  0.3095 -0.5796 -0.0200
 8762SOL    HW334815   3.453   6.012   0.195  2.5128 -0.1896 -0.2486
 8762SOL    MW434816   3.461   5.961   0.265 -0.1207 -0.4363 -0.0390
 8763SOL     OW34817   1.406   4.963   6.162 -0.1282  0.3192  0.0106
 8763SOL    HW234818   1.483   4.919   6.198 -0.0526 -0.0704 -0.6092
 8763SOL    HW334819   1.372   5.015   6.235 -0.5756 -1.2306  0.9495
 8763SOL    MW434820   1.412   4.964   6.177 -0.1773  0.0633  0.0527
 8764SOL     OW34821   1.022   3.609   4.313 -0.2525 -0.6424 -0.0283
 8764SOL    HW234822   1.103   3.591   4.265 -0.9427 -0.6919 -1.2131
 8764SOL    HW334823   1.012   3.533   4.371  1.5859  0.3079  1.6440
 8764SOL    MW434824   1.031   3.596   4.314 -0.1010 -0.5236  0.0360
 8765SOL     OW34825   4.467   1.055   5.283 -0.2944  0.0583  0.3704
 8765SOL    HW234826   4.385   1.025   5.244 -0.4297 -0.0028  0.7065
 8765SOL    HW334827   4.528   0.982   5.270  0.7273  1.3025 -2.9584
 8765SOL    MW434828   4.464   1.041   5.276 -0.1775  0.2144 -0.0244
 8766SOL     OW34829   6.184   4.174   0.395 -0.0984  0.2163  0.7362
 8766SOL    HW234830   6.274   4.198   0.418 -0.4371  2.7092 -0.2328
 8766SOL    HW334831   6.132   4.204   0.469 -0.4204  1.5632 -0.0134
 8766SOL    MW434832   6.189   4.181   0.408 -0.1856  0.7229  0.5094
 8767SOL     OW34833   1.968   5.710   5.124 -0.2144  0.2327  0.3633
 8767SOL    HW234834   2.048   5.697   5.175  0.3907  2.6121  0.1357
 8767SOL    HW334835   1.902   5.734   5.189  0.1696  1.7359  0.2257
 8767SOL    MW434836   1.970   5.711   5.139 -0.0839  0.7449  0.3151
 8768SOL     OW34837   5.935   6.268   0.320  0.1838  0.2222  0.8925
 8768SOL    HW234838   5.877   6.342   0.336  0.3138  0.2530  1.2180
 8768SOL    HW334839   6.023   6.302   0.335  0.3382  0.3357 -0.1886
 8768SOL    MW434840   5.939   6.282   0.324  0.2213  0.2412  0.7928
 8769SOL     OW34841   4.952   5.851   5.485  0.1415  0.2721  0.3143
 8769SOL    HW234842   5.045   5.856   5.463  0.0282 -0.0271 -0.2380
 8769SOL    HW334843   4.947   5.781   5.551  0.1506 -0.5790 -0.5643
 8769SOL    MW434844   4.964   5.842   5.491  0.1277  0.1204  0.1255
 8770SOL     OW34845   4.513   4.056   0.452 -0.2322 -0.3652  0.0429
 8770SOL    HW234846   4.487   4.144   0.424  0.8873 -0.1866 -0.5301
 8770SOL    HW334847   4.579   4.030   0.388  2.9747  0.3304  2.7349
 8770SOL    MW434848   4.519   4.064   0.440  0.3386 -0.2499  0.3225
 8771SOL     OW34849   4.188   6.214   4.218 -0.2585  0.6793 -0.2359
 8771SOL    HW234850   4.283   6.204   4.211 -0.2887  0.7674 -0.8938
 8771SOL    HW334851   4.169   6.201   4.310  0.5101  1.6762  0.0807
 8771SOL    MW434852   4.198   6.211   4.229 -0.1610  0.8225 -0.2809
 8772SOL     OW34853   6.267   4.719   0.547  0.3048 -0.2926 -0.6131
 8772SOL    HW234854   6.209   4.763   0.485  0.5622  1.5647  0.4100
 8772SOL    HW334855   6.352   4.718   0.504  0.6211  1.5269 -0.1052
 8772SOL    MW434856   6.271   4.724   0.533  0.3805  0.1925 -0.4111
 8773SOL     OW34857   5.030   1.272   2.884  0.6024  0.1451  0.0849
 8773SOL    HW234858   5.112   1.314   2.911  1.1963 -0.3345 -0.9312
 8773SOL    HW334859   4.993   1.331   2.819 -0.1900  0.6662  0.9781
 8773SOL    MW434860   5.036   1.285   2.879  0.5762  0.1506  0.0687
 8774SOL     OW34861   1.048   4.850   2.685 -0.0519  0.0326  0.0238
 8774SOL    HW234862   1.062   4.944   2.671  2.2843  0.0294  1.7344
 8774SOL    HW334863   0.999   4.845   2.767  0.0097 -0.2536  0.0433
 8774SOL    MW434864   1.044   4.862   2.694  0.2645 -0.0056  0.2521
 8775SOL     OW34865   6.303   5.054   0.555  0.4421 -0.2341 -0.0346
 8775SOL    HW234866   6.238   4.991   0.526  1.5873 -1.4170 -0.1433
 8775SOL    HW334867   6.370   5.000   0.598  1.6421  0.8623 -0.4744
 8775SOL    MW434868   6.304   5.038   0.557  0.7516 -0.2455 -0.1070
 8776SOL     OW34869   3.806   3.680   4.562  0.2274  0.1973  0.4914
 8776SOL    HW234870   3.843   3.629   4.634  0.1511  2.6155  2.3791
 8776SOL    HW334871   3.882   3.706   4.510  0.2963 -1.4598 -0.2999
 8776SOL    MW434872   3.821   3.677   4.564  0.2264  0.2977  0.6360
 8777SOL     OW34873   2.122   4.359   5.024 -0.4747 -0.6083  0.5452
 8777SOL    HW234874   2.195   4.305   4.994 -0.4808 -0.2284 -0.1758
 8777SOL    HW334875   2.080   4.306   5.092  0.6672 -0.6865  1.2166
 8777SOL    MW434876   2.126   4.345   5.029 -0.3249 -0.5685  0.5387
 8778SOL     OW34877   0.053   3.393   2.166 -0.1370  0.3864  0.0378
 8778SOL    HW234878  -0.020   3.454   2.165 -0.9520 -0.4948  1.6862
 8778SOL    HW334879   0.013   3.307   2.166  0.9158 -0.1267  0.3012
 8778SOL    MW434880   0.038   3.390   2.166 -0.1056  0.2024  0.2900
 8779SOL     OW34881   2.738   2.430   4.391 -0.6504 -0.4607  0.2224
 8779SOL    HW234882   2.677   2.440   4.464  0.6386 -2.3799  1.6564
 8779SOL    HW334883   2.799   2.504   4.400 -0.3019 -0.8709  1.3180
 8779SOL    MW434884   2.738   2.441   4.401 -0.4344 -0.7680  0.5561
 8780SOL     OW34885   3.713   0.028   5.932  0.2913  0.0093 -0.0595
 8780SOL    HW234886   3.695  -0.039   5.998 -1.6198  0.5951  0.0625
 8780SOL    HW334887   3.806   0.016   5.911  0.4060 -1.5863  1.1533
 8780SOL    MW434888   3.723   0.017   5.938  0.0543 -0.1239  0.1166
 8781SOL     OW34889   5.874   4.866   1.014 -0.2665 -0.0030 -0.1745
 8781SOL    HW234890   5.901   4.902   1.098  0.3048 -0.3016 -0.2236
 8781SOL    HW334891   5.865   4.773   1.030  2.8117 -0.5954 -1.1094
 8781SOL    MW434892   5.877   4.859   1.027  0.2150 -0.1205 -0.3044
 8782SOL     OW34893   5.154   2.453   2.571  0.3737  0.0127 -0.5794
 8782SOL    HW234894   5.083   2.403   2.611 -0.3299  0.2767 -1.4680
 8782SOL    HW334895   5.162   2.417   2.482  0.7113  0.6245 -0.8021
 8782SOL    MW434896   5.146   2.442   2.564  0.3254  0.1283 -0.7260
 8783SOL     OW34897   4.230   3.531   1.563  0.0058  0.1653  0.0270
 8783SOL    HW234898   4.241   3.546   1.657 -0.0261  1.3336 -0.1413
 8783SOL    HW334899   4.269   3.445   1.547 -2.1473 -1.1760  1.5206
 8783SOL    MW434900   4.237   3.522   1.573 -0.2825  0.1425  0.2018
 8784SOL     OW34901   0.352   6.237   3.239 -0.3289  0.1116  0.4999
 8784SOL    HW234902   0.354   6.303   3.309  0.1191  1.3098 -0.6199
 8784SOL    HW334903   0.260   6.229   3.216 -0.4151  0.1283  0.8343
 8784SOL    MW434904   0.340   6.244   3.246 -0.2812  0.2719  0.3963
 8785SOL     OW34905   6.038   2.970   3.289 -0.1878  0.1435  0.3931
 8785SOL    HW234906   6.060   2.877   3.288  0.3106  0.2499  0.8286
 8785SOL    HW334907   6.038   2.994   3.381 -0.0014  0.6486  0.2663
 8785SOL    MW434908   6.041   2.961   3.301 -0.0975  0.2242  0.4338
 8786SOL     OW34909   0.834   5.451   0.755  0.0049 -0.4352 -0.1050
 8786SOL    HW234910   0.914   5.502   0.747  0.2902 -0.9037 -0.2880
 8786SOL    HW334911   0.765   5.516   0.766  0.5072 -0.0581  0.8814
 8786SOL    MW434912   0.835   5.466   0.755  0.1088 -0.4472  0.0010
 8787SOL     OW34913   2.474   3.272   3.155 -0.1756  0.1304  0.2522
 8787SOL    HW234914   2.420   3.331   3.207 -1.4339 -2.0889  1.6481
 8787SOL    HW334915   2.415   3.238   3.088  0.0240 -0.7871  0.5231
 8787SOL    MW434916   2.459   3.275   3.153 -0.3153 -0.2835  0.4721
 8788SOL     OW34917   3.874   0.441   2.759 -0.3367 -0.6067 -0.2865
 8788SOL    HW234918   3.849   0.498   2.686 -1.0409 -0.0511  0.3699
 8788SOL    HW334919   3.949   0.485   2.799  0.6107 -1.3604 -1.1828
 8788SOL    MW434920   3.881   0.454   2.754 -0.3046 -0.6328 -0.3182
 8789SOL     OW34921   4.128   4.723   3.877 -0.7288 -0.4597  0.1540
 8789SOL    HW234922   4.141   4.774   3.797  0.1823 -0.7661  0.0908
 8789SOL    HW334923   4.174   4.774   3.944 -0.6465 -0.7083  0.2846
 8789SOL    MW434924   4.136   4.737   3.875 -0.5977 -0.5329  0.1629
 8790SOL     OW34925   3.424   0.438   0.529 -0.7806  0.3036  0.5453
 8790SOL    HW234926   3.351   0.420   0.470  1.1415  0.7768 -2.1630
 8790SOL    HW334927   3.443   0.354   0.570 -0.1173 -0.8999 -2.0671
 8790SOL    MW434928   3.417   0.425   0.527 -0.4395  0.2073 -0.1567
 8791SOL     OW34929   1.026   1.707   2.054  0.2808 -0.2582 -0.0996
 8791SOL    HW234930   0.975   1.711   2.135  0.6106  1.7352  0.0488
 8791SOL    HW334931   0.980   1.642   2.001 -1.3160  0.1205  0.7558
 8791SOL    MW434932   1.013   1.699   2.058  0.1136  0.0547  0.0328
 8792SOL     OW34933   2.892   1.651   0.209 -0.0195  0.2167 -0.2908
 8792SOL    HW234934   2.984   1.629   0.196 -0.5858 -2.2632 -0.5731
 8792SOL    HW334935   2.875   1.628   0.300 -0.6270 -0.3641 -0.5511
 8792SOL    MW434936   2.902   1.645   0.219 -0.1744 -0.1871 -0.3624
 8793SOL     OW34937   4.845   1.654   2.753 -0.1114 -0.0105 -0.0968
 8793SOL    HW234938   4.898   1.720   2.798  2.1207 -1.2689 -0.7542
 8793SOL    HW334939   4.784   1.623   2.820  2.1534 -0.7984  1.7218
 8793SOL    MW434940   4.844   1.659   2.768  0.4819 -0.2805  0.0564
 8794SOL     OW34941   2.849   1.914   5.499 -0.0076  0.3734  0.3467
 8794SOL    HW234942   2.905   1.968   5.556 -1.2503  1.4718  0.5665
 8794SOL    HW334943   2.895   1.914   5.415  0.5407  0.9177  0.6300
 8794SOL    MW434944   2.863   1.921   5.496 -0.0992  0.5901  0.4131
 8795SOL     OW34945   4.633   5.872   2.818  0.2395 -0.8084  0.4304
 8795SOL    HW234946   4.646   5.926   2.895 -1.1576 -0.9875  0.8191
 8795SOL    HW334947   4.541   5.885   2.795  1.2814  1.8705 -3.1939
 8795SOL    MW434948   4.623   5.881   2.825  0.1926 -0.4786  0.0035
 8796SOL     OW34949   4.594   0.255   6.412  0.3319  0.0600 -0.3341
 8796SOL    HW234950   4.612   0.301   6.494  0.0494  0.6203 -0.5826
 8796SOL    HW334951   4.665   0.282   6.354 -0.4956  1.1550 -0.8673
 8796SOL    MW434952   4.606   0.264   6.415  0.1855  0.2784 -0.4372
 8797SOL     OW34953   3.444   5.059   0.709 -0.5645  0.4906  0.3418
 8797SOL    HW234954   3.535   5.073   0.684 -0.6034 -0.5115 -0.4605
 8797SOL    HW334955   3.406   5.147   0.711  0.3216  0.8905  0.3173
 8797SOL    MW434956   3.451   5.072   0.706 -0.4527  0.4112  0.2327
 8798SOL     OW34957   6.083   4.649   5.447  0.6829  0.2370 -0.3637
 8798SOL    HW234958   6.072   4.627   5.355 -1.2465  0.8651 -0.3271
 8798SOL    HW334959   6.024   4.723   5.461 -0.0852 -0.6931  1.6702
 8798SOL    MW434960   6.074   4.656   5.437  0.3270  0.1972 -0.0905
 8799SOL     OW34961   3.516   5.786   2.366 -0.3286 -0.1999 -0.2980
 8799SOL    HW234962   3.441   5.793   2.426 -0.8028 -0.9638 -0.7916
 8799SOL    HW334963   3.479   5.755   2.284  0.6003 -1.0522 -0.4124
 8799SOL    MW434964   3.501   5.783   2.363 -0.2686 -0.4131 -0.3782
 8800SOL     OW34965   6.007   1.100   1.503 -0.4604 -0.0713 -0.1893
 8800SOL    HW234966   5.980   1.186   1.470  2.0698  0.6109 -0.7489
 8800SOL    HW334967   6.041   1.055   1.425  0.3858 -0.6665  0.5139
 8800SOL    MW434968   6.008   1.105   1.488 -0.0149 -0.0598 -0.1704
 8801SOL     OW34969   0.614   2.590   1.993  0.2639 -0.4312  0.0060
 8801SOL    HW234970   0.621   2.593   1.898  0.7282 -1.4059 -0.0025
 8801SOL    HW334971   0.692   2.636   2.024 -0.0548  0.1738 -0.0782
 8801SOL    MW434972   0.626   2.596   1.985  0.2831 -0.4799 -0.0063
 8802SOL     OW34973   2.851   0.777   4.490  0.1144  0.4157  0.0663
 8802SOL    HW234974   2.841   0.871   4.501 -2.0664  0.1288  1.1544
 8802SOL    HW334975   2.942   0.765   4.461  0.4589  2.8118 -0.0268
 8802SOL    MW434976   2.862   0.788   4.487 -0.1279  0.6940  0.1976
 8803SOL     OW34977   1.557   4.182   3.833  0.1254 -0.3548 -0.1929
 8803SOL    HW234978   1.635   4.191   3.887  1.0589 -0.1041 -1.5239
 8803SOL    HW334979   1.589   4.192   3.743 -1.6468  1.2368 -0.7167
 8803SOL    MW434980   1.572   4.185   3.828  0.0147 -0.1117 -0.4376
 8804SOL     OW34981   1.616   1.053   3.127  0.4534 -0.1958  0.6877
 8804SOL    HW234982   1.612   1.000   3.047 -1.2276  0.3979  0.3439
 8804SOL    HW334983   1.710   1.071   3.139  0.8575 -1.4909 -0.3383
 8804SOL    MW434984   1.628   1.048   3.118  0.2849 -0.2883  0.5070
 8805SOL     OW34985   6.184   5.347   5.827  0.0389  0.2594 -0.6915
 8805SOL    HW234986   6.190   5.441   5.843 -0.9988  0.5362 -1.7475
 8805SOL    HW334987   6.090   5.330   5.819  0.2751 -0.4910 -2.4368
 8805SOL    MW434988   6.173   5.357   5.828 -0.0668  0.1969 -1.0611
 8806SOL     OW34989   4.306   1.141   1.191  0.4435  0.0944  0.1685
 8806SOL    HW234990   4.314   1.046   1.186  1.6285  0.2018 -0.2055
 8806SOL    HW334991   4.221   1.156   1.232 -1.1121 -1.0941 -2.3721
 8806SOL    MW434992   4.296   1.130   1.196  0.3946 -0.0482 -0.2160
 8807SOL     OW34993   5.661   6.306   4.431 -0.6445  0.2107  0.1194
 8807SOL    HW234994   5.598   6.242   4.463  0.1425 -0.5333  0.2237
 8807SOL    HW334995   5.670   6.369   4.503 -0.9087  0.0631  0.2846
 8807SOL    MW434996   5.654   6.306   4.445 -0.5755  0.0931  0.1550
 8808SOL     OW34997   4.696   2.855   4.896  0.5117  0.2283 -0.3645
 8808SOL    HW234998   4.634   2.921   4.867  0.9167  0.8995  0.2600
 8808SOL    HW334999   4.748   2.834   4.818 -0.7239 -0.6206 -0.9817
 8808SOL    MW435000   4.695   2.861   4.882  0.4022  0.2048 -0.3635
 8809SOL     OW35001   2.650   4.096   5.136 -0.1144 -0.0356 -0.1232
 8809SOL    HW235002   2.629   4.122   5.046 -2.3630  1.5208  0.7735
 8809SOL    HW335003   2.585   4.140   5.190  1.9478  0.1056  2.4390
 8809SOL    MW435004   2.639   4.105   5.131 -0.1390  0.1884  0.3332
 8810SOL     OW35005   6.081   1.103   2.357 -0.0603  0.0785  0.5175
 8810SOL    HW235006   6.035   1.184   2.332  1.4671  1.8396  2.9671
 8810SOL    HW335007   6.173   1.129   2.362  0.7055 -2.2909 -0.1624
 8810SOL    MW435008   6.087   1.117   2.354  0.2422 -0.0017  0.7510
 8811SOL     OW35009   1.991   0.532   5.872 -0.0290  0.0227  0.3408
 8811SOL    HW235010   2.062   0.572   5.821 -1.0851  0.2652 -0.9956
 8811SOL    HW335011   2.033   0.506   5.954  1.6637 -0.0698 -0.5014
 8811SOL    MW435012   2.006   0.534   5.876  0.0550  0.0425  0.0533
 8812SOL     OW35013   4.096   2.861   0.297  0.7166 -0.5451 -0.5169
 8812SOL    HW235014   4.001   2.868   0.286  0.5894  2.8444  1.2298
 8812SOL    HW335015   4.130   2.863   0.207 -0.7844 -3.0019 -1.2474
 8812SOL    MW435016   4.088   2.862   0.284  0.5018 -0.4220 -0.3828
 8813SOL     OW35017   4.422   3.225   5.498  0.1954  0.4573 -0.3230
 8813SOL    HW235018   4.505   3.180   5.479 -0.0937  0.4736 -1.6900
 8813SOL    HW335019   4.449   3.314   5.522  0.5847  0.4277 -0.6318
 8813SOL    MW435020   4.437   3.231   5.499  0.2087  0.4555 -0.5441
 8814SOL     OW35021   3.002   5.995   5.578  0.1749  0.0193 -0.1822
 8814SOL    HW235022   3.041   6.001   5.490  0.0582  2.2742 -0.1506
 8814SOL    HW335023   3.056   6.053   5.632 -0.1124 -0.8800  1.1135
 8814SOL    MW435024   3.014   6.004   5.573  0.1216  0.1982 -0.0071
 8815SOL     OW35025   3.068   2.635   5.941 -0.0066  0.1381  0.4282
 8815SOL    HW235026   2.990   2.578   5.944 -0.4412  0.7522  2.1128
 8815SOL    HW335027   3.041   2.714   5.987  1.9740 -0.1391  2.2386
 8815SOL    MW435028   3.054   2.638   5.948  0.1974  0.1826  0.8893
 8816SOL     OW35029   3.098   3.419   6.045 -0.0309  0.2556  0.2966
 8816SOL    HW235030   3.174   3.398   5.991 -0.0091  1.4242 -0.1613
 8816SOL    HW335031   3.134   3.434   6.133  0.4074  1.6081 -0.0861
 8816SOL    MW435032   3.113   3.419   6.049  0.0298  0.5882  0.1857
 8817SOL     OW35033   1.079   3.514   1.894  0.2701 -0.3097 -0.3441
 8817SOL    HW235034   1.008   3.541   1.836 -0.1544  0.6339  0.5990
 8817SOL    HW335035   1.157   3.556   1.857  0.2424 -0.8269 -1.0091
 8817SOL    MW435036   1.080   3.523   1.881  0.2104 -0.2535 -0.3074
 8818SOL     OW35037   3.638   3.215   2.409  0.3319  0.0550  0.3226
 8818SOL    HW235038   3.593   3.182   2.487  1.5679  0.0357  1.0595
 8818SOL    HW335039   3.576   3.278   2.371  0.2887  1.2587  2.2150
 8818SOL    MW435040   3.624   3.219   2.415  0.4893  0.2112  0.6695
 8819SOL     OW35041   4.759   1.983   1.088  0.6428  0.8948 -0.1334
 8819SOL    HW235042   4.718   1.960   1.004 -2.4507  1.6767  1.0581
 8819SOL    HW335043   4.756   1.903   1.139 -0.4916  1.2249  0.3416
 8819SOL    MW435044   4.753   1.970   1.083  0.0850  1.0415  0.0865
 8820SOL     OW35045   6.079   2.326   2.261  0.1689  0.1820  0.2174
 8820SOL    HW235046   6.081   2.231   2.254  0.5320  0.2109 -0.0702
 8820SOL    HW335047   6.080   2.344   2.355  0.5229 -0.0853  0.2628
 8820SOL    MW435048   6.079   2.316   2.272  0.2635  0.1506  0.1854
 8821SOL     OW35049   1.253   3.708   1.733 -0.3184 -0.1047  0.2548
 8821SOL    HW235050   1.278   3.631   1.683 -0.0099  0.2840 -0.1943
 8821SOL    HW335051   1.195   3.757   1.675  2.1053  1.6860 -0.8001
 8821SOL    MW435052   1.248   3.704   1.719  0.0421  0.1828  0.0564
 8822SOL     OW35053   4.298   5.348   3.600  0.3165  0.2696  0.2881
 8822SOL    HW235054   4.310   5.425   3.544 -0.6032 -0.0685 -0.3867
 8822SOL    HW335055   4.242   5.379   3.671 -2.2300 -0.3685 -1.3403
 8822SOL    MW435056   4.292   5.362   3.602 -0.1408  0.1408 -0.0158
 8823SOL     OW35057   3.686   2.851   5.316  0.2959 -0.2510 -0.0816
 8823SOL    HW235058   3.624   2.918   5.287 -0.1770 -1.1516 -1.2470
 8823SOL    HW335059   3.686   2.858   5.411 -2.0524 -0.6128  0.0022
 8823SOL    MW435060   3.678   2.861   5.325 -0.0763 -0.4176 -0.2243
 8824SOL     OW35061   2.703   2.885   0.981  0.0466  0.1986 -0.0203
 8824SOL    HW235062   2.750   2.932   0.912 -1.0129 -0.5467 -1.3089
 8824SOL    HW335063   2.771   2.854   1.040  1.1644 -0.4981 -1.5911
 8824SOL    MW435064   2.718   2.888   0.979  0.0543  0.0084 -0.3976
 8825SOL     OW35065   2.760   6.417   4.837  0.2163  0.2911 -0.4020
 8825SOL    HW235066   2.665   6.416   4.835  0.2202  0.6720 -1.4909
 8825SOL    HW335067   2.784   6.349   4.900 -0.8104  1.8440  1.7971
 8825SOL    MW435068   2.751   6.408   4.845  0.0814  0.5463 -0.2555
 8826SOL     OW35069   5.157   6.330   5.961  0.0927 -0.4454  0.5854
 8826SOL    HW235070   5.118   6.352   6.046 -2.1223 -0.9330 -0.2188
 8826SOL    HW335071   5.102   6.375   5.897 -0.6565 -3.0331 -0.7445
 8826SOL    MW435072   5.145   6.339   5.964 -0.2984 -0.8511  0.3038
 8827SOL     OW35073   5.717   1.757   5.013  0.2143 -0.3274 -0.2575
 8827SOL    HW235074   5.697   1.669   4.980  0.4637 -0.6336  0.4025
 8827SOL    HW335075   5.738   1.744   5.105 -2.0702  0.7535  0.4588
 8827SOL    MW435076   5.717   1.744   5.021 -0.0542 -0.2252 -0.0759
 8828SOL     OW35077   2.671   0.856   4.977  0.4011 -0.2941 -0.2832
 8828SOL    HW235078   2.636   0.844   5.065 -0.7637  2.3241 -0.3066
 8828SOL    HW335079   2.694   0.768   4.949  1.6020 -1.1407  2.9210
 8828SOL    MW435080   2.669   0.843   4.985  0.4059 -0.0604  0.1365
 8829SOL     OW35081   2.831   1.639   0.472  0.0997 -0.2574  1.1612
 8829SOL    HW235082   2.757   1.697   0.489 -0.8610 -1.5502  1.5350
 8829SOL    HW335083   2.884   1.645   0.552 -0.8352 -1.0860  1.8756
 8829SOL    MW435084   2.828   1.648   0.485 -0.1504 -0.5373  1.3048
 8830SOL     OW35085   4.524   4.226   5.802 -0.5784  0.4727 -0.2615
 8830SOL    HW235086   4.452   4.275   5.761 -1.9953 -1.3843 -0.1824
 8830SOL    HW335087   4.545   4.158   5.737 -0.1044 -0.0536  0.4312
 8830SOL    MW435088   4.517   4.223   5.788 -0.7028  0.1583 -0.1597
 8831SOL     OW35089   6.282   0.673   4.975  0.2122  0.7352  0.1161
 8831SOL    HW235090   6.280   0.610   4.904 -1.3012  0.0479  0.7205
 8831SOL    HW335091   6.301   0.757   4.933  0.4135  0.1748 -0.9327
 8831SOL    MW435092   6.284   0.676   4.960  0.0391  0.5706  0.0574
 8832SOL     OW35093   2.016   2.599   1.592  0.0581  0.0866  0.1696
 8832SOL    HW235094   2.070   2.562   1.662 -0.2454  1.6972  1.3266
 8832SOL    HW335095   2.063   2.679   1.567 -0.6036  0.2848 -0.4572
 8832SOL    MW435096   2.029   2.605   1.597 -0.0692  0.3253  0.2395
 8833SOL     OW35097   2.777   6.228   5.077  0.5453  0.2519  0.5671
 8833SOL    HW235098   2.696   6.252   5.120 -0.2085 -0.5977 -0.3257
 8833SOL    HW335099   2.841   6.292   5.107 -0.6081  1.3207  0.7788
 8833SOL    MW435100   2.775   6.239   5.086  0.2937  0.2808  0.4773
 8834SOL     OW35101   1.349   5.746   5.997 -0.2625  0.3798  0.3609
 8834SOL    HW235102   1.336   5.658   5.962  1.2832  0.5015 -0.6485
 8834SOL    HW335103   1.273   5.796   5.968  0.0573 -0.0179 -1.2573
 8834SOL    MW435104   1.337   5.741   5.989 -0.0163  0.3434  0.0142
 8835SOL     OW35105   2.177   2.993   5.254 -0.0363 -0.3569 -0.5263
 8835SOL    HW235106   2.145   3.037   5.333 -0.6790 -0.5004 -0.7034
 8835SOL    HW335107   2.164   2.900   5.271  0.8698 -0.4590 -0.3508
 8835SOL    MW435108   2.171   2.987   5.267 -0.0015 -0.3893 -0.5265
 8836SOL     OW35109   0.250   5.193   3.394  0.1199 -0.1295 -0.1906
 8836SOL    HW235110   0.189   5.169   3.324 -0.8918 -0.0355  0.6282
 8836SOL    HW335111   0.325   5.135   3.382  0.4238  0.5582 -1.9415
 8836SOL    MW435112   0.252   5.182   3.383  0.0265 -0.0264 -0.3136
 8837SOL     OW35113   2.840   6.388   0.662 -0.1016 -0.5072  0.0155
 8837SOL    HW235114   2.847   6.322   0.731  0.3524  0.5004  0.9650
 8837SOL    HW335115   2.753   6.427   0.675 -0.2324 -0.6729 -0.3346
 8837SOL    MW435116   2.829   6.384   0.672 -0.0589 -0.3962  0.0946
 8838SOL     OW35117   1.342   5.482   2.053 -0.4622  0.3077 -0.2987
 8838SOL    HW235118   1.375   5.450   1.969 -2.3228 -0.6376 -0.7251
 8838SOL    HW335119   1.289   5.410   2.087 -0.4317  0.9965  1.3131
 8838SOL    MW435120   1.340   5.468   2.047 -0.7036  0.2739 -0.1423
 8839SOL     OW35121   4.628   0.280   0.318  0.4464 -0.3782 -0.3077
 8839SOL    HW235122   4.623   0.226   0.397  0.7935 -0.1469 -0.1227
 8839SOL    HW335123   4.604   0.367   0.347  0.4841 -0.3109 -0.4769
 8839SOL    MW435124   4.624   0.284   0.332  0.4972 -0.3388 -0.3057
 8840SOL     OW35125   3.953   4.534   0.006 -0.5417 -0.0563 -0.4181
 8840SOL    HW235126   3.989   4.500   0.088 -0.5418 -1.2029 -0.8732
 8840SOL    HW335127   3.859   4.521   0.013 -0.8322  2.1198  0.3980
 8840SOL    MW435128   3.946   4.528   0.017 -0.5800  0.0796 -0.3705
 8841SOL     OW35129   5.098   6.304   3.543 -0.8752  0.5283 -0.0786
 8841SOL    HW235130   5.176   6.300   3.598 -0.1262  0.4555 -1.1275
 8841SOL    HW335131   5.038   6.240   3.581 -0.0624 -0.0914  0.1865
 8841SOL    MW435132   5.100   6.295   3.555 -0.6692  0.4370 -0.1820
 8842SOL     OW35133   1.912   2.446   4.416 -0.5801 -0.2878  0.0382
 8842SOL    HW235134   1.981   2.446   4.482  0.2291  0.0798 -0.8054
 8842SOL    HW335135   1.884   2.537   4.409 -0.7529 -0.3453 -0.0467
 8842SOL    MW435136   1.917   2.458   4.424 -0.4961 -0.2469 -0.0843
 8843SOL     OW35137   6.093   2.331   5.258 -0.2002  0.2434  0.1357
 8843SOL    HW235138   6.068   2.399   5.321  1.7638  1.6271 -0.4878
 8843SOL    HW335139   6.029   2.340   5.188 -3.0001 -1.9202  2.1593
 8843SOL    MW435140   6.081   2.341   5.257 -0.3105  0.1405  0.3204
 8844SOL     OW35141   0.288   1.097   6.384 -0.4067 -0.3205 -0.0362
 8844SOL    HW235142   0.328   1.093   6.297  1.0303  3.4698  0.2803
 8844SOL    HW335143   0.362   1.088   6.444 -1.1023 -0.7201  0.7698
 8844SOL    MW435144   0.303   1.095   6.380 -0.3089  0.1268  0.1119
 8845SOL     OW35145   2.314   6.403   5.110  0.4423  0.5705  0.4946
 8845SOL    HW235146   2.254   6.372   5.042 -0.1399  0.0057  1.2488
 8845SOL    HW335147   2.274   6.484   5.142 -1.1918 -0.9722  2.5789
 8845SOL    MW435148   2.301   6.410   5.105  0.1499  0.2924  0.8691
 8846SOL     OW35149   5.683   4.140   2.926 -0.4932 -0.2444 -0.1508
 8846SOL    HW235150   5.769   4.156   2.887  0.8717 -2.5757  1.6113
 8846SOL    HW335151   5.650   4.062   2.882 -2.6004  1.5540 -1.9953
 8846SOL    MW435152   5.690   4.132   2.915 -0.5911 -0.3147 -0.1617
 8847SOL     OW35153   0.142   3.856   0.480  0.4238  0.1476 -0.2897
 8847SOL    HW235154   0.109   3.875   0.568 -0.4379  0.0214 -0.5827
 8847SOL    HW335155   0.145   3.942   0.437 -0.8665 -0.0175 -0.7207
 8847SOL    MW435156   0.138   3.870   0.486  0.1399  0.1092 -0.3852
 8848SOL     OW35157   2.108   5.591   2.744 -0.4733  0.3053 -0.3215
 8848SOL    HW235158   2.196   5.572   2.774 -0.0029  0.6013 -1.4548
 8848SOL    HW335159   2.120   5.653   2.673 -1.6565  0.9842  0.0489
 8848SOL    MW435160   2.121   5.597   2.739 -0.5673  0.4339 -0.4222
 8849SOL     OW35161   2.049   2.481   4.939  0.4099  0.7288 -0.9904
 8849SOL    HW235162   1.959   2.472   4.972  0.4227 -1.9256 -1.4775
 8849SOL    HW335163   2.077   2.567   4.971 -1.3232  0.4769  1.5944
 8849SOL    MW435164   2.041   2.491   4.948  0.1829  0.3453 -0.7136
 8850SOL     OW35165   6.155   5.638   5.835 -0.2558 -0.5284  0.0415
 8850SOL    HW235166   6.174   5.699   5.763  1.3895 -1.7748 -0.6482
 8850SOL    HW335167   6.060   5.637   5.841 -0.4158  0.0445 -1.7703
 8850SOL    MW435168   6.145   5.646   5.826 -0.0598 -0.6173 -0.2885
 8851SOL     OW35169   1.563   4.845   2.793 -0.1161  0.3673 -0.4301
 8851SOL    HW235170   1.534   4.915   2.851  0.2805 -0.0333  0.2695
 8851SOL    HW335171   1.546   4.878   2.705 -0.3949  1.1337 -0.0988
 8851SOL    MW435172   1.557   4.858   2.789 -0.1006  0.4155 -0.2940
 8852SOL     OW35173   1.939   5.349   1.885 -0.0285  0.1764 -0.4466
 8852SOL    HW235174   1.996   5.400   1.943  0.4090 -1.3879  0.5835
 8852SOL    HW335175   1.988   5.267   1.870  0.2272  0.7981 -3.7022
 8852SOL    MW435176   1.953   5.345   1.891  0.0630  0.0521 -0.7403
 8853SOL     OW35177   2.820   6.230   0.328 -0.0529 -0.3495  0.1475
 8853SOL    HW235178   2.797   6.320   0.352  0.9909 -0.2855  0.9741
 8853SOL    HW335179   2.862   6.238   0.241 -0.6968 -0.1472 -0.1478
 8853SOL    MW435180   2.823   6.243   0.319 -0.0001 -0.3143  0.2176
 8854SOL     OW35181   3.644   5.898   3.527  0.0024  0.2382  0.0352
 8854SOL    HW235182   3.653   5.849   3.445 -2.1661  0.1170 -0.1994
 8854SOL    HW335183   3.551   5.890   3.549  0.3970  0.9032  2.1269
 8854SOL    MW435184   3.633   5.891   3.519 -0.2317  0.3099  0.2802
 8855SOL     OW35185   1.872   3.598   5.266 -0.3174  0.1583 -0.1758
 8855SOL    HW235186   1.942   3.662   5.260 -0.3077  0.3497  1.5364
 8855SOL    HW335187   1.894   3.532   5.201 -0.5839  2.0856 -2.3506
 8855SOL    MW435188   1.884   3.598   5.257 -0.3513  0.4379 -0.2368
 8856SOL     OW35189   0.197   6.172   2.249  0.2172  0.0718  0.0893
 8856SOL    HW235190   0.174   6.246   2.192  0.0536 -1.9507 -2.6617
 8856SOL    HW335191   0.278   6.200   2.292 -0.6177  2.3967  0.2836
 8856SOL    MW435192   0.205   6.186   2.247  0.0855  0.1117 -0.2480
 8857SOL     OW35193   2.276   2.847   0.310 -0.4610  0.0688 -0.1055
 8857SOL    HW235194   2.331   2.915   0.348  0.4457 -1.4024  1.3445
 8857SOL    HW335195   2.285   2.772   0.370 -2.3702 -0.9359 -0.9716
 8857SOL    MW435196   2.284   2.846   0.323 -0.5932 -0.2579 -0.0285
 8858SOL     OW35197   4.253   3.975   2.045 -0.2255  0.1262  0.3339
 8858SOL    HW235198   4.272   4.061   2.084 -2.6164  1.1780 -0.6460
 8858SOL    HW335199   4.292   3.913   2.107 -0.6255  1.8206  2.4446
 8858SOL    MW435200   4.261   3.978   2.059 -0.5937  0.4885  0.4831
 8859SOL     OW35201   5.872   4.414   5.397  0.1145 -0.1884  0.7308
 8859SOL    HW235202   5.811   4.364   5.343 -0.5597  0.9507  0.4046
 8859SOL    HW335203   5.822   4.491   5.425  0.9034 -0.0344  1.7934
 8859SOL    MW435204   5.858   4.418   5.394  0.1296 -0.0178  0.8280
 8860SOL     OW35205   3.994   5.630   2.272  0.1879  0.0153  0.4315
 8860SOL    HW235206   4.043   5.696   2.223 -0.4475  0.5837  0.5502
 8860SOL    HW335207   4.046   5.616   2.351  0.3785  0.3027  0.3607
 8860SOL    MW435208   4.008   5.637   2.276  0.1293  0.1282  0.4378
 8861SOL     OW35209   3.529   2.807   1.674 -0.3315 -0.0327 -0.3421
 8861SOL    HW235210   3.603   2.801   1.734  0.4054 -0.5862 -1.2728
 8861SOL    HW335211   3.548   2.742   1.606 -0.7207  1.1368 -1.6195
 8861SOL    MW435212   3.542   2.797   1.673 -0.2856  0.0486 -0.6334
 8862SOL     OW35213   4.652   5.404   0.239 -0.0962 -0.3675  0.1739
 8862SOL    HW235214   4.707   5.326   0.235  0.0969 -0.2086 -0.2835
 8862SOL    HW335215   4.645   5.423   0.333 -0.5668 -1.2267  0.3354
 8862SOL    MW435216   4.658   5.396   0.251 -0.1328 -0.4599  0.1349
 8863SOL     OW35217   4.105   3.215   4.948 -0.7048 -0.1222 -0.0703
 8863SOL    HW235218   4.155   3.294   4.925  0.8308 -1.0313  0.0117
 8863SOL    HW335219   4.111   3.160   4.870  0.3539 -1.1730  0.7166
 8863SOL    MW435220   4.112   3.218   4.934 -0.3625 -0.3808  0.0443
 8864SOL     OW35221   0.704   5.903   3.247  0.3883  0.2737 -0.2826
 8864SOL    HW235222   0.639   5.972   3.234  0.2519  0.0454 -0.7954
 8864SOL    HW335223   0.669   5.827   3.200  1.3845  0.3740 -1.2179
 8864SOL    MW435224   0.691   5.902   3.239  0.5017  0.2568 -0.4737
 8865SOL     OW35225   3.373   5.133   3.219 -0.5050  0.3779 -0.0146
 8865SOL    HW235226   3.413   5.211   3.257 -0.4170  0.4891 -0.3281
 8865SOL    HW335227   3.281   5.137   3.246 -0.8638  1.3996 -1.2619
 8865SOL    MW435228   3.366   5.144   3.227 -0.5407  0.5274 -0.2205
 8866SOL     OW35229   0.637   5.909   4.642  0.0770 -0.3435 -0.1576
 8866SOL    HW235230   0.583   5.850   4.694  0.9816 -0.2121  0.9495
 8866SOL    HW335231   0.684   5.963   4.706 -2.5766  3.4089 -1.0429
 8866SOL    MW435232   0.636   5.908   4.657 -0.1538  0.1689 -0.1283
 8867SOL     OW35233   6.168   0.407   1.527  0.5899 -0.4747  0.3729
 8867SOL    HW235234   6.230   0.368   1.465  0.9114 -1.2958  1.1835
 8867SOL    HW335235   6.147   0.336   1.587  0.2014  0.2801  1.1435
 8867SOL    MW435236   6.173   0.393   1.527  0.5811 -0.4834  0.5815
 8868SOL     OW35237   4.243   2.367   0.636 -0.0910 -0.2311 -0.5297
 8868SOL    HW235238   4.213   2.458   0.638 -0.1025 -0.2391 -0.3499
 8868SOL    HW335239   4.163   2.315   0.635 -0.0944 -0.2688  0.5977
 8868SOL    MW435240   4.229   2.372   0.636 -0.0930 -0.2371 -0.3573
 8869SOL     OW35241   0.880   5.093   4.052  0.6079  0.2946  0.0191
 8869SOL    HW235242   0.921   5.118   4.135  0.9001 -3.3089  1.1284
 8869SOL    HW335243   0.790   5.072   4.075  0.5194 -0.1660 -0.7240
 8869SOL    MW435244   0.873   5.094   4.066  0.6348 -0.2416  0.0674
 8870SOL     OW35245   1.547   5.458   6.272  0.4104 -0.6060 -0.2057
 8870SOL    HW235246   1.541   5.469   6.367  0.1996 -2.0157 -0.0293
 8870SOL    HW335247   1.614   5.520   6.245 -2.2257  2.7118  0.2806
 8870SOL    MW435248   1.555   5.467   6.281  0.0348 -0.3542 -0.1183
 8871SOL     OW35249   1.022   2.122   0.509 -0.0254 -0.7591 -0.1676
 8871SOL    HW235250   0.948   2.170   0.544  1.3761  1.5735 -0.1876
 8871SOL    HW335251   1.033   2.048   0.569 -1.7069 -0.5813  0.4129
 8871SOL    MW435252   1.014   2.118   0.522 -0.0624 -0.4279 -0.0936
 8872SOL     OW35253   6.248   5.730   0.099  0.1823 -0.1179 -0.2001
 8872SOL    HW235254   6.155   5.745   0.118 -0.5215 -0.2675 -3.1144
 8872SOL    HW335255   6.270   5.652   0.150 -1.6959 -0.8972 -0.4941
 8872SOL    MW435256   6.239   5.722   0.108 -0.1584 -0.2404 -0.6234
 8873SOL     OW35257   3.587   4.005   1.008 -0.0829 -0.4524  0.1628
 8873SOL    HW235258   3.596   3.961   0.924  0.8862 -1.9843  1.0090
 8873SOL    HW335259   3.601   4.098   0.989  1.5533 -0.9223 -1.1569
 8873SOL    MW435260   3.590   4.012   0.995  0.2608 -0.7165  0.1003
 8874SOL     OW35261   1.516   3.759   4.075  0.1531 -0.8436  0.5959
 8874SOL    HW235262   1.556   3.677   4.047  0.0518 -1.0998  1.1795
 8874SOL    HW335263   1.424   3.751   4.048 -0.0127 -1.2132  1.2183
 8874SOL    MW435264   1.509   3.747   4.068  0.1178 -0.9262  0.7550
 8875SOL     OW35265   3.170   2.261   5.308  0.0736 -0.1925  0.4429
 8875SOL    HW235266   3.220   2.198   5.257  1.1674  1.4169 -0.5895
 8875SOL    HW335267   3.215   2.264   5.393 -0.2668 -1.1216  0.6591
 8875SOL    MW435268   3.183   2.253   5.313  0.1730 -0.1027  0.3352
 8876SOL     OW35269   5.733   6.236   5.464  0.2090  0.1416 -0.0137
 8876SOL    HW235270   5.776   6.272   5.542 -1.8947  0.1471  1.2333
 8876SOL    HW335271   5.737   6.307   5.399  4.3101 -0.7409 -0.9859
 8876SOL    MW435272   5.739   6.250   5.466  0.4725  0.0259  0.0226
 8877SOL     OW35273   0.070   3.535   0.516 -0.7338  0.1640  0.3811
 8877SOL    HW235274   0.032   3.591   0.448 -1.5879 -1.4379 -0.5254
 8877SOL    HW335275   0.029   3.565   0.597 -0.7389  1.2085  0.0017
 8877SOL    MW435276   0.059   3.546   0.518 -0.8471  0.0904  0.2114
 8878SOL     OW35277   0.234   5.937   2.558  0.1209  0.0238 -0.0654
 8878SOL    HW235278   0.290   6.007   2.591  2.3208 -0.6659 -2.0367
 8878SOL    HW335279   0.179   5.978   2.492  0.1815  0.2205  0.0068
 8878SOL    MW435280   0.234   5.952   2.554  0.4191 -0.0412 -0.3160
 8879SOL     OW35281   0.851   1.199   1.533  0.0759 -0.5343  0.4206
 8879SOL    HW235282   0.771   1.250   1.545 -0.2265 -1.1653  1.1826
 8879SOL    HW335283   0.922   1.260   1.552 -0.2386 -0.0870  0.1717
 8879SOL    MW435284   0.850   1.213   1.537 -0.0055 -0.5586  0.4883
 8880SOL     OW35285   6.092   5.205   2.373  0.3805  0.4460  0.1129
 8880SOL    HW235286   6.182   5.218   2.346  0.2715  0.5099 -0.2236
 8880SOL    HW335287   6.040   5.221   2.294  0.1911 -1.2740 -0.1586
 8880SOL    MW435288   6.097   5.209   2.359  0.3411  0.2275  0.0327
 8881SOL     OW35289   0.891   0.118   1.103 -0.3852  0.2881 -0.0739
 8881SOL    HW235290   0.860   0.029   1.122  0.1474  0.2337  0.6191
 8881SOL    HW335291   0.973   0.104   1.055 -0.7031  0.4168 -0.6618
 8881SOL    MW435292   0.898   0.104   1.099 -0.3568  0.2979 -0.0600
 8882SOL     OW35293   0.782   2.003   2.061  0.1596 -0.5464 -0.3716
 8882SOL    HW235294   0.754   1.934   2.001 -1.8288  0.0778 -0.2146
 8882SOL    HW335295   0.765   1.967   2.148  0.7750 -0.5172 -0.2334
 8882SOL    MW435296   0.776   1.989   2.064 -0.0215 -0.4602 -0.3326
 8883SOL     OW35297   6.088   5.353   1.546  0.4509 -0.5582  0.5311
 8883SOL    HW235298   6.005   5.393   1.571  0.6126  0.4222 -0.4321
 8883SOL    HW335299   6.083   5.263   1.579 -0.8381 -0.4046  0.7858
 8883SOL    MW435300   6.077   5.346   1.554  0.3022 -0.4086  0.4376
 8884SOL     OW35301   5.454   4.102   4.631 -0.6395  0.0113 -0.1915
 8884SOL    HW235302   5.433   4.173   4.691 -0.8177  0.0966 -0.3516
 8884SOL    HW335303   5.541   4.072   4.658 -0.9268 -0.2882  0.4225
 8884SOL    MW435304   5.463   4.107   4.642 -0.7009 -0.0170 -0.1316
 8885SOL     OW35305   6.052   2.634   3.729 -0.0801 -0.2707 -0.4090
 8885SOL    HW235306   6.001   2.697   3.678 -0.2180 -0.2558 -0.2533
 8885SOL    HW335307   6.048   2.553   3.677  0.8537  0.0814 -1.0668
 8885SOL    MW435308   6.044   2.632   3.715  0.0249 -0.2223 -0.4752
 8886NA      NA35309   4.213   2.542   5.172  0.4143  0.0378  0.4214
 8887NA      NA35310   0.272   0.689   6.141 -0.1601 -0.0417 -0.1564
 8888NA      NA35311   1.183   2.303   2.158  0.4332  0.2900 -0.0672
 8889NA      NA35312   3.406   1.725   2.798  0.3923  0.2568  0.4751
 8890NA      NA35313   5.069   3.244   3.516 -0.5238 -0.3891  0.4380
 8891NA      NA35314   6.283   5.007   6.064  0.1704 -0.0252 -0.1262
 8892NA      NA35315   0.422   5.553   3.300  0.2654 -0.4088  0.3034
   6.42920   6.42920   6.42920
