A-SYNC WITH FASUDIL
35315
  121NASP     N    1   5.110   0.672   1.319 -0.0540 -0.4901 -0.4121
  121NASP    H1    2   5.044   0.741   1.287  0.6295  1.1314  1.4986
  121NASP    H2    3   5.171   0.716   1.387  1.3265 -1.5109 -0.9380
  121NASP    H3    4   5.049   0.605   1.361 -2.0456  1.3249 -0.2655
  121NASP    CA    5   5.191   0.611   1.212  0.2372  0.3972  0.1161
  121NASP    HA    6   5.268   0.545   1.250 -1.3569 -2.2735 -1.0395
  121NASP    CB    7   5.106   0.520   1.115  0.3084  0.8874 -0.5433
  121NASP   HB1    8   5.165   0.469   1.040 -0.3741 -0.7665 -0.0111
  121NASP   HB2    9   5.026   0.578   1.068 -2.0014 -2.2863 -0.8915
  121NASP    CG   10   5.032   0.408   1.192 -0.7215  0.2882  0.5098
  121NASP   OD1   11   5.066   0.384   1.311  0.3094  0.0162  0.3775
  121NASP   OD2   12   4.950   0.340   1.128  0.0973 -0.3101 -0.1418
  121NASP     C   13   5.259   0.712   1.127 -0.1869  0.4163  0.3976
  121NASP     O   14   5.207   0.819   1.099 -0.1097 -0.0151  0.3077
  122ASN      N   15   5.382   0.678   1.084 -0.5641  0.1740 -0.3215
  122ASN      H   16   5.429   0.597   1.123 -0.0245 -1.1756 -3.4966
  122ASN     CA   17   5.463   0.751   0.990  0.1701  0.2350 -0.1370
  122ASN     HA   18   5.395   0.792   0.915  1.1040 -0.3925 -1.3673
  122ASN     CB   19   5.549   0.855   1.068  0.1574 -0.3881 -0.7261
  122ASN    HB1   20   5.617   0.908   1.002 -1.2126  1.7272 -0.5087
  122ASN    HB2   21   5.609   0.798   1.139  0.1723 -1.1494 -1.3263
  122ASN     CG   22   5.477   0.959   1.159 -0.8287  0.8005  0.4464
  122ASN    OD1   23   5.418   1.052   1.110  0.1062 -0.2444  0.1220
  122ASN    ND2   24   5.497   0.943   1.293  0.5440 -0.4459  0.0163
  122ASN   HD21   25   5.459   1.021   1.346  0.7665  1.0447 -1.9198
  122ASN   HD22   26   5.545   0.869   1.343 -0.6555 -0.6382  0.9238
  122ASN      C   27   5.558   0.658   0.910  0.2123 -0.2831  0.0146
  122ASN      O   28   5.611   0.560   0.961  0.2784  0.1715 -0.2049
  123GLU      N   29   5.587   0.700   0.786  0.7870 -0.5275 -0.1200
  123GLU      H   30   5.531   0.777   0.753  0.1680 -0.9596 -0.1007
  123GLU     CA   31   5.697   0.642   0.706 -0.2734 -0.3735  0.3133
  123GLU     HA   32   5.718   0.536   0.717 -0.1048 -0.1486  2.6418
  123GLU     CB   33   5.659   0.648   0.554  0.1189 -0.6412 -0.4143
  123GLU    HB1   34   5.750   0.618   0.502  0.4193  1.1744 -1.0034
  123GLU    HB2   35   5.642   0.751   0.522 -1.9627 -1.3132 -1.6276
  123GLU     CG   36   5.538   0.573   0.517  0.1232 -0.0114  0.3605
  123GLU    HG1   37   5.459   0.629   0.567  1.2607  3.1721 -1.0814
  123GLU    HG2   38   5.543   0.471   0.553  0.3393 -0.2689 -0.3696
  123GLU     CD   39   5.513   0.583   0.369  0.6112  0.8450 -0.1515
  123GLU    OE1   40   5.514   0.695   0.306  0.4072  0.3316 -0.1777
  123GLU    OE2   41   5.511   0.475   0.304 -0.2540 -0.1658  0.4080
  123GLU      C   42   5.825   0.722   0.730 -0.5772  0.0248  0.9744
  123GLU      O   43   5.833   0.842   0.779 -0.2660  0.1221  0.7085
  124ALA      N   44   5.936   0.653   0.695  0.2712 -0.4621 -0.1396
  124ALA      H   45   5.931   0.555   0.672 -0.1933 -0.8378  1.4258
  124ALA     CA   46   6.070   0.721   0.680  0.4553  0.3539 -0.1891
  124ALA     HA   47   6.092   0.762   0.779  0.3940 -0.9107  0.3610
  124ALA     CB   48   6.178   0.620   0.652  0.2494  0.2165 -0.4624
  124ALA    HB1   49   6.169   0.542   0.728  0.7478  1.8849  1.4215
  124ALA    HB2   50   6.280   0.657   0.660  1.4417 -3.1520  1.7970
  124ALA    HB3   51   6.168   0.581   0.551 -4.0147 -0.5582  0.0354
  124ALA      C   52   6.070   0.833   0.570 -0.3894  0.3582  0.3448
  124ALA      O   53   5.994   0.830   0.472 -0.3946  0.2272  0.2331
  125TYR      N   54   6.149   0.937   0.592 -0.0104  0.4663 -0.3234
  125TYR      H   55   6.213   0.939   0.670 -1.2677  1.0853  0.7376
  125TYR     CA   56   6.164   1.057   0.503  0.0381  0.8716  0.1249
  125TYR     HA   57   6.066   1.106   0.494 -0.2239  0.2470 -0.5223
  125TYR     CB   58   6.266   1.153   0.565  0.2548 -0.7754  0.4191
  125TYR    HB1   59   6.359   1.102   0.593  1.0147 -0.2223 -1.0228
  125TYR    HB2   60   6.224   1.191   0.658 -1.6716  0.3903 -0.8478
  125TYR     CG   61   6.298   1.274   0.481  0.0851  0.4839 -0.0478
  125TYR    CD1   62   6.422   1.282   0.420  0.0872  0.0213  0.0962
  125TYR    HD1   63   6.498   1.206   0.431  0.9666  0.5885 -1.6799
  125TYR    CE1   64   6.456   1.382   0.326  0.7792  0.3753  0.4124
  125TYR    HE1   65   6.553   1.389   0.280  0.0243  0.5607 -1.2074
  125TYR     CZ   66   6.365   1.484   0.304  0.5813  0.0602  0.3365
  125TYR     OH   67   6.397   1.588   0.217 -0.5298  0.0003 -0.1782
  125TYR     HH   68   6.319   1.632   0.182  0.9096  1.5529 -1.5292
  125TYR    CE2   69   6.241   1.486   0.376  0.0045  0.1985 -0.4188
  125TYR    HE2   70   6.163   1.559   0.363 -0.3448 -0.4078 -1.9318
  125TYR    CD2   71   6.206   1.376   0.461 -0.3928  0.0284  0.3864
  125TYR    HD2   72   6.112   1.373   0.514 -1.2341 -0.1781 -1.0625
  125TYR      C   73   6.217   1.014   0.367 -0.2470  0.2819 -0.0610
  125TYR      O   74   6.279   0.906   0.352 -0.4705 -0.6546 -0.1890
  126GLU      N   75   6.203   1.092   0.259 -0.0010 -0.0538  0.2051
  126GLU      H   76   6.141   1.172   0.264 -0.1013 -0.1905  1.4309
  126GLU     CA   77   6.268   1.083   0.124 -0.5585 -0.3795 -0.0892
  126GLU     HA   78   6.361   1.028   0.134 -1.7039 -2.0605  1.8649
  126GLU     CB   79   6.169   1.020   0.028  0.1600  0.6576 -0.3172
  126GLU    HB1   80   6.203   1.037  -0.074  0.9722 -1.4446 -0.4291
  126GLU    HB2   81   6.074   1.074   0.025 -1.1490 -1.5247 -0.3960
  126GLU     CG   82   6.139   0.871   0.060  0.0419  0.1157  0.3959
  126GLU    HG1   83   6.085   0.853   0.153 -0.6986 -1.0256 -0.2215
  126GLU    HG2   84   6.231   0.813   0.069  0.4662  0.8868  1.1544
  126GLU     CD   85   6.063   0.807  -0.054  0.1567  0.4718  0.1380
  126GLU    OE1   86   5.995   0.880  -0.130 -0.4088  0.0021  0.4514
  126GLU    OE2   87   6.063   0.683  -0.070  0.0001  0.1018  0.7541
  126GLU      C   88   6.318   1.219   0.071 -0.2375 -0.0126  0.5972
  126GLU      O   89   6.247   1.317   0.076  0.4587  0.4612 -0.0531
  127MET      N   90   6.443   1.209   0.014  0.6984  0.1008  0.3640
  127MET      H   91   6.486   1.117   0.007 -2.4610 -1.3681 -2.1461
  127MET     CA   92   6.505   1.325  -0.043  0.3239  0.0309  0.7208
  127MET     HA   93   6.507   1.399   0.037  2.4523  1.8336 -0.8952
  127MET     CB   94   6.650   1.289  -0.079  0.0720 -0.0739  0.5717
  127MET    HB1   95   6.694   1.382  -0.116  1.1217 -0.5703  0.5345
  127MET    HB2   96   6.655   1.203  -0.147 -2.2910 -0.7210  1.1471
  127MET     CG   97   6.734   1.256   0.042  0.0190 -0.2429 -0.4507
  127MET    HG1   98   6.677   1.185   0.102  0.0219  1.9199  2.3506
  127MET    HG2   99   6.758   1.348   0.097  2.5319  0.0101 -1.8096
  127MET     SD  100   6.884   1.157  -0.002  0.0447  0.0873  0.2444
  127MET     CE  101   6.955   1.267  -0.126 -0.5307  0.4990 -0.2356
  127MET    HE1  102   6.885   1.271  -0.210  0.0348 -0.0123 -0.7378
  127MET    HE2  103   7.047   1.227  -0.167  2.0262  1.0775  4.2890
  127MET    HE3  104   6.984   1.362  -0.083  0.1983  0.4386 -0.5881
  127MET      C  105   6.422   1.365  -0.170  0.2170  0.4798 -0.6408
  127MET      O  106   6.372   1.269  -0.233  0.2468 -0.3077 -0.6568
  128PRO      N  107   6.415   1.496  -0.211 -0.7138  0.6037 -0.3076
  128PRO     CD  108   6.483   1.609  -0.147  0.2961 -0.8968  0.1544
  128PRO    HD1  109   6.589   1.584  -0.143  0.1449 -1.4567  3.5745
  128PRO    HD2  110   6.440   1.618  -0.048 -0.8990 -1.2020 -0.3223
  128PRO     CG  111   6.452   1.736  -0.235  0.4905 -0.2301  0.1886
  128PRO    HG1  112   6.530   1.769  -0.304 -0.0916 -2.1670 -1.5103
  128PRO    HG2  113   6.439   1.827  -0.177  0.9558 -0.1969  0.2469
  128PRO     CB  114   6.326   1.698  -0.302  0.2988  0.3099 -0.6772
  128PRO    HB1  115   6.239   1.724  -0.241  0.8934  1.3600 -0.2577
  128PRO    HB2  116   6.319   1.744  -0.401  2.1243  0.8076 -0.5987
  128PRO     CA  117   6.341   1.547  -0.320  0.7557 -0.1475 -0.0648
  128PRO     HA  118   6.239   1.510  -0.318  0.5275  0.4767  1.7507
  128PRO      C  119   6.403   1.501  -0.450  0.5292  0.6506  0.5391
  128PRO      O  120   6.525   1.500  -0.470 -0.2290  0.4680 -0.5536
  129SER      N  121   6.314   1.467  -0.546  0.0438 -0.6574  0.2166
  129SER      H  122   6.214   1.478  -0.531  0.3972 -0.0755  2.4931
  129SER     CA  123   6.354   1.435  -0.687  0.1352  1.0852 -0.2277
  129SER     HA  124   6.462   1.431  -0.700  0.0364 -0.0565 -0.8700
  129SER     CB  125   6.299   1.298  -0.723  0.5295  0.6498 -0.5187
  129SER    HB1  126   6.334   1.226  -0.650  1.2541  2.1584  0.6881
  129SER    HB2  127   6.337   1.269  -0.821  3.4902 -0.0088  0.7176
  129SER     OG  128   6.159   1.300  -0.727  0.3026  0.0049  0.1949
  129SER    HG1  129   6.125   1.265  -0.810  0.6214  0.9686 -0.3609
  129SER      C  130   6.307   1.538  -0.794 -0.4714 -1.1060 -0.4432
  129SER      O  131   6.371   1.555  -0.902  0.2950 -0.1105  0.0094
  130GLU      N  132   6.199   1.607  -0.760  0.3329 -0.3007  0.3787
  130GLU      H  133   6.155   1.583  -0.673 -0.0043 -1.2777 -0.0391
  130GLU     CA  134   6.144   1.719  -0.841 -0.4910  0.1785  0.2589
  130GLU     HA  135   6.178   1.705  -0.944  0.3096 -1.1053  0.6644
  130GLU     CB  136   5.996   1.749  -0.839 -0.6878 -0.5992 -0.0614
  130GLU    HB1  137   5.959   1.823  -0.910 -1.2797 -1.2884 -0.4787
  130GLU    HB2  138   5.982   1.797  -0.742 -3.0174 -0.3489 -0.4613
  130GLU     CG  139   5.904   1.622  -0.852  0.2975 -0.3925  0.1039
  130GLU    HG1  140   5.803   1.649  -0.820 -0.2454 -0.3388 -1.5656
  130GLU    HG2  141   5.942   1.541  -0.789  0.7240 -1.4342 -1.4305
  130GLU     CD  142   5.890   1.561  -0.995  0.2479  0.0688  0.1542
  130GLU    OE1  143   5.987   1.566  -1.070  0.2802  0.4289 -0.3093
  130GLU    OE2  144   5.784   1.514  -1.041  0.1812  0.5655  0.2545
  130GLU      C  145   6.220   1.842  -0.802 -0.3203 -0.1065  0.2120
  130GLU      O  146   6.260   1.858  -0.689  0.1687  0.2899  0.0808
  131GLU      N  147   6.250   1.935  -0.899 -0.1374  0.8133  0.3887
  131GLU      H  148   6.216   1.911  -0.991 -1.4857 -3.1285  1.7193
  131GLU     CA  149   6.322   2.066  -0.882  0.1062 -0.4047 -0.3230
  131GLU     HA  150   6.405   2.058  -0.812 -0.9378 -1.3602  0.8518
  131GLU     CB  151   6.375   2.117  -1.018  0.2281  0.1223  0.5528
  131GLU    HB1  152   6.293   2.122  -1.089  0.9646  0.8890 -0.2861
  131GLU    HB2  153   6.444   2.044  -1.061 -0.9067  0.6473 -2.4074
  131GLU     CG  154   6.426   2.259  -1.005  0.4406  0.6513 -0.1527
  131GLU    HG1  155   6.480   2.274  -0.911 -0.0992 -0.1136  0.2844
  131GLU    HG2  156   6.354   2.340  -1.016  0.4291  1.0595  2.3349
  131GLU     CD  157   6.511   2.288  -1.130 -0.5400  0.3620 -0.0771
  131GLU    OE1  158   6.607   2.371  -1.118 -0.2861 -0.2267  0.1317
  131GLU    OE2  159   6.480   2.237  -1.240  0.4702 -0.2499 -0.0111
  131GLU      C  160   6.241   2.157  -0.784  0.2983  0.0239  0.1423
  131GLU      O  161   6.119   2.153  -0.769  0.1598  0.3110  0.2144
  132GLY      N  162   6.315   2.237  -0.713  0.2929 -0.2586  0.0523
  132GLY      H  163   6.413   2.232  -0.733 -0.0512 -1.4838 -1.5003
  132GLY     CA  164   6.258   2.349  -0.636 -0.4182 -0.6957 -0.5161
  132GLY    HA1  165   6.152   2.334  -0.615 -0.5842  0.2279 -0.6436
  132GLY    HA2  166   6.264   2.441  -0.694  1.0437 -0.1017  0.5284
  132GLY      C  167   6.325   2.380  -0.504 -0.8483  0.5078 -0.1660
  132GLY      O  168   6.406   2.297  -0.450 -0.1642 -0.8450  0.1584
  133TYR      N  169   6.296   2.496  -0.448 -0.5388  0.0438  0.1267
  133TYR      H  170   6.227   2.561  -0.483 -0.2700  1.3220  1.8186
  133TYR     CA  171   6.351   2.536  -0.322  0.2051 -0.3127 -0.2706
  133TYR     HA  172   6.460   2.534  -0.327  0.1639 -0.1893 -4.5224
  133TYR     CB  173   6.299   2.678  -0.282  0.1636 -0.8308 -0.4956
  133TYR    HB1  174   6.336   2.695  -0.181  1.1237 -1.1261 -0.7913
  133TYR    HB2  175   6.190   2.673  -0.285  0.1869 -1.2643 -0.7348
  133TYR     CG  176   6.347   2.794  -0.363  0.0106 -0.1475  0.5972
  133TYR    CD1  177   6.463   2.873  -0.331  0.4760  0.1855  0.0622
  133TYR    HD1  178   6.524   2.843  -0.246 -0.0645 -2.0225 -0.2625
  133TYR    CE1  179   6.500   2.984  -0.405  0.2288  0.6665  0.3058
  133TYR    HE1  180   6.588   3.046  -0.392  0.8150  0.4589 -2.1742
  133TYR     CZ  181   6.436   3.003  -0.528  0.3987 -0.1371  0.0201
  133TYR     OH  182   6.459   3.111  -0.610  0.0680  0.2991 -0.1736
  133TYR     HH  183   6.540   3.155  -0.582  0.2207 -0.6057  0.8984
  133TYR    CE2  184   6.327   2.922  -0.570 -0.9931  1.0195  0.2757
  133TYR    HE2  185   6.281   2.949  -0.663  0.9374  0.7640 -0.8068
  133TYR    CD2  186   6.276   2.827  -0.481 -0.0818  0.2140  0.0693
  133TYR    HD2  187   6.204   2.755  -0.517  1.1107 -1.8197  1.4892
  133TYR      C  188   6.303   2.436  -0.211  0.2737  0.1784  0.2689
  133TYR      O  189   6.201   2.365  -0.226 -0.0928 -0.4060 -0.0723
  134GLN      N  190   6.375   2.416  -0.101 -0.2059 -0.1939 -1.2108
  134GLN      H  191   6.461   2.469  -0.100  1.2064 -2.2561 -2.9789
  134GLN     CA  192   6.321   2.343   0.022 -0.4193  0.2836 -0.3535
  134GLN     HA  193   6.279   2.248  -0.011  0.4482 -0.0940 -0.3924
  134GLN     CB  194   6.433   2.318   0.122  0.0492 -1.0828  0.5118
  134GLN    HB1  195   6.386   2.252   0.195 -0.8527 -0.7936  0.2092
  134GLN    HB2  196   6.457   2.414   0.168  0.4273 -0.6429 -0.5673
  134GLN     CG  197   6.558   2.255   0.067  1.0149  0.4143  0.3548
  134GLN    HG1  198   6.626   2.238   0.150  2.7265 -1.2252 -1.2871
  134GLN    HG2  199   6.611   2.335   0.015 -0.5494  3.1268  2.6658
  134GLN     CD  200   6.535   2.128  -0.008 -0.0961 -0.4172  0.0062
  134GLN    OE1  201   6.534   2.132  -0.132 -0.3787 -0.6500 -0.0948
  134GLN    NE2  202   6.512   2.009   0.051  0.5240 -0.2501 -0.0495
  134GLN   HE21  203   6.489   1.922   0.005 -0.2738  0.1299 -0.3803
  134GLN   HE22  204   6.519   2.003   0.152  1.7483 -1.3058 -0.1657
  134GLN      C  205   6.219   2.428   0.100  0.2583  0.7937 -0.3134
  134GLN      O  206   6.223   2.550   0.098 -0.3775 -0.1343  0.4231
  135ASP      N  207   6.121   2.367   0.170  0.1250  0.1471 -0.3658
  135ASP      H  208   6.111   2.268   0.153 -3.7670  0.4486 -0.8514
  135ASP     CA  209   6.027   2.435   0.254  0.4530 -0.2113  0.0674
  135ASP     HA  210   5.971   2.500   0.187  1.2363  1.9068  1.3575
  135ASP     CB  211   5.921   2.336   0.313 -0.2680  0.6140 -0.0869
  135ASP    HB1  212   5.856   2.305   0.232  0.7850 -2.7741  0.1700
  135ASP    HB2  213   5.849   2.386   0.377 -1.8316 -0.4734 -0.9508
  135ASP     CG  214   5.961   2.206   0.381 -0.3710  0.7876 -0.2813
  135ASP    OD1  215   5.873   2.137   0.432 -0.1424  0.3447 -0.5632
  135ASP    OD2  216   6.084   2.170   0.394  0.1184  0.1390 -0.0999
  135ASP      C  217   6.093   2.508   0.371 -0.6070  0.4743  0.6532
  135ASP      O  218   6.036   2.601   0.429 -0.0643  0.1213  0.0012
  136TYR      N  219   6.207   2.466   0.422  0.5792 -0.3824 -0.1783
  136TYR      H  220   6.246   2.382   0.381 -0.1671 -0.9356  0.2031
  136TYR     CA  221   6.283   2.529   0.535  0.5337  0.3250  0.0565
  136TYR     HA  222   6.233   2.624   0.548  0.1849  0.2913 -0.9802
  136TYR     CB  223   6.254   2.453   0.674  0.8523  0.3389  0.4665
  136TYR    HB1  224   6.309   2.508   0.750  2.0942 -1.0048  0.5773
  136TYR    HB2  225   6.294   2.352   0.663  0.2701  0.1388  0.1393
  136TYR     CG  226   6.110   2.435   0.718  0.5090  0.3656 -0.0052
  136TYR    CD1  227   6.039   2.323   0.680 -1.0986 -0.1914 -0.3955
  136TYR    HD1  228   6.090   2.247   0.622 -2.7187  0.6114 -3.0357
  136TYR    CE1  229   5.907   2.303   0.719 -0.8431 -0.2653  0.1959
  136TYR    HE1  230   5.848   2.219   0.685  0.4112 -2.4072  2.9064
  136TYR     CZ  231   5.852   2.390   0.818 -0.1665 -0.2492 -0.3830
  136TYR     OH  232   5.718   2.391   0.846 -0.6008  0.7808 -0.1864
  136TYR     HH  233   5.684   2.312   0.803  2.0859 -1.1707  0.9357
  136TYR    CE2  234   5.930   2.491   0.877 -0.1153 -0.0756  0.2775
  136TYR    HE2  235   5.880   2.555   0.948 -1.5602 -0.2057 -0.5729
  136TYR    CD2  236   6.061   2.514   0.825 -0.3152  0.2347 -0.6380
  136TYR    HD2  237   6.111   2.605   0.852 -1.1239  0.2256  0.9983
  136TYR      C  238   6.438   2.546   0.508  0.5237  0.0711 -0.2423
  136TYR      O  239   6.497   2.464   0.437  0.4187  0.4962 -0.3502
  137GLU      N  240   6.496   2.641   0.576 -0.5454 -0.0191 -0.0391
  137GLU      H  241   6.442   2.683   0.650 -0.8075  1.6852 -1.1402
  137GLU     CA  242   6.646   2.663   0.587  1.1023  0.3245  0.4602
  137GLU     HA  243   6.688   2.629   0.493 -0.5132 -0.3159 -0.0760
  137GLU     CB  244   6.666   2.814   0.599 -0.1371 -0.6153 -0.2009
  137GLU    HB1  245   6.622   2.863   0.512  1.3314 -1.0383 -1.2192
  137GLU    HB2  246   6.772   2.839   0.594 -0.3364  0.2464 -0.3653
  137GLU     CG  247   6.613   2.873   0.736 -0.2786 -0.6240 -0.5353
  137GLU    HG1  248   6.639   2.802   0.815  1.2576 -1.2675 -1.5622
  137GLU    HG2  249   6.504   2.880   0.730 -0.4089 -0.0533  1.5938
  137GLU     CD  250   6.663   3.016   0.775 -1.0519 -0.7551 -0.1537
  137GLU    OE1  251   6.621   3.065   0.881 -0.4023 -0.5615 -0.0399
  137GLU    OE2  252   6.740   3.086   0.703  0.6458  0.4700 -0.3734
  137GLU      C  253   6.709   2.578   0.695  0.7090  0.0141 -1.0150
  137GLU      O  254   6.639   2.534   0.787 -0.4230  0.1157 -0.6960
  138PRO      N  255   6.841   2.549   0.691  0.0920 -0.3384 -0.0597
  138PRO     CD  256   6.933   2.604   0.589 -0.9863 -0.4417  0.3094
  138PRO    HD1  257   6.943   2.712   0.579  0.0235 -0.4592  0.8931
  138PRO    HD2  258   6.912   2.561   0.491  1.1674  1.2620 -1.0018
  138PRO     CG  259   7.077   2.568   0.638 -0.0134  0.4016  0.7731
  138PRO    HG1  260   7.116   2.659   0.684  2.8724  1.0606 -2.5115
  138PRO    HG2  261   7.146   2.543   0.557 -0.2488 -0.3613  0.8051
  138PRO     CB  262   7.061   2.464   0.744  0.7218 -0.8359  0.1783
  138PRO    HB1  263   7.083   2.364   0.707 -0.6805 -1.7791  1.7361
  138PRO    HB2  264   7.130   2.481   0.827  2.4518  1.0143 -1.5470
  138PRO     CA  265   6.914   2.468   0.786 -0.2725  1.0476 -0.3858
  138PRO     HA  266   6.877   2.366   0.796 -1.9699  1.7990  2.0880
  138PRO      C  267   6.904   2.524   0.925  0.2910  0.2408  0.1763
  138PRO      O  268   6.905   2.645   0.949  0.3353  0.1762 -0.4707
  139GLU      N  269   6.904   2.437   1.026 -0.0567  0.2515  0.2615
  139GLU      H  270   6.925   2.340   1.007 -0.7784 -0.0456  0.9144
  139GLU     CA  271   6.895   2.468   1.169 -0.5957 -0.1464 -0.2134
  139GLU     HA  272   6.830   2.553   1.189  0.1487  0.7628 -1.4896
  139GLU     CB  273   6.839   2.353   1.253  0.2744 -0.6215 -0.0800
  139GLU    HB1  274   6.814   2.391   1.352 -2.1247 -1.6591 -0.2233
  139GLU    HB2  275   6.915   2.275   1.264  1.6519  0.7780  0.7096
  139GLU     CG  276   6.711   2.303   1.185  0.6874 -0.2169  0.5250
  139GLU    HG1  277   6.744   2.238   1.104 -0.5453 -0.9127  0.5663
  139GLU    HG2  278   6.645   2.378   1.140  0.6934 -1.0894 -0.9978
  139GLU     CD  279   6.621   2.238   1.293  0.1043  0.7022  0.4507
  139GLU    OE1  280   6.500   2.273   1.302 -0.3544 -0.1365 -0.1515
  139GLU    OE2  281   6.668   2.154   1.373  0.6363 -0.0977 -0.3957
  139GLU      C  282   7.021   2.541   1.227 -0.4931  0.4958 -0.2285
  139GLU      O  283   7.128   2.519   1.170  0.5912 -0.3604 -0.7036
  140CALA     N  284   7.010   2.625   1.328  0.0038  0.3355  0.2078
  140CALA     H  285   6.923   2.641   1.377  0.6852  2.4620  0.8483
  140CALA    CA  286   7.122   2.681   1.395 -0.2439  0.2817 -0.1611
  140CALA    HA  287   7.191   2.728   1.325  0.2447  0.7605  0.6293
  140CALA    CB  288   7.078   2.778   1.500 -0.5034 -0.1995 -0.0577
  140CALA   HB1  289   7.007   2.739   1.572 -0.1838  1.9678  1.5303
  140CALA   HB2  290   7.040   2.868   1.451 -0.8008 -0.2476  0.0814
  140CALA   HB3  291   7.167   2.804   1.558  0.1307 -1.8071 -0.2667
  140CALA     C  292   7.208   2.573   1.457 -0.7537  0.5199  0.3392
  140CALA   OC1  293   7.158   2.501   1.548  0.0556  0.4320 -0.2820
  140CALA   OC2  294   7.327   2.576   1.405 -0.2095 -0.0117 -0.2680
  141FAS      C  295   6.236   1.914   1.211 -0.7049 -1.1383 -0.1639
  141FAS     C1  296   6.246   1.997   1.344  0.2830 -0.5398  1.0249
  141FAS      N  297   6.388   2.018   1.389 -0.0167 -0.5131  0.3500
  141FAS     C2  298   6.455   1.891   1.385  0.2628  0.1283 -0.0253
  141FAS     C3  299   6.537   1.862   1.256  0.2596  0.5007  0.6431
  141FAS     N1  300   6.459   1.838   1.132  0.6567 -0.0317  0.2225
  141FAS     C4  301   6.346   1.934   1.109 -0.7227  0.0001 -0.1184
  141FAS      S  302   6.551   1.783   0.997  0.2435  0.0141  0.1934
  141FAS      O  303   6.618   1.911   0.959 -0.0413  0.3302  0.0954
  141FAS     O1  304   6.621   1.670   1.051 -0.5528  0.1214 -0.3227
  141FAS     C5  305   6.414   1.736   0.887 -0.0393  0.3213 -0.1947
  141FAS     C6  306   6.385   1.807   0.770 -0.5708  0.0252  0.1909
  141FAS     C7  307   6.291   1.763   0.680 -0.4864  0.1658 -0.3321
  141FAS     C8  308   6.222   1.640   0.709  0.1114  0.4705 -0.4787
  141FAS     C9  309   6.234   1.582   0.835  0.6829  0.3459  0.0299
  141FAS    C10  310   6.330   1.627   0.925 -0.4396  0.3390 -0.2170
  141FAS    C11  311   6.342   1.547   1.045 -0.7520 -0.1567  0.1187
  141FAS    C12  312   6.245   1.449   1.069 -0.0491 -0.4365  0.2441
  141FAS     N2  313   6.153   1.412   0.979  0.4227  0.0156 -0.1386
  141FAS    C13  314   6.146   1.477   0.868 -0.1980  0.1806  0.7950
  141FAS      H  315   6.140   1.935   1.163 -1.0013 -1.5695  0.2282
  141FAS     H1  316   6.234   1.806   1.229  0.9680 -1.2646 -0.5927
  141FAS     H2  317   6.185   1.950   1.422 -2.3570  1.7804  0.5235
  141FAS     H3  318   6.208   2.095   1.314  2.1358  0.3841  1.5730
  141FAS     H4  319   6.446   2.085   1.335 -0.4827 -0.3491  0.0485
  141FAS     H5  320   6.394   1.809   1.421  2.4424 -1.4883  0.2016
  141FAS     H6  321   6.524   1.898   1.469 -1.9532 -1.0667  1.9996
  141FAS     H7  322   6.601   1.775   1.277 -1.6869 -0.9794  0.7996
  141FAS     H8  323   6.600   1.951   1.242 -0.5000  0.8871 -0.4997
  141FAS     H9  324   6.306   1.915   1.009  0.0076 -1.6987 -0.1236
  141FAS    H10  325   6.383   2.036   1.100 -0.2511 -0.2389 -0.9719
  141FAS    H11  326   6.443   1.894   0.741 -0.2467 -0.5621 -0.9846
  141FAS    H12  327   6.281   1.814   0.584  0.1363  2.0227  0.5422
  141FAS    H13  328   6.149   1.607   0.636  0.3905 -1.9650  0.2744
  141FAS    H14  329   6.407   1.577   1.127  1.3496 -0.8195 -1.2337
  141FAS    H15  330   6.239   1.404   1.168 -0.8623 -3.1190 -0.9079
  141FAS    H16  331   6.086   1.435   0.788  0.4748 -0.2832  0.5252
  141FAS    H17  332   6.379   2.057   1.484 -0.0386 -2.4694  1.1893
  142SOL     OW  333   4.461   3.312   3.041 -0.1362 -0.6689  0.2293
  142SOL    HW2  334   4.389   3.251   3.029 -1.6357  0.7258  1.6201
  142SOL    HW3  335   4.474   3.316   3.136  2.0057 -1.0928  0.0193
  142SOL    MW4  336   4.453   3.304   3.052 -0.0514 -0.5408  0.3851
  143SOL     OW  337   2.999   1.384   2.144 -0.1221  0.3179  0.0740
  143SOL    HW2  338   3.006   1.294   2.113  0.4356 -0.4171  2.1847
  143SOL    HW3  339   2.905   1.397   2.160 -0.1771  0.0210 -0.0018
  143SOL    MW4  340   2.987   1.374   2.142 -0.0558  0.1817  0.3425
  144SOL     OW  341   1.304   2.372   1.644  0.3013  0.1716 -0.2091
  144SOL    HW2  342   1.312   2.383   1.739  1.6986  2.0228 -0.4836
  144SOL    HW3  343   1.209   2.368   1.628  0.0484 -2.2726  1.4083
  144SOL    MW4  344   1.292   2.373   1.654  0.4523  0.0933 -0.0319
  145SOL     OW  345   1.531   5.061   1.681 -0.1097 -0.0822  0.1733
  145SOL    HW2  346   1.594   5.109   1.735  0.1759 -0.1587 -0.0877
  145SOL    HW3  347   1.575   5.051   1.597 -0.9763  0.9632 -0.4244
  145SOL    MW4  348   1.545   5.066   1.677 -0.1864  0.0456  0.0600
  146SOL     OW  349   3.089   2.306   1.916 -0.3876  0.0081 -0.3526
  146SOL    HW2  350   3.040   2.283   1.836  1.5545 -2.4926 -0.9236
  146SOL    HW3  351   3.181   2.297   1.891  0.2813 -0.1608  1.9963
  146SOL    MW4  352   3.094   2.302   1.902 -0.0431 -0.3441 -0.1180
  147SOL     OW  353   2.303   1.138   5.053  0.2626  0.5606 -0.7859
  147SOL    HW2  354   2.258   1.218   5.082 -1.3758 -1.0013  1.2597
  147SOL    HW3  355   2.388   1.169   5.022 -1.5300  3.4713 -3.3960
  147SOL    MW4  356   2.309   1.153   5.053 -0.1901  0.7386 -0.8604
  148SOL     OW  357   0.665   5.469   3.746  0.2165 -0.4406 -0.9175
  148SOL    HW2  358   0.614   5.454   3.667 -1.0759  0.9282 -0.3790
  148SOL    HW3  359   0.753   5.488   3.715  0.2353 -1.9831 -1.9052
  148SOL    MW4  360   0.670   5.469   3.731  0.0485 -0.4635 -0.9768
  149SOL     OW  361   2.857   6.194   0.875  0.3069  0.3488  0.2317
  149SOL    HW2  362   2.952   6.190   0.880  0.4325  0.1684 -1.7872
  149SOL    HW3  363   2.835   6.282   0.904  1.0162  0.1922  1.3111
  149SOL    MW4  364   2.866   6.205   0.880  0.4170  0.3043  0.1077
  150SOL     OW  365   0.344   3.957   1.717  0.4028 -0.0449  0.2228
  150SOL    HW2  366   0.359   3.865   1.694 -0.3512 -0.2249  0.4010
  150SOL    HW3  367   0.301   3.953   1.803 -0.2859  0.4295 -0.0889
  150SOL    MW4  368   0.340   3.944   1.725  0.2125 -0.0060  0.2052
  151SOL     OW  369   3.637   3.169   1.260 -0.4611 -0.1743 -0.4456
  151SOL    HW2  370   3.697   3.239   1.286 -0.2615 -0.3607 -0.4019
  151SOL    HW3  371   3.553   3.213   1.248  0.0565  0.4021 -2.2312
  151SOL    MW4  372   3.633   3.184   1.262 -0.3665 -0.1229 -0.6754
  152SOL     OW  373   0.838   3.748   1.275 -0.0075 -0.3865  0.5650
  152SOL    HW2  374   0.872   3.805   1.344  0.0080 -1.4404  1.4598
  152SOL    HW3  375   0.795   3.807   1.214  0.7657  0.6695  1.0017
  152SOL    MW4  376   0.837   3.763   1.276  0.0966 -0.3862  0.7407
  153SOL     OW  377   1.977   2.963   5.122  0.3074  0.2129  0.3982
  153SOL    HW2  378   1.958   2.902   5.194 -2.6611 -0.0100 -0.4758
  153SOL    HW3  379   1.925   2.932   5.049  0.3630  2.5879 -0.7440
  153SOL    MW4  380   1.968   2.951   5.122 -0.0769  0.4968  0.1322
  154SOL     OW  381   3.740   5.721   6.348 -0.2220  0.0644 -0.0660
  154SOL    HW2  382   3.694   5.804   6.359  1.3232  1.1402 -1.3154
  154SOL    HW3  383   3.825   5.735   6.391  0.1151 -0.8209 -0.4272
  154SOL    MW4  384   3.745   5.733   6.355  0.0264  0.0895 -0.2785
  155SOL     OW  385   2.549   5.662   4.641  0.1865 -0.3859  0.3857
  155SOL    HW2  386   2.470   5.660   4.588  0.0925  2.7060  0.1843
  155SOL    HW3  387   2.621   5.662   4.578  0.2013 -0.0516  0.3987
  155SOL    MW4  388   2.548   5.662   4.626  0.1760  0.0661  0.3608
  156SOL     OW  389   5.795   1.191   6.000 -0.2806 -0.1947 -0.2833
  156SOL    HW2  390   5.702   1.167   5.991 -0.4605  0.2303  0.3640
  156SOL    HW3  391   5.815   1.174   6.092  0.0911  0.3680 -0.2558
  156SOL    MW4  392   5.785   1.185   6.011 -0.2553 -0.0644 -0.1942
  157SOL     OW  393   6.313   3.763   4.600  0.4674 -0.3070 -0.5131
  157SOL    HW2  394   6.301   3.814   4.680  1.0326  3.0270 -2.3516
  157SOL    HW3  395   6.289   3.674   4.624 -0.0802  0.6646  3.1354
  157SOL    MW4  396   6.309   3.758   4.614  0.4697  0.2611 -0.2743
  158SOL     OW  397   4.359   1.532   5.455 -0.2658 -0.2480  0.1380
  158SOL    HW2  398   4.428   1.590   5.422 -0.6979 -0.0913 -0.5249
  158SOL    HW3  399   4.388   1.506   5.542 -0.2371  1.2810  0.6141
  158SOL    MW4  400   4.372   1.536   5.462 -0.3190 -0.0256  0.1134
  159SOL     OW  401   4.206   3.676   1.854 -0.2599 -0.1835 -0.3149
  159SOL    HW2  402   4.287   3.643   1.815 -0.2687 -2.4434  1.3978
  159SOL    HW3  403   4.229   3.764   1.884  0.8684  0.0944 -1.8391
  159SOL    MW4  404   4.220   3.683   1.853 -0.1122 -0.4450 -0.2900
  160SOL     OW  405   1.449   2.213   1.307  0.9847  0.0878 -0.0547
  160SOL    HW2  406   1.369   2.183   1.265 -0.3383  2.5967  0.4776
  160SOL    HW3  407   1.470   2.295   1.263  3.1450 -0.3727  0.0079
  160SOL    MW4  408   1.441   2.220   1.296  1.0952  0.3580  0.0238
  161SOL     OW  409   4.436   3.505   6.009 -0.3862 -0.0044  0.0295
  161SOL    HW2  410   4.382   3.488   5.932 -0.6619 -1.5728  0.5425
  161SOL    HW3  411   4.524   3.519   5.973 -0.7271  0.4785 -0.6478
  161SOL    MW4  412   4.441   3.504   5.994 -0.4675 -0.1476  0.0078
  162SOL     OW  413   4.372   6.151   1.213  0.0864 -0.2295  0.4074
  162SOL    HW2  414   4.392   6.095   1.288  0.4482  0.4957  0.8569
  162SOL    HW3  415   4.400   6.099   1.137  2.4636  0.1731  0.9248
  162SOL    MW4  416   4.379   6.137   1.213  0.4478 -0.0807  0.5350
  163SOL     OW  417   0.513   4.059   4.765  0.4639  0.3200  0.1151
  163SOL    HW2  418   0.458   3.987   4.736  0.9315 -0.7050  1.6138
  163SOL    HW3  419   0.602   4.029   4.747  0.6021  1.7443 -1.8255
  163SOL    MW4  420   0.518   4.045   4.759  0.5439  0.3727  0.0568
  164SOL     OW  421   2.466   5.640   5.258 -0.6089  0.0518 -0.4868
  164SOL    HW2  422   2.528   5.567   5.267 -1.2511 -0.8469 -2.5979
  164SOL    HW3  423   2.380   5.597   5.248 -1.1286  1.1391 -0.8611
  164SOL    MW4  424   2.463   5.625   5.258 -0.7622  0.0767 -0.8147
  165SOL     OW  425   2.072   1.711   3.712 -0.3038  0.0191  0.5305
  165SOL    HW2  426   2.019   1.723   3.633 -0.3724 -0.7629  0.4521
  165SOL    HW3  427   2.131   1.639   3.691 -0.1031  0.0159  1.0840
  165SOL    MW4  428   2.073   1.703   3.699 -0.2864 -0.0845  0.5932
  166SOL     OW  429   5.342   5.613   5.485  0.1290  0.1245 -0.0616
  166SOL    HW2  430   5.316   5.701   5.514  0.1456 -0.5339  2.0905
  166SOL    HW3  431   5.423   5.596   5.531  0.1028 -1.0565 -0.4323
  166SOL    MW4  432   5.349   5.623   5.495  0.1277 -0.1182  0.1735
  167SOL     OW  433   5.373   0.140   5.825  0.3296  0.6673 -0.4376
  167SOL    HW2  434   5.452   0.103   5.865 -0.8699 -1.1155  0.4161
  167SOL    HW3  435   5.335   0.195   5.894  0.8522  1.6379 -0.8952
  167SOL    MW4  436   5.379   0.143   5.839  0.2403  0.5602 -0.3853
  168SOL     OW  437   4.586   4.406   1.407  0.0608  0.1651 -0.3897
  168SOL    HW2  438   4.592   4.484   1.351 -0.0958  0.4641  0.0062
  168SOL    HW3  439   4.643   4.342   1.365  1.7389  1.1175  0.3304
  168SOL    MW4  440   4.594   4.408   1.394  0.2616  0.3302 -0.2424
  169SOL     OW  441   0.897   1.582   5.809  0.2179  0.0352 -0.4278
  169SOL    HW2  442   0.844   1.661   5.804 -0.5686 -0.5453 -1.7365
  169SOL    HW3  443   0.857   1.530   5.879  1.1853  1.0565  0.9635
  169SOL    MW4  444   0.885   1.586   5.818  0.2417  0.0934 -0.4169
  170SOL     OW  445   1.395   2.428   3.788 -0.1139 -0.4366  0.1345
  170SOL    HW2  446   1.464   2.363   3.774 -0.3664 -1.3773  2.7216
  170SOL    HW3  447   1.436   2.512   3.767  1.4731 -1.0839  0.5055
  170SOL    MW4  448   1.410   2.431   3.784  0.0622 -0.6461  0.5248
  171SOL     OW  449   4.850   4.265   5.947  0.7760  0.5225 -0.0021
  171SOL    HW2  450   4.797   4.300   6.019  1.0626  0.5964  0.1725
  171SOL    HW3  451   4.804   4.186   5.920  1.1423  0.0079  0.8450
  171SOL    MW4  452   4.837   4.260   5.953  0.8622  0.4643  0.1327
  172SOL     OW  453   2.114   3.107   3.747  0.1779 -0.2113 -0.4424
  172SOL    HW2  454   2.175   3.039   3.718 -1.5528 -2.4913  0.9064
  172SOL    HW3  455   2.029   3.064   3.747 -0.9332  1.8372  0.9509
  172SOL    MW4  456   2.111   3.092   3.744 -0.1971 -0.2419 -0.0806
  173SOL     OW  457   2.684   4.968   0.208  0.0740  0.6198 -0.1935
  173SOL    HW2  458   2.627   5.024   0.261 -0.0325 -1.2731  1.8589
  173SOL    HW3  459   2.629   4.941   0.135 -0.1026  2.5285 -0.8182
  173SOL    MW4  460   2.669   4.972   0.206  0.0367  0.6219 -0.0052
  174SOL     OW  461   6.202   2.483   2.490 -0.2181  0.1557  0.1481
  174SOL    HW2  462   6.200   2.565   2.440 -0.5757  0.0673  0.0158
  174SOL    HW3  463   6.127   2.490   2.550  0.1673  0.2308  0.6261
  174SOL    MW4  464   6.192   2.495   2.492 -0.2144  0.1539  0.1937
  175SOL     OW  465   3.628   3.642   5.909  0.2933  0.5209 -0.0375
  175SOL    HW2  466   3.560   3.685   5.857  0.9726  1.0712 -0.4947
  175SOL    HW3  467   3.629   3.689   5.992  1.3395  1.7559 -0.6931
  175SOL    MW4  468   3.620   3.654   5.913  0.5210  0.7565 -0.1843
  176SOL     OW  469   1.999   1.999   3.445  0.2631  0.0570 -0.0602
  176SOL    HW2  470   2.093   2.015   3.460 -0.2555  1.0892  2.8350
  176SOL    HW3  471   1.983   1.914   3.485  0.3763 -1.5137 -3.0684
  176SOL    MW4  472   2.010   1.990   3.452  0.2096 -0.0140 -0.0751
  177SOL     OW  473   4.848   4.950   1.142 -0.1123  0.1111 -0.0475
  177SOL    HW2  474   4.809   4.929   1.227  0.5825 -0.2331  0.1978
  177SOL    HW3  475   4.853   5.046   1.142  1.4138  0.0728  1.0408
  177SOL    MW4  476   4.844   4.960   1.154  0.1807  0.0607  0.1284
  178SOL     OW  477   2.344   4.096   3.388  0.2295 -0.1784 -0.0214
  178SOL    HW2  478   2.327   4.004   3.407 -1.0142  0.0882  0.2217
  178SOL    HW3  479   2.418   4.094   3.327 -0.6750 -1.4234 -1.1577
  178SOL    MW4  480   2.352   4.083   3.382 -0.0539 -0.3075 -0.1392
  179SOL     OW  481   1.071   4.747   4.506 -0.0250  0.2529 -0.2775
  179SOL    HW2  482   1.031   4.747   4.592  0.7548 -0.8320  0.0981
  179SOL    HW3  483   1.000   4.776   4.447 -0.1724  2.4711  0.8536
  179SOL    MW4  484   1.056   4.751   4.509  0.0584  0.4024 -0.0787
  180SOL     OW  485   3.974   4.034   4.986 -0.0310  0.2383  0.6481
  180SOL    HW2  486   4.051   4.088   4.967  0.2045 -0.1600  0.4643
  180SOL    HW3  487   3.899   4.090   4.963  0.2102  0.5040  0.5011
  180SOL    MW4  488   3.974   4.048   4.980  0.0319  0.2208  0.6045
  181SOL     OW  489   5.748   0.039   2.178  0.0074 -0.0977  0.6834
  181SOL    HW2  490   5.653   0.029   2.183 -0.2791  2.2737  1.1852
  181SOL    HW3  491   5.783  -0.041   2.217 -1.8355 -0.0318  2.6499
  181SOL    MW4  492   5.740   0.027   2.184 -0.2735  0.2239  1.0091
  182SOL     OW  493   0.958   2.612   0.493  0.5182 -0.1652  0.2160
  182SOL    HW2  494   0.934   2.521   0.476  0.6956 -0.3160  0.7739
  182SOL    HW3  495   0.942   2.625   0.586  0.3096  0.4351  0.1065
  182SOL    MW4  496   0.952   2.602   0.503  0.5141 -0.1059  0.2752
  183SOL     OW  497   2.179   0.980   2.091  0.1363 -0.1036  0.1958
  183SOL    HW2  498   2.206   0.913   2.029 -1.2220 -0.4824 -0.0116
  183SOL    HW3  499   2.236   0.967   2.167  0.6802 -0.7095 -0.3082
  183SOL    MW4  500   2.190   0.970   2.093  0.0289 -0.2335  0.1019
  184SOL     OW  501   5.292   1.135   0.730  0.5719 -0.0624 -0.4165
  184SOL    HW2  502   5.227   1.108   0.795  0.1742 -2.9359 -1.8418
  184SOL    HW3  503   5.359   1.181   0.780 -0.3199 -1.0849  1.8273
  184SOL    MW4  504   5.292   1.137   0.745  0.4018 -0.5764 -0.3085
  185SOL     OW  505   0.209   5.446   1.402 -0.5241 -0.7177  0.4825
  185SOL    HW2  506   0.224   5.540   1.410 -2.7384 -0.2371 -0.1947
  185SOL    HW3  507   0.126   5.432   1.447 -2.1162 -1.6574 -2.4807
  185SOL    MW4  508   0.200   5.457   1.409 -1.0263 -0.7783  0.0022
  186SOL     OW  509   2.873   0.529   3.720 -0.2564 -0.0853  0.0152
  186SOL    HW2  510   2.817   0.456   3.745  0.9668 -1.6794 -1.6247
  186SOL    HW3  511   2.960   0.504   3.748  0.6831 -0.6841 -3.0715
  186SOL    MW4  512   2.877   0.516   3.727  0.0289 -0.3746 -0.6084
  187SOL     OW  513   4.192   6.236   3.632 -0.3018 -0.2761  0.3362
  187SOL    HW2  514   4.269   6.282   3.600  0.2158 -1.3218  0.0553
  187SOL    HW3  515   4.120   6.274   3.581 -0.0371  0.8837  0.7769
  187SOL    MW4  516   4.192   6.247   3.621 -0.1986 -0.2611  0.3573
  188SOL     OW  517   1.253   1.834   2.674 -0.6376  0.2836 -0.7435
  188SOL    HW2  518   1.297   1.833   2.589 -0.5047 -0.8544 -0.6822
  188SOL    HW3  519   1.245   1.741   2.697 -2.0035  0.5130 -0.2085
  188SOL    MW4  520   1.258   1.822   2.666 -0.8003  0.1637 -0.6649
  189SOL     OW  521   4.624   3.537   3.032 -0.3370 -0.1374 -0.0186
  189SOL    HW2  522   4.646   3.528   3.125  1.8426 -1.3871 -0.5996
  189SOL    HW3  523   4.576   3.457   3.010 -0.0393 -0.2676 -0.1915
  189SOL    MW4  524   4.620   3.525   3.041 -0.0101 -0.3195 -0.1181
  190SOL     OW  525   1.698   0.808   4.895 -0.0820 -0.3816  0.1841
  190SOL    HW2  526   1.791   0.823   4.876 -0.2273  0.2262 -0.0756
  190SOL    HW3  527   1.698   0.769   4.982  0.3855  0.1393  0.4233
  190SOL    MW4  528   1.711   0.805   4.904 -0.0395 -0.2327  0.1814
  191SOL     OW  529   3.102   5.609   6.062  0.0670  0.5877 -0.0318
  191SOL    HW2  530   3.069   5.688   6.104  0.9048  0.5298  0.7782
  191SOL    HW3  531   3.026   5.573   6.016 -0.7461  0.9923  0.9343
  191SOL    MW4  532   3.087   5.615   6.062  0.0702  0.6334  0.2025
  192SOL     OW  533   5.732   4.460   5.683 -0.5404 -0.1777 -0.2971
  192SOL    HW2  534   5.666   4.519   5.719 -1.2129 -0.4637 -1.0201
  192SOL    HW3  535   5.757   4.502   5.600 -1.1434 -0.9629 -0.8980
  192SOL    MW4  536   5.726   4.474   5.677 -0.7087 -0.3190 -0.4718
  193SOL     OW  537   4.278   2.091   1.540  0.1949 -0.4259  0.3976
  193SOL    HW2  538   4.267   2.181   1.572  0.2104 -1.5568  4.0005
  193SOL    HW3  539   4.192   2.051   1.551  0.6134 -1.3255  0.5025
  193SOL    MW4  540   4.265   2.098   1.545  0.2521 -0.6938  0.8868
  194SOL     OW  541   1.359   5.423   5.126  0.8652  0.0716  0.1777
  194SOL    HW2  542   1.351   5.518   5.126 -0.1756 -0.0066 -1.1010
  194SOL    HW3  543   1.345   5.398   5.218 -2.0755  0.9093  0.0398
  194SOL    MW4  544   1.356   5.432   5.138  0.3399  0.1718 -0.0092
  195SOL     OW  545   0.974   4.568   0.362  0.1952  0.3550  0.3158
  195SOL    HW2  546   0.983   4.504   0.292  1.7404 -0.0212  0.8064
  195SOL    HW3  547   0.950   4.650   0.317  0.7006  0.0168 -0.6004
  195SOL    MW4  548   0.972   4.571   0.347  0.4657  0.2607  0.2596
  196SOL     OW  549   4.968   5.259   0.898 -0.5251  0.8385  0.0309
  196SOL    HW2  550   4.976   5.182   0.842 -1.3005  0.6886  0.1073
  196SOL    HW3  551   5.058   5.281   0.923 -0.2590  0.2857 -0.4306
  196SOL    MW4  552   4.981   5.252   0.894 -0.5923  0.7458 -0.0199
  197SOL     OW  553   6.054   6.042   5.257 -0.1431 -0.0961 -0.6592
  197SOL    HW2  554   6.092   6.003   5.335 -0.7401 -1.4174 -1.0014
  197SOL    HW3  555   6.129   6.059   5.200  0.1170 -1.0815 -0.6349
  197SOL    MW4  556   6.069   6.039   5.260 -0.1876 -0.4004 -0.7012
  198SOL     OW  557   1.086   4.364   4.302  0.7163  0.5657  0.9405
  198SOL    HW2  558   1.088   4.336   4.211 -0.0757  2.7617  0.1746
  198SOL    HW3  559   1.139   4.299   4.349  0.9450 -0.7378 -1.0223
  198SOL    MW4  560   1.093   4.352   4.296  0.6420  0.6835  0.5805
  199SOL     OW  561   2.714   0.628   5.131  0.6534 -0.1172  0.0162
  199SOL    HW2  562   2.624   0.622   5.162  0.8945 -1.9154  0.4502
  199SOL    HW3  563   2.747   0.709   5.169 -0.3163 -0.2150  1.0996
  199SOL    MW4  564   2.707   0.638   5.140  0.5572 -0.3674  0.2164
  200SOL     OW  565   5.301   1.183   3.925 -0.4861  0.0159 -0.3157
  200SOL    HW2  566   5.214   1.191   3.963 -0.5209 -1.6795  0.0482
  200SOL    HW3  567   5.356   1.240   3.979 -1.1094 -0.0021  0.3506
  200SOL    MW4  568   5.297   1.192   3.937 -0.5729 -0.2101 -0.1798
  201SOL     OW  569   2.223   5.819   0.305  0.4859  0.6563  0.2124
  201SOL    HW2  570   2.192   5.858   0.387 -0.6203 -0.5863  0.4049
  201SOL    HW3  571   2.154   5.758   0.279  0.8155  1.0215 -1.6633
  201SOL    MW4  572   2.210   5.816   0.312  0.3835  0.5405 -0.0097
  202SOL     OW  573   0.003   0.505   6.243  0.4592  0.1045  0.3403
  202SOL    HW2  574  -0.078   0.524   6.291 -0.4580 -0.1543 -1.0322
  202SOL    HW3  575   0.015   0.411   6.253 -1.4681 -0.5546 -2.3754
  202SOL    MW4  576  -0.006   0.495   6.250  0.0839 -0.0166 -0.1991
  203SOL     OW  577   6.100   0.211   0.585 -0.1240 -0.3217 -0.0096
  203SOL    HW2  578   6.164   0.253   0.643 -0.5323 -1.4690  1.3085
  203SOL    HW3  579   6.147   0.202   0.502  0.5408  1.1776  0.1674
  203SOL    MW4  580   6.115   0.215   0.582 -0.0902 -0.2753  0.1876
  204SOL     OW  581   5.070   1.083   0.904  0.2156 -0.5809  0.0929
  204SOL    HW2  582   5.084   1.102   0.997 -1.9069 -0.2418  0.3818
  204SOL    HW3  583   5.010   1.009   0.903 -0.8354  0.2633 -0.9875
  204SOL    MW4  584   5.064   1.076   0.916 -0.2031 -0.4248 -0.0115
  205SOL     OW  585   3.468   6.270   0.446 -0.1393 -0.6338  0.4774
  205SOL    HW2  586   3.424   6.355   0.439 -1.0885 -1.0799  0.8425
  205SOL    HW3  587   3.402   6.213   0.486  0.7852 -1.3225  1.0371
  205SOL    MW4  588   3.453   6.274   0.451 -0.1426 -0.7835  0.5994
  206SOL     OW  589   5.640   2.837   5.428  0.1446 -0.0637 -1.1253
  206SOL    HW2  590   5.617   2.744   5.434 -1.4138  0.2278 -2.0587
  206SOL    HW3  591   5.625   2.870   5.517  1.3439 -0.7976 -0.6107
  206SOL    MW4  592   5.635   2.829   5.441  0.0972 -0.1221 -1.1805
  207SOL     OW  593   2.106   6.257   3.826 -0.4839 -0.6707 -0.5010
  207SOL    HW2  594   2.117   6.207   3.906 -3.3730  2.0453  1.8664
  207SOL    HW3  595   2.156   6.338   3.841 -2.0814  0.4187 -0.8017
  207SOL    MW4  596   2.114   6.261   3.838 -1.0758 -0.1686 -0.2283
  208SOL     OW  597   2.245   3.474   0.126  0.1899 -0.2535 -0.0376
  208SOL    HW2  598   2.227   3.385   0.097  0.8078 -0.8064  1.1960
  208SOL    HW3  599   2.288   3.463   0.211 -0.6401  1.2526  0.6132
  208SOL    MW4  600   2.248   3.461   0.133  0.1619 -0.1278  0.2110
  209SOL     OW  601   4.799   3.738   2.911 -0.4260 -0.6971 -0.2917
  209SOL    HW2  602   4.748   3.683   2.971  1.5776 -0.8075  1.4234
  209SOL    HW3  603   4.810   3.684   2.833 -1.4957 -1.3122 -0.0401
  209SOL    MW4  604   4.794   3.724   2.909 -0.3028 -0.7928 -0.0322
  210SOL     OW  605   2.853   0.582   0.872  0.0196 -0.4337  0.2445
  210SOL    HW2  606   2.907   0.504   0.860  0.1267 -0.4329  0.6886
  210SOL    HW3  607   2.834   0.613   0.783  1.1123 -0.1893  0.0823
  210SOL    MW4  608   2.857   0.576   0.859  0.1779 -0.4013  0.2817
  211SOL     OW  609   5.509   3.880   2.097  0.0541 -0.1521  0.2079
  211SOL    HW2  610   5.583   3.925   2.138 -0.6509  0.4699  0.8088
  211SOL    HW3  611   5.464   3.836   2.169 -0.3300 -0.2835 -0.1094
  211SOL    MW4  612   5.513   3.880   2.112 -0.0896 -0.0874  0.2453
  212SOL     OW  613   0.274   0.212   4.051 -0.3837  0.2082 -0.3297
  212SOL    HW2  614   0.261   0.267   3.975 -0.6224  1.0001  0.2746
  212SOL    HW3  615   0.369   0.212   4.065 -0.3941  0.5684 -0.2598
  212SOL    MW4  616   0.285   0.219   4.043 -0.4166  0.3602 -0.2407
  213SOL     OW  617   4.811   3.231   2.112 -0.3109 -0.0085 -0.1431
  213SOL    HW2  618   4.877   3.176   2.153 -0.7939 -1.3349 -1.0460
  213SOL    HW3  619   4.856   3.275   2.040 -0.1502 -0.0349 -0.0570
  213SOL    MW4  620   4.825   3.229   2.108 -0.3534 -0.1870 -0.2509
  214SOL     OW  621   4.414   2.468   3.989  0.5761  0.0354  0.2619
  214SOL    HW2  622   4.496   2.447   3.945 -0.1495 -0.0203 -1.0990
  214SOL    HW3  623   4.361   2.389   3.978 -0.4441  0.8477 -0.7669
  214SOL    MW4  624   4.418   2.455   3.982  0.3458  0.1352 -0.0534
  215SOL     OW  625   5.571   6.380   5.570 -0.6052 -0.3645  0.2176
  215SOL    HW2  626   5.514   6.307   5.592 -1.4538  0.0634 -0.5259
  215SOL    HW3  627   5.523   6.430   5.504  1.3078 -0.8823 -1.6618
  215SOL    MW4  628   5.557   6.377   5.564 -0.4647 -0.3763 -0.1285
  216SOL     OW  629   3.935   5.037   2.488  0.8211  0.0229 -0.4568
  216SOL    HW2  630   3.854   5.022   2.537  0.5800 -1.5848 -1.2910
  216SOL    HW3  631   3.937   5.132   2.474 -0.6584  0.1534  0.0041
  216SOL    MW4  632   3.924   5.048   2.493  0.5941 -0.1720 -0.5061
  217SOL     OW  633   5.240   1.031   4.754 -0.1455 -0.2511 -0.0242
  217SOL    HW2  634   5.217   0.939   4.757  2.0330 -0.8359  2.5082
  217SOL    HW3  635   5.315   1.035   4.693 -1.2019  0.1655 -1.3460
  217SOL    MW4  636   5.247   1.020   4.746  0.0025 -0.2733  0.1355
  218SOL     OW  637   2.792   5.262   4.522  0.4312 -0.3482  0.0264
  218SOL    HW2  638   2.701   5.251   4.549  0.7408 -0.9065  0.8785
  218SOL    HW3  639   2.843   5.220   4.591  1.3953  0.8826  0.0970
  218SOL    MW4  640   2.786   5.255   4.535  0.5992 -0.2595  0.1481
  219SOL     OW  641   3.646   1.502   6.218 -0.0680 -0.7432 -0.8558
  219SOL    HW2  642   3.593   1.579   6.239  1.3230  0.3766 -1.1952
  219SOL    HW3  643   3.587   1.442   6.174 -1.2474  0.0499 -0.3853
  219SOL    MW4  644   3.631   1.505   6.215 -0.0401 -0.4908 -0.8385
  220SOL     OW  645   4.082   0.116   4.610 -0.5094  0.0859  0.0432
  220SOL    HW2  646   4.109   0.087   4.522  0.5588  0.7918  0.1101
  220SOL    HW3  647   4.159   0.162   4.644 -0.9964  0.0328  1.2623
  220SOL    MW4  648   4.096   0.118   4.603 -0.4327  0.1720  0.2129
  221SOL     OW  649   6.242   0.965   2.786 -0.2155  0.5148 -0.1109
  221SOL    HW2  650   6.242   0.888   2.729  2.0876  0.1902  0.2384
  221SOL    HW3  651   6.220   0.932   2.872 -0.9803  0.5473 -0.2923
  221SOL    MW4  652   6.239   0.951   2.790 -0.0125  0.4763 -0.0888
  222SOL     OW  653   4.026   2.490   2.366 -0.0358  0.2517  0.2441
  222SOL    HW2  654   3.934   2.464   2.361 -0.6062  1.9814  1.2279
  222SOL    HW3  655   4.070   2.431   2.304 -1.9087 -0.0751 -0.8639
  222SOL    MW4  656   4.020   2.479   2.357 -0.3582  0.4368  0.2277
  223SOL     OW  657   1.919   5.457   3.143  0.0267  0.2968 -0.0812
  223SOL    HW2  658   1.878   5.386   3.192 -1.4409  1.0617 -0.1256
  223SOL    HW3  659   1.913   5.429   3.051 -1.4762  0.8815 -0.1903
  223SOL    MW4  660   1.913   5.444   3.137 -0.3652  0.4749 -0.1014
  224SOL     OW  661   3.168   6.299   5.921  0.2665  0.0508  0.1424
  224SOL    HW2  662   3.193   6.214   5.958  0.2556  0.3242  0.7898
  224SOL    HW3  663   3.087   6.280   5.874  0.2800 -0.3083  0.2552
  224SOL    MW4  664   3.160   6.285   5.920  0.2669  0.0395  0.2427
  225SOL     OW  665   4.810   3.388   3.910  0.1262  0.1115 -0.0209
  225SOL    HW2  666   4.838   3.457   3.970  0.0497  0.0240  0.1174
  225SOL    HW3  667   4.788   3.315   3.967  1.2856 -0.4160 -0.2328
  225SOL    MW4  668   4.811   3.388   3.925  0.2691  0.0304 -0.0306
  226SOL     OW  669   4.079   2.506   1.183 -0.1132 -0.2106 -0.2393
  226SOL    HW2  670   4.102   2.590   1.143  0.1063 -0.6870 -1.1552
  226SOL    HW3  671   4.112   2.441   1.121  2.6527 -1.0808  1.9601
  226SOL    MW4  672   4.086   2.509   1.169  0.2807 -0.3883 -0.0699
  227SOL     OW  673   0.188   2.177   2.341  0.3036 -0.2376 -0.1221
  227SOL    HW2  674   0.187   2.082   2.326 -1.0375 -0.3560  0.5314
  227SOL    HW3  675   0.113   2.210   2.291 -0.1394  0.2670  0.8543
  227SOL    MW4  676   0.178   2.169   2.332  0.0682 -0.1867  0.0930
  228SOL     OW  677   5.435   3.559   0.045 -0.1039 -0.2142  0.1708
  228SOL    HW2  678   5.393   3.622  -0.014 -0.0744  0.1549  0.5410
  228SOL    HW3  679   5.506   3.608   0.085  1.0819 -0.9966 -0.8882
  228SOL    MW4  680   5.439   3.573   0.042  0.0564 -0.2687  0.0799
  229SOL     OW  681   5.063   3.706   1.721  0.0580  0.5969 -0.1640
  229SOL    HW2  682   5.011   3.785   1.737 -1.0198 -0.8504  5.9917
  229SOL    HW3  683   5.153   3.733   1.740 -0.1106  0.7117  0.5108
  229SOL    MW4  684   5.068   3.720   1.726 -0.1064  0.4211  0.7372
  230SOL     OW  685   0.817   5.400   3.141  0.2076 -0.8343 -0.1569
  230SOL    HW2  686   0.862   5.420   3.059  0.5751 -0.1315  0.2069
  230SOL    HW3  687   0.877   5.431   3.209 -1.7482  2.2533  0.3323
  230SOL    MW4  688   0.831   5.407   3.139 -0.0020 -0.3342 -0.0443
  231SOL     OW  689   3.794   0.598   0.323  0.3233 -0.2517 -0.5763
  231SOL    HW2  690   3.838   0.549   0.254 -1.1716 -0.7399 -1.2435
  231SOL    HW3  691   3.814   0.689   0.304  1.5161 -0.4772 -0.4913
  231SOL    MW4  692   3.802   0.603   0.311  0.2834 -0.3459 -0.6531
  232SOL     OW  693   5.269   5.964   3.259  0.0077 -0.1418 -0.0972
  232SOL    HW2  694   5.301   6.034   3.201 -2.8647 -0.1460 -1.8879
  232SOL    HW3  695   5.264   5.887   3.202 -0.7028 -0.7514  0.7690
  232SOL    MW4  696   5.272   5.963   3.244 -0.4650 -0.2227 -0.2191
  233SOL     OW  697   1.234   4.171   4.440  0.0179  0.4283  0.4383
  233SOL    HW2  698   1.301   4.210   4.496 -0.3379  1.6094  0.0732
  233SOL    HW3  699   1.213   4.088   4.481  0.6431  0.7255  1.3747
  233SOL    MW4  700   1.240   4.165   4.452  0.0534  0.6233  0.5137
  234SOL     OW  701   0.189   2.325   2.601  0.0436  0.5314  0.0469
  234SOL    HW2  702   0.235   2.261   2.655  0.6248 -0.2134 -1.3144
  234SOL    HW3  703   0.190   2.289   2.513 -0.5498  1.9169 -0.5613
  234SOL    MW4  704   0.195   2.312   2.597  0.0420  0.6160 -0.2129
  235SOL     OW  705   5.023   3.062   2.213 -0.1217 -0.0920 -0.0782
  235SOL    HW2  706   5.109   3.090   2.181 -0.8663  1.0394 -1.2184
  235SOL    HW3  707   5.037   2.975   2.248  1.1162 -0.7889 -2.1519
  235SOL    MW4  708   5.036   3.055   2.213 -0.0566 -0.0347 -0.5022
  236SOL     OW  709   5.870   5.316   3.566 -0.2966 -0.4457 -0.2191
  236SOL    HW2  710   5.783   5.317   3.524 -0.5667  0.7841  0.3320
  236SOL    HW3  711   5.875   5.230   3.608 -1.4605 -0.3342  0.1795
  236SOL    MW4  712   5.859   5.305   3.566 -0.4858 -0.2688 -0.0938
  237SOL     OW  713   4.141   3.387   1.196  0.1434  0.3121 -0.3386
  237SOL    HW2  714   4.205   3.344   1.139  1.1407  0.4547  0.6291
  237SOL    HW3  715   4.157   3.480   1.184  0.3843  0.3409  0.2022
  237SOL    MW4  716   4.151   3.393   1.187  0.3067  0.3347 -0.1396
  238SOL     OW  717   6.103   1.842   4.500 -0.6096 -1.0147  0.9142
  238SOL    HW2  718   6.126   1.919   4.449  0.3809 -1.6784  0.3167
  238SOL    HW3  719   6.172   1.836   4.566  1.5362 -3.4228 -1.3184
  238SOL    MW4  720   6.115   1.851   4.502 -0.1958 -1.4200  0.5408
  239SOL     OW  721   3.784   3.210   5.723 -0.4628 -0.4289  0.0853
  239SOL    HW2  722   3.829   3.289   5.695 -2.3779  0.5893 -0.2838
  239SOL    HW3  723   3.764   3.163   5.642  0.0073 -0.9326  0.2529
  239SOL    MW4  724   3.787   3.214   5.708 -0.6535 -0.3610  0.0587
  240SOL     OW  725   6.151   6.342   1.994  0.3756 -0.0658  0.0980
  240SOL    HW2  726   6.200   6.384   2.065  1.3216 -0.5930 -0.2202
  240SOL    HW3  727   6.109   6.267   2.036  1.0946 -0.4927  0.0793
  240SOL    MW4  728   6.152   6.337   2.009  0.5953 -0.1917  0.0535
  241SOL     OW  729   1.987   4.551   3.790 -0.1993  0.0033 -0.2305
  241SOL    HW2  730   1.956   4.563   3.880  0.2423 -0.4501 -0.0126
  241SOL    HW3  731   2.024   4.463   3.789  1.2480  0.5722 -0.4192
  241SOL    MW4  732   1.988   4.541   3.802  0.0499  0.0185 -0.2266
  242SOL     OW  733   5.804   2.003   0.170 -0.2179  0.3834  0.0829
  242SOL    HW2  734   5.889   1.968   0.144 -0.7453  0.0371 -1.2468
  242SOL    HW3  735   5.824   2.058   0.247  1.4156  1.3629 -0.9619
  242SOL    MW4  736   5.818   2.006   0.177 -0.0720  0.4670 -0.2303
  243SOL     OW  737   5.819   0.478   5.133  0.1035 -0.2596  0.2799
  243SOL    HW2  738   5.855   0.463   5.220  0.9870  0.4804  0.0518
  243SOL    HW3  739   5.724   0.479   5.147  0.1078 -2.3045  0.8775
  243SOL    MW4  740   5.811   0.476   5.146  0.2206 -0.4318  0.3287
  244SOL     OW  741   6.122   1.107   5.907  0.4801 -0.2074 -0.2608
  244SOL    HW2  742   6.121   1.188   5.856 -1.8636  0.6527  1.0155
  244SOL    HW3  743   6.114   1.136   5.998  1.6845 -1.8279  0.4241
  244SOL    MW4  744   6.121   1.122   5.913  0.3298 -0.3077 -0.0020
  245SOL     OW  745   0.434   2.794   2.738  0.2219 -0.2765  0.1917
  245SOL    HW2  746   0.435   2.852   2.662 -2.8429  1.2420  1.1351
  245SOL    HW3  747   0.412   2.708   2.702  0.0787  0.1467 -0.7789
  245SOL    MW4  748   0.431   2.790   2.723 -0.2013 -0.0203  0.1881
  246SOL     OW  749   3.986   5.131   1.797  0.1778 -0.6802 -0.2334
  246SOL    HW2  750   4.030   5.104   1.878  1.4359 -1.9398 -1.3026
  246SOL    HW3  751   3.928   5.058   1.776  1.3634 -1.2820 -1.5309
  246SOL    MW4  752   3.984   5.118   1.805  0.5002 -0.9258 -0.5457
  247SOL     OW  753   0.988   2.337   0.905 -0.3070  0.0211 -0.3642
  247SOL    HW2  754   0.977   2.431   0.920  0.2403  0.0413 -0.0505
  247SOL    HW3  755   0.922   2.296   0.960 -0.2317  0.2103 -0.1311
  247SOL    MW4  756   0.978   2.344   0.914 -0.2248  0.0487 -0.2921
  248SOL     OW  757   3.050   3.605   0.317  0.1977 -0.0034  0.6653
  248SOL    HW2  758   3.080   3.610   0.408  0.5087 -1.2059  0.6463
  248SOL    HW3  759   3.098   3.531   0.280  0.1449  0.5292 -0.5187
  248SOL    MW4  760   3.060   3.596   0.324  0.2318 -0.0918  0.5066
  249SOL     OW  761   3.751   2.812   5.375  0.1407 -0.5242 -0.1976
  249SOL    HW2  762   3.760   2.808   5.280 -1.2184  1.2972 -0.4722
  249SOL    HW3  763   3.743   2.721   5.402  1.6192 -1.1479 -1.6819
  249SOL    MW4  764   3.751   2.800   5.366  0.1565 -0.3662 -0.4297
  250SOL     OW  765   1.050   0.603   1.439 -0.5742 -0.3648  0.3276
  250SOL    HW2  766   1.111   0.613   1.366 -1.7704  1.6689 -0.4864
  250SOL    HW3  767   1.078   0.668   1.503  0.0798 -1.7048  1.4632
  250SOL    MW4  768   1.062   0.613   1.437 -0.6457 -0.2733  0.3700
  251SOL     OW  769   1.757   2.644   0.103  0.0609 -0.4022  0.3013
  251SOL    HW2  770   1.679   2.649   0.047  0.1452  1.4872  0.3176
  251SOL    HW3  771   1.725   2.666   0.191  0.5497  0.0824  0.3631
  251SOL    MW4  772   1.742   2.647   0.107  0.1365 -0.0890  0.3116
  252SOL     OW  773   1.006   3.933   4.659  0.6171  0.2795 -0.2738
  252SOL    HW2  774   1.015   3.841   4.681 -1.6518  0.1510  0.4355
  252SOL    HW3  775   1.070   3.978   4.713 -2.0517 -0.4087  3.9383
  252SOL    MW4  776   1.016   3.927   4.669 -0.0343  0.1717  0.3756
  253SOL     OW  777   5.683   5.013   0.725  0.4928 -0.0892  0.0179
  253SOL    HW2  778   5.735   5.088   0.696 -0.1108  0.4998  0.4354
  253SOL    HW3  779   5.669   4.962   0.645 -0.2628  0.9784 -0.5643
  253SOL    MW4  780   5.688   5.016   0.710  0.3135  0.1294 -0.0039
  254SOL     OW  781   0.982   1.004   3.619  0.3122  0.0072  0.2354
  254SOL    HW2  782   0.926   1.080   3.635  1.3981  1.0814 -0.9370
  254SOL    HW3  783   1.039   1.000   3.696 -0.0727  0.0715  0.5283
  254SOL    MW4  784   0.982   1.013   3.632  0.4047  0.1574  0.1194
  255SOL     OW  785   1.106   1.819   0.109 -0.0470  0.1841 -0.5376
  255SOL    HW2  786   1.146   1.856   0.030 -1.5473  3.0435 -0.0749
  255SOL    HW3  787   1.014   1.845   0.104 -0.6963 -1.5764  1.0627
  255SOL    MW4  788   1.099   1.827   0.098 -0.3306  0.3291 -0.2654
  256SOL     OW  789   1.439   2.595   4.488  0.3113 -0.3122 -0.3800
  256SOL    HW2  790   1.354   2.630   4.514  0.8990  2.6426 -1.9890
  256SOL    HW3  791   1.431   2.583   4.393  1.4302 -0.7850 -0.4204
  256SOL    MW4  792   1.426   2.598   4.479  0.5365  0.0153 -0.5976
  257SOL     OW  793   0.124   5.780   5.601 -0.1449  0.9732 -0.5916
  257SOL    HW2  794   0.076   5.710   5.645  0.1520  0.7992 -0.5413
  257SOL    HW3  795   0.211   5.779   5.641  0.3774  0.3266 -1.6782
  257SOL    MW4  796   0.129   5.771   5.612 -0.0368  0.8649 -0.7283
  258SOL     OW  797   0.963   1.101   0.273  0.3859 -0.0667 -0.1056
  258SOL    HW2  798   1.024   1.065   0.336  2.0044  1.8323 -0.5048
  258SOL    HW3  799   0.913   1.166   0.322 -0.0034 -0.2371 -0.2619
  258SOL    MW4  800   0.964   1.105   0.288  0.5481  0.1613 -0.1789
  259SOL     OW  801   3.545   5.727   3.041  0.2153  0.1975 -0.1434
  259SOL    HW2  802   3.521   5.790   2.973  1.4870  1.0186  0.1329
  259SOL    HW3  803   3.560   5.780   3.119 -1.7779 -0.7890  0.9863
  259SOL    MW4  804   3.544   5.742   3.042  0.1201  0.1756  0.0421
  260SOL     OW  805   2.373   3.458   1.247  0.5345 -0.1500 -0.6883
  260SOL    HW2  806   2.330   3.423   1.325 -0.4564  0.3334 -0.9978
  260SOL    HW3  807   2.466   3.457   1.269  0.3507 -0.8555  0.1548
  260SOL    MW4  808   2.380   3.453   1.260  0.3795 -0.1793 -0.6179
  261SOL     OW  809   1.361   0.128   6.120  0.0701  0.2650  0.4336
  261SOL    HW2  810   1.268   0.151   6.115 -0.2138 -0.7556  0.7947
  261SOL    HW3  811   1.388   0.159   6.206  0.7225  2.7898 -0.6002
  261SOL    MW4  812   1.352   0.135   6.131  0.1188  0.4635  0.3448
  262SOL     OW  813   3.489   4.756   2.183 -0.0985  0.3883 -0.1276
  262SOL    HW2  814   3.487   4.816   2.108 -0.4373  0.3257 -0.1677
  262SOL    HW3  815   3.402   4.717   2.185 -0.2704  0.7874  0.6198
  262SOL    MW4  816   3.477   4.759   2.173 -0.1659  0.4327 -0.0343
  263SOL     OW  817   3.670   1.381   1.670 -0.8663  0.1835  0.1844
  263SOL    HW2  818   3.581   1.375   1.703 -1.9319  1.3675 -2.2109
  263SOL    HW3  819   3.660   1.395   1.575  1.8197  1.1523 -0.0506
  263SOL    MW4  820   3.657   1.382   1.661 -0.6525  0.4675 -0.1626
  264SOL     OW  821   3.848   4.873   0.673 -0.5273 -0.4857  0.1394
  264SOL    HW2  822   3.754   4.886   0.680 -0.5515 -0.3226 -0.4019
  264SOL    HW3  823   3.857   4.788   0.630 -0.4697  0.1109 -1.1033
  264SOL    MW4  824   3.837   4.864   0.668 -0.5229 -0.3855 -0.0960
  265SOL     OW  825   2.274   3.811   0.950  0.4982  0.3173 -0.0410
  265SOL    HW2  826   2.299   3.832   0.860  0.0812  1.9008  0.1831
  265SOL    HW3  827   2.356   3.809   0.999  0.4957  3.9444  0.3883
  265SOL    MW4  828   2.288   3.814   0.945  0.4429  1.0048  0.0452
  266SOL     OW  829   4.709   4.042   0.949 -0.6458  0.2811 -0.0596
  266SOL    HW2  830   4.716   4.124   0.900 -0.4808  0.2626 -0.0697
  266SOL    HW3  831   4.798   4.005   0.945 -0.4782  0.5793  0.7836
  266SOL    MW4  832   4.722   4.048   0.942 -0.6019  0.3180  0.0503
  267SOL     OW  833   0.633   6.271   0.547 -0.3167  0.1701 -0.6114
  267SOL    HW2  834   0.679   6.355   0.551 -0.0359  0.0002 -0.2777
  267SOL    HW3  835   0.657   6.226   0.628 -0.5831 -0.1737 -0.7200
  267SOL    MW4  836   0.642   6.276   0.558 -0.3148  0.1023 -0.5817
  268SOL     OW  837   0.693   4.812   3.375 -0.8631 -0.4173  0.4232
  268SOL    HW2  838   0.736   4.813   3.289 -1.6308 -0.9747  0.0219
  268SOL    HW3  839   0.611   4.859   3.362 -0.6561  0.1301  1.0384
  268SOL    MW4  840   0.688   4.818   3.362 -0.9371 -0.4186  0.4514
  269SOL     OW  841   1.596   4.263   1.688 -0.3494  0.2472  0.9346
  269SOL    HW2  842   1.674   4.212   1.666  0.2950  0.6389  2.2035
  269SOL    HW3  843   1.630   4.343   1.727 -1.3647  1.4155 -0.4777
  269SOL    MW4  844   1.611   4.267   1.690 -0.3983  0.4530  0.9157
  270SOL     OW  845   4.870   5.139   2.573 -0.0362  0.0248  0.4741
  270SOL    HW2  846   4.864   5.181   2.659  0.0707 -0.1701  0.5784
  270SOL    HW3  847   4.911   5.204   2.517  1.8873 -0.6006  1.0830
  270SOL    MW4  848   4.874   5.153   2.577  0.2317 -0.0834  0.5682
  271SOL     OW  849   3.202   2.926   1.951  0.2628 -0.2000 -0.0015
  271SOL    HW2  850   3.286   2.961   1.921  0.2256 -2.2262 -2.9055
  271SOL    HW3  851   3.222   2.883   2.034  1.7152  0.8025  0.2065
  271SOL    MW4  852   3.216   2.925   1.958  0.4495 -0.3351 -0.3572
  272SOL     OW  853   2.370   6.214   0.408  0.0084  0.6147  0.1471
  272SOL    HW2  854   2.297   6.197   0.468 -1.5764 -2.3185 -2.3518
  272SOL    HW3  855   2.441   6.159   0.440 -0.5966 -0.4018 -0.2169
  272SOL    MW4  856   2.370   6.205   0.420 -0.2805  0.0936 -0.2306
  273SOL     OW  857   1.155   0.944   2.623 -0.2466 -0.0852  0.1074
  273SOL    HW2  858   1.131   0.859   2.660  2.6550 -1.1704 -0.2770
  273SOL    HW3  859   1.210   0.984   2.691  1.1104  0.0235 -1.0280
  273SOL    MW4  860   1.159   0.938   2.637  0.3152 -0.2140 -0.0931
  274SOL     OW  861   3.472   0.945   5.521 -0.9991  0.0647 -0.0035
  274SOL    HW2  862   3.436   0.951   5.609 -1.8679 -1.9669 -0.1667
  274SOL    HW3  863   3.413   0.998   5.467 -0.1050  1.8256  0.6978
  274SOL    MW4  864   3.459   0.953   5.525 -0.9958  0.0290  0.0675
  275SOL     OW  865   3.842   1.490   5.510 -0.3929  0.3589  1.1797
  275SOL    HW2  866   3.907   1.547   5.470  0.7906 -0.7385  1.4785
  275SOL    HW3  867   3.759   1.538   5.502 -0.0891  0.5667 -1.7972
  275SOL    MW4  868   3.839   1.504   5.504 -0.1966  0.2416  0.8264
  276SOL     OW  869   5.940   0.742   2.568  0.3313 -0.5357 -0.1677
  276SOL    HW2  870   5.886   0.739   2.647  0.1190 -0.3582 -0.3032
  276SOL    HW3  871   6.029   0.759   2.600  0.2875 -0.7154  0.0497
  276SOL    MW4  872   5.945   0.744   2.583  0.2975 -0.5360 -0.1569
  277SOL     OW  873   1.686   1.277   4.315 -0.3955  0.2029  0.2128
  277SOL    HW2  874   1.679   1.184   4.294  0.4688 -0.2278  1.6861
  277SOL    HW3  875   1.595   1.306   4.327 -0.6122 -1.1169  2.3049
  277SOL    MW4  876   1.673   1.269   4.314 -0.3101 -0.0280  0.6832
  278SOL     OW  877   3.018   0.484   3.304  0.1293 -0.0877 -0.0924
  278SOL    HW2  878   2.977   0.544   3.366 -2.3249 -1.4347 -0.2695
  278SOL    HW3  879   3.035   0.536   3.226 -1.1692  0.5869  0.0549
  278SOL    MW4  880   3.015   0.499   3.302 -0.3659 -0.1764 -0.0963
  279SOL     OW  881   5.514   3.861   2.468  0.1332  0.2274  0.3697
  279SOL    HW2  882   5.577   3.791   2.486  0.3157  0.3147  0.0751
  279SOL    HW3  883   5.456   3.825   2.401  0.3103  0.4053  0.1192
  279SOL    MW4  884   5.515   3.847   2.462  0.1807  0.2624  0.2978
  280SOL     OW  885   1.462   4.783   5.852  0.2206 -0.3325  0.3487
  280SOL    HW2  886   1.512   4.718   5.900  1.1112 -1.0911 -1.4898
  280SOL    HW3  887   1.498   4.867   5.881  0.1144 -0.7167  1.6261
  280SOL    MW4  888   1.473   4.786   5.862  0.3241 -0.4833  0.2747
  281SOL     OW  889   5.319   0.053   1.917 -0.3206 -0.7259  0.5412
  281SOL    HW2  890   5.281   0.141   1.923 -0.4775 -0.7904  0.5037
  281SOL    HW3  891   5.243  -0.005   1.910 -0.2134 -0.7183 -1.3390
  281SOL    MW4  892   5.304   0.057   1.917 -0.3271 -0.7334  0.2881
  282SOL     OW  893   5.240   5.979   6.308 -0.4998  0.2693 -0.3525
  282SOL    HW2  894   5.305   5.910   6.293 -0.9605 -0.3138  0.2755
  282SOL    HW3  895   5.195   5.988   6.224  0.7116  1.0365 -0.9500
  282SOL    MW4  896   5.243   5.971   6.295 -0.4007  0.2936 -0.3485
  283SOL     OW  897   5.097   5.569   1.995  0.0201  0.6099 -0.3304
  283SOL    HW2  898   5.016   5.615   2.016 -1.1237 -1.4222 -0.0232
  283SOL    HW3  899   5.103   5.574   1.899 -1.1732 -0.2784 -0.4747
  283SOL    MW4  900   5.087   5.575   1.985 -0.2883  0.2246 -0.3089
  284SOL     OW  901   3.615   1.605   2.268  0.3244  0.3908 -0.3307
  284SOL    HW2  902   3.569   1.593   2.351 -0.4892 -0.5027 -0.8878
  284SOL    HW3  903   3.596   1.695   2.243 -0.8338  0.1491 -0.3713
  284SOL    MW4  904   3.606   1.615   2.276  0.0643  0.2410 -0.4096
  285SOL     OW  905   0.208   5.822   3.043 -0.1083 -0.0627 -0.6260
  285SOL    HW2  906   0.119   5.796   3.019 -0.1159  0.4519 -1.1630
  285SOL    HW3  907   0.196   5.901   3.097  0.0311  0.1415 -0.8906
  285SOL    MW4  908   0.195   5.829   3.047 -0.0909  0.0321 -0.7318
  286SOL     OW  909   0.782   6.201   3.202 -0.8210 -0.4615 -0.3726
  286SOL    HW2  910   0.834   6.157   3.270 -1.1724  0.0713  0.2579
  286SOL    HW3  911   0.713   6.138   3.181 -0.8377 -0.5456 -0.0748
  286SOL    MW4  912   0.780   6.187   3.208 -0.8695 -0.4023 -0.2501
  287SOL     OW  913   1.261   0.348   2.540 -0.2755 -0.4449 -0.2840
  287SOL    HW2  914   1.246   0.325   2.448 -0.7336  0.2084 -0.3793
  287SOL    HW3  915   1.325   0.419   2.538 -0.8145  0.0521 -0.1436
  287SOL    MW4  916   1.267   0.354   2.528 -0.4071 -0.2931 -0.2781
  288SOL     OW  917   3.457   6.386   5.856 -0.2093 -0.2527  0.0344
  288SOL    HW2  918   3.508   6.371   5.936  0.5914 -2.0904 -0.7716
  288SOL    HW3  919   3.368   6.359   5.879 -0.7388  2.1809  1.1937
  288SOL    MW4  920   3.452   6.381   5.870 -0.1735 -0.1741  0.0810
  289SOL     OW  921   4.428   4.021   1.199 -0.5800  0.9145  0.4812
  289SOL    HW2  922   4.493   4.084   1.229  0.2477  0.2731  0.0920
  289SOL    HW3  923   4.479   3.944   1.174 -1.5386  0.1741  0.7071
  289SOL    MW4  924   4.443   4.019   1.200 -0.5973  0.7322  0.4597
  290SOL     OW  925   2.530   4.318   4.183  0.2795  0.1304 -0.3301
  290SOL    HW2  926   2.577   4.235   4.177 -0.7212 -0.9115  3.5214
  290SOL    HW3  927   2.463   4.303   4.250 -0.7365  3.7162 -0.3281
  290SOL    MW4  928   2.527   4.305   4.191  0.0134  0.4661  0.1783
  291SOL     OW  929   6.289   4.979   1.412  0.8839  0.5928  0.0241
  291SOL    HW2  930   6.199   4.999   1.389  0.2247 -1.1609  0.8521
  291SOL    HW3  931   6.334   4.968   1.327  0.3012  1.3189 -0.3881
  291SOL    MW4  932   6.283   4.980   1.397  0.7200  0.4572  0.0790
  292SOL     OW  933   4.292   6.014   2.463  0.7080  0.4444  0.0053
  292SOL    HW2  934   4.228   5.980   2.400 -0.7406  1.3175  0.9358
  292SOL    HW3  935   4.285   5.953   2.537 -0.1258  1.3495  0.6918
  292SOL    MW4  936   4.283   6.001   2.464  0.4068  0.6790  0.2186
  293SOL     OW  937   5.001   6.244   3.546 -0.2898 -0.1555  0.0263
  293SOL    HW2  938   4.911   6.276   3.544  0.3592  1.7882 -1.3409
  293SOL    HW3  939   5.003   6.182   3.619 -2.3054  1.0392  1.1889
  293SOL    MW4  940   4.989   6.240   3.555 -0.4701  0.2586 -0.0007
  294SOL     OW  941   3.987   3.267   0.333  0.1522  0.6782 -0.2762
  294SOL    HW2  942   3.980   3.331   0.404  0.7508 -0.8018  1.1743
  294SOL    HW3  943   4.080   3.246   0.328  0.1536  0.8645 -1.6511
  294SOL    MW4  944   3.998   3.273   0.342  0.2313  0.5075 -0.2663
  295SOL     OW  945   4.817   1.209   2.906 -0.6106  0.2539 -0.1961
  295SOL    HW2  946   4.752   1.148   2.940 -0.0983 -1.2150 -1.7325
  295SOL    HW3  947   4.887   1.154   2.872  1.8908  1.8009  2.0852
  295SOL    MW4  948   4.818   1.194   2.906 -0.2130  0.2642 -0.0978
  296SOL     OW  949   2.527   6.131   2.258 -0.0091 -0.4804 -0.0521
  296SOL    HW2  950   2.489   6.151   2.344 -1.5684 -2.3463 -0.2228
  296SOL    HW3  951   2.532   6.215   2.214 -0.8660  0.2835  1.2387
  296SOL    MW4  952   2.522   6.144   2.264 -0.3279 -0.6258  0.0957
  297SOL     OW  953   2.352   4.094   2.079  0.0213 -0.0230 -0.5383
  297SOL    HW2  954   2.273   4.040   2.077 -0.3104  0.4372  0.0539
  297SOL    HW3  955   2.409   4.056   2.012  0.3120 -1.8860  0.7075
  297SOL    MW4  956   2.349   4.082   2.070  0.0159 -0.2081 -0.2958
  298SOL     OW  957   6.307   0.569   4.802  0.0584 -0.0010  0.1571
  298SOL    HW2  958   6.295   0.664   4.792 -2.3278 -0.2902 -0.4447
  298SOL    HW3  959   6.401   0.555   4.794  0.3549  2.2051 -0.8072
  298SOL    MW4  960   6.318   0.580   4.800 -0.2173  0.2519 -0.0495
  299SOL     OW  961   5.473   1.038   5.275  0.4677 -0.7542 -0.6712
  299SOL    HW2  962   5.474   1.036   5.179  1.0573 -4.2965 -0.7360
  299SOL    HW3  963   5.398   0.983   5.299 -0.1631  0.7138  0.9894
  299SOL    MW4  964   5.463   1.030   5.266  0.4623 -1.0278 -0.4607
  300SOL     OW  965   2.186   3.471   0.573 -0.0864  0.0852  0.1992
  300SOL    HW2  966   2.249   3.483   0.643  0.8456 -1.6130 -0.3050
  300SOL    HW3  967   2.138   3.392   0.596 -0.2289 -0.1129 -0.7165
  300SOL    MW4  968   2.188   3.462   0.585  0.0178 -0.1650  0.0119
  301SOL     OW  969   5.818   0.106   6.280 -0.0992 -0.3575 -0.3493
  301SOL    HW2  970   5.897   0.152   6.307  0.7289 -1.4232 -0.9061
  301SOL    HW3  971   5.828   0.095   6.185 -0.4891 -1.2887 -0.2950
  301SOL    MW4  972   5.830   0.111   6.271 -0.0414 -0.6210 -0.4156
  302SOL     OW  973   5.943   2.527   6.253  0.0618 -0.4794 -0.0949
  302SOL    HW2  974   5.892   2.578   6.316  0.9302  0.2396  0.0449
  302SOL    HW3  975   6.027   2.514   6.296  1.1916  1.2648 -1.6498
  302SOL    MW4  976   5.947   2.532   6.267  0.3254 -0.1544 -0.2816
  303SOL     OW  977   2.284   2.451   0.943  0.2487  0.6628  0.6792
  303SOL    HW2  978   2.286   2.519   0.876  2.6184  0.8672  0.8951
  303SOL    HW3  979   2.362   2.467   0.996  0.2616 -1.5436  1.4066
  303SOL    MW4  980   2.294   2.462   0.941  0.5631  0.3987  0.8036
  304SOL     OW  981   4.409   2.925   1.947 -0.6182  0.5187 -0.1035
  304SOL    HW2  982   4.403   2.957   2.037 -0.8369 -0.7364  0.3493
  304SOL    HW3  983   4.384   2.833   1.953  1.7684 -0.2457 -1.0721
  304SOL    MW4  984   4.405   2.917   1.960 -0.3322  0.2523 -0.1716
  305SOL     OW  985   4.264   4.703   5.291 -0.4458 -0.3022  0.0501
  305SOL    HW2  986   4.235   4.737   5.207  0.1010 -0.0277 -0.0282
  305SOL    HW3  987   4.359   4.700   5.286 -0.3487  0.5625  0.9697
  305SOL    MW4  988   4.273   4.707   5.279 -0.3609 -0.1519  0.1611
  306SOL     OW  989   4.961   4.861   5.627  0.3603  0.1288 -0.4529
  306SOL    HW2  990   4.920   4.799   5.686 -0.8053 -0.2880 -1.6458
  306SOL    HW3  991   4.903   4.864   5.550  0.4087  2.6036 -0.4999
  306SOL    MW4  992   4.948   4.853   5.624  0.2129  0.4003 -0.6165
  307SOL     OW  993   4.025   3.497   2.924 -0.0001 -0.3509 -0.2794
  307SOL    HW2  994   4.045   3.410   2.890  1.8482  0.5485 -1.6465
  307SOL    HW3  995   4.108   3.530   2.957 -0.5348  1.1048 -0.2950
  307SOL    MW4  996   4.038   3.490   2.924  0.1732 -0.0401 -0.4618
  308SOL     OW  997   6.024   0.967   3.407 -0.2595 -0.1429 -0.4447
  308SOL    HW2  998   6.105   0.916   3.414 -0.3173 -0.0702  1.2942
  308SOL    HW3  999   6.048   1.044   3.356  0.8570 -0.0070  0.2314
  308SOL    MW4 1000   6.038   0.970   3.401 -0.1198 -0.1154 -0.1261
  309SOL     OW 1001   4.172   0.440   4.825 -0.6293  0.0350 -0.4424
  309SOL    HW2 1002   4.174   0.522   4.874 -0.3658 -0.9196  1.2177
  309SOL    HW3 1003   4.262   0.425   4.799 -0.6626  0.2228 -0.6676
  309SOL    MW4 1004   4.184   0.449   4.828 -0.5990 -0.0662 -0.2531
  310SOL     OW 1005   1.594   1.460   6.337 -0.2103 -0.0438  0.1333
  310SOL    HW2 1006   1.513   1.424   6.373 -0.9972 -1.2391 -2.5974
  310SOL    HW3 1007   1.652   1.385   6.329  1.4343  0.8637  2.4372
  310SOL    MW4 1008   1.591   1.446   6.341 -0.0972 -0.0818  0.0770
  311SOL     OW 1009   1.105   1.810   1.412 -0.1274 -0.2941 -0.5209
  311SOL    HW2 1010   1.047   1.843   1.480 -0.0781 -0.0992 -0.5691
  311SOL    HW3 1011   1.193   1.814   1.451 -0.0453  0.2536 -0.7490
  311SOL    MW4 1012   1.109   1.815   1.426 -0.1101 -0.1961 -0.5574
  312SOL     OW 1013   3.168   5.505   2.931  0.5114  0.4150  0.4027
  312SOL    HW2 1014   3.260   5.513   2.904  0.5823  1.6228  0.9215
  312SOL    HW3 1015   3.162   5.558   3.011 -0.2678 -1.0092  1.3161
  312SOL    MW4 1016   3.179   5.513   2.938  0.4180  0.3864  0.5916
  313SOL     OW 1017   4.127   1.692   6.388  0.4804 -0.2044  0.3195
  313SOL    HW2 1018   4.220   1.690   6.407  1.1827 -1.5502 -2.7011
  313SOL    HW3 1019   4.120   1.732   6.302 -1.3853 -2.6464 -0.8171
  313SOL    MW4 1020   4.138   1.697   6.379  0.3269 -0.7042 -0.2290
  314SOL     OW 1021   5.405   3.338   2.519 -0.4114 -0.4045 -0.2540
  314SOL    HW2 1022   5.496   3.362   2.534 -0.6104  0.8867 -0.9810
  314SOL    HW3 1023   5.375   3.306   2.604  1.0148 -1.9785 -0.2792
  314SOL    MW4 1024   5.413   3.337   2.532 -0.2495 -0.4418 -0.3533
  315SOL     OW 1025   4.035   4.764   4.649  0.4255  0.2099 -0.2743
  315SOL    HW2 1026   3.992   4.845   4.677 -0.7784 -0.0927 -1.1958
  315SOL    HW3 1027   4.007   4.751   4.559  1.2188 -0.8385 -0.3890
  315SOL    MW4 1028   4.026   4.773   4.641  0.3713  0.0316 -0.4110
  316SOL     OW 1029   1.750   1.422   1.530  0.5268 -0.6430  0.4231
  316SOL    HW2 1030   1.675   1.418   1.471 -1.6325  2.0329  2.6867
  316SOL    HW3 1031   1.754   1.334   1.568 -1.2880 -0.9703 -0.0054
  316SOL    MW4 1032   1.740   1.410   1.527  0.0025 -0.3331  0.6652
  317SOL     OW 1033   3.958   6.082   4.185 -0.4247  0.0032  0.4098
  317SOL    HW2 1034   3.896   6.047   4.121 -1.4353  1.8913  0.2850
  317SOL    HW3 1035   3.954   6.177   4.174  2.4146  0.2438  0.4986
  317SOL    MW4 1036   3.950   6.090   4.175 -0.1834  0.2841  0.4050
  318SOL     OW 1037   3.931   5.455   2.716 -0.2608  0.3361  0.4379
  318SOL    HW2 1038   3.853   5.493   2.677 -0.2379  0.1265  0.1923
  318SOL    HW3 1039   4.003   5.509   2.683 -0.3637  0.9811  1.2286
  318SOL    MW4 1040   3.930   5.467   2.707 -0.2714  0.3936  0.5098
  319SOL     OW 1041   5.798   1.967   1.280 -0.6493 -0.1855 -0.7257
  319SOL    HW2 1042   5.761   1.988   1.365 -0.8371  0.2965 -0.9241
  319SOL    HW3 1043   5.860   1.896   1.297  0.6196  1.0718  0.0933
  319SOL    MW4 1044   5.802   1.960   1.293 -0.5066  0.0440 -0.6438
  320SOL     OW 1045   0.752   4.056   5.977 -0.5179  0.1724  0.2278
  320SOL    HW2 1046   0.700   4.073   5.899 -0.5120 -0.4313  0.0928
  320SOL    HW3 1047   0.788   3.968   5.964 -0.1596  0.2437  0.7072
  320SOL    MW4 1048   0.750   4.047   5.965 -0.4699  0.1021  0.2733
  321SOL     OW 1049   4.691   2.429   3.832  0.1932 -0.3326  0.0925
  321SOL    HW2 1050   4.648   2.409   3.749 -1.1117 -0.5459  0.7875
  321SOL    HW3 1051   4.771   2.377   3.830 -0.9649 -2.2362 -0.0611
  321SOL    MW4 1052   4.696   2.419   3.821 -0.1318 -0.6119  0.1639
  322SOL     OW 1053   3.181   2.814   2.199  0.2162  0.0427 -0.1381
  322SOL    HW2 1054   3.099   2.772   2.226  0.7033 -0.9596 -0.1598
  322SOL    HW3 1055   3.237   2.808   2.277  0.8667 -0.8755 -0.6515
  322SOL    MW4 1056   3.178   2.808   2.213  0.3663 -0.2107 -0.2087
  323SOL     OW 1057   2.358   1.955   5.234  0.4620 -0.3987  0.0246
  323SOL    HW2 1058   2.338   1.874   5.282  1.2283  0.0326  1.1111
  323SOL    HW3 1059   2.450   1.972   5.253  1.0197 -0.5960 -2.2244
  323SOL    MW4 1060   2.367   1.946   5.243  0.6367 -0.3678 -0.1288
  324SOL     OW 1061   4.305   5.210   5.448 -0.4310  0.3461  0.2341
  324SOL    HW2 1062   4.309   5.298   5.409 -0.7214  0.2266 -0.0729
  324SOL    HW3 1063   4.288   5.152   5.374  0.2732 -0.0338  0.3584
  324SOL    MW4 1064   4.303   5.214   5.433 -0.3764  0.2802  0.2100
  325SOL     OW 1065   2.895   6.316   4.401 -0.0255  0.3897 -0.0369
  325SOL    HW2 1066   2.807   6.321   4.439 -0.0255  1.4261 -0.1274
  325SOL    HW3 1067   2.952   6.353   4.468  0.4872 -1.0846  0.3787
  325SOL    MW4 1068   2.891   6.322   4.415  0.0422  0.3319  0.0060
  326SOL     OW 1069   5.215   5.466   3.791 -0.3079  0.4271  0.2738
  326SOL    HW2 1070   5.181   5.501   3.873 -3.0460 -0.7711 -0.2202
  326SOL    HW3 1071   5.218   5.541   3.732 -0.3908  0.8964  0.8575
  326SOL    MW4 1072   5.211   5.480   3.794 -0.6801  0.3310  0.2856
  327SOL     OW 1073   0.403   4.950   2.396 -0.0190 -0.2640 -0.0619
  327SOL    HW2 1074   0.459   5.026   2.412 -0.2737 -0.2231  0.6830
  327SOL    HW3 1075   0.463   4.875   2.396  0.1263 -0.1472  0.0174
  327SOL    MW4 1076   0.418   4.950   2.398 -0.0335 -0.2432  0.0468
  328SOL     OW 1077   2.266   2.743   2.986 -0.2947  0.6229 -0.0797
  328SOL    HW2 1078   2.222   2.791   2.916  0.8120  1.5719 -0.1617
  328SOL    HW3 1079   2.359   2.762   2.974 -0.0605  0.7017  1.5519
  328SOL    MW4 1080   2.273   2.752   2.975 -0.1178  0.7585  0.1247
  329SOL     OW 1081   5.716   5.019   1.357 -0.2227 -0.3673  0.5821
  329SOL    HW2 1082   5.698   5.062   1.274 -1.8221 -0.0791  1.0570
  329SOL    HW3 1083   5.811   5.029   1.369  0.4856 -2.4219 -2.2916
  329SOL    MW4 1084   5.726   5.026   1.348 -0.3403 -0.6003  0.2656
  330SOL     OW 1085   0.688   5.669   3.133 -0.4431 -0.0516  0.1301
  330SOL    HW2 1086   0.602   5.669   3.176 -0.9083  0.6431 -0.7406
  330SOL    HW3 1087   0.719   5.579   3.139 -0.3981  0.0602  2.0556
  330SOL    MW4 1088   0.680   5.657   3.139 -0.4986  0.0548  0.2692
  331SOL     OW 1089   3.403   5.646   4.128 -0.6335  0.3461  0.1393
  331SOL    HW2 1090   3.444   5.571   4.084 -2.3149 -0.9497  0.6717
  331SOL    HW3 1091   3.331   5.671   4.072 -2.1445 -0.6452  1.5383
  331SOL    MW4 1092   3.399   5.639   4.115 -1.0547  0.0444  0.3941
  332SOL     OW 1093   2.476   2.587   4.021  0.3623 -0.1528  0.6498
  332SOL    HW2 1094   2.540   2.523   3.991 -1.0540 -1.2111 -0.2259
  332SOL    HW3 1095   2.498   2.601   4.113  0.1947 -2.6079  1.1397
  332SOL    MW4 1096   2.487   2.580   4.029  0.1533 -0.6164  0.5989
  333SOL     OW 1097   2.557   1.221   5.724  0.1026  0.7442 -0.2545
  333SOL    HW2 1098   2.643   1.227   5.766  0.4713  0.1483 -0.8987
  333SOL    HW3 1099   2.519   1.308   5.734  0.5536  0.8681  0.5079
  333SOL    MW4 1100   2.564   1.233   5.731  0.2107  0.6819 -0.2389
  334SOL     OW 1101   3.454   3.550   0.967 -0.0566 -0.3456 -0.0349
  334SOL    HW2 1102   3.395   3.486   0.927  0.4537  0.5968 -2.4931
  334SOL    HW3 1103   3.523   3.563   0.902  3.1316 -1.5940  2.8092
  334SOL    MW4 1104   3.455   3.543   0.953  0.4314 -0.3860  0.0160
  335SOL     OW 1105   1.193   0.093   4.018  0.2771  0.4463  0.3906
  335SOL    HW2 1106   1.266   0.145   4.051  0.0162  1.0075  0.0900
  335SOL    HW3 1107   1.208   0.086   3.924  0.5163 -0.3596  0.4749
  335SOL    MW4 1108   1.205   0.099   4.010  0.2743  0.4140  0.3620
  336SOL     OW 1109   2.478   1.440   2.666 -0.1990  0.2112  0.2592
  336SOL    HW2 1110   2.388   1.471   2.672  0.1643  1.0907  1.5769
  336SOL    HW3 1111   2.496   1.402   2.752  0.6806 -0.0022 -0.0083
  336SOL    MW4 1112   2.469   1.439   2.678 -0.0350  0.2991  0.3978
  337SOL     OW 1113   3.723   3.883   5.400 -0.4660 -0.4189 -0.0566
  337SOL    HW2 1114   3.792   3.931   5.354  0.8901  0.2186  2.4554
  337SOL    HW3 1115   3.746   3.791   5.386  0.7960 -0.2201  0.5146
  337SOL    MW4 1116   3.735   3.877   5.392 -0.1205 -0.3086  0.3502
  338SOL     OW 1117   2.623   4.457   4.534  0.1900  0.5842  0.0055
  338SOL    HW2 1118   2.655   4.530   4.481  0.2661  0.9709  0.5774
  338SOL    HW3 1119   2.690   4.445   4.602  1.4098 -1.5667 -1.4507
  338SOL    MW4 1120   2.636   4.465   4.536  0.3610  0.3515 -0.1112
  339SOL     OW 1121   4.593   4.297   5.061  0.0557 -0.2104 -0.5162
  339SOL    HW2 1122   4.669   4.343   5.095  0.6477  0.1859 -2.2845
  339SOL    HW3 1123   4.590   4.319   4.968 -2.1633 -0.2966 -0.5357
  339SOL    MW4 1124   4.603   4.306   5.053 -0.1589 -0.1695 -0.7521
  340SOL     OW 1125   4.572   3.345   6.289  0.0368 -0.5377 -0.7231
  340SOL    HW2 1126   4.562   3.427   6.338  1.5081  0.4018 -1.8922
  340SOL    HW3 1127   4.507   3.351   6.220 -0.1073 -0.5267 -0.5877
  340SOL    MW4 1128   4.562   3.357   6.287  0.2119 -0.4123 -0.8595
  341SOL     OW 1129   4.610   5.421   1.652  0.3261 -0.4938  0.0778
  341SOL    HW2 1130   4.517   5.443   1.647  0.5951  0.3424 -3.5731
  341SOL    HW3 1131   4.618   5.337   1.606  1.1587 -1.7233  2.3124
  341SOL    MW4 1132   4.599   5.413   1.645  0.4715 -0.5457 -0.1091
  342SOL     OW 1133   4.801   3.515   2.355  0.4325 -0.2428 -0.0265
  342SOL    HW2 1134   4.728   3.503   2.415  0.2914  0.1614 -0.1165
  342SOL    HW3 1135   4.787   3.602   2.317 -0.2388 -1.0113 -1.6641
  342SOL    MW4 1136   4.789   3.525   2.358  0.3253 -0.2909 -0.2544
  343SOL     OW 1137   3.796   3.660   0.082  0.5645  0.6622 -0.4266
  343SOL    HW2 1138   3.741   3.641   0.006 -0.4070 -0.3982  0.5052
  343SOL    HW3 1139   3.735   3.686   0.150  0.9597 -1.9194  1.0765
  343SOL    MW4 1140   3.781   3.661   0.081  0.4885  0.1817 -0.1054
  344SOL     OW 1141   4.375   4.539   1.924 -0.1996  0.2924  0.1733
  344SOL    HW2 1142   4.372   4.492   1.841  0.7361 -0.7659  0.7067
  344SOL    HW3 1143   4.296   4.593   1.924 -1.2729 -1.1950 -0.5364
  344SOL    MW4 1144   4.364   4.540   1.913 -0.2178 -0.0435  0.1501
  345SOL     OW 1145   2.384   3.172   4.863 -0.0665 -0.1881  0.0532
  345SOL    HW2 1146   2.352   3.085   4.888 -0.8669 -0.0104 -0.3292
  345SOL    HW3 1147   2.469   3.179   4.906 -0.9568 -0.2943  1.9450
  345SOL    MW4 1148   2.391   3.162   4.872 -0.2895 -0.1787  0.2524
  346SOL     OW 1149   1.283   4.365   0.099 -0.3988  0.2230  0.3488
  346SOL    HW2 1150   1.302   4.348   0.007 -1.3169  0.1699  0.1618
  346SOL    HW3 1151   1.191   4.389   0.100 -0.1020  1.4076  1.0999
  346SOL    MW4 1152   1.274   4.366   0.087 -0.4808  0.3723  0.4232
  347SOL     OW 1153   1.285   1.244   4.167  0.3260  0.0417  0.2092
  347SOL    HW2 1154   1.291   1.158   4.208  1.1901  0.3802  0.8199
  347SOL    HW3 1155   1.327   1.303   4.228 -2.3844  1.3571  0.9468
  347SOL    MW4 1156   1.291   1.240   4.180  0.0824  0.2599  0.3871
  348SOL     OW 1157   0.361   3.554   4.227 -0.0368 -0.4506  0.2683
  348SOL    HW2 1158   0.270   3.564   4.199  0.3451  0.1248 -0.8423
  348SOL    HW3 1159   0.398   3.492   4.163  0.4445 -0.3944  0.4912
  348SOL    MW4 1160   0.354   3.547   4.215  0.0771 -0.3672  0.1512
  349SOL     OW 1161   1.597   5.614   0.434  0.3439  0.0717  0.2763
  349SOL    HW2 1162   1.503   5.606   0.446 -0.2559  2.5004 -1.9130
  349SOL    HW3 1163   1.610   5.610   0.339  2.2160  1.5979  0.4057
  349SOL    MW4 1164   1.586   5.612   0.423  0.5117  0.5935  0.0045
  350SOL     OW 1165   6.012   4.837   2.228  0.3389 -0.1638  0.4634
  350SOL    HW2 1166   6.082   4.771   2.220 -0.0035 -0.6241  1.1715
  350SOL    HW3 1167   6.021   4.870   2.317 -0.4342 -0.3375  0.6157
  350SOL    MW4 1168   6.023   4.832   2.238  0.1917 -0.2474  0.5769
  351SOL     OW 1169   5.366   4.971   5.709 -0.1486 -0.4627  0.0958
  351SOL    HW2 1170   5.442   4.920   5.682  0.7056  1.2739 -0.9785
  351SOL    HW3 1171   5.297   4.906   5.725  1.5809 -2.1019  1.3130
  351SOL    MW4 1172   5.367   4.956   5.707  0.1923 -0.4498  0.1147
  352SOL     OW 1173   5.221   3.272   1.341  0.4644  0.4093 -0.0073
  352SOL    HW2 1174   5.223   3.289   1.435  2.7442 -0.3531  0.1317
  352SOL    HW3 1175   5.216   3.177   1.334  1.7928  0.3627 -0.6164
  352SOL    MW4 1176   5.221   3.262   1.353  0.9405  0.3025 -0.0693
  353SOL     OW 1177   6.080   3.328   1.084  0.0073  0.6873  0.2412
  353SOL    HW2 1178   6.159   3.282   1.110  0.2124  1.5240  1.1727
  353SOL    HW3 1179   6.014   3.260   1.076  0.5248  0.1214  0.6468
  353SOL    MW4 1180   6.082   3.313   1.086  0.1027  0.7230  0.4177
  354SOL     OW 1181   0.432   0.692   2.471 -0.0272 -0.3532  0.1488
  354SOL    HW2 1182   0.408   0.779   2.501  2.1809  0.1430  0.6800
  354SOL    HW3 1183   0.528   0.694   2.464  0.0132 -2.3760 -0.9636
  354SOL    MW4 1184   0.442   0.703   2.474  0.2695 -0.5546  0.0721
  355SOL     OW 1185   6.058   6.219   0.919  0.3425 -0.4111 -0.0449
  355SOL    HW2 1186   6.141   6.258   0.893  0.9587 -1.0736  0.8788
  355SOL    HW3 1187   6.006   6.293   0.951 -0.4754  0.4497 -3.0622
  355SOL    MW4 1188   6.062   6.234   0.920  0.3159 -0.3849 -0.3211
  356SOL     OW 1189   3.181   2.760   5.589  0.2515 -0.2658 -0.3949
  356SOL    HW2 1190   3.117   2.782   5.521 -0.8851 -2.0475  0.0380
  356SOL    HW3 1191   3.255   2.723   5.541  0.9602  1.6375 -0.8827
  356SOL    MW4 1192   3.182   2.758   5.574  0.1950 -0.2498 -0.4021
  357SOL     OW 1193   1.574   1.936   2.127 -0.0761 -0.4131  0.1853
  357SOL    HW2 1194   1.508   1.909   2.064  0.5513 -2.6165  0.3701
  357SOL    HW3 1195   1.634   1.991   2.077 -1.1210  0.2585 -0.3794
  357SOL    MW4 1196   1.573   1.940   2.112 -0.1312 -0.6152  0.1352
  358SOL     OW 1197   4.243   2.084   0.378  0.0277 -0.0744 -0.3252
  358SOL    HW2 1198   4.210   1.995   0.390 -1.0344  0.2444 -0.7633
  358SOL    HW3 1199   4.190   2.137   0.437 -0.2463  0.4456 -1.0223
  358SOL    MW4 1200   4.232   2.079   0.387 -0.1486  0.0363 -0.4750
  359SOL     OW 1201   0.228   4.363   4.414 -0.2609  0.0932 -0.0605
  359SOL    HW2 1202   0.210   4.269   4.426  0.7293 -0.1730 -0.5167
  359SOL    HW3 1203   0.232   4.399   4.502  0.7510 -0.5922  0.1968
  359SOL    MW4 1204   0.226   4.355   4.427  0.0032 -0.0323 -0.0867
  360SOL     OW 1205   1.640   6.429   1.754  0.2181  0.4389 -0.4329
  360SOL    HW2 1206   1.674   6.340   1.744 -1.5016 -0.5078  1.3215
  360SOL    HW3 1207   1.695   6.469   1.821 -0.0472  0.0553  0.0278
  360SOL    MW4 1208   1.651   6.422   1.762 -0.0438  0.2634 -0.1407
  361SOL     OW 1209   0.355   3.570   1.856  0.0419  0.0828 -0.0770
  361SOL    HW2 1210   0.441   3.599   1.826 -0.2708  1.0795 -0.0554
  361SOL    HW3 1211   0.360   3.573   1.951  0.0913 -0.1778 -0.0723
  361SOL    MW4 1212   0.367   3.574   1.864  0.0071  0.1799 -0.0735
  362SOL     OW 1213   4.005   3.739   2.521  0.1135  0.3079 -0.0307
  362SOL    HW2 1214   4.082   3.709   2.471  0.0646  0.6563 -0.3209
  362SOL    HW3 1215   3.931   3.724   2.462 -0.2780 -1.6450  0.8893
  362SOL    MW4 1216   4.005   3.733   2.506  0.0554  0.0962  0.0524
  363SOL     OW 1217   1.437   3.919   3.826 -0.4296  0.4179  0.1053
  363SOL    HW2 1218   1.506   3.882   3.881  0.9874  1.3787 -0.9626
  363SOL    HW3 1219   1.368   3.852   3.827  2.2464 -2.7578 -2.3478
  363SOL    MW4 1220   1.437   3.905   3.834  0.1104  0.1257 -0.3593
  364SOL     OW 1221   3.844   4.973   4.006 -0.0657  0.2222  0.5113
  364SOL    HW2 1222   3.875   4.998   4.093 -1.1310  0.5656  0.8076
  364SOL    HW3 1223   3.759   5.016   3.997  0.5068  1.1258 -1.1540
  364SOL    MW4 1224   3.837   4.982   4.016 -0.1308  0.3867  0.3306
  365SOL     OW 1225   1.496   3.616   4.930 -0.4319 -0.4635  0.1032
  365SOL    HW2 1226   1.453   3.625   4.845  0.6209 -1.7559 -0.6071
  365SOL    HW3 1227   1.580   3.575   4.910  0.9383  1.4707  1.4989
  365SOL    MW4 1228   1.501   3.612   4.916 -0.1122 -0.3788  0.1936
  366SOL     OW 1229   4.610   2.890   4.809  0.5172 -0.7553 -0.2232
  366SOL    HW2 1230   4.553   2.846   4.871  0.7306  0.3167  0.7646
  366SOL    HW3 1231   4.635   2.821   4.747  2.1668 -2.4844  2.1733
  366SOL    MW4 1232   4.606   2.875   4.809  0.7630 -0.8420  0.2233
  367SOL     OW 1233   2.411   2.669   5.249  0.6403  0.4098 -0.3001
  367SOL    HW2 1234   2.470   2.736   5.215  1.0640  0.8457  1.2164
  367SOL    HW3 1235   2.336   2.671   5.190  0.7161  2.1190 -0.3873
  367SOL    MW4 1236   2.409   2.678   5.237  0.7062  0.6928 -0.1116
  368SOL     OW 1237   2.552   0.710   2.798 -0.1866 -0.1906 -0.1204
  368SOL    HW2 1238   2.583   0.722   2.709 -0.3239 -0.2188 -0.1720
  368SOL    HW3 1239   2.631   0.692   2.849  0.0667  1.1524  0.0031
  368SOL    MW4 1240   2.566   0.710   2.793 -0.1713 -0.0171 -0.1109
  369SOL     OW 1241   5.181   0.054   0.857 -0.4655 -0.0936 -0.3008
  369SOL    HW2 1242   5.143  -0.033   0.873 -0.3060  0.1959  2.0990
  369SOL    HW3 1243   5.115   0.115   0.889 -0.2488  0.6605 -1.2603
  369SOL    MW4 1244   5.167   0.050   0.864 -0.4159  0.0441 -0.1108
  370SOL     OW 1245   3.337   2.280   1.812  0.3975 -0.2874  0.1379
  370SOL    HW2 1246   3.374   2.356   1.767  0.1725  0.1334  0.6474
  370SOL    HW3 1247   3.413   2.226   1.834  0.6654  0.2758  0.6429
  370SOL    MW4 1248   3.352   2.283   1.809  0.4031 -0.1576  0.2717
  371SOL     OW 1249   3.057   5.915   0.660  0.7128  0.0736  0.0825
  371SOL    HW2 1250   2.981   5.856   0.670  1.6420 -1.0650  0.7516
  371SOL    HW3 1251   3.079   5.910   0.567  0.7037 -0.5664  0.1072
  371SOL    MW4 1252   3.050   5.906   0.649  0.8342 -0.1611  0.1740
  372SOL     OW 1253   5.136   1.286   3.104 -0.3970 -0.4278 -0.0495
  372SOL    HW2 1254   5.153   1.372   3.142  1.2752 -0.5757 -0.4097
  372SOL    HW3 1255   5.107   1.304   3.015  0.1604 -0.2270 -0.1948
  372SOL    MW4 1256   5.134   1.300   3.097 -0.1028 -0.4208 -0.1162
  373SOL     OW 1257   2.704   0.881   3.442 -0.3170 -0.1392  0.0224
  373SOL    HW2 1258   2.645   0.857   3.514  1.6163 -1.8400  1.1306
  373SOL    HW3 1259   2.648   0.879   3.364 -1.8695 -1.0611  1.0998
  373SOL    MW4 1260   2.689   0.878   3.441 -0.2668 -0.4852  0.3108
  374SOL     OW 1261   5.677   5.454   2.131  0.3320  0.0381 -0.1262
  374SOL    HW2 1262   5.669   5.454   2.227  0.2851 -0.6435 -0.1249
  374SOL    HW3 1263   5.743   5.387   2.113  1.4662  1.2141 -0.4942
  374SOL    MW4 1264   5.685   5.445   2.141  0.4755  0.1033 -0.1746
  375SOL     OW 1265   2.243   1.545   5.855 -0.0945 -0.3533  0.4130
  375SOL    HW2 1266   2.254   1.603   5.930  0.0035  3.0273 -1.9471
  375SOL    HW3 1267   2.176   1.482   5.882 -1.4086  1.8332  2.7319
  375SOL    MW4 1268   2.236   1.544   5.868 -0.2550  0.3812  0.4076
  376SOL     OW 1269   4.179   1.121   0.493  0.2392  0.7172 -0.3675
  376SOL    HW2 1270   4.094   1.137   0.453  0.7953  2.7861 -0.8671
  376SOL    HW3 1271   4.161   1.060   0.564 -1.7498  1.5209 -0.1099
  376SOL    MW4 1272   4.166   1.115   0.497  0.0502  1.0962 -0.3995
  377SOL     OW 1273   2.682   3.450   1.309 -0.2408 -0.1062 -0.1705
  377SOL    HW2 1274   2.703   3.468   1.217 -0.6533 -1.1492 -0.4834
  377SOL    HW3 1275   2.763   3.467   1.356  0.5297 -1.3265 -0.9830
  377SOL    MW4 1276   2.695   3.455   1.303 -0.1936 -0.4049 -0.3190
  378SOL     OW 1277   2.530   0.699   1.301 -0.3627  0.1370 -0.0877
  378SOL    HW2 1278   2.591   0.631   1.272  1.1227  1.5390 -0.3968
  378SOL    HW3 1279   2.575   0.781   1.281 -1.4154  1.2070  1.7292
  378SOL    MW4 1280   2.544   0.701   1.295 -0.3056  0.4631  0.1112
  379SOL     OW 1281   4.765   2.257   3.356  0.1950 -0.3306 -0.1703
  379SOL    HW2 1282   4.787   2.332   3.301  1.1945  1.3720  2.3321
  379SOL    HW3 1283   4.674   2.236   3.333 -0.2004  1.8054 -0.8225
  379SOL    MW4 1284   4.756   2.264   3.346  0.2747  0.1759  0.0738
  380SOL     OW 1285   4.438   5.773   5.025 -0.2366  0.3470  0.6415
  380SOL    HW2 1286   4.464   5.750   5.114  1.0668  0.1938  0.2423
  380SOL    HW3 1287   4.354   5.819   5.035 -0.7103 -0.7198  1.8289
  380SOL    MW4 1288   4.430   5.776   5.038 -0.1272  0.1860  0.7455
  381SOL     OW 1289   5.058   1.875   2.289 -0.0067  0.8798  0.9137
  381SOL    HW2 1290   5.024   1.910   2.371 -0.4744  2.3527  0.1185
  381SOL    HW3 1291   5.115   1.944   2.254  2.3087 -0.7185  1.2241
  381SOL    MW4 1292   5.061   1.889   2.295  0.2371  0.8633  0.8497
  382SOL     OW 1293   2.622   4.309   2.180  0.6371 -0.7039  0.1762
  382SOL    HW2 1294   2.705   4.262   2.194  0.8909 -0.1032  0.7230
  382SOL    HW3 1295   2.631   4.389   2.231  0.1002 -0.1706 -0.5460
  382SOL    MW4 1296   2.634   4.313   2.189  0.5997 -0.5543  0.1530
  383SOL     OW 1297   5.245   6.322   5.787 -0.0351 -0.2911 -0.1649
  383SOL    HW2 1298   5.288   6.405   5.768 -1.8606  0.5161 -1.0700
  383SOL    HW3 1299   5.215   6.331   5.878  0.1937 -0.1539 -0.1033
  383SOL    MW4 1300   5.247   6.334   5.797 -0.2458 -0.1665 -0.2762
  384SOL     OW 1301   2.317   2.550   1.516  0.0138  0.4227 -0.0737
  384SOL    HW2 1302   2.366   2.630   1.534 -1.6763  0.9958  2.4084
  384SOL    HW3 1303   2.266   2.571   1.437  1.8447  0.6277 -1.2762
  384SOL    MW4 1304   2.317   2.564   1.508  0.0323  0.5254  0.0952
  385SOL     OW 1305   4.266   3.076   2.707 -0.2868 -0.3669  0.2336
  385SOL    HW2 1306   4.255   3.009   2.640 -1.8450 -0.9608  1.0188
  385SOL    HW3 1307   4.349   3.054   2.750  0.2879 -0.4862 -0.8959
  385SOL    MW4 1308   4.276   3.064   2.704 -0.4166 -0.4610  0.1882
  386SOL     OW 1309   4.795   4.228   5.325 -0.1852  0.0448  0.1647
  386SOL    HW2 1310   4.762   4.294   5.387 -0.1255  0.7716 -0.5595
  386SOL    HW3 1311   4.843   4.279   5.259  0.4973 -0.7947 -0.0099
  386SOL    MW4 1312   4.797   4.244   5.325 -0.0873  0.0299  0.0461
  387SOL     OW 1313   2.371   0.614   6.155 -0.5107  0.0426 -0.2342
  387SOL    HW2 1314   2.387   0.707   6.140 -0.4507 -0.3645 -3.3943
  387SOL    HW3 1315   2.417   0.595   6.237 -0.8261  2.8319  0.6995
  387SOL    MW4 1316   2.379   0.624   6.164 -0.5444  0.3569 -0.5280
  388SOL     OW 1317   4.512   1.151   2.297  0.0169 -0.7120 -0.3078
  388SOL    HW2 1318   4.561   1.231   2.278  0.3090 -1.0908 -1.2721
  388SOL    HW3 1319   4.421   1.178   2.303  0.0929 -0.3230 -0.8247
  388SOL    MW4 1320   4.507   1.165   2.295  0.0654 -0.7106 -0.5032
  389SOL     OW 1321   4.375   2.769   4.903 -0.1182 -0.0713  0.0797
  389SOL    HW2 1322   4.340   2.712   4.972 -0.6962 -0.1248 -0.2556
  389SOL    HW3 1323   4.325   2.746   4.825  1.1691 -0.6877 -0.6068
  389SOL    MW4 1324   4.364   2.758   4.902 -0.0246 -0.1597 -0.0551
  390SOL     OW 1325   1.627   4.363   2.179 -0.2416  0.0742 -0.4049
  390SOL    HW2 1326   1.564   4.302   2.216 -0.5941  0.6790  0.0264
  390SOL    HW3 1327   1.674   4.398   2.255 -0.0686  0.3567 -0.6367
  390SOL    MW4 1328   1.625   4.360   2.194 -0.2653  0.1913 -0.3786
  391SOL     OW 1329   2.654   6.157   4.934  0.1304 -0.1433  0.8225
  391SOL    HW2 1330   2.698   6.223   4.880 -0.4621 -0.7272 -0.4263
  391SOL    HW3 1331   2.568   6.145   4.892  0.4012 -2.0450  0.6955
  391SOL    MW4 1332   2.648   6.164   4.921  0.0880 -0.4712  0.6410
  392SOL     OW 1333   0.649   1.946   1.832 -0.1015  0.2913 -0.3595
  392SOL    HW2 1334   0.604   1.908   1.756 -1.4867  1.6764 -0.2799
  392SOL    HW3 1335   0.645   2.040   1.818  0.9587  0.5203  0.7226
  392SOL    MW4 1336   0.642   1.953   1.820 -0.1443  0.5043 -0.2062
  393SOL     OW 1337   2.734   2.886   3.640 -0.3362 -0.8105  0.0132
  393SOL    HW2 1338   2.772   2.974   3.637  3.2162 -2.1683  0.2254
  393SOL    HW3 1339   2.751   2.856   3.729  0.4968 -2.4155 -0.6391
  393SOL    MW4 1340   2.741   2.893   3.651  0.2424 -1.2014 -0.0449
  394SOL     OW 1341   2.798   1.278   0.126  0.2321  0.1925 -0.3114
  394SOL    HW2 1342   2.730   1.334   0.088 -0.7639 -1.1498 -0.5904
  394SOL    HW3 1343   2.826   1.325   0.205  0.4557  1.7447 -1.2704
  394SOL    MW4 1344   2.793   1.291   0.131  0.1302  0.2202 -0.4747
  395SOL     OW 1345   5.118   2.540   5.456  0.2747 -0.1005  0.4709
  395SOL    HW2 1346   5.060   2.587   5.516  0.0804 -0.7801  0.8395
  395SOL    HW3 1347   5.069   2.536   5.374  0.7215  1.2069  0.1192
  395SOL    MW4 1348   5.103   2.545   5.453  0.3080 -0.0177  0.4731
  396SOL     OW 1349   2.429   4.421   3.723 -0.0687 -0.5122 -0.5030
  396SOL    HW2 1350   2.463   4.495   3.672 -1.5953 -0.9738 -2.3123
  396SOL    HW3 1351   2.419   4.456   3.811  0.2637  1.1184 -1.0687
  396SOL    MW4 1352   2.432   4.435   3.727 -0.2262 -0.3580 -0.8164
  397SOL     OW 1353   2.459   6.136   0.812  0.0980  0.2171 -0.1391
  397SOL    HW2 1354   2.504   6.210   0.770  3.3081 -1.6731 -0.3483
  397SOL    HW3 1355   2.498   6.131   0.899  0.5847 -1.6593 -0.4205
  397SOL    MW4 1356   2.470   6.145   0.818  0.5858 -0.2798 -0.2039
  398SOL     OW 1357   3.430   3.264   6.110 -0.0849  0.3467  0.2666
  398SOL    HW2 1358   3.359   3.216   6.152  1.8707 -3.6841 -0.5150
  398SOL    HW3 1359   3.407   3.267   6.018  0.0656  0.4352  0.2303
  398SOL    MW4 1360   3.418   3.258   6.104  0.1930 -0.1734  0.1587
  399SOL     OW 1361   4.795   4.810   4.028 -0.5159 -0.4985 -0.0346
  399SOL    HW2 1362   4.888   4.791   4.010 -0.5308  1.2455 -2.5507
  399SOL    HW3 1363   4.784   4.790   4.120  2.4704 -0.4791  0.4425
  399SOL    MW4 1364   4.806   4.805   4.037 -0.1238 -0.2658 -0.3036
  400SOL     OW 1365   4.004   1.412   0.362 -0.1417 -0.1738  0.0412
  400SOL    HW2 1366   3.978   1.323   0.339  0.4270 -0.4284  0.3888
  400SOL    HW3 1367   4.041   1.405   0.450 -1.2844  0.6114  0.6167
  400SOL    MW4 1368   4.005   1.400   0.371 -0.2175 -0.1038  0.1630
  401SOL     OW 1369   5.287   3.734   6.305  0.4086 -0.2057 -0.4311
  401SOL    HW2 1370   5.310   3.711   6.215 -0.9001 -0.2355 -0.7813
  401SOL    HW3 1371   5.339   3.812   6.324  0.4119  0.0227 -1.3555
  401SOL    MW4 1372   5.297   3.741   6.296  0.2364 -0.1795 -0.5993
  402SOL     OW 1373   5.813   2.232   1.152 -0.2271  0.4513  0.4103
  402SOL    HW2 1374   5.804   2.141   1.180 -0.4441  0.8096  1.5873
  402SOL    HW3 1375   5.894   2.234   1.101 -0.2458 -0.4052  0.3388
  402SOL    MW4 1376   5.822   2.221   1.149 -0.2582  0.3855  0.5562
  403SOL     OW 1377   2.151   2.202   4.731 -0.5209 -0.0201  0.6685
  403SOL    HW2 1378   2.092   2.271   4.700  0.2265  0.8250  1.0804
  403SOL    HW3 1379   2.229   2.212   4.676 -1.0060 -1.5992 -0.3686
  403SOL    MW4 1380   2.153   2.213   4.719 -0.4863 -0.1170  0.5860
  404SOL     OW 1381   2.640   1.529   3.814  0.1755 -0.1810 -0.2050
  404SOL    HW2 1382   2.583   1.589   3.862  0.3476 -0.2508  0.0840
  404SOL    HW3 1383   2.631   1.445   3.859  1.2474  0.0366  0.4385
  404SOL    MW4 1384   2.631   1.526   3.826  0.3396 -0.1615 -0.0820
  405SOL     OW 1385   5.593   1.054   2.663  0.1140 -0.1668  0.4131
  405SOL    HW2 1386   5.677   1.024   2.628 -0.9629 -1.5748 -1.1519
  405SOL    HW3 1387   5.588   1.016   2.751  0.9121 -0.4452  0.3478
  405SOL    MW4 1388   5.603   1.045   2.670  0.0772 -0.3893  0.1980
  406SOL     OW 1389   2.546   6.366   0.701 -0.3962  0.3422  0.0055
  406SOL    HW2 1390   2.470   6.423   0.685  0.0309  0.8266 -0.3021
  406SOL    HW3 1391   2.591   6.362   0.617  0.8398  1.4071  0.5767
  406SOL    MW4 1392   2.542   6.373   0.688 -0.1768  0.5466  0.0403
  407SOL     OW 1393   5.264   0.357   1.927  0.1231  0.1600  0.1253
  407SOL    HW2 1394   5.205   0.377   1.999 -0.1815 -0.3485  0.0251
  407SOL    HW3 1395   5.275   0.440   1.880  0.3676  0.5071  0.7815
  407SOL    MW4 1396   5.258   0.370   1.931  0.1152  0.1387  0.1986
  408SOL     OW 1397   5.606   3.307   5.390 -0.2866 -0.5874 -0.1997
  408SOL    HW2 1398   5.657   3.228   5.409 -0.0535 -0.8482 -1.7378
  408SOL    HW3 1399   5.575   3.337   5.475 -1.3883 -3.0124  0.3473
  408SOL    MW4 1400   5.609   3.301   5.403 -0.4012 -0.9418 -0.3304
  409SOL     OW 1401   6.311   2.106   4.569 -0.0445 -0.2476 -0.2484
  409SOL    HW2 1402   6.354   2.077   4.650  0.7613  1.0036 -0.2050
  409SOL    HW3 1403   6.240   2.163   4.599  1.2984  1.5952 -0.4197
  409SOL    MW4 1404   6.308   2.110   4.584  0.2390  0.1606 -0.2652
  410SOL     OW 1405   3.835   0.001   5.533  0.4443 -0.7221 -0.2352
  410SOL    HW2 1406   3.751   0.042   5.554 -0.2854 -2.6182  0.7704
  410SOL    HW3 1407   3.837  -0.001   5.437 -0.4245 -0.2033 -0.2757
  410SOL    MW4 1408   3.824   0.006   5.523  0.2334 -0.9038 -0.1079
  411SOL     OW 1409   4.581   5.709   2.495  0.0265 -0.6820  0.4490
  411SOL    HW2 1410   4.653   5.647   2.487 -0.2890 -0.9217 -0.6322
  411SOL    HW3 1411   4.614   5.775   2.556  1.4391 -0.4302 -0.5241
  411SOL    MW4 1412   4.595   5.710   2.502  0.1712 -0.6804  0.1780
  412SOL     OW 1413   1.277   6.379   5.842  0.0833  0.0872  0.0058
  412SOL    HW2 1414   1.257   6.360   5.750 -2.0066 -0.3791  0.5019
  412SOL    HW3 1415   1.255   6.298   5.888  1.3621  0.2253  0.9214
  412SOL    MW4 1416   1.272   6.366   5.836 -0.0237  0.0439  0.1920
  413SOL     OW 1417   5.651   1.970   6.094  0.0297 -0.4646 -0.1041
  413SOL    HW2 1418   5.560   1.947   6.078 -0.5494  1.9386 -0.5299
  413SOL    HW3 1419   5.653   1.996   6.187  0.4466 -1.1834  0.0950
  413SOL    MW4 1420   5.639   1.970   6.104  0.0083 -0.2424 -0.1340
  414SOL     OW 1421   2.540   1.936   0.596  0.3846  0.1758  0.4687
  414SOL    HW2 1422   2.458   1.986   0.591  1.0044  1.0946 -1.7406
  414SOL    HW3 1423   2.545   1.908   0.687 -2.1392  0.5026  0.7887
  414SOL    MW4 1424   2.530   1.939   0.607  0.1334  0.3402  0.2194
  415SOL     OW 1425   6.069   2.063   6.127 -0.2589  0.1370 -0.1370
  415SOL    HW2 1426   6.164   2.048   6.134 -0.2952  0.4298  1.1655
  415SOL    HW3 1427   6.059   2.157   6.135 -0.9668 -0.1097  4.9519
  415SOL    MW4 1428   6.080   2.073   6.129 -0.3571  0.1431  0.7063
  416SOL     OW 1429   4.361   3.137   4.280 -0.0718  0.1236  0.3069
  416SOL    HW2 1430   4.448   3.097   4.286  0.4509  1.1597 -0.1313
  416SOL    HW3 1431   4.369   3.202   4.211 -1.6573 -0.8654 -0.8738
  416SOL    MW4 1432   4.373   3.140   4.272 -0.2120  0.1298  0.0933
  417SOL     OW 1433   5.012   2.783   4.038  0.6058  0.0720 -0.6115
  417SOL    HW2 1434   5.059   2.862   4.067  1.5849 -0.2493 -1.2871
  417SOL    HW3 1435   5.029   2.778   3.944  1.2649 -1.4042 -0.4382
  417SOL    MW4 1436   5.020   2.793   4.030  0.8219 -0.1652 -0.6778
  418SOL     OW 1437   2.435   1.321   6.050  0.2018 -0.3064 -0.1277
  418SOL    HW2 1438   2.515   1.363   6.082  0.7279 -1.7634  0.5519
  418SOL    HW3 1439   2.371   1.334   6.120 -0.3567  1.3139 -0.8896
  418SOL    MW4 1440   2.437   1.328   6.063  0.1975 -0.2848 -0.1386
  419SOL     OW 1441   4.258   2.277   0.116  0.0221  0.6711  0.1252
  419SOL    HW2 1442   4.225   2.245   0.200  1.9994 -0.3124  0.6076
  419SOL    HW3 1443   4.267   2.198   0.062  0.9009  0.9846 -0.2089
  419SOL    MW4 1444   4.255   2.262   0.120  0.3989  0.5827  0.1448
  420SOL     OW 1445   1.298   2.101   3.912 -0.2338  0.1492  0.1835
  420SOL    HW2 1446   1.293   2.118   3.818  1.6183  0.8606  0.1680
  420SOL    HW3 1447   1.386   2.065   3.925 -0.1578  0.8047  1.7245
  420SOL    MW4 1448   1.309   2.099   3.902  0.0206  0.3295  0.3847
  421SOL     OW 1449   3.014   1.878   1.455  0.3360  0.8810  0.1660
  421SOL    HW2 1450   3.046   1.834   1.377 -0.5368 -1.2481  0.9505
  421SOL    HW3 1451   2.940   1.931   1.425 -1.3448 -1.5388 -0.1974
  421SOL    MW4 1452   3.008   1.879   1.441 -0.0009  0.2808  0.2216
  422SOL     OW 1453   1.973   3.525   0.200 -0.5994 -0.2337  0.2811
  422SOL    HW2 1454   1.971   3.541   0.294  0.2407 -0.8218  0.4069
  422SOL    HW3 1455   2.066   3.523   0.177 -0.8008  0.4322 -0.6549
  422SOL    MW4 1456   1.985   3.527   0.209 -0.5151 -0.2235  0.1742
  423SOL     OW 1457   2.515   4.282   0.054  0.4680 -0.0553  0.3787
  423SOL    HW2 1458   2.518   4.230   0.134  0.7372 -0.3128  0.2059
  423SOL    HW3 1459   2.547   4.369   0.080  0.3929 -0.0895  0.5846
  423SOL    MW4 1460   2.520   4.287   0.068  0.4936 -0.0938  0.3831
  424SOL     OW 1461   6.413   1.565   3.598 -0.0108 -0.2501  0.1455
  424SOL    HW2 1462   6.377   1.647   3.630  0.5488 -0.1635  0.5630
  424SOL    HW3 1463   6.495   1.589   3.556  0.4230 -0.6578  0.7448
  424SOL    MW4 1464   6.419   1.579   3.596  0.1202 -0.2925  0.2796
  425SOL     OW 1465   0.005   3.467   5.719 -0.4000 -0.3807 -0.7143
  425SOL    HW2 1466   0.029   3.559   5.713 -0.5322 -0.3775 -1.2393
  425SOL    HW3 1467   0.071   3.422   5.666  3.1722 -1.2739  3.8745
  425SOL    MW4 1468   0.017   3.473   5.711  0.0539 -0.4982 -0.1782
  426SOL     OW 1469   3.277   2.713   0.688  0.0439 -0.6149  0.2757
  426SOL    HW2 1470   3.251   2.765   0.764 -0.6899 -2.0657  1.0349
  426SOL    HW3 1471   3.257   2.770   0.613  0.6126  0.7610  1.1248
  426SOL    MW4 1472   3.271   2.728   0.688  0.0222 -0.6248  0.4879
  427SOL     OW 1473   1.894   4.335   2.887 -0.2872 -0.1104  0.1926
  427SOL    HW2 1474   1.917   4.384   2.966 -1.2325  0.2798  0.2380
  427SOL    HW3 1475   1.863   4.251   2.920 -0.5021 -0.0188  0.2217
  427SOL    MW4 1476   1.893   4.330   2.902 -0.4403 -0.0468  0.2024
  428SOL     OW 1477   6.203   5.931   1.042 -0.1593 -0.1719  0.6119
  428SOL    HW2 1478   6.139   5.923   0.972 -1.6568  1.5652  1.6920
  428SOL    HW3 1479   6.288   5.920   0.999 -1.0612  0.0232 -1.3084
  428SOL    MW4 1480   6.206   5.929   1.027 -0.4759  0.0830  0.5011
  429SOL     OW 1481   5.216   3.313   0.546 -0.0369 -0.2589  0.0550
  429SOL    HW2 1482   5.126   3.325   0.514  0.5401  0.7519 -1.2864
  429SOL    HW3 1483   5.246   3.233   0.505  0.9379  1.3789 -2.7196
  429SOL    MW4 1484   5.208   3.304   0.537  0.1678  0.0906 -0.4880
  430SOL     OW 1485   0.261   5.583   2.469  0.1949  0.4592  0.5982
  430SOL    HW2 1486   0.209   5.657   2.436  2.0827  2.1948  1.3153
  430SOL    HW3 1487   0.235   5.509   2.414  1.2118  2.5685 -3.0414
  430SOL    MW4 1488   0.251   5.583   2.458  0.5782  0.9665  0.2126
  431SOL     OW 1489   5.368   1.174   1.998 -0.6492  0.4598 -0.2099
  431SOL    HW2 1490   5.323   1.258   2.001 -0.3135  0.6580 -0.5686
  431SOL    HW3 1491   5.425   1.174   2.075 -1.4137  0.1152  0.3654
  431SOL    MW4 1492   5.370   1.185   2.009 -0.7058  0.4405 -0.1813
  432SOL     OW 1493   4.332   3.364   4.426 -0.0448 -0.1926 -0.0945
  432SOL    HW2 1494   4.335   3.275   4.391  0.1073  0.6067 -2.2622
  432SOL    HW3 1495   4.397   3.413   4.375 -0.7847  1.3659  0.3718
  432SOL    MW4 1496   4.341   3.359   4.415 -0.1224  0.1185 -0.3190
  433SOL     OW 1497   5.048   4.197   2.235  0.2850 -0.1160  0.1510
  433SOL    HW2 1498   5.097   4.212   2.155  0.4736 -0.5079  0.1913
  433SOL    HW3 1499   5.114   4.171   2.300 -0.0865 -1.7545 -0.0828
  433SOL    MW4 1500   5.063   4.195   2.233  0.2609 -0.3839  0.1255
  434SOL     OW 1501   0.307   6.147   6.041  0.7305  0.1750 -0.9690
  434SOL    HW2 1502   0.395   6.166   6.010  1.2454  1.1697  0.9388
  434SOL    HW3 1503   0.253   6.217   6.004  1.4947  1.8905  0.9586
  434SOL    MW4 1504   0.312   6.159   6.032  0.8992  0.5326 -0.4630
  435SOL     OW 1505   1.252   2.643   6.364 -0.0090 -0.1477 -0.2377
  435SOL    HW2 1506   1.196   2.699   6.310  0.8752  0.4533 -0.5535
  435SOL    HW3 1507   1.191   2.594   6.419 -0.8657  0.1351 -0.9125
  435SOL    MW4 1508   1.236   2.643   6.364 -0.0054 -0.0311 -0.3684
  436SOL     OW 1509   1.905   5.141   6.425 -0.0211 -0.3880 -0.0054
  436SOL    HW2 1510   1.909   5.234   6.444 -1.6656 -0.0684 -1.0572
  436SOL    HW3 1511   1.914   5.099   6.511  0.5453  0.7237  0.4969
  436SOL    MW4 1512   1.907   5.147   6.439 -0.1634 -0.1992 -0.0779
  437SOL     OW 1513   2.264   0.429   3.688 -0.3827  0.0234  0.4707
  437SOL    HW2 1514   2.279   0.335   3.690  1.8847  0.2992 -0.5636
  437SOL    HW3 1515   2.273   0.457   3.779 -0.4947 -0.6652  0.6970
  437SOL    MW4 1516   2.267   0.421   3.700 -0.0983 -0.0311  0.3641
  438SOL     OW 1517   6.404   0.246   5.453 -0.0743  0.1716  0.2928
  438SOL    HW2 1518   6.434   0.298   5.527 -0.2580  0.4050  0.2059
  438SOL    HW3 1519   6.315   0.277   5.437  0.0891  0.3653 -0.2486
  438SOL    MW4 1520   6.396   0.257   5.461 -0.0770  0.2279  0.2099
  439SOL     OW 1521   6.346   0.396   0.384  0.0052  0.0494  0.4656
  439SOL    HW2 1522   6.367   0.428   0.472 -0.2988 -1.2254  1.0168
  439SOL    HW3 1523   6.317   0.475   0.337 -1.0579  0.5519  1.8922
  439SOL    MW4 1524   6.345   0.411   0.389 -0.1752 -0.0525  0.7265
  440SOL     OW 1525   5.086   6.252   1.535 -0.0259 -0.0580 -0.0043
  440SOL    HW2 1526   5.176   6.266   1.563 -0.4393 -0.0789  1.3970
  440SOL    HW3 1527   5.050   6.339   1.523 -0.5263  0.0403  1.8765
  440SOL    MW4 1528   5.093   6.265   1.537 -0.1465 -0.0478  0.4287
  441SOL     OW 1529   1.091   3.065   4.612  0.3944 -0.6873  0.7132
  441SOL    HW2 1530   1.073   3.027   4.526  1.4980 -0.7628  0.5107
  441SOL    HW3 1531   1.019   3.127   4.626  1.6448  1.4236 -1.5134
  441SOL    MW4 1532   1.079   3.068   4.603  0.7050 -0.4187  0.3927
  442SOL     OW 1533   5.999   5.385   3.961  0.0009  0.1370 -0.1745
  442SOL    HW2 1534   6.042   5.314   3.914  3.7730 -0.0673  3.0092
  442SOL    HW3 1535   5.947   5.341   4.028  0.5064  0.3106  0.3476
  442SOL    MW4 1536   5.998   5.370   3.964  0.5652  0.1330  0.3144
  443SOL     OW 1537   2.733   4.899   1.950 -0.7477 -0.0487  0.0751
  443SOL    HW2 1538   2.783   4.942   1.880 -0.0975  1.9454  1.6839
  443SOL    HW3 1539   2.682   4.832   1.904 -0.0069  0.8600 -2.2490
  443SOL    MW4 1540   2.733   4.896   1.934 -0.5642  0.3343 -0.0193
  444SOL     OW 1541   2.108   5.282   4.443 -0.1582  0.2571  0.2613
  444SOL    HW2 1542   2.086   5.227   4.519 -0.1129  0.9400  0.7824
  444SOL    HW3 1543   2.081   5.230   4.367 -0.0546 -0.5115  0.7357
  444SOL    MW4 1544   2.102   5.268   4.443 -0.1386  0.2458  0.3927
  445SOL     OW 1545   1.309   3.536   3.933 -0.2780  0.1046  0.5480
  445SOL    HW2 1546   1.363   3.481   3.875  1.1000 -0.1400  1.9825
  445SOL    HW3 1547   1.254   3.473   3.980  0.2127  0.0611  1.0866
  445SOL    MW4 1548   1.309   3.520   3.932 -0.0314  0.0666  0.8083
  446SOL     OW 1549   4.811   3.900   5.831  0.0191 -0.4340  0.5328
  446SOL    HW2 1550   4.856   3.846   5.896 -1.3710 -2.6471 -0.2186
  446SOL    HW3 1551   4.881   3.943   5.783  1.3451 -2.7090  0.2593
  446SOL    MW4 1552   4.826   3.898   5.834  0.0107 -1.0261  0.3976
  447SOL     OW 1553   5.676   5.680   1.170  0.2587  0.1685 -0.5445
  447SOL    HW2 1554   5.648   5.759   1.123 -1.6015 -0.8253 -1.2142
  447SOL    HW3 1555   5.609   5.668   1.238 -0.3183 -1.5925 -1.3620
  447SOL    MW4 1556   5.663   5.689   1.173 -0.0628 -0.1950 -0.7407
  448SOL     OW 1557   4.112   4.325   6.155 -0.2468 -0.1565 -0.3608
  448SOL    HW2 1558   4.026   4.307   6.194 -0.5775 -0.7225 -1.3052
  448SOL    HW3 1559   4.150   4.392   6.211 -0.5772 -1.1198  1.0826
  448SOL    MW4 1560   4.106   4.331   6.167 -0.3340 -0.3583 -0.2950
  449SOL     OW 1561   5.554   2.312   1.247  0.0026 -0.2292  0.6923
  449SOL    HW2 1562   5.633   2.283   1.201 -1.1456 -1.2270 -0.7442
  449SOL    HW3 1563   5.570   2.291   1.339  0.6138 -2.3163  0.1519
  449SOL    MW4 1564   5.566   2.305   1.253 -0.0683 -0.6362  0.4315
  450SOL     OW 1565   2.395   5.849   5.092  0.2709 -0.6830 -0.2265
  450SOL    HW2 1566   2.461   5.866   5.025  2.1938  0.9174  1.8744
  450SOL    HW3 1567   2.431   5.777   5.144 -0.3197 -0.7296  0.1276
  450SOL    MW4 1568   2.409   5.842   5.090  0.4467 -0.4780  0.0974
  451SOL     OW 1569   5.221   0.350   4.277  0.5982  0.5485 -0.1937
  451SOL    HW2 1570   5.162   0.416   4.313  1.5776  0.4702  1.6843
  451SOL    HW3 1571   5.286   0.400   4.227 -1.0559  0.6247 -2.3846
  451SOL    MW4 1572   5.222   0.365   4.275  0.5092  0.5483 -0.2350
  452SOL     OW 1573   3.995   3.815   4.029  0.4875  0.1813  0.0759
  452SOL    HW2 1574   3.985   3.878   4.100 -0.9287 -1.4773  1.4482
  452SOL    HW3 1575   4.053   3.748   4.064 -1.1241 -1.2390  0.1699
  452SOL    MW4 1576   4.001   3.814   4.043  0.0880 -0.2250  0.2694
  453SOL     OW 1577   0.548   5.110   4.412 -0.2256  0.5410 -0.0560
  453SOL    HW2 1578   0.542   5.067   4.498  0.2466 -0.5578 -0.5600
  453SOL    HW3 1579   0.627   5.163   4.417  0.1779 -0.0594 -0.0449
  453SOL    MW4 1580   0.557   5.111   4.424 -0.1101  0.3168 -0.1210
  454SOL     OW 1581   4.040   5.224   5.127 -0.5917 -0.3957  0.1683
  454SOL    HW2 1582   3.976   5.238   5.197 -1.3135  0.8288 -0.7000
  454SOL    HW3 1583   3.994   5.250   5.047  0.8675  0.1311 -0.5297
  454SOL    MW4 1584   4.025   5.229   5.126 -0.4944 -0.1646 -0.0384
  455SOL     OW 1585   5.097   1.602   0.649  0.1543 -0.2701  0.0803
  455SOL    HW2 1586   5.054   1.518   0.631 -0.2869 -0.0354  0.0341
  455SOL    HW3 1587   5.127   1.632   0.564 -0.7323  0.1814 -0.0931
  455SOL    MW4 1588   5.095   1.595   0.635 -0.0209 -0.1796  0.0513
  456SOL     OW 1589   4.965   0.898   3.298 -0.5384  0.2448  0.2216
  456SOL    HW2 1590   5.037   0.945   3.340 -0.2666 -1.4452  1.7910
  456SOL    HW3 1591   4.899   0.965   3.282  0.9832  1.6622 -0.4031
  456SOL    MW4 1592   4.966   0.913   3.302 -0.3018  0.2088  0.3463
  457SOL     OW 1593   6.010   1.801   2.844 -0.1820  0.4029 -0.8846
  457SOL    HW2 1594   6.020   1.744   2.920  0.3725 -1.4241 -2.2606
  457SOL    HW3 1595   5.925   1.778   2.808  1.0757 -1.4718 -2.8830
  457SOL    MW4 1596   6.000   1.791   2.849  0.0571 -0.0855 -1.3298
  458SOL     OW 1597   5.227   5.546   5.217  0.2398 -0.1308 -0.2996
  458SOL    HW2 1598   5.278   5.477   5.175  2.2759 -0.0900  1.8735
  458SOL    HW3 1599   5.281   5.574   5.291 -1.3687  2.4732  0.0350
  458SOL    MW4 1600   5.241   5.541   5.221  0.2962  0.2181  0.0313
  459SOL     OW 1601   5.897   5.768   3.690 -0.3692 -0.0143  0.2661
  459SOL    HW2 1602   5.900   5.712   3.768 -0.5043 -0.3169  0.0557
  459SOL    HW3 1603   5.803   5.775   3.669 -0.6116  2.2493  1.6854
  459SOL    MW4 1604   5.885   5.762   3.698 -0.4190  0.2444  0.4256
  460SOL     OW 1605   4.240   5.810   1.124 -0.3394  0.0293 -0.6746
  460SOL    HW2 1606   4.296   5.733   1.117 -1.4123 -0.8344 -0.1326
  460SOL    HW3 1607   4.152   5.778   1.101 -0.9327  0.9131  0.2833
  460SOL    MW4 1608   4.235   5.796   1.120 -0.5593  0.0320 -0.4767
  461SOL     OW 1609   5.830   1.179   1.473  0.2228  0.2706  0.0001
  461SOL    HW2 1610   5.868   1.135   1.396  1.5867  0.5364  0.4985
  461SOL    HW3 1611   5.755   1.226   1.438  0.7506  0.2907 -1.1607
  461SOL    MW4 1612   5.826   1.179   1.458  0.4724  0.3083 -0.0873
  462SOL     OW 1613   0.210   1.348   2.166 -0.0593 -0.0165 -0.3699
  462SOL    HW2 1614   0.229   1.349   2.072  0.3879  1.2935 -0.2884
  462SOL    HW3 1615   0.176   1.260   2.183 -0.9828  0.0034 -1.9240
  462SOL    MW4 1616   0.208   1.337   2.156 -0.1222  0.1589 -0.5642
  463SOL     OW 1617   0.859   5.601   4.333  0.3322  0.0098 -0.6306
  463SOL    HW2 1618   0.780   5.598   4.279  1.1460 -0.9858 -1.8171
  463SOL    HW3 1619   0.829   5.574   4.420 -0.5620 -0.7596 -1.1587
  463SOL    MW4 1620   0.844   5.597   4.337  0.3216 -0.2231 -0.8568
  464SOL     OW 1621   3.866   1.319   3.987  0.2992  0.3068 -0.0650
  464SOL    HW2 1622   3.784   1.313   4.035  0.5130  0.2402  0.2895
  464SOL    HW3 1623   3.925   1.256   4.029  0.3070 -0.1732 -0.7739
  464SOL    MW4 1624   3.863   1.310   3.999  0.3284  0.2347 -0.1118
  465SOL     OW 1625   5.681   5.468   3.753 -0.4041  0.2423 -0.3339
  465SOL    HW2 1626   5.669   5.529   3.680  0.4067  0.9306  0.0904
  465SOL    HW3 1627   5.738   5.400   3.718 -0.0143  0.5711 -0.3471
  465SOL    MW4 1628   5.687   5.467   3.739 -0.2457  0.3765 -0.2796
  466SOL     OW 1629   2.064   4.845   1.532  0.2985 -0.5128 -0.0050
  466SOL    HW2 1630   2.072   4.791   1.454  1.1581  0.9079 -0.9458
  466SOL    HW3 1631   2.154   4.852   1.566 -0.1685 -1.8164  1.6385
  466SOL    MW4 1632   2.077   4.839   1.526  0.3503 -0.4974  0.0877
  467SOL     OW 1633   2.244   1.538   4.498  0.3438  0.5931 -0.2602
  467SOL    HW2 1634   2.221   1.510   4.587  1.4273  0.2604 -0.0682
  467SOL    HW3 1635   2.190   1.615   4.482 -1.2031 -0.4055 -0.0063
  467SOL    MW4 1636   2.234   1.544   4.508  0.2826  0.4174 -0.2013
  468SOL     OW 1637   5.317   3.985   0.922 -0.7283 -0.1762 -0.6692
  468SOL    HW2 1638   5.314   4.018   1.012 -0.1108 -0.7246 -0.4475
  468SOL    HW3 1639   5.393   3.928   0.919 -0.0473  0.7256 -1.8447
  468SOL    MW4 1640   5.327   3.982   0.933 -0.5570 -0.1296 -0.7951
  469SOL     OW 1641   2.644   5.568   6.090  0.3514  0.0091  0.2804
  469SOL    HW2 1642   2.643   5.664   6.089 -2.0542  0.0498 -1.1278
  469SOL    HW3 1643   2.640   5.545   6.183  0.0192  1.2963  0.6046
  469SOL    MW4 1644   2.643   5.578   6.102 -0.0098  0.1843  0.1374
  470SOL     OW 1645   0.920   5.484   3.651 -0.1871  0.2858 -0.1415
  470SOL    HW2 1646   0.908   5.390   3.666  0.5811  0.3165  0.8053
  470SOL    HW3 1647   0.988   5.509   3.714  0.1316  1.3318 -0.8778
  470SOL    MW4 1648   0.928   5.475   3.661 -0.0437  0.4279 -0.1137
  471SOL     OW 1649   2.366   5.365   1.446  0.0500 -0.5268 -0.1923
  471SOL    HW2 1650   2.366   5.459   1.461  0.1247 -0.3587 -1.2378
  471SOL    HW3 1651   2.318   5.329   1.521 -1.7204  0.5008 -0.7881
  471SOL    MW4 1652   2.360   5.373   1.458 -0.1738 -0.3690 -0.4089
  472SOL     OW 1653   0.408   1.177   1.936  0.0358 -0.1814  0.0116
  472SOL    HW2 1654   0.419   1.126   2.016 -0.0346  0.4174  0.3995
  472SOL    HW3 1655   0.464   1.253   1.947 -1.0715  0.6488  0.1281
  472SOL    MW4 1656   0.417   1.180   1.948 -0.1196  0.0071  0.0782
  473SOL     OW 1657   4.996   3.142   4.581  0.2264  0.4693  0.2869
  473SOL    HW2 1658   4.994   3.072   4.516 -1.2543  1.3962 -0.7224
  473SOL    HW3 1659   5.089   3.165   4.588  0.5824 -0.6688 -0.3581
  473SOL    MW4 1660   5.008   3.136   4.573  0.0780  0.4414  0.0686
  474SOL     OW 1661   4.489   3.375   1.976 -0.1292  0.3326  0.1106
  474SOL    HW2 1662   4.537   3.350   2.056 -0.0377 -0.5127 -0.1984
  474SOL    HW3 1663   4.533   3.327   1.906 -1.1568 -0.1281 -0.2367
  474SOL    MW4 1664   4.501   3.365   1.978 -0.2527  0.1603  0.0240
  475SOL     OW 1665   3.881   4.148   2.671  0.1416 -0.4540 -0.3707
  475SOL    HW2 1666   3.855   4.194   2.591  3.9303  2.5165 -0.1777
  475SOL    HW3 1667   3.946   4.084   2.641 -0.4520 -1.3103  0.1145
  475SOL    MW4 1668   3.886   4.146   2.656  0.5632 -0.1750 -0.2812
  476SOL     OW 1669   6.422   4.517   6.431  0.2307 -0.2957  0.6414
  476SOL    HW2 1670   6.505   4.471   6.425  1.3377  1.7085 -0.1909
  476SOL    HW3 1671   6.410   4.536   6.524 -0.8392 -3.1596  1.1854
  476SOL    MW4 1672   6.431   4.514   6.442  0.2356 -0.4092  0.6034
  477SOL     OW 1673   3.541   5.806   5.895 -0.6144 -0.0109  0.1371
  477SOL    HW2 1674   3.573   5.893   5.919 -0.5012 -0.0600  0.1656
  477SOL    HW3 1675   3.574   5.749   5.965 -1.1792  0.0190  0.4310
  477SOL    MW4 1676   3.550   5.810   5.907 -0.6740 -0.0135  0.1797
  478SOL     OW 1677   1.807   4.743   2.191  0.3148 -0.1445  0.0455
  478SOL    HW2 1678   1.800   4.723   2.098 -0.2933  0.9469 -0.1607
  478SOL    HW3 1679   1.782   4.662   2.235 -2.3835  0.1533 -0.7477
  478SOL    MW4 1680   1.803   4.730   2.185 -0.1214  0.0388 -0.0864
  479SOL     OW 1681   0.060   6.033   4.080 -0.6345  0.3139 -0.2755
  479SOL    HW2 1682   0.040   5.952   4.032 -0.0921  0.2565 -0.4141
  479SOL    HW3 1683  -0.022   6.081   4.081 -0.9611 -0.2348 -0.2049
  479SOL    MW4 1684   0.047   6.029   4.074 -0.6060  0.2340 -0.2844
  480SOL     OW 1685   3.423   0.996   5.797 -0.4804 -0.0008  0.1573
  480SOL    HW2 1686   3.480   1.054   5.848 -1.1854  2.3810 -1.5941
  480SOL    HW3 1687   3.336   1.010   5.834 -0.6642  0.0982 -0.3079
  480SOL    MW4 1688   3.419   1.005   5.809 -0.5977  0.3265 -0.1352
  481SOL     OW 1689   0.960   4.215   0.534  0.6980 -0.7245 -0.6415
  481SOL    HW2 1690   1.031   4.258   0.486  0.2269 -0.6536 -1.2837
  481SOL    HW3 1691   0.996   4.200   0.622  0.7348  1.3558 -0.2615
  481SOL    MW4 1692   0.974   4.218   0.539  0.6407 -0.4407 -0.6761
  482SOL     OW 1693   1.766   5.196   4.468 -0.8852 -0.2591  0.3853
  482SOL    HW2 1694   1.838   5.146   4.429 -0.5005 -0.0058  0.7679
  482SOL    HW3 1695   1.692   5.135   4.466 -1.0058 -0.1053 -1.1476
  482SOL    MW4 1696   1.766   5.181   4.463 -0.8504 -0.2054  0.2335
  483SOL     OW 1697   0.320   1.561   0.784  0.3288 -0.7883  0.3808
  483SOL    HW2 1698   0.235   1.534   0.751 -0.7512  2.8011 -0.2354
  483SOL    HW3 1699   0.331   1.513   0.866 -2.0519 -1.7405  0.1956
  483SOL    MW4 1700   0.310   1.551   0.791 -0.1278 -0.4403  0.2750
  484SOL     OW 1701   0.776   1.591   6.386 -0.1173 -0.1670  0.5113
  484SOL    HW2 1702   0.696   1.544   6.412  0.1134 -1.7194 -1.4017
  484SOL    HW3 1703   0.845   1.526   6.391  0.9079  0.9528  1.3333
  484SOL    MW4 1704   0.774   1.577   6.390  0.0484 -0.2241  0.3674
  485SOL     OW 1705   3.361   5.053   5.494 -0.0980  0.2659 -0.2078
  485SOL    HW2 1706   3.415   5.006   5.557 -0.8935 -1.7084 -0.9085
  485SOL    HW3 1707   3.409   5.046   5.411 -0.8119 -0.4168 -0.5748
  485SOL    MW4 1708   3.375   5.046   5.491 -0.2971 -0.0847 -0.3486
  486SOL     OW 1709   5.593   3.663   5.135  0.0677 -0.1170  0.1040
  486SOL    HW2 1710   5.600   3.571   5.157  2.3697 -0.3178 -1.1258
  486SOL    HW3 1711   5.584   3.665   5.039  1.7665  0.9143 -0.0858
  486SOL    MW4 1712   5.593   3.651   5.125  0.5956 -0.0074 -0.0833
  487SOL     OW 1713   0.049   0.224   5.173 -1.0805  0.3961 -0.3821
  487SOL    HW2 1714   0.036   0.318   5.162 -2.0770  0.1741 -1.1567
  487SOL    HW3 1715   0.002   0.203   5.254 -0.0355  0.7082  0.3394
  487SOL    MW4 1716   0.041   0.234   5.182 -1.0741  0.4080 -0.3891
  488SOL     OW 1717   0.121   0.530   3.211  0.2322 -0.5240  0.0079
  488SOL    HW2 1718   0.128   0.622   3.188 -1.9954 -0.1838  0.4567
  488SOL    HW3 1719   0.125   0.484   3.128  2.2380 -0.1289 -0.1503
  488SOL    MW4 1720   0.122   0.536   3.197  0.2030 -0.4270  0.0463
  489SOL     OW 1721   1.033   1.104   2.446 -0.0103 -0.4118 -0.0656
  489SOL    HW2 1722   0.975   1.039   2.405 -1.4302 -0.4360  1.8477
  489SOL    HW3 1723   1.082   1.054   2.512  2.4443 -0.4310 -1.7462
  489SOL    MW4 1724   1.032   1.089   2.449  0.1262 -0.4175 -0.0349
  490SOL     OW 1725   0.118   2.615   6.439 -0.0908  0.0602 -0.5471
  490SOL    HW2 1726   0.156   2.586   6.522  0.7654 -0.2201 -1.0290
  490SOL    HW3 1727   0.059   2.687   6.463 -0.8565 -0.8679  0.4498
  490SOL    MW4 1728   0.115   2.620   6.453 -0.0789 -0.0992 -0.4792
  491SOL     OW 1729   2.823   2.367   0.356  0.5870  0.4297  0.2017
  491SOL    HW2 1730   2.832   2.375   0.451 -0.2795  1.5503  0.2196
  491SOL    HW3 1731   2.821   2.458   0.325  0.7626  0.0766 -0.8803
  491SOL    MW4 1732   2.824   2.380   0.364  0.4959  0.5310  0.0613
  492SOL     OW 1733   3.832   4.437   4.892  0.0687  0.1582  0.0969
  492SOL    HW2 1734   3.876   4.412   4.973 -1.1550  2.3585  1.5227
  492SOL    HW3 1735   3.904   4.451   4.830  1.1975  0.6203  1.4487
  492SOL    MW4 1736   3.847   4.435   4.894  0.0562  0.5095  0.4634
  493SOL     OW 1737   6.363   1.035   5.492  0.2381 -0.0475 -0.6070
  493SOL    HW2 1738   6.384   0.956   5.542 -0.0044  1.0246  1.2869
  493SOL    HW3 1739   6.448   1.069   5.464  0.3483 -0.8977 -1.4003
  493SOL    MW4 1740   6.377   1.029   5.495  0.2207 -0.0182 -0.4618
  494SOL     OW 1741   0.513   0.445   5.131  0.3101 -0.5519  0.1065
  494SOL    HW2 1742   0.581   0.462   5.066  0.6969  3.0405  1.2748
  494SOL    HW3 1743   0.551   0.377   5.187  1.5403 -0.9525 -1.1307
  494SOL    MW4 1744   0.527   0.438   5.130  0.5234 -0.1308  0.0974
  495SOL     OW 1745   0.850   6.175   4.832 -0.1376 -0.3591  0.3606
  495SOL    HW2 1746   0.803   6.212   4.757 -0.8515 -0.1061  0.9173
  495SOL    HW3 1747   0.834   6.237   4.904  1.2113 -0.1668  0.5292
  495SOL    MW4 1748   0.842   6.188   4.832 -0.0538 -0.3003  0.4563
  496SOL     OW 1749   2.333   1.137   3.101  0.8336  0.1668 -0.0816
  496SOL    HW2 1750   2.320   1.079   3.176  2.8344 -0.5912 -0.2432
  496SOL    HW3 1751   2.375   1.082   3.035  0.3201  1.1536 -1.2573
  496SOL    MW4 1752   2.337   1.122   3.102  1.0298  0.1970 -0.2581
  497SOL     OW 1753   4.061   4.010   2.491  0.2291 -0.1685 -0.2060
  497SOL    HW2 1754   4.155   3.999   2.472 -0.2997 -0.9205 -2.8071
  497SOL    HW3 1755   4.029   3.922   2.508 -0.0245  0.0908  0.7028
  497SOL    MW4 1756   4.069   3.997   2.491  0.1259 -0.2335 -0.4293
  498SOL     OW 1757   0.122   1.191   2.889 -0.1020 -0.2894  0.8616
  498SOL    HW2 1758   0.103   1.148   2.806 -0.7138  0.7534  0.4456
  498SOL    HW3 1759   0.089   1.280   2.879  2.1879  0.6820  1.2526
  498SOL    MW4 1760   0.115   1.197   2.877  0.1194 -0.0237  0.8583
  499SOL     OW 1761   4.917   6.383   2.340 -0.0779  0.0394  0.2540
  499SOL    HW2 1762   4.844   6.366   2.400 -1.0663 -0.5500 -1.0724
  499SOL    HW3 1763   4.995   6.374   2.395 -0.9477 -0.2405  1.5040
  499SOL    MW4 1764   4.917   6.380   2.355 -0.3231 -0.0753  0.2439
  500SOL     OW 1765   5.258   3.373   1.608  0.2254  0.3140 -0.2241
  500SOL    HW2 1766   5.315   3.445   1.582 -1.0754  1.3753 -0.2134
  500SOL    HW3 1767   5.317   3.311   1.651  1.6262  0.6705 -1.5255
  500SOL    MW4 1768   5.273   3.374   1.610  0.2386  0.5010 -0.3944
  501SOL     OW 1769   3.217   0.156   1.317  0.4248  0.0780  0.1083
  501SOL    HW2 1770   3.210   0.185   1.408  0.6430  1.1958 -0.2151
  501SOL    HW3 1771   3.293   0.204   1.283  0.2811 -0.2552 -0.6927
  501SOL    MW4 1772   3.226   0.166   1.324  0.4346  0.1815 -0.0400
  502SOL     OW 1773   6.226   0.834   3.033  0.2857 -0.0176  0.2636
  502SOL    HW2 1774   6.310   0.878   3.050  0.9163 -0.8930 -0.4381
  502SOL    HW3 1775   6.251   0.746   3.004 -0.8907 -0.3427  0.1828
  502SOL    MW4 1776   6.241   0.828   3.031  0.2137 -0.1760  0.1603
  503SOL     OW 1777   2.334   5.654   1.493 -0.5666 -0.0911 -0.0549
  503SOL    HW2 1778   2.256   5.708   1.493 -0.6965 -0.2641 -0.9915
  503SOL    HW3 1779   2.383   5.681   1.415 -1.2728 -2.1826 -1.3183
  503SOL    MW4 1780   2.330   5.664   1.483 -0.6769 -0.3899 -0.3452
  504SOL     OW 1781   2.888   4.400   0.812 -0.1747  0.5259  0.5704
  504SOL    HW2 1782   2.808   4.429   0.856 -0.1073  0.5194  0.6970
  504SOL    HW3 1783   2.861   4.323   0.762 -0.0429 -0.0633  1.3787
  504SOL    MW4 1784   2.874   4.394   0.811 -0.1484  0.4473  0.6937
  505SOL     OW 1785   4.081   0.763   5.577 -0.2130  0.1846  0.0147
  505SOL    HW2 1786   3.989   0.737   5.577 -0.8831  2.2508 -2.1363
  505SOL    HW3 1787   4.093   0.811   5.658 -2.1926  3.2863 -1.3537
  505SOL    MW4 1788   4.071   0.766   5.588 -0.5626  0.8665 -0.4497
  506SOL     OW 1789   5.684   5.761   6.036 -0.4623 -0.1205 -0.3144
  506SOL    HW2 1790   5.753   5.803   5.985  0.8571 -0.3458  1.2048
  506SOL    HW3 1791   5.672   5.675   5.995  2.4133 -1.3725  1.1688
  506SOL    MW4 1792   5.692   5.755   6.024  0.0912 -0.3154  0.0817
  507SOL     OW 1793   0.882   4.582   0.816  0.0493 -0.1469  0.5417
  507SOL    HW2 1794   0.885   4.505   0.873  1.3120 -0.3519  0.2137
  507SOL    HW3 1795   0.902   4.655   0.874 -0.0349 -0.1937  0.6309
  507SOL    MW4 1796   0.885   4.581   0.831  0.2048 -0.1801  0.5102
  508SOL     OW 1797   2.530   4.629   5.736  0.5847  0.2231 -0.1935
  508SOL    HW2 1798   2.495   4.567   5.672 -1.4186 -2.2611  2.9788
  508SOL    HW3 1799   2.619   4.647   5.705  0.4974 -2.5233 -2.5083
  508SOL    MW4 1800   2.537   4.623   5.723  0.3088 -0.4670 -0.0804
  509SOL     OW 1801   3.423   0.970   2.160 -0.7640  0.4934  0.0965
  509SOL    HW2 1802   3.467   0.923   2.231 -0.3791  1.3586  0.4374
  509SOL    HW3 1803   3.491   1.024   2.121 -1.0904  0.3934 -0.6142
  509SOL    MW4 1804   3.438   0.971   2.165 -0.7563  0.5944  0.0477
  510SOL     OW 1805   2.163   1.346   5.487  0.2526  0.3703 -0.1078
  510SOL    HW2 1806   2.208   1.280   5.541  0.1004  0.6255  0.3423
  510SOL    HW3 1807   2.187   1.429   5.528  0.6158  0.6111 -0.8011
  510SOL    MW4 1808   2.172   1.348   5.500  0.2805  0.4358 -0.1399
  511SOL     OW 1809   3.350   4.103   2.880  0.6794 -0.1300  0.1287
  511SOL    HW2 1810   3.389   4.164   2.818  1.1870 -0.1711  0.4021
  511SOL    HW3 1811   3.422   4.077   2.937  0.4711 -0.9996  0.0081
  511SOL    MW4 1812   3.364   4.108   2.879  0.7189 -0.2502  0.1489
  512SOL     OW 1813   5.329   5.499   5.963  0.0676  0.8588 -0.0275
  512SOL    HW2 1814   5.312   5.408   5.939 -0.5319  0.0592  2.8970
  512SOL    HW3 1815   5.247   5.544   5.943  0.0237  0.5369 -0.5943
  512SOL    MW4 1816   5.316   5.493   5.957 -0.0173  0.7108  0.2836
  513SOL     OW 1817   3.711   6.309   0.981 -0.0299  0.0529 -0.1025
  513SOL    HW2 1818   3.685   6.216   0.985  1.7644 -0.4448  1.9945
  513SOL    HW3 1819   3.787   6.310   0.923  0.2250  0.1412  0.2335
  513SOL    MW4 1820   3.717   6.297   0.974  0.2405 -0.0011  0.2185
  514SOL     OW 1821   0.545   4.538   1.834  0.4630  0.0304  0.5566
  514SOL    HW2 1822   0.478   4.469   1.837 -0.1970  0.5865 -0.4430
  514SOL    HW3 1823   0.626   4.492   1.815  0.1581 -0.5470  0.6283
  514SOL    MW4 1824   0.547   4.523   1.832  0.3357  0.0276  0.4342
  515SOL     OW 1825   0.018   1.611   4.206  0.5946 -0.0730 -0.1908
  515SOL    HW2 1826  -0.019   1.622   4.294 -3.2348  1.2310 -1.7447
  515SOL    HW3 1827   0.048   1.521   4.204  1.6369  0.1079  2.6733
  515SOL    MW4 1828   0.017   1.601   4.217  0.2268  0.1229 -0.0179
  516SOL     OW 1829   1.673   0.352   4.634  0.5814 -0.2099 -0.1914
  516SOL    HW2 1830   1.695   0.264   4.602 -0.2220 -0.4365 -0.1470
  516SOL    HW3 1831   1.611   0.385   4.569  1.6825  0.7567 -0.7860
  516SOL    MW4 1832   1.667   0.344   4.621  0.6207 -0.1123 -0.2640
  517SOL     OW 1833   4.500   0.001   4.885  0.3016 -0.1725 -0.0386
  517SOL    HW2 1834   4.470   0.036   4.969  0.9054 -0.1075  0.1521
  517SOL    HW3 1835   4.573   0.057   4.860  0.9400 -0.9684  0.0094
  517SOL    MW4 1836   4.505   0.013   4.893  0.4655 -0.2689 -0.0071
  518SOL     OW 1837   1.160   6.281   5.587 -0.0058  0.1045  0.0914
  518SOL    HW2 1838   1.088   6.218   5.584  1.2239 -1.3416  0.1515
  518SOL    HW3 1839   1.118   6.366   5.569 -1.8609 -0.5478  1.0857
  518SOL    MW4 1840   1.145   6.284   5.584 -0.0883 -0.1723  0.2305
  519SOL     OW 1841   4.686   0.094   1.318 -0.3017 -0.0718  0.5232
  519SOL    HW2 1842   4.668   0.142   1.237 -0.0451 -1.1819 -0.2144
  519SOL    HW3 1843   4.602   0.054   1.341  0.4575 -3.2984 -1.6192
  519SOL    MW4 1844   4.672   0.095   1.311 -0.1677 -0.6440  0.1432
  520SOL     OW 1845   1.041   2.274   0.049  0.2279 -0.5268 -0.2655
  520SOL    HW2 1846   0.982   2.206   0.016 -1.4100 -0.3746  2.1341
  520SOL    HW3 1847   1.072   2.240   0.133  0.8290  0.9088  0.1266
  520SOL    MW4 1848   1.037   2.260   0.056  0.0911 -0.3173  0.1029
  521SOL     OW 1849   2.377   5.972   1.457  0.1656  0.2109  0.4723
  521SOL    HW2 1850   2.444   5.994   1.522 -0.5972 -0.3300  1.4632
  521SOL    HW3 1851   2.423   5.920   1.391  1.3450  2.2326 -0.3842
  521SOL    MW4 1852   2.392   5.968   1.457  0.2206  0.4063  0.4901
  522SOL     OW 1853   0.823   5.510   0.914 -0.0835 -0.3103  0.2816
  522SOL    HW2 1854   0.899   5.514   0.973 -0.0485  0.2254  0.2086
  522SOL    HW3 1855   0.844   5.573   0.844  0.0761 -1.2543 -0.5492
  522SOL    MW4 1856   0.836   5.519   0.912 -0.0578 -0.3641  0.1624
  523SOL     OW 1857   3.010   2.692   4.324  0.2893  0.0171  0.7255
  523SOL    HW2 1858   3.060   2.772   4.312 -0.0361  0.2246  0.7308
  523SOL    HW3 1859   3.013   2.649   4.238 -1.2244  1.0281  0.1231
  523SOL    MW4 1860   3.017   2.697   4.311  0.0466  0.1779  0.6467
  524SOL     OW 1861   5.090   0.867   2.927  0.1830 -0.6044  0.0540
  524SOL    HW2 1862   5.035   0.821   2.990 -0.1389 -0.9767 -0.4933
  524SOL    HW3 1863   5.147   0.922   2.981 -1.5146  0.7077  0.6270
  524SOL    MW4 1864   5.090   0.868   2.942 -0.0835 -0.4804  0.0574
  525SOL     OW 1865   5.105   2.410   4.538  0.1031 -0.3675  0.3440
  525SOL    HW2 1866   5.065   2.397   4.452  1.4061  1.6282 -0.6428
  525SOL    HW3 1867   5.162   2.334   4.549 -1.2051 -1.4236  0.1786
  525SOL    MW4 1868   5.107   2.398   4.528  0.1024 -0.2436  0.1920
  526SOL     OW 1869   6.266   1.171   4.076  0.3638  0.4868  0.3482
  526SOL    HW2 1870   6.275   1.076   4.087  1.1494  0.3697 -1.0732
  526SOL    HW3 1871   6.320   1.208   4.146 -0.7504 -0.0708  1.5539
  526SOL    MW4 1872   6.274   1.163   4.087  0.3204  0.3978  0.3197
  527SOL     OW 1873   5.506   1.656   4.925 -0.3726  0.0535 -0.6076
  527SOL    HW2 1874   5.500   1.562   4.908 -0.8110  0.0573 -0.4924
  527SOL    HW3 1875   5.586   1.684   4.881 -0.8981 -0.1411 -1.7274
  527SOL    MW4 1876   5.516   1.648   4.917 -0.4997  0.0283 -0.7401
  528SOL     OW 1877   3.083   5.808   0.993 -0.1796 -0.3677  0.8097
  528SOL    HW2 1878   3.176   5.796   1.012 -0.5572 -1.5397  2.0613
  528SOL    HW3 1879   3.061   5.737   0.933 -0.2869 -0.1143  0.5443
  528SOL    MW4 1880   3.092   5.797   0.987 -0.2436 -0.4889  0.9399
  529SOL     OW 1881   3.182   1.280   4.209  0.0268 -0.0025 -0.3062
  529SOL    HW2 1882   3.087   1.287   4.207 -0.1513 -1.6857  0.5944
  529SOL    HW3 1883   3.200   1.191   4.177  1.2231 -0.0820  0.5361
  529SOL    MW4 1884   3.172   1.269   4.204  0.1611 -0.2350 -0.0763
  530SOL     OW 1885   1.130   3.425   1.525  0.1247 -0.1867  0.6951
  530SOL    HW2 1886   1.076   3.415   1.447 -0.4317 -0.0774  1.0560
  530SOL    HW3 1887   1.088   3.368   1.590 -0.0016  0.4810  1.2036
  530SOL    MW4 1888   1.117   3.416   1.524  0.0347 -0.0842  0.8098
  531SOL     OW 1889   0.488   2.689   4.485  0.0407  0.3234 -0.1806
  531SOL    HW2 1890   0.459   2.657   4.570 -1.3532  1.3733 -0.2361
  531SOL    HW3 1891   0.415   2.741   4.452  0.3923 -0.3530 -2.1920
  531SOL    MW4 1892   0.475   2.691   4.492 -0.0968  0.3727 -0.4533
  532SOL     OW 1893   6.374   2.310   3.200  0.0477 -0.1211 -0.5559
  532SOL    HW2 1894   6.303   2.372   3.209 -0.2631 -0.6336  0.7733
  532SOL    HW3 1895   6.395   2.310   3.107 -2.1410 -0.4539 -1.1078
  532SOL    MW4 1896   6.368   2.318   3.189 -0.2821 -0.2327 -0.4534
  533SOL     OW 1897   0.022   5.747   4.141  0.0448  0.8105 -0.3843
  533SOL    HW2 1898   0.040   5.685   4.070 -0.5006  0.3883 -0.1647
  533SOL    HW3 1899   0.031   5.695   4.221  1.6123  1.4986 -0.0569
  533SOL    MW4 1900   0.026   5.732   4.142  0.1797  0.8456 -0.3122
  534SOL     OW 1901   1.483   3.399   3.029  0.8156 -0.3202  0.1128
  534SOL    HW2 1902   1.478   3.306   3.007  1.6116  0.0639 -1.8585
  534SOL    HW3 1903   1.403   3.437   2.992  0.6538 -0.1546  0.6216
  534SOL    MW4 1904   1.472   3.392   3.021  0.8993 -0.2477 -0.0802
  535SOL     OW 1905   1.535   2.887   1.894  1.2736 -0.7000 -0.2700
  535SOL    HW2 1906   1.581   2.955   1.943  3.3918 -1.4251 -1.1242
  535SOL    HW3 1907   1.574   2.890   1.807  0.5520 -2.1784 -0.6733
  535SOL    MW4 1908   1.546   2.896   1.889  1.4579 -0.9908 -0.4359
  536SOL     OW 1909   4.808   1.198   1.988 -0.0959  0.7932 -0.0221
  536SOL    HW2 1910   4.878   1.250   1.949  0.8316  0.1613  0.7488
  536SOL    HW3 1911   4.845   1.110   1.996 -1.7446 -0.1211 -1.6268
  536SOL    MW4 1912   4.822   1.193   1.984 -0.1911  0.5892 -0.1321
  537SOL     OW 1913   4.784   5.908   3.869  0.4403 -0.5799  0.1536
  537SOL    HW2 1914   4.830   5.909   3.952 -0.2117 -0.9552  0.5345
  537SOL    HW3 1915   4.714   5.844   3.881 -0.8173  0.6984 -0.0522
  537SOL    MW4 1916   4.780   5.900   3.881  0.1884 -0.4608  0.1767
  538SOL     OW 1917   4.066   0.496   6.030 -0.5166  0.5981 -0.4146
  538SOL    HW2 1918   4.043   0.404   6.016 -0.8785  0.4334  1.1612
  538SOL    HW3 1919   4.138   0.494   6.093 -0.5326  1.3960 -0.3601
  538SOL    MW4 1920   4.073   0.484   6.036 -0.5665  0.6816 -0.1995
  539SOL     OW 1921   3.310   4.453   2.888 -0.9447 -0.7753  0.4493
  539SOL    HW2 1922   3.219   4.478   2.868 -0.7712 -0.8489 -0.5146
  539SOL    HW3 1923   3.357   4.536   2.895 -1.1151 -0.7311  1.1382
  539SOL    MW4 1924   3.304   4.467   2.886 -0.9443 -0.7792  0.4130
  540SOL     OW 1925   5.788   2.336   4.142 -0.8144 -0.0810 -0.3239
  540SOL    HW2 1926   5.777   2.336   4.237 -2.5217 -1.1165 -0.4733
  540SOL    HW3 1927   5.721   2.275   4.111 -1.2771  1.3650 -2.3143
  540SOL    MW4 1928   5.777   2.328   4.151 -1.1007 -0.0269 -0.6062
  541SOL     OW 1929   0.898   5.210   3.728 -0.3915  0.1479  0.5220
  541SOL    HW2 1930   0.839   5.183   3.798 -1.7383  3.8739  1.0261
  541SOL    HW3 1931   0.851   5.189   3.647  0.7980 -3.3528  0.5622
  541SOL    MW4 1932   0.884   5.204   3.726 -0.4123  0.1776  0.5938
  542SOL     OW 1933   0.068   0.650   1.903 -0.0861  0.1582 -0.1293
  542SOL    HW2 1934   0.162   0.641   1.920 -0.0558  0.8611  0.0975
  542SOL    HW3 1935   0.027   0.623   1.985 -0.0650  0.2730 -0.0807
  542SOL    MW4 1936   0.075   0.645   1.916 -0.0794  0.2661 -0.0930
  543SOL     OW 1937   4.702   5.851   5.855 -0.2354  0.2842 -0.2191
  543SOL    HW2 1938   4.675   5.786   5.919 -0.2339 -0.1580 -0.6616
  543SOL    HW3 1939   4.779   5.813   5.813  0.4745  1.0803  0.3226
  543SOL    MW4 1940   4.709   5.838   5.858 -0.1416  0.3309 -0.2060
  544SOL     OW 1941   6.170   2.492   1.858  0.5735 -0.2792  0.1122
  544SOL    HW2 1942   6.170   2.453   1.946 -0.3772  0.8581  0.6398
  544SOL    HW3 1943   6.131   2.424   1.803 -0.3309 -0.4104  0.8762
  544SOL    MW4 1944   6.165   2.478   1.862  0.3287 -0.1465  0.2826
  545SOL     OW 1945   4.394   2.168   2.291  0.0143 -0.0710 -1.0500
  545SOL    HW2 1946   4.447   2.237   2.253 -0.2248  1.4382  1.1440
  545SOL    HW3 1947   4.399   2.184   2.386 -0.5884 -2.6821 -0.4978
  545SOL    MW4 1948   4.402   2.179   2.299 -0.0968 -0.2164 -0.6877
  546SOL     OW 1949   5.083   2.802   5.783 -0.0159 -0.2307  0.1964
  546SOL    HW2 1950   5.092   2.779   5.875 -1.2878 -0.1465  0.3647
  546SOL    HW3 1951   5.171   2.826   5.755  0.8432 -2.4875  0.7614
  546SOL    MW4 1952   5.096   2.803   5.791 -0.0704 -0.5174  0.2931
  547SOL     OW 1953   5.926   0.316   1.642  0.0057 -0.4030 -0.0654
  547SOL    HW2 1954   5.857   0.378   1.666  0.5200 -0.7428  2.6789
  547SOL    HW3 1955   5.936   0.327   1.547  0.0411  3.6646  0.2096
  547SOL    MW4 1956   5.918   0.326   1.633  0.0782  0.0889  0.3329
  548SOL     OW 1957   1.022   0.507   2.529 -0.1025  0.0873 -0.1852
  548SOL    HW2 1958   1.036   0.513   2.434 -2.8278 -2.5513 -0.9273
  548SOL    HW3 1959   1.088   0.446   2.560  1.7508  2.0670 -0.0051
  548SOL    MW4 1960   1.032   0.500   2.520 -0.2175  0.0004 -0.2593
  549SOL     OW 1961   4.507   4.817   2.986  1.2551  0.6320 -0.0956
  549SOL    HW2 1962   4.535   4.746   3.044  0.8844 -0.4497 -1.1990
  549SOL    HW3 1963   4.536   4.790   2.899  0.1602  1.3129 -0.6979
  549SOL    MW4 1964   4.515   4.804   2.982  1.0618  0.5791 -0.3206
  550SOL     OW 1965   3.229   0.303   3.649  0.4222  0.4095  0.3864
  550SOL    HW2 1966   3.223   0.354   3.568  1.0102  0.7802  0.5715
  550SOL    HW3 1967   3.214   0.366   3.719  0.7981  0.2605  0.6043
  550SOL    MW4 1968   3.226   0.318   3.648  0.5494  0.4387  0.4396
  551SOL     OW 1969   6.284   5.687   6.243 -0.3140 -0.1480  0.0108
  551SOL    HW2 1970   6.284   5.591   6.241 -1.3425 -0.1836  0.8565
  551SOL    HW3 1971   6.292   5.712   6.151 -1.5413 -1.0759 -0.3867
  551SOL    MW4 1972   6.285   5.678   6.230 -0.6117 -0.2751  0.0699
  552SOL     OW 1973   2.102   5.899   3.855 -0.0895 -0.0518  0.1621
  552SOL    HW2 1974   2.027   5.890   3.797  1.0939 -3.1151 -1.1075
  552SOL    HW3 1975   2.089   5.831   3.922  0.9340  0.1915  0.6303
  552SOL    MW4 1976   2.091   5.889   3.856  0.2016 -0.4239  0.0564
  553SOL     OW 1977   1.703   2.855   4.372 -0.4469 -0.4891  0.1014
  553SOL    HW2 1978   1.752   2.936   4.381  0.3754 -0.9401 -0.1733
  553SOL    HW3 1979   1.757   2.790   4.418 -1.2958 -0.8053  0.6759
  553SOL    MW4 1980   1.716   2.857   4.380 -0.4504 -0.5903  0.1409
  554SOL     OW 1981   5.348   4.108   3.779  0.2320 -0.2222  0.1144
  554SOL    HW2 1982   5.442   4.124   3.793  0.3362 -0.1526 -0.6091
  554SOL    HW3 1983   5.345   4.020   3.741 -0.0591 -0.5306  0.8499
  554SOL    MW4 1984   5.360   4.099   3.776  0.2073 -0.2537  0.1160
  555SOL     OW 1985   5.880   3.360   0.486 -0.3232  0.4302  0.0501
  555SOL    HW2 1986   5.886   3.382   0.393 -1.5934 -0.8326 -0.3519
  555SOL    HW3 1987   5.791   3.328   0.498  1.0155 -3.5223  0.7736
  555SOL    MW4 1988   5.869   3.359   0.475 -0.3142 -0.2579  0.0925
  556SOL     OW 1989   4.638   0.931   6.295 -0.4762 -0.0685  0.7839
  556SOL    HW2 1990   4.727   0.967   6.298 -0.6883  0.4646  0.8611
  556SOL    HW3 1991   4.649   0.838   6.314  0.4142 -0.6930 -2.2867
  556SOL    MW4 1992   4.651   0.923   6.298 -0.3867 -0.0806  0.3890
  557SOL     OW 1993   1.750   1.597   1.178  0.1817 -0.3620  1.2158
  557SOL    HW2 1994   1.676   1.570   1.233  2.3306 -3.2141  3.0444
  557SOL    HW3 1995   1.794   1.666   1.229  2.1300 -2.9503  3.4127
  557SOL    MW4 1996   1.746   1.602   1.192  0.7223 -1.0798  1.7469
  558SOL     OW 1997   1.838   1.231   3.314 -0.2100 -0.4176 -0.6399
  558SOL    HW2 1998   1.882   1.267   3.392 -1.6187 -0.0474  0.0169
  558SOL    HW3 1999   1.847   1.136   3.324  1.6288 -0.3438 -1.2511
  558SOL    MW4 2000   1.845   1.223   3.326 -0.1533 -0.3590 -0.6338
  559SOL     OW 2001   0.316   5.783   4.134 -0.4637  0.2378 -0.0541
  559SOL    HW2 2002   0.222   5.778   4.145 -0.2975  0.5458  1.8003
  559SOL    HW3 2003   0.352   5.747   4.215  1.0370 -0.5901 -1.0223
  559SOL    MW4 2004   0.309   5.778   4.146 -0.2438  0.1692  0.0628
  560SOL     OW 2005   1.060   5.657   5.303  0.0293 -0.3549  0.4762
  560SOL    HW2 2006   1.134   5.712   5.326  0.3504 -0.9252  0.8201
  560SOL    HW3 2007   0.985   5.716   5.303  0.2961 -0.0119  1.3136
  560SOL    MW4 2008   1.060   5.672   5.306  0.1069 -0.3849  0.6320
  561SOL     OW 2009   3.708   2.782   5.069  0.1452 -0.6203 -0.0150
  561SOL    HW2 2010   3.620   2.748   5.053 -0.7283 -0.2332  3.2334
  561SOL    HW3 2011   3.744   2.798   4.982 -2.2687 -2.5471 -1.4922
  561SOL    MW4 2012   3.701   2.780   5.056 -0.2885 -0.8234  0.2187
  562SOL     OW 2013   5.715   0.104   1.569 -0.4675  0.1154  0.0075
  562SOL    HW2 2014   5.648   0.091   1.636  0.3530 -2.4664  0.4573
  562SOL    HW3 2015   5.793   0.130   1.618 -0.5500  0.9413 -0.2797
  562SOL    MW4 2016   5.717   0.106   1.585 -0.3702 -0.1162  0.0290
  563SOL     OW 2017   1.519   4.121   3.367 -0.0908 -0.2726  0.0712
  563SOL    HW2 2018   1.482   4.170   3.293 -1.2390  1.7670  1.8764
  563SOL    HW3 2019   1.611   4.146   3.368 -0.2171  0.2280 -0.2587
  563SOL    MW4 2020   1.526   4.131   3.357 -0.2589  0.0626  0.2658
  564SOL     OW 2021   2.435   3.719   0.383 -0.2765 -0.4142  0.5492
  564SOL    HW2 2022   2.440   3.772   0.304 -0.3998  0.6096  1.2035
  564SOL    HW3 2023   2.357   3.752   0.429  0.8072  0.2714  1.9573
  564SOL    MW4 2024   2.425   3.731   0.379 -0.1498 -0.1887  0.8213
  565SOL     OW 2025   0.738   0.610   1.088 -0.4411 -0.1246 -0.0160
  565SOL    HW2 2026   0.650   0.631   1.058 -0.5764  0.2718  0.6314
  565SOL    HW3 2027   0.786   0.588   1.009 -0.7247  1.1372 -0.5666
  565SOL    MW4 2028   0.733   0.610   1.074 -0.4964  0.0942 -0.0033
  566SOL     OW 2029   1.898   5.274   3.959  0.0861 -0.8068 -0.4036
  566SOL    HW2 2030   1.872   5.317   4.041 -1.5854  0.2261 -1.4197
  566SOL    HW3 2031   1.949   5.339   3.912  0.2254 -1.0555 -0.6013
  566SOL    MW4 2032   1.901   5.288   3.964 -0.1160 -0.7033 -0.5637
  567SOL     OW 2033   5.145   2.608   2.779  0.2529  0.2504 -0.3675
  567SOL    HW2 2034   5.079   2.672   2.805 -0.0624 -0.0688 -0.3755
  567SOL    HW3 2035   5.142   2.540   2.847  0.4474  0.1432 -0.4627
  567SOL    MW4 2036   5.136   2.607   2.791  0.2369  0.1942 -0.3811
  568SOL     OW 2037   5.375   0.772   4.377 -0.0333 -0.1995  0.8871
  568SOL    HW2 2038   5.334   0.721   4.306 -0.9280  1.6543 -0.0141
  568SOL    HW3 2039   5.379   0.712   4.451  0.0770 -1.9316 -0.4599
  568SOL    MW4 2040   5.370   0.757   4.377 -0.1368 -0.1835  0.5905
  569SOL     OW 2041   5.476   1.153   4.647  0.4489 -0.6240  0.2739
  569SOL    HW2 2042   5.542   1.088   4.672  1.3190  0.4146  0.7900
  569SOL    HW3 2043   5.503   1.182   4.560 -1.3394 -2.6610 -1.0740
  569SOL    MW4 2044   5.488   1.148   4.639  0.3278 -0.7557  0.1641
  570SOL     OW 2045   2.132   0.618   0.942 -0.0973  0.1890 -0.9667
  570SOL    HW2 2046   2.066   0.549   0.949 -0.4203  0.4399 -1.4794
  570SOL    HW3 2047   2.216   0.571   0.935 -0.2811 -0.1424 -0.9540
  570SOL    MW4 2048   2.135   0.603   0.942 -0.1642  0.1784 -1.0327
  571SOL     OW 2049   6.112   5.722   2.580 -0.2171  0.1007  0.0026
  571SOL    HW2 2050   6.087   5.661   2.511  1.1965  1.3698 -1.7459
  571SOL    HW3 2051   6.202   5.698   2.602 -0.0646  0.7919  0.1563
  571SOL    MW4 2052   6.121   5.711   2.574 -0.0105  0.3594 -0.2078
  572SOL     OW 2053   0.007   1.398   4.579  0.2714 -0.7359  0.8910
  572SOL    HW2 2054  -0.071   1.447   4.552  1.1997  1.3914  1.8023
  572SOL    HW3 2055   0.079   1.446   4.538  1.2028 -1.7056  1.3641
  572SOL    MW4 2056   0.006   1.411   4.570  0.5168 -0.5831  1.0737
  573SOL     OW 2057   5.904   4.926   0.853  0.0084  0.2344 -0.2943
  573SOL    HW2 2058   5.827   4.972   0.820 -0.2671 -0.5629 -0.7860
  573SOL    HW3 2059   5.878   4.834   0.854  1.3461 -0.1821 -1.6084
  573SOL    MW4 2060   5.890   4.920   0.849  0.1485  0.0743 -0.5326
  574SOL     OW 2061   3.918   2.047   1.817  0.3568 -0.4084  0.4076
  574SOL    HW2 2062   3.855   2.076   1.751 -0.7332 -1.9031  0.7459
  574SOL    HW3 2063   3.962   1.972   1.776  0.0415 -1.0179  1.1710
  574SOL    MW4 2064   3.916   2.041   1.803  0.1714 -0.6860  0.5530
  575SOL     OW 2065   3.989   3.492   0.532  0.3703 -0.0998 -0.6280
  575SOL    HW2 2066   4.037   3.545   0.468  1.1153  0.5708  0.4558
  575SOL    HW3 2067   3.975   3.551   0.606  0.1719 -1.0711  0.1229
  575SOL    MW4 2068   3.993   3.507   0.533  0.4424 -0.1395 -0.3859
  576SOL     OW 2069   1.969   1.001   1.740 -0.6139  0.1376 -0.4398
  576SOL    HW2 2070   2.027   1.075   1.719  0.1077 -0.3165 -0.0807
  576SOL    HW3 2071   2.027   0.925   1.742 -1.4323 -0.5147 -1.2521
  576SOL    MW4 2072   1.984   1.001   1.738 -0.6266 -0.0084 -0.4996
  577SOL     OW 2073   0.330   1.490   4.170  0.3545  0.6759  0.5971
  577SOL    HW2 2074   0.306   1.486   4.263  0.7236 -2.2881  0.6363
  577SOL    HW3 2075   0.422   1.516   4.170  0.5691 -0.0530  1.1312
  577SOL    MW4 2076   0.339   1.493   4.182  0.4315  0.1887  0.6727
  578SOL     OW 2077   5.179   4.884   3.446 -0.1547  0.4667 -0.4845
  578SOL    HW2 2078   5.254   4.935   3.477  1.2800 -1.2104 -0.9987
  578SOL    HW3 2079   5.140   4.848   3.526 -0.2142  1.0678 -0.2364
  578SOL    MW4 2080   5.184   4.886   3.461  0.0267  0.3248 -0.5196
  579SOL     OW 2081   3.071   3.912   2.913 -0.1365  0.1415 -0.4513
  579SOL    HW2 2082   2.991   3.940   2.958  0.5220  0.6772  0.4383
  579SOL    HW3 2083   3.141   3.936   2.974  0.7348  0.1548 -1.4404
  579SOL    MW4 2084   3.069   3.919   2.927  0.0654  0.2139 -0.4645
  580SOL     OW 2085   3.656   6.043   5.962 -0.0544 -0.3285  0.0036
  580SOL    HW2 2086   3.603   6.095   6.022  0.9525  0.2036  0.4648
  580SOL    HW3 2087   3.658   6.093   5.881  0.1113 -0.1140  0.1374
  580SOL    MW4 2088   3.650   6.057   5.959  0.1003 -0.2300  0.0821
  581SOL     OW 2089   1.023   5.432   5.894 -0.0283  0.3878 -0.6414
  581SOL    HW2 2090   1.100   5.387   5.858 -0.3161 -1.5707  1.0204
  581SOL    HW3 2091   0.952   5.369   5.884 -0.7939  1.0539  0.4383
  581SOL    MW4 2092   1.024   5.418   5.888 -0.1673  0.2173 -0.2797
  582SOL     OW 2093   5.926   4.849   0.388  0.0796 -0.3940 -0.5609
  582SOL    HW2 2094   5.963   4.879   0.471 -1.4814  0.7633 -0.2508
  582SOL    HW3 2095   5.941   4.921   0.327 -1.0151 -0.1928 -0.6081
  582SOL    MW4 2096   5.933   4.862   0.391 -0.2708 -0.2147 -0.5262
  583SOL     OW 2097   5.003   0.578   4.168 -0.1005 -0.1252  0.4499
  583SOL    HW2 2098   4.941   0.629   4.115 -0.4529  0.0112  0.9857
  583SOL    HW3 2099   4.948   0.517   4.216  0.3038 -0.8589 -0.0139
  583SOL    MW4 2100   4.987   0.577   4.167 -0.0936 -0.2040  0.4594
  584SOL     OW 2101   1.385   1.937   4.972  0.2392  0.2666 -0.1284
  584SOL    HW2 2102   1.345   2.005   5.026 -0.2297  0.3871 -0.6177
  584SOL    HW3 2103   1.340   1.943   4.888  0.5674 -0.2934 -0.3537
  584SOL    MW4 2104   1.374   1.947   4.968  0.2206  0.2086 -0.2227
  585SOL     OW 2105   1.161   5.197   4.774  0.8412  0.1167 -0.4466
  585SOL    HW2 2106   1.236   5.153   4.736  1.5359  1.7222 -1.0193
  585SOL    HW3 2107   1.103   5.214   4.700 -0.0306 -0.9556 -0.0362
  585SOL    MW4 2108   1.163   5.193   4.760  0.8179  0.1871 -0.4680
  586SOL     OW 2109   2.996   2.106   5.324  0.1444  0.0839 -0.2807
  586SOL    HW2 2110   2.912   2.069   5.295  0.9444 -1.0758 -1.1957
  586SOL    HW3 2111   3.035   2.142   5.244  0.9023 -0.1677 -0.0280
  586SOL    MW4 2112   2.990   2.106   5.310  0.3499 -0.1023 -0.3681
  587SOL     OW 2113   2.851   5.130   0.738 -0.1283 -0.2788  0.0754
  587SOL    HW2 2114   2.923   5.070   0.720 -0.4613 -1.0457  1.2071
  587SOL    HW3 2115   2.891   5.204   0.784  0.1248 -0.1108 -0.4116
  587SOL    MW4 2116   2.865   5.132   0.742 -0.1389 -0.3578  0.1605
  588SOL     OW 2117   6.198   5.290   3.120  0.2148 -0.0481 -0.1149
  588SOL    HW2 2118   6.160   5.317   3.204  0.2723  2.7504 -0.8990
  588SOL    HW3 2119   6.280   5.339   3.114 -0.7251  1.3864 -2.6096
  588SOL    MW4 2120   6.203   5.300   3.131  0.0983  0.5104 -0.5475
  589SOL     OW 2121   4.089   3.294   1.488  0.1458 -0.1578 -0.0896
  589SOL    HW2 2122   4.092   3.335   1.402  0.6317  2.0935  0.9486
  589SOL    HW3 2123   4.180   3.273   1.509 -0.0486 -1.4222 -0.4104
  589SOL    MW4 2124   4.101   3.296   1.480  0.1843 -0.0276  0.0050
  590SOL     OW 2125   3.989   4.510   1.140  0.0598  0.0643 -0.4025
  590SOL    HW2 2126   3.996   4.572   1.213  0.3241  1.7965 -1.8207
  590SOL    HW3 2127   4.055   4.443   1.159  2.0768  1.9287 -0.3222
  590SOL    MW4 2128   3.999   4.509   1.152  0.3608  0.5388 -0.5790
  591SOL     OW 2129   3.519   3.613   5.574  0.3690  0.8862  0.4838
  591SOL    HW2 2130   3.597   3.662   5.598 -1.0436  2.3951  2.2880
  591SOL    HW3 2131   3.455   3.680   5.551 -0.3826 -0.3190 -1.1838
  591SOL    MW4 2132   3.521   3.628   5.574  0.0835  0.9262  0.5018
  592SOL     OW 2133   5.002   3.947   2.538  0.1275 -0.2107  0.3304
  592SOL    HW2 2134   5.086   3.986   2.515 -0.7375  0.4219 -2.0381
  592SOL    HW3 2135   4.952   4.019   2.577  0.1862 -0.2325  0.4483
  592SOL    MW4 2136   5.007   3.962   2.540  0.0211 -0.1301  0.0335
  593SOL     OW 2137   1.195   0.644   1.877  0.0072  0.1113  0.6153
  593SOL    HW2 2138   1.154   0.700   1.943 -1.3241 -0.8834  0.6812
  593SOL    HW3 2139   1.228   0.569   1.926 -1.0773 -0.6822  0.1657
  593SOL    MW4 2140   1.194   0.642   1.892 -0.3115 -0.1246  0.5647
  594SOL     OW 2141   6.129   2.584   4.678  0.4026  0.6581 -0.1302
  594SOL    HW2 2142   6.052   2.535   4.648 -0.1193  0.7840  0.9589
  594SOL    HW3 2143   6.164   2.623   4.598 -0.4879  0.3478 -0.6976
  594SOL    MW4 2144   6.123   2.582   4.664  0.2162  0.6337 -0.0614
  595SOL     OW 2145   6.043   2.257   4.495  0.2824 -0.1173 -0.2437
  595SOL    HW2 2146   6.004   2.247   4.582 -1.7469  3.2606 -0.6018
  595SOL    HW3 2147   5.979   2.220   4.435 -0.3822  1.4379 -0.5346
  595SOL    MW4 2148   6.030   2.251   4.499 -0.0730  0.5336 -0.3294
  596SOL     OW 2149   5.305   1.637   0.833 -0.3054  0.4491 -0.3846
  596SOL    HW2 2150   5.372   1.652   0.767  0.1345 -2.2579 -0.6930
  596SOL    HW3 2151   5.222   1.638   0.784 -0.2993  1.5454 -0.3940
  596SOL    MW4 2152   5.303   1.639   0.818 -0.2466  0.2366 -0.4265
  597SOL     OW 2153   2.940   1.729   2.653 -0.4472  0.2621  0.1668
  597SOL    HW2 2154   2.852   1.706   2.622 -0.2884 -0.4533  0.2354
  597SOL    HW3 2155   2.998   1.667   2.610 -0.2629 -1.0658  2.2122
  597SOL    MW4 2156   2.936   1.718   2.644 -0.4019 -0.0075  0.4457
  598SOL     OW 2157   1.898   5.335   2.169  0.6265  0.2005 -0.2818
  598SOL    HW2 2158   1.946   5.364   2.247 -0.3500  0.7511  0.1351
  598SOL    HW3 2159   1.868   5.246   2.191 -0.7049  0.8047  0.5105
  598SOL    MW4 2160   1.900   5.327   2.182  0.3220  0.3528 -0.1222
  599SOL     OW 2161   3.488   0.257   1.239 -0.0672  0.8451 -0.2508
  599SOL    HW2 2162   3.495   0.212   1.155 -0.9252  3.1732 -1.6784
  599SOL    HW3 2163   3.537   0.339   1.225 -0.7372  1.5351  1.3109
  599SOL    MW4 2164   3.495   0.262   1.226 -0.2688  1.2433 -0.2331
  600SOL     OW 2165   2.820   3.035   1.628 -0.1184 -0.1521 -0.3133
  600SOL    HW2 2166   2.779   2.950   1.641 -0.7141  0.3059  1.0281
  600SOL    HW3 2167   2.851   3.060   1.715 -0.0872  1.0543 -0.6491
  600SOL    MW4 2168   2.818   3.027   1.641 -0.1929  0.0675 -0.1806
  601SOL     OW 2169   4.186   5.660   5.256 -0.4856  0.3474 -0.5857
  601SOL    HW2 2170   4.205   5.566   5.248 -1.8343 -0.1064  1.0254
  601SOL    HW3 2171   4.258   5.703   5.210 -0.2565 -1.4907 -2.0326
  601SOL    MW4 2172   4.198   5.653   5.249 -0.6333  0.0450 -0.5640
  602SOL     OW 2173   1.304   2.720   0.928 -0.0389 -0.3878  0.4505
  602SOL    HW2 2174   1.399   2.719   0.917 -0.0311  0.2265  0.4279
  602SOL    HW3 2175   1.270   2.700   0.841  0.0691 -1.2167  0.5900
  602SOL    MW4 2176   1.312   2.717   0.915 -0.0236 -0.4161  0.4659
  603SOL     OW 2177   5.899   4.633   0.859  0.4280 -0.0136 -0.1831
  603SOL    HW2 2178   5.989   4.602   0.850  0.5264 -0.1317  0.9811
  603SOL    HW3 2179   5.865   4.586   0.936 -0.3238  0.7069 -0.0558
  603SOL    MW4 2180   5.906   4.623   0.868  0.3418  0.0659 -0.0127
  604SOL     OW 2181   3.306   4.503   1.710  0.3458  0.7006  0.7374
  604SOL    HW2 2182   3.304   4.593   1.742 -1.4059  0.8172  0.4030
  604SOL    HW3 2183   3.228   4.463   1.747 -0.0724 -0.0480 -0.8510
  604SOL    MW4 2184   3.295   4.510   1.719  0.0595  0.6173  0.4837
  605SOL     OW 2185   4.402   3.533   0.680  0.1860 -0.1327 -0.3724
  605SOL    HW2 2186   4.386   3.624   0.655  0.2834 -0.3410 -1.2005
  605SOL    HW3 2187   4.485   3.511   0.638  0.2218 -0.5757 -0.0774
  605SOL    MW4 2188   4.411   3.542   0.671  0.2036 -0.2186 -0.4427
  606SOL     OW 2189   5.085   2.267   5.557  0.2317 -0.1463 -0.1307
  606SOL    HW2 2190   5.118   2.346   5.515  0.5103 -1.0250 -1.6454
  606SOL    HW3 2191   4.994   2.286   5.576  0.2892  0.5396 -0.5139
  606SOL    MW4 2192   5.078   2.280   5.554  0.2760 -0.1718 -0.3811
  607SOL     OW 2193   3.290   3.907   2.682  0.2133  0.6267 -0.5003
  607SOL    HW2 2194   3.209   3.944   2.645 -0.0935  0.8221  0.3471
  607SOL    HW3 2195   3.301   3.953   2.765 -0.1652 -1.1507  0.5778
  607SOL    MW4 2196   3.281   3.918   2.688  0.1229  0.4180 -0.2462
  608SOL     OW 2197   1.590   5.965   1.573 -0.2892 -0.1126 -0.3372
  608SOL    HW2 2198   1.661   5.907   1.547 -0.5698 -0.5113 -0.2355
  608SOL    HW3 2199   1.521   5.905   1.604  0.1007  0.3447  1.5022
  608SOL    MW4 2200   1.590   5.949   1.574 -0.2748 -0.1049 -0.0811
  609SOL     OW 2201   2.077   0.561   3.504  0.2265  0.3242 -0.1866
  609SOL    HW2 2202   2.129   0.508   3.564 -0.7606  0.3290  0.7161
  609SOL    HW3 2203   2.108   0.537   3.417 -0.1311 -1.6895  0.1873
  609SOL    MW4 2204   2.088   0.551   3.500  0.0491  0.0591 -0.0182
  610SOL     OW 2205   3.774   1.098   6.363 -0.1404  0.4125  0.2304
  610SOL    HW2 2206   3.816   1.069   6.282 -0.5920 -0.3055  0.2444
  610SOL    HW3 2207   3.846   1.110   6.424  0.3021  1.8913 -0.5468
  610SOL    MW4 2208   3.789   1.096   6.360 -0.1416  0.5129  0.1297
  611SOL     OW 2209   2.236   1.445   2.061  0.5403  0.2033 -0.3637
  611SOL    HW2 2210   2.240   1.356   2.027  0.0556 -0.6437  1.6474
  611SOL    HW3 2211   2.143   1.461   2.076  0.6281  1.0315 -0.6126
  611SOL    MW4 2212   2.224   1.436   2.058  0.4879  0.2008 -0.1312
  612SOL     OW 2213   3.951   3.433   2.577 -0.1429  0.1271  0.1844
  612SOL    HW2 2214   3.947   3.528   2.568  1.1570  0.2966  1.0969
  612SOL    HW3 2215   3.957   3.418   2.671 -2.0791 -0.9730  0.1999
  612SOL    MW4 2216   3.951   3.443   2.588 -0.2269  0.0043  0.3068
  613SOL     OW 2217   5.190   5.159   2.157  0.3306 -0.2793  0.1445
  613SOL    HW2 2218   5.246   5.098   2.108  1.7298  0.4142  0.8348
  613SOL    HW3 2219   5.101   5.130   2.137  0.9232 -1.5891 -0.7688
  613SOL    MW4 2220   5.186   5.147   2.148  0.5934 -0.3606  0.1151
  614SOL     OW 2221   1.313   1.040   2.832  0.6742  0.0130 -0.1776
  614SOL    HW2 2222   1.382   0.995   2.783  1.3515  0.7834  0.0488
  614SOL    HW3 2223   1.326   1.133   2.812 -0.4652  0.1538 -0.3375
  614SOL    MW4 2224   1.323   1.046   2.823  0.6132  0.1332 -0.1688
  615SOL     OW 2225   2.974   2.825   2.448  0.8883  0.2135 -0.1405
  615SOL    HW2 2226   3.037   2.879   2.497  2.1206  0.6544 -2.1015
  615SOL    HW3 2227   2.971   2.742   2.496  1.5558  0.8364  1.0176
  615SOL    MW4 2228   2.982   2.821   2.461  1.1390  0.3539 -0.2464
  616SOL     OW 2229   1.829   5.368   1.618  0.2603  0.1007  0.2435
  616SOL    HW2 2230   1.907   5.348   1.566 -0.4159 -1.7378 -0.1276
  616SOL    HW3 2231   1.850   5.451   1.661  1.1651  1.2856 -2.3064
  616SOL    MW4 2232   1.842   5.376   1.617  0.2905  0.0145 -0.1419
  617SOL     OW 2233   0.957   4.585   4.222  0.3942 -0.1149  0.1947
  617SOL    HW2 2234   0.912   4.643   4.283 -1.5549 -1.8353  0.5158
  617SOL    HW3 2235   0.984   4.510   4.275 -1.1290 -1.5353 -0.9272
  617SOL    MW4 2236   0.954   4.582   4.237 -0.0639 -0.5293  0.0890
  618SOL     OW 2237   2.326   1.869   2.005  0.7516 -0.0328  0.1608
  618SOL    HW2 2238   2.295   1.800   1.946  1.3528 -0.3788  0.2388
  618SOL    HW3 2239   2.269   1.861   2.082 -0.5015  0.8805 -0.6268
  618SOL    MW4 2240   2.314   1.859   2.008  0.6656  0.0421  0.0672
  619SOL     OW 2241   6.046   1.898   6.359 -0.3175 -0.2702 -0.3248
  619SOL    HW2 2242   5.974   1.837   6.347 -0.6919  0.2775 -0.9198
  619SOL    HW3 2243   6.033   1.964   6.291  1.0352 -0.4376 -0.7671
  619SOL    MW4 2244   6.035   1.899   6.348 -0.1885 -0.2200 -0.4617
  620SOL     OW 2245   5.720   4.894   4.136  0.1503 -0.3052  0.0425
  620SOL    HW2 2246   5.708   4.894   4.231  1.3979 -1.1199  0.2233
  620SOL    HW3 2247   5.636   4.867   4.100 -0.6295  0.9307  0.8524
  620SOL    MW4 2248   5.708   4.891   4.144  0.2120 -0.2496  0.1732
  621SOL     OW 2249   1.767   3.325   5.598 -0.2702  0.0787 -0.8091
  621SOL    HW2 2250   1.705   3.252   5.593  2.0830 -2.1540  0.2768
  621SOL    HW3 2251   1.746   3.369   5.680 -1.5909  0.5679 -1.3795
  621SOL    MW4 2252   1.756   3.321   5.608 -0.1340 -0.1513 -0.7411
  622SOL     OW 2253   4.762   4.784   4.301 -0.0304  0.7211 -0.0974
  622SOL    HW2 2254   4.672   4.800   4.275 -0.4318  0.8080  1.2319
  622SOL    HW3 2255   4.803   4.870   4.300  0.0261  0.6871 -0.6696
  622SOL    MW4 2256   4.755   4.798   4.298 -0.0759  0.7281  0.0025
  623SOL     OW 2257   6.293   5.753   5.967  0.1338 -0.3450 -0.0102
  623SOL    HW2 2258   6.387   5.735   5.974 -0.0863 -2.0517 -1.0468
  623SOL    HW3 2259   6.286   5.847   5.985  2.1221 -0.0401 -0.5563
  623SOL    MW4 2260   6.304   5.763   5.970  0.3671 -0.5300 -0.2190
  624SOL     OW 2261   3.675   0.101   2.478 -0.8096  0.0235 -0.6324
  624SOL    HW2 2262   3.583   0.120   2.464 -1.0132  0.0036  0.6174
  624SOL    HW3 2263   3.700   0.047   2.402 -1.8064  0.0546 -0.9912
  624SOL    MW4 2264   3.666   0.096   2.466 -0.9680  0.0250 -0.5149
  625SOL     OW 2265   4.325   0.521   2.002 -0.3799  0.1013 -0.0123
  625SOL    HW2 2266   4.391   0.563   2.057 -0.4170 -0.9908  0.9339
  625SOL    HW3 2267   4.295   0.447   2.055 -1.6015 -0.0397 -0.8638
  625SOL    MW4 2268   4.330   0.516   2.017 -0.5460 -0.0614  0.0002
  626SOL     OW 2269   1.733   3.704   4.326 -0.4999 -0.0534 -1.0205
  626SOL    HW2 2270   1.657   3.706   4.385 -0.0782 -0.3186 -0.4524
  626SOL    HW3 2271   1.715   3.631   4.267 -0.6255 -0.2068 -0.7973
  626SOL    MW4 2272   1.720   3.694   4.326 -0.4608 -0.1086 -0.9161
  627SOL     OW 2273   0.072   5.842   3.860  0.0699  0.5408  0.3622
  627SOL    HW2 2274   0.051   5.922   3.812 -0.9296 -1.4929 -2.8905
  627SOL    HW3 2275   0.163   5.824   3.836 -0.1900 -0.0856 -0.1599
  627SOL    MW4 2276   0.082   5.850   3.851 -0.0963  0.1899 -0.1358
  628SOL     OW 2277   1.070   4.495   3.345 -0.0850  0.3787 -0.2175
  628SOL    HW2 2278   0.976   4.509   3.336 -0.0951  0.8825  0.4989
  628SOL    HW3 2279   1.087   4.511   3.438  0.6081 -0.3306 -0.2167
  628SOL    MW4 2280   1.060   4.499   3.356  0.0051  0.3516 -0.1229
  629SOL     OW 2281   3.589   2.953   3.130 -0.3411 -0.3908  0.3697
  629SOL    HW2 2282   3.632   2.881   3.085 -0.5596 -0.7647  0.7545
  629SOL    HW3 2283   3.505   2.917   3.159 -0.2382 -0.1269  0.9993
  629SOL    MW4 2284   3.583   2.939   3.128 -0.3564 -0.4054  0.5035
  630SOL     OW 2285   4.406   3.960   4.707 -0.1959 -0.1798  0.0371
  630SOL    HW2 2286   4.320   3.930   4.735 -0.7456  0.1533 -1.2285
  630SOL    HW3 2287   4.457   3.880   4.695 -0.0371 -0.3445  1.6085
  630SOL    MW4 2288   4.401   3.945   4.709 -0.2475 -0.1576  0.0775
  631SOL     OW 2289   6.038   0.731   3.674  0.0481  0.8036  0.0978
  631SOL    HW2 2290   5.996   0.699   3.594  0.4438  0.9884 -0.1848
  631SOL    HW3 2291   5.980   0.801   3.705 -0.5959  0.1109  0.4853
  631SOL    MW4 2292   6.024   0.736   3.667  0.0154  0.7366  0.1117
  632SOL     OW 2293   3.245   5.131   6.012  0.5484 -0.0216  0.2848
  632SOL    HW2 2294   3.261   5.226   6.016  1.9029 -0.0618 -2.0905
  632SOL    HW3 2295   3.294   5.095   6.086  0.9418  1.0506  0.5648
  632SOL    MW4 2296   3.253   5.139   6.022  0.7790  0.1146  0.0083
  633SOL     OW 2297   1.747   4.617   1.658 -0.0499 -0.0168 -0.3040
  633SOL    HW2 2298   1.733   4.551   1.591 -1.8514  1.1391 -1.1171
  633SOL    HW3 2299   1.753   4.699   1.610 -1.6111  0.8663  0.9488
  633SOL    MW4 2300   1.746   4.619   1.643 -0.4936  0.2522 -0.2460
  634SOL     OW 2301   2.336   5.291   4.755 -0.1431  0.7158  0.9372
  634SOL    HW2 2302   2.261   5.233   4.738 -0.9995  1.9177  0.4572
  634SOL    HW3 2303   2.412   5.240   4.728 -0.9393  0.1040 -0.2708
  634SOL    MW4 2304   2.336   5.277   4.749 -0.3612  0.7937  0.7145
  635SOL     OW 2305   6.182   4.404   2.387  0.1921 -0.4331 -0.2514
  635SOL    HW2 2306   6.113   4.404   2.320  0.4720 -0.7289 -0.5423
  635SOL    HW3 2307   6.242   4.474   2.360 -0.9511  1.1088  1.0113
  635SOL    MW4 2308   6.181   4.414   2.375  0.0782 -0.2687 -0.1232
  636SOL     OW 2309   3.202   4.602   4.413  0.2970  1.0894 -0.2804
  636SOL    HW2 2310   3.239   4.514   4.401 -0.1616  0.9639 -0.8648
  636SOL    HW3 2311   3.277   4.657   4.434  0.6638  0.6445 -0.4005
  636SOL    MW4 2312   3.217   4.597   4.414  0.2849  1.0141 -0.3733
  637SOL     OW 2313   4.842   2.621   1.247  0.6537 -0.2488  0.2261
  637SOL    HW2 2314   4.879   2.684   1.308 -2.0765  0.5837  1.1815
  637SOL    HW3 2315   4.835   2.670   1.164 -2.6279  1.3546  1.2677
  637SOL    MW4 2316   4.846   2.636   1.244 -0.1395  0.0726  0.4896
  638SOL     OW 2317   3.623   1.163   2.107 -0.2229  0.6017  0.1060
  638SOL    HW2 2318   3.676   1.172   2.187 -2.3420 -0.0222  1.6625
  638SOL    HW3 2319   3.603   1.253   2.081 -0.0923  0.8043  0.6911
  638SOL    MW4 2320   3.627   1.176   2.115 -0.4852  0.5461  0.3885
  639SOL     OW 2321   3.673   1.106   5.606  0.1468  0.2819 -0.2588
  639SOL    HW2 2322   3.638   1.189   5.574 -1.6063 -0.5722 -0.6816
  639SOL    HW3 2323   3.608   1.041   5.580  0.0842 -0.8754  2.4637
  639SOL    MW4 2324   3.660   1.108   5.599 -0.0928  0.0165  0.0446
  640SOL     OW 2325   4.613   3.818   0.814  0.0217  0.2918 -0.5841
  640SOL    HW2 2326   4.679   3.883   0.836 -0.6645  0.8065  0.0293
  640SOL    HW3 2327   4.656   3.733   0.826  0.8644  0.6301 -1.1973
  640SOL    MW4 2328   4.627   3.815   0.819  0.0424  0.4044 -0.5840
  641SOL     OW 2329   2.231   2.677   3.347  0.1978 -0.2694  0.0272
  641SOL    HW2 2330   2.229   2.618   3.273  3.0648 -0.2484 -0.1941
  641SOL    HW3 2331   2.301   2.739   3.326  2.3854 -1.3130  3.3983
  641SOL    MW4 2332   2.240   2.678   3.335  0.8647 -0.4043  0.4427
  642SOL     OW 2333   0.623   1.349   3.955  0.5702 -0.4384 -0.2854
  642SOL    HW2 2334   0.620   1.254   3.959 -0.5074 -0.4100 -0.1545
  642SOL    HW3 2335   0.632   1.376   4.047 -1.3841 -0.3797 -0.0650
  642SOL    MW4 2336   0.624   1.340   3.968  0.1702 -0.4269 -0.2391
  643SOL     OW 2337   1.717   1.316   4.874 -0.2041 -0.7543 -0.4758
  643SOL    HW2 2338   1.650   1.247   4.878  0.0403 -0.9577  0.4186
  643SOL    HW3 2339   1.750   1.322   4.964 -1.4583  1.7499 -0.1016
  643SOL    MW4 2340   1.712   1.308   4.886 -0.3373 -0.4507 -0.3084
  644SOL     OW 2341   2.187   5.273   5.842  0.9192 -0.3328 -0.3461
  644SOL    HW2 2342   2.213   5.346   5.786 -2.7003  0.3754 -1.3463
  644SOL    HW3 2343   2.156   5.206   5.782 -0.1292 -0.8116  0.6789
  644SOL    MW4 2344   2.187   5.274   5.827  0.3034 -0.3026 -0.3428
  645SOL     OW 2345   4.354   2.198   4.055 -0.0143  0.4195 -0.1897
  645SOL    HW2 2346   4.371   2.115   4.011 -3.9208 -1.2855  1.0353
  645SOL    HW3 2347   4.432   2.214   4.108  1.1377 -2.1065 -0.9636
  645SOL    MW4 2348   4.366   2.190   4.056 -0.3777 -0.1388 -0.1302
  646SOL     OW 2349   0.215   4.528   6.138  0.4717 -0.5667  0.0643
  646SOL    HW2 2350   0.138   4.481   6.104  0.5190  0.5844 -1.7781
  646SOL    HW3 2351   0.288   4.467   6.123  0.4264 -0.2579 -1.6603
  646SOL    MW4 2352   0.215   4.513   6.131  0.4719 -0.3741 -0.4063
  647SOL     OW 2353   1.710   1.686   2.235 -0.0244 -0.3299  0.1304
  647SOL    HW2 2354   1.647   1.754   2.210 -0.9188 -0.0814  2.7317
  647SOL    HW3 2355   1.709   1.624   2.163 -2.7966  0.0048 -0.2004
  647SOL    MW4 2356   1.702   1.687   2.222 -0.5082 -0.2529  0.4300
  648SOL     OW 2357   5.736   3.230   3.046  0.5444 -0.3642 -0.2190
  648SOL    HW2 2358   5.681   3.303   3.072  1.5072  0.7548 -1.2017
  648SOL    HW3 2359   5.684   3.152   3.068 -0.5364  0.5919  0.7698
  648SOL    MW4 2360   5.722   3.229   3.052  0.5288 -0.0904 -0.2182
  649SOL     OW 2361   2.782   4.032   3.583 -0.1631  0.0366  0.5855
  649SOL    HW2 2362   2.785   3.941   3.553  1.4053  0.2893 -0.1289
  649SOL    HW3 2363   2.853   4.039   3.647 -0.1135  0.7996  0.4621
  649SOL    MW4 2364   2.792   4.021   3.587  0.0504  0.1706  0.4750
  650SOL     OW 2365   2.590   5.024   2.147 -0.5388  0.4247 -0.2432
  650SOL    HW2 2366   2.629   4.974   2.075  0.6309  0.8400  0.0798
  650SOL    HW3 2367   2.531   4.963   2.191  1.3803 -0.9008  0.5714
  650SOL    MW4 2368   2.587   5.010   2.143 -0.1313  0.3046 -0.0931
  651SOL     OW 2369   5.353   5.436   4.387  0.2119  0.2792  0.2402
  651SOL    HW2 2370   5.375   5.410   4.298 -0.3732  0.6347 -0.0151
  651SOL    HW3 2371   5.260   5.461   4.383 -0.6344 -2.2959  1.5276
  651SOL    MW4 2372   5.343   5.436   4.375  0.0230 -0.0137  0.3764
  652SOL     OW 2373   5.932   0.730   4.122 -0.3582 -0.5923 -0.0877
  652SOL    HW2 2374   6.000   0.733   4.189 -1.0522  0.4921  0.6048
  652SOL    HW3 2375   5.969   0.675   4.053  1.9864  1.4003 -0.5676
  652SOL    MW4 2376   5.946   0.723   4.122 -0.1404 -0.1863 -0.0596
  653SOL     OW 2377   2.268   5.143   5.287  0.1379 -0.0165  0.1175
  653SOL    HW2 2378   2.225   5.128   5.203 -1.9356  2.2062  0.6368
  653SOL    HW3 2379   2.361   5.152   5.266 -0.3726  0.9355 -2.0212
  653SOL    MW4 2380   2.274   5.143   5.273 -0.2030  0.4024 -0.0961
  654SOL     OW 2381   5.185   2.743   4.947  0.4597 -0.8761 -0.1018
  654SOL    HW2 2382   5.153   2.758   5.036 -0.0124  0.0855 -0.4128
  654SOL    HW3 2383   5.227   2.657   4.950 -0.4390 -1.2990  0.7998
  654SOL    MW4 2384   5.186   2.734   4.960  0.2788 -0.8050 -0.0239
  655SOL     OW 2385   6.304   3.130   4.474 -0.0401  0.0930 -0.0612
  655SOL    HW2 2386   6.340   3.210   4.436 -1.0846  0.8732  0.5506
  655SOL    HW3 2387   6.271   3.156   4.560  0.1870 -1.1397  0.4232
  655SOL    MW4 2388   6.304   3.144   4.480 -0.1480  0.0333  0.0834
  656SOL     OW 2389   1.705   5.550   6.163 -0.3074  0.5108 -0.4955
  656SOL    HW2 2390   1.768   5.612   6.198  0.3800 -1.4479  2.0034
  656SOL    HW3 2391   1.651   5.524   6.238 -1.6221 -0.7038 -1.7689
  656SOL    MW4 2392   1.706   5.554   6.178 -0.3902  0.0921 -0.3338
  657SOL     OW 2393   1.584   0.721   0.104  0.1617  0.2236 -0.1825
  657SOL    HW2 2394   1.560   0.666   0.029  0.6850 -1.4326  0.8290
  657SOL    HW3 2395   1.664   0.767   0.075  0.1122 -0.0588 -0.7900
  657SOL    MW4 2396   1.592   0.720   0.090  0.2242 -0.0322 -0.1292
  658SOL     OW 2397   4.798   3.381   0.237 -1.1263  0.3001 -0.3914
  658SOL    HW2 2398   4.733   3.329   0.189 -1.4296  1.3599 -1.1629
  658SOL    HW3 2399   4.762   3.470   0.237 -1.3871  0.2626  2.2657
  658SOL    MW4 2400   4.785   3.386   0.231 -1.2007  0.4350 -0.1426
  659SOL     OW 2401   0.791   0.527   4.317  0.0169  0.6514  0.3308
  659SOL    HW2 2402   0.836   0.483   4.389  0.0095 -0.8206 -0.5170
  659SOL    HW3 2403   0.698   0.508   4.332  0.0472  0.0173 -0.2644
  659SOL    MW4 2404   0.784   0.519   4.329  0.0199  0.3735  0.1404
  660SOL     OW 2405   5.665   4.395   4.879  0.3371  0.8176  0.1339
  660SOL    HW2 2406   5.664   4.306   4.915 -0.0069  1.6228  2.2693
  660SOL    HW3 2407   5.758   4.416   4.870  0.4936  1.0395  1.8705
  660SOL    MW4 2408   5.678   4.386   4.883  0.3124  0.9531  0.6448
  661SOL     OW 2409   1.610   2.975   4.758  0.2375 -0.1394  0.3437
  661SOL    HW2 2410   1.638   3.054   4.712 -0.4685 -0.4452 -0.6556
  661SOL    HW3 2411   1.515   2.980   4.757  0.2042 -0.6320  0.9329
  661SOL    MW4 2412   1.601   2.986   4.752  0.1399 -0.2448  0.2896
  662SOL     OW 2413   0.656   1.245   0.267  0.2378  0.1307 -0.5728
  662SOL    HW2 2414   0.707   1.244   0.348  0.8662 -0.3924 -0.9694
  662SOL    HW3 2415   0.720   1.262   0.198  0.4568 -3.3656 -1.4182
  662SOL    MW4 2416   0.671   1.247   0.269  0.3496 -0.3996 -0.7367
  663SOL     OW 2417   1.340   1.087   4.719 -0.1244  0.2645 -0.2585
  663SOL    HW2 2418   1.293   1.053   4.795  0.0160 -0.7934 -0.6346
  663SOL    HW3 2419   1.307   1.176   4.708 -0.3371  0.3407  0.8773
  663SOL    MW4 2420   1.330   1.094   4.727 -0.1340  0.1350 -0.1583
  664SOL     OW 2421   4.974   6.126   0.512  0.4317 -0.0361  0.4712
  664SOL    HW2 2422   4.925   6.203   0.539 -2.1254 -1.7040  0.9694
  664SOL    HW3 2423   5.032   6.157   0.442 -0.9098  2.2079  0.2659
  664SOL    MW4 2424   4.976   6.140   0.506 -0.0827  0.0399  0.5099
  665SOL     OW 2425   5.359   1.085   4.998  0.4256 -0.2539  0.4220
  665SOL    HW2 2426   5.333   1.074   4.907 -0.6594 -0.6085  0.7629
  665SOL    HW3 2427   5.389   1.176   5.004  0.2779 -0.1618 -0.2269
  665SOL    MW4 2428   5.360   1.096   4.987  0.2630 -0.2886  0.3814
  666SOL     OW 2429   1.028   2.629   4.819  0.6901 -0.2846  0.0494
  666SOL    HW2 2430   0.965   2.584   4.763  0.4815 -0.5521  0.4944
  666SOL    HW3 2431   0.996   2.719   4.824  0.1838 -0.4920  0.5099
  666SOL    MW4 2432   1.016   2.635   4.812  0.5958 -0.3472  0.1689
  667SOL     OW 2433   5.248   3.601   2.490  0.3847  0.2847  0.1105
  667SOL    HW2 2434   5.196   3.527   2.456 -0.8236  0.5864  1.2342
  667SOL    HW3 2435   5.328   3.560   2.523  1.7645 -0.0202 -3.1602
  667SOL    MW4 2436   5.252   3.586   2.490  0.4074  0.2843 -0.1728
  668SOL     OW 2437   0.003   1.834   3.794  0.0224  0.0581  0.3607
  668SOL    HW2 2438  -0.047   1.908   3.759  0.9611 -0.2201 -1.6716
  668SOL    HW3 2439   0.052   1.871   3.867  0.9115  1.6105 -0.9637
  668SOL    MW4 2440   0.003   1.849   3.799  0.2635  0.2262 -0.0822
  669SOL     OW 2441   6.343   2.666   4.475 -0.0070  0.2911 -0.7020
  669SOL    HW2 2442   6.421   2.663   4.532  0.0330  0.9140 -0.7089
  669SOL    HW3 2443   6.323   2.575   4.456  0.2863  0.0938 -0.0992
  669SOL    MW4 2444   6.351   2.654   4.480  0.0370  0.3473 -0.6234
  670SOL     OW 2445   0.709   1.044   3.493 -0.0271  0.6257 -0.2440
  670SOL    HW2 2446   0.732   1.133   3.518 -0.9741  0.2535  2.1909
  670SOL    HW3 2447   0.620   1.052   3.457 -0.0331  0.6888 -0.2156
  670SOL    MW4 2448   0.700   1.057   3.491 -0.1528  0.5849  0.0810
  671SOL     OW 2449   6.230   6.132   4.424 -0.0094 -0.4980  0.4574
  671SOL    HW2 2450   6.201   6.222   4.440 -0.5318 -0.5397 -0.2160
  671SOL    HW3 2451   6.161   6.093   4.371  0.0911 -1.3823  0.9447
  671SOL    MW4 2452   6.217   6.139   4.419 -0.0650 -0.6202  0.4329
  672SOL     OW 2453   3.361   0.686   3.514  0.5315 -0.2618  0.0740
  672SOL    HW2 2454   3.319   0.604   3.490 -2.5688  1.0814  0.4818
  672SOL    HW3 2455   3.376   0.730   3.430 -2.7026  0.9156  0.0020
  672SOL    MW4 2456   3.358   0.681   3.499 -0.3042  0.0708  0.1183
  673SOL     OW 2457   0.239   4.929   5.875  0.1288  0.0830  0.2517
  673SOL    HW2 2458   0.218   4.915   5.967  0.4668  0.1363  0.3370
  673SOL    HW3 2459   0.220   4.845   5.833 -1.1420  0.3912  0.1582
  673SOL    MW4 2460   0.233   4.916   5.882  0.0057  0.1307  0.2507
  674SOL     OW 2461   2.467   3.588   3.994 -0.0322  0.3588 -0.1350
  674SOL    HW2 2462   2.541   3.648   3.991  1.0217 -0.8590  0.2168
  674SOL    HW3 2463   2.465   3.548   3.907 -1.4091  1.6381 -0.7314
  674SOL    MW4 2464   2.477   3.590   3.982 -0.0748  0.3669 -0.1673
  675SOL     OW 2465   4.621   2.099   2.124 -0.7918  0.3654  0.9420
  675SOL    HW2 2466   4.597   2.027   2.184  0.6238 -0.2957  0.7431
  675SOL    HW3 2467   4.704   2.072   2.086 -1.1283  1.2814 -0.5294
  675SOL    MW4 2468   4.629   2.086   2.127 -0.6495  0.3991  0.7217
  676SOL     OW 2469   4.154   4.302   3.034  0.1081 -0.3116  0.4469
  676SOL    HW2 2470   4.128   4.227   2.980 -2.1125  0.1805  0.7328
  676SOL    HW3 2471   4.074   4.353   3.045  1.1762  1.2134  1.7012
  676SOL    MW4 2472   4.140   4.299   3.028 -0.0440 -0.0455  0.6501
  677SOL     OW 2473   0.370   1.089   3.640 -0.3638 -0.5867  0.1985
  677SOL    HW2 2474   0.454   1.049   3.665 -0.8033 -0.1999  2.5919
  677SOL    HW3 2475   0.378   1.180   3.668 -0.1015  0.6588 -3.4248
  677SOL    MW4 2476   0.382   1.096   3.647 -0.3872 -0.3713  0.0362
  678SOL     OW 2477   0.730   5.509   2.522  0.5543 -0.0752  0.1894
  678SOL    HW2 2478   0.806   5.484   2.574  1.8766 -2.1775 -2.5104
  678SOL    HW3 2479   0.764   5.573   2.460  0.5352 -1.9331 -1.8508
  678SOL    MW4 2480   0.744   5.514   2.521  0.7262 -0.5977 -0.4360
  679SOL     OW 2481   1.961   2.611   6.069 -0.3224 -0.4684  0.3046
  679SOL    HW2 2482   1.874   2.570   6.062  0.0531 -1.2047 -0.1469
  679SOL    HW3 2483   1.965   2.644   6.159 -0.6575 -1.3631  0.6510
  679SOL    MW4 2484   1.950   2.610   6.080 -0.3171 -0.6836  0.2907
  680SOL     OW 2485   1.303   5.452   4.833 -0.1035  0.0339 -0.1864
  680SOL    HW2 2486   1.264   5.368   4.807 -2.1335  0.5196  1.0344
  680SOL    HW3 2487   1.303   5.449   4.929  2.3489  0.3751 -0.1162
  680SOL    MW4 2488   1.298   5.440   4.842 -0.0478  0.1430 -0.0161
  681SOL     OW 2489   0.283   5.842   4.445 -0.4928 -0.5075  0.3057
  681SOL    HW2 2490   0.213   5.894   4.405  0.2670  1.1612  1.0355
  681SOL    HW3 2491   0.271   5.854   4.540 -0.8112 -2.4241  0.5603
  681SOL    MW4 2492   0.272   5.850   4.452 -0.4346 -0.5402  0.4356
  682SOL     OW 2493   3.273   3.859   2.193  0.2952  0.2128 -0.0321
  682SOL    HW2 2494   3.257   3.771   2.158 -2.8070  0.7244 -0.2182
  682SOL    HW3 2495   3.312   3.907   2.119 -1.6226 -0.0293 -1.2742
  682SOL    MW4 2496   3.276   3.854   2.178 -0.3672  0.2484 -0.2205
  683SOL     OW 2497   5.991   5.111   0.308  0.1104  0.0209 -0.1235
  683SOL    HW2 2498   6.028   5.157   0.384 -2.5905  2.8834 -0.3004
  683SOL    HW3 2499   6.040   5.143   0.233  0.1621  0.3325  0.0434
  683SOL    MW4 2500   6.002   5.121   0.308 -0.2391  0.4397 -0.1248
  684SOL     OW 2501   2.931   2.321   5.531 -0.4560 -0.1798 -0.3605
  684SOL    HW2 2502   2.947   2.386   5.599  0.2819  0.3880 -1.0558
  684SOL    HW3 2503   3.009   2.325   5.475 -1.0463 -0.6201 -1.2426
  684SOL    MW4 2504   2.944   2.330   5.532 -0.4365 -0.1630 -0.5686
  685SOL     OW 2505   2.526   1.643   4.241 -0.3937  0.7253  0.4147
  685SOL    HW2 2506   2.610   1.686   4.229 -1.0619  1.7488 -0.8730
  685SOL    HW3 2507   2.489   1.638   4.153 -1.1679 -0.7974  0.7937
  685SOL    MW4 2508   2.532   1.648   4.228 -0.5840  0.6595  0.2948
  686SOL     OW 2509   6.239   2.899   5.297  0.2429  0.1194  0.3799
  686SOL    HW2 2510   6.317   2.953   5.308 -1.0322  2.4728 -1.3530
  686SOL    HW3 2511   6.254   2.850   5.216  0.0705  0.2784  0.2522
  686SOL    MW4 2512   6.251   2.900   5.288  0.0519  0.4509  0.1344
  687SOL     OW 2513   4.823   5.921   2.075  0.3049 -0.4543 -0.5659
  687SOL    HW2 2514   4.825   5.889   1.985 -1.5022 -0.7219 -0.5623
  687SOL    HW3 2515   4.745   5.880   2.113  1.5790 -1.1582  1.4498
  687SOL    MW4 2516   4.813   5.911   2.068  0.2346 -0.5825 -0.2995
  688SOL     OW 2517   1.121   2.314   0.658 -0.1781  0.2954  0.4762
  688SOL    HW2 2518   1.030   2.317   0.627 -0.4568 -0.1845  1.2378
  688SOL    HW3 2519   1.115   2.326   0.752  0.0385 -4.5446  1.3880
  688SOL    MW4 2520   1.108   2.316   0.666 -0.1863 -0.4065  0.6969
  689SOL     OW 2521   5.178   3.866   5.938  0.7824 -0.1220  0.0530
  689SOL    HW2 2522   5.130   3.909   6.009  1.2909 -0.9409  0.9218
  689SOL    HW3 2523   5.125   3.789   5.917  1.8640 -1.2637  1.3072
  689SOL    MW4 2524   5.164   3.862   5.945  0.9922 -0.3807  0.3331
  690SOL     OW 2525   5.891   4.992   3.104 -0.0718 -0.4619 -0.2325
  690SOL    HW2 2526   5.859   4.936   3.033 -1.2729 -3.1936  2.2228
  690SOL    HW3 2527   5.980   4.962   3.119  0.0855 -0.0821 -0.4066
  690SOL    MW4 2528   5.898   4.980   3.097 -0.2095 -0.7722  0.0685
  691SOL     OW 2529   4.781   6.305   1.143  0.0421  0.3339 -0.1941
  691SOL    HW2 2530   4.772   6.247   1.217  0.6302 -0.2866 -0.5945
  691SOL    HW3 2531   4.728   6.382   1.165 -0.9450 -0.4587  0.2174
  691SOL    MW4 2532   4.773   6.308   1.155 -0.0105  0.1475 -0.1927
  692SOL     OW 2533   3.200   5.002   4.124  0.0917  0.3689 -0.1395
  692SOL    HW2 2534   3.222   5.088   4.087  1.9382  0.1295  0.2671
  692SOL    HW3 2535   3.141   5.022   4.197  1.0025  1.3977  0.3616
  692SOL    MW4 2536   3.195   5.016   4.129  0.4555  0.4731 -0.0197
  693SOL     OW 2537   0.877   0.195   4.465  0.3956 -0.2607 -0.4410
  693SOL    HW2 2538   0.933   0.126   4.429  0.1143 -0.6929 -0.0590
  693SOL    HW3 2539   0.791   0.178   4.427  0.3944  0.0797 -0.5996
  693SOL    MW4 2540   0.873   0.184   4.455  0.3583 -0.2729 -0.4115
  694SOL     OW 2541   0.163   3.397   5.235  0.5945 -0.4038 -0.3362
  694SOL    HW2 2542   0.114   3.357   5.163 -0.4797  1.1602 -0.5527
  694SOL    HW3 2543   0.227   3.332   5.261 -0.3636 -1.7989 -1.3459
  694SOL    MW4 2544   0.165   3.383   5.229  0.3264 -0.3815 -0.4980
  695SOL     OW 2545   4.326   4.640   5.690 -0.3677 -0.0856  0.0755
  695SOL    HW2 2546   4.284   4.701   5.751 -0.9383  0.8501 -1.2191
  695SOL    HW3 2547   4.253   4.597   5.646  0.0441 -0.6353 -0.0806
  695SOL    MW4 2548   4.311   4.642   5.692 -0.3887 -0.0347 -0.1159
  696SOL     OW 2549   1.925   3.797   2.123 -0.1135 -0.1766  0.5370
  696SOL    HW2 2550   1.961   3.713   2.153  2.5266 -0.4728 -2.7650
  696SOL    HW3 2551   1.856   3.772   2.060  1.2888 -0.0201 -1.1410
  696SOL    MW4 2552   1.920   3.782   2.118  0.4198 -0.1950 -0.1201
  697SOL     OW 2553   0.025   4.377   1.297  0.3652  0.0911 -0.0941
  697SOL    HW2 2554  -0.015   4.328   1.225 -0.0914 -0.0617  0.2629
  697SOL    HW3 2555   0.097   4.425   1.256  1.3961 -1.5665 -0.2998
  697SOL    MW4 2556   0.029   4.377   1.282  0.4410 -0.1478 -0.0741
  698SOL     OW 2557   0.510   0.537   1.293  0.2570 -0.5609 -0.1842
  698SOL    HW2 2558   0.599   0.562   1.315  0.6976 -0.0257 -2.3897
  698SOL    HW3 2559   0.519   0.472   1.224 -1.0529 -2.3765  1.2154
  698SOL    MW4 2560   0.523   0.532   1.287  0.1423 -0.7298 -0.2906
  699SOL     OW 2561   3.849   4.426   1.999  0.0056  0.1431  0.1679
  699SOL    HW2 2562   3.777   4.436   2.061 -2.5498 -0.6820 -2.4741
  699SOL    HW3 2563   3.903   4.356   2.036 -0.3050  0.9628  2.3430
  699SOL    MW4 2564   3.847   4.418   2.012 -0.3726  0.1424  0.1063
  700SOL     OW 2565   3.487   3.754   1.282  0.2699  0.3804  0.0244
  700SOL    HW2 2566   3.405   3.719   1.317 -1.1401  2.2230 -1.2305
  700SOL    HW3 2567   3.538   3.677   1.257 -0.7893 -0.8278  1.3838
  700SOL    MW4 2568   3.483   3.740   1.284 -0.0558  0.4641  0.0382
  701SOL     OW 2569   2.690   2.244   5.156  0.2224  0.4209 -0.4269
  701SOL    HW2 2570   2.608   2.293   5.148  0.7229  1.0632 -2.0086
  701SOL    HW3 2571   2.665   2.163   5.201 -1.3742  0.3996 -1.2880
  701SOL    MW4 2572   2.676   2.240   5.161  0.0778  0.5028 -0.7492
  702SOL     OW 2573   5.353   1.235   6.415  0.0981  0.1608  0.0219
  702SOL    HW2 2574   5.421   1.204   6.476 -0.2820 -0.8769 -0.0630
  702SOL    HW3 2575   5.336   1.159   6.358 -0.4889  0.7058 -0.5383
  702SOL    MW4 2576   5.360   1.221   6.415 -0.0295  0.0958 -0.0632
  703SOL     OW 2577   5.090   2.276   1.709  0.5755 -0.0380 -0.2054
  703SOL    HW2 2578   5.134   2.358   1.684  0.9883 -0.2936 -0.3181
  703SOL    HW3 2579   5.022   2.265   1.643  2.3049 -1.2458 -1.8965
  703SOL    MW4 2580   5.087   2.286   1.697  0.8581 -0.2311 -0.4434
  704SOL     OW 2581   5.875   5.793   4.911 -0.1976 -0.0884 -0.4794
  704SOL    HW2 2582   5.877   5.821   4.820  1.5326 -0.2543 -0.5322
  704SOL    HW3 2583   5.857   5.699   4.907  2.0002 -0.5465 -0.8299
  704SOL    MW4 2584   5.873   5.784   4.899  0.3207 -0.1707 -0.5326
  705SOL     OW 2585   4.167   4.741   5.902  0.3391  0.3873  0.1318
  705SOL    HW2 2586   4.213   4.755   5.985  0.0605 -0.0892  0.3701
  705SOL    HW3 2587   4.144   4.648   5.903 -0.1374  0.4992 -0.2381
  705SOL    MW4 2588   4.170   4.730   5.913  0.2395  0.3392  0.1144
  706SOL     OW 2589   5.040   2.383   0.700  0.2884  0.2111  0.0002
  706SOL    HW2 2590   5.130   2.365   0.726  0.5651  1.0500 -0.3499
  706SOL    HW3 2591   5.003   2.435   0.771  0.5638  1.1718 -0.5411
  706SOL    MW4 2592   5.047   2.387   0.713  0.3612  0.4485 -0.1174
  707SOL     OW 2593   1.228   3.071   1.683 -0.3573  0.6867 -0.2159
  707SOL    HW2 2594   1.314   3.112   1.672  0.1705 -0.5690 -1.0843
  707SOL    HW3 2595   1.221   3.055   1.777  0.0752  1.3823 -0.0572
  707SOL    MW4 2596   1.238   3.074   1.694 -0.2306  0.6128 -0.3096
  708SOL     OW 2597   5.494   0.043   5.313  0.1699 -0.6445 -0.3613
  708SOL    HW2 2598   5.425   0.109   5.303 -0.6873 -1.4185  0.2911
  708SOL    HW3 2599   5.575   0.093   5.310 -0.3628  0.2106 -1.9487
  708SOL    MW4 2600   5.495   0.058   5.311 -0.0135 -0.6338 -0.4847
  709SOL     OW 2601   4.380   0.541   2.616 -0.0230 -0.0964  0.2783
  709SOL    HW2 2602   4.407   0.531   2.707  1.2803  1.4759  0.1178
  709SOL    HW3 2603   4.389   0.635   2.599 -1.1921 -0.2141 -1.2000
  709SOL    MW4 2604   4.385   0.552   2.626 -0.0053  0.0955  0.0621
  710SOL     OW 2605   4.238   1.942   1.266 -0.1540 -0.4622 -0.1728
  710SOL    HW2 2606   4.270   2.026   1.299 -0.6526 -0.6251  0.7520
  710SOL    HW3 2607   4.277   1.934   1.179  2.7852 -0.8963  1.0709
  710SOL    MW4 2608   4.247   1.952   1.259  0.1680 -0.5410  0.1133
  711SOL     OW 2609   3.551   4.579   5.035 -0.1239 -0.5517 -0.4073
  711SOL    HW2 2610   3.459   4.603   5.048 -0.3813 -0.8421 -1.5816
  711SOL    HW3 2611   3.548   4.490   5.001  0.6632 -0.9917  0.6170
  711SOL    MW4 2612   3.538   4.570   5.033 -0.0540 -0.6481 -0.4271
  712SOL     OW 2613   4.809   4.448   4.074  0.1905 -0.7101  0.3705
  712SOL    HW2 2614   4.789   4.355   4.061  2.5444 -1.2106  0.0432
  712SOL    HW3 2615   4.752   4.493   4.012 -0.2065 -2.0001 -0.2473
  712SOL    MW4 2616   4.799   4.442   4.064  0.4487 -0.9463  0.2458
  713SOL     OW 2617   5.858   3.689   1.557 -0.2496  0.6885  0.2910
  713SOL    HW2 2618   5.904   3.751   1.613 -0.2202  0.4630  0.5199
  713SOL    HW3 2619   5.800   3.641   1.616  0.8898 -0.6131  0.4154
  713SOL    MW4 2620   5.856   3.691   1.572 -0.0954  0.4870  0.3376
  714SOL     OW 2621   0.425   4.678   3.783 -0.2599  0.6062 -0.1813
  714SOL    HW2 2622   0.492   4.618   3.815 -1.3980 -1.0766 -0.8745
  714SOL    HW3 2623   0.458   4.765   3.808  1.8267 -0.2032  0.0901
  714SOL    MW4 2624   0.438   4.682   3.791 -0.1347  0.2774 -0.2369
  715SOL     OW 2625   2.226   3.460   4.172 -0.0113 -0.2972 -0.0556
  715SOL    HW2 2626   2.312   3.465   4.215  0.0241  1.3557 -0.2809
  715SOL    HW3 2627   2.241   3.496   4.085 -0.7722 -0.7517 -0.3826
  715SOL    MW4 2628   2.240   3.465   4.167 -0.1070 -0.1391 -0.1284
  716SOL     OW 2629   6.306   0.161   4.947 -0.6119 -0.2859  0.4089
  716SOL    HW2 2630   6.372   0.178   5.014 -0.9469 -0.5211  0.8008
  716SOL    HW3 2631   6.231   0.127   4.995 -1.6854  1.6546  0.1926
  716SOL    MW4 2632   6.305   0.159   4.962 -0.7977 -0.0609  0.4321
  717SOL     OW 2633   6.418   1.143   1.816  0.2602  0.0901  0.3449
  717SOL    HW2 2634   6.499   1.169   1.773 -0.0707 -1.0011 -1.0340
  717SOL    HW3 2635   6.406   1.051   1.791 -0.1054 -0.5443  2.6026
  717SOL    MW4 2636   6.427   1.134   1.807  0.1683 -0.1376  0.4609
  718SOL     OW 2637   1.797   0.814   5.625  0.4562  0.7185  0.0273
  718SOL    HW2 2638   1.829   0.740   5.574 -1.6238 -0.8958  0.8917
  718SOL    HW3 2639   1.874   0.847   5.671  1.4015 -1.1394 -0.1250
  718SOL    MW4 2640   1.811   0.809   5.624  0.3065  0.2604  0.1213
  719SOL     OW 2641   1.326   1.847   1.556  0.0528 -0.2086  0.4301
  719SOL    HW2 2642   1.414   1.818   1.533  0.0542 -1.3705  1.7326
  719SOL    HW3 2643   1.334   1.941   1.569  0.5637  0.0899 -1.7051
  719SOL    MW4 2644   1.338   1.855   1.555  0.1204 -0.3225  0.3203
  720SOL     OW 2645   0.648   1.042   2.380 -0.0880  0.3929  0.2698
  720SOL    HW2 2646   0.674   1.026   2.471  1.9638 -0.4798 -0.4095
  720SOL    HW3 2647   0.713   0.995   2.328  0.4518  3.0989 -1.7355
  720SOL    MW4 2648   0.660   1.034   2.385  0.2540  0.6348 -0.0844
  721SOL     OW 2649   5.087   2.123   5.070 -0.1918  0.0875  0.4423
  721SOL    HW2 2650   5.125   2.115   5.158 -0.7348  1.6741  0.8676
  721SOL    HW3 2651   5.076   2.218   5.059  1.6214  0.0970 -2.1042
  721SOL    MW4 2652   5.091   2.135   5.080 -0.0242  0.2981  0.1624
  722SOL     OW 2653   0.171   0.402   0.230 -0.1085 -0.2227  0.0340
  722SOL    HW2 2654   0.082   0.390   0.263 -0.1687  1.6217  0.6594
  722SOL    HW3 2655   0.217   0.323   0.258 -0.7872  0.1367  2.4325
  722SOL    MW4 2656   0.165   0.390   0.238 -0.2060  0.0680  0.4329
  723SOL     OW 2657   0.773   2.242   1.819  0.4269 -0.3936 -1.0516
  723SOL    HW2 2658   0.857   2.287   1.825 -0.5013  1.4103 -1.0353
  723SOL    HW3 2659   0.716   2.287   1.882 -1.0082 -0.5169 -2.1969
  723SOL    MW4 2660   0.776   2.254   1.829  0.1151 -0.1719 -1.2006
  724SOL     OW 2661   4.791   4.631   0.823  0.3250 -0.2892  0.2253
  724SOL    HW2 2662   4.767   4.723   0.840  0.9611 -0.3110  1.3037
  724SOL    HW3 2663   4.886   4.630   0.829  0.3755 -0.8691 -0.6108
  724SOL    MW4 2664   4.800   4.643   0.826  0.4156 -0.3686  0.2573
  725SOL     OW 2665   2.857   6.192   3.967 -0.4294  0.1834  0.1304
  725SOL    HW2 2666   2.926   6.154   4.021 -1.1574 -0.9618  0.2671
  725SOL    HW3 2667   2.883   6.284   3.958  1.5907 -0.4087 -0.5793
  725SOL    MW4 2668   2.869   6.199   3.973 -0.2589 -0.0458  0.0548
  726SOL     OW 2669   3.806   1.122   5.854 -0.1679  0.6245  0.5262
  726SOL    HW2 2670   3.899   1.136   5.837  0.2316 -0.6994  1.4662
  726SOL    HW3 2671   3.771   1.090   5.771  0.7619 -1.2550  0.8196
  726SOL    MW4 2672   3.813   1.120   5.841  0.0075  0.2018  0.6889
  727SOL     OW 2673   5.117   4.368   1.764 -0.1498 -0.4097 -0.5071
  727SOL    HW2 2674   5.176   4.438   1.791 -0.3820 -1.2326  2.4538
  727SOL    HW3 2675   5.171   4.312   1.707  1.0214  0.4429 -0.2726
  727SOL    MW4 2676   5.132   4.370   1.760 -0.0259 -0.4058 -0.0855
  728SOL     OW 2677   4.272   3.740   2.182  0.4458  0.3949 -0.1615
  728SOL    HW2 2678   4.254   3.653   2.219  2.3095 -1.0434 -2.3593
  728SOL    HW3 2679   4.329   3.723   2.107 -0.5037  3.3920 -1.7280
  728SOL    MW4 2680   4.277   3.726   2.177  0.5664  0.6005 -0.6582
  729SOL     OW 2681   2.038   1.243   1.971  0.3252 -0.4695 -0.1892
  729SOL    HW2 2682   2.038   1.250   1.875  0.7061 -0.6750 -0.2022
  729SOL    HW3 2683   2.078   1.158   1.989  2.9255  0.7409  0.2383
  729SOL    MW4 2684   2.043   1.233   1.961  0.7185 -0.3369 -0.1345
  730SOL     OW 2685   4.413   4.084   2.187 -0.3111  0.0787  0.2804
  730SOL    HW2 2686   4.491   4.130   2.216 -0.1699 -0.3673  0.6276
  730SOL    HW3 2687   4.383   4.036   2.265 -0.5145 -0.3265 -0.0428
  730SOL    MW4 2688   4.419   4.084   2.201 -0.3193 -0.0336  0.2835
  731SOL     OW 2689   3.938   6.032   5.544  0.3899  0.1883 -0.4050
  731SOL    HW2 2690   3.976   5.959   5.496  1.9755  0.3341  0.5557
  731SOL    HW3 2691   3.980   6.029   5.630 -2.4071 -0.1505  1.1029
  731SOL    MW4 2692   3.948   6.022   5.549  0.2300  0.1628 -0.0793
  732SOL     OW 2693   2.614   2.951   0.122 -0.0095  0.0947 -0.0686
  732SOL    HW2 2694   2.669   2.903   0.183 -0.1194  1.2894  1.0162
  732SOL    HW3 2695   2.571   2.883   0.070  1.7695 -0.8863 -0.3329
  732SOL    MW4 2696   2.616   2.936   0.123  0.2107  0.1229  0.0396
  733SOL     OW 2697   5.474   0.686   2.778  0.2714 -0.2049 -0.0427
  733SOL    HW2 2698   5.406   0.751   2.764 -0.6698 -0.7669  1.5627
  733SOL    HW3 2699   5.426   0.605   2.797  1.4064 -1.0687 -0.7203
  733SOL    MW4 2700   5.458   0.684   2.779  0.2970 -0.3930  0.0797
  734SOL     OW 2701   2.218   4.228   4.771  0.3365 -0.3360  0.9911
  734SOL    HW2 2702   2.176   4.289   4.711  0.2641 -1.8985 -0.6344
  734SOL    HW3 2703   2.262   4.284   4.835 -0.0189  1.3976 -0.2061
  734SOL    MW4 2704   2.218   4.243   4.772  0.2800 -0.3134  0.6187
  735SOL     OW 2705   3.443   4.700   2.938 -0.4585  0.6031  0.1154
  735SOL    HW2 2706   3.397   4.780   2.910  0.2818  0.7663 -0.6831
  735SOL    HW3 2707   3.417   4.688   3.029  1.0970  2.9885  0.9681
  735SOL    MW4 2708   3.434   4.709   2.946 -0.1556  0.9394  0.1225
  736SOL     OW 2709   6.072   0.921   5.674  0.5454  0.3370  0.1809
  736SOL    HW2 2710   6.109   1.003   5.642  0.5793  0.4471  0.4984
  736SOL    HW3 2711   6.048   0.873   5.595 -0.4453  1.0937  0.0060
  736SOL    MW4 2712   6.074   0.925   5.660  0.4192  0.4513  0.1997
  737SOL     OW 2713   1.705   4.814   5.056  0.0635  0.0134  0.2589
  737SOL    HW2 2714   1.696   4.730   5.101 -0.0412 -1.0341 -1.5946
  737SOL    HW3 2715   1.730   4.875   5.125 -0.1720 -1.4558  1.7342
  737SOL    MW4 2716   1.707   4.811   5.071  0.0186 -0.3186  0.2090
  738SOL     OW 2717   1.571   4.842   1.931 -0.0538 -0.2295  0.6959
  738SOL    HW2 2718   1.539   4.917   1.881  0.9680  0.2603  0.7609
  738SOL    HW3 2719   1.525   4.767   1.894 -2.7381  0.6339  2.0423
  738SOL    MW4 2720   1.561   4.842   1.920 -0.2731 -0.0510  0.8821
  739SOL     OW 2721   4.094   3.122   1.870 -0.3095  0.2899  0.0140
  739SOL    HW2 2722   4.141   3.204   1.889 -2.7657  1.9947 -0.8116
  739SOL    HW3 2723   4.082   3.082   1.956  0.7797  0.8527  0.4562
  739SOL    MW4 2724   4.099   3.128   1.884 -0.4899  0.5891 -0.0366
  740SOL     OW 2725   2.765   3.607   5.949  0.0090 -0.0954 -0.0510
  740SOL    HW2 2726   2.798   3.602   5.860 -0.4372  0.4598 -0.2577
  740SOL    HW3 2727   2.670   3.597   5.940 -0.5556  3.7321 -0.1151
  740SOL    MW4 2728   2.757   3.605   5.936 -0.1244  0.4828 -0.0867
  741SOL     OW 2729   5.394   4.421   5.510 -0.0095  0.1908 -0.3464
  741SOL    HW2 2730   5.436   4.505   5.493  1.1063 -0.0395  1.0949
  741SOL    HW3 2731   5.323   4.442   5.571 -0.5276  0.2444 -0.9553
  741SOL    MW4 2732   5.390   4.434   5.516  0.0694  0.1675 -0.2366
  742SOL     OW 2733   1.401   0.845   2.335  0.3331 -0.6559 -0.4372
  742SOL    HW2 2734   1.371   0.785   2.403 -2.2594 -0.4872 -1.3177
  742SOL    HW3 2735   1.440   0.918   2.383  0.1242 -1.3277  0.8026
  742SOL    MW4 2736   1.402   0.847   2.351 -0.0365 -0.7223 -0.3898
  743SOL     OW 2737   1.553   2.376   0.259 -0.5593 -0.0928  0.2670
  743SOL    HW2 2738   1.499   2.351   0.333  0.4862 -0.3673  0.9624
  743SOL    HW3 2739   1.505   2.447   0.216 -1.0993  0.1806  1.2980
  743SOL    MW4 2740   1.540   2.382   0.263 -0.4926 -0.0930  0.4948
  744SOL     OW 2741   0.813   5.008   4.575  0.3534  0.4475  0.6795
  744SOL    HW2 2742   0.865   5.088   4.572  0.1227  0.5805 -0.5086
  744SOL    HW3 2743   0.868   4.945   4.623  0.2900  1.4641  2.1276
  744SOL    MW4 2744   0.827   5.010   4.581  0.3146  0.5992  0.7138
  745SOL     OW 2745   0.929   2.763   3.172 -0.1998  0.0627  0.0234
  745SOL    HW2 2746   1.019   2.793   3.162 -0.4113  0.6470 -0.1367
  745SOL    HW3 2747   0.936   2.667   3.175  0.3797  0.0892 -0.4011
  745SOL    MW4 2748   0.942   2.754   3.171 -0.1512  0.1433 -0.0538
  746SOL     OW 2749   5.541   5.751   4.721 -0.0534  0.2968 -0.6005
  746SOL    HW2 2750   5.540   5.846   4.709 -0.9250  0.4611  0.5718
  746SOL    HW3 2751   5.614   5.720   4.667  1.1511  1.7850  0.1031
  746SOL    MW4 2752   5.551   5.759   4.712 -0.0095  0.5149 -0.3530
  747SOL     OW 2753   3.965   3.062   5.115  0.3615  0.2642  0.6750
  747SOL    HW2 2754   3.958   2.974   5.151 -0.7903 -0.0072 -0.1705
  747SOL    HW3 2755   4.012   3.051   5.033  0.3757  0.4733  0.6548
  747SOL    MW4 2756   3.970   3.049   5.109  0.2114  0.2560  0.5608
  748SOL     OW 2757   3.812   6.013   1.976  0.3303 -0.3351  0.1652
  748SOL    HW2 2758   3.739   6.074   1.982 -0.7690 -1.6481  0.5823
  748SOL    HW3 2759   3.876   6.046   2.040 -0.4530  0.1040  0.7438
  748SOL    MW4 2760   3.811   6.025   1.986  0.0819 -0.4504  0.2966
  749SOL     OW 2761   4.980   0.252   5.074  0.2605 -0.3476 -0.0355
  749SOL    HW2 2762   4.933   0.213   5.148  0.1086 -0.6525 -0.2863
  749SOL    HW3 2763   5.040   0.315   5.113  1.0060 -1.3343  0.4507
  749SOL    MW4 2764   4.982   0.255   5.089  0.3388 -0.5180 -0.0044
  750SOL     OW 2765   0.974   0.561   4.923 -0.2103  0.2879 -0.6702
  750SOL    HW2 2766   1.035   0.504   4.970 -0.1356  1.4338  0.6854
  750SOL    HW3 2767   1.021   0.584   4.842  0.4479 -0.2017 -0.4329
  750SOL    MW4 2768   0.989   0.556   4.918 -0.1136  0.3745 -0.4600
  751SOL     OW 2769   3.107   4.135   2.569  0.3245  0.0250  0.2733
  751SOL    HW2 2770   3.079   4.226   2.572 -0.4957 -0.1547 -1.1849
  751SOL    HW3 2771   3.026   4.084   2.563  0.8048 -0.6377 -1.4905
  751SOL    MW4 2772   3.093   4.140   2.568  0.2797 -0.0862 -0.1518
  752SOL     OW 2773   1.320   2.675   1.788 -0.1189  0.0430  0.2643
  752SOL    HW2 2774   1.283   2.704   1.705 -0.8953  0.1525  0.6454
  752SOL    HW3 2775   1.411   2.654   1.767 -0.0918  0.8083 -0.4531
  752SOL    MW4 2776   1.327   2.676   1.775 -0.2178  0.1584  0.2199
  753SOL     OW 2777   5.231   4.104   4.038 -0.0356  0.4190  0.1430
  753SOL    HW2 2778   5.140   4.101   4.068 -0.4927 -2.0823 -1.1911
  753SOL    HW3 2779   5.224   4.109   3.943  1.2496  0.6677  0.0527
  753SOL    MW4 2780   5.218   4.104   4.030  0.0737  0.1218 -0.0449
  754SOL     OW 2781   2.628   2.183   0.719  0.1787 -0.1558 -0.0960
  754SOL    HW2 2782   2.608   2.114   0.656 -1.5631 -0.0637  0.3010
  754SOL    HW3 2783   2.591   2.262   0.681 -0.2927  0.0225  0.7055
  754SOL    MW4 2784   2.620   2.184   0.706 -0.1133 -0.1201  0.0621
  755SOL     OW 2785   2.351   2.180   0.891 -0.9308  0.1169  0.2910
  755SOL    HW2 2786   2.326   2.273   0.885 -1.3161  0.1772  2.1947
  755SOL    HW3 2787   2.360   2.164   0.985 -2.0838 -2.1067  0.0734
  755SOL    MW4 2788   2.349   2.190   0.903 -1.1337 -0.1686  0.5135
  756SOL     OW 2789   0.105   2.291   0.833 -0.2259 -0.8178 -0.2644
  756SOL    HW2 2790   0.138   2.379   0.814  0.4755 -1.5782 -3.0849
  756SOL    HW3 2791   0.182   2.234   0.822 -1.0701 -1.9661 -0.3916
  756SOL    MW4 2792   0.120   2.295   0.829 -0.2447 -1.0696 -0.6533
  757SOL     OW 2793   3.837   4.610   5.275 -0.0498 -0.8291  0.0940
  757SOL    HW2 2794   3.749   4.573   5.280 -0.0586 -0.6268  2.7844
  757SOL    HW3 2795   3.859   4.632   5.366  3.8271 -3.2806 -0.0157
  757SOL    MW4 2796   3.828   4.608   5.288  0.4606 -1.1258  0.4345
  758SOL     OW 2797   4.318   2.529   3.002 -0.0660 -0.7700 -0.1351
  758SOL    HW2 2798   4.336   2.557   2.913  0.4809 -0.5016  0.0542
  758SOL    HW3 2799   4.321   2.610   3.054  1.3328 -1.1297  0.3835
  758SOL    MW4 2800   4.320   2.543   2.997  0.1907 -0.7820 -0.0417
  759SOL     OW 2801   0.638   2.642   3.264 -0.4477 -0.0513 -0.0166
  759SOL    HW2 2802   0.675   2.646   3.353  0.8056  1.0139 -0.5443
  759SOL    HW3 2803   0.656   2.553   3.234  1.3024  0.2746 -0.0602
  759SOL    MW4 2804   0.645   2.631   3.272 -0.0514  0.1322 -0.0920
  760SOL     OW 2805   5.849   2.425   1.357 -0.7102  0.0477 -0.8717
  760SOL    HW2 2806   5.819   2.352   1.304  0.7045 -1.8618  0.8196
  760SOL    HW3 2807   5.942   2.432   1.339  0.4184 -2.2937  2.9297
  760SOL    MW4 2808   5.857   2.417   1.348 -0.3747 -0.5132 -0.1470
  761SOL     OW 2809   5.445   4.308   6.323  0.2339 -0.6557  0.0878
  761SOL    HW2 2810   5.505   4.324   6.397 -0.7564  0.9910  0.5911
  761SOL    HW3 2811   5.372   4.259   6.362  0.0516 -0.4159  0.0496
  761SOL    MW4 2812   5.444   4.304   6.338  0.0792 -0.4068  0.1492
  762SOL     OW 2813   0.134   1.288   1.053  0.4820 -0.2526 -0.2032
  762SOL    HW2 2814   0.141   1.346   0.977 -0.6722  2.5601  1.6557
  762SOL    HW3 2815   0.222   1.289   1.091 -0.0122  2.2755  1.0550
  762SOL    MW4 2816   0.147   1.296   1.048  0.2645  0.4520  0.2080
  763SOL     OW 2817   5.529   4.706   2.514  0.3101 -0.0483  0.5437
  763SOL    HW2 2818   5.452   4.652   2.534 -1.5867  2.1672 -0.2880
  763SOL    HW3 2819   5.565   4.667   2.434 -0.6296 -0.4770  0.3051
  763SOL    MW4 2820   5.523   4.694   2.506 -0.0641  0.1874  0.4025
  764SOL     OW 2821   3.583   4.489   5.304  0.1408  0.4412 -0.4947
  764SOL    HW2 2822   3.568   4.539   5.223  2.3849  0.8189 -0.7281
  764SOL    HW3 2823   3.564   4.551   5.374 -1.2719  0.2771 -0.6957
  764SOL    MW4 2824   3.578   4.504   5.303  0.2505  0.4694 -0.5520
  765SOL     OW 2825   5.770   2.727   3.315 -0.3927 -0.2529  0.7290
  765SOL    HW2 2826   5.701   2.668   3.287  1.0865 -1.6235 -0.2233
  765SOL    HW3 2827   5.793   2.698   3.403  0.4815 -1.3384  0.1834
  765SOL    MW4 2828   5.764   2.716   3.323 -0.0822 -0.5769  0.5314
  766SOL     OW 2829   3.776   1.346   4.673  0.8624 -0.0719 -0.5853
  766SOL    HW2 2830   3.692   1.392   4.671  0.2652 -1.0935  0.2025
  766SOL    HW3 2831   3.775   1.298   4.756  1.4227 -1.5906 -1.4268
  766SOL    MW4 2832   3.765   1.346   4.684  0.8575 -0.4071 -0.5924
  767SOL     OW 2833   1.081   5.864   0.893 -0.6575  0.1704  0.1615
  767SOL    HW2 2834   1.024   5.894   0.822  0.8256  1.5003 -0.5270
  767SOL    HW3 2835   1.119   5.944   0.929 -1.4501 -0.4593  2.5896
  767SOL    MW4 2836   1.078   5.879   0.888 -0.5664  0.2628  0.3910
  768SOL     OW 2837   0.526   4.889   0.202  0.5391 -0.0366  0.0062
  768SOL    HW2 2838   0.597   4.929   0.152  0.8258 -0.2628  0.2275
  768SOL    HW3 2839   0.570   4.832   0.265  0.2181  0.6216  0.8518
  768SOL    MW4 2840   0.541   4.887   0.204  0.5346  0.0204  0.1470
  769SOL     OW 2841   1.064   0.811   2.089  0.4637  0.1063  0.3717
  769SOL    HW2 2842   1.117   0.869   2.143 -0.3966  0.7969  0.4875
  769SOL    HW3 2843   0.985   0.861   2.069  0.0927 -0.7000 -0.2612
  769SOL    MW4 2844   1.061   0.825   2.093  0.3012  0.0910  0.3035
  770SOL     OW 2845   5.899   4.909   4.425  0.0526 -0.1403  0.2566
  770SOL    HW2 2846   5.825   4.913   4.485  1.1911  0.6841  1.6671
  770SOL    HW3 2847   5.912   4.815   4.409 -1.1745 -0.2972  0.1091
  770SOL    MW4 2848   5.891   4.897   4.431  0.0409 -0.0522  0.4232
  771SOL     OW 2849   5.987   5.504   6.049 -0.0300 -0.7383  0.2202
  771SOL    HW2 2850   6.072   5.463   6.068 -0.8538 -3.2507 -1.0851
  771SOL    HW3 2851   5.999   5.545   5.964  0.0159 -0.7105  0.2401
  771SOL    MW4 2852   6.000   5.504   6.040 -0.1327 -1.0661  0.0506
  772SOL     OW 2853   1.511   4.491   5.936  0.2858  0.7749  0.4728
  772SOL    HW2 2854   1.604   4.511   5.919  0.6765 -0.9199  0.4409
  772SOL    HW3 2855   1.501   4.400   5.909 -1.6390  1.2041 -0.4297
  772SOL    MW4 2856   1.522   4.481   5.930  0.0834  0.6079  0.3495
  773SOL     OW 2857   2.624   5.150   3.566 -0.1289  0.5092  0.1293
  773SOL    HW2 2858   2.581   5.067   3.590 -0.9931  0.6306 -0.9376
  773SOL    HW3 2859   2.706   5.123   3.525 -0.5580  0.1658 -0.5114
  773SOL    MW4 2860   2.629   5.135   3.564 -0.2995  0.4799 -0.0960
  774SOL     OW 2861   1.739   3.132   5.096 -0.4334  0.2327 -0.2565
  774SOL    HW2 2862   1.686   3.201   5.057 -1.2435  0.4698  1.1875
  774SOL    HW3 2863   1.799   3.105   5.026 -0.5969  1.8677 -1.0636
  774SOL    MW4 2864   1.740   3.137   5.081 -0.5618  0.4797 -0.1724
  775SOL     OW 2865   3.960   6.307   3.496  0.0385 -0.2989 -0.2605
  775SOL    HW2 2866   3.918   6.376   3.443  1.1208  1.5203  1.1326
  775SOL    HW3 2867   3.901   6.232   3.487 -1.4684  0.9341 -1.4694
  775SOL    MW4 2868   3.947   6.306   3.488 -0.0175  0.1038 -0.2362
  776SOL     OW 2869   0.641   4.049   5.709 -0.2599 -0.2810 -0.1020
  776SOL    HW2 2870   0.559   4.080   5.672  0.1710 -1.2316 -1.9460
  776SOL    HW3 2871   0.624   3.957   5.733  0.0570 -0.2591  0.2242
  776SOL    MW4 2872   0.628   4.041   5.707 -0.1612 -0.4036 -0.3023
  777SOL     OW 2873   5.116   5.250   3.604 -0.2729 -0.6990 -0.4517
  777SOL    HW2 2874   5.158   5.313   3.662 -1.6471 -0.6348  0.5239
  777SOL    HW3 2875   5.174   5.245   3.528 -0.6829  2.6863 -1.1485
  777SOL    MW4 2876   5.129   5.257   3.602 -0.5083 -0.2439 -0.4149
  778SOL     OW 2877   0.467   0.186   2.680  0.5701 -0.3084 -0.2150
  778SOL    HW2 2878   0.406   0.159   2.612 -0.1572  0.3808  0.1482
  778SOL    HW3 2879   0.552   0.154   2.650  0.3002  0.1502 -1.5276
  778SOL    MW4 2880   0.470   0.178   2.667  0.4386 -0.1570 -0.3403
  779SOL     OW 2881   4.679   2.565   6.348  0.3046 -0.3644 -0.1737
  779SOL    HW2 2882   4.657   2.479   6.385  0.5128 -0.1227  0.5342
  779SOL    HW3 2883   4.712   2.615   6.423 -2.4982  1.2898  0.0662
  779SOL    MW4 2884   4.681   2.560   6.363 -0.0378 -0.1143 -0.0486
  780SOL     OW 2885   4.063   5.514   1.756 -1.0386  0.4537 -0.0371
  780SOL    HW2 2886   4.052   5.601   1.720  0.4586  0.6769 -0.0231
  780SOL    HW3 2887   4.052   5.525   1.851  0.4334  0.8996  0.1071
  780SOL    MW4 2888   4.060   5.527   1.764 -0.6469  0.5420 -0.0162
  781SOL     OW 2889   1.082   1.947   3.987 -0.4019  0.4232 -0.1660
  781SOL    HW2 2890   1.108   1.855   3.982 -1.6579  0.0593 -0.3142
  781SOL    HW3 2891   1.160   1.996   3.959 -0.5104 -0.6896 -2.6085
  781SOL    MW4 2892   1.096   1.942   3.983 -0.5819  0.2284 -0.5078
  782SOL     OW 2893   5.655   4.314   0.088 -0.3270  0.4495 -0.2226
  782SOL    HW2 2894   5.736   4.364   0.078  0.0667  0.1345  1.1908
  782SOL    HW3 2895   5.674   4.228   0.051  0.1420  0.2321  0.5096
  782SOL    MW4 2896   5.668   4.310   0.081 -0.2132  0.3793  0.0605
  783SOL     OW 2897   4.542   4.142   3.544  0.3420 -0.2499  0.1419
  783SOL    HW2 2898   4.586   4.200   3.606  1.0225 -0.4231 -0.1702
  783SOL    HW3 2899   4.514   4.200   3.473 -0.4834 -0.0433  0.6272
  783SOL    MW4 2900   4.544   4.157   3.543  0.3229 -0.2455  0.1647
  784SOL     OW 2901   5.243   5.089   5.506  0.1239  0.3187 -0.5194
  784SOL    HW2 2902   5.294   5.048   5.576 -1.3330  0.3043  0.5882
  784SOL    HW3 2903   5.223   5.017   5.445 -2.2861 -0.7438  1.3328
  784SOL    MW4 2904   5.247   5.074   5.507 -0.3863  0.1766 -0.1289
  785SOL     OW 2905   2.903   2.611   6.433 -0.1333  0.6428  0.4388
  785SOL    HW2 2906   2.985   2.570   6.406 -0.9530 -0.3058 -0.6509
  785SOL    HW3 2907   2.835   2.549   6.409 -1.0834  0.4435  3.2448
  785SOL    MW4 2908   2.905   2.598   6.426 -0.3668  0.4913  0.6653
  786SOL     OW 2909   0.069   1.651   1.989  0.3109  0.1631 -0.1779
  786SOL    HW2 2910   0.056   1.612   1.903 -0.0605 -1.3042  0.5125
  786SOL    HW3 2911   0.164   1.657   1.999  0.4339 -1.8250  0.2061
  786SOL    MW4 2912   0.080   1.647   1.979  0.2782 -0.2928 -0.0362
  787SOL     OW 2913   1.932   5.196   0.867 -0.4922  0.1850  0.0005
  787SOL    HW2 2914   1.961   5.256   0.799 -1.0619  1.1189  0.5701
  787SOL    HW3 2915   1.883   5.250   0.929 -1.4123 -0.9300  0.2927
  787SOL    MW4 2916   1.929   5.211   0.866 -0.6888  0.1611  0.1142
  788SOL     OW 2917   3.053   5.785   4.397  0.9790 -0.0374 -0.2135
  788SOL    HW2 2918   3.120   5.853   4.395  0.3600  0.7863  2.6830
  788SOL    HW3 2919   2.976   5.824   4.357  1.4924 -0.1422 -1.3346
  788SOL    MW4 2920   3.052   5.799   4.392  0.9651  0.0574  0.0207
  789SOL     OW 2921   1.568   5.452   6.368  0.0608  0.0976  0.5231
  789SOL    HW2 2922   1.596   5.361   6.368  1.1740  0.3925 -1.3932
  789SOL    HW3 2923   1.624   5.495   6.432  1.7397  0.0070 -0.8213
  789SOL    MW4 2924   1.579   5.446   6.376  0.4292  0.1246  0.0929
  790SOL     OW 2925   6.278   6.428   5.714 -0.0818  0.0589 -0.5162
  790SOL    HW2 2926   6.329   6.507   5.699 -0.4667  0.1912 -1.1627
  790SOL    HW3 2927   6.189   6.459   5.729 -0.2512 -0.2510 -0.8486
  790SOL    MW4 2928   6.273   6.442   5.714 -0.1549  0.0355 -0.6453
  791SOL     OW 2929   2.859   2.827   1.174  0.1852  0.6914 -0.0699
  791SOL    HW2 2930   2.832   2.917   1.195  0.3480  0.4754  1.1300
  791SOL    HW3 2931   2.935   2.811   1.230 -1.7600 -1.2906  2.1747
  791SOL    MW4 2932   2.865   2.837   1.184 -0.0500  0.4014  0.3845
  792SOL     OW 2933   2.942   3.550   3.173  0.3497  0.3968  0.1241
  792SOL    HW2 2934   3.021   3.590   3.209  0.4450  1.0448 -0.7832
  792SOL    HW3 2935   2.900   3.508   3.249  0.9764  1.0044  0.8228
  792SOL    MW4 2936   2.947   3.549   3.188  0.4449  0.5625  0.0966
  793SOL     OW 2937   0.519   6.298   2.472  0.1949  0.6516 -0.0807
  793SOL    HW2 2938   0.514   6.209   2.508  3.2226  0.4173  0.0841
  793SOL    HW3 2939   0.428   6.324   2.458 -0.7974 -2.4469 -0.1313
  793SOL    MW4 2940   0.507   6.290   2.475  0.4634  0.2119 -0.0656
  794SOL     OW 2941   4.384   3.043   5.035  0.2732 -0.6242 -0.2352
  794SOL    HW2 2942   4.327   2.966   5.024 -0.6630  0.1084 -0.6639
  794SOL    HW3 2943   4.459   3.010   5.085  0.5947 -2.1510 -1.6314
  794SOL    MW4 2944   4.386   3.028   5.040  0.1921 -0.7290 -0.4760
  795SOL     OW 2945   3.355   0.527   2.116  0.0476  0.9391  0.2020
  795SOL    HW2 2946   3.394   0.552   2.033 -1.1580 -1.8746 -1.3436
  795SOL    HW3 2947   3.275   0.579   2.122 -0.5548  0.1934 -1.1139
  795SOL    MW4 2948   3.349   0.537   2.106 -0.1909  0.4695 -0.1755
  796SOL     OW 2949   4.340   5.005   5.703 -0.3163  0.0207 -0.0793
  796SOL    HW2 2950   4.376   5.088   5.672 -0.6317  0.8385  1.5876
  796SOL    HW3 2951   4.411   4.943   5.694 -0.3455  0.2396 -2.1739
  796SOL    MW4 2952   4.354   5.008   5.698 -0.3618  0.1574 -0.1357
  797SOL     OW 2953   2.340   4.386   3.178 -0.3160  0.3937  0.1446
  797SOL    HW2 2954   2.386   4.340   3.108  0.7230  0.4320  0.7873
  797SOL    HW3 2955   2.394   4.463   3.196 -0.3730  0.1920  1.2395
  797SOL    MW4 2956   2.353   4.390   3.171 -0.1864  0.3721  0.3738
  798SOL     OW 2957   2.948   4.935   2.133  0.3370  0.4114  0.6274
  798SOL    HW2 2958   2.937   4.868   2.201 -0.0113  0.4981  0.6588
  798SOL    HW3 2959   2.861   4.943   2.094  0.8641 -0.7491 -0.8736
  798SOL    MW4 2960   2.935   4.927   2.137  0.3606  0.2697  0.4335
  799SOL     OW 2961   2.861   0.459   6.233 -0.0059  0.1529  0.1538
  799SOL    HW2 2962   2.937   0.424   6.186 -0.1194  1.7435 -1.3711
  799SOL    HW3 2963   2.863   0.553   6.212 -3.6923 -0.0788 -1.9613
  799SOL    MW4 2964   2.872   0.467   6.224 -0.5073  0.3322 -0.3264
  800SOL     OW 2965   0.435   2.907   3.808  0.4045 -0.3046 -0.3018
  800SOL    HW2 2966   0.446   2.865   3.723 -0.5580 -1.2172  0.0095
  800SOL    HW3 2967   0.452   2.838   3.872  2.8727  0.7663  0.3335
  800SOL    MW4 2968   0.439   2.892   3.805  0.6032 -0.2837 -0.1769
  801SOL     OW 2969   3.450   3.078   1.983  0.6374  0.1723 -0.3379
  801SOL    HW2 2970   3.537   3.106   1.956  0.5762 -0.3571 -1.1176
  801SOL    HW3 2971   3.402   3.160   1.998  0.6146  0.5298 -2.0793
  801SOL    MW4 2972   3.455   3.093   1.981  0.6263  0.1496 -0.6705
  802SOL     OW 2973   2.446   4.201   5.801  0.3693 -0.3230 -0.0794
  802SOL    HW2 2974   2.404   4.178   5.718 -0.5254  1.5280 -0.1828
  802SOL    HW3 2975   2.377   4.192   5.866  0.7421 -0.5909  0.2839
  802SOL    MW4 2976   2.431   4.197   5.799  0.3004 -0.1141 -0.0451
  803SOL     OW 2977   2.570   3.654   0.863 -0.2556  0.2985 -0.3652
  803SOL    HW2 2978   2.517   3.583   0.827 -0.9435 -0.0499  1.2118
  803SOL    HW3 2979   2.544   3.732   0.814 -0.0137 -0.3978 -1.6359
  803SOL    MW4 2980   2.559   3.655   0.852 -0.3144  0.1606 -0.3248
  804SOL     OW 2981   5.532   6.274   0.498 -0.7061  0.5156 -0.4393
  804SOL    HW2 2982   5.461   6.333   0.472 -1.8820 -0.9593 -0.6992
  804SOL    HW3 2983   5.585   6.263   0.419 -0.5255  1.1458 -0.4089
  804SOL    MW4 2984   5.530   6.280   0.484 -0.8374  0.4041 -0.4696
  805SOL     OW 2985   5.742   2.299   2.117  0.7038 -0.0928  0.3183
  805SOL    HW2 2986   5.835   2.300   2.138  0.5717 -0.3062  0.9379
  805SOL    HW3 2987   5.730   2.374   2.058  1.5246 -0.9314 -0.9727
  805SOL    MW4 2988   5.753   2.309   2.112  0.7947 -0.2316  0.2297
  806SOL     OW 2989   2.803   5.401   1.769  0.3511  0.3340 -0.1529
  806SOL    HW2 2990   2.782   5.492   1.748  0.1139 -0.2244 -2.7236
  806SOL    HW3 2991   2.843   5.405   1.856 -1.2958  2.6408  0.6101
  806SOL    MW4 2992   2.806   5.414   1.778  0.1025  0.5647 -0.3914
  807SOL     OW 2993   1.385   1.814   1.949 -0.3395 -0.0053 -0.1535
  807SOL    HW2 2994   1.454   1.771   1.898 -0.0098 -0.4235  0.6368
  807SOL    HW3 2995   1.346   1.744   2.001 -1.7165  0.1253 -0.9487
  807SOL    MW4 2996   1.389   1.799   1.949 -0.4776 -0.0432 -0.1541
  808SOL     OW 2997   3.345   1.325   0.791 -0.0028  0.2698  0.3960
  808SOL    HW2 2998   3.322   1.251   0.735 -0.9136  0.4624  0.4885
  808SOL    HW3 2999   3.353   1.287   0.879  1.1824  0.0104  0.1911
  808SOL    MW4 3000   3.343   1.310   0.795  0.0334  0.2610  0.3812
  809SOL     OW 3001   0.320   6.393   1.703  0.1990  0.3658 -0.1370
  809SOL    HW2 3002   0.413   6.380   1.721 -0.4980 -1.7874  2.7108
  809SOL    HW3 3003   0.286   6.437   1.781 -1.4898 -0.9266 -0.0641
  809SOL    MW4 3004   0.328   6.397   1.716 -0.1158 -0.0888  0.2484
  810SOL     OW 3005   1.618   5.728   1.853 -0.3517 -0.3925  0.2904
  810SOL    HW2 3006   1.530   5.758   1.832 -0.1333  1.1175  1.3614
  810SOL    HW3 3007   1.641   5.775   1.933  1.7545 -0.0573 -0.4386
  810SOL    MW4 3008   1.610   5.738   1.860 -0.0450 -0.1490  0.3355
  811SOL     OW 3009   6.277   6.088   5.086 -0.7018  0.1526 -0.5860
  811SOL    HW2 3010   6.295   6.137   5.006  0.3898 -2.3474 -1.9916
  811SOL    HW3 3011   6.363   6.077   5.127 -1.0216 -0.0249  0.0452
  811SOL    MW4 3012   6.291   6.093   5.081 -0.6000 -0.2006 -0.6881
  812SOL     OW 3013   1.897   4.155   3.922 -0.3506 -0.5678  0.3351
  812SOL    HW2 3014   1.881   4.079   3.978  0.6396 -1.3326 -0.3854
  812SOL    HW3 3015   1.992   4.165   3.922 -0.4963  1.0125  0.8414
  812SOL    MW4 3016   1.907   4.146   3.929 -0.2392 -0.4602  0.3068
  813SOL     OW 3017   0.764   6.079   3.565  0.0790  0.3214 -0.6672
  813SOL    HW2 3018   0.717   5.996   3.570  1.3520 -0.3438  1.6797
  813SOL    HW3 3019   0.843   6.066   3.617  1.0605  2.5538 -1.4622
  813SOL    MW4 3020   0.768   6.067   3.573  0.3764  0.5281 -0.4624
  814SOL     OW 3021   1.043   3.916   2.960 -0.4454  0.2612  0.6392
  814SOL    HW2 3022   1.047   3.983   3.029  0.4334 -0.3889  1.2369
  814SOL    HW3 3023   0.983   3.952   2.895 -1.4421  0.8232  1.8295
  814SOL    MW4 3024   1.035   3.930   2.961 -0.4610  0.2496  0.8751
  815SOL     OW 3025   2.002   0.910   3.924 -0.1309  0.0681 -0.3529
  815SOL    HW2 3026   1.957   0.933   4.006  1.7556 -0.9079  1.0358
  815SOL    HW3 3027   2.056   0.987   3.904 -0.4902  0.2543 -0.6138
  815SOL    MW4 3028   2.003   0.923   3.932  0.0706 -0.0361 -0.2041
  816SOL     OW 3029   6.302   0.752   0.989 -0.1719 -0.2891  0.1058
  816SOL    HW2 3030   6.252   0.721   1.065 -1.8610  1.0042 -0.4303
  816SOL    HW3 3031   6.245   0.815   0.946  1.2366 -0.0818 -1.5806
  816SOL    MW4 3032   6.288   0.756   0.994 -0.2089 -0.0911 -0.1874
  817SOL     OW 3033   5.139   1.051   5.162  0.1566 -0.3946 -0.2966
  817SOL    HW2 3034   5.127   1.144   5.181 -0.3518 -0.3677 -0.7406
  817SOL    HW3 3035   5.199   1.049   5.088 -1.6436 -0.3215 -1.8151
  817SOL    MW4 3036   5.146   1.063   5.155 -0.1480 -0.3814 -0.5555
  818SOL     OW 3037   5.324   0.061   0.544 -0.1221  0.2457 -0.2514
  818SOL    HW2 3038   5.232   0.034   0.543 -0.8018  2.3739 -0.0699
  818SOL    HW3 3039   5.322   0.151   0.512  1.5676  1.2687  2.2379
  818SOL    MW4 3040   5.311   0.070   0.539  0.0112  0.6614  0.1009
  819SOL     OW 3041   2.728   0.274   3.842 -0.5286 -0.0526  0.0002
  819SOL    HW2 3042   2.650   0.263   3.897 -2.1503  0.3382 -2.1234
  819SOL    HW3 3043   2.713   0.218   3.766  2.1660 -1.4350  0.3327
  819SOL    MW4 3044   2.716   0.265   3.839 -0.3871 -0.1834 -0.2361
  820SOL     OW 3045   6.181   4.354   3.847 -0.2363  0.0166  0.8318
  820SOL    HW2 3046   6.219   4.307   3.921 -1.2799  1.1725  2.1686
  820SOL    HW3 3047   6.097   4.388   3.880 -1.2545 -0.3122 -1.2167
  820SOL    MW4 3048   6.175   4.352   3.861 -0.5083  0.1257  0.7379
  821SOL     OW 3049   4.846   3.588   5.378 -0.3329  0.2321 -0.4331
  821SOL    HW2 3050   4.831   3.637   5.297  0.2769 -1.0483 -1.3537
  821SOL    HW3 3051   4.849   3.496   5.350 -0.7466 -0.2837  1.1389
  821SOL    MW4 3052   4.844   3.582   5.363 -0.3070 -0.0049 -0.3472
  822SOL     OW 3053   6.155   0.354   1.017 -0.3128 -0.1445  0.4163
  822SOL    HW2 3054   6.212   0.424   1.049 -0.3804  1.6578 -2.9866
  822SOL    HW3 3055   6.068   0.378   1.050  0.1957 -0.8480  2.4566
  822SOL    MW4 3056   6.151   0.366   1.026 -0.2546  0.0005  0.2365
  823SOL     OW 3057   4.982   1.139   4.735 -0.3276  0.3696 -0.1995
  823SOL    HW2 3058   5.070   1.114   4.764  0.3446  1.8840 -0.8472
  823SOL    HW3 3059   4.991   1.149   4.640 -1.2699  0.3107 -0.2983
  823SOL    MW4 3060   4.995   1.137   4.726 -0.3632  0.5617 -0.2980
  824SOL     OW 3061   0.839   2.958   4.044 -0.7795 -0.1874  0.7552
  824SOL    HW2 3062   0.903   2.894   4.075  1.9676  2.9237  2.0942
  824SOL    HW3 3063   0.838   2.946   3.949  1.3007 -0.8385  0.7580
  824SOL    MW4 3064   0.848   2.948   4.035 -0.1426  0.1372  0.9322
  825SOL     OW 3065   3.177   2.028   4.437  0.6402  0.0238 -0.0944
  825SOL    HW2 3066   3.150   2.049   4.527  2.2452 -2.4877  1.0813
  825SOL    HW3 3067   3.205   2.112   4.401  0.8734  0.9616  2.0874
  825SOL    MW4 3068   3.177   2.042   4.444  0.8827 -0.1839  0.3486
  826SOL     OW 3069   5.517   5.446   1.376  0.2796  0.2868 -0.2366
  826SOL    HW2 3070   5.593   5.416   1.425  0.1337 -1.1669 -0.8445
  826SOL    HW3 3071   5.443   5.433   1.436  0.4293  1.1384  0.1402
  826SOL    MW4 3072   5.517   5.440   1.390  0.2801  0.2074 -0.2671
  827SOL     OW 3073   1.441   5.723   4.722 -0.4833  0.6346  0.1438
  827SOL    HW2 3074   1.446   5.630   4.743  0.5600  1.0635  2.1207
  827SOL    HW3 3075   1.507   5.763   4.779  0.5406  2.3724 -2.0875
  827SOL    MW4 3076   1.450   5.716   4.732 -0.2106  0.9205  0.1103
  828SOL     OW 3077   3.059   4.732   4.227  0.6287  0.1721  0.5673
  828SOL    HW2 3078   3.095   4.686   4.303 -0.5355  1.0777  1.7159
  828SOL    HW3 3079   2.984   4.680   4.200  1.2169 -0.3081 -0.1662
  828SOL    MW4 3080   3.054   4.719   4.233  0.5527  0.2283  0.6221
  829SOL     OW 3081   3.521   6.124   3.162 -0.2274 -0.0558  0.6566
  829SOL    HW2 3082   3.560   6.192   3.216 -0.6509 -0.3350  1.3336
  829SOL    HW3 3083   3.581   6.114   3.088  0.6473 -0.0435  1.3495
  829SOL    MW4 3084   3.534   6.131   3.160 -0.1679 -0.0910  0.8373
  830SOL     OW 3085   1.612   3.280   2.446  0.6807 -0.6319 -0.0406
  830SOL    HW2 3086   1.580   3.190   2.448 -1.3938  0.0652  0.5957
  830SOL    HW3 3087   1.617   3.305   2.539  0.7334  0.0752 -0.2306
  830SOL    MW4 3088   1.609   3.272   2.459  0.4139 -0.4467  0.0183
  831SOL     OW 3089   0.383   1.559   0.419 -0.1055  0.3144  0.3585
  831SOL    HW2 3090   0.423   1.580   0.334  1.1147  1.5167  1.1732
  831SOL    HW3 3091   0.417   1.627   0.478 -1.4537 -0.1052  1.6618
  831SOL    MW4 3092   0.393   1.571   0.415 -0.1224  0.4177  0.6380
  832SOL     OW 3093   1.870   5.541   5.573 -0.9806 -0.6054 -0.0021
  832SOL    HW2 3094   1.920   5.531   5.654  0.9043 -2.2737 -1.2886
  832SOL    HW3 3095   1.807   5.469   5.574 -1.5266 -0.1393  0.3173
  832SOL    MW4 3096   1.868   5.530   5.584 -0.8040 -0.7640 -0.1297
  833SOL     OW 3097   1.903   1.961   2.337  0.1357  0.7016 -0.0133
  833SOL    HW2 3098   1.824   1.920   2.372 -0.1692  1.6057  0.3780
  833SOL    HW3 3099   1.940   2.009   2.411  1.1826  0.1116 -0.1293
  833SOL    MW4 3100   1.898   1.962   2.351  0.2336  0.7431  0.0231
  834SOL     OW 3101   2.402   6.095   5.432  0.0053  0.1130  0.4604
  834SOL    HW2 3102   2.419   6.003   5.450 -1.3820 -0.1838  0.3798
  834SOL    HW3 3103   2.321   6.095   5.382  0.4441  1.3302 -0.3055
  834SOL    MW4 3104   2.394   6.083   5.428 -0.1199  0.2345  0.3487
  835SOL     OW 3105   2.264   3.175   0.078 -0.1222  0.2607 -0.5783
  835SOL    HW2 3106   2.257   3.091   0.123 -0.3006  0.5224 -0.1163
  835SOL    HW3 3107   2.206   3.167   0.003  0.3988 -0.2847 -0.9357
  835SOL    MW4 3108   2.256   3.163   0.074 -0.0770  0.2233 -0.5645
  836SOL     OW 3109   2.319   3.731   3.113  0.0068 -0.2589  0.3004
  836SOL    HW2 3110   2.373   3.663   3.154  0.3576  1.5912  3.1993
  836SOL    HW3 3111   2.348   3.733   3.022  1.6780 -2.3093  0.7061
  836SOL    MW4 3112   2.330   3.722   3.107  0.2736 -0.2853  0.7364
  837SOL     OW 3113   1.299   5.627   5.862  0.2228  0.3865  0.0392
  837SOL    HW2 3114   1.366   5.560   5.878 -0.9160 -0.6467  0.7219
  837SOL    HW3 3115   1.285   5.667   5.948 -2.4624 -1.8371  0.8132
  837SOL    MW4 3116   1.306   5.624   5.876 -0.2817 -0.0432  0.2314
  838SOL     OW 3117   0.476   5.685   2.271  0.0692 -0.2815  0.7276
  838SOL    HW2 3118   0.413   5.645   2.330 -1.0024 -0.3911 -0.4304
  838SOL    HW3 3119   0.458   5.645   2.186 -0.6171  2.1075 -0.3570
  838SOL    MW4 3120   0.465   5.674   2.267 -0.1628  0.0192  0.4317
  839SOL     OW 3121   0.968   5.258   0.277  0.4718  0.0366  0.6894
  839SOL    HW2 3122   1.025   5.260   0.354 -0.5388 -0.5099  1.4710
  839SOL    HW3 3123   1.009   5.194   0.219  0.9983  0.1188  0.9557
  839SOL    MW4 3124   0.981   5.250   0.279  0.4079 -0.0247  0.8277
  840SOL     OW 3125   4.867   4.585   3.437 -0.0103 -0.5278  0.0287
  840SOL    HW2 3126   4.872   4.658   3.374  0.3497 -0.5673  0.0122
  840SOL    HW3 3127   4.956   4.550   3.440  0.5867  0.9687  2.3258
  840SOL    MW4 3128   4.879   4.590   3.429  0.1159 -0.3356  0.3296
  841SOL     OW 3129   2.349   0.057   6.333  0.2385  0.2802  0.7203
  841SOL    HW2 3130   2.265   0.036   6.374  0.1003  0.6461  0.6307
  841SOL    HW3 3131   2.390  -0.028   6.318  0.0209  0.1130  1.0496
  841SOL    MW4 3132   2.343   0.043   6.336  0.1915  0.3064  0.7519
  842SOL     OW 3133   3.268   2.504   0.157  0.8076 -0.0824  0.2679
  842SOL    HW2 3134   3.240   2.593   0.174 -1.1599 -0.7561  0.7616
  842SOL    HW3 3135   3.281   2.466   0.244  0.7147 -0.5617  0.0758
  842SOL    MW4 3136   3.266   2.510   0.171  0.5357 -0.2345  0.3077
  843SOL     OW 3137   4.724   5.045   5.105  0.1674  0.7638 -0.5968
  843SOL    HW2 3138   4.704   4.993   5.027  0.0467  0.0877 -0.1276
  843SOL    HW3 3139   4.683   4.996   5.177  0.7960  1.0559 -0.0349
  843SOL    MW4 3140   4.716   5.032   5.104  0.2344  0.7132 -0.4607
  844SOL     OW 3141   1.671   3.968   2.054 -0.1556  0.1164 -0.3157
  844SOL    HW2 3142   1.589   3.984   2.006 -0.3228 -0.2715 -0.1669
  844SOL    HW3 3143   1.657   3.883   2.097  0.4311 -0.0816 -0.5138
  844SOL    MW4 3144   1.658   3.959   2.053 -0.1003  0.0391 -0.3222
  845SOL     OW 3145   0.789   5.946   4.952  0.0057 -0.6479  0.2011
  845SOL    HW2 3146   0.701   5.920   4.923 -0.0838  0.2431 -0.3545
  845SOL    HW3 3147   0.807   6.027   4.905  0.1588  0.4957  2.1247
  845SOL    MW4 3148   0.780   5.953   4.942  0.0141 -0.3795  0.3816
  846SOL     OW 3149   4.139   2.506   1.816  0.1211  0.3673 -0.0296
  846SOL    HW2 3150   4.175   2.453   1.745  1.1005  0.4411  0.4022
  846SOL    HW3 3151   4.046   2.485   1.817  0.3438 -0.6671 -0.4345
  846SOL    MW4 3152   4.132   2.496   1.807  0.2797  0.2406 -0.0261
  847SOL     OW 3153   5.057   4.113   0.628  0.0663  0.0370 -0.6276
  847SOL    HW2 3154   5.022   4.044   0.572  0.2916  0.8502 -1.8095
  847SOL    HW3 3155   4.983   4.173   0.640 -0.4998 -0.9736  1.4100
  847SOL    MW4 3156   5.042   4.112   0.622  0.0214  0.0109 -0.5147
  848SOL     OW 3157   2.977   3.471   0.888 -0.4470  0.1936 -0.2734
  848SOL    HW2 3158   2.920   3.467   0.812  0.8286  0.4345 -1.2846
  848SOL    HW3 3159   3.023   3.554   0.880 -1.5777  1.0943  1.7675
  848SOL    MW4 3160   2.976   3.481   0.877 -0.4279  0.3442 -0.1375
  849SOL     OW 3161   4.521   3.793   3.031  0.3321 -0.3857 -0.2327
  849SOL    HW2 3162   4.586   3.824   3.095 -0.0938  0.1485 -0.0492
  849SOL    HW3 3163   4.529   3.698   3.033 -1.4359 -0.5825  2.5495
  849SOL    MW4 3164   4.531   3.785   3.040  0.0426 -0.3412  0.1586
  850SOL     OW 3165   3.126   5.376   2.417 -0.2124 -0.3945 -0.8553
  850SOL    HW2 3166   3.095   5.298   2.463  0.0779  0.3170  0.6211
  850SOL    HW3 3167   3.206   5.401   2.463 -0.3430  0.8069 -1.2510
  850SOL    MW4 3168   3.132   5.369   2.430 -0.1913 -0.1421 -0.7127
  851SOL     OW 3169   1.690   4.021   4.157 -0.2461 -0.1794  0.5624
  851SOL    HW2 3170   1.779   4.029   4.191 -0.2065 -1.7611  0.8895
  851SOL    HW3 3171   1.641   4.092   4.199  0.5694 -0.0606  1.3337
  851SOL    MW4 3172   1.695   4.032   4.167 -0.1333 -0.3724  0.7073
  852SOL     OW 3173   0.440   3.804   1.110  0.2955 -0.2235  0.0219
  852SOL    HW2 3174   0.412   3.821   1.201 -3.4803  0.5530 -1.0971
  852SOL    HW3 3175   0.440   3.709   1.103 -2.7297 -0.3258  0.1042
  852SOL    MW4 3176   0.436   3.794   1.121 -0.6018 -0.1345 -0.1149
  853SOL     OW 3177   2.734   1.660   5.677 -0.0404 -0.1002  0.3880
  853SOL    HW2 3178   2.665   1.607   5.716 -1.2643  0.2298 -1.2410
  853SOL    HW3 3179   2.719   1.748   5.711  0.1651 -0.2069  0.7621
  853SOL    MW4 3180   2.723   1.665   5.687 -0.1748 -0.0707  0.2224
  854SOL     OW 3181   4.101   1.404   6.053 -0.3838 -0.5949  0.2379
  854SOL    HW2 3182   4.104   1.347   6.130 -0.4227  0.0550  0.7278
  854SOL    HW3 3183   4.040   1.474   6.078 -0.0720 -0.1544 -0.2271
  854SOL    MW4 3184   4.093   1.406   6.067 -0.3478 -0.4510  0.2412
  855SOL     OW 3185   0.149   6.237   0.503  0.3667  0.2864 -0.7086
  855SOL    HW2 3186   0.114   6.162   0.456  1.2399 -0.4285 -0.2377
  855SOL    HW3 3187   0.074   6.275   0.548 -0.0437 -0.3994 -0.8181
  855SOL    MW4 3188   0.135   6.232   0.503  0.4278  0.1016 -0.6609
  856SOL     OW 3189   5.050   5.658   4.358  0.3024 -0.1513 -0.0662
  856SOL    HW2 3190   5.066   5.596   4.430  1.0356 -0.9456 -0.8806
  856SOL    HW3 3191   4.981   5.616   4.306 -0.5998  0.6692  0.4413
  856SOL    MW4 3192   5.043   5.644   4.361  0.2801 -0.1478 -0.1067
  857SOL     OW 3193   0.653   2.062   5.672  0.8634 -0.6825 -0.3636
  857SOL    HW2 3194   0.611   2.075   5.587 -1.7486 -1.9459  0.6202
  857SOL    HW3 3195   0.711   2.137   5.681 -2.3000  2.1749 -1.2941
  857SOL    MW4 3196   0.655   2.074   5.662  0.1014 -0.4722 -0.3565
  858SOL     OW 3197   0.030   1.542   1.427  0.6720 -0.2581  0.0981
  858SOL    HW2 3198   0.065   1.468   1.378 -1.0640 -3.0193  2.6596
  858SOL    HW3 3199  -0.064   1.543   1.406  0.6722  1.3252  0.0477
  858SOL    MW4 3200   0.022   1.533   1.418  0.4430 -0.4135  0.4295
  859SOL     OW 3201   2.334   0.477   1.159  0.1854 -0.8151 -0.3449
  859SOL    HW2 3202   2.386   0.557   1.170 -1.7091  0.3042  1.0891
  859SOL    HW3 3203   2.370   0.416   1.224  1.1752 -0.9155 -0.9602
  859SOL    MW4 3204   2.346   0.479   1.169  0.0660 -0.6807 -0.2368
  860SOL     OW 3205   4.288   0.308   3.710 -0.0514  0.1736  0.4400
  860SOL    HW2 3206   4.357   0.363   3.672 -0.8201  0.4005 -0.6906
  860SOL    HW3 3207   4.328   0.269   3.787  1.1269  0.8240  0.1837
  860SOL    MW4 3208   4.302   0.310   3.715  0.0026  0.2894  0.2570
  861SOL     OW 3209   1.210   5.943   3.559 -0.1267  0.0916 -0.2905
  861SOL    HW2 3210   1.174   5.937   3.470 -1.6339 -0.6165  0.3447
  861SOL    HW3 3211   1.138   5.976   3.612  0.4957 -0.3018  0.8329
  861SOL    MW4 3212   1.196   5.947   3.554 -0.2434 -0.0537 -0.0585
  862SOL     OW 3213   5.269   6.219   2.110 -0.1232 -0.6718 -0.1792
  862SOL    HW2 3214   5.188   6.180   2.142 -1.0198 -0.2479 -1.8126
  862SOL    HW3 3215   5.247   6.310   2.093  0.3245 -0.8358 -1.7987
  862SOL    MW4 3216   5.256   6.226   2.112 -0.1824 -0.6375 -0.6083
  863SOL     OW 3217   4.246   5.301   4.061  0.1344  0.1180 -0.0818
  863SOL    HW2 3218   4.311   5.237   4.030  0.2479  0.0710  0.2559
  863SOL    HW3 3219   4.163   5.269   4.025  0.1568 -0.3431  0.2668
  863SOL    MW4 3220   4.243   5.288   4.052  0.1524  0.0509  0.0088
  864SOL     OW 3221   4.477   2.984   4.571 -0.0994 -0.2357 -0.4119
  864SOL    HW2 3222   4.526   3.030   4.504 -0.6521  1.9041  0.5855
  864SOL    HW3 3223   4.543   2.956   4.634  0.1394  0.0882 -0.5175
  864SOL    MW4 3224   4.492   2.986   4.571 -0.1408  0.0894 -0.2942
  865SOL     OW 3225   1.008   5.209   5.499 -0.0273 -0.1723 -0.2150
  865SOL    HW2 3226   0.964   5.206   5.414  1.8069  1.4231 -1.3087
  865SOL    HW3 3227   1.023   5.302   5.514  1.5239 -0.5637  0.8507
  865SOL    MW4 3228   1.004   5.221   5.490  0.4193 -0.0134 -0.2187
  866SOL     OW 3229   2.578   3.179   5.898  0.1368  0.1171 -0.0536
  866SOL    HW2 3230   2.484   3.161   5.890  0.1757 -0.4347  0.6176
  866SOL    HW3 3231   2.593   3.254   5.842 -0.4864 -0.5519 -1.1621
  866SOL    MW4 3232   2.567   3.186   5.889  0.0597 -0.0439 -0.1113
  867SOL     OW 3233   0.581   2.941   4.154  0.0831 -0.1462 -0.0998
  867SOL    HW2 3234   0.595   3.004   4.226 -0.2307  0.1626 -0.3036
  867SOL    HW3 3235   0.660   2.948   4.101 -0.1078  0.3537 -0.3254
  867SOL    MW4 3236   0.593   2.950   4.157  0.0165 -0.0395 -0.1565
  868SOL     OW 3237   1.343   4.099   4.053 -0.2737 -0.0237 -0.3891
  868SOL    HW2 3238   1.262   4.143   4.027 -2.2014 -2.2226  1.3611
  868SOL    HW3 3239   1.373   4.054   3.974 -0.6298  0.9825 -1.1153
  868SOL    MW4 3240   1.336   4.099   4.039 -0.5750 -0.1810 -0.2540
  869SOL     OW 3241   1.288   3.234   5.882  0.5651 -0.1723 -0.1888
  869SOL    HW2 3242   1.372   3.191   5.900  1.2442  1.0311 -0.3602
  869SOL    HW3 3243   1.229   3.162   5.861  1.8340 -0.9933 -1.1618
  869SOL    MW4 3244   1.292   3.218   5.881  0.8221 -0.1219 -0.3398
  870SOL     OW 3245   4.580   0.442   4.286  0.1020 -0.5757 -0.0979
  870SOL    HW2 3246   4.566   0.446   4.191  0.8101  1.9314 -0.1571
  870SOL    HW3 3247   4.668   0.405   4.296 -0.4303 -1.9635 -0.3308
  870SOL    MW4 3248   4.590   0.438   4.275  0.1252 -0.4281 -0.1364
  871SOL     OW 3249   2.384   3.785   3.731 -0.1905  0.0392 -0.0115
  871SOL    HW2 3250   2.340   3.870   3.733 -1.3549 -0.5080 -0.6839
  871SOL    HW3 3251   2.326   3.727   3.780  0.9071 -0.2507  0.9893
  871SOL    MW4 3252   2.370   3.788   3.738 -0.1993 -0.0712  0.0318
  872SOL     OW 3253   4.954   5.517   5.213  0.4188  0.0901  0.4967
  872SOL    HW2 3254   4.946   5.514   5.118 -0.5461  0.0178  0.5632
  872SOL    HW3 3255   5.048   5.515   5.230  0.6587  1.5145 -0.4998
  872SOL    MW4 3256   4.965   5.516   5.203  0.3232  0.2685  0.3740
  873SOL     OW 3257   0.613   1.074   3.984 -0.1310  0.1697 -0.2597
  873SOL    HW2 3258   0.681   1.106   4.043  0.4356 -0.4472 -0.5595
  873SOL    HW3 3259   0.534   1.070   4.039 -0.2458  2.0506 -0.2219
  873SOL    MW4 3260   0.612   1.077   3.999 -0.0714  0.3364 -0.2943
  874SOL     OW 3261   0.357   5.125   5.218 -0.4492 -0.3189 -0.5344
  874SOL    HW2 3262   0.332   5.204   5.266  0.3049 -0.7097  0.5109
  874SOL    HW3 3263   0.423   5.156   5.155 -0.9448  0.0710 -0.8711
  874SOL    MW4 3264   0.362   5.140   5.216 -0.4151 -0.3190 -0.4409
  875SOL     OW 3265   5.530   0.986   5.583  0.1091 -0.1329  0.2707
  875SOL    HW2 3266   5.557   1.021   5.499 -1.0476 -1.2170 -0.5845
  875SOL    HW3 3267   5.487   1.060   5.627  0.2868  0.3082 -0.2947
  875SOL    MW4 3268   5.528   1.001   5.578 -0.0200 -0.2177  0.0832
  876SOL     OW 3269   3.439   0.332   2.681  0.1182  0.2881 -0.0210
  876SOL    HW2 3270   3.507   0.300   2.623 -0.2424 -0.3120 -0.1174
  876SOL    HW3 3271   3.440   0.271   2.755 -0.9173 -0.2630 -0.4471
  876SOL    MW4 3272   3.448   0.320   2.683 -0.0660  0.1362 -0.0900
  877SOL     OW 3273   3.396   3.558   0.142 -0.0666  0.2482  0.1740
  877SOL    HW2 3274   3.400   3.535   0.049  0.2151 -1.5610  0.6018
  877SOL    HW3 3275   3.313   3.522   0.172  0.2903 -0.0238  0.8406
  877SOL    MW4 3276   3.386   3.550   0.134  0.0176 -0.0264  0.3184
  878SOL     OW 3277   2.312   3.707   5.787  0.5259  0.3068 -0.0542
  878SOL    HW2 3278   2.331   3.720   5.694  0.5301  2.1104  0.1576
  878SOL    HW3 3279   2.251   3.633   5.789  0.8262 -0.0084 -1.4445
  878SOL    MW4 3280   2.306   3.699   5.775  0.5661  0.5032 -0.2096
  879SOL     OW 3281   3.096   5.276   5.213  0.2309  0.0665 -0.2724
  879SOL    HW2 3282   3.108   5.196   5.162  1.2743  0.9898 -1.5887
  879SOL    HW3 3283   3.180   5.289   5.258  0.2911  0.7105 -0.5498
  879SOL    MW4 3284   3.109   5.267   5.212  0.3765  0.2733 -0.4827
  880SOL     OW 3285   4.335   5.498   6.315 -0.2999  0.0271 -0.0309
  880SOL    HW2 3286   4.413   5.448   6.340  1.0089  1.4054 -1.1331
  880SOL    HW3 3287   4.360   5.541   6.233 -1.3501  2.4325  0.8348
  880SOL    MW4 3288   4.349   5.497   6.308 -0.2658  0.5263 -0.0621
  881SOL     OW 3289   2.803   0.173   4.946 -0.0566  0.0015  0.8761
  881SOL    HW2 3290   2.766   0.261   4.940 -0.4280 -0.1991 -0.0121
  881SOL    HW3 3291   2.833   0.165   5.036 -0.7868  0.7308  1.1955
  881SOL    MW4 3292   2.802   0.184   4.957 -0.2020  0.0713  0.8011
  882SOL     OW 3293   6.122   0.249   5.393  0.0629  0.2394 -0.1016
  882SOL    HW2 3294   6.132   0.154   5.384 -1.0364 -0.1433  2.1549
  882SOL    HW3 3295   6.110   0.280   5.303  0.5764 -1.7297 -0.8969
  882SOL    MW4 3296   6.121   0.240   5.380 -0.0144 -0.0709  0.0912
  883SOL     OW 3297   2.733   5.821   5.310 -0.3989 -0.0680  0.3345
  883SOL    HW2 3298   2.707   5.911   5.329 -0.5348 -0.1397  0.4845
  883SOL    HW3 3299   2.656   5.782   5.270 -0.2130 -0.0055 -0.0948
  883SOL    MW4 3300   2.719   5.828   5.307 -0.3923 -0.0692  0.2976
  884SOL     OW 3301   2.510   3.135   3.931 -0.2825 -0.2827  0.3448
  884SOL    HW2 3302   2.556   3.217   3.950  0.1517  0.0972 -2.0782
  884SOL    HW3 3303   2.440   3.131   3.996 -1.2648  2.7764 -0.3692
  884SOL    MW4 3304   2.507   3.146   3.942 -0.3548  0.1710 -0.0691
  885SOL     OW 3305   4.085   5.761   6.132 -0.2644 -0.5950  0.2695
  885SOL    HW2 3306   4.058   5.828   6.070 -0.5269  0.1251  1.1485
  885SOL    HW3 3307   4.031   5.685   6.111 -1.2561  0.0546  0.4462
  885SOL    MW4 3308   4.075   5.760   6.121 -0.4299 -0.4143  0.4088
  886SOL     OW 3309   5.868   4.391   1.842 -0.0230 -0.5673 -0.0080
  886SOL    HW2 3310   5.801   4.332   1.875  0.1984 -0.8416 -0.0395
  886SOL    HW3 3311   5.820   4.467   1.809 -0.3002 -0.6719  0.1573
  886SOL    MW4 3312   5.853   4.393   1.842 -0.0304 -0.6173  0.0097
  887SOL     OW 3313   6.357   3.997   2.906 -0.1521  0.1769 -0.1995
  887SOL    HW2 3314   6.395   3.966   2.988 -0.9463 -1.0933 -0.2694
  887SOL    HW3 3315   6.269   4.027   2.930  0.3839  1.8817 -0.2448
  887SOL    MW4 3316   6.350   3.997   2.920 -0.1862  0.2342 -0.2147
  888SOL     OW 3317   1.066   4.020   5.720 -0.2504  0.2419 -0.1317
  888SOL    HW2 3318   1.066   3.951   5.653 -2.3919 -1.4222  1.4131
  888SOL    HW3 3319   0.995   4.079   5.692  0.1457  0.6262 -0.3288
  888SOL    MW4 3320   1.056   4.019   5.707 -0.4807  0.0730  0.0461
  889SOL     OW 3321   2.061   2.099   1.834  0.0143  0.2703 -0.0856
  889SOL    HW2 3322   2.140   2.089   1.887 -0.9852  1.2644  1.6765
  889SOL    HW3 3323   2.006   2.159   1.884 -1.4035  0.4927 -1.8092
  889SOL    MW4 3324   2.064   2.106   1.847 -0.3046  0.4308 -0.0805
  890SOL     OW 3325   3.874   5.836   3.669 -0.0528  0.1909 -0.1765
  890SOL    HW2 3326   3.957   5.882   3.673 -0.0505  0.1372  0.4826
  890SOL    HW3 3327   3.872   5.782   3.748 -0.9806  0.6461  0.1337
  890SOL    MW4 3328   3.885   5.835   3.680 -0.1749  0.2439 -0.0486
  891SOL     OW 3329   3.858   5.629   3.893 -0.4487 -0.0009  0.8889
  891SOL    HW2 3330   3.896   5.605   3.977  0.6731  0.5282  0.5482
  891SOL    HW3 3331   3.872   5.552   3.837 -0.1448  0.0789  0.8536
  891SOL    MW4 3332   3.865   5.615   3.896 -0.2606  0.0795  0.8393
  892SOL     OW 3333   4.376   4.978   4.928  0.1610  0.2935  0.0505
  892SOL    HW2 3334   4.461   4.934   4.929 -0.4895 -1.0370 -0.9378
  892SOL    HW3 3335   4.320   4.924   4.984 -0.5013  0.1556 -0.7310
  892SOL    MW4 3336   4.380   4.965   4.935 -0.0122  0.0998 -0.1830
  893SOL     OW 3337   5.976   3.971   3.866  0.0528  0.0193 -0.0915
  893SOL    HW2 3338   5.994   4.038   3.931 -0.6935 -0.0806  0.2329
  893SOL    HW3 3339   6.062   3.947   3.831  0.4775 -0.0603  0.9844
  893SOL    MW4 3340   5.990   3.976   3.870  0.0104 -0.0044  0.0932
  894SOL     OW 3341   1.815   1.660   2.576  0.5389  0.5655  0.3006
  894SOL    HW2 3342   1.864   1.660   2.494  3.1781 -0.7517  1.7279
  894SOL    HW3 3343   1.858   1.592   2.628 -0.7009  1.6955  2.9552
  894SOL    MW4 3344   1.827   1.651   2.572  0.7236  0.5408  0.8391
  895SOL     OW 3345   0.627   1.605   3.824  0.3424 -0.0795  0.4065
  895SOL    HW2 3346   0.538   1.620   3.792 -0.2343  1.0246  2.3668
  895SOL    HW3 3347   0.620   1.528   3.881  0.5178  0.2979  0.9478
  895SOL    MW4 3348   0.614   1.597   3.827  0.2895  0.1160  0.7366
  896SOL     OW 3349   4.464   1.788   3.694  0.0758 -0.2927 -0.0928
  896SOL    HW2 3350   4.417   1.773   3.611 -0.1458 -2.0543  0.3257
  896SOL    HW3 3351   4.442   1.713   3.748  0.3571  0.7518  1.5312
  896SOL    MW4 3352   4.455   1.776   3.690  0.0837 -0.3873  0.1767
  897SOL     OW 3353   3.781   4.534   1.742  1.0928  0.0533  0.0770
  897SOL    HW2 3354   3.824   4.615   1.768 -0.2770  0.8073  0.1048
  897SOL    HW3 3355   3.803   4.472   1.812  2.9668  0.0717 -0.4412
  897SOL    MW4 3356   3.789   4.537   1.755  1.1593  0.1552  0.0123
  898SOL     OW 3357   2.837   5.054   3.446  0.6928  0.1906 -0.4241
  898SOL    HW2 3358   2.862   5.050   3.353  0.2076  1.2523 -0.6226
  898SOL    HW3 3359   2.847   4.965   3.478 -3.9232 -1.4437 -2.7583
  898SOL    MW4 3360   2.842   5.042   3.438  0.0198  0.1150 -0.7583
  899SOL     OW 3361   3.685   0.271   5.819 -0.0766 -0.1150 -0.2144
  899SOL    HW2 3362   3.730   0.213   5.880  0.7416 -0.1856 -0.8720
  899SOL    HW3 3363   3.671   0.218   5.741 -1.2055 -0.0574 -0.0671
  899SOL    MW4 3364   3.689   0.256   5.817 -0.1176 -0.1167 -0.2817
  900SOL     OW 3365   0.400   6.272   5.490 -0.4098 -0.1895 -0.0441
  900SOL    HW2 3366   0.451   6.194   5.470 -0.0097  0.1499 -0.3456
  900SOL    HW3 3367   0.407   6.327   5.413  2.2734  1.7439  1.4221
  900SOL    MW4 3368   0.408   6.269   5.477 -0.0030  0.1104  0.1096
  901SOL     OW 3369   3.795   1.492   1.434 -0.2355 -0.7846 -0.0707
  901SOL    HW2 3370   3.708   1.473   1.399 -0.1738 -0.6335 -0.3107
  901SOL    HW3 3371   3.810   1.584   1.410  0.0681 -0.8659 -0.1959
  901SOL    MW4 3372   3.786   1.502   1.426 -0.1873 -0.7754 -0.1189
  902SOL     OW 3373   3.104   0.483   4.324 -0.2479  0.1371 -0.9741
  902SOL    HW2 3374   3.125   0.515   4.412 -0.2494 -0.0170 -0.9189
  902SOL    HW3 3375   3.018   0.521   4.305 -1.8144 -2.4307  0.3923
  902SOL    MW4 3376   3.096   0.492   4.333 -0.4548 -0.2220 -0.7865
  903SOL     OW 3377   0.507   5.379   3.524 -0.4241  0.1389  0.1257
  903SOL    HW2 3378   0.513   5.324   3.445 -2.5970 -0.3978  0.2660
  903SOL    HW3 3379   0.422   5.422   3.517 -0.1374  1.0355  1.6099
  903SOL    MW4 3380   0.497   5.377   3.512 -0.6730  0.1864  0.3400
  904SOL     OW 3381   1.562   4.308   5.538  0.1956 -0.2565 -0.3062
  904SOL    HW2 3382   1.641   4.257   5.557 -0.3008 -0.4978  1.2325
  904SOL    HW3 3383   1.532   4.276   5.453  0.8515 -1.3078 -0.1506
  904SOL    MW4 3384   1.569   4.297   5.530  0.2167 -0.4270 -0.0827
  905SOL     OW 3385   0.394   1.650   4.554 -0.0247 -0.4690 -0.5446
  905SOL    HW2 3386   0.334   1.717   4.587  1.0826  0.8153 -1.0474
  905SOL    HW3 3387   0.446   1.695   4.487  1.7934 -1.3801  0.1859
  905SOL    MW4 3388   0.393   1.665   4.550  0.3613 -0.4198 -0.5146
  906SOL     OW 3389   1.258   1.308   4.931  0.1223  0.1988  0.0609
  906SOL    HW2 3390   1.270   1.359   5.011  1.7759  1.0750 -0.7065
  906SOL    HW3 3391   1.281   1.218   4.956  0.1748  0.3788  0.6696
  906SOL    MW4 3392   1.263   1.303   4.945  0.3474  0.3382  0.0400
  907SOL     OW 3393   4.152   2.297   5.088 -0.5125 -0.0383  0.1600
  907SOL    HW2 3394   4.208   2.357   5.038  0.7286 -1.1107  0.1984
  907SOL    HW3 3395   4.153   2.333   5.177  0.4201 -0.2208  0.2384
  907SOL    MW4 3396   4.159   2.310   5.093 -0.2257 -0.2039  0.1754
  908SOL     OW 3397   1.945   3.229   2.024 -0.9681 -0.1618  0.2526
  908SOL    HW2 3398   2.021   3.172   2.013  1.1193  2.7993 -2.3938
  908SOL    HW3 3399   1.964   3.280   2.103 -0.2799  0.4187 -0.2793
  908SOL    MW4 3400   1.957   3.228   2.033 -0.6019  0.3055 -0.1667
  909SOL     OW 3401   0.625   4.703   5.944 -0.0308 -0.2098  0.1528
  909SOL    HW2 3402   0.584   4.657   5.871  0.2146 -2.3759  1.2865
  909SOL    HW3 3403   0.719   4.698   5.925  0.0454 -0.9413  0.6590
  909SOL    MW4 3404   0.632   4.696   5.932  0.0117 -0.5921  0.3691
  910SOL     OW 3405   1.830   4.128   1.332 -0.5312 -0.3993  0.0772
  910SOL    HW2 3406   1.868   4.041   1.327 -2.1344 -1.3762  2.6645
  910SOL    HW3 3407   1.899   4.183   1.370 -0.2065 -1.0711  0.4630
  910SOL    MW4 3408   1.844   4.124   1.337 -0.6999 -0.6168  0.4695
  911SOL     OW 3409   5.728   4.491   3.859 -0.4934 -0.2537 -0.3260
  911SOL    HW2 3410   5.792   4.556   3.886  0.3836 -1.1947 -0.0742
  911SOL    HW3 3411   5.645   4.538   3.857 -0.1899  0.4307  1.6626
  911SOL    MW4 3412   5.726   4.506   3.862 -0.3376 -0.2875 -0.0304
  912SOL     OW 3413   1.314   1.392   5.746  0.0482  0.6214 -0.0538
  912SOL    HW2 3414   1.221   1.413   5.752 -0.0424  0.4808 -0.9148
  912SOL    HW3 3415   1.359   1.477   5.749 -0.0665  0.6677  0.8100
  912SOL    MW4 3416   1.308   1.406   5.747  0.0211  0.6089 -0.0534
  913SOL     OW 3417   5.547   6.416   2.656 -0.1411 -0.8747 -0.0424
  913SOL    HW2 3418   5.548   6.418   2.752 -2.5747 -0.8189  0.0541
  913SOL    HW3 3419   5.566   6.506   2.630 -3.0705  0.0315  0.5902
  913SOL    MW4 3420   5.549   6.428   2.665 -0.8487 -0.7478  0.0538
  914SOL     OW 3421   3.668   2.713   0.360 -0.3305  0.0388 -0.1028
  914SOL    HW2 3422   3.642   2.799   0.394  0.7874  0.8239 -1.1445
  914SOL    HW3 3423   3.633   2.711   0.271 -0.1376 -0.4781 -0.1682
  914SOL    MW4 3424   3.660   2.724   0.353 -0.1576  0.0742 -0.2488
  915SOL     OW 3425   5.265   1.565   4.072 -0.3521 -0.1531  0.0916
  915SOL    HW2 3426   5.218   1.636   4.029 -0.3039 -0.9121 -1.2604
  915SOL    HW3 3427   5.253   1.582   4.166 -1.0270  1.1659 -0.2127
  915SOL    MW4 3428   5.257   1.576   4.079 -0.4348 -0.0792 -0.1270
  916SOL     OW 3429   2.464   5.381   0.394  0.3376 -0.0992  0.2556
  916SOL    HW2 3430   2.409   5.437   0.449  0.3413 -0.9099  1.0918
  916SOL    HW3 3431   2.531   5.347   0.453  0.0609 -1.3545 -0.1272
  916SOL    MW4 3432   2.465   5.384   0.409  0.3016 -0.3718  0.3154
  917SOL     OW 3433   4.899   3.723   3.671  0.2492 -0.2011  0.6385
  917SOL    HW2 3434   4.941   3.777   3.605 -0.3833 -0.2560  0.1782
  917SOL    HW3 3435   4.846   3.785   3.722 -0.4772 -0.3665  0.1099
  917SOL    MW4 3436   4.897   3.738   3.669  0.0699 -0.2301  0.5080
  918SOL     OW 3437   1.209   3.805   1.295  0.8072  0.0464 -0.0480
  918SOL    HW2 3438   1.260   3.732   1.260 -0.6331 -0.8147 -0.3861
  918SOL    HW3 3439   1.231   3.807   1.388  1.3903 -0.3588 -0.1701
  918SOL    MW4 3440   1.219   3.796   1.303  0.6941 -0.1207 -0.1087
  919SOL     OW 3441   4.459   1.471   5.741 -0.3238  0.3277 -0.2073
  919SOL    HW2 3442   4.498   1.389   5.773 -0.5341 -0.3979 -1.6828
  919SOL    HW3 3443   4.372   1.473   5.780 -0.5509 -0.4936 -0.6343
  919SOL    MW4 3444   4.453   1.460   5.750 -0.3815  0.1236 -0.4583
  920SOL     OW 3445   5.577   0.585   3.429 -0.5330 -0.0990  0.2051
  920SOL    HW2 3446   5.627   0.663   3.449 -1.1051  0.7262 -1.4235
  920SOL    HW3 3447   5.561   0.589   3.335 -2.9513 -0.7200  0.5088
  920SOL    MW4 3448   5.581   0.596   3.419 -0.9275 -0.0721  0.0303
  921SOL     OW 3449   4.560   1.742   4.568 -0.1144 -0.4013 -0.7214
  921SOL    HW2 3450   4.535   1.785   4.650 -0.1035 -3.1559  0.8413
  921SOL    HW3 3451   4.486   1.756   4.509 -0.7827  0.3127  0.2650
  921SOL    MW4 3452   4.547   1.749   4.571 -0.2011 -0.6705 -0.3851
  922SOL     OW 3453   1.385   2.311   5.855  0.1887  0.3018 -0.2806
  922SOL    HW2 3454   1.378   2.270   5.769 -1.1726 -1.6241  0.6912
  922SOL    HW3 3455   1.477   2.299   5.879  0.3148 -0.1995 -0.9711
  922SOL    MW4 3456   1.396   2.304   5.847  0.0257 -0.0185 -0.2435
  923SOL     OW 3457   1.629   4.262   4.877 -0.1429  0.0159 -0.5212
  923SOL    HW2 3458   1.627   4.195   4.809  1.1053 -0.7159  0.1241
  923SOL    HW3 3459   1.537   4.275   4.902 -0.3627 -2.1936  0.0385
  923SOL    MW4 3460   1.617   4.255   4.872 -0.0072 -0.3722 -0.3622
  924SOL     OW 3461   0.748   2.561   5.851  0.5795 -0.2303 -0.6024
  924SOL    HW2 3462   0.698   2.593   5.776  0.1072  0.0935 -0.1541
  924SOL    HW3 3463   0.840   2.569   5.824  0.4895  1.6120 -0.4852
  924SOL    MW4 3464   0.754   2.566   5.838  0.5053  0.0555 -0.5278
  925SOL     OW 3465   3.101   4.822   1.052 -0.3104 -0.3734 -0.2325
  925SOL    HW2 3466   3.175   4.881   1.038  0.7045 -0.9234  2.2857
  925SOL    HW3 3467   3.028   4.880   1.073  0.1313  0.0752  0.0948
  925SOL    MW4 3468   3.101   4.837   1.053 -0.1182 -0.3868  0.1429
  926SOL     OW 3469   0.102   2.015   2.798 -0.1089 -0.2201 -0.4071
  926SOL    HW2 3470   0.031   2.040   2.857  0.1283  0.3775 -0.3669
  926SOL    HW3 3471   0.067   1.942   2.748 -1.4537  1.2802 -1.7362
  926SOL    MW4 3472   0.088   2.009   2.799 -0.2551  0.0567 -0.5771
  927SOL     OW 3473   5.275   2.300   0.240 -0.2400 -0.5706  0.3856
  927SOL    HW2 3474   5.218   2.252   0.180 -0.1341 -0.9210  0.5630
  927SOL    HW3 3475   5.280   2.389   0.203  1.6708 -1.3497 -1.4124
  927SOL    MW4 3476   5.268   2.306   0.227  0.0261 -0.7196  0.1718
  928SOL     OW 3477   1.156   1.343   3.889 -0.2270 -0.0547  0.7717
  928SOL    HW2 3478   1.169   1.345   3.984 -1.5416 -2.0601  1.0692
  928SOL    HW3 3479   1.221   1.404   3.855  1.1948 -0.2693  2.8667
  928SOL    MW4 3480   1.166   1.351   3.897 -0.2129 -0.3476  1.0873
  929SOL     OW 3481   2.174   3.845   1.762 -0.2147  0.2500  0.3073
  929SOL    HW2 3482   2.119   3.813   1.689  1.1319  1.0253 -1.0962
  929SOL    HW3 3483   2.264   3.831   1.733  0.3774 -0.0783  2.1549
  929SOL    MW4 3484   2.178   3.839   1.748  0.0411  0.3090  0.3659
  930SOL     OW 3485   3.284   0.627   5.043 -0.4547 -0.2896  0.2828
  930SOL    HW2 3486   3.337   0.653   4.967 -1.3000  2.5649  0.5683
  930SOL    HW3 3487   3.348   0.609   5.111  0.2581 -0.7917 -0.5004
  930SOL    MW4 3488   3.299   0.628   5.042 -0.4722  0.0208  0.2171
  931SOL     OW 3489   5.429   1.870   4.691  0.1970  0.2886 -0.2078
  931SOL    HW2 3490   5.481   1.869   4.771 -0.2728  0.0791  0.0966
  931SOL    HW3 3491   5.493   1.886   4.621  0.6682  0.0283  0.1594
  931SOL    MW4 3492   5.444   1.872   4.692  0.1972  0.2266 -0.1192
  932SOL     OW 3493   5.703   1.789   5.181 -0.1425  0.7187 -0.3082
  932SOL    HW2 3494   5.654   1.741   5.247 -1.4525  0.1620 -1.6474
  932SOL    HW3 3495   5.701   1.880   5.212 -1.7485  0.6614 -0.1495
  932SOL    MW4 3496   5.696   1.795   5.194 -0.5272  0.6377 -0.4640
  933SOL     OW 3497   1.331   2.869   6.053 -0.2339  0.5116  0.1748
  933SOL    HW2 3498   1.388   2.874   6.130  1.5072  1.9248 -1.1019
  933SOL    HW3 3499   1.335   2.778   6.025  0.3138  0.3088  0.8914
  933SOL    MW4 3500   1.339   2.858   6.059  0.0681  0.6713  0.1009
  934SOL     OW 3501   1.615   3.792   4.028  0.0618  0.5926 -0.1190
  934SOL    HW2 3502   1.582   3.731   4.094  1.2669  0.2016  0.1419
  934SOL    HW3 3503   1.639   3.871   4.077 -2.2508  1.6569 -0.5521
  934SOL    MW4 3504   1.614   3.794   4.043 -0.0844  0.6815 -0.1417
  935SOL     OW 3505   1.146   4.782   5.213  0.1842 -0.2240 -0.5182
  935SOL    HW2 3506   1.238   4.771   5.186  0.1745 -1.3243 -0.1516
  935SOL    HW3 3507   1.151   4.791   5.308 -0.1153 -0.6411 -0.4632
  935SOL    MW4 3508   1.159   4.781   5.222  0.1434 -0.4242 -0.4626
  936SOL     OW 3509   3.025   6.117   4.547  0.0783  0.4453 -0.3536
  936SOL    HW2 3510   3.112   6.103   4.509 -0.2019 -0.4859 -0.6913
  936SOL    HW3 3511   2.978   6.170   4.481 -0.6143 -1.6904 -1.6980
  936SOL    MW4 3512   3.030   6.122   4.533 -0.0501  0.0406 -0.5755
  937SOL     OW 3513   4.425   5.827   6.388  0.0397 -0.4251  0.2409
  937SOL    HW2 3514   4.507   5.815   6.338  1.9077  1.2504  2.6729
  937SOL    HW3 3515   4.416   5.747   6.439 -0.8120 -1.3054 -1.2064
  937SOL    MW4 3516   4.435   5.815   6.388  0.1738 -0.3202  0.3708
  938SOL     OW 3517   1.512   3.687   1.481 -0.0315 -0.0144 -0.2354
  938SOL    HW2 3518   1.566   3.655   1.554  0.1528 -1.2182 -0.8744
  938SOL    HW3 3519   1.450   3.747   1.522  0.4327 -0.2387  0.8356
  938SOL    MW4 3520   1.511   3.691   1.496  0.0541 -0.2028 -0.1784
  939SOL     OW 3521   0.789   5.190   4.276 -0.3099 -0.0010 -0.4504
  939SOL    HW2 3522   0.706   5.195   4.229 -1.2423 -0.4750  1.0741
  939SOL    HW3 3523   0.851   5.158   4.211 -1.2365  0.6493 -1.7071
  939SOL    MW4 3524   0.786   5.187   4.261 -0.5552  0.0223 -0.4151
  940SOL     OW 3525   1.555   0.453   3.994  0.0836  0.6441 -0.0281
  940SOL    HW2 3526   1.602   0.378   3.956 -1.0952 -0.1189 -0.0311
  940SOL    HW3 3527   1.477   0.462   3.940 -2.0092 -0.8946  2.4908
  940SOL    MW4 3528   1.551   0.444   3.982 -0.3480  0.3404  0.3039
  941SOL     OW 3529   3.041   4.041   5.398 -0.5332 -0.0449 -0.3047
  941SOL    HW2 3530   3.069   4.132   5.410 -0.2447 -0.2728  0.8972
  941SOL    HW3 3531   3.051   4.025   5.304  2.0107  0.3537 -0.1826
  941SOL    MW4 3532   3.046   4.051   5.387 -0.1595 -0.0224 -0.1300
  942SOL     OW 3533   2.180   3.954   4.732  0.1996  0.5673 -0.5392
  942SOL    HW2 3534   2.086   3.938   4.738  0.3184  0.0619  0.0598
  942SOL    HW3 3535   2.189   4.050   4.733 -0.2397  0.6105  0.6076
  942SOL    MW4 3536   2.169   3.965   4.733  0.1573  0.5063 -0.3089
  943SOL     OW 3537   5.565   2.959   4.405  0.3674 -0.0962  0.4985
  943SOL    HW2 3538   5.490   2.908   4.437 -0.9392  2.5090  1.9070
  943SOL    HW3 3539   5.572   2.934   4.313  0.6643 -3.6715  1.3238
  943SOL    MW4 3540   5.556   2.949   4.397  0.2342 -0.2242  0.7932
  944SOL     OW 3541   3.177   2.827   6.044 -0.2725 -0.2400 -0.2038
  944SOL    HW2 3542   3.084   2.843   6.062 -0.5640 -2.5167  0.5940
  944SOL    HW3 3543   3.191   2.867   5.958 -1.2422  2.5560  0.8093
  944SOL    MW4 3544   3.167   2.835   6.035 -0.4389 -0.1715  0.0351
  945SOL     OW 3545   5.720   5.180   0.357  0.2812 -0.6386  0.2033
  945SOL    HW2 3546   5.808   5.157   0.329  1.0376  1.9610  0.1923
  945SOL    HW3 3547   5.707   5.270   0.327 -1.7901 -0.4123  1.5184
  945SOL    MW4 3548   5.730   5.189   0.350  0.1077 -0.2657  0.3754
  946SOL     OW 3549   5.579   0.960   6.263  0.0436  0.5461  0.1324
  946SOL    HW2 3550   5.494   1.005   6.264 -0.5775 -0.5901  1.8130
  946SOL    HW3 3551   5.572   0.898   6.190 -0.6817  0.2813  0.4158
  946SOL    MW4 3552   5.567   0.958   6.253 -0.1341  0.3612  0.3915
  947SOL     OW 3553   4.105   0.832   5.832  0.3866 -0.4476  0.0383
  947SOL    HW2 3554   4.135   0.786   5.911 -0.9152  0.0055  0.8336
  947SOL    HW3 3555   4.108   0.925   5.856 -1.1486 -0.3588  0.0214
  947SOL    MW4 3556   4.109   0.838   5.846  0.0123 -0.3761  0.1410
  948SOL     OW 3557   6.299   0.568   4.520 -0.1889 -0.2547  0.3807
  948SOL    HW2 3558   6.282   0.601   4.608  0.1874 -2.0619  1.1805
  948SOL    HW3 3559   6.298   0.473   4.529  2.5132 -0.5403 -1.0131
  948SOL    MW4 3560   6.297   0.560   4.533  0.2172 -0.5308  0.3023
  949SOL     OW 3561   2.387   3.714   1.358  0.0444 -0.0130  0.2962
  949SOL    HW2 3562   2.392   3.619   1.353 -1.4094 -0.3013  2.8337
  949SOL    HW3 3563   2.475   3.744   1.335  0.6735 -1.9731 -0.0131
  949SOL    MW4 3564   2.400   3.705   1.354 -0.0644 -0.3097  0.5902
  950SOL     OW 3565   4.428   0.268   6.103 -0.6685  0.4114 -0.2709
  950SOL    HW2 3566   4.521   0.268   6.128 -0.8390 -1.2275  0.4738
  950SOL    HW3 3567   4.394   0.351   6.137  0.2881  0.5566  0.3734
  950SOL    MW4 3568   4.436   0.279   6.111 -0.5648  0.2143 -0.0876
  951SOL     OW 3569   3.635   5.156   1.857 -0.8427 -0.1637  0.4551
  951SOL    HW2 3570   3.584   5.205   1.921 -1.3841  1.8571 -1.4163
  951SOL    HW3 3571   3.726   5.175   1.880 -1.0310  0.6791  0.5347
  951SOL    MW4 3572   3.641   5.165   1.868 -0.9390  0.2141  0.2187
  952SOL     OW 3573   2.600   1.328   5.470  0.1223  0.3459  0.0734
  952SOL    HW2 3574   2.601   1.296   5.561  3.5301  2.4077  0.9375
  952SOL    HW3 3575   2.573   1.420   5.477 -1.2157  0.1032 -1.2927
  952SOL    MW4 3576   2.597   1.336   5.483  0.3954  0.5859  0.0072
  953SOL     OW 3577   1.786   5.366   4.236 -0.2756  0.2588  0.2306
  953SOL    HW2 3578   1.762   5.292   4.292 -2.6035  0.5743 -0.2227
  953SOL    HW3 3579   1.789   5.441   4.295  3.8704 -0.3160  1.0335
  953SOL    MW4 3580   1.783   5.367   4.251 -0.0357  0.2246  0.2767
  954SOL     OW 3581   2.604   5.003   1.674 -0.1628 -0.3142 -0.1787
  954SOL    HW2 3582   2.606   5.090   1.636  1.3225 -1.9464 -4.3738
  954SOL    HW3 3583   2.517   4.996   1.714  0.0019  3.2556  1.2143
  954SOL    MW4 3584   2.592   5.013   1.675  0.0549 -0.0586 -0.5484
  955SOL     OW 3585   4.790   4.174   2.350  0.1755 -0.2480 -0.3901
  955SOL    HW2 3586   4.876   4.167   2.309 -0.0045 -0.4161 -0.7377
  955SOL    HW3 3587   4.765   4.083   2.367  0.0186 -0.2033 -0.3859
  955SOL    MW4 3588   4.798   4.161   2.347  0.1310 -0.2643 -0.4354
  956SOL     OW 3589   1.899   2.223   2.223  1.0241 -0.8581 -0.4436
  956SOL    HW2 3590   1.868   2.136   2.248  0.8499 -0.7083 -0.1350
  956SOL    HW3 3591   1.994   2.215   2.221  1.1588 -0.4608  1.8820
  956SOL    MW4 3592   1.907   2.210   2.226  1.0189 -0.7859 -0.0961
  957SOL     OW 3593   2.326   2.909   4.488  0.1618  0.3519  0.2398
  957SOL    HW2 3594   2.330   2.988   4.542  0.3904  0.3168  0.2742
  957SOL    HW3 3595   2.324   2.837   4.551 -1.2001  0.3671  0.2365
  957SOL    MW4 3596   2.326   2.910   4.504  0.0122  0.3493  0.2439
  958SOL     OW 3597   5.333   5.298   2.566 -0.1953 -0.8450  0.5683
  958SOL    HW2 3598   5.328   5.328   2.656 -1.2799  0.2660  0.1659
  958SOL    HW3 3599   5.244   5.307   2.533  0.7900  2.5724 -1.7691
  958SOL    MW4 3600   5.321   5.303   2.573 -0.2084 -0.2476  0.2068
  959SOL     OW 3601   4.169   0.639   1.537  0.2764 -0.9925  0.0447
  959SOL    HW2 3602   4.188   0.584   1.462 -1.7667  0.8552 -1.9681
  959SOL    HW3 3603   4.250   0.688   1.553  0.1913 -0.0266 -2.2245
  959SOL    MW4 3604   4.182   0.638   1.529 -0.0044 -0.6213 -0.5203
  960SOL     OW 3605   4.871   4.408   0.211 -0.9741  0.0572 -0.0200
  960SOL    HW2 3606   4.800   4.390   0.149  0.7150  1.2051 -2.4568
  960SOL    HW3 3607   4.949   4.420   0.156  0.8282  0.4118  2.4076
  960SOL    MW4 3608   4.872   4.407   0.196 -0.5135  0.2554 -0.0212
  961SOL     OW 3609   0.336   5.761   0.733 -0.0124 -0.5885 -0.2237
  961SOL    HW2 3610   0.338   5.847   0.692 -1.8432 -0.7439 -0.7397
  961SOL    HW3 3611   0.427   5.733   0.734  0.5148  0.9885 -0.8258
  961SOL    MW4 3612   0.348   5.768   0.727 -0.1844 -0.4009 -0.3712
  962SOL     OW 3613   2.345   4.092   2.914 -0.2692 -0.0089  0.0532
  962SOL    HW2 3614   2.299   4.170   2.883  0.7749  0.2537 -0.9085
  962SOL    HW3 3615   2.302   4.020   2.868 -0.4676  0.1209  0.0331
  962SOL    MW4 3616   2.333   4.093   2.904 -0.1577  0.0429 -0.0764
  963SOL     OW 3617   0.182   0.288   0.986 -0.2968  0.1864 -0.0762
  963SOL    HW2 3618   0.209   0.213   1.039 -1.0888 -1.0726 -1.3786
  963SOL    HW3 3619   0.113   0.331   1.037  0.5985  0.4366  0.9629
  963SOL    MW4 3620   0.176   0.284   1.000 -0.2832  0.0533 -0.1109
  964SOL     OW 3621   4.901   5.593   2.966  0.0425  0.0446 -0.0568
  964SOL    HW2 3622   4.808   5.571   2.969  0.3033 -1.4815 -1.6669
  964SOL    HW3 3623   4.942   5.539   3.033 -0.2652  1.1592  1.0732
  964SOL    MW4 3624   4.894   5.583   2.975  0.0363 -0.0097 -0.1202
  965SOL     OW 3625   0.259   5.049   0.162  0.1130  0.6148 -0.0870
  965SOL    HW2 3626   0.280   4.958   0.179  2.6466  1.2901  0.9250
  965SOL    HW3 3627   0.329   5.080   0.105  0.9070  2.5603  1.7896
  965SOL    MW4 3628   0.271   5.041   0.156  0.5521  0.9606  0.2941
  966SOL     OW 3629   4.987   4.939   5.058  0.4140  0.7741 -0.3467
  966SOL    HW2 3630   5.053   4.920   5.125  1.5157  0.5754 -1.4403
  966SOL    HW3 3631   4.913   4.975   5.106  0.2854 -1.3859  1.2581
  966SOL    MW4 3632   4.986   4.941   5.073  0.5424  0.4629 -0.2793
  967SOL     OW 3633   4.980   6.426   0.242  0.2619 -0.4619 -0.3259
  967SOL    HW2 3634   5.023   6.352   0.199  0.0634 -0.8172  0.0887
  967SOL    HW3 3635   5.002   6.501   0.187  1.5099 -0.6185 -0.0685
  967SOL    MW4 3636   4.989   6.426   0.229  0.4004 -0.5295 -0.2372
  968SOL     OW 3637   0.523   0.023   0.239  0.2793  0.4984  0.3597
  968SOL    HW2 3638   0.462   0.039   0.168  1.6892  0.5108 -0.8965
  968SOL    HW3 3639   0.473  -0.025   0.304 -1.2631  1.1915 -0.2785
  968SOL    MW4 3640   0.509   0.019   0.238  0.2618  0.5915  0.1098
  969SOL     OW 3641   2.610   6.135   1.904  0.3273  0.0070  0.7030
  969SOL    HW2 3642   2.553   6.062   1.878  1.1843 -1.1081  1.8072
  969SOL    HW3 3643   2.687   6.093   1.942  2.5511  1.4444 -1.9024
  969SOL    MW4 3644   2.613   6.120   1.906  0.7338  0.0495  0.5049
  970SOL     OW 3645   2.837   1.979   1.086  0.0623 -0.2937 -0.0585
  970SOL    HW2 3646   2.821   2.033   1.009  1.7200 -0.9030 -0.8731
  970SOL    HW3 3647   2.925   1.945   1.074 -0.1378 -1.4753  1.4689
  970SOL    MW4 3648   2.846   1.981   1.074  0.2546 -0.5300  0.0356
  971SOL     OW 3649   4.796   3.615   4.541 -0.2550  0.1168  0.5596
  971SOL    HW2 3650   4.885   3.584   4.558 -0.5555 -0.5553  0.9234
  971SOL    HW3 3651   4.778   3.590   4.450 -0.0916  0.2106  0.5013
  971SOL    MW4 3652   4.805   3.608   4.531 -0.2731  0.0405  0.5999
  972SOL     OW 3653   2.017   5.947   5.886  0.4856 -0.2211 -0.0286
  972SOL    HW2 3654   1.986   6.029   5.926  0.8431  0.1647 -0.5234
  972SOL    HW3 3655   2.046   5.973   5.799 -0.3885 -1.0781 -0.5851
  972SOL    MW4 3656   2.017   5.961   5.880  0.4175 -0.2832 -0.1673
  973SOL     OW 3657   0.982   5.044   1.973 -0.5217 -0.5011  0.0634
  973SOL    HW2 3658   1.067   5.022   2.012 -0.4249 -1.1165 -0.4794
  973SOL    HW3 3659   0.993   5.026   1.880 -0.5163  1.6320 -0.4104
  973SOL    MW4 3660   0.995   5.039   1.966 -0.5082 -0.3009 -0.0707
  974SOL     OW 3661   3.557   5.499   0.286  0.3313  0.1270  0.5160
  974SOL    HW2 3662   3.481   5.557   0.297 -0.1084 -0.1116 -1.0154
  974SOL    HW3 3663   3.587   5.482   0.375 -0.0382  2.0311  1.0478
  974SOL    MW4 3664   3.551   5.505   0.299  0.2245  0.3468  0.3841
  975SOL     OW 3665   4.256   2.223   3.579  0.3496  0.6804  0.4484
  975SOL    HW2 3666   4.333   2.181   3.616 -0.3351 -0.0801  1.0613
  975SOL    HW3 3667   4.253   2.192   3.489  1.0333  1.1233  0.2658
  975SOL    MW4 3668   4.266   2.213   3.572  0.3495  0.6385  0.5052
  976SOL     OW 3669   4.403   4.215   6.377 -0.2240 -0.2428 -0.1481
  976SOL    HW2 3670   4.461   4.150   6.336 -0.1413  0.6230 -1.4432
  976SOL    HW3 3671   4.315   4.179   6.364 -0.0824 -0.8857  0.5996
  976SOL    MW4 3672   4.399   4.201   6.370 -0.1944 -0.2134 -0.2203
  977SOL     OW 3673   5.548   0.606   3.144  0.6279  0.1036 -0.2611
  977SOL    HW2 3674   5.452   0.602   3.136  0.6919 -1.5024 -0.5733
  977SOL    HW3 3675   5.567   0.700   3.149 -1.1151  0.4416  1.8606
  977SOL    MW4 3676   5.538   0.618   3.143  0.4063 -0.0637 -0.0223
  978SOL     OW 3677   5.613   2.445   5.842  0.4641  0.1734  0.2889
  978SOL    HW2 3678   5.690   2.495   5.814  0.8051 -0.8201 -0.6200
  978SOL    HW3 3679   5.602   2.379   5.774 -2.4467  1.5410 -0.7389
  978SOL    MW4 3680   5.622   2.443   5.829  0.1250  0.2227  0.0334
  979SOL     OW 3681   4.350   1.092   4.426  0.1737  0.1297 -0.3093
  979SOL    HW2 3682   4.415   1.137   4.373 -0.0459 -0.1906 -0.8532
  979SOL    HW3 3683   4.315   1.160   4.483  0.3841  0.4842 -0.5991
  979SOL    MW4 3684   4.354   1.107   4.427  0.1725  0.1342 -0.4193
  980SOL     OW 3685   3.422   0.095   3.699 -0.3976 -0.4851 -0.0080
  980SOL    HW2 3686   3.370   0.175   3.690 -0.7906 -0.7270  0.0953
  980SOL    HW3 3687   3.488   0.102   3.629  1.8242  1.5886  2.1094
  980SOL    MW4 3688   3.424   0.107   3.688 -0.1563 -0.2434  0.2850
  981SOL     OW 3689   2.099   1.916   0.623  0.4426  0.3009 -0.6095
  981SOL    HW2 3690   2.050   1.993   0.593  0.2360  0.5992  0.4613
  981SOL    HW3 3691   2.182   1.952   0.655 -0.1027  0.2398  0.9531
  981SOL    MW4 3692   2.103   1.931   0.623  0.3434  0.3322 -0.2620
  982SOL     OW 3693   4.664   6.376   2.495 -0.2214 -0.3518 -0.4995
  982SOL    HW2 3694   4.617   6.294   2.512 -0.8053  0.0062 -0.3253
  982SOL    HW3 3695   4.594   6.440   2.483  0.2341  0.1499 -0.4732
  982SOL    MW4 3696   4.648   6.373   2.496 -0.2383 -0.2384 -0.4731
  983SOL     OW 3697   6.368   3.287   3.806  0.1351  0.1379 -0.2336
  983SOL    HW2 3698   6.433   3.218   3.821  1.2135  1.3863  1.2383
  983SOL    HW3 3699   6.340   3.276   3.715  2.3005 -0.5505 -0.8668
  983SOL    MW4 3700   6.373   3.277   3.796  0.5631  0.2118 -0.1229
  984SOL     OW 3701   0.131   0.349   4.213  0.5931 -0.0959  0.1432
  984SOL    HW2 3702   0.170   0.357   4.300 -0.8767  0.4136  0.8044
  984SOL    HW3 3703   0.192   0.295   4.163  3.5455  2.8853  0.1842
  984SOL    MW4 3704   0.144   0.343   4.218  0.7887  0.3647  0.2359
  985SOL     OW 3705   1.809   4.330   2.617  0.3038 -0.5694  0.3280
  985SOL    HW2 3706   1.836   4.254   2.567 -2.4318 -1.8476  0.5932
  985SOL    HW3 3707   1.846   4.316   2.704  2.0297 -0.1934 -0.3167
  985SOL    MW4 3708   1.817   4.318   2.622  0.1706 -0.6885  0.2779
  986SOL     OW 3709   4.108   0.392   3.970 -0.5981  0.4263  0.5916
  986SOL    HW2 3710   4.050   0.453   4.014 -0.2938  0.6189  0.7260
  986SOL    HW3 3711   4.075   0.388   3.880 -1.3833 -0.1769  0.8969
  986SOL    MW4 3712   4.096   0.399   3.964 -0.6616  0.3722  0.6496
  987SOL     OW 3713   5.380   4.002   4.426 -0.9328 -0.0679 -0.2897
  987SOL    HW2 3714   5.325   4.032   4.499 -1.4089 -0.6365 -0.4028
  987SOL    HW3 3715   5.426   3.925   4.461  1.5907  1.7017  0.5629
  987SOL    MW4 3716   5.379   3.996   4.441 -0.6626  0.0906 -0.1922
  988SOL     OW 3717   0.462   2.194   1.722 -0.6013 -0.0107  0.0333
  988SOL    HW2 3718   0.443   2.272   1.773  0.1645  0.4470 -0.3686
  988SOL    HW3 3719   0.525   2.222   1.656 -0.0725 -1.0326  0.0762
  988SOL    MW4 3720   0.468   2.208   1.720 -0.4305 -0.0851 -0.0141
  989SOL     OW 3721   3.135   4.890   5.502  0.2057  0.1762  0.0806
  989SOL    HW2 3722   3.077   4.944   5.555 -0.2230 -0.0870 -0.1112
  989SOL    HW3 3723   3.218   4.938   5.499  0.8746 -0.7081  2.5560
  989SOL    MW4 3724   3.138   4.903   5.508  0.2374  0.0248  0.3819
  990SOL     OW 3725   3.149   4.419   1.313 -0.0003  0.1243  0.1426
  990SOL    HW2 3726   3.077   4.394   1.254 -0.5935 -0.0036  0.8982
  990SOL    HW3 3727   3.173   4.337   1.357 -0.7708  0.5156  1.3535
  990SOL    MW4 3728   3.142   4.405   1.311 -0.1802  0.1590  0.4021
  991SOL     OW 3729   5.451   2.497   2.398  0.5952  0.9155 -0.2513
  991SOL    HW2 3730   5.369   2.508   2.446  0.5062 -0.2646 -0.1093
  991SOL    HW3 3731   5.512   2.464   2.464  1.0932  1.4354 -0.4436
  991SOL    MW4 3732   5.448   2.494   2.413  0.6491  0.8284 -0.2579
  992SOL     OW 3733   3.919  -0.002   2.582  0.2721 -0.0735 -0.3510
  992SOL    HW2 3734   3.833  -0.007   2.539 -1.1820  1.8750  2.0328
  992SOL    HW3 3735   3.939  -0.092   2.606 -0.0497 -0.8586 -2.7366
  992SOL    MW4 3736   3.910  -0.014   2.579  0.0378  0.0800 -0.3512
  993SOL     OW 3737   3.854   0.364   6.402  0.1108  0.1603  0.4963
  993SOL    HW2 3738   3.905   0.283   6.407 -1.1531 -0.6626  0.4283
  993SOL    HW3 3739   3.766   0.335   6.378 -0.0877  1.6732 -0.6853
  993SOL    MW4 3740   3.849   0.349   6.400 -0.0822  0.2514  0.3314
  994SOL     OW 3741   2.833   0.587   5.686 -0.1516 -0.1967 -0.7490
  994SOL    HW2 3742   2.893   0.585   5.760 -1.2966 -1.5230  0.2152
  994SOL    HW3 3743   2.870   0.650   5.626  1.2005  0.3910  0.6442
  994SOL    MW4 3744   2.845   0.595   5.688 -0.1243 -0.2942 -0.4380
  995SOL     OW 3745   1.103   3.393   4.714  0.1830  0.4218  0.5515
  995SOL    HW2 3746   1.110   3.396   4.619  0.4764  3.7309  0.5846
  995SOL    HW3 3747   1.023   3.442   4.734  0.3981  0.2152  2.0420
  995SOL    MW4 3748   1.093   3.399   4.704  0.2501  0.8311  0.7525
  996SOL     OW 3749   0.364   5.017   3.572  0.2235 -0.1333 -0.1203
  996SOL    HW2 3750   0.405   5.001   3.486 -0.8330 -2.5052 -0.2704
  996SOL    HW3 3751   0.315   4.937   3.590 -0.2753  0.6444  2.3434
  996SOL    MW4 3752   0.363   5.004   3.563  0.0183 -0.3436  0.1850
  997SOL     OW 3753   0.772   0.648   3.901 -0.1845  0.1016  0.5928
  997SOL    HW2 3754   0.835   0.597   3.850  1.2499  0.6456  1.7252
  997SOL    HW3 3755   0.752   0.593   3.977 -0.7970  0.0890  0.4284
  997SOL    MW4 3756   0.778   0.634   3.904 -0.0760  0.1717  0.7205
  998SOL     OW 3757   4.765   5.433   1.352 -0.1420  0.0498 -0.4723
  998SOL    HW2 3758   4.844   5.483   1.331 -0.4848  1.1467  0.7120
  998SOL    HW3 3759   4.763   5.363   1.287  1.4010  0.4376 -0.9839
  998SOL    MW4 3760   4.776   5.431   1.341  0.0164  0.2457 -0.3835
  999SOL     OW 3761   0.926   1.565   5.210 -0.0346  0.3135  0.1710
  999SOL    HW2 3762   0.989   1.496   5.232 -1.1306  0.0338  2.8449
  999SOL    HW3 3763   0.907   1.552   5.117 -0.1043 -2.9164  0.5156
  999SOL    MW4 3764   0.932   1.554   5.201 -0.1884 -0.1496  0.5692
 1000SOL     OW 3765   3.615   5.283   3.773  0.0555 -0.2839  0.0688
 1000SOL    HW2 3766   3.693   5.328   3.741 -0.1770 -1.1709 -1.8639
 1000SOL    HW3 3767   3.560   5.271   3.696 -1.8837  0.0349  1.3275
 1000SOL    MW4 3768   3.618   5.287   3.759 -0.2310 -0.3589 -0.0201
 1001SOL     OW 3769   3.266   2.467   1.313 -0.0157  0.4705  0.3356
 1001SOL    HW2 3770   3.173   2.451   1.323 -0.4216  1.6227 -1.1195
 1001SOL    HW3 3771   3.308   2.417   1.383 -1.6396 -0.8451  0.4110
 1001SOL    MW4 3772   3.259   2.458   1.323 -0.2835  0.4490  0.1536
 1002SOL     OW 3773   1.318   0.949   3.083  0.0202  0.3413 -0.0273
 1002SOL    HW2 3774   1.307   0.990   2.997  0.9061  1.8614  0.5322
 1002SOL    HW3 3775   1.229   0.926   3.111 -0.4700  1.4846 -0.5887
 1002SOL    MW4 3776   1.305   0.951   3.076  0.0724  0.6927 -0.0275
 1003SOL     OW 3777   1.597   3.730   5.252  0.3905 -0.3201 -0.1269
 1003SOL    HW2 3778   1.634   3.677   5.323  1.6406  0.2463 -0.3291
 1003SOL    HW3 3779   1.609   3.675   5.174 -0.9962 -0.9487  0.0724
 1003SOL    MW4 3780   1.604   3.716   5.251  0.3725 -0.3283 -0.1273
 1004SOL     OW 3781   2.953   0.958   1.027 -0.1485 -0.3534  0.5558
 1004SOL    HW2 3782   3.016   0.897   1.065 -0.1628  0.5168  2.1139
 1004SOL    HW3 3783   2.879   0.956   1.088  0.1770  1.7346  1.1045
 1004SOL    MW4 3784   2.951   0.950   1.040 -0.1074  0.0369  0.8338
 1005SOL     OW 3785   4.550   6.123   2.562  0.1863 -0.0478 -0.0998
 1005SOL    HW2 3786   4.583   6.037   2.589  0.6287 -1.0896 -3.5036
 1005SOL    HW3 3787   4.459   6.108   2.538 -0.0675  0.7282  0.3127
 1005SOL    MW4 3788   4.542   6.110   2.562  0.2112 -0.0829 -0.4944
 1006SOL     OW 3789   2.647   3.288   3.108  0.2199  0.1964 -0.6592
 1006SOL    HW2 3790   2.689   3.308   3.191 -0.8584 -2.6825  0.7231
 1006SOL    HW3 3791   2.586   3.360   3.095  1.3276  1.3685  0.3531
 1006SOL    MW4 3792   2.644   3.300   3.117  0.2238 -0.0288 -0.3433
 1007SOL     OW 3793   2.036   4.882   3.763  0.0240 -0.1381 -0.2686
 1007SOL    HW2 3794   1.950   4.901   3.724  0.4780  0.2459 -1.1286
 1007SOL    HW3 3795   2.088   4.961   3.744 -0.4468  1.2514  3.3978
 1007SOL    MW4 3796   2.032   4.895   3.755  0.0218  0.0959  0.1016
 1008SOL     OW 3797   0.557   1.716   5.705 -0.0149  0.0595 -0.1528
 1008SOL    HW2 3798   0.561   1.730   5.800  0.8937 -0.3068 -0.1266
 1008SOL    HW3 3799   0.524   1.799   5.670 -2.2917 -0.4431  0.6176
 1008SOL    MW4 3800   0.553   1.729   5.713 -0.1954 -0.0552 -0.0477
 1009SOL     OW 3801   3.132   3.422   4.979  0.2173  0.8599 -0.2808
 1009SOL    HW2 3802   3.093   3.505   5.007  0.0297  0.7396 -0.1834
 1009SOL    HW3 3803   3.069   3.356   5.005 -0.1523  0.7716 -1.3620
 1009SOL    MW4 3804   3.119   3.424   4.986  0.1438  0.8324 -0.4106
 1010SOL     OW 3805   2.853   2.155   0.877  0.3138 -0.0548 -0.0079
 1010SOL    HW2 3806   2.778   2.201   0.841  2.0878  1.8028 -1.5885
 1010SOL    HW3 3807   2.892   2.217   0.939  2.6702  0.7454 -2.0824
 1010SOL    MW4 3808   2.848   2.169   0.880  0.8588  0.2958 -0.4901
 1011SOL     OW 3809   2.143   6.359   4.477 -0.1457 -0.1286  0.3963
 1011SOL    HW2 3810   2.107   6.443   4.504 -0.6480 -0.9017  2.2661
 1011SOL    HW3 3811   2.066   6.305   4.459  0.1731 -0.0050 -1.5546
 1011SOL    MW4 3812   2.128   6.363   4.478 -0.1699 -0.2143  0.3856
 1012SOL     OW 3813   2.520   1.329   2.934  1.0861 -0.9107 -0.6612
 1012SOL    HW2 3814   2.455   1.307   3.001  0.0666  0.8610 -0.9884
 1012SOL    HW3 3815   2.602   1.292   2.967  0.1764 -2.0685  0.4141
 1012SOL    MW4 3816   2.522   1.321   2.947  0.8316 -0.8297 -0.5625
 1013SOL     OW 3817   6.274   5.135   2.288  0.3734 -1.2587 -0.0547
 1013SOL    HW2 3818   6.225   5.130   2.206 -0.4987 -0.6730  0.4237
 1013SOL    HW3 3819   6.355   5.087   2.269  0.1238 -1.2708 -1.2058
 1013SOL    MW4 3820   6.278   5.128   2.274  0.2254 -1.1830 -0.1434
 1014SOL     OW 3821   1.472   0.472   4.430 -0.5837 -0.3324 -0.0527
 1014SOL    HW2 3822   1.545   0.483   4.369  0.3381 -2.0643  0.6718
 1014SOL    HW3 3823   1.451   0.561   4.457  1.0888  0.2408 -0.4798
 1014SOL    MW4 3824   1.479   0.485   4.425 -0.2414 -0.4853 -0.0135
 1015SOL     OW 3825   4.254   0.065   3.198  0.1363 -0.3841  0.0578
 1015SOL    HW2 3826   4.329   0.123   3.213  0.4688 -0.9195  0.4826
 1015SOL    HW3 3827   4.226   0.085   3.109  0.4535  0.1962  0.0829
 1015SOL    MW4 3828   4.261   0.075   3.188  0.2220 -0.3782  0.1172
 1016SOL     OW 3829   1.735   1.532   3.725 -0.1257  0.2681 -0.2102
 1016SOL    HW2 3830   1.775   1.445   3.733  0.5233  0.7002  1.6624
 1016SOL    HW3 3831   1.727   1.545   3.630  0.6650 -1.4226 -0.5598
 1016SOL    MW4 3832   1.739   1.522   3.714  0.0643  0.1020 -0.0092
 1017SOL     OW 3833   4.656   0.275   1.692  0.3944 -0.7403  0.0822
 1017SOL    HW2 3834   4.622   0.339   1.754  1.7011 -1.9066  2.1043
 1017SOL    HW3 3835   4.578   0.235   1.654 -0.4339  0.9724 -0.1184
 1017SOL    MW4 3836   4.641   0.278   1.695  0.4575 -0.6682  0.3225
 1018SOL     OW 3837   3.777   3.688   2.350  1.0031  0.4803 -0.2042
 1018SOL    HW2 3838   3.728   3.664   2.428  1.5250 -1.6285 -0.4654
 1018SOL    HW3 3839   3.734   3.641   2.279  1.3128  1.3499 -0.9918
 1018SOL    MW4 3840   3.765   3.679   2.351  1.1128  0.3168 -0.3426
 1019SOL     OW 3841   3.330   2.559   4.040 -0.1632 -0.3671 -0.0381
 1019SOL    HW2 3842   3.333   2.629   3.975  1.0624  0.3675  0.7459
 1019SOL    HW3 3843   3.244   2.520   4.031 -0.9324  1.3351 -0.4300
 1019SOL    MW4 3844   3.319   2.563   4.030 -0.1030 -0.0456  0.0137
 1020SOL     OW 3845   0.231   4.251   0.991 -0.4211  0.2564 -0.5183
 1020SOL    HW2 3846   0.178   4.173   1.008  0.0234 -0.3967 -1.9755
 1020SOL    HW3 3847   0.276   4.268   1.074 -1.4656 -0.2793  0.1830
 1020SOL    MW4 3848   0.230   4.243   1.004 -0.5003  0.0995 -0.6180
 1021SOL     OW 3849   6.345   0.591   3.603  0.0455  0.1371 -0.0266
 1021SOL    HW2 3850   6.352   0.638   3.686  1.1648 -1.0778  0.6095
 1021SOL    HW3 3851   6.284   0.519   3.622  0.2529 -0.1035 -0.2690
 1021SOL    MW4 3852   6.338   0.588   3.617  0.2205 -0.0549  0.0253
 1022SOL     OW 3853   4.714   5.684   3.301  0.4519 -0.1025  0.2662
 1022SOL    HW2 3854   4.720   5.672   3.395  1.4910 -0.8950  0.1297
 1022SOL    HW3 3855   4.801   5.716   3.275  0.5054 -0.8222 -0.5170
 1022SOL    MW4 3856   4.726   5.686   3.310  0.5960 -0.3020  0.1449
 1023SOL     OW 3857   5.736   6.215   0.296 -0.1771 -0.1342 -0.1736
 1023SOL    HW2 3858   5.824   6.252   0.296 -1.1224  2.3764  0.1867
 1023SOL    HW3 3859   5.705   6.228   0.206 -0.7341  0.5209  0.1074
 1023SOL    MW4 3860   5.743   6.222   0.284 -0.3753  0.2835 -0.0890
 1024SOL     OW 3861   1.831   4.741   3.024 -0.0020 -0.4099  0.1328
 1024SOL    HW2 3862   1.885   4.812   3.058  0.1005 -0.1743 -0.5067
 1024SOL    HW3 3863   1.869   4.721   2.939 -0.4661 -0.7568  0.0042
 1024SOL    MW4 3864   1.843   4.748   3.017 -0.0497 -0.4246  0.0315
 1025SOL     OW 3865   2.854   2.273   0.097  0.5622 -0.1965  0.3714
 1025SOL    HW2 3866   2.948   2.282   0.083  0.4295 -0.0631 -0.4546
 1025SOL    HW3 3867   2.843   2.282   0.192  1.3971 -0.3904  0.4955
 1025SOL    MW4 3868   2.865   2.275   0.108  0.6549 -0.2045  0.2788
 1026SOL     OW 3869   0.877   4.707   2.582 -0.0819 -0.0926  0.3401
 1026SOL    HW2 3870   0.884   4.617   2.550  0.9335  0.1280 -0.0723
 1026SOL    HW3 3871   0.798   4.706   2.636 -1.3827 -0.6700 -1.4766
 1026SOL    MW4 3872   0.867   4.695   2.585 -0.1196 -0.1397  0.0460
 1027SOL     OW 3873   5.683   1.620   5.862  0.0182 -0.0869  0.1657
 1027SOL    HW2 3874   5.653   1.638   5.773  0.4277 -0.7775 -0.1160
 1027SOL    HW3 3875   5.747   1.689   5.881 -1.3708  1.1465  0.6121
 1027SOL    MW4 3876   5.687   1.632   5.853 -0.1110 -0.0153  0.1875
 1028SOL     OW 3877   5.485   1.862   1.607  0.3355  0.5954 -0.0397
 1028SOL    HW2 3878   5.414   1.925   1.618 -0.0268  0.2250 -0.2065
 1028SOL    HW3 3879   5.563   1.915   1.596 -0.1016  1.0325 -1.1654
 1028SOL    MW4 3880   5.486   1.877   1.607  0.2300  0.6042 -0.2102
 1029SOL     OW 3881   5.803   5.935   4.387 -0.4003  0.0296 -0.8944
 1029SOL    HW2 3882   5.754   5.857   4.414 -1.0399  1.0246  0.9214
 1029SOL    HW3 3883   5.738   5.994   4.350 -0.2725  0.5786 -0.2575
 1029SOL    MW4 3884   5.788   5.932   4.385 -0.4678  0.2333 -0.5708
 1030SOL     OW 3885   4.070   3.032   1.446  0.0794 -0.7066  0.4290
 1030SOL    HW2 3886   4.081   3.125   1.467  2.3680 -1.1068  1.2794
 1030SOL    HW3 3887   4.046   2.991   1.529  0.3320 -1.0444  0.3384
 1030SOL    MW4 3888   4.068   3.039   1.460  0.4147 -0.8040  0.5292
 1031SOL     OW 3889   2.038   1.884   3.034 -0.4837 -0.3611  0.1950
 1031SOL    HW2 3890   2.084   1.807   3.003 -0.1922 -0.6678  1.3251
 1031SOL    HW3 3891   1.965   1.850   3.087 -0.4507  0.1264  0.5705
 1031SOL    MW4 3892   2.034   1.869   3.037 -0.4409 -0.3372  0.3937
 1032SOL     OW 3893   1.495   0.835   0.345  0.7837 -0.1521  0.4382
 1032SOL    HW2 3894   1.491   0.779   0.422  0.2500 -0.3411  0.2787
 1032SOL    HW3 3895   1.519   0.776   0.274  1.6294  0.0876  0.5166
 1032SOL    MW4 3896   1.497   0.820   0.346  0.8249 -0.1454  0.4275
 1033SOL     OW 3897   3.746   3.347   6.019  0.4841  0.1096  0.1242
 1033SOL    HW2 3898   3.781   3.373   5.934  1.2873 -1.3928 -0.0292
 1033SOL    HW3 3899   3.651   3.346   6.006  0.5884  0.0683 -0.7053
 1033SOL    MW4 3900   3.738   3.350   6.006  0.6038 -0.0940 -0.0055
 1034SOL     OW 3901   1.580   4.570   1.275 -0.0753 -0.2302  0.2359
 1034SOL    HW2 3902   1.507   4.574   1.214  1.7602 -0.1797 -2.0997
 1034SOL    HW3 3903   1.639   4.640   1.246  1.0578 -0.4659  1.8396
 1034SOL    MW4 3904   1.578   4.580   1.263  0.3163 -0.2547  0.1394
 1035SOL     OW 3905   0.020   6.399   5.402 -0.9249 -0.2561  0.2696
 1035SOL    HW2 3906  -0.055   6.350   5.437 -1.6078  1.2158  0.9249
 1035SOL    HW3 3907   0.006   6.489   5.432  0.0466  0.4577 -1.3061
 1035SOL    MW4 3908   0.008   6.404   5.411 -0.8868  0.0323  0.1481
 1036SOL     OW 3909   2.940   1.266   2.912  0.0543 -0.0741 -0.4087
 1036SOL    HW2 3910   2.975   1.284   2.999 -0.0443 -0.1280 -0.3580
 1036SOL    HW3 3911   2.997   1.196   2.878 -0.2646 -0.4579 -0.1593
 1036SOL    MW4 3912   2.952   1.259   2.919 -0.0008 -0.1319 -0.3691
 1037SOL     OW 3913   2.884   5.781   3.066 -0.1041  0.2171 -0.2599
 1037SOL    HW2 3914   2.833   5.860   3.050  1.8748  1.2236 -2.1142
 1037SOL    HW3 3915   2.898   5.780   3.161  0.4024  2.5107 -0.2471
 1037SOL    MW4 3916   2.879   5.791   3.077  0.2238  0.6525 -0.5029
 1038SOL     OW 3917   4.836   0.494   5.256  0.0330  0.4119 -0.5642
 1038SOL    HW2 3918   4.741   0.503   5.253  0.0743  0.7758 -0.9387
 1038SOL    HW3 3919   4.866   0.569   5.307  0.0364 -0.4372  0.7355
 1038SOL    MW4 3920   4.827   0.505   5.262  0.0389  0.3479 -0.4421
 1039SOL     OW 3921   5.052   3.871   3.520  0.4890  0.0544  1.1985
 1039SOL    HW2 3922   5.053   3.966   3.535 -1.9599  0.5009 -0.7519
 1039SOL    HW3 3923   5.075   3.861   3.428  0.2672 -1.2150  1.2663
 1039SOL    MW4 3924   5.055   3.883   3.510  0.1366 -0.0541  0.9501
 1040SOL     OW 3925   6.006   3.458   2.022  0.4486  0.4166  0.3876
 1040SOL    HW2 3926   5.912   3.445   2.017  0.3046  1.5104 -0.2802
 1040SOL    HW3 3927   6.034   3.469   1.931  1.5085 -1.5557  0.4280
 1040SOL    MW4 3928   5.997   3.458   2.010  0.5694  0.3007  0.3048
 1041SOL     OW 3929   1.721   3.218   4.692 -0.2783  0.0171 -0.1370
 1041SOL    HW2 3930   1.811   3.186   4.681 -0.2237 -0.3696  1.2680
 1041SOL    HW3 3931   1.697   3.251   4.605  0.5284 -1.6299 -1.0400
 1041SOL    MW4 3932   1.730   3.218   4.679 -0.1647 -0.2512 -0.0708
 1042SOL     OW 3933   2.152   5.497   4.744 -0.2916 -0.1163 -0.3978
 1042SOL    HW2 3934   2.091   5.425   4.757 -0.9546  0.0176 -2.4127
 1042SOL    HW3 3935   2.238   5.454   4.737 -0.0576 -0.2973  2.4891
 1042SOL    MW4 3936   2.155   5.482   4.745 -0.3482 -0.1225 -0.2827
 1043SOL     OW 3937   5.754   2.662   2.147 -0.1054  0.1454 -0.4123
 1043SOL    HW2 3938   5.701   2.615   2.084 -1.3549 -0.9750  1.3772
 1043SOL    HW3 3939   5.693   2.720   2.192 -0.2759 -2.0614  2.5541
 1043SOL    MW4 3940   5.739   2.663   2.145 -0.2927 -0.2936  0.2152
 1044SOL     OW 3941   4.489   3.461   2.766  0.2129 -0.1306  0.1306
 1044SOL    HW2 3942   4.505   3.461   2.671  1.2036 -0.1632  0.2806
 1044SOL    HW3 3943   4.439   3.541   2.782  2.3565  1.3523 -0.0985
 1044SOL    MW4 3944   4.485   3.472   2.755  0.6264  0.0607  0.1201
 1045SOL     OW 3945   3.238   2.404   3.044  0.0786  0.8049 -0.0898
 1045SOL    HW2 3946   3.289   2.335   3.087 -0.2937  0.2247 -0.5698
 1045SOL    HW3 3947   3.302   2.472   3.023  1.2385 -1.0954 -3.2343
 1045SOL    MW4 3948   3.253   2.404   3.047  0.1825  0.4776 -0.5680
 1046SOL     OW 3949   0.006   6.370   4.216  0.5482 -0.1661  0.1889
 1046SOL    HW2 3950  -0.017   6.462   4.227  1.2243  0.0509 -0.1769
 1046SOL    HW3 3951   0.042   6.364   4.128 -0.8786 -1.0747 -0.3640
 1046SOL    MW4 3952   0.008   6.382   4.206  0.4492 -0.2573  0.0677
 1047SOL     OW 3953   6.340   0.056   1.719 -0.2176 -0.4366  0.3097
 1047SOL    HW2 3954   6.358   0.057   1.813 -1.9437 -2.2171  0.7228
 1047SOL    HW3 3955   6.426   0.062   1.678  0.5984 -0.0560  2.0112
 1047SOL    MW4 3956   6.354   0.057   1.726 -0.3376 -0.6213  0.5887
 1048SOL     OW 3957   2.824   3.575   3.970 -0.6293  0.1048 -0.1952
 1048SOL    HW2 3958   2.919   3.560   3.970 -0.6104  0.1881  0.3964
 1048SOL    HW3 3959   2.814   3.667   3.944 -0.5207  0.2078  0.1134
 1048SOL    MW4 3960   2.836   3.585   3.967 -0.6125  0.1294 -0.0764
 1049SOL     OW 3961   1.311   1.315   0.467  0.2125 -0.0167 -0.2732
 1049SOL    HW2 3962   1.247   1.360   0.522  0.1187 -0.7044  0.1881
 1049SOL    HW3 3963   1.262   1.294   0.387 -0.2278 -0.7738  0.1815
 1049SOL    MW4 3964   1.296   1.318   0.464  0.1420 -0.2074 -0.1524
 1050SOL     OW 3965   5.492   1.604   2.956  0.2054  0.0230  0.5907
 1050SOL    HW2 3966   5.419   1.665   2.969  1.0782  1.0457  0.8972
 1050SOL    HW3 3967   5.487   1.543   3.028 -1.3258 -0.9594 -0.3036
 1050SOL    MW4 3968   5.482   1.604   2.967  0.1185  0.0283  0.5131
 1051SOL     OW 3969   0.097   0.744   5.267  0.3217  0.3479 -0.8897
 1051SOL    HW2 3970   0.019   0.726   5.215  0.8113  0.6753 -1.7704
 1051SOL    HW3 3971   0.169   0.716   5.211  0.8188 -0.2567  0.0471
 1051SOL    MW4 3972   0.096   0.738   5.253  0.4519  0.3114 -0.8823
 1052SOL     OW 3973   0.146   6.425   6.354 -0.1475 -0.4638  0.0133
 1052SOL    HW2 3974   0.139   6.469   6.269 -0.7510 -1.8781 -0.6942
 1052SOL    HW3 3975   0.147   6.332   6.333  1.4721 -0.8282  1.4449
 1052SOL    MW4 3976   0.145   6.419   6.340 -0.0134 -0.6985  0.1088
 1053SOL     OW 3977   4.015   1.264   0.750 -0.1939 -0.5805 -0.5982
 1053SOL    HW2 3978   4.090   1.316   0.719 -0.6044 -0.5994 -1.6805
 1053SOL    HW3 3979   3.940   1.322   0.740 -0.3379 -0.5418  0.5382
 1053SOL    MW4 3980   4.015   1.278   0.744 -0.2671 -0.5779 -0.5910
 1054SOL     OW 3981   2.434   3.280   2.917  0.5632  0.4468 -0.1711
 1054SOL    HW2 3982   2.435   3.242   3.004 -2.6229 -0.4884 -0.4210
 1054SOL    HW3 3983   2.375   3.355   2.924  1.8016  1.5791 -1.1404
 1054SOL    MW4 3984   2.427   3.285   2.929  0.3062  0.4728 -0.3320
 1055SOL     OW 3985   0.481   0.687   0.496 -0.3984 -0.4159 -0.1192
 1055SOL    HW2 3986   0.395   0.655   0.469 -0.4292 -0.7372  0.3489
 1055SOL    HW3 3987   0.518   0.616   0.548  0.2271 -0.3505 -0.4625
 1055SOL    MW4 3988   0.475   0.673   0.499 -0.3199 -0.4496 -0.1027
 1056SOL     OW 3989   5.278   2.064   2.280  0.0184  0.2410 -0.5870
 1056SOL    HW2 3990   5.348   2.040   2.220  0.0890  1.8655 -1.1958
 1056SOL    HW3 3991   5.220   2.121   2.229 -0.3732  0.9786  0.6425
 1056SOL    MW4 3992   5.279   2.068   2.265 -0.0239  0.5526 -0.5051
 1057SOL     OW 3993   4.648   5.933   3.011 -0.4321 -0.3539 -0.2773
 1057SOL    HW2 3994   4.562   5.923   2.971 -0.5928  0.3121 -0.1064
 1057SOL    HW3 3995   4.631   5.925   3.105  0.2629 -4.4525 -0.3129
 1057SOL    MW4 3996   4.634   5.930   3.018 -0.3616 -0.8068 -0.2595
 1058SOL     OW 3997   4.043   1.122   0.053 -0.0048 -0.0945  0.1803
 1058SOL    HW2 3998   4.116   1.068   0.023 -0.0115 -0.1501  0.2627
 1058SOL    HW3 3999   4.058   1.208   0.013  0.2426 -0.0332  0.3992
 1058SOL    MW4 4000   4.054   1.126   0.044  0.0270 -0.0937  0.2201
 1059SOL     OW 4001   1.101   0.414   4.523  0.4873  0.0334 -0.4353
 1059SOL    HW2 4002   1.174   0.362   4.557 -1.2742 -1.5162  1.2655
 1059SOL    HW3 4003   1.030   0.350   4.511 -0.5371  1.4257 -2.2377
 1059SOL    MW4 4004   1.101   0.399   4.526  0.1198  0.0126 -0.4487
 1060SOL     OW 4005   1.422   0.271   3.692 -0.6053  0.0142 -0.2518
 1060SOL    HW2 4006   1.344   0.219   3.708 -1.8343  1.6967 -0.4957
 1060SOL    HW3 4007   1.414   0.301   3.602  0.0934  0.5644 -0.1444
 1060SOL    MW4 4008   1.411   0.268   3.682 -0.6753  0.3088 -0.2698
 1061SOL     OW 4009   4.612   4.848   4.896 -0.2707  0.2127 -0.0589
 1061SOL    HW2 4010   4.637   4.756   4.881 -0.2682  0.3212 -0.7874
 1061SOL    HW3 4011   4.632   4.891   4.813 -1.2894  0.6511 -0.0881
 1061SOL    MW4 4012   4.618   4.841   4.883 -0.4048  0.2848 -0.1588
 1062SOL     OW 4013   6.025   6.068   4.245  0.0602 -0.5144 -0.8840
 1062SOL    HW2 4014   5.957   6.127   4.276  0.3435 -0.5132 -0.2463
 1062SOL    HW3 4015   6.001   5.982   4.281  0.7684 -0.3767 -0.0603
 1062SOL    MW4 4016   6.013   6.064   4.254  0.1910 -0.4961 -0.6912
 1063SOL     OW 4017   6.092   0.436   2.439 -0.1075 -0.0272  0.9153
 1063SOL    HW2 4018   6.033   0.365   2.466  1.1339 -2.1819 -1.5703
 1063SOL    HW3 4019   6.034   0.505   2.407 -1.3693  0.3348  3.6476
 1063SOL    MW4 4020   6.076   0.436   2.438 -0.1102 -0.2638  0.9478
 1064SOL     OW 4021   0.299   1.354   3.400 -0.5145 -0.5746 -0.4793
 1064SOL    HW2 4022   0.265   1.323   3.484 -0.0822  1.1062  0.3545
 1064SOL    HW3 4023   0.244   1.310   3.334 -2.2188 -0.3551  0.7269
 1064SOL    MW4 4024   0.287   1.344   3.402 -0.6823 -0.3239 -0.2102
 1065SOL     OW 4025   4.825   1.316   5.475  0.4740 -0.2151  0.4738
 1065SOL    HW2 4026   4.775   1.346   5.551  0.1004 -0.2422  0.2412
 1065SOL    HW3 4027   4.768   1.251   5.434  0.0024  0.9145 -0.7151
 1065SOL    MW4 4028   4.811   1.311   5.480  0.3625 -0.0696  0.2862
 1066SOL     OW 4029   2.904   0.134   0.354 -0.2182 -0.0369 -0.1612
 1066SOL    HW2 4030   2.987   0.181   0.355  1.0133 -2.1043 -0.7053
 1066SOL    HW3 4031   2.841   0.198   0.320  1.6551  0.8374 -2.2857
 1066SOL    MW4 4032   2.906   0.149   0.349  0.1914 -0.1943 -0.5133
 1067SOL     OW 4033   1.377   6.074   1.881  0.7697 -0.6581 -0.1869
 1067SOL    HW2 4034   1.375   6.169   1.868 -2.5710 -0.4241  1.0742
 1067SOL    HW3 4035   1.438   6.060   1.953 -1.6555  1.0752  2.3701
 1067SOL    MW4 4036   1.385   6.085   1.889  0.0089 -0.3986  0.3169
 1068SOL     OW 4037   4.302   4.645   0.461  0.0257 -0.1255  0.6465
 1068SOL    HW2 4038   4.286   4.739   0.457 -0.4477 -0.1555  1.6091
 1068SOL    HW3 4039   4.376   4.631   0.401  0.1348  0.8578  0.5311
 1068SOL    MW4 4040   4.310   4.655   0.453 -0.0224  0.0003  0.7583
 1069SOL     OW 4041   1.553   5.355   1.207 -0.2471 -0.4323  0.1568
 1069SOL    HW2 4042   1.615   5.309   1.150 -1.1400 -1.5021  0.0167
 1069SOL    HW3 4043   1.536   5.438   1.163  0.8740 -0.2407  0.0669
 1069SOL    MW4 4044   1.559   5.360   1.194 -0.2170 -0.5482  0.1265
 1070SOL     OW 4045   5.861   3.703   0.370 -0.3421 -0.5616 -0.0567
 1070SOL    HW2 4046   5.858   3.794   0.399  2.3417 -0.2661 -0.4565
 1070SOL    HW3 4047   5.889   3.654   0.448  2.2517 -0.3976 -0.7697
 1070SOL    MW4 4048   5.864   3.708   0.384  0.3542 -0.5010 -0.2035
 1071SOL     OW 4049   2.265   4.233   0.883 -0.6851 -0.2236 -0.0801
 1071SOL    HW2 4050   2.337   4.181   0.919 -1.8620 -1.8772 -0.0008
 1071SOL    HW3 4051   2.272   4.317   0.929  1.0104 -0.4351  0.1163
 1071SOL    MW4 4052   2.275   4.237   0.894 -0.6167 -0.4697 -0.0437
 1072SOL     OW 4053   5.226   1.726   5.881 -0.2221  0.3313 -0.8927
 1072SOL    HW2 4054   5.244   1.777   5.802  1.4171  3.0203  1.0417
 1072SOL    HW3 4055   5.310   1.689   5.906 -0.7030 -0.4195 -0.3516
 1072SOL    MW4 4056   5.239   1.728   5.874 -0.0693  0.5870 -0.5661
 1073SOL     OW 4057   5.481   2.291   4.576 -0.1036  0.1768  0.1594
 1073SOL    HW2 4058   5.397   2.253   4.604 -1.3765  2.6630  0.0512
 1073SOL    HW3 4059   5.477   2.288   4.480  0.3335 -0.4730  0.1578
 1073SOL    MW4 4060   5.469   2.285   4.567 -0.2139  0.4191  0.1449
 1074SOL     OW 4061   2.918   6.309   1.955  0.1961  0.1916  0.1541
 1074SOL    HW2 4062   2.873   6.231   1.986 -0.7067  0.4440 -0.4765
 1074SOL    HW3 4063   2.999   6.276   1.916  1.0182 -0.1914  2.0650
 1074SOL    MW4 4064   2.922   6.295   1.954  0.1854  0.1744  0.3230
 1075SOL     OW 4065   3.546   3.721   6.188  0.1367 -0.1787  0.3337
 1075SOL    HW2 4066   3.563   3.811   6.215 -0.5961  1.2694 -3.4180
 1075SOL    HW3 4067   3.632   3.679   6.188  0.5793  0.6717  1.4734
 1075SOL    MW4 4068   3.559   3.727   6.192  0.0984  0.1246 -0.0109
 1076SOL     OW 4069   1.017   4.713   2.130 -0.2774 -0.2788 -0.2349
 1076SOL    HW2 4070   1.046   4.629   2.165  0.4775  0.1734  0.2590
 1076SOL    HW3 4071   1.036   4.708   2.036 -2.8936 -1.7458 -0.7981
 1076SOL    MW4 4072   1.024   4.701   2.122 -0.5230 -0.4127 -0.2440
 1077SOL     OW 4073   4.267   6.141   4.561 -0.4651  0.5705  0.0810
 1077SOL    HW2 4074   4.172   6.146   4.552 -0.7048 -0.8050  1.4257
 1077SOL    HW3 4075   4.283   6.148   4.655  0.6237 -0.7003  0.0264
 1077SOL    MW4 4076   4.256   6.142   4.572 -0.3531  0.2213  0.2512
 1078SOL     OW 4077   6.177   3.014   3.664 -0.1544  0.2225 -0.3396
 1078SOL    HW2 4078   6.158   2.928   3.627  2.8873 -0.8477  0.2523
 1078SOL    HW3 4079   6.252   3.046   3.613 -0.0258  1.6371  0.6872
 1078SOL    MW4 4080   6.184   3.007   3.653  0.2639  0.2680 -0.1260
 1079SOL     OW 4081   0.611   2.210   0.046 -0.0334 -0.0376 -0.1490
 1079SOL    HW2 4082   0.529   2.181   0.086  0.2202 -0.4015  0.1078
 1079SOL    HW3 4083   0.592   2.299   0.014  0.2763  1.0475  2.4527
 1079SOL    MW4 4084   0.598   2.218   0.047  0.0409  0.0576  0.2282
 1080SOL     OW 4085   3.340   0.234   4.072  0.2915 -0.0588 -0.1450
 1080SOL    HW2 4086   3.302   0.320   4.054 -1.0239 -0.5013  0.3906
 1080SOL    HW3 4087   3.426   0.236   4.030 -0.2125  1.0844 -1.1703
 1080SOL    MW4 4088   3.346   0.246   4.064  0.0515  0.0336 -0.2096
 1081SOL     OW 4089   2.928   1.722   3.935  0.1576  0.2599  0.1182
 1081SOL    HW2 4090   2.963   1.634   3.926 -1.1296 -0.3756  1.0874
 1081SOL    HW3 4091   2.852   1.724   3.876 -0.9787  0.0524  1.5089
 1081SOL    MW4 4092   2.922   1.711   3.926 -0.1622  0.1487  0.4296
 1082SOL     OW 4093   0.979   4.921   6.171  0.3048 -0.2573  0.5259
 1082SOL    HW2 4094   0.916   4.852   6.193  0.3190 -0.4166  0.0850
 1082SOL    HW3 4095   1.039   4.880   6.109 -1.4900  0.9399 -2.2056
 1082SOL    MW4 4096   0.978   4.907   6.166  0.0699 -0.1204  0.1074
 1083SOL     OW 4097   4.994   1.934   3.833  0.7604 -0.3355  0.3075
 1083SOL    HW2 4098   4.992   1.950   3.739 -0.1365 -0.6225  0.2692
 1083SOL    HW3 4099   5.087   1.941   3.857  0.8623  0.9514 -0.3804
 1083SOL    MW4 4100   5.006   1.937   3.824  0.6555 -0.2036  0.2117
 1084SOL     OW 4101   3.592   4.240   2.471  0.0313 -0.0402  0.4622
 1084SOL    HW2 4102   3.674   4.272   2.434 -1.2648  0.8091 -1.9379
 1084SOL    HW3 4103   3.576   4.157   2.425 -0.3908 -0.2467  0.9771
 1084SOL    MW4 4104   3.601   4.233   2.460 -0.1954  0.0446  0.2135
 1085SOL     OW 4105   5.700   5.491   5.113  0.0407 -0.0857  0.2287
 1085SOL    HW2 4106   5.627   5.546   5.087 -0.5057  0.1361  2.1568
 1085SOL    HW3 4107   5.767   5.508   5.047 -1.4487  0.0385 -1.3202
 1085SOL    MW4 4108   5.700   5.500   5.101 -0.2279 -0.0401  0.2787
 1086SOL     OW 4109   1.093   5.257   1.424 -0.2599  0.3564  0.0060
 1086SOL    HW2 4110   1.163   5.217   1.475 -0.3601  0.1192 -0.0388
 1086SOL    HW3 4111   1.036   5.184   1.399  0.2331  0.3376 -1.1419
 1086SOL    MW4 4112   1.095   5.242   1.427 -0.2081  0.3227 -0.1514
 1087SOL     OW 4113   2.996   2.053   6.202  0.2554 -0.1964 -0.5031
 1087SOL    HW2 4114   2.970   2.075   6.112 -0.5108 -0.1428 -0.2785
 1087SOL    HW3 4115   3.060   2.120   6.225 -0.7736  0.7978 -0.4392
 1087SOL    MW4 4116   3.001   2.065   6.193  0.0185 -0.0581 -0.4650
 1088SOL     OW 4117   2.830   1.901   3.278 -0.3092  0.2552  0.1325
 1088SOL    HW2 4118   2.782   1.893   3.360  1.2874 -1.9785  0.9615
 1088SOL    HW3 4119   2.792   1.834   3.221  1.0646 -0.8391  0.4485
 1088SOL    MW4 4120   2.819   1.891   3.282  0.0827 -0.1839  0.2836
 1089SOL     OW 4121   1.688   3.949   2.790 -0.8250  0.1890  0.3773
 1089SOL    HW2 4122   1.723   3.868   2.752 -0.9322 -0.0842  0.8496
 1089SOL    HW3 4123   1.600   3.957   2.753 -0.9927 -0.1649  0.6906
 1089SOL    MW4 4124   1.681   3.939   2.780 -0.8613  0.1062  0.4809
 1090SOL     OW 4125   4.037   2.837   5.945  0.1581 -0.4395 -0.1109
 1090SOL    HW2 4126   3.948   2.818   5.976  0.6899 -0.0362  1.8248
 1090SOL    HW3 4127   4.027   2.914   5.889 -0.4829  1.0051  1.8819
 1090SOL    MW4 4128   4.024   2.844   5.942  0.1437 -0.1957  0.4074
 1091SOL     OW 4129   3.885   0.096   3.704 -0.3239  0.2329 -0.0511
 1091SOL    HW2 4130   3.975   0.075   3.678 -0.4046  1.5783 -1.5425
 1091SOL    HW3 4131   3.866   0.179   3.662 -2.7233 -0.6289 -0.8324
 1091SOL    MW4 4132   3.895   0.104   3.695 -0.6511  0.2967 -0.3510
 1092SOL     OW 4133   0.069   4.015   1.048 -0.4442 -0.1068 -0.2948
 1092SOL    HW2 4134   0.078   3.996   1.141  0.0445  0.1300 -0.2942
 1092SOL    HW3 4135  -0.026   4.026   1.035 -0.5813 -0.8702  0.0231
 1092SOL    MW4 4136   0.057   4.014   1.058 -0.3978 -0.1763 -0.2528
 1093SOL     OW 4137   6.263   4.574   4.450 -0.6195  0.5560  0.3281
 1093SOL    HW2 4138   6.341   4.617   4.415 -1.1487  1.7070  0.5049
 1093SOL    HW3 4139   6.261   4.599   4.542  0.5285 -2.1062  1.1632
 1093SOL    MW4 4140   6.273   4.583   4.457 -0.5378  0.3566  0.4616
 1094SOL     OW 4141   2.080   2.185   0.956  0.3689  0.2201  0.7272
 1094SOL    HW2 4142   2.165   2.189   0.912 -0.5782  0.8198 -1.1025
 1094SOL    HW3 4143   2.083   2.103   1.006  1.5896 -0.3332 -0.2126
 1094SOL    MW4 4144   2.092   2.174   0.957  0.4050  0.2262  0.3618
 1095SOL     OW 4145   5.921   3.222   5.040  0.7378  0.3276  0.1485
 1095SOL    HW2 4146   5.891   3.240   4.951  2.7984 -0.3719 -0.7678
 1095SOL    HW3 4147   6.013   3.197   5.029  1.2857  1.0172  2.5768
 1095SOL    MW4 4148   5.929   3.221   5.027  1.0820  0.3263  0.3480
 1096SOL     OW 4149   5.406   1.428   3.599 -0.0096 -0.1128  0.5193
 1096SOL    HW2 4150   5.469   1.477   3.546 -0.3679 -1.5791 -1.3605
 1096SOL    HW3 4151   5.428   1.451   3.689  0.9017  2.1566 -0.2087
 1096SOL    MW4 4152   5.417   1.437   3.604  0.0633 -0.0068  0.1752
 1097SOL     OW 4153   0.844   2.841   1.017 -0.5046 -0.3753 -0.1310
 1097SOL    HW2 4154   0.893   2.889   1.084  0.1846 -0.0936 -0.8262
 1097SOL    HW3 4155   0.879   2.873   0.934 -0.1341 -1.9553 -0.6207
 1097SOL    MW4 4156   0.855   2.851   1.015 -0.3648 -0.5466 -0.2874
 1098SOL     OW 4157   2.984   0.529   2.153  0.0473  0.3382 -0.5656
 1098SOL    HW2 4158   2.985   0.476   2.074 -1.6311 -0.1417 -0.2881
 1098SOL    HW3 4159   2.907   0.585   2.145  1.4172  2.3342 -0.5544
 1098SOL    MW4 4160   2.974   0.529   2.142  0.0066  0.5382 -0.5275
 1099SOL     OW 4161   2.493   3.284   2.012 -0.3589  0.0606 -0.1322
 1099SOL    HW2 4162   2.542   3.286   2.094 -0.9762 -1.5665  0.3127
 1099SOL    HW3 4163   2.410   3.325   2.032 -0.4753 -0.2574  0.0463
 1099SOL    MW4 4164   2.489   3.289   2.026 -0.4557 -0.1961 -0.0499
 1100SOL     OW 4165   1.734   6.252   0.961 -0.0175 -0.4780 -0.0801
 1100SOL    HW2 4166   1.796   6.276   0.892  0.2616 -1.8748 -0.3419
 1100SOL    HW3 4167   1.659   6.216   0.915 -0.3719 -0.2467  0.3041
 1100SOL    MW4 4168   1.733   6.250   0.946 -0.0274 -0.6317 -0.0639
 1101SOL     OW 4169   1.250   4.562   5.805 -0.0845 -0.0975 -0.4422
 1101SOL    HW2 4170   1.330   4.576   5.855 -0.6494 -1.1818  0.8146
 1101SOL    HW3 4171   1.209   4.649   5.800 -0.1705 -0.0137  1.2905
 1101SOL    MW4 4172   1.255   4.575   5.811 -0.1704 -0.2295 -0.0477
 1102SOL     OW 4173   4.215   4.814   4.262 -0.0353 -0.2665 -0.1793
 1102SOL    HW2 4174   4.234   4.901   4.298 -2.2505 -0.1129  0.7466
 1102SOL    HW3 4175   4.265   4.754   4.317  1.0613  0.3354 -0.4673
 1102SOL    MW4 4176   4.224   4.818   4.274 -0.1829 -0.1668 -0.0952
 1103SOL     OW 4177   0.480   5.241   2.442  0.3292  0.3305  0.0708
 1103SOL    HW2 4178   0.474   5.286   2.357  0.2780 -1.7522 -1.1062
 1103SOL    HW3 4179   0.395   5.257   2.483 -1.1644 -1.6586 -1.9603
 1103SOL    MW4 4180   0.468   5.249   2.436  0.1254 -0.2067 -0.3524
 1104SOL     OW 4181   4.901   4.575   1.685 -0.1283 -0.7436  0.0988
 1104SOL    HW2 4182   4.968   4.523   1.730  0.1882 -0.0236  0.4591
 1104SOL    HW3 4183   4.890   4.530   1.601  3.3973  1.0586 -1.5498
 1104SOL    MW4 4184   4.909   4.562   1.679  0.3786 -0.4108 -0.0712
 1105SOL     OW 4185   0.200   0.161   3.031  0.4509 -0.1637 -0.4376
 1105SOL    HW2 4186   0.142   0.125   3.098  1.4799 -0.1790  0.4736
 1105SOL    HW3 4187   0.178   0.254   3.026  0.8753 -0.0009  0.4868
 1105SOL    MW4 4188   0.190   0.168   3.039  0.6427 -0.1443 -0.1954
 1106SOL     OW 4189   2.811   1.746   4.505  0.7411 -0.5905 -0.1066
 1106SOL    HW2 4190   2.788   1.655   4.484 -3.4371  0.8851 -3.4900
 1106SOL    HW3 4191   2.736   1.780   4.553  1.5173  1.4632 -0.2252
 1106SOL    MW4 4192   2.798   1.738   4.508  0.2923 -0.1249 -0.5686
 1107SOL     OW 4193   4.212   4.217   5.751  0.1019 -0.0525  0.0338
 1107SOL    HW2 4194   4.213   4.301   5.798  1.3256 -1.0109  1.8070
 1107SOL    HW3 4195   4.224   4.151   5.819  1.2563 -1.5547 -1.5478
 1107SOL    MW4 4196   4.213   4.220   5.766  0.4157 -0.3771  0.0591
 1108SOL     OW 4197   0.245   2.374   3.784  1.1557  0.0720 -0.2546
 1108SOL    HW2 4198   0.330   2.401   3.750  0.4722  3.1006  0.1945
 1108SOL    HW3 4199   0.191   2.361   3.706  1.6205 -0.5009 -0.4908
 1108SOL    MW4 4200   0.249   2.376   3.769  1.1269  0.3960 -0.2265
 1109SOL     OW 4201   3.854   4.458   3.743 -0.8749 -0.0774 -0.1440
 1109SOL    HW2 4202   3.817   4.496   3.822 -0.3918 -0.7035  0.3978
 1109SOL    HW3 4203   3.784   4.405   3.707 -1.6407  1.4882 -1.0498
 1109SOL    MW4 4204   3.840   4.456   3.749 -0.9122  0.0466 -0.1920
 1110SOL     OW 4205   2.305   5.157   3.004  0.1500  0.0039  0.2694
 1110SOL    HW2 4206   2.243   5.215   3.049  0.0090  0.5922 -0.6516
 1110SOL    HW3 4207   2.364   5.127   3.073  0.3012  1.3490  0.7630
 1110SOL    MW4 4208   2.304   5.161   3.019  0.1513  0.2590  0.2130
 1111SOL     OW 4209   2.182   0.605   2.129  0.4875 -0.3881  0.1018
 1111SOL    HW2 4210   2.225   0.555   2.198  2.2126 -0.2337 -0.8144
 1111SOL    HW3 4211   2.118   0.660   2.175 -0.1180 -2.0111  1.3080
 1111SOL    MW4 4212   2.179   0.606   2.144  0.6352 -0.5819  0.1400
 1112SOL     OW 4213   1.950   1.614   4.913  0.1901 -0.1653  0.9930
 1112SOL    HW2 4214   1.893   1.555   4.960 -1.1077  0.8219  0.7309
 1112SOL    HW3 4215   1.893   1.686   4.886  1.6539  1.1123  1.1348
 1112SOL    MW4 4216   1.935   1.616   4.915  0.2120  0.1335  0.9771
 1113SOL     OW 4217   5.463   0.555   6.090 -0.1942  0.5493 -0.9604
 1113SOL    HW2 4218   5.496   0.629   6.040  2.2137  2.0771  2.4897
 1113SOL    HW3 4219   5.540   0.501   6.107 -1.3287 -1.0678 -0.7568
 1113SOL    MW4 4220   5.478   0.558   6.086 -0.0262  0.5375 -0.4783
 1114SOL     OW 4221   3.724   1.788   1.060 -0.1307  0.4469 -0.3274
 1114SOL    HW2 4222   3.747   1.789   1.153  0.1643 -0.5945 -0.3672
 1114SOL    HW3 4223   3.775   1.859   1.022 -0.4349  1.0335  0.3463
 1114SOL    MW4 4224   3.734   1.797   1.067 -0.1319  0.3869 -0.2438
 1115SOL     OW 4225   3.744   4.542   3.974 -0.0083  0.1438 -0.6184
 1115SOL    HW2 4226   3.666   4.578   3.930  1.2400  0.4030 -2.7732
 1115SOL    HW3 4227   3.768   4.609   4.038 -2.5873 -0.7815  1.5324
 1115SOL    MW4 4228   3.737   4.556   3.976 -0.1839  0.0559 -0.6190
 1116SOL     OW 4229   0.999   0.166   4.867  0.2669 -0.2211 -0.0313
 1116SOL    HW2 4230   0.993   0.232   4.936 -1.6131  1.1974 -1.4634
 1116SOL    HW3 4231   1.080   0.186   4.821 -0.7993  1.8962 -1.1350
 1116SOL    MW4 4232   1.009   0.177   4.870 -0.1218  0.2454 -0.3658
 1117SOL     OW 4233   2.902   3.706   1.166 -0.1148 -0.7078 -0.1569
 1117SOL    HW2 4234   2.956   3.760   1.108 -0.0089 -2.1227 -1.4348
 1117SOL    HW3 4235   2.947   3.622   1.169  0.4961 -0.3829  2.9327
 1117SOL    MW4 4236   2.915   3.702   1.159 -0.0202 -0.8516  0.0821
 1118SOL     OW 4237   1.053   2.109   2.078 -0.2798 -0.3643 -0.0151
 1118SOL    HW2 4238   1.001   2.034   2.047  1.9209 -1.3320 -1.6384
 1118SOL    HW3 4239   1.091   2.079   2.160  1.3070 -1.4651 -1.0924
 1118SOL    MW4 4240   1.051   2.095   2.084  0.2199 -0.6372 -0.3714
 1119SOL     OW 4241   1.979   0.995   3.347  0.1255  0.0443 -0.4262
 1119SOL    HW2 4242   1.964   0.928   3.413 -0.6350  0.4239 -0.1992
 1119SOL    HW3 4243   2.067   1.029   3.366  0.5194 -0.8841 -0.5586
 1119SOL    MW4 4244   1.989   0.991   3.358  0.0771 -0.0281 -0.4137
 1120SOL     OW 4245   0.843   4.090   4.071  0.4638  0.0625  0.3163
 1120SOL    HW2 4246   0.817   4.177   4.100 -1.9499  0.2839 -2.1230
 1120SOL    HW3 4247   0.902   4.105   3.997  1.5561 -0.4321  1.0604
 1120SOL    MW4 4248   0.848   4.103   4.065  0.2895  0.0264  0.0926
 1121SOL     OW 4249   2.312   0.754   1.943 -0.4720 -0.4195 -0.1541
 1121SOL    HW2 4250   2.278   0.704   2.017  1.1909 -0.9490  0.2783
 1121SOL    HW3 4251   2.379   0.810   1.980  1.0998 -1.4152 -1.3756
 1121SOL    MW4 4252   2.316   0.755   1.957 -0.0452 -0.6208 -0.2582
 1122SOL     OW 4253   5.157   4.874   6.286 -0.7596  0.5895 -0.5096
 1122SOL    HW2 4254   5.171   4.896   6.194  1.6357  0.8618 -0.1440
 1122SOL    HW3 4255   5.196   4.787   6.297  0.1757  1.0928  0.4721
 1122SOL    MW4 4256   5.164   4.866   6.276 -0.3201  0.6918 -0.3318
 1123SOL     OW 4257   5.386   1.821   0.285 -0.5752  0.2528  0.5379
 1123SOL    HW2 4258   5.392   1.903   0.335  2.6884  0.5835 -0.1747
 1123SOL    HW3 4259   5.395   1.848   0.194 -0.7006 -0.8407  0.1933
 1123SOL    MW4 4260   5.388   1.836   0.280 -0.1611  0.1521  0.3984
 1124SOL     OW 4261   3.497   2.716   2.004 -0.3840  0.2499  0.3013
 1124SOL    HW2 4262   3.410   2.676   2.001 -0.3613  0.1974  0.3397
 1124SOL    HW3 4263   3.500   2.772   1.926  0.1580 -0.9920 -0.5893
 1124SOL    MW4 4264   3.486   2.718   1.993 -0.3095  0.0791  0.1889
 1125SOL     OW 4265   3.488   5.569   5.120 -0.8963 -0.1262  0.3897
 1125SOL    HW2 4266   3.464   5.661   5.104 -0.4264  0.2191  1.5417
 1125SOL    HW3 4267   3.584   5.571   5.127 -0.9167 -0.6358  0.8416
 1125SOL    MW4 4268   3.498   5.582   5.119 -0.8370 -0.1479  0.6013
 1126SOL     OW 4269   4.880   2.575   3.568  0.4244  0.4605  0.3870
 1126SOL    HW2 4270   4.936   2.563   3.492 -0.0529 -1.7694  0.3304
 1126SOL    HW3 4271   4.895   2.497   3.622 -1.1736  0.7316  1.2927
 1126SOL    MW4 4272   4.889   2.563   3.565  0.1506  0.2021  0.4990
 1127SOL     OW 4273   3.417   4.328   4.953  0.3810 -0.4422  0.1799
 1127SOL    HW2 4274   3.350   4.349   4.888  0.0321  0.0656  0.6934
 1127SOL    HW3 4275   3.450   4.243   4.926  0.4544 -0.1092 -0.8332
 1127SOL    MW4 4276   3.413   4.320   4.941  0.3446 -0.3313  0.1140
 1128SOL     OW 4277   1.328   3.869   0.358  0.6635 -0.0711 -0.1689
 1128SOL    HW2 4278   1.320   3.940   0.296  0.5765 -0.4484 -0.5942
 1128SOL    HW3 4279   1.238   3.838   0.371  0.7384 -0.3298 -0.2553
 1128SOL    MW4 4280   1.315   3.874   0.352  0.6619 -0.1550 -0.2364
 1129SOL     OW 4281   0.413   5.550   0.044  0.1721 -0.1390 -0.3839
 1129SOL    HW2 4282   0.428   5.535  -0.049 -0.3848 -0.0333 -0.4942
 1129SOL    HW3 4283   0.490   5.512   0.087  0.7226  0.3494 -0.9219
 1129SOL    MW4 4284   0.425   5.543   0.037  0.1713 -0.0606 -0.4694
 1130SOL     OW 4285   3.455   3.832   5.787  0.0346 -0.6788  0.1477
 1130SOL    HW2 4286   3.459   3.863   5.878 -1.5355  1.2706 -0.3812
 1130SOL    HW3 4287   3.529   3.875   5.744 -1.0459  0.9493 -0.1576
 1130SOL    MW4 4288   3.465   3.842   5.793 -0.3151 -0.2068  0.0376
 1131SOL     OW 4289   2.525   5.748   3.158  0.2703  0.1801  0.5221
 1131SOL    HW2 4290   2.527   5.704   3.243 -0.0050 -0.7283  0.0641
 1131SOL    HW3 4291   2.598   5.710   3.109 -1.1798 -1.2943 -0.6028
 1131SOL    MW4 4292   2.534   5.737   3.163  0.0426 -0.1343  0.3132
 1132SOL     OW 4293   0.469   1.989   0.206  0.1711  0.0416  0.3627
 1132SOL    HW2 4294   0.492   1.951   0.122 -0.1187 -1.2123  0.8164
 1132SOL    HW3 4295   0.548   1.981   0.259  0.2132  0.3911  0.3529
 1132SOL    MW4 4296   0.482   1.983   0.202  0.1384 -0.0777  0.4213
 1133SOL     OW 4297   3.046   1.311   0.011 -0.6135 -0.2145 -0.2507
 1133SOL    HW2 4298   2.960   1.303   0.050 -0.1288 -1.5021  0.6237
 1133SOL    HW3 4299   3.081   1.222   0.010  0.6309  0.2466 -0.7612
 1133SOL    MW4 4300   3.040   1.299   0.016 -0.3853 -0.3235 -0.2027
 1134SOL     OW 4301   0.310   4.204   0.716  0.1698  0.0369  0.4895
 1134SOL    HW2 4302   0.317   4.245   0.802  0.2335 -0.6928  0.8452
 1134SOL    HW3 4303   0.376   4.135   0.717  0.7104  0.5316 -0.4463
 1134SOL    MW4 4304   0.319   4.200   0.727  0.2495  0.0059  0.4130
 1135SOL     OW 4305   2.377   1.893   3.238 -0.4630  0.0112  0.3029
 1135SOL    HW2 4306   2.452   1.952   3.228 -0.3828  0.2966  2.2945
 1135SOL    HW3 4307   2.301   1.948   3.220 -0.2558 -0.4233 -2.3505
 1135SOL    MW4 4308   2.377   1.908   3.234 -0.4251 -0.0085  0.2156
 1136SOL     OW 4309   3.556   3.928   2.589 -0.3265  0.1403  0.0763
 1136SOL    HW2 4310   3.470   3.956   2.619  0.3444  0.6660  1.6097
 1136SOL    HW3 4311   3.617   3.991   2.627  0.6574  0.6691 -2.1750
 1136SOL    MW4 4312   3.553   3.940   2.598 -0.1082  0.2794 -0.0184
 1137SOL     OW 4313   1.958   0.402   0.950 -0.2390 -0.0281  0.4566
 1137SOL    HW2 4314   1.881   0.405   0.894 -0.5175  1.8637  0.8877
 1137SOL    HW3 4315   1.932   0.347   1.024 -1.0472  0.2644  0.3985
 1137SOL    MW4 4316   1.945   0.395   0.953 -0.3823  0.2601  0.5058
 1138SOL     OW 4317   5.705   5.520   2.411  0.4589  0.4927  0.1032
 1138SOL    HW2 4318   5.779   5.570   2.380 -0.2086  0.0101 -2.4459
 1138SOL    HW3 4319   5.744   5.448   2.461  1.6749  0.5656 -0.7085
 1138SOL    MW4 4320   5.720   5.517   2.414  0.5313  0.4386 -0.3402
 1139SOL     OW 4321   4.674   4.556   5.965  0.1200  0.8896  0.1790
 1139SOL    HW2 4322   4.618   4.489   5.927  1.1056  0.8466 -1.2554
 1139SOL    HW3 4323   4.712   4.515   6.042 -0.6386  0.4180  0.3118
 1139SOL    MW4 4324   4.671   4.542   5.970  0.1500  0.8217  0.0073
 1140SOL     OW 4325   0.874   0.472   3.443  0.1959  0.1628  0.7489
 1140SOL    HW2 4326   0.959   0.447   3.407 -0.3069  1.2389 -1.3749
 1140SOL    HW3 4327   0.862   0.563   3.415 -0.8255  0.6621  2.6597
 1140SOL    MW4 4328   0.884   0.481   3.435 -0.0052  0.3706  0.7208
 1141SOL     OW 4329   1.018   1.685   4.908  0.0296  0.6474  0.7243
 1141SOL    HW2 4330   1.063   1.738   4.974 -0.5169  0.6688  1.0866
 1141SOL    HW3 4331   0.925   1.694   4.930 -0.0534 -0.7083  0.9646
 1141SOL    MW4 4332   1.011   1.693   4.919 -0.0535  0.4714  0.8038
 1142SOL     OW 4333   3.710   5.101   4.488 -0.0682  0.1272 -0.4441
 1142SOL    HW2 4334   3.748   5.185   4.513 -0.7233  0.0028  1.0371
 1142SOL    HW3 4335   3.706   5.051   4.569  0.7558 -1.5463 -1.3567
 1142SOL    MW4 4336   3.715   5.106   4.502 -0.0459 -0.1100 -0.3691
 1143SOL     OW 4337   3.126   6.168   0.826 -0.2045 -0.4744 -0.6012
 1143SOL    HW2 4338   3.094   6.084   0.792 -2.2526  0.0433 -0.1428
 1143SOL    HW3 4339   3.210   6.148   0.866 -0.5335 -2.2673 -0.7214
 1143SOL    MW4 4340   3.133   6.155   0.827 -0.5181 -0.6427 -0.5566
 1144SOL     OW 4341   6.108   6.389   5.366  0.1080 -0.3786 -0.3300
 1144SOL    HW2 4342   6.017   6.363   5.381 -0.3097  1.3603  0.4157
 1144SOL    HW3 4343   6.159   6.330   5.420 -0.9581  1.5620  3.1037
 1144SOL    MW4 4344   6.103   6.378   5.375 -0.0878  0.1069  0.2215
 1145SOL     OW 4345   4.848   1.702   4.581  0.2504 -0.2499  0.0819
 1145SOL    HW2 4346   4.873   1.794   4.591 -0.3264 -0.2170  1.5744
 1145SOL    HW3 4347   4.755   1.700   4.603  0.2792 -1.2004  0.1728
 1145SOL    MW4 4348   4.839   1.714   4.586  0.1781 -0.3710  0.2908
 1146SOL     OW 4349   5.320   4.137   0.656 -0.4129  0.0191 -0.4067
 1146SOL    HW2 4350   5.324   4.091   0.740 -0.8959 -2.5319 -1.6956
 1146SOL    HW3 4351   5.228   4.129   0.628 -0.1230  0.2401 -1.4828
 1146SOL    MW4 4352   5.308   4.130   0.663 -0.4384 -0.2883 -0.7187
 1147SOL     OW 4353   4.614   1.177   4.948 -0.0914 -0.6523 -0.2539
 1147SOL    HW2 4354   4.577   1.114   4.886 -1.5787 -0.0219 -0.0355
 1147SOL    HW3 4355   4.680   1.225   4.898 -1.1438 -0.2738 -1.3125
 1147SOL    MW4 4356   4.618   1.175   4.933 -0.4265 -0.5192 -0.3648
 1148SOL     OW 4357   5.127   6.070   1.328  0.4518  0.1003  0.2973
 1148SOL    HW2 4358   5.162   5.994   1.374  2.0633  1.6309  1.7516
 1148SOL    HW3 4359   5.085   6.122   1.396  0.5325  1.1504 -0.4327
 1148SOL    MW4 4360   5.126   6.067   1.343  0.6751  0.4408  0.3929
 1149SOL     OW 4361   5.607   0.331   1.973 -0.1739 -0.1355 -0.1021
 1149SOL    HW2 4362   5.691   0.295   2.001 -0.3095  0.3822  1.0444
 1149SOL    HW3 4363   5.550   0.319   2.049 -1.2342 -0.7563 -0.9703
 1149SOL    MW4 4364   5.610   0.325   1.987 -0.3317 -0.1491 -0.0654
 1150SOL     OW 4365   0.477   3.474   2.907  0.3259 -0.3435  0.4357
 1150SOL    HW2 4366   0.410   3.479   2.840 -1.5661 -3.4686  1.8502
 1150SOL    HW3 4367   0.556   3.447   2.860 -0.4394 -0.5543 -0.7793
 1150SOL    MW4 4368   0.479   3.471   2.892 -0.0247 -0.7836  0.4620
 1151SOL     OW 4369   2.454   3.846   0.127  0.0223  0.1409 -0.0283
 1151SOL    HW2 4370   2.511   3.913   0.164  0.1442  0.2498 -0.4088
 1151SOL    HW3 4371   2.498   3.818   0.047  0.5036 -1.1497  0.6539
 1151SOL    MW4 4372   2.467   3.851   0.121  0.1019 -0.0150  0.0115
 1152SOL     OW 4373   4.953   6.168   2.960  0.2409  0.2610 -0.7985
 1152SOL    HW2 4374   4.946   6.098   3.025  0.4154 -1.3624 -2.4304
 1152SOL    HW3 4375   4.863   6.196   2.944  0.0182 -0.6291 -1.1620
 1152SOL    MW4 4376   4.940   6.162   2.966  0.2346 -0.0706 -1.0617
 1153SOL     OW 4377   3.409   0.471   1.834  0.3306 -0.2091 -0.0132
 1153SOL    HW2 4378   3.480   0.529   1.865 -0.0445  0.3428 -0.1771
 1153SOL    HW3 4379   3.367   0.520   1.764  1.5457 -1.6897 -1.8689
 1153SOL    MW4 4380   3.413   0.485   1.829  0.4414 -0.3316 -0.2796
 1154SOL     OW 4381   2.782   3.854   6.100 -0.0720 -0.3279  0.4458
 1154SOL    HW2 4382   2.792   3.776   6.045 -0.4986  0.0625 -0.1978
 1154SOL    HW3 4383   2.848   3.915   6.068 -0.9468  0.2590 -0.2806
 1154SOL    MW4 4384   2.792   3.852   6.089 -0.2437 -0.1990  0.2650
 1155SOL     OW 4385   2.219   0.434   5.678 -0.2623 -0.2049 -0.1016
 1155SOL    HW2 4386   2.229   0.357   5.734  0.2500  0.1905  0.3593
 1155SOL    HW3 4387   2.264   0.504   5.725  1.8523 -0.2810 -1.8677
 1155SOL    MW4 4388   2.226   0.433   5.691  0.0843 -0.1627 -0.2738
 1156SOL     OW 4389   1.382   4.353   4.966  0.3935 -0.4273  0.6980
 1156SOL    HW2 4390   1.355   4.439   4.933  1.5388 -0.3612 -0.1329
 1156SOL    HW3 4391   1.309   4.295   4.943 -0.6715  0.4042  1.8126
 1156SOL    MW4 4392   1.369   4.357   4.959  0.4041 -0.3088  0.7354
 1157SOL     OW 4393   6.257   4.791   2.551 -0.5529  0.0556  0.0366
 1157SOL    HW2 4394   6.176   4.742   2.564 -1.7713  2.3076  1.3564
 1157SOL    HW3 4395   6.238   4.879   2.580  2.1904  0.8654 -0.2950
 1157SOL    MW4 4396   6.244   4.796   2.556 -0.3517  0.4595  0.1670
 1158SOL     OW 4397   4.164   2.612   5.749 -0.1867 -0.1735 -0.0145
 1158SOL    HW2 4398   4.121   2.665   5.816  0.1030 -0.0019  0.0336
 1158SOL    HW3 4399   4.223   2.672   5.705  2.6149 -1.1458  2.1508
 1158SOL    MW4 4400   4.166   2.627   5.752  0.2211 -0.2791  0.2775
 1159SOL     OW 4401   6.066   4.365   1.465 -0.0323  0.6537  0.1525
 1159SOL    HW2 4402   6.061   4.320   1.381  2.2372 -1.3304  0.9575
 1159SOL    HW3 4403   6.130   4.435   1.451 -0.6847  1.1939 -0.1245
 1159SOL    MW4 4404   6.074   4.368   1.452  0.1810  0.4632  0.2222
 1160SOL     OW 4405   1.781   0.968   4.597  0.6564 -0.0696  0.0339
 1160SOL    HW2 4406   1.716   1.011   4.652  1.3859  0.4313  0.5148
 1160SOL    HW3 4407   1.730   0.910   4.540 -0.2277  0.5169  0.2199
 1160SOL    MW4 4408   1.766   0.966   4.596  0.6360  0.0739  0.1219
 1161SOL     OW 4409   4.188   1.179   1.787  0.2093 -0.0208  0.1206
 1161SOL    HW2 4410   4.262   1.121   1.804 -1.0354 -1.1651  2.0179
 1161SOL    HW3 4411   4.129   1.127   1.733  0.5122  0.7021 -0.9416
 1161SOL    MW4 4412   4.190   1.165   1.783  0.0850 -0.0764  0.2308
 1162SOL     OW 4413   3.426   0.591   5.654 -0.6461 -0.2258  0.0338
 1162SOL    HW2 4414   3.474   0.633   5.725  0.5285 -1.6087  0.1127
 1162SOL    HW3 4415   3.472   0.616   5.574 -0.8204 -0.1842 -0.0538
 1162SOL    MW4 4416   3.438   0.600   5.653 -0.5141 -0.4027  0.0327
 1163SOL     OW 4417   5.355   2.546   5.569  0.1207  0.1475 -0.0091
 1163SOL    HW2 4418   5.267   2.559   5.533  1.2079  0.9202 -2.6073
 1163SOL    HW3 4419   5.354   2.457   5.605 -2.0572  0.5961  1.2092
 1163SOL    MW4 4420   5.343   2.536   5.569 -0.0232  0.3086 -0.1912
 1164SOL     OW 4421   6.321   5.546   2.617 -0.3779  0.0958 -0.1385
 1164SOL    HW2 4422   6.391   5.588   2.667  0.1480 -0.0108 -0.7680
 1164SOL    HW3 4423   6.356   5.540   2.528 -0.2129 -2.1743  0.0365
 1164SOL    MW4 4424   6.335   5.551   2.612 -0.2867 -0.2178 -0.1984
 1165SOL     OW 4425   3.844   0.482   5.750  0.6661 -0.3244 -0.0234
 1165SOL    HW2 4426   3.785   0.415   5.783 -0.7375  0.2407 -1.2764
 1165SOL    HW3 4427   3.854   0.543   5.822  0.3042 -0.8128  0.4434
 1165SOL    MW4 4428   3.838   0.481   5.764  0.4331 -0.3143 -0.1271
 1166SOL     OW 4429   5.550   1.093   1.810 -0.1042  0.1805  0.4278
 1166SOL    HW2 4430   5.615   1.066   1.876  0.3971 -1.8131 -0.8173
 1166SOL    HW3 4431   5.484   1.141   1.861  1.1996  0.3519  2.0779
 1166SOL    MW4 4432   5.550   1.096   1.826  0.1340 -0.0599  0.4813
 1167SOL     OW 4433   0.848   2.638   1.767  0.3012  0.2164 -0.4181
 1167SOL    HW2 4434   0.786   2.607   1.834  0.0704  0.8907 -0.3171
 1167SOL    HW3 4435   0.818   2.597   1.686 -0.3855  0.6662 -0.3986
 1167SOL    MW4 4436   0.836   2.628   1.765  0.1802  0.3647 -0.4022
 1168SOL     OW 4437   1.525   2.685   3.728 -0.6175 -0.3949  0.3871
 1168SOL    HW2 4438   1.519   2.779   3.746 -0.2072  0.6606 -3.8998
 1168SOL    HW3 4439   1.524   2.679   3.633  1.4117 -4.6396  0.4140
 1168SOL    MW4 4440   1.524   2.696   3.718 -0.2957 -0.8156 -0.1750
 1169SOL     OW 4441   5.009   4.821   3.678 -0.3153  0.7459 -0.6392
 1169SOL    HW2 4442   4.926   4.837   3.634 -0.2584  2.1894 -0.2735
 1169SOL    HW3 4443   5.023   4.899   3.732 -0.1038 -0.6700  1.5022
 1169SOL    MW4 4444   5.000   4.833   3.680 -0.2799  0.7496 -0.3084
 1170SOL     OW 4445   3.908   1.207   3.523 -0.8704 -0.2554 -0.2336
 1170SOL    HW2 4446   3.843   1.212   3.594 -0.4260 -1.5502  0.2943
 1170SOL    HW3 4447   3.959   1.128   3.543  0.2722  0.2298 -1.1503
 1170SOL    MW4 4448   3.906   1.197   3.535 -0.6611 -0.3622 -0.2849
 1171SOL     OW 4449   0.266   6.150   2.620  0.2093 -0.7016  0.1094
 1171SOL    HW2 4450   0.175   6.119   2.623  0.3949 -1.2630  0.1575
 1171SOL    HW3 4451   0.285   6.162   2.527 -0.3166  0.6789  0.1516
 1171SOL    MW4 4452   0.256   6.147   2.608  0.1644 -0.5935  0.1213
 1172SOL     OW 4453   3.059   2.877   1.595 -0.1301 -0.5566  0.0611
 1172SOL    HW2 4454   3.112   2.946   1.636  0.6243 -0.3858 -1.1769
 1172SOL    HW3 4455   2.968   2.906   1.608  0.1049 -0.2190  1.0837
 1172SOL    MW4 4456   3.054   2.890   1.602  0.0004 -0.4895  0.0327
 1173SOL     OW 4457   0.030   4.920   3.646 -0.0524 -0.4210 -0.3159
 1173SOL    HW2 4458  -0.056   4.898   3.682 -0.2722 -0.4461 -0.8490
 1173SOL    HW3 4459   0.011   4.972   3.568  0.4367  0.9713  0.4579
 1173SOL    MW4 4460   0.016   4.924   3.640 -0.0168 -0.2406 -0.2842
 1174SOL     OW 4461   1.457   0.510   0.394  0.9831 -0.4842  0.2886
 1174SOL    HW2 4462   1.539   0.535   0.436  1.6079 -0.0955 -1.1109
 1174SOL    HW3 4463   1.479   0.435   0.339  0.4197 -0.3555 -0.1290
 1174SOL    MW4 4464   1.471   0.503   0.393  0.9912 -0.4159  0.0489
 1175SOL     OW 4465   4.887   3.538   3.481  0.4413  0.2023 -0.3442
 1175SOL    HW2 4466   4.977   3.558   3.455  1.5831 -1.2436  2.1437
 1175SOL    HW3 4467   4.873   3.590   3.560 -0.6554 -0.1446 -0.2945
 1175SOL    MW4 4468   4.897   3.548   3.488  0.4473 -0.0343 -0.0094
 1176SOL     OW 4469   1.596   3.387   5.851  0.0056 -0.1059 -0.1251
 1176SOL    HW2 4470   1.563   3.369   5.939 -3.7245  0.0515 -1.3003
 1176SOL    HW3 4471   1.640   3.471   5.858  1.2933 -0.8670  1.8412
 1176SOL    MW4 4472   1.598   3.395   5.864 -0.3166 -0.1856 -0.0207
 1177SOL     OW 4473   4.253   5.001   1.024 -0.2736  0.3970 -0.2345
 1177SOL    HW2 4474   4.200   5.011   1.103 -1.4894  0.4038 -1.0303
 1177SOL    HW3 4475   4.324   4.942   1.050  0.2058  1.5728  1.2549
 1177SOL    MW4 4476   4.255   4.994   1.038 -0.3707  0.5530 -0.1430
 1178SOL     OW 4477   0.794   0.346   2.544  0.0491  0.3240  0.0459
 1178SOL    HW2 4478   0.881   0.376   2.518 -0.0587  1.4057  0.8943
 1178SOL    HW3 4479   0.797   0.251   2.530  1.2468  0.3930 -0.2770
 1178SOL    MW4 4480   0.806   0.337   2.539  0.1929  0.4758  0.1152
 1179SOL     OW 4481   1.069   3.805   5.539 -0.1330  0.2826  0.4593
 1179SOL    HW2 4482   1.007   3.738   5.568  0.6606 -1.2928 -1.2438
 1179SOL    HW3 4483   1.050   3.815   5.445 -0.2381  2.5012  0.6706
 1179SOL    MW4 4484   1.058   3.798   5.530 -0.0422  0.3675  0.2625
 1180SOL     OW 4485   2.663   5.946   2.928  0.5530  0.4857  0.6935
 1180SOL    HW2 4486   2.702   5.963   2.842  0.5893  0.2712  0.6686
 1180SOL    HW3 4487   2.569   5.954   2.913  0.3779 -1.9270  0.0880
 1180SOL    MW4 4488   2.656   5.949   2.915  0.5347  0.1390  0.6103
 1181SOL     OW 4489   0.568   3.563   3.488 -0.6534  0.1201 -0.5147
 1181SOL    HW2 4490   0.497   3.525   3.539 -0.9797  1.9997  0.5560
 1181SOL    HW3 4491   0.644   3.509   3.507 -0.2270  1.8291  3.7731
 1181SOL    MW4 4492   0.568   3.551   3.497 -0.6402  0.5936  0.1923
 1182SOL     OW 4493   2.292   1.978   4.058  0.3030 -0.0175  0.4906
 1182SOL    HW2 4494   2.286   1.996   3.964 -0.8537 -0.1281  0.5236
 1182SOL    HW3 4495   2.386   1.979   4.077  0.5485  0.0822 -0.6485
 1182SOL    MW4 4496   2.303   1.980   4.048  0.1828 -0.0189  0.3446
 1183SOL     OW 4497   2.496   2.969   1.972 -0.1182  0.3905  0.4016
 1183SOL    HW2 4498   2.448   2.909   1.915  1.8238 -1.9679  1.0750
 1183SOL    HW3 4499   2.481   3.056   1.934 -0.9146 -0.7885 -2.2034
 1183SOL    MW4 4500   2.488   2.973   1.960  0.0329 -0.0762  0.1467
 1184SOL     OW 4501   6.272   3.023   2.292  0.2789 -0.2743 -0.0084
 1184SOL    HW2 4502   6.187   3.066   2.301 -0.4626 -1.9696  1.7677
 1184SOL    HW3 4503   6.316   3.038   2.376  1.3256 -0.2880 -0.5345
 1184SOL    MW4 4504   6.267   3.031   2.304  0.3192 -0.4998  0.1565
 1185SOL     OW 4505   0.680   2.871   4.518  0.1479  0.3807  0.0280
 1185SOL    HW2 4506   0.617   2.799   4.522  0.7801 -0.1497  2.1116
 1185SOL    HW3 4507   0.650   2.926   4.446 -2.3591 -0.1398  0.5817
 1185SOL    MW4 4508   0.668   2.869   4.509 -0.0995  0.2420  0.3760
 1186SOL     OW 4509   0.840   3.760   6.009 -0.2222 -0.2551 -0.5377
 1186SOL    HW2 4510   0.921   3.798   5.974  0.1693 -1.3672 -0.8720
 1186SOL    HW3 4511   0.856   3.752   6.103 -0.7165  1.3626 -0.2828
 1186SOL    MW4 4512   0.853   3.764   6.017 -0.2358 -0.1884 -0.5481
 1187SOL     OW 4513   0.134   3.274   6.215 -0.5026 -0.2711 -0.4333
 1187SOL    HW2 4514   0.083   3.289   6.135 -0.5446 -0.1242 -0.3781
 1187SOL    HW3 4515   0.079   3.307   6.285  0.0733  0.7894 -0.4607
 1187SOL    MW4 4516   0.120   3.280   6.213 -0.4322 -0.1118 -0.4296
 1188SOL     OW 4517   2.609   6.094   1.616  0.3032 -0.9476 -0.2045
 1188SOL    HW2 4518   2.607   6.129   1.704  0.9554 -3.4246  0.8911
 1188SOL    HW3 4519   2.683   6.032   1.617 -0.7333 -2.3122 -1.9425
 1188SOL    MW4 4520   2.619   6.091   1.627  0.2525 -1.4544 -0.2893
 1189SOL     OW 4521   3.145   1.102   2.094  0.3713 -0.0275  0.0042
 1189SOL    HW2 4522   3.229   1.066   2.122  0.6454 -0.3513 -1.1691
 1189SOL    HW3 4523   3.080   1.055   2.147  0.8842 -0.3637  0.3427
 1189SOL    MW4 4524   3.147   1.091   2.105  0.4752 -0.1146 -0.1059
 1190SOL     OW 4525   5.016   5.129   1.730 -0.2842 -0.7187  0.0209
 1190SOL    HW2 4526   4.976   5.146   1.645  2.7277 -0.2325 -1.4473
 1190SOL    HW3 4527   5.020   5.214   1.773  1.5027 -0.2305 -1.0099
 1190SOL    MW4 4528   5.012   5.142   1.725  0.3489 -0.5902 -0.3088
 1191SOL     OW 4529   3.473   5.666   0.014  0.2499  0.5196 -0.1666
 1191SOL    HW2 4530   3.566   5.680   0.028 -0.0126 -0.4671  3.6883
 1191SOL    HW3 4531   3.466   5.573  -0.011  0.2563  0.0599  1.4213
 1191SOL    MW4 4532   3.484   5.655   0.013  0.2161  0.3288  0.5515
 1192SOL     OW 4533   6.094   3.534   1.773 -0.0323  0.1722 -0.0792
 1192SOL    HW2 4534   6.188   3.522   1.786 -0.1445 -0.2041  0.4424
 1192SOL    HW3 4535   6.085   3.627   1.751  0.5942 -0.0900 -1.5611
 1192SOL    MW4 4536   6.105   3.545   1.772  0.0356  0.0879 -0.2059
 1193SOL     OW 4537   1.008   2.784   2.658  0.6650 -0.0623 -0.5364
 1193SOL    HW2 4538   1.067   2.751   2.590 -0.8799 -0.4973 -1.7533
 1193SOL    HW3 4539   0.981   2.705   2.706 -0.7282 -0.2464 -1.5392
 1193SOL    MW4 4540   1.012   2.769   2.655  0.2774 -0.1440 -0.8293
 1194SOL     OW 4541   0.367   5.948   6.340 -0.1602  0.1431 -0.1310
 1194SOL    HW2 4542   0.428   5.907   6.402  1.5822  1.0005 -1.1901
 1194SOL    HW3 4543   0.306   5.878   6.317  0.6242 -0.8642  0.7214
 1194SOL    MW4 4544   0.367   5.933   6.345  0.1732  0.1233 -0.1583
 1195SOL     OW 4545   4.066   4.493   4.737 -0.1087 -0.5022 -0.1031
 1195SOL    HW2 4546   4.043   4.582   4.711 -1.2313 -0.4985  0.8498
 1195SOL    HW3 4547   4.085   4.448   4.654 -0.0543  0.4646 -0.6318
 1195SOL    MW4 4548   4.066   4.499   4.723 -0.2496 -0.3742 -0.0472
 1196SOL     OW 4549   0.131   0.932   6.423 -0.0748 -0.2027 -0.7704
 1196SOL    HW2 4550   0.181   0.850   6.427 -1.2401 -0.9208 -0.3601
 1196SOL    HW3 4551   0.086   0.930   6.339  0.9421  0.6728 -1.3534
 1196SOL    MW4 4552   0.132   0.921   6.413 -0.0944 -0.1819 -0.7932
 1197SOL     OW 4553   1.110   5.280   0.545  0.1757 -0.2486  0.1005
 1197SOL    HW2 4554   1.175   5.338   0.505  1.6862 -1.1591  1.1161
 1197SOL    HW3 4555   1.162   5.213   0.589 -1.4935 -1.4509  0.3299
 1197SOL    MW4 4556   1.126   5.279   0.546  0.1547 -0.5273  0.2648
 1198SOL     OW 4557   3.427   5.380   6.367 -0.4557  0.5625  0.2914
 1198SOL    HW2 4558   3.492   5.353   6.302 -2.7093 -1.7256 -1.2391
 1198SOL    HW3 4559   3.439   5.318   6.439 -1.0131 -0.0234 -0.0994
 1198SOL    MW4 4560   3.437   5.368   6.368 -0.8266  0.1834  0.0379
 1199SOL     OW 4561   1.137   1.080   3.849 -0.4642  0.0194  0.0041
 1199SOL    HW2 4562   1.157   1.173   3.857 -1.6067  0.3863 -0.9994
 1199SOL    HW3 4563   1.220   1.039   3.826  0.0419  0.7893  0.4280
 1199SOL    MW4 4564   1.151   1.087   3.847 -0.5481  0.1693 -0.0724
 1200SOL     OW 4565   2.337   5.002   1.753 -0.8792  0.8767  0.0099
 1200SOL    HW2 4566   2.268   4.937   1.768  1.3935 -1.2417  2.2394
 1200SOL    HW3 4567   2.335   5.058   1.830 -0.0220  0.6220  0.2386
 1200SOL    MW4 4568   2.328   5.001   1.765 -0.4663  0.5636  0.3342
 1201SOL     OW 4569   2.319   4.905   2.229 -0.4490 -0.4105  0.2711
 1201SOL    HW2 4570   2.228   4.876   2.227 -1.3197  2.0982  0.5458
 1201SOL    HW3 4571   2.322   4.973   2.296  1.3631  0.3162 -0.4679
 1201SOL    MW4 4572   2.307   4.910   2.237 -0.3248  0.0164  0.2098
 1202SOL     OW 4573   3.470   2.949   4.631 -0.2826 -0.4076  0.0124
 1202SOL    HW2 4574   3.562   2.962   4.656  0.0720 -0.4861 -1.2039
 1202SOL    HW3 4575   3.422   2.954   4.714  0.5921  1.5174  0.4477
 1202SOL    MW4 4576   3.476   2.951   4.645 -0.1204 -0.1640 -0.0906
 1203SOL     OW 4577   2.879   1.943   2.366 -0.5150 -0.1398  0.0821
 1203SOL    HW2 4578   2.954   1.934   2.425 -0.7328  0.2357  0.4176
 1203SOL    HW3 4579   2.889   2.030   2.327  0.0821 -0.6970 -1.0769
 1203SOL    MW4 4580   2.891   1.953   2.368 -0.4649 -0.1638 -0.0266
 1204SOL     OW 4581   0.874   0.831   0.413  0.6490 -0.2916  0.2113
 1204SOL    HW2 4582   0.930   0.838   0.490  1.2795  0.8143 -0.3301
 1204SOL    HW3 4583   0.933   0.844   0.339  0.0058 -1.0732 -0.4606
 1204SOL    MW4 4584   0.889   0.834   0.413  0.6473 -0.2489  0.0512
 1205SOL     OW 4585   3.800   4.121   1.171 -0.0473  1.0737  0.0196
 1205SOL    HW2 4586   3.888   4.112   1.135  0.6557 -1.1431  2.0293
 1205SOL    HW3 4587   3.798   4.210   1.208  2.1239  0.4957  1.7203
 1205SOL    MW4 4588   3.812   4.132   1.171  0.3319  0.7049  0.5091
 1206SOL     OW 4589   4.229   0.388   2.228 -0.1840  0.3991  0.1453
 1206SOL    HW2 4590   4.168   0.368   2.157  0.6907 -1.1881 -0.2114
 1206SOL    HW3 4591   4.210   0.322   2.295  1.5336 -0.5430 -0.2441
 1206SOL    MW4 4592   4.218   0.377   2.228  0.1580  0.0654  0.0468
 1207SOL     OW 4593   5.041   2.004   0.427  0.1034  0.3318  0.1847
 1207SOL    HW2 4594   5.039   2.056   0.347 -1.7743 -0.9402 -0.6571
 1207SOL    HW3 4595   5.055   1.914   0.397 -0.7521 -0.1825  1.2555
 1207SOL    MW4 4596   5.043   1.999   0.413 -0.2572  0.0961  0.2149
 1208SOL     OW 4597   1.189   1.678   4.003  0.5785 -0.1743 -0.2655
 1208SOL    HW2 4598   1.261   1.722   4.049  1.0769 -0.6676 -0.5673
 1208SOL    HW3 4599   1.219   1.672   3.912 -0.1534  0.2669 -0.5442
 1208SOL    MW4 4600   1.203   1.683   3.997  0.5477 -0.1811 -0.3421
 1209SOL     OW 4601   2.820   4.747   2.368  0.1017  1.0632 -0.0508
 1209SOL    HW2 4602   2.825   4.766   2.462 -0.8749 -0.5031  0.3583
 1209SOL    HW3 4603   2.729   4.766   2.345 -0.4418 -1.2511 -0.0068
 1209SOL    MW4 4604   2.808   4.752   2.377 -0.0988  0.5512  0.0090
 1210SOL     OW 4605   4.356   0.374   4.087  0.2511  0.5393 -0.2775
 1210SOL    HW2 4606   4.391   0.291   4.054  0.2368 -0.3768  1.8622
 1210SOL    HW3 4607   4.283   0.393   4.028  2.3027  0.8726 -2.8938
 1210SOL    MW4 4608   4.351   0.365   4.075  0.5199  0.4624 -0.3404
 1211SOL     OW 4609   1.883   3.150   5.363  0.0584 -0.0466 -0.8857
 1211SOL    HW2 4610   1.853   3.231   5.405 -1.6611 -0.6326 -0.8939
 1211SOL    HW3 4611   1.825   3.139   5.287 -0.2644 -1.6424 -0.4645
 1211SOL    MW4 4612   1.871   3.159   5.359 -0.2111 -0.3345 -0.8312
 1212SOL     OW 4613   1.893   5.415   0.035 -0.2839  0.0012 -0.4534
 1212SOL    HW2 4614   1.938   5.450  -0.043 -0.1478 -0.3012 -0.5089
 1212SOL    HW3 4615   1.891   5.489   0.096  0.3118  0.0087 -0.4413
 1212SOL    MW4 4616   1.899   5.430   0.032 -0.1873 -0.0377 -0.4591
 1213SOL     OW 4617   3.671   3.552   0.770  0.4920 -0.1616 -0.2715
 1213SOL    HW2 4618   3.664   3.550   0.675  1.4771 -0.6573 -0.3384
 1213SOL    HW3 4619   3.660   3.461   0.797 -0.3535  0.0453  0.1515
 1213SOL    MW4 4620   3.668   3.540   0.761  0.5105 -0.1997 -0.2245
 1214SOL     OW 4621   4.093   1.818   3.021  0.1318  0.2679 -0.1668
 1214SOL    HW2 4622   4.116   1.729   3.045 -0.8099  0.6881  2.6373
 1214SOL    HW3 4623   4.152   1.873   3.072 -1.3396  1.2542  0.5538
 1214SOL    MW4 4624   4.104   1.814   3.031 -0.1866  0.4535  0.2982
 1215SOL     OW 4625   4.606   2.196   0.328 -0.0347 -0.0888 -0.4240
 1215SOL    HW2 4626   4.582   2.125   0.267 -0.4534  2.1051 -3.0248
 1215SOL    HW3 4627   4.698   2.212   0.310  1.0951 -2.1211  2.6827
 1215SOL    MW4 4628   4.615   2.189   0.317  0.0591 -0.0675 -0.3573
 1216SOL     OW 4629   3.657   4.468   0.497 -0.6876 -0.1010  0.5596
 1216SOL    HW2 4630   3.589   4.505   0.440 -1.2403  0.6366  1.6734
 1216SOL    HW3 4631   3.612   4.449   0.579  0.3055 -0.2484  1.0889
 1216SOL    MW4 4632   3.642   4.470   0.500 -0.6295 -0.0231  0.7764
 1217SOL     OW 4633   0.758   0.049   3.214 -0.1359 -0.1703 -0.0757
 1217SOL    HW2 4634   0.736  -0.044   3.218  1.0078 -0.4542  0.0725
 1217SOL    HW3 4635   0.756   0.070   3.120 -0.6784 -0.2611 -0.0891
 1217SOL    MW4 4636   0.755   0.040   3.202 -0.0565 -0.2198 -0.0579
 1218SOL     OW 4637   6.154   3.573   2.215 -0.6866  0.0533 -0.6242
 1218SOL    HW2 4638   6.160   3.655   2.166  0.1378 -0.2743 -1.0835
 1218SOL    HW3 4639   6.118   3.510   2.152 -2.0510  0.2182 -0.0566
 1218SOL    MW4 4640   6.150   3.576   2.200 -0.7579  0.0318 -0.6099
 1219SOL     OW 4641   1.656   4.011   4.745  0.3158 -0.3022  0.1874
 1219SOL    HW2 4642   1.747   4.022   4.716  0.5250  0.2946  1.0226
 1219SOL    HW3 4643   1.609   3.980   4.668  0.8015  1.4023 -0.8313
 1219SOL    MW4 4644   1.662   4.008   4.731  0.4075  0.0014  0.1632
 1220SOL     OW 4645   5.902   2.254   3.831  0.1834  0.1055  0.2279
 1220SOL    HW2 4646   5.839   2.257   3.903  2.2787 -0.4223  2.2008
 1220SOL    HW3 4647   5.942   2.342   3.830  0.2922  0.0546 -0.1720
 1220SOL    MW4 4648   5.899   2.266   3.840  0.4742  0.0292  0.4354
 1221SOL     OW 4649   5.991   2.862   6.266 -0.0942 -0.1631  0.5540
 1221SOL    HW2 4650   5.915   2.914   6.290  1.1503  1.2646  1.6006
 1221SOL    HW3 4651   6.064   2.924   6.267  1.0433 -1.4207 -0.7149
 1221SOL    MW4 4652   5.991   2.877   6.270  0.2201 -0.1407  0.5247
 1222SOL     OW 4653   5.818   2.477   5.107  0.2053 -1.0375  0.2246
 1222SOL    HW2 4654   5.853   2.531   5.037 -2.8228 -1.1464 -1.5685
 1222SOL    HW3 4655   5.867   2.395   5.102  1.8153 -0.0846  0.0230
 1222SOL    MW4 4656   5.829   2.473   5.097  0.0182 -0.9261 -0.0386
 1223SOL     OW 4657   3.870   3.057   0.450  0.4820 -0.4073 -0.4288
 1223SOL    HW2 4658   3.918   3.121   0.397  0.6622 -0.0221  0.1902
 1223SOL    HW3 4659   3.890   2.973   0.409 -0.4055 -0.0079 -1.7535
 1223SOL    MW4 4660   3.879   3.054   0.438  0.3887 -0.3038 -0.5219
 1224SOL     OW 4661   0.744   0.461   4.626 -0.2768  0.1634 -0.0295
 1224SOL    HW2 4662   0.725   0.378   4.670 -0.1870 -0.4022 -1.0408
 1224SOL    HW3 4663   0.687   0.524   4.670  0.9112 -0.0387  1.9645
 1224SOL    MW4 4664   0.734   0.458   4.638 -0.1082  0.0621  0.1002
 1225SOL     OW 4665   0.752   1.700   4.967  0.1227 -0.6413 -0.2088
 1225SOL    HW2 4666   0.712   1.730   5.049 -1.5222 -1.0835 -0.8141
 1225SOL    HW3 4667   0.755   1.605   4.976  0.9856 -0.6272 -0.2263
 1225SOL    MW4 4668   0.747   1.691   4.979  0.0195 -0.6978 -0.2910
 1226SOL     OW 4669   0.595   5.474   1.378 -0.3134  0.3265 -0.4802
 1226SOL    HW2 4670   0.614   5.505   1.466 -1.6237  1.7720 -0.6563
 1226SOL    HW3 4671   0.671   5.500   1.326 -0.9626  2.5329 -0.4212
 1226SOL    MW4 4672   0.608   5.482   1.383 -0.5719  0.8083 -0.4956
 1227SOL     OW 4673   6.100   3.909   4.467  0.1548 -0.8033  0.0583
 1227SOL    HW2 4674   6.181   3.868   4.498  0.7543  1.4936  1.7877
 1227SOL    HW3 4675   6.120   4.002   4.460 -2.2847 -0.1628  0.4109
 1227SOL    MW4 4676   6.113   3.915   4.470 -0.0879 -0.4158  0.3330
 1228SOL     OW 4677   4.241   0.824   3.517 -0.1831  0.3867  0.0702
 1228SOL    HW2 4678   4.191   0.815   3.597 -1.9921  3.1343 -0.6327
 1228SOL    HW3 4679   4.231   0.916   3.492  1.5258 -0.0263 -2.5286
 1228SOL    MW4 4680   4.233   0.835   3.524 -0.1963  0.6947 -0.3654
 1229SOL     OW 4681   2.672   2.351   3.837  0.3317  0.1550  0.3888
 1229SOL    HW2 4682   2.675   2.333   3.743  0.4287  0.8760  0.2494
 1229SOL    HW3 4683   2.734   2.289   3.875  2.4875  1.7222 -0.3333
 1229SOL    MW4 4684   2.680   2.340   3.830  0.6289  0.4569  0.2751
 1230SOL     OW 4685   0.992   1.534   3.241 -0.1243  0.2661 -0.3678
 1230SOL    HW2 4686   1.059   1.562   3.179  0.9024  0.9622  1.0231
 1230SOL    HW3 4687   0.910   1.569   3.205  0.2954 -0.1890 -1.8312
 1230SOL    MW4 4688   0.990   1.542   3.228  0.0665  0.2979 -0.3773
 1231SOL     OW 4689   5.955   5.996   1.586  0.2661 -0.2585  0.4249
 1231SOL    HW2 4690   6.036   5.947   1.591 -0.6281 -1.9042 -0.3700
 1231SOL    HW3 4691   5.981   6.082   1.553  1.9920  0.2344  2.8466
 1231SOL    MW4 4692   5.969   6.001   1.582  0.3758 -0.4106  0.6395
 1232SOL     OW 4693   4.101   1.293   3.139  0.2397  0.1954 -0.4786
 1232SOL    HW2 4694   4.121   1.361   3.074  1.5651  0.6917  0.4084
 1232SOL    HW3 4695   4.106   1.338   3.223 -2.3394 -0.2379 -0.0190
 1232SOL    MW4 4696   4.104   1.308   3.141  0.0743  0.2037 -0.3009
 1233SOL     OW 4697   0.802   0.467   2.985  0.0166 -0.4090  0.6060
 1233SOL    HW2 4698   0.774   0.421   3.064 -0.1276 -0.3411  0.5957
 1233SOL    HW3 4699   0.814   0.398   2.920  0.3192 -0.4836  0.7405
 1233SOL    MW4 4700   0.800   0.452   2.987  0.0375 -0.4099  0.6224
 1234SOL     OW 4701   4.701   4.864   0.917  0.3876  0.3613 -0.2485
 1234SOL    HW2 4702   4.615   4.906   0.914  0.3174  0.1758 -1.8256
 1234SOL    HW3 4703   4.736   4.888   1.003 -1.1407  0.6010  0.3492
 1234SOL    MW4 4704   4.694   4.873   0.928  0.1767  0.3685 -0.3777
 1235SOL     OW 4705   3.918   1.691   0.871 -0.0098 -0.0824 -0.5340
 1235SOL    HW2 4706   3.845   1.687   0.933 -0.5617 -0.6345 -1.2002
 1235SOL    HW3 4707   3.996   1.678   0.925 -0.5622 -1.9655 -0.1038
 1235SOL    MW4 4708   3.919   1.689   0.887 -0.1555 -0.4037 -0.5651
 1236SOL     OW 4709   0.259   2.769   1.143  0.3221 -0.1409 -0.2417
 1236SOL    HW2 4710   0.332   2.739   1.089  0.6885 -0.4083  0.3881
 1236SOL    HW3 4711   0.290   2.757   1.233 -1.1328 -1.9165  0.0917
 1236SOL    MW4 4712   0.273   2.763   1.148  0.1785 -0.4104 -0.1146
 1237SOL     OW 4713   1.397   5.333   2.366 -0.4471  0.1921 -0.4205
 1237SOL    HW2 4714   1.322   5.279   2.341 -1.0606  0.8308  0.0117
 1237SOL    HW3 4715   1.360   5.402   2.421  0.5513  0.1016  0.3995
 1237SOL    MW4 4716   1.382   5.335   2.370 -0.3963  0.2644 -0.2553
 1238SOL     OW 4717   5.728   6.285   3.970  0.0424  0.1431  0.2564
 1238SOL    HW2 4718   5.790   6.296   3.898  0.6841 -3.2347  0.1120
 1238SOL    HW3 4719   5.644   6.271   3.928  0.4922 -2.2865 -0.0133
 1238SOL    MW4 4720   5.725   6.284   3.955  0.1864 -0.6231  0.2017
 1239SOL     OW 4721   5.106   4.130   4.831  0.5123 -0.5399 -0.5859
 1239SOL    HW2 4722   5.041   4.063   4.810  0.4255 -0.4717 -0.5322
 1239SOL    HW3 4723   5.147   4.151   4.746  0.1698 -0.2736 -0.6886
 1239SOL    MW4 4724   5.103   4.124   4.817  0.4557 -0.4958 -0.5924
 1240SOL     OW 4725   5.060   4.612   0.874 -0.2934  0.0552 -0.1755
 1240SOL    HW2 4726   5.129   4.678   0.884  0.8244 -1.1842  0.7879
 1240SOL    HW3 4727   5.107   4.528   0.874 -1.4062 -0.7365 -3.6952
 1240SOL    MW4 4728   5.076   4.609   0.875 -0.2928 -0.2128 -0.5127
 1241SOL     OW 4729   3.371   0.262   2.157  0.1630  0.1880  0.1837
 1241SOL    HW2 4730   3.364   0.355   2.138 -2.9797 -0.4147 -2.4689
 1241SOL    HW3 4731   3.447   0.233   2.107  0.0447  1.0167 -0.4966
 1241SOL    MW4 4732   3.380   0.270   2.148 -0.2672  0.2178 -0.2561
 1242SOL     OW 4733   6.299   2.103   0.742  0.0962 -0.1923 -0.0094
 1242SOL    HW2 4734   6.362   2.167   0.775  1.2248 -1.1703 -0.2055
 1242SOL    HW3 4735   6.312   2.103   0.647  1.1007 -1.6780  0.0923
 1242SOL    MW4 4736   6.309   2.111   0.734  0.3777 -0.5173 -0.0218
 1243SOL     OW 4737   3.972   5.118   0.643  0.2330 -0.0534 -0.0021
 1243SOL    HW2 4738   3.936   5.030   0.653 -1.2480  0.5160 -0.0847
 1243SOL    HW3 4739   3.956   5.159   0.728  0.5400  0.2656 -0.0985
 1243SOL    MW4 4740   3.965   5.112   0.656  0.0781  0.0639 -0.0257
 1244SOL     OW 4741   5.230   0.520   4.991 -0.2504 -0.5003  0.3690
 1244SOL    HW2 4742   5.246   0.468   4.913 -0.3153  0.9555 -0.6528
 1244SOL    HW3 4743   5.135   0.525   4.998 -0.2915  1.3419 -0.8788
 1244SOL    MW4 4744   5.219   0.514   4.982 -0.2644 -0.0652  0.0695
 1245SOL     OW 4745   5.397   5.051   3.519  0.2516  0.0074  0.6118
 1245SOL    HW2 4746   5.433   5.058   3.607  1.5011 -0.5060  0.1666
 1245SOL    HW3 4747   5.453   4.987   3.475  0.6646  1.4119 -1.0344
 1245SOL    MW4 4748   5.409   5.043   3.525  0.4710  0.1250  0.3359
 1246SOL     OW 4749   6.394   5.670   3.307  0.1055 -0.8373  0.0675
 1246SOL    HW2 4750   6.300   5.683   3.311 -0.0111 -1.8031  1.0475
 1246SOL    HW3 4751   6.419   5.648   3.397  1.5112  0.8385  0.1449
 1246SOL    MW4 4752   6.385   5.669   3.319  0.2756 -0.7436  0.2070
 1247SOL     OW 4753   2.857   5.251   5.394  0.2248 -0.4775 -0.8022
 1247SOL    HW2 4754   2.942   5.260   5.351  0.2023 -0.2846 -0.8048
 1247SOL    HW3 4755   2.873   5.187   5.464  0.2982 -0.6687 -0.9923
 1247SOL    MW4 4756   2.870   5.244   5.398  0.2315 -0.4773 -0.8276
 1248SOL     OW 4757   5.688   3.633   1.786 -0.3317 -0.1516  0.2797
 1248SOL    HW2 4758   5.609   3.585   1.811  1.2295 -2.3735  1.3114
 1248SOL    HW3 4759   5.726   3.660   1.869  0.7450 -0.4619 -0.0973
 1248SOL    MW4 4760   5.682   3.630   1.801  0.0164 -0.4857  0.3661
 1249SOL     OW 4761   4.867   1.308   3.197  0.7333 -0.0539  0.7193
 1249SOL    HW2 4762   4.955   1.286   3.167  1.2312 -0.4518  2.3923
 1249SOL    HW3 4763   4.820   1.224   3.194  0.7876 -0.0963  1.0634
 1249SOL    MW4 4764   4.872   1.294   3.193  0.8062 -0.1120  0.9854
 1250SOL     OW 4765   0.947   5.950   1.347 -0.0006  0.5706 -0.0526
 1250SOL    HW2 4766   1.023   5.920   1.397 -0.6581 -1.1586 -0.0093
 1250SOL    HW3 4767   0.876   5.955   1.411 -0.4829 -0.1633 -0.5137
 1250SOL    MW4 4768   0.948   5.947   1.362 -0.1510  0.2456 -0.1077
 1251SOL     OW 4769   4.908   5.531   3.674  0.1532  0.3796 -0.3527
 1251SOL    HW2 4770   4.960   5.598   3.717  0.7643  0.4540 -1.1749
 1251SOL    HW3 4771   4.962   5.504   3.599  0.5193 -1.9344  0.6491
 1251SOL    MW4 4772   4.922   5.536   3.670  0.2821  0.0841 -0.3290
 1252SOL     OW 4773   3.508   5.835   5.398  0.3528 -0.0463  0.1168
 1252SOL    HW2 4774   3.446   5.830   5.324  0.3549 -0.7245  0.1523
 1252SOL    HW3 4775   3.460   5.881   5.466 -0.2043 -0.7539  0.2177
 1252SOL    MW4 4776   3.493   5.840   5.397  0.2796 -0.2291  0.1348
 1253SOL     OW 4777   2.621   3.578   0.545 -0.0733  0.5052  0.0157
 1253SOL    HW2 4778   2.568   3.648   0.507 -0.9939  0.3552  0.9528
 1253SOL    HW3 4779   2.620   3.509   0.479 -2.4465 -0.1417  0.6178
 1253SOL    MW4 4780   2.614   3.578   0.531 -0.5079  0.4000  0.2188
 1254SOL     OW 4781   2.077   1.562   3.143  0.4311  0.3092 -0.0237
 1254SOL    HW2 4782   1.983   1.560   3.127  0.8959  0.5370 -3.7526
 1254SOL    HW3 4783   2.110   1.481   3.103  1.8660  0.4678  0.7673
 1254SOL    MW4 4784   2.069   1.551   3.135  0.6817  0.3602 -0.4113
 1255SOL     OW 4785   2.354   3.111   4.147  0.1353 -0.3199  0.2763
 1255SOL    HW2 4786   2.426   3.113   4.209  0.6410  0.1791 -0.3049
 1255SOL    HW3 4787   2.320   3.022   4.151  0.0927 -0.2683  1.3309
 1255SOL    MW4 4788   2.359   3.100   4.155  0.1964 -0.2473  0.3388
 1256SOL     OW 4789   4.851   3.932   4.450 -0.5753 -0.0361  0.6714
 1256SOL    HW2 4790   4.807   3.867   4.395  1.2583 -0.2919 -0.5905
 1256SOL    HW3 4791   4.939   3.939   4.413  0.4857  0.4142  3.0667
 1256SOL    MW4 4792   4.857   3.924   4.438 -0.1934 -0.0105  0.8210
 1257SOL     OW 4793   1.013   6.154   6.121 -0.4505 -0.3553 -0.4663
 1257SOL    HW2 4794   0.926   6.191   6.103  0.4352  0.8802 -2.5723
 1257SOL    HW3 4795   1.036   6.187   6.208 -0.7579  2.0544 -1.2255
 1257SOL    MW4 4796   1.004   6.163   6.130 -0.3742  0.1257 -0.8443
 1258SOL     OW 4797   5.450   2.566   1.195  0.3572  0.6130  0.2708
 1258SOL    HW2 4798   5.530   2.616   1.178 -0.9196  2.2816 -1.1844
 1258SOL    HW3 4799   5.481   2.487   1.238  2.9542  0.5709 -1.3979
 1258SOL    MW4 4800   5.465   2.562   1.198  0.5314  0.8276 -0.1413
 1259SOL     OW 4801   4.085   0.634   1.858 -0.1573 -0.2204 -0.2261
 1259SOL    HW2 4802   4.105   0.655   1.766  0.1086 -0.1052 -0.1431
 1259SOL    HW3 4803   4.170   0.612   1.896  0.0879  1.8995  0.5529
 1259SOL    MW4 4804   4.099   0.634   1.851 -0.0899  0.0745 -0.1124
 1260SOL     OW 4805   4.673   5.595   3.552  0.0643  0.0684  0.0486
 1260SOL    HW2 4806   4.756   5.567   3.589  1.0315 -1.4108 -2.9978
 1260SOL    HW3 4807   4.631   5.515   3.522 -1.2990  1.0460 -0.7821
 1260SOL    MW4 4808   4.678   5.581   3.553  0.0121  0.0022 -0.4630
 1261SOL     OW 4809   3.778   2.495   3.404  0.6618 -0.6278 -0.7362
 1261SOL    HW2 4810   3.722   2.542   3.342 -0.1513  0.0152  0.4344
 1261SOL    HW3 4811   3.836   2.562   3.440  0.4362 -0.7793 -0.0714
 1261SOL    MW4 4812   3.778   2.510   3.400  0.5247 -0.5629 -0.4941
 1262SOL     OW 4813   0.483   6.205   0.920  0.3804  0.0799  0.0933
 1262SOL    HW2 4814   0.521   6.286   0.954 -1.8194  0.3358  2.2538
 1262SOL    HW3 4815   0.396   6.232   0.889 -0.1784 -1.3477  0.3541
 1262SOL    MW4 4816   0.476   6.219   0.920  0.0164 -0.0747  0.4127
 1263SOL     OW 4817   0.582   4.602   4.232 -0.0823 -0.3204  0.2273
 1263SOL    HW2 4818   0.589   4.692   4.201  0.8794  0.0444  1.4092
 1263SOL    HW3 4819   0.488   4.587   4.245 -0.1821  0.8153  0.8705
 1263SOL    MW4 4820   0.571   4.612   4.230  0.0314 -0.1224  0.4681
 1264SOL     OW 4821   5.683   4.579   1.228 -0.6047  0.5723  0.4081
 1264SOL    HW2 4822   5.625   4.512   1.265 -0.2749 -0.2655 -0.5540
 1264SOL    HW3 4823   5.640   4.605   1.146 -0.5313  1.2629  0.5847
 1264SOL    MW4 4824   5.670   4.573   1.222 -0.5515  0.5529  0.3045
 1265SOL     OW 4825   3.332   3.312   1.766  0.6278  0.5563  0.1640
 1265SOL    HW2 4826   3.334   3.323   1.861  2.4870 -0.4200  0.2824
 1265SOL    HW3 4827   3.334   3.217   1.752 -0.5753  0.6536 -0.8633
 1265SOL    MW4 4828   3.333   3.301   1.776  0.7144  0.4403  0.0441
 1266SOL     OW 4829   2.868   5.518   5.923 -0.1791  0.2532  0.0870
 1266SOL    HW2 4830   2.799   5.539   5.986 -0.6164 -1.2911  0.1632
 1266SOL    HW3 4831   2.866   5.590   5.860  1.0886  2.5135  2.4458
 1266SOL    MW4 4832   2.859   5.530   5.923 -0.0696  0.3477  0.4083
 1267SOL     OW 4833   6.258   6.204   4.809 -0.0871  0.2889 -0.3372
 1267SOL    HW2 4834   6.343   6.238   4.780 -0.0679  0.6158  0.0752
 1267SOL    HW3 4835   6.257   6.113   4.780  0.5316  0.1974 -0.0957
 1267SOL    MW4 4836   6.269   6.197   4.802 -0.0029  0.3200 -0.2510
 1268SOL     OW 4837   5.094   5.119   4.593  0.3488  0.0411  0.4941
 1268SOL    HW2 4838   5.129   5.049   4.538 -0.4664 -0.4750  0.6205
 1268SOL    HW3 4839   5.040   5.074   4.658  0.0731  0.7648  0.7756
 1268SOL    MW4 4840   5.092   5.104   4.594  0.2049  0.0685  0.5479
 1269SOL     OW 4841   4.253   1.772   1.812  0.0580  0.5792 -0.7334
 1269SOL    HW2 4842   4.192   1.732   1.873  1.5484 -0.7506 -0.0510
 1269SOL    HW3 4843   4.239   1.866   1.823 -0.4214  0.3538  0.8979
 1269SOL    MW4 4844   4.243   1.779   1.821  0.1914  0.3740 -0.4281
 1270SOL     OW 4845   4.540   5.329   6.369  0.4917 -0.0333  0.2039
 1270SOL    HW2 4846   4.583   5.346   6.286  0.9023  2.4227  0.8400
 1270SOL    HW3 4847   4.486   5.252   6.353  1.2508 -0.1538 -2.0556
 1270SOL    MW4 4848   4.538   5.321   6.356  0.6460  0.2748 -0.0103
 1271SOL     OW 4849   4.382   2.693   0.141 -0.1113 -0.0660 -0.3733
 1271SOL    HW2 4850   4.367   2.689   0.046 -0.9099 -0.5642 -0.2285
 1271SOL    HW3 4851   4.440   2.619   0.159 -3.2227 -2.6169  0.1009
 1271SOL    MW4 4852   4.388   2.683   0.130 -0.6272 -0.4683 -0.2916
 1272SOL     OW 4853   5.873   3.551   3.182  0.4732  0.7005  0.1582
 1272SOL    HW2 4854   5.968   3.552   3.170  0.4697 -0.8056 -0.1599
 1272SOL    HW3 4855   5.860   3.586   3.271  1.4642 -0.5878  0.8423
 1272SOL    MW4 4856   5.884   3.556   3.192  0.6035  0.3318  0.2065
 1273SOL     OW 4857   1.001   5.854   4.271 -0.2175 -0.1703  0.1766
 1273SOL    HW2 4858   0.975   5.765   4.246  3.3667 -1.2749 -0.2665
 1273SOL    HW3 4859   0.984   5.859   4.365 -1.8906 -0.7445 -0.0749
 1273SOL    MW4 4860   0.996   5.843   4.280  0.0347 -0.3918  0.0849
 1274SOL     OW 4861   5.806   3.968   2.154 -0.1502  0.4908  0.0254
 1274SOL    HW2 4862   5.800   3.881   2.114  1.5181 -0.9226  2.5518
 1274SOL    HW3 4863   5.889   4.003   2.122 -0.2942  0.6816 -0.1393
 1274SOL    MW4 4864   5.816   3.961   2.145  0.0509  0.3295  0.3370
 1275SOL     OW 4865   5.632   1.426   5.169  0.5856  0.4248 -0.2051
 1275SOL    HW2 4866   5.671   1.387   5.091  0.6865  2.8592 -1.4547
 1275SOL    HW3 4867   5.706   1.439   5.229  0.4353 -1.8943  0.5906
 1275SOL    MW4 4868   5.647   1.423   5.167  0.5791  0.4400 -0.2650
 1276SOL     OW 4869   4.539   1.061   4.686 -0.2944  0.1199 -0.1179
 1276SOL    HW2 4870   4.445   1.054   4.700 -0.3674  0.4732 -0.4208
 1276SOL    HW3 4871   4.555   1.155   4.675 -0.1471 -0.0529 -1.6758
 1276SOL    MW4 4872   4.529   1.073   4.686 -0.2846  0.1437 -0.3634
 1277SOL     OW 4873   3.875   6.291   5.837  0.1864  0.0075  0.3549
 1277SOL    HW2 4874   3.795   6.274   5.787 -0.2620  0.3680  0.9259
 1277SOL    HW3 4875   3.937   6.326   5.773  0.1423 -0.9779 -0.2406
 1277SOL    MW4 4876   3.872   6.293   5.822  0.1215 -0.0749  0.3517
 1278SOL     OW 4877   2.231   3.848   0.488 -0.5048 -0.0043 -0.7568
 1278SOL    HW2 4878   2.160   3.785   0.484  1.3894 -2.2564 -0.8688
 1278SOL    HW3 4879   2.208   3.906   0.561 -1.8193 -1.4596  0.0195
 1278SOL    MW4 4880   2.219   3.848   0.497 -0.4283 -0.4935 -0.6691
 1279SOL     OW 4881   0.852   6.393   1.388 -0.4750  0.1142 -0.3720
 1279SOL    HW2 4882   0.889   6.354   1.467  0.3635  0.9342 -0.3342
 1279SOL    HW3 4883   0.863   6.326   1.321 -1.0864 -0.5441  0.1602
 1279SOL    MW4 4884   0.858   6.379   1.390 -0.4451  0.1355 -0.2968
 1280SOL     OW 4885   1.517   4.185   4.323  0.5470  0.1310  0.1112
 1280SOL    HW2 4886   1.429   4.196   4.286  0.8378 -1.8529 -1.3368
 1280SOL    HW3 4887   1.539   4.271   4.359 -1.9720  0.6751  0.5089
 1280SOL    MW4 4888   1.508   4.198   4.323  0.2530 -0.0590 -0.0274
 1281SOL     OW 4889   5.664   3.566   0.948 -0.1902  0.3898 -0.1972
 1281SOL    HW2 4890   5.689   3.551   1.040 -1.2381 -1.1529 -0.1206
 1281SOL    HW3 4891   5.629   3.482   0.919  1.2111  0.4739 -2.3999
 1281SOL    MW4 4892   5.663   3.553   0.956 -0.1436  0.1974 -0.4777
 1282SOL     OW 4893   0.627   3.146   4.349  0.5629  0.0724 -0.2546
 1282SOL    HW2 4894   0.657   3.204   4.279  0.5676 -1.3243 -1.4791
 1282SOL    HW3 4895   0.532   3.157   4.350  0.6575  0.9253  0.3099
 1282SOL    MW4 4896   0.618   3.155   4.340  0.5760  0.0006 -0.3417
 1283SOL     OW 4897   1.557   3.435   3.483  0.4757  0.2284  0.4717
 1283SOL    HW2 4898   1.543   3.410   3.574 -0.4281 -1.4375 -0.1045
 1283SOL    HW3 4899   1.653   3.440   3.474  0.5715  1.8700  1.8492
 1283SOL    MW4 4900   1.568   3.433   3.494  0.3691  0.2252  0.5774
 1284SOL     OW 4901   2.389   3.811   5.521 -0.7728  0.1867  0.8762
 1284SOL    HW2 4902   2.357   3.901   5.532 -1.0232  0.0432  1.3521
 1284SOL    HW3 4903   2.321   3.766   5.471 -0.4989  0.3423  0.3538
 1284SOL    MW4 4904   2.376   3.817   5.516 -0.7697  0.1883  0.8701
 1285SOL     OW 4905   5.235   6.270   6.346  0.0518 -0.5962 -0.4636
 1285SOL    HW2 4906   5.144   6.299   6.340  0.6327  1.0753 -4.2495
 1285SOL    HW3 4907   5.229   6.175   6.359 -2.0540 -0.1900  2.6529
 1285SOL    MW4 4908   5.222   6.261   6.347 -0.1494 -0.3220 -0.5519
 1286SOL     OW 4909   3.992   6.089   4.931  0.2567 -0.1817  0.1939
 1286SOL    HW2 4910   3.963   6.017   4.876  0.5177  0.0997 -0.3149
 1286SOL    HW3 4911   4.016   6.159   4.870  1.1132 -0.0769  0.6357
 1286SOL    MW4 4912   3.991   6.089   4.916  0.4042 -0.1308  0.1851
 1287SOL     OW 4913   4.879   3.901   1.799 -0.4675  0.2845 -0.2364
 1287SOL    HW2 4914   4.874   3.913   1.894 -1.5415 -0.7996 -0.1294
 1287SOL    HW3 4915   4.793   3.867   1.774  0.1469 -0.4926 -1.4250
 1287SOL    MW4 4916   4.867   3.898   1.808 -0.5281  0.0390 -0.3791
 1288SOL     OW 4917   0.973   5.832   4.556 -0.2854 -0.4809  0.8088
 1288SOL    HW2 4918   1.003   5.908   4.606  0.0748 -1.3945  2.0357
 1288SOL    HW3 4919   1.042   5.766   4.569 -0.2556 -0.8090 -0.7877
 1288SOL    MW4 4920   0.986   5.833   4.564 -0.2340 -0.6447  0.7600
 1289SOL     OW 4921   1.398   1.527   3.574  0.2250  0.4895  0.1765
 1289SOL    HW2 4922   1.357   1.447   3.543  2.9458 -0.5287 -1.0772
 1289SOL    HW3 4923   1.429   1.506   3.662 -0.9337  0.9159  0.7050
 1289SOL    MW4 4924   1.397   1.514   3.581  0.4311  0.4114  0.0808
 1290SOL     OW 4925   5.842   4.752   2.922  0.1066  0.0459  0.0981
 1290SOL    HW2 4926   5.778   4.688   2.891 -0.2046  0.5150 -0.2479
 1290SOL    HW3 4927   5.927   4.718   2.893 -0.2714  1.2653 -2.8039
 1290SOL    MW4 4928   5.845   4.739   2.914  0.0156  0.2687 -0.3304
 1291SOL     OW 4929   4.344   6.225   3.240 -0.7337  0.3872 -0.4038
 1291SOL    HW2 4930   4.413   6.205   3.176  0.7800  2.4892  0.4594
 1291SOL    HW3 4931   4.300   6.301   3.204  1.2251  2.6889  1.6680
 1291SOL    MW4 4932   4.348   6.232   3.227 -0.2755  0.9682 -0.0166
 1292SOL     OW 4933   2.588   2.505   4.257 -0.4028 -0.2125 -0.3887
 1292SOL    HW2 4934   2.590   2.409   4.263 -0.6119 -0.3780 -2.2870
 1292SOL    HW3 4935   2.665   2.534   4.305  0.0142 -1.3781 -0.3156
 1292SOL    MW4 4936   2.598   2.496   4.264 -0.3754 -0.3882 -0.6295
 1293SOL     OW 4937   2.872   5.855   0.280 -0.3700  0.5463  0.3571
 1293SOL    HW2 4938   2.885   5.794   0.353 -1.3816 -1.2115 -0.8643
 1293SOL    HW3 4939   2.951   5.848   0.228 -1.0540 -0.8836 -0.5516
 1293SOL    MW4 4940   2.884   5.846   0.283 -0.5937  0.1257  0.0760
 1294SOL     OW 4941   1.728   6.047   4.665 -0.1246  0.0686  0.5233
 1294SOL    HW2 4942   1.644   6.091   4.650 -0.7640 -0.3209  2.6299
 1294SOL    HW3 4943   1.747   6.064   4.757  1.2848 -1.2574  0.5057
 1294SOL    MW4 4944   1.719   6.055   4.675 -0.0230 -0.1577  0.7989
 1295SOL     OW 4945   0.458   1.742   0.600  0.1046  0.2779 -0.3074
 1295SOL    HW2 4946   0.425   1.832   0.597 -0.3482  0.0902 -2.2028
 1295SOL    HW3 4947   0.401   1.698   0.663  0.3308  1.2971  0.6468
 1295SOL    MW4 4948   0.446   1.748   0.608  0.0747  0.3876 -0.4315
 1296SOL     OW 4949   6.240   4.671   2.217 -0.2887 -0.2431  0.5453
 1296SOL    HW2 4950   6.307   4.721   2.264 -0.0821  1.1166 -1.0528
 1296SOL    HW3 4951   6.287   4.635   2.141 -1.3796  1.0570 -0.8157
 1296SOL    MW4 4952   6.255   4.673   2.213 -0.4053  0.1079  0.1549
 1297SOL     OW 4953   1.639   1.765   6.067 -0.3155  0.3434  0.4433
 1297SOL    HW2 4954   1.616   1.672   6.059 -0.3672  0.3136  0.9195
 1297SOL    HW3 4955   1.694   1.782   5.990 -0.6337  0.0226  0.1380
 1297SOL    MW4 4956   1.643   1.755   6.056 -0.3643  0.2971  0.4658
 1298SOL     OW 4957   5.708   4.898   4.628 -0.6414 -0.1222  0.3497
 1298SOL    HW2 4958   5.655   4.832   4.584  0.3474 -1.3917  0.9903
 1298SOL    HW3 4959   5.645   4.961   4.663 -1.4948  0.4845 -2.1066
 1298SOL    MW4 4960   5.693   4.898   4.627 -0.6236 -0.2096  0.1101
 1299SOL     OW 4961   6.353   6.113   1.950 -0.1401 -0.3251  0.3024
 1299SOL    HW2 4962   6.419   6.064   1.901  0.9381  0.5463  0.8350
 1299SOL    HW3 4963   6.319   6.178   1.889  1.0628  0.6321  0.6126
 1299SOL    MW4 4964   6.357   6.115   1.936  0.1609 -0.0839  0.4136
 1300SOL     OW 4965   1.031   1.300   4.362 -0.5076  0.6681 -0.6196
 1300SOL    HW2 4966   1.074   1.228   4.317  0.2354  1.1887 -0.7659
 1300SOL    HW3 4967   1.011   1.363   4.293 -1.7961  0.3051 -0.5986
 1300SOL    MW4 4968   1.034   1.299   4.347 -0.5796  0.6889 -0.6362
 1301SOL     OW 4969   2.824   5.909   4.952  0.0949 -0.1745  0.4161
 1301SOL    HW2 4970   2.894   5.946   4.898 -0.1638 -0.2730  0.0166
 1301SOL    HW3 4971   2.757   5.977   4.955  0.0855 -0.1885  0.5768
 1301SOL    MW4 4972   2.825   5.923   4.945  0.0595 -0.1893  0.3846
 1302SOL     OW 4973   3.612   5.191   4.876 -0.0318 -0.9067 -0.0820
 1302SOL    HW2 4974   3.694   5.235   4.901 -0.0229 -1.5433  1.0974
 1302SOL    HW3 4975   3.640   5.110   4.834 -0.0511 -1.0341  0.1488
 1302SOL    MW4 4976   3.626   5.186   4.874 -0.0331 -1.0075  0.1041
 1303SOL     OW 4977   0.747   1.206   5.854 -0.5107  0.5235  0.2622
 1303SOL    HW2 4978   0.747   1.235   5.763  1.5481 -0.5434 -0.1547
 1303SOL    HW3 4979   0.838   1.180   5.871 -1.1035 -0.5281  2.2177
 1303SOL    MW4 4980   0.759   1.206   5.844 -0.3173  0.2440  0.4652
 1304SOL     OW 4981   4.787   4.865   2.550 -0.3287 -0.6583 -0.5342
 1304SOL    HW2 4982   4.830   4.949   2.533  1.1136 -0.9418  1.3000
 1304SOL    HW3 4983   4.820   4.806   2.482  1.0910 -0.4803 -0.0356
 1304SOL    MW4 4984   4.797   4.868   2.539  0.0489 -0.6722 -0.2264
 1305SOL     OW 4985   0.503   5.821   0.112  0.2113 -0.1304 -0.1751
 1305SOL    HW2 4986   0.489   5.726   0.113  0.0027 -0.1015 -0.4187
 1305SOL    HW3 4987   0.581   5.833   0.058  1.4456 -0.3193  1.4746
 1305SOL    MW4 4988   0.512   5.810   0.105  0.3467 -0.1515  0.0104
 1306SOL     OW 4989   1.323   5.323   2.712 -0.2951  0.0322 -0.3270
 1306SOL    HW2 4990   1.276   5.366   2.784  1.3068 -0.6447  1.1994
 1306SOL    HW3 4991   1.392   5.385   2.689 -0.9953  0.3837 -1.5355
 1306SOL    MW4 4992   1.326   5.337   2.719 -0.1761 -0.0107 -0.2850
 1307SOL     OW 4993   2.680   4.290   3.648  0.0714  0.6241 -0.3840
 1307SOL    HW2 4994   2.685   4.200   3.616  1.1365  1.4479 -2.8138
 1307SOL    HW3 4995   2.590   4.317   3.631 -0.0604  0.2315 -0.3033
 1307SOL    MW4 4996   2.669   4.282   3.641  0.1945  0.6810 -0.6940
 1308SOL     OW 4997   2.342   0.092   0.667  0.2850 -0.3770  0.1208
 1308SOL    HW2 4998   2.372   0.177   0.636  1.4752  0.4695  3.1926
 1308SOL    HW3 4999   2.258   0.078   0.623 -0.0592  2.5042 -0.3057
 1308SOL    MW4 5000   2.335   0.101   0.657  0.3966  0.1148  0.4698
 1309SOL     OW 5001   4.464   0.522   5.558  0.5553 -0.1501  0.2611
 1309SOL    HW2 5002   4.493   0.445   5.606  0.0312 -1.3072 -1.2029
 1309SOL    HW3 5003   4.377   0.499   5.526 -1.1117  2.3390  2.5747
 1309SOL    MW4 5004   4.456   0.509   5.560  0.2662  0.0256  0.3732
 1310SOL     OW 5005   0.221   3.498   2.768  0.6123  0.1212 -0.1746
 1310SOL    HW2 5006   0.215   3.441   2.691 -1.4904  0.2267 -0.1509
 1310SOL    HW3 5007   0.225   3.587   2.733  0.7303  0.1181 -0.1703
 1310SOL    MW4 5008   0.221   3.502   2.754  0.3505  0.1347 -0.1709
 1311SOL     OW 5009   0.901   6.377   3.568 -0.4385 -0.0207 -1.3710
 1311SOL    HW2 5010   0.873   6.465   3.594 -0.0017 -0.3276  0.2732
 1311SOL    HW3 5011   0.821   6.326   3.563 -0.5939  0.2086 -1.2350
 1311SOL    MW4 5012   0.887   6.382   3.571 -0.4014 -0.0309 -1.1361
 1312SOL     OW 5013   5.257   3.552   5.184 -0.3308  0.9040  0.2519
 1312SOL    HW2 5014   5.299   3.467   5.197 -0.0046  1.0468  0.1465
 1312SOL    HW3 5015   5.185   3.554   5.247  0.1081  0.8509  0.7529
 1312SOL    MW4 5016   5.253   3.541   5.194 -0.2298  0.9158  0.3041
 1313SOL     OW 5017   5.858   4.780   3.771 -0.8894  0.5778  0.1743
 1313SOL    HW2 5018   5.923   4.769   3.701 -1.6715  2.5942 -0.9634
 1313SOL    HW3 5019   5.910   4.784   3.851  0.1859 -0.0749 -0.4555
 1313SOL    MW4 5020   5.874   4.779   3.772 -0.8507  0.7577 -0.0589
 1314SOL     OW 5021   4.136   5.964   3.616  0.1177  0.1923 -0.4534
 1314SOL    HW2 5022   4.212   5.913   3.645  0.3225  0.3887 -0.6370
 1314SOL    HW3 5023   4.157   6.054   3.643 -0.2197  0.1891 -0.1716
 1314SOL    MW4 5024   4.149   5.969   3.623  0.1002  0.2178 -0.4404
 1315SOL     OW 5025   1.146   2.862   5.454 -0.1500  0.4287 -0.4097
 1315SOL    HW2 5026   1.222   2.907   5.488  0.3760  0.1265 -1.1605
 1315SOL    HW3 5027   1.135   2.896   5.365  0.4386 -1.0975 -1.1042
 1315SOL    MW4 5028   1.154   2.872   5.446 -0.0029  0.1875 -0.6004
 1316SOL     OW 5029   3.281   0.297   4.679  0.3300  0.2295 -0.7418
 1316SOL    HW2 5030   3.269   0.392   4.671  0.0903  0.1654 -1.2303
 1316SOL    HW3 5031   3.241   0.274   4.763 -0.6738  0.4041 -1.1502
 1316SOL    MW4 5032   3.274   0.306   4.689  0.1660  0.2441 -0.8601
 1317SOL     OW 5033   4.418   0.960   0.860  0.4022 -0.0682  0.0179
 1317SOL    HW2 5034   4.415   0.879   0.912  2.3984 -1.2400 -1.5597
 1317SOL    HW3 5035   4.337   0.957   0.808  0.8768 -1.5708 -0.6955
 1317SOL    MW4 5036   4.407   0.949   0.860  0.7282 -0.4210 -0.2844
 1318SOL     OW 5037   0.720   5.033   0.049 -0.4825 -0.6019  0.1212
 1318SOL    HW2 5038   0.778   5.089  -0.002 -0.1332 -1.1128 -0.0500
 1318SOL    HW3 5039   0.646   5.016  -0.009 -0.9272  0.2412  0.4241
 1318SOL    MW4 5040   0.718   5.038   0.034 -0.4951 -0.5581  0.1386
 1319SOL     OW 5041   3.241   2.969   5.780  0.0172 -0.0923 -0.5808
 1319SOL    HW2 5042   3.331   2.999   5.793 -0.7436  2.0259  0.2402
 1319SOL    HW3 5043   3.246   2.910   5.705  2.2675 -0.9959  0.1849
 1319SOL    MW4 5044   3.254   2.965   5.772  0.2137  0.0680 -0.3714
 1320SOL     OW 5045   0.493   5.663   3.840 -0.3944  0.7407 -0.0041
 1320SOL    HW2 5046   0.419   5.610   3.869  0.3787 -0.6625 -0.5087
 1320SOL    HW3 5047   0.556   5.600   3.806  0.9188  1.9254  0.1295
 1320SOL    MW4 5048   0.492   5.648   3.839 -0.1192  0.7118 -0.0530
 1321SOL     OW 5049   3.936   0.309   0.412 -0.3049 -0.8669  0.3197
 1321SOL    HW2 5050   3.975   0.270   0.334  1.1365  0.4238  0.3496
 1321SOL    HW3 5051   3.988   0.388   0.429 -2.6246  0.6966  0.6779
 1321SOL    MW4 5052   3.948   0.314   0.404 -0.4208 -0.4903  0.3709
 1322SOL     OW 5053   4.593   2.119   5.762 -0.2758  0.3287 -0.2876
 1322SOL    HW2 5054   4.609   2.162   5.846  0.3781  0.4746 -0.4849
 1322SOL    HW3 5055   4.667   2.144   5.707 -0.6600  0.1705 -0.8872
 1322SOL    MW4 5056   4.604   2.128   5.766 -0.2402  0.3271 -0.3927
 1323SOL     OW 5057   5.749   4.819   1.893  0.3036  0.8290 -0.3409
 1323SOL    HW2 5058   5.831   4.770   1.896 -0.0741  0.2023  0.0791
 1323SOL    HW3 5059   5.737   4.840   1.800  0.5055  0.1690 -0.5233
 1323SOL    MW4 5060   5.758   4.815   1.881  0.2804  0.6593 -0.3095
 1324SOL     OW 5061   5.597   3.428   1.377  0.1384  0.5741  0.4456
 1324SOL    HW2 5062   5.658   3.354   1.389  0.4616  0.9230  1.0134
 1324SOL    HW3 5063   5.649   3.495   1.334 -0.1397  0.4992 -0.0127
 1324SOL    MW4 5064   5.612   3.427   1.373  0.1443  0.6102  0.4600
 1325SOL     OW 5065   0.212   2.933   4.792 -0.5523 -0.0919  0.0851
 1325SOL    HW2 5066   0.166   2.860   4.834 -0.0257 -1.0860 -0.9914
 1325SOL    HW3 5067   0.301   2.930   4.828 -0.0955 -0.9535 -1.0417
 1325SOL    MW4 5068   0.218   2.923   4.802 -0.4225 -0.3367 -0.2056
 1326SOL     OW 5069   4.963   2.008   4.567 -0.6517  0.1651 -0.4414
 1326SOL    HW2 5070   5.059   2.009   4.561 -0.3752  0.8438  2.4762
 1326SOL    HW3 5071   4.940   2.093   4.605 -2.3455 -0.2617 -0.4139
 1326SOL    MW4 5072   4.973   2.020   4.571 -0.8387  0.1983 -0.0529
 1327SOL     OW 5073   1.037   5.867   6.090  0.2048  0.1525  0.2049
 1327SOL    HW2 5074   1.128   5.838   6.088  0.6943  1.6200 -2.2327
 1327SOL    HW3 5075   1.040   5.948   6.142  0.4417  0.6048 -0.5044
 1327SOL    MW4 5076   1.050   5.874   6.097  0.3006  0.4058 -0.2103
 1328SOL     OW 5077   4.631   4.390   2.962  0.4002  0.5130  0.3729
 1328SOL    HW2 5078   4.685   4.422   3.035  0.3507  0.0498  0.6138
 1328SOL    HW3 5079   4.548   4.437   2.972  1.3307  2.6414 -1.0645
 1328SOL    MW4 5080   4.627   4.401   2.973  0.5164  0.7327  0.2151
 1329SOL     OW 5081   3.621   1.942   4.891  0.3512  0.2412 -0.0782
 1329SOL    HW2 5082   3.676   2.003   4.842 -0.2523  0.8710  0.0119
 1329SOL    HW3 5083   3.607   1.985   4.976 -0.5420  0.2569 -0.2192
 1329SOL    MW4 5084   3.626   1.956   4.896  0.1537  0.3264 -0.0849
 1330SOL     OW 5085   5.481   3.961   2.747  0.2108  0.4313  0.3669
 1330SOL    HW2 5086   5.394   3.975   2.783 -0.2366  0.2540 -0.6264
 1330SOL    HW3 5087   5.466   3.926   2.659  1.2838 -0.2569  0.4376
 1330SOL    MW4 5088   5.468   3.958   2.740  0.2934  0.3171  0.2451
 1331SOL     OW 5089   2.379   3.690   2.416 -0.2066  0.2433  0.4332
 1331SOL    HW2 5090   2.461   3.689   2.465 -0.7255 -1.7232  1.3523
 1331SOL    HW3 5091   2.405   3.662   2.328  0.2506  0.6544  0.4287
 1331SOL    MW4 5092   2.394   3.686   2.411 -0.2147  0.0381  0.5539
 1332SOL     OW 5093   2.263   0.476   5.059  0.3413 -0.4332 -0.2152
 1332SOL    HW2 5094   2.332   0.492   5.123  0.1572  0.4023 -0.2150
 1332SOL    HW3 5095   2.234   0.563   5.032 -1.8608 -0.7133  1.0230
 1332SOL    MW4 5096   2.268   0.489   5.064  0.0265 -0.3599 -0.0518
 1333SOL     OW 5097   3.909   4.206   4.182  0.0586  0.1815 -0.4269
 1333SOL    HW2 5098   3.904   4.293   4.224 -1.1981  0.5843 -1.3746
 1333SOL    HW3 5099   3.989   4.168   4.218  0.1390  1.3541  0.7344
 1333SOL    MW4 5100   3.919   4.213   4.193 -0.0966  0.3893 -0.3987
 1334SOL     OW 5101   3.031   1.979   3.959  1.0856 -0.0280  0.2644
 1334SOL    HW2 5102   3.113   1.986   3.911  0.4039 -0.9400 -1.1017
 1334SOL    HW3 5103   3.006   1.887   3.950 -0.1301  0.2576  0.5737
 1334SOL    MW4 5104   3.039   1.968   3.951  0.8352 -0.1107  0.1250
 1335SOL     OW 5105   2.383   1.043   0.454  0.1751  0.3523 -0.2785
 1335SOL    HW2 5106   2.441   1.010   0.522  0.0980 -1.0398 -0.8561
 1335SOL    HW3 5107   2.435   1.041   0.374  0.0485  1.3137 -0.3985
 1335SOL    MW4 5108   2.397   1.039   0.453  0.1482  0.2955 -0.3705
 1336SOL     OW 5109   1.346   3.171   4.169 -0.3874 -0.4944  0.1455
 1336SOL    HW2 5110   1.306   3.199   4.087 -2.7957 -1.0763  1.0353
 1336SOL    HW3 5111   1.313   3.082   4.182  1.1763 -0.9735  1.0112
 1336SOL    MW4 5112   1.336   3.163   4.160 -0.4988 -0.6344  0.3771
 1337SOL     OW 5113   1.556   6.369   5.555 -0.1049  0.2305 -0.9216
 1337SOL    HW2 5114   1.484   6.398   5.500 -0.7602 -0.4837 -0.4572
 1337SOL    HW3 5115   1.558   6.430   5.628 -1.7706 -1.0770  0.2909
 1337SOL    MW4 5116   1.547   6.381   5.557 -0.4111 -0.0363 -0.7003
 1338SOL     OW 5117   1.008   6.164   6.428 -0.0585 -0.5251  0.4412
 1338SOL    HW2 5118   0.996   6.070   6.444  0.3242 -0.2610  2.5861
 1338SOL    HW3 5119   0.922   6.203   6.447 -0.0467 -0.3582  0.1666
 1338SOL    MW4 5120   0.995   6.157   6.433 -0.0065 -0.4682  0.6880
 1339SOL     OW 5121   4.265   2.906   1.272  0.1903 -0.7032 -0.0677
 1339SOL    HW2 5122   4.300   2.860   1.348  0.2404 -0.6249 -0.0437
 1339SOL    HW3 5123   4.189   2.953   1.305 -3.0317 -4.6549 -0.9761
 1339SOL    MW4 5124   4.259   2.906   1.286 -0.2282 -1.2142 -0.1844
 1340SOL     OW 5125   3.530   4.569   3.785 -0.2530 -0.7106  0.5270
 1340SOL    HW2 5126   3.453   4.512   3.788 -0.7159 -0.0678  1.3785
 1340SOL    HW3 5127   3.496   4.656   3.805 -0.0772  0.4935 -3.5526
 1340SOL    MW4 5128   3.516   4.573   3.788 -0.2909 -0.4669  0.1011
 1341SOL     OW 5129   1.104   0.811   3.215  0.3095 -0.3246  0.2731
 1341SOL    HW2 5130   1.025   0.865   3.215 -0.0478 -0.8361 -0.1591
 1341SOL    HW3 5131   1.085   0.741   3.153  0.6797 -1.0843  1.0088
 1341SOL    MW4 5132   1.091   0.809   3.207  0.3112 -0.4923  0.3132
 1342SOL     OW 5133   5.070   5.537   0.256  0.9059  0.5812 -0.2018
 1342SOL    HW2 5134   5.096   5.450   0.285  2.0468  1.2209  0.7759
 1342SOL    HW3 5135   5.148   5.591   0.266  0.6024  1.4579 -2.0100
 1342SOL    MW4 5136   5.084   5.533   0.261  1.0164  0.7812 -0.3113
 1343SOL     OW 5137   6.322   6.288   5.945 -0.3894  0.1647 -0.4614
 1343SOL    HW2 5138   6.315   6.355   5.876  0.3190  0.6372 -0.0930
 1343SOL    HW3 5139   6.298   6.334   6.025 -0.6171 -0.2248 -0.3033
 1343SOL    MW4 5140   6.318   6.303   5.946 -0.3260  0.1756 -0.3919
 1344SOL     OW 5141   4.473   1.462   1.222  0.0169 -0.1092 -0.1101
 1344SOL    HW2 5142   4.451   1.372   1.197  0.0720  0.1545 -1.1535
 1344SOL    HW3 5143   4.543   1.453   1.287  1.1495 -0.7991 -1.3706
 1344SOL    MW4 5144   4.479   1.449   1.227  0.1736 -0.1654 -0.4140
 1345SOL     OW 5145   1.941   1.293   4.669  0.5083 -0.0686 -0.1043
 1345SOL    HW2 5146   1.957   1.200   4.685 -0.6876 -0.0838  1.2200
 1345SOL    HW3 5147   1.864   1.313   4.722 -0.4331  1.2361 -1.8511
 1345SOL    MW4 5148   1.933   1.283   4.678  0.2263  0.1016 -0.1600
 1346SOL     OW 5149   5.954   2.021   4.082  0.0509  0.1514 -0.3231
 1346SOL    HW2 5150   6.016   2.055   4.017 -0.0697 -0.5872 -0.8256
 1346SOL    HW3 5151   5.902   1.956   4.034  1.9417 -2.6761  1.2024
 1346SOL    MW4 5152   5.955   2.017   4.067  0.2844 -0.3191 -0.1881
 1347SOL     OW 5153   0.495   4.283   3.645  0.1349 -0.5128 -0.6319
 1347SOL    HW2 5154   0.423   4.323   3.596 -0.7713 -1.2635  0.0419
 1347SOL    HW3 5155   0.457   4.203   3.682  0.7252  0.0976  1.4315
 1347SOL    MW4 5156   0.481   4.277   3.643  0.0932 -0.5313 -0.2707
 1348SOL     OW 5157   1.603   4.057   1.447  0.3924 -0.2645 -0.0398
 1348SOL    HW2 5158   1.686   4.094   1.418  1.3527 -1.8361  0.6232
 1348SOL    HW3 5159   1.574   4.003   1.373  0.3479 -0.3382  0.0316
 1348SOL    MW4 5160   1.610   4.055   1.433  0.5132 -0.4816  0.0571
 1349SOL     OW 5161   4.247   2.685   2.020  0.0968 -0.6532 -0.1673
 1349SOL    HW2 5162   4.264   2.601   1.979  0.0659  0.2507 -2.1632
 1349SOL    HW3 5163   4.154   2.701   2.007 -0.1344 -0.7602  1.1635
 1349SOL    MW4 5164   4.237   2.676   2.013  0.0622 -0.5480 -0.2550
 1350SOL     OW 5165   2.773   1.233   3.177  0.0943 -0.2227 -0.1985
 1350SOL    HW2 5166   2.865   1.237   3.204  0.1957  0.7553 -0.6380
 1350SOL    HW3 5167   2.732   1.308   3.219  0.5054  2.0955 -3.5189
 1350SOL    MW4 5168   2.780   1.243   3.186  0.1619  0.2122 -0.6946
 1351SOL     OW 5169   5.907   0.424   1.099  0.5356  0.5137  0.3383
 1351SOL    HW2 5170   5.835   0.383   1.050 -0.3312  2.3791 -0.0342
 1351SOL    HW3 5171   5.877   0.514   1.114  2.6202  1.1996  0.5870
 1351SOL    MW4 5172   5.893   0.430   1.095  0.6963  0.8503  0.3219
 1352SOL     OW 5173   3.548   4.771   2.683  0.4162  0.2035  0.2136
 1352SOL    HW2 5174   3.518   4.735   2.599 -0.3936 -0.3737  0.7319
 1352SOL    HW3 5175   3.522   4.705   2.748 -1.8099  1.9923  1.2921
 1352SOL    MW4 5176   3.540   4.757   2.680  0.0157  0.3633  0.4243
 1353SOL     OW 5177   5.469   5.450   4.109 -0.3732  0.2488 -0.0614
 1353SOL    HW2 5178   5.457   5.408   4.024 -0.5000  0.0855  0.0373
 1353SOL    HW3 5179   5.473   5.544   4.089  0.9193  0.1368 -0.3902
 1353SOL    MW4 5180   5.468   5.457   4.095 -0.2194  0.2125 -0.0918
 1354SOL     OW 5181   2.827   3.072   2.717  0.2771  0.6818  0.1798
 1354SOL    HW2 5182   2.740   3.064   2.677  1.0061  0.2669 -1.4169
 1354SOL    HW3 5183   2.812   3.057   2.810 -1.3113  0.2531 -0.1104
 1354SOL    MW4 5184   2.814   3.069   2.724  0.1637  0.5705 -0.0692
 1355SOL     OW 5185   3.777   5.631   5.514 -0.2292  0.2588  0.0462
 1355SOL    HW2 5186   3.826   5.554   5.487 -0.8924 -1.4064  3.1736
 1355SOL    HW3 5187   3.686   5.602   5.517 -0.2592  0.2995  3.4786
 1355SOL    MW4 5188   3.771   5.617   5.511 -0.3207  0.0445  0.9117
 1356SOL     OW 5189   0.313   0.542   2.912  0.1368 -0.0690  0.3608
 1356SOL    HW2 5190   0.346   0.526   2.824  1.1594 -0.5322  0.8141
 1356SOL    HW3 5191   0.387   0.522   2.970 -0.1903  1.1963  1.2664
 1356SOL    MW4 5192   0.327   0.538   2.908  0.2286  0.0368  0.5401
 1357SOL     OW 5193   1.765   2.154   4.093  0.4220 -0.3016 -0.2679
 1357SOL    HW2 5194   1.735   2.142   4.183  0.5442 -1.3768 -0.3655
 1357SOL    HW3 5195   1.857   2.178   4.101  0.9290 -2.1464 -0.1467
 1357SOL    MW4 5196   1.773   2.156   4.106  0.5050 -0.6868 -0.2648
 1358SOL     OW 5197   2.531   0.839   4.086  0.1030  0.1936  0.6667
 1358SOL    HW2 5198   2.485   0.760   4.057  0.6948  0.1333 -0.1431
 1358SOL    HW3 5199   2.486   0.865   4.166 -0.7146 -0.4181  0.4200
 1358SOL    MW4 5200   2.519   0.832   4.092  0.0732  0.1049  0.5273
 1359SOL     OW 5201   5.238   1.573   6.401  0.2416  0.7173 -0.1899
 1359SOL    HW2 5202   5.318   1.612   6.365  0.7851 -0.3178 -0.1499
 1359SOL    HW3 5203   5.218   1.501   6.342 -0.2713  0.5443  0.1893
 1359SOL    MW4 5204   5.246   1.569   6.389  0.2456  0.5579 -0.1346
 1360SOL     OW 5205   5.590   3.063   3.397  0.1129  0.2133  0.0813
 1360SOL    HW2 5206   5.570   2.987   3.453  0.0218  0.6519  0.6510
 1360SOL    HW3 5207   5.591   3.027   3.308 -2.2387 -0.0308  0.0999
 1360SOL    MW4 5208   5.588   3.048   3.393 -0.2094  0.2389  0.1589
 1361SOL     OW 5209   6.316   1.342   3.873 -0.1380  0.1189  0.2087
 1361SOL    HW2 5210   6.295   1.287   3.949 -0.9173  1.2060  0.8056
 1361SOL    HW3 5211   6.329   1.430   3.910 -0.2385  0.6094 -0.8827
 1361SOL    MW4 5212   6.315   1.347   3.888 -0.2541  0.3271  0.1434
 1362SOL     OW 5213   1.738   4.311   3.385 -0.1463  0.3319 -0.5048
 1362SOL    HW2 5214   1.823   4.286   3.423 -1.1134 -0.9301  0.9777
 1362SOL    HW3 5215   1.746   4.405   3.369  0.8395  0.6718  1.5924
 1362SOL    MW4 5216   1.751   4.320   3.388 -0.1438  0.2102 -0.0325
 1363SOL     OW 5217   4.942   5.556   5.581 -0.3481  0.0331  0.2228
 1363SOL    HW2 5218   5.006   5.490   5.604 -0.6809 -0.6815 -0.8311
 1363SOL    HW3 5219   4.958   5.574   5.488  0.1892  1.9530  0.6509
 1363SOL    MW4 5220   4.952   5.550   5.572 -0.3211  0.1921  0.1403
 1364SOL     OW 5221   5.746   1.030   2.027 -0.5297 -0.5463  0.0402
 1364SOL    HW2 5222   5.770   0.941   2.001 -0.0046 -0.5597  0.5461
 1364SOL    HW3 5223   5.773   1.036   2.119  0.5191  0.5084 -0.3138
 1364SOL    MW4 5224   5.753   1.019   2.036 -0.3221 -0.4089  0.0602
 1365SOL     OW 5225   2.004   5.369   1.381  0.6691 -0.3010  0.1905
 1365SOL    HW2 5226   2.021   5.275   1.384 -1.9258 -0.8940 -0.9784
 1365SOL    HW3 5227   2.075   5.405   1.328 -0.0589 -2.1736 -2.2645
 1365SOL    MW4 5228   2.016   5.362   1.374  0.2307 -0.6263 -0.2876
 1366SOL     OW 5229   5.829   3.208   1.765  0.0379  0.3054 -0.3492
 1366SOL    HW2 5230   5.899   3.157   1.805 -0.3020  1.2640  1.5640
 1366SOL    HW3 5231   5.757   3.145   1.755 -0.3501  0.3201  1.9183
 1366SOL    MW4 5232   5.829   3.193   1.769 -0.0581  0.4338  0.2024
 1367SOL     OW 5233   3.270   5.999   5.308 -0.1125  0.1573  0.5771
 1367SOL    HW2 5234   3.234   5.922   5.262  2.1854  1.4430 -4.0036
 1367SOL    HW3 5235   3.209   6.070   5.287  1.4292  0.9518 -1.5484
 1367SOL    MW4 5236   3.257   5.998   5.299  0.3941  0.4318 -0.3077
 1368SOL     OW 5237   0.778   6.308   6.082 -0.1115  0.0333 -0.5919
 1368SOL    HW2 5238   0.812   6.324   5.994  0.1113  0.3313 -0.4532
 1368SOL    HW3 5239   0.816   6.378   6.135  0.3336 -0.5676 -0.1122
 1368SOL    MW4 5240   0.787   6.319   6.077 -0.0234 -0.0067 -0.5103
 1369SOL     OW 5241   5.814   6.354   5.431 -0.3242  0.4247 -0.2332
 1369SOL    HW2 5242   5.728   6.370   5.471 -0.5460 -1.7239  0.2850
 1369SOL    HW3 5243   5.797   6.286   5.365  0.8468  0.5833 -0.7173
 1369SOL    MW4 5244   5.800   6.347   5.428 -0.1990  0.1621 -0.2287
 1370SOL     OW 5245   2.800   2.690   2.766 -0.0455 -0.6045 -0.0417
 1370SOL    HW2 5246   2.712   2.705   2.732 -0.0370 -1.2150 -0.3449
 1370SOL    HW3 5247   2.786   2.640   2.847  0.0572 -1.3085 -0.4597
 1370SOL    MW4 5248   2.786   2.686   2.772 -0.0308 -0.7780 -0.1369
 1371SOL     OW 5249   1.784   5.258   3.283 -0.1211 -0.1970  0.5900
 1371SOL    HW2 5250   1.799   5.217   3.369 -0.4837 -1.4155  0.1014
 1371SOL    HW3 5251   1.741   5.189   3.231  0.4821  0.3635 -0.6993
 1371SOL    MW4 5252   1.781   5.243   3.287 -0.0894 -0.2838  0.3554
 1372SOL     OW 5253   1.092   1.695   5.524 -0.2694 -0.0436  0.1949
 1372SOL    HW2 5254   1.032   1.745   5.579  0.1019  0.6803 -0.0404
 1372SOL    HW3 5255   1.082   1.604   5.552  0.4772  0.3883  1.9911
 1372SOL    MW4 5256   1.083   1.690   5.535 -0.1219  0.1089  0.4008
 1373SOL     OW 5257   4.347   3.631   0.204  0.6057 -0.6382 -0.1092
 1373SOL    HW2 5258   4.267   3.639   0.153  0.4312 -0.8453  0.1250
 1373SOL    HW3 5259   4.341   3.544   0.244 -0.0526  0.1345  1.5670
 1373SOL    MW4 5260   4.335   3.620   0.203  0.4959 -0.5636  0.1429
 1374SOL     OW 5261   2.916   1.524   6.218  0.1807  0.0763  0.3460
 1374SOL    HW2 5262   2.922   1.446   6.163  0.8229  1.3440 -1.4776
 1374SOL    HW3 5263   3.001   1.530   6.262  0.6509  0.4736 -0.5882
 1374SOL    MW4 5264   2.928   1.515   6.216  0.3274  0.2960 -0.0178
 1375SOL     OW 5265   3.339   5.849   0.750 -0.0924  0.0429  0.2047
 1375SOL    HW2 5266   3.356   5.912   0.681  1.0593 -1.8346 -1.3441
 1375SOL    HW3 5267   3.244   5.838   0.751 -0.2168  1.0696 -0.1501
 1375SOL    MW4 5268   3.329   5.856   0.741  0.0431 -0.0694 -0.0464
 1376SOL     OW 5269   1.436   0.339   1.467 -0.1287 -0.4097 -0.2805
 1376SOL    HW2 5270   1.502   0.270   1.474 -0.7160 -0.8538  1.2784
 1376SOL    HW3 5271   1.368   0.301   1.410  1.0771  0.1949 -2.2115
 1376SOL    MW4 5272   1.436   0.325   1.460 -0.0471 -0.3885 -0.3296
 1377SOL     OW 5273   5.017   5.944   6.134 -0.2862 -0.4067  0.0319
 1377SOL    HW2 5274   4.976   6.031   6.138  0.8207  0.2066 -1.1617
 1377SOL    HW3 5275   4.967   5.891   6.196 -0.9119  1.1115  0.8918
 1377SOL    MW4 5276   5.005   5.949   6.143 -0.2227 -0.1255 -0.0121
 1378SOL     OW 5277   0.010   4.818   2.338 -0.0945  0.4990 -0.4033
 1378SOL    HW2 5278  -0.048   4.810   2.413 -0.6437  0.4476 -0.8261
 1378SOL    HW3 5279   0.093   4.782   2.369 -0.2780  0.5902  0.2144
 1378SOL    MW4 5280   0.013   4.812   2.352 -0.1912  0.5043 -0.3776
 1379SOL     OW 5281   0.583   5.149   2.961 -0.3014 -0.2206  0.1683
 1379SOL    HW2 5282   0.608   5.159   2.869 -1.6063 -0.1694 -0.2031
 1379SOL    HW3 5283   0.518   5.080   2.961 -1.3975  0.7631  0.8385
 1379SOL    MW4 5284   0.578   5.142   2.949 -0.6182 -0.0840  0.2077
 1380SOL     OW 5285   5.788   3.632   2.469  0.0854 -1.0075 -0.3781
 1380SOL    HW2 5286   5.839   3.553   2.453  0.0673 -1.3974  1.2907
 1380SOL    HW3 5287   5.853   3.697   2.498  0.0561 -0.4994 -1.4191
 1380SOL    MW4 5288   5.803   3.630   2.471  0.0791 -0.9919 -0.2953
 1381SOL     OW 5289   3.603   2.148   2.078  1.0490  0.5165 -0.5548
 1381SOL    HW2 5290   3.664   2.192   2.137  0.9905  0.5176 -0.4957
 1381SOL    HW3 5291   3.520   2.193   2.090  0.7343 -0.2360  0.2353
 1381SOL    MW4 5292   3.600   2.160   2.087  0.9998  0.4174 -0.4428
 1382SOL     OW 5293   4.787   2.832   4.213 -0.2062 -1.0403  0.0539
 1382SOL    HW2 5294   4.844   2.808   4.141  0.1643 -0.3026  0.0978
 1382SOL    HW3 5295   4.699   2.837   4.174 -0.0887 -1.1775 -0.2273
 1382SOL    MW4 5296   4.783   2.830   4.198 -0.1418 -0.9611  0.0226
 1383SOL     OW 5297   5.271   1.026   3.105  0.5442  0.1679 -0.1600
 1383SOL    HW2 5298   5.263   1.120   3.091  1.4242  0.0827 -1.3792
 1383SOL    HW3 5299   5.263   1.015   3.200  0.4039  1.4548 -0.0037
 1383SOL    MW4 5300   5.269   1.037   3.115  0.6418  0.3265 -0.3002
 1384SOL     OW 5301   5.603   5.693   2.606 -0.8059  0.1417 -0.4308
 1384SOL    HW2 5302   5.558   5.640   2.672 -1.5126  0.8565 -0.3177
 1384SOL    HW3 5303   5.643   5.630   2.547  2.4748 -0.6603  2.3126
 1384SOL    MW4 5304   5.602   5.678   2.607 -0.4663  0.1302 -0.0539
 1385SOL     OW 5305   0.136   3.662   3.516 -0.6617 -0.0466  0.3160
 1385SOL    HW2 5306   0.179   3.711   3.587  0.5924 -2.2411  1.1569
 1385SOL    HW3 5307   0.200   3.663   3.445 -0.8909  0.0563  0.1113
 1385SOL    MW4 5308   0.150   3.669   3.516 -0.5265 -0.3226  0.3999
 1386SOL     OW 5309   3.694   3.182   5.101 -0.4355 -0.0618 -0.2718
 1386SOL    HW2 5310   3.660   3.159   5.014  0.0479  0.8706 -0.7241
 1386SOL    HW3 5311   3.782   3.145   5.103  0.0861  1.1194 -0.7383
 1386SOL    MW4 5312   3.701   3.174   5.090 -0.3029  0.2171 -0.3930
 1387SOL     OW 5313   4.201   4.174   4.939 -0.2592  0.2866  0.3957
 1387SOL    HW2 5314   4.281   4.133   4.969 -0.5727 -0.0010  0.8551
 1387SOL    HW3 5315   4.212   4.267   4.961  0.1505  0.3320  0.0044
 1387SOL    MW4 5316   4.213   4.181   4.946 -0.2465  0.2546  0.4047
 1388SOL     OW 5317   5.069   4.893   0.574  0.6912 -0.9071  0.2243
 1388SOL    HW2 5318   5.099   4.802   0.568  0.8378 -0.7858 -1.4214
 1388SOL    HW3 5319   5.008   4.902   0.500 -0.2288  0.0187  1.0603
 1388SOL    MW4 5320   5.065   4.882   0.563  0.5892 -0.7690  0.1175
 1389SOL     OW 5321   0.149   3.776   4.516 -0.1789  0.3247 -0.0462
 1389SOL    HW2 5322   0.137   3.831   4.438  0.8839  2.3208  1.1197
 1389SOL    HW3 5323   0.063   3.774   4.557 -0.3347  0.7643 -0.3354
 1389SOL    MW4 5324   0.136   3.783   4.511 -0.0592  0.6461  0.0695
 1390SOL     OW 5325   4.103   4.327   2.710  0.1712 -0.4252  0.2412
 1390SOL    HW2 5326   4.130   4.249   2.759 -0.1407 -0.4088  0.4422
 1390SOL    HW3 5327   4.010   4.313   2.694  0.1253 -0.1120  0.2373
 1390SOL    MW4 5328   4.094   4.315   2.714  0.1240 -0.3817  0.2672
 1391SOL     OW 5329   2.008   5.722   3.060  0.1990  0.2006  0.2718
 1391SOL    HW2 5330   1.975   5.645   3.106 -0.0488  1.0253  1.5243
 1391SOL    HW3 5331   2.103   5.708   3.055  0.0751 -0.5232 -0.1684
 1391SOL    MW4 5332   2.016   5.710   3.066  0.1500  0.2139  0.3790
 1392SOL     OW 5333   3.858   4.664   2.792  0.4168  0.0855  0.1031
 1392SOL    HW2 5334   3.790   4.715   2.837  0.7848  0.7462 -0.0863
 1392SOL    HW3 5335   3.824   4.653   2.703  0.3877  0.0923  0.1132
 1392SOL    MW4 5336   3.844   4.669   2.786  0.4615  0.1736  0.0795
 1393SOL     OW 5337   3.788   4.878   5.205 -0.4048 -0.0345  0.1111
 1393SOL    HW2 5338   3.853   4.903   5.271  1.8950 -0.7091 -1.7704
 1393SOL    HW3 5339   3.811   4.788   5.183 -1.1509  0.1591 -1.5509
 1393SOL    MW4 5340   3.800   4.869   5.211 -0.1998 -0.0979 -0.3564
 1394SOL     OW 5341   4.886   5.245   6.125 -0.4151 -0.0455 -0.1617
 1394SOL    HW2 5342   4.897   5.151   6.139  1.1392  0.0054 -0.8647
 1394SOL    HW3 5343   4.922   5.286   6.203 -2.5196 -0.0086  0.8833
 1394SOL    MW4 5344   4.892   5.238   6.137 -0.4877 -0.0339 -0.1166
 1395SOL     OW 5345   0.753   2.814   2.447  0.3332 -0.5960  0.3428
 1395SOL    HW2 5346   0.789   2.818   2.535  2.1675 -0.3673 -0.3753
 1395SOL    HW3 5347   0.756   2.721   2.424  1.5517 -0.4620 -0.1132
 1395SOL    MW4 5348   0.758   2.802   2.455  0.7360 -0.5481  0.1878
 1396SOL     OW 5349   5.551   0.689   5.572 -0.1685 -0.0778  0.1193
 1396SOL    HW2 5350   5.522   0.779   5.589  0.5867  0.0060  1.0416
 1396SOL    HW3 5351   5.641   0.699   5.542  0.5759 -0.6256  2.0595
 1396SOL    MW4 5352   5.559   0.703   5.570  0.0294 -0.1390  0.4970
 1397SOL     OW 5353   3.694   3.964   6.044 -0.0151 -0.0415  0.2800
 1397SOL    HW2 5354   3.690   3.944   6.137 -1.3238 -1.0407  0.0441
 1397SOL    HW3 5355   3.625   4.028   6.030 -0.6851 -0.8444 -0.1951
 1397SOL    MW4 5356   3.684   3.970   6.054 -0.2762 -0.2792  0.1862
 1398SOL     OW 5357   4.412   2.391   1.989 -0.1747 -0.4708 -0.8666
 1398SOL    HW2 5358   4.331   2.387   2.040  0.1952  0.5732 -0.1692
 1398SOL    HW3 5359   4.417   2.306   1.945 -1.0730 -0.9750 -0.0293
 1398SOL    MW4 5360   4.402   2.379   1.990 -0.2444 -0.3996 -0.6642
 1399SOL     OW 5361   0.036   5.871   0.962  0.0077 -0.1432  0.4624
 1399SOL    HW2 5362   0.089   5.823   1.025 -0.5027 -0.7428  0.4461
 1399SOL    HW3 5363   0.036   5.817   0.884 -2.6657 -1.4674  1.2494
 1399SOL    MW4 5364   0.043   5.858   0.960 -0.4124 -0.3970  0.5641
 1400SOL     OW 5365   3.568   4.426   1.006  0.4221  0.3290  0.2793
 1400SOL    HW2 5366   3.483   4.432   1.051  0.7767 -0.7677  1.1421
 1400SOL    HW3 5367   3.632   4.417   1.077  1.2110  0.5798 -0.3840
 1400SOL    MW4 5368   3.565   4.426   1.021  0.5730  0.2174  0.3056
 1401SOL     OW 5369   4.196   0.887   1.103 -0.2543  0.2085 -0.0411
 1401SOL    HW2 5370   4.175   0.977   1.076 -2.0063 -0.1315  0.0402
 1401SOL    HW3 5371   4.196   0.837   1.021  2.5012  0.5426 -0.3158
 1401SOL    MW4 5372   4.193   0.893   1.089 -0.1219  0.2077 -0.0666
 1402SOL     OW 5373   1.359   4.983   1.137  0.7200  0.5166 -0.1457
 1402SOL    HW2 5374   1.405   5.039   1.075  0.6503 -0.3254 -0.9772
 1402SOL    HW3 5375   1.384   5.017   1.223  1.5372  1.1416 -0.6144
 1402SOL    MW4 5376   1.369   4.995   1.140  0.8187  0.4880 -0.3173
 1403SOL     OW 5377   4.589   3.410   1.096  0.2774  0.1447  0.8328
 1403SOL    HW2 5378   4.550   3.401   1.183  0.0766 -1.6173  0.5895
 1403SOL    HW3 5379   4.565   3.330   1.050  2.7039 -0.2587  0.0930
 1403SOL    MW4 5380   4.581   3.398   1.101  0.5710 -0.1410  0.7031
 1404SOL     OW 5381   5.643   0.370   1.406 -0.3427 -0.2729  0.3405
 1404SOL    HW2 5382   5.725   0.349   1.451  0.9059 -0.2506 -1.8213
 1404SOL    HW3 5383   5.575   0.350   1.471  1.3739  1.1779  2.7565
 1404SOL    MW4 5384   5.645   0.364   1.421  0.0485 -0.0785  0.3741
 1405SOL     OW 5385   2.368   5.903   0.083  0.0230 -0.1013  0.5762
 1405SOL    HW2 5386   2.318   5.857   0.150  0.1919 -1.2715 -0.0650
 1405SOL    HW3 5387   2.396   5.834   0.023  0.1961  0.8717 -0.4901
 1405SOL    MW4 5388   2.365   5.888   0.084  0.0681 -0.1273  0.3509
 1406SOL     OW 5389   6.309   1.291   3.094 -1.1760  0.5488 -0.3812
 1406SOL    HW2 5390   6.325   1.381   3.122 -0.5686  0.9010 -1.8055
 1406SOL    HW3 5391   6.283   1.298   3.002 -4.5748 -0.4389  0.3468
 1406SOL    MW4 5392   6.307   1.304   3.086 -1.5443  0.4650 -0.4731
 1407SOL     OW 5393   2.749   1.903   5.817 -0.3227 -0.2218  0.0898
 1407SOL    HW2 5394   2.804   1.968   5.775  0.7867 -0.8534  0.5413
 1407SOL    HW3 5395   2.661   1.941   5.814  0.4688  1.9442  1.6261
 1407SOL    MW4 5396   2.744   1.916   5.811 -0.0719 -0.0193  0.3521
 1408SOL     OW 5397   2.377   0.306   0.924 -0.1262  0.3520 -0.8695
 1408SOL    HW2 5398   2.328   0.355   0.991  0.8369 -0.7640  0.7309
 1408SOL    HW3 5399   2.314   0.242   0.890 -1.0367  1.8416 -2.1120
 1408SOL    MW4 5400   2.362   0.304   0.928 -0.1193  0.4013 -0.8223
 1409SOL     OW 5401   1.448   4.844   2.185  0.4425 -0.4363  0.2487
 1409SOL    HW2 5402   1.511   4.876   2.250  1.1782  0.8365 -1.0230
 1409SOL    HW3 5403   1.496   4.847   2.102 -0.6978 -1.3215 -0.4824
 1409SOL    MW4 5404   1.463   4.848   2.182  0.3891 -0.3852 -0.0155
 1410SOL     OW 5405   4.905   3.935   0.465  0.3015 -0.3520 -0.3897
 1410SOL    HW2 5406   4.882   3.989   0.390  0.1864  0.4054  0.1879
 1410SOL    HW3 5407   4.863   3.851   0.447  1.6653 -0.7524 -1.9888
 1410SOL    MW4 5408   4.896   3.931   0.453  0.4663 -0.3049 -0.5245
 1411SOL     OW 5409   4.453   0.268   3.177  0.1460 -0.1556 -0.2553
 1411SOL    HW2 5410   4.399   0.345   3.194  0.4270  0.2903 -1.3195
 1411SOL    HW3 5411   4.506   0.258   3.256 -0.4473  0.2734  0.2030
 1411SOL    MW4 5412   4.453   0.277   3.189  0.1048 -0.0402 -0.3353
 1412SOL     OW 5413   5.775   4.237   4.455 -0.4278 -0.1619  0.0849
 1412SOL    HW2 5414   5.749   4.183   4.530 -0.8360  0.4467  0.3975
 1412SOL    HW3 5415   5.726   4.202   4.381 -1.9258  0.7483  0.5960
 1412SOL    MW4 5416   5.765   4.225   4.455 -0.6793  0.0385  0.1936
 1413SOL     OW 5417   5.921   5.530   4.246  0.6741 -0.0763 -0.1067
 1413SOL    HW2 5418   5.884   5.617   4.231 -0.9013 -0.3719  1.7265
 1413SOL    HW3 5419   5.930   5.523   4.341  2.1720 -1.3894 -0.2945
 1413SOL    MW4 5420   5.917   5.540   4.257  0.6639 -0.2886  0.1104
 1414SOL     OW 5421   0.698   5.149   1.437 -0.2701 -0.4688 -0.3659
 1414SOL    HW2 5422   0.769   5.111   1.489 -1.3626 -1.7223  0.2554
 1414SOL    HW3 5423   0.627   5.086   1.443 -0.9155  0.0155 -2.2747
 1414SOL    MW4 5424   0.698   5.136   1.445 -0.4994 -0.5703 -0.5358
 1415SOL     OW 5425   1.763   4.532   2.388 -0.1795  0.2196  0.1817
 1415SOL    HW2 5426   1.794   4.478   2.460  0.0717  0.0572 -0.0475
 1415SOL    HW3 5427   1.673   4.554   2.412  0.2852  1.1748  1.1300
 1415SOL    MW4 5428   1.755   4.528   2.401 -0.0850  0.3242  0.2766
 1416SOL     OW 5429   1.636   1.038   2.326  0.1502  0.4274 -0.3021
 1416SOL    HW2 5430   1.620   1.088   2.406  1.5670 -2.0260  1.6856
 1416SOL    HW3 5431   1.713   0.985   2.346 -0.9462 -2.1986 -2.3522
 1416SOL    MW4 5432   1.644   1.038   2.339  0.1925 -0.2428 -0.3104
 1417SOL     OW 5433   1.446   5.348   3.056 -0.1715  0.2151 -0.6946
 1417SOL    HW2 5434   1.508   5.307   2.996 -1.8806 -0.1346 -2.3040
 1417SOL    HW3 5435   1.445   5.291   3.133  1.4614  0.2333 -0.6274
 1417SOL    MW4 5436   1.454   5.335   3.058 -0.1815  0.1713 -0.8981
 1418SOL     OW 5437   1.515   0.896   0.688 -0.3837  0.1862 -0.1473
 1418SOL    HW2 5438   1.430   0.857   0.673 -0.7544 -0.1248  2.2953
 1418SOL    HW3 5439   1.505   0.988   0.662 -1.5048  0.1710  0.1969
 1418SOL    MW4 5440   1.503   0.903   0.683 -0.5805  0.1431  0.2204
 1419SOL     OW 5441   0.842   3.542   5.084  0.6890 -0.1458 -0.2297
 1419SOL    HW2 5442   0.839   3.637   5.075  0.8405 -0.2054 -0.8895
 1419SOL    HW3 5443   0.928   3.524   5.121  0.5863 -0.0137  0.0789
 1419SOL    MW4 5444   0.853   3.552   5.088  0.6954 -0.1362 -0.2760
 1420SOL     OW 5445   5.755   5.332   1.741  0.1948 -0.3337 -0.3981
 1420SOL    HW2 5446   5.813   5.407   1.735  0.0323 -0.2001 -0.3159
 1420SOL    HW3 5447   5.667   5.369   1.740  0.1034 -0.5648 -0.9158
 1420SOL    MW4 5448   5.751   5.347   1.740  0.1613 -0.3466 -0.4556
 1421SOL     OW 5449   5.505   0.781   5.931  0.9232  0.0877 -0.0869
 1421SOL    HW2 5450   5.418   0.820   5.922  1.2260  0.6610 -0.5900
 1421SOL    HW3 5451   5.565   0.850   5.904  1.4835 -0.6677 -0.8008
 1421SOL    MW4 5452   5.501   0.795   5.927  1.0371  0.0637 -0.2475
 1422SOL     OW 5453   5.347   2.933   4.768  0.2396  0.1157 -0.5920
 1422SOL    HW2 5454   5.314   2.868   4.829 -1.0850  0.7839 -0.5653
 1422SOL    HW3 5455   5.338   2.891   4.682  0.9714 -0.3654 -0.4382
 1422SOL    MW4 5456   5.341   2.919   4.764  0.1614  0.1404 -0.5682
 1423SOL     OW 5457   6.100   3.196   0.123  0.1362  0.1131 -0.6289
 1423SOL    HW2 5458   6.085   3.279   0.077  1.5484  0.1238 -1.1399
 1423SOL    HW3 5459   6.063   3.210   0.210  1.4471  1.7789 -0.2705
 1423SOL    MW4 5460   6.093   3.209   0.129  0.4955  0.3343 -0.6490
 1424SOL     OW 5461   3.596   4.071   3.426 -0.2028  0.0570  0.1418
 1424SOL    HW2 5462   3.665   4.018   3.387  0.1418  0.2075  0.5390
 1424SOL    HW3 5463   3.524   4.068   3.363  0.3135  0.2345 -0.4622
 1424SOL    MW4 5464   3.596   4.064   3.412 -0.0892  0.1003  0.1145
 1425SOL     OW 5465   5.191   1.008   3.673 -0.8138 -0.2600 -0.4058
 1425SOL    HW2 5466   5.286   1.022   3.670 -0.7385 -0.7025 -0.1862
 1425SOL    HW3 5467   5.174   0.979   3.763 -1.1586 -0.1959 -0.4485
 1425SOL    MW4 5468   5.201   1.006   3.685 -0.8493 -0.3099 -0.3824
 1426SOL     OW 5469   5.939   3.529   3.965 -0.2235 -0.5071 -0.1162
 1426SOL    HW2 5470   6.002   3.458   3.954 -0.5221 -0.8000  0.0549
 1426SOL    HW3 5471   5.990   3.602   4.000 -0.4610 -1.5726  2.6345
 1426SOL    MW4 5472   5.954   3.529   3.968 -0.2942 -0.6864  0.2693
 1427SOL     OW 5473   4.597   5.829   2.233  0.0153 -0.9642  0.2027
 1427SOL    HW2 5474   4.562   5.918   2.221 -1.7631 -1.2873  2.3615
 1427SOL    HW3 5475   4.568   5.804   2.320  0.8011 -3.5558 -0.2122
 1427SOL    MW4 5476   4.588   5.838   2.243 -0.1157 -1.3488  0.4328
 1428SOL     OW 5477   1.005   5.583   4.819  0.1055  0.3514 -0.3071
 1428SOL    HW2 5478   1.013   5.678   4.823  0.7291  0.3274 -0.7546
 1428SOL    HW3 5479   1.093   5.553   4.798  0.5585 -0.5150  2.4576
 1428SOL    MW4 5480   1.017   5.592   4.817  0.2476  0.2340 -0.0014
 1429SOL     OW 5481   1.964   4.781   3.435 -0.6621 -0.1369 -0.1002
 1429SOL    HW2 5482   1.996   4.857   3.388 -1.2512  0.6484  0.7275
 1429SOL    HW3 5483   2.042   4.731   3.457 -0.3633 -0.5348 -1.8681
 1429SOL    MW4 5484   1.978   4.784   3.431 -0.7004 -0.0858 -0.2243
 1430SOL     OW 5485   0.729   1.079   3.058  0.3254 -0.2388 -0.2547
 1430SOL    HW2 5486   0.637   1.051   3.054 -0.2033  1.4571 -0.6118
 1430SOL    HW3 5487   0.771   1.034   2.985 -0.1371 -1.2507  0.0811
 1430SOL    MW4 5488   0.722   1.069   3.048  0.1946 -0.1485 -0.2575
 1431SOL     OW 5489   3.828   3.327   3.409  0.1167  0.3993  0.2238
 1431SOL    HW2 5490   3.835   3.346   3.315 -0.4051  0.2554  0.1569
 1431SOL    HW3 5491   3.919   3.317   3.437  0.2465 -0.3361 -0.4269
 1431SOL    MW4 5492   3.841   3.328   3.400  0.0650  0.2833  0.1292
 1432SOL     OW 5493   3.745   0.538   0.607 -0.0506 -0.0390 -0.1278
 1432SOL    HW2 5494   3.828   0.505   0.643 -0.5203 -2.1578 -0.8248
 1432SOL    HW3 5495   3.760   0.540   0.513 -0.7953 -0.5218 -0.2636
 1432SOL    MW4 5496   3.758   0.534   0.599 -0.2108 -0.3823 -0.2377
 1433SOL     OW 5497   4.714   2.040   6.378 -0.3159  0.1138  0.3167
 1433SOL    HW2 5498   4.633   2.013   6.422 -0.6193  1.3066  0.5231
 1433SOL    HW3 5499   4.701   2.015   6.286 -0.8784  0.2025  0.3699
 1433SOL    MW4 5500   4.701   2.033   6.372 -0.4302  0.2829  0.3509
 1434SOL     OW 5501   6.131   3.515   6.046 -0.5102 -0.2937  0.7841
 1434SOL    HW2 5502   6.201   3.453   6.067  0.8977  0.7710 -0.5313
 1434SOL    HW3 5503   6.090   3.480   5.967 -1.3355 -0.7942  1.4213
 1434SOL    MW4 5504   6.135   3.502   6.038 -0.4333 -0.2193  0.6946
 1435SOL     OW 5505   4.872   4.139   3.305 -0.0103 -0.3998 -0.6614
 1435SOL    HW2 5506   4.909   4.094   3.230  0.9252 -1.2562  0.2880
 1435SOL    HW3 5507   4.870   4.231   3.279  0.4733 -0.6546 -1.6504
 1435SOL    MW4 5508   4.876   4.145   3.292  0.1770 -0.5464 -0.6666
 1436SOL     OW 5509   3.031   2.879   5.358 -0.2472 -0.0236  0.0937
 1436SOL    HW2 5510   2.943   2.897   5.393 -0.2393 -2.9318  2.0522
 1436SOL    HW3 5511   3.016   2.811   5.292  0.5095 -0.4748  0.3791
 1436SOL    MW4 5512   3.017   2.872   5.354 -0.1463 -0.4668  0.3898
 1437SOL     OW 5513   3.913   5.177   0.916 -0.1752 -0.1989  0.5813
 1437SOL    HW2 5514   3.822   5.166   0.943  0.0325 -0.4786  1.1805
 1437SOL    HW3 5515   3.964   5.134   0.985  0.5501  2.0288  1.5002
 1437SOL    MW4 5516   3.907   5.170   0.929 -0.0521  0.0581  0.7816
 1438SOL     OW 5517   4.384   3.499   4.676 -0.3446  0.5310 -0.5040
 1438SOL    HW2 5518   4.452   3.566   4.670 -2.1231  2.3492 -1.4135
 1438SOL    HW3 5519   4.378   3.462   4.588 -1.3070  1.2007 -0.7290
 1438SOL    MW4 5520   4.392   3.503   4.664 -0.7062  0.8593 -0.6537
 1439SOL     OW 5521   5.040   6.115   3.277 -0.0629  0.2133  0.1992
 1439SOL    HW2 5522   5.123   6.068   3.287 -0.0741  0.0835 -0.2859
 1439SOL    HW3 5523   5.011   6.132   3.366  0.5128  0.3042  0.3711
 1439SOL    MW4 5524   5.047   6.111   3.290  0.0116  0.2082  0.1579
 1440SOL     OW 5525   2.519   2.859   4.845 -0.0428 -0.2009  0.3254
 1440SOL    HW2 5526   2.539   2.921   4.775 -0.1615  0.4768  0.8900
 1440SOL    HW3 5527   2.575   2.783   4.826  0.7287  0.4129  0.1132
 1440SOL    MW4 5528   2.529   2.857   4.833  0.0433 -0.0305  0.3719
 1441SOL     OW 5529   5.541   3.944   5.526 -0.1844  0.3105  0.2768
 1441SOL    HW2 5530   5.491   3.924   5.606 -1.0015  0.2171 -0.2408
 1441SOL    HW3 5531   5.502   3.888   5.459  0.1780  0.7319 -0.2982
 1441SOL    MW4 5532   5.529   3.934   5.528 -0.2444  0.3537  0.1327
 1442SOL     OW 5533   6.193   4.030   0.336  0.1651  0.0437  0.4697
 1442SOL    HW2 5534   6.247   3.951   0.345  0.2456  0.2099  1.7253
 1442SOL    HW3 5535   6.137   4.029   0.414  1.2576  2.0088  1.3589
 1442SOL    MW4 5536   6.193   4.019   0.348  0.3199  0.3249  0.7527
 1443SOL     OW 5537   0.648   5.499   0.180 -0.3370  0.4442  0.0217
 1443SOL    HW2 5538   0.634   5.525   0.271  2.4390 -0.0551  0.6838
 1443SOL    HW3 5539   0.628   5.405   0.179  2.0458 -0.1575  0.8435
 1443SOL    MW4 5540   0.643   5.490   0.192  0.3436  0.2990  0.2175
 1444SOL     OW 5541   6.230   0.760   2.618  0.1130  0.2524 -0.2570
 1444SOL    HW2 5542   6.269   0.755   2.530 -1.4549 -0.7946 -0.9338
 1444SOL    HW3 5543   6.243   0.672   2.654 -0.2022  0.3711  0.1387
 1444SOL    MW4 5544   6.237   0.748   2.611 -0.1355  0.1299 -0.2941
 1445SOL     OW 5545   0.023   1.284   1.315 -0.2924 -0.0963  0.5443
 1445SOL    HW2 5546  -0.059   1.235   1.323  1.3804 -3.3749 -0.6989
 1445SOL    HW3 5547   0.047   1.276   1.223  2.1715 -0.5709  1.1614
 1445SOL    MW4 5548   0.015   1.276   1.304  0.2534 -0.5915  0.4617
 1446SOL     OW 5549   2.340   0.363   0.049  0.0712  0.0033  0.6983
 1446SOL    HW2 5550   2.401   0.290   0.062 -0.3779 -0.2786  1.2421
 1446SOL    HW3 5551   2.280   0.357   0.122 -0.4547  0.4426  0.3059
 1446SOL    MW4 5552   2.340   0.352   0.060 -0.0574  0.0241  0.7182
 1447SOL     OW 5553   6.397   4.194   0.418  0.3059  0.0041  0.1774
 1447SOL    HW2 5554   6.446   4.223   0.341  0.2159  0.7401  0.3960
 1447SOL    HW3 5555   6.334   4.131   0.383  2.0050 -1.7389  0.0054
 1447SOL    MW4 5556   6.395   4.189   0.403  0.5182 -0.1288  0.1836
 1448SOL     OW 5557   5.914   1.296   4.687 -0.2977  0.5292 -0.4330
 1448SOL    HW2 5558   5.832   1.290   4.735 -0.3828  1.5582 -0.4386
 1448SOL    HW3 5559   5.938   1.388   4.690  1.5994  0.0525  0.7791
 1448SOL    MW4 5560   5.906   1.307   4.693 -0.0587  0.6020 -0.2738
 1449SOL     OW 5561   5.869   3.838   4.635 -0.2145 -0.4188 -0.1931
 1449SOL    HW2 5562   5.888   3.854   4.728 -0.2849  1.5306 -0.4703
 1449SOL    HW3 5563   5.951   3.860   4.590 -0.5775 -0.1220 -0.7064
 1449SOL    MW4 5564   5.883   3.843   4.642 -0.2717 -0.1225 -0.2974
 1450SOL     OW 5565   3.784   0.449   6.080 -0.1053 -0.7756  0.2178
 1450SOL    HW2 5566   3.852   0.434   6.146 -0.7297 -0.2780  1.0023
 1450SOL    HW3 5567   3.762   0.542   6.090 -1.7989 -1.2086  0.8800
 1450SOL    MW4 5568   3.790   0.460   6.090 -0.4112 -0.7671  0.4086
 1451SOL     OW 5569   1.500   4.556   2.446 -0.5716 -0.4817  0.2477
 1451SOL    HW2 5570   1.487   4.580   2.537 -1.0393  0.7092 -0.1096
 1451SOL    HW3 5571   1.436   4.609   2.398 -0.2003 -0.9423 -0.7872
 1451SOL    MW4 5572   1.490   4.566   2.452 -0.5843 -0.3853  0.0640
 1452SOL     OW 5573   0.536   1.396   1.839 -0.2733 -0.4039  0.2218
 1452SOL    HW2 5574   0.563   1.330   1.776 -0.3764 -2.1458  1.9288
 1452SOL    HW3 5575   0.610   1.457   1.843  0.0494 -0.6891 -0.9706
 1452SOL    MW4 5576   0.549   1.396   1.831 -0.2443 -0.6713  0.2897
 1453SOL     OW 5577   2.479   5.184   1.250  0.1792  0.4270  0.7935
 1453SOL    HW2 5578   2.452   5.095   1.271 -0.7028  0.3352 -0.6629
 1453SOL    HW3 5579   2.423   5.239   1.305 -2.1694  0.1918 -1.2279
 1453SOL    MW4 5580   2.468   5.180   1.260 -0.2471  0.3839  0.3346
 1454SOL     OW 5581   0.293   3.366   5.576 -0.0904 -0.3964  0.0905
 1454SOL    HW2 5582   0.277   3.422   5.500  1.2721 -1.2139 -0.8567
 1454SOL    HW3 5583   0.244   3.286   5.557  1.3374 -1.1368 -0.6355
 1454SOL    MW4 5584   0.285   3.363   5.563  0.2778 -0.6020 -0.1303
 1455SOL     OW 5585   3.442   1.931   6.065 -0.3456 -0.2176  0.1889
 1455SOL    HW2 5586   3.480   1.903   5.982 -0.5253 -2.4160  0.8044
 1455SOL    HW3 5587   3.349   1.909   6.057 -0.3316 -0.5981  1.0337
 1455SOL    MW4 5588   3.434   1.925   6.053 -0.3675 -0.5578  0.3816
 1456SOL     OW 5589   0.310   6.115   2.111 -0.2762  0.0575  0.3754
 1456SOL    HW2 5590   0.241   6.181   2.118 -0.3654 -0.1092  1.1673
 1456SOL    HW3 5591   0.392   6.164   2.117 -0.3370  0.1284  0.5966
 1456SOL    MW4 5592   0.312   6.130   2.112 -0.2960  0.0448  0.5091
 1457SOL     OW 5593   1.140   6.391   2.333 -0.0693  0.0338 -0.0096
 1457SOL    HW2 5594   1.069   6.328   2.322  0.4938 -0.8444  1.2154
 1457SOL    HW3 5595   1.199   6.351   2.396  2.6324 -0.2066 -2.4408
 1457SOL    MW4 5596   1.138   6.378   2.340  0.3615 -0.1138 -0.1688
 1458SOL     OW 5597   3.681   1.180   2.772  0.0034 -0.6178  0.1807
 1458SOL    HW2 5598   3.684   1.170   2.677  0.0081  1.4348 -0.0783
 1458SOL    HW3 5599   3.736   1.109   2.806  0.4278 -1.0533 -1.3702
 1458SOL    MW4 5600   3.688   1.169   2.764  0.0600 -0.4044 -0.0581
 1459SOL     OW 5601   2.588   2.011   6.103 -0.3738  0.2149  0.7546
 1459SOL    HW2 5602   2.609   1.953   6.030 -0.8760  0.7586  0.1704
 1459SOL    HW3 5603   2.635   1.973   6.178  0.9782  0.2167 -0.0602
 1459SOL    MW4 5604   2.597   1.998   6.103 -0.2617  0.2869  0.5701
 1460SOL     OW 5605   3.440   3.295   2.608  0.6620  0.2641 -0.0230
 1460SOL    HW2 5606   3.535   3.293   2.606  0.6449  0.0385 -1.5499
 1460SOL    HW3 5607   3.418   3.388   2.623  1.0994  0.2300  0.9206
 1460SOL    MW4 5608   3.449   3.307   2.610  0.7175  0.2298 -0.1000
 1461SOL     OW 5609   2.375   2.243   2.984  0.3850  0.3466  0.4165
 1461SOL    HW2 5610   2.315   2.316   3.001  0.0212  0.2267 -0.2799
 1461SOL    HW3 5611   2.336   2.169   3.030  0.0341  0.2919  0.0476
 1461SOL    MW4 5612   2.362   2.243   2.992  0.2907  0.3235  0.2760
 1462SOL     OW 5613   3.820   2.184   2.839 -0.2364 -0.6101  0.1883
 1462SOL    HW2 5614   3.796   2.102   2.797  0.8030 -1.6206  1.4434
 1462SOL    HW3 5615   3.861   2.157   2.922  0.5319  1.1490  0.4345
 1462SOL    MW4 5616   3.822   2.169   2.844  0.0021 -0.5113  0.3864
 1463SOL     OW 5617   1.516   6.025   2.858 -0.7024 -0.1496 -0.5334
 1463SOL    HW2 5618   1.517   5.929   2.862  0.9933 -0.2135 -1.7736
 1463SOL    HW3 5619   1.450   6.050   2.923 -1.2242 -2.1432 -0.2128
 1463SOL    MW4 5620   1.507   6.015   2.867 -0.5475 -0.4211 -0.6548
 1464SOL     OW 5621   3.633   2.272   6.413  0.2647 -0.3418  0.2547
 1464SOL    HW2 5622   3.592   2.248   6.496 -1.0548 -1.1761 -0.5925
 1464SOL    HW3 5623   3.726   2.259   6.428 -0.0194 -1.3501  1.3464
 1464SOL    MW4 5624   3.639   2.267   6.426  0.0531 -0.5849  0.2869
 1465SOL     OW 5625   4.918   3.969   2.078  0.1890 -0.9459 -0.4216
 1465SOL    HW2 5626   4.995   3.914   2.094 -0.8054 -2.0840  0.5946
 1465SOL    HW3 5627   4.950   4.059   2.094  1.2900 -1.4025  0.0790
 1465SOL    MW4 5628   4.933   3.974   2.083  0.2030 -1.1563 -0.2215
 1466SOL     OW 5629   1.479   2.515   1.498 -0.1473  0.2509 -0.1794
 1466SOL    HW2 5630   1.408   2.467   1.541 -1.3332  0.1504 -2.1231
 1466SOL    HW3 5631   1.555   2.456   1.503 -0.7956 -0.5795  0.0279
 1466SOL    MW4 5632   1.480   2.501   1.504 -0.3893  0.1281 -0.4085
 1467SOL     OW 5633   5.426   2.264   5.354 -0.0229 -0.0323 -0.1856
 1467SOL    HW2 5634   5.338   2.230   5.339  1.0365 -2.0336 -2.6524
 1467SOL    HW3 5635   5.445   2.315   5.275  1.0359  0.3422  0.3031
 1467SOL    MW4 5636   5.417   2.266   5.341  0.2566 -0.2469 -0.4466
 1468SOL     OW 5637   0.811   5.662   5.568 -0.2361  1.0378  0.8851
 1468SOL    HW2 5638   0.891   5.664   5.620 -0.0051 -1.5307  0.7737
 1468SOL    HW3 5639   0.759   5.591   5.606 -1.2015  0.7838 -0.7816
 1468SOL    MW4 5640   0.815   5.653   5.580 -0.3330  0.6654  0.6505
 1469SOL     OW 5641   5.154   5.801   0.414 -0.3244  0.1441  0.4069
 1469SOL    HW2 5642   5.159   5.718   0.461  0.0311  0.6325  1.2638
 1469SOL    HW3 5643   5.232   5.800   0.357 -0.1225  0.0450  0.6802
 1469SOL    MW4 5644   5.165   5.790   0.413 -0.2509  0.1955  0.5560
 1470SOL     OW 5645   0.557   5.300   2.176  0.6150  0.1200 -0.2536
 1470SOL    HW2 5646   0.479   5.274   2.127  1.2221  0.4222 -1.4289
 1470SOL    HW3 5647   0.592   5.374   2.126  2.6634 -1.1490 -0.8062
 1470SOL    MW4 5648   0.551   5.306   2.163  0.9654 -0.0075 -0.4816
 1471SOL     OW 5649   4.196   3.644   4.151 -0.2898  0.0418  0.7914
 1471SOL    HW2 5650   4.161   3.557   4.132  0.4309 -0.2638  0.8117
 1471SOL    HW3 5651   4.281   3.646   4.106 -0.4239  0.8374  0.5678
 1471SOL    MW4 5652   4.203   3.633   4.143 -0.2124  0.1064  0.7646
 1472SOL     OW 5653   3.807   1.622   5.106  0.1575 -0.4790 -0.1632
 1472SOL    HW2 5654   3.802   1.534   5.144 -0.9345  0.1115  1.1544
 1472SOL    HW3 5655   3.729   1.666   5.139  0.9071  1.1302 -0.4613
 1472SOL    MW4 5656   3.796   1.616   5.115  0.1123 -0.1888 -0.0287
 1473SOL     OW 5657   1.598   4.489   0.733 -0.0014  0.2779 -0.0522
 1473SOL    HW2 5658   1.568   4.442   0.811 -0.8996  1.5058  0.3718
 1473SOL    HW3 5659   1.520   4.533   0.700  0.3930 -0.1237 -1.6011
 1473SOL    MW4 5660   1.584   4.488   0.739 -0.0679  0.3869 -0.2006
 1474SOL     OW 5661   1.796   6.382   0.219 -0.8614  0.2580 -0.2699
 1474SOL    HW2 5662   1.746   6.385   0.137 -2.1332 -0.0932  0.4545
 1474SOL    HW3 5663   1.829   6.471   0.231  0.3837  0.0271 -1.7596
 1474SOL    MW4 5664   1.793   6.394   0.210 -0.8649  0.1812 -0.3708
 1475SOL     OW 5665   5.954   3.682   5.706 -0.4575  0.0063 -0.3261
 1475SOL    HW2 5666   6.043   3.714   5.691  0.0601  0.5767  3.1786
 1475SOL    HW3 5667   5.900   3.734   5.646  1.3129  1.2510 -0.9432
 1475SOL    MW4 5668   5.959   3.693   5.696 -0.1556  0.2458  0.0549
 1476SOL     OW 5669   4.516   2.141   3.399 -0.0335 -0.4920 -0.1701
 1476SOL    HW2 5670   4.511   2.130   3.494 -2.4580 -1.7642 -0.3701
 1476SOL    HW3 5671   4.541   2.055   3.366 -0.0304 -0.2746 -0.7408
 1476SOL    MW4 5672   4.519   2.129   3.407 -0.3530 -0.6311 -0.2718
 1477SOL     OW 5673   0.716   5.457   2.036  0.2521 -0.1883  0.1258
 1477SOL    HW2 5674   0.725   5.395   1.964  1.3893  0.2076 -0.1084
 1477SOL    HW3 5675   0.633   5.502   2.019  0.5230 -0.0713 -0.9736
 1477SOL    MW4 5676   0.706   5.455   2.024  0.4379 -0.1206 -0.0502
 1478SOL     OW 5677   3.513   5.552   5.513  0.5454  0.2735 -0.0803
 1478SOL    HW2 5678   3.466   5.479   5.472  1.0381  0.3400 -0.7898
 1478SOL    HW3 5679   3.477   5.630   5.471 -0.3520  0.4992  1.0464
 1478SOL    MW4 5680   3.502   5.552   5.502  0.4920  0.3120 -0.0253
 1479SOL     OW 5681   1.108   4.816   5.785  0.6200  0.1138  0.2515
 1479SOL    HW2 5682   1.147   4.843   5.868  0.4962 -0.3398  0.4594
 1479SOL    HW3 5683   1.016   4.798   5.807  0.2151  1.4005 -0.2725
 1479SOL    MW4 5684   1.101   4.817   5.799  0.5502  0.2237  0.2098
 1480SOL     OW 5685   0.245   5.267   4.442 -0.4480  0.0629 -0.0489
 1480SOL    HW2 5686   0.222   5.222   4.524  1.7719  0.4913  0.8785
 1480SOL    HW3 5687   0.325   5.223   4.413  1.2856  2.7555  0.4007
 1480SOL    MW4 5688   0.252   5.255   4.449  0.0737  0.4747  0.1327
 1481SOL     OW 5689   5.796   2.118   5.907 -0.5471 -0.0464 -0.3899
 1481SOL    HW2 5690   5.879   2.070   5.896  0.5989  1.1368  2.3969
 1481SOL    HW3 5691   5.749   2.069   5.974 -1.1690  0.4971 -0.4227
 1481SOL    MW4 5692   5.801   2.105   5.914 -0.4780  0.1814 -0.0266
 1482SOL     OW 5693   1.633   3.132   0.066  0.7805  0.0409 -1.0420
 1482SOL    HW2 5694   1.610   3.110   0.156 -2.4409  1.2581 -1.4168
 1482SOL    HW3 5695   1.693   3.206   0.074  0.4430  0.2090  0.1053
 1482SOL    MW4 5696   1.638   3.139   0.079  0.3110  0.2237 -0.9400
 1483SOL     OW 5697   2.514   2.477   3.473 -0.1947 -0.3297 -0.1910
 1483SOL    HW2 5698   2.496   2.488   3.379 -1.4601 -2.0070 -0.1964
 1483SOL    HW3 5699   2.437   2.514   3.516  0.8619  1.4351  0.2819
 1483SOL    MW4 5700   2.501   2.484   3.466 -0.2223 -0.3182 -0.1293
 1484SOL     OW 5701   2.219   0.346   0.289  0.3134 -0.0126 -0.3080
 1484SOL    HW2 5702   2.291   0.328   0.351  0.3536 -1.2065 -0.6790
 1484SOL    HW3 5703   2.187   0.432   0.315  0.2443 -0.5325  1.4734
 1484SOL    MW4 5704   2.224   0.355   0.301  0.3096 -0.2387 -0.1219
 1485SOL     OW 5705   3.355   5.989   5.590 -0.3788  0.4137 -0.0763
 1485SOL    HW2 5706   3.335   6.015   5.680 -0.2426  0.6719 -0.1223
 1485SOL    HW3 5707   3.326   6.063   5.537  0.7858  0.8303 -0.1431
 1485SOL    MW4 5708   3.348   6.002   5.595 -0.2072  0.5028 -0.0912
 1486SOL     OW 5709   1.458   3.371   4.331  0.2787  0.3469  0.1867
 1486SOL    HW2 5710   1.433   3.311   4.262  2.5874 -3.1804  2.1389
 1486SOL    HW3 5711   1.528   3.425   4.293  1.6279 -1.6417 -0.2980
 1486SOL    MW4 5712   1.464   3.371   4.317  0.7613 -0.3808  0.3803
 1487SOL     OW 5713   2.362   5.194   0.700  0.4671  0.1716 -0.3370
 1487SOL    HW2 5714   2.298   5.141   0.652  0.3124  0.1661 -0.1256
 1487SOL    HW3 5715   2.432   5.210   0.637  0.5635 -0.3768 -0.3728
 1487SOL    MW4 5716   2.363   5.189   0.685  0.4594  0.0985 -0.3138
 1488SOL     OW 5717   5.992   1.136   1.910 -0.5086 -0.3898 -0.3680
 1488SOL    HW2 5718   6.058   1.085   1.957  1.0014  1.4051 -0.4583
 1488SOL    HW3 5719   5.911   1.122   1.961 -0.3688 -3.3046 -0.7313
 1488SOL    MW4 5720   5.990   1.127   1.923 -0.2909 -0.5375 -0.4279
 1489SOL     OW 5721   5.966   1.093   4.151  0.0035 -0.0279  0.6983
 1489SOL    HW2 5722   6.046   1.145   4.152 -0.7170  1.1239  0.4171
 1489SOL    HW3 5723   5.994   1.007   4.119  1.5786 -0.4987  3.1008
 1489SOL    MW4 5724   5.980   1.089   4.147  0.1163  0.0620  0.9782
 1490SOL     OW 5725   5.750   3.129   0.141 -0.5195  0.1964 -0.4212
 1490SOL    HW2 5726   5.826   3.082   0.176  0.2656  0.4612 -1.7184
 1490SOL    HW3 5727   5.746   3.104   0.049 -0.9792  1.5166 -0.7824
 1490SOL    MW4 5728   5.760   3.120   0.134 -0.4766  0.4055 -0.6400
 1491SOL     OW 5729   0.536   5.786   4.336 -0.1764  0.0518  0.1600
 1491SOL    HW2 5730   0.460   5.790   4.394 -1.6091 -0.2522 -1.6126
 1491SOL    HW3 5731   0.603   5.740   4.388 -1.1455  0.4038  1.7928
 1491SOL    MW4 5732   0.535   5.780   4.351 -0.4933  0.0582  0.1416
 1492SOL     OW 5733   2.699   3.921   1.612 -0.1654 -0.2370 -0.4257
 1492SOL    HW2 5734   2.711   3.984   1.542  0.1436 -0.5278 -0.6397
 1492SOL    HW3 5735   2.605   3.920   1.628 -0.0847  0.9663  0.2295
 1492SOL    MW4 5736   2.689   3.929   1.605 -0.1140 -0.1166 -0.3675
 1493SOL     OW 5737   0.739   5.326   6.200  0.2655 -0.0399 -0.2315
 1493SOL    HW2 5738   0.784   5.410   6.188 -0.8970  1.0667  2.3611
 1493SOL    HW3 5739   0.798   5.275   6.256 -0.5792  0.4920  1.1882
 1493SOL    MW4 5740   0.753   5.330   6.206  0.0007  0.1763  0.2979
 1494SOL     OW 5741   0.395   6.340   4.272  0.0475 -0.5560  0.2156
 1494SOL    HW2 5742   0.362   6.263   4.318 -1.1047  0.3684  1.0153
 1494SOL    HW3 5743   0.372   6.413   4.329  2.8529  0.2520  0.4212
 1494SOL    MW4 5744   0.387   6.339   4.286  0.2656 -0.3274  0.3482
 1495SOL     OW 5745   6.128   3.184   6.069 -0.0614 -0.3309  0.4058
 1495SOL    HW2 5746   6.038   3.203   6.095 -0.5527 -0.5414 -1.0366
 1495SOL    HW3 5747   6.120   3.113   6.006  1.0896 -0.1608  0.0490
 1495SOL    MW4 5748   6.115   3.177   6.064  0.0257 -0.3362  0.1684
 1496SOL     OW 5749   1.503   4.314   5.259  0.2080 -0.8070 -0.5230
 1496SOL    HW2 5750   1.497   4.220   5.244  1.0831 -0.6013 -2.3060
 1496SOL    HW3 5751   1.455   4.354   5.186  2.0794  0.1716 -1.2919
 1496SOL    MW4 5752   1.496   4.307   5.248  0.5703 -0.6507 -0.8597
 1497SOL     OW 5753   5.493   4.829   3.132 -0.1247  0.6057 -0.4441
 1497SOL    HW2 5754   5.398   4.825   3.137 -0.0665  1.0089  1.8217
 1497SOL    HW3 5755   5.510   4.896   3.065 -1.4084  0.3126 -1.0908
 1497SOL    MW4 5756   5.483   4.838   3.123 -0.2864  0.6202 -0.2305
 1498SOL     OW 5757   4.553   4.563   2.370 -0.5826 -0.4644  0.0654
 1498SOL    HW2 5758   4.540   4.624   2.297 -1.6568 -1.2122 -0.3933
 1498SOL    HW3 5759   4.643   4.579   2.399 -0.3335  0.2489 -1.0437
 1498SOL    MW4 5760   4.563   4.573   2.364 -0.6915 -0.4690 -0.1414
 1499SOL     OW 5761   3.371   5.190   4.731 -0.5922 -0.1517  0.4698
 1499SOL    HW2 5762   3.424   5.235   4.797 -0.5870 -0.8371  0.9399
 1499SOL    HW3 5763   3.319   5.260   4.691  2.1499  0.8953 -1.5026
 1499SOL    MW4 5764   3.371   5.205   4.735 -0.2297 -0.1040  0.2716
 1500SOL     OW 5765   5.906   6.075   4.000 -0.2783  0.0420 -0.0114
 1500SOL    HW2 5766   5.950   6.081   4.084 -0.2574  0.9850 -0.0742
 1500SOL    HW3 5767   5.837   6.142   4.004  0.6578  1.1455 -1.2685
 1500SOL    MW4 5768   5.903   6.085   4.011 -0.1521  0.3120 -0.1856
 1501SOL     OW 5769   5.144   5.964   1.071 -0.1682 -0.2763  0.4265
 1501SOL    HW2 5770   5.134   6.002   1.159 -1.1992 -0.1019  0.2450
 1501SOL    HW3 5771   5.165   6.039   1.015 -0.6242 -0.2104  0.3393
 1501SOL    MW4 5772   5.146   5.979   1.075 -0.3644 -0.2446  0.3910
 1502SOL     OW 5773   1.312   5.473   4.430  0.2403 -0.2033 -0.2328
 1502SOL    HW2 5774   1.394   5.437   4.465 -2.3311 -3.2038  3.6314
 1502SOL    HW3 5775   1.280   5.531   4.499 -1.6559 -0.4660 -0.8384
 1502SOL    MW4 5776   1.319   5.476   4.443 -0.3492 -0.6338  0.1971
 1503SOL     OW 5777   4.905   5.247   2.880 -0.1799 -0.0879  0.5366
 1503SOL    HW2 5778   4.855   5.307   2.825 -0.4185 -0.5979  0.1941
 1503SOL    HW3 5779   4.856   5.245   2.963  0.1335  0.6125  0.7526
 1503SOL    MW4 5780   4.892   5.255   2.884 -0.1700 -0.0628  0.5199
 1504SOL     OW 5781   5.619   0.906   4.319  0.2529  0.5858 -0.3151
 1504SOL    HW2 5782   5.676   0.885   4.394 -0.6163 -2.7060 -0.4281
 1504SOL    HW3 5783   5.535   0.867   4.342 -0.9683  2.2870 -1.6881
 1504SOL    MW4 5784   5.616   0.898   4.332 -0.0229  0.3759 -0.5111
 1505SOL     OW 5785   6.228   2.500   2.150  0.2242  0.1288  0.6512
 1505SOL    HW2 5786   6.220   2.571   2.213 -0.6504  1.3620 -0.7767
 1505SOL    HW3 5787   6.165   2.434   2.179 -0.5893  0.9373  0.7760
 1505SOL    MW4 5788   6.218   2.501   2.162  0.0015  0.3982  0.4793
 1506SOL     OW 5789   3.200   3.604   0.591  0.4411  0.8593  0.2921
 1506SOL    HW2 5790   3.225   3.512   0.590 -0.6591  0.5257  1.5272
 1506SOL    HW3 5791   3.268   3.648   0.540  0.2134 -0.8187 -1.5833
 1506SOL    MW4 5792   3.212   3.598   0.584  0.2659  0.5939  0.2076
 1507SOL     OW 5793   5.058   5.324   2.464  0.1094 -0.1742 -0.6413
 1507SOL    HW2 5794   5.082   5.402   2.414 -2.9950  0.7260 -0.9404
 1507SOL    HW3 5795   5.031   5.357   2.550 -3.8325 -0.3803 -1.6005
 1507SOL    MW4 5796   5.057   5.338   2.469 -0.8203 -0.0826 -0.8073
 1508SOL     OW 5797   2.937   4.900   4.398 -0.3255  0.5222  0.3590
 1508SOL    HW2 5798   2.977   4.835   4.339  0.5064  1.0675  0.3013
 1508SOL    HW3 5799   2.983   4.981   4.378 -1.7212  1.2674  0.0635
 1508SOL    MW4 5800   2.949   4.902   4.388 -0.3999  0.6925  0.3124
 1509SOL     OW 5801   0.645   3.630   1.879  0.9241  0.2220 -0.0142
 1509SOL    HW2 5802   0.675   3.592   1.962  0.6015 -0.4341 -0.1839
 1509SOL    HW3 5803   0.642   3.724   1.895  2.2786  0.2435  0.2537
 1509SOL    MW4 5804   0.648   3.637   1.892  1.0602  0.1382 -0.0012
 1510SOL     OW 5805   5.605   4.654   5.038  0.2646  0.2449  0.1214
 1510SOL    HW2 5806   5.654   4.687   4.962  0.9400  1.0796  0.9018
 1510SOL    HW3 5807   5.557   4.730   5.070 -0.2035 -0.1646  0.3911
 1510SOL    MW4 5808   5.605   4.668   5.032  0.2919  0.3010  0.2599
 1511SOL     OW 5809   2.270   1.803   2.499  0.2148  0.2371  0.6393
 1511SOL    HW2 5810   2.232   1.718   2.522  0.6553  0.2710  1.5568
 1511SOL    HW3 5811   2.355   1.781   2.460  0.3729  0.2485  0.9683
 1511SOL    MW4 5812   2.276   1.789   2.497  0.2938  0.2431  0.8037
 1512SOL     OW 5813   0.569   0.781   5.847 -0.0630  0.2326  0.1637
 1512SOL    HW2 5814   0.661   0.755   5.857 -0.3150 -0.4043  0.8519
 1512SOL    HW3 5815   0.519   0.702   5.866 -0.7516  0.4900 -0.5247
 1512SOL    MW4 5816   0.575   0.767   5.851 -0.1871  0.1826  0.1637
 1513SOL     OW 5817   0.512   0.571   6.167  0.8136  0.0096  0.1440
 1513SOL    HW2 5818   0.436   0.513   6.169  1.5016 -0.9497 -0.6136
 1513SOL    HW3 5819   0.476   0.658   6.185 -0.5353 -0.3463 -0.6888
 1513SOL    MW4 5820   0.497   0.575   6.169  0.7264 -0.1639 -0.0658
 1514SOL     OW 5821   0.483   5.843   1.759  0.4372 -0.1104  0.0967
 1514SOL    HW2 5822   0.416   5.856   1.825  0.1670 -1.5569  0.1493
 1514SOL    HW3 5823   0.564   5.873   1.801  0.6067 -2.7105  1.8643
 1514SOL    MW4 5824   0.485   5.849   1.773  0.4239 -0.6443  0.3369
 1515SOL     OW 5825   5.345   3.562   4.050 -0.6808 -0.8371 -0.3893
 1515SOL    HW2 5826   5.378   3.554   3.961 -0.4927 -0.6774 -0.3366
 1515SOL    HW3 5827   5.318   3.654   4.058 -2.0602 -1.1900 -0.7397
 1515SOL    MW4 5828   5.346   3.573   4.039 -0.8380 -0.8626 -0.4286
 1516SOL     OW 5829   4.859   5.652   4.664  0.3496 -0.4396  0.0003
 1516SOL    HW2 5830   4.949   5.627   4.685  0.1499 -0.6737  0.5882
 1516SOL    HW3 5831   4.867   5.741   4.631  0.5208  0.5499  2.5188
 1516SOL    MW4 5832   4.872   5.660   4.663  0.3458 -0.3399  0.4101
 1517SOL     OW 5833   2.455   5.474   4.305 -0.7833 -0.2823 -0.6526
 1517SOL    HW2 5834   2.385   5.436   4.252 -3.4532  0.8079  1.7871
 1517SOL    HW3 5835   2.418   5.476   4.394  2.2668  0.7022  0.7064
 1517SOL    MW4 5836   2.441   5.469   4.310 -0.7332 -0.0086 -0.1514
 1518SOL     OW 5837   3.130   2.272   0.134  0.7275  0.8576 -0.0290
 1518SOL    HW2 5838   3.171   2.358   0.132  1.9110  0.3201  0.2301
 1518SOL    HW3 5839   3.123   2.251   0.227  1.0151  0.4197 -0.1019
 1518SOL    MW4 5840   3.134   2.281   0.146  0.9216  0.7289 -0.0044
 1519SOL     OW 5841   0.507   0.081   1.244  0.1326 -0.2937 -0.0210
 1519SOL    HW2 5842   0.518   0.006   1.302  0.3802 -0.1822  0.0759
 1519SOL    HW3 5843   0.562   0.060   1.168  0.4215 -0.0799  0.1312
 1519SOL    MW4 5844   0.515   0.068   1.241  0.2034 -0.2508  0.0118
 1520SOL     OW 5845   5.397   3.333   5.192 -0.2425 -0.2025  0.3704
 1520SOL    HW2 5846   5.451   3.307   5.118 -0.5624  0.9753 -0.3042
 1520SOL    HW3 5847   5.453   3.319   5.269  0.1887 -1.1633 -0.1029
 1520SOL    MW4 5848   5.412   3.328   5.193 -0.2278 -0.1739  0.2189
 1521SOL     OW 5849   2.690   5.130   6.181 -0.0199  0.7326  0.2329
 1521SOL    HW2 5850   2.763   5.132   6.243  0.0924  1.0816  0.0903
 1521SOL    HW3 5851   2.630   5.197   6.211  0.9864  2.3571 -1.1705
 1521SOL    MW4 5852   2.692   5.139   6.193  0.1277  0.9930  0.0289
 1522SOL     OW 5853   5.737   6.000   5.011  0.1596 -0.4634  0.2892
 1522SOL    HW2 5854   5.797   5.926   5.013  3.8709  2.2570  1.2665
 1522SOL    HW3 5855   5.762   6.054   5.086 -0.3166  3.0907 -1.8138
 1522SOL    MW4 5856   5.748   5.998   5.021  0.5864  0.3645  0.1407
 1523SOL     OW 5857   2.660   3.337   2.741  0.2921 -0.1168 -0.6520
 1523SOL    HW2 5858   2.592   3.325   2.807  1.2912 -0.0283  0.4103
 1523SOL    HW3 5859   2.712   3.257   2.744  1.7408  0.8089  0.3460
 1523SOL    MW4 5860   2.658   3.325   2.750  0.6151  0.0170 -0.3802
 1524SOL     OW 5861   4.122   1.738   5.766 -0.3418 -0.5093  0.2472
 1524SOL    HW2 5862   4.178   1.790   5.710 -0.5367 -0.4611  0.0955
 1524SOL    HW3 5863   4.092   1.799   5.834 -0.6095 -0.4104  0.0415
 1524SOL    MW4 5864   4.125   1.753   5.768 -0.4028 -0.4899  0.2001
 1525SOL     OW 5865   3.112   1.910   1.048  0.3834  0.2719 -0.3281
 1525SOL    HW2 5866   3.113   1.845   1.119  0.7856  0.0946 -0.4979
 1525SOL    HW3 5867   3.198   1.952   1.052  0.2096  0.6421 -0.3662
 1525SOL    MW4 5868   3.123   1.907   1.058  0.4135  0.2973 -0.3555
 1526SOL     OW 5869   0.011   0.634   1.338 -0.0968 -0.4693  0.5570
 1526SOL    HW2 5870   0.062   0.694   1.283 -2.0910 -0.8583 -1.8617
 1526SOL    HW3 5871  -0.069   0.682   1.359 -0.4876 -1.2731  0.9528
 1526SOL    MW4 5872   0.007   0.649   1.334 -0.4115 -0.6267  0.2901
 1527SOL     OW 5873   3.411   5.055   4.488 -0.2550 -0.0914  0.1349
 1527SOL    HW2 5874   3.409   5.099   4.573 -0.5887 -0.6978  0.4419
 1527SOL    HW3 5875   3.497   5.079   4.451 -0.3928  0.7485  0.3237
 1527SOL    MW4 5876   3.422   5.064   4.494 -0.3172 -0.0606  0.2003
 1528SOL     OW 5877   1.893   2.797   5.354 -0.2163  0.9429 -0.0225
 1528SOL    HW2 5878   1.815   2.826   5.403 -1.1384 -1.1045 -0.1909
 1528SOL    HW3 5879   1.922   2.718   5.400  0.7238  0.6973 -1.0004
 1528SOL    MW4 5880   1.887   2.790   5.367 -0.2139  0.6404 -0.1737
 1529SOL     OW 5881   0.759   3.850   4.167  0.3689 -0.4493 -0.1444
 1529SOL    HW2 5882   0.782   3.941   4.146  0.9242 -0.6026 -0.2277
 1529SOL    HW3 5883   0.677   3.835   4.120 -0.1243  0.2355  0.4734
 1529SOL    MW4 5884   0.751   3.860   4.158  0.3771 -0.3792 -0.0739
 1530SOL     OW 5885   0.068   4.500   5.110  0.7755  0.2020  0.4627
 1530SOL    HW2 5886   0.075   4.546   5.026  0.5409  0.8299  0.7773
 1530SOL    HW3 5887   0.120   4.553   5.171  1.8122 -0.8206  0.4933
 1530SOL    MW4 5888   0.076   4.513   5.107  0.8813  0.1500  0.5082
 1531SOL     OW 5889   5.170   1.258   0.497 -0.3124 -0.7841 -0.1255
 1531SOL    HW2 5890   5.092   1.305   0.525 -1.0491 -1.8580 -0.2972
 1531SOL    HW3 5891   5.218   1.239   0.578  0.1065  0.4103 -0.0722
 1531SOL    MW4 5892   5.166   1.262   0.511 -0.3543 -0.7682 -0.1411
 1532SOL     OW 5893   2.300   2.588   3.588 -0.4033 -0.2707 -0.2441
 1532SOL    HW2 5894   2.254   2.504   3.587 -0.2770 -0.3390 -0.3308
 1532SOL    HW3 5895   2.277   2.628   3.504  0.5957 -0.7945 -0.7923
 1532SOL    MW4 5896   2.291   2.582   3.577 -0.2548 -0.3488 -0.3278
 1533SOL     OW 5897   5.370   2.978   0.858  0.1884 -0.1856  0.3293
 1533SOL    HW2 5898   5.345   3.067   0.832 -0.5779 -0.7434 -0.8967
 1533SOL    HW3 5899   5.322   2.921   0.799  0.2308 -1.4533  1.4782
 1533SOL    MW4 5900   5.361   2.982   0.847  0.0929 -0.4265  0.3191
 1534SOL     OW 5901   1.641   3.863   5.820 -0.2021 -0.3339  0.0032
 1534SOL    HW2 5902   1.575   3.802   5.854 -0.7002  0.6430  0.8248
 1534SOL    HW3 5903   1.605   3.894   5.737 -1.0973  0.6633  0.7375
 1534SOL    MW4 5904   1.628   3.859   5.814 -0.3859 -0.0734  0.2085
 1535SOL     OW 5905   1.543   1.561   2.950 -0.8523  0.6510  0.1124
 1535SOL    HW2 5906   1.512   1.651   2.949  0.5177  1.1473  0.4115
 1535SOL    HW3 5907   1.624   1.564   3.001 -0.9494 -0.8021  0.3915
 1535SOL    MW4 5908   1.550   1.573   2.957 -0.6844  0.5247  0.1887
 1536SOL     OW 5909   5.764   0.702   2.783 -0.1831 -0.0799 -0.2465
 1536SOL    HW2 5910   5.675   0.722   2.810 -0.2272 -1.2135  0.4983
 1536SOL    HW3 5911   5.820   0.758   2.837 -0.4073 -0.0604 -0.0361
 1536SOL    MW4 5912   5.760   0.712   2.793 -0.2185 -0.2269 -0.1205
 1537SOL     OW 5913   0.557   2.467   6.307  0.3466 -0.4444 -0.1752
 1537SOL    HW2 5914   0.626   2.523   6.272  0.2156 -0.8145 -1.0415
 1537SOL    HW3 5915   0.484   2.479   6.247  0.1553 -1.1728 -0.0992
 1537SOL    MW4 5916   0.557   2.476   6.295  0.3041 -0.5893 -0.2794
 1538SOL     OW 5917   3.374   5.474   4.862 -0.5119 -0.3153  0.0193
 1538SOL    HW2 5918   3.414   5.513   4.940 -0.0628  2.0395 -1.2961
 1538SOL    HW3 5919   3.284   5.452   4.889 -1.2011  2.7917  0.5953
 1538SOL    MW4 5920   3.367   5.476   4.876 -0.5436  0.4053 -0.0783
 1539SOL     OW 5921   1.447   2.891   6.314  0.1032  0.6204  0.5529
 1539SOL    HW2 5922   1.535   2.925   6.295  1.3819 -3.6086 -2.8794
 1539SOL    HW3 5923   1.462   2.801   6.342 -3.1209 -0.2767 -0.2058
 1539SOL    MW4 5924   1.461   2.883   6.315 -0.1535 -0.0559 -0.0001
 1540SOL     OW 5925   2.907   5.202   0.188  0.3247  0.4029 -0.7484
 1540SOL    HW2 5926   2.838   5.135   0.186 -0.3954  1.1208 -0.5535
 1540SOL    HW3 5927   2.922   5.219   0.281 -1.1093  2.1018 -0.7747
 1540SOL    MW4 5928   2.900   5.196   0.200  0.0405  0.7218 -0.7262
 1541SOL     OW 5929   4.885   5.033   0.745  0.0696 -0.3671  0.5139
 1541SOL    HW2 5930   4.944   4.980   0.690 -0.5183 -0.0706 -0.4322
 1541SOL    HW3 5931   4.852   4.972   0.810 -1.3498 -1.4661 -1.1374
 1541SOL    MW4 5932   4.889   5.018   0.746 -0.1953 -0.4730  0.1712
 1542SOL     OW 5933   3.649   3.820   1.661  0.5450  0.2586 -0.5055
 1542SOL    HW2 5934   3.721   3.871   1.622  2.6325 -0.6503  1.8879
 1542SOL    HW3 5935   3.677   3.729   1.651 -0.7158 -0.1617 -0.2951
 1542SOL    MW4 5936   3.662   3.815   1.654  0.6541  0.0832 -0.1619
 1543SOL     OW 5937   4.955   0.205   2.257  0.5319 -0.3848 -0.4401
 1543SOL    HW2 5938   4.937   0.112   2.263 -0.3343 -0.2303 -0.5448
 1543SOL    HW3 5939   4.950   0.237   2.348  1.4681 -0.5432 -0.3208
 1543SOL    MW4 5940   4.952   0.197   2.270  0.5411 -0.3853 -0.4382
 1544SOL     OW 5941   0.021   5.952   3.406  0.1873 -0.1462  0.2043
 1544SOL    HW2 5942  -0.071   5.956   3.378  0.3839  1.0151 -0.3121
 1544SOL    HW3 5943   0.053   5.870   3.368  0.3014  1.1071 -2.6447
 1544SOL    MW4 5944   0.013   5.941   3.397  0.2283  0.1724 -0.2397
 1545SOL     OW 5945   1.044   0.577   3.088 -0.4627  0.1203 -0.0763
 1545SOL    HW2 5946   1.105   0.557   3.017 -0.6542 -0.4707 -0.0772
 1545SOL    HW3 5947   0.957   0.563   3.050 -0.5533 -0.9119  0.4816
 1545SOL    MW4 5948   1.040   0.573   3.074 -0.4999 -0.0939 -0.0028
 1546SOL     OW 5949   4.047   2.338   2.790  0.3898 -0.4000 -0.1528
 1546SOL    HW2 5950   3.962   2.305   2.820 -0.3024  1.5027  0.1393
 1546SOL    HW3 5951   4.099   2.346   2.869 -0.6029  2.2751  0.3513
 1546SOL    MW4 5952   4.042   2.335   2.804  0.1675  0.2040 -0.0478
 1547SOL     OW 5953   0.656   5.876   5.919  0.6018 -0.2295 -0.2391
 1547SOL    HW2 5954   0.751   5.885   5.918  0.4315  2.8765 -0.9930
 1547SOL    HW3 5955   0.627   5.939   5.985 -0.9481 -0.4440 -0.6658
 1547SOL    MW4 5956   0.665   5.886   5.927  0.3748  0.1520 -0.3949
 1548SOL     OW 5957   2.811   2.092   1.875 -0.2456  0.0289 -0.2615
 1548SOL    HW2 5958   2.776   2.003   1.883 -0.4864  0.2768  1.8878
 1548SOL    HW3 5959   2.819   2.123   1.965  3.3099  0.8551 -0.7291
 1548SOL    MW4 5960   2.807   2.084   1.888  0.1918  0.1707 -0.0396
 1549SOL     OW 5961   0.421   5.442   4.159  0.3738  0.6824  0.0643
 1549SOL    HW2 5962   0.384   5.455   4.072  1.0278  0.2430 -0.2983
 1549SOL    HW3 5963   0.359   5.482   4.219 -0.8169 -0.2965 -0.4898
 1549SOL    MW4 5964   0.408   5.449   4.155  0.3030  0.4953 -0.0567
 1550SOL     OW 5965   0.090   3.831   6.276 -0.6420 -0.2022 -0.2167
 1550SOL    HW2 5966   0.177   3.870   6.291 -0.3861  0.6846 -3.2727
 1550SOL    HW3 5967   0.029   3.903   6.289 -0.6599 -0.1552 -0.5390
 1550SOL    MW4 5968   0.094   3.846   6.279 -0.6106 -0.0790 -0.6624
 1551SOL     OW 5969   5.114   5.127   0.120 -0.2000  0.4597 -0.6148
 1551SOL    HW2 5970   5.204   5.109   0.093 -0.4484 -1.1736 -0.4476
 1551SOL    HW3 5971   5.081   5.043   0.154 -1.2238  1.4387  0.9680
 1551SOL    MW4 5972   5.121   5.114   0.121 -0.3679  0.3733 -0.3839
 1552SOL     OW 5973   5.199   4.605   2.022 -0.0849  0.5414 -0.2421
 1552SOL    HW2 5974   5.212   4.695   1.992 -0.6392  0.1519 -1.7583
 1552SOL    HW3 5975   5.273   4.587   2.079  0.0884  1.9226 -0.0062
 1552SOL    MW4 5976   5.210   4.615   2.026 -0.1351  0.6723 -0.4110
 1553SOL     OW 5977   2.358   2.180   6.246 -0.4093  0.6729  0.5468
 1553SOL    HW2 5978   2.298   2.242   6.206 -0.3109  0.5827  0.2535
 1553SOL    HW3 5979   2.445   2.210   6.220 -0.3481  0.5710  0.6319
 1553SOL    MW4 5980   2.361   2.192   6.237 -0.3883  0.6476  0.5193
 1554SOL     OW 5981   3.815   2.748   2.533  0.3818 -0.1687 -0.0258
 1554SOL    HW2 5982   3.873   2.691   2.584 -1.1438 -0.7176  1.1831
 1554SOL    HW3 5983   3.741   2.764   2.591 -0.3984  1.0142 -1.2947
 1554SOL    MW4 5984   3.813   2.743   2.547  0.0776 -0.0851 -0.0337
 1555SOL     OW 5985   5.281   1.947   3.832  0.1407 -0.5086  0.2361
 1555SOL    HW2 5986   5.318   2.013   3.890  2.2880 -1.3830 -0.0306
 1555SOL    HW3 5987   5.357   1.894   3.805 -1.0635 -1.2624 -1.8828
 1555SOL    MW4 5988   5.296   1.949   3.836  0.2651 -0.7234 -0.0787
 1556SOL     OW 5989   5.291   5.021   4.924  0.1063 -0.1916  0.0558
 1556SOL    HW2 5990   5.353   5.037   4.853  0.5023 -0.8773  0.2369
 1556SOL    HW3 5991   5.259   4.932   4.909  1.9998 -1.3154  2.0204
 1556SOL    MW4 5992   5.295   5.012   4.913  0.4084 -0.4303  0.3389
 1557SOL     OW 5993   1.914   4.559   6.393  0.0275  0.7822  0.3654
 1557SOL    HW2 5994   1.978   4.628   6.409  1.6456  0.5086 -3.7702
 1557SOL    HW3 5995   1.927   4.497   6.465  2.8827  1.8075  0.8619
 1557SOL    MW4 5996   1.924   4.560   6.404  0.6177  0.8814 -0.1147
 1558SOL     OW 5997   5.192   1.573   1.777  0.1259 -0.0461 -0.1939
 1558SOL    HW2 5998   5.257   1.617   1.833 -0.0715 -1.6322  1.3489
 1558SOL    HW3 5999   5.244   1.533   1.708  0.6465 -0.1345  0.2386
 1558SOL    MW4 6000   5.207   1.574   1.775  0.1685 -0.2671  0.0667
 1559SOL     OW 6001   0.299   4.877   5.090  0.4675  0.2358  0.4671
 1559SOL    HW2 6002   0.306   4.951   5.151 -0.6221 -2.2460  3.9437
 1559SOL    HW3 6003   0.208   4.879   5.061  0.2364 -0.1016  1.1424
 1559SOL    MW4 6004   0.288   4.887   5.094  0.2933 -0.1361  1.0149
 1560SOL     OW 6005   2.749   6.425   0.139 -0.0201  0.7058  0.1748
 1560SOL    HW2 6006   2.803   6.472   0.202  1.1551 -1.1908  0.6671
 1560SOL    HW3 6007   2.687   6.490   0.107 -0.2195  1.9168  2.7630
 1560SOL    MW4 6008   2.748   6.439   0.143  0.1087  0.6153  0.5812
 1561SOL     OW 6009   0.885   3.928   0.433 -0.3762 -0.3816  0.1723
 1561SOL    HW2 6010   0.949   3.887   0.375 -0.2956  0.1250 -0.0990
 1561SOL    HW3 6011   0.899   3.885   0.518 -0.4982 -1.1260 -0.1759
 1561SOL    MW4 6012   0.896   3.917   0.437 -0.3817 -0.4129  0.0906
 1562SOL     OW 6013   0.064   3.343   4.113  0.2093  0.1888 -0.0526
 1562SOL    HW2 6014   0.110   3.425   4.092  0.2946 -0.0066 -0.6324
 1562SOL    HW3 6015   0.035   3.355   4.203  2.2671 -0.0612  0.7057
 1562SOL    MW4 6016   0.067   3.356   4.122  0.4920  0.1300 -0.0291
 1563SOL     OW 6017   3.744   4.671   2.225 -0.2304  0.3833  0.2366
 1563SOL    HW2 6018   3.652   4.696   2.221 -0.5203 -0.5874  0.5284
 1563SOL    HW3 6019   3.743   4.576   2.235  0.7924  0.4475  1.1647
 1563SOL    MW4 6020   3.732   4.662   2.226 -0.1337  0.2637  0.3975
 1564SOL     OW 6021   5.853   0.198   1.973  0.6479 -0.1166  0.7592
 1564SOL    HW2 6022   5.851   0.137   2.047  0.0599 -0.1910  0.6862
 1564SOL    HW3 6023   5.894   0.148   1.903 -1.1700 -0.9716  0.2433
 1564SOL    MW4 6024   5.858   0.183   1.974  0.3305 -0.2392  0.6815
 1565SOL     OW 6025   3.820   5.764   1.600 -0.2282  0.3712 -0.0641
 1565SOL    HW2 6026   3.871   5.715   1.536  0.2621  0.8035 -0.0122
 1565SOL    HW3 6027   3.739   5.788   1.554 -0.3736 -0.2759 -0.1595
 1565SOL    MW4 6028   3.816   5.761   1.586 -0.1827  0.3429 -0.0698
 1566SOL     OW 6029   1.760   1.070   3.720 -0.3388 -0.1050 -0.4970
 1566SOL    HW2 6030   1.846   1.032   3.739  0.1145  2.2934  3.2537
 1566SOL    HW3 6031   1.704   1.036   3.790 -0.7280  3.1536  0.9410
 1566SOL    MW4 6032   1.764   1.060   3.732 -0.3303  0.6413  0.1876
 1567SOL     OW 6033   3.457   2.952   1.327 -0.3927 -0.2614 -0.0327
 1567SOL    HW2 6034   3.527   3.015   1.309  1.2530 -1.6456  1.1871
 1567SOL    HW3 6035   3.502   2.867   1.333 -2.4258 -1.4647 -0.8522
 1567SOL    MW4 6036   3.473   2.949   1.326 -0.4439 -0.6028  0.0201
 1568SOL     OW 6037   1.997   1.119   2.551  0.2640  0.2407  0.7064
 1568SOL    HW2 6038   2.013   1.197   2.498  1.4469  1.1061  2.2635
 1568SOL    HW3 6039   2.084   1.093   2.581 -0.2970 -0.7317  1.5359
 1568SOL    MW4 6040   2.011   1.126   2.548  0.3461  0.2266  1.0213
 1569SOL     OW 6041   0.650   3.085   2.454  0.1253 -0.0703  0.1651
 1569SOL    HW2 6042   0.589   3.012   2.460  0.8280 -0.7461 -0.6652
 1569SOL    HW3 6043   0.737   3.045   2.461  0.4966  0.8281  0.9617
 1569SOL    MW4 6044   0.653   3.070   2.456  0.2670 -0.0409  0.1606
 1570SOL     OW 6045   1.994   2.419   0.119  0.6248  0.2412  0.1425
 1570SOL    HW2 6046   1.929   2.373   0.172 -0.0311  1.9809  0.9399
 1570SOL    HW3 6047   2.001   2.367   0.039  0.3932 -1.5386  1.2369
 1570SOL    MW4 6048   1.986   2.406   0.115  0.5077  0.2359  0.3921
 1571SOL     OW 6049   0.214   1.815   4.133 -0.5319 -0.1264  0.4103
 1571SOL    HW2 6050   0.257   1.798   4.049 -0.8128  0.9846  0.0138
 1571SOL    HW3 6051   0.148   1.746   4.140 -0.9633  0.1490 -0.6275
 1571SOL    MW4 6052   0.211   1.804   4.123 -0.6259  0.0565  0.2211
 1572SOL     OW 6053   0.645   5.127   0.550  0.3286  0.0183  0.2819
 1572SOL    HW2 6054   0.685   5.096   0.631 -0.3720 -0.1085  0.5899
 1572SOL    HW3 6055   0.687   5.075   0.482  1.8179  1.0012  0.4301
 1572SOL    MW4 6056   0.656   5.116   0.552  0.4326  0.1313  0.3421
 1573SOL     OW 6057   4.971   2.078   3.274  0.0862 -0.1575 -0.3363
 1573SOL    HW2 6058   4.927   2.035   3.201  0.0848  0.0596 -0.4613
 1573SOL    HW3 6059   4.903   2.131   3.316 -0.4287 -1.7946  1.0112
 1573SOL    MW4 6060   4.956   2.079   3.270  0.0180 -0.3448 -0.1750
 1574SOL     OW 6061   2.505   2.461   3.160  0.1194  0.3869 -1.0448
 1574SOL    HW2 6062   2.576   2.481   3.099  0.5023  0.3160 -0.6300
 1574SOL    HW3 6063   2.489   2.368   3.148 -0.0265  0.4421 -1.2702
 1574SOL    MW4 6064   2.513   2.451   3.151  0.1507  0.3848 -1.0198
 1575SOL     OW 6065   1.148   1.643   5.925 -0.5851 -0.1798  0.0294
 1575SOL    HW2 6066   1.093   1.667   6.000 -0.5472 -1.2652  0.4160
 1575SOL    HW3 6067   1.086   1.631   5.853 -0.5459  1.7757 -0.3879
 1575SOL    MW4 6068   1.132   1.645   5.925 -0.5749 -0.0650  0.0254
 1576SOL     OW 6069   3.613   2.479   1.938 -0.3684 -0.4472 -0.2324
 1576SOL    HW2 6070   3.582   2.568   1.957  2.2300  0.4980 -0.0309
 1576SOL    HW3 6071   3.567   2.423   2.001 -1.2853  0.8946  0.3337
 1576SOL    MW4 6072   3.603   2.483   1.949 -0.1465 -0.1454 -0.1312
 1577SOL     OW 6073   2.579   0.927   0.260 -0.1711 -0.2168 -0.0493
 1577SOL    HW2 6074   2.607   0.841   0.294 -0.4556 -0.6237 -0.8159
 1577SOL    HW3 6075   2.611   0.927   0.170  1.2766  1.1691  0.4185
 1577SOL    MW4 6076   2.587   0.915   0.253 -0.0176 -0.0877 -0.0887
 1578SOL     OW 6077   1.424   3.267   1.645 -0.2044 -0.2380  0.1255
 1578SOL    HW2 6078   1.517   3.276   1.664 -0.2796  0.7075  0.0886
 1578SOL    HW3 6079   1.414   3.297   1.555 -0.0458 -3.5518 -1.1641
 1578SOL    MW4 6080   1.435   3.272   1.636 -0.1934 -0.5505 -0.0495
 1579SOL     OW 6081   4.634   5.073   2.239 -0.1828  0.3926  0.6277
 1579SOL    HW2 6082   4.729   5.083   2.233 -0.1971 -0.0989 -1.1356
 1579SOL    HW3 6083   4.605   5.072   2.148 -1.4766 -2.9982  0.9212
 1579SOL    MW4 6084   4.643   5.074   2.226 -0.3554 -0.1197  0.4338
 1580SOL     OW 6085   1.671   0.087   1.255  0.8254  0.3353 -0.0931
 1580SOL    HW2 6086   1.739   0.020   1.244 -1.0766 -1.5147 -1.3069
 1580SOL    HW3 6087   1.635   0.100   1.168  0.7084  2.5529  0.2306
 1580SOL    MW4 6088   1.676   0.080   1.242  0.5591  0.3838 -0.2105
 1581SOL     OW 6089   4.434   1.562   0.496  0.4741  0.3765  0.7056
 1581SOL    HW2 6090   4.370   1.532   0.431  1.5044 -1.1268  0.3308
 1581SOL    HW3 6091   4.453   1.652   0.470  0.3380  0.0425 -0.6621
 1581SOL    MW4 6092   4.428   1.570   0.484  0.5920  0.1341  0.4757
 1582SOL     OW 6093   5.061   5.884   3.505 -0.6922  0.1634 -0.2703
 1582SOL    HW2 6094   4.973   5.906   3.537 -0.6025 -0.7751  0.6895
 1582SOL    HW3 6095   5.046   5.815   3.440 -0.5592 -2.0273  1.8656
 1582SOL    MW4 6096   5.047   5.877   3.501 -0.6628 -0.2494  0.1381
 1583SOL     OW 6097   2.534   0.246   5.609 -0.2387 -0.2911  0.9191
 1583SOL    HW2 6098   2.487   0.272   5.529 -1.4655 -0.8559  1.4299
 1583SOL    HW3 6099   2.465   0.238   5.676  0.5496 -1.4303  1.6342
 1583SOL    MW4 6100   2.519   0.249   5.607 -0.2965 -0.5160  1.0808
 1584SOL     OW 6101   3.338   5.620   3.783  0.2497  0.2192  0.1818
 1584SOL    HW2 6102   3.272   5.640   3.850  0.5648 -3.8490  2.0098
 1584SOL    HW3 6103   3.421   5.643   3.825  0.3412 -0.7295  0.5393
 1584SOL    MW4 6104   3.340   5.626   3.798  0.3033 -0.4427  0.4702
 1585SOL     OW 6105   0.468   3.447   1.341 -0.1635  0.6588  0.2693
 1585SOL    HW2 6106   0.547   3.488   1.378 -0.2392  1.9463 -0.9060
 1585SOL    HW3 6107   0.492   3.355   1.329  0.7633  0.7910  1.0006
 1585SOL    MW4 6108   0.482   3.440   1.344 -0.0512  0.8461  0.2107
 1586SOL     OW 6109   5.657   6.136   4.228  0.0845 -0.0059  0.4858
 1586SOL    HW2 6110   5.655   6.194   4.151 -1.3675  0.4275  0.8129
 1586SOL    HW3 6111   5.566   6.134   4.259  0.2712 -1.7495  1.0360
 1586SOL    MW4 6112   5.645   6.144   4.222 -0.0824 -0.1788  0.6015
 1587SOL     OW 6113   5.485   2.268   4.903  0.0461  0.6353 -0.0133
 1587SOL    HW2 6114   5.475   2.184   4.949 -0.9616 -0.2065 -1.6412
 1587SOL    HW3 6115   5.561   2.255   4.847  0.3036  1.0661  0.2383
 1587SOL    MW4 6116   5.494   2.255   4.902 -0.0529  0.5811 -0.1949
 1588SOL     OW 6117   1.370   5.062   0.161 -0.3586  0.6858  0.4114
 1588SOL    HW2 6118   1.409   5.016   0.086  0.4419  0.1236  1.1498
 1588SOL    HW3 6119   1.276   5.056   0.147 -0.3060 -1.3773  0.5763
 1588SOL    MW4 6120   1.363   5.055   0.149 -0.2461  0.3394  0.5306
 1589SOL     OW 6121   1.563   1.489   6.060  0.1337 -0.4340  0.6275
 1589SOL    HW2 6122   1.605   1.411   6.023  1.3790  0.0444  0.9865
 1589SOL    HW3 6123   1.576   1.480   6.155 -2.6623 -1.4393  1.0176
 1589SOL    MW4 6124   1.570   1.477   6.068 -0.0709 -0.5035  0.7263
 1590SOL     OW 6125   1.026   4.152   1.628 -0.1847 -0.5524 -0.3247
 1590SOL    HW2 6126   1.121   4.153   1.639 -0.3254 -1.2618  1.1091
 1590SOL    HW3 6127   0.991   4.160   1.717 -1.4987  1.1969 -0.9321
 1590SOL    MW4 6128   1.033   4.154   1.641 -0.3766 -0.4152 -0.2157
 1591SOL     OW 6129   1.276   2.914   4.229 -0.9518  0.7534  0.5243
 1591SOL    HW2 6130   1.200   2.898   4.285  0.4237 -3.9974  1.4478
 1591SOL    HW3 6131   1.248   2.883   4.142 -0.9093  1.7802  0.1214
 1591SOL    MW4 6132   1.262   2.908   4.225 -0.7647  0.2621  0.5930
 1592SOL     OW 6133   3.663   3.834   5.059 -0.1792 -0.2836 -0.3049
 1592SOL    HW2 6134   3.616   3.874   5.132  0.0149  0.2324 -0.4592
 1592SOL    HW3 6135   3.751   3.819   5.092 -0.3895 -1.0719 -0.0795
 1592SOL    MW4 6136   3.668   3.837   5.073 -0.1814 -0.3196 -0.2955
 1593SOL     OW 6137   4.746   2.958   0.304  0.2696  0.2611  0.0850
 1593SOL    HW2 6138   4.791   2.889   0.352  1.6491  0.9885 -0.1089
 1593SOL    HW3 6139   4.816   3.016   0.274 -0.6962  0.7863 -1.2824
 1593SOL    MW4 6140   4.761   2.957   0.306  0.3242  0.4263 -0.1210
 1594SOL     OW 6141   2.342   0.447   2.292  0.2056  0.4343 -0.2166
 1594SOL    HW2 6142   2.332   0.391   2.369  0.9501  0.4389 -0.1061
 1594SOL    HW3 6143   2.364   0.388   2.221  0.4924  0.5271 -0.2084
 1594SOL    MW4 6144   2.344   0.432   2.293  0.3416  0.4472 -0.2009
 1595SOL     OW 6145   2.174   0.564   6.337 -0.2042 -0.1861 -0.1105
 1595SOL    HW2 6146   2.156   0.471   6.354  0.8816 -0.5403 -0.7926
 1595SOL    HW3 6147   2.238   0.563   6.266  0.4361  1.0790  0.4187
 1595SOL    MW4 6148   2.180   0.552   6.330  0.0236 -0.0659 -0.1307
 1596SOL     OW 6149   4.245   0.887   0.266  0.1450  0.0002 -0.4805
 1596SOL    HW2 6150   4.322   0.857   0.314 -0.7542 -0.6091  0.6475
 1596SOL    HW3 6151   4.242   0.982   0.282 -1.3595 -0.4599  2.6561
 1596SOL    MW4 6152   4.255   0.896   0.274 -0.1721 -0.1409  0.0822
 1597SOL     OW 6153   4.852   4.439   5.133 -0.6236 -1.0909  0.3627
 1597SOL    HW2 6154   4.931   4.408   5.089 -0.6675 -0.4603 -0.1647
 1597SOL    HW3 6155   4.884   4.486   5.210 -0.4689 -0.6190  0.0146
 1597SOL    MW4 6156   4.867   4.441   5.137 -0.6090 -0.9454  0.2472
 1598SOL     OW 6157   1.795   3.861   3.639  0.4723  0.5382  0.2475
 1598SOL    HW2 6158   1.753   3.807   3.572 -0.1083  0.8298  0.3717
 1598SOL    HW3 6159   1.737   3.936   3.649  1.6530  1.5846 -0.4737
 1598SOL    MW4 6160   1.782   3.864   3.632  0.5515  0.7147  0.1688
 1599SOL     OW 6161   5.873   6.271   4.380  0.1065 -0.0385 -0.1089
 1599SOL    HW2 6162   5.869   6.366   4.389  0.7307  0.1114 -1.2433
 1599SOL    HW3 6163   5.782   6.246   4.360  0.1270  0.4531 -0.8744
 1599SOL    MW4 6164   5.860   6.280   4.379  0.1916  0.0461 -0.3595
 1600SOL     OW 6165   2.557   2.510   0.409  0.1265 -0.1786 -0.2849
 1600SOL    HW2 6166   2.638   2.459   0.408  0.0111 -0.3559 -0.9659
 1600SOL    HW3 6167   2.519   2.497   0.322 -1.7177 -1.8122  0.6949
 1600SOL    MW4 6168   2.563   2.502   0.398 -0.1321 -0.4175 -0.2455
 1601SOL     OW 6169   2.951   1.374   4.674 -0.4642 -0.2714  0.5229
 1601SOL    HW2 6170   3.008   1.313   4.627 -0.6171  0.2755 -0.4019
 1601SOL    HW3 6171   2.879   1.319   4.705 -0.6018 -0.5819 -0.2995
 1601SOL    MW4 6172   2.949   1.358   4.672 -0.5025 -0.2402  0.2924
 1602SOL     OW 6173   6.207   1.436   2.626 -0.1834 -0.0019  0.1189
 1602SOL    HW2 6174   6.204   1.367   2.692  0.7283  0.7084  0.9273
 1602SOL    HW3 6175   6.196   1.517   2.675 -0.8775  0.4664 -0.7723
 1602SOL    MW4 6176   6.205   1.438   2.641 -0.1547  0.1536  0.1080
 1603SOL     OW 6177   6.126   2.681   4.195  0.1739  0.0213  0.0804
 1603SOL    HW2 6178   6.110   2.702   4.287 -0.1297 -2.9369  0.8051
 1603SOL    HW3 6179   6.214   2.714   4.178  0.2204  0.6536  1.4197
 1603SOL    MW4 6180   6.136   2.688   4.205  0.1400 -0.2856  0.3527
 1604SOL     OW 6181   0.484   3.710   5.627 -0.1909  0.3510  0.4019
 1604SOL    HW2 6182   0.524   3.728   5.713  0.8752  2.9873 -0.5434
 1604SOL    HW3 6183   0.390   3.703   5.645 -0.0080  1.0667  1.7534
 1604SOL    MW4 6184   0.477   3.711   5.641 -0.0261  0.7933  0.4555
 1605SOL     OW 6185   0.474   4.276   0.079 -0.0476  0.5011 -0.2156
 1605SOL    HW2 6186   0.537   4.232   0.023  1.0580  0.2432  1.1879
 1605SOL    HW3 6187   0.509   4.267   0.168 -1.0333  2.0882  0.3886
 1605SOL    MW4 6188   0.487   4.269   0.083 -0.0318  0.6764  0.0493
 1606SOL     OW 6189   5.533   1.630   5.360 -0.2671 -0.0921 -0.0147
 1606SOL    HW2 6190   5.618   1.587   5.362  1.2701  2.5182 -1.7841
 1606SOL    HW3 6191   5.489   1.593   5.283  0.3072  0.2271 -0.5075
 1606SOL    MW4 6192   5.538   1.620   5.350  0.0115  0.2944 -0.3132
 1607SOL     OW 6193   2.780   5.616   5.509  0.2749  0.3693  0.5753
 1607SOL    HW2 6194   2.866   5.579   5.488 -0.0167 -0.6735  1.1653
 1607SOL    HW3 6195   2.763   5.677   5.437  1.9538  1.3997  0.9784
 1607SOL    MW4 6196   2.789   5.619   5.496  0.4580  0.3677  0.7063
 1608SOL     OW 6197   3.901   0.725   6.133  0.6092 -0.4474 -0.2098
 1608SOL    HW2 6198   3.979   0.675   6.109  0.8353 -0.2168  0.0396
 1608SOL    HW3 6199   3.906   0.733   6.228  0.1921 -0.5784 -0.1761
 1608SOL    MW4 6200   3.912   0.719   6.142  0.5840 -0.4343 -0.1724
 1609SOL     OW 6201   1.204   3.404   4.441 -0.2167  0.2100  0.0219
 1609SOL    HW2 6202   1.153   3.474   4.400 -0.7210 -0.0442  0.1977
 1609SOL    HW3 6203   1.295   3.422   4.417 -0.4731  0.2058 -1.0234
 1609SOL    MW4 6204   1.209   3.415   4.432 -0.3171  0.1759 -0.0928
 1610SOL     OW 6205   0.174   2.713   3.209 -0.0420 -0.4058 -0.4043
 1610SOL    HW2 6206   0.099   2.762   3.243  0.7412 -0.1848  1.0923
 1610SOL    HW3 6207   0.234   2.781   3.177  0.4152 -0.4419  0.3451
 1610SOL    MW4 6208   0.172   2.728   3.209  0.1217 -0.3814 -0.1080
 1611SOL     OW 6209   4.338   5.660   6.063  0.3983 -0.1309  0.3623
 1611SOL    HW2 6210   4.290   5.610   5.997  0.2532  0.0751  0.3106
 1611SOL    HW3 6211   4.275   5.725   6.094  0.2711 -0.6038  1.1277
 1611SOL    MW4 6212   4.323   5.662   6.059  0.3624 -0.1661  0.4564
 1612SOL     OW 6213   4.153   3.817   5.324 -0.0042 -0.6311  0.4774
 1612SOL    HW2 6214   4.219   3.749   5.318 -0.8295 -1.4558  0.4951
 1612SOL    HW3 6215   4.202   3.899   5.328  1.0299 -1.2885  1.5087
 1612SOL    MW4 6216   4.168   3.819   5.323  0.0234 -0.8267  0.6158
 1613SOL     OW 6217   5.363   2.545   4.040  0.6087 -0.4307 -0.9580
 1613SOL    HW2 6218   5.457   2.532   4.047  0.8604  0.7245 -1.9750
 1613SOL    HW3 6219   5.347   2.630   4.082 -0.1734 -1.1682  0.3154
 1613SOL    MW4 6220   5.373   2.555   4.047  0.5387 -0.3756 -0.9242
 1614SOL     OW 6221   5.924   4.105   2.375 -0.2782 -0.0380 -0.1458
 1614SOL    HW2 6222   6.014   4.088   2.402  0.3285  2.0779 -0.6405
 1614SOL    HW3 6223   5.896   4.024   2.330  1.6273 -0.4545 -0.6467
 1614SOL    MW4 6224   5.932   4.092   2.372  0.0532  0.1862 -0.2771
 1615SOL     OW 6225   2.769   0.709   3.907 -0.2634  0.2059  0.0276
 1615SOL    HW2 6226   2.828   0.667   3.969 -0.7894 -1.7626 -0.7091
 1615SOL    HW3 6227   2.801   0.680   3.821  0.4437  2.8362 -0.6977
 1615SOL    MW4 6228   2.781   0.700   3.904 -0.2395  0.2932 -0.1653
 1616SOL     OW 6229   5.253   3.867   0.235 -0.9238 -0.0669  0.6787
 1616SOL    HW2 6230   5.336   3.852   0.190 -1.6177 -1.1985 -0.2723
 1616SOL    HW3 6231   5.223   3.952   0.202 -1.1046 -0.5768 -0.5018
 1616SOL    MW4 6232   5.260   3.877   0.225 -1.0392 -0.2835  0.3975
 1617SOL     OW 6233   6.403   1.581   4.786 -0.4174  0.3833 -0.2493
 1617SOL    HW2 6234   6.415   1.502   4.734  2.0296  0.4377  0.1340
 1617SOL    HW3 6235   6.468   1.574   4.856 -2.4518  1.1108  1.8608
 1617SOL    MW4 6236   6.413   1.570   4.789 -0.3630  0.4865  0.0797
 1618SOL     OW 6237   2.975   3.785   5.468  0.7140  0.3714  0.3293
 1618SOL    HW2 6238   2.889   3.776   5.508  0.0706  1.1407 -0.8176
 1618SOL    HW3 6239   2.994   3.879   5.475  0.0735  0.7520 -2.0887
 1618SOL    MW4 6240   2.966   3.796   5.475  0.5446  0.5231 -0.1410
 1619SOL     OW 6241   0.958   5.115   3.312 -0.1853  0.0014 -0.4904
 1619SOL    HW2 6242   0.920   5.106   3.224 -1.0369  1.6439 -0.3293
 1619SOL    HW3 6243   0.975   5.209   3.322 -2.1479  0.2065  1.8903
 1619SOL    MW4 6244   0.955   5.126   3.302 -0.5566  0.2452 -0.1550
 1620SOL     OW 6245   0.919   4.289   6.070 -0.6357 -0.3618  0.3608
 1620SOL    HW2 6246   0.934   4.350   5.997  0.5429 -2.3643 -1.1927
 1620SOL    HW3 6247   0.882   4.212   6.028  0.8428 -1.8906  1.7333
 1620SOL    MW4 6248   0.916   4.287   6.055 -0.2851 -0.8277  0.3369
 1621SOL     OW 6249   5.846   4.433   1.055 -0.4723  0.6394  0.1591
 1621SOL    HW2 6250   5.790   4.372   1.007 -0.0836  0.0511  0.4502
 1621SOL    HW3 6251   5.786   4.478   1.115 -0.8436  0.9000 -0.3977
 1621SOL    MW4 6252   5.830   4.431   1.057 -0.4700  0.5962  0.1241
 1622SOL     OW 6253   1.340   0.602   5.955  0.0780  1.1015  0.3782
 1622SOL    HW2 6254   1.385   0.518   5.951 -1.5302  0.1617  0.8009
 1622SOL    HW3 6255   1.350   0.630   6.046  0.8952  1.5450  0.1579
 1622SOL    MW4 6256   1.347   0.594   5.967 -0.0264  1.0360  0.4049
 1623SOL     OW 6257   1.242   5.519   3.345  0.2721  0.3628 -0.2972
 1623SOL    HW2 6258   1.321   5.470   3.368  0.5027  0.3136 -1.1516
 1623SOL    HW3 6259   1.272   5.583   3.279 -0.1614  1.1800  0.2854
 1623SOL    MW4 6260   1.257   5.521   3.339  0.2454  0.4641 -0.3331
 1624SOL     OW 6261   3.140   1.038   5.099 -0.2010  0.1395  0.3247
 1624SOL    HW2 6262   3.135   1.133   5.090  0.6228  0.2640  1.0246
 1624SOL    HW3 6263   3.117   1.004   5.012  0.8086  1.0184 -0.3062
 1624SOL    MW4 6264   3.136   1.046   5.086  0.0409  0.2719  0.3338
 1625SOL     OW 6265   4.713   4.223   1.769  0.1961 -0.6362 -0.4530
 1625SOL    HW2 6266   4.789   4.192   1.819 -0.5983 -1.5828  0.2174
 1625SOL    HW3 6267   4.715   4.318   1.779  0.6566 -0.7348  0.5079
 1625SOL    MW4 6268   4.724   4.231   1.777  0.1520 -0.7741 -0.2377
 1626SOL     OW 6269   1.612   3.416   5.201  0.5005  0.4633 -0.3474
 1626SOL    HW2 6270   1.611   3.402   5.107 -0.4371 -0.5434 -0.2084
 1626SOL    HW3 6271   1.540   3.363   5.234  1.3059  0.1629  1.0229
 1626SOL    MW4 6272   1.603   3.407   5.193  0.4831  0.2908 -0.1483
 1627SOL     OW 6273   3.202   3.609   3.238 -0.1809 -0.3148  0.0411
 1627SOL    HW2 6274   3.213   3.573   3.326 -0.0676  0.5883  0.4050
 1627SOL    HW3 6275   3.290   3.609   3.200 -0.2507 -0.8347 -0.1365
 1627SOL    MW4 6276   3.215   3.604   3.245 -0.1751 -0.2642  0.0657
 1628SOL     OW 6277   2.117   4.413   1.214 -0.0695 -0.5314 -0.2823
 1628SOL    HW2 6278   2.184   4.416   1.146 -0.8187  0.0991 -1.0194
 1628SOL    HW3 6279   2.042   4.370   1.172 -1.0154  1.0777 -0.3071
 1628SOL    MW4 6280   2.116   4.408   1.199 -0.2932 -0.2359 -0.3828
 1629SOL     OW 6281   5.986   3.461   1.311  0.5607  0.2635 -0.2668
 1629SOL    HW2 6282   6.052   3.441   1.377  0.4491 -0.8017 -0.4470
 1629SOL    HW3 6283   6.027   3.437   1.228 -0.2682 -1.1031 -0.3254
 1629SOL    MW4 6284   6.000   3.455   1.309  0.4366 -0.0573 -0.2983
 1630SOL     OW 6285   1.814   6.330   5.435  0.4695 -0.2823  0.0058
 1630SOL    HW2 6286   1.807   6.338   5.340 -1.8848 -0.3999  0.0992
 1630SOL    HW3 6287   1.723   6.325   5.465  1.1593 -2.9686  2.0540
 1630SOL    MW4 6288   1.801   6.330   5.426  0.2499 -0.6522  0.2884
 1631SOL     OW 6289   5.568   4.208   1.725  0.6816  0.1062  0.6359
 1631SOL    HW2 6290   5.621   4.158   1.664  0.9053 -0.7727  1.5266
 1631SOL    HW3 6291   5.578   4.163   1.809  1.0040  1.7054  1.5152
 1631SOL    MW4 6292   5.577   4.196   1.728  0.7536  0.2012  0.8694
 1632SOL     OW 6293   3.829   0.030   4.558 -0.1245 -0.5771 -0.1006
 1632SOL    HW2 6294   3.863  -0.055   4.532 -1.6207 -1.2385 -0.0116
 1632SOL    HW3 6295   3.907   0.084   4.574  0.8631 -2.2141  0.8259
 1632SOL    MW4 6296   3.844   0.026   4.557 -0.1916 -0.8804  0.0334
 1633SOL     OW 6297   0.369   1.889   3.917 -0.3108 -0.1911  0.0524
 1633SOL    HW2 6298   0.460   1.886   3.947 -0.7369  2.3449  1.8873
 1633SOL    HW3 6299   0.344   1.981   3.925 -3.0867 -0.8403 -0.3079
 1633SOL    MW4 6300   0.378   1.900   3.922 -0.7333  0.0578  0.2470
 1634SOL     OW 6301   4.321   1.290   4.067 -0.3580 -0.3422 -0.4574
 1634SOL    HW2 6302   4.313   1.228   3.994  0.7267  0.4190 -1.2540
 1634SOL    HW3 6303   4.409   1.326   4.058 -0.7530  0.8691  0.3457
 1634SOL    MW4 6304   4.332   1.286   4.056 -0.2670 -0.0819 -0.4565
 1635SOL     OW 6305   5.801   2.842   0.772  0.4137 -0.0129  0.3607
 1635SOL    HW2 6306   5.861   2.814   0.702  0.4890 -0.7272  0.7036
 1635SOL    HW3 6307   5.779   2.762   0.818  1.7995  0.6377  2.3020
 1635SOL    MW4 6308   5.806   2.828   0.769  0.6064 -0.0213  0.6621
 1636SOL     OW 6309   2.887   3.601   5.246 -0.7015 -0.5849  0.3020
 1636SOL    HW2 6310   2.801   3.640   5.228 -0.0874  0.2316 -0.9955
 1636SOL    HW3 6311   2.930   3.664   5.302 -1.0017 -1.0854  1.1125
 1636SOL    MW4 6312   2.881   3.614   5.251 -0.6601 -0.5432  0.2378
 1637SOL     OW 6313   3.968   4.409   5.143  0.1078  0.0495  0.5182
 1637SOL    HW2 6314   3.922   4.482   5.186  0.4586  0.1088  0.8029
 1637SOL    HW3 6315   3.974   4.342   5.211  1.4844  0.4950  0.8712
 1637SOL    MW4 6316   3.963   4.410   5.158  0.3357  0.1161  0.6023
 1638SOL     OW 6317   2.070   3.743   1.476 -0.2635  0.0410 -0.6697
 1638SOL    HW2 6318   2.154   3.727   1.433  0.2088  0.2402  0.1558
 1638SOL    HW3 6319   2.027   3.657   1.477  0.3559 -0.2759 -0.2350
 1638SOL    MW4 6320   2.075   3.730   1.471 -0.1195  0.0255 -0.5034
 1639SOL     OW 6321   1.280   0.031   1.274 -0.1842  0.1223  0.0519
 1639SOL    HW2 6322   1.235   0.104   1.316 -1.6132 -1.5281  1.5795
 1639SOL    HW3 6323   1.352   0.010   1.333  1.0932  1.0885 -1.0770
 1639SOL    MW4 6324   1.284   0.038   1.287 -0.2042  0.0320  0.1045
 1640SOL     OW 6325   3.449   0.800   0.898  0.2359 -0.3816 -0.8639
 1640SOL    HW2 6326   3.498   0.882   0.885  0.6206 -0.4223  0.2122
 1640SOL    HW3 6327   3.398   0.790   0.818 -0.3212  1.2511 -0.7514
 1640SOL    MW4 6328   3.449   0.809   0.886  0.2132 -0.1716 -0.7071
 1641SOL     OW 6329   6.112   5.502   0.131 -0.0304  0.4619 -0.1412
 1641SOL    HW2 6330   6.203   5.482   0.152 -0.2619  0.7943  1.2728
 1641SOL    HW3 6331   6.113   5.595   0.109  0.1468  0.2033 -1.2765
 1641SOL    MW4 6332   6.124   5.512   0.131 -0.0375  0.4716 -0.1044
 1642SOL     OW 6333   5.547   0.489   4.387  0.0687 -0.0886  0.7344
 1642SOL    HW2 6334   5.635   0.521   4.366  0.7705 -1.6256  1.2365
 1642SOL    HW3 6335   5.504   0.478   4.302 -0.5202  2.8979  0.5400
 1642SOL    MW4 6336   5.553   0.492   4.373  0.0836  0.1027  0.7750
 1643SOL     OW 6337   1.431   4.801   3.282  0.2086  0.0491 -0.3927
 1643SOL    HW2 6338   1.345   4.796   3.241  0.3851  0.6846 -0.8638
 1643SOL    HW3 6339   1.449   4.712   3.312  0.3500 -0.5916 -2.2610
 1643SOL    MW4 6340   1.422   4.789   3.281  0.2505  0.0484 -0.7013
 1644SOL     OW 6341   2.313   3.633   2.119 -0.0018 -0.4263 -0.3702
 1644SOL    HW2 6342   2.284   3.723   2.103 -0.9064 -0.2843  1.6603
 1644SOL    HW3 6343   2.409   3.638   2.113 -0.0479  0.6342 -0.5252
 1644SOL    MW4 6344   2.322   3.646   2.116 -0.1272 -0.2677 -0.1227
 1645SOL     OW 6345   0.872   4.875   5.422  0.2257  0.0664 -0.3443
 1645SOL    HW2 6346   0.802   4.927   5.461  0.8867  1.8978 -1.4547
 1645SOL    HW3 6347   0.936   4.940   5.391  1.7230 -1.4734 -0.6691
 1645SOL    MW4 6348   0.871   4.890   5.423  0.5105  0.1048 -0.5337
 1646SOL     OW 6349   0.600   2.355   2.036  0.0903 -0.1048 -0.0294
 1646SOL    HW2 6350   0.632   2.330   2.123 -0.2896  1.3819  0.5618
 1646SOL    HW3 6351   0.521   2.302   2.023 -0.1014 -0.0072  0.7237
 1646SOL    MW4 6352   0.594   2.345   2.045  0.0149  0.1042  0.1479
 1647SOL     OW 6353   5.271   2.592   0.152 -0.0985  0.4304 -0.4226
 1647SOL    HW2 6354   5.186   2.627   0.125  0.1403 -0.2365 -2.1893
 1647SOL    HW3 6355   5.291   2.637   0.234 -1.1509  2.2158 -1.0892
 1647SOL    MW4 6356   5.262   2.603   0.159 -0.2058  0.5780 -0.7437
 1648SOL     OW 6357   0.345   4.294   5.401 -0.1240  0.2223  0.0591
 1648SOL    HW2 6358   0.263   4.280   5.355  0.2971  1.7769 -1.2745
 1648SOL    HW3 6359   0.412   4.264   5.339  0.3360 -0.9277  1.0834
 1648SOL    MW4 6360   0.343   4.288   5.387 -0.0078  0.2756  0.0183
 1649SOL     OW 6361   2.536   0.512   3.578  0.4223  0.4133  0.2884
 1649SOL    HW2 6362   2.444   0.507   3.606 -0.1202  1.6871 -1.1273
 1649SOL    HW3 6363   2.572   0.586   3.628  0.8209 -0.3567  1.1650
 1649SOL    MW4 6364   2.529   0.521   3.588  0.4033  0.4798  0.2173
 1650SOL     OW 6365   4.787   1.339   4.794 -0.0470 -0.4751  0.5138
 1650SOL    HW2 6366   4.843   1.267   4.764 -0.3392 -0.1390 -0.8977
 1650SOL    HW3 6367   4.717   1.344   4.729 -0.9962 -0.0118  1.5248
 1650SOL    MW4 6368   4.785   1.330   4.782 -0.2108 -0.3696  0.4610
 1651SOL     OW 6369   1.797   2.951   2.223 -0.2492 -0.1578  0.1548
 1651SOL    HW2 6370   1.715   2.904   2.238 -1.8565  2.4752  0.3178
 1651SOL    HW3 6371   1.821   2.986   2.309 -0.4910  1.3107 -0.3326
 1651SOL    MW4 6372   1.789   2.950   2.237 -0.4932  0.3834  0.1120
 1652SOL     OW 6373   5.401   3.339   5.666  0.0570 -0.1445 -0.1738
 1652SOL    HW2 6374   5.380   3.348   5.759  1.7425  0.3477  0.2072
 1652SOL    HW3 6375   5.450   3.419   5.645 -0.8379  0.0350 -1.6570
 1652SOL    MW4 6376   5.405   3.350   5.676  0.1613 -0.0559 -0.3192
 1653SOL     OW 6377   3.034   4.385   3.138 -0.2053 -0.2321  0.0917
 1653SOL    HW2 6378   3.085   4.343   3.069  0.4381 -1.3285  1.1960
 1653SOL    HW3 6379   3.098   4.407   3.205 -0.7405  1.3045  0.1270
 1653SOL    MW4 6380   3.049   4.382   3.137 -0.1910 -0.1740  0.2421
 1654SOL     OW 6381   2.005   3.174   4.701 -0.5385  0.1217  0.1728
 1654SOL    HW2 6382   2.093   3.170   4.663 -0.3178 -0.8392  0.7398
 1654SOL    HW3 6383   2.018   3.152   4.793 -1.2373  1.1064  0.5165
 1654SOL    MW4 6384   2.019   3.170   4.708 -0.6016  0.1248  0.2930
 1655SOL     OW 6385   5.451   5.804   3.805 -0.3953 -0.3208  0.2541
 1655SOL    HW2 6386   5.448   5.898   3.820 -0.6194 -0.2315 -0.3469
 1655SOL    HW3 6387   5.361   5.779   3.786 -0.1470 -0.4387 -0.8494
 1655SOL    MW4 6388   5.439   5.813   3.804 -0.3921 -0.3246  0.0292
 1656SOL     OW 6389   4.292   4.177   3.247  0.5983  0.1784  0.1267
 1656SOL    HW2 6390   4.248   4.222   3.174 -0.5766  2.5279  2.1174
 1656SOL    HW3 6391   4.380   4.159   3.214 -0.0867  0.5053 -2.0858
 1656SOL    MW4 6392   4.298   4.181   3.233  0.3529  0.5315  0.0974
 1657SOL     OW 6393   0.597   4.673   4.929  0.8415 -0.1268 -0.6442
 1657SOL    HW2 6394   0.583   4.742   4.993  1.4420 -0.2307 -0.3937
 1657SOL    HW3 6395   0.549   4.598   4.964 -0.2484  0.2910 -1.1744
 1657SOL    MW4 6396   0.589   4.672   4.942  0.7769 -0.0854 -0.6811
 1658SOL     OW 6397   3.331   5.311   5.389 -0.2674  0.6397 -0.3100
 1658SOL    HW2 6398   3.409   5.299   5.335 -0.4161  1.5728 -0.7377
 1658SOL    HW3 6399   3.339   5.244   5.457  1.4786  1.4195  0.3060
 1658SOL    MW4 6400   3.343   5.300   5.391 -0.0567  0.8657 -0.2851
 1659SOL     OW 6401   1.942   5.497   3.624 -0.4967  0.2366 -0.2729
 1659SOL    HW2 6402   2.012   5.544   3.579 -0.8969  0.4791 -0.6514
 1659SOL    HW3 6403   1.863   5.547   3.604 -0.5923  0.7165  1.2401
 1659SOL    MW4 6404   1.941   5.509   3.615 -0.5621  0.3319 -0.1232
 1660SOL     OW 6405   0.443   0.463   2.660 -0.0138 -0.5922 -0.1787
 1660SOL    HW2 6406   0.452   0.372   2.633  0.1070 -0.4082 -0.7811
 1660SOL    HW3 6407   0.468   0.513   2.582  0.5664 -0.0410  0.3541
 1660SOL    MW4 6408   0.447   0.458   2.646  0.0787 -0.4952 -0.1879
 1661SOL     OW 6409   1.824   2.888   0.752  0.1042 -0.2787 -0.0635
 1661SOL    HW2 6410   1.846   2.856   0.664  1.5201  0.3247  0.0452
 1661SOL    HW3 6411   1.865   2.975   0.756 -1.3516  0.3992  0.6165
 1661SOL    MW4 6412   1.833   2.895   0.741  0.0989 -0.1097  0.0406
 1662SOL     OW 6413   1.120   4.481   1.711 -0.1653 -0.1328 -0.3094
 1662SOL    HW2 6414   1.209   4.478   1.747 -0.5548 -0.9737  0.6275
 1662SOL    HW3 6415   1.077   4.552   1.759  0.1480  0.6855 -1.1871
 1662SOL    MW4 6416   1.126   4.490   1.722 -0.1754 -0.1358 -0.3016
 1663SOL     OW 6417   0.241   4.666   2.324 -0.5085 -0.6517  0.1362
 1663SOL    HW2 6418   0.178   4.594   2.328 -0.9902 -0.6024 -3.4191
 1663SOL    HW3 6419   0.273   4.665   2.233  1.7370  1.7455  0.7804
 1663SOL    MW4 6420   0.237   4.657   2.312 -0.2758 -0.3289 -0.2479
 1664SOL     OW 6421   0.208   0.656   6.400 -0.2301 -0.1240 -0.2587
 1664SOL    HW2 6422   0.254   0.580   6.435 -1.0157  0.2107  1.6136
 1664SOL    HW3 6423   0.128   0.620   6.361  0.1630 -0.3935 -0.8359
 1664SOL    MW4 6424   0.203   0.641   6.399 -0.2819 -0.1154 -0.0879
 1665SOL     OW 6425   2.856   2.151   3.128  0.0753 -0.5141 -0.0399
 1665SOL    HW2 6426   2.865   2.072   3.181 -0.4088 -0.4608  0.1222
 1665SOL    HW3 6427   2.894   2.127   3.043 -0.4930 -1.0715 -0.1425
 1665SOL    MW4 6428   2.862   2.137   3.124 -0.0635 -0.5806 -0.0321
 1666SOL     OW 6429   3.948   2.593   4.627  0.2685 -0.2407 -1.0661
 1666SOL    HW2 6430   3.907   2.512   4.655 -1.4761  0.8659 -0.2574
 1666SOL    HW3 6431   3.893   2.625   4.556  2.1856 -0.7988 -2.9419
 1666SOL    MW4 6432   3.936   2.587   4.621  0.2913 -0.1683 -1.2069
 1667SOL     OW 6433   3.094   0.779   3.647 -0.2252 -0.2252  0.0850
 1667SOL    HW2 6434   3.181   0.747   3.624  0.5246  1.2793  0.6848
 1667SOL    HW3 6435   3.040   0.761   3.570  0.7369 -0.7556 -0.4738
 1667SOL    MW4 6436   3.098   0.773   3.634  0.0006 -0.0966  0.0904
 1668SOL     OW 6437   2.195   1.845   1.479 -0.0003  0.4471 -0.4062
 1668SOL    HW2 6438   2.153   1.779   1.535  2.4300  0.1615  1.2260
 1668SOL    HW3 6439   2.170   1.929   1.518  2.0812  0.2379  1.5313
 1668SOL    MW4 6440   2.186   1.847   1.491  0.5950  0.3818  0.0648
 1669SOL     OW 6441   4.583   0.427   1.921 -0.5663 -0.0696 -0.1321
 1669SOL    HW2 6442   4.609   0.402   2.009  1.3678  2.8328  0.2646
 1669SOL    HW3 6443   4.492   0.458   1.932 -0.4268  0.0550  0.7951
 1669SOL    MW4 6444   4.574   0.428   1.934 -0.2927  0.3298  0.0426
 1670SOL     OW 6445   3.465   5.294   2.015 -0.6432 -0.1962  0.2212
 1670SOL    HW2 6446   3.524   5.363   2.044  1.9186 -1.9199 -0.5978
 1670SOL    HW3 6447   3.440   5.248   2.095  0.6653 -0.5999  0.4067
 1670SOL    MW4 6448   3.469   5.297   2.029 -0.1326 -0.4769  0.1376
 1671SOL     OW 6449   0.846   3.824   1.759 -0.3755  0.3308 -0.1339
 1671SOL    HW2 6450   0.934   3.793   1.737 -0.6987  0.5300 -1.8578
 1671SOL    HW3 6451   0.842   3.818   1.854 -0.0726 -3.9871 -0.1772
 1671SOL    MW4 6452   0.857   3.819   1.769 -0.3782 -0.2126 -0.3671
 1672SOL     OW 6453   1.413   2.036   3.071 -0.3914 -0.0162  0.6121
 1672SOL    HW2 6454   1.414   1.960   3.012  1.9547 -0.3974  1.0533
 1672SOL    HW3 6455   1.320   2.057   3.081 -1.1672 -2.9136  0.5624
 1672SOL    MW4 6456   1.401   2.028   3.065 -0.1842 -0.4488  0.6637
 1673SOL     OW 6457   4.032   2.633   3.037  0.1527 -0.3065 -0.7444
 1673SOL    HW2 6458   4.125   2.647   3.020  0.4217 -0.9406  0.1184
 1673SOL    HW3 6459   4.005   2.712   3.085  0.9254 -1.2592  1.3949
 1673SOL    MW4 6460   4.040   2.646   3.041  0.2901 -0.5158 -0.3483
 1674SOL     OW 6461   4.537   0.208   2.909  0.3932 -0.4664  0.3895
 1674SOL    HW2 6462   4.502   0.242   2.991 -0.5145  1.9206 -0.8662
 1674SOL    HW3 6463   4.507   0.117   2.905 -0.2300 -0.3833  2.2863
 1674SOL    MW4 6464   4.529   0.201   2.919  0.1912 -0.1405  0.4741
 1675SOL     OW 6465   6.187   0.375   6.127 -0.0693 -0.0927 -1.0436
 1675SOL    HW2 6466   6.124   0.446   6.133  0.3353  0.2410 -0.7383
 1675SOL    HW3 6467   6.172   0.323   6.206 -0.4820 -0.4478 -1.3514
 1675SOL    MW4 6468   6.177   0.377   6.138 -0.0704 -0.0955 -1.0439
 1676SOL     OW 6469   4.725   2.547   4.124  0.3122 -0.3953  0.2091
 1676SOL    HW2 6470   4.700   2.455   4.116  0.9461 -0.6140  0.6317
 1676SOL    HW3 6471   4.729   2.580   4.034  0.4388 -0.8756  0.0404
 1676SOL    MW4 6472   4.722   2.540   4.111  0.4125 -0.4875  0.2426
 1677SOL     OW 6473   5.762   4.783   0.120 -0.2143 -1.5038  0.5481
 1677SOL    HW2 6474   5.832   4.750   0.064  1.5410  1.5899  0.6933
 1677SOL    HW3 6475   5.779   4.743   0.205  0.5661 -1.7951  0.2649
 1677SOL    MW4 6476   5.774   4.773   0.124  0.1202 -1.1341  0.5299
 1678SOL     OW 6477   1.021   5.194   2.864 -0.2419  0.0023 -0.2028
 1678SOL    HW2 6478   1.104   5.190   2.912 -0.0002  2.0058 -0.3779
 1678SOL    HW3 6479   1.043   5.168   2.775 -0.3506 -1.9833  0.2919
 1678SOL    MW4 6480   1.035   5.190   2.859 -0.2243  0.0046 -0.1606
 1679SOL     OW 6481   1.890   3.471   5.300 -0.3380  0.0021  0.5316
 1679SOL    HW2 6482   1.904   3.535   5.369  0.4170  0.1226  0.2810
 1679SOL    HW3 6483   1.796   3.454   5.300 -0.2487 -0.6672  2.1907
 1679SOL    MW4 6484   1.879   3.477   5.309 -0.2266 -0.0703  0.7175
 1680SOL     OW 6485   3.562   2.970   6.092 -0.0535  0.4051 -0.1805
 1680SOL    HW2 6486   3.492   2.909   6.114  1.5101 -0.0514  4.6063
 1680SOL    HW3 6487   3.531   3.054   6.126  0.6027  0.7864 -0.5134
 1680SOL    MW4 6488   3.548   2.973   6.100  0.2394  0.3952  0.4072
 1681SOL     OW 6489   2.629   3.790   2.808 -0.2531 -0.3080  0.1953
 1681SOL    HW2 6490   2.628   3.885   2.802  2.0864 -0.1941  0.7599
 1681SOL    HW3 6491   2.634   3.760   2.717 -2.0039  0.0076 -0.0530
 1681SOL    MW4 6492   2.629   3.798   2.795 -0.1754 -0.2513  0.2370
 1682SOL     OW 6493   3.557   0.696   5.433  0.0438 -0.0275 -0.5248
 1682SOL    HW2 6494   3.514   0.662   5.355 -0.5253  0.7177 -0.5421
 1682SOL    HW3 6495   3.504   0.771   5.460  1.2900  0.9119 -0.5374
 1682SOL    MW4 6496   3.545   0.702   5.426  0.1331  0.1947 -0.5287
 1683SOL     OW 6497   4.473   1.717   1.368  0.1891 -0.1099  0.2546
 1683SOL    HW2 6498   4.444   1.669   1.290 -0.8232 -0.5922  0.9099
 1683SOL    HW3 6499   4.454   1.659   1.441  2.2012 -0.1528  0.8128
 1683SOL    MW4 6500   4.467   1.703   1.367  0.3210 -0.1792  0.4147
 1684SOL     OW 6501   5.205   5.336   1.016 -0.3226 -0.9186 -0.5384
 1684SOL    HW2 6502   5.295   5.320   1.045  0.8258 -0.6837 -3.5764
 1684SOL    HW3 6503   5.205   5.429   0.992 -1.8754 -0.5222  0.8476
 1684SOL    MW4 6504   5.217   5.346   1.017 -0.3760 -0.8353 -0.7564
 1685SOL     OW 6505   0.118   2.983   4.525  0.1592 -0.3649  0.0642
 1685SOL    HW2 6506   0.035   3.025   4.544  0.3495  0.9937 -1.8534
 1685SOL    HW3 6507   0.149   2.951   4.610 -0.7165  2.0592  1.3941
 1685SOL    MW4 6508   0.111   2.984   4.539  0.0688  0.1342 -0.0133
 1686SOL     OW 6509   6.066   0.107   5.109  0.2613 -0.5282  0.0383
 1686SOL    HW2 6510   5.972   0.114   5.096 -0.2139 -2.0264  2.2383
 1686SOL    HW3 6511   6.077   0.049   5.184  2.8664  1.7406  1.6295
 1686SOL    MW4 6512   6.055   0.100   5.117  0.5423 -0.4266  0.5385
 1687SOL     OW 6513   1.446   6.345   3.877  0.2121  0.1915  0.0262
 1687SOL    HW2 6514   1.411   6.330   3.965  0.0113  1.3400  0.1641
 1687SOL    HW3 6515   1.413   6.272   3.825  0.5520 -0.6443  0.9532
 1687SOL    MW4 6516   1.437   6.334   3.882  0.2305  0.2327  0.1667
 1688SOL     OW 6517   4.733   2.959   3.868  0.0537  0.0259 -0.0805
 1688SOL    HW2 6518   4.809   2.988   3.818 -0.4533 -0.6656 -1.2906
 1688SOL    HW3 6519   4.753   2.869   3.892 -0.1688  0.0005  0.0137
 1688SOL    MW4 6520   4.745   2.951   3.865 -0.0425 -0.0687 -0.2277
 1689SOL     OW 6521   4.892   1.921   5.059  0.0080 -0.1140  0.2861
 1689SOL    HW2 6522   4.951   1.849   5.036 -1.2758 -1.0999 -0.0384
 1689SOL    HW3 6523   4.944   2.000   5.043  1.8736 -0.9546  1.8204
 1689SOL    MW4 6524   4.907   1.922   5.054  0.0847 -0.3550  0.4457
 1690SOL     OW 6525   0.204   1.739   0.157  0.1159  0.1408 -0.1231
 1690SOL    HW2 6526   0.127   1.694   0.193  0.5335  0.3171  1.0233
 1690SOL    HW3 6527   0.199   1.828   0.194  0.1903  0.5484 -1.0631
 1690SOL    MW4 6528   0.193   1.745   0.167  0.1808  0.2178 -0.0959
 1691SOL     OW 6529   2.073   3.175   4.976 -0.3858  0.0197 -0.0587
 1691SOL    HW2 6530   2.166   3.186   4.959 -0.4130 -1.0262 -0.9936
 1691SOL    HW3 6531   2.069   3.123   5.056 -0.1505 -0.5290 -0.4004
 1691SOL    MW4 6532   2.084   3.170   4.985 -0.3583 -0.1907 -0.2271
 1692SOL     OW 6533   0.950   2.891   4.775  0.2719  0.1694  0.2159
 1692SOL    HW2 6534   0.888   2.956   4.810 -0.7363  0.2157 -1.5324
 1692SOL    HW3 6535   1.014   2.943   4.727  0.3267 -0.0359  0.0664
 1692SOL    MW4 6536   0.950   2.907   4.773  0.1461  0.1484 -0.0345
 1693SOL     OW 6537   4.941   2.243   1.949  0.4462  0.8853  0.5766
 1693SOL    HW2 6538   4.969   2.243   1.857 -1.5059 -0.2801 -0.0743
 1693SOL    HW3 6539   4.874   2.312   1.953 -1.5091 -0.8770  0.3603
 1693SOL    MW4 6540   4.936   2.252   1.937 -0.0693  0.4990  0.4622
 1694SOL     OW 6541   2.990   3.330   3.036 -0.3396  0.2480 -0.2098
 1694SOL    HW2 6542   2.904   3.289   3.031  0.0567 -0.7650  0.9835
 1694SOL    HW3 6543   2.979   3.402   3.098 -0.0320 -0.6838  0.9468
 1694SOL    MW4 6544   2.977   3.334   3.043 -0.2468 -0.0086  0.1002
 1695SOL     OW 6545   5.455   5.193   6.122 -0.2121 -0.5089  0.2055
 1695SOL    HW2 6546   5.392   5.243   6.174  0.1328  1.4477 -1.1827
 1695SOL    HW3 6547   5.536   5.243   6.128  0.8490 -2.1870  0.6957
 1695SOL    MW4 6548   5.457   5.206   6.130 -0.0266 -0.4721  0.0870
 1696SOL     OW 6549   6.423   5.085   5.605 -0.1358 -0.3845 -0.3478
 1696SOL    HW2 6550   6.501   5.111   5.654  0.1246 -0.9849 -0.4328
 1696SOL    HW3 6551   6.439   5.116   5.516 -0.4161  0.3182 -0.1680
 1696SOL    MW4 6552   6.435   5.093   5.600 -0.1384 -0.3710 -0.3353
 1697SOL     OW 6553   0.208   5.415   2.245 -0.3211 -0.5312 -0.4196
 1697SOL    HW2 6554   0.175   5.346   2.303  0.0755 -1.6644 -1.4864
 1697SOL    HW3 6555   0.218   5.372   2.160  1.4954  0.4169 -0.7355
 1697SOL    MW4 6556   0.205   5.400   2.241 -0.0291 -0.5556 -0.6020
 1698SOL     OW 6557   2.725   4.284   4.849 -0.2895  0.1652 -0.0905
 1698SOL    HW2 6558   2.798   4.236   4.810 -0.0169 -0.8803  1.6121
 1698SOL    HW3 6559   2.740   4.375   4.823  0.4703 -0.3162 -1.4489
 1698SOL    MW4 6560   2.737   4.290   4.841 -0.1533 -0.0362 -0.0451
 1699SOL     OW 6561   1.187   0.141   3.752  0.2172  0.1611  0.4887
 1699SOL    HW2 6562   1.200   0.052   3.719  0.4725 -0.8171  3.0077
 1699SOL    HW3 6563   1.094   0.159   3.736 -0.1952 -1.1591  1.2851
 1699SOL    MW4 6564   1.176   0.131   3.745  0.1965 -0.1422  0.9261
 1700SOL     OW 6565   4.493   4.671   4.574  0.4889  0.2758 -0.1358
 1700SOL    HW2 6566   4.572   4.723   4.588  0.7214 -0.0191 -0.3555
 1700SOL    HW3 6567   4.424   4.720   4.619  0.6438  0.9464 -0.6237
 1700SOL    MW4 6568   4.494   4.684   4.582  0.5400  0.3253 -0.2291
 1701SOL     OW 6569   6.003   2.027   2.040 -0.4102 -0.3294  0.2279
 1701SOL    HW2 6570   6.035   1.975   1.966 -0.3125  0.7865 -0.5396
 1701SOL    HW3 6571   5.940   1.969   2.084 -2.0015 -0.3478 -1.9034
 1701SOL    MW4 6572   5.999   2.012   2.036 -0.6073 -0.1846 -0.1546
 1702SOL     OW 6573   3.927   4.214   1.433 -0.0149 -0.2970 -0.0093
 1702SOL    HW2 6574   3.961   4.211   1.343 -1.0927  1.3958 -0.5217
 1702SOL    HW3 6575   3.954   4.300   1.465 -0.2267 -0.6206  1.0609
 1702SOL    MW4 6576   3.935   4.225   1.425 -0.1851 -0.1163  0.0643
 1703SOL     OW 6577   4.849   6.370   5.174 -0.0616  0.5000 -0.0451
 1703SOL    HW2 6578   4.810   6.305   5.233 -0.0646 -0.4462 -1.0574
 1703SOL    HW3 6579   4.806   6.452   5.198 -1.3463 -0.1843  0.1137
 1703SOL    MW4 6580   4.838   6.372   5.185 -0.2315  0.2848 -0.1577
 1704SOL     OW 6581   6.148   1.829   5.014 -0.3563  0.0300 -0.0255
 1704SOL    HW2 6582   6.083   1.774   5.060  1.6681 -3.6348 -1.1407
 1704SOL    HW3 6583   6.228   1.777   5.016  1.5490  2.6573 -2.0361
 1704SOL    MW4 6584   6.150   1.815   5.020  0.1622 -0.1069 -0.4379
 1705SOL     OW 6585   0.194   1.263   5.027  0.3260 -0.4583 -0.6093
 1705SOL    HW2 6586   0.154   1.181   5.057  1.8750 -0.6167  1.2720
 1705SOL    HW3 6587   0.172   1.326   5.096  1.1984  0.0571 -0.7892
 1705SOL    MW4 6588   0.186   1.260   5.040  0.6455 -0.4112 -0.3848
 1706SOL     OW 6589   5.573   2.563   5.391 -0.0443 -0.1211 -0.2791
 1706SOL    HW2 6590   5.490   2.550   5.436 -0.3438  0.9763 -0.4923
 1706SOL    HW3 6591   5.552   2.555   5.298 -0.2089  1.5296 -0.4147
 1706SOL    MW4 6592   5.559   2.560   5.385 -0.1056  0.2415 -0.3251
 1707SOL     OW 6593   0.771   5.887   2.570 -0.0773 -0.6800  0.2854
 1707SOL    HW2 6594   0.781   5.895   2.475 -1.8974 -2.6520 -0.1673
 1707SOL    HW3 6595   0.679   5.910   2.586  0.8445  2.2380  2.0084
 1707SOL    MW4 6596   0.760   5.891   2.560 -0.1958 -0.5552  0.4530
 1708SOL     OW 6597   6.108   0.499   1.448  0.9306 -0.4982 -0.2043
 1708SOL    HW2 6598   6.180   0.477   1.508 -2.6387 -2.4255  3.8964
 1708SOL    HW3 6599   6.079   0.415   1.413 -0.2884  0.0337 -0.5350
 1708SOL    MW4 6600   6.114   0.485   1.451  0.2988 -0.6823  0.2931
 1709SOL     OW 6601   4.174   1.748   2.246 -0.0766  0.4257  0.1699
 1709SOL    HW2 6602   4.250   1.806   2.243 -0.3895  0.8328  0.0539
 1709SOL    HW3 6603   4.195   1.678   2.185  0.1712  0.5788  0.0785
 1709SOL    MW4 6604   4.187   1.747   2.238 -0.0852  0.4996  0.1425
 1710SOL     OW 6605   3.511   0.519   0.325  0.5173  0.6518 -0.1467
 1710SOL    HW2 6606   3.503   0.425   0.342  0.4300  0.1136 -2.8188
 1710SOL    HW3 6607   3.604   0.538   0.340  0.3195  0.4351  1.5411
 1710SOL    MW4 6608   3.523   0.509   0.329  0.4797  0.5522 -0.2766
 1711SOL     OW 6609   3.757   1.529   3.242  0.1969 -0.0165  0.2419
 1711SOL    HW2 6610   3.820   1.573   3.298 -0.3936 -0.5864  1.3922
 1711SOL    HW3 6611   3.779   1.558   3.154  0.4789  1.7487  0.8533
 1711SOL    MW4 6612   3.768   1.539   3.238  0.1562  0.1412  0.4743
 1712SOL     OW 6613   5.838   1.466   1.708  0.3981 -0.2599 -0.2608
 1712SOL    HW2 6614   5.910   1.448   1.647 -0.8918 -1.1576 -1.5900
 1712SOL    HW3 6615   5.774   1.396   1.690 -1.0466  0.8356  0.4720
 1712SOL    MW4 6616   5.839   1.454   1.697  0.0373 -0.2338 -0.3395
 1713SOL     OW 6617   1.585   1.062   4.908  0.5041 -0.3765  0.1138
 1713SOL    HW2 6618   1.491   1.076   4.894  0.5850  0.9011  0.6423
 1713SOL    HW3 6619   1.598   0.969   4.894 -1.1130 -0.8601  1.4832
 1713SOL    MW4 6620   1.574   1.052   4.904  0.3014 -0.2717  0.3642
 1714SOL     OW 6621   6.369   0.124   4.665  0.5935 -0.3058 -0.2872
 1714SOL    HW2 6622   6.343   0.116   4.757  0.4761 -2.3208 -0.4635
 1714SOL    HW3 6623   6.297   0.172   4.624  0.1576 -0.3023  0.4718
 1714SOL    MW4 6624   6.356   0.129   4.672  0.5205 -0.5712 -0.2103
 1715SOL     OW 6625   2.358   4.856   0.581 -0.0569 -0.3975 -0.0038
 1715SOL    HW2 6626   2.292   4.786   0.580 -0.1400 -0.4012  1.8527
 1715SOL    HW3 6627   2.427   4.824   0.523 -0.8228 -1.2732 -0.4714
 1715SOL    MW4 6628   2.358   4.843   0.573 -0.1689 -0.5135  0.1795
 1716SOL     OW 6629   0.322   2.798   6.422 -0.5376 -0.6468  0.2328
 1716SOL    HW2 6630   0.416   2.794   6.406 -0.6432  1.1574 -1.1712
 1716SOL    HW3 6631   0.288   2.717   6.385  0.4081 -1.0878  0.3101
 1716SOL    MW4 6632   0.330   2.787   6.415 -0.4268 -0.4670  0.0578
 1717SOL     OW 6633   0.931   0.256   4.005 -0.8347  0.5906  0.8094
 1717SOL    HW2 6634   0.981   0.178   4.030 -0.2173 -0.1119 -2.2688
 1717SOL    HW3 6635   0.995   0.327   4.009 -0.9956  0.6884  2.0523
 1717SOL    MW4 6636   0.946   0.255   4.009 -0.7745  0.5108  0.5673
 1718SOL     OW 6637   3.178   5.769   2.032  0.3596  0.2282 -0.2891
 1718SOL    HW2 6638   3.161   5.764   2.126  2.8966  1.5019  0.3378
 1718SOL    HW3 6639   3.220   5.686   2.011  2.1089  0.9095  0.3255
 1718SOL    MW4 6640   3.182   5.758   2.042  0.9251  0.4861 -0.1253
 1719SOL     OW 6641   1.778   5.925   5.769 -0.0883  0.4139 -0.1248
 1719SOL    HW2 6642   1.867   5.936   5.802  0.3828  1.5577 -1.6665
 1719SOL    HW3 6643   1.744   5.850   5.818  1.6938 -0.0321  0.5317
 1719SOL    MW4 6644   1.785   5.916   5.779  0.2090  0.5060 -0.2416
 1720SOL     OW 6645   4.149   0.484   5.169  0.1490 -0.2030  0.4945
 1720SOL    HW2 6646   4.153   0.389   5.183  0.5426 -0.2770 -0.1316
 1720SOL    HW3 6647   4.185   0.521   5.250 -0.5645 -0.5647  0.9973
 1720SOL    MW4 6648   4.154   0.476   5.182  0.1068 -0.2605  0.4782
 1721SOL     OW 6649   5.319   5.202   5.900 -0.6471  0.0457 -0.5180
 1721SOL    HW2 6650   5.357   5.130   5.850 -0.6311 -0.4356  0.1746
 1721SOL    HW3 6651   5.384   5.221   5.968  0.4938  2.3409 -2.0851
 1721SOL    MW4 6652   5.333   5.195   5.902 -0.4944  0.2850 -0.6334
 1722SOL     OW 6653   2.105   4.304   1.478 -0.1427  0.2310 -0.1110
 1722SOL    HW2 6654   2.105   4.340   1.389 -1.4288  2.0470  0.5521
 1722SOL    HW3 6655   2.182   4.248   1.481  0.4218  0.8061 -2.1088
 1722SOL    MW4 6656   2.115   4.302   1.467 -0.2379  0.5464 -0.2871
 1723SOL     OW 6657   3.079   4.448   1.876  0.7561  0.1869 -0.1403
 1723SOL    HW2 6658   3.078   4.383   1.946 -0.5145 -0.4732 -0.7454
 1723SOL    HW3 6659   3.038   4.526   1.915  0.4410 -0.0399 -0.0146
 1723SOL    MW4 6660   3.073   4.450   1.890  0.5469  0.0699 -0.2036
 1724SOL     OW 6661   4.177   4.514   5.483  0.3695  0.0028 -0.3991
 1724SOL    HW2 6662   4.195   4.574   5.410  0.8431 -1.0503 -1.1801
 1724SOL    HW3 6663   4.082   4.518   5.494  0.4139  1.0089 -0.3298
 1724SOL    MW4 6664   4.167   4.522   5.475  0.4379 -0.0034 -0.4930
 1725SOL     OW 6665   4.972   4.804   2.748 -0.1682 -0.1652 -0.1702
 1725SOL    HW2 6666   4.902   4.833   2.690  0.6554 -0.0990 -1.1563
 1725SOL    HW3 6667   5.052   4.835   2.707  0.4369 -0.0040  1.0821
 1725SOL    MW4 6668   4.973   4.812   2.735  0.0203 -0.1352 -0.1351
 1726SOL     OW 6669   4.326   2.418   5.863  0.3259 -0.4476  0.0895
 1726SOL    HW2 6670   4.414   2.453   5.852  0.0694 -0.1553 -1.1319
 1726SOL    HW3 6671   4.271   2.474   5.809 -0.4829 -1.1447  0.1806
 1726SOL    MW4 6672   4.331   2.430   5.855  0.1854 -0.5010 -0.0596
 1727SOL     OW 6673   1.997   1.325   3.536 -0.2657 -0.1092  1.1260
 1727SOL    HW2 6674   2.091   1.311   3.532 -0.0052  1.8146 -0.5566
 1727SOL    HW3 6675   1.978   1.332   3.630  1.4289  0.5556  1.4452
 1727SOL    MW4 6676   2.007   1.324   3.548 -0.0078  0.2323  0.9461
 1728SOL     OW 6677   4.476   1.747   2.009  0.3541  0.3523  0.7372
 1728SOL    HW2 6678   4.422   1.783   1.939 -0.1178 -0.3453  0.7288
 1728SOL    HW3 6679   4.457   1.802   2.085 -1.2879 -0.5799  1.0508
 1728SOL    MW4 6680   4.467   1.759   2.010  0.0752  0.1372  0.7775
 1729SOL     OW 6681   4.177   3.396   1.924 -0.1380 -0.6223 -0.4545
 1729SOL    HW2 6682   4.187   3.491   1.921  0.3810 -0.6706 -0.4010
 1729SOL    HW3 6683   4.267   3.363   1.923 -0.3077 -1.1001  0.0113
 1729SOL    MW4 6684   4.190   3.404   1.923 -0.0919 -0.6917 -0.3860
 1730SOL     OW 6685   5.979   4.943   1.120 -0.5414 -0.3904  0.3220
 1730SOL    HW2 6686   5.952   4.929   1.029 -1.0076  0.5934  0.2913
 1730SOL    HW3 6687   6.073   4.962   1.114 -0.4199 -1.0520  0.1225
 1730SOL    MW4 6688   5.988   4.944   1.107 -0.5869 -0.3479  0.2916
 1731SOL     OW 6689   3.853   2.530   5.676 -0.0274 -0.0672  0.5017
 1731SOL    HW2 6690   3.896   2.603   5.631  1.6009 -2.3109 -1.9004
 1731SOL    HW3 6691   3.760   2.549   5.671  0.3687  2.2665  0.8708
 1731SOL    MW4 6692   3.846   2.542   5.670  0.2397 -0.0554  0.2335
 1732SOL     OW 6693   4.517   6.022   1.435  0.6657 -0.2244  0.4912
 1732SOL    HW2 6694   4.489   5.940   1.475  3.6206 -1.3526  0.5125
 1732SOL    HW3 6695   4.492   6.089   1.498  0.1043 -1.3380  1.4973
 1732SOL    MW4 6696   4.510   6.020   1.449  0.9815 -0.5202  0.6268
 1733SOL     OW 6697   0.246   0.252   1.387  0.3581 -0.4060 -0.0510
 1733SOL    HW2 6698   0.253   0.194   1.311 -0.5232  0.3218 -0.7015
 1733SOL    HW3 6699   0.213   0.335   1.352  0.0115 -0.0309  1.1074
 1733SOL    MW4 6700   0.242   0.255   1.372  0.1961 -0.2605  0.0160
 1734SOL     OW 6701   3.968   3.723   4.947 -0.3880  0.4303 -0.6822
 1734SOL    HW2 6702   4.033   3.793   4.953 -0.8646  0.8064  0.2156
 1734SOL    HW3 6703   3.919   3.743   4.867 -0.0254  0.6920 -0.8375
 1734SOL    MW4 6704   3.970   3.735   4.937 -0.4030  0.5144 -0.5842
 1735SOL     OW 6705   4.542   6.284   4.361  0.3566  0.4803  0.2537
 1735SOL    HW2 6706   4.499   6.204   4.332  0.5437  0.9729 -1.5025
 1735SOL    HW3 6707   4.536   6.281   4.456 -3.6980  0.5870  0.1726
 1735SOL    MW4 6708   4.536   6.273   4.370 -0.1536  0.5593  0.0113
 1736SOL     OW 6709   0.224   1.921   3.422 -0.4763 -0.0536 -0.2713
 1736SOL    HW2 6710   0.203   1.839   3.467  0.5202 -0.6143 -0.7995
 1736SOL    HW3 6711   0.222   1.987   3.492 -2.4633 -0.2855 -0.0359
 1736SOL    MW4 6712   0.221   1.919   3.437 -0.6070 -0.1582 -0.3099
 1737SOL     OW 6713   3.115   5.409   4.920  0.5770 -0.2572 -0.0653
 1737SOL    HW2 6714   3.086   5.420   5.011  0.0570 -1.5118 -0.0633
 1737SOL    HW3 6715   3.065   5.475   4.872  0.1980 -0.1727  0.4320
 1737SOL    MW4 6716   3.104   5.420   4.926  0.4584 -0.4116  0.0006
 1738SOL     OW 6717   0.321   1.966   5.610  0.0698 -0.5402 -0.2048
 1738SOL    HW2 6718   0.329   1.969   5.706  1.0057 -0.7224 -0.2734
 1738SOL    HW3 6719   0.247   1.908   5.594 -0.7788  0.3316  0.4320
 1738SOL    MW4 6720   0.312   1.959   5.621  0.0813 -0.4492 -0.1299
 1739SOL     OW 6721   5.440   0.214   2.423 -0.6322 -0.0287 -0.0208
 1739SOL    HW2 6722   5.486   0.150   2.368 -0.9362  0.3174 -0.6913
 1739SOL    HW3 6723   5.506   0.242   2.487  0.2298  0.7558 -1.2123
 1739SOL    MW4 6724   5.455   0.209   2.424 -0.5586  0.1205 -0.2664
 1740SOL     OW 6725   3.361   4.242   0.658  0.4730 -0.0851  0.2929
 1740SOL    HW2 6726   3.295   4.228   0.725 -0.5423  0.9537 -0.4514
 1740SOL    HW3 6727   3.419   4.309   0.695 -0.1570  0.5787  0.1129
 1740SOL    MW4 6728   3.360   4.249   0.672  0.2559  0.1395  0.1709
 1741SOL     OW 6729   5.745   5.221   5.799  0.3920 -0.2251 -0.0962
 1741SOL    HW2 6730   5.818   5.159   5.801  2.0016  1.6197  0.9517
 1741SOL    HW3 6731   5.726   5.238   5.891 -0.2546  0.5753 -0.3737
 1741SOL    MW4 6732   5.752   5.215   5.811  0.5191  0.1239  0.0055
 1742SOL     OW 6733   0.844   1.892   5.913  0.6601  0.0346 -0.3370
 1742SOL    HW2 6734   0.902   1.952   5.961  0.7221  2.9328 -3.6351
 1742SOL    HW3 6735   0.758   1.934   5.919 -0.1409 -1.6482  0.4342
 1742SOL    MW4 6736   0.840   1.906   5.921  0.5626  0.1950 -0.6704
 1743SOL     OW 6737   2.906   2.087   5.661  0.0031  0.2520 -0.1835
 1743SOL    HW2 6738   2.944   2.012   5.616  1.5639  1.8207 -1.6741
 1743SOL    HW3 6739   2.924   2.161   5.603 -1.8941  1.7305  0.9791
 1743SOL    MW4 6740   2.914   2.087   5.648 -0.0413  0.6541 -0.2268
 1744SOL     OW 6741   4.163   6.148   0.491 -0.0017  0.2695  0.7041
 1744SOL    HW2 6742   4.241   6.170   0.441  2.0697  1.0436  3.9763
 1744SOL    HW3 6743   4.145   6.057   0.468  1.1779  0.4189 -0.9509
 1744SOL    MW4 6744   4.171   6.139   0.481  0.4272  0.3913  0.9174
 1745SOL     OW 6745   3.411   5.733   2.389 -0.1972  0.6512 -0.0459
 1745SOL    HW2 6746   3.422   5.639   2.379  0.6524  0.5300  1.6686
 1745SOL    HW3 6747   3.477   5.771   2.331 -0.1797  0.1902 -0.3359
 1745SOL    MW4 6748   3.421   5.726   2.380 -0.0828  0.5744  0.1420
 1746SOL     OW 6749   0.120   0.908   0.262 -0.5275 -0.2383  0.1947
 1746SOL    HW2 6750   0.028   0.927   0.283 -0.6050 -0.4331  0.0303
 1746SOL    HW3 6751   0.125   0.920   0.167 -0.5159 -0.7994  0.1250
 1746SOL    MW4 6752   0.109   0.912   0.253 -0.5362 -0.3381  0.1638
 1747SOL     OW 6753   3.286   6.250   4.219  0.5916 -0.1649 -0.0307
 1747SOL    HW2 6754   3.249   6.338   4.208  0.6909  0.0382  1.1056
 1747SOL    HW3 6755   3.355   6.244   4.153  0.2975  0.4455 -0.4020
 1747SOL    MW4 6756   3.290   6.261   4.209  0.5659 -0.0576  0.0702
 1748SOL     OW 6757   4.907   5.919   0.208  0.6033 -0.6185 -0.4093
 1748SOL    HW2 6758   4.951   5.867   0.142 -0.4049 -0.8953 -0.8856
 1748SOL    HW3 6759   4.835   5.961   0.162  0.7739  0.3840  0.1915
 1748SOL    MW4 6760   4.903   5.918   0.193  0.4928 -0.5227 -0.3929
 1749SOL     OW 6761   3.480   2.495   3.652 -0.2131 -0.0264 -0.0706
 1749SOL    HW2 6762   3.443   2.575   3.689  0.5425  0.9414 -1.3010
 1749SOL    HW3 6763   3.572   2.497   3.678 -0.1469 -0.3947 -0.2674
 1749SOL    MW4 6764   3.488   2.506   3.660 -0.1047  0.0527 -0.2589
 1750SOL     OW 6765   1.253   5.299   5.804 -0.5319 -0.6462  0.3230
 1750SOL    HW2 6766   1.230   5.215   5.764  0.8663 -0.0776 -1.8016
 1750SOL    HW3 6767   1.336   5.323   5.763 -1.6426  2.5262 -0.3116
 1750SOL    MW4 6768   1.261   5.291   5.793 -0.4940 -0.1526 -0.0411
 1751SOL     OW 6769   0.893   6.346   1.896 -0.2332  0.0994  0.4561
 1751SOL    HW2 6770   0.813   6.387   1.929  0.4963  1.4843  0.5409
 1751SOL    HW3 6771   0.964   6.397   1.934  0.6860  1.3867 -2.6628
 1751SOL    MW4 6772   0.892   6.358   1.906 -0.0157  0.4520  0.0558
 1752SOL     OW 6773   0.781   5.659   2.295 -0.8665 -0.0067 -0.4488
 1752SOL    HW2 6774   0.851   5.619   2.243  0.4703  0.5003  0.8861
 1752SOL    HW3 6775   0.702   5.646   2.243 -0.2601 -2.9788 -0.7816
 1752SOL    MW4 6776   0.780   5.652   2.281 -0.6101 -0.3319 -0.3166
 1753SOL     OW 6777   2.992   4.974   5.957  0.0336  0.1119  0.7157
 1753SOL    HW2 6778   2.907   5.016   5.969  0.0584 -0.2780  2.6663
 1753SOL    HW3 6779   3.055   5.046   5.958 -0.2628  0.4400 -1.1525
 1753SOL    MW4 6780   2.990   4.989   5.959 -0.0022  0.1037  0.7266
 1754SOL     OW 6781   4.219   1.409   0.607  0.0196  0.4477 -0.3846
 1754SOL    HW2 6782   4.239   1.331   0.556  0.2222 -1.8904  2.9568
 1754SOL    HW3 6783   4.303   1.437   0.642 -0.5134 -0.4285  1.7490
 1754SOL    MW4 6784   4.233   1.403   0.605 -0.0240  0.0236  0.3378
 1755SOL     OW 6785   3.757   0.044   4.279 -0.2278  0.4399 -0.7848
 1755SOL    HW2 6786   3.663   0.051   4.264 -0.3959 -0.2824 -0.1143
 1755SOL    HW3 6787   3.768   0.064   4.372  0.1827 -0.2649 -0.6736
 1755SOL    MW4 6788   3.746   0.048   4.289 -0.1958  0.2516 -0.6816
 1756SOL     OW 6789   6.219   5.132   4.435 -0.1222  0.5783  0.9037
 1756SOL    HW2 6790   6.148   5.125   4.371  0.2319  0.0600  0.5670
 1756SOL    HW3 6791   6.292   5.086   4.396 -0.3829 -1.1804  2.3443
 1756SOL    MW4 6792   6.219   5.125   4.421 -0.1099  0.2779  1.0493
 1757SOL     OW 6793   5.946   4.650   6.379  0.0560  0.3447  0.2097
 1757SOL    HW2 6794   5.935   4.568   6.426 -0.5258 -0.4389 -1.2133
 1757SOL    HW3 6795   6.040   4.654   6.359 -0.3041 -1.7587 -2.6209
 1757SOL    MW4 6796   5.957   4.640   6.382 -0.0683 -0.0362 -0.3515
 1758SOL     OW 6797   1.106   4.475   2.270  0.3725  0.0240 -0.3259
 1758SOL    HW2 6798   1.121   4.407   2.205  1.7430  0.0856 -0.1027
 1758SOL    HW3 6799   1.183   4.531   2.266 -1.2227  2.3312 -1.3479
 1758SOL    MW4 6800   1.118   4.473   2.261  0.3428  0.3365 -0.4313
 1759SOL     OW 6801   0.015   1.245   4.799 -0.7936  0.5969 -0.3563
 1759SOL    HW2 6802   0.088   1.301   4.825  0.5841 -0.7482 -1.1315
 1759SOL    HW3 6803  -0.002   1.268   4.708 -0.0938 -0.3504 -0.7358
 1759SOL    MW4 6804   0.022   1.255   4.791 -0.5195  0.2945 -0.5087
 1760SOL     OW 6805   5.991   2.169   2.392 -0.1782 -0.0660  0.1367
 1760SOL    HW2 6806   5.969   2.087   2.348  1.2188 -0.8739  0.8846
 1760SOL    HW3 6807   5.988   2.148   2.485  2.1308  0.1752  0.3153
 1760SOL    MW4 6808   5.988   2.156   2.398  0.3108 -0.1408  0.2590
 1761SOL     OW 6809   5.422   6.284   2.386 -0.2135  0.4977  0.6646
 1761SOL    HW2 6810   5.478   6.284   2.463  0.5795  1.0648  0.1102
 1761SOL    HW3 6811   5.393   6.194   2.376 -0.7722  0.5194  1.9348
 1761SOL    MW4 6812   5.426   6.272   2.394 -0.1826  0.5754  0.7591
 1762SOL     OW 6813   0.343   1.886   4.806  0.6744  0.3120  0.1629
 1762SOL    HW2 6814   0.388   1.935   4.738  0.4228 -0.8071 -0.8476
 1762SOL    HW3 6815   0.251   1.884   4.778  0.6263 -0.4285  0.3549
 1762SOL    MW4 6816   0.337   1.892   4.793  0.6349  0.0666  0.0549
 1763SOL     OW 6817   0.153   3.144   3.933  0.5283  0.3664 -0.6433
 1763SOL    HW2 6818   0.166   3.074   3.997 -0.2429  0.9006  0.1160
 1763SOL    HW3 6819   0.154   3.224   3.984  2.3796  1.0236 -1.6337
 1763SOL    MW4 6820   0.155   3.145   3.948  0.6708  0.5236 -0.6738
 1764SOL     OW 6821   2.332   5.693   6.330 -0.1545 -0.0209  0.2868
 1764SOL    HW2 6822   2.243   5.722   6.350 -0.4380 -0.9239  0.3578
 1764SOL    HW3 6823   2.339   5.607   6.370  0.7642  0.0476  0.3022
 1764SOL    MW4 6824   2.321   5.685   6.338 -0.0707 -0.1310  0.2982
 1765SOL     OW 6825   3.685   5.646   4.897 -0.3941  0.4912  0.3390
 1765SOL    HW2 6826   3.630   5.724   4.894  1.1260  1.5613 -0.9984
 1765SOL    HW3 6827   3.705   5.634   4.990 -0.1512  2.0597  0.5119
 1765SOL    MW4 6828   3.680   5.655   4.909 -0.1615  0.8394  0.1854
 1766SOL     OW 6829   1.784   4.989   5.266  0.4609 -0.0070 -0.3910
 1766SOL    HW2 6830   1.874   4.964   5.284 -0.2700 -1.3093  1.7671
 1766SOL    HW3 6831   1.788   5.084   5.250  2.1565 -0.0174 -0.1644
 1766SOL    MW4 6832   1.796   4.998   5.266  0.5882 -0.1802 -0.0764
 1767SOL     OW 6833   1.117   3.926   2.424 -0.1295  0.0504 -0.4057
 1767SOL    HW2 6834   1.075   3.872   2.491 -0.5264 -0.3111 -0.9338
 1767SOL    HW3 6835   1.146   4.004   2.470  0.1454 -0.4640  0.3062
 1767SOL    MW4 6836   1.115   3.929   2.439 -0.1456 -0.0652 -0.3814
 1768SOL     OW 6837   2.628   4.929   5.994 -0.1843  0.8173  0.1433
 1768SOL    HW2 6838   2.621   4.996   6.062 -1.5018  0.5062  0.3337
 1768SOL    HW3 6839   2.538   4.906   5.973  0.2078 -1.6513  0.8377
 1768SOL    MW4 6840   2.615   4.935   6.000 -0.3064  0.4506  0.2601
 1769SOL     OW 6841   0.138   2.183   1.614  0.9183 -0.0412 -0.5349
 1769SOL    HW2 6842   0.157   2.197   1.522  1.5680  0.7044 -0.3005
 1769SOL    HW3 6843   0.224   2.182   1.657  0.6792 -1.2130 -0.0409
 1769SOL    MW4 6844   0.152   2.185   1.608  0.9725 -0.0974 -0.4388
 1770SOL     OW 6845   0.597   2.344   2.326 -0.9428  0.2467 -0.1416
 1770SOL    HW2 6846   0.539   2.421   2.331 -0.8998  0.3057 -0.5502
 1770SOL    HW3 6847   0.561   2.284   2.391 -1.1776  0.4773 -0.0533
 1770SOL    MW4 6848   0.584   2.346   2.335 -0.9681  0.2849 -0.1839
 1771SOL     OW 6849   0.904   1.094   5.396  0.0858 -0.5688 -0.9351
 1771SOL    HW2 6850   0.977   1.108   5.456 -0.8326 -0.9342  0.3208
 1771SOL    HW3 6851   0.828   1.132   5.442 -0.3026  1.0993 -2.8120
 1771SOL    MW4 6852   0.903   1.101   5.410 -0.0866 -0.3969 -1.0170
 1772SOL     OW 6853   0.470   3.391   3.989 -0.2562  0.3562 -0.1245
 1772SOL    HW2 6854   0.471   3.308   3.941 -0.0593 -0.8348  1.8147
 1772SOL    HW3 6855   0.543   3.382   4.051 -0.8511  1.5694  0.7732
 1772SOL    MW4 6856   0.480   3.379   3.991 -0.3087  0.3591  0.2498
 1773SOL     OW 6857   2.819   2.541   4.894  0.3695  0.4261 -0.2952
 1773SOL    HW2 6858   2.871   2.462   4.905  0.3150  0.2874 -0.9883
 1773SOL    HW3 6859   2.771   2.550   4.977 -0.2406 -0.7147 -0.5120
 1773SOL    MW4 6860   2.819   2.532   4.907  0.2818  0.2573 -0.4152
 1774SOL     OW 6861   0.232   1.652   5.806  0.0872  0.3096  0.4587
 1774SOL    HW2 6862   0.175   1.620   5.875  2.9045 -1.4168  2.1515
 1774SOL    HW3 6863   0.259   1.739   5.835 -1.3792  1.0447 -0.2482
 1774SOL    MW4 6864   0.228   1.659   5.819  0.2654  0.1788  0.5888
 1775SOL     OW 6865   0.474   0.440   3.178  0.5621  0.2647 -0.3618
 1775SOL    HW2 6866   0.481   0.522   3.227 -0.0105  0.8498 -1.2389
 1775SOL    HW3 6867   0.563   0.405   3.176  0.4587 -0.2648  1.9062
 1775SOL    MW4 6868   0.487   0.446   3.184  0.4729  0.2721 -0.1782
 1776SOL     OW 6869   1.773   2.394   6.365  0.2762  0.3028 -0.8193
 1776SOL    HW2 6870   1.788   2.450   6.442  2.2339 -1.0780 -0.1248
 1776SOL    HW3 6871   1.736   2.454   6.299  2.9508  2.6750 -0.3777
 1776SOL    MW4 6872   1.771   2.410   6.366  0.8874  0.4336 -0.6694
 1777SOL     OW 6873   4.687   4.012   5.083  0.0218 -0.0720 -0.8111
 1777SOL    HW2 6874   4.734   3.933   5.112 -1.8919 -1.0076 -0.0476
 1777SOL    HW3 6875   4.731   4.084   5.127  0.4598 -0.9522  0.2435
 1777SOL    MW4 6876   4.699   4.011   5.092 -0.1729 -0.3116 -0.5713
 1778SOL     OW 6877   3.694   6.043   1.329 -0.0296  0.0498  0.0533
 1778SOL    HW2 6878   3.672   6.063   1.238 -0.3470  0.3762  0.1983
 1778SOL    HW3 6879   3.683   6.126   1.375  0.9564  0.0800  0.2469
 1778SOL    MW4 6880   3.689   6.056   1.323  0.0586  0.0969  0.0980
 1779SOL     OW 6881   2.428   4.995   2.508 -0.1238 -0.0052  0.3843
 1779SOL    HW2 6882   2.521   4.989   2.530 -0.1089  0.4434  0.4712
 1779SOL    HW3 6883   2.412   5.089   2.497 -0.6108 -0.0594  0.5726
 1779SOL    MW4 6884   2.438   5.007   2.509 -0.1861  0.0469  0.4206
 1780SOL     OW 6885   1.979   5.833   2.322 -0.4895  0.1541  0.3998
 1780SOL    HW2 6886   1.975   5.739   2.339  0.0953  0.3153  1.5353
 1780SOL    HW3 6887   2.021   5.870   2.400  0.7098  1.1880 -0.6944
 1780SOL    MW4 6888   1.984   5.826   2.335 -0.2541  0.3118  0.4052
 1781SOL     OW 6889   3.457   4.705   4.157  0.4782 -0.2650 -0.4036
 1781SOL    HW2 6890   3.551   4.723   4.148  0.5769 -0.9586 -0.8357
 1781SOL    HW3 6891   3.417   4.753   4.084  0.5916 -0.6275 -0.7112
 1781SOL    MW4 6892   3.464   4.714   4.146  0.5062 -0.4043 -0.5012
 1782SOL     OW 6893   4.233   3.647   1.449 -0.3772  0.4258 -0.2573
 1782SOL    HW2 6894   4.204   3.640   1.358 -0.9119  0.3430 -0.0848
 1782SOL    HW3 6895   4.236   3.741   1.467 -2.6975  0.4358  0.3814
 1782SOL    MW4 6896   4.230   3.658   1.440 -0.7539  0.4162 -0.1502
 1783SOL     OW 6897   3.202   1.669   3.319 -0.1645  0.4711  0.6219
 1783SOL    HW2 6898   3.214   1.676   3.224  4.2797  3.4006  1.1324
 1783SOL    HW3 6899   3.169   1.755   3.345  0.0088  0.1783  1.8747
 1783SOL    MW4 6900   3.199   1.682   3.309  0.4447  0.8190  0.8545
 1784SOL     OW 6901   3.419   4.707   0.644 -0.2357 -0.5558 -0.1941
 1784SOL    HW2 6902   3.324   4.719   0.644 -0.5102 -2.2876  0.6873
 1784SOL    HW3 6903   3.437   4.657   0.565 -0.0452 -0.1950 -0.3808
 1784SOL    MW4 6904   3.409   4.702   0.634 -0.2468 -0.7367 -0.1025
 1785SOL     OW 6905   5.943   2.144   5.254 -0.3966  0.1401 -0.8597
 1785SOL    HW2 6906   5.973   2.192   5.331 -2.0712 -0.1976  0.0607
 1785SOL    HW3 6907   6.004   2.071   5.247 -0.4450 -0.0557  0.4109
 1785SOL    MW4 6908   5.955   2.141   5.263 -0.6240  0.0697 -0.5706
 1786SOL     OW 6909   1.268   4.442   5.526  0.3789  0.6629 -0.2780
 1786SOL    HW2 6910   1.355   4.408   5.507  0.4828  0.9727 -0.3600
 1786SOL    HW3 6911   1.275   4.479   5.614  0.5470  1.4142 -0.6057
 1786SOL    MW4 6912   1.280   4.442   5.535  0.4148  0.8029 -0.3321
 1787SOL     OW 6913   1.726   0.457   0.809  0.5031 -0.2867 -0.6005
 1787SOL    HW2 6914   1.729   0.551   0.789  1.0441 -0.2140 -0.2080
 1787SOL    HW3 6915   1.718   0.415   0.724  0.9353  0.0918 -0.8371
 1787SOL    MW4 6916   1.725   0.464   0.795  0.6315 -0.2271 -0.5799
 1788SOL     OW 6917   1.713   0.415   3.449  0.5479 -0.0551 -0.0278
 1788SOL    HW2 6918   1.779   0.412   3.380  1.6735 -2.1542  1.0223
 1788SOL    HW3 6919   1.664   0.334   3.439  0.9604 -0.5813  1.7911
 1788SOL    MW4 6920   1.715   0.404   3.439  0.7509 -0.4015  0.3507
 1789SOL     OW 6921   5.377   0.573   4.587  0.1632  0.1720  0.4314
 1789SOL    HW2 6922   5.430   0.623   4.650 -0.8863  2.0763 -0.1263
 1789SOL    HW3 6923   5.441   0.536   4.526  0.9967  0.6253  1.0044
 1789SOL    MW4 6924   5.393   0.575   4.587  0.1347  0.4831  0.4335
 1790SOL     OW 6925   4.985   3.450   0.027  0.6374  0.0291 -0.0016
 1790SOL    HW2 6926   5.068   3.457   0.075 -0.0153  3.4155  0.8608
 1790SOL    HW3 6927   4.918   3.471   0.092 -0.5042  1.8892 -1.6717
 1790SOL    MW4 6928   4.987   3.454   0.042  0.4007  0.7213 -0.1081
 1791SOL     OW 6929   2.412   5.268   2.503 -0.0484 -0.3311 -0.2385
 1791SOL    HW2 6930   2.415   5.264   2.599  0.3843 -1.4284 -0.2917
 1791SOL    HW3 6931   2.476   5.336   2.480 -0.2097 -0.0118  0.2526
 1791SOL    MW4 6932   2.421   5.277   2.513 -0.0126 -0.4337 -0.1807
 1792SOL     OW 6933   5.751   3.356   2.041 -0.3563  0.6554  0.0379
 1792SOL    HW2 6934   5.681   3.405   1.999 -0.4734 -0.1876 -0.7902
 1792SOL    HW3 6935   5.786   3.300   1.972  0.3545  0.2123  0.7346
 1792SOL    MW4 6936   5.747   3.355   2.026 -0.2780  0.4857  0.0206
 1793SOL     OW 6937   3.812   1.915   5.690  0.6850 -0.5024 -0.1392
 1793SOL    HW2 6938   3.876   1.899   5.760 -0.1811 -1.9035  0.3779
 1793SOL    HW3 6939   3.784   2.005   5.703  0.3906 -0.7864  1.4898
 1793SOL    MW4 6940   3.817   1.925   5.701  0.5319 -0.7247  0.1439
 1794SOL     OW 6941   1.052   3.687   4.721 -0.1297  0.4342  0.1594
 1794SOL    HW2 6942   1.138   3.650   4.705  0.7449  2.3689  0.1397
 1794SOL    HW3 6943   1.005   3.618   4.768  1.9599 -0.0894  1.6394
 1794SOL    MW4 6944   1.057   3.673   4.725  0.2614  0.6204  0.3521
 1795SOL     OW 6945   5.042   0.005   1.209  0.7190  0.3338 -0.3007
 1795SOL    HW2 6946   4.976  -0.037   1.155  0.5638  0.6793 -0.3756
 1795SOL    HW3 6947   5.109  -0.063   1.221 -0.1348 -0.3753  0.6503
 1795SOL    MW4 6948   5.042  -0.010   1.204  0.5859  0.2858 -0.1851
 1796SOL     OW 6949   0.321   3.323   0.913 -0.0881  0.2643  0.4611
 1796SOL    HW2 6950   0.264   3.249   0.894 -1.7079  1.2148  1.3324
 1796SOL    HW3 6951   0.405   3.300   0.874  0.6060 -3.6212  3.6269
 1796SOL    MW4 6952   0.324   3.310   0.906 -0.2102 -0.1230  0.9938
 1797SOL     OW 6953   3.125   3.978   4.659 -0.3565  0.0397  0.0851
 1797SOL    HW2 6954   3.203   3.923   4.665  0.4854  1.2670  0.8313
 1797SOL    HW3 6955   3.082   3.950   4.578  2.4429  1.3277 -2.0135
 1797SOL    MW4 6956   3.130   3.967   4.649  0.1239  0.3715 -0.0933
 1798SOL     OW 6957   3.570   5.075   3.065  0.6249 -0.2645  0.2319
 1798SOL    HW2 6958   3.486   5.061   3.109 -0.0372 -0.5122 -1.0460
 1798SOL    HW3 6959   3.590   5.168   3.079 -0.6006  0.1569 -0.6565
 1798SOL    MW4 6960   3.561   5.085   3.073  0.3759 -0.2416 -0.0539
 1799SOL     OW 6961   1.676   3.521   4.638  0.2991 -0.0478 -0.3936
 1799SOL    HW2 6962   1.620   3.531   4.561  0.8102 -0.4397 -0.8238
 1799SOL    HW3 6963   1.762   3.499   4.603  1.1329  2.1033  0.1669
 1799SOL    MW4 6964   1.680   3.519   4.623  0.4766  0.1843 -0.3764
 1800SOL     OW 6965   4.606   5.358   2.393  0.1807 -0.3197 -0.5875
 1800SOL    HW2 6966   4.564   5.305   2.325  0.3892 -0.8238 -0.3286
 1800SOL    HW3 6967   4.608   5.302   2.470 -1.7624  0.9131  0.4125
 1800SOL    MW4 6968   4.601   5.344   2.394 -0.0482 -0.2235 -0.4214
 1801SOL     OW 6969   4.687   2.594   2.650  0.1669 -0.3744 -0.2844
 1801SOL    HW2 6970   4.757   2.659   2.641 -0.7091  0.5603 -0.4934
 1801SOL    HW3 6971   4.609   2.638   2.617 -1.5278  0.2299  3.9561
 1801SOL    MW4 6972   4.686   2.609   2.644 -0.1723 -0.1713  0.2475
 1802SOL     OW 6973   5.078   1.421   2.185 -0.1134  0.7431  0.4039
 1802SOL    HW2 6974   5.141   1.379   2.244  1.4637  2.1146 -0.2474
 1802SOL    HW3 6975   5.119   1.504   2.161 -1.1543  0.6678 -1.8423
 1802SOL    MW4 6976   5.092   1.426   2.190 -0.0426  0.9142  0.0216
 1803SOL     OW 6977   2.730   3.764   5.565 -0.3208  0.4221 -0.5792
 1803SOL    HW2 6978   2.751   3.835   5.626 -0.9462  0.0274  0.1246
 1803SOL    HW3 6979   2.638   3.778   5.543 -1.0181 -1.1965  1.0425
 1803SOL    MW4 6980   2.721   3.775   5.570 -0.4953  0.1564 -0.2724
 1804SOL     OW 6981   1.015   1.747   2.258 -0.5079 -0.1235  0.8686
 1804SOL    HW2 6982   0.942   1.709   2.306 -0.5368  0.0851  0.9914
 1804SOL    HW3 6983   1.001   1.721   2.168 -0.6841 -0.1601  0.9070
 1804SOL    MW4 6984   1.004   1.739   2.253 -0.5350 -0.1008  0.8899
 1805SOL     OW 6985   5.943   4.611   4.412 -0.3607  0.2924  0.1543
 1805SOL    HW2 6986   5.887   4.559   4.355 -0.6290 -1.7940  2.1504
 1805SOL    HW3 6987   6.031   4.579   4.395 -0.2587  0.7231 -0.1359
 1805SOL    MW4 6988   5.947   4.600   4.402 -0.3827  0.0739  0.3794
 1806SOL     OW 6989   0.815   1.541   1.243 -0.2902  0.2077  0.1813
 1806SOL    HW2 6990   0.848   1.501   1.323  0.5409  2.5310  1.0552
 1806SOL    HW3 6991   0.893   1.571   1.197 -0.8704  0.4766 -0.6546
 1806SOL    MW4 6992   0.830   1.540   1.247 -0.2571  0.5497  0.1863
 1807SOL     OW 6993   6.365   2.998   3.440  0.5638  0.8663 -0.3918
 1807SOL    HW2 6994   6.430   3.000   3.510  0.4156 -0.4592 -0.1983
 1807SOL    HW3 6995   6.351   2.905   3.422 -0.2204  1.1615 -1.4233
 1807SOL    MW4 6996   6.372   2.986   3.447  0.4408  0.7304 -0.5024
 1808SOL     OW 6997   0.112   3.514   1.023  0.7439  0.2251 -0.3988
 1808SOL    HW2 6998   0.047   3.449   1.051  1.1702 -0.1618 -0.2905
 1808SOL    HW3 6999   0.176   3.465   0.971  1.3980  0.4311  0.1848
 1808SOL    MW4 7000   0.112   3.499   1.020  0.8865  0.2012 -0.3075
 1809SOL     OW 7001   4.730   6.235   0.350 -0.1165 -0.0501  1.3158
 1809SOL    HW2 7002   4.699   6.288   0.423 -2.7521  1.9584 -1.0354
 1809SOL    HW3 7003   4.803   6.284   0.313  0.0241 -0.1122  1.5117
 1809SOL    MW4 7004   4.735   6.248   0.354 -0.4457  0.2067  1.0314
 1810SOL     OW 7005   2.117   3.061   2.973  0.0586 -0.4085  0.0230
 1810SOL    HW2 7006   2.111   3.018   3.059  0.2430  3.1170  2.0015
 1810SOL    HW3 7007   2.178   3.133   2.987  0.5052 -0.0079 -3.2824
 1810SOL    MW4 7008   2.124   3.065   2.986  0.1419  0.1095 -0.1521
 1811SOL     OW 7009   4.261   1.933   2.692  0.2117 -0.4161 -0.8195
 1811SOL    HW2 7010   4.264   1.844   2.729 -0.5972 -0.6867 -1.3635
 1811SOL    HW3 7011   4.306   1.987   2.756 -2.4056 -0.5938  1.3669
 1811SOL    MW4 7012   4.267   1.928   2.705 -0.2403 -0.4752 -0.6028
 1812SOL     OW 7013   0.943   6.087   4.059 -0.8071 -0.1026 -1.0776
 1812SOL    HW2 7014   0.901   6.037   4.130 -0.4358  0.6590 -0.2984
 1812SOL    HW3 7015   1.036   6.064   4.065 -0.9303 -0.9255 -2.0812
 1812SOL    MW4 7016   0.950   6.077   4.069 -0.7743 -0.1107 -1.1072
 1813SOL     OW 7017   0.439   3.008   5.455  0.0615 -0.3530 -0.1157
 1813SOL    HW2 7018   0.486   2.951   5.395 -0.2602  1.3717 -2.1161
 1813SOL    HW3 7019   0.407   3.080   5.400 -1.5463  0.5505  1.8640
 1813SOL    MW4 7020   0.441   3.010   5.440 -0.1931 -0.0062 -0.1185
 1814SOL     OW 7021   4.787   3.575   5.666 -0.3084 -0.2580  0.5243
 1814SOL    HW2 7022   4.881   3.565   5.685  0.8612  3.4896 -2.2540
 1814SOL    HW3 7023   4.778   3.547   5.575 -2.0076 -0.7587  0.8159
 1814SOL    MW4 7024   4.798   3.570   5.657 -0.3782  0.1704  0.1962
 1815SOL     OW 7025   1.330   2.256   6.389 -0.7552  0.0618  0.0708
 1815SOL    HW2 7026   1.352   2.300   6.308 -0.2539 -1.4443 -0.6590
 1815SOL    HW3 7027   1.235   2.258   6.393 -0.7982 -0.1730 -0.7461
 1815SOL    MW4 7028   1.321   2.262   6.379 -0.6948 -0.1679 -0.1333
 1816SOL     OW 7029   4.434   2.384   3.210  0.6516  0.6932  0.1009
 1816SOL    HW2 7030   4.431   2.425   3.296 -2.5656  0.3324  0.2646
 1816SOL    HW3 7031   4.405   2.453   3.150  1.0045  0.3737 -0.4500
 1816SOL    MW4 7032   4.430   2.399   3.213  0.2737  0.6034  0.0498
 1817SOL     OW 7033   1.463   4.044   1.887  0.1360 -0.3049  0.0848
 1817SOL    HW2 7034   1.478   4.136   1.867  0.1887 -0.1774  0.7159
 1817SOL    HW3 7035   1.497   3.997   1.810  0.2148  0.1883 -0.1828
 1817SOL    MW4 7036   1.469   4.050   1.874  0.1533 -0.2230  0.1328
 1818SOL     OW 7037   1.989   0.208   3.017  0.4726  0.6009  0.2264
 1818SOL    HW2 7038   1.894   0.219   3.020  0.6025  1.6660  1.0659
 1818SOL    HW3 7039   2.021   0.292   2.983  1.0936  0.0525 -0.5809
 1818SOL    MW4 7040   1.980   0.220   3.013  0.5717  0.6690  0.2306
 1819SOL     OW 7041   4.866   2.807   1.462  0.3721 -0.0094  0.3561
 1819SOL    HW2 7042   4.925   2.849   1.524 -0.4943  1.7697  0.0597
 1819SOL    HW3 7043   4.780   2.843   1.483 -0.2042 -0.6269 -0.8096
 1819SOL    MW4 7044   4.862   2.817   1.473  0.1817  0.1438  0.1632
 1820SOL     OW 7045   1.776   0.651   1.729 -0.0769 -0.2416 -0.2977
 1820SOL    HW2 7046   1.700   0.689   1.685  0.3771  2.0768  0.7459
 1820SOL    HW3 7047   1.792   0.710   1.803  1.5580 -1.7858  0.6434
 1820SOL    MW4 7048   1.768   0.664   1.733  0.1987 -0.1394 -0.0359
 1821SOL     OW 7049   6.285   4.416   5.259  0.0793 -0.0926  0.5685
 1821SOL    HW2 7050   6.213   4.470   5.227 -0.0341 -1.3682 -1.5388
 1821SOL    HW3 7051   6.360   4.442   5.206  0.0548 -1.8287 -0.4008
 1821SOL    MW4 7052   6.285   4.426   5.248  0.0611 -0.4900  0.1626
 1822SOL     OW 7053   2.618   2.149   5.613 -0.4218  0.3891  0.3255
 1822SOL    HW2 7054   2.592   2.237   5.639  1.3351  1.3567 -0.9816
 1822SOL    HW3 7055   2.714   2.149   5.620 -0.1700 -0.5137 -2.1948
 1822SOL    MW4 7056   2.627   2.160   5.617 -0.1568  0.3976 -0.1795
 1823SOL     OW 7057   3.305   4.932   2.893  0.4332 -0.5209 -0.4638
 1823SOL    HW2 7058   3.302   4.956   2.985  0.2741 -0.3292 -0.5164
 1823SOL    HW3 7059   3.361   4.999   2.853  0.9309 -0.9011 -0.4217
 1823SOL    MW4 7060   3.312   4.944   2.900  0.4779 -0.5458 -0.4652
 1824SOL     OW 7061   4.458   0.806   5.169  0.7984 -0.3293 -0.4639
 1824SOL    HW2 7062   4.529   0.869   5.177  0.4578 -0.0066  0.0624
 1824SOL    HW3 7063   4.394   0.832   5.235  1.1213 -1.8516  0.4958
 1824SOL    MW4 7064   4.459   0.818   5.179  0.7961 -0.4876 -0.2678
 1825SOL     OW 7065   3.337   3.312   3.205 -0.2097  0.0037 -0.0388
 1825SOL    HW2 7066   3.384   3.294   3.123 -0.8876  0.8955 -0.6444
 1825SOL    HW3 7067   3.251   3.343   3.177 -0.3828  0.5166  1.0119
 1825SOL    MW4 7068   3.332   3.314   3.190 -0.3220  0.1890  0.0200
 1826SOL     OW 7069   6.330   1.928   3.004 -0.1811  0.1024 -0.4898
 1826SOL    HW2 7070   6.286   2.007   2.974 -1.8591 -0.1158  1.1934
 1826SOL    HW3 7071   6.377   1.955   3.083 -0.4255 -0.4809 -0.1345
 1826SOL    MW4 7072   6.330   1.942   3.010 -0.4347 -0.0033 -0.2208
 1827SOL     OW 7073   4.620   2.834   2.445  0.0530 -0.3598 -0.0960
 1827SOL    HW2 7074   4.625   2.929   2.445  1.1326 -0.3968 -1.2500
 1827SOL    HW3 7075   4.691   2.806   2.502 -0.2187 -0.4925  0.1862
 1827SOL    MW4 7076   4.630   2.843   2.453  0.1596 -0.3822 -0.2110
 1828SOL     OW 7077   5.602   4.089   3.101 -0.4244  0.1212  0.0343
 1828SOL    HW2 7078   5.672   4.023   3.099  1.9042  2.3653  1.4904
 1828SOL    HW3 7079   5.617   4.142   3.023 -1.4217 -0.2069 -0.3926
 1828SOL    MW4 7080   5.614   4.087   3.091 -0.2487  0.3740  0.1701
 1829SOL     OW 7081   0.583   4.098   3.930  0.1435 -0.2578  0.3740
 1829SOL    HW2 7082   0.666   4.106   3.977 -0.9016 -1.6815  2.6012
 1829SOL    HW3 7083   0.527   4.167   3.967  0.1640  0.4731 -0.8719
 1829SOL    MW4 7084   0.586   4.108   3.941  0.0083 -0.3492  0.5035
 1830SOL     OW 7085   1.105   3.688   1.703  0.0709  0.0336 -0.2550
 1830SOL    HW2 7086   1.073   3.641   1.780 -1.9709  1.2241 -0.2931
 1830SOL    HW3 7087   1.103   3.623   1.632  0.3731 -0.6255  0.3292
 1830SOL    MW4 7088   1.101   3.673   1.704 -0.1586  0.1037 -0.1829
 1831SOL     OW 7089   2.888   4.827   6.396 -0.0076  0.4384 -0.1016
 1831SOL    HW2 7090   2.794   4.831   6.382  0.2331  0.2079 -2.1597
 1831SOL    HW3 7091   2.925   4.812   6.308  1.7863 -1.9432  0.9302
 1831SOL    MW4 7092   2.881   4.825   6.382  0.2608  0.0938 -0.2370
 1832SOL     OW 7093   4.693   4.073   1.527 -0.3673  0.3098  0.2476
 1832SOL    HW2 7094   4.741   3.993   1.550 -1.1499 -0.3044 -0.1977
 1832SOL    HW3 7095   4.685   4.121   1.610 -0.9695 -0.6691  0.7709
 1832SOL    MW4 7096   4.698   4.069   1.541 -0.5500  0.0996  0.2579
 1833SOL     OW 7097   1.161   3.637   2.285 -0.0548 -0.0384  0.2533
 1833SOL    HW2 7098   1.255   3.622   2.289 -0.3064 -1.4015  2.4850
 1833SOL    HW3 7099   1.143   3.703   2.352 -0.3232  3.1321 -2.6644
 1833SOL    MW4 7100   1.171   3.643   2.294 -0.1234  0.2001  0.1628
 1834SOL     OW 7101   3.974   5.306   2.476  0.2586 -0.0579 -0.2842
 1834SOL    HW2 7102   3.904   5.339   2.533 -0.0140 -2.6463  1.0178
 1834SOL    HW3 7103   4.055   5.339   2.516 -0.0687  1.0011 -0.4459
 1834SOL    MW4 7104   3.975   5.315   2.489  0.1795 -0.2597 -0.1338
 1835SOL     OW 7105   6.366   4.727   5.367 -0.1455 -0.1004  0.2226
 1835SOL    HW2 7106   6.313   4.778   5.428 -0.3485 -0.9607  0.7912
 1835SOL    HW3 7107   6.324   4.739   5.282  0.1311  1.1023  0.2385
 1835SOL    MW4 7108   6.354   4.735   5.364 -0.1358 -0.0553  0.2997
 1836SOL     OW 7109   3.470   1.429   0.060  0.3449 -0.3347 -0.5519
 1836SOL    HW2 7110   3.512   1.512   0.080  1.7573 -1.3619  1.0082
 1836SOL    HW3 7111   3.393   1.427   0.118  1.0100 -0.6308  0.3459
 1836SOL    MW4 7112   3.465   1.440   0.071  0.6190 -0.5093 -0.2276
 1837SOL     OW 7113   0.088   3.917   4.269  0.4245 -0.1780  0.4110
 1837SOL    HW2 7114   0.081   4.009   4.293 -1.4119  0.5855 -2.5292
 1837SOL    HW3 7115   0.163   3.914   4.209 -0.9099 -0.0482 -1.3440
 1837SOL    MW4 7116   0.097   3.929   4.264  0.0062 -0.0601 -0.2085
 1838SOL     OW 7117   3.171   4.496   6.199 -0.2433 -0.5035  0.5196
 1838SOL    HW2 7118   3.166   4.528   6.289  0.0316  0.8278  0.0806
 1838SOL    HW3 7119   3.147   4.572   6.145  0.6635 -0.9700 -0.5750
 1838SOL    MW4 7120   3.167   4.510   6.204 -0.0874 -0.3894  0.3173
 1839SOL     OW 7121   6.065   6.176   3.596 -0.2087 -0.0465 -0.0064
 1839SOL    HW2 7122   6.074   6.099   3.652 -0.3791 -0.0992 -0.0493
 1839SOL    HW3 7123   6.146   6.225   3.608 -0.7343  0.5632  1.2163
 1839SOL    MW4 7124   6.077   6.172   3.605 -0.3005  0.0270  0.1493
 1840SOL     OW 7125   6.296   5.081   0.234  0.0895  0.2551  0.3296
 1840SOL    HW2 7126   6.353   5.093   0.310 -0.4359 -3.6834  1.5755
 1840SOL    HW3 7127   6.354   5.095   0.159  2.3668 -1.7637  1.5545
 1840SOL    MW4 7128   6.312   5.084   0.234  0.3206 -0.5309  0.6556
 1841SOL     OW 7129   3.722   0.640   0.886  0.3237 -0.0415  0.3500
 1841SOL    HW2 7130   3.706   0.690   0.966  0.7493 -1.8429  1.6131
 1841SOL    HW3 7131   3.688   0.696   0.816 -0.7195  1.2720  1.8366
 1841SOL    MW4 7132   3.716   0.654   0.887  0.2422 -0.1059  0.7128
 1842SOL     OW 7133   3.241   1.363   1.075  0.4292  0.4750 -0.0848
 1842SOL    HW2 7134   3.273   1.294   1.132  0.6611  0.7407  0.1102
 1842SOL    HW3 7135   3.319   1.414   1.053  0.3204  0.4536 -0.5316
 1842SOL    MW4 7136   3.255   1.361   1.080  0.4454  0.5072 -0.1180
 1843SOL     OW 7137   2.273   1.881   2.767  0.5961 -0.4964 -0.3451
 1843SOL    HW2 7138   2.247   1.852   2.680  0.5128 -0.7777 -0.2265
 1843SOL    HW3 7139   2.225   1.825   2.828 -0.1886  0.4209 -0.0998
 1843SOL    MW4 7140   2.263   1.870   2.764  0.4815 -0.4125 -0.2971
 1844SOL     OW 7141   4.387   5.999   5.241  0.0527  0.2008  0.0406
 1844SOL    HW2 7142   4.310   5.966   5.196 -0.4378  0.1526  0.9042
 1844SOL    HW3 7143   4.357   6.021   5.329  0.9191  0.6158  0.2497
 1844SOL    MW4 7144   4.373   5.998   5.247  0.1023  0.2492  0.1821
 1845SOL     OW 7145   0.903   2.879   0.489 -0.0029  0.3202 -0.0775
 1845SOL    HW2 7146   0.887   2.906   0.580 -2.9376  0.8158 -0.6536
 1845SOL    HW3 7147   0.913   2.784   0.493  1.2836  0.4694  0.8913
 1845SOL    MW4 7148   0.902   2.870   0.502 -0.2204  0.4053 -0.0257
 1846SOL     OW 7149   5.084   3.553   5.724 -0.1395 -0.7590 -0.1163
 1846SOL    HW2 7150   5.119   3.570   5.636 -2.7360 -1.0950 -1.3162
 1846SOL    HW3 7151   5.077   3.458   5.730  0.7545 -0.7820  0.7969
 1846SOL    MW4 7152   5.087   3.543   5.713 -0.3641 -0.8064 -0.1541
 1847SOL     OW 7153   2.504   5.173   3.987 -0.7278 -0.0536  0.2748
 1847SOL    HW2 7154   2.579   5.210   3.941 -0.2384  0.0004  1.0860
 1847SOL    HW3 7155   2.436   5.163   3.920  0.2753 -0.8803 -0.6612
 1847SOL    MW4 7156   2.505   5.176   3.972 -0.5309 -0.1556  0.2584
 1848SOL     OW 7157   2.018   3.797   2.534 -0.0778 -0.1725  0.5517
 1848SOL    HW2 7158   1.939   3.830   2.491 -0.3807 -1.1078  0.3672
 1848SOL    HW3 7159   1.986   3.743   2.606  0.3870  2.6565  3.1250
 1848SOL    MW4 7160   2.004   3.794   2.538 -0.0564  0.0773  0.8669
 1849SOL     OW 7161   5.041   0.634   6.026  0.0587  0.0142 -0.9010
 1849SOL    HW2 7162   4.958   0.671   5.995 -0.0814  0.9333  0.4504
 1849SOL    HW3 7163   5.098   0.636   5.950 -0.9406  0.0382 -1.6733
 1849SOL    MW4 7164   5.037   0.639   6.012 -0.0916  0.1387 -0.8246
 1850SOL     OW 7165   3.875   2.998   1.222  0.0287  0.4365  0.2456
 1850SOL    HW2 7166   3.799   3.056   1.230 -1.0701 -0.9668  0.2343
 1850SOL    HW3 7167   3.919   3.005   1.307 -1.3567 -0.4077  1.0706
 1850SOL    MW4 7168   3.871   3.007   1.234 -0.2990  0.1400  0.3530
 1851SOL     OW 7169   4.703   4.591   4.923  0.0148 -0.0233 -0.3012
 1851SOL    HW2 7170   4.745   4.548   4.997 -0.6413  1.8924  1.2755
 1851SOL    HW3 7171   4.657   4.521   4.877 -0.9894 -1.0539  2.1147
 1851SOL    MW4 7172   4.703   4.576   4.927 -0.2042  0.0935  0.2256
 1852SOL     OW 7173   5.109   3.577   3.356 -0.4911  0.3798 -0.5612
 1852SOL    HW2 7174   5.185   3.525   3.329 -0.1759  0.7494 -0.4020
 1852SOL    HW3 7175   5.109   3.653   3.298 -0.1676  0.8675  0.0544
 1852SOL    MW4 7176   5.119   3.580   3.345 -0.4068  0.4929 -0.4590
 1853SOL     OW 7177   3.300   0.816   0.661 -0.1734  0.0733  0.2991
 1853SOL    HW2 7178   3.213   0.777   0.663 -0.5212  0.8224  2.4594
 1853SOL    HW3 7179   3.285   0.910   0.674  0.9784  0.1040  1.6747
 1853SOL    MW4 7180   3.287   0.824   0.663 -0.0673  0.1762  0.7656
 1854SOL     OW 7181   6.237   4.502   5.633 -0.2872  0.4253  0.7689
 1854SOL    HW2 7182   6.281   4.572   5.682 -1.2365  1.2346  0.4889
 1854SOL    HW3 7183   6.196   4.448   5.700  4.2139 -2.7398  1.4734
 1854SOL    MW4 7184   6.238   4.504   5.648  0.1814  0.1145  0.8249
 1855SOL     OW 7185   2.723   6.172   0.221 -0.6047  0.5125 -0.2159
 1855SOL    HW2 7186   2.815   6.146   0.226 -0.6930 -0.0182 -1.1254
 1855SOL    HW3 7187   2.726   6.265   0.199 -0.2875  1.3045  2.7771
 1855SOL    MW4 7188   2.736   6.181   0.219 -0.5745  0.5470  0.0590
 1856SOL     OW 7189   1.474  -0.001   0.359 -0.0947 -0.0300  0.3085
 1856SOL    HW2 7190   1.417   0.039   0.424 -1.5726 -0.7416 -0.4756
 1856SOL    HW3 7191   1.557  -0.014   0.404 -0.3011  1.7345  1.2689
 1856SOL    MW4 7192   1.477   0.002   0.373 -0.3169  0.1089  0.3318
 1857SOL     OW 7193   3.977   4.232   5.355  0.0023 -0.2492  0.5290
 1857SOL    HW2 7194   4.060   4.219   5.402 -0.7543 -2.2430  1.4298
 1857SOL    HW3 7195   3.963   4.151   5.307 -0.4652  0.8366 -1.2712
 1857SOL    MW4 7196   3.986   4.220   5.355 -0.1592 -0.3690  0.4103
 1858SOL     OW 7197   6.292   1.867   2.242 -0.5218 -0.1628  0.1523
 1858SOL    HW2 7198   6.279   1.940   2.302  0.9489 -1.0980  1.6996
 1858SOL    HW3 7199   6.209   1.818   2.245 -0.3814 -0.3647  1.7149
 1858SOL    MW4 7200   6.279   1.870   2.250 -0.3092 -0.3128  0.5626
 1859SOL     OW 7201   5.803   6.286   1.208  0.2280 -0.2038 -0.4464
 1859SOL    HW2 7202   5.730   6.271   1.268  0.3214  1.4231  0.1320
 1859SOL    HW3 7203   5.763   6.314   1.126  0.1858  0.2781 -0.2616
 1859SOL    MW4 7204   5.788   6.288   1.205  0.2348  0.0744 -0.3457
 1860SOL     OW 7205   4.904   3.841   0.031  0.2876  0.1739  0.3109
 1860SOL    HW2 7206   4.939   3.793  -0.044 -0.8823  0.7978 -0.6915
 1860SOL    HW3 7207   4.847   3.778   0.075  1.0731 -0.2319  0.7683
 1860SOL    MW4 7208   4.901   3.827   0.026  0.2369  0.2027  0.2390
 1861SOL     OW 7209   3.802   5.721   5.775  0.5674  0.5911  0.1407
 1861SOL    HW2 7210   3.782   5.709   5.682  1.7939 -0.8524  0.0344
 1861SOL    HW3 7211   3.726   5.768   5.810 -0.1446  0.7012 -1.4759
 1861SOL    MW4 7212   3.789   5.726   5.767  0.6353  0.4152 -0.0866
 1862SOL     OW 7213   1.216   5.656   3.602 -0.2766 -0.0335  0.0123
 1862SOL    HW2 7214   1.240   5.629   3.514 -1.9127 -0.8506 -0.2117
 1862SOL    HW3 7215   1.196   5.750   3.594  0.0603  0.0097 -0.3582
 1862SOL    MW4 7216   1.217   5.665   3.589 -0.4480 -0.1356 -0.0662
 1863SOL     OW 7217   3.078   3.091   2.209 -0.2083 -0.0804 -0.0752
 1863SOL    HW2 7218   2.990   3.057   2.226 -0.0034 -0.5029  0.1376
 1863SOL    HW3 7219   3.128   3.015   2.180 -0.3583  0.4517 -1.9203
 1863SOL    MW4 7220   3.073   3.077   2.207 -0.2010 -0.0659 -0.2906
 1864SOL     OW 7221   3.247   2.233   5.533 -0.3367 -0.3616 -0.1343
 1864SOL    HW2 7222   3.195   2.241   5.613  0.1288 -0.5576  0.1952
 1864SOL    HW3 7223   3.209   2.160   5.486 -0.5707 -0.2882 -0.0598
 1864SOL    MW4 7224   3.235   2.225   5.537 -0.3061 -0.3778 -0.0810
 1865SOL     OW 7225   1.715   6.368   0.477  0.0120  0.4326  0.4202
 1865SOL    HW2 7226   1.734   6.280   0.508 -0.8709 -0.3196 -1.0407
 1865SOL    HW3 7227   1.765   6.375   0.395 -0.3225  1.1075  0.2708
 1865SOL    MW4 7228   1.724   6.357   0.470 -0.1486  0.4224  0.2078
 1866SOL     OW 7229   4.059   1.733   4.122  0.4132  0.3031  0.1350
 1866SOL    HW2 7230   4.140   1.723   4.171  0.2757 -3.8377 -0.1422
 1866SOL    HW3 7231   3.990   1.730   4.188  0.3869 -0.1799  0.0898
 1866SOL    MW4 7232   4.060   1.732   4.137  0.3916 -0.3069  0.0925
 1867SOL     OW 7233   0.680   1.774   3.304 -0.5091  0.2310  0.3670
 1867SOL    HW2 7234   0.684   1.849   3.244 -0.8887  0.3839  0.5314
 1867SOL    HW3 7235   0.587   1.753   3.310 -0.5361  0.5661  1.3276
 1867SOL    MW4 7236   0.668   1.781   3.297 -0.5627  0.2954  0.5154
 1868SOL     OW 7237   0.025   0.314   2.701  0.7883  0.3636  0.0542
 1868SOL    HW2 7238   0.024   0.317   2.797 -1.5230  0.3038  0.0817
 1868SOL    HW3 7239   0.056   0.401   2.675  1.2349  0.4527  0.8398
 1868SOL    MW4 7240   0.029   0.326   2.710  0.5423  0.3675  0.1615
 1869SOL     OW 7241   2.190   3.505   4.754 -0.1529  0.1301 -0.2913
 1869SOL    HW2 7242   2.180   3.534   4.845 -1.1791 -0.1830 -0.2810
 1869SOL    HW3 7243   2.281   3.475   4.748  0.4835  1.8802  0.0991
 1869SOL    MW4 7244   2.200   3.505   4.765 -0.2043  0.3197 -0.2384
 1870SOL     OW 7245   0.734   1.190   1.462  0.5104 -0.4972 -0.2253
 1870SOL    HW2 7246   0.691   1.221   1.382 -1.4429  0.0769  0.9728
 1870SOL    HW3 7247   0.663   1.172   1.523  1.9274 -0.9651  1.3949
 1870SOL    MW4 7248   0.719   1.192   1.460  0.4397 -0.4832  0.1465
 1871SOL     OW 7249   1.222   5.706   4.543 -0.4096  0.4944 -0.6678
 1871SOL    HW2 7250   1.299   5.710   4.599 -0.5805  1.0424 -0.4594
 1871SOL    HW3 7251   1.223   5.789   4.495 -1.2889  0.8657 -0.0814
 1871SOL    MW4 7252   1.232   5.718   4.544 -0.5482  0.6157 -0.5629
 1872SOL     OW 7253   5.548   4.778   1.410  0.1133  0.2173  0.5582
 1872SOL    HW2 7254   5.589   4.720   1.346  0.0573  0.5465  0.2164
 1872SOL    HW3 7255   5.570   4.866   1.379 -0.7467  0.4012  0.4286
 1872SOL    MW4 7256   5.556   4.782   1.397 -0.0076  0.2850  0.4960
 1873SOL     OW 7257   4.780   0.908   1.081  0.3313  0.1153  0.0765
 1873SOL    HW2 7258   4.769   0.997   1.113  1.8776  0.3633 -0.0039
 1873SOL    HW3 7259   4.795   0.918   0.987 -1.0267 -0.3757 -0.2244
 1873SOL    MW4 7260   4.780   0.921   1.073  0.3561  0.0832  0.0262
 1874SOL     OW 7261   5.983   4.118   1.759 -0.3227  0.5228  0.3179
 1874SOL    HW2 7262   5.918   4.188   1.767 -0.5812  0.2891  0.2701
 1874SOL    HW3 7263   6.067   4.164   1.758 -0.4220  0.7712  1.4059
 1874SOL    MW4 7264   5.985   4.134   1.760 -0.3699  0.5248  0.4551
 1875SOL     OW 7265   1.353   1.447   1.525  0.1843 -0.3619  0.3843
 1875SOL    HW2 7266   1.268   1.491   1.515  0.6451  0.6412  0.6884
 1875SOL    HW3 7267   1.334   1.369   1.577 -0.4781  0.1114  0.8685
 1875SOL    MW4 7268   1.339   1.443   1.530  0.1577 -0.1671  0.4883
 1876SOL     OW 7269   3.413   2.228   4.725  0.3925  0.1950 -0.3378
 1876SOL    HW2 7270   3.415   2.272   4.639 -0.9842  1.0360  0.0402
 1876SOL    HW3 7271   3.431   2.136   4.705  1.9169  0.6669 -1.3134
 1876SOL    MW4 7272   3.416   2.222   4.711  0.4120  0.3682 -0.4166
 1877SOL     OW 7273   5.965  -0.001   0.703  0.0028  0.0580 -0.2731
 1877SOL    HW2 7274   5.967   0.023   0.796 -0.0950 -3.3761  0.7846
 1877SOL    HW3 7275   6.017   0.066   0.659 -0.4307  2.1304  2.1549
 1877SOL    MW4 7276   5.972   0.011   0.710 -0.0673 -0.1216  0.1868
 1878SOL     OW 7277   3.232   4.540   4.755 -0.0167  0.2719  0.3080
 1878SOL    HW2 7278   3.310   4.594   4.757 -0.4440  1.0122 -1.1273
 1878SOL    HW3 7279   3.226   4.510   4.664 -0.2444 -1.5444  0.8646
 1878SOL    MW4 7280   3.241   4.543   4.743 -0.1031  0.1300  0.1921
 1879SOL     OW 7281   3.001   3.167   5.347 -0.1817  0.0312 -0.4980
 1879SOL    HW2 7282   3.045   3.083   5.364  0.6730  0.6670  0.5732
 1879SOL    HW3 7283   3.045   3.229   5.405 -2.0730  0.8578  0.1344
 1879SOL    MW4 7284   3.013   3.164   5.357 -0.3185  0.2241 -0.2732
 1880SOL     OW 7285   0.444   3.940   0.746 -0.3106 -0.5570  0.0853
 1880SOL    HW2 7286   0.371   3.886   0.774 -1.8387  1.0592 -0.5660
 1880SOL    HW3 7287   0.436   3.946   0.651  0.5629 -0.2032  0.0181
 1880SOL    MW4 7288   0.434   3.934   0.737 -0.3970 -0.2971 -0.0095
 1881SOL     OW 7289   3.895   1.206   1.469 -0.5886  0.0855  0.0733
 1881SOL    HW2 7290   3.823   1.174   1.414 -2.5572  2.6381  0.9802
 1881SOL    HW3 7291   3.881   1.301   1.474  1.2074  0.3123  2.5958
 1881SOL    MW4 7292   3.883   1.214   1.462 -0.6113  0.4522  0.5258
 1882SOL     OW 7293   0.824   6.236   5.797 -0.1361  0.5839  0.0014
 1882SOL    HW2 7294   0.860   6.177   5.731 -0.8254 -0.1229  0.2475
 1882SOL    HW3 7295   0.892   6.303   5.808  0.5366  0.0055 -0.4891
 1882SOL    MW4 7296   0.838   6.237   5.790 -0.1383  0.4143 -0.0309
 1883SOL     OW 7297   1.370   4.180   2.844  0.1212  0.2167  0.0692
 1883SOL    HW2 7298   1.444   4.240   2.831 -0.3392  0.4804 -1.5932
 1883SOL    HW3 7299   1.395   4.128   2.920  1.4283  1.1757  0.3437
 1883SOL    MW4 7300   1.383   4.181   2.852  0.2329  0.3780 -0.1139
 1884SOL     OW 7301   6.275   5.684   1.861  0.4077 -0.1523 -0.2352
 1884SOL    HW2 7302   6.288   5.614   1.925  1.6198 -0.0203 -0.3051
 1884SOL    HW3 7303   6.275   5.764   1.914  0.3324 -0.1148 -0.2921
 1884SOL    MW4 7304   6.277   5.686   1.877  0.5577 -0.1299 -0.2519
 1885SOL     OW 7305   2.901   0.669   3.486 -0.2333  0.2028  0.6506
 1885SOL    HW2 7306   2.882   0.627   3.570 -0.8388 -0.5481  0.1594
 1885SOL    HW3 7307   2.831   0.733   3.474  0.3580  0.9457  1.1272
 1885SOL    MW4 7308   2.889   0.672   3.496 -0.2352  0.2017  0.6487
 1886SOL     OW 7309   5.560   1.714   4.264 -0.3469  0.3894  0.0052
 1886SOL    HW2 7310   5.482   1.688   4.313  1.1230  1.1550  3.0123
 1886SOL    HW3 7311   5.622   1.642   4.278  0.4866  1.1379  0.2782
 1886SOL    MW4 7312   5.558   1.701   4.273 -0.0430  0.5892  0.4379
 1887SOL     OW 7313   2.731   4.075   1.379  0.6317  0.1258 -0.7353
 1887SOL    HW2 7314   2.811   4.023   1.380  0.5107 -0.0673 -0.8031
 1887SOL    HW3 7315   2.758   4.163   1.403  0.3898 -0.6251  2.9888
 1887SOL    MW4 7316   2.745   4.080   1.382  0.5838  0.0012 -0.2529
 1888SOL     OW 7317   4.561   3.724   4.610  0.1836 -0.3036  0.3021
 1888SOL    HW2 7318   4.652   3.699   4.593  0.6057  0.8966  0.6908
 1888SOL    HW3 7319   4.524   3.740   4.523  0.0311 -1.7976  0.0793
 1888SOL    MW4 7320   4.568   3.723   4.596  0.2191 -0.3424  0.3240
 1889SOL     OW 7321   4.414   0.001   1.358 -0.2229  0.1619 -0.1441
 1889SOL    HW2 7322   4.380   0.046   1.280 -1.2952  0.4182  0.4558
 1889SOL    HW3 7323   4.376  -0.086   1.354  1.3657 -0.5408 -0.9748
 1889SOL    MW4 7324   4.405  -0.004   1.347 -0.1548  0.1030 -0.1746
 1890SOL     OW 7325   5.160   0.850   6.364 -0.1157  0.1260  0.2344
 1890SOL    HW2 7326   5.129   0.762   6.343 -0.1859  0.6805 -2.2210
 1890SOL    HW3 7327   5.240   0.835   6.415  0.1585 -1.3809 -0.5708
 1890SOL    MW4 7328   5.166   0.837   6.368 -0.0888  0.0004 -0.1958
 1891SOL     OW 7329   3.484   1.497   2.936  0.6943 -0.3967  0.1117
 1891SOL    HW2 7330   3.497   1.422   2.995  0.1084 -0.3414  0.3120
 1891SOL    HW3 7331   3.402   1.537   2.965  1.4305  0.8474  0.5727
 1891SOL    MW4 7332   3.475   1.492   2.948  0.7141 -0.2253  0.1989
 1892SOL     OW 7333   1.732   6.100   0.208 -0.0463  0.0103 -0.0199
 1892SOL    HW2 7334   1.793   6.172   0.227 -0.0785  0.3088 -0.9983
 1892SOL    HW3 7335   1.646   6.136   0.230 -0.0080  0.0879  0.0053
 1892SOL    MW4 7336   1.729   6.114   0.214 -0.0455  0.0599 -0.1456
 1893SOL     OW 7337   3.939   0.859   0.312 -0.2838 -0.0502 -0.1504
 1893SOL    HW2 7338   4.026   0.861   0.272 -0.6718 -1.3347 -1.1007
 1893SOL    HW3 7339   3.905   0.947   0.300  0.6716  0.3172 -0.2496
 1893SOL    MW4 7340   3.946   0.871   0.305 -0.2089 -0.1712 -0.2889
 1894SOL     OW 7341   3.444   0.742   3.817 -0.0542  0.0274  0.4304
 1894SOL    HW2 7342   3.473   0.811   3.759  0.7989 -0.8506 -0.2078
 1894SOL    HW3 7343   3.478   0.661   3.779 -2.5871 -0.9844  0.1160
 1894SOL    MW4 7344   3.452   0.741   3.805 -0.2759 -0.2219  0.3047
 1895SOL     OW 7345   4.765   3.551   1.444  0.1559 -0.5817  0.1563
 1895SOL    HW2 7346   4.783   3.478   1.384  1.4195  0.4380 -0.7628
 1895SOL    HW3 7347   4.692   3.598   1.403  0.3036 -0.4973 -0.0090
 1895SOL    MW4 7348   4.757   3.548   1.431  0.3421 -0.4360  0.0132
 1896SOL     OW 7349   2.441   4.429   5.554  0.3472  0.7390  0.2427
 1896SOL    HW2 7350   2.464   4.471   5.471 -1.9905 -0.1404 -0.9343
 1896SOL    HW3 7351   2.518   4.377   5.576  1.6510  2.2905 -0.4652
 1896SOL    MW4 7352   2.454   4.428   5.546  0.2108  0.8277 -0.0060
 1897SOL     OW 7353   1.545   4.707   3.912  0.2380 -0.0536  0.0145
 1897SOL    HW2 7354   1.608   4.685   3.843  1.3057 -0.3641  1.0777
 1897SOL    HW3 7355   1.468   4.737   3.863  1.5697  1.4375 -1.3086
 1897SOL    MW4 7356   1.543   4.708   3.896  0.5546  0.1022 -0.0198
 1898SOL     OW 7357   3.184   5.336   0.847 -0.1311  0.0350  0.3216
 1898SOL    HW2 7358   3.249   5.324   0.917  0.0345  0.3577  0.2241
 1898SOL    HW3 7359   3.102   5.309   0.887  0.0026 -0.0110  0.5700
 1898SOL    MW4 7360   3.182   5.331   0.862 -0.0916  0.0715  0.3415
 1899SOL     OW 7361   5.215   3.595   1.252  0.5418  0.3903 -0.0995
 1899SOL    HW2 7362   5.159   3.624   1.324  0.5707 -0.3630  0.2285
 1899SOL    HW3 7363   5.283   3.542   1.293  1.4890  1.2592 -0.5016
 1899SOL    MW4 7364   5.217   3.592   1.267  0.6706  0.4056 -0.1093
 1900SOL     OW 7365   5.670   6.316   1.873 -0.0682  0.1869  0.3689
 1900SOL    HW2 7366   5.585   6.275   1.884 -1.0262  0.9419 -3.1158
 1900SOL    HW3 7367   5.651   6.407   1.854  1.5381  0.4317 -0.2457
 1900SOL    MW4 7368   5.656   6.322   1.872  0.0173  0.3188 -0.1720
 1901SOL     OW 7369   3.381   1.596   3.791  0.4170  0.1115 -0.0474
 1901SOL    HW2 7370   3.368   1.539   3.867  1.5362  2.7599  2.2846
 1901SOL    HW3 7371   3.314   1.567   3.728  0.6594 -3.4178  1.0876
 1901SOL    MW4 7372   3.370   1.585   3.792  0.5966 -0.0047  0.4100
 1902SOL     OW 7373   3.326   3.175   3.684 -0.9477 -0.0937  0.1308
 1902SOL    HW2 7374   3.234   3.167   3.658 -0.6164  0.4586 -1.3072
 1902SOL    HW3 7375   3.371   3.202   3.604  0.5959 -1.0764  0.6324
 1902SOL    MW4 7376   3.320   3.178   3.670 -0.7003 -0.1505  0.0073
 1903SOL     OW 7377   5.492   5.285   2.318 -0.0239 -0.0683 -0.2193
 1903SOL    HW2 7378   5.440   5.264   2.241 -0.2601  1.6786 -0.5919
 1903SOL    HW3 7379   5.429   5.289   2.390 -0.7325  3.1587 -0.8663
 1903SOL    MW4 7380   5.477   5.283   2.317 -0.1485  0.5880 -0.3538
 1904SOL     OW 7381   3.806   0.006   5.175  0.3145 -0.5266 -0.5644
 1904SOL    HW2 7382   3.821  -0.088   5.165 -0.2871 -0.6492 -0.3434
 1904SOL    HW3 7383   3.713   0.017   5.161  0.3249 -0.0063 -0.2516
 1904SOL    MW4 7384   3.796  -0.005   5.172  0.2365 -0.4741 -0.4939
 1905SOL     OW 7385   1.747   0.230   6.022 -0.3946  0.0558  0.0743
 1905SOL    HW2 7386   1.781   0.298   5.965 -1.2335  0.5943  0.1952
 1905SOL    HW3 7387   1.752   0.149   5.970 -1.0775  0.5208 -0.7400
 1905SOL    MW4 7388   1.752   0.228   6.008 -0.5954  0.1882 -0.0172
 1906SOL     OW 7389   4.541   5.184   5.591  0.0262  0.4296  0.2101
 1906SOL    HW2 7390   4.464   5.216   5.544 -1.2883  0.3726  2.2293
 1906SOL    HW3 7391   4.554   5.095   5.557 -0.3904  0.6589 -0.5912
 1906SOL    MW4 7392   4.532   5.176   5.580 -0.2022  0.4523  0.3708
 1907SOL     OW 7393   0.218   2.856   5.130  0.1599 -0.0660  0.2710
 1907SOL    HW2 7394   0.198   2.770   5.168 -2.3860 -0.5319 -1.8285
 1907SOL    HW3 7395   0.164   2.918   5.180 -1.4437 -0.3748 -0.9825
 1907SOL    MW4 7396   0.208   2.853   5.142 -0.3875 -0.1682 -0.1714
 1908SOL     OW 7397   3.349   3.560   2.617  0.8591  0.2656  0.0685
 1908SOL    HW2 7398   3.440   3.582   2.599  1.2145 -0.1521  1.2872
 1908SOL    HW3 7399   3.299   3.624   2.566  1.8279  0.6126 -0.4739
 1908SOL    MW4 7400   3.354   3.571   2.608  1.0338  0.2562  0.1578
 1909SOL     OW 7401   3.135   0.740   2.103 -0.0899  0.0530 -0.5110
 1909SOL    HW2 7402   3.163   0.758   2.193 -0.5970  0.2373 -0.3840
 1909SOL    HW3 7403   3.080   0.663   2.110 -0.5530  0.3734 -0.5845
 1909SOL    MW4 7404   3.132   0.732   2.116 -0.2179  0.1196 -0.5039
 1910SOL     OW 7405   6.336   4.008   1.454  0.0635  0.3071  0.2573
 1910SOL    HW2 7406   6.371   3.946   1.518 -1.2685  0.0363  0.7494
 1910SOL    HW3 7407   6.375   4.092   1.479 -1.3424  0.4480  2.2227
 1910SOL    MW4 7408   6.346   4.011   1.466 -0.2978  0.2900  0.5815
 1911SOL     OW 7409   4.393   2.644   2.753 -0.2694  0.3744  0.1260
 1911SOL    HW2 7410   4.386   2.563   2.702  0.2136 -0.3087  1.1311
 1911SOL    HW3 7411   4.343   2.708   2.702 -0.3302 -0.4500 -0.8807
 1911SOL    MW4 7412   4.385   2.641   2.739 -0.2137  0.1755  0.1258
 1912SOL     OW 7413   1.693   5.591   3.539 -0.0109  0.5768 -0.0389
 1912SOL    HW2 7414   1.621   5.624   3.592 -1.6474 -0.7849 -1.3090
 1912SOL    HW3 7415   1.699   5.653   3.466 -0.1012  0.5127 -0.1005
 1912SOL    MW4 7416   1.685   5.604   3.536 -0.2387  0.3887 -0.2146
 1913SOL     OW 7417   3.222   1.886   1.764  0.1622 -0.0802  0.4022
 1913SOL    HW2 7418   3.298   1.922   1.810  1.3902 -1.1214 -0.7347
 1913SOL    HW3 7419   3.203   1.950   1.696 -0.7520  0.7509  1.3957
 1913SOL    MW4 7420   3.230   1.899   1.761  0.2036 -0.1079  0.3833
 1914SOL     OW 7421   4.920   3.677   5.980  0.0716  0.0537 -0.4284
 1914SOL    HW2 7422   4.950   3.648   6.066  1.4352  1.1860 -0.4971
 1914SOL    HW3 7423   4.839   3.627   5.965  1.1018 -1.9742  0.4313
 1914SOL    MW4 7424   4.913   3.666   5.990  0.3875 -0.0644 -0.3240
 1915SOL     OW 7425   0.340   0.911   5.003 -0.3907  0.3933  0.2664
 1915SOL    HW2 7426   0.269   0.939   4.945 -1.1927 -1.8548  0.0661
 1915SOL    HW3 7427   0.420   0.921   4.951 -0.9585 -0.3228 -0.7789
 1915SOL    MW4 7428   0.341   0.916   4.988 -0.5714  0.0022  0.1021
 1916SOL     OW 7429   3.958   3.195   6.102 -0.3209 -0.1033 -0.0839
 1916SOL    HW2 7430   3.971   3.236   6.188 -0.6484  1.0116 -0.5498
 1916SOL    HW3 7431   3.887   3.244   6.062  0.0294 -0.4111 -1.1236
 1916SOL    MW4 7432   3.950   3.207   6.108 -0.3179  0.0032 -0.2825
 1917SOL     OW 7433   1.615   0.035   0.740 -0.0404 -0.4807  0.2985
 1917SOL    HW2 7434   1.670   0.039   0.662 -0.6014  1.3553 -0.0466
 1917SOL    HW3 7435   1.586  -0.056   0.744  2.6632 -1.4340  0.2797
 1917SOL    MW4 7436   1.619   0.024   0.730  0.2423 -0.3642  0.2505
 1918SOL     OW 7437   5.530   5.111   3.033 -0.0105  0.0397  0.0549
 1918SOL    HW2 7438   5.602   5.081   2.979  0.2483  0.2570  0.2767
 1918SOL    HW3 7439   5.569   5.129   3.119  0.0211  1.7880 -0.2767
 1918SOL    MW4 7440   5.545   5.110   3.037  0.0278  0.2990  0.0404
 1919SOL     OW 7441   2.535   1.381   6.350  0.4217  0.6720  0.1597
 1919SOL    HW2 7442   2.479   1.357   6.424 -0.3018 -0.2036 -0.6516
 1919SOL    HW3 7443   2.510   1.471   6.329  0.3510  0.7857  0.7052
 1919SOL    MW4 7444   2.525   1.390   6.357  0.3169  0.5715  0.1246
 1920SOL     OW 7445   2.129   0.962   1.409  0.5794 -0.4005  0.4742
 1920SOL    HW2 7446   2.195   0.908   1.452  0.5607  0.7917  2.1059
 1920SOL    HW3 7447   2.047   0.912   1.417  0.6162 -0.3009  1.6935
 1920SOL    MW4 7448   2.127   0.948   1.416  0.5818 -0.2301  0.8504
 1921SOL     OW 7449   4.975   5.348   6.388  0.2245  0.4541 -0.2049
 1921SOL    HW2 7450   5.046   5.412   6.397  0.7990 -0.0844 -0.7653
 1921SOL    HW3 7451   5.012   5.267   6.423 -0.0504  0.1265 -0.6678
 1921SOL    MW4 7452   4.990   5.346   6.394  0.2640  0.3399 -0.3399
 1922SOL     OW 7453   5.858   6.166   4.669 -0.0340  0.3097 -0.0611
 1922SOL    HW2 7454   5.870   6.190   4.577 -0.7745 -0.9161 -0.5012
 1922SOL    HW3 7455   5.763   6.159   4.680  0.0432  0.4410  0.8080
 1922SOL    MW4 7456   5.847   6.168   4.658 -0.1215  0.1653 -0.0045
 1923SOL     OW 7457   1.827   1.828   3.585 -0.5906  0.2429 -0.0452
 1923SOL    HW2 7458   1.827   1.849   3.679 -2.4247 -0.6308  0.2016
 1923SOL    HW3 7459   1.773   1.749   3.578 -0.0532 -0.0107 -1.7910
 1923SOL    MW4 7460   1.820   1.821   3.597 -0.7617  0.0942 -0.2430
 1924SOL     OW 7461   3.842   0.088   1.122  0.1981 -0.0709 -0.4908
 1924SOL    HW2 7462   3.810   0.124   1.039 -1.3707  0.9302  0.4886
 1924SOL    HW3 7463   3.819  -0.004   1.118 -2.0058  0.4072 -0.2781
 1924SOL    MW4 7464   3.834   0.081   1.110 -0.2997  0.1242 -0.3335
 1925SOL     OW 7465   0.294   2.574   2.613  0.5655  0.0903 -0.1612
 1925SOL    HW2 7466   0.253   2.490   2.635  0.2374 -0.1543 -1.5767
 1925SOL    HW3 7467   0.348   2.554   2.537 -0.7032  1.4304 -1.4815
 1925SOL    MW4 7468   0.295   2.560   2.606  0.3548  0.2349 -0.5221
 1926SOL     OW 7469   2.857   2.526   1.511  0.5880  0.1334  0.1647
 1926SOL    HW2 7470   2.779   2.568   1.548  0.3473  0.2982 -0.5216
 1926SOL    HW3 7471   2.930   2.569   1.555  0.3222  0.7814 -0.0117
 1926SOL    MW4 7472   2.856   2.537   1.522  0.5212  0.2406  0.0509
 1927SOL     OW 7473   0.048   0.939   3.044 -0.0580 -0.3647  0.0765
 1927SOL    HW2 7474   0.056   1.034   3.035 -0.6447 -0.2154  1.0250
 1927SOL    HW3 7475   0.110   0.904   2.981 -0.5437  0.6428 -1.0132
 1927SOL    MW4 7476   0.057   0.947   3.034 -0.1995 -0.2121  0.0578
 1928SOL     OW 7477   4.861   3.285   0.984  0.5745 -0.7435 -0.1828
 1928SOL    HW2 7478   4.799   3.230   1.033 -1.0786  0.7888 -0.4577
 1928SOL    HW3 7479   4.893   3.348   1.049  2.5713 -2.0261  0.1667
 1928SOL    MW4 7480   4.857   3.286   0.999  0.6198 -0.7105 -0.1729
 1929SOL     OW 7481   3.620   2.992   0.329  0.0258 -0.0332 -0.8156
 1929SOL    HW2 7482   3.616   3.011   0.235  1.1836 -1.0540 -1.1028
 1929SOL    HW3 7483   3.713   3.005   0.352 -0.4492  1.4084  0.4828
 1929SOL    MW4 7484   3.632   2.997   0.320  0.1159  0.0223 -0.6822
 1930SOL     OW 7485   1.503   5.768   3.625 -0.2060 -0.2602 -0.4551
 1930SOL    HW2 7486   1.448   5.743   3.699  0.4662  0.1215  0.1912
 1930SOL    HW3 7487   1.560   5.836   3.660 -0.0494  0.1054 -1.4002
 1930SOL    MW4 7488   1.504   5.774   3.639 -0.0966 -0.1616 -0.4945
 1931SOL     OW 7489   2.977   4.288   0.107 -0.2120  0.0990 -0.1611
 1931SOL    HW2 7490   2.982   4.206   0.058  0.6437  0.0843 -0.0577
 1931SOL    HW3 7491   2.990   4.263   0.198  0.4420  0.3977 -0.1702
 1931SOL    MW4 7492   2.979   4.274   0.113 -0.0128  0.1364 -0.1487
 1932SOL     OW 7493   4.719   3.265   0.628  0.3025  0.4215 -0.5508
 1932SOL    HW2 7494   4.741   3.239   0.717  0.2157  0.9222 -0.3778
 1932SOL    HW3 7495   4.804   3.275   0.584  0.3507  0.3603 -0.4732
 1932SOL    MW4 7496   4.733   3.263   0.634  0.2974  0.4795 -0.5177
 1933SOL     OW 7497   4.961   1.021   2.737  0.5962  0.3675  0.4371
 1933SOL    HW2 7498   4.956   0.968   2.658 -0.3296  0.5402  0.3634
 1933SOL    HW3 7499   5.015   0.971   2.797 -0.0733 -0.5622  0.2869
 1933SOL    MW4 7500   4.967   1.007   2.734  0.3857  0.2676  0.4075
 1934SOL     OW 7501   3.386   6.321   1.376  0.0140 -0.3837  0.2285
 1934SOL    HW2 7502   3.427   6.352   1.295  0.5850 -0.2491  0.5653
 1934SOL    HW3 7503   3.322   6.388   1.398  0.2252 -0.1625  0.1673
 1934SOL    MW4 7504   3.383   6.334   1.368  0.1172 -0.3368  0.2648
 1935SOL     OW 7505   3.401   0.537   5.284 -0.0514  0.4464 -0.0279
 1935SOL    HW2 7506   3.312   0.502   5.291 -0.4812  1.8547  2.6312
 1935SOL    HW3 7507   3.456   0.470   5.324 -0.5970  1.6278  2.9191
 1935SOL    MW4 7508   3.397   0.523   5.290 -0.1801  0.7881  0.7117
 1936SOL     OW 7509   1.223   3.776   2.779  0.5724  0.0558 -0.7813
 1936SOL    HW2 7510   1.163   3.812   2.845  0.8775 -0.3466 -0.2811
 1936SOL    HW3 7511   1.167   3.758   2.703 -0.3667 -2.2323  0.3612
 1936SOL    MW4 7512   1.208   3.778   2.777  0.4888 -0.2992 -0.5645
 1937SOL     OW 7513   6.061   4.620   5.451  0.4483  0.0029  0.6932
 1937SOL    HW2 7514   6.121   4.575   5.510  0.6575 -1.1092 -0.3299
 1937SOL    HW3 7515   6.090   4.595   5.363 -0.2711  1.0718  0.1259
 1937SOL    MW4 7516   6.072   4.611   5.447  0.3810 -0.0028  0.4834
 1938SOL     OW 7517   5.829   2.897   4.734  0.1196 -0.5493 -0.4534
 1938SOL    HW2 7518   5.799   2.816   4.693  0.0264 -0.1678 -1.1492
 1938SOL    HW3 7519   5.920   2.906   4.706  0.4586 -0.9508  0.4763
 1938SOL    MW4 7520   5.837   2.888   4.725  0.1521 -0.5520 -0.4225
 1939SOL     OW 7521   5.878   5.931   1.850 -0.1535 -0.3345  0.4868
 1939SOL    HW2 7522   5.922   5.943   1.766 -2.8175 -0.2093 -1.0245
 1939SOL    HW3 7523   5.895   6.011   1.898  1.9064 -0.6426  0.3643
 1939SOL    MW4 7524   5.886   5.943   1.845 -0.2332 -0.3586  0.2712
 1940SOL     OW 7525   0.101   2.749   5.548  0.1329 -0.4115 -0.2348
 1940SOL    HW2 7526   0.134   2.713   5.465 -0.3151  0.4997 -0.8334
 1940SOL    HW3 7527   0.006   2.741   5.541  0.0369  0.6165 -0.2800
 1940SOL    MW4 7528   0.093   2.743   5.536  0.0611 -0.1556 -0.3197
 1941SOL     OW 7529   3.139   0.914   5.546  0.2267  0.0204 -0.3261
 1941SOL    HW2 7530   3.060   0.967   5.560  0.2551  0.0681 -0.3468
 1941SOL    HW3 7531   3.180   0.952   5.468 -1.4073 -1.9881 -2.2870
 1941SOL    MW4 7532   3.134   0.926   5.538  0.0149 -0.2383 -0.5876
 1942SOL     OW 7533   1.331   3.601   4.702 -0.1972  0.3033 -0.2813
 1942SOL    HW2 7534   1.332   3.505   4.708  2.0972  0.2959  0.0354
 1942SOL    HW3 7535   1.383   3.620   4.624 -0.4378  1.2987 -0.2049
 1942SOL    MW4 7536   1.338   3.591   4.692  0.0738  0.4336 -0.2295
 1943SOL     OW 7537   0.789   6.213   5.363  0.1685 -0.4685 -0.4410
 1943SOL    HW2 7538   0.718   6.154   5.386  1.2342 -0.5079  3.5061
 1943SOL    HW3 7539   0.785   6.282   5.429  2.3282  0.8552 -1.5745
 1943SOL    MW4 7540   0.779   6.215   5.374  0.5941 -0.2991 -0.0698
 1944SOL     OW 7541   4.058   1.723   4.932  0.3909  0.5831  0.3423
 1944SOL    HW2 7542   3.984   1.722   4.993  0.7013  1.2541  0.7472
 1944SOL    HW3 7543   4.037   1.656   4.867  0.6440 -1.0402  1.8790
 1944SOL    MW4 7544   4.045   1.714   4.932  0.4652  0.4574  0.5985
 1945SOL     OW 7545   4.192   4.097   2.838  0.2312 -0.5556 -0.1818
 1945SOL    HW2 7546   4.171   4.005   2.855 -0.8668 -0.2582  0.1684
 1945SOL    HW3 7547   4.287   4.100   2.833  0.2718 -1.7202 -0.2417
 1945SOL    MW4 7548   4.202   4.086   2.839  0.0917 -0.6700 -0.1435
 1946SOL     OW 7549   4.645   5.099   4.418 -0.6348  0.1415  0.5073
 1946SOL    HW2 7550   4.722   5.086   4.363  0.2370  0.0213  1.7099
 1946SOL    HW3 7551   4.624   5.192   4.407 -0.8324 -0.0016 -0.4464
 1946SOL    MW4 7552   4.652   5.110   4.409 -0.5458  0.1068  0.5401
 1947SOL     OW 7553   1.183   5.250   6.361  0.0081 -0.3987 -0.0458
 1947SOL    HW2 7554   1.171   5.329   6.308 -2.4427 -0.2725  0.5416
 1947SOL    HW3 7555   1.230   5.279   6.438  1.9723 -0.2080 -1.2615
 1947SOL    MW4 7556   1.187   5.264   6.364 -0.0561 -0.3569 -0.1287
 1948SOL     OW 7557   6.398   4.563   5.987 -0.7843  0.2022  0.1378
 1948SOL    HW2 7558   6.348   4.640   5.959  1.3561  1.4040 -0.5941
 1948SOL    HW3 7559   6.466   4.554   5.920  0.4166 -0.9301  1.4661
 1948SOL    MW4 7560   6.401   4.572   5.974 -0.3435  0.2114  0.2165
 1949SOL     OW 7561   4.875   2.769   2.561 -0.1661 -0.0270 -0.8719
 1949SOL    HW2 7562   4.928   2.760   2.640 -0.8095 -0.4978 -0.4752
 1949SOL    HW3 7563   4.935   2.801   2.494  0.3579  0.5316 -0.1527
 1949SOL    MW4 7564   4.890   2.772   2.563 -0.1818 -0.0154 -0.7247
 1950SOL     OW 7565   2.172   5.146   2.397  0.6924  0.4573 -0.0729
 1950SOL    HW2 7566   2.200   5.204   2.468  0.0537 -0.3273  0.8336
 1950SOL    HW3 7567   2.077   5.150   2.399  0.6649  0.3580 -0.8474
 1950SOL    MW4 7568   2.163   5.154   2.407  0.6045  0.3407 -0.0555
 1951SOL     OW 7569   6.260   5.881   2.060 -0.7001 -0.4922 -0.0040
 1951SOL    HW2 7570   6.219   5.888   2.146 -0.4511  2.1645  0.0111
 1951SOL    HW3 7571   6.258   5.971   2.026 -1.1468 -1.5262 -2.9584
 1951SOL    MW4 7572   6.254   5.894   2.067 -0.7262 -0.2781 -0.3918
 1952SOL     OW 7573   6.367   5.064   2.680 -0.3564 -0.0862  0.2633
 1952SOL    HW2 7574   6.463   5.063   2.680 -0.2832  0.6722  2.7315
 1952SOL    HW3 7575   6.345   5.155   2.702 -1.6318 -0.4200  0.4121
 1952SOL    MW4 7576   6.377   5.076   2.683 -0.5150 -0.0302  0.6086
 1953SOL     OW 7577   1.503   4.999   6.007  0.0677 -0.0979 -0.5129
 1953SOL    HW2 7578   1.564   4.944   6.056  0.3473  1.6859  1.2962
 1953SOL    HW3 7579   1.431   5.015   6.068 -0.8967  0.0440 -1.6545
 1953SOL    MW4 7580   1.501   4.994   6.022 -0.0226  0.1562 -0.4248
 1954SOL     OW 7581   0.928   1.229   1.033  0.0132 -0.0793  0.0852
 1954SOL    HW2 7582   0.912   1.247   0.940  0.4922 -1.0477 -0.2010
 1954SOL    HW3 7583   0.957   1.313   1.069  0.5208  0.1420 -0.7990
 1954SOL    MW4 7584   0.930   1.243   1.025  0.1434 -0.1778 -0.0692
 1955SOL     OW 7585   4.705   3.186   3.446 -0.1757  0.4160 -0.1231
 1955SOL    HW2 7586   4.693   3.221   3.534 -1.6705 -0.1718 -0.0756
 1955SOL    HW3 7587   4.795   3.211   3.423 -0.0921  1.4211  1.1719
 1955SOL    MW4 7588   4.716   3.194   3.454 -0.3619  0.4711  0.0540
 1956SOL     OW 7589   6.050   4.290   3.407  0.2127  0.1226  0.4606
 1956SOL    HW2 7590   6.097   4.251   3.481  0.0071  0.1482  0.6056
 1956SOL    HW3 7591   6.117   4.301   3.339  0.2030 -0.8016  0.2907
 1956SOL    MW4 7592   6.065   4.287   3.408  0.1843  0.0041  0.4573
 1957SOL     OW 7593   4.258   1.975   0.750  0.1292 -0.0287  0.3837
 1957SOL    HW2 7594   4.306   1.893   0.766  1.0642  0.3005 -0.5760
 1957SOL    HW3 7595   4.301   2.013   0.673 -1.1498  0.7166  0.0059
 1957SOL    MW4 7596   4.270   1.969   0.742  0.0838  0.1130  0.2072
 1958SOL     OW 7597   0.286   1.557   3.186 -0.3248  0.7455 -0.0312
 1958SOL    HW2 7598   0.324   1.513   3.110 -1.9455 -2.4730  0.8431
 1958SOL    HW3 7599   0.300   1.496   3.259 -2.3621  1.8545  1.3915
 1958SOL    MW4 7600   0.293   1.543   3.186 -0.8075  0.4672  0.2719
 1959SOL     OW 7601   2.030   0.097   2.586 -0.1133  0.4367 -0.3106
 1959SOL    HW2 7602   2.016   0.096   2.491 -0.9099  1.2243 -0.2269
 1959SOL    HW3 7603   1.946   0.127   2.621  0.7133  1.8845  0.5197
 1959SOL    MW4 7604   2.017   0.101   2.578 -0.1093  0.7317 -0.1900
 1960SOL     OW 7605   0.298   4.897   3.087  0.1838 -0.8456 -0.0461
 1960SOL    HW2 7606   0.260   4.855   3.164 -1.2432  0.3428 -0.0583
 1960SOL    HW3 7607   0.270   4.988   3.093  0.9670 -0.4920 -1.4000
 1960SOL    MW4 7608   0.289   4.903   3.098  0.0989 -0.6422 -0.2264
 1961SOL     OW 7609   4.836   0.778   4.056  0.4125  0.4189  0.5559
 1961SOL    HW2 7610   4.743   0.757   4.059  0.8698 -1.8702  0.3428
 1961SOL    HW3 7611   4.848   0.846   4.123 -0.9095 -1.4035  2.7634
 1961SOL    MW4 7612   4.826   0.784   4.065  0.2984 -0.1235  0.8191
 1962SOL     OW 7613   1.761   5.584   4.414  0.4906 -0.5963 -0.3674
 1962SOL    HW2 7614   1.693   5.650   4.407 -0.5710 -1.5371  0.5074
 1962SOL    HW3 7615   1.825   5.621   4.475 -0.6759 -0.7986  1.0424
 1962SOL    MW4 7616   1.761   5.597   4.421  0.1966 -0.7471 -0.0660
 1963SOL     OW 7617   4.650   1.671   5.982  0.2335 -0.0848  0.2651
 1963SOL    HW2 7618   4.735   1.645   5.948  0.0837 -0.6737  0.3361
 1963SOL    HW3 7619   4.599   1.590   5.985 -0.8215  0.4868 -1.2070
 1963SOL    MW4 7620   4.654   1.657   5.978  0.0746 -0.0871  0.0803
 1964SOL     OW 7621   2.771   5.800   1.306 -0.0486  0.2773 -0.0376
 1964SOL    HW2 7622   2.801   5.869   1.247 -1.1665  0.7108 -0.1197
 1964SOL    HW3 7623   2.842   5.735   1.305  0.7347  1.1167 -0.4512
 1964SOL    MW4 7624   2.785   5.801   1.298 -0.0928  0.4452 -0.1030
 1965SOL     OW 7625   1.115   2.155   6.141  0.0390 -0.2063  0.4499
 1965SOL    HW2 7626   1.204   2.178   6.168 -0.4853  0.4958  1.6652
 1965SOL    HW3 7627   1.065   2.236   6.153 -0.1750  0.4045 -3.2860
 1965SOL    MW4 7628   1.120   2.169   6.146 -0.0584 -0.0331  0.1173
 1966SOL     OW 7629   5.153   6.024   3.720  0.2741 -0.1769 -0.4523
 1966SOL    HW2 7630   5.154   5.980   3.635  0.4835 -0.9211 -0.0767
 1966SOL    HW3 7631   5.088   5.976   3.771 -0.4727  0.7979 -0.4525
 1966SOL    MW4 7632   5.145   6.012   3.716  0.2032 -0.1464 -0.4028
 1967SOL     OW 7633   4.048   6.137   2.714 -0.0956 -0.2901  0.5365
 1967SOL    HW2 7634   4.087   6.135   2.801  0.4343 -0.7475  0.2990
 1967SOL    HW3 7635   4.019   6.047   2.698  0.5491 -0.4010 -0.0721
 1967SOL    MW4 7636   4.050   6.125   2.723  0.0593 -0.3651  0.4248
 1968SOL     OW 7637   5.600   2.359   6.142  0.5221  0.1219 -0.1565
 1968SOL    HW2 7638   5.547   2.427   6.182 -0.8661 -1.9396  1.7596
 1968SOL    HW3 7639   5.620   2.392   6.054  0.5690  3.2395  0.9226
 1968SOL    MW4 7640   5.596   2.372   6.136  0.3451  0.2612  0.2387
 1969SOL     OW 7641   3.800   0.853   3.707 -0.1910 -0.5267 -0.5634
 1969SOL    HW2 7642   3.806   0.796   3.784  0.2481 -0.0241 -0.2174
 1969SOL    HW3 7643   3.767   0.936   3.741 -0.6845 -0.5270 -1.0422
 1969SOL    MW4 7644   3.797   0.856   3.722 -0.1982 -0.4605 -0.5809
 1970SOL     OW 7645   3.068   3.522   6.240  0.8296  0.3951 -0.0392
 1970SOL    HW2 7646   3.018   3.597   6.271  1.0649  0.6682 -0.3145
 1970SOL    HW3 7647   3.140   3.560   6.190  1.4698  0.0188  0.5706
 1970SOL    MW4 7648   3.071   3.537   6.238  0.9451  0.3814  0.0049
 1971SOL     OW 7649   3.116   2.651   5.043  0.9792 -0.2513  0.2423
 1971SOL    HW2 7650   3.063   2.708   4.987  1.1858 -0.2680  0.0297
 1971SOL    HW3 7651   3.052   2.610   5.101  0.8738  0.4918  0.6603
 1971SOL    MW4 7652   3.100   2.653   5.043  0.9925 -0.1554  0.2694
 1972SOL     OW 7653   3.763   3.624   5.336 -0.4932 -0.3153 -0.2299
 1972SOL    HW2 7654   3.773   3.620   5.431 -2.2247 -1.2598 -0.0461
 1972SOL    HW3 7655   3.804   3.544   5.303  1.2864  0.6282 -0.4547
 1972SOL    MW4 7656   3.770   3.613   5.344 -0.4869 -0.3154 -0.2353
 1973SOL     OW 7657   0.053   5.431   4.016 -0.6064 -0.3134  0.9364
 1973SOL    HW2 7658  -0.041   5.449   4.015 -0.5294  0.1394 -0.4667
 1973SOL    HW3 7659   0.061   5.350   4.067 -1.8653 -0.8969  0.2595
 1973SOL    MW4 7660   0.041   5.423   4.023 -0.7624 -0.3306  0.6620
 1974SOL     OW 7661   0.493   5.676   1.171  0.4052  0.6387 -0.0479
 1974SOL    HW2 7662   0.524   5.734   1.241 -0.2729  1.0084 -0.0357
 1974SOL    HW3 7663   0.510   5.588   1.203  0.1967  0.8074  0.5513
 1974SOL    MW4 7664   0.499   5.672   1.185  0.2883  0.7097  0.0328
 1975SOL     OW 7665   0.680   3.489   2.677 -1.4636  0.1225  0.2036
 1975SOL    HW2 7666   0.638   3.506   2.593 -2.3931 -0.5459  0.5123
 1975SOL    HW3 7667   0.686   3.394   2.683 -0.1963  0.1943  0.3301
 1975SOL    MW4 7668   0.675   3.479   2.667 -1.4190  0.0438  0.2610
 1976SOL     OW 7669   0.169   0.606   0.984  0.1265 -0.2213 -0.7021
 1976SOL    HW2 7670   0.179   0.513   0.968  1.0935 -0.2902  0.2273
 1976SOL    HW3 7671   0.074   0.619   0.987 -0.0796 -1.6820  1.7970
 1976SOL    MW4 7672   0.158   0.596   0.982  0.2269 -0.4231 -0.2498
 1977SOL     OW 7673   2.657   1.946   4.674  0.2529 -0.3535 -0.0631
 1977SOL    HW2 7674   2.562   1.936   4.670 -0.0700  2.0366  0.4345
 1977SOL    HW3 7675   2.679   1.924   4.764  0.3271 -1.6856 -0.3765
 1977SOL    MW4 7676   2.647   1.941   4.685  0.2201 -0.2139 -0.0388
 1978SOL     OW 7677   5.377   6.304   3.512 -0.1135 -0.2348  0.3939
 1978SOL    HW2 7678   5.412   6.375   3.458  0.3699 -0.2131  0.7246
 1978SOL    HW3 7679   5.323   6.252   3.452 -1.6906  1.2360  0.4837
 1978SOL    MW4 7680   5.375   6.306   3.497 -0.2578 -0.0379  0.4494
 1979SOL     OW 7681   5.096   1.233   5.524  0.1226  0.0734  1.0986
 1979SOL    HW2 7682   5.022   1.292   5.532 -0.1080 -0.1013  0.3455
 1979SOL    HW3 7683   5.133   1.251   5.437  0.8764  0.0619  1.4077
 1979SOL    MW4 7684   5.091   1.243   5.513  0.1916  0.0488  1.0400
 1980SOL     OW 7685   3.402   1.274   1.723 -0.1869 -0.0072  0.1024
 1980SOL    HW2 7686   3.355   1.285   1.805  2.2085  0.3495  1.5369
 1980SOL    HW3 7687   3.385   1.184   1.697  0.5392 -0.7643  2.0761
 1980SOL    MW4 7688   3.394   1.264   1.730  0.2249 -0.0600  0.5521
 1981SOL     OW 7689   0.683   6.008   2.023  0.0155 -0.2814 -0.2162
 1981SOL    HW2 7690   0.748   6.004   1.953  1.2568  0.8105  0.8215
 1981SOL    HW3 7691   0.730   5.979   2.101 -1.3255 -1.4193  0.2100
 1981SOL    MW4 7692   0.698   6.004   2.024  0.0023 -0.2875 -0.0230
 1982SOL     OW 7693   4.118   0.957   2.869  0.5730 -0.4975  0.0875
 1982SOL    HW2 7694   4.123   1.048   2.842  0.4829 -0.5552 -0.1310
 1982SOL    HW3 7695   4.043   0.954   2.928  1.2808 -0.2076  1.0277
 1982SOL    MW4 7696   4.109   0.968   2.873  0.6545 -0.4669  0.1827
 1983SOL     OW 7697   4.520   1.932   0.162  0.0014  0.4215  0.5106
 1983SOL    HW2 7698   4.597   1.882   0.189  0.6653  0.0353 -1.9071
 1983SOL    HW3 7699   4.456   1.865   0.137  0.1844  0.7367 -0.8643
 1983SOL    MW4 7700   4.522   1.916   0.163  0.1132  0.4121  0.0102
 1984SOL     OW 7701   3.048   1.024   2.384 -0.2257 -0.2423 -0.2976
 1984SOL    HW2 7702   3.085   1.111   2.371 -0.2464 -0.3973 -1.4484
 1984SOL    HW3 7703   2.955   1.040   2.403 -0.7938 -0.0886 -2.9210
 1984SOL    MW4 7704   3.040   1.037   2.385 -0.3034 -0.2424 -0.7955
 1985SOL     OW 7705   0.003   4.944   2.082 -0.1732  0.1840  0.5065
 1985SOL    HW2 7706  -0.054   4.896   2.023 -0.9409  2.5478 -0.8063
 1985SOL    HW3 7707  -0.002   4.896   2.165  0.4326 -2.8550 -1.0809
 1985SOL    MW4 7708  -0.005   4.931   2.085 -0.1946  0.0949  0.1239
 1986SOL     OW 7709   1.971   2.997   1.058  0.3743 -0.4335  0.3858
 1986SOL    HW2 7710   2.025   2.919   1.046 -1.2673 -1.7622  1.2888
 1986SOL    HW3 7711   1.881   2.966   1.055 -0.3236  1.2811  1.6553
 1986SOL    MW4 7712   1.967   2.983   1.056  0.0656 -0.3826  0.6724
 1987SOL     OW 7713   4.446   3.673   0.993  0.1648  0.1362  0.0736
 1987SOL    HW2 7714   4.493   3.634   0.919  0.8505  1.6848 -0.3479
 1987SOL    HW3 7715   4.382   3.732   0.952  0.4239  0.8665  0.7035
 1987SOL    MW4 7716   4.443   3.675   0.978  0.2894  0.4369  0.1011
 1988SOL     OW 7717   0.528   4.793   0.781 -0.4628  0.3947 -0.0851
 1988SOL    HW2 7718   0.500   4.703   0.793 -1.3793  0.7818  0.7345
 1988SOL    HW3 7719   0.456   4.835   0.734 -0.2205  0.8075 -0.0927
 1988SOL    MW4 7720   0.515   4.787   0.776 -0.5517  0.5002  0.0221
 1989SOL     OW 7721   3.653   5.238   5.427 -0.2751  0.2437 -0.3051
 1989SOL    HW2 7722   3.623   5.231   5.517  0.7185  0.8645  0.0902
 1989SOL    HW3 7723   3.619   5.159   5.384  1.5387 -1.5213  1.2858
 1989SOL    MW4 7724   3.645   5.226   5.433  0.0953  0.0927 -0.0431
 1990SOL     OW 7725   1.588   5.876   6.088  0.4298 -0.5413  0.4436
 1990SOL    HW2 7726   1.573   5.884   6.183  2.0739  1.6999  0.5975
 1990SOL    HW3 7727   1.591   5.966   6.057  2.2643 -1.1354 -1.3384
 1990SOL    MW4 7728   1.586   5.889   6.097  0.8887 -0.3240  0.2288
 1991SOL     OW 7729   1.734   1.727   0.708 -0.1693  0.1735 -0.7721
 1991SOL    HW2 7730   1.777   1.685   0.633  0.0661  0.2386 -0.6766
 1991SOL    HW3 7731   1.673   1.789   0.669  0.3949  0.6501 -0.9128
 1991SOL    MW4 7732   1.732   1.730   0.693 -0.0638  0.2450 -0.7781
 1992SOL     OW 7733   2.174   3.329   3.381 -0.0398  0.1551  0.0042
 1992SOL    HW2 7734   2.112   3.370   3.321  0.9319  0.4074 -0.8518
 1992SOL    HW3 7735   2.187   3.393   3.451 -1.0463 -0.0713  0.4188
 1992SOL    MW4 7736   2.168   3.343   3.382 -0.0444  0.1585 -0.0540
 1993SOL     OW 7737   4.885   0.520   1.855 -0.1037  0.6128 -0.4169
 1993SOL    HW2 7738   4.831   0.563   1.921  0.8273  0.2083  0.6403
 1993SOL    HW3 7739   4.853   0.429   1.854 -0.5774  0.7778 -1.0386
 1993SOL    MW4 7740   4.874   0.513   1.864 -0.0434  0.5812 -0.3595
 1994SOL     OW 7741   3.987   2.089   0.080 -0.2650  0.4569  0.4479
 1994SOL    HW2 7742   3.970   2.167   0.027  1.5713  0.2129 -0.5850
 1994SOL    HW3 7743   4.066   2.051   0.041 -2.6554 -3.5885 -1.0403
 1994SOL    MW4 7744   3.995   2.094   0.068 -0.3381 -0.1090  0.1153
 1995SOL     OW 7745   3.968   4.008   2.222 -0.0591  0.4411  0.0060
 1995SOL    HW2 7746   4.008   3.993   2.308 -0.6450 -1.2224  0.0242
 1995SOL    HW3 7747   3.999   3.935   2.168 -2.8875 -0.8631 -0.0201
 1995SOL    MW4 7748   3.978   3.997   2.226 -0.5096  0.0496  0.0049
 1996SOL     OW 7749   2.046   0.357   2.355  0.1488 -0.2107  0.6190
 1996SOL    HW2 7750   2.065   0.264   2.352 -0.1756 -0.2592 -0.3941
 1996SOL    HW3 7751   2.096   0.390   2.430  1.6787 -0.8827 -0.0667
 1996SOL    MW4 7752   2.055   0.349   2.364  0.3078 -0.3058  0.3949
 1997SOL     OW 7753   0.691   3.390   6.081 -0.3186 -0.0327 -0.3197
 1997SOL    HW2 7754   0.751   3.422   6.014 -0.2363 -0.9000 -0.6722
 1997SOL    HW3 7755   0.728   3.422   6.164 -0.5171  1.1884 -0.6828
 1997SOL    MW4 7756   0.704   3.399   6.083 -0.3339  0.0140 -0.4141
 1998SOL     OW 7757   2.457   4.985   4.238  0.2698 -0.4669  0.2652
 1998SOL    HW2 7758   2.414   5.036   4.307  1.0803 -1.0894  1.2783
 1998SOL    HW3 7759   2.535   5.037   4.215 -0.1493 -0.1225 -0.3998
 1998SOL    MW4 7760   2.462   4.999   4.244  0.3215 -0.5036  0.3111
 1999SOL     OW 7761   1.397   2.471   6.203 -0.2212  0.4076  0.2617
 1999SOL    HW2 7762   1.402   2.521   6.122  0.8453  0.8910  0.6103
 1999SOL    HW3 7763   1.324   2.511   6.251  0.5584  1.5836  0.4970
 1999SOL    MW4 7764   1.388   2.483   6.199  0.0223  0.6265  0.3387
 2000SOL     OW 7765   5.534   1.143   0.186  0.5154 -0.5726 -0.0079
 2000SOL    HW2 7766   5.615   1.180   0.152  0.6602 -0.1276  0.8048
 2000SOL    HW3 7767   5.511   1.199   0.260  0.7045 -2.0439  1.2169
 2000SOL    MW4 7768   5.542   1.155   0.191  0.5594 -0.7080  0.2609
 2001SOL     OW 7769   0.062   3.075   2.791  0.1380  0.7201  0.3447
 2001SOL    HW2 7770   0.069   3.122   2.874 -0.4088  0.9993  0.2438
 2001SOL    HW3 7771   0.096   2.988   2.810  2.4183  1.5158  0.1990
 2001SOL    MW4 7772   0.067   3.070   2.805  0.3667  0.8620  0.3121
 2002SOL     OW 7773   2.276   1.997   6.027  0.4672 -0.5998 -0.1263
 2002SOL    HW2 7774   2.322   2.017   5.946  1.4050  0.7375  0.7052
 2002SOL    HW3 7775   2.337   2.022   6.096 -1.5877  1.5672  1.0378
 2002SOL    MW4 7776   2.290   2.003   6.026  0.3198 -0.1375  0.1370
 2003SOL     OW 7777   6.000   2.578   5.529  0.2223  0.1363  0.1434
 2003SOL    HW2 7778   5.964   2.489   5.532 -0.4093  0.4024  1.1540
 2003SOL    HW3 7779   5.962   2.617   5.450 -2.1976  0.5614  1.3972
 2003SOL    MW4 7780   5.990   2.572   5.519 -0.1803  0.2275  0.4422
 2004SOL     OW 7781   4.739   4.826   1.386 -0.2684  0.0760  0.1755
 2004SOL    HW2 7782   4.778   4.755   1.335 -0.6294  1.6056 -2.4354
 2004SOL    HW3 7783   4.645   4.811   1.382 -0.3216  0.4454  0.0203
 2004SOL    MW4 7784   4.732   4.815   1.379 -0.3231  0.3265 -0.1895
 2005SOL     OW 7785  -0.007   4.818   0.504 -0.1423 -0.5078  0.7930
 2005SOL    HW2 7786  -0.027   4.912   0.507 -1.3570 -0.5934 -1.7466
 2005SOL    HW3 7787  -0.088   4.775   0.532 -1.1908 -0.7613 -2.2490
 2005SOL    MW4 7788  -0.020   4.825   0.508 -0.4409 -0.5526  0.0566
 2006SOL     OW 7789   2.586   1.417   2.003 -0.6700 -0.1107  0.0551
 2006SOL    HW2 7790   2.623   1.399   2.090 -0.3127  2.1494  0.4243
 2006SOL    HW3 7791   2.570   1.511   2.003 -1.9877 -0.2870 -1.8495
 2006SOL    MW4 7792   2.589   1.427   2.015 -0.7967  0.1642 -0.1475
 2007SOL     OW 7793   6.023   2.862   1.585 -0.0937  0.1663  0.2290
 2007SOL    HW2 7794   6.061   2.922   1.649 -0.2010 -0.7608  1.1939
 2007SOL    HW3 7795   6.098   2.819   1.545  0.0160  1.3707 -0.9387
 2007SOL    MW4 7796   6.038   2.864   1.588 -0.0934  0.2029  0.2023
 2008SOL     OW 7797   0.320   5.209   3.775  0.1355  0.4683 -0.2861
 2008SOL    HW2 7798   0.344   5.194   3.684  0.1644  0.9060 -0.3511
 2008SOL    HW3 7799   0.225   5.198   3.776  0.0057  1.4799 -0.5773
 2008SOL    MW4 7800   0.310   5.205   3.763  0.1222  0.6595 -0.3331
 2009SOL     OW 7801   3.042   2.338   2.229 -0.2453  0.0451  0.0070
 2009SOL    HW2 7802   3.136   2.349   2.242 -0.0558 -0.1205 -1.1170
 2009SOL    HW3 7803   3.016   2.416   2.180 -0.1612 -1.1454 -2.0493
 2009SOL    MW4 7804   3.051   2.349   2.224 -0.2092 -0.1338 -0.4126
 2010SOL     OW 7805   0.734   3.195   1.060  0.0642  0.4704  0.4607
 2010SOL    HW2 7806   0.640   3.211   1.048  0.2684  1.4611  0.1146
 2010SOL    HW3 7807   0.747   3.203   1.154 -0.1226  0.7175  0.4655
 2010SOL    MW4 7808   0.723   3.198   1.071  0.0665  0.6337  0.4157
 2011SOL     OW 7809   0.449   2.180   5.821  0.0596 -0.0823  0.4319
 2011SOL    HW2 7810   0.505   2.216   5.890  0.2428 -1.4047  1.0091
 2011SOL    HW3 7811   0.510   2.145   5.756 -0.1144  0.4779 -0.0455
 2011SOL    MW4 7812   0.464   2.180   5.821  0.0608 -0.1829  0.4450
 2012SOL     OW 7813   5.962   1.111   1.241 -0.0892  0.2725 -0.5983
 2012SOL    HW2 7814   5.962   1.057   1.161 -0.8683  0.8952 -1.0364
 2012SOL    HW3 7815   5.932   1.197   1.211 -0.9076  0.3693  0.4547
 2012SOL    MW4 7816   5.958   1.115   1.226 -0.3000  0.3674 -0.5172
 2013SOL     OW 7817   2.262   5.085   6.033 -0.0450 -0.1703 -0.0408
 2013SOL    HW2 7818   2.269   5.161   5.975  1.2071 -0.1278  0.1368
 2013SOL    HW3 7819   2.271   5.009   5.974  1.0699 -0.1299  0.0653
 2013SOL    MW4 7820   2.264   5.085   6.018  0.2673 -0.1594 -0.0034
 2014SOL     OW 7821   1.067   0.917   4.520 -0.4360  0.3944  0.1817
 2014SOL    HW2 7822   1.023   0.939   4.603 -2.3429 -0.3855 -0.5670
 2014SOL    HW3 7823   0.996   0.886   4.463  0.5687  2.2281 -2.2511
 2014SOL    MW4 7824   1.052   0.916   4.524 -0.5550  0.5334 -0.2380
 2015SOL     OW 7825   3.523   2.066   5.120 -0.3135 -0.3434  0.4330
 2015SOL    HW2 7826   3.498   2.155   5.146 -1.1140 -0.7175  0.9717
 2015SOL    HW3 7827   3.610   2.054   5.159 -0.1358  0.2533  0.2306
 2015SOL    MW4 7828   3.531   2.076   5.129 -0.3957 -0.3141  0.4773
 2016SOL     OW 7829   4.703   3.523   5.930 -0.6627 -0.3216 -0.1760
 2016SOL    HW2 7830   4.696   3.428   5.943 -3.1068 -0.2242 -0.4552
 2016SOL    HW3 7831   4.716   3.533   5.836  1.7521 -0.3979  0.0793
 2016SOL    MW4 7832   4.704   3.512   5.919 -0.6666 -0.3188 -0.1791
 2017SOL     OW 7833   2.748   2.358   2.790  0.1855 -0.2228 -0.6854
 2017SOL    HW2 7834   2.763   2.368   2.696  0.8061  0.5372 -0.5166
 2017SOL    HW3 7835   2.825   2.312   2.821  1.1041  1.5505 -0.2001
 2017SOL    MW4 7836   2.760   2.353   2.781  0.3886  0.1115 -0.5991
 2018SOL     OW 7837   1.542   1.980   3.981  0.4305  0.2453 -0.1287
 2018SOL    HW2 7838   1.514   1.914   4.043  1.2529 -1.0520 -1.0958
 2018SOL    HW3 7839   1.600   2.038   4.031  0.7780 -0.5563  0.4014
 2018SOL    MW4 7840   1.546   1.979   3.996  0.5848 -0.0316 -0.1864
 2019SOL     OW 7841   0.664   5.603   4.128  0.4132  0.5332  0.4742
 2019SOL    HW2 7842   0.606   5.677   4.147 -0.2582  0.3157 -0.6544
 2019SOL    HW3 7843   0.605   5.532   4.104  1.1181  0.1630 -0.2071
 2019SOL    MW4 7844   0.649   5.603   4.127  0.4176  0.4556  0.2354
 2020SOL     OW 7845   0.676   3.713   0.494 -0.7202  0.9949 -0.6252
 2020SOL    HW2 7846   0.735   3.718   0.569 -0.8221  2.0229 -0.5891
 2020SOL    HW3 7847   0.637   3.626   0.499 -1.0411  1.1865  0.7705
 2020SOL    MW4 7848   0.679   3.702   0.505 -0.7759  1.1558 -0.4363
 2021SOL     OW 7849   5.382   2.764   6.169 -0.0522  0.4116 -0.4474
 2021SOL    HW2 7850   5.346   2.714   6.096  1.1529 -0.5767 -0.4046
 2021SOL    HW3 7851   5.463   2.717   6.192 -0.0835  1.0667  1.1029
 2021SOL    MW4 7852   5.388   2.751   6.163  0.1026  0.3676 -0.2372
 2022SOL     OW 7853   5.420   5.826   6.118  0.2863 -0.5389 -0.5478
 2022SOL    HW2 7854   5.470   5.904   6.143 -0.6662 -0.2897  0.7095
 2022SOL    HW3 7855   5.484   5.771   6.073  2.0291 -0.6988  1.9067
 2022SOL    MW4 7856   5.435   5.829   6.116  0.3906 -0.5271 -0.0581
 2023SOL     OW 7857   1.249   0.681   1.241  0.3026  0.5674  0.1602
 2023SOL    HW2 7858   1.292   0.766   1.229 -0.1593  0.8565  0.5069
 2023SOL    HW3 7859   1.263   0.635   1.158  2.1391  0.2520  0.6022
 2023SOL    MW4 7860   1.257   0.687   1.228  0.4840  0.5639  0.2643
 2024SOL     OW 7861   5.827   3.217   5.871  0.1681 -0.1822  0.2337
 2024SOL    HW2 7862   5.870   3.302   5.862  0.0265 -0.0571  0.6980
 2024SOL    HW3 7863   5.899   3.154   5.867  0.3642  0.0049  0.6336
 2024SOL    MW4 7864   5.842   3.220   5.870  0.1753 -0.1410  0.3477
 2025SOL     OW 7865   3.565   1.361   5.591 -0.4742  0.1373  0.3402
 2025SOL    HW2 7866   3.475   1.333   5.572 -0.3525 -0.6017  0.8094
 2025SOL    HW3 7867   3.571   1.360   5.686  0.3313 -0.8293  0.2917
 2025SOL    MW4 7868   3.554   1.357   5.601 -0.3519 -0.0877  0.3957
 2026SOL     OW 7869   4.358   0.950   4.939 -0.2472 -0.0993  0.0919
 2026SOL    HW2 7870   4.405   0.882   4.987 -0.7371  0.1991  1.0195
 2026SOL    HW3 7871   4.321   1.006   5.007 -1.2069  0.1706 -0.6338
 2026SOL    MW4 7872   4.359   0.949   4.954 -0.4385 -0.0244  0.1185
 2027SOL     OW 7873   3.394   1.610   0.706  1.0747  0.3809 -0.5020
 2027SOL    HW2 7874   3.425   1.669   0.775  0.6815  0.6288 -0.5331
 2027SOL    HW3 7875   3.363   1.532   0.753 -2.2649  1.8223 -0.0547
 2027SOL    MW4 7876   3.394   1.607   0.721  0.5822  0.6038 -0.4471
 2028SOL     OW 7877   5.725   5.133   2.376 -0.0852  0.6839  0.2708
 2028SOL    HW2 7878   5.689   5.062   2.428  0.0658  1.1143  0.9746
 2028SOL    HW3 7879   5.652   5.195   2.366  0.0748  0.9178  0.5451
 2028SOL    MW4 7880   5.710   5.132   2.382 -0.0442  0.7715  0.3999
 2029SOL     OW 7881   3.096   0.894   4.859  0.6239  0.6891  0.4610
 2029SOL    HW2 7882   3.018   0.838   4.868  0.8248  0.5174  1.2264
 2029SOL    HW3 7883   3.163   0.835   4.824  0.4564  0.8047 -0.0714
 2029SOL    MW4 7884   3.095   0.879   4.855  0.6283  0.6817  0.4918
 2030SOL     OW 7885   5.856   1.000   2.608 -0.2382  0.3264 -0.0027
 2030SOL    HW2 7886   5.921   1.055   2.567  0.4083  0.2377  0.8788
 2030SOL    HW3 7887   5.884   0.910   2.589 -2.1274  0.2048 -2.7808
 2030SOL    MW4 7888   5.868   0.995   2.600 -0.4022  0.2986 -0.2529
 2031SOL     OW 7889   0.733   4.865   4.066 -0.8731 -0.3273  0.3388
 2031SOL    HW2 7890   0.715   4.945   4.017  0.3017 -0.8879 -1.0826
 2031SOL    HW3 7891   0.767   4.895   4.150  0.7025  0.6988 -0.6154
 2031SOL    MW4 7892   0.735   4.879   4.070 -0.5102 -0.2659  0.0254
 2032SOL     OW 7893   1.695   0.194   3.061 -0.8677  0.0172  0.1882
 2032SOL    HW2 7894   1.640   0.258   3.106 -1.2174  2.3417 -3.1833
 2032SOL    HW3 7895   1.634   0.128   3.029 -1.2141  0.5980 -0.3715
 2032SOL    MW4 7896   1.680   0.194   3.063 -0.9595  0.4005 -0.3305
 2033SOL     OW 7897   4.487   1.476   4.414 -0.0200  0.0805  0.1951
 2033SOL    HW2 7898   4.522   1.556   4.453 -0.7007  0.5294 -0.0898
 2033SOL    HW3 7899   4.397   1.472   4.447 -0.2205 -0.1702 -0.3742
 2033SOL    MW4 7900   4.480   1.486   4.424 -0.1363  0.1067  0.0824
 2034SOL     OW 7901   1.921   5.007   4.314 -0.2650 -0.2310 -0.4717
 2034SOL    HW2 7902   1.977   5.045   4.246  0.3411 -2.9356 -1.6188
 2034SOL    HW3 7903   1.848   4.968   4.266  0.1633 -2.2015  0.3874
 2034SOL    MW4 7904   1.919   5.007   4.299 -0.1285 -0.8478 -0.5097
 2035SOL     OW 7905   1.398   1.315   2.461  0.2559  0.2503  0.3457
 2035SOL    HW2 7906   1.408   1.402   2.499 -1.1831  0.0251  1.3352
 2035SOL    HW3 7907   1.315   1.318   2.414  0.1557 -0.5936  0.4425
 2035SOL    MW4 7908   1.388   1.327   2.460  0.0528  0.1093  0.4891
 2036SOL     OW 7909   2.982   6.137   0.151 -0.1518  0.0782  0.5050
 2036SOL    HW2 7910   3.035   6.215   0.166 -0.9745  1.0304 -1.2047
 2036SOL    HW3 7911   3.006   6.109   0.063 -2.0770  0.2208 -0.0926
 2036SOL    MW4 7912   2.992   6.144   0.141 -0.5144  0.2226  0.2006
 2037SOL     OW 7913   1.408   3.173   1.279 -0.5025  0.0666 -0.6297
 2037SOL    HW2 7914   1.325   3.132   1.256 -0.9411  1.1198 -0.9760
 2037SOL    HW3 7915   1.383   3.259   1.313  0.4683  0.5265 -1.0589
 2037SOL    MW4 7916   1.393   3.179   1.281 -0.4323  0.2663 -0.7320
 2038SOL     OW 7917   3.256   0.950   4.562  0.6272  0.0572 -0.3543
 2038SOL    HW2 7918   3.330   0.973   4.618  1.2205 -0.0125 -1.1046
 2038SOL    HW3 7919   3.294   0.932   4.476 -0.0493 -1.6481 -0.3405
 2038SOL    MW4 7920   3.271   0.951   4.558  0.6162 -0.1770 -0.4514
 2039SOL     OW 7921   2.716   4.164   5.119  0.0909  0.3367  0.8368
 2039SOL    HW2 7922   2.692   4.252   5.148 -0.2484  0.2439  0.8406
 2039SOL    HW3 7923   2.696   4.164   5.025 -3.4831 -0.8844  1.4366
 2039SOL    MW4 7924   2.710   4.176   5.110 -0.4254  0.1634  0.9164
 2040SOL     OW 7925   1.140   3.194   2.920  0.2903 -0.2231 -0.4258
 2040SOL    HW2 7926   1.159   3.125   2.857 -0.2407  0.0728 -0.9195
 2040SOL    HW3 7927   1.075   3.250   2.876 -1.2605 -0.8501  0.9336
 2040SOL    MW4 7928   1.134   3.192   2.906  0.0157 -0.2668 -0.3116
 2041SOL     OW 7929   2.703   3.667   0.013  0.1691  0.2528  0.2480
 2041SOL    HW2 7930   2.623   3.625  -0.016 -0.0463  0.9313 -0.1482
 2041SOL    HW3 7931   2.707   3.649   0.107 -0.3436  0.0500  0.2302
 2041SOL    MW4 7932   2.693   3.659   0.022  0.0731  0.3156  0.1934
 2042SOL     OW 7933   3.511   5.886   4.964  0.5713 -0.1834  0.2523
 2042SOL    HW2 7934   3.542   5.973   4.941  1.0457 -0.9906 -2.4843
 2042SOL    HW3 7935   3.415   5.895   4.969  0.2389 -0.0620 -3.4169
 2042SOL    MW4 7936   3.502   5.899   4.962  0.5900 -0.2739 -0.5928
 2043SOL     OW 7937   4.568   3.271   1.716  0.3171 -0.1648  0.1218
 2043SOL    HW2 7938   4.615   3.189   1.728 -1.3667 -0.8099  3.5431
 2043SOL    HW3 7939   4.488   3.247   1.670 -0.2962 -0.5712  1.3476
 2043SOL    MW4 7940   4.564   3.257   1.712  0.0140 -0.3036  0.7350
 2044SOL     OW 7941   3.601   1.985   4.450  0.3061 -0.0851 -0.4033
 2044SOL    HW2 7942   3.630   1.906   4.405  1.1419  0.5457 -1.0149
 2044SOL    HW3 7943   3.528   1.957   4.505  2.2687 -1.8590  1.4622
 2044SOL    MW4 7944   3.595   1.971   4.452  0.6753 -0.2359 -0.2379
 2045SOL     OW 7945   5.648   4.562   2.291 -0.0439  0.3814 -0.0306
 2045SOL    HW2 7946   5.698   4.487   2.258  1.6589  1.3979  0.0879
 2045SOL    HW3 7947   5.682   4.637   2.242  0.2196  1.4540  1.6806
 2045SOL    MW4 7948   5.659   4.562   2.280  0.2155  0.6570  0.2108
 2046SOL     OW 7949   0.120   4.990   5.348 -0.1799 -0.4237  0.2076
 2046SOL    HW2 7950   0.077   4.905   5.348  0.0622 -0.5648 -0.8812
 2046SOL    HW3 7951   0.089   5.033   5.268 -0.6685  0.7126  0.9778
 2046SOL    MW4 7952   0.110   4.985   5.337 -0.2124 -0.2924  0.1655
 2047SOL     OW 7953   0.030   4.406   2.699 -0.5341 -0.3998  0.5888
 2047SOL    HW2 7954  -0.008   4.451   2.775  0.9379 -0.8927  1.6633
 2047SOL    HW3 7955  -0.046   4.370   2.653 -1.8354  3.1315 -0.3996
 2047SOL    MW4 7956   0.015   4.407   2.703 -0.5116  0.0011  0.6002
 2048SOL     OW 7957   4.206   5.434   2.525  0.2595 -0.0235 -0.3774
 2048SOL    HW2 7958   4.246   5.412   2.609 -1.3282  1.5346  0.8662
 2048SOL    HW3 7959   4.259   5.506   2.491  1.2048 -0.9792 -1.0141
 2048SOL    MW4 7960   4.218   5.440   2.531  0.1747  0.0560 -0.2974
 2049SOL     OW 7961   2.935   0.919   3.262 -0.2347 -0.4128 -0.4185
 2049SOL    HW2 7962   2.878   0.930   3.338  0.2479 -0.3267 -0.0617
 2049SOL    HW3 7963   2.885   0.952   3.188  0.2884  2.0537  0.2508
 2049SOL    MW4 7964   2.921   0.925   3.262 -0.1020 -0.0761 -0.2831
 2050SOL     OW 7965   4.459   0.190   1.977 -0.2492 -0.6679  0.3356
 2050SOL    HW2 7966   4.450   0.182   2.072 -0.2689 -1.1670  0.2937
 2050SOL    HW3 7967   4.527   0.257   1.965 -0.7108 -0.1193  0.6908
 2050SOL    MW4 7968   4.466   0.198   1.988 -0.3127 -0.6614  0.3769
 2051SOL     OW 7969   2.156   4.478   1.674 -0.5284 -0.1035 -0.6785
 2051SOL    HW2 7970   2.085   4.529   1.713  0.0337 -0.5695  1.0600
 2051SOL    HW3 7971   2.121   4.447   1.591 -1.3829  1.9025 -1.1187
 2051SOL    MW4 7972   2.142   4.481   1.668 -0.5670  0.0997 -0.5072
 2052SOL     OW 7973   1.233   5.721   2.788 -0.1849 -0.6263 -0.0330
 2052SOL    HW2 7974   1.276   5.704   2.705 -1.2156  1.3768 -1.0546
 2052SOL    HW3 7975   1.167   5.787   2.768 -1.7459 -1.4549  2.0286
 2052SOL    MW4 7976   1.230   5.728   2.775 -0.5268 -0.4713  0.1042
 2053SOL     OW 7977   2.547   6.364   3.031 -0.0259 -0.0505 -0.0628
 2053SOL    HW2 7978   2.479   6.341   2.968 -0.0320 -1.6873  0.4802
 2053SOL    HW3 7979   2.558   6.458   3.023  0.8388 -0.3338 -3.3974
 2053SOL    MW4 7980   2.539   6.373   3.022  0.0874 -0.3038 -0.4311
 2054SOL     OW 7981   2.402   4.359   4.934  0.2947 -0.5418 -0.2390
 2054SOL    HW2 7982   2.384   4.430   4.996 -0.3711  1.9442 -3.0808
 2054SOL    HW3 7983   2.486   4.382   4.894 -0.1300 -1.1048 -1.5071
 2054SOL    MW4 7984   2.411   4.371   4.937  0.1508 -0.2881 -0.7813
 2055SOL     OW 7985   5.329   4.553   1.708 -0.3080  0.0132  0.6395
 2055SOL    HW2 7986   5.311   4.571   1.616 -0.2664  1.3340  0.8736
 2055SOL    HW3 7987   5.305   4.634   1.754  0.0194 -0.4937  1.7496
 2055SOL    MW4 7988   5.323   4.566   1.702 -0.2593  0.1206  0.8169
 2056SOL     OW 7989   1.183   1.206   1.233 -0.6951  0.3928  0.5323
 2056SOL    HW2 7990   1.151   1.296   1.227 -0.9541  0.2681  0.0242
 2056SOL    HW3 7991   1.117   1.161   1.286  0.1396  0.8187  1.9914
 2056SOL    MW4 7992   1.170   1.212   1.240 -0.6191  0.4325  0.6578
 2057SOL     OW 7993   1.492   4.051   5.187 -0.1775 -0.4818 -0.3514
 2057SOL    HW2 7994   1.440   3.983   5.229 -1.3642 -0.5166 -1.7813
 2057SOL    HW3 7995   1.517   4.013   5.103 -0.0852  0.5124 -0.7871
 2057SOL    MW4 7996   1.488   4.037   5.181 -0.3219 -0.3552 -0.5975
 2058SOL     OW 7997   0.472   2.349   0.363 -0.4635  0.2475  0.0048
 2058SOL    HW2 7998   0.406   2.395   0.311 -1.2106  0.4274  1.0870
 2058SOL    HW3 7999   0.555   2.391   0.340 -1.2631  3.4558  2.2458
 2058SOL    MW4 8000   0.474   2.360   0.353 -0.6676  0.6945  0.4433
 2059SOL     OW 8001   2.645   1.127   2.750 -0.0665 -0.0246 -0.3978
 2059SOL    HW2 8002   2.624   1.220   2.739 -1.1790  0.0784  1.9797
 2059SOL    HW3 8003   2.599   1.083   2.678 -0.2607  1.1539 -1.0241
 2059SOL    MW4 8004   2.636   1.133   2.739 -0.2389  0.1445 -0.1668
 2060SOL     OW 8005   5.910   5.268   4.711  0.4349 -0.7467  0.1152
 2060SOL    HW2 8006   5.874   5.231   4.791  0.8613  0.6848  1.0037
 2060SOL    HW3 8007   5.986   5.319   4.740 -0.5209  1.3912 -0.9387
 2060SOL    MW4 8008   5.916   5.269   4.725  0.3650 -0.2758  0.0934
 2061SOL     OW 8009   1.655   1.552   0.923 -0.5196 -0.1274 -0.6345
 2061SOL    HW2 8010   1.703   1.605   0.860  0.6242 -2.0000 -1.4086
 2061SOL    HW3 8011   1.699   1.567   1.006  0.0859 -0.1943 -0.9371
 2061SOL    MW4 8012   1.667   1.561   0.925 -0.2888 -0.3833 -0.7766
 2062SOL     OW 8013   4.503   0.204   3.910  0.3243  0.1580  0.1665
 2062SOL    HW2 8014   4.567   0.219   3.980  1.3856 -0.3660 -0.6522
 2062SOL    HW3 8015   4.455   0.126   3.936  1.5475 -0.7630 -0.2328
 2062SOL    MW4 8016   4.505   0.196   3.923  0.6257 -0.0326  0.0058
 2063SOL     OW 8017   3.402   2.620   0.965  0.0553 -0.6101 -1.0704
 2063SOL    HW2 8018   3.481   2.605   1.017  0.6292 -0.7889 -1.9634
 2063SOL    HW3 8019   3.387   2.537   0.920 -0.1781 -0.3282 -1.5188
 2063SOL    MW4 8020   3.410   2.607   0.966  0.1002 -0.5965 -1.2474
 2064SOL     OW 8021   2.232   4.609   5.013 -0.0994 -0.3624  0.1163
 2064SOL    HW2 8022   2.278   4.606   4.929  0.4048  0.1035  0.3672
 2064SOL    HW3 8023   2.141   4.629   4.990  0.1426  0.3130 -0.2973
 2064SOL    MW4 8024   2.226   4.611   4.999 -0.0009 -0.2118  0.0948
 2065SOL     OW 8025   1.963   1.203   6.176 -0.0437 -0.0448 -0.3908
 2065SOL    HW2 8026   1.930   1.133   6.119 -2.3433  1.2801 -0.7966
 2065SOL    HW3 8027   1.894   1.214   6.242 -0.3972  2.6470 -1.0850
 2065SOL    MW4 8028   1.949   1.195   6.177 -0.3937  0.4851 -0.5359
 2066SOL     OW 8029   1.115   6.265   2.963 -0.2860  0.2000  0.3294
 2066SOL    HW2 8030   1.040   6.206   2.972  0.0158 -0.0777  1.0769
 2066SOL    HW3 8031   1.113   6.319   3.042  0.6554 -0.2263  0.6620
 2066SOL    MW4 8032   1.105   6.264   2.975 -0.1220  0.1071  0.4719
 2067SOL     OW 8033   2.222   2.461   2.907  0.0388  0.3951  0.4976
 2067SOL    HW2 8034   2.210   2.551   2.936  0.7814  0.6299  0.0984
 2067SOL    HW3 8035   2.174   2.457   2.824 -0.7880  0.1531  0.9796
 2067SOL    MW4 8036   2.214   2.472   2.900  0.0277  0.3942  0.5085
 2068SOL     OW 8037   1.373   1.323   2.766 -0.1214 -0.0121  0.6728
 2068SOL    HW2 8038   1.377   1.325   2.861 -1.3489  0.9641  0.7165
 2068SOL    HW3 8039   1.465   1.317   2.739  0.1873 -1.8177  1.9088
 2068SOL    MW4 8040   1.386   1.323   2.775 -0.2426 -0.1215  0.8417
 2069SOL     OW 8041   1.738   0.764   1.225 -0.2731 -0.7471  0.7374
 2069SOL    HW2 8042   1.690   0.683   1.241  0.1243 -0.7723  1.9106
 2069SOL    HW3 8043   1.811   0.762   1.288  1.7973 -1.1035 -1.5041
 2069SOL    MW4 8044   1.742   0.753   1.235  0.0525 -0.7975  0.5964
 2070SOL     OW 8045   3.315   2.686   3.758 -0.2301  0.0008  0.2313
 2070SOL    HW2 8046   3.360   2.763   3.791 -0.5303 -0.5013  1.8814
 2070SOL    HW3 8047   3.237   2.720   3.715 -0.6589  0.5977  1.4535
 2070SOL    MW4 8048   3.311   2.700   3.757 -0.3263  0.0133  0.6103
 2071SOL     OW 8049   5.102   6.333   1.902 -0.0216 -0.6756 -0.5995
 2071SOL    HW2 8050   5.016   6.335   1.945  0.4518 -0.2177  0.3544
 2071SOL    HW3 8051   5.122   6.240   1.892  0.1100 -0.8138  0.7249
 2071SOL    MW4 8052   5.093   6.321   1.907  0.0582 -0.6334 -0.2989
 2072SOL     OW 8053   5.743   5.360   4.113  0.2669 -0.3620  0.2353
 2072SOL    HW2 8054   5.779   5.437   4.157  0.1056 -0.3642  0.3714
 2072SOL    HW3 8055   5.648   5.367   4.126  0.1550  0.0150 -0.7170
 2072SOL    MW4 8056   5.735   5.371   4.121  0.2309 -0.3125  0.1276
 2073SOL     OW 8057   0.614   6.079   0.322 -0.1797  0.0111  0.1012
 2073SOL    HW2 8058   0.609   6.156   0.378 -0.3179  0.4367 -0.4804
 2073SOL    HW3 8059   0.522   6.056   0.307 -0.1332 -0.5643  0.6654
 2073SOL    MW4 8060   0.601   6.086   0.327 -0.1918 -0.0086  0.0989
 2074SOL     OW 8061   2.630   5.407   5.348  0.3903 -0.0909 -0.1576
 2074SOL    HW2 8062   2.604   5.402   5.440  0.5439  1.7384  0.0143
 2074SOL    HW3 8063   2.714   5.360   5.344 -0.8562 -2.4544  0.0848
 2074SOL    MW4 8064   2.638   5.400   5.360  0.2461 -0.1614 -0.1030
 2075SOL     OW 8065   3.151   3.509   3.502  0.0929 -0.3544 -0.4085
 2075SOL    HW2 8066   3.061   3.537   3.518  0.4192 -0.4546  2.0333
 2075SOL    HW3 8067   3.198   3.532   3.582  1.8980 -1.7554 -0.9841
 2075SOL    MW4 8068   3.146   3.516   3.515  0.3741 -0.5525 -0.1623
 2076SOL     OW 8069   5.147   6.367   4.631 -0.4814 -0.4639 -0.3061
 2076SOL    HW2 8070   5.127   6.288   4.581 -2.7102 -0.9748  1.2583
 2076SOL    HW3 8071   5.094   6.436   4.590  1.0535  0.1749 -1.3314
 2076SOL    MW4 8072   5.137   6.366   4.619 -0.5729 -0.4470 -0.2350
 2077SOL     OW 8073   5.535   0.272   0.788  0.1657  0.1233  0.1090
 2077SOL    HW2 8074   5.561   0.238   0.702 -1.5658  0.7758 -0.7192
 2077SOL    HW3 8075   5.517   0.194   0.840  0.2999 -0.2802 -0.4444
 2077SOL    MW4 8076   5.536   0.257   0.784 -0.0451  0.1561 -0.0733
 2078SOL     OW 8077   3.553   3.132   4.852 -0.1130  0.1029  0.2616
 2078SOL    HW2 8078   3.469   3.146   4.898  0.0585  1.6285  0.1809
 2078SOL    HW3 8079   3.545   3.186   4.773  0.3732 -0.9336 -0.5016
 2078SOL    MW4 8080   3.541   3.141   4.848 -0.0262  0.1674  0.1503
 2079SOL     OW 8081   1.245   5.480   0.839  0.0616  0.4509 -0.1012
 2079SOL    HW2 8082   1.255   5.387   0.859 -0.9007  0.0085 -1.5312
 2079SOL    HW3 8083   1.175   5.510   0.896 -0.0731  0.1465 -0.1075
 2079SOL    MW4 8084   1.237   5.472   0.849 -0.0832  0.3524 -0.2907
 2080SOL     OW 8085   0.729   4.318   4.206  0.1669 -0.1618  0.7024
 2080SOL    HW2 8086   0.666   4.307   4.277  0.4912 -1.9460  0.7415
 2080SOL    HW3 8087   0.724   4.411   4.184 -0.1352  0.3784  2.8654
 2080SOL    MW4 8088   0.720   4.329   4.212  0.1698 -0.3259  0.9930
 2081SOL     OW 8089   0.106   4.861   4.607  0.3621  0.2010 -0.3321
 2081SOL    HW2 8090   0.053   4.932   4.645 -0.3346  0.7541 -2.1917
 2081SOL    HW3 8091   0.187   4.861   4.658 -0.3603  1.1286  0.8675
 2081SOL    MW4 8092   0.110   4.871   4.619  0.1749  0.3964 -0.4192
 2082SOL     OW 8093   4.745   1.535   6.267 -0.2610  0.1845 -0.3589
 2082SOL    HW2 8094   4.803   1.506   6.337 -1.6373 -0.0973  0.7015
 2082SOL    HW3 8095   4.800   1.592   6.213  0.0230  3.3644  2.9062
 2082SOL    MW4 8096   4.760   1.539   6.269 -0.4051  0.5669  0.2118
 2083SOL     OW 8097   3.551   2.106   3.440  0.2721  0.5605 -0.1324
 2083SOL    HW2 8098   3.576   2.026   3.487 -1.8508 -0.1267 -0.0582
 2083SOL    HW3 8099   3.545   2.079   3.348  0.9721  1.0172 -0.3187
 2083SOL    MW4 8100   3.554   2.092   3.434  0.0844  0.5301 -0.1472
 2084SOL     OW 8101   0.070   5.628   2.800 -0.0586  0.5191 -0.4250
 2084SOL    HW2 8102   0.122   5.706   2.784  0.3178  0.6422  1.1940
 2084SOL    HW3 8103   0.032   5.642   2.887  2.1250 -2.1676  1.1532
 2084SOL    MW4 8104   0.072   5.640   2.810  0.2792  0.1809 -0.0032
 2085SOL     OW 8105   0.828   0.881   2.801 -0.0397  0.0123 -0.4074
 2085SOL    HW2 8106   0.902   0.929   2.839 -0.2582  0.4896 -0.5758
 2085SOL    HW3 8107   0.787   0.944   2.742 -0.9580 -0.0463  0.1571
 2085SOL    MW4 8108   0.832   0.896   2.798 -0.1897  0.0676 -0.3551
 2086SOL     OW 8109   6.124   3.316   3.944  0.1122  0.4089 -0.4254
 2086SOL    HW2 8110   6.076   3.263   3.881  0.7978 -2.8603  1.5533
 2086SOL    HW3 8111   6.213   3.321   3.909  0.5209 -1.4938  0.2594
 2086SOL    MW4 8112   6.129   3.310   3.931  0.2566 -0.2734 -0.0740
 2087SOL     OW 8113   5.311   5.669   0.240 -0.1641  0.0450 -0.0229
 2087SOL    HW2 8114   5.364   5.595   0.268 -1.9426 -1.0424  0.6483
 2087SOL    HW3 8115   5.352   5.698   0.159  1.1140 -1.1029  0.1763
 2087SOL    MW4 8116   5.323   5.663   0.233 -0.2301 -0.2499  0.0920
 2088SOL     OW 8117   5.582   2.782   2.318 -0.8314 -0.0997  0.0406
 2088SOL    HW2 8118   5.539   2.703   2.351 -1.8191  0.4564  0.1125
 2088SOL    HW3 8119   5.633   2.814   2.393  0.1347 -1.0199 -0.1880
 2088SOL    MW4 8120   5.583   2.776   2.332 -0.8343 -0.1478  0.0199
 2089SOL     OW 8121   6.297   0.189   3.349 -0.1399  0.3106 -0.7627
 2089SOL    HW2 8122   6.355   0.170   3.423 -3.0676 -0.7972  1.4183
 2089SOL    HW3 8123   6.311   0.282   3.331  1.1556  0.4381  0.7132
 2089SOL    MW4 8124   6.307   0.199   3.356 -0.3553  0.1812 -0.2802
 2090SOL     OW 8125   4.404   5.864   3.651  0.3949  0.0395  0.0851
 2090SOL    HW2 8126   4.471   5.823   3.705  1.6786  0.1098 -1.3826
 2090SOL    HW3 8127   4.451   5.929   3.599 -0.4618 -1.0482 -2.2155
 2090SOL    MW4 8128   4.419   5.867   3.651  0.4513 -0.0948 -0.4121
 2091SOL     OW 8129   0.502   6.009   2.570  0.0331 -0.1183  0.1912
 2091SOL    HW2 8130   0.418   6.037   2.606  0.2031 -1.1746  1.5341
 2091SOL    HW3 8131   0.484   5.987   2.479 -0.7709  1.2250  0.0066
 2091SOL    MW4 8132   0.489   6.010   2.563 -0.0506 -0.0805  0.3440
 2092SOL     OW 8133   3.238   2.989   1.179  0.6926  0.0181  0.3615
 2092SOL    HW2 8134   3.315   3.007   1.233  1.2206  0.0219 -0.3744
 2092SOL    HW3 8135   3.199   3.075   1.164  0.9016  0.0881  0.2151
 2092SOL    MW4 8136   3.243   3.003   1.184  0.7898  0.0278  0.2451
 2093SOL     OW 8137   0.517   4.321   4.833 -0.3206  0.0085 -0.2803
 2093SOL    HW2 8138   0.525   4.232   4.799  0.4948 -0.3522  0.7873
 2093SOL    HW3 8139   0.430   4.324   4.873  0.1550 -0.7692  0.8735
 2093SOL    MW4 8140   0.507   4.310   4.834 -0.1503 -0.1417  0.0128
 2094SOL     OW 8141   1.177   3.283   6.258  0.2843  0.5401 -0.1589
 2094SOL    HW2 8142   1.272   3.290   6.269  0.5193 -1.5364 -0.3763
 2094SOL    HW3 8143   1.164   3.198   6.216 -1.6594  0.9924 -0.5748
 2094SOL    MW4 8144   1.188   3.273   6.254  0.0589  0.3258 -0.2424
 2095SOL     OW 8145   0.115   4.253   5.256  0.1652  0.1063  0.2143
 2095SOL    HW2 8146   0.084   4.170   5.219 -0.5139 -0.1277  1.2896
 2095SOL    HW3 8147   0.103   4.316   5.185 -2.8229  0.0328  0.5459
 2095SOL    MW4 8148   0.109   4.250   5.241 -0.3186  0.0657  0.3999
 2096SOL     OW 8149   1.727   4.413   1.478 -0.5903  0.4939  0.2433
 2096SOL    HW2 8150   1.666   4.355   1.524 -0.9941  0.2193 -0.6173
 2096SOL    HW3 8151   1.671   4.463   1.418  0.2172 -1.0381 -1.8791
 2096SOL    MW4 8152   1.711   4.412   1.477 -0.5370  0.2555 -0.1503
 2097SOL     OW 8153   5.299   6.049   4.263  0.6837 -0.0131  0.3925
 2097SOL    HW2 8154   5.350   6.052   4.344  1.4036 -0.0081 -0.0460
 2097SOL    HW3 8155   5.341   6.113   4.206  0.5075 -0.3811 -0.1628
 2097SOL    MW4 8156   5.312   6.058   4.266  0.7555 -0.0610  0.2614
 2098SOL     OW 8157   5.346   1.227   3.408  0.3789 -0.7130 -0.3932
 2098SOL    HW2 8158   5.253   1.208   3.398 -0.1841  1.8267 -0.8424
 2098SOL    HW3 8159   5.351   1.277   3.490  1.3899 -1.1085 -0.2055
 2098SOL    MW4 8160   5.334   1.231   3.417  0.4380 -0.4301 -0.4277
 2099SOL     OW 8161   4.006   2.600   0.806 -0.3842  0.3172  0.0281
 2099SOL    HW2 8162   3.963   2.540   0.868  0.8724 -1.9880 -1.1915
 2099SOL    HW3 8163   4.066   2.651   0.861 -0.3972 -0.5959  0.9294
 2099SOL    MW4 8164   4.009   2.599   0.822 -0.2201 -0.1074 -0.0139
 2100SOL     OW 8165   1.806   5.541   0.682 -0.0129 -0.8349 -0.0362
 2100SOL    HW2 8166   1.878   5.604   0.686 -0.2278 -0.5863 -0.0923
 2100SOL    HW3 8167   1.749   5.573   0.612 -0.1542 -1.0571 -0.0250
 2100SOL    MW4 8168   1.808   5.553   0.673 -0.0599 -0.8314 -0.0421
 2101SOL     OW 8169   1.149   1.967   4.432 -0.5229  0.0602 -0.4778
 2101SOL    HW2 8170   1.168   1.973   4.525 -0.3516  2.7332 -0.6100
 2101SOL    HW3 8171   1.224   2.006   4.388 -1.3570  0.4601 -1.6256
 2101SOL    MW4 8172   1.161   1.973   4.438 -0.6103  0.4656 -0.6467
 2102SOL     OW 8173   1.168   2.134   3.138 -0.0931  0.0339  0.0937
 2102SOL    HW2 8174   1.114   2.151   3.061 -0.0795 -0.9190 -0.1356
 2102SOL    HW3 8175   1.134   2.194   3.205 -0.7314  0.1964 -0.3639
 2102SOL    MW4 8176   1.156   2.145   3.137 -0.1755 -0.0704  0.0031
 2103SOL     OW 8177   1.659   0.006   6.417 -0.3078 -0.2287 -0.3665
 2103SOL    HW2 8178   1.671  -0.077   6.371 -0.7529 -0.3557 -0.2619
 2103SOL    HW3 8179   1.568   0.030   6.400  0.5041  1.5681 -2.5607
 2103SOL    MW4 8180   1.649  -0.002   6.409 -0.2594 -0.0084 -0.6422
 2104SOL     OW 8181   4.187   5.923   5.071  0.6792  0.5848 -0.2240
 2104SOL    HW2 8182   4.157   6.012   5.052 -0.6757  0.6084  1.7149
 2104SOL    HW3 8183   4.106   5.874   5.089  1.4317 -0.9593 -0.9043
 2104SOL    MW4 8184   4.172   5.928   5.071  0.5997  0.3842 -0.0579
 2105SOL     OW 8185   2.784   2.931   1.974 -0.2133  0.0009 -0.0243
 2105SOL    HW2 8186   2.692   2.941   1.951 -0.2643 -1.0195 -0.2953
 2105SOL    HW3 8187   2.784   2.916   2.068 -0.3537 -0.4017 -0.0888
 2105SOL    MW4 8188   2.772   2.930   1.983 -0.2386 -0.1869 -0.0686
 2106SOL     OW 8189   3.780   4.933   2.947 -0.7064  0.2103  0.2813
 2106SOL    HW2 8190   3.691   4.954   2.978  0.6167  2.5145  2.9598
 2106SOL    HW3 8191   3.804   5.007   2.892  0.3874  0.8599  1.5752
 2106SOL    MW4 8192   3.771   4.945   2.944 -0.3875  0.6000  0.8054
 2107SOL     OW 8193   2.236   0.103   4.207  0.3175 -0.4701 -0.3272
 2107SOL    HW2 8194   2.179   0.163   4.159 -0.7132 -0.5440  0.7570
 2107SOL    HW3 8195   2.177   0.035   4.240  1.3183 -1.5482 -0.6959
 2107SOL    MW4 8196   2.220   0.102   4.205  0.3136 -0.6221 -0.2328
 2108SOL     OW 8197   1.845   5.646   4.814 -0.1903  0.5501 -0.9264
 2108SOL    HW2 8198   1.843   5.667   4.908 -0.3702 -0.1380 -0.7748
 2108SOL    HW3 8199   1.772   5.586   4.802  0.3576 -0.0318 -1.3492
 2108SOL    MW4 8200   1.835   5.641   4.825 -0.1418  0.3825 -0.9622
 2109SOL     OW 8201   0.607   1.157   1.723 -0.8783 -0.2342 -0.0291
 2109SOL    HW2 8202   0.693   1.174   1.760 -0.7093 -1.0338 -0.0353
 2109SOL    HW3 8203   0.554   1.126   1.796 -0.9398 -0.4760 -0.1733
 2109SOL    MW4 8204   0.612   1.155   1.737 -0.8642 -0.3716 -0.0489
 2110SOL     OW 8205   4.528   0.700   0.969 -0.1841 -0.1665 -0.1000
 2110SOL    HW2 8206   4.501   0.611   0.994 -1.4429 -0.6784 -2.9033
 2110SOL    HW3 8207   4.618   0.690   0.937  0.2932 -0.0859  1.1848
 2110SOL    MW4 8208   4.536   0.687   0.968 -0.2872 -0.2234 -0.3004
 2111SOL     OW 8209   3.474   3.255   3.460 -0.2117  0.1221  0.6558
 2111SOL    HW2 8210   3.445   3.283   3.373  0.5519  2.2080  1.0241
 2111SOL    HW3 8211   3.527   3.176   3.443 -0.1996  0.3993 -0.7457
 2111SOL    MW4 8212   3.477   3.248   3.446 -0.1093  0.4339  0.5195
 2112SOL     OW 8213   1.139   5.982   5.127 -0.9393 -0.0604 -0.1915
 2112SOL    HW2 8214   1.091   5.970   5.209  0.0304  0.2732  0.4414
 2112SOL    HW3 8215   1.097   5.922   5.066 -1.1572 -0.9242  0.7760
 2112SOL    MW4 8216   1.127   5.973   5.130 -0.8401 -0.1303  0.0197
 2113SOL     OW 8217   4.398   0.152   5.105 -0.2013 -0.5276 -0.5674
 2113SOL    HW2 8218   4.443   0.114   5.180 -0.9374 -2.2570 -0.9641
 2113SOL    HW3 8219   4.309   0.168   5.136  0.3557  2.0924 -0.0459
 2113SOL    MW4 8220   4.392   0.149   5.119 -0.2249 -0.4101 -0.5509
 2114SOL     OW 8221   4.900   2.017   1.370  0.2256 -0.6246 -0.4298
 2114SOL    HW2 8222   4.909   2.025   1.275  2.7219  0.8045 -0.1684
 2114SOL    HW3 8223   4.974   1.963   1.397  1.0682  1.0975  0.8931
 2114SOL    MW4 8224   4.911   2.011   1.361  0.6662 -0.2088 -0.2208
 2115SOL     OW 8225   5.557   3.741   2.895  0.6938  0.0353  0.1044
 2115SOL    HW2 8226   5.517   3.823   2.865 -0.1738 -1.1355 -2.2102
 2115SOL    HW3 8227   5.531   3.733   2.986 -0.7113  1.4677 -0.1240
 2115SOL    MW4 8228   5.549   3.751   2.903  0.3940  0.0698 -0.2311
 2116SOL     OW 8229   3.661   5.008   2.601  0.3473 -0.4570  0.3413
 2116SOL    HW2 8230   3.641   4.925   2.645  0.4898 -0.9344 -0.4903
 2116SOL    HW3 8231   3.611   5.005   2.520  0.0263  0.4592  0.4992
 2116SOL    MW4 8232   3.652   4.997   2.596  0.3238 -0.3991  0.2524
 2117SOL     OW 8233   5.381   1.255   2.923  0.1066  0.8488  0.3602
 2117SOL    HW2 8234   5.472   1.256   2.894 -0.3190  1.7029 -1.0350
 2117SOL    HW3 8235   5.331   1.234   2.844 -0.7873 -2.0807  1.5734
 2117SOL    MW4 8236   5.387   1.252   2.909 -0.0675  0.5750  0.3362
 2118SOL     OW 8237   2.920   0.430   5.212  0.4340 -0.1041 -0.6014
 2118SOL    HW2 8238   2.914   0.343   5.252  2.1544  0.3100  0.6677
 2118SOL    HW3 8239   2.834   0.470   5.229  0.0675 -1.0894 -0.0520
 2118SOL    MW4 8240   2.908   0.424   5.220  0.6126 -0.1794 -0.3614
 2119SOL     OW 8241   3.224   4.648   2.196 -0.0436  0.0116  0.3491
 2119SOL    HW2 8242   3.260   4.559   2.198 -1.0997 -0.4923 -1.1228
 2119SOL    HW3 8243   3.214   4.672   2.288  2.5673 -0.3960  0.8052
 2119SOL    MW4 8244   3.227   4.639   2.209  0.1616 -0.1086  0.2151
 2120SOL     OW 8245   2.261   2.324   0.172  0.0533  0.4171 -0.1869
 2120SOL    HW2 8246   2.258   2.236   0.135  0.3538  0.1806  0.3350
 2120SOL    HW3 8247   2.196   2.373   0.122  1.8299  0.6646 -2.3743
 2120SOL    MW4 8248   2.252   2.319   0.161  0.3274  0.4186 -0.4066
 2121SOL     OW 8249   1.654   1.611   3.474 -0.6173 -0.3233  0.3674
 2121SOL    HW2 8250   1.566   1.575   3.484 -1.3531  1.2949  0.0789
 2121SOL    HW3 8251   1.651   1.660   3.392  1.2906 -2.1712 -0.9243
 2121SOL    MW4 8252   1.642   1.613   3.464 -0.4627 -0.3536  0.1589
 2122SOL     OW 8253   6.200   4.653   1.142 -0.1261 -0.0991  0.0279
 2122SOL    HW2 8254   6.242   4.633   1.226 -0.9440  2.0503  1.0303
 2122SOL    HW3 8255   6.106   4.649   1.160 -0.3390 -0.8324 -1.1342
 2122SOL    MW4 8256   6.193   4.650   1.155 -0.2621  0.0877  0.0068
 2123SOL     OW 8257   5.317   3.858   5.701  0.5413  0.4143 -0.7663
 2123SOL    HW2 8258   5.259   3.810   5.642  0.3137  0.7523 -0.8164
 2123SOL    HW3 8259   5.269   3.865   5.783 -0.4020  2.5778 -1.4580
 2123SOL    MW4 8260   5.303   3.852   5.704  0.3868  0.7443 -0.8642
 2124SOL     OW 8261   2.057   4.394   4.627  0.2482  0.3014 -0.0980
 2124SOL    HW2 8262   2.002   4.388   4.705  0.2477 -0.8686 -0.1711
 2124SOL    HW3 8263   1.996   4.400   4.554  0.1185 -2.6476 -0.3197
 2124SOL    MW4 8264   2.042   4.394   4.628  0.2310 -0.2420 -0.1369
 2125SOL     OW 8265   5.599   1.990   2.823  0.0844 -0.1421 -0.7169
 2125SOL    HW2 8266   5.655   2.065   2.843  0.8492 -0.3545 -1.9745
 2125SOL    HW3 8267   5.597   1.986   2.727 -1.7378 -0.4134 -0.7067
 2125SOL    MW4 8268   5.606   2.000   2.813 -0.0551 -0.2059 -0.8815
 2126SOL     OW 8269   4.094   3.966   0.165  0.4864  0.1479  0.2866
 2126SOL    HW2 8270   4.128   3.963   0.254  1.3741  0.7798 -0.0225
 2126SOL    HW3 8271   4.006   4.002   0.174  1.2769  2.1088  0.7411
 2126SOL    MW4 8272   4.087   3.971   0.178  0.7078  0.4900  0.3058
 2127SOL     OW 8273   4.415   1.627   3.191 -0.0020 -0.4968  0.0615
 2127SOL    HW2 8274   4.371   1.587   3.266  0.3270  0.0034  0.5293
 2127SOL    HW3 8275   4.485   1.565   3.168  1.0467  0.1539  1.3124
 2127SOL    MW4 8276   4.419   1.614   3.198  0.1798 -0.3450  0.2883
 2128SOL     OW 8277   1.353   5.694   3.842  0.4401 -0.5563 -0.0066
 2128SOL    HW2 8278   1.278   5.657   3.796  1.8607 -2.9884 -0.5573
 2128SOL    HW3 8279   1.318   5.768   3.891 -1.7133  0.3007 -2.6125
 2128SOL    MW4 8280   1.339   5.699   3.842  0.3434 -0.7641 -0.4230
 2129SOL     OW 8281   0.534   2.305   4.006  0.1101  0.0455  0.2287
 2129SOL    HW2 8282   0.473   2.249   4.054  0.2727 -0.3403 -0.0188
 2129SOL    HW3 8283   0.570   2.363   4.074 -0.4346  0.1932  0.3970
 2129SOL    MW4 8284   0.531   2.306   4.022  0.0597  0.0141  0.2183
 2130SOL     OW 8285   0.335   4.996   4.010 -0.4382  0.2257  0.0543
 2130SOL    HW2 8286   0.375   4.937   4.074  0.4045  1.2275  0.4759
 2130SOL    HW3 8287   0.262   4.946   3.973  0.7400 -1.3816 -0.2007
 2130SOL    MW4 8288   0.330   4.982   4.013 -0.1716  0.1458  0.0763
 2131SOL     OW 8289   5.524   0.096   3.793 -0.0974  0.1820 -0.0471
 2131SOL    HW2 8290   5.553   0.007   3.769 -0.2382 -0.3993  1.7824
 2131SOL    HW3 8291   5.463   0.082   3.865 -0.3519  1.7639  0.0659
 2131SOL    MW4 8292   5.520   0.082   3.799 -0.1495  0.3140  0.2092
 2132SOL     OW 8293   4.039   0.549   2.938  0.4381  0.2833 -0.1925
 2132SOL    HW2 8294   3.955   0.594   2.941 -0.3746 -1.1697 -0.3238
 2132SOL    HW3 8295   4.027   0.472   2.993  0.7517 -1.4009 -2.3442
 2132SOL    MW4 8296   4.026   0.545   2.946  0.3722 -0.1306 -0.4937
 2133SOL     OW 8297   6.283   4.778   1.929  0.0792  0.2403 -0.5522
 2133SOL    HW2 8298   6.233   4.849   1.889 -1.2544 -0.3300  0.0291
 2133SOL    HW3 8299   6.239   4.698   1.901  0.4550 -0.2726  0.2523
 2133SOL    MW4 8300   6.271   4.777   1.920 -0.0472  0.0974 -0.3693
 2134SOL     OW 8301   3.739   3.790   0.911 -1.0434 -0.1986 -0.2618
 2134SOL    HW2 8302   3.650   3.819   0.931 -1.4990 -1.2064 -0.7732
 2134SOL    HW3 8303   3.728   3.704   0.870 -0.0001  0.7827 -2.7653
 2134SOL    MW4 8304   3.726   3.782   0.908 -0.9659 -0.2021 -0.6596
 2135SOL     OW 8305   5.992   4.831   1.553  0.2871  0.0588 -0.8788
 2135SOL    HW2 8306   5.985   4.808   1.460 -1.9396  0.7414 -0.9268
 2135SOL    HW3 8307   6.013   4.925   1.552  1.8922 -0.2722 -0.6615
 2135SOL    MW4 8308   5.994   4.841   1.540  0.2051  0.1052 -0.8565
 2136SOL     OW 8309   5.014   5.784   3.825 -0.0694 -0.6688  0.0040
 2136SOL    HW2 8310   5.043   5.763   3.913  1.6871 -0.3899 -0.4652
 2136SOL    HW3 8311   4.927   5.822   3.836 -0.1756 -1.3011  1.5287
 2136SOL    MW4 8312   5.007   5.786   3.838  0.1483 -0.7154  0.1433
 2137SOL     OW 8313   5.978   4.155   5.190 -0.3672 -0.2091 -0.4220
 2137SOL    HW2 8314   6.073   4.143   5.193 -0.4327 -0.6015  0.0869
 2137SOL    HW3 8315   5.959   4.213   5.264 -0.4411  0.4617 -0.9567
 2137SOL    MW4 8316   5.988   4.161   5.200 -0.3856 -0.1724 -0.4254
 2138SOL     OW 8317   2.020   4.712   0.906  0.2208  0.0309  0.1064
 2138SOL    HW2 8318   1.976   4.629   0.927 -0.3898  0.4743  0.5982
 2138SOL    HW3 8319   2.067   4.694   0.824 -0.5882 -0.5576 -0.2375
 2138SOL    MW4 8320   2.020   4.699   0.898  0.0335  0.0118  0.1259
 2139SOL     OW 8321   5.898   2.188   4.998 -0.2817 -0.5806  0.5163
 2139SOL    HW2 8322   5.934   2.176   5.086  0.7683 -1.4386  0.0013
 2139SOL    HW3 8323   5.836   2.116   4.987 -1.6165  0.4441  1.1148
 2139SOL    MW4 8324   5.895   2.177   5.008 -0.3192 -0.5586  0.5273
 2140SOL     OW 8325   1.103   2.737   1.342 -0.2944  0.3029  0.1622
 2140SOL    HW2 8326   1.037   2.670   1.362 -0.8024  0.2864 -1.4616
 2140SOL    HW3 8327   1.137   2.763   1.428 -1.7245 -0.3756  0.9649
 2140SOL    MW4 8328   1.099   2.731   1.356 -0.5501  0.2112  0.0539
 2141SOL     OW 8329   4.155   2.914   3.801 -0.0693  0.8021  0.0264
 2141SOL    HW2 8330   4.128   3.005   3.814  0.7280  0.8920  1.1891
 2141SOL    HW3 8331   4.192   2.888   3.886  0.5627 -0.3088 -0.5750
 2141SOL    MW4 8332   4.156   2.922   3.814  0.1193  0.6674  0.1005
 2142SOL     OW 8333   4.098   4.578   2.650  0.1272  0.0428 -0.2871
 2142SOL    HW2 8334   4.017   4.601   2.696 -0.2636  0.5814 -1.2051
 2142SOL    HW3 8335   4.102   4.482   2.656 -0.7271 -0.0125 -0.4506
 2142SOL    MW4 8336   4.088   4.568   2.657 -0.0371  0.1065 -0.4298
 2143SOL     OW 8337   0.518   6.180   3.363  0.9292 -0.6598 -0.1677
 2143SOL    HW2 8338   0.600   6.135   3.382 -0.0553 -2.0421  1.0113
 2143SOL    HW3 8339   0.450   6.123   3.399 -0.5001  0.9016 -0.2570
 2143SOL    MW4 8340   0.520   6.166   3.370  0.6107 -0.6362 -0.0239
 2144SOL     OW 8341   4.977   1.235   2.517 -0.0933 -0.4060  0.1332
 2144SOL    HW2 8342   4.935   1.171   2.575 -0.3501 -1.3552 -1.0574
 2144SOL    HW3 8343   5.050   1.187   2.478  0.3990  0.3832  0.0695
 2144SOL    MW4 8344   4.981   1.220   2.520 -0.0622 -0.4271 -0.0323
 2145SOL     OW 8345   4.045   1.061   2.253 -0.1045  0.1210 -0.6839
 2145SOL    HW2 8346   4.103   0.987   2.275 -2.4400 -1.2284  1.3768
 2145SOL    HW3 8347   4.028   1.050   2.160  0.4535 -1.3388 -0.6487
 2145SOL    MW4 8348   4.051   1.050   2.244 -0.3390 -0.2497 -0.4074
 2146SOL     OW 8349   3.059   3.729   0.778 -0.0109  0.2955 -0.4990
 2146SOL    HW2 8350   3.105   3.687   0.706  0.4786  0.0944 -0.0777
 2146SOL    HW3 8351   2.969   3.741   0.747 -0.2149 -1.2251 -0.5551
 2146SOL    MW4 8352   3.053   3.725   0.765  0.0268  0.0684 -0.4508
 2147SOL     OW 8353   3.618   1.775   5.894 -0.6854 -0.0645  0.0458
 2147SOL    HW2 8354   3.677   1.700   5.906  0.3577  1.0231  2.1917
 2147SOL    HW3 8355   3.657   1.825   5.823  0.0399 -0.2320  0.3192
 2147SOL    MW4 8356   3.631   1.771   5.886 -0.4521  0.0569  0.3650
 2148SOL     OW 8357   3.135   4.966   0.262 -0.6070 -0.0300 -0.1268
 2148SOL    HW2 8358   3.162   4.889   0.213 -0.0171 -0.7485  1.2522
 2148SOL    HW3 8359   3.123   5.034   0.196  1.4823 -0.5658 -1.1370
 2148SOL    MW4 8360   3.137   4.965   0.247 -0.2535 -0.1955 -0.0781
 2149SOL     OW 8361   5.042   2.750   3.750 -0.2458  0.2487 -0.4988
 2149SOL    HW2 8362   5.043   2.841   3.720 -0.7615  0.7843  0.9793
 2149SOL    HW3 8363   4.961   2.714   3.714 -0.2306  0.4929 -0.7825
 2149SOL    MW4 8364   5.031   2.757   3.741 -0.3118  0.3516 -0.3412
 2150SOL     OW 8365   4.924   3.162   2.463 -0.7900  0.7934 -0.4472
 2150SOL    HW2 8366   4.938   3.255   2.477  0.1775  1.1436 -3.0382
 2150SOL    HW3 8367   4.978   3.142   2.386 -1.5686 -1.7342 -0.4191
 2150SOL    MW4 8368   4.933   3.171   2.455 -0.7651  0.5061 -0.7854
 2151SOL     OW 8369   4.908   2.030   2.481  0.0488  0.3745 -0.6879
 2151SOL    HW2 8370   4.864   2.086   2.418  0.9875  0.7264 -1.0464
 2151SOL    HW3 8371   4.860   1.947   2.477 -1.2187  1.0679 -0.3038
 2151SOL    MW4 8372   4.896   2.026   2.472  0.0054  0.5124 -0.6845
 2152SOL     OW 8373   2.903   1.691   5.130 -0.2030  0.5935 -0.7405
 2152SOL    HW2 8374   2.919   1.610   5.178 -0.5535  0.7259 -0.3983
 2152SOL    HW3 8375   2.862   1.663   5.048 -0.6785  0.4489 -0.4570
 2152SOL    MW4 8376   2.900   1.677   5.125 -0.3120  0.5919 -0.6580
 2153SOL     OW 8377   3.582   4.643   1.898 -0.5058 -0.0175 -0.0465
 2153SOL    HW2 8378   3.611   4.702   1.967 -0.7465  0.0794 -0.0242
 2153SOL    HW3 8379   3.662   4.605   1.862 -0.1666  1.9595 -1.5305
 2153SOL    MW4 8380   3.596   4.646   1.903 -0.4928  0.2561 -0.2393
 2154SOL     OW 8381   6.061   4.989   4.634  0.2348  0.0056  0.1719
 2154SOL    HW2 8382   6.001   4.943   4.575 -0.2294  0.4926  0.2587
 2154SOL    HW3 8383   6.116   5.042   4.576  0.6696 -0.5351  0.0829
 2154SOL    MW4 8384   6.061   4.990   4.618  0.2309 -0.0015  0.1716
 2155SOL     OW 8385   1.696   3.481   4.171 -0.7526 -0.2083  0.3537
 2155SOL    HW2 8386   1.770   3.429   4.203 -0.6396 -1.3327 -1.5941
 2155SOL    HW3 8387   1.718   3.501   4.080 -1.8717  1.3232  0.3779
 2155SOL    MW4 8388   1.709   3.477   4.163 -0.8853 -0.1546  0.0999
 2156SOL     OW 8389   2.707   4.912   0.542  0.3383  0.2374 -0.5828
 2156SOL    HW2 8390   2.802   4.921   0.533  0.3504 -0.0519 -0.7485
 2156SOL    HW3 8391   2.696   4.836   0.599  0.2624  1.9376  1.8378
 2156SOL    MW4 8392   2.718   4.903   0.549  0.3299  0.4236 -0.2853
 2157SOL     OW 8393   4.864   5.056   4.263  0.3455  0.6976 -0.5483
 2157SOL    HW2 8394   4.865   5.078   4.170 -0.7322  0.4182 -0.6468
 2157SOL    HW3 8395   4.953   5.072   4.293  0.8364  0.3144 -1.7397
 2157SOL    MW4 8396   4.876   5.061   4.255  0.2681  0.6102 -0.7185
 2158SOL     OW 8397   5.193   5.283   2.829  0.0517  0.4224 -0.1812
 2158SOL    HW2 8398   5.224   5.270   2.919  1.6955 -1.2038 -0.9113
 2158SOL    HW3 8399   5.098   5.276   2.835  0.1853 -0.6361  1.3235
 2158SOL    MW4 8400   5.184   5.280   2.842  0.2862  0.0682 -0.0790
 2159SOL     OW 8401   1.640   5.334   2.843  0.2756 -0.4738 -0.2032
 2159SOL    HW2 8402   1.593   5.403   2.795  0.3010 -1.9272 -2.4434
 2159SOL    HW3 8403   1.729   5.367   2.851 -0.2381  0.7560  0.9048
 2159SOL    MW4 8404   1.645   5.348   2.838  0.2112 -0.5033 -0.3525
 2160SOL     OW 8405   2.900   5.036   1.128  0.7277  0.1403 -0.2925
 2160SOL    HW2 8406   2.824   4.989   1.093  0.9156  0.5082 -1.2175
 2160SOL    HW3 8407   2.897   5.019   1.222 -0.4450  0.0809 -0.3287
 2160SOL    MW4 8408   2.890   5.027   1.136  0.5978  0.1810 -0.4193
 2161SOL     OW 8409   0.687   1.192   2.100  0.5423 -0.0544 -0.1439
 2161SOL    HW2 8410   0.632   1.233   2.166  2.0676  1.2034  0.4012
 2161SOL    HW3 8411   0.713   1.108   2.139 -1.2731 -0.8719 -0.5899
 2161SOL    MW4 8412   0.683   1.186   2.114  0.5040  0.0037 -0.1308
 2162SOL     OW 8413   5.291   6.269   5.357  0.4477 -0.1449  0.0853
 2162SOL    HW2 8414   5.343   6.345   5.384  1.1471  0.2962 -2.2224
 2162SOL    HW3 8415   5.223   6.306   5.301 -0.4388 -1.0445  0.5545
 2162SOL    MW4 8416   5.289   6.284   5.353  0.4230 -0.2054 -0.1572
 2163SOL     OW 8417   4.629   0.076   0.856  0.6274 -0.5094 -0.3815
 2163SOL    HW2 8418   4.689   0.012   0.819  1.1801 -1.0355  1.3587
 2163SOL    HW3 8419   4.545   0.030   0.861  0.7193 -0.6695 -0.3135
 2163SOL    MW4 8420   4.626   0.062   0.851  0.7124 -0.6000 -0.1429
 2164SOL     OW 8421   1.650   5.971   3.719 -0.6232 -0.4490 -0.6941
 2164SOL    HW2 8422   1.702   6.050   3.703 -1.1053 -0.2769 -1.4807
 2164SOL    HW3 8423   1.559   6.000   3.708 -0.8633 -0.8776  0.0816
 2164SOL    MW4 8424   1.645   5.985   3.715 -0.7185 -0.4829 -0.6956
 2165SOL     OW 8425   3.977   4.688   4.374  0.0380  0.2497  0.7154
 2165SOL    HW2 8426   3.999   4.731   4.292 -0.3158 -0.1369  0.4162
 2165SOL    HW3 8427   3.888   4.719   4.394 -0.3624 -0.6050  0.3144
 2165SOL    MW4 8428   3.968   4.698   4.366 -0.0615  0.0859  0.6230
 2166SOL     OW 8429   3.897   2.011   0.990  0.2332  0.0968  0.1028
 2166SOL    HW2 8430   3.939   2.074   1.048 -0.2950  1.3435 -0.8366
 2166SOL    HW3 8431   3.933   2.029   0.903  0.4394 -1.2351 -0.1247
 2166SOL    MW4 8432   3.908   2.021   0.986  0.1907  0.0856 -0.0512
 2167SOL     OW 8433   3.293   4.160   0.410 -0.1513 -0.1832 -0.2183
 2167SOL    HW2 8434   3.362   4.099   0.385  0.9412  1.1066 -0.4971
 2167SOL    HW3 8435   3.310   4.179   0.502  0.4650  0.8241 -0.5144
 2167SOL    MW4 8436   3.304   4.155   0.419  0.0741  0.1199 -0.2942
 2168SOL     OW 8437   1.416   1.141   5.830  0.1561  0.1316  0.2561
 2168SOL    HW2 8438   1.393   1.232   5.814 -0.1099 -0.1191 -0.8850
 2168SOL    HW3 8439   1.333   1.098   5.854  0.0478 -0.0575 -0.4357
 2168SOL    MW4 8440   1.402   1.147   5.831  0.1067  0.0736  0.0143
 2169SOL     OW 8441   3.947   3.213   2.396  0.4879  0.1774  0.8526
 2169SOL    HW2 8442   3.969   3.292   2.445  0.2824  1.3530 -0.8784
 2169SOL    HW3 8443   3.877   3.239   2.337  0.9667 -1.0711 -0.3444
 2169SOL    MW4 8444   3.941   3.227   2.395  0.5240  0.1678  0.4663
 2170SOL     OW 8445   2.014   6.413   2.833 -0.4315  0.4795  0.0119
 2170SOL    HW2 8446   2.002   6.478   2.902 -0.0781  1.3090 -0.6983
 2170SOL    HW3 8447   2.048   6.462   2.758  1.5564 -0.7791  0.0044
 2170SOL    MW4 8448   2.017   6.428   2.832 -0.1226  0.4229 -0.0828
 2171SOL     OW 8449   5.506   5.724   4.084 -0.0661 -0.2606  0.6202
 2171SOL    HW2 8450   5.600   5.739   4.091 -0.0907  0.3517 -0.2231
 2171SOL    HW3 8451   5.479   5.773   4.006 -0.6623 -2.3657 -0.5751
 2171SOL    MW4 8452   5.515   5.732   4.075 -0.1480 -0.4575  0.3512
 2172SOL     OW 8453   3.178   0.014   4.056 -0.1586 -0.1806  0.7440
 2172SOL    HW2 8454   3.196  -0.028   3.972 -3.1133 -1.1009  0.4577
 2172SOL    HW3 8455   3.230   0.095   4.054  0.7563 -0.7538 -1.4445
 2172SOL    MW4 8456   3.187   0.019   4.045 -0.4278 -0.3776  0.4175
 2173SOL     OW 8457   1.612   6.375   2.482  0.4716 -0.5053  0.3329
 2173SOL    HW2 8458   1.648   6.287   2.490  0.4737 -0.4781  0.6247
 2173SOL    HW3 8459   1.670   6.429   2.536  1.5166 -0.0185 -1.1906
 2173SOL    MW4 8460   1.625   6.371   2.490  0.6097 -0.4375  0.1704
 2174SOL     OW 8461   3.821   3.168   4.443 -0.6708  0.1498 -0.2441
 2174SOL    HW2 8462   3.812   3.090   4.497 -0.0926  0.4230  0.2659
 2174SOL    HW3 8463   3.799   3.241   4.502  0.1654  0.4659 -0.3059
 2174SOL    MW4 8464   3.817   3.168   4.458 -0.4842  0.2275 -0.1850
 2175SOL     OW 8465   2.240   5.513   6.110  0.1300 -0.3176 -0.7955
 2175SOL    HW2 8466   2.287   5.579   6.161 -1.9429  0.4379  0.2491
 2175SOL    HW3 8467   2.190   5.564   6.046 -1.7619 -0.7950  0.2448
 2175SOL    MW4 8468   2.240   5.528   6.108 -0.3931 -0.2809 -0.5204
 2176SOL     OW 8469   3.696   0.486   5.034 -0.1520  0.2988 -0.2837
 2176SOL    HW2 8470   3.643   0.407   5.047  0.2178  0.2524  1.1049
 2176SOL    HW3 8471   3.773   0.456   4.986  0.4608 -0.4079  1.0767
 2176SOL    MW4 8472   3.699   0.471   5.029 -0.0224  0.1994  0.0790
 2177SOL     OW 8473   5.412   3.711   0.683 -0.0109 -0.8414 -0.0830
 2177SOL    HW2 8474   5.463   3.632   0.667  3.0282  0.2423  2.9525
 2177SOL    HW3 8475   5.422   3.763   0.603  2.4779 -1.3492 -0.1622
 2177SOL    MW4 8476   5.420   3.708   0.670  0.7184 -0.7654  0.3070
 2178SOL     OW 8477   1.228   2.683   4.641  0.4140  0.3372  0.1971
 2178SOL    HW2 8478   1.167   2.664   4.712 -0.4515  1.3245 -0.2543
 2178SOL    HW3 8479   1.268   2.767   4.666  0.0878  0.7006 -0.4719
 2178SOL    MW4 8480   1.225   2.692   4.654  0.2568  0.5154  0.0493
 2179SOL     OW 8481   3.084   4.794   3.482 -0.2972  0.2055  0.0568
 2179SOL    HW2 8482   3.124   4.880   3.495  0.7843 -0.2234 -0.3840
 2179SOL    HW3 8483   3.041   4.801   3.397  0.1859  0.1593 -0.1910
 2179SOL    MW4 8484   3.083   4.806   3.473 -0.0908  0.1428 -0.0340
 2180SOL     OW 8485   0.144   5.264   0.292 -0.0963 -0.0211 -0.5962
 2180SOL    HW2 8486   0.188   5.190   0.251  0.3603 -0.5417  0.8070
 2180SOL    HW3 8487   0.205   5.337   0.281  0.2360 -0.2718 -0.3975
 2180SOL    MW4 8488   0.158   5.264   0.285  0.0078 -0.1229 -0.3848
 2181SOL     OW 8489   0.377   2.165   2.131  0.3344  0.0641 -0.1626
 2181SOL    HW2 8490   0.325   2.116   2.066  0.7773  2.2450 -2.3028
 2181SOL    HW3 8491   0.311   2.202   2.190 -0.4715  0.9856 -1.5492
 2181SOL    MW4 8492   0.361   2.163   2.130  0.2865  0.4734 -0.6279
 2182SOL     OW 8493   2.804   2.914   5.527  0.2976 -0.0998  0.2675
 2182SOL    HW2 8494   2.742   2.849   5.561  0.3585  0.2285  1.0414
 2182SOL    HW3 8495   2.829   2.965   5.604  1.2336  0.0252 -0.1018
 2182SOL    MW4 8496   2.799   2.912   5.542  0.4291 -0.0400  0.3209
 2183SOL     OW 8497   4.468   5.967   1.017  0.1289 -0.1686  0.2067
 2183SOL    HW2 8498   4.425   5.911   1.082  0.9543 -0.2637  0.6852
 2183SOL    HW3 8499   4.433   5.938   0.933 -0.9061 -0.0874  0.6006
 2183SOL    MW4 8500   4.458   5.956   1.015  0.1012 -0.1705  0.3218
 2184SOL     OW 8501   6.050   4.406   5.819  0.2198 -0.5443 -1.0804
 2184SOL    HW2 8502   5.997   4.335   5.784 -0.5148 -0.1337 -0.8277
 2184SOL    HW3 8503   5.987   4.477   5.835  0.8099 -0.1280 -0.5649
 2184SOL    MW4 8504   6.035   4.406   5.816  0.2007 -0.4352 -0.9790
 2185SOL     OW 8505   4.506   3.585   6.401 -0.2538  0.4875 -0.2153
 2185SOL    HW2 8506   4.473   3.608   6.488  1.2583  0.2068  0.4716
 2185SOL    HW3 8507   4.435   3.608   6.342 -1.7123 -0.2143  1.1740
 2185SOL    MW4 8508   4.492   3.591   6.405 -0.2467  0.3579  0.0587
 2186SOL     OW 8509   3.568   2.704   1.363 -0.2506  0.0099  0.7414
 2186SOL    HW2 8510   3.585   2.643   1.292 -0.5452 -0.7283  1.2858
 2186SOL    HW3 8511   3.475   2.692   1.383 -0.1245  0.0517  1.3805
 2186SOL    MW4 8512   3.558   2.695   1.356 -0.2728 -0.0819  0.8976
 2187SOL     OW 8513   3.124   1.326   5.747  0.1612  0.4570 -0.1480
 2187SOL    HW2 8514   3.046   1.362   5.705 -0.2179  1.0153  0.9901
 2187SOL    HW3 8515   3.149   1.391   5.812  1.9973  0.6059 -0.9472
 2187SOL    MW4 8516   3.117   1.339   5.750  0.3534  0.5503 -0.1033
 2188SOL     OW 8517   0.151   1.176   5.787  0.5047  0.1998  0.6107
 2188SOL    HW2 8518   0.203   1.245   5.746  0.0499  0.2901  0.1733
 2188SOL    HW3 8519   0.184   1.094   5.750 -1.1061  0.3758 -1.3643
 2188SOL    MW4 8520   0.162   1.174   5.777  0.2322  0.2349  0.2924
 2189SOL     OW 8521   3.791   2.084   4.707 -0.1416 -0.5053  0.4158
 2189SOL    HW2 8522   3.810   1.998   4.670 -2.0577  0.2617 -2.7174
 2189SOL    HW3 8523   3.870   2.136   4.689  0.6358 -1.2602  1.4548
 2189SOL    MW4 8524   3.804   2.080   4.700 -0.2919 -0.5037  0.1395
 2190SOL     OW 8525   3.127   5.471   3.244  0.2084 -0.3650  0.5702
 2190SOL    HW2 8526   3.074   5.522   3.305  0.1341 -0.1755  0.3516
 2190SOL    HW3 8527   3.196   5.531   3.217  0.3806 -0.5271  0.6544
 2190SOL    MW4 8528   3.129   5.486   3.248  0.2213 -0.3614  0.5525
 2191SOL     OW 8529   2.609   4.073   4.242  0.3440  0.0771  0.4981
 2191SOL    HW2 8530   2.641   3.983   4.246 -0.4353 -0.1777  1.2971
 2191SOL    HW3 8531   2.657   4.118   4.312  1.9051  0.7085 -0.8882
 2191SOL    MW4 8532   2.620   4.067   4.252  0.4472  0.1268  0.4206
 2192SOL     OW 8533   5.102   4.799   4.054 -0.2753  0.4163  0.0838
 2192SOL    HW2 8534   5.094   4.729   3.990 -0.0131  0.0263  0.4739
 2192SOL    HW3 8535   5.196   4.804   4.073 -0.2539  1.0757 -0.1637
 2192SOL    MW4 8536   5.113   4.791   4.048 -0.2379  0.4519  0.1026
 2193SOL     OW 8537   5.482   4.142   2.382  0.0686  0.5884 -0.5009
 2193SOL    HW2 8538   5.512   4.060   2.421 -2.1433  0.3668  0.9495
 2193SOL    HW3 8539   5.536   4.210   2.421  0.3557  0.0183  0.0941
 2193SOL    MW4 8540   5.493   4.140   2.392 -0.1853  0.4840 -0.2311
 2194SOL     OW 8541   0.859   3.221   4.631 -0.0264 -0.4562  0.3385
 2194SOL    HW2 8542   0.793   3.153   4.620 -0.2881 -0.0106 -1.0139
 2194SOL    HW3 8543   0.863   3.235   4.725 -2.6315  0.2516  0.4177
 2194SOL    MW4 8544   0.851   3.214   4.642 -0.4046 -0.3040  0.1705
 2195SOL     OW 8545   2.164   6.146   4.054  0.8376 -0.0176 -0.4308
 2195SOL    HW2 8546   2.161   6.051   4.042 -2.1361  0.0136 -0.6608
 2195SOL    HW3 8547   2.233   6.159   4.119  2.0160 -2.2100 -1.1230
 2195SOL    MW4 8548   2.173   6.135   4.061  0.6008 -0.3028 -0.5525
 2196SOL     OW 8549   2.508   3.078   3.631  0.2652  0.6580 -0.6995
 2196SOL    HW2 8550   2.587   3.024   3.637  1.5414  2.4728 -0.3462
 2196SOL    HW3 8551   2.477   3.083   3.721 -0.1753  0.0972 -0.8124
 2196SOL    MW4 8552   2.515   3.071   3.644  0.3755  0.8235 -0.6678
 2197SOL     OW 8553   1.851   1.905   0.311 -0.2242  0.1820  0.6076
 2197SOL    HW2 8554   1.763   1.919   0.347 -0.8117  0.0441 -0.7224
 2197SOL    HW3 8555   1.878   1.820   0.347 -0.9607 -0.1470  0.3984
 2197SOL    MW4 8556   1.843   1.896   0.321 -0.3989  0.1204  0.4045
 2198SOL     OW 8557   0.222   3.650   2.396 -0.8794 -0.1200 -0.1930
 2198SOL    HW2 8558   0.190   3.560   2.401  1.3882 -0.9353  1.2822
 2198SOL    HW3 8559   0.220   3.681   2.487 -0.7844  1.0044 -0.5638
 2198SOL    MW4 8560   0.218   3.642   2.409 -0.5677 -0.0792 -0.0473
 2199SOL     OW 8561   6.375   3.702   2.386 -0.7360  0.5039  0.0047
 2199SOL    HW2 8562   6.470   3.700   2.374 -0.7392  1.8071 -0.3700
 2199SOL    HW3 8563   6.343   3.630   2.331 -0.0780  0.9737 -1.0213
 2199SOL    MW4 8564   6.383   3.692   2.377 -0.6496  0.7378 -0.1801
 2200SOL     OW 8565   2.528   3.875   1.938  0.1516  0.4498 -0.1303
 2200SOL    HW2 8566   2.623   3.864   1.935  0.2471  1.2910 -1.9484
 2200SOL    HW3 8567   2.494   3.801   1.888 -0.2460 -0.3986  1.3428
 2200SOL    MW4 8568   2.536   3.864   1.931  0.1118  0.4488 -0.1758
 2201SOL     OW 8569   4.108   2.319   0.504  0.2120  0.0545 -0.2377
 2201SOL    HW2 8570   4.081   2.371   0.428  0.0588 -0.7857 -0.7666
 2201SOL    HW3 8571   4.202   2.336   0.512  0.2660  0.0128 -0.7250
 2201SOL    MW4 8572   4.117   2.328   0.495  0.1989 -0.0619 -0.3718
 2202SOL     OW 8573   4.591   0.342   6.339 -0.0737 -0.3736  0.6971
 2202SOL    HW2 8574   4.630   0.280   6.401 -0.2723 -0.2255  0.9724
 2202SOL    HW3 8575   4.575   0.421   6.391 -0.1595 -0.2173  0.4357
 2202SOL    MW4 8576   4.594   0.344   6.354 -0.1112 -0.3334  0.6989
 2203SOL     OW 8577   1.740   6.362   4.789  0.0195  0.0456  0.3655
 2203SOL    HW2 8578   1.820   6.414   4.783  0.5907 -0.9666 -2.8846
 2203SOL    HW3 8579   1.769   6.279   4.827  0.3349  0.0333  0.1068
 2203SOL    MW4 8580   1.754   6.358   4.793  0.1364 -0.0896 -0.0974
 2204SOL     OW 8581   5.255   3.231   0.809  0.4988 -0.0248  0.8615
 2204SOL    HW2 8582   5.237   3.261   0.720 -0.4544 -1.6174  0.4729
 2204SOL    HW3 8583   5.243   3.308   0.864 -1.0417  0.4987 -0.1643
 2204SOL    MW4 8584   5.251   3.245   0.805  0.1698 -0.1658  0.6749
 2205SOL     OW 8585   3.799   3.517   3.978 -0.0092  0.4753  0.3131
 2205SOL    HW2 8586   3.710   3.492   3.955  0.7698 -1.0223 -1.2860
 2205SOL    HW3 8587   3.806   3.498   4.072 -1.5738  1.3592  0.6450
 2205SOL    MW4 8588   3.788   3.511   3.988 -0.1129  0.3943  0.1459
 2206SOL     OW 8589   2.437   6.312   1.488  0.8103 -0.1862 -0.0496
 2206SOL    HW2 8590   2.479   6.226   1.496  2.8075  0.7443  0.2729
 2206SOL    HW3 8591   2.466   6.360   1.566 -1.9508  0.1651  0.8778
 2206SOL    MW4 8592   2.447   6.307   1.500  0.7095 -0.0171  0.1153
 2207SOL     OW 8593   2.102   3.208   4.195 -0.7094 -0.1364 -0.0231
 2207SOL    HW2 8594   2.110   3.304   4.199 -2.0018 -0.0409  0.7868
 2207SOL    HW3 8595   2.192   3.177   4.186 -0.2238  1.1289  0.2381
 2207SOL    MW4 8596   2.115   3.217   4.194 -0.8159  0.0432  0.1182
 2208SOL     OW 8597   3.031   5.726   6.387 -0.1915  0.4533  0.1626
 2208SOL    HW2 8598   3.052   5.774   6.467 -0.1644  1.1534 -0.2592
 2208SOL    HW3 8599   3.042   5.634   6.411  4.2636  0.6886 -0.2672
 2208SOL    MW4 8600   3.035   5.720   6.401  0.3999  0.5767  0.0502
 2209SOL     OW 8601   5.497   5.076   4.737 -0.4283 -0.2218 -0.1946
 2209SOL    HW2 8602   5.457   5.044   4.656  1.7329  1.2827 -1.9406
 2209SOL    HW3 8603   5.475   5.169   4.740  0.2011 -0.0838  0.5331
 2209SOL    MW4 8604   5.489   5.084   4.727 -0.0601 -0.0051 -0.3290
 2210SOL     OW 8605   1.528   2.979   5.207 -0.0477  0.7488 -0.8879
 2210SOL    HW2 8606   1.593   3.008   5.143  0.0990  0.1532 -1.0190
 2210SOL    HW3 8607   1.498   3.059   5.249  3.1437  0.8582  1.5190
 2210SOL    MW4 8608   1.532   2.993   5.204  0.3927  0.6847 -0.5876
 2211SOL     OW 8609   2.397   3.040   1.145 -0.2294  0.8584 -0.8451
 2211SOL    HW2 8610   2.476   3.086   1.116  1.0831 -1.7940 -1.7274
 2211SOL    HW3 8611   2.396   3.053   1.240  0.1633  2.5110 -1.0358
 2211SOL    MW4 8612   2.408   3.048   1.154 -0.0044  0.7265 -0.9866
 2212SOL     OW 8613   2.710   4.233   3.926 -0.5632  0.0079  0.0030
 2212SOL    HW2 8614   2.710   4.264   3.835 -1.2051 -0.1172 -0.0460
 2212SOL    HW3 8615   2.635   4.174   3.930 -1.1815  0.8356  0.8908
 2212SOL    MW4 8616   2.700   4.230   3.914 -0.7295  0.1006  0.1137
 2213SOL     OW 8617   1.223   0.998   5.996  0.4757 -0.2137 -0.6328
 2213SOL    HW2 8618   1.241   1.060   6.067  1.2401  0.5330 -1.4496
 2213SOL    HW3 8619   1.226   0.912   6.038  0.2756  0.2468  0.3555
 2213SOL    MW4 8620   1.226   0.995   6.011  0.5501 -0.0544 -0.6102
 2214SOL     OW 8621   5.918   3.663   0.886  0.0940  0.1873 -0.0067
 2214SOL    HW2 8622   5.835   3.617   0.896 -1.2800  2.1160 -1.7073
 2214SOL    HW3 8623   5.982   3.593   0.872 -1.2316 -1.3402  1.1512
 2214SOL    MW4 8624   5.916   3.647   0.885 -0.2622  0.2402 -0.0783
 2215SOL     OW 8625   2.672   6.101   5.392 -0.5340 -0.8016  0.3093
 2215SOL    HW2 8626   2.577   6.104   5.402 -0.4571 -0.1643  0.8882
 2215SOL    HW3 8627   2.693   6.170   5.330 -0.3469 -0.1849  1.0455
 2215SOL    MW4 8628   2.662   6.110   5.385 -0.4992 -0.6361  0.4828
 2216SOL     OW 8629   1.276   3.567   6.432 -0.3709 -0.1301 -0.1268
 2216SOL    HW2 8630   1.242   3.552   6.344  0.4026 -0.6462 -0.3454
 2216SOL    HW3 8631   1.316   3.654   6.428 -0.3391 -0.1520 -0.2781
 2216SOL    MW4 8632   1.277   3.577   6.420 -0.2646 -0.2011 -0.1756
 2217SOL     OW 8633   4.354   4.684   6.096  0.1325 -0.4267  0.1624
 2217SOL    HW2 8634   4.406   4.726   6.165  0.3707 -1.2625  0.5164
 2217SOL    HW3 8635   4.385   4.593   6.096 -1.9851 -1.2312  1.0725
 2217SOL    MW4 8636   4.365   4.677   6.105 -0.1155 -0.6432  0.3292
 2218SOL     OW 8637   2.389   0.312   2.067 -0.1302  0.4314 -0.0028
 2218SOL    HW2 8638   2.409   0.374   1.998 -0.1545  0.0594 -0.3476
 2218SOL    HW3 8639   2.473   0.274   2.092 -0.3086 -0.7140 -1.0552
 2218SOL    MW4 8640   2.402   0.315   2.061 -0.1570  0.2312 -0.1872
 2219SOL     OW 8641   2.950   0.696   4.143 -0.1066  0.0793 -0.2198
 2219SOL    HW2 8642   2.955   0.767   4.208 -0.7377  0.5943 -0.7246
 2219SOL    HW3 8643   3.038   0.692   4.105  0.4372 -0.5972  1.0303
 2219SOL    MW4 8644   2.963   0.705   4.147 -0.1181  0.0580 -0.1214
 2220SOL     OW 8645   2.323   0.196   5.816 -0.2676 -0.0118 -0.3704
 2220SOL    HW2 8646   2.292   0.125   5.872  0.2202 -0.0553 -0.1534
 2220SOL    HW3 8647   2.352   0.264   5.878  0.2971 -0.0691 -0.5694
 2220SOL    MW4 8648   2.323   0.196   5.832 -0.1287 -0.0251 -0.3680
 2221SOL     OW 8649   1.569   0.811   0.944 -0.4278  0.6451  0.2594
 2221SOL    HW2 8650   1.590   0.895   0.985  0.5932  0.7942 -0.5386
 2221SOL    HW3 8651   1.549   0.833   0.853  2.5122 -0.2215 -0.6939
 2221SOL    MW4 8652   1.569   0.825   0.937  0.0948  0.5504  0.0284
 2222SOL     OW 8653   0.052   4.995   1.198 -0.1172  0.2667 -0.3210
 2222SOL    HW2 8654   0.040   4.944   1.117 -0.1294 -0.7123  0.2790
 2222SOL    HW3 8655   0.145   5.019   1.197  0.1806 -0.8006 -0.0409
 2222SOL    MW4 8656   0.063   4.991   1.187 -0.0795 -0.0033 -0.2049
 2223SOL     OW 8657   3.407   5.188   0.166  0.6380  0.0500 -0.0224
 2223SOL    HW2 8658   3.457   5.186   0.248 -0.6098  0.0939  0.7655
 2223SOL    HW3 8659   3.381   5.097   0.151  0.4335  0.1177 -0.0900
 2223SOL    MW4 8660   3.410   5.176   0.175  0.4464  0.0647  0.0726
 2224SOL     OW 8661   3.944   0.780   6.395 -0.4142  0.4459 -0.4807
 2224SOL    HW2 8662   3.849   0.795   6.396 -0.2817  1.4649 -1.1387
 2224SOL    HW3 8663   3.958   0.712   6.460 -1.9296 -1.8516 -2.3827
 2224SOL    MW4 8664   3.933   0.773   6.404 -0.5966  0.2773 -0.8185
 2225SOL     OW 8665   5.730   5.508   3.184  0.5209 -0.1663 -0.0764
 2225SOL    HW2 8666   5.767   5.436   3.132  0.7856  1.3341 -2.0641
 2225SOL    HW3 8667   5.780   5.585   3.157 -1.4846  1.2399  0.0456
 2225SOL    MW4 8668   5.741   5.508   3.174  0.2912  0.2172 -0.3226
 2226SOL     OW 8669   2.295   5.273   3.461 -0.1795  0.3769  0.1158
 2226SOL    HW2 8670   2.388   5.286   3.443  0.0041  1.1084  1.4874
 2226SOL    HW3 8671   2.252   5.294   3.378  0.8413  0.4004 -0.4275
 2226SOL    MW4 8672   2.302   5.277   3.447 -0.0206  0.4765  0.2251
 2227SOL     OW 8673   1.567   0.535   6.317 -0.4474 -0.8470 -0.7978
 2227SOL    HW2 8674   1.592   0.447   6.289  0.9801 -0.6728 -0.1528
 2227SOL    HW3 8675   1.611   0.593   6.256  1.1644 -0.5248  0.5916
 2227SOL    MW4 8676   1.576   0.531   6.305 -0.0464 -0.7815 -0.5294
 2228SOL     OW 8677   5.324   0.662   5.208 -0.0409 -0.4194 -0.0439
 2228SOL    HW2 8678   5.288   0.628   5.126 -1.2979 -2.0454  1.1023
 2228SOL    HW3 8679   5.282   0.608   5.276  0.0939  1.5986  1.7340
 2228SOL    MW4 8680   5.314   0.650   5.206 -0.1889 -0.3677  0.3419
 2229SOL     OW 8681   5.746   0.303   3.542  0.3029  0.4716  0.1239
 2229SOL    HW2 8682   5.809   0.235   3.567  1.1542  0.5448 -1.6524
 2229SOL    HW3 8683   5.799   0.372   3.504 -0.7747  0.9672 -0.5222
 2229SOL    MW4 8684   5.761   0.303   3.540  0.2731  0.5467 -0.1957
 2230SOL     OW 8685   2.680   5.864   6.131 -0.2929 -0.1109 -0.0104
 2230SOL    HW2 8686   2.771   5.856   6.103 -0.7191 -0.5668 -1.3094
 2230SOL    HW3 8687   2.685   5.859   6.227  0.8171 -3.2393 -0.0886
 2230SOL    MW4 8688   2.693   5.862   6.140 -0.2027 -0.5838 -0.1921
 2231SOL     OW 8689   6.329   1.270   2.092  0.4665  0.3538 -0.5113
 2231SOL    HW2 8690   6.350   1.209   2.021  0.0350  0.3397 -0.6290
 2231SOL    HW3 8691   6.384   1.242   2.165  0.1199 -0.3098 -0.4975
 2231SOL    MW4 8692   6.339   1.258   2.092  0.3639  0.2644 -0.5250
 2232SOL     OW 8693   4.716   2.402   1.026 -0.0675 -0.0935 -0.2076
 2232SOL    HW2 8694   4.756   2.450   1.098  0.2999  0.9118 -1.0387
 2232SOL    HW3 8695   4.661   2.467   0.982 -1.4011 -1.0496 -0.0096
 2232SOL    MW4 8696   4.714   2.417   1.030 -0.1949 -0.0870 -0.2911
 2233SOL     OW 8697   4.407   5.744   0.509 -0.1076  0.5080 -0.2106
 2233SOL    HW2 8698   4.324   5.779   0.540 -0.7007 -0.7912 -0.3118
 2233SOL    HW3 8699   4.437   5.808   0.444 -0.7420  1.2603  0.2174
 2233SOL    MW4 8700   4.400   5.757   0.505 -0.2695  0.4358 -0.1675
 2234SOL     OW 8701   5.235   5.036   2.437  0.2382  0.0405  0.1825
 2234SOL    HW2 8702   5.234   5.078   2.350 -2.1135  1.4595  0.8010
 2234SOL    HW3 8703   5.291   5.092   2.490 -0.7266  0.9353  0.2994
 2234SOL    MW4 8704   5.242   5.049   2.432 -0.1994  0.3458  0.2795
 2235SOL     OW 8705   5.287   0.600   2.404 -0.5284  0.2848  0.6759
 2235SOL    HW2 8706   5.247   0.687   2.405 -2.3253 -0.4810  0.1210
 2235SOL    HW3 8707   5.324   0.592   2.316 -2.6685 -0.4353 -0.2279
 2235SOL    MW4 8708   5.286   0.611   2.392 -1.0479  0.0888  0.4834
 2236SOL     OW 8709   5.991   5.465   4.525 -0.3038  0.5156 -0.5521
 2236SOL    HW2 8710   6.083   5.476   4.550 -0.1251  0.9339 -1.3635
 2236SOL    HW3 8711   5.964   5.385   4.569 -0.4647  1.9988  2.2467
 2236SOL    MW4 8712   6.000   5.456   4.534 -0.3014  0.7665 -0.2899
 2237SOL     OW 8713   1.981   1.373   1.163 -0.1078 -0.9414 -0.3075
 2237SOL    HW2 8714   1.998   1.279   1.155 -2.1805 -1.2552 -1.6800
 2237SOL    HW3 8715   1.887   1.382   1.147 -0.1110  1.3028  0.5967
 2237SOL    MW4 8716   1.971   1.362   1.160 -0.3817 -0.6867 -0.3693
 2238SOL     OW 8717   3.249   5.878   4.881  0.2598 -0.0098 -0.0723
 2238SOL    HW2 8718   3.292   5.858   4.798 -0.7875 -1.1993 -0.3624
 2238SOL    HW3 8719   3.181   5.942   4.858  0.5279  0.3112  0.0239
 2238SOL    MW4 8720   3.245   5.883   4.867  0.1570 -0.1244 -0.0979
 2239SOL     OW 8721   0.096   6.039   5.196  0.0789  0.0316 -0.3126
 2239SOL    HW2 8722   0.087   6.006   5.286  0.3172  0.9061  0.0483
 2239SOL    HW3 8723   0.125   6.130   5.207 -0.8749  0.4743 -1.2541
 2239SOL    MW4 8724   0.098   6.047   5.210 -0.0155  0.2054 -0.3892
 2240SOL     OW 8725   5.050   3.575   3.846 -0.4184  0.3366  0.5704
 2240SOL    HW2 8726   5.020   3.597   3.934 -2.2243 -1.8363  0.5756
 2240SOL    HW3 8727   4.990   3.623   3.788  0.0869  0.9059  0.5069
 2240SOL    MW4 8728   5.038   3.584   3.850 -0.5900  0.1250  0.5627
 2241SOL     OW 8729   2.656   1.539   6.064 -0.0305  0.2570 -0.0754
 2241SOL    HW2 8730   2.738   1.525   6.112  1.5250  1.2152 -2.3033
 2241SOL    HW3 8731   2.600   1.585   6.127  0.6653 -1.4056  1.8696
 2241SOL    MW4 8732   2.660   1.543   6.079  0.2665  0.1641 -0.1127
 2242SOL     OW 8733   3.217   1.767   4.787  0.2550 -0.1004  0.0637
 2242SOL    HW2 8734   3.231   1.691   4.843  0.9438  0.9667  1.4063
 2242SOL    HW3 8735   3.124   1.764   4.765  0.1710 -1.0623  0.4939
 2242SOL    MW4 8736   3.207   1.756   4.791  0.3348 -0.0865  0.2976
 2243SOL     OW 8737   0.327   1.098   0.326 -0.4011 -0.6941 -0.0385
 2243SOL    HW2 8738   0.326   1.137   0.413  1.3703 -0.9787  0.1497
 2243SOL    HW3 8739   0.261   1.029   0.330  0.0834 -1.1199  1.3074
 2243SOL    MW4 8740   0.318   1.094   0.338 -0.1035 -0.7878  0.1639
 2244SOL     OW 8741   1.946   3.431   4.587 -0.2894 -0.5482  0.2210
 2244SOL    HW2 8742   1.941   3.336   4.595 -0.7192 -0.7116 -1.4672
 2244SOL    HW3 8743   2.008   3.458   4.654  1.3165 -2.2320 -0.4858
 2244SOL    MW4 8744   1.953   3.422   4.597 -0.1343 -0.7919 -0.0950
 2245SOL     OW 8745   5.527   0.493   5.078  0.2702  0.3638 -0.1785
 2245SOL    HW2 8746   5.512   0.400   5.058 -0.1899  0.5906 -0.9280
 2245SOL    HW3 8747   5.460   0.515   5.143 -0.3398  0.4471 -0.8256
 2245SOL    MW4 8748   5.516   0.483   5.084  0.1290  0.4047 -0.3628
 2246SOL     OW 8749   0.091   4.567   4.044  0.2866  0.1792 -0.0061
 2246SOL    HW2 8750  -0.001   4.565   4.069 -0.6230  1.2627 -2.8816
 2246SOL    HW3 8751   0.099   4.503   3.974  2.1740 -1.1285  1.2891
 2246SOL    MW4 8752   0.080   4.559   4.038  0.4156  0.1496 -0.2146
 2247SOL     OW 8753   2.449   2.248   1.637  0.2412  0.0737  1.0101
 2247SOL    HW2 8754   2.492   2.262   1.722  0.2045 -0.8492  1.1979
 2247SOL    HW3 8755   2.496   2.173   1.599  1.6098  1.7180 -0.7084
 2247SOL    MW4 8756   2.461   2.240   1.643  0.4169  0.1689  0.8081
 2248SOL     OW 8757   3.921   5.473   3.165  0.1590 -0.4872  0.0492
 2248SOL    HW2 8758   4.008   5.512   3.153  0.4517 -0.6627  1.4643
 2248SOL    HW3 8759   3.933   5.381   3.139  0.1966 -0.3352 -0.4877
 2248SOL    MW4 8760   3.934   5.466   3.160  0.2026 -0.4903  0.1651
 2249SOL     OW 8761   6.297   3.124   4.069 -0.7533  0.0455 -0.0892
 2249SOL    HW2 8762   6.233   3.187   4.102 -0.1119  0.3410  0.6130
 2249SOL    HW3 8763   6.380   3.172   4.071 -0.3472 -0.6509 -0.0630
 2249SOL    MW4 8764   6.299   3.139   4.073 -0.6151 -0.0074  0.0069
 2250SOL     OW 8765   0.201   0.781   2.841  0.0278  0.2112  0.3570
 2250SOL    HW2 8766   0.251   0.703   2.867  1.1737  0.6747 -0.4004
 2250SOL    HW3 8767   0.153   0.753   2.763  1.5375  0.6397 -0.7606
 2250SOL    MW4 8768   0.201   0.767   2.834  0.3782  0.3289  0.1096
 2251SOL     OW 8769   2.257   6.369   3.506 -0.3208  0.0355 -0.6689
 2251SOL    HW2 8770   2.209   6.451   3.517 -1.4288 -0.6203 -0.4867
 2251SOL    HW3 8771   2.299   6.377   3.420 -0.3370  0.8290 -0.6064
 2251SOL    MW4 8772   2.256   6.381   3.496 -0.4692  0.0537 -0.6366
 2252SOL     OW 8773   2.096   4.233   3.263 -0.8341 -0.0681  0.6028
 2252SOL    HW2 8774   2.065   4.172   3.197 -1.3615  2.0711 -1.2326
 2252SOL    HW3 8775   2.189   4.247   3.242 -1.1832  1.1900 -0.2245
 2252SOL    MW4 8776   2.104   4.227   3.252 -0.9498  0.3801  0.2515
 2253SOL     OW 8777   5.674   3.426   4.025 -0.8006  0.1720  0.0659
 2253SOL    HW2 8778   5.768   3.443   4.021 -0.8939  0.6373 -0.2796
 2253SOL    HW3 8779   5.637   3.504   4.067 -0.9643 -0.2834  0.7776
 2253SOL    MW4 8780   5.681   3.439   4.030 -0.8345  0.1733  0.1143
 2254SOL     OW 8781   2.404   1.239   0.745  0.5986 -0.4448  0.1503
 2254SOL    HW2 8782   2.342   1.168   0.732  1.3492 -1.1343  0.2202
 2254SOL    HW3 8783   2.392   1.266   0.836  0.1911 -0.3677  0.0735
 2254SOL    MW4 8784   2.394   1.233   0.755  0.6439 -0.5256  0.1494
 2255SOL     OW 8785   0.341   5.526   4.425  0.4941 -1.0383  0.8169
 2255SOL    HW2 8786   0.326   5.433   4.443 -2.8926 -0.5372  1.1824
 2255SOL    HW3 8787   0.359   5.564   4.511 -0.0059 -1.0816  0.9441
 2255SOL    MW4 8788   0.341   5.518   4.439 -0.0187 -0.9779  0.8819
 2256SOL     OW 8789   2.697   1.550   0.200 -0.7556  0.0976  0.0693
 2256SOL    HW2 8790   2.701   1.634   0.246  0.8468  1.0051 -1.5755
 2256SOL    HW3 8791   2.700   1.573   0.108 -2.1209 -1.7326 -0.4955
 2256SOL    MW4 8792   2.698   1.564   0.194 -0.7243 -0.0241 -0.2222
 2257SOL     OW 8793   4.342   0.169   0.329 -0.2171 -0.3585 -0.6715
 2257SOL    HW2 8794   4.253   0.138   0.313  0.0985 -3.0016  1.7882
 2257SOL    HW3 8795   4.348   0.175   0.425  2.5911 -1.5954 -0.6703
 2257SOL    MW4 8796   4.331   0.166   0.340  0.1951 -0.8704 -0.3468
 2258SOL     OW 8797   5.599   2.852   5.723 -0.5527  0.3418  0.0397
 2258SOL    HW2 8798   5.612   2.887   5.811  0.6060 -0.5965  0.2588
 2258SOL    HW3 8799   5.508   2.874   5.702 -1.1366 -0.2337  1.8285
 2258SOL    MW4 8800   5.589   2.860   5.732 -0.4769  0.1420  0.3046
 2259SOL     OW 8801   5.651   3.151   3.993  0.3086 -0.5693 -0.6044
 2259SOL    HW2 8802   5.655   3.243   4.020 -2.0761 -0.2096 -1.2273
 2259SOL    HW3 8803   5.732   3.137   3.943  1.4198  0.7397  0.7298
 2259SOL    MW4 8804   5.662   3.162   3.990  0.1406 -0.3492 -0.5105
 2260SOL     OW 8805   5.823   1.020   2.295  0.1110  0.2360  0.3341
 2260SOL    HW2 8806   5.787   1.093   2.344  2.2421 -0.2815  2.9018
 2260SOL    HW3 8807   5.909   1.004   2.334  0.5703 -2.3895 -1.4323
 2260SOL    MW4 8808   5.829   1.027   2.306  0.4528 -0.1787  0.4399
 2261SOL     OW 8809   2.521   2.218   4.303  0.2867 -0.3658  0.0509
 2261SOL    HW2 8810   2.522   2.208   4.398  2.5313 -1.4173 -0.0302
 2261SOL    HW3 8811   2.566   2.141   4.269 -0.9324 -0.2937 -1.9358
 2261SOL    MW4 8812   2.527   2.207   4.311  0.4220 -0.4950 -0.2219
 2262SOL     OW 8813   3.287   5.664   3.133 -0.2487  0.3876  1.1330
 2262SOL    HW2 8814   3.379   5.655   3.110 -0.5331 -1.7774  0.6233
 2262SOL    HW3 8815   3.259   5.745   3.089  0.8386 -0.1675 -0.6762
 2262SOL    MW4 8816   3.295   5.674   3.124 -0.1428  0.0287  0.8270
 2263SOL     OW 8817   1.551   0.349   2.380  0.3815  0.5715  0.3490
 2263SOL    HW2 8818   1.550   0.409   2.305 -1.3950  0.7510  0.4630
 2263SOL    HW3 8819   1.538   0.262   2.342 -0.7969  0.6919  0.4388
 2263SOL    MW4 8820   1.549   0.346   2.365 -0.0083  0.6111  0.3759
 2264SOL     OW 8821   5.430   1.526   2.692  0.0278  0.2320 -0.4806
 2264SOL    HW2 8822   5.342   1.491   2.678  1.7017 -4.5988 -0.4070
 2264SOL    HW3 8823   5.438   1.534   2.787  0.2928 -1.2927 -0.3621
 2264SOL    MW4 8824   5.419   1.523   2.703  0.2836 -0.6065 -0.4552
 2265SOL     OW 8825   3.907   0.471   1.509  0.0958  0.0432  0.0081
 2265SOL    HW2 8826   3.893   0.376   1.505 -0.1371 -0.0856  2.5124
 2265SOL    HW3 8827   3.997   0.481   1.538  1.0869  0.7036 -2.9690
 2265SOL    MW4 8828   3.917   0.460   1.512  0.1959  0.1133 -0.0543
 2266SOL     OW 8829   5.008   2.005   6.185  0.3432 -0.1650  0.5011
 2266SOL    HW2 8830   5.025   2.085   6.234  0.4103 -0.3007  0.7016
 2266SOL    HW3 8831   5.029   1.935   6.246 -1.0591 -0.3473  0.8078
 2266SOL    MW4 8832   5.013   2.006   6.199  0.1670 -0.2070  0.5680
 2267SOL     OW 8833   1.775   1.588   5.449 -0.0888 -0.5452 -0.1669
 2267SOL    HW2 8834   1.833   1.660   5.426 -1.2596  0.6037  0.3774
 2267SOL    HW3 8835   1.821   1.510   5.418  1.4862  0.3625 -0.2368
 2267SOL    MW4 8836   1.789   1.587   5.442 -0.0355 -0.2739 -0.1043
 2268SOL     OW 8837   1.572   2.194   0.778  0.0625 -0.0206 -0.5014
 2268SOL    HW2 8838   1.562   2.242   0.861 -0.9597 -1.5968  0.3330
 2268SOL    HW3 8839   1.666   2.191   0.764  0.1669  2.4366 -0.7461
 2268SOL    MW4 8840   1.583   2.200   0.787 -0.0586  0.0956 -0.4236
 2269SOL     OW 8841   1.106   0.227   2.787 -0.0242  0.2430 -0.6453
 2269SOL    HW2 8842   1.147   0.290   2.728 -0.7537  0.7169 -0.6518
 2269SOL    HW3 8843   1.149   0.144   2.765  2.4097  1.0267  0.7636
 2269SOL    MW4 8844   1.117   0.224   2.776  0.2007  0.4089 -0.4603
 2270SOL     OW 8845   5.513   1.413   4.803  0.0219  0.3668  0.1077
 2270SOL    HW2 8846   5.583   1.354   4.832  1.1261  0.5785 -1.9263
 2270SOL    HW3 8847   5.435   1.357   4.799  0.1584 -0.0090  1.8616
 2270SOL    MW4 8848   5.512   1.398   4.806  0.1856  0.3452  0.0708
 2271SOL     OW 8849   4.073   5.199   4.449 -0.5771  0.1755  0.2529
 2271SOL    HW2 8850   4.101   5.279   4.405 -1.4383  0.4601  0.2042
 2271SOL    HW3 8851   4.028   5.229   4.528 -0.1172 -0.2914  0.6989
 2271SOL    MW4 8852   4.070   5.214   4.454 -0.6300  0.1514  0.3053
 2272SOL     OW 8853   5.857   2.687   5.324  0.3962  0.3748  0.1284
 2272SOL    HW2 8854   5.814   2.602   5.331  0.6606  0.2556  0.3799
 2272SOL    HW3 8855   5.797   2.748   5.367  1.2601 -0.0868  2.1204
 2272SOL    MW4 8856   5.844   2.684   5.331  0.5451  0.2982  0.4244
 2273SOL     OW 8857   0.442   2.088   6.132 -0.2120  0.9216 -0.3907
 2273SOL    HW2 8858   0.426   2.036   6.211  0.4618 -2.6466 -2.3867
 2273SOL    HW3 8859   0.360   2.137   6.119 -1.2571 -0.3052  1.1478
 2273SOL    MW4 8860   0.429   2.088   6.141 -0.2610  0.2890 -0.4510
 2274SOL     OW 8861   2.833   5.703   1.926  0.2690  0.0870 -0.0141
 2274SOL    HW2 8862   2.858   5.741   2.010  0.4761 -0.4968  0.1974
 2274SOL    HW3 8863   2.882   5.754   1.861  0.9577 -0.1615  0.3032
 2274SOL    MW4 8864   2.843   5.715   1.928  0.3872 -0.0228  0.0557
 2275SOL     OW 8865   3.422   6.299   4.503 -0.1932 -0.3840 -0.2720
 2275SOL    HW2 8866   3.431   6.304   4.598 -0.0867 -0.7093 -0.2637
 2275SOL    HW3 8867   3.353   6.361   4.482  1.2980  1.3586 -0.2171
 2275SOL    MW4 8868   3.414   6.308   4.512  0.0176 -0.1970 -0.2636
 2276SOL     OW 8869   4.664   3.577   3.311  0.4726  0.3406 -0.0218
 2276SOL    HW2 8870   4.627   3.626   3.385 -1.2699  0.1180 -0.6994
 2276SOL    HW3 8871   4.751   3.552   3.341  0.4971  1.7635  1.2799
 2276SOL    MW4 8872   4.670   3.580   3.325  0.2459  0.4990  0.0605
 2277SOL     OW 8873   6.039   3.714   0.154 -0.5090  0.2527 -0.0930
 2277SOL    HW2 8874   5.980   3.698   0.228 -0.2179 -1.0936 -0.1314
 2277SOL    HW3 8875   6.099   3.782   0.186 -0.5769 -0.0989  0.8089
 2277SOL    MW4 8876   6.039   3.721   0.168 -0.4796  0.0287  0.0209
 2278SOL     OW 8877   4.085   2.247   6.139 -0.3943  0.1209  0.1976
 2278SOL    HW2 8878   3.992   2.230   6.158 -0.2019  0.2771  1.3716
 2278SOL    HW3 8879   4.100   2.335   6.174 -0.3544  1.0705 -2.0765
 2278SOL    MW4 8880   4.075   2.256   6.146 -0.3637  0.2668  0.0524
 2279SOL     OW 8881   1.748   0.210   3.899 -0.1894  0.0023  0.3087
 2279SOL    HW2 8882   1.807   0.253   3.838  0.4313 -1.2167  0.0225
 2279SOL    HW3 8883   1.695   0.152   3.845  0.9054 -1.6857  0.9765
 2279SOL    MW4 8884   1.748   0.208   3.884  0.0369 -0.3812  0.3590
 2280SOL     OW 8885   0.736   4.672   2.052  0.2215  0.5491  0.2656
 2280SOL    HW2 8886   0.817   4.689   2.100 -0.4310 -0.6930  1.9182
 2280SOL    HW3 8887   0.683   4.750   2.067  0.9058  1.1403 -0.3749
 2280SOL    MW4 8888   0.740   4.684   2.060  0.2257  0.4632  0.3992
 2281SOL     OW 8889   0.069   5.892   4.905 -0.7180  0.0597  0.7811
 2281SOL    HW2 8890   0.128   5.925   4.838 -1.7310 -0.1865 -0.2662
 2281SOL    HW3 8891   0.096   5.937   4.985 -0.6977  1.7934 -0.1579
 2281SOL    MW4 8892   0.081   5.902   4.907 -0.8489  0.2560  0.5190
 2282SOL     OW 8893   5.151   1.541   1.387  0.1005 -0.0996  0.0008
 2282SOL    HW2 8894   5.129   1.479   1.457  1.8512  1.3269  1.9300
 2282SOL    HW3 8895   5.070   1.548   1.336 -0.5762 -2.8782  0.5067
 2282SOL    MW4 8896   5.137   1.534   1.390  0.2422 -0.2780  0.3221
 2283SOL     OW 8897   6.115   6.068   2.861 -0.3792 -0.5069 -0.1794
 2283SOL    HW2 8898   6.188   6.123   2.831 -0.6990 -0.1359 -0.2839
 2283SOL    HW3 8899   6.063   6.053   2.782  0.5746 -2.3440 -0.5242
 2283SOL    MW4 8900   6.118   6.073   2.846 -0.2955 -0.7003 -0.2386
 2284SOL     OW 8901   1.662   5.772   2.144  0.1057 -0.7713 -0.3797
 2284SOL    HW2 8902   1.757   5.771   2.144  0.1587  0.3962  1.0167
 2284SOL    HW3 8903   1.637   5.686   2.177  0.6597 -1.2002 -1.0594
 2284SOL    MW4 8904   1.671   5.761   2.149  0.1858 -0.6739 -0.2851
 2285SOL     OW 8905   4.436   2.352   6.271  0.3894  0.0569  0.3360
 2285SOL    HW2 8906   4.493   2.324   6.343 -0.0601 -0.8189  0.3629
 2285SOL    HW3 8907   4.417   2.272   6.223  0.1784  0.5410 -0.3979
 2285SOL    MW4 8908   4.441   2.338   6.274  0.3022  0.0052  0.2427
 2286SOL     OW 8909   2.724   0.164   5.926  0.1187  0.4790 -0.0270
 2286SOL    HW2 8910   2.720   0.230   5.857 -1.1568  0.0266 -0.4145
 2286SOL    HW3 8911   2.652   0.103   5.906  0.4311 -0.2894  1.0636
 2286SOL    MW4 8912   2.714   0.164   5.914 -0.0084  0.3179  0.0657
 2287SOL     OW 8913   4.395   1.476   6.039 -0.1502  0.1142  0.1813
 2287SOL    HW2 8914   4.301   1.480   6.022 -0.0146  0.3407 -0.5518
 2287SOL    HW3 8915   4.422   1.391   6.004 -0.0168  0.2080  0.0563
 2287SOL    MW4 8916   4.387   1.465   6.032 -0.1147  0.1564  0.0681
 2288SOL     OW 8917   5.727   3.950   0.489 -0.2921 -0.6242  0.6680
 2288SOL    HW2 8918   5.634   3.936   0.506 -0.2958  1.8540  3.4905
 2288SOL    HW3 8919   5.731   4.036   0.445  0.6681 -0.8620  0.2634
 2288SOL    MW4 8920   5.715   3.960   0.485 -0.1659 -0.3286  0.9870
 2289SOL     OW 8921   6.358   2.822   4.112 -0.1266 -0.0101 -0.0237
 2289SOL    HW2 8922   6.354   2.879   4.189 -0.5327 -1.8992  1.4291
 2289SOL    HW3 8923   6.442   2.777   4.120 -0.6645 -1.0357 -0.0579
 2289SOL    MW4 8924   6.368   2.824   4.123 -0.2512 -0.3946  0.1635
 2290SOL     OW 8925   3.867   2.394   4.380 -0.3291  0.0812 -0.4996
 2290SOL    HW2 8926   3.815   2.468   4.408  0.5445 -0.3504  2.6936
 2290SOL    HW3 8927   3.810   2.318   4.393  0.0251 -0.1074  0.0176
 2290SOL    MW4 8928   3.853   2.393   4.386 -0.1671 -0.0006 -0.0101
 2291SOL     OW 8929   5.075   2.852   3.370  0.3651  0.0048 -0.4520
 2291SOL    HW2 8930   4.993   2.896   3.391  1.1369  1.3255 -0.1456
 2291SOL    HW3 8931   5.143   2.902   3.416  1.1847 -2.1510  0.8329
 2291SOL    MW4 8932   5.073   2.864   3.378  0.5751 -0.1054 -0.2421
 2292SOL     OW 8933   0.299   0.084   2.203  0.4292 -0.4244  1.0141
 2292SOL    HW2 8934   0.273   0.055   2.115 -0.6887 -0.4241  1.3375
 2292SOL    HW3 8935   0.379   0.134   2.188 -2.2109  3.8133 -0.7002
 2292SOL    MW4 8936   0.306   0.087   2.189 -0.0666  0.1347  0.8306
 2293SOL     OW 8937   5.549   3.812   0.982  0.2682  0.3250  0.0752
 2293SOL    HW2 8938   5.567   3.719   0.968 -1.0334  0.1248 -0.3743
 2293SOL    HW3 8939   5.487   3.814   1.054  2.2212  1.0233  1.8279
 2293SOL    MW4 8940   5.543   3.800   0.989  0.3541  0.3907  0.2471
 2294SOL     OW 8941   6.068   1.196   4.456 -0.0715  0.0091  0.6534
 2294SOL    HW2 8942   6.007   1.219   4.525 -1.2195  0.3662 -0.4480
 2294SOL    HW3 8943   6.073   1.274   4.401 -1.3959 -1.1821 -1.2429
 2294SOL    MW4 8944   6.061   1.209   4.458 -0.3977 -0.1009  0.2579
 2295SOL     OW 8945   5.031   6.089   2.246  0.0832 -0.4850 -0.2529
 2295SOL    HW2 8946   4.990   6.008   2.216 -1.6800 -0.1989  1.2096
 2295SOL    HW3 8947   4.966   6.129   2.304  0.0570  3.0247 -2.4331
 2295SOL    MW4 8948   5.017   6.083   2.250 -0.1529  0.0158 -0.3476
 2296SOL     OW 8949   0.737   6.018   1.530 -0.2303  0.0460  0.3116
 2296SOL    HW2 8950   0.774   5.984   1.611  1.6281  1.3600  0.0606
 2296SOL    HW3 8951   0.781   6.102   1.516 -1.3482  0.3936 -1.4633
 2296SOL    MW4 8952   0.748   6.024   1.539 -0.1326  0.2652  0.0443
 2297SOL     OW 8953   0.208   4.027   0.087 -0.3996 -0.0138 -0.7733
 2297SOL    HW2 8954   0.153   4.050   0.012 -1.3179  0.1917 -0.0553
 2297SOL    HW3 8955   0.210   4.106   0.141  1.6801  0.4245 -1.3907
 2297SOL    MW4 8956   0.201   4.041   0.084 -0.2463  0.0711 -0.7601
 2298SOL     OW 8957   0.228   0.642   3.826  0.5740 -0.0078 -0.1252
 2298SOL    HW2 8958   0.189   0.636   3.913 -0.4451 -0.9490 -0.6268
 2298SOL    HW3 8959   0.166   0.693   3.775  0.1988 -1.1095 -0.8002
 2298SOL    MW4 8960   0.215   0.648   3.831  0.3901 -0.2773 -0.2804
 2299SOL     OW 8961   3.891   3.119   3.005  0.1035  0.1135 -0.1749
 2299SOL    HW2 8962   3.867   3.209   3.027 -1.7386 -0.7275  1.6629
 2299SOL    HW3 8963   3.829   3.094   2.937  1.5444  0.6309 -1.7343
 2299SOL    MW4 8964   3.879   3.128   2.999  0.0505  0.0708 -0.1382
 2300SOL     OW 8965   2.527   1.164   4.390  0.4546 -0.1464 -0.1021
 2300SOL    HW2 8966   2.548   1.072   4.407 -0.2872 -0.6107 -1.4887
 2300SOL    HW3 8967   2.582   1.213   4.451  0.2689 -1.5253  1.2375
 2300SOL    MW4 8968   2.537   1.158   4.400  0.3323 -0.3896 -0.1083
 2301SOL     OW 8969   2.098   1.886   4.241 -0.2003 -0.2977 -0.4302
 2301SOL    HW2 8970   2.074   1.978   4.241 -0.7395 -0.4239  0.6724
 2301SOL    HW3 8971   2.156   1.876   4.165 -0.4854  0.8431 -0.8158
 2301SOL    MW4 8972   2.103   1.897   4.231 -0.3091 -0.1638 -0.3356
 2302SOL     OW 8973   5.316   2.062   3.552 -0.2978 -0.5433  0.3009
 2302SOL    HW2 8974   5.301   2.025   3.639 -2.3153  0.4193  0.4272
 2302SOL    HW3 8975   5.274   1.999   3.492  1.2861 -1.3259 -0.0534
 2302SOL    MW4 8976   5.308   2.048   3.555 -0.3550 -0.5196  0.2708
 2303SOL     OW 8977   0.583   6.335   1.744 -0.4233  0.5346 -0.0546
 2303SOL    HW2 8978   0.591   6.287   1.661 -1.2029 -0.5258  0.4648
 2303SOL    HW3 8979   0.613   6.423   1.723  1.5440 -0.2791 -0.9209
 2303SOL    MW4 8980   0.588   6.340   1.730 -0.2666  0.2873 -0.1004
 2304SOL     OW 8981   1.474   3.200   4.552  0.0078 -0.3914  0.2944
 2304SOL    HW2 8982   1.448   3.109   4.542 -2.5750  0.2192  0.7654
 2304SOL    HW3 8983   1.448   3.241   4.470 -3.5301  0.8261  1.8455
 2304SOL    MW4 8984   1.467   3.194   4.540 -0.7997 -0.1502  0.5612
 2305SOL     OW 8985   1.691   5.309   3.748 -0.1946 -0.7305 -0.0434
 2305SOL    HW2 8986   1.775   5.329   3.788  1.2904 -1.2614 -2.6584
 2305SOL    HW3 8987   1.636   5.385   3.768  1.5701  0.5855  0.0067
 2305SOL    MW4 8988   1.695   5.322   3.756  0.2341 -0.6269 -0.3818
 2306SOL     OW 8989   6.317   4.571   3.739 -0.4221  0.2517 -0.1470
 2306SOL    HW2 8990   6.272   4.497   3.781 -1.5093  0.1386 -1.4427
 2306SOL    HW3 8991   6.409   4.558   3.759 -0.4135 -2.1998 -1.4059
 2306SOL    MW4 8992   6.323   4.559   3.747 -0.5644 -0.0867 -0.4840
 2307SOL     OW 8993   0.219   4.695   1.430  0.2660 -0.1558  0.7125
 2307SOL    HW2 8994   0.227   4.775   1.378 -1.7022  0.7706  1.7037
 2307SOL    HW3 8995   0.281   4.707   1.502  0.9758 -0.1670  0.1099
 2307SOL    MW4 8996   0.228   4.708   1.433  0.1000 -0.0351  0.7638
 2308SOL     OW 8997   2.925   2.600   0.932  0.4396  0.6640 -0.7143
 2308SOL    HW2 8998   3.010   2.557   0.922  1.4351  2.0402  1.1903
 2308SOL    HW3 8999   2.947   2.693   0.943 -1.1858  0.8553  1.4018
 2308SOL    MW4 9000   2.939   2.607   0.932  0.3565  0.8708 -0.1838
 2309SOL     OW 9001   1.635   5.201   5.853  0.1798 -0.0463  0.0974
 2309SOL    HW2 9002   1.590   5.286   5.850  0.5347  0.1154 -1.2795
 2309SOL    HW3 9003   1.575   5.144   5.902 -0.1475  0.9409  0.8792
 2309SOL    MW4 9004   1.621   5.205   5.859  0.1835  0.1053  0.0189
 2310SOL     OW 9005   0.174   1.592   4.974  0.3309  0.1845 -0.0550
 2310SOL    HW2 9006   0.180   1.541   5.056 -1.7878  0.2586  0.2093
 2310SOL    HW3 9007   0.211   1.677   4.996 -0.4430  0.2837  0.9255
 2310SOL    MW4 9008   0.180   1.596   4.988 -0.0508  0.2074  0.1092
 2311SOL     OW 9009   5.240   1.325   4.573  0.5966 -0.5113 -0.0381
 2311SOL    HW2 9010   5.208   1.332   4.662 -1.1103 -0.8426 -0.5919
 2311SOL    HW3 9011   5.323   1.277   4.581  1.8283  1.7246  1.5838
 2311SOL    MW4 9012   5.247   1.319   4.585  0.5339 -0.2600  0.1028
 2312SOL     OW 9013   4.837   3.124   1.447  0.6187 -0.8289 -0.5998
 2312SOL    HW2 9014   4.858   3.110   1.354 -0.8024 -1.3743 -0.8657
 2312SOL    HW3 9015   4.749   3.090   1.457  0.2512  0.3952  0.6823
 2312SOL    MW4 9016   4.828   3.118   1.436  0.3827 -0.7394 -0.4657
 2313SOL     OW 9017   4.416   0.646   4.885  0.5998 -0.3635 -0.0536
 2313SOL    HW2 9018   4.445   0.567   4.931  1.3500  0.0401  0.1788
 2313SOL    HW3 9019   4.496   0.682   4.847  0.5213  1.1064  1.0991
 2313SOL    MW4 9020   4.430   0.640   4.886  0.6884 -0.1163  0.1292
 2314SOL     OW 9021   0.173   4.719   1.876 -0.3950  0.3096  0.3869
 2314SOL    HW2 9022   0.142   4.782   1.811  0.9250 -0.0997 -0.6897
 2314SOL    HW3 9023   0.187   4.638   1.826 -0.2455 -0.2819  1.3672
 2314SOL    MW4 9024   0.171   4.716   1.861 -0.2011  0.1776  0.3742
 2315SOL     OW 9025   6.159   2.495   3.183  0.4434 -0.4288  0.1058
 2315SOL    HW2 9026   6.133   2.465   3.096  2.6441  1.1693 -1.2147
 2315SOL    HW3 9027   6.127   2.585   3.188  4.0544  1.1200 -1.0359
 2315SOL    MW4 9028   6.151   2.503   3.172  1.2102 -0.0136 -0.2191
 2316SOL     OW 9029   2.208   2.670   5.048  0.4337 -0.2910 -0.5298
 2316SOL    HW2 9030   2.117   2.659   5.079  0.8079  0.6068  1.0208
 2316SOL    HW3 9031   2.212   2.620   4.967 -1.8149  0.7113 -1.3322
 2316SOL    MW4 9032   2.196   2.662   5.042  0.1864 -0.0403 -0.4311
 2317SOL     OW 9033   3.646   3.550   1.191 -0.5268  0.1300 -0.2164
 2317SOL    HW2 9034   3.730   3.584   1.159 -0.0771 -0.9229 -0.1981
 2317SOL    HW3 9035   3.593   3.543   1.112 -0.0554 -0.6850 -0.4710
 2317SOL    MW4 9036   3.650   3.554   1.176 -0.4053 -0.1165 -0.2476
 2318SOL     OW 9037   5.953   5.895   4.673  0.0251  0.3686 -0.1561
 2318SOL    HW2 9038   5.908   5.979   4.666  0.0008  0.5618  1.7656
 2318SOL    HW3 9039   6.045   5.916   4.659 -0.2723  0.1114 -3.1873
 2318SOL    MW4 9040   5.959   5.909   4.671 -0.0174  0.3602 -0.3025
 2319SOL     OW 9041   3.133   2.442   3.745 -0.1304  0.5766  0.9609
 2319SOL    HW2 9042   3.199   2.379   3.773 -0.6047 -1.1500 -1.4801
 2319SOL    HW3 9043   3.143   2.516   3.805  1.1689 -1.3439  3.2972
 2319SOL    MW4 9044   3.143   2.444   3.757 -0.0216  0.0954  0.9471
 2320SOL     OW 9045   1.265   0.781   5.727  0.3731 -0.0139  0.4718
 2320SOL    HW2 9046   1.282   0.731   5.806  0.1619  0.2563  0.6891
 2320SOL    HW3 9047   1.343   0.835   5.715 -0.6153  1.8600  1.9447
 2320SOL    MW4 9048   1.278   0.782   5.736  0.2148  0.2690  0.6948
 2321SOL     OW 9049   3.917   4.963   0.029  0.4222  0.1822 -0.3461
 2321SOL    HW2 9050   4.007   4.956   0.059  0.4609  0.9550 -0.2790
 2321SOL    HW3 9051   3.880   4.875   0.044  1.3367 -0.3187 -0.9770
 2321SOL    MW4 9052   3.924   4.950   0.035  0.5480  0.2181 -0.4205
 2322SOL     OW 9053   0.025   2.005   3.235 -0.1156  0.2968 -0.3390
 2322SOL    HW2 9054   0.021   2.100   3.235 -0.4415  0.3676 -3.3286
 2322SOL    HW3 9055   0.092   1.984   3.300 -1.5267  2.3908  1.9764
 2322SOL    MW4 9056   0.034   2.014   3.244 -0.3448  0.5824 -0.4280
 2323SOL     OW 9057   2.472   3.962   3.122 -0.9630  0.6328 -0.3371
 2323SOL    HW2 9058   2.437   4.009   3.046  0.7605 -0.9750 -2.2320
 2323SOL    HW3 9059   2.433   3.875   3.116  1.3726 -0.4217 -1.1175
 2323SOL    MW4 9060   2.462   3.957   3.111 -0.4275  0.2816 -0.6901
 2324SOL     OW 9061   2.770   0.333   4.294  0.2920  0.2574  0.3020
 2324SOL    HW2 9062   2.760   0.248   4.250  1.1455 -0.6415  1.7844
 2324SOL    HW3 9063   2.740   0.317   4.383  1.0168  1.3541  0.7555
 2324SOL    MW4 9064   2.765   0.319   4.300  0.5002  0.2835  0.5574
 2325SOL     OW 9065   0.865   1.917   2.525  0.5289 -0.0190 -0.2604
 2325SOL    HW2 9066   0.816   1.841   2.493  2.2659 -0.9931 -0.7600
 2325SOL    HW3 9067   0.832   1.991   2.473 -1.7847 -0.2293  0.8276
 2325SOL    MW4 9068   0.854   1.917   2.514  0.4528 -0.1753 -0.1828
 2326SOL     OW 9069   2.682   0.935   0.884  0.3773 -0.3781  0.2736
 2326SOL    HW2 9070   2.693   1.029   0.898 -0.8835 -0.2025  0.2093
 2326SOL    HW3 9071   2.771   0.901   0.881  0.8405  0.5799  1.8336
 2326SOL    MW4 9072   2.695   0.943   0.886  0.2721 -0.2285  0.4710
 2327SOL     OW 9073   2.157   4.427   5.582 -0.2496  0.6397 -0.3504
 2327SOL    HW2 9074   2.249   4.412   5.560  0.0538 -0.3162  1.4220
 2327SOL    HW3 9075   2.156   4.438   5.677 -1.9968  0.4520 -0.3198
 2327SOL    MW4 9076   2.169   4.427   5.592 -0.4401  0.4888 -0.1125
 2328SOL     OW 9077   4.485   0.367   5.821  1.1441 -0.2351 -0.0398
 2328SOL    HW2 9078   4.493   0.361   5.916 -0.2066 -0.6991  0.0722
 2328SOL    HW3 9079   4.391   0.372   5.805  1.3736  0.4743 -1.3253
 2328SOL    MW4 9080   4.474   0.366   5.831  0.9962 -0.2027 -0.1946
 2329SOL     OW 9081   6.054   5.499   2.143 -0.4850 -0.0959 -0.3144
 2329SOL    HW2 9082   6.005   5.541   2.072 -1.0023 -0.8171 -0.4080
 2329SOL    HW3 9083   6.028   5.407   2.137 -1.7669  0.0750  1.7978
 2329SOL    MW4 9084   6.044   5.492   2.133 -0.7224 -0.1685 -0.0481
 2330SOL     OW 9085   0.701   5.835   3.928 -0.5518 -0.0428  0.0122
 2330SOL    HW2 9086   0.650   5.915   3.943 -1.7848 -0.8411  0.2455
 2330SOL    HW3 9087   0.636   5.765   3.931  0.3605 -0.9758 -1.1372
 2330SOL    MW4 9088   0.685   5.837   3.931 -0.5941 -0.2712 -0.1087
 2331SOL     OW 9089   6.274   4.634   3.423 -0.0495  0.6061 -0.0867
 2331SOL    HW2 9090   6.237   4.722   3.433 -2.5177 -0.4523  0.7096
 2331SOL    HW3 9091   6.277   4.599   3.512  0.4446 -0.3014 -0.4518
 2331SOL    MW4 9092   6.270   4.641   3.436 -0.3099  0.3467 -0.0298
 2332SOL     OW 9093   5.565   0.070   3.415  0.2958  0.1888  0.1807
 2332SOL    HW2 9094   5.630   0.121   3.463 -0.6641  0.2591  1.4718
 2332SOL    HW3 9095   5.511   0.135   3.370 -0.3878  0.3188  1.1284
 2332SOL    MW4 9096   5.566   0.085   3.416  0.0789  0.2152  0.4761
 2333SOL     OW 9097   4.777   5.737   5.177  0.2769  0.3346 -0.2461
 2333SOL    HW2 9098   4.818   5.794   5.113  0.5491 -0.2621 -0.6144
 2333SOL    HW3 9099   4.841   5.667   5.192  0.3737  0.6683  0.9698
 2333SOL    MW4 9100   4.790   5.735   5.171  0.3256  0.2999 -0.1343
 2334SOL     OW 9101   5.507   5.986   0.431  0.4478 -0.1797  0.6356
 2334SOL    HW2 9102   5.598   5.988   0.401  1.0316  0.0355  2.3401
 2334SOL    HW3 9103   5.496   6.067   0.481 -0.5982 -0.3616  0.7268
 2334SOL    MW4 9104   5.518   5.997   0.433  0.3868 -0.1754  0.8725
 2335SOL     OW 9105   0.101   5.303   6.242  0.0665 -0.5946 -0.5718
 2335SOL    HW2 9106   0.047   5.238   6.288  1.7161 -1.5894  0.0363
 2335SOL    HW3 9107   0.164   5.251   6.193  2.3666  0.4889  1.0577
 2335SOL    MW4 9108   0.102   5.288   6.242  0.5876 -0.5829 -0.2766
 2336SOL     OW 9109   5.606   5.107   2.001 -0.1910  0.3093  0.2797
 2336SOL    HW2 9110   5.695   5.125   2.030 -0.4609  2.6411 -0.1714
 2336SOL    HW3 9111   5.563   5.192   2.002 -1.8429 -0.4419 -1.4295
 2336SOL    MW4 9112   5.612   5.120   2.005 -0.4446  0.5179 -0.0053
 2337SOL     OW 9113   3.051   4.414   2.531 -0.2982  0.6014 -0.3612
 2337SOL    HW2 9114   3.036   4.435   2.623  1.4732  1.6679 -0.2738
 2337SOL    HW3 9115   2.967   4.380   2.500 -1.3899  1.7150  1.2276
 2337SOL    MW4 9116   3.038   4.412   2.539 -0.2085  0.8891 -0.1401
 2338SOL     OW 9117   4.171   2.530   6.113  0.0232 -0.6504 -0.1371
 2338SOL    HW2 9118   4.098   2.530   6.052 -0.2965  0.0538  0.2299
 2338SOL    HW3 9119   4.246   2.500   6.061 -0.2525 -0.1127 -0.8636
 2338SOL    MW4 9120   4.171   2.526   6.098 -0.0554 -0.4865 -0.1846
 2339SOL     OW 9121   3.796   3.977   1.522  0.3392  0.3173 -0.3296
 2339SOL    HW2 9122   3.849   4.053   1.502  0.0562  0.4252 -0.6765
 2339SOL    HW3 9123   3.712   3.995   1.480  0.3777 -0.3330 -0.6896
 2339SOL    MW4 9124   3.792   3.989   1.514  0.3070  0.2457 -0.4229
 2340SOL     OW 9125   3.870   0.969   5.453  0.4037 -0.5408 -0.4165
 2340SOL    HW2 9126   3.849   0.881   5.483 -1.6554  0.0267 -0.0321
 2340SOL    HW3 9127   3.815   1.026   5.506  0.2441  0.8294 -1.9727
 2340SOL    MW4 9128   3.860   0.965   5.464  0.1110 -0.2851 -0.5711
 2341SOL     OW 9129   1.552   3.624   6.225  0.5196  0.6797  0.0393
 2341SOL    HW2 9130   1.592   3.545   6.187 -0.0433  0.8763 -1.0104
 2341SOL    HW3 9131   1.542   3.603   6.318  0.5963 -0.4027 -0.1745
 2341SOL    MW4 9132   1.556   3.610   6.232  0.4555  0.5628 -0.1274
 2342SOL     OW 9133   3.075   2.817   1.330 -0.5764  0.0025  0.2929
 2342SOL    HW2 9134   3.133   2.878   1.283 -0.9401  1.6583  1.9059
 2342SOL    HW3 9135   3.084   2.841   1.422 -1.9520 -1.3581  0.8192
 2342SOL    MW4 9136   3.084   2.828   1.336 -0.8059  0.0414  0.5752
 2343SOL     OW 9137   3.113   0.238   4.898  0.2425  0.7044  0.1832
 2343SOL    HW2 9138   3.097   0.331   4.913  1.1199  0.8393  0.3155
 2343SOL    HW3 9139   3.026   0.201   4.880 -0.0453  1.6367 -0.3768
 2343SOL    MW4 9140   3.099   0.245   4.897  0.3203  0.8452  0.1268
 2344SOL     OW 9141   3.545   4.640   4.712 -0.4719  0.2660 -0.1610
 2344SOL    HW2 9142   3.549   4.546   4.694  1.6277  0.6094 -1.9260
 2344SOL    HW3 9143   3.616   4.656   4.773  0.4185  0.9360 -1.3283
 2344SOL    MW4 9144   3.554   4.630   4.718 -0.0774  0.3997 -0.5479
 2345SOL     OW 9145   1.504   3.051   5.952 -0.1146 -0.0851 -0.5382
 2345SOL    HW2 9146   1.587   3.029   5.996 -0.7859 -0.0622  0.7812
 2345SOL    HW3 9147   1.448   2.976   5.969 -0.8731  0.5751 -0.0698
 2345SOL    MW4 9148   1.508   3.038   5.960 -0.3032  0.0050 -0.3023
 2346SOL     OW 9149   3.292   4.373   2.155 -0.3999  0.1384  0.0011
 2346SOL    HW2 9150   3.210   4.330   2.130 -0.2849  0.1280 -0.3591
 2346SOL    HW3 9151   3.354   4.351   2.085  0.2100 -0.7193  0.7849
 2346SOL    MW4 9152   3.289   4.364   2.142 -0.3043  0.0239  0.0570
 2347SOL     OW 9153   4.730   4.207   3.740  0.3202  0.8440  0.4900
 2347SOL    HW2 9154   4.673   4.269   3.785  0.7882  1.5819  0.0765
 2347SOL    HW3 9155   4.794   4.261   3.695  1.1246  0.0338  0.6339
 2347SOL    MW4 9156   4.731   4.222   3.740  0.4881  0.8344  0.4544
 2348SOL     OW 9157   2.549   4.407   1.210  0.5694  0.4572 -0.2792
 2348SOL    HW2 9158   2.543   4.443   1.299  2.7554 -0.4492  0.3198
 2348SOL    HW3 9159   2.528   4.314   1.220 -0.4363  0.5981 -0.9652
 2348SOL    MW4 9160   2.546   4.399   1.223  0.7251  0.3562 -0.2907
 2349SOL     OW 9161   4.381   5.691   4.645  0.1324 -0.2468  0.3743
 2349SOL    HW2 9162   4.381   5.674   4.739 -0.4876 -0.5514  0.3209
 2349SOL    HW3 9163   4.293   5.725   4.627  0.2745 -0.1180 -0.0822
 2349SOL    MW4 9164   4.369   5.693   4.655  0.0693 -0.2700  0.3070
 2350SOL     OW 9165   0.631   4.540   1.033  0.4235 -0.2797  0.2034
 2350SOL    HW2 9166   0.578   4.576   1.104 -1.4678  0.6192 -1.5521
 2350SOL    HW3 9167   0.706   4.599   1.028  1.3223 -1.1473  2.2644
 2350SOL    MW4 9168   0.634   4.553   1.042  0.2925 -0.2756  0.2437
 2351SOL     OW 9169   5.689   4.434   3.505  0.5910  0.8041 -0.4689
 2351SOL    HW2 9170   5.644   4.394   3.579 -0.1059  3.3019  0.5362
 2351SOL    HW3 9171   5.665   4.378   3.430 -2.0275  0.5118  0.4736
 2351SOL    MW4 9172   5.680   4.421   3.505  0.1536  1.0951 -0.2119
 2352SOL     OW 9173   1.381   2.852   5.011  0.2759  0.0443 -0.2857
 2352SOL    HW2 9174   1.366   2.906   4.933 -1.6718  2.4095  1.5966
 2352SOL    HW3 9175   1.457   2.893   5.054  0.2794 -0.2002 -0.0585
 2352SOL    MW4 9176   1.389   2.864   5.006  0.0194  0.3241 -0.0074
 2353SOL     OW 9177   4.101   4.416   0.158 -0.1340 -0.1140 -0.4508
 2353SOL    HW2 9178   4.180   4.447   0.114 -0.0834  0.2791 -0.0879
 2353SOL    HW3 9179   4.134   4.372   0.237 -0.3272  1.0386  0.2879
 2353SOL    MW4 9180   4.116   4.414   0.163 -0.1528  0.0900 -0.3055
 2354SOL     OW 9181   0.883   4.763   0.153  0.2237 -0.4276 -0.4333
 2354SOL    HW2 9182   0.866   4.854   0.179  0.2428 -0.7976  0.9871
 2354SOL    HW3 9183   0.802   4.736   0.109  0.7950  0.7269 -2.3227
 2354SOL    MW4 9184   0.870   4.772   0.151  0.3016 -0.3241 -0.4952
 2355SOL     OW 9185   0.246   0.409   4.453 -0.1890 -0.0586 -0.4692
 2355SOL    HW2 9186   0.341   0.423   4.462  0.2372 -2.0338 -1.3001
 2355SOL    HW3 9187   0.210   0.497   4.446  1.4798  0.7915  0.7122
 2355SOL    MW4 9188   0.254   0.423   4.453  0.0874 -0.2070 -0.4229
 2356SOL     OW 9189   5.888   1.161   5.689  0.5162  0.1656 -0.3455
 2356SOL    HW2 9190   5.841   1.148   5.606  1.0211  0.1868 -0.6391
 2356SOL    HW3 9191   5.853   1.243   5.724  1.2296  0.8483 -1.1884
 2356SOL    MW4 9192   5.877   1.170   5.683  0.6769  0.2585 -0.4955
 2357SOL     OW 9193   5.959   3.044   0.902  0.1093 -0.5056  0.4237
 2357SOL    HW2 9194   5.904   3.110   0.945 -0.2753 -1.1354  0.8981
 2357SOL    HW3 9195   5.897   2.983   0.862  0.4678 -0.6752  0.1148
 2357SOL    MW4 9196   5.944   3.045   0.902  0.1058 -0.6110  0.4455
 2358SOL     OW 9197   4.632   2.391   3.578  0.1474  0.9416  0.0441
 2358SOL    HW2 9198   4.684   2.339   3.518  0.9777  1.2360  0.4774
 2358SOL    HW3 9199   4.552   2.412   3.530  0.0508 -0.2426 -0.3291
 2358SOL    MW4 9200   4.628   2.387   3.564  0.2442  0.8242  0.0520
 2359SOL     OW 9201   4.976   0.281   3.541  0.0074  0.7698  0.1769
 2359SOL    HW2 9202   4.983   0.189   3.568 -2.9522  0.0885 -0.9548
 2359SOL    HW3 9203   4.979   0.330   3.622 -2.0484 -0.7015  1.2542
 2359SOL    MW4 9204   4.977   0.275   3.555 -0.6543  0.4858  0.1697
 2360SOL     OW 9205   3.742   6.395   3.898 -0.0594  0.2535  0.1933
 2360SOL    HW2 9206   3.807   6.391   3.969  0.4146 -0.5756 -0.2734
 2360SOL    HW3 9207   3.793   6.423   3.822 -0.1628 -0.8080 -0.2716
 2360SOL    MW4 9208   3.757   6.398   3.898 -0.0105  0.0040  0.0704
 2361SOL     OW 9209   6.128   5.416   4.831 -0.6091  0.5438 -0.1472
 2361SOL    HW2 9210   6.176   5.344   4.871  1.0227  1.0835 -1.0140
 2361SOL    HW3 9211   6.195   5.484   4.816 -1.5265  1.1437 -1.8723
 2361SOL    MW4 9212   6.143   5.416   4.834 -0.5148  0.6942 -0.4891
 2362SOL     OW 9213   5.816   1.722   6.360  0.2591 -0.3557  0.9054
 2362SOL    HW2 9214   5.751   1.737   6.428  0.9548 -1.1309  1.7648
 2362SOL    HW3 9215   5.798   1.633   6.329 -0.2335  0.0907 -0.1492
 2362SOL    MW4 9216   5.805   1.712   6.364  0.2859 -0.3991  0.8797
 2363SOL     OW 9217   5.529   5.996   3.387  0.5263 -0.1260 -0.0332
 2363SOL    HW2 9218   5.559   6.074   3.340 -0.0672 -0.8179 -1.6696
 2363SOL    HW3 9219   5.445   5.974   3.345  0.2102 -1.0884  1.0395
 2363SOL    MW4 9220   5.522   6.003   3.375  0.4063 -0.3442 -0.1076
 2364SOL     OW 9221   4.015   2.803   0.049  0.2400 -0.3316  0.5471
 2364SOL    HW2 9222   4.047   2.715   0.069 -1.5084 -0.8716  1.2241
 2364SOL    HW3 9223   3.933   2.788   0.001 -0.2592  0.9067  0.9666
 2364SOL    MW4 9224   4.008   2.789   0.045 -0.0565 -0.2395  0.6918
 2365SOL     OW 9225   2.460   2.359   4.824 -0.4283 -0.3090 -0.3560
 2365SOL    HW2 9226   2.543   2.317   4.802 -0.1218 -0.1853  0.5273
 2365SOL    HW3 9227   2.418   2.299   4.885 -2.2102 -1.6421 -2.7529
 2365SOL    MW4 9228   2.466   2.346   4.829 -0.6230 -0.4686 -0.5557
 2366SOL     OW 9229   4.189   2.203   2.545  0.1102  0.2138  0.0948
 2366SOL    HW2 9230   4.142   2.246   2.616 -0.2294 -0.5642  0.3486
 2366SOL    HW3 9231   4.238   2.132   2.587  0.3826  0.1249 -0.3614
 2366SOL    MW4 9232   4.189   2.199   2.560  0.1013  0.0994  0.0681
 2367SOL     OW 9233   4.792   0.356   1.461  0.2338 -0.1612  0.5176
 2367SOL    HW2 9234   4.749   0.323   1.540  0.2957  0.1400  0.6788
 2367SOL    HW3 9235   4.723   0.358   1.395  0.2913 -0.8648  0.4340
 2367SOL    MW4 9236   4.777   0.352   1.463  0.2495 -0.2143  0.5278
 2368SOL     OW 9237   1.293   2.383   4.601  0.1717 -0.3557 -0.3283
 2368SOL    HW2 9238   1.229   2.429   4.547  0.4459  1.3653  0.7246
 2368SOL    HW3 9239   1.375   2.430   4.587  0.1964  0.3325  1.7101
 2368SOL    MW4 9240   1.295   2.395   4.592  0.2112 -0.0378  0.0796
 2369SOL     OW 9241   5.557   1.005   2.939  0.7180  0.4070 -0.3238
 2369SOL    HW2 9242   5.582   0.952   3.014 -0.2963 -1.3551 -1.1569
 2369SOL    HW3 9243   5.464   1.027   2.954  0.3765 -0.3424 -1.2371
 2369SOL    MW4 9244   5.548   1.001   2.951  0.5392  0.0756 -0.5542
 2370SOL     OW 9245   5.701   1.021   4.765  0.1819 -0.3703 -0.2915
 2370SOL    HW2 9246   5.742   0.963   4.700 -1.6040 -0.8171 -1.0659
 2370SOL    HW3 9247   5.679   0.964   4.838 -1.0275 -0.5886 -0.8026
 2370SOL    MW4 9248   5.704   1.006   4.766 -0.2133 -0.4580 -0.4611
 2371SOL     OW 9249   5.601   1.323   1.378  0.1440 -0.5606 -0.2310
 2371SOL    HW2 9250   5.585   1.324   1.472  0.8109  0.3232 -0.1186
 2371SOL    HW3 9251   5.513   1.318   1.339 -0.3550  1.8289  0.4046
 2371SOL    MW4 9252   5.587   1.322   1.385  0.1662 -0.1287 -0.1323
 2372SOL     OW 9253   1.927   2.649   5.006 -0.1519 -0.7816  0.8768
 2372SOL    HW2 9254   1.852   2.708   4.997  0.2238 -0.5234 -0.9848
 2372SOL    HW3 9255   1.900   2.570   4.959  0.5692 -0.8323  0.5367
 2372SOL    MW4 9256   1.914   2.646   4.998 -0.0072 -0.7542  0.5863
 2373SOL     OW 9257   1.400   0.067   3.246 -0.0248 -0.3101 -0.0640
 2373SOL    HW2 9258   1.337   0.114   3.191 -1.2552 -1.2716  0.4710
 2373SOL    HW3 9259   1.401  -0.022   3.211  2.4088  0.0571 -1.1807
 2373SOL    MW4 9260   1.392   0.061   3.234  0.1340 -0.3885 -0.1408
 2374SOL     OW 9261   1.782   5.752   5.108 -0.5337 -0.0822  0.1825
 2374SOL    HW2 9262   1.839   5.704   5.168 -2.2546 -2.5723 -0.0389
 2374SOL    HW3 9263   1.799   5.844   5.128  1.9586 -0.7504  1.5700
 2374SOL    MW4 9264   1.791   5.758   5.118 -0.4319 -0.4989  0.3363
 2375SOL     OW 9265   0.380   3.271   2.658  0.0058 -0.1683  0.5029
 2375SOL    HW2 9266   0.475   3.271   2.652 -0.0066  0.9010  0.0376
 2375SOL    HW3 9267   0.360   3.215   2.733  1.0051 -0.2900  0.6850
 2375SOL    MW4 9268   0.390   3.264   2.667  0.1360 -0.0433  0.4655
 2376SOL     OW 9269   0.147   4.609   0.417  0.3472 -0.3810 -0.5998
 2376SOL    HW2 9270   0.176   4.546   0.483  0.1396  0.8987  0.7677
 2376SOL    HW3 9271   0.102   4.677   0.467  2.0962  1.7636 -1.8007
 2376SOL    MW4 9272   0.145   4.610   0.432  0.5506  0.0708 -0.5778
 2377SOL     OW 9273   2.079   1.826   5.066  0.9171  1.1008 -0.0860
 2377SOL    HW2 9274   2.050   1.756   5.007  1.9289 -2.3643  3.1269
 2377SOL    HW3 9275   2.166   1.849   5.035  1.1985 -0.2164 -0.3437
 2377SOL    MW4 9276   2.086   1.820   5.054  1.0878  0.4698  0.3039
 2378SOL     OW 9277   3.954   1.971   2.191  0.4605 -0.0532  0.0450
 2378SOL    HW2 9278   4.007   1.898   2.159 -0.9426 -1.0076 -0.1815
 2378SOL    HW3 9279   3.977   2.044   2.134  1.3005 -0.5351 -0.2410
 2378SOL    MW4 9280   3.964   1.971   2.179  0.3862 -0.2427 -0.0226
 2379SOL     OW 9281   1.284   5.746   2.495 -0.6353 -0.1802  0.3705
 2379SOL    HW2 9282   1.241   5.665   2.464 -0.3917  0.2164 -1.0943
 2379SOL    HW3 9283   1.219   5.814   2.478  0.4024  0.3931 -1.6464
 2379SOL    MW4 9284   1.269   5.744   2.488 -0.4662 -0.0523 -0.0889
 2380SOL     OW 9285   4.799   5.974   3.607 -0.2809 -0.2979  0.3959
 2380SOL    HW2 9286   4.721   6.016   3.572 -0.1417 -0.2180  0.1806
 2380SOL    HW3 9287   4.773   5.945   3.695 -1.0128 -1.6123 -0.2251
 2380SOL    MW4 9288   4.786   5.975   3.614 -0.3591 -0.4608  0.2856
 2381SOL     OW 9289   4.588   5.067   1.959 -0.6717  0.3203  0.2833
 2381SOL    HW2 9290   4.611   5.160   1.955  1.3599 -0.1836 -1.1120
 2381SOL    HW3 9291   4.671   5.021   1.953 -1.7342 -1.6269 -0.5380
 2381SOL    MW4 9292   4.602   5.074   1.958 -0.5438 -0.0031 -0.0091
 2382SOL     OW 9293   2.987   1.550   5.630 -0.1856 -0.0393  0.1005
 2382SOL    HW2 9294   3.054   1.618   5.628 -0.4437  0.2223  0.2465
 2382SOL    HW3 9295   2.918   1.586   5.687  0.3235 -1.0279  1.3921
 2382SOL    MW4 9296   2.987   1.564   5.637 -0.1525 -0.1352  0.2901
 2383SOL     OW 9297   0.361   5.469   5.697 -0.3997 -0.6308 -0.0212
 2383SOL    HW2 9298   0.445   5.424   5.702 -0.1377  0.0000  2.0284
 2383SOL    HW3 9299   0.297   5.399   5.686  0.1075 -1.4674  1.9773
 2383SOL    MW4 9300   0.364   5.454   5.696 -0.2982 -0.6579  0.5129
 2384SOL     OW 9301   5.232   0.312   0.713 -0.4561  0.1653  0.7096
 2384SOL    HW2 9302   5.238   0.216   0.715 -0.8449 -0.0487 -2.8190
 2384SOL    HW3 9303   5.322   0.341   0.729  0.1050 -0.9057 -0.3112
 2384SOL    MW4 9304   5.245   0.303   0.716 -0.4334 -0.0043  0.1094
 2385SOL     OW 9305   5.804   4.369   1.508  0.4010  0.2949  0.0043
 2385SOL    HW2 9306   5.790   4.414   1.592  0.5099 -0.4663  0.4398
 2385SOL    HW3 9307   5.896   4.387   1.486  0.2650  0.8102 -0.1428
 2385SOL    MW4 9308   5.815   4.377   1.516  0.3974  0.2624  0.0423
 2386SOL     OW 9309   3.103   5.177   2.169  0.0285 -0.0495 -0.3178
 2386SOL    HW2 9310   3.067   5.095   2.135  1.0389  0.0184 -1.6321
 2386SOL    HW3 9311   3.048   5.245   2.129 -1.4698 -0.0560  1.5755
 2386SOL    MW4 9312   3.091   5.175   2.159 -0.0359 -0.0414 -0.2414
 2387SOL     OW 9313   2.677   5.490   0.826 -0.5505 -0.4342  0.0677
 2387SOL    HW2 9314   2.607   5.521   0.768 -1.9124 -1.4739  1.0841
 2387SOL    HW3 9315   2.632   5.437   0.892  1.0121  0.3084  1.8092
 2387SOL    MW4 9316   2.662   5.487   0.827 -0.5240 -0.4734  0.4316
 2388SOL     OW 9317   0.014   4.965   1.625 -0.0629 -0.1083  0.0796
 2388SOL    HW2 9318   0.095   5.009   1.599 -0.6408 -0.8531 -3.6402
 2388SOL    HW3 9319  -0.037   4.960   1.544 -2.6407 -2.1502  1.6638
 2388SOL    MW4 9320   0.018   4.970   1.611 -0.4792 -0.4760 -0.2022
 2389SOL     OW 9321   6.223   1.719   0.054  0.1857 -0.0312  0.6312
 2389SOL    HW2 9322   6.173   1.638   0.047 -1.2339  0.9393 -1.8907
 2389SOL    HW3 9323   6.165   1.786   0.020  1.8411  1.8463  1.2881
 2389SOL    MW4 9324   6.209   1.717   0.049  0.2168  0.3446  0.3851
 2390SOL     OW 9325   3.349   2.833   3.199  0.1235  0.2809 -0.2940
 2390SOL    HW2 9326   3.317   2.874   3.279  0.2387  0.2907 -0.2519
 2390SOL    HW3 9327   3.276   2.837   3.138  0.4275  1.4280 -0.6130
 2390SOL    MW4 9328   3.335   2.839   3.201  0.1788  0.4336 -0.3305
 2391SOL     OW 9329   0.692   1.831   1.499 -0.2545 -0.3875 -0.3308
 2391SOL    HW2 9330   0.659   1.896   1.437 -0.1856 -0.1100 -0.0736
 2391SOL    HW3 9331   0.771   1.870   1.535 -0.3821 -0.4803  0.0529
 2391SOL    MW4 9332   0.698   1.845   1.495 -0.2623 -0.3631 -0.2462
 2392SOL     OW 9333   4.694   4.935   4.641 -0.6645 -0.4745  0.2349
 2392SOL    HW2 9334   4.672   4.995   4.570  0.1778  1.1153  1.2699
 2392SOL    HW3 9335   4.770   4.974   4.683  0.5904 -2.8123  0.3259
 2392SOL    MW4 9336   4.701   4.948   4.637 -0.3878 -0.5732  0.3834
 2393SOL     OW 9337   5.111   1.372   6.191 -0.0157 -0.0643  0.0875
 2393SOL    HW2 9338   5.060   1.311   6.244 -0.7788  0.1140 -0.4377
 2393SOL    HW3 9339   5.105   1.339   6.102 -1.2775  1.3098 -0.3723
 2393SOL    MW4 9340   5.104   1.360   6.186 -0.2829  0.1405 -0.0424
 2394SOL     OW 9341   5.669   1.324   0.527 -0.0257  0.0527 -0.0468
 2394SOL    HW2 9342   5.702   1.237   0.551  1.5080  0.2521 -1.1931
 2394SOL    HW3 9343   5.580   1.309   0.495 -0.3222 -0.8585  1.1604
 2394SOL    MW4 9344   5.662   1.311   0.526  0.1376 -0.0412 -0.0387
 2395SOL     OW 9345   0.305   3.135   5.039  0.3546  0.7184 -0.2092
 2395SOL    HW2 9346   0.224   3.168   5.000  0.6110  0.2585 -1.1414
 2395SOL    HW3 9347   0.286   3.044   5.062 -0.0881  1.2296  1.6165
 2395SOL    MW4 9348   0.292   3.128   5.037  0.3300  0.7252 -0.0913
 2396SOL     OW 9349   0.454   1.303   4.516  0.6946 -0.3519  0.2911
 2396SOL    HW2 9350   0.502   1.353   4.581  0.5121 -1.5570  1.3815
 2396SOL    HW3 9351   0.404   1.238   4.566 -0.3532 -0.5630 -0.9602
 2396SOL    MW4 9352   0.454   1.301   4.531  0.5322 -0.5387  0.2699
 2397SOL     OW 9353   3.267   3.715   4.089 -0.1682  0.0894 -0.3290
 2397SOL    HW2 9354   3.250   3.791   4.034 -3.0705 -0.8393 -0.8960
 2397SOL    HW3 9355   3.202   3.650   4.061  2.4632 -2.8333 -0.2318
 2397SOL    MW4 9356   3.256   3.716   4.078 -0.2039 -0.4187 -0.3910
 2398SOL     OW 9357   1.817   5.805   1.498  0.0138  0.3219 -0.1594
 2398SOL    HW2 9358   1.905   5.831   1.471  1.1259 -2.5656  0.3920
 2398SOL    HW3 9359   1.794   5.734   1.438 -1.9781  0.9739 -0.2527
 2398SOL    MW4 9360   1.826   5.799   1.486 -0.1023  0.0269 -0.0990
 2399SOL     OW 9361   6.331   4.030   1.835  0.0588  0.0793  0.4134
 2399SOL    HW2 9362   6.408   4.086   1.844  0.7292 -0.9468  1.2875
 2399SOL    HW3 9363   6.278   4.073   1.767  2.2935 -0.2131 -1.6322
 2399SOL    MW4 9364   6.334   4.043   1.827  0.4421 -0.0947  0.2589
 2400SOL     OW 9365   1.891   3.910   1.641 -0.6157  0.3514 -0.3596
 2400SOL    HW2 9366   1.908   3.874   1.554 -1.1799  0.5361 -0.5522
 2400SOL    HW3 9367   1.909   4.003   1.632 -0.2820  0.3049 -0.1705
 2400SOL    MW4 9368   1.895   3.917   1.628 -0.6461  0.3696 -0.3600
 2401SOL     OW 9369   3.942   5.501   6.092 -0.2403 -0.4402 -0.0807
 2401SOL    HW2 9370   4.017   5.441   6.091 -0.9243 -1.3378  0.4738
 2401SOL    HW3 9371   3.906   5.491   6.180 -1.2321 -0.3029 -0.4682
 2401SOL    MW4 9372   3.947   5.492   6.103 -0.4614 -0.5405 -0.0586
 2402SOL     OW 9373   0.020   2.471   5.044  0.4098 -0.0693  0.2181
 2402SOL    HW2 9374  -0.037   2.443   4.972  0.1682 -0.6561  0.6305
 2402SOL    HW3 9375   0.032   2.392   5.097  0.5741  0.3594  0.8263
 2402SOL    MW4 9376   0.014   2.457   5.042  0.3996 -0.0901  0.3528
 2403SOL     OW 9377   1.253   1.847   0.798 -0.0295 -0.4253  0.2040
 2403SOL    HW2 9378   1.331   1.869   0.849  0.6622 -1.9208 -0.1540
 2403SOL    HW3 9379   1.197   1.798   0.859  1.0084 -2.6343 -0.5234
 2403SOL    MW4 9380   1.256   1.843   0.813  0.1987 -0.9141  0.0607
 2404SOL     OW 9381   6.334   1.557   3.205  0.0170  0.2582 -0.3720
 2404SOL    HW2 9382   6.414   1.575   3.254  0.0972  1.5279 -0.9423
 2404SOL    HW3 9383   6.348   1.599   3.120 -0.2023 -1.7201 -1.4471
 2404SOL    MW4 9384   6.346   1.565   3.201 -0.0014  0.1647 -0.5891
 2405SOL     OW 9385   3.386   3.231   4.614 -0.0570  0.0858 -0.3034
 2405SOL    HW2 9386   3.405   3.141   4.587  0.7862  0.3035 -0.4725
 2405SOL    HW3 9387   3.347   3.222   4.701  0.9787 -0.4043  0.1362
 2405SOL    MW4 9388   3.384   3.218   4.622  0.1909  0.0499 -0.2677
 2406SOL     OW 9389   0.377   3.421   3.650  0.4264  0.4018  0.0375
 2406SOL    HW2 9390   0.408   3.346   3.701  0.7615 -0.6647 -1.6753
 2406SOL    HW3 9391   0.341   3.480   3.716  0.4693 -1.0946  1.4847
 2406SOL    MW4 9392   0.376   3.419   3.666  0.4763  0.0637  0.0024
 2407SOL     OW 9393   1.198   2.339   2.830 -0.5423  0.7784  0.0789
 2407SOL    HW2 9394   1.106   2.315   2.836 -0.3579  0.3762  2.2224
 2407SOL    HW3 9395   1.218   2.378   2.915  1.9199 -1.6463  0.7612
 2407SOL    MW4 9396   1.188   2.341   2.842 -0.1931  0.4054  0.4517
 2408SOL     OW 9397   4.496   5.923   0.311 -0.4251  0.0558  0.4137
 2408SOL    HW2 9398   4.529   5.856   0.252 -1.9333 -1.2310  0.9757
 2408SOL    HW3 9399   4.507   6.005   0.263  1.4322 -0.5460 -0.2926
 2408SOL    MW4 9400   4.502   5.925   0.297 -0.3791 -0.1934  0.3946
 2409SOL     OW 9401   3.042   0.874   4.346  0.1072 -0.1454 -0.1292
 2409SOL    HW2 9402   3.007   0.953   4.305  1.0865  0.2291 -0.2616
 2409SOL    HW3 9403   3.132   0.868   4.314  0.4547 -0.5933  0.8971
 2409SOL    MW4 9404   3.049   0.884   4.336  0.2823 -0.1551 -0.0113
 2410SOL     OW 9405   4.086   0.181   2.402  0.4913 -0.0788 -0.1470
 2410SOL    HW2 9406   4.066   0.121   2.474 -2.2290  0.0731 -0.6432
 2410SOL    HW3 9407   4.020   0.250   2.410  0.9635  0.6498 -1.9962
 2410SOL    MW4 9408   4.074   0.183   2.413  0.1947  0.0373 -0.4565
 2411SOL     OW 9409   3.077   4.517   5.744  0.2884 -0.0972  0.2437
 2411SOL    HW2 9410   3.127   4.435   5.737  0.5370  0.0704  0.0103
 2411SOL    HW3 9411   3.041   4.530   5.656  2.7070  1.5800 -0.6155
 2411SOL    MW4 9412   3.079   4.508   5.731  0.6403  0.1462  0.0996
 2412SOL     OW 9413   4.990   5.582   1.266 -0.3152 -0.0564 -0.3707
 2412SOL    HW2 9414   5.066   5.634   1.240 -1.8583  3.0812  0.8451
 2412SOL    HW3 9415   4.931   5.586   1.191 -1.3532  2.0429  0.4539
 2412SOL    MW4 9416   4.992   5.590   1.253 -0.6558  0.6345 -0.1015
 2413SOL     OW 9417   2.514   5.229   5.167 -0.0974  0.1981  0.5501
 2413SOL    HW2 9418   2.539   5.306   5.219  0.9793 -0.3359  0.8457
 2413SOL    HW3 9419   2.579   5.163   5.190  0.5088 -0.0219 -1.6134
 2413SOL    MW4 9420   2.525   5.231   5.177  0.1247  0.0986  0.3037
 2414SOL     OW 9421   3.597   6.152   4.983  0.0999 -0.3015 -0.1374
 2414SOL    HW2 9422   3.559   6.139   5.070 -0.3736  1.1603 -0.0948
 2414SOL    HW3 9423   3.689   6.171   5.000  0.0813 -0.3506  0.0224
 2414SOL    MW4 9424   3.604   6.153   4.997  0.0350 -0.1151 -0.1107
 2415SOL     OW 9425   5.430   4.768   2.833  0.5570  0.0670  0.3356
 2415SOL    HW2 9426   5.510   4.719   2.817 -1.2691 -3.1228  0.3161
 2415SOL    HW3 9427   5.383   4.768   2.749 -0.8001 -0.8417  1.0431
 2415SOL    MW4 9428   5.434   4.762   2.820  0.1370 -0.4737  0.4263
 2416SOL     OW 9429   6.358   1.636   5.077  0.3741  0.4042  0.1039
 2416SOL    HW2 9430   6.341   1.570   5.144 -0.4676  1.1156  0.6224
 2416SOL    HW3 9431   6.451   1.625   5.055  0.7956  0.4434  1.7229
 2416SOL    MW4 9432   6.368   1.626   5.083  0.3187  0.5032  0.3859
 2417SOL     OW 9433   4.934   2.756   4.816 -0.2731  0.4242  0.3844
 2417SOL    HW2 9434   4.887   2.673   4.822 -0.6600  0.6169  0.0172
 2417SOL    HW3 9435   5.001   2.750   4.884 -0.7856  0.1204  0.8683
 2417SOL    MW4 9436   4.936   2.744   4.826 -0.3918  0.4095  0.3998
 2418SOL     OW 9437   4.844   0.191   1.889  0.2353 -0.3319 -0.6045
 2418SOL    HW2 9438   4.775   0.206   1.824 -0.4061  0.9658  0.3416
 2418SOL    HW3 9439   4.808   0.123   1.946  1.8547 -3.4967 -3.0243
 2418SOL    MW4 9440   4.830   0.184   1.888  0.3644 -0.5782 -0.7989
 2419SOL     OW 9441   4.737   6.294   2.788 -0.6090  0.2641 -0.0282
 2419SOL    HW2 9442   4.665   6.351   2.763  0.8562  1.8061 -0.9828
 2419SOL    HW3 9443   4.735   6.223   2.724 -2.3460 -0.7376  1.0695
 2419SOL    MW4 9444   4.727   6.292   2.776 -0.6449  0.3354 -0.0093
 2420SOL     OW 9445   2.047   1.628   3.426 -0.1985  0.4836  0.0431
 2420SOL    HW2 9446   2.005   1.551   3.465  0.8360  0.4904  1.2292
 2420SOL    HW3 9447   2.064   1.603   3.335 -1.5527  0.0134 -0.1051
 2420SOL    MW4 9448   2.044   1.615   3.419 -0.2407  0.4224  0.1800
 2421SOL     OW 9449   6.193   3.153   4.990 -0.3079  0.2477  0.3811
 2421SOL    HW2 9450   6.213   3.071   4.946  0.3853  0.5380  0.1441
 2421SOL    HW3 9451   6.186   3.217   4.919 -2.9888  0.0264  0.3342
 2421SOL    MW4 9452   6.194   3.151   4.975 -0.5701  0.2568  0.3437
 2422SOL     OW 9453   5.965   2.104   3.391  0.4633  0.0097  0.0971
 2422SOL    HW2 9454   5.921   2.070   3.313 -0.2499 -1.7883  1.2189
 2422SOL    HW3 9455   6.053   2.067   3.387  0.8232  0.8934 -0.4392
 2422SOL    MW4 9456   5.971   2.095   3.381  0.4167 -0.1110  0.1744
 2423SOL     OW 9457   1.616   3.586   0.106  0.2471  0.1348 -0.1671
 2423SOL    HW2 9458   1.611   3.652   0.175 -0.7169  0.1673 -0.2466
 2423SOL    HW3 9459   1.672   3.625   0.039  1.3017  0.0488  0.6486
 2423SOL    MW4 9460   1.623   3.600   0.106  0.2591  0.1277 -0.0700
 2424SOL     OW 9461   5.775   0.434   3.791 -0.0203 -0.3964  0.0465
 2424SOL    HW2 9462   5.759   0.375   3.717  0.2361  0.8787 -1.0587
 2424SOL    HW3 9463   5.754   0.521   3.757  0.8865  0.3115  1.2343
 2424SOL    MW4 9464   5.770   0.438   3.777  0.1331 -0.1348  0.0574
 2425SOL     OW 9465   0.245   0.558   1.489  0.1611 -0.2178  0.1632
 2425SOL    HW2 9466   0.162   0.591   1.454  0.1938 -0.9157 -0.5948
 2425SOL    HW3 9467   0.312   0.614   1.448  0.0268  1.2356  1.8030
 2425SOL    MW4 9468   0.243   0.570   1.479  0.1477 -0.1181  0.2795
 2426SOL     OW 9469   2.141   5.479   0.264 -0.3013 -0.0649 -0.0480
 2426SOL    HW2 9470   2.196   5.451   0.191 -0.8230  0.4227 -0.6358
 2426SOL    HW3 9471   2.076   5.536   0.224  0.0878  1.1241  0.9701
 2426SOL    MW4 9472   2.140   5.483   0.249 -0.3188  0.1563  0.0088
 2427SOL     OW 9473   5.554   2.279   3.762 -0.2420 -0.6601 -0.3336
 2427SOL    HW2 9474   5.610   2.356   3.769 -1.0108  0.0459 -1.6170
 2427SOL    HW3 9475   5.465   2.312   3.774 -0.5431 -1.4076 -0.4546
 2427SOL    MW4 9476   5.550   2.293   3.764 -0.3831 -0.6656 -0.5189
 2428SOL     OW 9477   3.454   3.016   4.149 -0.1982 -0.1293 -0.3153
 2428SOL    HW2 9478   3.519   2.948   4.132  0.0212  0.7194 -3.5578
 2428SOL    HW3 9479   3.492   3.070   4.217  0.0888 -2.5593  1.5953
 2428SOL    MW4 9480   3.467   3.014   4.155 -0.1314 -0.3379 -0.4910
 2429SOL     OW 9481   2.385   2.817   0.573  0.1126 -0.1039 -0.0661
 2429SOL    HW2 9482   2.480   2.808   0.584  0.0210  0.5269  1.4812
 2429SOL    HW3 9483   2.364   2.760   0.499  1.9430  1.1206 -1.6164
 2429SOL    MW4 9484   2.395   2.808   0.565  0.3420  0.1409 -0.0665
 2430SOL     OW 9485   4.580   5.637   0.705 -0.1181  0.0241 -0.6158
 2430SOL    HW2 9486   4.647   5.704   0.717  0.4813 -0.4840 -1.0597
 2430SOL    HW3 9487   4.517   5.677   0.644 -0.4187  0.6353  0.0775
 2430SOL    MW4 9488   4.581   5.651   0.698 -0.0787  0.0377 -0.5829
 2431SOL     OW 9489   2.453   2.831   0.975 -0.1818  0.4322 -0.3547
 2431SOL    HW2 9490   2.454   2.878   1.058 -4.1184 -0.8626  0.6432
 2431SOL    HW3 9491   2.480   2.742   0.997 -0.2238  0.3351 -0.6789
 2431SOL    MW4 9492   2.457   2.825   0.989 -0.7067  0.2486 -0.2658
 2432SOL     OW 9493   6.394   3.408   4.375  0.1178 -0.3998  0.7401
 2432SOL    HW2 9494   6.325   3.473   4.389 -1.0845 -1.8729  1.8763
 2432SOL    HW3 9495   6.474   3.453   4.402 -0.9420 -0.0065  3.5609
 2432SOL    MW4 9496   6.395   3.423   4.380 -0.1807 -0.5423  1.2622
 2433SOL     OW 9497   1.632   0.448   1.268  0.5138  0.7523  0.4299
 2433SOL    HW2 9498   1.553   0.416   1.313  0.1650 -1.1133 -1.3625
 2433SOL    HW3 9499   1.599   0.483   1.185  1.5614 -0.0066 -0.3178
 2433SOL    MW4 9500   1.617   0.448   1.263  0.6060  0.4060  0.0947
 2434SOL     OW 9501   5.730   1.254   2.420 -0.0005 -0.5263 -0.3634
 2434SOL    HW2 9502   5.789   1.317   2.378 -1.3322  0.9385 -0.1239
 2434SOL    HW3 9503   5.715   1.291   2.507  0.5074 -2.0763  0.4246
 2434SOL    MW4 9504   5.736   1.267   2.426 -0.1092 -0.5375 -0.2278
 2435SOL     OW 9505   4.576   3.100   0.456  0.0291  0.2480 -0.2387
 2435SOL    HW2 9506   4.628   3.137   0.527 -0.6649 -1.7455  1.4331
 2435SOL    HW3 9507   4.639   3.052   0.403  0.1953 -0.6534  0.7372
 2435SOL    MW4 9508   4.591   3.098   0.458 -0.0405 -0.1340  0.1106
 2436SOL     OW 9509   2.833   6.025   2.025  0.1134  0.1200 -0.1920
 2436SOL    HW2 9510   2.907   5.996   1.971  1.1075  2.7161 -0.3599
 2436SOL    HW3 9511   2.860   6.003   2.115  0.1402 -0.8085 -0.4151
 2436SOL    MW4 9512   2.847   6.018   2.030  0.2481  0.3400 -0.2436
 2437SOL     OW 9513   6.142   1.423   3.519 -0.6287  0.0452  0.5628
 2437SOL    HW2 9514   6.130   1.407   3.425 -1.4795  0.9864  0.4888
 2437SOL    HW3 9515   6.224   1.471   3.525 -1.1898  1.1031  0.1462
 2437SOL    MW4 9516   6.151   1.427   3.507 -0.8150  0.3089  0.4981
 2438SOL     OW 9517   3.485   1.316   6.119  0.1659  0.5656  0.3003
 2438SOL    HW2 9518   3.403   1.320   6.168  0.1923  0.4949  0.3519
 2438SOL    HW3 9519   3.500   1.222   6.107  0.9886  0.5084  1.5750
 2438SOL    MW4 9520   3.476   1.304   6.124  0.2779  0.5487  0.4753
 2439SOL     OW 9521   1.311   0.457   0.640  0.4061 -0.2889 -0.9583
 2439SOL    HW2 9522   1.370   0.464   0.565  0.1369 -2.4963 -1.4276
 2439SOL    HW3 9523   1.339   0.379   0.687 -0.7435 -0.1241  0.0741
 2439SOL    MW4 9524   1.322   0.448   0.636  0.2189 -0.5584 -0.8840
 2440SOL     OW 9525   3.085   4.240   2.894  0.1803  0.6284 -0.1020
 2440SOL    HW2 9526   3.016   4.177   2.917  0.4678  0.9667  1.8560
 2440SOL    HW3 9527   3.160   4.185   2.868  0.3851  0.1213  1.4639
 2440SOL    MW4 9528   3.086   4.224   2.894  0.2453  0.6061  0.3630
 2441SOL     OW 9529   3.222   3.710   1.001  0.1274 -0.7289 -0.2033
 2441SOL    HW2 9530   3.177   3.713   0.917  0.2935  0.3547 -0.2758
 2441SOL    HW3 9531   3.305   3.667   0.982 -0.0401 -0.9279 -0.4910
 2441SOL    MW4 9532   3.227   3.705   0.987  0.1272 -0.6122 -0.2508
 2442SOL     OW 9533   5.220   1.911   4.505 -0.4784  0.4683 -0.3566
 2442SOL    HW2 9534   5.159   1.837   4.497 -0.2245 -0.2865  2.9794
 2442SOL    HW3 9535   5.286   1.880   4.567 -0.1984  3.3787  0.9383
 2442SOL    MW4 9536   5.220   1.897   4.512 -0.4079  0.7527  0.2544
 2443SOL     OW 9537   5.548   5.771   1.447  0.1255 -0.3928 -0.0409
 2443SOL    HW2 9538   5.641   5.752   1.461  0.3226  1.3202  1.4343
 2443SOL    HW3 9539   5.506   5.741   1.527 -0.1246  1.3868  0.5477
 2443SOL    MW4 9540   5.555   5.764   1.460  0.1185  0.0680  0.2314
 2444SOL     OW 9541   1.097   1.564   1.502 -0.0538  1.2051 -0.5010
 2444SOL    HW2 9542   1.095   1.644   1.449  0.7256  1.5586 -0.0292
 2444SOL    HW3 9543   1.006   1.541   1.515 -0.2753  1.7207 -1.0974
 2444SOL    MW4 9544   1.085   1.572   1.497  0.0198  1.3198 -0.5175
 2445SOL     OW 9545   2.690   3.648   3.043  0.3688 -0.2336 -0.3176
 2445SOL    HW2 9546   2.673   3.706   2.969 -0.1644  1.7659  1.2849
 2445SOL    HW3 9547   2.785   3.649   3.053  0.2962  1.4634  0.4815
 2445SOL    MW4 9548   2.700   3.656   3.034  0.2889  0.2541 -0.0007
 2446SOL     OW 9549   3.689   2.251   0.997 -0.5660 -0.2834 -0.0193
 2446SOL    HW2 9550   3.692   2.168   0.949  0.0900  0.0938 -0.6542
 2446SOL    HW3 9551   3.776   2.290   0.983 -1.2153  1.0084 -0.6564
 2446SOL    MW4 9552   3.701   2.245   0.989 -0.5651 -0.0632 -0.1871
 2447SOL     OW 9553   4.293   3.380   3.488 -0.8851  0.3753 -0.8100
 2447SOL    HW2 9554   4.237   3.441   3.440 -0.7993  0.3449 -0.9508
 2447SOL    HW3 9555   4.353   3.346   3.422 -3.1498 -2.5849 -1.5658
 2447SOL    MW4 9556   4.294   3.384   3.473 -1.1726 -0.0192 -0.9283
 2448SOL     OW 9557   2.390   3.553   5.118 -0.4078 -0.4048  0.2996
 2448SOL    HW2 9558   2.367   3.461   5.099  1.2547 -0.5022 -1.5049
 2448SOL    HW3 9559   2.318   3.603   5.080 -1.9169 -0.9211  2.2816
 2448SOL    MW4 9560   2.377   3.547   5.110 -0.3876 -0.4858  0.3230
 2449SOL     OW 9561   1.339   4.599   4.842  0.5058  0.2257 -0.1166
 2449SOL    HW2 9562   1.267   4.662   4.853  1.8412  1.5949  1.2124
 2449SOL    HW3 9563   1.385   4.629   4.764 -0.4838 -0.8213 -1.1360
 2449SOL    MW4 9564   1.335   4.611   4.833  0.5514  0.2682 -0.0758
 2450SOL     OW 9565   3.773   1.647   3.904  0.2511 -0.4300 -0.1805
 2450SOL    HW2 9566   3.859   1.607   3.897  0.4329  0.2297 -2.5353
 2450SOL    HW3 9567   3.790   1.736   3.935  0.3761 -0.4056 -0.3208
 2450SOL    MW4 9568   3.786   1.653   3.908  0.2916 -0.3397 -0.5097
 2451SOL     OW 9569   4.007   1.885   2.772 -0.2238 -0.1959  0.0629
 2451SOL    HW2 9570   4.019   1.852   2.861 -0.5689 -0.8408 -0.1287
 2451SOL    HW3 9571   4.095   1.913   2.745 -0.1561  0.2252  0.6827
 2451SOL    MW4 9572   4.020   1.885   2.780 -0.2604 -0.2254  0.1194
 2452SOL     OW 9573   1.505   3.896   4.953 -0.4159 -0.0276  0.1063
 2452SOL    HW2 9574   1.489   3.802   4.941 -1.4114  0.2327 -0.8443
 2452SOL    HW3 9575   1.566   3.919   4.883  0.6016 -0.1428  0.9428
 2452SOL    MW4 9576   1.511   3.886   4.942 -0.4130 -0.0084  0.0912
 2453SOL     OW 9577   4.987   0.147   4.471  0.1215 -0.7152 -0.2611
 2453SOL    HW2 9578   5.060   0.108   4.422 -0.7886 -0.9022 -1.5273
 2453SOL    HW3 9579   4.912   0.091   4.449 -0.4375 -0.4339  0.8961
 2453SOL    MW4 9580   4.987   0.134   4.461 -0.0723 -0.7028 -0.2755
 2454SOL     OW 9581   1.307   2.178   3.583  0.3782 -0.1455  0.6838
 2454SOL    HW2 9582   1.222   2.180   3.627 -0.0845  0.0910 -0.2051
 2454SOL    HW3 9583   1.337   2.088   3.596 -0.5781 -0.5917 -0.0349
 2454SOL    MW4 9584   1.300   2.166   3.591  0.1910 -0.1731  0.4717
 2455SOL     OW 9585   1.805   4.269   6.055 -0.6037  0.5840 -0.8959
 2455SOL    HW2 9586   1.768   4.357   6.061 -0.0066  0.8052 -0.2807
 2455SOL    HW3 9587   1.844   4.265   5.968 -3.3920 -0.2077 -2.1984
 2455SOL    MW4 9588   1.805   4.280   6.045 -0.8928  0.5088 -0.9866
 2456SOL     OW 9589   0.262   5.845   2.753  0.2541 -0.2947 -0.5723
 2456SOL    HW2 9590   0.275   5.845   2.848 -1.6426  0.9066 -0.2693
 2456SOL    HW3 9591   0.348   5.865   2.718  0.8223  0.0897  0.9351
 2456SOL    MW4 9592   0.275   5.848   2.761  0.0788 -0.0855 -0.3335
 2457SOL     OW 9593   5.843   5.197   2.135 -0.2629 -0.0314  0.1381
 2457SOL    HW2 9594   5.920   5.140   2.125 -0.0242  0.3027  0.0608
 2457SOL    HW3 9595   5.800   5.166   2.215  0.3853  0.2828  0.6174
 2457SOL    MW4 9596   5.847   5.185   2.144 -0.1459  0.0541  0.1911
 2458SOL     OW 9597   5.399   3.213   3.527  0.1681  0.5317 -0.5830
 2458SOL    HW2 9598   5.413   3.197   3.620  0.4526 -0.1136 -0.7308
 2458SOL    HW3 9599   5.481   3.184   3.485  0.4385  1.7538 -0.9373
 2458SOL    MW4 9600   5.412   3.207   3.534  0.2413  0.6078 -0.6493
 2459SOL     OW 9601   0.782   4.434   0.535 -0.4066 -0.1084  0.2823
 2459SOL    HW2 9602   0.828   4.352   0.553 -2.1879 -1.1084  0.5120
 2459SOL    HW3 9603   0.845   4.487   0.487  1.7036 -0.5740  2.3790
 2459SOL    MW4 9604   0.796   4.430   0.531 -0.3632 -0.3017  0.5893
 2460SOL     OW 9605   2.872   0.414   2.417 -0.0371 -0.2857  0.6759
 2460SOL    HW2 9606   2.950   0.451   2.458  1.2919 -1.4494 -0.6639
 2460SOL    HW3 9607   2.887   0.426   2.323 -0.3651 -2.5462  0.2703
 2460SOL    MW4 9608   2.884   0.420   2.410  0.0949 -0.7375  0.4456
 2461SOL     OW 9609   4.632   0.786   4.771 -0.9240 -0.3995  0.0474
 2461SOL    HW2 9610   4.609   0.879   4.770  0.7999  0.1719 -3.6455
 2461SOL    HW3 9611   4.725   0.785   4.792 -0.6054 -1.1109 -1.2819
 2461SOL    MW4 9612   4.641   0.798   4.774 -0.6545 -0.4180 -0.6152
 2462SOL     OW 9613   1.177   1.680   3.049  0.2013 -0.2251 -0.1813
 2462SOL    HW2 9614   1.217   1.686   3.136  0.4205  0.9911 -0.3425
 2462SOL    HW3 9615   1.106   1.744   3.051  1.0044  0.7582 -1.2917
 2462SOL    MW4 9616   1.173   1.689   3.061  0.3362  0.0651 -0.3490
 2463SOL     OW 9617   2.860   3.405   6.108 -0.8878 -1.1446 -0.5098
 2463SOL    HW2 9618   2.930   3.459   6.146  0.2408 -1.4213 -2.1108
 2463SOL    HW3 9619   2.816   3.463   6.046 -3.0717 -0.5313  1.4537
 2463SOL    MW4 9620   2.863   3.420   6.105 -1.0271 -1.1002 -0.4620
 2464SOL     OW 9621   6.115   2.452   5.133  0.3774 -0.1581 -0.1764
 2464SOL    HW2 9622   6.089   2.512   5.203  0.8462  1.1486 -1.0870
 2464SOL    HW3 9623   6.076   2.490   5.054 -0.5940 -1.8910 -0.5908
 2464SOL    MW4 9624   6.106   2.465   5.132  0.3111 -0.2144 -0.3512
 2465SOL     OW 9625   6.273   4.225   4.884 -0.3720 -0.6424 -0.3800
 2465SOL    HW2 9626   6.358   4.257   4.854 -0.7092  0.6161 -0.0404
 2465SOL    HW3 9627   6.290   4.188   4.970 -0.2302 -0.0208 -0.1371
 2465SOL    MW4 9628   6.286   4.224   4.891 -0.3978 -0.3943 -0.3031
 2466SOL     OW 9629   0.825   5.793   5.191  0.3528 -0.3517  0.1484
 2466SOL    HW2 9630   0.747   5.811   5.244  1.4367  1.5135  1.1928
 2466SOL    HW3 9631   0.818   5.853   5.116  1.4335  0.8519  0.9721
 2466SOL    MW4 9632   0.814   5.803   5.188  0.6384  0.0532  0.3949
 2467SOL     OW 9633   0.561   6.037   3.053 -0.3444 -0.0184  0.6421
 2467SOL    HW2 9634   0.588   5.959   3.005 -1.2376 -2.4578  3.7612
 2467SOL    HW3 9635   0.480   6.064   3.011 -0.2470 -1.0167 -0.2406
 2467SOL    MW4 9636   0.554   6.030   3.041 -0.4494 -0.4720  0.9372
 2468SOL     OW 9637   6.358   5.459   2.350 -0.2286  0.4850  0.1541
 2468SOL    HW2 9638   6.302   5.394   2.392  0.5951 -0.5391 -0.2983
 2468SOL    HW3 9639   6.361   5.432   2.258 -0.2288  1.4229 -0.1351
 2468SOL    MW4 9640   6.351   5.447   2.343 -0.1199  0.4736  0.0562
 2469SOL     OW 9641   6.365   1.648   2.933 -0.2413  0.2995  0.0554
 2469SOL    HW2 9642   6.450   1.618   2.901  0.1411  0.3156  1.0079
 2469SOL    HW3 9643   6.372   1.744   2.934 -0.8301  0.3735 -1.3124
 2469SOL    MW4 9644   6.377   1.657   2.929 -0.2686  0.3114  0.0006
 2470SOL     OW 9645   3.244   2.750   2.686  0.2099  0.1193  0.4097
 2470SOL    HW2 9646   3.163   2.782   2.726 -0.8135 -0.9743 -0.7004
 2470SOL    HW3 9647   3.298   2.724   2.760 -1.0636 -0.5325  1.1459
 2470SOL    MW4 9648   3.240   2.751   2.701 -0.0931 -0.1110  0.3604
 2471SOL     OW 9649   2.973   1.697   0.165 -0.1505  0.2587  0.0897
 2471SOL    HW2 9650   2.951   1.667   0.253 -0.2847  1.7214  0.5831
 2471SOL    HW3 9651   2.957   1.792   0.167  2.6467  0.8539 -0.6152
 2471SOL    MW4 9652   2.968   1.706   0.176  0.2009  0.5302  0.0618
 2472SOL     OW 9653   4.886   1.049   5.596  0.2619  0.3659  0.3099
 2472SOL    HW2 9654   4.958   1.111   5.593 -0.5545  1.3858  0.9481
 2472SOL    HW3 9655   4.829   1.075   5.523  0.3895 -0.2498 -0.0166
 2472SOL    MW4 9656   4.888   1.060   5.586  0.1710  0.4192  0.3511
 2473SOL     OW 9657   1.191   4.408   2.874 -0.0806 -0.4875  0.0272
 2473SOL    HW2 9658   1.228   4.322   2.854  3.0184  0.2017  2.1073
 2473SOL    HW3 9659   1.143   4.395   2.956 -0.7495 -0.4956 -0.3639
 2473SOL    MW4 9660   1.190   4.395   2.883  0.2400 -0.3976  0.2501
 2474SOL     OW 9661   3.576   4.000   1.348  0.1138  0.6082 -0.1597
 2474SOL    HW2 9662   3.646   4.017   1.284  0.9541 -0.1464  0.5348
 2474SOL    HW3 9663   3.542   3.914   1.324  0.3142  0.3994  0.2954
 2474SOL    MW4 9664   3.581   3.991   1.337  0.2511  0.4811 -0.0080
 2475SOL     OW 9665   2.340   2.154   1.968 -0.0815  0.0423  0.6315
 2475SOL    HW2 9666   2.341   2.060   1.988 -1.0984  0.3849  2.6456
 2475SOL    HW3 9667   2.270   2.189   2.024 -1.8402  1.5746 -2.2737
 2475SOL    MW4 9668   2.331   2.146   1.978 -0.4477  0.2896  0.5139
 2476SOL     OW 9669   0.018   5.423   0.837  0.1432 -0.1062 -0.3019
 2476SOL    HW2 9670  -0.006   5.476   0.913  1.4616 -0.3146  0.2787
 2476SOL    HW3 9671   0.053   5.342   0.874  0.0188 -0.5555 -1.1462
 2476SOL    MW4 9672   0.019   5.420   0.852  0.3007 -0.1930 -0.3367
 2477SOL     OW 9673   0.012   3.851   1.638  0.6599 -0.1122  0.4260
 2477SOL    HW2 9674   0.068   3.782   1.675 -1.4881 -1.4472  1.4003
 2477SOL    HW3 9675  -0.019   3.901   1.714 -0.4706 -0.2420  0.0772
 2477SOL    MW4 9676   0.015   3.848   1.653  0.2273 -0.3055  0.5085
 2478SOL     OW 9677   2.540   4.489   2.379  0.3304 -0.3382  0.2951
 2478SOL    HW2 9678   2.522   4.578   2.347 -0.3570  0.1294  1.8772
 2478SOL    HW3 9679   2.453   4.450   2.391  0.6389 -1.5491 -1.1712
 2478SOL    MW4 9680   2.526   4.496   2.376  0.2804 -0.4363  0.3104
 2479SOL     OW 9681   4.815   4.579   2.483  0.5336 -0.8114  0.5612
 2479SOL    HW2 9682   4.881   4.520   2.447  0.7803 -0.4258  0.3686
 2479SOL    HW3 9683   4.760   4.524   2.539  1.7774 -0.9096  1.7431
 2479SOL    MW4 9684   4.816   4.564   2.486  0.7303 -0.7735  0.6917
 2480SOL     OW 9685   4.553   5.129   1.174 -0.1219  0.1284 -0.1033
 2480SOL    HW2 9686   4.467   5.168   1.155 -0.2009  0.4679  0.8896
 2480SOL    HW3 9687   4.534   5.036   1.187 -0.2884  0.1430 -0.2418
 2480SOL    MW4 9688   4.539   5.122   1.173 -0.1543  0.1751  0.0094
 2481SOL     OW 9689   0.642   0.934   4.956  0.3288  0.0265  0.4079
 2481SOL    HW2 9690   0.690   0.982   5.023 -1.0633  0.3236  1.2512
 2481SOL    HW3 9691   0.649   0.988   4.877 -0.4394  1.1986  1.0992
 2481SOL    MW4 9692   0.649   0.948   4.954  0.0438  0.2203  0.6103
 2482SOL     OW 9693   3.593   4.214   5.668  0.3467 -0.2838  1.0768
 2482SOL    HW2 9694   3.604   4.119   5.669 -0.7260 -0.5014 -1.2204
 2482SOL    HW3 9695   3.662   4.245   5.608 -1.4047 -0.0408 -0.9242
 2482SOL    MW4 9696   3.604   4.205   5.660 -0.0259 -0.2804  0.5097
 2483SOL     OW 9697   4.734   4.533   2.117 -0.3378  0.2570 -0.2869
 2483SOL    HW2 9698   4.670   4.602   2.102 -1.0605 -0.6865 -1.6885
 2483SOL    HW3 9699   4.685   4.464   2.161  0.0104  0.0095 -0.2808
 2483SOL    MW4 9700   4.719   4.533   2.121 -0.3872  0.0998 -0.4710
 2484SOL     OW 9701   1.691   5.768   3.336 -0.5080  0.0290  0.1404
 2484SOL    HW2 9702   1.603   5.806   3.342 -0.1918  1.0622 -1.2043
 2484SOL    HW3 9703   1.684   5.701   3.268 -0.1704  0.4201 -0.2894
 2484SOL    MW4 9704   1.679   5.764   3.327 -0.4217  0.2169 -0.0937
 2485SOL     OW 9705   3.538   6.339   2.764 -0.6605  0.1692 -0.1612
 2485SOL    HW2 9706   3.514   6.305   2.678  1.1378  0.9591 -1.0215
 2485SOL    HW3 9707   3.456   6.338   2.814 -1.5037 -1.4152 -1.4778
 2485SOL    MW4 9708   3.524   6.334   2.759 -0.5345  0.0644 -0.4484
 2486SOL     OW 9709   3.810   0.685   5.544  0.0692  0.3059  0.1998
 2486SOL    HW2 9710   3.732   0.676   5.490 -0.9244  1.2523  1.4264
 2486SOL    HW3 9711   3.813   0.605   5.596 -0.4453  0.5476  0.6025
 2486SOL    MW4 9712   3.800   0.673   5.543 -0.1298  0.4626  0.4148
 2487SOL     OW 9713   5.802   1.053   5.418  0.1620 -0.5390  0.2319
 2487SOL    HW2 9714   5.801   0.957   5.418  1.3279 -0.5728 -0.5179
 2487SOL    HW3 9715   5.895   1.076   5.406  0.0793  0.6873  1.6439
 2487SOL    MW4 9716   5.814   1.043   5.417  0.3049 -0.3816  0.3192
 2488SOL     OW 9717   2.782   1.969   6.356  0.3064  0.0504 -0.1293
 2488SOL    HW2 9718   2.800   1.875   6.349 -0.1874 -0.0652  0.1203
 2488SOL    HW3 9719   2.857   2.011   6.313  0.4569 -0.4588 -0.3724
 2488SOL    MW4 9720   2.794   1.962   6.350  0.2611 -0.0320 -0.1284
 2489SOL     OW 9721   2.349   3.715   2.821 -0.4720  0.0485  0.7303
 2489SOL    HW2 9722   2.434   3.754   2.806  0.0840 -1.2854  0.3037
 2489SOL    HW3 9723   2.291   3.756   2.756  0.1237  0.0369  0.1919
 2489SOL    MW4 9724   2.352   3.725   2.810 -0.3201 -0.1290  0.6030
 2490SOL     OW 9725   2.282   4.157   2.518  0.7230 -0.2642  0.0868
 2490SOL    HW2 9726   2.343   4.143   2.445  2.1631  1.5953  0.8493
 2490SOL    HW3 9727   2.259   4.068   2.546  2.3722 -1.0453 -0.8290
 2490SOL    MW4 9728   2.287   4.143   2.512  1.1306 -0.1219  0.0666
 2491SOL     OW 9729   6.357   2.548   2.805 -0.3364  0.1341  0.6037
 2491SOL    HW2 9730   6.270   2.508   2.817 -0.2016 -0.4730 -0.3255
 2491SOL    HW3 9731   6.416   2.491   2.854 -0.4044  0.3280  0.9157
 2491SOL    MW4 9732   6.353   2.535   2.813 -0.3276  0.0796  0.5223
 2492SOL     OW 9733   3.555   1.663   5.490  0.1447  0.3823  0.3612
 2492SOL    HW2 9734   3.471   1.621   5.510 -0.0717  0.4522 -0.3963
 2492SOL    HW3 9735   3.554   1.744   5.541  0.8168 -0.7566  2.3198
 2492SOL    MW4 9736   3.544   1.668   5.500  0.2049  0.2412  0.5197
 2493SOL     OW 9737   0.483   0.312   1.505 -0.3332  0.2835  0.3222
 2493SOL    HW2 9738   0.520   0.372   1.440 -1.6627  1.9705  1.0442
 2493SOL    HW3 9739   0.393   0.296   1.474  0.7675 -3.7095 -1.3865
 2493SOL    MW4 9740   0.476   0.318   1.492 -0.3634 -0.0208  0.1920
 2494SOL     OW 9741   0.075   6.305   2.057 -0.0815 -0.7563  0.2428
 2494SOL    HW2 9742   0.018   6.331   2.129  0.4842 -1.8072  1.0994
 2494SOL    HW3 9743   0.023   6.242   2.007 -1.0148  1.0214 -1.1580
 2494SOL    MW4 9744   0.060   6.300   2.060 -0.1300 -0.6604  0.1710
 2495SOL     OW 9745   4.009   6.194   3.143  0.3641 -0.6739 -0.2500
 2495SOL    HW2 9746   3.945   6.129   3.112 -1.3204  1.0663 -0.5787
 2495SOL    HW3 9747   4.037   6.161   3.228 -1.9708 -0.8829  0.5087
 2495SOL    MW4 9748   4.004   6.181   3.150 -0.1662 -0.4719 -0.1932
 2496SOL     OW 9749   0.501   5.308   0.741  0.3293 -0.2191  0.0935
 2496SOL    HW2 9750   0.586   5.316   0.697  0.5267 -0.4698  0.4345
 2496SOL    HW3 9751   0.513   5.353   0.825  0.5392 -1.4314  0.7339
 2496SOL    MW4 9752   0.514   5.315   0.746  0.3830 -0.4121  0.2230
 2497SOL     OW 9753   0.039   4.723   4.381  0.2278  0.0490  0.0531
 2497SOL    HW2 9754   0.067   4.782   4.451 -2.3755  2.9213 -1.1217
 2497SOL    HW3 9755   0.119   4.679   4.353  2.1201  2.1460  1.8117
 2497SOL    MW4 9756   0.053   4.725   4.387  0.1340  0.7046  0.1301
 2498SOL     OW 9757   1.286   1.039   5.003  0.2818 -0.3955  0.2126
 2498SOL    HW2 9758   1.247   1.058   5.088  1.4645  0.0603  0.6687
 2498SOL    HW3 9759   1.294   0.944   5.001  2.3600 -0.3257  1.6302
 2498SOL    MW4 9760   1.282   1.029   5.014  0.7120 -0.3262  0.4598
 2499SOL     OW 9761   3.008   1.584   2.877  0.2303 -0.0499 -0.2707
 2499SOL    HW2 9762   2.994   1.491   2.860 -0.0657  0.0552 -0.6082
 2499SOL    HW3 9763   2.984   1.627   2.796 -2.3387  0.5589  0.7165
 2499SOL    MW4 9764   3.003   1.577   2.864 -0.1477  0.0443 -0.1850
 2500SOL     OW 9765   1.128   5.655   0.038 -0.4316  0.5088  0.2576
 2500SOL    HW2 9766   1.050   5.600   0.045 -1.3413  1.8197  0.8803
 2500SOL    HW3 9767   1.152   5.673   0.129 -0.1178  1.0936  0.0632
 2500SOL    MW4 9768   1.121   5.650   0.051 -0.5102  0.7589  0.3141
 2501SOL     OW 9769   5.773   0.798   1.375 -0.0276  0.0910  0.0137
 2501SOL    HW2 9770   5.752   0.877   1.426 -0.7024  0.0264 -0.1632
 2501SOL    HW3 9771   5.801   0.734   1.441 -1.3302 -0.1383  0.3743
 2501SOL    MW4 9772   5.774   0.800   1.391 -0.2885  0.0522  0.0379
 2502SOL     OW 9773   0.765   1.793   6.192  0.6085 -0.6233 -0.6616
 2502SOL    HW2 9774   0.756   1.711   6.241  0.2652 -0.5946 -0.6720
 2502SOL    HW3 9775   0.710   1.781   6.115  1.0425 -0.6156 -0.9755
 2502SOL    MW4 9776   0.756   1.781   6.189  0.6204 -0.6185 -0.7044
 2503SOL     OW 9777   5.725   0.523   2.202 -0.0887 -0.8566 -0.2912
 2503SOL    HW2 9778   5.637   0.554   2.178 -0.3674  0.3741  2.0012
 2503SOL    HW3 9779   5.709   0.450   2.261  0.2963  0.5727  1.6837
 2503SOL    MW4 9780   5.711   0.517   2.207 -0.0746 -0.5057  0.2718
 2504SOL     OW 9781   1.854   1.808   1.356 -0.5415  0.1428 -0.2430
 2504SOL    HW2 9782   1.879   1.893   1.320 -0.2125  0.7114  1.2485
 2504SOL    HW3 9783   1.931   1.780   1.406 -1.0159 -0.5562  0.1065
 2504SOL    MW4 9784   1.867   1.816   1.358 -0.5607  0.1256 -0.0001
 2505SOL     OW 9785   3.224   3.359   5.874 -0.0337  0.1921  0.2947
 2505SOL    HW2 9786   3.187   3.443   5.848 -0.2892  0.2218  0.7466
 2505SOL    HW3 9787   3.317   3.366   5.852 -0.3947 -0.1464 -1.5384
 2505SOL    MW4 9788   3.231   3.371   5.868 -0.1150  0.1513  0.1125
 2506SOL     OW 9789   0.808   2.214   4.633  0.3498 -0.0757  0.1401
 2506SOL    HW2 9790   0.853   2.216   4.549 -0.3984  0.9881 -0.2406
 2506SOL    HW3 9791   0.862   2.156   4.687  0.2094 -1.7212 -1.4037
 2506SOL    MW4 9792   0.821   2.207   4.629  0.2326 -0.1524 -0.1138
 2507SOL     OW 9793   4.435   2.746   1.445  0.0721 -0.1523 -0.5241
 2507SOL    HW2 9794   4.391   2.707   1.520  0.2309  1.2192  0.3210
 2507SOL    HW3 9795   4.465   2.672   1.393 -0.9368 -1.1212  0.2388
 2507SOL    MW4 9796   4.433   2.731   1.448 -0.0401 -0.0992 -0.3119
 2508SOL     OW 9797   5.871   1.762   6.010  0.4875 -0.1092 -0.0217
 2508SOL    HW2 9798   5.818   1.808   6.076  0.2895 -0.0988 -0.1880
 2508SOL    HW3 9799   5.914   1.832   5.961 -0.4737 -0.0593 -0.8276
 2508SOL    MW4 9800   5.869   1.777   6.012  0.3346 -0.1012 -0.1500
 2509SOL     OW 9801   2.477   1.124   1.170  0.2124 -0.1685  0.6116
 2509SOL    HW2 9802   2.543   1.134   1.102 -0.5199 -1.1659 -0.2729
 2509SOL    HW3 9803   2.411   1.190   1.149 -0.0087 -0.4693  0.3642
 2509SOL    MW4 9804   2.477   1.134   1.158  0.0866 -0.3398  0.4623
 2510SOL     OW 9805   0.320   1.081   0.864  0.3641 -0.2265 -0.0730
 2510SOL    HW2 9806   0.296   0.990   0.879 -1.1273  0.2655  0.7661
 2510SOL    HW3 9807   0.294   1.127   0.944 -0.3292  1.1725 -1.0436
 2510SOL    MW4 9808   0.313   1.075   0.876  0.0758  0.0230 -0.0903
 2511SOL     OW 9809   5.729   5.234   4.467 -0.3481 -0.3307  0.2379
 2511SOL    HW2 9810   5.671   5.301   4.502 -0.9433 -1.0473  0.6656
 2511SOL    HW3 9811   5.791   5.216   4.537  0.9924  1.0686 -0.5308
 2511SOL    MW4 9812   5.730   5.240   4.481 -0.2498 -0.2406  0.1929
 2512SOL     OW 9813   4.030   3.530   6.295 -0.0029 -0.0646  0.0747
 2512SOL    HW2 9814   4.045   3.583   6.373 -1.1382 -0.6382  0.7068
 2512SOL    HW3 9815   4.030   3.440   6.327 -1.4651 -0.2531 -0.4041
 2512SOL    MW4 9816   4.032   3.525   6.309 -0.3456 -0.1651  0.0949
 2513SOL     OW 9817   4.844   0.337   4.259 -0.1803 -0.6491  0.0693
 2513SOL    HW2 9818   4.894   0.303   4.333  0.2028  2.4904  1.4374
 2513SOL    HW3 9819   4.881   0.294   4.182  1.9043 -1.3782  1.4052
 2513SOL    MW4 9820   4.855   0.327   4.258  0.1452 -0.3311  0.4260
 2514SOL     OW 9821   3.257   2.303   1.074  0.6547  0.1549 -0.4984
 2514SOL    HW2 9822   3.336   2.312   1.021  1.3598 -0.2744  0.4615
 2514SOL    HW3 9823   3.269   2.365   1.146  0.8460 -0.9960  0.4966
 2514SOL    MW4 9824   3.269   2.312   1.077  0.7730 -0.0536 -0.2405
 2515SOL     OW 9825   5.295   4.666   1.462 -0.1313 -0.7097  0.4157
 2515SOL    HW2 9826   5.380   4.706   1.445 -0.9467  1.4169  0.9683
 2515SOL    HW3 9827   5.240   4.739   1.491 -1.5442 -2.3698  2.2156
 2515SOL    MW4 9828   5.299   4.681   1.464 -0.4253 -0.6481  0.7261
 2516SOL     OW 9829   1.131   4.731   1.870 -0.1893  0.0087  0.0877
 2516SOL    HW2 9830   1.116   4.810   1.818  0.5533  1.0070  1.3196
 2516SOL    HW3 9831   1.217   4.699   1.843  1.1029  1.6315  1.9294
 2516SOL    MW4 9832   1.140   4.737   1.860  0.0792  0.3545  0.4932
 2517SOL     OW 9833   0.512   6.376   6.140 -0.0744 -0.1498 -0.2241
 2517SOL    HW2 9834   0.460   6.417   6.070 -0.8271 -0.3218  0.2287
 2517SOL    HW3 9835   0.598   6.361   6.100 -0.0885  0.9587 -0.7079
 2517SOL    MW4 9836   0.516   6.380   6.125 -0.1755 -0.0262 -0.2282
 2518SOL     OW 9837   5.530   2.576   3.282 -0.6332 -0.2226 -0.0600
 2518SOL    HW2 9838   5.498   2.499   3.330 -0.9842  0.1669  0.3424
 2518SOL    HW3 9839   5.457   2.602   3.227 -1.2996  1.0746  1.3569
 2518SOL    MW4 9840   5.516   2.570   3.281 -0.7675 -0.0001  0.1801
 2519SOL     OW 9841   1.182   5.493   2.454 -0.5833 -0.2837 -0.4471
 2519SOL    HW2 9842   1.126   5.515   2.528 -0.4131  0.7331 -0.6128
 2519SOL    HW3 9843   1.121   5.474   2.382 -0.7337 -0.7049 -0.2145
 2519SOL    MW4 9844   1.167   5.493   2.454 -0.5807 -0.2051 -0.4383
 2520SOL     OW 9845   2.405   6.370   4.628 -0.9367 -0.3273  0.0252
 2520SOL    HW2 9846   2.333   6.331   4.578 -0.3477 -0.6056 -0.6279
 2520SOL    HW3 9847   2.437   6.299   4.684 -0.9022 -0.3224  0.0119
 2520SOL    MW4 9848   2.400   6.355   4.629 -0.8544 -0.3634 -0.0627
 2521SOL     OW 9849   0.028   5.374   4.704 -0.2381 -0.0060  0.1534
 2521SOL    HW2 9850   0.038   5.389   4.610  1.1394  0.8812  0.4040
 2521SOL    HW3 9851   0.102   5.318   4.727  0.2523  0.9230  0.9276
 2521SOL    MW4 9852   0.039   5.369   4.695  0.0083  0.2336  0.2886
 2522SOL     OW 9853   5.147   5.855   4.087 -0.0730 -0.3394 -0.1319
 2522SOL    HW2 9854   5.229   5.903   4.103 -1.1144  2.5100 -2.4036
 2522SOL    HW3 9855   5.097   5.867   4.168 -0.1012  2.2015 -0.4465
 2522SOL    MW4 9856   5.152   5.863   4.100 -0.2141  0.3718 -0.4732
 2523SOL     OW 9857   0.433   4.538   5.796  0.0635 -0.4816  0.3395
 2523SOL    HW2 9858   0.439   4.463   5.855  1.5984 -0.0422  0.7759
 2523SOL    HW3 9859   0.466   4.505   5.712 -2.5856 -1.2541 -0.5307
 2523SOL    MW4 9860   0.438   4.524   5.792 -0.0835 -0.5256  0.2823
 2524SOL     OW 9861   5.170   1.755   2.533  0.0875 -0.5178 -0.1610
 2524SOL    HW2 9862   5.263   1.734   2.529 -0.3296 -2.7055  0.3332
 2524SOL    HW3 9863   5.149   1.792   2.447  1.4706  0.3934 -0.1315
 2524SOL    MW4 9864   5.179   1.757   2.521  0.2149 -0.6862 -0.0919
 2525SOL     OW 9865   0.840   0.685   5.185  0.1384  0.1009 -0.0582
 2525SOL    HW2 9866   0.803   0.659   5.100  0.3551 -0.4974  0.0303
 2525SOL    HW3 9867   0.765   0.715   5.236 -0.5063 -2.4495  0.6372
 2525SOL    MW4 9868   0.825   0.686   5.180  0.0819 -0.3145  0.0452
 2526SOL     OW 9869   5.171   5.296   4.133  0.0107 -0.5849 -0.3090
 2526SOL    HW2 9870   5.099   5.253   4.088 -1.3659  1.2388  0.0122
 2526SOL    HW3 9871   5.160   5.389   4.113 -1.4811  0.6016  4.6262
 2526SOL    MW4 9872   5.160   5.303   4.124 -0.3677 -0.1877  0.3845
 2527SOL     OW 9873   3.318   3.962   5.077 -0.0098  0.0166 -0.1407
 2527SOL    HW2 9874   3.355   3.995   4.995 -0.3435 -2.5400 -1.4197
 2527SOL    HW3 9875   3.392   3.958   5.136  0.6386  0.0728 -0.9278
 2527SOL    MW4 9876   3.332   3.966   5.074  0.0317 -0.3133 -0.4133
 2528SOL     OW 9877   0.878   1.923   2.001  0.7765  0.0028 -0.5339
 2528SOL    HW2 9878   0.931   1.845   1.988  0.6953  0.3633 -4.4216
 2528SOL    HW3 9879   0.798   1.907   1.951 -0.7249  1.3432  1.2828
 2528SOL    MW4 9880   0.875   1.911   1.993  0.5677  0.2272 -0.8071
 2529SOL     OW 9881   4.849   0.635   0.487 -0.4680  0.2661  0.4799
 2529SOL    HW2 9882   4.904   0.636   0.409 -1.4528  0.4602 -0.2351
 2529SOL    HW3 9883   4.910   0.620   0.559  0.1447 -3.3095 -0.5936
 2529SOL    MW4 9884   4.864   0.633   0.486 -0.5171 -0.1800  0.2439
 2530SOL     OW 9885   2.276   3.882   2.588  0.0215 -0.0198 -1.0072
 2530SOL    HW2 9886   2.304   3.826   2.516  1.0028 -1.4934  0.4447
 2530SOL    HW3 9887   2.180   3.874   2.588  0.1253 -1.5880 -0.9503
 2530SOL    MW4 9888   2.267   3.874   2.578  0.1647 -0.4212 -0.8081
 2531SOL     OW 9889   0.310   5.207   2.036 -0.5265  0.0685  0.2142
 2531SOL    HW2 9890   0.305   5.112   2.051 -1.3046 -0.1621 -1.3017
 2531SOL    HW3 9891   0.271   5.219   1.950 -0.7795  1.8261  0.5449
 2531SOL    MW4 9892   0.304   5.196   2.027 -0.6625  0.2700  0.0578
 2532SOL     OW 9893   1.398   2.339   4.865  0.4706  0.4806 -0.1432
 2532SOL    HW2 9894   1.425   2.429   4.884  2.3811  0.3174 -1.7476
 2532SOL    HW3 9895   1.340   2.346   4.790 -0.0630  0.4179  0.2548
 2532SOL    MW4 9896   1.394   2.351   4.858  0.6522  0.4508 -0.3024
 2533SOL     OW 9897   3.974   5.288   1.302  0.3673 -0.2289  0.1014
 2533SOL    HW2 9898   3.983   5.303   1.396 -1.0410 -1.5877  0.5037
 2533SOL    HW3 9899   3.880   5.274   1.290  0.3389  1.0989 -1.7217
 2533SOL    MW4 9900   3.962   5.288   1.313  0.1777 -0.2330 -0.0861
 2534SOL     OW 9901   3.524   0.284   0.441  0.1534 -0.5697 -0.1712
 2534SOL    HW2 9902   3.602   0.228   0.437 -0.9280 -2.0835 -1.0647
 2534SOL    HW3 9903   3.515   0.305   0.534  2.5909  1.1305 -0.2140
 2534SOL    MW4 9904   3.533   0.279   0.452  0.3323 -0.5451 -0.2947
 2535SOL     OW 9905   3.715   3.018   3.810  0.1305 -0.0367 -0.2776
 2535SOL    HW2 9906   3.738   3.108   3.832  1.0808 -0.3175 -0.0897
 2535SOL    HW3 9907   3.626   3.024   3.775 -0.5278  0.7282  1.4569
 2535SOL    MW4 9908   3.706   3.030   3.808  0.1690  0.0271 -0.0239
 2536SOL     OW 9909   3.903   6.167   0.274  0.4176 -0.3817  1.0769
 2536SOL    HW2 9910   3.981   6.223   0.261  0.9804 -1.2680  0.5531
 2536SOL    HW3 9911   3.831   6.218   0.237  0.8694  0.1271  0.8772
 2536SOL    MW4 9912   3.904   6.181   0.268  0.5515 -0.4315  0.9815
 2537SOL     OW 9913   4.421   0.763   5.751 -0.0839  0.4862  0.2755
 2537SOL    HW2 9914   4.431   0.829   5.683 -0.0050  0.5112  0.3102
 2537SOL    HW3 9915   4.411   0.680   5.704  3.2971 -0.0165  0.1795
 2537SOL    MW4 9916   4.421   0.761   5.736  0.3726  0.4231  0.2674
 2538SOL     OW 9917   3.162   4.252   0.879  0.2899  0.1457  1.2885
 2538SOL    HW2 9918   3.102   4.325   0.894 -0.3270 -0.1868  0.5316
 2538SOL    HW3 9919   3.106   4.181   0.847  0.8905 -0.6299  1.9100
 2538SOL    MW4 9920   3.146   4.252   0.877  0.2877 -0.0005  1.2706
 2539SOL     OW 9921   1.361   3.874   3.431 -0.1800  0.6523 -0.2064
 2539SOL    HW2 9922   1.423   3.809   3.466 -1.3101 -0.0228  0.5877
 2539SOL    HW3 9923   1.414   3.927   3.371  1.2816  0.3965  0.8053
 2539SOL    MW4 9924   1.376   3.872   3.427 -0.1363  0.5294  0.0319
 2540SOL     OW 9925   4.283   0.482   3.289 -0.1146  0.7310 -0.3319
 2540SOL    HW2 9926   4.347   0.545   3.321 -1.0972  2.4216 -1.5054
 2540SOL    HW3 9927   4.199   0.513   3.323 -0.6861  0.3836 -1.3526
 2540SOL    MW4 9928   4.280   0.494   3.297 -0.3197  0.9082 -0.6214
 2541SOL     OW 9929   1.987   3.386   5.941  0.5329  0.2979 -0.4319
 2541SOL    HW2 9930   2.056   3.351   5.998  1.6154  1.3567 -1.0544
 2541SOL    HW3 9931   1.961   3.468   5.983 -0.4829 -0.1655 -0.1246
 2541SOL    MW4 9932   1.993   3.392   5.954  0.5417  0.3765 -0.4735
 2542SOL     OW 9933   2.605   0.448   2.456 -0.4300 -0.0234  0.2005
 2542SOL    HW2 9934   2.569   0.372   2.503  0.3474  0.4876  1.6913
 2542SOL    HW3 9935   2.697   0.426   2.442 -0.7677 -0.4223 -1.7127
 2542SOL    MW4 9936   2.612   0.435   2.461 -0.3720 -0.0086  0.1448
 2543SOL     OW 9937   3.339   0.873   4.303  0.1387  0.5466  0.5705
 2543SOL    HW2 9938   3.407   0.923   4.258 -1.3589  0.3219 -2.1885
 2543SOL    HW3 9939   3.384   0.795   4.336  1.0790 -0.2906 -2.3757
 2543SOL    MW4 9940   3.354   0.869   4.301  0.0652  0.4065 -0.1822
 2544SOL     OW 9941   2.073   5.128   4.121 -0.1302 -0.2604  0.1907
 2544SOL    HW2 9942   2.037   5.198   4.067  1.3417  1.2510  1.0704
 2544SOL    HW3 9943   2.102   5.062   4.059  0.1239  0.7511 -0.7921
 2544SOL    MW4 9944   2.072   5.129   4.106  0.0975  0.0724  0.1771
 2545SOL     OW 9945   4.633   2.458   5.795 -0.7477 -0.5808 -0.0565
 2545SOL    HW2 9946   4.658   2.539   5.751  0.7557 -0.6750  0.5582
 2545SOL    HW3 9947   4.615   2.485   5.885  0.2121 -0.9690  0.2695
 2545SOL    MW4 9948   4.634   2.472   5.801 -0.4227 -0.6444  0.0676
 2546SOL     OW 9949   2.538   4.477   1.477  0.1661  0.1878  0.0489
 2546SOL    HW2 9950   2.619   4.430   1.456 -0.0186 -0.4566  0.7400
 2546SOL    HW3 9951   2.567   4.566   1.495  1.1321 -0.5603  2.7917
 2546SOL    MW4 9952   2.553   4.482   1.477  0.2692  0.0041  0.5019
 2547SOL     OW 9953   6.004   5.002   2.462 -0.1978 -0.1981  0.1920
 2547SOL    HW2 9954   5.973   5.091   2.445 -0.1035 -0.4102 -1.2441
 2547SOL    HW3 9955   5.924   4.952   2.481 -0.6252 -0.3654 -1.7511
 2547SOL    MW4 9956   5.989   5.007   2.462 -0.2418 -0.2482 -0.2538
 2548SOL     OW 9957   6.108   1.013   2.368 -0.0216 -0.8547 -0.5122
 2548SOL    HW2 9958   6.122   1.089   2.310 -0.8318  0.1293  0.5296
 2548SOL    HW3 9959   6.138   0.938   2.316  1.2084  0.2016 -1.4295
 2548SOL    MW4 9960   6.114   1.013   2.353  0.0337 -0.5855 -0.4958
 2549SOL     OW 9961   4.718   1.761   0.252 -0.0535  0.0588 -0.3732
 2549SOL    HW2 9962   4.668   1.689   0.215 -0.5265  0.5580 -0.7280
 2549SOL    HW3 9963   4.676   1.779   0.336 -1.6978  1.6617 -1.4382
 2549SOL    MW4 9964   4.706   1.754   0.258 -0.3329  0.3362 -0.5605
 2550SOL     OW 9965   5.824   1.914   2.236 -0.0283  0.2894 -0.0677
 2550SOL    HW2 9966   5.735   1.949   2.232  0.3357  1.3240  0.4836
 2550SOL    HW3 9967   5.813   1.819   2.227 -1.1903  0.3887  0.1262
 2550SOL    MW4 9968   5.811   1.906   2.234 -0.1336  0.4390  0.0306
 2551SOL     OW 9969   3.651   5.906   4.668  0.0249 -0.1143  0.0621
 2551SOL    HW2 9970   3.654   5.996   4.700 -0.1947 -0.1389  0.1532
 2551SOL    HW3 9971   3.717   5.903   4.598 -1.6233  0.7961 -1.6341
 2551SOL    MW4 9972   3.660   5.917   4.663 -0.2215  0.0026 -0.1496
 2552SOL     OW 9973   5.746   1.537   0.664  0.3470  0.2621 -0.2606
 2552SOL    HW2 9974   5.802   1.597   0.614 -0.1727  0.0433 -1.1323
 2552SOL    HW3 9975   5.734   1.462   0.606  0.0449 -0.1775  0.3603
 2552SOL    MW4 9976   5.752   1.535   0.650  0.2386  0.1753 -0.2937
 2553SOL     OW 9977   3.310   0.967   0.330 -0.1566 -0.0107  0.0885
 2553SOL    HW2 9978   3.323   0.958   0.236  0.2813 -0.4483  0.1883
 2553SOL    HW3 9979   3.364   0.898   0.369  0.3350  0.6857  0.6936
 2553SOL    MW4 9980   3.319   0.957   0.323 -0.0340  0.0235  0.1815
 2554SOL     OW 9981   5.587   3.518   6.250  0.2240 -0.5821  0.5070
 2554SOL    HW2 9982   5.559   3.433   6.217  1.3432 -1.1317  0.9464
 2554SOL    HW3 9983   5.553   3.522   6.339 -1.0861  0.0689  0.0064
 2554SOL    MW4 9984   5.579   3.508   6.257  0.1988 -0.5687  0.4989
 2555SOL     OW 9985   0.037   4.895   4.976 -0.2321 -0.1634 -0.0858
 2555SOL    HW2 9986  -0.012   4.920   4.898 -0.1192  1.2762  0.2813
 2555SOL    HW3 9987  -0.030   4.869   5.039 -0.3641 -0.5704 -0.3838
 2555SOL    MW4 9988   0.022   4.895   4.974 -0.2346 -0.0272 -0.0767
 2556SOL     OW 9989   2.909   4.072   1.020 -0.0183  0.2282 -0.2879
 2556SOL    HW2 9990   2.975   4.035   1.079  1.9076 -0.1904 -2.5887
 2556SOL    HW3 9991   2.845   4.002   1.009  0.5123 -0.3020 -0.0551
 2556SOL    MW4 9992   2.910   4.058   1.026  0.3058  0.1030 -0.5607
 2557SOL     OW 9993   1.881   4.404   0.208  0.0855 -0.2651  0.2319
 2557SOL    HW2 9994   1.858   4.445   0.291 -0.0948  1.6845 -0.7298
 2557SOL    HW3 9995   1.965   4.361   0.225  0.8339  1.4215  1.0584
 2557SOL    MW4 9996   1.889   4.404   0.221  0.1605  0.2146  0.2141
 2558SOL     OW 9997   2.307   5.880   1.041 -0.0388 -0.4586  0.4344
 2558SOL    HW2 9998   2.275   5.952   1.096 -0.3132 -0.0056 -0.3056
 2558SOL    HW3 9999   2.396   5.864   1.072 -0.2682 -0.3604  1.1595
 2558SOL    MW410000   2.314   5.887   1.052 -0.1052 -0.3859  0.4324
 2559SOL     OW10001   1.057   0.113   2.007 -0.6522  0.0904 -0.0625
 2559SOL    HW210002   1.086   0.174   1.939 -2.9231  0.0292 -1.2037
 2559SOL    HW310003   1.027   0.168   2.079  0.2747  0.2054  0.2408
 2559SOL    MW410004   1.057   0.128   2.007 -0.8295  0.0975 -0.1730
 2560SOL     OW10005   5.358   3.391   3.301  0.0178  0.5586  0.2459
 2560SOL    HW210006   5.375   3.339   3.380  1.0189 -0.1604 -0.4262
 2560SOL    HW310007   5.347   3.327   3.231  2.0327  1.1983 -0.7485
 2560SOL    MW410008   5.359   3.376   3.302  0.4157  0.5481  0.0260
 2561SOL     OW10009   3.332   3.377   4.156 -0.2316  0.7306 -0.0267
 2561SOL    HW210010   3.409   3.381   4.213  0.1143 -0.2935 -0.4076
 2561SOL    HW310011   3.352   3.309   4.092 -1.8865 -0.3512  0.5326
 2561SOL    MW410012   3.345   3.368   4.155 -0.4043  0.4527 -0.0032
 2562SOL     OW10013   0.548   3.604   4.457 -0.4059 -0.4835 -0.6884
 2562SOL    HW210014   0.641   3.622   4.442 -0.1317 -2.3653 -1.5062
 2562SOL    HW310015   0.508   3.610   4.371 -0.2307 -3.7410 -1.1200
 2562SOL    MW410016   0.555   3.607   4.444 -0.3466 -1.1616 -0.8532
 2563SOL     OW10017   1.755   0.153   2.636 -0.2826 -0.5121 -0.2065
 2563SOL    HW210018   1.670   0.168   2.678  1.1166  0.0874  2.6399
 2563SOL    HW310019   1.781   0.239   2.604 -0.2602 -0.4824 -0.1079
 2563SOL    MW410020   1.747   0.166   2.637 -0.0951 -0.4290  0.1820
 2564SOL     OW10021   2.043   5.613   6.288  0.4861 -0.4538  0.1560
 2564SOL    HW210022   1.990   5.677   6.239  2.6860  1.3547 -0.0156
 2564SOL    HW310023   2.093   5.567   6.221  1.0254 -0.3215  0.4622
 2564SOL    MW410024   2.042   5.615   6.272  0.8475 -0.1977  0.1738
 2565SOL     OW10025   3.450   3.042   2.291 -0.4591  0.1222  0.0748
 2565SOL    HW210026   3.539   3.016   2.313 -1.5244 -2.5213  1.6906
 2565SOL    HW310027   3.441   3.019   2.198  1.0300  2.1417 -0.6395
 2565SOL    MW410028   3.460   3.035   2.282 -0.4032  0.0399  0.1938
 2566SOL     OW10029   4.345   5.243   4.610 -0.0091  0.4549  0.0870
 2566SOL    HW210030   4.377   5.326   4.576 -1.6687  0.6502 -1.1255
 2566SOL    HW310031   4.282   5.213   4.544 -1.3031 -0.5275  1.7005
 2566SOL    MW410032   4.341   5.250   4.597 -0.3988  0.3511  0.1399
 2567SOL     OW10033   5.660   4.478   4.592 -0.2384 -0.1398  0.0562
 2567SOL    HW210034   5.682   4.409   4.530 -1.9352 -1.0565  0.4402
 2567SOL    HW310035   5.671   4.438   4.678 -1.2186  0.0565  0.2853
 2567SOL    MW410036   5.665   4.464   4.595 -0.5916 -0.2348  0.1371
 2568SOL     OW10037   1.825   0.877   0.074  0.1487  0.6902 -0.3903
 2568SOL    HW210038   1.906   0.894   0.026  0.1556 -0.8420 -0.9878
 2568SOL    HW310039   1.853   0.852   0.162  0.3277  0.3626 -0.5371
 2568SOL    MW410040   1.839   0.876   0.079  0.1732  0.4448 -0.4885
 2569SOL     OW10041   6.417   2.929   6.431 -0.2067  1.0365 -0.5108
 2569SOL    HW210042   6.482   2.997   6.444  0.1787  0.5087  0.4055
 2569SOL    HW310043   6.340   2.975   6.397 -0.2478  2.0626  0.8936
 2569SOL    MW410044   6.415   2.944   6.428 -0.1612  1.1023 -0.2046
 2570SOL     OW10045   5.559   4.630   0.984  0.0939 -0.4114 -0.0148
 2570SOL    HW210046   5.532   4.722   0.989  2.6347  0.3905  0.1870
 2570SOL    HW310047   5.532   4.603   0.896 -1.2237  0.3029  0.1331
 2570SOL    MW410048   5.552   4.639   0.973  0.2553 -0.2114  0.0313
 2571SOL     OW10049   0.611   3.574   2.437  0.2425  0.5010 -0.5081
 2571SOL    HW210050   0.691   3.596   2.388 -1.1510  0.8062 -2.7805
 2571SOL    HW310051   0.571   3.503   2.385 -0.2998 -0.6132  1.3510
 2571SOL    MW410052   0.617   3.567   2.423 -0.0129  0.3943 -0.5626
 2572SOL     OW10053   6.150   3.806   6.033 -0.2031 -0.6404 -0.0145
 2572SOL    HW210054   6.145   3.711   6.030  0.3592 -0.6437 -1.5244
 2572SOL    HW310055   6.177   3.826   6.123  1.6047 -2.0092 -0.2055
 2572SOL    MW410056   6.153   3.796   6.045  0.1096 -0.8214 -0.2389
 2573SOL     OW10057   4.479   5.499   0.384  0.2941  0.4826 -0.1172
 2573SOL    HW210058   4.395   5.457   0.364 -0.6449  1.4025  1.5844
 2573SOL    HW310059   4.458   5.559   0.456  2.3700  0.9392  0.1575
 2573SOL    MW410060   4.465   5.501   0.391  0.4441  0.6642  0.1435
 2574SOL     OW10061   2.804   3.043   5.773  0.4369  0.5031  0.3224
 2574SOL    HW210062   2.732   3.083   5.822  0.7022  2.1358 -0.5561
 2574SOL    HW310063   2.881   3.093   5.799  0.8000  0.5335 -0.7687
 2574SOL    MW410064   2.805   3.055   5.783  0.5198  0.7225  0.0625
 2575SOL     OW10065   6.163   4.315   4.237 -0.4143 -0.2789  0.0408
 2575SOL    HW210066   6.184   4.408   4.227 -2.4934  0.1071 -1.5898
 2575SOL    HW310067   6.139   4.306   4.329 -0.9898  1.0297  0.0525
 2575SOL    MW410068   6.163   4.326   4.248 -0.7646 -0.0553 -0.1728
 2576SOL     OW10069   1.216   1.983   5.335 -0.4009 -0.0681  0.1868
 2576SOL    HW210070   1.304   2.014   5.359 -1.0528  1.4067  0.7771
 2576SOL    HW310071   1.180   1.949   5.417 -0.7180  0.1851  0.1551
 2576SOL    MW410072   1.223   1.983   5.349 -0.5287  0.1599  0.2605
 2577SOL     OW10073   2.334   1.890   0.999  0.0759 -0.4573 -0.7225
 2577SOL    HW210074   2.246   1.927   1.006  0.2174 -0.1344 -0.6510
 2577SOL    HW310075   2.320   1.804   0.960 -0.5443 -1.5360  1.6879
 2577SOL    MW410076   2.320   1.884   0.994  0.0127 -0.5570 -0.3950
 2578SOL     OW10077   3.409   3.097   5.181 -0.4060  0.3537 -0.3146
 2578SOL    HW210078   3.398   3.192   5.170  0.2412  0.4935  0.2175
 2578SOL    HW310079   3.497   3.080   5.149 -0.2355  0.0522  0.3094
 2578SOL    MW410080   3.419   3.108   5.175 -0.2982  0.3324 -0.1621
 2579SOL     OW10081   4.791   2.907   5.046 -0.5479 -0.2459 -0.1068
 2579SOL    HW210082   4.716   2.930   4.991 -1.0676 -1.5587 -0.0059
 2579SOL    HW310083   4.850   2.859   4.988 -1.1774 -1.7862  0.4759
 2579SOL    MW410084   4.789   2.904   5.031 -0.6996 -0.6223 -0.0166
 2580SOL     OW10085   5.056   0.868   3.888 -0.6359 -0.5274 -0.1095
 2580SOL    HW210086   5.003   0.830   3.958 -0.5195 -1.9521 -0.7722
 2580SOL    HW310087   5.080   0.794   3.832  0.8084  0.2981 -0.6500
 2580SOL    MW410088   5.052   0.853   3.890 -0.4300 -0.6064 -0.2682
 2581SOL     OW10089   2.278   5.064   6.419  0.1997  0.0383  0.6660
 2581SOL    HW210090   2.249   5.041   6.507  0.3484  1.3998  1.0974
 2581SOL    HW310091   2.216   5.131   6.390  0.6635  0.2227  0.0745
 2581SOL    MW410092   2.266   5.070   6.427  0.2805  0.2423  0.6449
 2582SOL     OW10093   3.672   0.806   6.421  0.2602  0.1600 -0.2042
 2582SOL    HW210094   3.624   0.839   6.345  1.5447 -0.0060 -1.1123
 2582SOL    HW310095   3.651   0.712   6.424 -0.3501  0.3010  0.0795
 2582SOL    MW410096   3.663   0.798   6.411  0.3491  0.1567 -0.2866
 2583SOL     OW10097   3.776   2.213   6.126 -0.4235  0.6077  0.1388
 2583SOL    HW210098   3.706   2.258   6.174 -0.5119  0.3813  0.2259
 2583SOL    HW310099   3.782   2.127   6.169 -1.5360 -0.1797 -1.1917
 2583SOL    MW410100   3.767   2.207   6.138 -0.5820  0.4740 -0.0252
 2584SOL     OW10101   5.636   1.896   4.481 -0.4974  0.1388 -0.2653
 2584SOL    HW210102   5.633   1.823   4.420  3.7924  2.1551 -3.4091
 2584SOL    HW310103   5.721   1.888   4.525 -0.5440  2.3573  0.3863
 2584SOL    MW410104   5.647   1.886   4.479  0.0624  0.6975 -0.5941
 2585SOL     OW10105   0.826   0.395   5.252  0.0206  0.5532  0.4013
 2585SOL    HW210106   0.868   0.367   5.171  2.4173  1.1055  1.3834
 2585SOL    HW310107   0.829   0.490   5.249  0.2638  0.5742  1.2039
 2585SOL    MW410108   0.832   0.404   5.241  0.3689  0.6288  0.6368
 2586SOL     OW10109   1.403   0.656   2.529  1.0026 -0.1534 -0.5741
 2586SOL    HW210110   1.482   0.637   2.479  0.5622 -0.7128 -1.0781
 2586SOL    HW310111   1.423   0.736   2.578  1.4504  0.4146 -1.6488
 2586SOL    MW410112   1.416   0.664   2.528  1.0036 -0.1522 -0.7824
 2587SOL     OW10113   3.646   1.768   1.859 -0.3459 -0.2943  0.2419
 2587SOL    HW210114   3.670   1.804   1.944 -0.5611 -0.6103  0.4381
 2587SOL    HW310115   3.727   1.728   1.826  0.0763  0.9480 -0.2858
 2587SOL    MW410116   3.660   1.767   1.866 -0.3186 -0.1721  0.1981
 2588SOL     OW10117   2.144   2.986   5.805  0.1561  0.2776 -0.3219
 2588SOL    HW210118   2.092   2.990   5.724  2.1549  0.0385 -1.7040
 2588SOL    HW310119   2.080   2.987   5.875 -1.6281  1.6733 -1.8821
 2588SOL    MW410120   2.129   2.986   5.803  0.1844  0.4302 -0.7101
 2589SOL     OW10121   3.605   6.402   6.120  0.2775 -0.5514  0.0777
 2589SOL    HW210122   3.534   6.448   6.165 -0.1333  0.0846 -1.1699
 2589SOL    HW310123   3.632   6.334   6.182 -0.2103  0.3199  1.3012
 2589SOL    MW410124   3.599   6.400   6.134  0.1589 -0.3525  0.0745
 2590SOL     OW10125   2.789   1.298   5.019  0.3730 -0.4351  0.3476
 2590SOL    HW210126   2.762   1.251   4.940  2.4214 -2.4845  0.7413
 2590SOL    HW310127   2.714   1.291   5.078 -0.3178 -0.9657 -0.5713
 2590SOL    MW410128   2.776   1.291   5.016  0.5521 -0.7755  0.2783
 2591SOL     OW10129   4.271   1.903   5.609  0.2669 -0.3395 -0.6827
 2591SOL    HW210130   4.357   1.895   5.649 -0.3744 -1.9527  0.4573
 2591SOL    HW310131   4.285   1.881   5.517  1.2208  0.4235 -0.7363
 2591SOL    MW410132   4.284   1.899   5.602  0.3081 -0.4517 -0.5394
 2592SOL     OW10133   3.825   1.447   0.678 -0.2615 -0.1598 -0.5997
 2592SOL    HW210134   3.838   1.492   0.761  0.9476 -2.0881  0.3364
 2592SOL    HW310135   3.735   1.415   0.681 -0.0109 -0.8224  0.3229
 2592SOL    MW410136   3.815   1.448   0.689 -0.0689 -0.5016 -0.3545
 2593SOL     OW10137   0.818   5.027   0.353  0.4280 -0.6892 -0.7689
 2593SOL    HW210138   0.858   4.992   0.432 -0.7399 -0.5432 -0.0982
 2593SOL    HW310139   0.866   5.107   0.335 -0.0644 -0.0863  0.4885
 2593SOL    MW410140   0.829   5.033   0.361  0.2089 -0.5904 -0.5145
 2594SOL     OW10141   6.206   6.115   2.515  0.3222 -0.0556 -0.3453
 2594SOL    HW210142   6.193   6.050   2.446  1.1631 -1.2829  0.6046
 2594SOL    HW310143   6.291   6.093   2.553 -0.6748 -0.2450  1.9254
 2594SOL    MW410144   6.216   6.104   2.511  0.3016 -0.2425  0.0796
 2595SOL     OW10145   1.896   0.370   3.714  0.0654  0.2772  0.5235
 2595SOL    HW210146   1.969   0.317   3.681 -0.3472  0.2357 -0.3425
 2595SOL    HW310147   1.831   0.368   3.645 -0.0849  1.6852  0.5799
 2595SOL    MW410148   1.897   0.363   3.701 -0.0089  0.4575  0.4167
 2596SOL     OW10149   5.236   2.134   2.762  0.1146  0.3098  0.5339
 2596SOL    HW210150   5.148   2.166   2.740  0.3370  0.9359  0.5485
 2596SOL    HW310151   5.282   2.130   2.678  0.2912  0.6444  0.6159
 2596SOL    MW410152   5.230   2.138   2.748  0.1673  0.4365  0.5467
 2597SOL     OW10153   2.747   0.333   1.602 -0.2019 -0.6234 -0.5589
 2597SOL    HW210154   2.743   0.339   1.697 -0.8656 -0.2001 -0.6070
 2597SOL    HW310155   2.779   0.245   1.585 -0.5461 -0.8752  0.0543
 2597SOL    MW410156   2.750   0.322   1.612 -0.3349 -0.6007 -0.4843
 2598SOL     OW10157   4.883   0.289   3.205 -0.1287 -0.2916  0.2568
 2598SOL    HW210158   4.971   0.256   3.191  0.0685  0.8415 -1.5356
 2598SOL    HW310159   4.831   0.249   3.136 -0.2133  1.7519 -0.9532
 2598SOL    MW410160   4.888   0.280   3.194 -0.1138  0.1275 -0.1393
 2599SOL     OW10161   1.690   3.402   2.714  0.1228 -0.1893 -0.0570
 2599SOL    HW210162   1.647   3.483   2.742 -0.5309 -1.0492  1.6187
 2599SOL    HW310163   1.781   3.412   2.742 -0.0617 -0.2027  0.5637
 2599SOL    MW410164   1.696   3.414   2.721  0.0122 -0.3045  0.2460
 2600SOL     OW10165   1.966   1.577   0.176 -0.5752  0.1684  0.3053
 2600SOL    HW210166   1.932   1.568   0.265 -3.1000  1.0217 -0.4962
 2600SOL    HW310167   1.896   1.619   0.127  1.5497  1.7794 -1.6189
 2600SOL    MW410168   1.953   1.581   0.181 -0.6280  0.4936 -0.0543
 2601SOL     OW10169   4.350   2.757   3.160 -0.1819  0.4654 -0.0875
 2601SOL    HW210170   4.300   2.722   3.234 -2.6355  0.4579 -1.6464
 2601SOL    HW310171   4.288   2.814   3.114  0.1042 -1.9782 -3.9417
 2601SOL    MW410172   4.335   2.760   3.164 -0.4679  0.1420 -0.8017
 2602SOL     OW10173   2.602   4.083   2.811  0.4172  0.1378 -0.0623
 2602SOL    HW210174   2.514   4.112   2.834  0.2290 -0.9228  0.6415
 2602SOL    HW310175   2.616   4.116   2.722 -0.9326 -0.1794 -0.4166
 2602SOL    MW410176   2.592   4.091   2.802  0.2143 -0.0440 -0.0162
 2603SOL     OW10177   6.090   3.753   1.395  0.1013  0.0928  0.3546
 2603SOL    HW210178   6.018   3.715   1.445 -0.5290 -0.3909 -0.8609
 2603SOL    HW310179   6.167   3.704   1.423 -0.3078 -0.4527  0.5392
 2603SOL    MW410180   6.091   3.741   1.405 -0.0358 -0.0430  0.2186
 2604SOL     OW10181   4.193   1.558   3.016  0.5478  0.6380  0.2049
 2604SOL    HW210182   4.278   1.587   3.049  0.5242  0.2813  0.5859
 2604SOL    HW310183   4.198   1.572   2.921  1.2281  0.1222  0.1609
 2604SOL    MW410184   4.205   1.564   3.008  0.6345  0.5229  0.2494
 2605SOL     OW10185   3.478   1.112   4.690 -0.0716  0.2238 -0.7158
 2605SOL    HW210186   3.506   1.156   4.610 -2.2625  0.6134 -1.3333
 2605SOL    HW310187   3.444   1.182   4.746 -1.2557 -0.3423 -0.6829
 2605SOL    MW410188   3.477   1.127   4.686 -0.5169  0.2005 -0.7930
 2606SOL     OW10189   2.056   6.181   0.439 -0.7021 -0.7290 -0.0090
 2606SOL    HW210190   2.064   6.096   0.482  2.9624 -0.3444  0.4083
 2606SOL    HW310191   2.076   6.164   0.347 -1.8898 -0.5806 -0.3017
 2606SOL    MW410192   2.060   6.167   0.433 -0.3753 -0.6587  0.0074
 2607SOL     OW10193   5.714   4.977   2.837 -0.1396 -0.9146  0.2577
 2607SOL    HW210194   5.737   4.886   2.855 -0.9449 -1.2310 -0.2959
 2607SOL    HW310195   5.782   5.007   2.777  0.7727 -0.7933  1.3131
 2607SOL    MW410196   5.726   4.969   2.832 -0.1255 -0.9404  0.3239
 2608SOL     OW10197   4.218   3.651   1.174  0.1369  0.1579 -0.1338
 2608SOL    HW210198   4.301   3.646   1.126  0.3695  0.5989  0.2188
 2608SOL    HW310199   4.192   3.743   1.167 -0.9139 -0.1818 -1.2240
 2608SOL    MW410200   4.225   3.663   1.166  0.0290  0.1713 -0.2311
 2609SOL     OW10201   4.714   4.000   2.874 -0.5918 -0.3709 -0.1407
 2609SOL    HW210202   4.717   3.905   2.887 -2.3508 -0.3958  0.3024
 2609SOL    HW310203   4.621   4.022   2.875 -0.2248  1.3582 -0.3430
 2609SOL    MW410204   4.702   3.990   2.876 -0.7754 -0.1460 -0.1089
 2610SOL     OW10205   6.041   3.322   4.215 -0.0193  0.4525 -0.2002
 2610SOL    HW210206   6.024   3.228   4.212 -0.0108  0.4225  0.6797
 2610SOL    HW310207   6.049   3.347   4.123  0.0394 -0.4158 -0.4402
 2610SOL    MW410208   6.040   3.313   4.202 -0.0104  0.3340 -0.1158
 2611SOL     OW10209   2.272   0.892   4.587 -0.5594 -0.2772  0.5482
 2611SOL    HW210210   2.317   0.872   4.505  0.3268 -0.4742  1.0679
 2611SOL    HW310211   2.179   0.892   4.564 -0.3989 -1.5166 -0.2098
 2611SOL    MW410212   2.266   0.889   4.573 -0.4213 -0.4667  0.5168
 2612SOL     OW10213   2.324   5.494   0.858 -0.8380 -0.2808  0.5766
 2612SOL    HW210214   2.328   5.401   0.835 -1.1334  0.1558 -1.4549
 2612SOL    HW310215   2.369   5.538   0.785 -0.5948  1.1639  1.5710
 2612SOL    MW410216   2.331   5.488   0.845 -0.8449 -0.0326  0.4397
 2613SOL     OW10217   2.330   4.114   1.509  0.1455  0.2422 -0.3382
 2613SOL    HW210218   2.374   4.031   1.530  1.4000  0.2609 -2.6136
 2613SOL    HW310219   2.362   4.175   1.575 -0.0940 -0.8340  0.8219
 2613SOL    MW410220   2.340   4.111   1.521  0.2794  0.1027 -0.4853
 2614SOL     OW10221   2.182   3.863   2.045  0.0081  0.1734 -0.0116
 2614SOL    HW210222   2.093   3.849   2.075 -0.3367  0.1504 -1.0238
 2614SOL    HW310223   2.182   3.835   1.953  1.0477  0.1826 -0.0316
 2614SOL    MW410224   2.171   3.858   2.037  0.0998  0.1716 -0.1478
 2615SOL     OW10225   3.567   5.816   1.851 -0.1127  0.2612 -0.3582
 2615SOL    HW210226   3.642   5.756   1.848 -0.2411 -0.0344  1.2970
 2615SOL    HW310227   3.502   5.776   1.794  0.6659  0.0599 -1.1173
 2615SOL    MW410228   3.569   5.803   1.843 -0.0269  0.1956 -0.2400
 2616SOL     OW10229   5.887   3.640   3.711 -0.7452 -0.7535 -0.9280
 2616SOL    HW210230   5.883   3.577   3.783  0.7845  1.3984  1.2417
 2616SOL    HW310231   5.835   3.715   3.743  1.8000  1.1607 -0.9816
 2616SOL    MW410232   5.879   3.642   3.725 -0.2076 -0.2170 -0.6488
 2617SOL     OW10233   3.331   4.625   3.178  0.0709  0.1607  0.2645
 2617SOL    HW210234   3.338   4.532   3.199 -1.6051  0.0338  0.3437
 2617SOL    HW310235   3.345   4.670   3.262 -0.0253 -0.0584  0.3977
 2617SOL    MW410236   3.334   4.619   3.192 -0.1629  0.1151  0.2925
 2618SOL     OW10237   1.199   1.546   2.675  0.5795  0.0449 -0.0384
 2618SOL    HW210238   1.257   1.479   2.708  0.6127 -0.6664 -1.4580
 2618SOL    HW310239   1.213   1.546   2.580 -0.1681  1.3444 -0.1856
 2618SOL    MW410240   1.208   1.537   2.667  0.4853  0.1225 -0.2451
 2619SOL     OW10241   3.545   1.076   0.877  0.0960 -0.0034 -0.0724
 2619SOL    HW210242   3.635   1.052   0.898  0.1606  0.6398  0.3809
 2619SOL    HW310243   3.547   1.097   0.784 -0.1675 -2.7246 -0.7935
 2619SOL    MW410244   3.557   1.076   0.867  0.0698 -0.2776 -0.1077
 2620SOL     OW10245   1.268   6.335   2.088  0.1568  0.2068  0.3197
 2620SOL    HW210246   1.242   6.353   2.178 -2.1443 -0.9738 -0.0310
 2620SOL    HW310247   1.238   6.411   2.038 -0.4921 -0.0673  0.2764
 2620SOL    MW410248   1.260   6.347   2.093 -0.2324  0.0148  0.2677
 2621SOL     OW10249   1.675   0.060   4.524  0.6503  0.0143  0.3577
 2621SOL    HW210250   1.604   0.029   4.468  0.2337  1.4242  0.0691
 2621SOL    HW310251   1.659   0.019   4.609 -0.5101  0.3045  0.2901
 2621SOL    MW410252   1.664   0.050   4.528  0.4422  0.2386  0.3107
 2622SOL     OW10253   1.333   0.758   4.452 -0.0859 -0.0210 -0.0655
 2622SOL    HW210254   1.245   0.777   4.485  0.0986  0.1210  0.3533
 2622SOL    HW310255   1.327   0.771   4.358 -0.6785 -0.6490 -0.1206
 2622SOL    MW410256   1.321   0.762   4.444 -0.1397 -0.0851 -0.0176
 2623SOL     OW10257   4.494   1.796   4.842  0.3578  0.4450  0.2340
 2623SOL    HW210258   4.492   1.753   4.928 -2.0658  0.5164  0.2687
 2623SOL    HW310259   4.418   1.854   4.842  1.5258  2.0944 -1.1824
 2623SOL    MW410260   4.484   1.798   4.854  0.1921  0.6720  0.0517
 2624SOL     OW10261   5.180   5.790   5.998 -0.0849  0.3936  0.3975
 2624SOL    HW210262   5.266   5.797   6.039 -0.2481 -1.4626  1.1643
 2624SOL    HW310263   5.127   5.856   6.042  0.8425  1.3375  0.1365
 2624SOL    MW410264   5.184   5.800   6.009  0.0159  0.2732  0.4643
 2625SOL     OW10265   0.930   0.003   0.934  0.1327 -0.0634 -0.1001
 2625SOL    HW210266   1.023  -0.015   0.946  0.4021  1.3614  0.0883
 2625SOL    HW310267   0.927   0.088   0.890 -1.0737 -0.4612 -0.8508
 2625SOL    MW410268   0.942   0.012   0.930  0.0090  0.0721 -0.1742
 2626SOL     OW10269   6.257   4.235   2.608 -0.7587 -0.1914 -0.1133
 2626SOL    HW210270   6.208   4.159   2.639 -1.1225  0.1424  0.1301
 2626SOL    HW310271   6.203   4.272   2.538 -1.1540  0.5190  0.5433
 2626SOL    MW410272   6.243   4.230   2.603 -0.8589 -0.0537  0.0055
 2627SOL     OW10273   0.731   6.177   2.875 -0.1123 -0.0254 -0.2814
 2627SOL    HW210274   0.733   6.269   2.902  0.9814 -0.3995  0.9964
 2627SOL    HW310275   0.663   6.138   2.930  3.2217 -1.1549  3.4740
 2627SOL    MW410276   0.722   6.184   2.886  0.4719 -0.2238  0.3826
 2628SOL     OW10277   0.073   6.010   4.360  0.9749  0.4692 -0.1702
 2628SOL    HW210278   0.003   6.075   4.365  0.4959 -0.1286  1.2851
 2628SOL    HW310279   0.093   6.004   4.266  0.5409  2.1758 -0.4039
 2628SOL    MW410280   0.066   6.018   4.348  0.8544  0.6155 -0.0090
 2629SOL     OW10281   3.284   0.572   4.651  0.4001  0.3186 -0.6486
 2629SOL    HW210282   3.210   0.623   4.618 -0.4211 -0.0832  0.5120
 2629SOL    HW310283   3.319   0.624   4.723  0.3102 -0.1790 -0.2377
 2629SOL    MW410284   3.279   0.586   4.656  0.2799  0.1999 -0.4412
 2630SOL     OW10285   1.056   0.699   2.739  0.3815  0.0980 -0.3539
 2630SOL    HW210286   1.025   0.646   2.665  2.5451 -0.0250 -1.2629
 2630SOL    HW310287   0.977   0.741   2.773 -1.1077 -2.0314 -0.9339
 2630SOL    MW410288   1.042   0.698   2.734  0.4705 -0.1992 -0.5503
 2631SOL     OW10289   0.420   5.977   1.041  0.2519 -0.1379  0.6387
 2631SOL    HW210290   0.422   6.063   0.999  0.0379 -1.0715 -1.4357
 2631SOL    HW310291   0.460   5.918   0.976 -2.0596 -2.0441  0.8196
 2631SOL    MW410292   0.426   5.980   1.027 -0.0813 -0.5126  0.3889
 2632SOL     OW10293   4.166   3.362   4.050 -0.3672 -0.0431 -0.3188
 2632SOL    HW210294   4.108   3.322   4.115 -0.6443  1.1689  0.2097
 2632SOL    HW310295   4.109   3.380   3.975 -0.3431 -0.2280 -0.3812
 2632SOL    MW410296   4.151   3.359   4.049 -0.4006  0.0924 -0.2573
 2633SOL     OW10297   5.219   0.996   5.652 -0.1431 -0.0701 -0.6929
 2633SOL    HW210298   5.241   0.954   5.569 -1.3187 -2.6287  0.1869
 2633SOL    HW310299   5.175   1.077   5.627  3.0643  1.3366 -2.4696
 2633SOL    MW410300   5.216   1.001   5.637  0.1250 -0.2221 -0.8112
 2634SOL     OW10301   1.383   6.060   2.626  0.3517  0.4542 -0.6305
 2634SOL    HW210302   1.291   6.035   2.634  0.3163 -0.8675 -3.7476
 2634SOL    HW310303   1.418   6.053   2.715 -2.1042 -0.8682  0.3210
 2634SOL    MW410304   1.376   6.056   2.638  0.0230  0.1054 -0.9162
 2635SOL     OW10305   2.693   2.641   1.306  0.2489  0.3071 -0.1687
 2635SOL    HW210306   2.748   2.596   1.369 -0.6511  0.2918  0.6272
 2635SOL    HW310307   2.753   2.697   1.257  0.9442  0.4317  0.8021
 2635SOL    MW410308   2.708   2.643   1.308  0.2219  0.3215  0.0644
 2636SOL     OW10309   4.492   4.475   4.195 -0.3986  0.0458  0.4554
 2636SOL    HW210310   4.572   4.467   4.246 -1.5901 -0.7630  2.2816
 2636SOL    HW310311   4.515   4.537   4.125  1.4527  0.7752  1.6315
 2636SOL    MW410312   4.506   4.482   4.193 -0.3115  0.0353  0.8515
 2637SOL     OW10313   3.090   3.525   3.993 -0.1472  0.0363 -0.0168
 2637SOL    HW210314   3.119   3.453   4.050  2.6981  0.6150 -0.6071
 2637SOL    HW310315   3.128   3.504   3.908 -0.5134  1.5011 -0.5548
 2637SOL    MW410316   3.099   3.512   3.989  0.1799  0.3059 -0.1657
 2638SOL     OW10317   5.383   2.355   2.865  0.1606  0.1883 -1.1646
 2638SOL    HW210318   5.431   2.327   2.943  2.1632 -0.2740 -2.5018
 2638SOL    HW310319   5.331   2.278   2.840 -2.1480  0.9576  0.7851
 2638SOL    MW410320   5.382   2.341   2.872  0.1202  0.2288 -1.0838
 2639SOL     OW10321   6.109   3.019   3.325  0.1531  0.5122 -0.0380
 2639SOL    HW210322   6.182   3.028   3.387  0.1097  0.3861  0.0306
 2639SOL    HW310323   6.031   3.041   3.376  0.2313  1.6133 -0.3549
 2639SOL    MW410324   6.109   3.023   3.339  0.1577  0.6408 -0.0708
 2640SOL     OW10325   2.188   2.156   5.391 -0.0445  0.8624 -0.4027
 2640SOL    HW210326   2.181   2.226   5.327  1.4657  2.1436  0.7626
 2640SOL    HW310327   2.243   2.089   5.349 -0.9875  0.6176 -1.2833
 2640SOL    MW410328   2.194   2.156   5.377  0.0303  0.9992 -0.3651
 2641SOL     OW10329   0.479   3.718   5.362  0.0634 -0.0084 -0.1537
 2641SOL    HW210330   0.473   3.716   5.458  0.1477 -1.8187 -0.1508
 2641SOL    HW310331   0.392   3.691   5.333  1.0021 -3.1213 -0.4697
 2641SOL    MW410332   0.467   3.714   5.371  0.1984 -0.6579 -0.1950
 2642SOL     OW10333   4.066   6.160   6.022  0.1872 -0.4445 -0.0512
 2642SOL    HW210334   4.022   6.173   5.938 -2.0273  1.6657  1.2940
 2642SOL    HW310335   4.024   6.082   6.059 -1.2334  0.5101  0.4338
 2642SOL    MW410336   4.054   6.151   6.016 -0.2924 -0.0402  0.1903
 2643SOL     OW10337   3.210   1.598   0.421 -0.8406 -0.1889 -0.5539
 2643SOL    HW210338   3.204   1.532   0.489 -2.6052 -0.7593 -1.2095
 2643SOL    HW310339   3.229   1.549   0.341 -1.0968  0.2090 -0.8626
 2643SOL    MW410340   3.212   1.583   0.420 -1.1072 -0.2116 -0.6811
 2644SOL     OW10341   1.389   6.358   3.523  0.3713  0.1800  0.1579
 2644SOL    HW210342   1.299   6.380   3.500  0.5577 -0.1888 -1.0051
 2644SOL    HW310343   1.441   6.429   3.486  0.7135 -0.6267 -0.9585
 2644SOL    MW410344   1.384   6.370   3.515  0.4410  0.0249 -0.1428
 2645SOL     OW10345   2.158   6.109   4.806  0.0051  0.3112 -0.5684
 2645SOL    HW210346   2.133   6.044   4.872  1.2530  0.1217 -0.2673
 2645SOL    HW310347   2.110   6.083   4.727 -0.0714 -0.5379 -0.2512
 2645SOL    MW410348   2.148   6.097   4.804  0.1597  0.1742 -0.4868
 2646SOL     OW10349   5.025   5.316   4.396  0.6350  0.0219  0.2787
 2646SOL    HW210350   5.038   5.240   4.453  2.7947  1.1861  1.4855
 2646SOL    HW310351   5.059   5.288   4.311 -2.2358 -1.5921 -0.4922
 2646SOL    MW410352   5.031   5.302   4.393  0.5412 -0.0374  0.3362
 2647SOL     OW10353   2.346   5.142   4.428 -0.1530 -0.1705 -0.6112
 2647SOL    HW210354   2.298   5.065   4.461  0.6849 -0.4806 -0.0747
 2647SOL    HW310355   2.281   5.212   4.427 -0.7229 -0.6804 -0.2865
 2647SOL    MW410356   2.331   5.141   4.432 -0.1177 -0.2787 -0.4976
 2648SOL     OW10357   2.564   1.122   3.302  0.7686  0.5040 -0.4566
 2648SOL    HW210358   2.504   1.156   3.236  0.6600  1.8500  0.2940
 2648SOL    HW310359   2.651   1.143   3.268  0.8062 -0.6110 -1.1002
 2648SOL    MW410360   2.568   1.129   3.289  0.7592  0.5344 -0.4425
 2649SOL     OW10361   4.516   5.167   2.880  0.1846  0.2274 -0.5086
 2649SOL    HW210362   4.510   5.100   2.811 -0.0090 -1.0799  0.7379
 2649SOL    HW310363   4.473   5.127   2.955 -0.0375  1.8273  0.2376
 2649SOL    MW410364   4.510   5.153   2.881  0.1298  0.2660 -0.2457
 2650SOL     OW10365   0.464   3.837   2.442  0.3028  0.6752  0.0416
 2650SOL    HW210366   0.543   3.877   2.478  1.8617 -1.1302 -1.1675
 2650SOL    HW310367   0.480   3.742   2.447 -1.4271  0.2718 -1.0226
 2650SOL    MW410368   0.477   3.829   2.447  0.2802  0.3837 -0.2583
 2651SOL     OW10369   3.638   3.738   3.278  0.1620  0.0215  0.4178
 2651SOL    HW210370   3.612   3.706   3.364 -0.9622 -0.1528  0.0389
 2651SOL    HW310371   3.729   3.712   3.268  0.5337  0.7119  1.8524
 2651SOL    MW410372   3.647   3.730   3.288  0.0627  0.0896  0.5571
 2652SOL     OW10373   1.164   4.770   2.540 -0.2627 -0.0950 -0.0400
 2652SOL    HW210374   1.071   4.789   2.550 -0.5101 -1.2037 -0.0186
 2652SOL    HW310375   1.189   4.729   2.623  0.0375 -0.5524 -0.3502
 2652SOL    MW410376   1.155   4.767   2.553 -0.2557 -0.3017 -0.0781
 2653SOL     OW10377   2.733   3.314   3.371  0.0421  0.0998 -0.0389
 2653SOL    HW210378   2.775   3.228   3.371 -0.4019 -0.1533 -2.1547
 2653SOL    HW310379   2.644   3.296   3.402  0.5620  0.1855  1.6226
 2653SOL    MW410380   2.727   3.300   3.375  0.0521  0.0777 -0.0989
 2654SOL     OW10381   3.094   0.644   6.008  0.6221 -0.3264  0.8053
 2654SOL    HW210382   3.183   0.644   6.044  1.1509 -0.3237 -0.4683
 2654SOL    HW310383   3.102   0.599   5.924  0.1075  2.5658 -0.9307
 2654SOL    MW410384   3.107   0.638   6.002  0.6240  0.0556  0.4082
 2655SOL     OW10385   3.742   5.498   2.512 -0.0147  0.3692  0.4221
 2655SOL    HW210386   3.795   5.561   2.462 -0.9141  1.0793  0.3329
 2655SOL    HW310387   3.676   5.468   2.449  0.5080 -0.8116  0.4143
 2655SOL    MW410388   3.741   5.503   2.497 -0.0644  0.3071  0.4093
 2656SOL     OW10389   5.723   1.742   2.876  0.0531  0.0826 -0.0482
 2656SOL    HW210390   5.682   1.829   2.873 -0.5782 -0.2504 -1.5093
 2656SOL    HW310391   5.651   1.681   2.891  0.4373 -0.2415  0.5189
 2656SOL    MW410392   5.708   1.746   2.878  0.0205 -0.0041 -0.1662
 2657SOL     OW10393   2.938   1.725   4.759  0.0541 -0.3097 -0.5001
 2657SOL    HW210394   2.894   1.654   4.805  0.2208 -0.5588 -0.7179
 2657SOL    HW310395   2.904   1.721   4.669 -1.0367  0.8257 -0.1542
 2657SOL    MW410396   2.928   1.715   4.753 -0.0678 -0.1928 -0.4832
 2658SOL     OW10397   3.045   3.852   5.856 -0.1991 -0.1109 -0.5061
 2658SOL    HW210398   3.107   3.904   5.805 -1.3972  0.1101 -1.7770
 2658SOL    HW310399   3.070   3.762   5.839 -0.1117 -0.0208 -0.8703
 2658SOL    MW410400   3.057   3.847   5.847 -0.3457 -0.0698 -0.7218
 2659SOL     OW10401   1.047   4.195   5.256 -0.6646  0.1785  0.8236
 2659SOL    HW210402   1.086   4.281   5.272 -0.2621 -0.1531  1.7202
 2659SOL    HW310403   1.098   4.159   5.184 -1.8874  1.3265 -0.6964
 2659SOL    MW410404   1.059   4.202   5.249 -0.7728  0.2862  0.7413
 2660SOL     OW10405   3.723   5.147   3.498 -0.4726 -0.1995  0.2079
 2660SOL    HW210406   3.749   5.106   3.416  3.3358  2.5561 -0.2450
 2660SOL    HW310407   3.763   5.094   3.566 -3.8743 -2.6587  0.5798
 2660SOL    MW410408   3.731   5.135   3.496 -0.4189 -0.1604  0.1972
 2661SOL     OW10409   5.095   1.338   5.204 -0.4588  0.1110 -0.1608
 2661SOL    HW210410   5.046   1.384   5.137 -0.4055 -0.6016 -0.6954
 2661SOL    HW310411   5.091   1.395   5.281  0.1814  1.3266 -1.0059
 2661SOL    MW410412   5.088   1.351   5.206 -0.3673  0.1774 -0.3428
 2662SOL     OW10413   1.013   1.447   6.293 -0.3676 -0.3574  0.4392
 2662SOL    HW210414   1.041   1.529   6.251  2.1544 -1.3475  0.0056
 2662SOL    HW310415   0.977   1.395   6.222  0.1915 -0.4914  0.2446
 2662SOL    MW410416   1.012   1.451   6.278  0.0389 -0.5057  0.3563
 2663SOL     OW10417   1.328   5.421   0.082 -0.6178  0.4768 -0.4198
 2663SOL    HW210418   1.295   5.508   0.059  0.9598  1.7604  1.7976
 2663SOL    HW310419   1.418   5.421   0.050 -0.7385 -0.5164 -0.7740
 2663SOL    MW410420   1.336   5.433   0.075 -0.4256  0.5151 -0.1740
 2664SOL     OW10421   5.512   5.846   2.212  0.3332 -0.3611 -0.1434
 2664SOL    HW210422   5.485   5.760   2.244  0.3660  0.0601  1.0847
 2664SOL    HW310423   5.528   5.897   2.291  2.2834  0.1772 -0.8149
 2664SOL    MW410424   5.511   5.841   2.227  0.5948 -0.2345 -0.0700
 2665SOL     OW10425   5.510   5.014   2.542 -0.7798 -0.4251  0.7784
 2665SOL    HW210426   5.467   5.054   2.617  0.4854  0.4396  1.0810
 2665SOL    HW310427   5.521   4.922   2.566 -2.0439 -0.5759  0.8536
 2665SOL    MW410428   5.506   5.007   2.555 -0.7797 -0.3309  0.8283
 2666SOL     OW10429   1.837   3.440   3.463 -0.1313 -0.2593  0.3886
 2666SOL    HW210430   1.865   3.350   3.477  0.8433 -0.1605 -0.8376
 2666SOL    HW310431   1.869   3.463   3.376 -1.7633  0.7420 -0.0003
 2666SOL    MW410432   1.845   3.431   3.454 -0.2180 -0.1142  0.1755
 2667SOL     OW10433   1.211   1.325   4.558  0.1594 -0.0260  0.2425
 2667SOL    HW210434   1.155   1.329   4.481 -1.4736  0.4130  1.4040
 2667SOL    HW310435   1.179   1.395   4.615  2.0909  0.4358  0.8455
 2667SOL    MW410436   1.200   1.335   4.555  0.1988  0.0928  0.4753
 2668SOL     OW10437   3.653   3.849   2.136 -0.5290  0.4462 -0.1212
 2668SOL    HW210438   3.572   3.878   2.178 -1.5625 -2.9070  0.5084
 2668SOL    HW310439   3.715   3.837   2.209 -0.4214  0.2550 -0.2418
 2668SOL    MW410440   3.651   3.851   2.151 -0.6512 -0.0215 -0.0540
 2669SOL     OW10441   4.009   5.785   5.432  0.7555  0.0117  0.2312
 2669SOL    HW210442   3.925   5.740   5.427  1.0452 -0.5688  0.4249
 2669SOL    HW310443   4.058   5.754   5.356 -0.5309  3.2120 -2.0744
 2669SOL    MW410444   4.005   5.775   5.422  0.6240  0.3574 -0.0474
 2670SOL     OW10445   3.128   2.058   2.065  0.8105 -0.2397 -0.1003
 2670SOL    HW210446   3.099   2.148   2.051  1.7805 -0.0414 -0.9411
 2670SOL    HW310447   3.066   2.005   2.015  0.5490 -0.0007 -0.0326
 2670SOL    MW410448   3.116   2.063   2.057  0.9040 -0.1820 -0.2023
 2671SOL     OW10449   0.168   2.572   5.777 -0.3386 -0.0230  0.0886
 2671SOL    HW210450   0.136   2.621   5.701  0.4424 -0.9334 -0.8574
 2671SOL    HW310451   0.261   2.594   5.783  0.0936 -1.5737 -0.5313
 2671SOL    MW410452   0.176   2.582   5.768 -0.1786 -0.3477 -0.1180
 2672SOL     OW10453   1.452   0.137   5.336 -0.1535 -0.3698  0.4855
 2672SOL    HW210454   1.538   0.169   5.306 -0.5464 -0.1323 -0.4197
 2672SOL    HW310455   1.424   0.077   5.267 -1.1399  0.2796  0.3038
 2672SOL    MW410456   1.460   0.133   5.323 -0.3355 -0.2528  0.3421
 2673SOL     OW10457   5.770   4.742   4.838  0.2999 -0.6528 -0.2292
 2673SOL    HW210458   5.862   4.767   4.848  1.0296 -2.1617 -2.2108
 2673SOL    HW310459   5.736   4.802   4.773  0.0569 -0.4643  0.0730
 2673SOL    MW410460   5.778   4.753   4.831  0.3641 -0.8270 -0.4508
 2674SOL     OW10461   1.340   5.081   0.595 -0.1156  0.7635  0.3974
 2674SOL    HW210462   1.292   5.021   0.538  0.0217  1.9212 -0.9843
 2674SOL    HW310463   1.393   5.024   0.651 -1.1088 -0.4411  0.1478
 2674SOL    MW410464   1.341   5.066   0.595 -0.2286  0.7573  0.1822
 2675SOL     OW10465   4.605   1.791   3.028  0.4693  0.4473  0.3377
 2675SOL    HW210466   4.663   1.723   2.993 -2.1689 -1.1691 -1.1710
 2675SOL    HW310467   4.534   1.744   3.071  0.0710  2.3504  1.9306
 2675SOL    MW410468   4.604   1.776   3.029  0.0687  0.4851  0.3488
 2676SOL     OW10469   2.494   2.359   1.385 -0.3045 -0.3042 -0.0688
 2676SOL    HW210470   2.490   2.313   1.469 -0.7488 -1.4078 -0.6695
 2676SOL    HW310471   2.435   2.433   1.394 -1.1737 -1.0213  0.2492
 2676SOL    MW410472   2.486   2.363   1.397 -0.4778 -0.5444 -0.1061
 2677SOL     OW10473   2.231   5.476   0.557  0.6784 -0.2483 -0.0034
 2677SOL    HW210474   2.174   5.413   0.600  0.5099 -0.7999 -1.0087
 2677SOL    HW310475   2.204   5.474   0.465 -0.4887  2.4969  0.1761
 2677SOL    MW410476   2.220   5.468   0.551  0.5022  0.0411 -0.1123
 2678SOL     OW10477   0.771   2.282   1.072 -0.4043  0.1190  0.7279
 2678SOL    HW210478   0.804   2.258   1.158 -0.8003 -0.2263  0.7904
 2678SOL    HW310479   0.738   2.371   1.082  3.3767  1.8146 -0.1238
 2678SOL    MW410480   0.771   2.290   1.085  0.0423  0.2972  0.6237
 2679SOL     OW10481   5.982   5.624   5.521  0.3887  0.4900 -0.1781
 2679SOL    HW210482   6.045   5.659   5.458  1.8560  1.0791  1.5492
 2679SOL    HW310483   5.933   5.701   5.551 -1.8235 -0.0446 -2.0820
 2679SOL    MW410484   5.984   5.639   5.516  0.2904  0.4972 -0.2014
 2680SOL     OW10485   6.331   0.730   5.613 -0.3852  0.4213 -0.6905
 2680SOL    HW210486   6.398   0.686   5.665 -0.1478  0.7648 -0.7054
 2680SOL    HW310487   6.275   0.659   5.582 -0.4365  0.1964 -0.1032
 2680SOL    MW410488   6.333   0.715   5.616 -0.3606  0.4369 -0.6150
 2681SOL     OW10489   1.471   2.782   1.449 -0.4449 -0.3619  0.0608
 2681SOL    HW210490   1.533   2.816   1.513 -1.0342  0.4840  0.2018
 2681SOL    HW310491   1.468   2.688   1.465 -1.1170 -0.0827  1.7700
 2681SOL    MW410492   1.479   2.775   1.459 -0.6114 -0.2134  0.3049
 2682SOL     OW10493   1.863   5.847   6.154  0.5485  0.4168 -0.3384
 2682SOL    HW210494   1.773   5.854   6.120  0.1841 -0.8544  0.2960
 2682SOL    HW310495   1.876   5.928   6.203  0.8655  2.0163 -2.8899
 2682SOL    MW410496   1.853   5.859   6.156  0.5422  0.4601 -0.5913
 2683SOL     OW10497   2.697   0.402   3.138  0.4231  0.3239 -0.6794
 2683SOL    HW210498   2.740   0.401   3.223 -1.2526  0.6800  0.2301
 2683SOL    HW310499   2.729   0.482   3.095  1.8504 -0.2527 -0.7212
 2683SOL    MW410500   2.707   0.413   3.144  0.3903  0.2948 -0.5649
 2684SOL     OW10501   2.308   0.302   6.162 -0.1362 -0.0404 -0.3137
 2684SOL    HW210502   2.309   0.269   6.251 -0.1153 -0.8437 -0.6051
 2684SOL    HW310503   2.394   0.343   6.151 -1.1013  2.4849  0.8956
 2684SOL    MW410504   2.320   0.303   6.172 -0.2608  0.1868 -0.1926
 2685SOL     OW10505   3.861   3.342   1.265  0.1309  0.1317  0.3471
 2685SOL    HW210506   3.832   3.420   1.311  2.1572  0.3204  1.3973
 2685SOL    HW310507   3.943   3.368   1.223 -0.8280 -0.5005 -2.1027
 2685SOL    MW410508   3.868   3.356   1.265  0.2717  0.0732  0.1624
 2686SOL     OW10509   4.608   5.162   1.534  0.3830 -0.0682  0.3908
 2686SOL    HW210510   4.562   5.132   1.456  0.5723 -0.3242  0.3760
 2686SOL    HW310511   4.701   5.143   1.517  0.3024 -1.2604  1.1719
 2686SOL    MW410512   4.614   5.156   1.522  0.3973 -0.2593  0.4919
 2687SOL     OW10513   4.851   5.907   1.777  0.3942 -0.2756 -0.4377
 2687SOL    HW210514   4.835   5.997   1.752  0.5909 -0.7318 -2.3514
 2687SOL    HW310515   4.852   5.858   1.694  0.7810 -1.9523  0.4978
 2687SOL    MW410516   4.849   5.912   1.763  0.4712 -0.5570 -0.5667
 2688SOL     OW10517  -0.004   3.504   3.181 -0.3842  0.1509 -0.7993
 2688SOL    HW210518  -0.035   3.523   3.269 -2.7420 -0.3472 -1.4565
 2688SOL    HW310519   0.016   3.410   3.182  0.1737  0.2692 -0.6413
 2688SOL    MW410520  -0.005   3.494   3.193 -0.6217  0.1008 -0.8652
 2689SOL     OW10521   1.585   6.349   6.151  0.0896 -0.0378 -0.7802
 2689SOL    HW210522   1.606   6.284   6.084  0.4566  0.7639 -1.4480
 2689SOL    HW310523   1.511   6.398   6.117  0.3785  0.4800 -0.6785
 2689SOL    MW410524   1.578   6.347   6.138  0.1761  0.1363 -0.8549
 2690SOL     OW10525   2.323   0.791   1.508  0.4036 -0.6493  0.0112
 2690SOL    HW210526   2.401   0.825   1.464 -0.6170  0.3967 -1.0604
 2690SOL    HW310527   2.303   0.709   1.462  0.5361 -0.6195 -0.1006
 2690SOL    MW410528   2.330   0.784   1.496  0.2864 -0.5074 -0.1449
 2691SOL     OW10529   4.013   5.174   3.933 -0.4490  0.8770  0.4357
 2691SOL    HW210530   4.087   5.138   3.884  0.4538  0.2360  2.1993
 2691SOL    HW310531   3.955   5.100   3.947 -0.0917  0.7718  1.4013
 2691SOL    MW410532   4.015   5.160   3.928 -0.2828  0.7785  0.7958
 2692SOL     OW10533   0.381   0.223   3.338  0.4104  0.0756 -0.1429
 2692SOL    HW210534   0.289   0.249   3.338  0.2066 -0.6357  0.0176
 2692SOL    HW310535   0.426   0.296   3.294 -0.1337  0.7237  0.3417
 2692SOL    MW410536   0.375   0.236   3.332  0.3117  0.0673 -0.0578
 2693SOL     OW10537   4.040   4.026   3.775 -0.1706 -0.2963 -0.3833
 2693SOL    HW210538   4.035   4.014   3.681  2.8805 -1.5537 -0.4971
 2693SOL    HW310539   3.982   4.101   3.793 -0.9172 -0.0920 -3.1841
 2693SOL    MW410540   4.032   4.035   3.765  0.1335 -0.4352 -0.7679
 2694SOL     OW10541   5.157   5.280   4.937  0.4665  0.1025  0.7371
 2694SOL    HW210542   5.196   5.193   4.924  1.5989  0.9284 -2.0271
 2694SOL    HW310543   5.119   5.275   5.025  1.0266 -2.9626  0.9459
 2694SOL    MW410544   5.157   5.268   4.947  0.6898 -0.1929  0.3999
 2695SOL     OW10545   3.539   2.745   0.113 -0.1710 -0.1068  0.6810
 2695SOL    HW210546   3.463   2.783   0.156  0.0732  0.8790  0.2819
 2695SOL    HW310547   3.504   2.674   0.059 -0.7630  0.1698  0.7015
 2695SOL    MW410548   3.525   2.740   0.112 -0.2169  0.0598  0.6311
 2696SOL     OW10549   3.130   1.051   0.015  0.5313  0.0800 -0.4314
 2696SOL    HW210550   3.049   1.040   0.064 -0.7618  1.2091 -2.2084
 2696SOL    HW310551   3.117   0.999  -0.064  1.1320  1.0371 -1.1781
 2696SOL    MW410552   3.118   1.043   0.011  0.4399  0.3553 -0.7644
 2697SOL     OW10553   0.970   5.340   1.662  0.5894 -0.0665  0.2908
 2697SOL    HW210554   1.035   5.322   1.729 -0.7085  1.7272  2.1747
 2697SOL    HW310555   1.015   5.324   1.579  3.5228  1.3198  1.4651
 2697SOL    MW410556   0.984   5.336   1.660  0.8052  0.3531  0.6943
 2698SOL     OW10557   0.052   3.919   3.797  0.2441 -0.4482  0.1511
 2698SOL    HW210558   0.136   3.876   3.778 -0.3080 -1.3492 -0.3072
 2698SOL    HW310559   0.073   4.012   3.796  1.0509 -0.6157 -0.9546
 2698SOL    MW410560   0.066   3.926   3.794  0.2777 -0.5892 -0.0553
 2699SOL     OW10561   1.132   3.431   1.041  0.6189  0.3861 -0.0559
 2699SOL    HW210562   1.141   3.462   0.951  0.4138 -0.7281 -0.4728
 2699SOL    HW310563   1.042   3.450   1.065  0.2853 -0.5133 -0.5608
 2699SOL    MW410564   1.122   3.438   1.032  0.5478  0.1205 -0.1775
 2700SOL     OW10565   1.143   4.159   2.543  0.6307  0.3568 -0.1099
 2700SOL    HW210566   1.070   4.221   2.548 -1.1672 -1.7276  1.9807
 2700SOL    HW310567   1.221   4.214   2.547 -0.8522  2.5312  2.7686
 2700SOL    MW410568   1.144   4.174   2.544  0.1978  0.3687  0.5457
 2701SOL     OW10569   1.495   2.474   1.210 -0.5022 -0.0129  0.0597
 2701SOL    HW210570   1.486   2.496   1.303 -0.1278  0.4253 -0.0028
 2701SOL    HW310571   1.406   2.481   1.175 -0.7943 -1.0157  0.5510
 2701SOL    MW410572   1.482   2.478   1.218 -0.4914 -0.0874  0.1163
 2702SOL     OW10573   4.662   6.346   5.669 -0.2939 -0.7710  0.3937
 2702SOL    HW210574   4.733   6.403   5.638 -1.4257  1.5020  1.8200
 2702SOL    HW310575   4.708   6.268   5.701  1.3391 -0.5124 -1.1201
 2702SOL    MW410576   4.678   6.343   5.669 -0.2278 -0.4370  0.3822
 2703SOL     OW10577   1.824   1.290   5.799 -0.6036 -0.1363  0.5032
 2703SOL    HW210578   1.900   1.325   5.846  0.3087 -1.9668  0.4578
 2703SOL    HW310579   1.764   1.261   5.868 -0.6581  0.0415  0.5316
 2703SOL    MW410580   1.826   1.291   5.814 -0.4904 -0.3544  0.5009
 2704SOL     OW10581   0.464   1.760   4.294 -0.0929 -0.5696  0.5299
 2704SOL    HW210582   0.379   1.790   4.262 -0.2352 -1.2148  0.2904
 2704SOL    HW310583   0.525   1.778   4.222 -0.0517 -0.2284  0.6508
 2704SOL    MW410584   0.461   1.766   4.280 -0.1062 -0.6097  0.5143
 2705SOL     OW10585   0.473   5.599   2.010  0.5510 -0.3433  0.2191
 2705SOL    HW210586   0.485   5.693   1.994  0.2024 -0.0233  1.6301
 2705SOL    HW310587   0.379   5.585   1.994  0.7466 -0.6270 -0.7304
 2705SOL    MW410588   0.462   5.610   2.006  0.5308 -0.3385  0.2800
 2706SOL     OW10589   1.461   6.156   0.250  0.3377 -0.6855 -0.2635
 2706SOL    HW210590   1.457   6.251   0.257  1.8374 -0.5779 -0.3711
 2706SOL    HW310591   1.450   6.125   0.340 -0.4892 -0.4340 -0.2757
 2706SOL    MW410592   1.459   6.164   0.263  0.4265 -0.6381 -0.2793
 2707SOL     OW10593   1.506   5.178   0.387 -0.2251 -0.5081  0.3368
 2707SOL    HW210594   1.478   5.140   0.304 -2.8495  0.6391  0.5933
 2707SOL    HW310595   1.454   5.132   0.453  0.6436 -0.2907  1.1989
 2707SOL    MW410596   1.495   5.167   0.385 -0.4567 -0.3281  0.4843
 2708SOL     OW10597   0.558   5.010   4.671  0.0591 -0.2118  0.3480
 2708SOL    HW210598   0.551   5.046   4.759  0.8213 -1.2099  0.8417
 2708SOL    HW310599   0.652   5.005   4.655 -0.0254 -1.5847  0.1550
 2708SOL    MW410600   0.570   5.014   4.681  0.1486 -0.5246  0.3877
 2709SOL     OW10601   1.751   4.903   3.607 -0.4562  0.0383 -0.1338
 2709SOL    HW210602   1.664   4.899   3.567  0.3240  1.4952 -2.1442
 2709SOL    HW310603   1.805   4.845   3.554  0.1124  0.1945  0.2663
 2709SOL    MW410604   1.746   4.895   3.595 -0.2783  0.2511 -0.3463
 2710SOL     OW10605   2.979   3.952   1.409 -0.2982  0.2741  0.9802
 2710SOL    HW210606   3.033   3.901   1.471 -1.1262 -2.8267 -0.6537
 2710SOL    HW310607   3.023   3.941   1.325 -1.5932  0.6644  0.2346
 2710SOL    MW410608   2.992   3.944   1.406 -0.5783 -0.0835  0.6662
 2711SOL     OW10609   0.611   5.190   2.685 -0.0008  0.2346 -0.0838
 2711SOL    HW210610   0.559   5.201   2.605  1.1783  4.3482 -0.5148
 2711SOL    HW310611   0.699   5.168   2.653  0.6106  2.4433 -0.0879
 2711SOL    MW410612   0.616   5.189   2.670  0.2354  1.0688 -0.1412
 2712SOL     OW10613   4.511   4.860   4.229 -0.1841  0.2736 -0.2871
 2712SOL    HW210614   4.479   4.909   4.305  0.0755  1.1812 -0.7448
 2712SOL    HW310615   4.444   4.794   4.213 -0.5606  0.4928  0.3323
 2712SOL    MW410616   4.498   4.858   4.237 -0.1996  0.4223 -0.2658
 2713SOL     OW10617   5.821   2.458   4.394  0.6316 -0.3110  0.3665
 2713SOL    HW210618   5.742   2.511   4.406 -1.7709 -3.6595  0.7944
 2713SOL    HW310619   5.844   2.429   4.482  1.3225 -0.7046  0.0656
 2713SOL    MW410620   5.814   2.461   4.407  0.4058 -0.8048  0.3833
 2714SOL     OW10621   0.506   3.156   1.459  0.2658 -0.1757  0.0464
 2714SOL    HW210622   0.496   3.209   1.538  1.5744  0.6561 -0.3082
 2714SOL    HW310623   0.441   3.087   1.468 -1.2767  1.2808  0.7004
 2714SOL    MW410624   0.497   3.154   1.471  0.2349  0.1262  0.0859
 2715SOL     OW10625   2.523   3.268   1.500 -0.1557 -0.0827 -0.1705
 2715SOL    HW210626   2.579   3.313   1.437 -1.3672  0.7947 -0.6629
 2715SOL    HW310627   2.570   3.276   1.583  1.3779 -1.0979 -0.8937
 2715SOL    MW410628   2.537   3.275   1.502 -0.1132 -0.1009 -0.3309
 2716SOL     OW10629   4.523   4.588   0.257  0.1919 -0.4149  0.4687
 2716SOL    HW210630   4.568   4.657   0.208 -1.3779  0.9858  0.8981
 2716SOL    HW310631   4.469   4.543   0.192  2.6458 -2.6250 -0.2115
 2716SOL    MW410632   4.522   4.591   0.242  0.3085 -0.5217  0.4357
 2717SOL     OW10633   2.584   3.401   5.722 -0.0015  0.1338 -0.4922
 2717SOL    HW210634   2.662   3.439   5.683  1.7048 -0.2589  2.2964
 2717SOL    HW310635   2.539   3.359   5.648  1.6121  1.6314 -2.4354
 2717SOL    MW410636   2.588   3.400   5.707  0.4366  0.2796 -0.3806
 2718SOL     OW10637   1.256   0.789   4.121  0.4472 -0.2092  0.1447
 2718SOL    HW210638   1.234   0.867   4.171  0.4537 -0.7751  1.0464
 2718SOL    HW310639   1.180   0.775   4.064 -0.3898 -0.6290  1.3323
 2718SOL    MW410640   1.243   0.798   4.120  0.3376 -0.3392  0.4204
 2719SOL     OW10641   2.704   2.563   2.981 -0.9276  0.0621 -0.2538
 2719SOL    HW210642   2.735   2.484   2.937 -1.4546 -0.7830  0.8550
 2719SOL    HW310643   2.773   2.584   3.044 -0.1266  1.3272 -1.4968
 2719SOL    MW410644   2.717   2.556   2.984 -0.8914  0.1175 -0.2715
 2720SOL     OW10645   0.740   0.844   1.815  0.0015 -0.3798  0.3923
 2720SOL    HW210646   0.804   0.913   1.830 -1.0731  0.5542  0.8215
 2720SOL    HW310647   0.793   0.766   1.795  1.2994  0.0861  1.7961
 2720SOL    MW410648   0.756   0.842   1.814  0.0309 -0.1951  0.6341
 2721SOL     OW10649   4.139   6.020   3.340  0.0108  0.8797 -0.7423
 2721SOL    HW210650   4.165   6.019   3.432 -0.8934 -2.1212 -0.4170
 2721SOL    HW310651   4.209   6.068   3.296  1.0773  1.3372  1.3310
 2721SOL    MW410652   4.152   6.026   3.347  0.0322  0.5441 -0.4259
 2722SOL     OW10653   1.373   4.231   1.410 -0.4130  0.5032  0.4862
 2722SOL    HW210654   1.347   4.191   1.327 -0.5997  1.8426 -0.1283
 2722SOL    HW310655   1.457   4.189   1.432 -0.4568 -0.0028 -0.2706
 2722SOL    MW410656   1.381   4.220   1.402 -0.4434  0.6132  0.3052
 2723SOL     OW10657   0.799   1.436   4.958  0.0424 -0.4826 -0.1193
 2723SOL    HW210658   0.734   1.381   5.002 -1.5078  0.0380 -1.6435
 2723SOL    HW310659   0.868   1.376   4.932 -1.0400 -1.5405 -0.6686
 2723SOL    MW410660   0.799   1.421   4.960 -0.3049 -0.5535 -0.3929
 2724SOL     OW10661   3.248   1.398   0.250  0.1322  0.4450 -0.0904
 2724SOL    HW210662   3.287   1.339   0.315  2.7154 -0.2309 -2.0669
 2724SOL    HW310663   3.161   1.361   0.234  0.2050 -0.5182  1.4957
 2724SOL    MW410664   3.242   1.385   0.256  0.4826  0.2287 -0.1419
 2725SOL     OW10665   5.418   4.729   6.040  0.6308  0.3047 -0.3921
 2725SOL    HW210666   5.475   4.782   6.097  2.4856  0.0579 -1.9043
 2725SOL    HW310667   5.441   4.638   6.063  0.3238  0.1923 -0.5298
 2725SOL    MW410668   5.429   4.724   6.051  0.8350  0.2573 -0.6098
 2726SOL     OW10669   4.284   3.917   1.511 -0.0910  0.1527  0.3297
 2726SOL    HW210670   4.279   3.960   1.425 -2.9298 -1.2387 -0.3105
 2726SOL    HW310671   4.276   3.989   1.574  0.3856  1.0296 -0.5845
 2726SOL    MW410672   4.283   3.932   1.508 -0.4027  0.0848  0.1246
 2727SOL     OW10673   5.135   3.760   2.081  0.2094  0.0839  0.4727
 2727SOL    HW210674   5.209   3.766   2.141  1.3328  2.3935 -1.0071
 2727SOL    HW310675   5.138   3.671   2.047  1.5926 -0.2111  1.3085
 2727SOL    MW410676   5.145   3.749   2.085  0.5401  0.3497  0.3877
 2728SOL     OW10677   3.393   3.891   1.729 -0.4943 -0.2522 -0.6351
 2728SOL    HW210678   3.386   3.976   1.686 -1.8142 -1.2160 -2.4487
 2728SOL    HW310679   3.483   3.863   1.713 -1.3898 -1.4586 -4.7697
 2728SOL    MW410680   3.404   3.898   1.722 -0.7866 -0.5386 -1.4199
 2729SOL     OW10681   6.183   0.116   2.936  0.1939  0.4880  0.6109
 2729SOL    HW210682   6.157   0.207   2.948 -1.2550  0.1146  0.4854
 2729SOL    HW310683   6.259   0.105   2.993  0.9743  2.0223 -0.1082
 2729SOL    MW410684   6.189   0.126   2.945  0.1057  0.6412  0.4995
 2730SOL     OW10685   4.081   4.458   5.873 -0.0898  0.4232  0.2588
 2730SOL    HW210686   3.995   4.448   5.834 -0.1745  0.8263  0.3410
 2730SOL    HW310687   4.072   4.423   5.962 -0.3171  0.9979  0.4601
 2730SOL    MW410688   4.069   4.452   5.880 -0.1309  0.5522  0.2962
 2731SOL     OW10689   4.783   1.770   4.277  0.2640  0.4878 -0.2223
 2731SOL    HW210690   4.817   1.762   4.366  0.9116 -1.4627 -0.6093
 2731SOL    HW310691   4.818   1.854   4.246 -0.8689  1.7353  1.6865
 2731SOL    MW410692   4.792   1.780   4.285  0.2000  0.3950 -0.0215
 2732SOL     OW10693   4.201   1.114   6.162  0.3920 -0.8364 -0.2169
 2732SOL    HW210694   4.159   1.043   6.209  0.2405 -0.7675 -0.2474
 2732SOL    HW310695   4.273   1.073   6.114 -0.8396 -1.2844 -1.7315
 2732SOL    MW410696   4.205   1.099   6.162  0.2095 -0.8864 -0.4208
 2733SOL     OW10697   0.568   2.048   4.629  0.3700 -0.5199 -0.5481
 2733SOL    HW210698   0.594   1.960   4.656 -1.9632 -0.7478  1.3143
 2733SOL    HW310699   0.647   2.101   4.638  1.2178 -1.9424  0.7721
 2733SOL    MW410700   0.582   2.044   4.634  0.1740 -0.7377 -0.1282
 2734SOL     OW10701   4.581   0.080   5.301  0.1095  0.5486  0.7403
 2734SOL    HW210702   4.601  -0.013   5.308  0.2660  0.5991  0.9569
 2734SOL    HW310703   4.558   0.107   5.390 -2.3779  0.1676  0.3004
 2734SOL    MW410704   4.581   0.071   5.313 -0.1981  0.5050  0.7108
 2735SOL     OW10705   1.341   5.090   5.266 -0.0369  0.2082 -0.1264
 2735SOL    HW210706   1.389   5.019   5.223  1.7502  0.8337  0.7013
 2735SOL    HW310707   1.276   5.118   5.202  0.9651 -0.4589 -1.4853
 2735SOL    MW410708   1.339   5.085   5.252  0.3311  0.2027 -0.1965
 2736SOL     OW10709   5.572   0.791   2.333  0.3709  0.1973 -0.1591
 2736SOL    HW210710   5.577   0.704   2.372  2.2761 -1.0796 -2.9303
 2736SOL    HW310711   5.662   0.825   2.339  0.2009  0.8974 -1.3313
 2736SOL    MW410712   5.585   0.784   2.339  0.5998  0.1212 -0.6794
 2737SOL     OW10713   5.798   3.545   3.467  0.2063  0.0883 -0.6024
 2737SOL    HW210714   5.718   3.594   3.449 -0.5665 -0.3865  1.3487
 2737SOL    HW310715   5.830   3.580   3.550  0.3876 -1.7394  0.1382
 2737SOL    MW410716   5.791   3.556   3.475  0.1283 -0.2155 -0.2472
 2738SOL     OW10717   1.805   1.621   0.457 -0.3176 -0.8965  0.3407
 2738SOL    HW210718   1.781   1.532   0.484 -0.8427 -1.1051 -0.7299
 2738SOL    HW310719   1.730   1.651   0.405 -0.0575  0.1020  0.5185
 2738SOL    MW410720   1.792   1.613   0.454 -0.3526 -0.7923  0.2229
 2739SOL     OW10721   4.267   4.936   2.379 -0.0836  0.9118  0.2890
 2739SOL    HW210722   4.347   4.915   2.427  0.3247 -2.4400 -1.5818
 2739SOL    HW310723   4.297   4.976   2.298 -0.6515  3.8159  1.3709
 2739SOL    MW410724   4.281   4.938   2.375 -0.1046  0.8527  0.1849
 2740SOL     OW10725   2.843   3.578   4.318  0.5984 -0.1355  0.6766
 2740SOL    HW210726   2.931   3.616   4.318  0.4559  0.3751 -1.6315
 2740SOL    HW310727   2.836   3.535   4.232 -1.1367 -0.8367  1.1329
 2740SOL    MW410728   2.854   3.577   4.306  0.3507 -0.1607  0.4323
 2741SOL     OW10729   4.100   4.611   3.639 -0.2515 -0.5195 -0.3368
 2741SOL    HW210730   4.019   4.560   3.650  0.0747 -1.2924 -1.3542
 2741SOL    HW310731   4.083   4.692   3.687 -1.6609 -0.6402 -0.5703
 2741SOL    MW410732   4.087   4.615   3.647 -0.3944 -0.6374 -0.5019
 2742SOL     OW10733   1.451   5.406   5.990 -0.1014  0.3808  0.2806
 2742SOL    HW210734   1.433   5.443   6.076 -1.6207  2.7674 -0.9478
 2742SOL    HW310735   1.368   5.367   5.963  0.6824 -1.4184  0.3239
 2742SOL    MW410736   1.438   5.406   5.998 -0.1984  0.4583  0.1242
 2743SOL     OW10737   1.093   1.053   1.651 -0.0245 -0.2253 -0.0456
 2743SOL    HW210738   1.064   1.048   1.560 -0.2898 -0.6943  0.0616
 2743SOL    HW310739   1.132   0.967   1.668 -2.2752 -1.1043  1.0561
 2743SOL    MW410740   1.094   1.041   1.641 -0.3565 -0.4031  0.1139
 2744SOL     OW10741   6.256   2.418   4.418 -0.3529  0.3583 -0.0822
 2744SOL    HW210742   6.174   2.368   4.419 -0.0625 -0.1457 -0.8189
 2744SOL    HW310743   6.325   2.352   4.410  0.0327  0.8776 -1.2512
 2744SOL    MW410744   6.254   2.403   4.417 -0.2637  0.3603 -0.3336
 2745SOL     OW10745   0.344   0.126   4.864 -0.0357 -0.6277  0.2904
 2745SOL    HW210746   0.369   0.049   4.813 -1.6285 -1.0468  0.0784
 2745SOL    HW310747   0.293   0.180   4.802  0.3077  0.1719  0.6876
 2745SOL    MW410748   0.341   0.123   4.849 -0.2005 -0.5775  0.3148
 2746SOL     OW10749   5.398   0.512   3.879  0.2352  0.0231  0.7421
 2746SOL    HW210750   5.313   0.484   3.911  0.7714 -1.3279  1.0697
 2746SOL    HW310751   5.429   0.440   3.824  1.7076 -0.1271  1.6817
 2746SOL    MW410752   5.391   0.499   3.876  0.5002 -0.1750  0.9093
 2747SOL     OW10753   2.726   6.190   5.976  0.2569  0.4132  0.5190
 2747SOL    HW210754   2.680   6.115   5.938  1.7828  0.1218 -0.8673
 2747SOL    HW310755   2.777   6.153   6.048  0.5445  0.2275  0.2193
 2747SOL    MW410756   2.726   6.175   5.981  0.4961  0.3503  0.2965
 2748SOL     OW10757   0.150   1.625   0.534 -0.0024  0.2743  0.1066
 2748SOL    HW210758   0.114   1.542   0.567  1.4907 -0.8177 -0.8486
 2748SOL    HW310759   0.215   1.598   0.470  0.0827  2.2391 -0.6901
 2748SOL    MW410760   0.154   1.610   0.530  0.2058  0.3895 -0.1245
 2749SOL     OW10761   4.118   3.431   3.261  0.0784 -0.0519  0.6114
 2749SOL    HW210762   4.188   3.464   3.205 -0.7560  0.1674 -0.3253
 2749SOL    HW310763   4.112   3.338   3.241  0.6946 -0.2652  1.3605
 2749SOL    MW410764   4.126   3.423   3.251  0.0496 -0.0511  0.5866
 2750SOL     OW10765   5.693   0.497   1.738 -0.2741  0.2411  0.1175
 2750SOL    HW210766   5.613   0.492   1.686  0.3386  0.2178 -0.8558
 2750SOL    HW310767   5.674   0.448   1.818 -1.3764  0.6259  0.1037
 2750SOL    MW410768   5.680   0.490   1.742 -0.3387  0.2888 -0.0127
 2751SOL     OW10769   0.321   6.019   3.978 -0.1127  0.0087  0.0128
 2751SOL    HW210770   0.242   6.053   4.021  0.3412  0.1928  0.7194
 2751SOL    HW310771   0.337   5.935   4.021  1.3974  1.0183  1.5676
 2751SOL    MW410772   0.313   6.012   3.989  0.1464  0.1662  0.3111
 2752SOL     OW10773   5.593   5.905   1.911 -0.1692 -0.2102  0.0545
 2752SOL    HW210774   5.683   5.902   1.882  0.1503  0.6854  0.8764
 2752SOL    HW310775   5.597   5.884   2.005 -0.8450 -0.4842  0.0293
 2752SOL    MW410776   5.605   5.902   1.920 -0.2162 -0.1282  0.1596
 2753SOL     OW10777   0.050   2.695   2.613  0.4559  0.2696 -0.0695
 2753SOL    HW210778   0.128   2.643   2.591 -0.0638 -0.5386 -0.0631
 2753SOL    HW310779  -0.003   2.636   2.667 -0.2946  0.7002 -0.3232
 2753SOL    MW410780   0.053   2.680   2.618  0.2883  0.2198 -0.1021
 2754SOL     OW10781   2.100   0.928   3.090 -0.6161 -0.4892  0.0701
 2754SOL    HW210782   2.042   0.947   3.163  0.5081 -0.3933  0.9638
 2754SOL    HW310783   2.128   1.015   3.058  0.9733 -0.5183  1.2614
 2754SOL    MW410784   2.096   0.942   3.095 -0.2581 -0.4804  0.3452
 2755SOL     OW10785   1.864   3.131   1.765  0.5318  0.1344 -0.3563
 2755SOL    HW210786   1.887   3.129   1.858  2.8366  1.0942 -0.8388
 2755SOL    HW310787   1.877   3.041   1.735 -0.4662 -0.2324  0.2851
 2755SOL    MW410788   1.869   3.119   1.773  0.7042  0.2126 -0.3353
 2756SOL     OW10789   3.502   0.064   0.048  0.3202 -0.1652  0.2555
 2756SOL    HW210790   3.578   0.008   0.065  0.4304  0.3289  1.4946
 2756SOL    HW310791   3.539   0.146   0.016  0.2852 -0.0820  0.4271
 2756SOL    MW410792   3.517   0.067   0.046  0.3301 -0.0891  0.4416
 2757SOL     OW10793   2.085   2.536   2.679 -0.1693 -0.6775  0.0184
 2757SOL    HW210794   2.095   2.629   2.656  0.3765 -0.8082 -0.2928
 2757SOL    HW310795   2.026   2.501   2.611 -2.1868 -0.0886  1.3865
 2757SOL    MW410796   2.078   2.544   2.667 -0.3635 -0.6171  0.1579
 2758SOL     OW10797   3.710   5.207   1.260 -0.0464  0.0282 -0.2675
 2758SOL    HW210798   3.651   5.271   1.300  0.6378  1.6754 -1.7186
 2758SOL    HW310799   3.679   5.122   1.291 -0.7369  1.0586  2.0953
 2758SOL    MW410800   3.698   5.205   1.269 -0.0472  0.3815 -0.1472
 2759SOL     OW10801   6.234   4.800   5.120  0.2543  0.1547  0.0750
 2759SOL    HW210802   6.175   4.875   5.122  0.2142  0.1749  3.1272
 2759SOL    HW310803   6.177   4.725   5.103 -0.0325  0.5491 -0.7839
 2759SOL    MW410804   6.219   4.800   5.118  0.2112  0.2094  0.3644
 2760SOL     OW10805   1.409   5.066   3.969  0.9697 -0.2071 -0.1758
 2760SOL    HW210806   1.362   4.990   3.935  1.5385 -0.9293  0.5878
 2760SOL    HW310807   1.498   5.056   3.934  1.1562 -0.1335  0.2686
 2760SOL    MW410808   1.415   5.055   3.960  1.0694 -0.2927 -0.0164
 2761SOL     OW10809   0.241   3.684   0.414 -0.7045  0.5402 -0.0234
 2761SOL    HW210810   0.223   3.746   0.485  1.9757  1.4800 -0.0351
 2761SOL    HW310811   0.191   3.717   0.339 -2.5435  0.2678  1.0244
 2761SOL    MW410812   0.232   3.696   0.413 -0.5935  0.6283  0.1133
 2762SOL     OW10813   2.639   4.127   2.547  0.1707  0.0470 -0.0003
 2762SOL    HW210814   2.574   4.087   2.489 -1.1343  0.3303  1.2166
 2762SOL    HW310815   2.707   4.061   2.556 -0.7670 -0.9373  0.0436
 2762SOL    MW410816   2.639   4.113   2.540 -0.1252 -0.0455  0.1660
 2763SOL     OW10817   2.501   0.972   2.006 -0.5502 -0.3491 -0.4323
 2763SOL    HW210818   2.455   1.053   1.984  0.3087  0.4717  0.6703
 2763SOL    HW310819   2.556   0.995   2.080  2.3350 -1.0390 -2.2154
 2763SOL    MW410820   2.502   0.986   2.013 -0.0562 -0.3318 -0.5221
 2764SOL     OW10821   3.538   1.189   4.418  0.3888  0.6275  0.6431
 2764SOL    HW210822   3.471   1.256   4.408  0.4862  1.2225  3.2794
 2764SOL    HW310823   3.537   1.141   4.335 -0.8144  2.8277 -0.6980
 2764SOL    MW410824   3.529   1.191   4.406  0.2429  0.9963  0.8140
 2765SOL     OW10825   2.667   2.804   3.899 -0.2331 -0.3932  0.2716
 2765SOL    HW210826   2.573   2.796   3.911 -0.0324 -2.1554  1.2082
 2765SOL    HW310827   2.690   2.887   3.941 -1.3744  0.0899 -0.0395
 2765SOL    MW410828   2.658   2.814   3.906 -0.3572 -0.5619  0.3542
 2766SOL     OW10829   3.501   4.924   1.970  1.0906 -0.2887 -0.4126
 2766SOL    HW210830   3.530   5.004   1.927  0.4173  0.3196  0.2249
 2766SOL    HW310831   3.429   4.892   1.917  1.9111 -0.9612 -1.1471
 2766SOL    MW410832   3.496   4.930   1.958  1.1100 -0.2972 -0.4254
 2767SOL     OW10833   4.396   1.017   1.861  0.5556  1.0083 -0.3502
 2767SOL    HW210834   4.402   0.995   1.954 -0.9264  0.0416 -0.4339
 2767SOL    HW310835   4.462   1.084   1.847  1.4274  0.5207  1.2001
 2767SOL    MW410836   4.405   1.023   1.871  0.4751  0.8164 -0.1567
 2768SOL     OW10837   4.604   1.183   1.799  0.1726 -0.1789 -0.3729
 2768SOL    HW210838   4.650   1.109   1.759  1.8470  0.4434  0.3317
 2768SOL    HW310839   4.658   1.207   1.874 -1.3855  0.5272  0.5636
 2768SOL    MW410840   4.617   1.176   1.804  0.1880 -0.0036 -0.1564
 2769SOL     OW10841   1.895   2.755   3.370  0.2430  0.2909 -0.2331
 2769SOL    HW210842   1.838   2.831   3.379  2.0173  1.5060  1.8361
 2769SOL    HW310843   1.961   2.782   3.307  1.3239  0.8279  1.0837
 2769SOL    MW410844   1.896   2.769   3.363  0.6197  0.5221  0.2136
 2770SOL     OW10845   2.639   2.531   5.743 -0.1473 -0.2962  0.0015
 2770SOL    HW210846   2.714   2.589   5.755  1.6550 -2.5756  0.4293
 2770SOL    HW310847   2.594   2.565   5.666  0.6023  1.8541  0.4591
 2770SOL    MW410848   2.643   2.543   5.735  0.1894 -0.3132  0.1183
 2771SOL     OW10849   1.422   3.732   5.958 -0.3875 -0.1123 -0.1106
 2771SOL    HW210850   1.474   3.682   6.020 -0.5128 -0.4930 -0.3072
 2771SOL    HW310851   1.387   3.805   6.008 -1.3639 -1.0007  0.5275
 2771SOL    MW410852   1.424   3.735   5.973 -0.5328 -0.2798 -0.0524
 2772SOL     OW10853   4.339   5.644   2.403  0.1206 -0.0088  0.7036
 2772SOL    HW210854   4.372   5.618   2.317 -2.5041 -1.0872 -0.0782
 2772SOL    HW310855   4.417   5.672   2.451  1.6332  0.9738 -2.1025
 2772SOL    MW410856   4.353   5.644   2.398 -0.0261 -0.0214  0.2302
 2773SOL     OW10857   0.375   3.810   2.906  0.3333  0.3303  0.9356
 2773SOL    HW210858   0.347   3.751   2.976  1.2794 -0.1466  0.9336
 2773SOL    HW310859   0.470   3.815   2.916  0.6023 -0.4560 -0.8668
 2773SOL    MW410860   0.384   3.803   2.917  0.4936  0.1636  0.6975
 2774SOL     OW10861   4.073   5.719   4.664 -0.3377 -0.0358  0.0788
 2774SOL    HW210862   4.007   5.779   4.698  0.3954  1.8721 -1.6734
 2774SOL    HW310863   4.037   5.690   4.580  0.5022  0.0711 -0.3256
 2774SOL    MW410864   4.059   5.723   4.658 -0.1302  0.2300 -0.2057
 2775SOL     OW10865   4.558   1.091   3.010  0.3927  0.1230  0.0333
 2775SOL    HW210866   4.570   1.046   3.094  0.8416  1.2343  0.5898
 2775SOL    HW310867   4.509   1.029   2.956  1.3945 -1.2099  0.6019
 2775SOL    MW410868   4.553   1.077   3.014  0.5841  0.0938  0.1817
 2776SOL     OW10869   3.770   3.978   3.201 -0.2694  0.3415  0.3651
 2776SOL    HW210870   3.723   3.894   3.197 -0.1035  0.2316  0.6603
 2776SOL    HW310871   3.862   3.954   3.188 -0.2179  0.4745  0.4877
 2776SOL    MW410872   3.776   3.964   3.199 -0.2407  0.3445  0.4202
 2777SOL     OW10873   1.322   5.025   6.219  0.1337  0.2790 -0.2437
 2777SOL    HW210874   1.282   5.100   6.262 -0.9092  0.4528 -1.4815
 2777SOL    HW310875   1.401   5.007   6.272 -0.4384  1.2299  0.9922
 2777SOL    MW410876   1.327   5.032   6.232 -0.0794  0.4274 -0.2439
 2778SOL     OW10877   2.869   1.345   1.504  0.1119 -0.0393  0.0564
 2778SOL    HW210878   2.777   1.372   1.507  0.5925  1.8077 -0.3211
 2778SOL    HW310879   2.910   1.395   1.575  0.9490 -0.2838 -0.2459
 2778SOL    MW410880   2.862   1.356   1.514  0.2858  0.1722 -0.0333
 2779SOL     OW10881   1.935   5.348   2.884 -0.5478  0.4114  0.2166
 2779SOL    HW210882   1.938   5.421   2.822  0.5366  1.1666  1.1258
 2779SOL    HW310883   1.957   5.271   2.832 -1.3771  0.7646 -0.6863
 2779SOL    MW410884   1.938   5.347   2.869 -0.5141  0.5576  0.2174
 2780SOL     OW10885   0.038   4.132   3.491 -0.1513  0.5299  0.5453
 2780SOL    HW210886   0.096   4.141   3.566 -0.2361  0.4602  0.6189
 2780SOL    HW310887  -0.049   4.157   3.524 -0.1165  0.9035  0.3681
 2780SOL    MW410888   0.034   4.137   3.505 -0.1579  0.5700  0.5316
 2781SOL     OW10889   1.056   5.944   0.450 -0.3705  0.0341  0.4515
 2781SOL    HW210890   1.085   5.950   0.360  0.0925  0.0917  0.6031
 2781SOL    HW310891   1.127   5.900   0.496  0.5215  2.1881  1.2914
 2781SOL    MW410892   1.069   5.939   0.444 -0.1917  0.3259  0.5823
 2782SOL     OW10893   6.219   3.947   6.273  0.5211 -0.0149  0.3784
 2782SOL    HW210894   6.230   3.937   6.368 -1.4519 -0.5977  0.5913
 2782SOL    HW310895   6.186   4.036   6.263  1.0884  0.1786  0.1854
 2782SOL    MW410896   6.216   3.957   6.284  0.3357 -0.0662  0.3810
 2783SOL     OW10897   2.047   5.089   1.382  1.0086 -0.1579  0.0415
 2783SOL    HW210898   2.037   5.056   1.293 -1.3147  0.0935  0.1431
 2783SOL    HW310899   2.039   5.012   1.438 -3.7689  0.1793  0.2437
 2783SOL    MW410900   2.044   5.075   1.378  0.0717 -0.0802  0.0816
 2784SOL     OW10901   6.355   6.419   2.257 -0.5491 -0.0617 -0.1332
 2784SOL    HW210902   6.381   6.510   2.244  0.6253 -0.4880 -0.8782
 2784SOL    HW310903   6.361   6.405   2.352 -1.8893  0.9428  0.1387
 2784SOL    MW410904   6.359   6.429   2.268 -0.5710  0.0146 -0.1956
 2785SOL     OW10905   3.006   1.441   3.888  0.7354 -0.7736  0.1137
 2785SOL    HW210906   3.098   1.417   3.896  0.4688 -1.5690  1.0121
 2785SOL    HW310907   2.968   1.420   3.974  0.2228  1.8759  0.6239
 2785SOL    MW410908   3.013   1.435   3.901  0.6326 -0.5290  0.2996
 2786SOL     OW10909   4.937   5.469   0.666  0.2540  0.0627 -0.0194
 2786SOL    HW210910   4.900   5.509   0.587  2.3881 -2.2860 -2.4204
 2786SOL    HW310911   4.874   5.400   0.689  0.0523  0.1715 -0.2367
 2786SOL    MW410912   4.924   5.465   0.659  0.5089 -0.2328 -0.3649
 2787SOL     OW10913   0.121   2.654   4.217  0.4374 -0.3725  0.0278
 2787SOL    HW210914   0.141   2.601   4.141 -1.1406 -1.5418  0.3650
 2787SOL    HW310915   0.047   2.609   4.259  0.2290  1.0995  1.3550
 2787SOL    MW410916   0.114   2.641   4.213  0.2017 -0.3326  0.2474
 2788SOL     OW10917   0.545   6.198   5.888 -0.4320  0.0501 -0.7715
 2788SOL    HW210918   0.634   6.165   5.872 -0.7695 -0.4239 -1.7489
 2788SOL    HW310919   0.490   6.148   5.828 -1.6828 -1.2133  1.3150
 2788SOL    MW410920   0.549   6.187   5.878 -0.6415 -0.1791 -0.6252
 2789SOL     OW10921   4.320   5.876   3.989 -0.0457  0.1445  0.6557
 2789SOL    HW210922   4.398   5.858   4.041 -1.3807 -0.5358  2.5429
 2789SOL    HW310923   4.273   5.793   3.986 -0.8298  0.5965 -0.2499
 2789SOL    MW410924   4.324   5.863   3.995 -0.3253  0.1144  0.7852
 2790SOL     OW10925   3.400   3.312   1.251 -0.1476 -0.0239 -0.3962
 2790SOL    HW210926   3.307   3.301   1.270 -0.3779  1.8493 -0.3062
 2790SOL    HW310927   3.428   3.385   1.306  1.1866 -0.0384 -1.0156
 2790SOL    MW410928   3.391   3.320   1.261 -0.0020  0.2213 -0.4660
 2791SOL     OW10929   5.220   4.808   1.818  0.2100 -0.4288  0.1703
 2791SOL    HW210930   5.147   4.846   1.769  1.2297  1.0184 -0.2844
 2791SOL    HW310931   5.241   4.873   1.885 -0.4756 -1.9150  1.9177
 2791SOL    MW410932   5.213   4.822   1.820  0.2541 -0.4340  0.3409
 2792SOL     OW10933   4.271   0.872   5.400  0.5987 -0.5439 -0.3983
 2792SOL    HW210934   4.234   0.945   5.349 -0.4921 -0.9070 -0.1583
 2792SOL    HW310935   4.198   0.842   5.454  1.1893 -1.4793 -0.1078
 2792SOL    MW410936   4.256   0.878   5.400  0.5327 -0.7152 -0.3283
 2793SOL     OW10937   1.613   3.323   4.935  0.2729 -0.5611  0.0340
 2793SOL    HW210938   1.537   3.326   4.877  0.3652 -2.5823 -0.2625
 2793SOL    HW310939   1.686   3.301   4.878  0.8353 -0.0468  0.5434
 2793SOL    MW410940   1.613   3.321   4.920  0.3593 -0.7599  0.0621
 2794SOL     OW10941   3.145   1.535   5.957 -0.3250 -0.3288  0.0349
 2794SOL    HW210942   3.081   1.603   5.936  1.1231  0.6310 -1.5513
 2794SOL    HW310943   3.187   1.566   6.038 -0.9971 -0.3455  0.3980
 2794SOL    MW410944   3.142   1.548   5.965 -0.2226 -0.2044 -0.1265
 2795SOL     OW10945   1.934   2.799   0.522 -0.1134 -0.3487 -0.1779
 2795SOL    HW210946   1.933   2.864   0.453 -4.1630 -0.9842 -0.9578
 2795SOL    HW310947   1.996   2.732   0.491  0.5173  0.8604 -1.6300
 2795SOL    MW410948   1.942   2.798   0.509 -0.5645 -0.2730 -0.4724
 2796SOL     OW10949   1.168   5.054   5.666  0.2166  0.0961 -0.1039
 2796SOL    HW210950   1.100   5.098   5.614  0.9714  0.4165 -0.8409
 2796SOL    HW310951   1.123   4.979   5.704 -0.6140  0.4268 -0.3933
 2796SOL    MW410952   1.153   5.050   5.664  0.2066  0.1820 -0.2393
 2797SOL     OW10953   2.525   5.230   0.043 -0.1887 -1.0285 -0.2964
 2797SOL    HW210954   2.518   5.211   0.137 -0.2323 -3.0472 -0.6713
 2797SOL    HW310955   2.464   5.169   0.001 -0.0214 -0.2902 -1.6638
 2797SOL    MW410956   2.516   5.219   0.050 -0.1724 -1.1974 -0.5263
 2798SOL     OW10957   4.279   1.700   4.312  0.0983 -0.1408 -0.3402
 2798SOL    HW210958   4.346   1.762   4.283 -0.0541  0.4256  0.4935
 2798SOL    HW310959   4.265   1.720   4.404 -0.9443 -0.5099 -0.3986
 2798SOL    MW410960   4.286   1.711   4.320 -0.0594 -0.1148 -0.2379
 2799SOL     OW10961   2.385   5.948   2.615 -0.4592 -0.0164  0.1609
 2799SOL    HW210962   2.468   5.937   2.661 -1.0370  0.6357  1.4420
 2799SOL    HW310963   2.321   5.960   2.686 -1.2645  1.8884 -0.8155
 2799SOL    MW410964   2.387   5.948   2.631 -0.6417  0.3209  0.2011
 2800SOL     OW10965   4.639   5.672   1.925  0.1367 -0.2767 -0.2443
 2800SOL    HW210966   4.575   5.741   1.908  1.5779  1.4097  0.8871
 2800SOL    HW310967   4.704   5.682   1.855  0.5810 -0.1984  0.1761
 2800SOL    MW410968   4.639   5.682   1.913  0.3855 -0.0439 -0.0396
 2801SOL     OW10969   3.666   1.919   0.073 -0.0603 -0.0309 -0.3462
 2801SOL    HW210970   3.710   1.965   0.145 -2.8130  1.7815  0.3189
 2801SOL    HW310971   3.652   1.830   0.107 -1.8105  0.9404  1.7091
 2801SOL    MW410972   3.670   1.913   0.087 -0.6544  0.3364  0.0127
 2802SOL     OW10973   0.782   5.306   2.340 -0.5923  0.6786  0.2099
 2802SOL    HW210974   0.719   5.297   2.268  2.4648  2.4434 -2.9993
 2802SOL    HW310975   0.748   5.377   2.394 -1.2858  1.7760 -1.5872
 2802SOL    MW410976   0.770   5.314   2.338 -0.2805  1.0562 -0.4506
 2803SOL     OW10977   2.259   5.467   5.668  0.1535  0.4451  0.5856
 2803SOL    HW210978   2.235   5.418   5.589  0.0604  0.2326  0.7453
 2803SOL    HW310979   2.355   5.470   5.667  0.1740 -0.1298  0.8147
 2803SOL    MW410980   2.268   5.461   5.657  0.1439  0.3412  0.6369
 2804SOL     OW10981   0.654   3.218   2.702 -0.1789  0.0463 -0.5693
 2804SOL    HW210982   0.687   3.180   2.620 -2.7360 -1.2122 -1.1314
 2804SOL    HW310983   0.660   3.147   2.766 -0.2033  0.3347 -0.2444
 2804SOL    MW410984   0.659   3.203   2.699 -0.5195 -0.0817 -0.6006
 2805SOL     OW10985   2.384   5.038   5.621  0.2531  0.4582 -0.2181
 2805SOL    HW210986   2.395   4.976   5.548 -0.8375 -0.2424  0.1894
 2805SOL    HW310987   2.292   5.065   5.615 -0.1437 -0.4249  1.5272
 2805SOL    MW410988   2.373   5.034   5.610  0.0569  0.2493  0.0659
 2806SOL     OW10989   4.512   2.247   1.239 -0.5918  0.2713  0.4767
 2806SOL    HW210990   4.547   2.259   1.150 -1.0929  0.4565  0.3023
 2806SOL    HW310991   4.563   2.174   1.275  0.0355  0.6001  0.2609
 2806SOL    MW410992   4.524   2.239   1.232 -0.5752  0.3391  0.4252
 2807SOL     OW10993   3.908   1.912   5.418 -0.1530  0.2240  0.5599
 2807SOL    HW210994   3.967   1.837   5.431  2.1952  1.9180  0.1607
 2807SOL    HW310995   3.865   1.923   5.503  0.9844 -0.3535  1.2342
 2807SOL    MW410996   3.910   1.903   5.431  0.3069  0.3713  0.5962
 2808SOL     OW10997   4.503   2.437   2.281  0.0458 -0.3819 -0.1072
 2808SOL    HW210998   4.450   2.518   2.280  0.7158  0.1523  2.2144
 2808SOL    HW310999   4.593   2.468   2.282  0.3260 -1.1890 -0.0802
 2808SOL    MW411000   4.508   2.452   2.281  0.1712 -0.4179  0.2027
 2809SOL     OW11001   5.956   1.704   0.228 -0.3222  0.0227 -0.0011
 2809SOL    HW211002   5.987   1.636   0.168  0.1196  1.1041 -1.0216
 2809SOL    HW311003   6.032   1.762   0.239 -0.8554  0.6451  0.4482
 2809SOL    MW411004   5.970   1.703   0.222 -0.3343  0.2475 -0.0764
 2810SOL     OW11005   4.120   4.565   0.880  0.4548  0.6475  0.3762
 2810SOL    HW211006   4.109   4.660   0.885  1.2893  0.7485  0.5586
 2810SOL    HW311007   4.091   4.534   0.966 -1.0140  0.5976 -0.1299
 2810SOL    MW411008   4.115   4.574   0.892  0.3711  0.6543  0.3335
 2811SOL     OW11009   2.561   5.629   3.413  0.1086 -0.2057  0.4879
 2811SOL    HW211010   2.501   5.556   3.428  1.0512 -1.2548 -0.7050
 2811SOL    HW311011   2.598   5.647   3.500 -2.0420  0.6266  1.3027
 2811SOL    MW411012   2.558   5.622   3.427 -0.0508 -0.2343  0.4380
 2812SOL     OW11013   1.091   3.430   2.564  0.3917  0.0564  0.2837
 2812SOL    HW211014   1.079   3.404   2.472  0.9204 -0.5510  0.3735
 2812SOL    HW311015   1.176   3.392   2.588  0.1244 -0.0332  1.1134
 2812SOL    MW411016   1.101   3.421   2.555  0.4262 -0.0356  0.4050
 2813SOL     OW11017   0.564   5.415   1.000  0.4676  0.4433 -0.2603
 2813SOL    HW211018   0.509   5.492   0.985  0.2594  0.1653 -0.9596
 2813SOL    HW311019   0.654   5.447   0.988  0.5314  1.0153  1.3709
 2813SOL    MW411020   0.569   5.429   0.997  0.4486  0.4821 -0.1374
 2814SOL     OW11021   1.873   3.240   4.017 -0.1013  0.4066 -0.0068
 2814SOL    HW211022   1.941   3.249   4.084  0.2643  0.6985 -0.4169
 2814SOL    HW311023   1.887   3.151   3.982 -2.5494 -1.2531  2.7545
 2814SOL    MW411024   1.884   3.229   4.021 -0.3761  0.2261  0.3034
 2815SOL     OW11025   5.320   2.036   0.443 -0.4662  0.3479  0.1702
 2815SOL    HW211026   5.225   2.038   0.435 -0.4372  1.4460  0.0400
 2815SOL    HW311027   5.352   2.089   0.371  0.3775 -2.1575 -1.4295
 2815SOL    MW411028   5.312   2.043   0.433 -0.3510  0.1622 -0.0580
 2816SOL     OW11029   1.994   3.701   4.441 -1.0446  0.0907 -0.1164
 2816SOL    HW211030   2.001   3.609   4.468  0.1316  0.3293  0.4349
 2816SOL    HW311031   1.901   3.712   4.420 -0.8012 -1.9107 -2.7650
 2816SOL    MW411032   1.982   3.690   4.442 -0.8573 -0.1419 -0.3931
 2817SOL     OW11033   4.077   0.600   3.452  0.2604  0.0105 -0.1244
 2817SOL    HW211034   4.075   0.550   3.533 -0.6554  1.3236  0.7178
 2817SOL    HW311035   4.123   0.681   3.475  0.7011  0.0692 -1.1427
 2817SOL    MW411036   4.083   0.604   3.466  0.1977  0.1915 -0.1477
 2818SOL     OW11037   5.394   3.631   6.076  0.0591  0.0368  0.3415
 2818SOL    HW211038   5.455   3.589   6.137  0.7842  1.5488  0.7062
 2818SOL    HW311039   5.325   3.565   6.061  0.9616 -1.1236  1.1402
 2818SOL    MW411040   5.393   3.617   6.082  0.2738  0.0832  0.4950
 2819SOL     OW11041   4.312   0.147   6.364  0.1422 -0.3911  0.0262
 2819SOL    HW211042   4.372   0.100   6.422  0.2126  0.2745  0.5003
 2819SOL    HW311043   4.362   0.158   6.283  0.3753 -0.5321  0.1493
 2819SOL    MW411044   4.327   0.142   6.361  0.1823 -0.3219  0.1050
 2820SOL     OW11045   5.287   0.980   5.917  0.2063 -0.2565  0.3078
 2820SOL    HW211046   5.253   0.968   5.829 -0.0729 -0.0091  0.3814
 2820SOL    HW311047   5.352   1.051   5.909 -0.7200  0.6394  0.5224
 2820SOL    MW411048   5.291   0.988   5.904  0.0472 -0.1056  0.3458
 2821SOL     OW11049   4.818   5.880   1.103 -0.2169 -0.0610  0.6101
 2821SOL    HW211050   4.908   5.905   1.082 -0.4562  0.4194  0.1311
 2821SOL    HW311051   4.802   5.801   1.051 -0.7715  1.0635 -1.0190
 2821SOL    MW411052   4.828   5.873   1.093 -0.3216  0.1508  0.3319
 2822SOL     OW11053   1.388   2.150   6.106  0.0007 -0.6493 -0.1556
 2822SOL    HW211054   1.465   2.183   6.151 -0.6071  0.1976  0.2955
 2822SOL    HW311055   1.376   2.209   6.032 -0.9390  0.0360  0.5085
 2822SOL    MW411056   1.396   2.162   6.102 -0.2035 -0.4471 -0.0084
 2823SOL     OW11057   2.616   1.761   1.122 -0.2648 -0.5336 -0.1738
 2823SOL    HW211058   2.664   1.841   1.103 -2.0755  0.8375  0.7005
 2823SOL    HW311059   2.604   1.762   1.217  0.4098 -2.3194 -0.0246
 2823SOL    MW411060   2.621   1.771   1.132 -0.4147 -0.5883 -0.0388
 2824SOL     OW11061   1.979   3.752   5.645 -0.1809  0.5623  0.5749
 2824SOL    HW211062   2.032   3.827   5.672  0.6281  0.4160 -0.5195
 2824SOL    HW311063   2.027   3.676   5.678  0.0285  0.4484  0.0102
 2824SOL    MW411064   1.992   3.752   5.653 -0.0466  0.5280  0.3560
 2825SOL     OW11065   1.645   2.078   1.168  0.1175  0.0481  0.0144
 2825SOL    HW211066   1.596   2.061   1.088  0.2105 -2.2457  0.3812
 2825SOL    HW311067   1.583   2.122   1.226 -0.6596 -0.3608 -0.4932
 2825SOL    MW411068   1.631   2.081   1.166  0.0272 -0.3085 -0.0042
 2826SOL     OW11069   1.501   4.354   4.027  0.2803 -0.1596  0.0456
 2826SOL    HW211070   1.476   4.266   4.053  1.7689 -0.7724 -0.5035
 2826SOL    HW311071   1.568   4.342   3.959  2.7051  1.3210  1.9919
 2826SOL    MW411072   1.507   4.341   4.021  0.7966 -0.0451  0.2300
 2827SOL     OW11073   5.856   4.985   5.297  0.0905 -0.1909  0.1048
 2827SOL    HW211074   5.823   5.075   5.307 -1.2734 -0.6107 -0.3529
 2827SOL    HW311075   5.925   4.977   5.363  0.0383  1.1020  0.3402
 2827SOL    MW411076   5.861   4.996   5.307 -0.0963 -0.0757  0.0754
 2828SOL     OW11077   5.923   1.454   3.311 -0.3377  0.3000  0.2533
 2828SOL    HW211078   5.889   1.434   3.398  0.8338  0.9048  0.8811
 2828SOL    HW311079   5.861   1.517   3.275 -0.4643  0.5910  0.9490
 2828SOL    MW411080   5.911   1.460   3.318 -0.1998  0.4182  0.4279
 2829SOL     OW11081   0.156   5.718   1.694 -0.6238 -0.0818  0.0742
 2829SOL    HW211082   0.224   5.733   1.628  2.9269 -0.9547  3.1861
 2829SOL    HW311083   0.098   5.654   1.653  1.4660 -0.7375 -2.1777
 2829SOL    MW411084   0.158   5.712   1.680  0.1204 -0.2835  0.1877
 2830SOL     OW11085   4.733   0.125   4.053 -0.2047  0.2591  0.0472
 2830SOL    HW211086   4.763   0.069   3.981 -1.9622 -0.0260 -0.4924
 2830SOL    HW311087   4.769   0.084   4.132 -1.2091 -1.4907 -0.3638
 2830SOL    MW411088   4.742   0.113   4.054 -0.5691 -0.0094 -0.0782
 2831SOL     OW11089   1.587   3.781   0.303  0.2305 -0.4238 -0.1823
 2831SOL    HW211090   1.492   3.791   0.298  0.2820 -0.4389 -1.3513
 2831SOL    HW311091   1.618   3.865   0.336 -0.0168  0.4321 -2.0389
 2831SOL    MW411092   1.579   3.793   0.307  0.2046 -0.3129 -0.5815
 2832SOL     OW11093   0.448   4.931   1.383  0.0736  0.2587 -0.1461
 2832SOL    HW211094   0.411   4.998   1.327  2.9710  1.8715 -0.3410
 2832SOL    HW311095   0.405   4.943   1.468 -2.1192 -0.1881 -1.1369
 2832SOL    MW411096   0.437   4.941   1.387  0.1666  0.4125 -0.3025
 2833SOL     OW11097   3.443   4.213   3.815 -0.0148  0.3583  0.1195
 2833SOL    HW211098   3.402   4.128   3.834 -0.1486  0.4594  0.2918
 2833SOL    HW311099   3.475   4.243   3.900  0.3949  0.2944 -0.0101
 2833SOL    MW411100   3.442   4.205   3.829  0.0216  0.3632  0.1252
 2834SOL     OW11101   4.408   1.897   2.235  0.1083  0.7940 -0.4168
 2834SOL    HW211102   4.404   1.991   2.256  0.5284  1.0962 -1.6165
 2834SOL    HW311103   4.406   1.854   2.320  1.3020  1.9370  0.2338
 2834SOL    MW411104   4.407   1.904   2.249  0.3212  0.9847 -0.4893
 2835SOL     OW11105   3.474   5.788   0.475 -0.5008  0.7050 -0.0359
 2835SOL    HW211106   3.476   5.720   0.543  0.1436 -0.8853 -1.5952
 2835SOL    HW311107   3.401   5.763   0.419  0.6424  0.4557 -1.4489
 2835SOL    MW411108   3.464   5.776   0.477 -0.2650  0.4623 -0.4280
 2836SOL     OW11109   0.696   1.347   3.150 -0.0602  0.3434  0.7509
 2836SOL    HW211110   0.668   1.268   3.103  1.3206  1.0896 -1.5237
 2836SOL    HW311111   0.776   1.321   3.196 -1.3739 -0.3708  2.7546
 2836SOL    MW411112   0.703   1.333   3.150 -0.0513  0.3476  0.7152
 2837SOL     OW11113   1.764   3.604   5.884  0.1792  0.3937 -0.0184
 2837SOL    HW211114   1.733   3.688   5.850 -1.6668  0.0387  0.6609
 2837SOL    HW311115   1.814   3.627   5.963 -0.3877  0.8663  0.2114
 2837SOL    MW411116   1.766   3.618   5.890 -0.1391  0.4092  0.1015
 2838SOL     OW11117   5.323   3.817   4.731  0.0255 -0.0247  0.3458
 2838SOL    HW211118   5.356   3.905   4.750  1.9022 -0.6940  0.3714
 2838SOL    HW311119   5.270   3.794   4.807 -2.5072  1.9642 -0.6832
 2838SOL    MW411120   5.320   3.825   4.743 -0.0610  0.1494  0.2134
 2839SOL     OW11121   6.109   2.161   4.803  0.8088 -0.1419  0.4839
 2839SOL    HW211122   6.033   2.193   4.851 -0.2518 -0.6947 -0.7967
 2839SOL    HW311123   6.142   2.089   4.856 -0.6475 -1.0749  0.1644
 2839SOL    MW411124   6.104   2.156   4.816  0.4767 -0.3380  0.2728
 2840SOL     OW11125   1.118   5.706   4.030 -0.0234  0.6181 -0.3154
 2840SOL    HW211126   1.118   5.619   3.990  0.7444 -0.5680  2.0748
 2840SOL    HW311127   1.201   5.712   4.076 -0.8343  1.8544  1.1009
 2840SOL    MW411128   1.129   5.696   4.031 -0.0291  0.6247  0.1868
 2841SOL     OW11129   5.710   4.181   1.964 -0.2478 -0.3696 -0.1301
 2841SOL    HW211130   5.747   4.109   2.015  1.0919 -0.4506 -1.1566
 2841SOL    HW311131   5.635   4.211   2.015  0.8918 -0.5826  1.7779
 2841SOL    MW411132   5.705   4.176   1.977  0.0793 -0.4084 -0.0138
 2842SOL     OW11133   0.901   3.598   5.634  0.0735 -0.3117 -0.0465
 2842SOL    HW211134   0.961   3.536   5.592  0.7186 -0.5134  1.1427
 2842SOL    HW311135   0.881   3.559   5.719 -1.7978 -0.2652 -0.4159
 2842SOL    MW411136   0.906   3.585   5.640 -0.0883 -0.3322  0.0617
 2843SOL     OW11137   3.973   1.621   3.420  0.3237 -0.3627 -0.0278
 2843SOL    HW211138   3.928   1.594   3.501  0.9259 -1.5734 -0.0696
 2843SOL    HW311139   3.997   1.712   3.435  0.0149 -0.4335  0.9716
 2843SOL    MW411140   3.970   1.629   3.433  0.3624 -0.5318  0.0986
 2844SOL     OW11141   0.490   3.341   0.093 -0.2290 -0.5736  0.8635
 2844SOL    HW211142   0.511   3.286   0.018  0.2538 -0.0124  0.5784
 2844SOL    HW311143   0.414   3.299   0.134 -0.8274 -0.6000 -0.2389
 2844SOL    MW411144   0.482   3.328   0.089 -0.2442 -0.5030  0.6804
 2845SOL     OW11145   2.330   4.375   2.094 -0.0930  0.3486 -0.4176
 2845SOL    HW211146   2.325   4.281   2.079  1.1093  0.1930  0.0741
 2845SOL    HW311147   2.331   4.385   2.189  2.4569  0.6409 -0.4000
 2845SOL    MW411148   2.329   4.364   2.105  0.4020  0.3666 -0.3504
 2846SOL     OW11149   2.547   5.217   5.780 -0.1272  0.1711  0.2547
 2846SOL    HW211150   2.485   5.174   5.720  1.2431 -1.8969  0.2031
 2846SOL    HW311151   2.494   5.282   5.826 -1.6318  0.5940 -1.9082
 2846SOL    MW411152   2.532   5.220   5.778 -0.1449 -0.0459 -0.0375
 2847SOL     OW11153   0.941   3.287   0.868  0.2429  0.0241 -0.7844
 2847SOL    HW211154   1.020   3.272   0.920 -0.4122  1.0667  0.5699
 2847SOL    HW311155   0.869   3.267   0.928 -0.5470  1.7546 -1.0892
 2847SOL    MW411156   0.942   3.282   0.882  0.0523  0.3899 -0.6459
 2848SOL     OW11157   3.465   0.565   2.828 -0.1294 -0.5037  0.8732
 2848SOL    HW211158   3.385   0.559   2.881 -0.5310 -2.2531  0.1444
 2848SOL    HW311159   3.464   0.485   2.774  0.8164  0.6650 -0.9790
 2848SOL    MW411160   3.454   0.553   2.828 -0.0576 -0.5804  0.5327
 2849SOL     OW11161   1.816   4.184   2.114 -0.6153  0.5576  0.6177
 2849SOL    HW211162   1.750   4.247   2.141 -1.5468  0.6104 -1.6229
 2849SOL    HW311163   1.767   4.104   2.097 -0.3476  0.8770 -2.0578
 2849SOL    MW411164   1.801   4.182   2.116 -0.7029  0.6067 -0.0309
 2850SOL     OW11165   5.537   4.652   1.908  0.0325 -0.4977 -0.3222
 2850SOL    HW211166   5.550   4.587   1.839 -0.0655  0.9778 -1.7891
 2850SOL    HW311167   5.614   4.709   1.902  0.2956 -0.6542  1.1749
 2850SOL    MW411168   5.549   4.651   1.898  0.0543 -0.3237 -0.3182
 2851SOL     OW11169   3.538   4.494   0.115  0.4715  0.0611  0.1535
 2851SOL    HW211170   3.483   4.415   0.114 -1.7612  1.5158 -0.0526
 2851SOL    HW311171   3.509   4.542   0.193 -1.4729  2.7113 -2.0137
 2851SOL    MW411172   3.527   4.490   0.125 -0.0796  0.6027 -0.1597
 2852SOL     OW11173   3.869   2.075   3.356  0.4991 -0.1971  0.3772
 2852SOL    HW211174   3.791   2.025   3.331  0.0331  0.7842 -0.1797
 2852SOL    HW311175   3.839   2.132   3.427  0.7065  0.1744  0.1708
 2852SOL    MW411176   3.855   2.076   3.362  0.4650 -0.0186  0.2765
 2853SOL     OW11177   3.882   5.084   4.276  0.4079 -0.3187 -0.0645
 2853SOL    HW211178   3.966   5.103   4.316  0.7402 -1.2479 -0.2925
 2853SOL    HW311179   3.822   5.075   4.351  0.7758 -0.8788  0.1729
 2853SOL    MW411180   3.885   5.085   4.291  0.5003 -0.5152 -0.0633
 2854SOL     OW11181   0.615   3.904   1.986  0.3283  0.0627 -0.1345
 2854SOL    HW211182   0.600   3.980   1.930  1.3285 -0.3267 -0.9569
 2854SOL    HW311183   0.554   3.915   2.058  0.6205  1.7741 -0.1138
 2854SOL    MW411184   0.605   3.915   1.988  0.4988  0.2371 -0.2403
 2855SOL     OW11185   1.347   2.344   1.913  0.1494 -0.2726  0.0574
 2855SOL    HW211186   1.327   2.251   1.903 -0.2916 -0.0357 -1.5050
 2855SOL    HW311187   1.443   2.348   1.914  0.2083 -0.6314 -1.4847
 2855SOL    MW411188   1.357   2.332   1.912  0.0990 -0.2887 -0.3522
 2856SOL     OW11189   4.527   3.458   2.480 -0.2371 -0.2207 -0.0594
 2856SOL    HW211190   4.507   3.551   2.489 -1.1456 -0.4263  0.0635
 2856SOL    HW311191   4.442   3.414   2.480  0.2031 -1.1008  0.4160
 2856SOL    MW411192   4.513   3.464   2.481 -0.2989 -0.3639  0.0195
 2857SOL     OW11193   5.566   0.619   1.334  0.2488 -0.3674 -0.3120
 2857SOL    HW211194   5.603   0.536   1.361 -0.4401 -0.4955  0.2904
 2857SOL    HW311195   5.637   0.683   1.345  0.2126 -0.5500  1.1022
 2857SOL    MW411196   5.580   0.617   1.339  0.1531 -0.4084 -0.0459
 2858SOL     OW11197   0.307   0.657   5.107 -0.1432 -0.3643  0.1545
 2858SOL    HW211198   0.310   0.737   5.055 -2.7964 -0.6071 -0.4907
 2858SOL    HW311199   0.378   0.603   5.071 -0.9843  0.0419 -2.2819
 2858SOL    MW411200   0.317   0.660   5.095 -0.6042 -0.3427 -0.2521
 2859SOL     OW11201   4.542   0.814   4.116 -0.6370 -0.4430  0.0873
 2859SOL    HW211202   4.516   0.839   4.205 -1.3267 -0.1352 -0.1888
 2859SOL    HW311203   4.511   0.887   4.062  1.3913  0.2631 -0.2055
 2859SOL    MW411204   4.535   0.827   4.121 -0.4604 -0.3092  0.0123
 2860SOL     OW11205   5.436   2.877   0.137 -0.0203 -0.2097 -0.1905
 2860SOL    HW211206   5.484   2.907   0.060  0.3037  1.0662  0.4817
 2860SOL    HW311207   5.351   2.921   0.131 -0.6101 -1.3743 -0.6472
 2860SOL    MW411208   5.431   2.887   0.126 -0.0554 -0.1950 -0.1621
 2861SOL     OW11209   1.864   0.458   1.895  0.3433 -0.5816 -0.6134
 2861SOL    HW211210   1.960   0.464   1.893  0.4106 -1.5160 -0.3578
 2861SOL    HW311211   1.835   0.525   1.833  1.1615 -0.3259 -0.7308
 2861SOL    MW411212   1.873   0.468   1.886  0.4601 -0.6711 -0.5952
 2862SOL     OW11213   4.832   1.888   2.828 -0.6381 -0.3842  0.2335
 2862SOL    HW211214   4.815   1.932   2.911  1.0750  1.1057 -0.1583
 2862SOL    HW311215   4.927   1.892   2.817 -0.8192 -0.5267 -1.8082
 2862SOL    MW411216   4.842   1.894   2.838 -0.4360 -0.2064 -0.0875
 2863SOL     OW11217   4.277   4.238   2.493  0.1364 -0.2598  0.1163
 2863SOL    HW211218   4.232   4.229   2.577  1.2901  0.5288  0.8677
 2863SOL    HW311219   4.239   4.317   2.454 -1.8225 -1.7222 -1.0851
 2863SOL    MW411220   4.266   4.247   2.499  0.0302 -0.3487  0.0569
 2864SOL     OW11221   4.477   3.689   3.505  0.5171 -0.0219 -0.2983
 2864SOL    HW211222   4.468   3.635   3.583  0.1858  0.9875  0.3654
 2864SOL    HW311223   4.436   3.772   3.527 -1.1149 -0.2781 -2.1292
 2864SOL    MW411224   4.471   3.693   3.518  0.2581  0.0775 -0.4523
 2865SOL     OW11225   1.252   5.843   0.643 -0.4018 -0.2872  0.3052
 2865SOL    HW211226   1.199   5.852   0.722  0.6496  0.1648  0.9806
 2865SOL    HW311227   1.265   5.749   0.633  1.5147 -0.2873  2.1240
 2865SOL    MW411228   1.247   5.832   0.652 -0.0102 -0.2276  0.6343
 2866SOL     OW11229   1.067   1.551   0.157  0.2179 -0.0788  0.4090
 2866SOL    HW211230   1.084   1.645   0.166 -2.3875  0.3551  1.5288
 2866SOL    HW311231   1.074   1.535   0.063  1.2106  1.1070  0.2475
 2866SOL    MW411232   1.070   1.562   0.145  0.0052  0.1349  0.5354
 2867SOL     OW11233   1.385   5.127   5.532 -0.1252 -0.1566  0.2828
 2867SOL    HW211234   1.363   5.123   5.439 -1.0097  1.8170  0.3625
 2867SOL    HW311235   1.312   5.084   5.576 -0.5919  0.4728  0.1450
 2867SOL    MW411236   1.373   5.121   5.526 -0.3035  0.1868  0.2751
 2868SOL     OW11237   2.820   0.324   5.647  0.2262  0.3681 -0.0194
 2868SOL    HW211238   2.725   0.307   5.645  0.0822  1.0114  0.7996
 2868SOL    HW311239   2.827   0.416   5.674  1.1029  0.1550  0.5049
 2868SOL    MW411240   2.808   0.334   5.650  0.3229  0.4248  0.1578
 2869SOL     OW11241   1.852   3.391   6.240  0.0571  0.0206 -0.2617
 2869SOL    HW211242   1.923   3.329   6.256  0.6680  0.4429 -1.2441
 2869SOL    HW311243   1.850   3.446   6.318  2.4414  1.5434 -1.1600
 2869SOL    MW411244   1.861   3.390   6.252  0.4523  0.2772 -0.5098
 2870SOL     OW11245   3.438   3.897   3.603 -0.4733 -0.1880  0.2242
 2870SOL    HW211246   3.491   3.960   3.555 -0.1869  0.0744  0.8773
 2870SOL    HW311247   3.491   3.817   3.603 -0.1168  0.0429  0.7840
 2870SOL    MW411248   3.452   3.895   3.597 -0.3885 -0.1229  0.3842
 2871SOL     OW11249   4.645   2.567   2.940  0.6855 -0.0914  0.1641
 2871SOL    HW211250   4.631   2.473   2.952 -2.4234  0.1487 -0.6291
 2871SOL    HW311251   4.644   2.579   2.845  2.5001  0.6271  0.2003
 2871SOL    MW411252   4.643   2.556   2.929  0.5147  0.0351  0.0642
 2872SOL     OW11253   1.096   4.962   1.724  0.1576 -0.4957  0.3630
 2872SOL    HW211254   1.011   4.981   1.685 -0.2002  2.0458  2.1051
 2872SOL    HW311255   1.154   5.031   1.691  0.5865 -0.0791  1.9011
 2872SOL    MW411256   1.093   4.973   1.715  0.1670 -0.1054  0.7958
 2873SOL     OW11257   5.972   4.670   1.843  0.1293 -0.4398 -0.2678
 2873SOL    HW211258   6.008   4.707   1.762 -0.1541 -0.7611 -0.5508
 2873SOL    HW311259   5.982   4.575   1.832 -1.7636 -0.6300 -0.8534
 2873SOL    MW411260   5.978   4.662   1.831 -0.1578 -0.5073 -0.3824
 2874SOL     OW11261   5.553   0.109   1.793 -0.5483  0.1486  0.2606
 2874SOL    HW211262   5.465   0.100   1.830 -1.5070 -0.2915 -2.0015
 2874SOL    HW311263   5.582   0.196   1.822 -2.1086  0.7039  0.2582
 2874SOL    MW411264   5.546   0.119   1.802 -0.8807  0.1638 -0.0381
 2875SOL     OW11265   1.891   1.300   3.833 -0.5338 -0.0240  0.3102
 2875SOL    HW211266   1.841   1.340   3.904  0.1941  0.1390  0.7388
 2875SOL    HW311267   1.832   1.234   3.797 -1.3783  0.7616  0.2311
 2875SOL    MW411268   1.877   1.296   3.838 -0.5492  0.1011  0.3563
 2876SOL     OW11269   2.267   5.321   3.727 -0.0688 -0.7666  0.4871
 2876SOL    HW211270   2.280   5.313   3.633  0.0787  0.5494  0.3734
 2876SOL    HW311271   2.278   5.233   3.761  0.8964 -1.0831 -0.6064
 2876SOL    MW411272   2.270   5.309   3.719  0.0780 -0.6347  0.3278
 2877SOL     OW11273   3.848   2.763   1.065  0.3420  0.0675  0.0410
 2877SOL    HW211274   3.875   2.819   1.138 -1.0778  1.2518 -0.2827
 2877SOL    HW311275   3.871   2.814   0.987  1.0236 -0.7911 -0.3354
 2877SOL    MW411276   3.854   2.777   1.064  0.2446  0.1105 -0.0514
 2878SOL     OW11277   4.678   1.399   1.411 -0.5163  0.2255  0.0595
 2878SOL    HW211278   4.620   1.372   1.482  0.5730 -1.0568  0.4957
 2878SOL    HW311279   4.718   1.480   1.442 -0.6133  0.0722  0.5954
 2878SOL    MW411280   4.675   1.406   1.424 -0.3854  0.0361  0.1877
 2879SOL     OW11281   4.402   5.797   1.569  0.0552 -0.3310 -0.3165
 2879SOL    HW211282   4.451   5.738   1.511 -1.4420 -0.5589 -1.4133
 2879SOL    HW311283   4.323   5.818   1.520 -1.3309 -0.5844  1.6809
 2879SOL    MW411284   4.398   5.792   1.555 -0.3253 -0.3945 -0.1977
 2880SOL     OW11285   3.571   6.312   2.053  0.8593 -0.1462 -0.5102
 2880SOL    HW211286   3.477   6.316   2.071  0.8751 -0.2681 -0.3970
 2880SOL    HW311287   3.579   6.261   1.973  0.9935 -2.5029  0.9231
 2880SOL    MW411288   3.560   6.306   2.045  0.8791 -0.4732 -0.3061
 2881SOL     OW11289   6.012   5.204   1.669 -0.3556  0.0428 -0.1118
 2881SOL    HW211290   6.025   5.250   1.585  1.9577  0.1669  0.2554
 2881SOL    HW311291   5.941   5.252   1.711  0.9574  2.4362 -0.4008
 2881SOL    MW411292   6.004   5.217   1.663  0.1228  0.3749 -0.1015
 2882SOL     OW11293   0.246   4.520   1.207  0.3217  0.0035  0.4713
 2882SOL    HW211294   0.305   4.445   1.204 -1.3074 -1.3219 -0.4828
 2882SOL    HW311295   0.257   4.556   1.295  1.8234 -0.7575  0.6255
 2882SOL    MW411296   0.255   4.515   1.218  0.3049 -0.2718  0.3658
 2883SOL     OW11297   1.951   2.338   2.872  0.1489 -0.0788  0.0958
 2883SOL    HW211298   1.869   2.383   2.890 -0.0198 -0.1194 -0.5305
 2883SOL    HW311299   1.991   2.324   2.958 -1.9962 -2.9719  0.7804
 2883SOL    MW411300   1.946   2.342   2.885 -0.1564 -0.4658  0.1035
 2884SOL     OW11301   6.090   3.449   4.927 -0.1535 -0.1188 -0.5181
 2884SOL    HW211302   6.054   3.491   5.005  1.0152 -0.1044  0.0314
 2884SOL    HW311303   6.022   3.461   4.860  0.1991  2.8896 -0.4807
 2884SOL    MW411304   6.076   3.456   4.928  0.0472  0.2800 -0.4407
 2885SOL     OW11305   4.862   5.205   3.473 -0.4247  0.6475  0.5756
 2885SOL    HW211306   4.829   5.139   3.535 -0.7416  0.1441 -0.1175
 2885SOL    HW311307   4.949   5.227   3.507  0.9477 -2.2563 -0.7177
 2885SOL    MW411308   4.869   5.199   3.486 -0.2854  0.1980  0.3135
 2886SOL     OW11309   0.615   2.102   3.388 -0.0363 -0.0791  0.6994
 2886SOL    HW211310   0.539   2.158   3.405 -0.7483 -0.7958 -0.0394
 2886SOL    HW311311   0.615   2.038   3.459 -0.2605 -0.2183  0.5745
 2886SOL    MW411312   0.605   2.101   3.399 -0.1599 -0.1920  0.5854
 2887SOL     OW11313   3.024   4.032   0.769 -0.7283 -0.2204 -0.0163
 2887SOL    HW211314   3.057   3.942   0.764 -1.0797 -0.3053 -1.1435
 2887SOL    HW311315   2.967   4.033   0.846  0.7176 -0.4517  1.1032
 2887SOL    MW411316   3.021   4.020   0.779 -0.5839 -0.2622 -0.0173
 2888SOL     OW11317   2.550   5.850   4.843  0.3970  0.1142  0.0149
 2888SOL    HW211318   2.543   5.770   4.791  0.3630 -0.5780  1.0546
 2888SOL    HW311319   2.608   5.906   4.792 -1.6075  0.5042 -2.0239
 2888SOL    MW411320   2.557   5.846   4.829  0.1280  0.0744 -0.1169
 2889SOL     OW11321   6.324   2.043   3.658  0.1669 -0.0324  0.0310
 2889SOL    HW211322   6.294   2.013   3.573  0.3420 -0.5485  0.1503
 2889SOL    HW311323   6.374   2.123   3.639  1.3214 -0.8570 -0.4957
 2889SOL    MW411324   6.327   2.050   3.644  0.3423 -0.2093 -0.0228
 2890SOL     OW11325   5.318   0.734   0.130 -0.5409  0.3479  0.2297
 2890SOL    HW211326   5.308   0.652   0.082 -1.2987  0.1047  0.7882
 2890SOL    HW311327   5.389   0.717   0.192  0.0727  0.4888 -0.4227
 2890SOL    MW411328   5.326   0.721   0.132 -0.5599  0.3344  0.2173
 2891SOL     OW11329   2.770   4.813   5.025  0.1915 -0.9172 -0.5003
 2891SOL    HW211330   2.844   4.765   5.064 -0.2400 -0.8719  0.3951
 2891SOL    HW311331   2.808   4.857   4.949  1.9535  1.8667  1.7716
 2891SOL    MW411332   2.785   4.813   5.020  0.3671 -0.5439 -0.0824
 2892SOL     OW11333   3.938   3.976   5.249  0.2036 -0.1759  0.3735
 2892SOL    HW211334   3.997   3.909   5.282  0.5693  0.0393  0.1668
 2892SOL    HW311335   3.948   3.973   5.154  1.0551  0.8983  0.4057
 2892SOL    MW411336   3.947   3.967   5.241  0.3642 -0.0058  0.3505
 2893SOL     OW11337   1.661   0.377   5.037 -0.0639 -0.6171  0.2594
 2893SOL    HW211338   1.721   0.391   4.964  0.8781 -2.3842  0.6240
 2893SOL    HW311339   1.580   0.345   4.997 -0.4422  0.8080 -0.1607
 2893SOL    MW411340   1.658   0.374   5.022  0.0105 -0.6622  0.2521
 2894SOL     OW11341   5.346   0.659   1.492 -0.6182  0.0657  0.4249
 2894SOL    HW211342   5.343   0.598   1.566 -0.8925  0.1714  0.5044
 2894SOL    HW311343   5.428   0.639   1.447 -1.0485 -0.8466  0.0247
 2894SOL    MW411344   5.356   0.648   1.496 -0.7112 -0.0407  0.3826
 2895SOL     OW11345   3.191   5.041   6.415  0.1718  0.5887  0.0764
 2895SOL    HW211346   3.117   5.068   6.361  1.1780  1.0691 -1.1463
 2895SOL    HW311347   3.185   4.945   6.419 -0.0901  0.5681 -0.6754
 2895SOL    MW411348   3.181   5.032   6.408  0.2700  0.6493 -0.1842
 2896SOL     OW11349   5.321   0.605   1.782  0.1549 -0.2379  0.0349
 2896SOL    HW211350   5.251   0.654   1.824 -0.2290 -1.0099  0.3289
 2896SOL    HW311351   5.392   0.606   1.847  0.3332  0.3391 -0.1640
 2896SOL    MW411352   5.321   0.611   1.796  0.1278 -0.2636  0.0475
 2897SOL     OW11353   4.872   1.254   0.834 -0.3913 -0.1427  0.7430
 2897SOL    HW211354   4.801   1.191   0.842 -0.9324  0.3741  0.0873
 2897SOL    HW311355   4.952   1.202   0.844 -0.8239 -0.9773 -0.0022
 2897SOL    MW411356   4.873   1.239   0.836 -0.5198 -0.1846  0.5582
 2898SOL     OW11357   4.221   4.232   5.484  0.3192 -0.3711 -0.6394
 2898SOL    HW211358   4.214   4.212   5.577  1.7495 -1.7500 -0.7741
 2898SOL    HW311359   4.211   4.327   5.479  1.0145 -0.1701  1.0186
 2898SOL    MW411360   4.219   4.242   5.496  0.5997 -0.5265 -0.4384
 2899SOL     OW11361   0.160   1.213   3.996 -0.0740  0.0370  0.0368
 2899SOL    HW211362   0.149   1.130   3.949 -0.3666  0.0799  0.0305
 2899SOL    HW311363   0.150   1.280   3.928  1.7632  0.0486 -0.2817
 2899SOL    MW411364   0.157   1.211   3.981  0.1298  0.0442 -0.0060
 2900SOL     OW11365   3.428   3.210   3.941 -0.3356  0.2618  0.1779
 2900SOL    HW211366   3.389   3.187   3.857  1.4330 -0.8121 -0.3991
 2900SOL    HW311367   3.442   3.126   3.985  0.9880  0.6276  0.4903
 2900SOL    MW411368   3.425   3.196   3.936  0.0723  0.1684  0.1430
 2901SOL     OW11369   3.767   2.798   6.003 -0.0217 -0.3990  0.0645
 2901SOL    HW211370   3.680   2.815   6.039 -0.2272 -0.9710 -0.1495
 2901SOL    HW311371   3.767   2.704   5.984  0.9066 -0.5528  0.7694
 2901SOL    MW411372   3.755   2.788   6.005  0.0737 -0.4948  0.1293
 2902SOL     OW11373   3.309   4.010   0.084  0.0711 -0.0556 -0.0267
 2902SOL    HW211374   3.374   4.003   0.154  0.2038 -1.1069 -0.2373
 2902SOL    HW311375   3.239   3.950   0.112 -0.9368  1.2456  0.3258
 2902SOL    MW411376   3.308   4.001   0.097 -0.0444 -0.0226 -0.0079
 2903SOL     OW11377   2.140   4.264   5.962 -0.0146 -0.4027 -0.6745
 2903SOL    HW211378   2.126   4.252   6.056  1.1518 -1.2059 -0.5880
 2903SOL    HW311379   2.135   4.359   5.949  0.7267 -0.2062  0.3608
 2903SOL    MW411380   2.138   4.275   5.973  0.2371 -0.4828 -0.5265
 2904SOL     OW11381   5.746   2.869   2.527 -0.2410  0.2431  0.2217
 2904SOL    HW211382   5.825   2.917   2.499 -0.7886  0.5342 -0.9032
 2904SOL    HW311383   5.696   2.934   2.576 -1.0625  0.9503 -1.4453
 2904SOL    MW411384   5.750   2.884   2.530 -0.4216  0.3748 -0.1467
 2905SOL     OW11385   4.717   1.787   2.193  0.3540 -0.1289  0.6161
 2905SOL    HW211386   4.666   1.737   2.129 -0.5733  0.4407  0.8868
 2905SOL    HW311387   4.784   1.832   2.141 -0.3421  0.2619  0.0477
 2905SOL    MW411388   4.719   1.786   2.178  0.1398 -0.0022  0.5768
 2906SOL     OW11389   5.398   3.378   1.189 -0.3867  0.2130  0.6084
 2906SOL    HW211390   5.341   3.324   1.243  0.4406 -1.9656 -0.5598
 2906SOL    HW311391   5.468   3.405   1.248 -0.5830 -0.4136  1.1395
 2906SOL    MW411392   5.400   3.374   1.204 -0.3034 -0.1571  0.5243
 2907SOL     OW11393   4.880   2.335   2.932 -0.0997 -0.1353 -0.7198
 2907SOL    HW211394   4.815   2.376   2.874 -0.9168 -1.2176 -0.5850
 2907SOL    HW311395   4.860   2.370   3.019 -0.1764 -0.0905 -0.7549
 2907SOL    MW411396   4.868   2.345   2.935 -0.2176 -0.2722 -0.7066
 2908SOL     OW11397   0.400   3.952   2.170 -0.3094  0.4003  0.4945
 2908SOL    HW211398   0.364   4.025   2.221 -3.3264 -0.9928  0.6152
 2908SOL    HW311399   0.417   3.884   2.235 -3.2027 -1.0184 -0.0639
 2908SOL    MW411400   0.397   3.952   2.186 -1.0892  0.0293  0.4367
 2909SOL     OW11401   2.591   1.552   1.721 -0.1076 -0.3438 -0.0965
 2909SOL    HW211402   2.672   1.601   1.716 -1.0396  1.1459 -1.7755
 2909SOL    HW311403   2.527   1.615   1.755 -0.8513 -1.0755 -0.1047
 2909SOL    MW411404   2.593   1.567   1.725 -0.3287 -0.2438 -0.3191
 2910SOL     OW11405   5.020   0.781   5.554 -0.2638 -0.7871  0.7650
 2910SOL    HW211406   5.086   0.828   5.503 -0.5609 -1.7341 -0.5589
 2910SOL    HW311407   4.975   0.849   5.604 -0.6667  0.3588 -1.0596
 2910SOL    MW411408   5.023   0.796   5.554 -0.3561 -0.7609  0.3496
 2911SOL     OW11409   3.536   6.119   1.838  0.3535  0.3283 -0.4892
 2911SOL    HW211410   3.467   6.141   1.775 -0.6762 -1.5140 -0.0958
 2911SOL    HW311411   3.530   6.024   1.847  1.2470  0.4137  1.5190
 2911SOL    MW411412   3.526   6.109   1.831  0.3355  0.0965 -0.1724
 2912SOL     OW11413   1.738   1.551   5.727  0.0252 -0.2066 -0.3090
 2912SOL    HW211414   1.776   1.469   5.760 -0.3500 -0.2123  0.1204
 2912SOL    HW311415   1.769   1.557   5.637 -1.3510 -1.7127 -0.9403
 2912SOL    MW411416   1.747   1.541   5.719 -0.2059 -0.4061 -0.3356
 2913SOL     OW11417   0.927   3.808   0.698 -0.1218 -0.3177 -0.0603
 2913SOL    HW211418   0.962   3.724   0.727 -0.2176 -0.1882  0.4369
 2913SOL    HW311419   0.868   3.835   0.768 -0.1176  0.1501 -0.2349
 2913SOL    MW411420   0.924   3.800   0.711 -0.1339 -0.2389 -0.0178
 2914SOL     OW11421   1.288   5.306   4.190 -0.0481 -0.2135 -0.0361
 2914SOL    HW211422   1.210   5.299   4.135 -0.2586  3.2632 -0.4196
 2914SOL    HW311423   1.259   5.353   4.267  1.4611  0.2422  0.2851
 2914SOL    MW411424   1.274   5.311   4.193  0.1232  0.3053 -0.0443
 2915SOL     OW11425   5.504   5.638   3.075 -0.1482  0.1329  0.1852
 2915SOL    HW211426   5.582   5.596   3.110 -0.8375 -1.1238  0.2527
 2915SOL    HW311427   5.512   5.628   2.980  1.4373  3.0419 -0.1249
 2915SOL    MW411428   5.515   5.631   3.067 -0.0300  0.3509  0.1532
 2916SOL     OW11429   0.401   4.639   2.080 -0.0416 -0.3932  0.2726
 2916SOL    HW211430   0.355   4.712   2.039  1.3513  0.8517  0.8172
 2916SOL    HW311431   0.462   4.608   2.012  0.4037 -0.0692  0.5201
 2916SOL    MW411432   0.403   4.644   2.065  0.2009 -0.1862  0.3771
 2917SOL     OW11433   3.141   2.132   4.698 -0.1748  0.6709 -0.5020
 2917SOL    HW211434   3.132   2.223   4.669  0.5386  0.2916 -2.0052
 2917SOL    HW311435   3.221   2.130   4.750  0.0658  0.8210 -0.8636
 2917SOL    MW411436   3.150   2.143   4.701 -0.0490  0.6407 -0.7480
 2918SOL     OW11437   1.538   2.734   5.325 -0.4009  0.0725  0.3877
 2918SOL    HW211438   1.448   2.706   5.309 -0.6436  1.1048 -0.0850
 2918SOL    HW311439   1.543   2.823   5.291  1.1244 -0.3783 -0.6986
 2918SOL    MW411440   1.527   2.742   5.319 -0.2316  0.1492  0.1820
 2919SOL     OW11441   4.028   4.259   2.121  0.7652 -0.1894 -0.0050
 2919SOL    HW211442   4.025   4.164   2.133 -0.6032 -0.1729 -0.0331
 2919SOL    HW311443   4.117   4.277   2.092  1.4416 -1.3074  1.2485
 2919SOL    MW411444   4.039   4.249   2.119  0.6739 -0.3347  0.1567
 2920SOL     OW11445   2.790   0.608   4.622 -0.1207  0.4360 -0.3118
 2920SOL    HW211446   2.809   0.633   4.712 -0.2797 -0.7025  0.0531
 2920SOL    HW311447   2.772   0.514   4.626  1.2329  0.0596 -1.7219
 2920SOL    MW411448   2.790   0.599   4.634  0.0369  0.2361 -0.4497
 2921SOL     OW11449   1.956   3.875   1.276  0.1341 -0.2685 -0.6024
 2921SOL    HW211450   1.881   3.833   1.234 -1.3644  0.3538  1.3078
 2921SOL    HW311451   1.984   3.812   1.343  0.6248 -0.0335 -0.5814
 2921SOL    MW411452   1.950   3.861   1.279  0.0012 -0.1554 -0.3476
 2922SOL     OW11453   6.362   4.324   4.521 -0.4307 -0.0199  0.1017
 2922SOL    HW211454   6.328   4.409   4.496 -2.1505 -0.5593  0.5221
 2922SOL    HW311455   6.406   4.292   4.442 -0.5026  0.8799 -0.3172
 2922SOL    MW411456   6.364   4.331   4.507 -0.6671  0.0276  0.1019
 2923SOL     OW11457   1.624   1.870   5.259 -0.3266 -0.0162  0.0544
 2923SOL    HW211458   1.586   1.958   5.263 -1.3970 -0.4236 -0.7775
 2923SOL    HW311459   1.626   1.841   5.350  0.5366  1.0567  0.4025
 2923SOL    MW411460   1.619   1.878   5.272 -0.3539  0.0716 -0.0094
 2924SOL     OW11461   3.606   1.427   2.055  0.5139  0.0390  0.2161
 2924SOL    HW211462   3.568   1.470   1.979 -1.6286  0.1321  1.2593
 2924SOL    HW311463   3.617   1.497   2.119 -0.6529 -0.5078  1.0519
 2924SOL    MW411464   3.603   1.442   2.054  0.0773 -0.0209  0.4640
 2925SOL     OW11465   5.120   6.409   5.184 -0.0210 -0.3161  0.0352
 2925SOL    HW211466   5.139   6.388   5.093  0.3781  0.4360 -0.0642
 2925SOL    HW311467   5.025   6.399   5.192 -0.0692 -0.2725 -0.4930
 2925SOL    MW411468   5.110   6.405   5.173  0.0253 -0.2111 -0.0476
 2926SOL     OW11469   4.544   4.950   0.104 -0.1365 -0.1128 -0.2871
 2926SOL    HW211470   4.480   4.952   0.033  0.3357  0.5699 -0.7026
 2926SOL    HW311471   4.614   5.009   0.076 -1.0421  2.1095  1.7763
 2926SOL    MW411472   4.545   4.958   0.091 -0.1937  0.2705 -0.0697
 2927SOL     OW11473   1.422   4.707   5.116 -0.3333  0.4520 -0.3153
 2927SOL    HW211474   1.420   4.688   5.022  0.5066  1.0905 -0.4799
 2927SOL    HW311475   1.496   4.655   5.149 -0.2377  0.7077 -0.1249
 2927SOL    MW411476   1.432   4.697   5.108 -0.2098  0.5699 -0.3119
 2928SOL     OW11477   6.064   0.456   4.852  0.4163 -0.0844  0.0315
 2928SOL    HW211478   6.152   0.489   4.833 -0.2739  0.6866 -2.2069
 2928SOL    HW311479   6.067   0.364   4.826  0.7357 -0.2602  0.6605
 2928SOL    MW411480   6.076   0.448   4.846  0.3674 -0.0059 -0.1808
 2929SOL     OW11481   0.654   0.681   2.880  0.0823 -0.6464  0.1879
 2929SOL    HW211482   0.707   0.612   2.919  1.1253  0.0282 -0.0064
 2929SOL    HW311483   0.712   0.756   2.874 -1.3282  0.5816  1.3187
 2929SOL    MW411484   0.669   0.682   2.884  0.0338 -0.3953  0.3115
 2930SOL     OW11485   1.672   2.300   1.508  0.2205  0.2995  0.7758
 2930SOL    HW211486   1.635   2.223   1.551  0.5649  0.1393  0.7829
 2930SOL    HW311487   1.758   2.272   1.477 -0.7276 -0.1675 -1.6669
 2930SOL    MW411488   1.678   2.286   1.510  0.1408  0.2167  0.4545
 2931SOL     OW11489   0.313   2.708   1.419 -0.2596  0.0487  0.7806
 2931SOL    HW211490   0.329   2.793   1.460 -1.0483 -0.3447  1.9455
 2931SOL    HW311491   0.233   2.676   1.461 -0.8289 -0.6010 -0.7279
 2931SOL    MW411492   0.305   2.715   1.430 -0.4388 -0.0890  0.7353
 2932SOL     OW11493   5.303   4.995   0.687  0.1253 -0.0367  0.3787
 2932SOL    HW211494   5.318   5.087   0.663 -0.9471 -0.3422 -1.6768
 2932SOL    HW311495   5.217   4.974   0.650  0.3221 -1.8628  0.8544
 2932SOL    MW411496   5.294   5.005   0.679  0.0098 -0.3179  0.1702
 2933SOL     OW11497   2.159   1.225   0.556 -0.3382  0.5235 -0.1409
 2933SOL    HW211498   2.214   1.294   0.518 -0.6785  1.1277  0.4498
 2933SOL    HW311499   2.202   1.143   0.529  1.7969  0.9679  1.5722
 2933SOL    MW411500   2.172   1.223   0.548 -0.1014  0.6619  0.1630
 2934SOL     OW11501   6.135   1.787   3.841  0.6029 -0.4877  0.2319
 2934SOL    HW211502   6.113   1.880   3.838 -0.6917 -0.7738  0.0593
 2934SOL    HW311503   6.141   1.761   3.749 -0.5390 -0.8749  0.2428
 2934SOL    MW411504   6.133   1.796   3.829  0.2814 -0.5766  0.2105
 2935SOL     OW11505   1.198   4.821   4.879 -0.2253 -0.6645  0.1156
 2935SOL    HW211506   1.217   4.838   4.971 -3.3128  0.9083  0.5839
 2935SOL    HW311507   1.252   4.885   4.832 -0.5779  0.3513  1.0346
 2935SOL    MW411508   1.208   4.832   4.885 -0.6792 -0.3230  0.2986
 2936SOL     OW11509   0.312   1.364   6.040 -0.1175 -0.0808 -0.1047
 2936SOL    HW211510   0.226   1.389   6.008 -0.7973  0.1097  1.7709
 2936SOL    HW311511   0.307   1.269   6.051 -0.6334  0.1155  1.4847
 2936SOL    MW411512   0.300   1.354   6.037 -0.2753 -0.0298  0.3525
 2937SOL     OW11513   0.414   5.280   5.927  0.3473  0.6226 -0.5368
 2937SOL    HW211514   0.359   5.257   5.852 -2.0028  0.0139  1.2276
 2937SOL    HW311515   0.498   5.238   5.909 -1.0587 -2.0182 -1.5101
 2937SOL    MW411516   0.418   5.271   5.915 -0.1483  0.1938 -0.4324
 2938SOL     OW11517   4.315   6.020   5.522  0.3039 -0.0560 -0.0735
 2938SOL    HW211518   4.373   5.949   5.550  1.8810  1.2980  0.2080
 2938SOL    HW311519   4.255   6.032   5.596 -0.1960 -1.2677 -0.2513
 2938SOL    MW411520   4.315   6.012   5.536  0.4460 -0.0372 -0.0598
 2939SOL     OW11521   0.394   3.828   1.407  0.0712  0.0324 -0.6385
 2939SOL    HW211522   0.300   3.837   1.422 -0.3327 -1.1422 -2.2641
 2939SOL    HW311523   0.428   3.796   1.491 -1.1672 -0.6926 -0.3887
 2939SOL    MW411524   0.386   3.825   1.420 -0.1455 -0.2182 -0.8200
 2940SOL     OW11525   2.138   2.294   5.170  0.5851 -0.2495 -0.1973
 2940SOL    HW211526   2.117   2.219   5.114  0.2937 -0.7752  0.6012
 2940SOL    HW311527   2.056   2.343   5.177  0.8508  0.3328 -0.9717
 2940SOL    MW411528   2.124   2.290   5.163  0.5817 -0.2420 -0.1942
 2941SOL     OW11529   3.491   0.082   4.246 -0.4164  0.1352 -0.1983
 2941SOL    HW211530   3.431   0.060   4.318  0.1449  0.0705  0.2492
 2941SOL    HW311531   3.445   0.150   4.197 -1.4558 -0.8524 -0.6507
 2941SOL    MW411532   3.477   0.088   4.249 -0.4795 -0.0037 -0.1990
 2942SOL     OW11533   4.710   6.390   1.655 -0.0260  0.1930 -0.6088
 2942SOL    HW211534   4.664   6.407   1.736  1.5010  2.1213 -0.0759
 2942SOL    HW311535   4.737   6.298   1.661 -1.8427 -0.3316  0.0057
 2942SOL    MW411536   4.708   6.380   1.666 -0.0642  0.3782 -0.4574
 2943SOL     OW11537   3.029   3.969   2.303  0.1368  0.1339  0.1273
 2943SOL    HW211538   3.115   3.962   2.262  0.0416  0.0698 -0.0595
 2943SOL    HW311539   3.022   4.061   2.329  1.0270 -0.2313  1.7925
 2943SOL    MW411540   3.039   3.980   2.301  0.2417  0.0773  0.3224
 2944SOL     OW11541   4.788   1.059   2.314  0.1623 -0.0187 -0.3034
 2944SOL    HW211542   4.797   1.153   2.325  2.1610 -0.2148  0.1975
 2944SOL    HW311543   4.694   1.043   2.316 -0.2015  1.5207  3.5591
 2944SOL    MW411544   4.777   1.069   2.316  0.3780  0.1585  0.2723
 2945SOL     OW11545   2.157   0.095   6.052  0.0939 -0.2278  0.5012
 2945SOL    HW211546   2.236   0.134   6.089  0.3208  1.4072 -1.5488
 2945SOL    HW311547   2.184   0.007   6.024  1.2123  0.3122 -0.1803
 2945SOL    MW411548   2.171   0.088   6.053  0.2714  0.0591  0.1408
 2946SOL     OW11549   6.071   1.123   4.863  0.0564  0.1968 -0.0312
 2946SOL    HW211550   6.148   1.176   4.883  0.8723 -0.6059 -0.9876
 2946SOL    HW311551   6.019   1.177   4.803  0.1442  0.5047  0.1688
 2946SOL    MW411552   6.074   1.137   4.858  0.1756  0.1316 -0.1310
 2947SOL     OW11553   4.964   4.076   4.145 -0.5534  0.5832 -0.4982
 2947SOL    HW211554   4.886   4.097   4.093 -1.0059 -0.1609 -0.1303
 2947SOL    HW311555   4.952   4.127   4.225 -0.3249  0.9884 -0.7171
 2947SOL    MW411556   4.952   4.086   4.149 -0.5830  0.5385 -0.4785
 2948SOL     OW11557   0.781   2.279   5.111  0.0893 -0.1672  0.3769
 2948SOL    HW211558   0.727   2.224   5.168 -1.0259  0.1846 -0.3144
 2948SOL    HW311559   0.736   2.364   5.111  0.2978 -0.0524 -0.7013
 2948SOL    MW411560   0.768   2.283   5.119 -0.0304 -0.1057  0.1435
 2949SOL     OW11561   3.496   2.332   2.876 -0.0178  0.3384 -0.1187
 2949SOL    HW211562   3.539   2.323   2.791 -0.4650  0.1622 -0.3265
 2949SOL    HW311563   3.429   2.264   2.877  0.1388  0.1835  0.4705
 2949SOL    MW411564   3.493   2.322   2.865 -0.0562  0.2947 -0.0684
 2950SOL     OW11565   0.303   3.418   0.402  0.0337  0.1530 -0.1335
 2950SOL    HW211566   0.291   3.512   0.417  1.3966 -0.0780  3.3610
 2950SOL    HW311567   0.253   3.376   0.472  3.1937 -1.4759  1.3382
 2950SOL    MW411568   0.294   3.425   0.413  0.6304 -0.0924  0.5217
 2951SOL     OW11569   0.672   2.593   3.539  0.6996 -0.4242  0.2019
 2951SOL    HW211570   0.624   2.514   3.564  0.3712  0.3750  2.3227
 2951SOL    HW311571   0.761   2.577   3.571 -0.1129  1.3068  3.8344
 2951SOL    MW411572   0.678   2.580   3.547  0.5491 -0.0903  0.9610
 2952SOL     OW11573   3.055   3.463   1.744  0.1101  0.5327  0.6563
 2952SOL    HW211574   3.131   3.520   1.737  1.3335 -1.1876 -1.2178
 2952SOL    HW311575   3.077   3.403   1.815  2.0142 -1.8801 -1.7715
 2952SOL    MW411576   3.068   3.463   1.752  0.5227 -0.0126  0.0887
 2953SOL     OW11577   6.046   6.295   1.573  0.5910 -0.2558 -0.5550
 2953SOL    HW211578   6.118   6.260   1.626 -0.3959  0.6381  1.5147
 2953SOL    HW311579   5.988   6.337   1.637 -1.4132 -0.3286 -2.2283
 2953SOL    MW411580   6.048   6.296   1.589  0.1964 -0.1475 -0.5027
 2954SOL     OW11581   1.454   4.701   5.539  0.0160 -0.1890 -0.7440
 2954SOL    HW211582   1.432   4.714   5.631  1.1518  2.1989 -0.7317
 2954SOL    HW311583   1.499   4.781   5.513 -0.0016 -0.9047 -3.3222
 2954SOL    MW411584   1.457   4.713   5.548  0.1636  0.0316 -1.0826
 2955SOL     OW11585   3.155   1.733   1.250 -0.4936 -0.2166  0.4331
 2955SOL    HW211586   3.251   1.735   1.246 -0.4968 -1.2235 -0.7483
 2955SOL    HW311587   3.133   1.640   1.253 -1.4458 -0.0147  0.0632
 2955SOL    MW411588   3.165   1.721   1.250 -0.6197 -0.3228  0.2285
 2956SOL     OW11589   4.154   1.724   1.019  0.0821 -0.1726  0.0992
 2956SOL    HW211590   4.244   1.693   1.017  0.4904  0.9144 -2.4284
 2956SOL    HW311591   4.160   1.818   0.999 -1.5808 -0.0717 -0.0719
 2956SOL    MW411592   4.166   1.732   1.016 -0.0835 -0.0159 -0.2568
 2957SOL     OW11593   5.685   5.727   5.364  0.1545  0.1194 -0.1673
 2957SOL    HW211594   5.775   5.747   5.339  0.2201 -0.6221 -0.5628
 2957SOL    HW311595   5.632   5.772   5.298  0.3076 -1.1742 -1.2241
 2957SOL    MW411596   5.690   5.735   5.352  0.1833 -0.1491 -0.3589
 2958SOL     OW11597   0.861   0.234   1.478 -0.0948  0.0064 -0.5806
 2958SOL    HW211598   0.846   0.150   1.434  1.8555 -0.0030 -1.3449
 2958SOL    HW311599   0.859   0.299   1.408 -0.3248  0.4301 -0.1859
 2958SOL    MW411600   0.859   0.231   1.463  0.1322  0.0611 -0.6294
 2959SOL     OW11601   4.541   3.243   4.047  0.2942 -0.2910  0.9058
 2959SOL    HW211602   4.495   3.271   3.968  0.6379 -2.1109  0.0096
 2959SOL    HW311603   4.536   3.319   4.106 -2.4257  0.1566  0.2475
 2959SOL    MW411604   4.534   3.257   4.045 -0.0193 -0.4720  0.7007
 2960SOL     OW11605   1.453   0.322   5.604 -0.5802  0.1396  0.7948
 2960SOL    HW211606   1.416   0.273   5.531  1.0781 -0.1152  0.0757
 2960SOL    HW311607   1.417   0.410   5.596 -0.8162 -0.0314 -0.0158
 2960SOL    MW411608   1.444   0.327   5.594 -0.3925  0.0835  0.5930
 2961SOL     OW11609   4.336   5.445   1.092  0.0112  0.4229 -0.7456
 2961SOL    HW211610   4.359   5.370   1.037  1.4696  1.3568 -1.4835
 2961SOL    HW311611   4.240   5.448   1.090 -0.0185  0.3082 -3.1158
 2961SOL    MW411612   4.326   5.436   1.084  0.1997  0.5310 -1.1557
 2962SOL     OW11613   4.020   6.083   6.301  0.1880 -0.2621  0.0069
 2962SOL    HW211614   4.080   6.158   6.293 -1.4214  1.1596  0.7075
 2962SOL    HW311615   4.049   6.039   6.381  0.6539  0.0619  0.0264
 2962SOL    MW411616   4.032   6.087   6.311  0.0371 -0.0318  0.1019
 2963SOL     OW11617   1.899   1.326   5.403  0.4043 -0.0367  0.1282
 2963SOL    HW211618   1.982   1.337   5.449 -0.7819  0.5519  2.2492
 2963SOL    HW311619   1.847   1.268   5.460 -0.5094 -0.7431 -1.3602
 2963SOL    MW411620   1.903   1.319   5.417  0.1273 -0.0522  0.2117
 2964SOL     OW11621   3.121   3.084   2.671 -0.3356  0.1147 -0.4957
 2964SOL    HW211622   3.056   3.026   2.711  0.6052 -1.7303 -1.5115
 2964SOL    HW311623   3.086   3.105   2.585 -0.2224  0.2675 -0.5060
 2964SOL    MW411624   3.108   3.079   2.665 -0.1965 -0.1086 -0.6311
 2965SOL     OW11625   5.610   5.535   5.893 -0.0155 -0.0108  0.1659
 2965SOL    HW211626   5.618   5.525   5.798  0.2240 -0.0081  0.1847
 2965SOL    HW311627   5.516   5.529   5.910 -0.0934  0.4059 -0.1170
 2965SOL    MW411628   5.598   5.533   5.882  0.0058  0.0445  0.1310
 2966SOL     OW11629   3.018   4.929   0.519  0.4115  0.3264  0.1113
 2966SOL    HW211630   3.075   4.866   0.564 -1.2302  0.0443  1.9456
 2966SOL    HW311631   3.058   4.940   0.433  1.3277 -2.4734  0.0627
 2966SOL    MW411632   3.031   4.922   0.513  0.3158 -0.0802  0.3469
 2967SOL     OW11633   5.848   3.796   6.404 -0.3380 -0.1061 -0.3202
 2967SOL    HW211634   5.866   3.735   6.333 -1.1747 -2.4512  1.3633
 2967SOL    HW311635   5.923   3.788   6.463 -0.8750 -0.2079  0.3635
 2967SOL    MW411636   5.860   3.787   6.403 -0.5193 -0.4289 -0.0079
 2968SOL     OW11637   3.755   5.450   1.107  0.5906 -0.0667 -0.0903
 2968SOL    HW211638   3.732   5.363   1.138 -1.9622  0.6847  0.3833
 2968SOL    HW311639   3.850   5.450   1.103  0.6875 -2.5917  0.6822
 2968SOL    MW411640   3.764   5.439   1.111  0.2666 -0.3007  0.0741
 2969SOL     OW11641   4.053   5.277   5.518 -0.4877 -0.7047 -0.2148
 2969SOL    HW211642   4.042   5.284   5.613 -1.9224 -3.8980 -0.0201
 2969SOL    HW311643   4.142   5.245   5.506  0.3833  1.5173 -0.1566
 2969SOL    MW411644   4.063   5.274   5.529 -0.5621 -0.8329 -0.1814
 2970SOL     OW11645   5.437   6.075   3.950  0.1642  0.0272  0.0280
 2970SOL    HW211646   5.471   6.140   3.889  0.0097  0.9060  0.8599
 2970SOL    HW311647   5.354   6.112   3.981  0.0176 -0.6202  0.4289
 2970SOL    MW411648   5.430   6.088   3.946  0.1244  0.0577  0.1906
 2971SOL     OW11649   3.889   2.610   0.554  0.1194 -0.2094  0.8481
 2971SOL    HW211650   3.804   2.649   0.574 -0.5638 -1.3170  0.2361
 2971SOL    HW311651   3.940   2.622   0.634 -0.0713  1.8162  0.7076
 2971SOL    MW411652   3.885   2.617   0.567  0.0041 -0.0883  0.7488
 2972SOL     OW11653   4.505   3.655   2.036  0.4027 -0.9429 -0.1223
 2972SOL    HW211654   4.530   3.693   1.952 -2.9100 -0.1946 -0.9202
 2972SOL    HW311655   4.499   3.561   2.019  0.3824 -0.8691 -0.5403
 2972SOL    MW411656   4.507   3.648   2.023 -0.0370 -0.8344 -0.2827
 2973SOL     OW11657   3.627   0.170   2.035 -0.5158  0.3414  0.2281
 2973SOL    HW211658   3.636   0.077   2.055 -1.6616  0.3596  0.9307
 2973SOL    HW311659   3.656   0.178   1.945 -0.2347 -0.6724  0.2182
 2973SOL    MW411660   3.632   0.158   2.026 -0.6299  0.2100  0.3195
 2974SOL     OW11661   4.489   2.114   4.588 -0.0079  0.0390 -0.6594
 2974SOL    HW211662   4.576   2.146   4.612 -0.5111  1.5879 -0.7726
 2974SOL    HW311663   4.434   2.135   4.663 -0.2001 -1.3800 -0.3877
 2974SOL    MW411664   4.493   2.121   4.601 -0.0997  0.0561 -0.6385
 2975SOL     OW11665   2.103   2.613   4.408 -0.3712 -0.8336 -0.2454
 2975SOL    HW211666   2.114   2.582   4.318 -1.6065 -0.3852 -0.5684
 2975SOL    HW311667   2.098   2.708   4.400 -0.6257 -0.7972  0.2826
 2975SOL    MW411668   2.104   2.622   4.395 -0.5678 -0.7697 -0.2183
 2976SOL     OW11669   4.455   3.311   5.622 -0.7293  0.7499  0.0775
 2976SOL    HW211670   4.449   3.321   5.527 -1.9620  0.3178  0.0927
 2976SOL    HW311671   4.385   3.249   5.644 -0.5040  0.8968  1.2771
 2976SOL    MW411672   4.445   3.304   5.612 -0.8622  0.7123  0.2378
 2977SOL     OW11673   2.373   4.636   4.791  0.0641  0.0193 -0.2686
 2977SOL    HW211674   2.455   4.606   4.831  0.9794  1.0984 -1.2343
 2977SOL    HW311675   2.387   4.729   4.775 -1.9958  0.6005  0.9933
 2977SOL    MW411676   2.386   4.644   4.794 -0.0869  0.2384 -0.2295
 2978SOL     OW11677   1.417   2.154   5.622  0.3383  0.1768 -0.1357
 2978SOL    HW211678   1.474   2.078   5.631 -1.6155 -1.2558  0.5519
 2978SOL    HW311679   1.334   2.119   5.592 -0.4261  2.1329 -0.4283
 2978SOL    MW411680   1.414   2.140   5.620 -0.0203  0.2458 -0.0836
 2979SOL     OW11681   3.060   2.199   0.405  0.1023  1.1648 -0.2034
 2979SOL    HW211682   3.110   2.229   0.481 -0.1937 -0.9237  0.8962
 2979SOL    HW311683   2.970   2.223   0.425 -0.1942 -0.6706  0.8682
 2979SOL    MW411684   3.055   2.206   0.418  0.0241  0.6471  0.0831
 2980SOL     OW11685   4.898   1.589   1.651  0.2435 -0.7372 -0.1281
 2980SOL    HW211686   4.945   1.510   1.624 -0.4322 -2.6758  3.7131
 2980SOL    HW311687   4.835   1.558   1.716 -3.8934  2.2463 -2.2442
 2980SOL    MW411688   4.896   1.574   1.656 -0.3915 -0.5993  0.0995
 2981SOL     OW11689   4.156   0.148   0.765  0.3506 -0.2778 -0.0719
 2981SOL    HW211690   4.079   0.191   0.728  0.1563  0.4086  1.0957
 2981SOL    HW311691   4.123   0.097   0.838  0.9525 -0.3038  0.1880
 2981SOL    MW411692   4.141   0.147   0.770  0.4044 -0.1907  0.1165
 2982SOL     OW11693   2.277   5.267   2.166 -0.2236  0.5886 -0.0134
 2982SOL    HW211694   2.283   5.219   2.249 -1.4139  0.7028  0.1481
 2982SOL    HW311695   2.193   5.241   2.129  0.5830  0.0060 -1.5337
 2982SOL    MW411696   2.267   5.257   2.172 -0.2743  0.5268 -0.1927
 2983SOL     OW11697   5.297   1.536   5.478 -0.3312  0.5445  0.3583
 2983SOL    HW211698   5.372   1.595   5.465 -0.0161  0.1981  0.5944
 2983SOL    HW311699   5.332   1.449   5.460 -1.1650  0.5395 -1.5131
 2983SOL    MW411700   5.312   1.532   5.474 -0.3997  0.4981  0.1426
 2984SOL     OW11701   5.769   1.142   4.345 -0.0464 -0.4421  0.3249
 2984SOL    HW211702   5.710   1.075   4.311  0.9742 -1.2179  0.0194
 2984SOL    HW311703   5.856   1.114   4.316  0.4184  0.9426  0.3338
 2984SOL    MW411704   5.773   1.129   4.337  0.1496 -0.3618  0.2858
 2985SOL     OW11705   0.026   5.443   5.132 -0.6696 -0.0006  0.1334
 2985SOL    HW211706   0.041   5.350   5.149  2.2695  0.1287 -1.0717
 2985SOL    HW311707   0.069   5.459   5.048 -3.4938  1.9278 -1.1059
 2985SOL    MW411708   0.034   5.433   5.123 -0.6544  0.2709 -0.1891
 2986SOL     OW11709   3.669   1.288   0.238 -0.7241 -0.4923  0.2098
 2986SOL    HW211710   3.610   1.341   0.183  1.3157  0.9926 -0.7081
 2986SOL    HW311711   3.650   1.198   0.214 -2.9057 -0.0996  0.2860
 2986SOL    MW411712   3.659   1.283   0.227 -0.7428 -0.2445  0.0988
 2987SOL     OW11713   2.430   1.525   0.677  0.3877 -0.3371 -0.4265
 2987SOL    HW211714   2.516   1.556   0.649  0.5280 -1.9451 -1.9233
 2987SOL    HW311715   2.445   1.437   0.709 -0.5095 -0.1289  0.6163
 2987SOL    MW411716   2.443   1.518   0.678  0.2879 -0.5218 -0.4864
 2988SOL     OW11717   1.252   0.053   0.977 -0.3434 -0.6033  0.1507
 2988SOL    HW211718   1.281  -0.023   0.927  1.4119  0.4902 -0.5758
 2988SOL    HW311719   1.278   0.033   1.067  2.2401  0.0317 -0.3639
 2988SOL    MW411720   1.259   0.040   0.982  0.2291 -0.3752 -0.0130
 2989SOL     OW11721   3.271   0.434   3.398 -0.3942  0.2427  0.2145
 2989SOL    HW211722   3.296   0.348   3.365 -1.5189 -0.1490  0.3310
 2989SOL    HW311723   3.186   0.451   3.359 -0.4077  1.0860  0.5833
 2989SOL    MW411724   3.263   0.425   3.389 -0.5444  0.3023  0.2785
 2990SOL     OW11725   3.661   1.318   1.059  0.7995  0.1713 -0.4231
 2990SOL    HW211726   3.674   1.223   1.057 -0.0635  0.0467 -0.3759
 2990SOL    HW311727   3.749   1.354   1.050  1.0844 -0.6288 -0.9333
 2990SOL    MW411728   3.675   1.310   1.058  0.7232  0.0493 -0.4842
 2991SOL     OW11729   6.097   4.939   0.628 -0.2923  0.8023 -0.2919
 2991SOL    HW211730   6.174   4.995   0.639 -0.1295  0.3286  1.1193
 2991SOL    HW311731   6.050   4.945   0.711 -1.8893  1.2108 -1.1830
 2991SOL    MW411732   6.101   4.947   0.640 -0.4815  0.7937 -0.2233
 2992SOL     OW11733   5.179   0.747   4.823 -0.1128  0.0350  0.4693
 2992SOL    HW211734   5.189   0.678   4.888 -0.1674  1.1847  1.7533
 2992SOL    HW311735   5.084   0.760   4.815 -0.0891  0.5949  0.9682
 2992SOL    MW411736   5.168   0.740   4.830 -0.1169  0.2606  0.7045
 2993SOL     OW11737   2.464   2.512   0.146  0.3157 -0.3583  0.4005
 2993SOL    HW211738   2.392   2.449   0.140 -0.7057  0.8457 -0.4210
 2993SOL    HW311739   2.534   2.473   0.093  0.6273 -1.9274  1.8572
 2993SOL    MW411740   2.464   2.498   0.138  0.2221 -0.4065  0.4843
 2994SOL     OW11741   2.215   4.645   2.067  0.2358 -0.0441 -0.4239
 2994SOL    HW211742   2.269   4.568   2.051 -0.6197 -0.4222 -1.6755
 2994SOL    HW311743   2.153   4.619   2.134  0.6015 -0.1072 -0.1084
 2994SOL    MW411744   2.214   4.632   2.073  0.1711 -0.1023 -0.5474
 2995SOL     OW11745   0.108   0.326   1.991  1.1121  0.4685 -0.0351
 2995SOL    HW211746   0.017   0.295   1.991  1.0229  0.7183 -0.6295
 2995SOL    HW311747   0.119   0.368   1.906  1.5419  1.1687  0.3633
 2995SOL    MW411748   0.097   0.327   1.980  1.1571  0.5939 -0.0609
 2996SOL     OW11749   5.096   5.779   5.131 -0.0229 -0.1046 -0.1868
 2996SOL    HW211750   5.140   5.695   5.140 -1.9184 -1.2282 -0.8827
 2996SOL    HW311751   5.165   5.844   5.145  1.0321 -1.6976  2.8507
 2996SOL    MW411752   5.111   5.777   5.134 -0.1338 -0.4630  0.1222
 2997SOL     OW11753   2.685   1.943   4.968  0.3313  0.0918  0.6384
 2997SOL    HW211754   2.666   1.857   5.006  0.1692 -0.2896 -0.2632
 2997SOL    HW311755   2.780   1.949   4.969  0.3793 -0.4511 -0.0212
 2997SOL    MW411756   2.695   1.933   4.973  0.3163 -0.0301  0.4325
 2998SOL     OW11757   0.474   1.319   2.255 -0.3371  0.0244  0.3549
 2998SOL    HW211758   0.389   1.347   2.220  0.6668  1.1258 -1.3348
 2998SOL    HW311759   0.524   1.399   2.263  1.1007 -0.7774 -0.2434
 2998SOL    MW411760   0.469   1.333   2.252 -0.0149  0.0639  0.0530
 2999SOL     OW11761   4.603   5.564   5.546 -0.1821  0.2807 -0.1861
 2999SOL    HW211762   4.639   5.507   5.477 -0.6136 -1.1261  0.6954
 2999SOL    HW311763   4.626   5.520   5.628 -2.8856 -0.1343  0.4656
 2999SOL    MW411764   4.611   5.550   5.548 -0.5957  0.0404  0.0162
 3000SOL     OW11765   0.789   0.463   6.175  0.4310  0.1207  0.2568
 3000SOL    HW211766   0.824   0.449   6.087  1.5320 -1.4889  0.8969
 3000SOL    HW311767   0.703   0.501   6.161  0.4376 -0.4273 -1.5287
 3000SOL    MW411768   0.782   0.466   6.161  0.5771 -0.1640  0.1057
 3001SOL     OW11769   0.027   5.986   5.454 -0.2080 -0.3065  0.3881
 3001SOL    HW211770   0.067   5.908   5.493  0.8570  0.1557  0.2369
 3001SOL    HW311771   0.076   6.059   5.491  1.2776  0.1393 -2.2659
 3001SOL    MW411772   0.038   5.986   5.464  0.1286 -0.1867  0.0180
 3002SOL     OW11773   2.804   4.157   0.682  0.4019 -0.4675  0.6409
 3002SOL    HW211774   2.867   4.086   0.696 -0.9257 -1.5853  1.2230
 3002SOL    HW311775   2.776   4.147   0.591 -0.4667 -1.3266  0.9746
 3002SOL    MW411776   2.808   4.146   0.672  0.1122 -0.7283  0.7617
 3003SOL     OW11777   5.472   5.339   1.978  0.0191  0.1755 -0.6049
 3003SOL    HW211778   5.480   5.385   1.894 -0.5784  1.8674  0.2416
 3003SOL    HW311779   5.540   5.378   2.033 -1.2558  0.9035  0.4937
 3003SOL    MW411780   5.482   5.350   1.974 -0.2279  0.4948 -0.3483
 3004SOL     OW11781   2.554   5.974   0.450  0.1859  0.4679 -0.3102
 3004SOL    HW211782   2.606   5.988   0.529  0.5052 -0.3965 -0.3515
 3004SOL    HW311783   2.616   5.984   0.378  0.2153 -0.1498 -0.3777
 3004SOL    MW411784   2.569   5.977   0.451  0.2319  0.2724 -0.3245
 3005SOL     OW11785   1.966   3.048   2.469 -0.0817  0.4848  0.6326
 3005SOL    HW211786   1.985   3.140   2.486  0.0232  0.7412 -0.7404
 3005SOL    HW311787   1.882   3.033   2.512  0.5386  0.8426  2.0108
 3005SOL    MW411788   1.957   3.058   2.477  0.0140  0.5658  0.6333
 3006SOL     OW11789   0.042   6.018   2.697  0.5542  0.1378 -0.0133
 3006SOL    HW211790   0.039   6.058   2.785  2.4860  1.6545 -0.5623
 3006SOL    HW311791   0.111   5.952   2.704  0.6025  0.1564 -0.3243
 3006SOL    MW411792   0.051   6.015   2.710  0.8154  0.3404 -0.1268
 3007SOL     OW11793   5.860   1.400   5.850  0.3715  0.4849  0.4032
 3007SOL    HW211794   5.798   1.472   5.840 -1.5979 -1.1545  0.0311
 3007SOL    HW311795   5.830   1.353   5.929  1.6262  0.0834  0.6637
 3007SOL    MW411796   5.848   1.403   5.859  0.2772  0.2156  0.3885
 3008SOL     OW11797   6.002   5.072   1.365  0.2949 -0.0400  0.3889
 3008SOL    HW211798   6.011   5.167   1.375 -1.2652  0.1213  0.5405
 3008SOL    HW311799   5.998   5.058   1.271  1.6775 -0.1004  0.3219
 3008SOL    MW411800   6.003   5.083   1.354  0.2715 -0.0266  0.4001
 3009SOL     OW11801   0.063   3.805   0.611  0.1816 -0.4581 -0.0018
 3009SOL    HW211802  -0.025   3.793   0.574  0.3519 -1.7440 -0.0437
 3009SOL    HW311803   0.065   3.896   0.639 -1.8886 -0.8940  1.8208
 3009SOL    MW411804   0.052   3.816   0.610 -0.0691 -0.6853  0.2332
 3010SOL     OW11805   0.335   0.633   1.919 -0.1968 -0.2657 -0.2818
 3010SOL    HW211806   0.341   0.563   1.984  0.8199 -0.7395 -0.8598
 3010SOL    HW311807   0.370   0.594   1.839 -0.1052  0.7471 -0.7448
 3010SOL    MW411808   0.341   0.619   1.917 -0.0506 -0.1946 -0.4191
 3011SOL     OW11809   4.663   5.337   5.055  0.2990  0.2940 -0.1126
 3011SOL    HW211810   4.666   5.376   5.142 -3.6362 -2.4081  1.5336
 3011SOL    HW311811   4.691   5.246   5.068  0.5757  0.0716 -1.9068
 3011SOL    MW411812   4.667   5.330   5.068 -0.1837 -0.0918 -0.1321
 3012SOL     OW11813   3.967   1.988   4.959 -0.4726  0.2845 -0.2326
 3012SOL    HW211814   3.925   2.041   4.891 -2.3934 -1.2833 -0.3632
 3012SOL    HW311815   3.989   1.906   4.914 -0.0276 -0.0628  0.6001
 3012SOL    MW411816   3.964   1.984   4.944 -0.6673  0.0318 -0.1400
 3013SOL     OW11817   3.619   5.436   0.535 -0.5704 -0.0782 -0.0127
 3013SOL    HW211818   3.576   5.495   0.596 -1.0188 -1.5400  1.1466
 3013SOL    HW311819   3.713   5.450   0.549 -0.5927  1.9438 -1.3907
 3013SOL    MW411820   3.626   5.445   0.545 -0.6325 -0.0043 -0.0416
 3014SOL     OW11821   1.865   0.013   3.576  0.5019  0.6388  0.6879
 3014SOL    HW211822   1.783   0.041   3.615  0.5435  1.6121  0.0942
 3014SOL    HW311823   1.840  -0.037   3.498  0.4491 -0.3964  1.3459
 3014SOL    MW411824   1.851   0.010   3.571  0.5004  0.6307  0.6963
 3015SOL     OW11825   3.362   5.940   1.081 -0.1615 -0.3035  0.5229
 3015SOL    HW211826   3.387   5.854   1.113 -0.0250 -0.0487  1.1169
 3015SOL    HW311827   3.316   5.981   1.155 -0.0402  0.2063  0.3203
 3015SOL    MW411828   3.359   5.934   1.095 -0.1275 -0.2026  0.5745
 3016SOL     OW11829   5.471   3.438   0.589 -0.1318 -0.7442 -0.3492
 3016SOL    HW211830   5.379   3.418   0.576 -0.5711  0.3236  0.8900
 3016SOL    HW311831   5.502   3.464   0.502 -1.4308  0.4533 -0.5024
 3016SOL    MW411832   5.463   3.439   0.576 -0.3612 -0.4453 -0.2059
 3017SOL     OW11833   1.318   1.640   5.338 -0.7782 -0.0551  0.4098
 3017SOL    HW211834   1.296   1.671   5.250 -0.2829 -0.7581  0.0290
 3017SOL    HW311835   1.255   1.684   5.395 -2.1666 -0.8216 -0.4803
 3017SOL    MW411836   1.307   1.650   5.334 -0.8960 -0.2490  0.2421
 3018SOL     OW11837   3.072   1.709   0.762 -0.0948 -0.3611  0.0507
 3018SOL    HW211838   3.042   1.633   0.812  0.3311 -0.0048  0.8616
 3018SOL    HW311839   3.154   1.735   0.804  0.0466  0.2160 -0.5629
 3018SOL    MW411840   3.079   1.702   0.774 -0.0200 -0.2379  0.0767
 3019SOL     OW11841   6.057   0.107   0.178 -0.0033 -0.2300  0.2455
 3019SOL    HW211842   6.009   0.186   0.203 -1.1296 -1.5761  2.7219
 3019SOL    HW311843   6.128   0.102   0.243  0.7547 -0.6865 -0.5930
 3019SOL    MW411844   6.060   0.117   0.190 -0.0519 -0.4678  0.4616
 3020SOL     OW11845   6.320   5.491   2.031  0.1700 -0.4392  0.4905
 3020SOL    HW211846   6.324   5.396   2.032 -0.9831 -0.5597 -1.5440
 3020SOL    HW311847   6.239   5.512   2.078 -0.8520 -0.6282 -1.1222
 3020SOL    MW411848   6.310   5.481   2.037 -0.1170 -0.4800  0.0093
 3021SOL     OW11849   3.119   1.590   6.402 -0.0975  0.3032  0.1924
 3021SOL    HW211850   3.076   1.642   6.469  0.3723 -0.1135  0.8201
 3021SOL    HW311851   3.124   1.502   6.439  0.1267  0.0580 -0.4047
 3021SOL    MW411852   3.114   1.585   6.415 -0.0059  0.2159  0.1964
 3022SOL     OW11853   2.967   2.348   2.507 -0.0768  0.3510 -0.6602
 3022SOL    HW211854   2.991   2.436   2.536  2.1165 -0.2640 -0.4538
 3022SOL    HW311855   2.986   2.348   2.413 -0.6080  0.2614 -0.7689
 3022SOL    MW411856   2.973   2.360   2.498  0.1425  0.2581 -0.6473
 3023SOL     OW11857   6.024   6.093   5.979  0.4296  0.4505 -0.1780
 3023SOL    HW211858   6.049   6.086   6.071  1.6230  0.5517 -0.4729
 3023SOL    HW311859   5.978   6.012   5.959 -1.3768  1.1415  0.9355
 3023SOL    MW411860   6.022   6.082   5.988  0.3487  0.5550 -0.0700
 3024SOL     OW11861   6.258   0.636   0.273 -0.7043  0.2552  0.0262
 3024SOL    HW211862   6.277   0.730   0.281  0.1824 -0.0752  2.6603
 3024SOL    HW311863   6.163   0.630   0.281 -0.7009  0.8829  0.6677
 3024SOL    MW411864   6.248   0.648   0.275 -0.5869  0.2944  0.4583
 3025SOL     OW11865   5.354   5.291   5.362  0.1678 -0.3980  0.4026
 3025SOL    HW211866   5.426   5.238   5.328 -0.8351 -0.8618 -1.1045
 3025SOL    HW311867   5.319   5.239   5.434  0.2378 -1.0229  0.0007
 3025SOL    MW411868   5.359   5.277   5.367  0.0447 -0.5417  0.1507
 3026SOL     OW11869   1.825   2.325   0.322 -0.1628  0.0734 -0.5016
 3026SOL    HW211870   1.735   2.341   0.294 -0.5589 -1.2873 -0.0890
 3026SOL    HW311871   1.817   2.302   0.415  0.8122  1.6414  0.0107
 3026SOL    MW411872   1.812   2.324   0.331 -0.0864  0.1007 -0.3796
 3027SOL     OW11873   2.874   4.922   4.791  0.5807 -0.0710  0.1765
 3027SOL    HW211874   2.929   4.862   4.739 -0.6156  2.1470 -4.0918
 3027SOL    HW311875   2.925   5.003   4.796  1.2971 -0.5490  4.1103
 3027SOL    MW411876   2.888   4.924   4.785  0.5174  0.1586  0.1323
 3028SOL     OW11877   3.824   6.428   6.397  0.6893  0.0847  0.1230
 3028SOL    HW211878   3.812   6.365   6.326  1.0428 -0.6429  0.6971
 3028SOL    HW311879   3.906   6.471   6.377  1.7650 -1.4341  1.0410
 3028SOL    MW411880   3.833   6.425   6.385  0.8778 -0.2117  0.3199
 3029SOL     OW11881   1.062   2.410   6.208  0.7713  0.7329  0.1292
 3029SOL    HW211882   1.028   2.382   6.293  2.6080  0.0533  0.6816
 3029SOL    HW311883   1.042   2.504   6.204 -0.3412  0.5512  0.7808
 3029SOL    MW411884   1.055   2.419   6.219  0.8668  0.6192  0.2880
 3030SOL     OW11885   2.011   3.653   0.464  0.0725  0.0671  0.7349
 3030SOL    HW211886   2.063   3.581   0.499  0.9867  0.6789  0.6569
 3030SOL    HW311887   1.939   3.663   0.526  0.5844 -0.1402  1.3672
 3030SOL    MW411888   2.008   3.645   0.477  0.2607  0.1205  0.8080
 3031SOL     OW11889   1.002   5.183   4.076 -0.1195  0.1111  0.0154
 3031SOL    HW211890   1.034   5.114   4.018  0.5322 -0.7216  1.3068
 3031SOL    HW311891   0.969   5.251   4.017  2.5828  0.3435 -1.3842
 3031SOL    MW411892   1.001   5.183   4.061  0.3230  0.0319  0.0011
 3032SOL     OW11893   5.305   4.720   0.236  0.2993  0.8327 -0.0261
 3032SOL    HW211894   5.346   4.762   0.311 -1.0051  0.2938  1.0257
 3032SOL    HW311895   5.378   4.700   0.177  1.5307  0.1722  1.6291
 3032SOL    MW411896   5.320   4.723   0.238  0.2897  0.6744  0.3311
 3033SOL     OW11897   4.497   5.489   3.959 -0.0220 -0.2160  0.1403
 3033SOL    HW211898   4.410   5.529   3.967 -0.5763 -0.8546 -2.1325
 3033SOL    HW311899   4.483   5.413   3.904  2.1728  0.3452 -1.2847
 3033SOL    MW411900   4.483   5.485   3.953  0.1945 -0.2262 -0.3476
 3034SOL     OW11901   6.302   2.206   1.582  0.1780  0.2598 -0.4014
 3034SOL    HW211902   6.307   2.290   1.537  0.8169  0.6937  0.4403
 3034SOL    HW311903   6.388   2.196   1.624  0.2730 -1.0181 -0.8283
 3034SOL    MW411904   6.314   2.215   1.582  0.2748  0.1485 -0.3467
 3035SOL     OW11905   5.042   1.159   4.466  0.0435 -0.8553 -0.0586
 3035SOL    HW211906   5.116   1.212   4.495 -1.2697  1.4883 -0.7637
 3035SOL    HW311907   5.078   1.101   4.399  1.3291 -0.1282 -0.0169
 3035SOL    MW411908   5.056   1.158   4.461  0.0399 -0.4502 -0.1461
 3036SOL     OW11909   4.486   3.003   3.339 -0.1779 -0.1773  0.1213
 3036SOL    HW211910   4.423   2.991   3.410 -0.4288  0.4128 -0.0039
 3036SOL    HW311911   4.555   3.057   3.378 -2.4938  4.2559 -1.3001
 3036SOL    MW411912   4.487   3.008   3.354 -0.5165  0.4855 -0.0828
 3037SOL     OW11913   3.135   5.796   5.547  0.0920  0.2268  0.2296
 3037SOL    HW211914   3.067   5.860   5.526  0.0941  0.2437  0.2729
 3037SOL    HW311915   3.214   5.848   5.559 -0.0122  0.2729  0.7623
 3037SOL    MW411916   3.136   5.811   5.546  0.0785  0.2351  0.3056
 3038SOL     OW11917   2.185   4.235   6.275 -0.0628 -0.6442 -0.1088
 3038SOL    HW211918   2.211   4.160   6.329  1.7636 -0.0059 -0.0188
 3038SOL    HW311919   2.212   4.311   6.326 -2.8408  0.1911  0.2824
 3038SOL    MW411920   2.192   4.235   6.289 -0.1883 -0.4498 -0.0453
 3039SOL     OW11921   0.027   1.053   2.662 -0.6966 -0.3445 -0.0209
 3039SOL    HW211922   0.008   1.130   2.609 -1.6237 -1.4903 -1.4293
 3039SOL    HW311923  -0.047   1.047   2.723 -0.8237 -0.3437 -0.1745
 3039SOL    MW411924   0.015   1.062   2.663 -0.8357 -0.4955 -0.2270
 3040SOL     OW11925   4.151   1.000   3.964 -0.2742  0.3235  0.0174
 3040SOL    HW211926   4.166   0.931   4.028  3.7683  1.8283  1.0354
 3040SOL    HW311927   4.110   1.071   4.014 -0.9887  0.0020 -0.1105
 3040SOL    MW411928   4.148   1.000   3.979  0.1649  0.4796  0.1349
 3041SOL     OW11929   3.544   0.372   0.697  0.4639 -0.2525 -0.3970
 3041SOL    HW211930   3.601   0.447   0.680  1.1869 -0.4343  1.0847
 3041SOL    HW311931   3.548   0.359   0.792 -1.1898 -0.9619 -0.3836
 3041SOL    MW411932   3.552   0.380   0.708  0.3411 -0.3701 -0.1998
 3042SOL     OW11933   2.932   3.234   1.474 -0.0447 -0.1108 -0.1740
 3042SOL    HW211934   3.025   3.246   1.493 -0.3241  1.3658  0.4352
 3042SOL    HW311935   2.902   3.170   1.538  0.8326 -1.7576 -1.3359
 3042SOL    MW411936   2.940   3.227   1.485  0.0342 -0.1332 -0.2469
 3043SOL     OW11937   5.940   3.753   4.295  0.1766  0.5046 -0.0251
 3043SOL    HW211938   5.962   3.757   4.202 -0.8508  0.0847 -0.3032
 3043SOL    HW311939   5.995   3.820   4.336 -0.1115  1.4137 -1.0915
 3043SOL    MW411940   5.950   3.763   4.288  0.0031  0.5691 -0.2025
 3044SOL     OW11941   0.908   6.386   4.082 -0.2452  0.4853 -0.0329
 3044SOL    HW211942   0.822   6.394   4.042  0.1274  1.9617 -0.5935
 3044SOL    HW311943   0.918   6.292   4.099 -1.5492  0.1771 -0.8512
 3044SOL    MW411944   0.898   6.374   4.079 -0.3681  0.6394 -0.2149
 3045SOL     OW11945   4.659   2.509   2.044  0.2472 -0.6989 -0.2426
 3045SOL    HW211946   4.572   2.469   2.041 -0.0889  0.0599 -2.1011
 3045SOL    HW311947   4.642   2.601   2.065  0.6268 -0.6028 -0.3605
 3045SOL    MW411948   4.645   2.516   2.046  0.2529 -0.5861 -0.5034
 3046SOL     OW11949   6.026   4.280   1.218  0.1101  0.0217  0.2969
 3046SOL    HW211950   5.981   4.196   1.205  1.0831 -0.3854 -0.5259
 3046SOL    HW311951   5.986   4.338   1.153 -0.2055  0.0539  0.5182
 3046SOL    MW411952   6.014   4.276   1.208  0.1969 -0.0278  0.2176
 3047SOL     OW11953   3.696   5.835   0.283 -0.2265 -0.5008  0.2564
 3047SOL    HW211954   3.638   5.793   0.347 -1.3408  0.2236 -0.2394
 3047SOL    HW311955   3.650   5.915   0.258  1.9858  1.2722  1.4393
 3047SOL    MW411956   3.682   5.840   0.288 -0.0816 -0.1713  0.3471
 3048SOL     OW11957   0.066   3.676   1.252  0.1745 -0.2784 -0.1704
 3048SOL    HW211958   0.119   3.625   1.191  0.0108 -0.9978  0.2741
 3048SOL    HW311959   0.093   3.767   1.238  1.0944 -0.5757 -0.3580
 3048SOL    MW411960   0.076   3.681   1.242  0.2743 -0.4125 -0.1365
 3049SOL     OW11961   2.036   2.768   4.749  0.4399  0.0514 -0.1694
 3049SOL    HW211962   2.048   2.688   4.800  0.8827 -1.0141 -1.8668
 3049SOL    HW311963   2.116   2.819   4.765 -0.1749  0.5692  1.5273
 3049SOL    MW411964   2.048   2.764   4.758  0.4172 -0.0209 -0.1695
 3050SOL     OW11965   6.148   2.073   0.107 -0.0172  0.4309 -0.3335
 3050SOL    HW211966   6.146   2.026   0.191  1.3746 -0.6705 -0.8778
 3050SOL    HW311967   6.120   2.008   0.043  3.8081 -0.4544 -1.3805
 3050SOL    MW411968   6.144   2.059   0.110  0.6712  0.1688 -0.5434
 3051SOL     OW11969   3.606   5.819   4.202 -0.2617  0.2568 -0.6075
 3051SOL    HW211970   3.548   5.755   4.160  0.9298 -0.5158 -1.1193
 3051SOL    HW311971   3.658   5.855   4.131  0.2382  0.5670 -0.0935
 3051SOL    MW411972   3.605   5.815   4.187 -0.0385  0.1958 -0.6072
 3052SOL     OW11973   2.553   1.489   4.518 -0.4166 -0.0363 -0.2623
 3052SOL    HW211974   2.503   1.540   4.455  0.2066  0.1251 -0.6280
 3052SOL    HW311975   2.503   1.497   4.600 -0.5494  0.8059 -0.4192
 3052SOL    MW411976   2.540   1.497   4.521 -0.3519  0.0961 -0.3312
 3053SOL     OW11977   5.835   1.346   1.177 -0.6878  0.2965 -0.0583
 3053SOL    HW211978   5.775   1.376   1.245 -1.2714  0.8226 -0.7911
 3053SOL    HW311979   5.785   1.354   1.095 -0.7392 -2.2545 -0.3615
 3053SOL    MW411980   5.821   1.351   1.175 -0.7716  0.0294 -0.1950
 3054SOL     OW11981   5.355   2.167   2.523 -0.2747 -0.0189  0.4802
 3054SOL    HW211982   5.308   2.141   2.444 -0.8218 -0.7213  1.0318
 3054SOL    HW311983   5.356   2.262   2.520 -2.2695  0.0520  0.7536
 3054SOL    MW411984   5.349   2.176   2.512 -0.6101 -0.1022  0.5890
 3055SOL     OW11985   1.133   2.314   5.591 -0.5552 -0.1216  0.1154
 3055SOL    HW211986   1.137   2.234   5.644  1.3490 -0.9825 -1.2247
 3055SOL    HW311987   1.128   2.283   5.501 -1.1258  1.3162 -0.3836
 3055SOL    MW411988   1.133   2.299   5.586 -0.3793 -0.0455 -0.1272
 3056SOL     OW11989   5.569   6.058   6.146 -0.1890 -0.2338 -0.1214
 3056SOL    HW211990   5.595   6.081   6.057 -0.4221 -1.4072 -0.5184
 3056SOL    HW311991   5.651   6.044   6.193 -0.0679  0.2027 -0.2040
 3056SOL    MW411992   5.583   6.059   6.140 -0.2038 -0.3311 -0.1847
 3057SOL     OW11993   3.144   2.460   0.587  0.2569  0.3821 -0.0799
 3057SOL    HW211994   3.189   2.544   0.593  0.0333  0.5635 -0.8386
 3057SOL    HW311995   3.194   2.410   0.522 -0.7588  0.6865 -1.1339
 3057SOL    MW411996   3.156   2.465   0.579  0.0934  0.4462 -0.3191
 3058SOL     OW11997   1.007   3.234   1.732  0.0238  0.0677 -0.0596
 3058SOL    HW211998   1.075   3.175   1.701 -1.0167 -1.3622  0.2754
 3058SOL    HW311999   1.001   3.217   1.826 -0.9455 -0.0083 -0.1230
 3058SOL    MW412000   1.015   3.224   1.740 -0.2414 -0.1310 -0.0238
 3059SOL     OW12001   2.013   2.110   3.900 -0.0548 -0.2471  0.0684
 3059SOL    HW212002   1.949   2.039   3.893  1.2747 -1.5796  0.9778
 3059SOL    HW312003   2.047   2.103   3.989  0.4189  1.2760  0.0343
 3059SOL    MW412004   2.009   2.100   3.911  0.1831 -0.2219  0.1839
 3060SOL     OW12005   2.427   5.570   3.797  0.0131  0.1020 -0.0923
 3060SOL    HW212006   2.399   5.482   3.771  0.1115  0.3786 -1.1410
 3060SOL    HW312007   2.366   5.629   3.753 -0.7769  0.5527  1.4932
 3060SOL    MW412008   2.415   5.566   3.788 -0.0782  0.1980 -0.0214
 3061SOL     OW12009   2.944   3.645   4.972 -0.2301 -0.0475 -0.3680
 3061SOL    HW212010   2.961   3.738   4.955 -0.8632  0.0362 -0.5764
 3061SOL    HW312011   2.910   3.643   5.062  0.7678 -0.2036  0.0163
 3061SOL    MW412012   2.941   3.657   4.982 -0.1820 -0.0571 -0.3448
 3062SOL     OW12013   2.252   4.659   4.161  0.3213  0.0558  0.0823
 3062SOL    HW212014   2.193   4.724   4.122 -0.4105 -0.1194  0.8732
 3062SOL    HW312015   2.222   4.650   4.251 -0.0523 -1.9070 -0.1975
 3062SOL    MW412016   2.241   4.666   4.168  0.1755 -0.2263  0.1497
 3063SOL     OW12017   1.749   1.152   1.652  0.4303  0.2542  0.1824
 3063SOL    HW212018   1.837   1.123   1.678 -0.1654 -1.1343  0.7479
 3063SOL    HW312019   1.737   1.114   1.565  0.4091  0.5165  0.0694
 3063SOL    MW412020   1.759   1.143   1.644  0.3489  0.1056  0.2421
 3064SOL     OW12021   4.474   4.998   1.714 -0.0835 -0.1555 -0.1097
 3064SOL    HW212022   4.513   5.023   1.798 -0.3112 -0.2533  0.0247
 3064SOL    HW312023   4.531   5.039   1.648  0.4999 -0.6613  0.0744
 3064SOL    MW412024   4.487   5.007   1.716 -0.0366 -0.2352 -0.0677
 3065SOL     OW12025   4.467   2.687   1.109  0.0900  0.4146 -0.1818
 3065SOL    HW212026   4.401   2.750   1.138  0.7948  2.2723 -2.2859
 3065SOL    HW312027   4.490   2.638   1.187 -4.1320 -0.7255  0.5455
 3065SOL    MW412028   4.461   2.689   1.123 -0.3740  0.5093 -0.3635
 3066SOL     OW12029   3.378   5.013   6.220 -0.3043  0.1439 -0.4951
 3066SOL    HW212030   3.453   5.074   6.215  0.9650 -1.4267 -2.0606
 3066SOL    HW312031   3.333   5.037   6.301 -0.2062  3.4963 -1.2863
 3066SOL    MW412032   3.382   5.024   6.230 -0.1239  0.3790 -0.8061
 3067SOL     OW12033   2.130   3.049   3.410  0.9114  0.0796  0.5866
 3067SOL    HW212034   2.157   3.013   3.494 -0.4342  2.2865  2.0699
 3067SOL    HW312035   2.172   3.136   3.406 -0.5430  0.7923 -0.1194
 3067SOL    MW412036   2.139   3.056   3.420  0.5420  0.4648  0.6892
 3068SOL     OW12037   6.408   0.507   5.132 -0.8800  0.4472 -0.5575
 3068SOL    HW212038   6.415   0.568   5.058 -1.3045  0.5423 -0.5230
 3068SOL    HW312039   6.314   0.495   5.144 -0.8617  1.6546  0.9857
 3068SOL    MW412040   6.397   0.513   5.124 -0.9336  0.6190 -0.3494
 3069SOL     OW12041   4.181   3.277   5.955  0.4291 -0.1941 -0.3351
 3069SOL    HW212042   4.147   3.361   5.925 -1.7163 -0.4342  1.1945
 3069SOL    HW312043   4.117   3.247   6.019  3.3413 -0.9964  2.4220
 3069SOL    MW412044   4.168   3.284   5.959  0.5303 -0.3317  0.2305
 3070SOL     OW12045   0.661   5.477   5.747 -0.1597 -0.0469  0.1763
 3070SOL    HW212046   0.663   5.493   5.842 -0.7498 -0.6123  0.2952
 3070SOL    HW312047   0.718   5.402   5.734  1.0364  0.8824 -0.1176
 3070SOL    MW412048   0.669   5.469   5.758 -0.0797  0.0011  0.1532
 3071SOL     OW12049   2.209   4.286   2.766 -0.4490  0.7446  0.3798
 3071SOL    HW212050   2.193   4.379   2.785  2.0820  1.2422  0.4623
 3071SOL    HW312051   2.242   4.285   2.677  0.6828  0.1008  0.7829
 3071SOL    MW412052   2.211   4.298   2.757  0.0343  0.7253  0.4439
 3072SOL     OW12053   3.180   0.256   5.507  0.3936 -0.3375  0.4906
 3072SOL    HW212054   3.232   0.276   5.585  1.6278 -0.1100 -0.3428
 3072SOL    HW312055   3.161   0.342   5.469  0.0098 -0.4559  0.4151
 3072SOL    MW412056   3.184   0.270   5.512  0.5058 -0.3231  0.3707
 3073SOL     OW12057   5.998   3.105   5.396  0.4437  0.8960 -0.1045
 3073SOL    HW212058   6.065   3.098   5.328 -0.5083  0.5040 -1.0327
 3073SOL    HW312059   5.917   3.078   5.353 -0.0417 -0.3133  1.4391
 3073SOL    MW412060   5.996   3.100   5.382  0.2541  0.6847 -0.0233
 3074SOL     OW12061   2.657   3.376   0.356  0.0025  0.7128 -0.4586
 3074SOL    HW212062   2.702   3.346   0.277 -1.3744  1.4157 -1.5337
 3074SOL    HW312063   2.568   3.396   0.328 -0.5663  0.8607  1.3033
 3074SOL    MW412064   2.651   3.375   0.342 -0.2543  0.8251 -0.3680
 3075SOL     OW12065   5.865   5.606   3.912  0.0554  0.3361 -0.1166
 3075SOL    HW212066   5.927   5.538   3.939  0.2196  0.4810 -0.1280
 3075SOL    HW312067   5.799   5.559   3.861 -0.6647 -0.0766  1.1411
 3075SOL    MW412068   5.865   5.591   3.909 -0.0180  0.3007  0.0478
 3076SOL     OW12069   2.898   2.671   3.144  0.1674  0.2484  0.5249
 3076SOL    HW212070   2.920   2.589   3.190  0.2406 -0.4703 -0.7457
 3076SOL    HW312071   2.852   2.723   3.210 -0.5563 -1.1191  1.1489
 3076SOL    MW412072   2.895   2.667   3.159  0.0816 -0.0268  0.4396
 3077SOL     OW12073   0.687   2.229   2.947  0.3471 -0.0320 -0.7611
 3077SOL    HW212074   0.623   2.298   2.932 -0.3050 -0.6306 -0.7719
 3077SOL    HW312075   0.639   2.162   2.996  1.4233  0.2664  0.7850
 3077SOL    MW412076   0.672   2.229   2.951  0.4030 -0.0716 -0.5585
 3078SOL     OW12077   0.433   2.205   4.964 -0.1714 -0.1937  0.1479
 3078SOL    HW212078   0.492   2.171   5.032 -0.2891 -0.7906 -0.0410
 3078SOL    HW312079   0.393   2.283   5.003 -0.0399 -0.3839  0.6672
 3078SOL    MW412080   0.435   2.211   4.978 -0.1696 -0.2975  0.1915
 3079SOL     OW12081   2.284   4.395   2.365 -0.1970 -0.2037  0.0776
 3079SOL    HW212082   2.260   4.323   2.423 -1.5853  0.6805  0.6542
 3079SOL    HW312083   2.255   4.474   2.411  0.5496  0.6799 -0.8959
 3079SOL    MW412084   2.277   4.396   2.379 -0.2816  0.0295  0.0253
 3080SOL     OW12085   4.276   4.291   2.045  0.1511 -0.3132 -0.1931
 3080SOL    HW212086   4.319   4.376   2.029 -0.6440 -0.0053 -0.7372
 3080SOL    HW312087   4.338   4.244   2.101  1.1776  0.1437 -0.9136
 3080SOL    MW412088   4.290   4.296   2.051  0.1816 -0.2123 -0.3599
 3081SOL     OW12089   0.417   5.617   4.670 -0.1293 -0.0028 -0.0842
 3081SOL    HW212090   0.333   5.642   4.708  0.9067  2.4032  0.8128
 3081SOL    HW312091   0.464   5.699   4.658  2.5082 -1.2994  0.4478
 3081SOL    MW412092   0.412   5.631   4.674  0.3554  0.1436  0.1044
 3082SOL     OW12093   3.456   2.952   3.723  0.5119 -0.0212 -0.0281
 3082SOL    HW212094   3.403   3.015   3.675  1.1762 -0.2522 -1.1176
 3082SOL    HW312095   3.504   2.905   3.655  0.6795 -1.1146  0.8068
 3082SOL    MW412096   3.455   2.954   3.708  0.6217 -0.1959 -0.0617
 3083SOL     OW12097   0.437   5.713   3.490  0.0237  0.2327 -0.1372
 3083SOL    HW212098   0.389   5.649   3.543  1.1922 -1.9018 -1.5182
 3083SOL    HW312099   0.512   5.737   3.545  1.2730 -2.0277 -0.7181
 3083SOL    MW412100   0.441   5.708   3.505  0.3427 -0.3471 -0.3960
 3084SOL     OW12101   2.375   2.673   4.643  0.5135 -0.9040 -0.6418
 3084SOL    HW212102   2.463   2.701   4.669  0.0771  0.5822 -0.6804
 3084SOL    HW312103   2.389   2.591   4.596  1.8212 -0.9778 -0.1663
 3084SOL    MW412104   2.389   2.666   4.641  0.6284 -0.7177 -0.5842
 3085SOL     OW12105   2.011   6.113   1.643  0.1432 -0.4565 -0.1662
 3085SOL    HW212106   2.008   6.024   1.606  0.4116 -1.3217  1.7480
 3085SOL    HW312107   2.047   6.101   1.731  0.6143  1.6371 -0.0263
 3085SOL    MW412108   2.015   6.099   1.649  0.2407 -0.2944  0.1048
 3086SOL     OW12109   3.977   4.225   0.502 -0.1469 -0.1850 -0.0806
 3086SOL    HW212110   3.898   4.183   0.466  0.2230  1.1048 -2.6583
 3086SOL    HW312111   3.959   4.233   0.596 -3.0672 -0.0360 -0.5400
 3086SOL    MW412112   3.964   4.220   0.510 -0.4834  0.0048 -0.4813
 3087SOL     OW12113   5.966   4.337   2.993  0.2839  0.0897 -0.3072
 3087SOL    HW212114   6.042   4.384   3.028  0.8883 -0.6524 -0.5972
 3087SOL    HW312115   5.893   4.368   3.046  1.0860 -0.5902  1.2645
 3087SOL    MW412116   5.967   4.348   3.005  0.4695 -0.0979 -0.1381
 3088SOL     OW12117   2.962   6.369   5.113  0.4936 -0.3592 -0.3913
 3088SOL    HW212118   3.019   6.340   5.185  0.4288 -1.5915 -0.8093
 3088SOL    HW312119   2.878   6.328   5.131  0.5348 -0.8545 -1.2639
 3088SOL    MW412120   2.959   6.360   5.125  0.4905 -0.5871 -0.5615
 3089SOL     OW12121   5.704   4.073   1.529 -0.0856  0.2160 -0.3081
 3089SOL    HW212122   5.794   4.082   1.499  0.2132  1.2514  0.7909
 3089SOL    HW312123   5.651   4.089   1.451  0.6699 -0.8941 -1.0756
 3089SOL    MW412124   5.709   4.076   1.515  0.0535  0.2061 -0.2643
 3090SOL     OW12125   3.164   4.832   2.681 -0.2996 -0.5625  0.0373
 3090SOL    HW212126   3.072   4.815   2.700 -0.4141  1.2271  1.3212
 3090SOL    HW312127   3.202   4.855   2.766  1.0361  0.0061 -0.6841
 3090SOL    MW412128   3.157   4.833   2.695 -0.1384 -0.2514  0.1115
 3091SOL     OW12129   4.203   6.171   2.939  0.0671 -0.1467 -0.0256
 3091SOL    HW212130   4.158   6.197   3.020  3.7280  0.0925  2.1596
 3091SOL    HW312131   4.258   6.246   2.917  2.1691 -1.6669 -0.2926
 3091SOL    MW412132   4.205   6.184   2.947  0.8275 -0.3157  0.2275
 3092SOL     OW12133   3.739   2.514   1.499  0.7274  0.1481 -0.2406
 3092SOL    HW212134   3.657   2.561   1.485 -0.6848 -1.1168  2.7456
 3092SOL    HW312135   3.739   2.445   1.433  0.6641  1.6330 -1.8513
 3092SOL    MW412136   3.728   2.511   1.489  0.5328  0.1772 -0.0591
 3093SOL     OW12137   4.506   1.869   3.342 -0.2162 -0.0345  0.3212
 3093SOL    HW212138   4.595   1.834   3.338 -0.8725 -1.9842  1.4379
 3093SOL    HW312139   4.450   1.792   3.340 -1.7521  0.8036  3.6062
 3093SOL    MW412140   4.510   1.855   3.341 -0.5055 -0.1812  0.9020
 3094SOL     OW12141   2.146   6.316   1.490  0.1734 -0.5430  0.1881
 3094SOL    HW212142   2.108   6.246   1.544  1.3871 -1.1183  0.3429
 3094SOL    HW312143   2.240   6.297   1.490  0.4715  0.8615 -0.1240
 3094SOL    MW412144   2.153   6.304   1.497  0.3729 -0.4336  0.1674
 3095SOL     OW12145   0.343   0.449   2.112 -0.6313  0.5602 -0.1741
 3095SOL    HW212146   0.419   0.392   2.101 -0.3595  1.2155 -2.0986
 3095SOL    HW312147   0.268   0.392   2.094 -0.5563  0.1320  0.8219
 3095SOL    MW412148   0.343   0.434   2.108 -0.5856  0.5902 -0.2966
 3096SOL     OW12149   4.137   0.879   1.410 -0.2782 -0.0005  0.0067
 3096SOL    HW212150   4.144   0.875   1.315  0.8096 -0.2501  0.0868
 3096SOL    HW312151   4.164   0.792   1.441 -0.8917 -0.0112  0.5256
 3096SOL    MW412152   4.142   0.867   1.402 -0.2156 -0.0348  0.0857
 3097SOL     OW12153   2.154   3.149   5.391 -0.2075  0.2723 -0.3472
 3097SOL    HW212154   2.060   3.161   5.386 -0.2766 -0.0530  0.1244
 3097SOL    HW312155   2.167   3.055   5.375  0.1679  0.5712 -2.0256
 3097SOL    MW412156   2.144   3.138   5.388 -0.1671  0.2688 -0.5064
 3098SOL     OW12157   3.723   5.061   2.184 -0.0083 -0.2134  0.1811
 3098SOL    HW212158   3.764   5.144   2.208 -0.8243  0.9472 -2.1469
 3098SOL    HW312159   3.795   4.999   2.175  1.0937  1.2961 -1.9787
 3098SOL    MW412160   3.738   5.064   2.186  0.0294  0.1389 -0.4110
 3099SOL     OW12161   1.373   0.197   4.485  0.2185 -0.4000  0.4744
 3099SOL    HW212162   1.410   0.280   4.454 -0.2010 -0.3898 -0.0181
 3099SOL    HW312163   1.398   0.133   4.418  1.7260 -0.9802  1.5256
 3099SOL    MW412164   1.381   0.200   4.472  0.3621 -0.4752  0.5481
 3100SOL     OW12165   2.486   3.918   0.743 -0.1043 -0.1199  0.3799
 3100SOL    HW212166   2.414   3.947   0.687 -1.8931 -1.2950  1.9194
 3100SOL    HW312167   2.509   3.995   0.795  0.1575  0.4155 -0.5083
 3100SOL    MW412168   2.479   3.932   0.743 -0.3058 -0.2043  0.4658
 3101SOL     OW12169   2.314   1.604   1.829 -0.2100  0.5593 -0.2917
 3101SOL    HW212170   2.241   1.574   1.775  1.2490 -0.3315 -1.8521
 3101SOL    HW312171   2.302   1.560   1.913 -0.2581 -1.3894 -1.2715
 3101SOL    MW412172   2.303   1.594   1.833 -0.0238  0.1846 -0.6269
 3102SOL     OW12173   4.183   1.034   3.213 -0.8072  0.0344  0.1973
 3102SOL    HW212174   4.131   0.956   3.198 -0.0406 -0.2749 -1.0860
 3102SOL    HW312175   4.128   1.106   3.183 -1.1100 -0.1237  0.3755
 3102SOL    MW412176   4.169   1.033   3.207 -0.7460 -0.0273  0.0515
 3103SOL     OW12177   0.383   3.916   5.187 -0.2664 -0.2233 -0.2036
 3103SOL    HW212178   0.442   3.854   5.228  0.0189 -0.6579 -1.2452
 3103SOL    HW312179   0.427   4.001   5.197 -0.2311 -0.3070  0.4153
 3103SOL    MW412180   0.397   3.919   5.194 -0.2241 -0.2917 -0.2594
 3104SOL     OW12181   2.063   1.115   4.322 -0.2708 -0.5377  0.0271
 3104SOL    HW212182   2.121   1.108   4.397 -2.2691  0.4311  1.7771
 3104SOL    HW312183   2.078   1.203   4.287  0.0776 -0.6967 -0.2368
 3104SOL    MW412184   2.072   1.125   4.327 -0.4885 -0.4309  0.2232
 3105SOL     OW12185   3.950   2.727   1.969  0.2609 -0.0959 -0.5286
 3105SOL    HW212186   3.885   2.713   2.039  0.3445  0.0561 -0.4197
 3105SOL    HW312187   3.951   2.644   1.921 -0.1436 -0.0393 -0.6397
 3105SOL    MW412188   3.942   2.714   1.972  0.2185 -0.0684 -0.5289
 3106SOL     OW12189   6.089   2.756   1.903 -0.5079 -0.0840  0.5708
 3106SOL    HW212190   6.124   2.677   1.860  1.2634  0.9110  0.0832
 3106SOL    HW312191   6.017   2.784   1.847  0.9847  0.5048 -1.1424
 3106SOL    MW412192   6.084   2.749   1.890 -0.0773  0.1250  0.2805
 3107SOL     OW12193   3.652   0.552   3.361 -0.2619  0.2077  0.3373
 3107SOL    HW212194   3.706   0.501   3.301  0.5581  0.0790  1.1685
 3107SOL    HW312195   3.697   0.636   3.368 -0.5695  0.3629  0.4674
 3107SOL    MW412196   3.665   0.557   3.354 -0.1943  0.2112  0.4641
 3108SOL     OW12197   3.913   1.392   1.980  0.1222 -0.1095  0.4708
 3108SOL    HW212198   3.916   1.298   1.999  0.6542 -0.1552  0.1760
 3108SOL    HW312199   3.820   1.415   1.990 -0.2020 -0.8921 -0.5041
 3108SOL    MW412200   3.901   1.383   1.984  0.1496 -0.2188  0.3033
 3109SOL     OW12201   3.042   1.488   0.933 -0.7093  0.0682 -0.6196
 3109SOL    HW212202   3.101   1.441   0.992  1.4847 -0.7032 -3.2269
 3109SOL    HW312203   2.980   1.533   0.991  2.7758  1.4458  2.3877
 3109SOL    MW412204   3.041   1.488   0.949  0.0400  0.1482 -0.5668
 3110SOL     OW12205   0.845   4.351   2.762 -0.6195 -0.3492 -0.6035
 3110SOL    HW212206   0.780   4.295   2.719 -0.0449 -1.3496 -0.2069
 3110SOL    HW312207   0.893   4.392   2.690 -2.6722  1.6559 -0.9407
 3110SOL    MW412208   0.843   4.349   2.747 -0.8145 -0.2167 -0.5956
 3111SOL     OW12209   5.131   1.749   0.387 -0.2525  0.1486 -0.4578
 3111SOL    HW212210   5.118   1.669   0.336 -0.2697 -0.7386  0.8990
 3111SOL    HW312211   5.220   1.778   0.365 -0.0699 -0.5104 -0.5901
 3111SOL    MW412212   5.141   1.742   0.377 -0.2307 -0.0554 -0.2963
 3112SOL     OW12213   3.501   2.689   6.140 -0.7719  0.6950 -0.0717
 3112SOL    HW212214   3.415   2.649   6.124 -0.9600  0.5431  1.2550
 3112SOL    HW312215   3.524   2.662   6.228  0.2993  1.3780 -0.1296
 3112SOL    MW412216   3.492   2.680   6.149 -0.6554  0.7651  0.0957
 3113SOL     OW12217   1.963   1.782   5.361 -0.3422  0.1111  0.1978
 3113SOL    HW212218   1.943   1.874   5.375  1.2915  0.3276  1.4567
 3113SOL    HW312219   2.011   1.780   5.278  0.0159  0.4654  0.3935
 3113SOL    MW412220   1.967   1.794   5.352 -0.0794  0.1864  0.3897
 3114SOL     OW12221   0.531   0.474   4.348  0.3044  0.4460 -0.6151
 3114SOL    HW212222   0.484   0.472   4.264 -1.6707  1.9883  0.3568
 3114SOL    HW312223   0.542   0.382   4.371 -1.7585 -0.0193 -1.2245
 3114SOL    MW412224   0.526   0.461   4.340 -0.2283  0.5881 -0.5673
 3115SOL     OW12225   5.275   4.024   1.420  0.3114  0.1231 -0.1070
 3115SOL    HW212226   5.182   4.000   1.414  0.4127 -0.0687 -0.9449
 3115SOL    HW312227   5.293   4.073   1.340 -0.0238  3.6396  1.7654
 3115SOL    MW412228   5.265   4.027   1.409  0.2806  0.5617  0.0295
 3116SOL     OW12229   3.750   2.934   4.580  0.0868 -0.0657 -0.5549
 3116SOL    HW212230   3.762   2.907   4.671 -1.9878 -0.0835 -0.2217
 3116SOL    HW312231   3.719   2.855   4.536 -0.2394  0.2713 -0.9411
 3116SOL    MW412232   3.747   2.920   4.586 -0.2300 -0.0236 -0.5619
 3117SOL     OW12233   4.039   4.663   1.358  0.0838  0.2110 -0.4750
 3117SOL    HW212234   4.127   4.699   1.369  0.6258 -1.3597  0.6340
 3117SOL    HW312235   4.030   4.599   1.429 -0.6888 -2.0919 -2.5122
 3117SOL    MW412236   4.049   4.659   1.369  0.0534 -0.3000 -0.5975
 3118SOL     OW12237   1.803   3.606   4.873 -0.1269 -0.3541  0.6796
 3118SOL    HW212238   1.760   3.564   4.799 -2.0152  0.3230  1.3331
 3118SOL    HW312239   1.839   3.534   4.924  0.6658 -0.8639 -0.5492
 3118SOL    MW412240   1.802   3.591   4.870 -0.2715 -0.3320  0.6037
 3119SOL     OW12241   3.777   4.621   2.520  0.1147  0.0852 -0.0588
 3119SOL    HW212242   3.686   4.591   2.523  0.2948 -0.4314  0.3714
 3119SOL    HW312243   3.790   4.647   2.429 -0.7517  1.1094  0.0824
 3119SOL    MW412244   3.767   4.620   2.508  0.0241  0.1522  0.0166
 3120SOL     OW12245   3.842   4.050   3.564  0.1286  0.3616  0.3442
 3120SOL    HW212246   3.795   4.117   3.614  2.0417  1.2148  1.0982
 3120SOL    HW312247   3.865   4.093   3.482  0.3130  0.2311  0.3266
 3120SOL    MW412248   3.839   4.064   3.560  0.4053  0.4569  0.4413
 3121SOL     OW12249   1.663   1.660   4.583 -0.5879  0.0782  0.1111
 3121SOL    HW212250   1.724   1.597   4.545 -0.0235  0.5277  0.2520
 3121SOL    HW312251   1.717   1.714   4.641 -0.2332  2.9879 -2.6169
 3121SOL    MW412252   1.678   1.659   4.586 -0.4666  0.5214 -0.2302
 3122SOL     OW12253   6.414   4.078   5.843 -0.0486 -0.1686  0.2730
 3122SOL    HW212254   6.434   3.990   5.874 -0.9130 -1.1984 -1.8885
 3122SOL    HW312255   6.394   4.067   5.750 -0.0112  2.3492 -0.1063
 3122SOL    MW412256   6.414   4.065   5.834 -0.1577  0.0278 -0.0622
 3123SOL     OW12257   1.951   2.376   2.496  0.0895 -0.2410  0.1963
 3123SOL    HW212258   1.924   2.350   2.408 -0.9026  0.0318  0.4076
 3123SOL    HW312259   1.981   2.295   2.537 -2.2034 -0.9929  0.5800
 3123SOL    MW412260   1.951   2.362   2.490 -0.3439 -0.3042  0.2748
 3124SOL     OW12261   5.661   6.147   2.665 -0.3965  0.7436  0.8770
 3124SOL    HW212262   5.756   6.154   2.666 -0.1088 -1.7087  3.6082
 3124SOL    HW312263   5.631   6.238   2.656  2.1057  1.5032 -0.9472
 3124SOL    MW412264   5.669   6.160   2.664 -0.0284  0.5202  0.9967
 3125SOL     OW12265   1.130   3.213   5.206  0.7313 -0.2585  0.2846
 3125SOL    HW212266   1.089   3.299   5.199  0.4070 -0.4402 -0.0437
 3125SOL    HW312267   1.083   3.158   5.144  1.8584 -0.3199 -0.5430
 3125SOL    MW412268   1.119   3.217   5.197  0.8372 -0.2906  0.1321
 3126SOL     OW12269   4.865   2.310   0.199  0.8547 -0.5313  0.7085
 3126SOL    HW212270   4.940   2.277   0.149  1.2321  0.4242  0.6380
 3126SOL    HW312271   4.903   2.374   0.259 -0.0789  1.0723 -0.3512
 3126SOL    MW412272   4.880   2.314   0.200  0.7813 -0.1936  0.5594
 3127SOL     OW12273   3.488   6.376   5.400  0.4090 -0.6990 -0.0859
 3127SOL    HW212274   3.529   6.309   5.346 -3.1360 -2.3864 -0.9850
 3127SOL    HW312275   3.419   6.330   5.448 -1.3158  2.0183  0.2684
 3127SOL    MW412276   3.484   6.361   5.399 -0.2863 -0.5631 -0.1578
 3128SOL     OW12277   0.711   3.325   4.140 -0.3390  0.1005  0.2842
 3128SOL    HW212278   0.743   3.289   4.057  1.1854 -0.0351  0.8949
 3128SOL    HW312279   0.784   3.379   4.172 -1.8522  2.2392  0.3128
 3128SOL    MW412280   0.725   3.327   4.133 -0.3376  0.3648  0.3685
 3129SOL     OW12281   1.450   3.606   2.357  0.6245  0.4533  0.2014
 3129SOL    HW212282   1.472   3.696   2.380  1.1112  0.8943 -1.8516
 3129SOL    HW312283   1.531   3.569   2.323  0.4070 -0.7549  0.9202
 3129SOL    MW412284   1.464   3.613   2.356  0.6600  0.3521  0.0254
 3130SOL     OW12285   1.303   1.350   3.033  0.6332 -0.1131 -0.8468
 3130SOL    HW212286   1.212   1.324   3.021  1.1044 -1.5258 -1.5971
 3130SOL    HW312287   1.302   1.445   3.026 -1.1241  0.1305  1.6212
 3130SOL    MW412288   1.291   1.359   3.031  0.4635 -0.2673 -0.6201
 3131SOL     OW12289   5.757   3.043   5.274 -0.3646  0.1551 -0.0171
 3131SOL    HW212290   5.712   2.960   5.289 -0.2356  0.2001  0.6560
 3131SOL    HW312291   5.751   3.057   5.180 -0.2383 -0.7087 -0.1666
 3131SOL    MW412292   5.750   3.034   5.264 -0.3309  0.0471  0.0520
 3132SOL     OW12293   3.973   5.023   5.358  0.0231  0.6968  0.2934
 3132SOL    HW212294   4.031   4.972   5.415  1.2406  1.5356 -0.1298
 3132SOL    HW312295   3.956   5.103   5.407  0.1978  0.9630 -0.0753
 3132SOL    MW412296   3.979   5.027   5.372  0.2068  0.8426  0.1889
 3133SOL     OW12297   5.106   4.216   6.027  0.4708  0.2185  0.1649
 3133SOL    HW212298   5.159   4.200   5.948 -0.5585 -1.6870 -0.2015
 3133SOL    HW312299   5.019   4.235   5.993  0.5125  1.7722  0.8255
 3133SOL    MW412300   5.102   4.217   6.012  0.3405  0.1721  0.2037
 3134SOL     OW12301   5.429   4.706   5.419 -0.0193 -0.1478 -0.4743
 3134SOL    HW212302   5.482   4.781   5.446  1.6816 -1.5420  0.2698
 3134SOL    HW312303   5.346   4.716   5.466  0.9132  0.2677  1.1336
 3134SOL    MW412304   5.425   4.717   5.429  0.3281 -0.2769 -0.1640
 3135SOL     OW12305   2.568   1.702   2.026 -0.3062  0.5743 -0.1968
 3135SOL    HW212306   2.503   1.769   2.005  1.3153  2.1259 -0.5410
 3135SOL    HW312307   2.638   1.715   1.961  0.3785 -0.9884  0.1780
 3135SOL    MW412308   2.569   1.712   2.015 -0.0019  0.5729 -0.1927
 3136SOL     OW12309   0.404   3.047   3.347 -0.4913 -0.2200  0.3659
 3136SOL    HW212310   0.350   3.099   3.407 -1.1221 -1.2630  0.7173
 3136SOL    HW312311   0.487   3.096   3.341 -1.5533  1.5863 -0.4403
 3136SOL    MW412312   0.408   3.060   3.354 -0.7146 -0.1193  0.3059
 3137SOL     OW12313   3.787   2.288   0.338  0.3957 -0.5447  0.6042
 3137SOL    HW212314   3.752   2.305   0.425  0.4005 -0.0009  0.5041
 3137SOL    HW312315   3.802   2.194   0.336 -1.1130 -0.7987  0.6243
 3137SOL    MW412316   3.785   2.278   0.349  0.1973 -0.5065  0.5937
 3138SOL     OW12317   1.613   1.648   0.229 -0.1040 -0.5913 -0.1619
 3138SOL    HW212318   1.661   1.653   0.146 -0.0044  0.9633 -0.0502
 3138SOL    HW312319   1.532   1.696   0.213 -2.1162 -3.8714 -0.5896
 3138SOL    MW412320   1.609   1.655   0.216 -0.3563 -0.8190 -0.2036
 3139SOL     OW12321   0.738   4.950   2.123 -0.0702  0.4270 -0.1312
 3139SOL    HW212322   0.831   4.930   2.115 -0.2731 -0.6602  0.0292
 3139SOL    HW312323   0.721   4.949   2.217 -0.1057  1.2935 -0.1287
 3139SOL    MW412324   0.748   4.947   2.134 -0.1017  0.3979 -0.1097
 3140SOL     OW12325   1.990   0.738   6.210  0.4283 -0.4000 -0.2800
 3140SOL    HW212326   2.025   0.794   6.279  0.5844  0.6922 -1.2222
 3140SOL    HW312327   2.028   0.652   6.227  1.2038  0.0782  0.4423
 3140SOL    MW412328   2.000   0.734   6.222  0.5512 -0.1928 -0.3090
 3141SOL     OW12329   1.102   3.402   5.490  0.1904  0.4090  0.1646
 3141SOL    HW212330   1.089   3.309   5.505  1.6673 -0.2401 -2.0577
 3141SOL    HW312331   1.195   3.417   5.510  0.2106  1.1727 -0.4199
 3141SOL    MW412332   1.113   3.392   5.494  0.3880  0.4241 -0.2058
 3142SOL     OW12333   4.620   3.806   1.165  0.2623  0.3072 -0.1958
 3142SOL    HW212334   4.577   3.758   1.094  1.3216 -1.8008  0.4794
 3142SOL    HW312335   4.658   3.883   1.123 -0.8209  0.1578 -1.5155
 3142SOL    MW412336   4.619   3.809   1.150  0.2591  0.0094 -0.2808
 3143SOL     OW12337   1.979   0.110   3.989  0.1887  0.3980 -0.1708
 3143SOL    HW212338   1.892   0.145   3.974 -0.1728 -0.5297 -0.2746
 3143SOL    HW312339   1.967   0.043   4.056  1.0435  1.2015  0.8278
 3143SOL    MW412340   1.966   0.106   3.996  0.2538  0.3817 -0.0527
 3144SOL     OW12341   4.284   2.956   2.421 -0.2817  0.5988 -0.8615
 3144SOL    HW212342   4.199   2.918   2.401 -0.1527 -0.0635 -0.1651
 3144SOL    HW312343   4.319   2.983   2.335 -0.8106  0.0825 -1.2475
 3144SOL    MW412344   4.278   2.955   2.407 -0.3344  0.4433 -0.8205
 3145SOL     OW12345   4.420   1.803   2.480  0.6635 -0.5735  0.5454
 3145SOL    HW212346   4.506   1.824   2.518  0.3927  0.8846  0.4297
 3145SOL    HW312347   4.358   1.821   2.551  0.3772 -0.5571  0.2934
 3145SOL    MW412348   4.423   1.808   2.494  0.5900 -0.3789  0.4969
 3146SOL     OW12349   0.855   0.340   1.183 -0.2504 -0.5031 -0.2571
 3146SOL    HW212350   0.851   0.436   1.187 -1.5889 -0.5331 -0.5470
 3146SOL    HW312351   0.939   0.322   1.141 -0.5539  0.5755 -1.3932
 3146SOL    MW412352   0.866   0.351   1.178 -0.4670 -0.3648 -0.4452
 3147SOL     OW12353   0.977   2.161   2.932 -0.3312  0.1521  0.0565
 3147SOL    HW212354   0.884   2.183   2.931  0.1557  2.4425 -0.5428
 3147SOL    HW312355   0.984   2.083   2.876 -1.8842 -0.1874  0.2804
 3147SOL    MW412356   0.966   2.153   2.924 -0.4719  0.4095  0.0070
 3148SOL     OW12357   3.990   3.175   5.365 -0.2320 -0.4097  0.3291
 3148SOL    HW212358   3.965   3.118   5.292  0.7723  0.2060 -0.5189
 3148SOL    HW312359   3.951   3.260   5.342 -0.5641 -0.4070  0.9003
 3148SOL    MW412360   3.981   3.179   5.352 -0.1433 -0.3281  0.2926
 3149SOL     OW12361   4.592   4.321   2.217  0.0132 -0.3258  0.2960
 3149SOL    HW212362   4.533   4.370   2.275 -1.0994 -1.1194 -0.1359
 3149SOL    HW312363   4.661   4.289   2.275 -1.1731 -1.2507  1.2314
 3149SOL    MW412364   4.593   4.323   2.232 -0.2901 -0.5525  0.3625
 3150SOL     OW12365   2.981   3.740   3.687 -0.0171  0.0117 -0.2749
 3150SOL    HW212366   3.053   3.784   3.642 -0.5162  1.4305  0.2544
 3150SOL    HW312367   2.944   3.807   3.745 -0.3019 -1.3541  1.1857
 3150SOL    MW412368   2.986   3.754   3.689 -0.1205  0.0187 -0.0124
 3151SOL     OW12369   0.108   1.022   5.250 -0.5914 -0.3956 -0.3554
 3151SOL    HW212370   0.187   1.043   5.299 -1.7639  0.2194  1.3785
 3151SOL    HW312371   0.112   0.928   5.235 -0.5127 -0.7184  1.5556
 3151SOL    MW412372   0.119   1.013   5.254 -0.7357 -0.3570  0.1255
 3152SOL     OW12373   2.156   4.550   2.892 -0.0287 -0.1363  0.0331
 3152SOL    HW212374   2.239   4.593   2.912 -0.2154 -0.2336  1.0808
 3152SOL    HW312375   2.132   4.506   2.974 -0.9016 -0.4540 -0.3869
 3152SOL    MW412376   2.164   4.550   2.906 -0.1685 -0.1910  0.1159
 3153SOL     OW12377   6.142   5.052   4.041 -0.3834  0.3919  0.2979
 3153SOL    HW212378   6.098   5.059   4.126 -0.3881 -0.9602  0.4171
 3153SOL    HW312379   6.220   4.999   4.058  0.5342  1.5145 -0.2183
 3153SOL    MW412380   6.147   5.046   4.054 -0.2630  0.3616  0.2456
 3154SOL     OW12381   1.157   2.883   5.170 -0.2706 -0.3578  0.1971
 3154SOL    HW212382   1.233   2.868   5.114 -0.7323 -0.6340 -0.3625
 3154SOL    HW312383   1.113   2.798   5.174  0.4492 -0.6827  2.0414
 3154SOL    MW412384   1.161   2.870   5.163 -0.2366 -0.4371  0.3666
 3155SOL     OW12385   4.755   1.066   3.266  0.2606  0.2233  0.3990
 3155SOL    HW212386   4.678   1.009   3.266 -0.5996  1.3307 -1.0593
 3155SOL    HW312387   4.747   1.118   3.346 -0.8268  0.7277 -0.0275
 3155SOL    MW412388   4.744   1.065   3.277  0.0037  0.4360  0.1503
 3156SOL     OW12389   3.390   3.874   4.655  0.0057  0.3748  0.1712
 3156SOL    HW212390   3.429   3.871   4.568 -1.0466  0.5425 -0.3110
 3156SOL    HW312391   3.444   3.814   4.707 -0.4259 -1.1271 -1.0421
 3156SOL    MW412392   3.402   3.866   4.651 -0.1901  0.1988 -0.0525
 3157SOL     OW12393   3.969   5.737   1.121  0.3342 -0.1213 -0.1648
 3157SOL    HW212394   3.960   5.782   1.205  1.9283  1.3648 -0.7422
 3157SOL    HW312395   3.910   5.784   1.063  0.4093 -0.1385 -0.2544
 3157SOL    MW412396   3.960   5.749   1.125  0.5545  0.0725 -0.2528
 3158SOL     OW12397   4.455   0.667   3.395  0.2659  0.0486 -0.0998
 3158SOL    HW212398   4.391   0.714   3.449 -1.0919 -1.9574  0.1519
 3158SOL    HW312399   4.488   0.598   3.451  0.2850 -0.8912 -1.2258
 3158SOL    MW412400   4.451   0.664   3.409  0.0893 -0.3401 -0.2151
 3159SOL     OW12401   2.355   1.529   5.191  0.4282 -0.3040  0.2344
 3159SOL    HW212402   2.341   1.574   5.274 -0.0890 -0.4210  0.2140
 3159SOL    HW312403   2.269   1.494   5.168  0.8120 -1.3159  0.2628
 3159SOL    MW412404   2.342   1.530   5.199  0.4106 -0.4529  0.2355
 3160SOL     OW12405   3.779   5.853   5.137  0.3665 -0.1323 -0.6277
 3160SOL    HW212406   3.724   5.891   5.069  0.7779  0.6606 -0.5279
 3160SOL    HW312407   3.798   5.926   5.196 -0.5191 -0.9158  0.7163
 3160SOL    MW412408   3.774   5.868   5.136  0.3039 -0.1311 -0.4372
 3161SOL     OW12409   1.000   0.638   5.427  0.1468 -0.1836  0.5406
 3161SOL    HW212410   0.958   0.655   5.344  0.3678  0.2821  0.5224
 3161SOL    HW312411   0.931   0.602   5.483 -0.0331 -0.3571  0.2067
 3161SOL    MW412412   0.985   0.635   5.424  0.1523 -0.1451  0.4942
 3162SOL     OW12413   2.204   2.291   0.448  0.0257 -0.0516  0.2416
 3162SOL    HW212414   2.234   2.301   0.358  1.0340  3.8272  0.8212
 3162SOL    HW312415   2.266   2.341   0.500 -1.2114 -1.1422  2.9802
 3162SOL    MW412416   2.216   2.299   0.443 -0.0045  0.3163  0.6794
 3163SOL     OW12417   4.428   1.229   5.393  0.0044  0.0889 -0.2467
 3163SOL    HW212418   4.400   1.316   5.421  1.4802  0.0568  1.5938
 3163SOL    HW312419   4.353   1.192   5.347 -1.7139  1.2122  1.5320
 3163SOL    MW412420   4.415   1.236   5.391 -0.0276  0.2329  0.2308
 3164SOL     OW12421   1.977   5.290   0.372  0.0841  0.1365 -0.1779
 3164SOL    HW212422   2.026   5.363   0.335  1.2636  0.5123  1.9287
 3164SOL    HW312423   1.886   5.319   0.373  0.6475  2.0984  1.5810
 3164SOL    MW412424   1.971   5.304   0.367  0.3141  0.4450  0.3321
 3165SOL     OW12425   1.463   4.899   0.776  0.2043 -0.4518  0.2318
 3165SOL    HW212426   1.378   4.861   0.797 -0.2961 -0.0946 -1.0296
 3165SOL    HW312427   1.526   4.829   0.793 -0.0782 -0.0995  3.1266
 3165SOL    MW412428   1.460   4.885   0.781  0.1010 -0.3582  0.4473
 3166SOL     OW12429   1.338   0.498   3.837 -0.9993 -0.5283 -0.2084
 3166SOL    HW212430   1.337   0.415   3.788 -2.6104 -0.8353  0.2859
 3166SOL    HW312431   1.270   0.487   3.904  0.5796  0.2046  1.5899
 3166SOL    MW412432   1.329   0.485   3.839 -1.0036 -0.4721  0.0941
 3167SOL     OW12433   5.574   3.707   4.846 -0.3114 -0.2552  0.1259
 3167SOL    HW212434   5.581   3.631   4.789 -0.7252 -1.8854  2.0935
 3167SOL    HW312435   5.486   3.742   4.830 -0.3584 -0.5921 -0.3428
 3167SOL    MW412436   5.563   3.701   4.837 -0.3722 -0.5148  0.3236
 3168SOL     OW12437   1.786   6.056   6.363 -0.2581 -0.2277 -0.2642
 3168SOL    HW212438   1.805   6.144   6.330 -1.9308 -0.1449 -1.1308
 3168SOL    HW312439   1.777   6.068   6.457  1.9522  0.0376 -0.0334
 3168SOL    MW412440   1.787   6.069   6.371 -0.1871 -0.1818 -0.3481
 3169SOL     OW12441   5.001   0.900   1.687 -0.4785  0.8526  0.8373
 3169SOL    HW212442   4.913   0.928   1.663 -0.5671  1.4699  1.8450
 3169SOL    HW312443   5.044   0.979   1.719 -0.0454  0.2734  1.7474
 3169SOL    MW412444   4.995   0.914   1.688 -0.4330  0.8576  1.0903
 3170SOL     OW12445   1.923   2.051   5.416 -0.0808  0.1653  0.5723
 3170SOL    HW212446   1.879   2.098   5.487  1.5799  0.2450  1.6181
 3170SOL    HW312447   2.010   2.090   5.413  0.7376 -1.6019  0.2386
 3170SOL    MW412448   1.929   2.063   5.425  0.2463 -0.0574  0.6663
 3171SOL     OW12449   3.671   5.422   1.563 -0.2874 -0.0740 -0.4245
 3171SOL    HW212450   3.616   5.345   1.577  0.3337 -0.1644  2.0251
 3171SOL    HW312451   3.760   5.392   1.584  0.1278  1.0205 -0.5696
 3171SOL    MW412452   3.676   5.408   1.567 -0.1507  0.0585 -0.1205
 3172SOL     OW12453   6.223   3.681   2.941  0.4020  0.2649 -0.4818
 3172SOL    HW212454   6.218   3.650   2.851  2.6059  0.9440 -0.9198
 3172SOL    HW312455   6.309   3.724   2.946  0.3328  0.2463  1.9420
 3172SOL    MW412456   6.234   3.683   2.930  0.6836  0.3521 -0.2198
 3173SOL     OW12457   0.323   1.468   4.756 -0.3419  0.1335 -0.4484
 3173SOL    HW212458   0.332   1.537   4.690  1.6007  0.2970 -0.0688
 3173SOL    HW312459   0.288   1.513   4.833  0.3557  0.5852 -0.3895
 3173SOL    MW412460   0.319   1.483   4.757  0.0065  0.2147 -0.3906
 3174SOL     OW12461   1.345   4.998   4.730  0.1035 -0.6185 -0.3663
 3174SOL    HW212462   1.355   4.957   4.644 -0.0587 -1.4594  0.0048
 3174SOL    HW312463   1.435   5.005   4.763  0.2862  0.8228 -1.0896
 3174SOL    MW412464   1.358   4.994   4.723  0.1062 -0.5393 -0.4127
 3175SOL     OW12465   4.089   1.996   4.373  0.0233 -0.1337  0.0673
 3175SOL    HW212466   4.175   1.958   4.393 -0.5501 -1.1095  0.7651
 3175SOL    HW312467   4.029   1.922   4.376 -0.8431  0.5269 -0.4823
 3175SOL    MW412468   4.093   1.981   4.376 -0.1667 -0.1753  0.0868
 3176SOL     OW12469   1.655   0.305   0.573  0.5400 -0.3990  0.1603
 3176SOL    HW212470   1.581   0.245   0.571  0.1217  0.1026 -1.0018
 3176SOL    HW312471   1.704   0.285   0.493  0.0498  1.1718 -0.5754
 3176SOL    MW412472   1.652   0.295   0.562  0.4202 -0.1256 -0.0901
 3177SOL     OW12473   1.999   6.207   5.997 -0.7258 -0.3792  0.5662
 3177SOL    HW212474   1.981   6.237   6.086 -1.0638  0.6962  0.1475
 3177SOL    HW312475   1.938   6.255   5.942  2.1220  2.1004 -0.7162
 3177SOL    MW412476   1.989   6.217   6.001 -0.3946  0.0898  0.3418
 3178SOL     OW12477   1.048   3.112   3.543 -0.3697  0.3027 -0.4421
 3178SOL    HW212478   1.080   3.182   3.487 -0.9525  0.1563 -0.9732
 3178SOL    HW312479   0.975   3.074   3.494 -2.1056  1.3593  1.1928
 3178SOL    MW412480   1.042   3.116   3.529 -0.6756  0.4228 -0.2965
 3179SOL     OW12481   2.534   1.768   2.422 -0.1838 -0.2683 -0.0527
 3179SOL    HW212482   2.561   1.735   2.508 -0.6182  0.3644  0.3303
 3179SOL    HW312483   2.605   1.741   2.363  0.4815 -0.0624  0.6369
 3179SOL    MW412484   2.547   1.760   2.426 -0.1533 -0.1577  0.0888
 3180SOL     OW12485   5.903   5.879   6.425 -0.6359 -0.4840  0.2694
 3180SOL    HW212486   5.852   5.803   6.395 -1.9318  0.3618  0.2348
 3180SOL    HW312487   5.855   5.955   6.390  0.3773  0.3685  0.6847
 3180SOL    MW412488   5.890   5.879   6.416 -0.6732 -0.2599  0.3196
 3181SOL     OW12489   3.912   4.467   2.998 -0.0289 -0.0932  0.3076
 3181SOL    HW212490   3.886   4.498   3.085 -1.4513  0.0184 -0.1240
 3181SOL    HW312491   3.872   4.530   2.937  0.5843 -0.4157 -0.4479
 3181SOL    MW412492   3.903   4.480   3.001 -0.1357 -0.1210  0.1510
 3182SOL     OW12493   5.686   1.717   0.182  0.4665  0.4630 -0.2786
 3182SOL    HW212494   5.781   1.729   0.185  0.3060  1.8228  1.0107
 3182SOL    HW312495   5.651   1.803   0.207 -1.1261  0.1938 -1.4371
 3182SOL    MW412496   5.694   1.730   0.186  0.2352  0.6069 -0.2613
 3183SOL     OW12497   5.534   4.219   2.750  0.2055 -0.1057  0.0952
 3183SOL    HW212498   5.618   4.226   2.704  1.3805 -2.8135  1.5694
 3183SOL    HW312499   5.516   4.126   2.754 -2.2618  0.3251  0.9903
 3183SOL    MW412500   5.543   4.208   2.745  0.0350 -0.4061  0.4078
 3184SOL     OW12501   4.582   0.554   0.061 -0.4963 -0.4097  0.1011
 3184SOL    HW212502   4.502   0.607   0.067 -0.3242 -0.1037 -0.2614
 3184SOL    HW312503   4.614   0.549   0.152 -0.7415 -0.2507  0.1978
 3184SOL    MW412504   4.576   0.560   0.074 -0.5059 -0.3484  0.0661
 3185SOL     OW12505   6.161   3.634   3.656  0.0959  0.4621  0.5270
 3185SOL    HW212506   6.072   3.603   3.672 -0.0311  0.5030 -0.0905
 3185SOL    HW312507   6.192   3.582   3.583 -0.1305  1.7656 -0.5465
 3185SOL    MW412508   6.153   3.623   3.649  0.0492  0.6395  0.3039
 3186SOL     OW12509   3.898   5.063   6.189  0.1828  0.0699  0.2139
 3186SOL    HW212510   3.892   4.996   6.257  0.0066 -0.6747 -0.5187
 3186SOL    HW312511   3.808   5.092   6.176  0.1578 -0.0975  0.0028
 3186SOL    MW412512   3.886   5.058   6.196  0.1562 -0.0504  0.0894
 3187SOL     OW12513   0.725   0.886   5.342  0.3071 -0.1374  0.4183
 3187SOL    HW212514   0.702   0.849   5.427 -0.7397  1.3260  0.8159
 3187SOL    HW312515   0.797   0.946   5.360 -2.4309  3.2833  1.1464
 3187SOL    MW412516   0.731   0.889   5.356 -0.1922  0.5070  0.5668
 3188SOL     OW12517   2.150   6.184   0.930 -0.0471 -0.0730 -0.1171
 3188SOL    HW212518   2.242   6.187   0.902  0.2715 -1.4419  0.6930
 3188SOL    HW312519   2.154   6.167   1.024 -1.1133 -1.0947 -0.2267
 3188SOL    MW412520   2.163   6.182   0.939 -0.1457 -0.3884 -0.0247
 3189SOL     OW12521   6.303   0.735   2.332 -0.3325 -0.0202  0.3102
 3189SOL    HW212522   6.380   0.790   2.347 -0.5520 -0.2034  2.4723
 3189SOL    HW312523   6.324   0.685   2.254  0.5014  2.0272 -0.8477
 3189SOL    MW412524   6.316   0.736   2.324 -0.2514  0.2257  0.4427
 3190SOL     OW12525   4.745   1.180   1.160  0.5292 -0.3269  0.6367
 3190SOL    HW212526   4.653   1.203   1.174  0.2821 -1.7853  1.6936
 3190SOL    HW312527   4.789   1.263   1.144 -1.1238  0.3144 -0.8696
 3190SOL    MW412528   4.739   1.194   1.160  0.2785 -0.4347  0.5774
 3191SOL     OW12529   3.009   2.305   3.559  0.1105  0.0301 -0.2947
 3191SOL    HW212530   3.052   2.221   3.575 -0.5685 -0.2546  0.0793
 3191SOL    HW312531   3.035   2.359   3.633  0.5971  0.1719 -0.5666
 3191SOL    MW412532   3.018   2.301   3.571  0.0851  0.0112 -0.2813
 3192SOL     OW12533   0.074   2.715   4.913 -0.4918  0.3344 -0.0922
 3192SOL    HW212534   0.088   2.674   4.828  0.5498  0.7984 -0.1635
 3192SOL    HW312535   0.056   2.642   4.973  1.1175 -0.2299 -0.2508
 3192SOL    MW412536   0.073   2.700   4.910 -0.1420  0.3212 -0.1226
 3193SOL     OW12537   1.608   0.018   5.010  0.0590 -0.0552 -0.1446
 3193SOL    HW212538   1.642  -0.017   4.928  3.9278  1.5319  0.5200
 3193SOL    HW312539   1.548   0.088   4.984  0.5408 -0.1748 -1.6404
 3193SOL    MW412540   1.605   0.023   4.996  0.6330  0.1384 -0.2542
 3194SOL     OW12541   3.471   0.842   2.429 -0.2262  0.5571 -0.3660
 3194SOL    HW212542   3.510   0.757   2.407  0.8327  1.4313 -2.0699
 3194SOL    HW312543   3.545   0.897   2.455 -0.8815  1.0357  0.5528
 3194SOL    MW412544   3.486   0.838   2.430 -0.1730  0.7356 -0.4696
 3195SOL     OW12545   0.696   1.821   4.719 -1.0406  0.1476  0.0608
 3195SOL    HW212546   0.706   1.776   4.803  2.0263  0.3253 -0.1192
 3195SOL    HW312547   0.731   1.761   4.654  1.0830  1.7870 -0.4447
 3195SOL    MW412548   0.702   1.807   4.722 -0.3558  0.3874 -0.0297
 3196SOL     OW12549   2.684   3.961   0.460 -0.3383 -0.0251 -0.6895
 3196SOL    HW212550   2.731   3.933   0.381  0.7358  1.6532 -0.6884
 3196SOL    HW312551   2.592   3.961   0.433  0.0355  0.8480 -2.0688
 3196SOL    MW412552   2.678   3.957   0.446 -0.1472  0.3115 -0.8713
 3197SOL     OW12553   1.585   5.411   4.548 -0.0517  0.5943 -0.5208
 3197SOL    HW212554   1.637   5.333   4.531 -0.3149  0.1929  0.4448
 3197SOL    HW312555   1.636   5.483   4.509  1.0057  0.1500 -0.0065
 3197SOL    MW412556   1.599   5.410   4.541  0.0531  0.4828 -0.3255
 3198SOL     OW12557   4.669   0.142   3.699 -0.6855 -0.4061  0.5833
 3198SOL    HW212558   4.609   0.173   3.768  0.1292  1.4852  0.4807
 3198SOL    HW312559   4.756   0.149   3.738 -0.1901  0.9294 -0.6975
 3198SOL    MW412560   4.672   0.147   3.714 -0.5127  0.0196  0.4007
 3199SOL     OW12561   0.733   1.244   5.581  0.2030 -0.3365  0.6397
 3199SOL    HW212562   0.639   1.240   5.597  0.5957 -0.6755  3.2739
 3199SOL    HW312563   0.747   1.329   5.540 -0.9882  0.9956  2.7962
 3199SOL    MW412564   0.723   1.255   5.578  0.0977 -0.2055  1.2718
 3200SOL     OW12565   5.607   3.049   4.800 -0.0123  0.0428  0.2368
 3200SOL    HW212566   5.684   2.993   4.789 -1.1368 -1.5475  0.2333
 3200SOL    HW312567   5.537   3.003   4.754 -0.8191  1.8417 -0.4253
 3200SOL    MW412568   5.608   3.036   4.792 -0.2671  0.0703  0.1490
 3201SOL     OW12569   2.744   0.655   3.007  0.2647 -0.5735 -0.4622
 3201SOL    HW212570   2.822   0.709   3.023  0.7931 -2.0039  2.3692
 3201SOL    HW312571   2.679   0.688   3.070 -0.0021 -2.0369  0.0606
 3201SOL    MW412572   2.746   0.667   3.017  0.2992 -0.9553 -0.0196
 3202SOL     OW12573   5.858   0.228   4.204  0.1870 -0.2472  0.0643
 3202SOL    HW212574   5.804   0.222   4.125 -0.6045 -1.4070  0.6579
 3202SOL    HW312575   5.836   0.313   4.242  0.8041  0.4560 -1.1118
 3202SOL    MW412576   5.848   0.238   4.199  0.1640 -0.3074 -0.0125
 3203SOL     OW12577   1.200   5.050   3.405 -0.3555 -0.7852 -0.1960
 3203SOL    HW212578   1.117   5.069   3.362 -0.0587 -0.5875 -0.6951
 3203SOL    HW312579   1.198   5.100   3.486 -1.0588 -1.4158  0.1813
 3203SOL    MW412580   1.189   5.059   3.410 -0.4092 -0.8423 -0.2121
 3204SOL     OW12581   1.903   5.548   2.667 -0.1304  0.5344  0.2857
 3204SOL    HW212582   1.836   5.566   2.600 -0.6990 -0.0767  0.6810
 3204SOL    HW312583   1.908   5.629   2.717  0.5581  1.1287 -0.6983
 3204SOL    MW412584   1.895   5.561   2.665 -0.1146  0.5322  0.2080
 3205SOL     OW12585   0.061   5.397   5.540  0.1699 -0.1482  0.2164
 3205SOL    HW212586   0.065   5.469   5.478 -0.1918  0.7114  1.1733
 3205SOL    HW312587  -0.033   5.377   5.546  0.3137 -1.1569 -0.5362
 3205SOL    MW412588   0.049   5.404   5.532  0.1412 -0.1678  0.2434
 3206SOL     OW12589   2.220   4.027   0.675  0.0582  0.4726  0.0273
 3206SOL    HW212590   2.198   4.066   0.760  2.1750  0.8065  0.4907
 3206SOL    HW312591   2.227   4.101   0.616 -0.3345  0.3448 -0.1799
 3206SOL    MW412592   2.218   4.042   0.679  0.2857  0.4998  0.0611
 3207SOL     OW12593   2.397   3.951   4.923  0.0908  0.2497 -0.3031
 3207SOL    HW212594   2.341   3.986   4.855 -0.4232  1.8051  0.8484
 3207SOL    HW312595   2.383   4.009   4.998  1.4406 -0.7416  0.7833
 3207SOL    MW412596   2.388   3.963   4.924  0.2011  0.3242 -0.0079
 3208SOL     OW12597   3.782   1.099   4.548  0.2195  0.1401  0.5672
 3208SOL    HW212598   3.795   1.181   4.596 -1.1290  0.6580  0.0986
 3208SOL    HW312599   3.698   1.111   4.503 -0.0969 -1.5678  0.6381
 3208SOL    MW412600   3.773   1.112   4.549 -0.0002 -0.0169  0.5147
 3209SOL     OW12601   0.486   1.393   0.611 -0.2070 -0.0161 -0.1149
 3209SOL    HW212602   0.456   1.453   0.680 -1.5421 -0.7750  0.0079
 3209SOL    HW312603   0.468   1.440   0.529  0.1398  0.3521  0.0178
 3209SOL    MW412604   0.479   1.407   0.610 -0.3374 -0.0676 -0.0812
 3210SOL     OW12605   1.802   2.556   1.595 -0.2468 -0.1760 -0.8633
 3210SOL    HW212606   1.892   2.575   1.620  0.1444 -0.0434 -2.3050
 3210SOL    HW312607   1.792   2.462   1.614 -0.8329  0.4141  2.2151
 3210SOL    MW412608   1.812   2.546   1.601 -0.2725 -0.0806 -0.6474
 3211SOL     OW12609   4.546   6.168   0.164 -0.3225  0.5427  0.9958
 3211SOL    HW212610   4.618   6.204   0.217  1.0227  0.4649 -0.6648
 3211SOL    HW312611   4.546   6.222   0.085 -1.6460  0.0684  0.6500
 3211SOL    MW412612   4.556   6.180   0.161 -0.3196  0.4698  0.7311
 3212SOL     OW12613   0.494   2.139   5.464  0.0179 -0.0663  0.1523
 3212SOL    HW212614   0.424   2.082   5.497  0.1373  0.2147  0.9071
 3212SOL    HW312615   0.458   2.227   5.470  0.9784  0.2441  2.0620
 3212SOL    MW412616   0.480   2.143   5.469  0.1604  0.0117  0.5039
 3213SOL     OW12617   5.232   3.146   5.581 -0.5030 -0.4569  0.2604
 3213SOL    HW212618   5.293   3.214   5.610 -0.5285 -0.3363  0.0341
 3213SOL    HW312619   5.147   3.174   5.614 -0.5714 -0.1958 -0.1371
 3213SOL    MW412620   5.229   3.159   5.589 -0.5154 -0.4065  0.1781
 3214SOL     OW12621   6.046   5.013   5.078  0.0679 -0.1637  0.3112
 3214SOL    HW212622   5.982   5.002   5.148  0.0182  0.1642  0.3185
 3214SOL    HW312623   6.059   5.108   5.072  0.0681 -0.1895 -0.1279
 3214SOL    MW412624   6.039   5.024   5.087  0.0613 -0.1239  0.2542
 3215SOL     OW12625   0.554   5.817   5.277 -0.0281  0.3783 -0.0662
 3215SOL    HW212626   0.484   5.854   5.224  0.4329 -0.0983 -1.0256
 3215SOL    HW312627   0.513   5.748   5.328  0.0856 -1.3072 -2.1273
 3215SOL    MW412628   0.540   5.813   5.277  0.0477  0.0930 -0.4647
 3216SOL     OW12629   1.000   0.898   5.075  0.3301 -0.1129 -0.1303
 3216SOL    HW212630   0.931   0.850   5.121 -0.3662  1.1884  0.2133
 3216SOL    HW312631   1.080   0.846   5.090 -0.3042 -0.8848  0.6427
 3216SOL    MW412632   1.002   0.885   5.083  0.1545 -0.0430  0.0170
 3217SOL     OW12633   3.715   0.507   2.944 -0.0884 -0.4547 -0.1240
 3217SOL    HW212634   3.628   0.521   2.906  0.1592 -0.0992 -0.5689
 3217SOL    HW312635   3.764   0.461   2.876  0.0317 -0.7836  0.1810
 3217SOL    MW412636   3.710   0.502   2.930 -0.0399 -0.4512 -0.1424
 3218SOL     OW12637   2.456   0.451   3.289  0.3510  0.0455  0.5011
 3218SOL    HW212638   2.535   0.475   3.241 -0.4534  1.1227 -0.3515
 3218SOL    HW312639   2.455   0.512   3.364  0.3271  0.0268  0.5159
 3218SOL    MW412640   2.466   0.463   3.293  0.2417  0.1851  0.3906
 3219SOL     OW12641   4.959   0.696   3.130 -0.0149 -0.1268 -0.7303
 3219SOL    HW212642   4.966   0.775   3.184  1.5164  1.8176 -3.4636
 3219SOL    HW312643   4.868   0.669   3.137 -0.2980  1.1645  1.2249
 3219SOL    MW412644   4.948   0.703   3.138  0.1498  0.3001 -0.8330
 3220SOL     OW12645   1.488   3.316   0.338  0.3883 -0.0919 -0.1085
 3220SOL    HW212646   1.577   3.346   0.317  0.6443 -0.4857  0.4126
 3220SOL    HW312647   1.432   3.389   0.311  0.7523 -0.3082 -1.5819
 3220SOL    MW412648   1.492   3.330   0.332  0.4701 -0.1724 -0.2341
 3221SOL     OW12649   5.870   0.118   4.459  0.0787  0.7976 -0.1310
 3221SOL    HW212650   5.858   0.168   4.377 -1.1899  1.9197  0.6950
 3221SOL    HW312651   5.835   0.176   4.527  2.2677  0.4288  1.3956
 3221SOL    MW412652   5.864   0.132   4.457  0.2001  0.8970  0.1794
 3222SOL     OW12653   4.469   1.012   6.075  0.2364 -0.0169  0.2685
 3222SOL    HW212654   4.531   0.963   6.021 -1.0997 -2.9309  1.1360
 3222SOL    HW312655   4.508   1.011   6.162 -0.6262 -1.3011  0.6807
 3222SOL    MW412656   4.482   1.005   6.079 -0.0537 -0.5708  0.4374
 3223SOL     OW12657   0.477   3.539   1.082  0.1171  0.5857 -0.5584
 3223SOL    HW212658   0.502   3.495   1.163 -1.7563  3.3193  1.6645
 3223SOL    HW312659   0.400   3.490   1.051  0.5519 -0.1725 -0.4787
 3223SOL    MW412660   0.470   3.526   1.089 -0.0727  0.8463 -0.2546
 3224SOL     OW12661   0.707   5.394   0.549  0.2408 -0.2021 -0.1866
 3224SOL    HW212662   0.762   5.368   0.623  1.1856  1.5735 -0.2152
 3224SOL    HW312663   0.684   5.311   0.506  1.4182 -1.1133  0.8777
 3224SOL    MW412664   0.711   5.380   0.553  0.5208 -0.0881 -0.0500
 3225SOL     OW12665   1.512   2.261   2.480 -0.2833  0.6458 -0.6245
 3225SOL    HW212666   1.429   2.294   2.515 -0.3662 -0.3266  0.1365
 3225SOL    HW312667   1.577   2.282   2.548 -0.7467 -2.9092  1.1443
 3225SOL    MW412668   1.510   2.268   2.494 -0.3554  0.0484 -0.2907
 3226SOL     OW12669   2.632   3.741   2.526  0.1623  0.3404 -0.2911
 3226SOL    HW212670   2.694   3.668   2.517  0.5315  0.6523 -0.3217
 3226SOL    HW312671   2.659   3.803   2.459 -1.1570 -0.1881 -1.3604
 3226SOL    MW412672   2.644   3.740   2.516  0.0369  0.3118 -0.4362
 3227SOL     OW12673   4.181   5.923   4.225 -0.4001 -0.0878  0.2456
 3227SOL    HW212674   4.113   5.988   4.211  1.1722  2.0359  1.7589
 3227SOL    HW312675   4.223   5.912   4.140 -1.3804  0.0289 -0.2625
 3227SOL    MW412676   4.177   5.930   4.212 -0.3220  0.2078  0.3783
 3228SOL     OW12677   5.693   5.081   3.271 -0.0544  0.0089 -0.3510
 3228SOL    HW212678   5.770   5.054   3.221  0.8407  0.2554  0.8757
 3228SOL    HW312679   5.660   4.999   3.310  0.7083  0.1608  0.6522
 3228SOL    MW412680   5.698   5.066   3.269  0.1643  0.0614 -0.0568
 3229SOL     OW12681   0.317   4.104   3.168  0.1521  0.1819  0.3529
 3229SOL    HW212682   0.350   4.062   3.248  0.8120  2.0184  1.0984
 3229SOL    HW312683   0.269   4.035   3.123  0.0427 -0.9953  2.1722
 3229SOL    MW412684   0.315   4.089   3.173  0.2247  0.2689  0.6913
 3230SOL     OW12685   2.991   0.038   4.611  0.1226 -0.4714 -0.1065
 3230SOL    HW212686   3.078   0.035   4.650  0.4066  1.1442 -0.5427
 3230SOL    HW312687   2.984   0.126   4.573 -2.0582 -0.2028  0.7617
 3230SOL    MW412688   3.001   0.050   4.611 -0.1276 -0.2228 -0.0495
 3231SOL     OW12689   5.243   5.691   3.618 -0.3109 -0.0157  0.1320
 3231SOL    HW212690   5.181   5.757   3.588  0.8543  0.4870 -1.2700
 3231SOL    HW312691   5.289   5.663   3.539 -1.5220 -3.3911  0.4519
 3231SOL    MW412692   5.241   5.696   3.604 -0.3169 -0.3947 -0.0108
 3232SOL     OW12693   1.039   2.921   4.375 -0.2015  0.0655  0.2756
 3232SOL    HW212694   1.046   2.844   4.433 -0.0128  0.1368  0.3481
 3232SOL    HW312695   0.997   2.887   4.296  0.5459 -0.2723  0.0153
 3232SOL    MW412696   1.034   2.906   4.372 -0.0780  0.0303  0.2508
 3233SOL     OW12697   1.319   4.149   5.698  0.7691 -0.0022 -0.0085
 3233SOL    HW212698   1.310   4.242   5.675  0.8426 -0.1712 -0.7512
 3233SOL    HW312699   1.230   4.119   5.714  0.7505  0.2106  0.2904
 3233SOL    MW412700   1.306   4.158   5.697  0.7763  0.0036 -0.0670
 3234SOL     OW12701   4.912   4.990   6.306 -0.2403 -0.4312 -0.2383
 3234SOL    HW212702   4.990   4.954   6.347 -0.8719 -0.1129  1.3208
 3234SOL    HW312703   4.871   4.915   6.264 -0.7394 -1.3016  1.6590
 3234SOL    MW412704   4.917   4.976   6.306 -0.3895 -0.5041  0.2177
 3235SOL     OW12705   1.450   0.821   1.884  0.4226  0.7605  0.3115
 3235SOL    HW212706   1.487   0.847   1.800  1.0752  0.7563  0.5916
 3235SOL    HW312707   1.377   0.762   1.862  1.0204  0.2204 -0.2291
 3235SOL    MW412708   1.445   0.816   1.870  0.5876  0.6887  0.2771
 3236SOL     OW12709   1.271   4.490   3.926 -0.6052 -0.5596  0.4691
 3236SOL    HW212710   1.279   4.433   3.850  1.3293  0.6558 -0.3188
 3236SOL    HW312711   1.348   4.471   3.980  0.7653  2.0037 -0.4033
 3236SOL    MW412712   1.282   4.480   3.923 -0.1691 -0.0610  0.2500
 3237SOL     OW12713   2.248   4.698   0.186  0.0486  0.1019  0.2462
 3237SOL    HW212714   2.269   4.658   0.102 -0.2606 -0.4005  0.4088
 3237SOL    HW312715   2.205   4.629   0.237  0.9346  0.1552  1.1100
 3237SOL    MW412716   2.245   4.684   0.182  0.1247  0.0426  0.3816
 3238SOL     OW12717   0.500   1.047   5.864  0.1235  0.4686  0.4710
 3238SOL    HW212718   0.511   0.954   5.845 -2.2306  0.5751 -1.8897
 3238SOL    HW312719   0.586   1.085   5.846  0.6772 -0.9954 -0.1797
 3238SOL    MW412720   0.513   1.039   5.859 -0.1141  0.2895  0.0737
 3239SOL     OW12721   0.429   1.204   4.866  0.7282 -0.1035 -0.0400
 3239SOL    HW212722   0.445   1.281   4.811 -0.0595 -1.5780 -2.4836
 3239SOL    HW312723   0.351   1.226   4.917  2.0808  1.6985  1.4010
 3239SOL    MW412724   0.421   1.217   4.866  0.8027 -0.0603 -0.1722
 3240SOL     OW12725   6.312   0.891   4.099 -0.0281 -0.3515  0.1264
 3240SOL    HW212726   6.267   0.858   4.176 -0.1288 -1.3278 -0.3361
 3240SOL    HW312727   6.401   0.908   4.129  0.3379 -2.1094  0.1470
 3240SOL    MW412728   6.318   0.889   4.113  0.0069 -0.7122  0.0681
 3241SOL     OW12729   4.330   1.095   5.734  0.0054 -0.0594 -0.0570
 3241SOL    HW212730   4.401   1.141   5.779  0.3250 -0.6638  0.0690
 3241SOL    HW312731   4.374   1.035   5.674 -0.3030 -2.0799  1.6269
 3241SOL    MW412732   4.345   1.093   5.732  0.0069 -0.4057  0.1818
 3242SOL     OW12733   0.578   3.235   1.719 -0.1188 -0.2322 -0.1250
 3242SOL    HW212734   0.633   3.161   1.694 -0.4353 -0.3825 -0.3925
 3242SOL    HW312735   0.633   3.312   1.703  1.0665 -0.4731  2.3492
 3242SOL    MW412736   0.592   3.235   1.713 -0.0042 -0.2838  0.1662
 3243SOL     OW12737   2.720   5.864   5.696  0.0371 -0.0945  0.3432
 3243SOL    HW212738   2.684   5.782   5.731 -0.6746 -0.4796 -1.1887
 3243SOL    HW312739   2.737   5.845   5.603  0.4782  1.3042  0.1097
 3243SOL    MW412740   2.718   5.850   5.688  0.0014  0.0392  0.1103
 3244SOL     OW12741   5.944   2.299   5.507 -0.1333 -0.4941 -0.7448
 3244SOL    HW212742   5.994   2.247   5.569 -0.0908 -0.3383 -0.6476
 3244SOL    HW312743   5.854   2.269   5.517 -0.0638 -0.7611 -0.9060
 3244SOL    MW412744   5.939   2.288   5.516 -0.1185 -0.5087 -0.7533
 3245SOL     OW12745   2.692   2.845   4.273  0.4018 -0.5458  0.2208
 3245SOL    HW212746   2.748   2.880   4.204 -0.8481 -0.5988 -0.8380
 3245SOL    HW312747   2.752   2.829   4.346  1.7447 -0.4832 -0.8375
 3245SOL    MW412748   2.708   2.847   4.274  0.4141 -0.5445 -0.0585
 3246SOL     OW12749   3.658   0.979   0.223  0.5594  0.2665 -0.4117
 3246SOL    HW212750   3.660   0.938   0.136  0.6678  0.7722 -0.6523
 3246SOL    HW312751   3.623   0.912   0.281 -0.4267  0.2311 -1.0279
 3246SOL    MW412752   3.653   0.965   0.219  0.4436  0.3285 -0.5247
 3247SOL     OW12753   5.076   2.798   5.219  0.4520 -0.3574  0.0085
 3247SOL    HW212754   5.012   2.860   5.254 -0.7116 -0.7667 -1.3404
 3247SOL    HW312755   5.139   2.786   5.291 -0.8760  0.1871  1.3063
 3247SOL    MW412756   5.076   2.804   5.233  0.1232 -0.3395  0.0018
 3248SOL     OW12757   5.510   3.590   2.661  0.3875 -0.0325  0.0918
 3248SOL    HW212758   5.586   3.535   2.647  2.0689  1.7970  1.4360
 3248SOL    HW312759   5.546   3.673   2.692 -2.0608  1.4975 -0.8479
 3248SOL    MW412760   5.525   3.594   2.663  0.2863  0.4108  0.1452
 3249SOL     OW12761   0.859   4.643   1.311  0.1861 -0.4927 -0.3310
 3249SOL    HW212762   0.919   4.690   1.368 -0.3696 -0.0804 -0.0686
 3249SOL    HW312763   0.778   4.637   1.362 -0.2311 -0.3623 -0.9653
 3249SOL    MW412764   0.856   4.648   1.325  0.0577 -0.4211 -0.3801
 3250SOL     OW12765   4.024   0.193   4.182  0.0069 -0.0483  0.3561
 3250SOL    HW212766   3.963   0.259   4.216 -0.4759  0.4803 -1.3939
 3250SOL    HW312767   4.061   0.233   4.103  1.2456 -1.0932  0.3740
 3250SOL    MW412768   4.021   0.207   4.176  0.1067 -0.1164  0.1276
 3251SOL     OW12769   4.804   1.723   2.462 -0.1134 -0.3140 -0.1891
 3251SOL    HW212770   4.837   1.634   2.453  0.3925 -0.1353 -0.1410
 3251SOL    HW312771   4.780   1.748   2.372  0.1063 -0.3616 -0.2623
 3251SOL    MW412772   4.805   1.715   2.449 -0.0177 -0.2967 -0.1924
 3252SOL     OW12773   1.689   2.968   1.035  0.2298  0.4190 -0.4438
 3252SOL    HW212774   1.681   2.940   1.127  2.7925  0.9855  0.0515
 3252SOL    HW312775   1.673   2.888   0.985  0.4749 -0.3163  0.5997
 3252SOL    MW412776   1.686   2.954   1.041  0.6002  0.3967 -0.2407
 3253SOL     OW12777   0.437   2.896   2.469  0.0270  0.0461 -0.6198
 3253SOL    HW212778   0.461   2.855   2.387 -1.3910 -0.2266 -0.9309
 3253SOL    HW312779   0.342   2.885   2.475  0.1763 -0.6676  1.4423
 3253SOL    MW412780   0.427   2.889   2.459 -0.1404 -0.0841 -0.3888
 3254SOL     OW12781   2.320   5.506   1.776  0.0619 -0.0925 -0.4772
 3254SOL    HW212782   2.388   5.440   1.767 -0.6134 -0.8740 -0.0304
 3254SOL    HW312783   2.338   5.569   1.706  0.5588 -0.8963 -1.0881
 3254SOL    MW412784   2.331   5.506   1.765  0.0383 -0.3016 -0.4989
 3255SOL     OW12785   4.378   4.971   4.430  0.3748 -0.3065  0.3004
 3255SOL    HW212786   4.445   5.033   4.459 -0.5636  0.9499 -0.0972
 3255SOL    HW312787   4.336   4.941   4.510  1.5640 -1.3196  0.5731
 3255SOL    MW412788   4.381   4.975   4.444  0.4079 -0.2744  0.2839
 3256SOL     OW12789   5.591   0.034   5.988 -0.2310  0.1980  0.0872
 3256SOL    HW212790   5.610  -0.056   5.961 -1.5283  0.0026 -0.2550
 3256SOL    HW312791   5.677   0.076   5.992  0.4563 -1.1726  0.7371
 3256SOL    MW412792   5.605   0.027   5.985 -0.3115 -0.0086  0.1278
 3257SOL     OW12793   4.071   1.925   3.689 -0.3209 -0.5884 -0.2109
 3257SOL    HW212794   4.006   1.994   3.707 -0.2296 -0.8816  1.4480
 3257SOL    HW312795   4.055   1.899   3.599  0.1800  2.1799 -1.1856
 3257SOL    MW412796   4.060   1.931   3.680 -0.2427 -0.2618 -0.1206
 3258SOL     OW12797   0.526   5.177   4.897  0.0787  0.3628 -0.5136
 3258SOL    HW212798   0.534   5.272   4.889 -2.1483  0.7564  1.1226
 3258SOL    HW312799   0.586   5.153   4.968 -0.1903  0.6986 -0.1746
 3258SOL    MW412800   0.535   5.186   4.905 -0.2506  0.4590 -0.2530
 3259SOL     OW12801   3.827   4.818   6.027  0.0155 -0.0320  0.5276
 3259SOL    HW212802   3.854   4.794   5.939  3.5086 -1.5535  1.8115
 3259SOL    HW312803   3.869   4.903   6.043 -2.1223  1.1541  0.1973
 3259SOL    MW412804   3.836   4.826   6.018  0.1943 -0.0762  0.6534
 3260SOL     OW12805   4.667   4.942   6.087 -0.3071  0.3914 -0.2327
 3260SOL    HW212806   4.744   4.968   6.037  0.8028 -0.8624  0.7580
 3260SOL    HW312807   4.606   4.909   6.022  0.7962 -0.4948 -0.8459
 3260SOL    MW412808   4.669   4.941   6.072 -0.0151  0.1091 -0.1829
 3261SOL     OW12809   2.202   4.750   5.491  0.0227  0.3964  0.2684
 3261SOL    HW212810   2.173   4.667   5.453  0.6456  0.2708  0.0565
 3261SOL    HW312811   2.146   4.762   5.568 -0.7089  0.2532 -0.2299
 3261SOL    MW412812   2.191   4.741   5.496  0.0084  0.3610  0.1747
 3262SOL     OW12813   3.456   5.462   2.420 -0.0403  0.8549 -0.4352
 3262SOL    HW212814   3.438   5.421   2.504 -0.8202  2.2792  0.1360
 3262SOL    HW312815   3.416   5.404   2.355 -0.6548  0.4461  0.2993
 3262SOL    MW412816   3.448   5.449   2.422 -0.2242  0.9889 -0.2630
 3263SOL     OW12817   2.532   5.106   3.180  0.2149  0.4064 -0.6262
 3263SOL    HW212818   2.602   5.113   3.114  0.6170  0.3207 -0.2156
 3263SOL    HW312819   2.527   5.193   3.219  1.0108  0.0693  0.2588
 3263SOL    MW412820   2.541   5.118   3.176  0.3730  0.3506 -0.4553
 3264SOL     OW12821   0.124   4.545   5.534  0.0911  0.0950 -0.0496
 3264SOL    HW212822   0.073   4.465   5.546 -0.2487  0.2912 -0.1601
 3264SOL    HW312823   0.078   4.593   5.465  1.3204 -0.4359 -1.2767
 3264SOL    MW412824   0.111   4.541   5.527  0.2085  0.0509 -0.2261
 3265SOL     OW12825   3.794   4.401   5.826  0.1199  0.4518  0.5050
 3265SOL    HW212826   3.830   4.323   5.784  0.8280  1.5076 -0.9420
 3265SOL    HW312827   3.779   4.375   5.917 -0.3540 -1.5776 -0.0954
 3265SOL    MW412828   3.797   4.387   5.832  0.1508  0.3233  0.2349
 3266SOL     OW12829   6.325   5.223   4.887 -0.0031 -0.3441 -0.4509
 3266SOL    HW212830   6.315   5.132   4.858 -0.5214  0.0523 -1.5837
 3266SOL    HW312831   6.377   5.264   4.817  0.0226  0.2843 -0.0604
 3266SOL    MW412832   6.331   5.216   4.874 -0.0681 -0.2089 -0.5489
 3267SOL     OW12833   1.559   4.478   1.930 -0.8548 -0.7273  0.1087
 3267SOL    HW212834   1.559   4.451   2.022 -0.8096  0.4088  0.4621
 3267SOL    HW312835   1.625   4.547   1.926 -0.5326 -1.0798 -0.8837
 3267SOL    MW412836   1.568   4.484   1.942 -0.8063 -0.6239  0.0244
 3268SOL     OW12837   1.945   0.770   2.216 -0.2787  0.3069 -0.0491
 3268SOL    HW212838   1.906   0.685   2.198 -0.4959  0.4571 -0.2931
 3268SOL    HW312839   1.948   0.814   2.131 -1.0246  0.9076  0.2186
 3268SOL    MW412840   1.940   0.765   2.202 -0.4058  0.4060 -0.0460
 3269SOL     OW12841   2.700   2.628   5.157 -0.0135  0.1690  0.1006
 3269SOL    HW212842   2.666   2.717   5.161 -0.1351  0.1241  0.0773
 3269SOL    HW312843   2.678   2.590   5.242  0.5292  0.3360  0.3202
 3269SOL    MW412844   2.693   2.635   5.169  0.0421  0.1851  0.1265
 3270SOL     OW12845   6.160   1.315   1.785  0.0373 -0.0931  0.2492
 3270SOL    HW212846   6.104   1.247   1.821  0.1793 -0.8259 -0.8696
 3270SOL    HW312847   6.247   1.276   1.782  0.0459 -0.0290 -0.7742
 3270SOL    MW412848   6.164   1.301   1.789  0.0572 -0.1813 -0.0335
 3271SOL     OW12849   0.431   4.653   3.265 -0.4347 -0.5462 -0.3932
 3271SOL    HW212850   0.453   4.695   3.182 -0.4601 -0.9487 -0.6055
 3271SOL    HW312851   0.449   4.560   3.251 -1.2443 -0.7377 -0.2239
 3271SOL    MW412852   0.436   4.647   3.252 -0.5448 -0.6245 -0.3989
 3272SOL     OW12853   1.834   0.804   1.949 -0.1506 -0.0267  0.0008
 3272SOL    HW212854   1.848   0.874   1.885 -0.1398 -1.1836 -1.3190
 3272SOL    HW312855   1.762   0.836   2.004 -2.2552 -0.1511 -2.4648
 3272SOL    MW412856   1.826   0.818   1.948 -0.4268 -0.1957 -0.4987
 3273SOL     OW12857   6.297   2.946   4.851 -0.6203  0.1443  0.1386
 3273SOL    HW212858   6.382   2.906   4.834 -0.6148 -0.1560  0.8111
 3273SOL    HW312859   6.238   2.906   4.788 -0.3974 -0.1565  0.1180
 3273SOL    MW412860   6.300   2.935   4.841 -0.5901  0.0650  0.2246
 3274SOL     OW12861   2.951   3.914   4.859 -0.0246  0.3836 -0.1301
 3274SOL    HW212862   3.006   3.926   4.782  0.4273  2.3183  0.4370
 3274SOL    HW312863   2.861   3.919   4.825  0.1700  0.9343 -0.5765
 3274SOL    MW412864   2.946   3.916   4.844  0.0607  0.7115 -0.1142
 3275SOL     OW12865   2.006   6.364   4.200  0.0069  0.6106 -0.4110
 3275SOL    HW212866   1.994   6.280   4.155  1.1967  0.4033 -0.3865
 3275SOL    HW312867   1.960   6.354   4.283  0.9854 -0.4103  0.0378
 3275SOL    MW412868   1.999   6.351   4.205  0.2930  0.4485 -0.3486
 3276SOL     OW12869   2.007   3.323   1.613  0.0433  0.5221  0.7824
 3276SOL    HW212870   1.964   3.348   1.531  1.2311  0.0857 -0.0108
 3276SOL    HW312871   1.958   3.247   1.644  0.2236  0.0437 -0.0881
 3276SOL    MW412872   1.995   3.317   1.606  0.2238  0.4014  0.5629
 3277SOL     OW12873   0.555   3.320   0.784  0.0998  0.0028  0.7566
 3277SOL    HW212874   0.577   3.231   0.755 -0.8348 -0.5467  1.6931
 3277SOL    HW312875   0.545   3.370   0.703  1.5011 -0.5164  0.2337
 3277SOL    MW412876   0.557   3.315   0.770  0.1614 -0.1382  0.8112
 3278SOL     OW12877   2.121   5.813   5.410 -0.6034  0.1956  0.6146
 3278SOL    HW212878   2.202   5.764   5.397  0.7452  2.8844 -2.3540
 3278SOL    HW312879   2.137   5.865   5.489  0.3123  0.2533  0.3969
 3278SOL    MW412880   2.134   5.813   5.419 -0.3046  0.5580  0.1942
 3279SOL     OW12881   2.571   0.776   3.672 -0.3394 -0.2400  0.5407
 3279SOL    HW212882   2.489   0.806   3.634  0.0332  0.2705  0.1408
 3279SOL    HW312883   2.584   0.831   3.750  0.6519  1.0962 -0.5267
 3279SOL    MW412884   2.562   0.787   3.678 -0.1594  0.0036  0.3471
 3280SOL     OW12885   6.184   3.043   6.289  0.1687  1.0061  0.1263
 3280SOL    HW212886   6.147   3.086   6.367  0.0187  1.0280  0.0424
 3280SOL    HW312887   6.167   3.104   6.218  0.6051  1.1385  0.1325
 3280SOL    MW412888   6.177   3.057   6.290  0.2065  1.0265  0.1160
 3281SOL     OW12889   5.445   5.821   0.783 -0.7037  0.1333  0.9205
 3281SOL    HW212890   5.530   5.860   0.801 -0.8837  0.6977  0.5881
 3281SOL    HW312891   5.396   5.890   0.737 -0.0639 -1.3832 -2.2997
 3281SOL    MW412892   5.449   5.835   0.779 -0.6431  0.0076  0.4518
 3282SOL     OW12893   1.629   5.511   2.229  0.2007 -0.2611 -0.2699
 3282SOL    HW212894   1.700   5.484   2.171 -0.4273 -0.5543 -0.9187
 3282SOL    HW312895   1.569   5.437   2.230 -0.5287  0.3158 -0.4296
 3282SOL    MW412896   1.631   5.498   2.221  0.0216 -0.2237 -0.3765
 3283SOL     OW12897   2.906   0.992   4.603  0.3354 -0.0571  0.3239
 3283SOL    HW212898   2.969   1.042   4.550  0.1130 -1.3817 -1.2830
 3283SOL    HW312899   2.961   0.937   4.659  0.6402 -0.8201 -0.6930
 3283SOL    MW412900   2.922   0.991   4.603  0.3463 -0.3325 -0.0223
 3284SOL     OW12901   6.027   4.808   3.532 -0.6421  0.0029  0.3521
 3284SOL    HW212902   6.017   4.883   3.474  0.1738 -0.4211 -0.3581
 3284SOL    HW312903   6.007   4.732   3.477 -2.0896 -0.2927  1.2194
 3284SOL    MW412904   6.023   4.808   3.518 -0.7254 -0.0920  0.3728
 3285SOL     OW12905   5.118   5.522   4.589 -0.1165  0.2377  0.5375
 3285SOL    HW212906   5.163   5.441   4.565  0.8160  1.4460 -2.2208
 3285SOL    HW312907   5.187   5.587   4.596 -1.1436  1.5492 -0.9424
 3285SOL    MW412908   5.133   5.520   4.587 -0.1290  0.5701 -0.0217
 3286SOL     OW12909   2.307   1.891   4.904  0.1866 -0.4238 -0.2391
 3286SOL    HW212910   2.291   1.912   4.812 -0.9293  2.5080  0.5062
 3286SOL    HW312911   2.353   1.968   4.938  0.3406 -1.3270  1.7209
 3286SOL    MW412912   2.311   1.904   4.896  0.0597 -0.1561  0.1178
 3287SOL     OW12913   3.582   3.569   2.180 -0.2645 -0.0804 -0.1231
 3287SOL    HW212914   3.509   3.551   2.239  0.1614 -1.3133  0.0675
 3287SOL    HW312915   3.573   3.662   2.158 -1.0824  0.1224  0.9704
 3287SOL    MW412916   3.571   3.579   2.185 -0.3162 -0.2163  0.0463
 3288SOL     OW12917   1.938   3.642   6.103  0.0527  0.1177 -0.1158
 3288SOL    HW212918   1.915   3.623   6.194 -2.1892  1.3157 -0.3421
 3288SOL    HW312919   2.003   3.712   6.109 -1.2054  1.2808  0.6029
 3288SOL    MW412920   1.943   3.648   6.116 -0.4091  0.4292 -0.0508
 3289SOL     OW12921   0.852   0.807   2.411  0.5157  0.1627 -0.6020
 3289SOL    HW212922   0.809   0.789   2.494  1.5177 -0.0201 -0.1079
 3289SOL    HW312923   0.867   0.720   2.373  2.7218  0.0240  0.4287
 3289SOL    MW412924   0.848   0.793   2.417  0.9390  0.1203 -0.4008
 3290SOL     OW12925   3.640   6.205   5.723  0.4740  0.3712 -0.3374
 3290SOL    HW212926   3.640   6.170   5.634 -0.6440  1.6173 -0.8534
 3290SOL    HW312927   3.558   6.253   5.730  0.7065  0.5801  1.2624
 3290SOL    MW412928   3.629   6.207   5.712  0.3572  0.5632 -0.1944
 3291SOL     OW12929   3.622   3.654   2.597 -0.4338  0.1347  0.5502
 3291SOL    HW212930   3.679   3.658   2.674  1.1332 -0.7147 -0.5154
 3291SOL    HW312931   3.600   3.745   2.579 -0.1472  0.4109  1.5198
 3291SOL    MW412932   3.627   3.666   2.605 -0.1892  0.0591  0.5376
 3292SOL     OW12933   4.050   5.976   0.121  0.5235  0.0333 -0.0414
 3292SOL    HW212934   3.986   6.029   0.167  0.9362 -0.2743  0.9149
 3292SOL    HW312935   4.111   5.947   0.189  1.3704 -0.1264 -0.8362
 3292SOL    MW412936   4.050   5.979   0.136  0.6897 -0.0283 -0.0201
 3293SOL     OW12937   3.845   2.783   4.828  0.3151 -0.0155  0.0827
 3293SOL    HW212938   3.770   2.727   4.807 -0.2474  0.8181 -0.2026
 3293SOL    HW312939   3.920   2.741   4.787  0.0194 -0.9075  0.4405
 3293SOL    MW412940   3.845   2.770   4.820  0.2019 -0.0232  0.0922
 3294SOL     OW12941   5.352   3.437   4.774  0.9958  0.0650  0.1488
 3294SOL    HW212942   5.414   3.460   4.705 -0.9856  1.8202 -1.1739
 3294SOL    HW312943   5.306   3.361   4.739  1.0638 -0.0249  0.2548
 3294SOL    MW412944   5.354   3.430   4.760  0.7434  0.2847 -0.0117
 3295SOL     OW12945   2.571   4.237   0.541 -0.2372  0.0440  0.6172
 3295SOL    HW212946   2.627   4.308   0.509  0.3945 -1.0536 -0.8146
 3295SOL    HW312947   2.601   4.221   0.630  0.7914  0.4079  0.3452
 3295SOL    MW412948   2.582   4.244   0.548 -0.0182 -0.0528  0.3924
 3296SOL     OW12949   1.060   2.276   2.373 -0.2086 -0.0428 -0.1689
 3296SOL    HW212950   1.095   2.328   2.300 -0.0451 -0.2906 -0.2699
 3296SOL    HW312951   1.099   2.189   2.361 -1.6296 -0.6247 -0.8756
 3296SOL    MW412952   1.070   2.271   2.362 -0.3745 -0.1523 -0.2754
 3297SOL     OW12953   2.048   0.073   2.291 -0.7879  0.6889 -0.2379
 3297SOL    HW212954   1.962   0.075   2.248 -0.3972 -0.0269 -1.0912
 3297SOL    HW312955   2.111   0.069   2.219 -0.1899 -3.3074  0.2752
 3297SOL    MW412956   2.045   0.072   2.275 -0.6574  0.0672 -0.2828
 3298SOL     OW12957   1.119   4.165   0.768 -0.2067 -0.1743 -0.2627
 3298SOL    HW212958   1.159   4.083   0.740 -1.0995 -0.4922 -0.6671
 3298SOL    HW312959   1.174   4.197   0.839  1.1108 -0.2557 -1.2194
 3298SOL    MW412960   1.131   4.159   0.773 -0.1507 -0.2270 -0.4423
 3299SOL     OW12961   0.143   3.276   2.216  0.0584 -0.6907  0.2774
 3299SOL    HW212962   0.106   3.193   2.185  0.9951 -1.2509  0.6198
 3299SOL    HW312963   0.225   3.251   2.259  0.6611  0.4723 -0.1455
 3299SOL    MW412964   0.149   3.262   2.218  0.2615 -0.6112  0.2668
 3300SOL     OW12965   2.979   2.598   2.149  0.0669 -0.2983 -0.0276
 3300SOL    HW212966   2.916   2.636   2.210  0.1235 -1.0243  0.5053
 3300SOL    HW312967   2.937   2.604   2.064  0.0394  0.8487  0.0570
 3300SOL    MW412968   2.965   2.604   2.146  0.0707 -0.2427  0.0539
 3301SOL     OW12969   4.159   5.181   4.813 -0.2883 -0.1953  0.4672
 3301SOL    HW212970   4.201   5.236   4.747 -1.6752 -2.0893 -2.1627
 3301SOL    HW312971   4.221   5.110   4.828 -1.2751 -1.5472 -1.4113
 3301SOL    MW412972   4.173   5.179   4.806 -0.6015 -0.6235 -0.1276
 3302SOL     OW12973   2.097   3.996   4.447  0.3786  0.3696  0.0285
 3302SOL    HW212974   2.062   3.907   4.454 -0.3864  0.6818  0.2621
 3302SOL    HW312975   2.192   3.985   4.455  0.2561 -0.3696  0.6285
 3302SOL    MW412976   2.105   3.983   4.449  0.2615  0.3132  0.1385
 3303SOL     OW12977   3.278   1.344   5.501  0.0260  0.0921 -0.4010
 3303SOL    HW212978   3.239   1.378   5.582 -1.1232 -0.3846 -0.7267
 3303SOL    HW312979   3.240   1.399   5.432  0.2360 -0.1398 -0.7039
 3303SOL    MW412980   3.268   1.356   5.502 -0.0979 -0.0014 -0.4839
 3304SOL     OW12981   4.790   5.944   5.447 -0.3369  0.7008 -0.0399
 3304SOL    HW212982   4.720   5.894   5.491 -0.2404  2.0065  1.6997
 3304SOL    HW312983   4.753   6.031   5.435 -0.3697  0.3886 -2.7307
 3304SOL    MW412984   4.776   5.949   5.451 -0.3285  0.8319 -0.1654
 3305SOL     OW12985   5.455   0.339   3.677  1.1734 -0.1992  0.4674
 3305SOL    HW212986   5.484   0.252   3.704  0.3859 -1.1139 -1.4106
 3305SOL    HW312987   5.496   0.352   3.592 -0.4547  0.3011 -0.2831
 3305SOL    MW412988   5.464   0.329   3.669  0.8547 -0.2538  0.1206
 3306SOL     OW12989   1.328   5.574   0.579 -0.4607 -0.2102  0.0894
 3306SOL    HW212990   1.326   5.519   0.501 -2.2578  0.9162 -0.7328
 3306SOL    HW312991   1.303   5.516   0.650 -0.3148 -0.9158 -0.4261
 3306SOL    MW412992   1.324   5.559   0.578 -0.6785 -0.1547 -0.0871
 3307SOL     OW12993   0.228   5.170   4.802 -0.7036  0.5938 -0.3086
 3307SOL    HW212994   0.266   5.238   4.857 -1.6942  1.5255 -0.7277
 3307SOL    HW312995   0.258   5.088   4.840  0.8438  1.2588 -0.0134
 3307SOL    MW412996   0.237   5.168   4.814 -0.6301  0.8045 -0.3249
 3308SOL     OW12997   3.555   5.703   2.630  0.2650 -0.3007 -0.3974
 3308SOL    HW212998   3.608   5.633   2.594  0.2603 -0.3483 -0.3121
 3308SOL    HW312999   3.510   5.740   2.554  1.4531  0.6306 -0.6767
 3308SOL    MW413000   3.556   5.699   2.615  0.4211 -0.1841 -0.4230
 3309SOL     OW13001   3.027   4.399   4.876  0.9417  0.1293  0.1195
 3309SOL    HW213002   3.112   4.433   4.848  1.2860 -0.1647  0.7957
 3309SOL    HW313003   3.032   4.394   4.971  0.0674  0.3627  0.1930
 3309SOL    MW413004   3.039   4.403   4.885  0.8717  0.1213  0.2184
 3310SOL     OW13005   4.260   0.153   5.899 -0.1183  0.2963 -0.7473
 3310SOL    HW213006   4.261   0.059   5.916 -0.3266  0.2186 -1.1400
 3310SOL    HW313007   4.298   0.192   5.977 -2.0858  0.0383  0.3841
 3310SOL    MW413008   4.265   0.146   5.911 -0.4053  0.2520 -0.6498
 3311SOL     OW13009   3.929   0.885   4.858 -0.2676 -0.1222  0.4325
 3311SOL    HW213010   3.973   0.802   4.879 -2.0317 -1.1884  0.1003
 3311SOL    HW313011   3.840   0.875   4.892 -1.2560  0.6533 -1.6954
 3311SOL    MW413012   3.923   0.873   4.865 -0.6308 -0.1606  0.1079
 3312SOL     OW13013   4.007   3.439   3.827 -0.1068  0.3711 -0.2843
 3312SOL    HW213014   3.983   3.358   3.782  0.4469 -0.9373  1.6333
 3312SOL    HW313015   3.930   3.463   3.878  0.0418  0.5631 -0.1483
 3312SOL    MW413016   3.994   3.432   3.828 -0.0142  0.2238 -0.0133
 3313SOL     OW13017   3.908   5.805   3.189 -0.0581  0.3819  0.0730
 3313SOL    HW213018   3.949   5.769   3.268  0.4622  0.0698 -0.3342
 3313SOL    HW313019   3.889   5.896   3.212  1.8204  0.8493 -0.0517
 3313SOL    MW413020   3.911   5.813   3.203  0.2584  0.4024  0.0028
 3314SOL     OW13021   0.274   3.259   5.858 -0.4597 -0.1104 -0.2083
 3314SOL    HW213022   0.305   3.325   5.920  1.1830 -1.7567  0.8137
 3314SOL    HW313023   0.308   3.288   5.773 -1.3631  1.3193 -0.1041
 3314SOL    MW413024   0.283   3.272   5.855 -0.3622 -0.1390 -0.0597
 3315SOL     OW13025   0.709   2.743   5.292 -0.3103  0.2136  0.0668
 3315SOL    HW213026   0.789   2.740   5.344 -0.4326  0.4584  0.2695
 3315SOL    HW313027   0.642   2.703   5.347  0.1967 -2.4621 -1.0869
 3315SOL    MW413028   0.711   2.738   5.306 -0.2595 -0.1071 -0.0587
 3316SOL     OW13029   5.199   2.171   1.276  0.6167 -0.1260  0.7127
 3316SOL    HW213030   5.275   2.152   1.220  0.2152 -1.6165  0.6512
 3316SOL    HW313031   5.124   2.163   1.218  0.3929  1.6620  0.7014
 3316SOL    MW413032   5.199   2.168   1.261  0.5342 -0.0867  0.7031
 3317SOL     OW13033   2.414   2.871   3.271  0.8477  0.1403 -0.1547
 3317SOL    HW213034   2.490   2.842   3.322  1.2350  1.4462  0.0432
 3317SOL    HW313035   2.445   2.872   3.180  1.1884  0.9629 -0.0436
 3317SOL    MW413036   2.428   2.867   3.266  0.9438  0.4211 -0.1139
 3318SOL     OW13037   3.143   3.235   3.404  0.4304 -0.7720 -0.2717
 3318SOL    HW213038   3.220   3.233   3.346  0.1722 -1.1523 -0.6106
 3318SOL    HW313039   3.140   3.325   3.436  1.4080 -0.9224  0.2807
 3318SOL    MW413040   3.153   3.247   3.400  0.5253 -0.8420 -0.2435
 3319SOL     OW13041   3.522   6.130   5.251 -0.1266  0.1335 -0.5914
 3319SOL    HW213042   3.447   6.070   5.260 -0.0319 -0.2429 -2.0332
 3319SOL    HW313043   3.581   6.105   5.323 -1.9724  1.4110  1.5142
 3319SOL    MW413044   3.520   6.119   5.262 -0.3577  0.2524 -0.5038
 3320SOL     OW13045   5.134   5.962   5.743  0.6859 -0.2231 -0.1471
 3320SOL    HW213046   5.048   5.921   5.733  0.5152  0.3024 -0.8823
 3320SOL    HW313047   5.160   5.939   5.833  0.0325 -0.8519 -0.0999
 3320SOL    MW413048   5.126   5.953   5.754  0.5772 -0.2367 -0.2379
 3321SOL     OW13049   3.593   5.613   0.962  0.3638  0.2914 -0.1523
 3321SOL    HW213050   3.657   5.550   0.994  0.9982  0.2173 -1.5081
 3321SOL    HW313051   3.538   5.632   1.038  0.8021 -1.1023  0.5434
 3321SOL    MW413052   3.594   5.607   0.977  0.5054  0.0977 -0.2394
 3322SOL     OW13053   0.558   1.800   2.095 -0.4130  0.3548 -0.2261
 3322SOL    HW213054   0.545   1.860   2.022 -0.2175  1.6533  0.7732
 3322SOL    HW313055   0.560   1.856   2.172  0.1004 -0.9128  0.7179
 3322SOL    MW413056   0.556   1.815   2.095 -0.3195  0.3589  0.0303
 3323SOL     OW13057   0.781   1.139   4.185  0.3096  0.2611 -0.1925
 3323SOL    HW213058   0.769   1.214   4.243 -1.1009  0.4822 -0.7438
 3323SOL    HW313059   0.739   1.066   4.231 -1.8364  0.6702 -1.3605
 3323SOL    MW413060   0.774   1.139   4.199 -0.1596  0.3442 -0.4193
 3324SOL     OW13061   5.475   1.526   3.883 -0.1883  0.2758  0.2246
 3324SOL    HW213062   5.409   1.528   3.953 -0.4851 -0.2584 -0.0293
 3324SOL    HW313063   5.488   1.617   3.859 -1.0310  0.3722  0.1041
 3324SOL    MW413064   5.468   1.538   3.889 -0.3387  0.2180  0.1752
 3325SOL     OW13065   1.464   3.662   4.454 -0.1437 -0.0464 -0.0351
 3325SOL    HW213066   1.452   3.757   4.460 -0.6489 -0.1393  0.6072
 3325SOL    HW313067   1.435   3.639   4.366 -1.0693  0.2555  0.1818
 3325SOL    MW413068   1.459   3.672   4.443 -0.3325 -0.0189  0.0783
 3326SOL     OW13069   4.983   1.440   5.909  0.5608 -0.0295 -0.2017
 3326SOL    HW213070   4.997   1.506   5.977 -0.7287  0.4753 -0.3883
 3326SOL    HW313071   5.023   1.478   5.831  0.9296 -0.0401 -0.0218
 3326SOL    MW413072   4.990   1.454   5.908  0.4393  0.0357 -0.2026
 3327SOL     OW13073   4.784   1.274   5.774 -0.0366  0.0611  0.5548
 3327SOL    HW213074   4.859   1.316   5.818 -0.5459 -1.0232  2.5797
 3327SOL    HW313075   4.823   1.200   5.728  0.3501  0.5163  0.1274
 3327SOL    MW413076   4.799   1.270   5.774 -0.0528 -0.0219  0.7656
 3328SOL     OW13077   3.111   1.017   3.790  0.3024  0.1905  0.2717
 3328SOL    HW213078   3.101   0.931   3.749 -0.7120  0.7538 -0.7097
 3328SOL    HW313079   3.201   1.042   3.771  0.0025  0.2167 -1.1944
 3328SOL    MW413080   3.122   1.009   3.782  0.1290  0.2683 -0.0512
 3329SOL     OW13081   3.934   2.758   3.416  0.1917 -0.2396 -0.0372
 3329SOL    HW213082   3.885   2.822   3.364  1.4027 -0.7260 -1.8799
 3329SOL    HW313083   3.922   2.786   3.507 -0.8062  1.5146 -0.6597
 3329SOL    MW413084   3.926   2.770   3.421  0.2198 -0.0723 -0.3624
 3330SOL     OW13085   0.326   2.912   3.098  0.0316 -0.0766  0.1085
 3330SOL    HW213086   0.339   2.977   3.167 -0.2581  1.2919 -1.0772
 3330SOL    HW313087   0.414   2.877   3.080  0.7036  2.0770 -1.1675
 3330SOL    MW413088   0.340   2.916   3.104  0.0820  0.3881 -0.2163
 3331SOL     OW13089   1.138   6.190   0.570 -0.1091  0.4671 -0.2622
 3331SOL    HW213090   1.098   6.275   0.553  0.1004  0.8142  0.9314
 3331SOL    HW313091   1.106   6.134   0.499  1.3404  2.0193 -2.2486
 3331SOL    MW413092   1.128   6.194   0.558  0.1097  0.7176 -0.3668
 3332SOL     OW13093   6.378   2.855   3.104 -0.1580  0.1964 -0.0134
 3332SOL    HW213094   6.457   2.861   3.050  0.5332  1.6633  1.1060
 3332SOL    HW313095   6.315   2.913   3.061 -0.0915  0.2558 -0.0308
 3332SOL    MW413096   6.380   2.863   3.091 -0.0581  0.3978  0.1320
 3333SOL     OW13097   5.012   0.295   0.557 -0.0573  0.1341  0.4622
 3333SOL    HW213098   5.089   0.310   0.612 -0.4051  1.1485  0.7011
 3333SOL    HW313099   5.036   0.334   0.472  0.7973 -2.1484 -0.4164
 3333SOL    MW413100   5.026   0.302   0.553  0.0095 -0.0332  0.3778
 3334SOL     OW13101   1.116   3.033   6.146 -0.1058  0.1871 -0.0193
 3334SOL    HW213102   1.197   2.991   6.117  0.4841  1.9012 -0.9608
 3334SOL    HW313103   1.071   3.059   6.066 -0.6192  1.0388  0.5247
 3334SOL    MW413104   1.121   3.031   6.132 -0.0957  0.5256 -0.0718
 3335SOL     OW13105   4.919   4.658   5.312  0.0652 -0.0024  0.3211
 3335SOL    HW213106   4.992   4.690   5.258 -0.3524  0.3719 -0.0324
 3335SOL    HW313107   4.863   4.734   5.324 -1.1926 -0.6844 -0.9211
 3335SOL    MW413108   4.921   4.672   5.307 -0.1558 -0.0430  0.1106
 3336SOL     OW13109   0.733   2.571   5.082  0.1606  0.0532 -0.1863
 3336SOL    HW213110   0.706   2.621   5.159 -1.3781  0.9564 -1.2519
 3336SOL    HW313111   0.827   2.586   5.075  0.3343 -0.0257  1.4650
 3336SOL    MW413112   0.742   2.579   5.091 -0.0195  0.1620 -0.1090
 3337SOL     OW13113   3.340   3.801   5.455 -0.0377  0.2423 -0.1206
 3337SOL    HW213114   3.381   3.879   5.419 -0.8935  0.6757 -0.1988
 3337SOL    HW313115   3.290   3.764   5.382  1.2427 -1.0207 -0.3933
 3337SOL    MW413116   3.339   3.806   5.440  0.0183  0.1329 -0.1669
 3338SOL     OW13117   1.753   1.294   1.013 -0.1779 -0.7190 -0.3839
 3338SOL    HW213118   1.698   1.359   0.969  0.1290 -0.4213 -0.3354
 3338SOL    HW313119   1.691   1.233   1.053 -0.4651 -1.2832 -1.6397
 3338SOL    MW413120   1.737   1.295   1.013 -0.1753 -0.7542 -0.5432
 3339SOL     OW13121   5.440   0.016   0.862 -0.5342 -0.5300  0.2651
 3339SOL    HW213122   5.442   0.009   0.766 -1.2658  0.5099  0.1491
 3339SOL    HW313123   5.347   0.028   0.883 -0.3708 -0.6670  1.0965
 3339SOL    MW413124   5.428   0.017   0.852 -0.6092 -0.4109  0.3595
 3340SOL     OW13125   4.675   6.179   3.805  0.1834 -0.1214  0.0415
 3340SOL    HW213126   4.581   6.163   3.816 -0.1464  0.5284 -1.5290
 3340SOL    HW313127   4.715   6.092   3.805 -0.2570 -0.3689  1.6739
 3340SOL    MW413128   4.668   6.166   3.807  0.0818 -0.0684  0.0497
 3341SOL     OW13129   2.630   0.752   5.759  0.4625 -0.7387 -0.4977
 3341SOL    HW213130   2.686   0.678   5.734  0.4710 -0.3712 -1.5968
 3341SOL    HW313131   2.546   0.711   5.782  0.4963 -1.0987 -1.0075
 3341SOL    MW413132   2.626   0.737   5.759  0.4681 -0.7377 -0.7100
 3342SOL     OW13133   4.822   6.402   4.304  0.1463 -0.2707  0.1652
 3342SOL    HW213134   4.737   6.375   4.339  0.5494 -1.0871  0.5587
 3342SOL    HW313135   4.862   6.320   4.275  1.4282 -0.0922  1.3954
 3342SOL    MW413136   4.816   6.387   4.304  0.3686 -0.3549  0.3794
 3343SOL     OW13137   5.913   0.295   1.374  0.0746 -0.4973  0.5408
 3343SOL    HW213138   5.888   0.204   1.364 -0.3029 -0.2658 -0.8169
 3343SOL    HW313139   5.897   0.334   1.288  1.8175  0.4659  0.6101
 3343SOL    MW413140   5.907   0.288   1.361  0.2547 -0.3397  0.3708
 3344SOL     OW13141   3.011   0.696   0.039  0.0611 -0.0396  0.3519
 3344SOL    HW213142   3.003   0.783   0.077 -0.4378  0.3470 -0.6110
 3344SOL    HW313143   2.976   0.704  -0.049 -0.0788 -1.2413  0.2725
 3344SOL    MW413144   3.006   0.708   0.032 -0.0232 -0.1472  0.2144
 3345SOL     OW13145   0.231   2.618   5.313 -0.2800 -0.2857 -0.0426
 3345SOL    HW213146   0.326   2.613   5.327 -0.5376  0.7894  2.6446
 3345SOL    HW313147   0.200   2.528   5.322  0.2462 -0.3420  1.4011
 3345SOL    MW413148   0.240   2.606   5.316 -0.2446 -0.1513  0.5024
 3346SOL     OW13149   3.764   1.905   3.970  0.3319  0.0452 -0.1093
 3346SOL    HW213150   3.680   1.926   3.929  1.7127  0.7493 -2.7980
 3346SOL    HW313151   3.793   1.987   4.010  0.3116  0.1429 -0.2935
 3346SOL    MW413152   3.757   1.919   3.970  0.5114  0.1510 -0.4884
 3347SOL     OW13153   1.764   2.213   5.593 -0.3437  0.0962  0.1776
 3347SOL    HW213154   1.712   2.245   5.519  0.5397  1.4879  0.1154
 3347SOL    HW313155   1.708   2.149   5.636 -1.0728 -0.3913 -1.4144
 3347SOL    MW413156   1.750   2.209   5.589 -0.3233  0.2155 -0.0407
 3348SOL     OW13157   5.373   2.633   5.127  0.0151 -0.0139 -0.5968
 3348SOL    HW213158   5.433   2.562   5.108  1.1882  0.8339 -0.2203
 3348SOL    HW313159   5.409   2.709   5.080  0.3697  0.9855  1.2050
 3348SOL    MW413160   5.385   2.634   5.118  0.2166  0.2298 -0.3094
 3349SOL     OW13161   4.388   3.169   4.741 -0.6001 -0.2155  0.0589
 3349SOL    HW213162   4.421   3.102   4.681  0.3321 -0.1342  0.4616
 3349SOL    HW313163   4.422   3.142   4.827  1.3655  1.7721 -0.0342
 3349SOL    MW413164   4.397   3.156   4.745 -0.2178  0.0575  0.0998
 3350SOL     OW13165   4.294   3.949   5.692 -0.0362  0.0543  0.1518
 3350SOL    HW213166   4.289   3.908   5.778  3.0988  1.5452  1.2138
 3350SOL    HW313167   4.355   3.895   5.643 -0.1659  0.3872 -0.3870
 3350SOL    MW413168   4.301   3.936   5.697  0.3603  0.2949  0.2209
 3351SOL     OW13169   1.493   2.601   4.931  0.0089  0.0140 -0.5150
 3351SOL    HW213170   1.546   2.626   4.856  0.1409 -0.9464 -0.7585
 3351SOL    HW313171   1.438   2.677   4.949  1.2656  0.9248 -0.4319
 3351SOL    MW413172   1.493   2.614   4.924  0.1921  0.0075 -0.5361
 3352SOL     OW13173   1.344   6.289   2.499 -0.2115 -0.1431  0.4361
 3352SOL    HW213174   1.429   6.334   2.495 -0.0545 -0.5399 -0.9544
 3352SOL    HW313175   1.365   6.202   2.534 -0.1094 -0.0970  0.4907
 3352SOL    MW413176   1.358   6.283   2.503 -0.1773 -0.1894  0.2598
 3353SOL     OW13177   0.924   1.797   1.148 -0.2937 -0.1355  0.1772
 3353SOL    HW213178   1.011   1.809   1.187 -0.8705 -0.6421  1.6927
 3353SOL    HW313179   0.870   1.863   1.190 -0.8133 -0.3304 -0.1817
 3353SOL    MW413180   0.929   1.807   1.158 -0.4384 -0.2281  0.3298
 3354SOL     OW13181   2.240   2.926   4.851 -0.3910 -0.6424  0.2356
 3354SOL    HW213182   2.200   2.947   4.935  0.2158 -1.5290  0.7584
 3354SOL    HW313183   2.318   2.875   4.873  0.9601  0.9127 -0.7651
 3354SOL    MW413184   2.245   2.922   4.865 -0.1327 -0.5542  0.1725
 3355SOL     OW13185   0.415   3.232   5.284  0.0481 -0.1706  0.3182
 3355SOL    HW213186   0.417   3.191   5.197 -0.3399 -2.1503  1.1792
 3355SOL    HW313187   0.496   3.284   5.288  0.9412 -1.4282 -0.6222
 3355SOL    MW413188   0.426   3.233   5.273  0.1147 -0.5977  0.3077
 3356SOL     OW13189   4.313   4.577   4.387 -0.3668  0.2719 -0.0879
 3356SOL    HW213190   4.373   4.546   4.320 -0.0326  0.4024  0.1474
 3356SOL    HW313191   4.369   4.618   4.453 -0.7047  0.3170  0.1784
 3356SOL    MW413192   4.328   4.578   4.387 -0.3673  0.2951 -0.0217
 3357SOL     OW13193   6.009   3.474   2.756  0.5792  0.6471 -0.0623
 3357SOL    HW213194   6.013   3.405   2.821  0.0881 -0.3980 -1.1061
 3357SOL    HW313195   5.935   3.529   2.784 -0.6461 -0.6780 -0.5477
 3357SOL    MW413196   5.999   3.472   2.768  0.3528  0.3344 -0.2641
 3358SOL     OW13197   3.658   5.140   0.015 -0.2722  0.0581  0.2910
 3358SOL    HW213198   3.727   5.075   0.004  0.5916  1.1005 -0.6622
 3358SOL    HW313199   3.701   5.213   0.060 -0.7053  0.7769 -0.4388
 3358SOL    MW413200   3.672   5.141   0.020 -0.2154  0.2905  0.0690
 3359SOL     OW13201   1.375   1.841   2.426  0.4270 -0.3081  0.3055
 3359SOL    HW213202   1.383   1.745   2.430  2.7374 -0.1826  0.2061
 3359SOL    HW313203   1.465   1.872   2.429 -0.3111  1.9301  1.2305
 3359SOL    MW413204   1.388   1.832   2.427  0.6345  0.0037  0.4144
 3360SOL     OW13205   3.565   5.393   6.107  0.3380 -0.4484 -0.1750
 3360SOL    HW213206   3.483   5.405   6.059 -0.8768 -0.9303  1.6637
 3360SOL    HW313207   3.606   5.479   6.106 -1.2202  0.3390  0.6215
 3360SOL    MW413208   3.559   5.406   6.100 -0.0279 -0.4081  0.1727
 3361SOL     OW13209   5.265   4.405   5.212 -0.1440 -0.7695 -0.5701
 3361SOL    HW213210   5.236   4.390   5.302 -0.0497 -1.7366 -0.6861
 3361SOL    HW313211   5.361   4.412   5.219 -0.2296  0.5266 -0.4322
 3361SOL    MW413212   5.274   4.404   5.225 -0.1429 -0.7261 -0.5672
 3362SOL     OW13213   5.762   3.620   1.265 -0.1870  0.4041 -0.4542
 3362SOL    HW213214   5.774   3.660   1.351 -0.8011 -0.6393  0.1301
 3362SOL    HW313215   5.828   3.551   1.261 -1.7019 -1.1620  0.2069
 3362SOL    MW413216   5.772   3.616   1.276 -0.4679  0.0598 -0.2899
 3363SOL     OW13217   4.886   4.682   6.241 -0.1234 -0.1984 -0.1518
 3363SOL    HW213218   4.979   4.691   6.260  0.0111 -2.0126  0.2473
 3363SOL    HW313219   4.844   4.673   6.327 -0.2835 -2.1535 -0.3791
 3363SOL    MW413220   4.892   4.682   6.255 -0.1268 -0.6957 -0.1291
 3364SOL     OW13221   0.176   6.174   1.430  0.1023 -0.1520  0.0819
 3364SOL    HW213222   0.197   6.259   1.468 -0.0521 -0.0643 -0.0308
 3364SOL    HW313223   0.249   6.118   1.457  0.0175 -0.0808  0.4685
 3364SOL    MW413224   0.188   6.178   1.439  0.0707 -0.1310  0.1180
 3365SOL     OW13225   4.040   2.941   0.636  0.1163  0.5451 -0.1490
 3365SOL    HW213226   4.007   3.028   0.614 -0.2118  0.0823 -1.6377
 3365SOL    HW313227   4.042   2.895   0.552  0.4126 -0.8389  0.5947
 3365SOL    MW413228   4.036   2.946   0.622  0.1121  0.3014 -0.2473
 3366SOL     OW13229   3.371   5.941   3.439 -0.0208 -0.2210  0.0076
 3366SOL    HW213230   3.294   5.962   3.386 -1.8188  1.2338  2.9785
 3366SOL    HW313231   3.350   5.856   3.478  0.2312 -0.1650  0.2648
 3366SOL    MW413232   3.358   5.932   3.437 -0.2247 -0.0217  0.4335
 3367SOL     OW13233   3.871   1.100   3.063  0.0276 -0.0675 -0.0807
 3367SOL    HW213234   3.930   1.164   3.024 -1.2075  0.8957 -0.4337
 3367SOL    HW313235   3.834   1.145   3.139  0.7983 -1.1734  0.9977
 3367SOL    MW413236   3.874   1.114   3.068 -0.0337 -0.0863  0.0150
 3368SOL     OW13237   5.493   2.275   3.103  0.5850  0.5610  0.0237
 3368SOL    HW213238   5.553   2.344   3.130 -0.3053  1.5836 -0.5133
 3368SOL    HW313239   5.432   2.266   3.176  0.5355  0.5299 -0.0215
 3368SOL    MW413240   5.493   2.283   3.116  0.4610  0.6918 -0.0531
 3369SOL     OW13241   1.629   0.055   3.718 -0.4344 -0.0769 -0.0445
 3369SOL    HW213242   1.566   0.113   3.674 -0.7456 -0.8169 -0.5848
 3369SOL    HW313243   1.575  -0.000   3.774 -0.2527 -0.5953 -0.3751
 3369SOL    MW413244   1.613   0.056   3.720 -0.4515 -0.2429 -0.1594
 3370SOL     OW13245   5.644   5.029   6.431  0.3139 -0.0012 -0.0804
 3370SOL    HW213246   5.688   4.968   6.490  0.3457 -0.2715 -0.3846
 3370SOL    HW313247   5.714   5.082   6.394  0.4291 -0.6867 -0.8599
 3370SOL    MW413248   5.659   5.028   6.434  0.3333 -0.1273 -0.2234
 3371SOL     OW13249   4.297   2.934   5.392 -0.2319  0.5005 -0.5098
 3371SOL    HW213250   4.308   2.889   5.475 -0.5621 -0.2866 -0.8880
 3371SOL    HW313251   4.277   3.024   5.416  1.7339  0.7987  0.2628
 3371SOL    MW413252   4.296   2.940   5.406 -0.0161  0.4360 -0.4578
 3372SOL     OW13253   4.897   3.033   6.332 -0.3474 -0.3214 -0.4328
 3372SOL    HW213254   4.893   3.112   6.279  1.6655 -0.9750 -1.7032
 3372SOL    HW313255   4.953   2.973   6.282  0.9819 -1.3179  2.0229
 3372SOL    MW413256   4.904   3.035   6.319  0.0935 -0.5391 -0.2764
 3373SOL     OW13257   4.861   0.557   2.324  0.5390  0.2528  0.2161
 3373SOL    HW213258   4.882   0.489   2.389 -1.1194 -1.8127 -1.2856
 3373SOL    HW313259   4.784   0.601   2.360 -0.0404 -0.5207 -0.0440
 3373SOL    MW413260   4.853   0.554   2.338  0.2438 -0.1218 -0.0163
 3374SOL     OW13261   6.137   3.249   3.197  0.4154  0.0707  0.3610
 3374SOL    HW213262   6.192   3.300   3.257 -0.1690 -1.1906  2.0178
 3374SOL    HW313263   6.137   3.161   3.233 -0.2379 -0.6666 -1.3370
 3374SOL    MW413264   6.145   3.244   3.210  0.2521 -0.1930  0.3555
 3375SOL     OW13265   4.690   6.165   2.017  0.1907  0.0585  0.0914
 3375SOL    HW213266   4.619   6.136   2.075 -0.9086  0.5057 -0.9806
 3375SOL    HW313267   4.760   6.101   2.030 -0.4572 -0.4751  1.0716
 3375SOL    MW413268   4.690   6.153   2.026 -0.0398  0.0471  0.0793
 3376SOL     OW13269   5.715   3.858   3.824  0.2063  0.2494 -0.0396
 3376SOL    HW213270   5.799   3.893   3.854  0.1799  1.3116 -1.1405
 3376SOL    HW313271   5.650   3.894   3.884  0.6162 -1.6593  1.6735
 3376SOL    MW413272   5.718   3.867   3.836  0.2569  0.1377  0.0412
 3377SOL     OW13273   3.479   3.198   0.983  0.5396 -0.6592 -0.0320
 3377SOL    HW213274   3.451   3.245   1.061 -0.7226  1.3870 -1.6188
 3377SOL    HW313275   3.569   3.228   0.967 -0.1810  1.1517 -0.9080
 3377SOL    MW413276   3.487   3.208   0.991  0.2780 -0.1503 -0.3569
 3378SOL     OW13277   4.689   2.525   5.092  0.7561  0.1939  0.3007
 3378SOL    HW213278   4.622   2.577   5.137 -0.3010 -0.3769 -0.5720
 3378SOL    HW313279   4.669   2.434   5.115  0.5267 -0.0629 -0.8632
 3378SOL    MW413280   4.678   2.520   5.101  0.5864  0.0847  0.0320
 3379SOL     OW13281   5.752   0.775   5.429 -0.4666 -0.4567  0.2527
 3379SOL    HW213282   5.708   0.764   5.345  0.9472  1.3675 -0.7911
 3379SOL    HW313283   5.828   0.718   5.423  0.1496  0.3906 -0.1139
 3379SOL    MW413284   5.756   0.766   5.417 -0.1988 -0.1042  0.0666
 3380SOL     OW13285   3.169   5.661   3.980  0.1736 -0.0099 -0.5124
 3380SOL    HW213286   3.128   5.576   3.997  0.1038  0.0934 -0.1640
 3380SOL    HW313287   3.101   5.725   4.003 -0.1102  0.1279 -1.6601
 3380SOL    MW413288   3.154   5.658   3.985  0.1269  0.0219 -0.6178
 3381SOL     OW13289   2.694   4.768   1.177  0.2108  0.3921 -0.4721
 3381SOL    HW213290   2.609   4.812   1.164 -0.8965 -1.3125  0.5630
 3381SOL    HW313291   2.714   4.783   1.269  1.0229  0.7158 -0.6955
 3381SOL    MW413292   2.685   4.776   1.187  0.1719  0.2099 -0.3650
 3382SOL     OW13293   0.615   1.496   4.186 -0.1192 -0.3633 -0.0245
 3382SOL    HW213294   0.694   1.543   4.160  0.2277 -1.3833 -0.8624
 3382SOL    HW313295   0.644   1.437   4.255 -0.5348  0.5269  0.9536
 3382SOL    MW413296   0.629   1.494   4.192 -0.1282 -0.3804 -0.0060
 3383SOL     OW13297   6.357   3.504   1.828 -0.1239 -0.0647 -0.2483
 3383SOL    HW213298   6.429   3.530   1.771 -1.7083 -0.1794 -2.4260
 3383SOL    HW313299   6.373   3.412   1.848  0.7417  0.1332 -0.0190
 3383SOL    MW413300   6.368   3.495   1.823 -0.2187 -0.0537 -0.5054
 3384SOL     OW13301   5.037   3.483   4.585  0.0792  0.2092  0.4161
 3384SOL    HW213302   5.106   3.547   4.600 -1.0753  1.1976  1.9318
 3384SOL    HW313303   5.029   3.437   4.669 -0.0684 -0.9713 -0.2211
 3384SOL    MW413304   5.045   3.485   4.598 -0.0926  0.1838  0.5320
 3385SOL     OW13305   2.406   6.236   2.526 -0.8329 -0.7856  0.5962
 3385SOL    HW213306   2.395   6.144   2.550  0.7165 -0.9653  0.7300
 3385SOL    HW313307   2.325   6.259   2.481 -1.5460 -1.9989  1.2230
 3385SOL    MW413308   2.394   6.227   2.523 -0.7226 -0.9694  0.6966
 3386SOL     OW13309   5.458   5.595   3.430 -0.3782 -0.3265 -0.1962
 3386SOL    HW213310   5.520   5.522   3.436 -0.2496 -0.2757 -0.8005
 3386SOL    HW313311   5.499   5.656   3.369 -0.2563  0.4906  0.6808
 3386SOL    MW413312   5.472   5.593   3.422 -0.3452 -0.2120 -0.1603
 3387SOL     OW13313   3.101   3.928   1.155 -0.0076 -0.3511  0.2164
 3387SOL    HW213314   3.151   4.009   1.147 -0.7679  0.3352  2.0193
 3387SOL    HW313315   3.153   3.863   1.107  1.6857  0.7246  0.5315
 3387SOL    MW413316   3.114   3.930   1.148  0.1155 -0.1186  0.4958
 3388SOL     OW13317   2.598   4.889   6.354 -0.1974  0.4222  0.1668
 3388SOL    HW213318   2.580   4.949   6.281  1.1693 -0.3838 -0.8773
 3388SOL    HW313319   2.536   4.817   6.342  1.3033 -0.6905 -1.4400
 3388SOL    MW413320   2.587   4.887   6.343  0.1810  0.1690 -0.1829
 3389SOL     OW13321   1.559   3.999   0.029 -0.2067  0.4002 -0.6074
 3389SOL    HW213322   1.624   4.063   0.058 -0.2406 -0.2777  1.0922
 3389SOL    HW313323   1.586   3.976  -0.060  0.2985  2.1135 -0.9254
 3389SOL    MW413324   1.571   4.004   0.021 -0.1445  0.5368 -0.4252
 3390SOL     OW13325   0.574   5.274   5.545 -0.6484  0.0658 -0.6213
 3390SOL    HW213326   0.596   5.364   5.523  0.4415 -0.0101  0.0787
 3390SOL    HW313327   0.492   5.256   5.498 -0.8380  1.3872 -0.8143
 3390SOL    MW413328   0.566   5.283   5.536 -0.5296  0.2301 -0.5544
 3391SOL     OW13329   4.418   5.468   4.470 -0.3856 -0.1138 -0.2926
 3391SOL    HW213330   4.342   5.489   4.416  0.0672  3.2386  0.1491
 3391SOL    HW313331   4.403   5.515   4.552  0.6113 -2.1807  1.1690
 3391SOL    MW413332   4.406   5.477   4.474 -0.1944  0.0558 -0.0415
 3392SOL     OW13333   3.425   6.389   3.021  0.0995  0.1651  0.0622
 3392SOL    HW213334   3.377   6.453   2.968  0.6068 -0.4753 -1.2071
 3392SOL    HW313335   3.497   6.439   3.059  0.8511  0.2450 -1.4144
 3392SOL    MW413336   3.428   6.404   3.019  0.2656  0.0912 -0.3001
 3393SOL     OW13337   3.228   3.243   2.366  0.7216 -0.4674 -0.0315
 3393SOL    HW213338   3.179   3.191   2.302 -0.2464  0.1013  0.2332
 3393SOL    HW313339   3.313   3.200   2.371  0.2266 -1.5344 -0.4376
 3393SOL    MW413340   3.233   3.231   2.359  0.5285 -0.5332 -0.0501
 3394SOL     OW13341   0.683   2.587   3.871 -0.5252  0.0014  0.2083
 3394SOL    HW213342   0.655   2.545   3.790 -0.7979 -1.1469  0.8732
 3394SOL    HW313343   0.601   2.618   3.911 -0.3603  0.8530 -0.1014
 3394SOL    MW413344   0.668   2.585   3.866 -0.5395 -0.0377  0.2552
 3395SOL     OW13345   3.241   0.846   1.434  0.2172  0.1673  0.3284
 3395SOL    HW213346   3.147   0.862   1.425 -0.4219 -1.2916  3.2938
 3395SOL    HW313347   3.273   0.920   1.485  0.5155  0.1630  0.1523
 3395SOL    MW413348   3.233   0.858   1.439  0.1722 -0.0258  0.6964
 3396SOL     OW13349   2.021   1.452   1.463 -0.7521 -0.7931 -0.4503
 3396SOL    HW213350   2.055   1.411   1.384 -1.5136  0.0057 -1.2136
 3396SOL    HW313351   1.927   1.461   1.448 -0.6311  1.1890 -0.3436
 3396SOL    MW413352   2.013   1.448   1.450 -0.8366 -0.4262 -0.5369
 3397SOL     OW13353   4.096   4.837   0.864 -0.5684 -0.4451  0.1663
 3397SOL    HW213354   4.022   4.885   0.826  0.9492  0.1316 -2.2983
 3397SOL    HW313355   4.131   4.895   0.931  0.1273  1.2057 -1.5312
 3397SOL    MW413356   4.091   4.851   0.868 -0.2764 -0.1512 -0.3828
 3398SOL     OW13357   6.122   4.198   4.496 -0.0798 -0.2994  0.4794
 3398SOL    HW213358   6.077   4.215   4.579 -0.6977  0.4355  0.0047
 3398SOL    HW313359   6.211   4.231   4.509 -0.3669  0.4230  0.6331
 3398SOL    MW413360   6.128   4.205   4.508 -0.1992 -0.1071  0.4371
 3399SOL     OW13361   4.113   1.611   2.503 -0.3592  0.4944  0.5527
 3399SOL    HW213362   4.021   1.604   2.528 -0.4892 -0.3375 -0.1332
 3399SOL    HW313363   4.113   1.662   2.422 -0.4400 -1.2775 -0.6178
 3399SOL    MW413364   4.101   1.617   2.496 -0.3870  0.1509  0.3078
 3400SOL     OW13365   6.413   1.054   1.054 -0.4148  0.0899  0.3493
 3400SOL    HW213366   6.367   1.062   1.137 -1.5003  0.9234 -0.3132
 3400SOL    HW313367   6.466   1.133   1.048  0.1946 -0.2967  0.5553
 3400SOL    MW413368   6.414   1.066   1.064 -0.4776  0.1488  0.2890
 3401SOL     OW13369   6.296   0.745   3.862 -0.4361  0.1525 -0.3741
 3401SOL    HW213370   6.311   0.790   3.945 -0.0838 -1.4604  0.4736
 3401SOL    HW313371   6.214   0.783   3.829 -1.1157  0.1465  1.2018
 3401SOL    MW413372   6.287   0.756   3.868 -0.4793 -0.0611 -0.0543
 3402SOL     OW13373   3.275   2.014   4.928 -0.1924  0.3656  0.0110
 3402SOL    HW213374   3.235   1.940   4.884  0.0305  0.4417 -0.3186
 3402SOL    HW313375   3.356   1.979   4.966  0.7138  0.7912 -1.4694
 3402SOL    MW413376   3.281   2.000   4.927 -0.0434  0.4318 -0.2278
 3403SOL     OW13377   1.729   4.891   0.357 -0.4555 -0.1225  0.4590
 3403SOL    HW213378   1.635   4.874   0.363 -0.3668 -1.0341 -0.3322
 3403SOL    HW313379   1.763   4.869   0.443 -0.7341 -1.5630  0.2389
 3403SOL    MW413380   1.721   4.886   0.369 -0.4805 -0.4328  0.3256
 3404SOL     OW13381   2.152   6.410   1.180 -0.2744 -0.1745 -0.3032
 3404SOL    HW213382   2.130   6.485   1.236 -0.1142  0.1658 -0.6880
 3404SOL    HW313383   2.135   6.441   1.091  0.4139 -0.3729 -0.5105
 3404SOL    MW413384   2.147   6.424   1.175 -0.1625 -0.1558 -0.3814
 3405SOL     OW13385   1.161   2.587   0.314  0.5949  0.2771 -0.2644
 3405SOL    HW213386   1.119   2.604   0.229  0.5104 -0.5182 -0.3916
 3405SOL    HW313387   1.093   2.607   0.378  0.5561  0.5765 -0.3965
 3405SOL    MW413388   1.146   2.592   0.311  0.5786  0.2117 -0.2986
 3406SOL     OW13389   2.516   4.687   4.205 -0.0395  0.6649 -0.2915
 3406SOL    HW213390   2.423   4.679   4.182  0.2621 -0.9334 -1.0886
 3406SOL    HW313391   2.532   4.781   4.205 -1.4222  0.9394 -1.1351
 3406SOL    MW413392   2.506   4.698   4.202 -0.1821  0.4903 -0.5080
 3407SOL     OW13393   0.685   0.020   3.904  0.4719  0.1536 -0.5134
 3407SOL    HW213394   0.630  -0.053   3.874 -1.1303  2.1265 -2.7778
 3407SOL    HW313395   0.667   0.091   3.842  2.9439  2.0927  0.7855
 3407SOL    MW413396   0.675   0.020   3.892  0.5866  0.6698 -0.6408
 3408SOL     OW13397   4.492   0.912   1.171  0.3256 -0.2578  0.5504
 3408SOL    HW213398   4.401   0.887   1.159  0.3491 -0.6003  1.0563
 3408SOL    HW313399   4.538   0.874   1.096 -0.0726  0.6212 -0.1488
 3408SOL    MW413400   4.486   0.904   1.159  0.2762 -0.1870  0.5249
 3409SOL     OW13401   6.293   4.675   4.739 -0.5219  0.3147 -0.1309
 3409SOL    HW213402   6.235   4.659   4.813 -0.4814  1.6970  0.2287
 3409SOL    HW313403   6.374   4.630   4.762 -0.2796  1.2920  1.0078
 3409SOL    MW413404   6.296   4.667   4.752 -0.4846  0.6260  0.0668
 3410SOL     OW13405   0.831   2.476   4.650  0.2695 -0.8566 -0.1752
 3410SOL    HW213406   0.741   2.488   4.681  0.0107 -1.1379 -0.8023
 3410SOL    HW313407   0.845   2.382   4.653  0.3642 -0.8537 -0.5787
 3410SOL    MW413408   0.821   2.465   4.655  0.2479 -0.8933 -0.3112
 3411SOL     OW13409   3.787   0.807   2.227 -0.2495 -0.1320 -0.6236
 3411SOL    HW213410   3.790   0.712   2.237  3.2910  0.0176  1.4612
 3411SOL    HW313411   3.808   0.823   2.135 -1.2989 -1.3001 -1.1002
 3411SOL    MW413412   3.790   0.797   2.216  0.0792 -0.2664 -0.4114
 3412SOL     OW13413   2.669   2.408   2.481  0.4245  0.2079  0.5760
 3412SOL    HW213414   2.662   2.313   2.480  1.5341  0.0441  2.6933
 3412SOL    HW313415   2.761   2.425   2.458  0.7271  0.6305  1.9947
 3412SOL    MW413416   2.680   2.398   2.477  0.6108  0.2421  1.0425
 3413SOL     OW13417   4.249   5.923   2.068  0.1683 -0.6625  0.0461
 3413SOL    HW213418   4.246   6.002   2.014 -0.4521  0.8390  2.1707
 3413SOL    HW313419   4.309   5.865   2.022  0.5378  0.9772 -1.6485
 3413SOL    MW413420   4.256   5.926   2.055  0.1352 -0.2481  0.1029
 3414SOL     OW13421   6.326   5.257   1.415 -0.1047 -0.9291  0.4124
 3414SOL    HW213422   6.364   5.284   1.331  0.8694 -1.3362  0.7109
 3414SOL    HW313423   6.327   5.161   1.412  0.8200 -0.9682  1.2562
 3414SOL    MW413424   6.331   5.248   1.403  0.1459 -0.9880  0.5631
 3415SOL     OW13425   0.832   0.249   2.796  0.1705  0.1182  0.3556
 3415SOL    HW213426   0.928   0.245   2.794  0.2173  0.9680  0.7279
 3415SOL    HW313427   0.808   0.295   2.715  0.0434 -0.5547  0.0039
 3415SOL    MW413428   0.841   0.254   2.785  0.1599  0.1415  0.3583
 3416SOL     OW13429   5.507   1.770   3.712  0.0754  0.4550 -0.1662
 3416SOL    HW213430   5.558   1.848   3.693 -0.2109  0.4524 -0.9647
 3416SOL    HW313431   5.523   1.711   3.639 -2.3684  1.1245 -1.3720
 3416SOL    MW413432   5.516   1.773   3.700 -0.2848  0.5430 -0.4307
 3417SOL     OW13433   2.578   2.168   3.237 -0.2629  0.4623  0.4690
 3417SOL    HW213434   2.585   2.122   3.320  1.4014 -0.3663 -0.0788
 3417SOL    HW313435   2.664   2.211   3.226 -0.2244  0.0523 -1.0819
 3417SOL    MW413436   2.590   2.168   3.246 -0.0382  0.2989  0.1921
 3418SOL     OW13437   3.404   5.196   4.225 -1.0042  0.3815 -0.2804
 3418SOL    HW213438   3.363   5.279   4.252 -1.4752  0.3003 -0.7175
 3418SOL    HW313439   3.378   5.133   4.292 -1.3950  0.3879 -0.4238
 3418SOL    MW413440   3.395   5.199   4.238 -1.1179  0.3717 -0.3570
 3419SOL     OW13441   5.016   4.271   4.386  0.8309  0.4885 -0.0980
 3419SOL    HW213442   5.023   4.350   4.333  1.5875 -0.7526 -1.9638
 3419SOL    HW313443   4.944   4.289   4.447  0.5876  2.3571 -0.8722
 3419SOL    MW413444   5.007   4.284   4.387  0.8986  0.5713 -0.4463
 3420SOL     OW13445   4.394   0.861   2.921 -0.3038  0.0508 -0.0512
 3420SOL    HW213446   4.365   0.820   3.002 -0.9785 -4.1288 -2.1474
 3420SOL    HW313447   4.313   0.888   2.877 -0.2765 -1.1703 -0.9045
 3420SOL    MW413448   4.379   0.859   2.926 -0.3892 -0.6618 -0.4403
 3421SOL     OW13449   2.430   6.113   4.778  0.0844 -0.4059 -0.2225
 3421SOL    HW213450   2.336   6.099   4.766  0.0199  0.3500 -0.6706
 3421SOL    HW313451   2.470   6.078   4.698 -0.0414  1.4367 -1.1530
 3421SOL    MW413452   2.423   6.107   4.766  0.0593 -0.0631 -0.4044
 3422SOL     OW13453   0.393   0.422   0.054 -0.3509  0.2244  0.1232
 3422SOL    HW213454   0.487   0.401   0.050 -0.4678 -0.7353  1.5624
 3422SOL    HW313455   0.370   0.410   0.146 -2.1468 -0.6833 -0.3991
 3422SOL    MW413456   0.403   0.417   0.066 -0.6033 -0.0220  0.2442
 3423SOL     OW13457   0.257   4.471   1.772  0.2958 -0.1993 -0.1287
 3423SOL    HW213458   0.245   4.377   1.786  0.6289 -0.3950 -1.1026
 3423SOL    HW313459   0.258   4.482   1.677 -0.7214  0.9233 -0.0367
 3423SOL    MW413460   0.255   4.460   1.762  0.2056 -0.0770 -0.2451
 3424SOL     OW13461   2.908   1.879   2.952  0.2635  0.1543 -0.0304
 3424SOL    HW213462   2.937   1.855   2.864  0.0379  1.0934 -0.3668
 3424SOL    HW313463   2.828   1.828   2.966  1.0111 -1.0082  0.1653
 3424SOL    MW413464   2.902   1.869   2.942  0.3323  0.1248 -0.0489
 3425SOL     OW13465   1.868   2.197   0.749 -0.3028 -0.2364 -0.4691
 3425SOL    HW213466   1.936   2.158   0.803 -0.1058  1.0627  0.2660
 3425SOL    HW313467   1.896   2.181   0.659  0.4561 -0.5803 -0.1742
 3425SOL    MW413468   1.880   2.190   0.744 -0.1767 -0.1104 -0.3332
 3426SOL     OW13469   4.865   0.134   4.845 -0.1554 -0.5399 -0.0628
 3426SOL    HW213470   4.933   0.173   4.790  0.9349  0.0974  1.6589
 3426SOL    HW313471   4.895   0.150   4.934 -2.6845 -0.0417  0.7667
 3426SOL    MW413472   4.878   0.141   4.849 -0.3452 -0.3901  0.2738
 3427SOL     OW13473   4.056   5.637   1.505 -0.4859  0.3204  0.4098
 3427SOL    HW213474   4.122   5.705   1.494 -0.9098  0.7592  0.5404
 3427SOL    HW313475   4.094   5.559   1.463 -0.2338  0.7820 -0.2333
 3427SOL    MW413476   4.070   5.636   1.498 -0.5086  0.4392  0.3422
 3428SOL     OW13477   4.437   3.771   4.353  0.2011 -0.3906 -0.3709
 3428SOL    HW213478   4.372   3.839   4.371  1.0030  0.2225  0.2916
 3428SOL    HW313479   4.486   3.804   4.278  1.6252  0.5623  0.9177
 3428SOL    MW413480   4.435   3.785   4.346  0.4948 -0.1840 -0.1135
 3429SOL     OW13481   5.491   1.239   0.900 -0.2334  0.0879  0.3075
 3429SOL    HW213482   5.465   1.323   0.938 -0.8708  0.8863 -1.7776
 3429SOL    HW313483   5.459   1.174   0.962  0.7015  1.3569  2.2205
 3429SOL    MW413484   5.483   1.242   0.913 -0.1941  0.3606  0.2848
 3430SOL     OW13485   4.925   1.485   2.402  0.0261  0.3987 -0.3738
 3430SOL    HW213486   4.983   1.488   2.326  0.8383  0.5901  0.2390
 3430SOL    HW313487   4.946   1.402   2.445  1.5252  1.4752  1.1108
 3430SOL    MW413488   4.935   1.474   2.397  0.3311  0.5660 -0.0971
 3431SOL     OW13489   5.152   2.926   0.163 -0.0393  0.4405 -0.1775
 3431SOL    HW213490   5.149   2.903   0.256 -0.9050 -0.5528 -0.4323
 3431SOL    HW313491   5.084   2.993   0.153  1.0205  1.6240  0.1463
 3431SOL    MW413492   5.143   2.932   0.174 -0.0137  0.4656 -0.1684
 3432SOL     OW13493   6.100   2.857   4.676 -0.4153 -0.4912  0.3247
 3432SOL    HW213494   6.075   2.765   4.670 -1.8956 -0.0277 -1.4608
 3432SOL    HW313495   6.080   2.894   4.590 -1.4707  1.8729  1.4728
 3432SOL    MW413496   6.094   2.850   4.664 -0.7499 -0.1181  0.2406
 3433SOL     OW13497   2.848   2.810   3.368  0.6736 -0.0580  0.2837
 3433SOL    HW213498   2.903   2.888   3.377  0.8886 -0.1108 -0.5101
 3433SOL    HW313499   2.778   2.822   3.432  1.8628 -0.2203  1.6823
 3433SOL    MW413500   2.846   2.822   3.378  0.8589 -0.0864  0.3635
 3434SOL     OW13501   5.691   1.976   5.680  0.3499 -0.1135  0.2623
 3434SOL    HW213502   5.762   2.007   5.737  1.4716 -2.6544  0.4066
 3434SOL    HW313503   5.611   2.004   5.723  1.2163  2.2487  0.4689
 3434SOL    MW413504   5.690   1.984   5.693  0.6122 -0.1371  0.3086
 3435SOL     OW13505   2.719   3.062   0.705 -0.4565  0.0246 -0.2448
 3435SOL    HW213506   2.707   2.984   0.759 -2.2426  0.9797  0.8308
 3435SOL    HW313507   2.809   3.089   0.721 -0.6155 -0.3486  1.4066
 3435SOL    MW413508   2.730   3.056   0.714 -0.7131  0.1013  0.1150
 3436SOL     OW13509   4.729   2.290   4.471  0.1009 -0.3805 -0.2689
 3436SOL    HW213510   4.656   2.338   4.509  0.2290  1.9313 -2.6165
 3436SOL    HW313511   4.795   2.286   4.541 -1.2266 -0.1468  1.0420
 3436SOL    MW413512   4.728   2.296   4.485 -0.0573 -0.0447 -0.4057
 3437SOL     OW13513   1.459   5.868   0.364 -0.3220 -0.5232 -0.1045
 3437SOL    HW213514   1.455   5.838   0.273 -0.8129 -2.0989  0.3943
 3437SOL    HW313515   1.550   5.854   0.390 -0.4985 -1.4137  0.0562
 3437SOL    MW413516   1.471   5.862   0.355 -0.4100 -0.8486 -0.0175
 3438SOL     OW13517   5.976   2.699   4.440  0.1369  0.6708  0.4273
 3438SOL    HW213518   5.920   2.627   4.412  0.7133  0.0124  0.9213
 3438SOL    HW313519   5.924   2.777   4.424 -0.5490  0.1389 -0.0129
 3438SOL    MW413520   5.961   2.700   4.434  0.1225  0.5137  0.4344
 3439SOL     OW13521   1.805   6.156   3.506 -0.3847 -0.1054 -0.4293
 3439SOL    HW213522   1.900   6.160   3.496 -0.3223 -0.8150 -0.1819
 3439SOL    HW313523   1.788   6.187   3.594 -0.4918  1.1387 -0.8681
 3439SOL    MW413524   1.815   6.161   3.516 -0.3906 -0.0349 -0.4546
 3440SOL     OW13525   6.274   1.470   5.293  0.0883  0.8220 -0.1640
 3440SOL    HW213526   6.179   1.463   5.293  0.0410  1.3117 -1.0434
 3440SOL    HW313527   6.296   1.505   5.380 -0.4586 -0.0666  0.3459
 3440SOL    MW413528   6.264   1.474   5.305  0.0099  0.7694 -0.2128
 3441SOL     OW13529   5.298   4.533   2.536  0.0980 -0.5446  0.3348
 3441SOL    HW213530   5.286   4.470   2.607 -0.7323 -2.2371 -1.2366
 3441SOL    HW313531   5.215   4.533   2.488 -0.0088  1.9518  0.3868
 3441SOL    MW413532   5.286   4.525   2.539 -0.0257 -0.4385  0.1343
 3442SOL     OW13533   4.210   5.627   3.970 -0.1867 -0.0933 -0.0187
 3442SOL    HW213534   4.169   5.593   3.890  0.3887  0.6654 -0.6489
 3442SOL    HW313535   4.153   5.596   4.041 -0.4411 -1.1804 -0.6755
 3442SOL    MW413536   4.197   5.618   3.969 -0.1443 -0.1366 -0.1885
 3443SOL     OW13537   0.380   2.944   6.132 -0.3326  0.1100 -0.0057
 3443SOL    HW213538   0.435   2.998   6.074  0.9014 -0.7964  0.2644
 3443SOL    HW313539   0.442   2.908   6.196 -1.2608 -0.9435  0.3205
 3443SOL    MW413540   0.396   2.946   6.133 -0.2923 -0.1486  0.0730
 3444SOL     OW13541   1.481   5.921   4.257 -0.2460  0.2218  0.0212
 3444SOL    HW213542   1.438   5.841   4.226 -0.0322 -0.4119  1.2975
 3444SOL    HW313543   1.518   5.897   4.342  0.7275  1.3847 -0.0464
 3444SOL    MW413544   1.480   5.907   4.264 -0.0894  0.2917  0.1807
 3445SOL     OW13545   3.686   3.273   1.803  0.2447 -0.2687  0.4304
 3445SOL    HW213546   3.649   3.228   1.727 -1.1944 -2.0793  2.0957
 3445SOL    HW313547   3.638   3.355   1.810 -1.0114 -0.9935  0.5053
 3445SOL    MW413548   3.675   3.278   1.794 -0.1109 -0.6032  0.6600
 3446SOL     OW13549   0.762   4.599   4.457  0.5657 -0.1801  0.4284
 3446SOL    HW213550   0.709   4.650   4.519  1.0427  1.2517 -0.2859
 3446SOL    HW313551   0.707   4.589   4.380  0.5410 -0.6006  0.4981
 3446SOL    MW413552   0.748   4.605   4.455  0.6254 -0.0466  0.3434
 3447SOL     OW13553   3.044   0.906   0.344  0.4282  0.0099  0.6936
 3447SOL    HW213554   3.135   0.923   0.322  0.2220  1.2575  0.7660
 3447SOL    HW313555   3.035   0.936   0.435  0.0086 -0.3565  0.7783
 3447SOL    MW413556   3.055   0.912   0.353  0.3457  0.1262  0.7143
 3448SOL     OW13557   0.690   3.555   0.908 -0.6683  1.0504  0.3767
 3448SOL    HW213558   0.681   3.482   0.847 -0.3394  1.7942 -0.5705
 3448SOL    HW313559   0.617   3.543   0.970  1.1699 -1.9046  2.2372
 3448SOL    MW413560   0.679   3.544   0.908 -0.3824  0.7587  0.4972
 3449SOL     OW13561   0.676   2.975   3.588 -0.1519  0.5305  0.0927
 3449SOL    HW213562   0.592   2.929   3.577  0.0626  0.2474 -0.4179
 3449SOL    HW313563   0.724   2.955   3.507 -0.2822  2.1569 -0.4098
 3449SOL    MW413564   0.671   2.966   3.576 -0.1408  0.7077 -0.0410
 3450SOL     OW13565   1.656   2.891   1.635  0.0627  0.0303 -0.0232
 3450SOL    HW213566   1.749   2.867   1.640  0.3897  1.3708  1.0009
 3450SOL    HW313567   1.656   2.976   1.591 -0.6799  0.0603  0.0273
 3450SOL    MW413568   1.669   2.899   1.630  0.0079  0.2111  0.1186
 3451SOL     OW13569   3.146   3.621   2.043 -0.4821  0.0397 -0.6566
 3451SOL    HW213570   3.195   3.630   1.960 -0.4564 -1.1426 -0.7887
 3451SOL    HW313571   3.101   3.537   2.035  0.1250 -0.4611  0.8417
 3451SOL    MW413572   3.147   3.611   2.031 -0.3986 -0.1824 -0.4764
 3452SOL     OW13573   2.035   4.832   4.732  0.0383 -0.1214  0.1293
 3452SOL    HW213574   1.977   4.800   4.662  0.6878  1.0281 -0.9880
 3452SOL    HW313575   2.021   4.771   4.804 -1.1834 -0.9533 -0.7521
 3452SOL    MW413576   2.025   4.820   4.732 -0.0372 -0.0795 -0.1344
 3453SOL     OW13577   3.664   1.919   3.623  0.2369 -0.3660  0.1368
 3453SOL    HW213578   3.726   1.963   3.681  2.4010  0.0659 -2.3108
 3453SOL    HW313579   3.693   1.828   3.622  1.1550 -0.0912 -1.2960
 3453SOL    MW413580   3.676   1.913   3.630  0.6436 -0.2728 -0.3752
 3454SOL     OW13581   0.923   2.512   2.177  0.2999 -0.2259  0.0792
 3454SOL    HW213582   0.911   2.546   2.266 -0.1063 -0.1479 -0.0030
 3454SOL    HW313583   0.864   2.564   2.124  0.7012 -0.1275 -0.2749
 3454SOL    MW413584   0.914   2.523   2.182  0.2993 -0.2026  0.0217
 3455SOL     OW13585   4.383   2.446   3.465 -0.0604  0.4713  0.5165
 3455SOL    HW213586   4.335   2.525   3.491  1.2758  1.4694  0.0412
 3455SOL    HW313587   4.346   2.376   3.519  0.5963  1.9247  2.9822
 3455SOL    MW413588   4.372   2.447   3.476  0.2026  0.7947  0.7791
 3456SOL     OW13589   3.488   3.188   3.004 -0.0585  0.2669 -0.5323
 3456SOL    HW213590   3.444   3.144   2.931  1.1038 -0.9314 -0.5673
 3456SOL    HW313591   3.537   3.118   3.048 -0.2934  1.0666  1.0723
 3456SOL    MW413592   3.489   3.173   3.000  0.0639  0.2144 -0.3252
 3457SOL     OW13593   3.243   1.928   3.687 -0.3896 -0.1002 -0.2515
 3457SOL    HW213594   3.321   1.919   3.742  0.2361  0.9070 -0.9435
 3457SOL    HW313595   3.257   2.009   3.638 -1.2509 -0.6059 -1.3820
 3457SOL    MW413596   3.255   1.938   3.688 -0.4207 -0.0341 -0.4920
 3458SOL     OW13597   2.240   4.010   0.035 -0.1709  0.3250 -0.2528
 3458SOL    HW213598   2.154   3.969   0.037  0.1777 -0.4013  0.0659
 3458SOL    HW313599   2.299   3.945   0.074  0.0913  1.8629  2.0910
 3458SOL    MW413600   2.236   3.996   0.041 -0.0903  0.4321  0.0985
 3459SOL     OW13601   3.623   3.425   2.978  0.0880  0.2694  0.5297
 3459SOL    HW213602   3.581   3.339   2.969 -0.1009  0.5781 -2.3708
 3459SOL    HW313603   3.555   3.481   3.015 -0.1148 -0.5591  1.4672
 3459SOL    MW413604   3.608   3.421   2.982  0.0363  0.2008  0.2707
 3460SOL     OW13605   4.924   2.551   5.240  0.0804  0.1796  0.2918
 3460SOL    HW213606   4.840   2.547   5.194 -0.2444 -0.0999  0.8944
 3460SOL    HW313607   4.957   2.639   5.222  0.8994 -0.5150 -2.0855
 3460SOL    MW413608   4.917   2.562   5.231  0.1456  0.0511  0.0576
 3461SOL     OW13609   0.273   0.809   0.845 -0.4045 -0.1080 -0.1351
 3461SOL    HW213610   0.225   0.804   0.762 -0.7820 -0.1661  0.0832
 3461SOL    HW313611   0.233   0.742   0.900  0.5573 -0.7937 -0.2574
 3461SOL    MW413612   0.261   0.800   0.841 -0.3274 -0.2061 -0.1224
 3462SOL     OW13613   2.828   1.824   0.758 -0.0793  0.1286 -0.3987
 3462SOL    HW213614   2.772   1.843   0.834  0.4370  0.9661 -0.2115
 3462SOL    HW313615   2.909   1.789   0.796  0.0659  0.2634 -0.5839
 3462SOL    MW413616   2.831   1.822   0.773  0.0080  0.2569 -0.3984
 3463SOL     OW13617   2.087   2.752   2.498 -0.4493 -0.1300 -0.4644
 3463SOL    HW213618   2.056   2.842   2.508 -1.1628 -0.3756 -0.4161
 3463SOL    HW313619   2.022   2.710   2.443 -0.4936 -0.8049  0.0894
 3463SOL    MW413620   2.075   2.759   2.492 -0.5493 -0.2515 -0.3849
 3464SOL     OW13621   5.738   4.519   5.396  0.6926  0.0529  0.0979
 3464SOL    HW213622   5.811   4.458   5.406  1.1070  0.6075  0.5008
 3464SOL    HW313623   5.775   4.593   5.348  0.0701 -0.2169 -0.8268
 3464SOL    MW413624   5.752   4.521   5.391  0.6651  0.0905  0.0291
 3465SOL     OW13625   5.123   2.281   3.982  0.0237  0.0875  0.5921
 3465SOL    HW213626   5.062   2.349   4.009  0.1898 -0.1082  1.4957
 3465SOL    HW313627   5.179   2.323   3.916 -1.3357  0.1427 -0.5770
 3465SOL    MW413628   5.123   2.295   3.977 -0.1337  0.0690  0.5571
 3466SOL     OW13629   6.024   0.605   6.122  0.5933 -0.1193 -0.3712
 3466SOL    HW213630   6.079   0.659   6.064 -1.8954  3.4668  0.2536
 3466SOL    HW313631   6.049   0.633   6.210 -1.7557  1.3258 -0.0695
 3466SOL    MW413632   6.035   0.616   6.126 -0.0450  0.5445 -0.2489
 3467SOL     OW13633   1.247   0.763   6.177  0.1668  0.1260  0.0539
 3467SOL    HW213634   1.290   0.779   6.261 -1.2225 -0.9731  1.0355
 3467SOL    HW313635   1.179   0.699   6.198 -1.1131  0.8724 -1.6613
 3467SOL    MW413636   1.244   0.756   6.191 -0.1853  0.0794 -0.0429
 3468SOL     OW13637   4.475   0.518   0.758  0.2600 -0.5737  0.5299
 3468SOL    HW213638   4.515   0.599   0.790 -0.5595  0.0022  0.1337
 3468SOL    HW313639   4.465   0.464   0.837  0.1033  0.0210  0.9292
 3468SOL    MW413640   4.479   0.522   0.773  0.1312 -0.4193  0.5303
 3469SOL     OW13641   4.290   5.568   2.877 -0.3691  0.9760 -0.1776
 3469SOL    HW213642   4.283   5.475   2.856  1.7922  0.8038 -0.3246
 3469SOL    HW313643   4.382   5.589   2.860 -0.0803  2.4160  2.6892
 3469SOL    MW413644   4.301   5.558   2.872 -0.0458  1.1433  0.1812
 3470SOL     OW13645   6.061   3.027   0.471 -0.0518  0.7484  0.4679
 3470SOL    HW213646   6.151   3.038   0.443 -0.2788  0.9764 -0.1880
 3470SOL    HW313647   6.049   3.093   0.540  0.4255  0.3722  0.9178
 3470SOL    MW413648   6.071   3.037   0.476 -0.0188  0.7289  0.4407
 3471SOL     OW13649   0.919   0.749   6.409 -0.4768  0.4275 -0.1723
 3471SOL    HW213650   0.862   0.680   6.442  1.2028 -0.4494  0.9817
 3471SOL    HW313651   0.968   0.708   6.338 -0.3019  0.7771 -0.2564
 3471SOL    MW413652   0.918   0.735   6.404 -0.2321  0.3579 -0.0312
 3472SOL     OW13653   3.242   0.517   3.006  0.0133  0.1728  0.1820
 3472SOL    HW213654   3.163   0.571   3.010  0.9641  1.8478 -1.8901
 3472SOL    HW313655   3.299   0.554   3.074 -1.0812 -1.3852  2.0621
 3472SOL    MW413656   3.239   0.529   3.016 -0.0056  0.1882  0.1567
 3473SOL     OW13657   3.530   2.443   4.183 -0.1689  0.0901  0.2584
 3473SOL    HW213658   3.609   2.496   4.182 -0.4931  0.5986  0.7665
 3473SOL    HW313659   3.471   2.485   4.120  0.0616 -0.4600 -0.3429
 3473SOL    MW413660   3.532   2.455   4.175 -0.1813  0.0846  0.2461
 3474SOL     OW13661   6.160   0.783   4.300 -0.6305  0.8609 -0.3897
 3474SOL    HW213662   6.224   0.717   4.328  0.9131  2.5717  0.2920
 3474SOL    HW313663   6.134   0.827   4.381 -0.5281  2.0301 -0.9718
 3474SOL    MW413664   6.165   0.780   4.315 -0.4134  1.2409 -0.3766
 3475SOL     OW13665   0.453   5.418   1.732  0.2619  0.6048 -0.3976
 3475SOL    HW213666   0.372   5.432   1.781  0.1757 -0.9579 -0.0634
 3475SOL    HW313667   0.430   5.355   1.664  1.3632 -0.4863  0.2040
 3475SOL    MW413668   0.439   5.412   1.729  0.3958  0.2547 -0.2741
 3476SOL     OW13669   4.471   0.768   0.372 -0.5816 -0.3198 -0.2118
 3476SOL    HW213670   4.451   0.682   0.409 -2.9798  0.5491  0.7635
 3476SOL    HW313671   4.547   0.799   0.421 -0.9383 -1.0824  0.8555
 3476SOL    MW413672   4.478   0.761   0.383 -0.9450 -0.3058  0.0577
 3477SOL     OW13673   1.952   2.236   4.451  0.0771  0.2387  0.0305
 3477SOL    HW213674   1.863   2.270   4.438 -0.3356 -0.1024  1.7553
 3477SOL    HW313675   1.995   2.302   4.506  0.5950 -0.0482 -0.0263
 3477SOL    MW413676   1.946   2.250   4.457  0.0910  0.1558  0.2506
 3478SOL     OW13677   1.908   3.040   5.612 -0.0397  0.5117  0.2522
 3478SOL    HW213678   1.891   3.050   5.518  1.0884 -0.3846 -0.0726
 3478SOL    HW313679   1.867   3.116   5.652 -1.0952  0.5811 -0.8967
 3478SOL    MW413680   1.901   3.051   5.605 -0.0301  0.4026  0.0578
 3479SOL     OW13681   3.018   6.140   4.196  0.5540 -0.4464  0.4695
 3479SOL    HW213682   3.111   6.154   4.212  0.2033  0.7838  1.5833
 3479SOL    HW313683   2.974   6.202   4.254 -0.9574 -0.7942 -0.2594
 3479SOL    MW413684   3.024   6.150   4.205  0.3083 -0.3300  0.5203
 3480SOL     OW13685   2.701   2.229   4.716  0.4785  0.5577 -0.0552
 3480SOL    HW213686   2.708   2.136   4.694  1.2519  0.9643 -1.6968
 3480SOL    HW313687   2.759   2.240   4.792 -0.1382 -0.4007  0.5764
 3480SOL    MW413688   2.710   2.218   4.723  0.4992  0.4849 -0.1884
 3481SOL     OW13689   1.367   4.117   0.514  0.2065  0.1279 -0.2237
 3481SOL    HW213690   1.334   4.035   0.478  1.0224 -0.2604 -0.1147
 3481SOL    HW313691   1.401   4.092   0.601  0.3379  0.6010 -0.1390
 3481SOL    MW413692   1.367   4.102   0.521  0.3314  0.1391 -0.1981
 3482SOL     OW13693   2.145   4.206   0.190  0.1906  0.3591  0.1716
 3482SOL    HW213694   2.118   4.167   0.274 -0.2493  1.5388  0.5992
 3482SOL    HW313695   2.188   4.134   0.143  0.3060 -0.3637  1.3393
 3482SOL    MW413696   2.147   4.191   0.195  0.1478  0.4194  0.3820
 3483SOL     OW13697   2.748   1.571   4.923  0.2040  0.1294 -0.2365
 3483SOL    HW213698   2.758   1.476   4.932 -2.9904 -0.4793 -1.7673
 3483SOL    HW313699   2.677   1.594   4.983  0.4466  1.4242 -0.4106
 3483SOL    MW413700   2.740   1.561   4.932 -0.1855  0.2199 -0.4614
 3484SOL     OW13701   6.011   4.995   5.547  0.4479  0.2956  0.0552
 3484SOL    HW213702   5.983   5.060   5.612  0.2623  0.7807 -0.5008
 3484SOL    HW313703   6.100   4.971   5.573  0.6614  1.0571  0.0548
 3484SOL    MW413704   6.019   5.001   5.559  0.4516  0.4601 -0.0182
 3485SOL     OW13705   2.386   1.206   0.113 -0.5842  0.0847  0.3173
 3485SOL    HW213706   2.292   1.213   0.130 -0.3255 -0.8287  2.3255
 3485SOL    HW313707   2.428   1.256   0.183  0.4776 -1.7819  1.0879
 3485SOL    MW413708   2.379   1.213   0.124 -0.4099 -0.2821  0.6840
 3486SOL     OW13709   1.558   3.918   1.145  0.2674 -0.1892 -0.3294
 3486SOL    HW213710   1.615   3.853   1.187 -0.1993  0.2840  1.0944
 3486SOL    HW313711   1.619   3.979   1.102  1.0191  1.1819  2.4212
 3486SOL    MW413712   1.574   3.917   1.145  0.3050  0.0541  0.2214
 3487SOL     OW13713   2.566   6.353   2.101  0.4155  0.4670 -0.0884
 3487SOL    HW213714   2.474   6.373   2.086 -0.3880 -2.3118  0.4486
 3487SOL    HW313715   2.588   6.291   2.031  1.9355  1.1982 -0.2806
 3487SOL    MW413716   2.557   6.347   2.090  0.5101  0.1968 -0.0429
 3488SOL     OW13717   5.691   1.140   4.024  0.1012  0.4046  0.2459
 3488SOL    HW213718   5.781   1.145   4.057 -0.1981 -0.6696  1.3368
 3488SOL    HW313719   5.682   1.050   3.991 -0.3349  0.7452 -0.5920
 3488SOL    MW413720   5.701   1.128   4.024  0.0041  0.3078  0.2792
 3489SOL     OW13721   5.054   1.351   2.836  0.1983  0.0070 -0.0018
 3489SOL    HW213722   5.066   1.436   2.879  0.0059 -0.0204  0.1068
 3489SOL    HW313723   4.959   1.338   2.836  0.2695 -0.5883  0.7305
 3489SOL    MW413724   5.043   1.361   2.842  0.1823 -0.0752  0.1091
 3490SOL     OW13725   5.597   3.454   3.144  0.0025 -0.1852  0.4235
 3490SOL    HW213726   5.549   3.440   3.226 -0.1809  1.0036  0.5371
 3490SOL    HW313727   5.683   3.485   3.172  1.2286 -3.1515  0.2517
 3490SOL    MW413728   5.602   3.457   3.158  0.1401 -0.4197  0.4159
 3491SOL     OW13729   1.483   2.213   2.849  0.2581 -0.2159 -0.2375
 3491SOL    HW213730   1.470   2.163   2.930 -0.0634 -0.9592 -0.7386
 3491SOL    HW313731   1.394   2.227   2.816  0.4271 -0.8004 -0.9781
 3491SOL    MW413732   1.469   2.208   2.855  0.2380 -0.3911 -0.4014
 3492SOL     OW13733   4.820   2.247   5.641  0.1724 -0.7521 -0.1931
 3492SOL    HW213734   4.862   2.179   5.693 -0.6417 -0.6291  0.6613
 3492SOL    HW313735   4.817   2.324   5.699  1.6815  0.2480 -1.3699
 3492SOL    MW413736   4.825   2.248   5.655  0.2641 -0.6039 -0.2357
 3493SOL     OW13737   4.050   5.612   2.064 -0.3422  0.2835  0.9102
 3493SOL    HW213738   4.135   5.588   2.102 -1.4638 -1.8990  2.2480
 3493SOL    HW313739   4.054   5.708   2.056  2.0210  0.2981  1.4348
 3493SOL    MW413740   4.062   5.622   2.068 -0.1784 -0.0025  1.1559
 3494SOL     OW13741   2.600   1.314   3.962 -0.4200  0.4619  0.3453
 3494SOL    HW213742   2.553   1.335   4.043 -3.1906 -1.7312 -0.5384
 3494SOL    HW313743   2.610   1.219   3.963 -3.6692 -0.1809 -3.2492
 3494SOL    MW413744   2.595   1.304   3.973 -1.2143  0.0877 -0.2455
 3495SOL     OW13745   6.372   2.520   3.825 -0.0002 -0.0045  0.7042
 3495SOL    HW213746   6.410   2.510   3.913  1.0706  0.9650  0.3679
 3495SOL    HW313747   6.370   2.614   3.810 -0.3262 -0.1524 -0.2597
 3495SOL    MW413748   6.377   2.531   3.835  0.0981  0.1039  0.5327
 3496SOL     OW13749   4.220   5.309   0.727 -0.0629  0.6651  1.0252
 3496SOL    HW213750   4.178   5.233   0.688 -0.3805  1.1272  0.4387
 3496SOL    HW313751   4.294   5.274   0.776  0.4535  0.0725 -0.1554
 3496SOL    MW413752   4.224   5.295   0.728 -0.0367  0.6479  0.7921
 3497SOL     OW13753   2.657   2.645   4.698 -0.6071  0.5328 -0.5454
 3497SOL    HW213754   2.705   2.584   4.755  0.8054  1.8052 -0.3066
 3497SOL    HW313755   2.697   2.632   4.611 -0.9768  0.4460 -0.7061
 3497SOL    MW413756   2.669   2.635   4.694 -0.4695  0.6892 -0.5351
 3498SOL     OW13757   1.393   0.406   1.752 -0.1585  0.4433  0.0931
 3498SOL    HW213758   1.318   0.361   1.792  0.5777 -1.2278 -0.2932
 3498SOL    HW313759   1.401   0.366   1.665  0.9705  0.8150  0.0083
 3498SOL    MW413760   1.384   0.394   1.746  0.0876  0.2719  0.0309
 3499SOL     OW13761   1.242   6.060   1.474  0.1030  0.0765 -0.0592
 3499SOL    HW213762   1.298   6.122   1.522  1.2827  0.0601 -1.3369
 3499SOL    HW313763   1.284   6.053   1.388 -0.1658 -2.2952 -0.0408
 3499SOL    MW413764   1.255   6.067   1.469  0.2232 -0.2386 -0.2254
 3500SOL     OW13765   4.225   3.729   4.692  0.0654  0.2724  0.2093
 3500SOL    HW213766   4.242   3.749   4.784  0.6958 -1.9956  0.6410
 3500SOL    HW313767   4.280   3.653   4.674  1.1412  1.5484 -2.4941
 3500SOL    MW413768   4.235   3.722   4.702  0.2905  0.1415 -0.0904
 3501SOL     OW13769   5.861   4.409   4.227  0.0666 -0.0324  0.2761
 3501SOL    HW213770   5.867   4.353   4.304 -0.8762 -1.6422 -0.7715
 3501SOL    HW313771   5.768   4.430   4.219 -0.2218 -1.8254 -1.7058
 3501SOL    MW413772   5.850   4.405   4.236 -0.0958 -0.4814 -0.1236
 3502SOL     OW13773   5.137   1.527   5.696 -0.5434 -0.0655  0.2954
 3502SOL    HW213774   5.191   1.524   5.617  1.8060 -1.2763  1.8167
 3502SOL    HW313775   5.177   1.594   5.751 -1.5567  0.1035  0.8686
 3502SOL    MW413776   5.149   1.535   5.693 -0.3671 -0.2030  0.5718
 3503SOL     OW13777   1.279   2.196   5.075 -0.1485 -0.2835  0.0537
 3503SOL    HW213778   1.318   2.237   4.998 -0.4966  2.8193  1.3616
 3503SOL    HW313779   1.185   2.196   5.057 -0.1641 -0.3255  0.1381
 3503SOL    MW413780   1.272   2.202   5.062 -0.1965  0.1203  0.2374
 3504SOL     OW13781   0.334   3.704   3.330 -0.3749 -0.3229 -0.0295
 3504SOL    HW213782   0.411   3.672   3.377 -2.1189 -1.6170  2.1591
 3504SOL    HW313783   0.345   3.799   3.326  2.2109 -0.5766 -1.5789
 3504SOL    MW413784   0.346   3.712   3.335 -0.2639 -0.5271  0.0548
 3505SOL     OW13785   4.539   1.348   4.664  0.3151  0.7621 -0.3449
 3505SOL    HW213786   4.483   1.390   4.730  1.7107  0.7680  0.8906
 3505SOL    HW313787   4.520   1.396   4.583 -0.4771  1.6409  0.3343
 3505SOL    MW413788   4.529   1.360   4.662  0.3947  0.8788 -0.0923
 3506SOL     OW13789   2.933   0.056   6.061  0.1481 -0.1188  0.1508
 3506SOL    HW213790   2.904   0.016   6.143 -1.4163  1.3627  0.3629
 3506SOL    HW313791   2.852   0.080   6.016  1.0027  1.2916 -0.7088
 3506SOL    MW413792   2.919   0.054   6.066  0.0545  0.2628  0.0653
 3507SOL     OW13793   4.906   0.840   4.791 -0.0171 -0.2891 -0.1441
 3507SOL    HW213794   4.929   0.838   4.698 -0.9667 -0.3244 -0.3829
 3507SOL    HW313795   4.893   0.933   4.811 -0.6085 -0.3469 -0.2494
 3507SOL    MW413796   4.908   0.852   4.781 -0.2204 -0.3014 -0.1895
 3508SOL     OW13797   1.145   5.956   3.239 -0.1693 -0.1447  0.1128
 3508SOL    HW213798   1.057   5.921   3.227 -0.3366  0.6694 -1.2433
 3508SOL    HW313799   1.133   6.041   3.280 -0.0070 -0.1136  0.0993
 3508SOL    MW413800   1.132   5.962   3.243 -0.1700 -0.0332 -0.0679
 3509SOL     OW13801   4.136   3.707   3.752 -0.3978 -0.5939  0.1178
 3509SOL    HW213802   4.086   3.757   3.816 -1.5503 -1.1286 -0.3343
 3509SOL    HW313803   4.121   3.615   3.775  2.8463 -0.8325  1.8118
 3509SOL    MW413804   4.127   3.702   3.763 -0.1218 -0.6959  0.2817
 3510SOL     OW13805   2.346   4.444   3.996 -0.2454  0.1011 -0.6781
 3510SOL    HW213806   2.426   4.404   4.030  0.3379 -0.2118 -2.2901
 3510SOL    HW313807   2.330   4.519   4.053 -0.1705 -1.2096  1.1187
 3510SOL    MW413808   2.355   4.449   4.008 -0.1585 -0.1131 -0.6537
 3511SOL     OW13809   3.935   4.174   5.745  0.2073  0.1023  0.2849
 3511SOL    HW213810   3.920   4.134   5.659 -0.1962  0.3900  0.2228
 3511SOL    HW313811   4.030   4.189   5.748  0.2734 -0.2547  0.0447
 3511SOL    MW413812   3.946   4.171   5.734  0.1628  0.0932  0.2450
 3512SOL     OW13813   2.360   6.304   3.219 -0.3608  0.2581  0.1108
 3512SOL    HW213814   2.448   6.317   3.183 -0.3623  0.3654  0.1472
 3512SOL    HW313815   2.321   6.236   3.164 -0.9142  1.4600 -1.0106
 3512SOL    MW413816   2.367   6.297   3.207 -0.4340  0.4308 -0.0323
 3513SOL     OW13817   5.570   0.778   5.225 -0.4954 -0.3111  0.4500
 3513SOL    HW213818   5.487   0.731   5.218 -0.2873 -0.6179 -0.0553
 3513SOL    HW313819   5.546   0.865   5.256 -1.1942  0.1281 -1.2262
 3513SOL    MW413820   5.556   0.783   5.228 -0.5601 -0.2936  0.1622
 3514SOL     OW13821   6.266   0.484   3.275  0.1808  0.4847  0.0373
 3514SOL    HW213822   6.224   0.567   3.297 -0.0983  0.6619 -1.0801
 3514SOL    HW313823   6.356   0.508   3.253  0.1262  0.4926 -0.1909
 3514SOL    MW413824   6.272   0.498   3.275  0.1368  0.5091 -0.1402
 3515SOL     OW13825   4.612   4.071   5.443 -0.1470  0.3559  0.3780
 3515SOL    HW213826   4.659   4.001   5.489 -0.5802  0.5225  1.0929
 3515SOL    HW313827   4.679   4.117   5.394  0.3187  0.1144  0.7795
 3515SOL    MW413828   4.627   4.068   5.443 -0.1427  0.3460  0.5253
 3516SOL     OW13829   1.731   0.547   2.918 -0.1387 -0.0171 -0.2890
 3516SOL    HW213830   1.800   0.532   2.854 -0.9719  1.9846 -1.7555
 3516SOL    HW313831   1.658   0.492   2.889 -0.8498  1.5927 -1.6948
 3516SOL    MW413832   1.731   0.538   2.906 -0.3425  0.4594 -0.6679
 3517SOL     OW13833   4.157   4.086   6.354 -0.2187  0.1694 -0.1134
 3517SOL    HW213834   4.075   4.131   6.332 -1.6566 -1.7886  0.9280
 3517SOL    HW313835   4.140   4.049   6.441  1.7750 -0.3487  0.0828
 3517SOL    MW413836   4.144   4.087   6.362 -0.1453 -0.1573  0.0499
 3518SOL     OW13837   0.671   3.833   0.851 -0.0792 -0.4461  0.0236
 3518SOL    HW213838   0.646   3.742   0.868  0.0832 -0.0529  2.7780
 3518SOL    HW313839   0.595   3.870   0.805 -1.3471 -1.3000  1.3175
 3518SOL    MW413840   0.657   3.826   0.847 -0.2250 -0.5069  0.5578
 3519SOL     OW13841   6.140   3.924   3.289  0.0355 -0.0959  0.0736
 3519SOL    HW213842   6.211   3.910   3.351  0.7388  4.1827  0.5519
 3519SOL    HW313843   6.070   3.963   3.341 -0.2485  1.4572 -1.3885
 3519SOL    MW413844   6.140   3.927   3.304  0.0908  0.6735 -0.0562
 3520SOL     OW13845   3.506   6.317   4.769  0.3073 -0.3286  0.3797
 3520SOL    HW213846   3.548   6.396   4.803 -1.4811  1.3867 -1.1271
 3520SOL    HW313847   3.510   6.254   4.841  1.6570  1.1654  1.6817
 3520SOL    MW413848   3.512   6.319   4.783  0.2494  0.0948  0.3526
 3521SOL     OW13849   5.948   0.944   1.016 -0.0662 -0.6969 -0.3113
 3521SOL    HW213850   5.879   0.939   0.949 -0.6037 -0.5533  0.2244
 3521SOL    HW313851   6.025   0.973   0.968 -0.4710 -0.4927 -0.8520
 3521SOL    MW413852   5.949   0.947   1.001 -0.1905 -0.6510 -0.3120
 3522SOL     OW13853   0.572   0.935   3.757  0.0931  0.0029  0.4856
 3522SOL    HW213854   0.646   0.897   3.709 -0.2963 -0.7857  0.4784
 3522SOL    HW313855   0.610   0.972   3.836  0.3580 -1.5066  1.0938
 3522SOL    MW413856   0.587   0.935   3.761  0.0767 -0.3003  0.5649
 3523SOL     OW13857   3.813   4.025   0.185 -0.0673 -0.0093  0.4796
 3523SOL    HW213858   3.784   4.111   0.216  0.1987  0.0912  0.4548
 3523SOL    HW313859   3.829   3.975   0.265 -0.9403 -0.2862  0.4946
 3523SOL    MW413860   3.811   4.030   0.200 -0.1474 -0.0326  0.4783
 3524SOL     OW13861   4.509   0.468   3.586 -0.7142 -0.7395  0.6196
 3524SOL    HW213862   4.575   0.429   3.528 -0.3761  0.5179  0.1240
 3524SOL    HW313863   4.561   0.513   3.653 -1.0964 -2.1398  1.9256
 3524SOL    MW413864   4.525   0.469   3.587 -0.7200 -0.7584  0.7266
 3525SOL     OW13865   5.138   0.047   3.514 -0.4481  0.6394 -0.1719
 3525SOL    HW213866   5.100  -0.041   3.517 -0.2304  0.5677  1.0652
 3525SOL    HW313867   5.210   0.044   3.577  0.3092  1.3730 -0.9785
 3525SOL    MW413868   5.142   0.035   3.523 -0.3194  0.7268 -0.1151
 3526SOL     OW13869   3.869   1.992   1.465  0.1200  0.0615 -0.1402
 3526SOL    HW213870   3.909   1.930   1.526  0.8517  0.3392 -0.3160
 3526SOL    HW313871   3.852   2.070   1.518  0.6671  0.2684 -0.2580
 3526SOL    MW413872   3.872   1.994   1.480  0.2887  0.1254 -0.1789
 3527SOL     OW13873   0.531   2.759   2.213  0.1301  0.0499  0.7371
 3527SOL    HW213874   0.577   2.836   2.179  0.7485 -0.2791  0.8071
 3527SOL    HW313875   0.465   2.739   2.146  0.1617  0.4574  0.5789
 3527SOL    MW413876   0.528   2.767   2.199  0.2159  0.0603  0.7255
 3528SOL     OW13877   2.131   2.564   1.988 -0.5123  0.2886 -0.0078
 3528SOL    HW213878   2.098   2.603   2.069 -1.4056  1.6710 -0.9910
 3528SOL    HW313879   2.085   2.481   1.980  3.4356 -2.7254  3.5852
 3528SOL    MW413880   2.121   2.558   1.998 -0.1093  0.0733  0.3366
 3529SOL     OW13881   5.754   0.735   6.382 -0.0173  0.5493  0.5856
 3529SOL    HW213882   5.695   0.809   6.370 -0.1392  0.2736 -0.6330
 3529SOL    HW313883   5.836   0.763   6.342 -0.0683  0.0271  0.1102
 3529SOL    MW413884   5.757   0.748   6.375 -0.0401  0.4440  0.3621
 3530SOL     OW13885   2.898   1.321   4.229  0.6881  0.2535  0.0800
 3530SOL    HW213886   2.852   1.365   4.300 -0.5127 -0.3901 -0.2652
 3530SOL    HW313887   2.883   1.228   4.245  0.8043  0.0844 -0.7550
 3530SOL    MW413888   2.890   1.314   4.240  0.5450  0.1462 -0.0757
 3531SOL     OW13889   2.588   2.035   5.339 -0.1835 -0.4056  0.5223
 3531SOL    HW213890   2.597   2.071   5.427 -0.3560 -0.1785  0.4486
 3531SOL    HW313891   2.629   1.949   5.344  1.7002  0.4332  0.3057
 3531SOL    MW413892   2.595   2.029   5.351  0.0422 -0.2649  0.4840
 3532SOL     OW13893   0.230   5.226   3.431 -0.1290 -0.8435  0.0074
 3532SOL    HW213894   0.267   5.154   3.482 -0.0456 -1.1292 -0.4475
 3532SOL    HW313895   0.249   5.203   3.340  0.3973  0.0358 -0.1134
 3532SOL    MW413896   0.237   5.213   3.426 -0.0486 -0.7651 -0.0685
 3533SOL     OW13897   4.011   1.015   1.621 -0.6234 -0.1900 -0.9935
 3533SOL    HW213898   4.063   0.979   1.549  2.2429  0.8380  0.3939
 3533SOL    HW313899   3.967   1.091   1.582 -1.9422 -1.6461 -2.4574
 3533SOL    MW413900   4.012   1.020   1.606 -0.4192 -0.2464 -1.0036
 3534SOL     OW13901   0.134   6.086   0.794 -0.4758  0.4735  0.1723
 3534SOL    HW213902   0.122   6.012   0.854  0.2846 -0.6598 -1.0335
 3534SOL    HW313903   0.055   6.086   0.741  0.4683 -0.8963 -1.2981
 3534SOL    MW413904   0.122   6.076   0.795 -0.2509  0.1432 -0.1808
 3535SOL     OW13905   4.928   2.273   1.474 -0.2410 -0.8400 -0.7312
 3535SOL    HW213906   4.994   2.319   1.423  0.9825 -0.8790  0.7570
 3535SOL    HW313907   4.920   2.187   1.431 -0.9517 -0.0927 -2.2020
 3535SOL    MW413908   4.936   2.268   1.461 -0.1733 -0.7465 -0.7289
 3536SOL     OW13909   1.508   5.398   3.390  0.1062 -0.0092 -0.0959
 3536SOL    HW213910   1.539   5.310   3.369 -0.1248 -0.2313  0.4802
 3536SOL    HW313911   1.569   5.431   3.456 -0.2647 -0.0442  0.2711
 3536SOL    MW413912   1.520   5.391   3.396  0.0268 -0.0431  0.0285
 3537SOL     OW13913   3.456   1.823   1.397 -0.4071  0.0364  0.2420
 3537SOL    HW213914   3.530   1.838   1.338  0.2011  1.7262  1.3405
 3537SOL    HW313915   3.451   1.903   1.450 -2.2872 -0.5234  1.0112
 3537SOL    MW413916   3.465   1.836   1.397 -0.5749  0.1855  0.4884
 3538SOL     OW13917   0.943   6.371   4.355  0.0186  0.2526 -0.2320
 3538SOL    HW213918   0.952   6.371   4.260  0.2163  1.7325 -0.2363
 3538SOL    HW313919   0.857   6.332   4.371  2.1023 -5.4511 -0.6633
 3538SOL    MW413920   0.933   6.366   4.345  0.3196 -0.3046 -0.2895
 3539SOL     OW13921   5.222   2.540   1.672 -0.6268  0.0180 -0.5218
 3539SOL    HW213922   5.238   2.559   1.579  0.3904  0.9433 -0.1709
 3539SOL    HW313923   5.136   2.579   1.689 -0.9500 -0.4069 -1.1390
 3539SOL    MW413924   5.212   2.548   1.662 -0.5352  0.0840 -0.5569
 3540SOL     OW13925   5.308   3.206   0.157  0.0720 -0.0954 -0.4258
 3540SOL    HW213926   5.374   3.199   0.225  0.4952  0.0954 -0.8081
 3540SOL    HW313927   5.275   3.296   0.165  2.1804  0.9690 -2.2875
 3540SOL    MW413928   5.312   3.217   0.167  0.4060  0.0702 -0.7219
 3541SOL     OW13929   0.151   0.296   4.693  0.2661 -0.2902 -0.1889
 3541SOL    HW213930   0.070   0.247   4.678 -0.4176  0.7161  0.1116
 3541SOL    HW313931   0.185   0.313   4.605  1.3852 -2.6533 -0.2829
 3541SOL    MW413932   0.145   0.292   4.680  0.3235 -0.4692 -0.1617
 3542SOL     OW13933   6.228   2.195   5.084  0.1721 -0.2888 -1.4019
 3542SOL    HW213934   6.301   2.200   5.145  0.2981  0.7217 -1.6271
 3542SOL    HW313935   6.178   2.275   5.100 -0.7067 -0.8124 -1.4763
 3542SOL    MW413936   6.231   2.206   5.095  0.0728 -0.2246 -1.4414
 3543SOL     OW13937   5.627   2.640   0.873 -0.0982  0.0144  0.0397
 3543SOL    HW213938   5.537   2.628   0.844 -0.0155 -1.9246  0.4399
 3543SOL    HW313939   5.670   2.557   0.853  0.8457 -0.1543  2.4241
 3543SOL    MW413940   5.621   2.628   0.867  0.0372 -0.2637  0.4071
 3544SOL     OW13941   0.829   2.038   5.375 -0.0351  0.0548 -0.3536
 3544SOL    HW213942   0.873   1.964   5.333  0.4185  1.5947 -2.7724
 3544SOL    HW313943   0.736   2.021   5.362 -0.1405 -1.5672  1.8842
 3544SOL    MW413944   0.823   2.026   5.368  0.0109  0.0440 -0.3775
 3545SOL     OW13945   0.331   3.978   4.173  0.3385 -0.7158 -0.4965
 3545SOL    HW213946   0.373   3.996   4.257  2.9371 -1.8462 -1.4274
 3545SOL    HW313947   0.391   3.918   4.129 -1.8038 -1.5637 -2.4703
 3545SOL    MW413948   0.345   3.972   4.178  0.3987 -0.9768 -0.8797
 3546SOL     OW13949   4.003   6.226   5.349  0.1907  0.1054 -0.3011
 3546SOL    HW213950   4.001   6.173   5.429 -0.2133  0.3490 -0.1437
 3546SOL    HW313951   4.068   6.294   5.368  0.9846 -0.5468 -0.6476
 3546SOL    MW413952   4.011   6.228   5.362  0.2422  0.0515 -0.3261
 3547SOL     OW13953   3.492   6.430   1.111  0.0920  0.3591 -0.3187
 3547SOL    HW213954   3.427   6.438   1.041 -1.0877  0.3102  0.7310
 3547SOL    HW313955   3.570   6.396   1.067 -1.0420 -1.0179 -1.3820
 3547SOL    MW413956   3.494   6.426   1.096 -0.2133  0.1709 -0.3205
 3548SOL     OW13957   3.824   1.986   0.292  0.2008 -0.2746 -0.0017
 3548SOL    HW213958   3.870   1.909   0.324 -0.1351 -0.5509 -0.1749
 3548SOL    HW313959   3.880   2.019   0.221 -0.0320 -0.8098 -0.4453
 3548SOL    MW413960   3.838   1.980   0.287  0.1258 -0.3817 -0.0831
 3549SOL     OW13961   4.237   1.645   2.750 -0.0763  0.0097 -0.2815
 3549SOL    HW213962   4.328   1.627   2.727 -0.4180 -1.1156 -0.8417
 3549SOL    HW313963   4.190   1.640   2.667 -0.8161 -0.5847  0.1587
 3549SOL    MW413964   4.243   1.642   2.736 -0.2190 -0.2172 -0.2973
 3550SOL     OW13965   3.734   1.239   4.906  0.2240 -0.0125 -0.1376
 3550SOL    HW213966   3.667   1.292   4.948  1.1543  1.0440  0.0532
 3550SOL    HW313967   3.693   1.153   4.896 -0.6504  0.2046  1.2717
 3550SOL    MW413968   3.720   1.234   4.910  0.2314  0.1556  0.0735
 3551SOL     OW13969   4.147   1.229   2.797  0.2585 -0.0385  0.1055
 3551SOL    HW213970   4.160   1.195   2.708  1.0134  1.3887 -0.3537
 3551SOL    HW313971   4.231   1.267   2.821 -0.6200  1.7953  0.4471
 3551SOL    MW413972   4.160   1.229   2.788  0.2422  0.3918  0.0899
 3552SOL     OW13973   0.498   3.187   6.293  0.4625  0.8499  0.4360
 3552SOL    HW213974   0.573   3.133   6.266 -1.6492 -1.2184 -1.7305
 3552SOL    HW313975   0.431   3.123   6.318 -0.7369  2.6341  1.9857
 3552SOL    MW413976   0.499   3.171   6.293  0.0257  0.8124  0.3546
 3553SOL     OW13977   4.100   4.414   4.014  0.4700 -0.3356  0.3848
 3553SOL    HW213978   4.037   4.342   4.000  0.6910 -0.4470 -0.0372
 3553SOL    HW313979   4.145   4.423   3.931  0.9910 -0.2260  0.6763
 3553SOL    MW413980   4.097   4.406   4.001  0.5679 -0.3358  0.3676
 3554SOL     OW13981   1.517   6.191   0.787  0.3084 -0.1000 -0.6562
 3554SOL    HW213982   1.520   6.148   0.702  0.3233 -0.6524 -0.3836
 3554SOL    HW313983   1.425   6.215   0.800  0.1131 -0.9510 -0.3806
 3554SOL    MW413984   1.505   6.188   0.778  0.2846 -0.2851 -0.5838
 3555SOL     OW13985   0.489   5.629   2.615  0.0172 -0.2846 -0.0617
 3555SOL    HW213986   0.559   5.584   2.567 -0.6472  0.9775 -2.4011
 3555SOL    HW313987   0.412   5.617   2.560 -1.5915 -1.2645  2.2385
 3555SOL    MW413988   0.488   5.621   2.601 -0.2827 -0.2474 -0.0668
 3556SOL     OW13989   0.921   1.259   3.277 -0.4820  0.6207 -0.3699
 3556SOL    HW213990   0.989   1.299   3.332  0.6791  0.7712 -1.8502
 3556SOL    HW313991   0.951   1.169   3.264 -0.1553  0.9012 -1.6467
 3556SOL    MW413992   0.934   1.253   3.283 -0.2857  0.6776 -0.7336
 3557SOL     OW13993   2.353   0.751   5.819  0.3106 -0.6360  0.6601
 3557SOL    HW213994   2.328   0.777   5.730  2.0483 -2.4312 -0.4146
 3557SOL    HW313995   2.272   0.761   5.870 -0.7702  0.2655 -1.1279
 3557SOL    MW413996   2.339   0.756   5.814  0.3973 -0.7539  0.2824
 3558SOL     OW13997   4.559   1.445   2.065 -0.4229 -0.2981  0.1024
 3558SOL    HW213998   4.473   1.452   2.108 -0.5637 -0.5125 -0.1375
 3558SOL    HW313999   4.620   1.428   2.137 -0.3193  1.5398  0.4829
 3558SOL    MW414000   4.556   1.444   2.081 -0.4278 -0.0839  0.1209
 3559SOL     OW14001   0.783   0.616   0.247  0.1942  0.2978  0.2204
 3559SOL    HW214002   0.717   0.622   0.178 -1.6228  0.1425  1.8553
 3559SOL    HW314003   0.795   0.707   0.277 -1.3598  0.0819  1.6990
 3559SOL    MW414004   0.776   0.629   0.242 -0.2506  0.2488  0.6312
 3560SOL     OW14005   2.359   1.230   1.615  0.1259  0.0664 -0.2175
 3560SOL    HW214006   2.429   1.276   1.569  0.4094  0.3112  0.4555
 3560SOL    HW314007   2.386   1.138   1.615  0.6222  0.2104  0.3567
 3560SOL    MW414008   2.372   1.224   1.609  0.2288  0.1177 -0.0530
 3561SOL     OW14009   5.951   1.936   0.586 -0.3104  0.2113 -0.1420
 3561SOL    HW214010   5.862   1.913   0.612 -0.3012 -0.2405 -0.5063
 3561SOL    HW314011   5.941   2.015   0.533 -0.3118  1.3017  1.3878
 3561SOL    MW414012   5.938   1.944   0.583 -0.3094  0.2955  0.0118
 3562SOL     OW14013   3.558   1.055   4.155  0.2610 -0.2482 -0.9774
 3562SOL    HW214014   3.571   1.110   4.077  1.6528  0.2799 -0.4100
 3562SOL    HW314015   3.646   1.022   4.175  0.0204  0.0767  0.6990
 3562SOL    MW414016   3.571   1.058   4.147  0.4129 -0.1356 -0.6814
 3563SOL     OW14017   0.950   1.847   3.109  0.6865  0.0317  0.0824
 3563SOL    HW214018   0.898   1.920   3.075  0.4044  0.0136  0.4739
 3563SOL    HW314019   0.950   1.860   3.203  2.7453  0.9762  0.0317
 3563SOL    MW414020   0.943   1.859   3.117  0.9209  0.1539  0.1274
 3564SOL     OW14021   4.242   1.250   2.253  0.2107 -0.4257 -0.8238
 3564SOL    HW214022   4.183   1.174   2.251 -1.7768  1.0326 -0.4037
 3564SOL    HW314023   4.225   1.296   2.171 -0.0386  0.5752 -0.2207
 3564SOL    MW414024   4.232   1.246   2.242 -0.0844 -0.1012 -0.6888
 3565SOL     OW14025   5.631   2.072   3.260  0.3348  0.1686 -0.4057
 3565SOL    HW214026   5.601   2.134   3.194  1.2203  1.6168  0.4977
 3565SOL    HW314027   5.643   2.124   3.339  1.7568 -1.0038  0.2154
 3565SOL    MW414028   5.629   2.087   3.261  0.6392  0.2050 -0.2046
 3566SOL     OW14029   1.492   2.327   4.109  0.0111  0.1135 -0.1193
 3566SOL    HW214030   1.504   2.382   4.031 -0.5959  0.3398 -0.0535
 3566SOL    HW314031   1.577   2.283   4.119 -0.0477 -0.2829 -1.1884
 3566SOL    MW414032   1.505   2.329   4.100 -0.0767  0.0910 -0.2517
 3567SOL     OW14033   4.249   0.496   1.293 -0.1802 -0.1068  0.2667
 3567SOL    HW214034   4.249   0.402   1.279 -0.3021 -0.4093  1.9915
 3567SOL    HW314035   4.192   0.532   1.225 -1.8944 -1.5111  0.8910
 3567SOL    MW414036   4.242   0.488   1.282 -0.4224 -0.3320  0.5766
 3568SOL     OW14037   4.149   3.548   5.131 -0.4867  0.1663 -0.2439
 3568SOL    HW214038   4.103   3.624   5.095 -2.4542 -1.1368 -0.6951
 3568SOL    HW314039   4.160   3.489   5.056  0.1212 -0.3926  0.2744
 3568SOL    MW414040   4.144   3.550   5.116 -0.6661 -0.0794 -0.2350
 3569SOL     OW14041   4.629   4.670   3.161 -0.4675  0.2968  0.3406
 3569SOL    HW214042   4.669   4.590   3.194 -1.4032  0.0871  0.9977
 3569SOL    HW314043   4.694   4.738   3.178  0.3855 -0.3240 -0.3278
 3569SOL    MW414044   4.643   4.668   3.167 -0.4784  0.1872  0.3391
 3570SOL     OW14045   0.787   4.317   1.319 -0.7699  0.0319  0.3252
 3570SOL    HW214046   0.864   4.362   1.353 -1.5403  0.9962  0.8525
 3570SOL    HW314047   0.779   4.239   1.375  1.5880 -1.8368 -1.7062
 3570SOL    MW414048   0.796   4.312   1.331 -0.5605 -0.0874  0.1268
 3571SOL     OW14049   1.162   2.004   5.618 -0.9090 -0.3255  0.3240
 3571SOL    HW214050   1.201   1.951   5.688 -0.3403 -0.2082  0.1032
 3571SOL    HW314051   1.073   1.970   5.609 -0.9242 -0.4697  0.9726
 3571SOL    MW414052   1.156   1.992   5.626 -0.8359 -0.3290  0.3805
 3572SOL     OW14053   4.344   2.686   2.301 -0.3369  0.6783  0.0297
 3572SOL    HW214054   4.342   2.764   2.356 -0.0057  1.7709 -1.4314
 3572SOL    HW314055   4.315   2.717   2.215 -0.6139 -0.9112 -0.4811
 3572SOL    MW414056   4.340   2.701   2.297 -0.3298  0.6127 -0.2305
 3573SOL     OW14057   2.578   0.727   2.503 -0.4503  0.3841  0.1948
 3573SOL    HW214058   2.583   0.632   2.493 -0.4071  0.2281  1.5450
 3573SOL    HW314059   2.539   0.757   2.421 -0.2341 -0.7687 -0.3543
 3573SOL    MW414060   2.573   0.718   2.491 -0.4161  0.2114  0.3005
 3574SOL     OW14061   2.543   4.741   2.253 -0.5898 -0.1515  0.5303
 3574SOL    HW214062   2.460   4.778   2.282 -1.0203 -2.7652  3.0500
 3574SOL    HW314063   2.523   4.702   2.167 -1.3583  1.0693  0.1265
 3574SOL    MW414064   2.529   4.740   2.245 -0.7480 -0.3352  0.8094
 3575SOL     OW14065   0.776   3.339   2.985 -0.0870 -0.0885  0.0263
 3575SOL    HW214066   0.732   3.254   2.985 -1.9013  0.7905 -0.4114
 3575SOL    HW314067   0.836   3.334   2.911 -0.3342 -0.9116 -0.1391
 3575SOL    MW414068   0.778   3.327   2.975 -0.3590 -0.0811 -0.0533
 3576SOL     OW14069   1.990   0.235   5.859 -0.4957  0.4641  0.0905
 3576SOL    HW214070   2.036   0.176   5.918  1.2752  0.3606 -1.3239
 3576SOL    HW314071   1.977   0.184   5.779 -1.8817  0.9570 -0.0267
 3576SOL    MW414072   1.994   0.221   5.856 -0.4449  0.5155 -0.1116
 3577SOL     OW14073   1.375   2.466   5.563 -0.1446  0.5125 -0.1499
 3577SOL    HW214074   1.358   2.511   5.480 -0.8496 -1.4705 -1.1317
 3577SOL    HW314075   1.290   2.429   5.588  0.6443 -1.3324 -0.0629
 3577SOL    MW414076   1.361   2.467   5.556 -0.1335  0.0074 -0.2680
 3578SOL     OW14077   0.216   3.749   2.657 -0.1793  0.3978 -0.0315
 3578SOL    HW214078   0.279   3.785   2.719  0.4396  0.7887 -0.8675
 3578SOL    HW314079   0.144   3.811   2.657 -0.0131  0.5935  0.0261
 3578SOL    MW414080   0.215   3.762   2.665 -0.0757  0.4752 -0.1342
 3579SOL     OW14081   6.264   0.562   2.941  0.2770 -0.1848  0.0988
 3579SOL    HW214082   6.205   0.500   2.984  0.6875 -0.6509  0.0021
 3579SOL    HW314083   6.241   0.556   2.848  0.8446 -0.7865 -0.0126
 3579SOL    MW414084   6.253   0.553   2.934  0.4061 -0.3257  0.0713
 3580SOL     OW14085   4.689   5.353   1.946  0.4409  0.2149  0.2114
 3580SOL    HW214086   4.647   5.415   1.887  0.2989 -1.4924 -1.6002
 3580SOL    HW314087   4.782   5.358   1.924  0.8219  1.5397  1.8537
 3580SOL    MW414088   4.696   5.362   1.935  0.4724  0.1644  0.1891
 3581SOL     OW14089   3.522   4.892   0.086  0.0191  0.2400 -0.0685
 3581SOL    HW214090   3.532   4.896   0.181 -0.3751  0.5981 -0.0400
 3581SOL    HW314091   3.555   4.976   0.055 -1.3785  0.8051 -0.1007
 3581SOL    MW414092   3.527   4.903   0.095 -0.2173  0.3618 -0.0690
 3582SOL     OW14093   4.730   6.016   6.441 -0.0720  0.2978 -0.1732
 3582SOL    HW214094   4.725   5.930   6.400 -2.0716  1.0313 -1.5825
 3582SOL    HW314095   4.640   6.036   6.467  0.4373  1.7599  0.5728
 3582SOL    MW414096   4.718   6.008   6.439 -0.2686  0.5875 -0.2608
 3583SOL     OW14097   5.760   1.258   0.067 -0.4014 -0.6889  0.4591
 3583SOL    HW214098   5.818   1.268   0.143  2.1626 -0.9987 -1.3222
 3583SOL    HW314099   5.812   1.208   0.004 -2.6105 -0.8806 -1.3385
 3583SOL    MW414100   5.774   1.253   0.069 -0.3546 -0.7551 -0.0131
 3584SOL     OW14101   6.123   1.678   2.361  0.4309  0.7537 -0.5931
 3584SOL    HW214102   6.213   1.670   2.392 -0.4710 -0.7503  2.0538
 3584SOL    HW314103   6.090   1.588   2.362 -1.1703  1.3053 -1.2477
 3584SOL    MW414104   6.130   1.665   2.365  0.1007  0.6280 -0.3302
 3585SOL     OW14105   1.600   2.364   5.440  0.0391  0.1112 -0.3139
 3585SOL    HW214106   1.521   2.390   5.488  0.4045  0.7646 -0.0529
 3585SOL    HW314107   1.589   2.401   5.353  1.3978  2.8697  0.5828
 3585SOL    MW414108   1.588   2.372   5.435  0.2665  0.5614 -0.1611
 3586SOL     OW14109   2.917   5.106   2.389 -0.9767 -0.2527 -0.1793
 3586SOL    HW214110   2.975   5.094   2.464 -0.2474  0.6058 -0.5772
 3586SOL    HW314111   2.965   5.070   2.315 -0.9517  0.4457 -0.5123
 3586SOL    MW414112   2.931   5.100   2.389 -0.8772 -0.0473 -0.2757
 3587SOL     OW14113   5.054   0.622   2.671  0.7002 -0.0581 -0.3432
 3587SOL    HW214114   4.992   0.585   2.734  0.3343 -1.3988 -1.4414
 3587SOL    HW314115   5.009   0.617   2.587  0.9894  2.1351 -0.6983
 3587SOL    MW414116   5.040   0.617   2.668  0.6901  0.0544 -0.5350
 3588SOL     OW14117   3.332   2.863   4.852 -0.5127  0.1395  0.1423
 3588SOL    HW214118   3.266   2.917   4.896 -2.7729 -1.1246 -1.4993
 3588SOL    HW314119   3.362   2.801   4.918 -1.1919  0.5307  0.8238
 3588SOL    MW414120   3.328   2.862   4.866 -0.9005  0.0244  0.0156
 3589SOL     OW14121   4.796   3.135   4.074  0.3183  0.4709 -0.1317
 3589SOL    HW214122   4.784   3.076   4.000  0.1284  0.8068 -0.3715
 3589SOL    HW314123   4.708   3.157   4.102  0.3875  0.7568 -0.1385
 3589SOL    MW414124   4.783   3.130   4.068  0.3023  0.5529 -0.1642
 3590SOL     OW14125   1.210   6.069   1.009 -0.2893 -0.2864 -0.0689
 3590SOL    HW214126   1.187   6.119   1.088  2.3859  1.8038 -0.4460
 3590SOL    HW314127   1.292   6.025   1.032 -0.4022 -1.0746 -1.1396
 3590SOL    MW414128   1.218   6.070   1.023  0.0487 -0.1146 -0.2599
 3591SOL     OW14129   1.677   4.288   3.815 -0.3430 -0.6548 -0.1236
 3591SOL    HW214130   1.750   4.238   3.851 -1.2192 -0.9877  1.2798
 3591SOL    HW314131   1.643   4.232   3.745  1.2151 -0.1227 -1.3769
 3591SOL    MW414132   1.682   4.274   3.811 -0.2530 -0.6285 -0.1038
 3592SOL     OW14133   1.770   1.131   5.554 -0.3609 -0.2993 -0.3322
 3592SOL    HW214134   1.778   1.037   5.569  1.5419  0.1405  2.1931
 3592SOL    HW314135   1.801   1.170   5.635  1.8633  2.5360 -2.3439
 3592SOL    MW414136   1.775   1.124   5.566  0.1836  0.1328 -0.2645
 3593SOL     OW14137   0.200   4.659   5.784  0.4857  0.0110 -0.2131
 3593SOL    HW214138   0.258   4.590   5.814 -1.6524 -1.6522  0.3750
 3593SOL    HW314139   0.161   4.625   5.704 -1.0259  0.2502  0.3833
 3593SOL    MW414140   0.202   4.645   5.778  0.0042 -0.1769 -0.0568
 3594SOL     OW14141   1.026   2.325   1.891 -0.4196  0.0515  0.5047
 3594SOL    HW214142   1.010   2.262   1.961 -1.2555  0.9245  1.1198
 3594SOL    HW314143   1.044   2.408   1.936 -0.1969  0.4591 -0.2974
 3594SOL    MW414144   1.027   2.328   1.906 -0.5005  0.2204  0.4800
 3595SOL     OW14145   3.380   1.800   4.319 -0.0977  0.0789 -0.4237
 3595SOL    HW214146   3.314   1.745   4.276  0.7277 -2.0903  0.9151
 3595SOL    HW314147   3.333   1.880   4.342 -2.0581 -1.0492 -0.2780
 3595SOL    MW414148   3.365   1.803   4.317 -0.2475 -0.3561 -0.2278
 3596SOL     OW14149   0.540   4.149   6.141  0.6630 -0.3458 -0.8060
 3596SOL    HW214150   0.596   4.098   6.083  2.4558 -1.0585  1.3834
 3596SOL    HW314151   0.465   4.092   6.158  0.0948 -0.1102 -2.3613
 3596SOL    MW414152   0.538   4.135   6.136  0.8246 -0.4087 -0.7223
 3597SOL     OW14153   2.071   1.951   1.092  0.1852  0.2717  0.4070
 3597SOL    HW214154   2.000   1.913   1.040  0.4672  1.3202 -0.7866
 3597SOL    HW314155   2.027   1.984   1.171 -0.1375 -1.9632  1.2268
 3597SOL    MW414156   2.056   1.950   1.096  0.1798  0.1152  0.3577
 3598SOL     OW14157   3.564   1.981   5.452 -0.1758 -0.6868 -0.1400
 3598SOL    HW214158   3.562   2.014   5.542  0.6893  0.1420 -0.4156
 3598SOL    HW314159   3.596   2.054   5.400 -1.9092 -0.7081 -1.3483
 3598SOL    MW414160   3.568   1.995   5.457 -0.2904 -0.5803 -0.3357
 3599SOL     OW14161   0.623   6.022   6.154  0.4221 -0.0835 -0.0015
 3599SOL    HW214162   0.642   6.102   6.106 -0.2204  0.2242  0.2477
 3599SOL    HW314163   0.532   6.031   6.181  1.1268  0.3814  2.4681
 3599SOL    MW414164   0.614   6.033   6.151  0.4303  0.0185  0.3572
 3600SOL     OW14165   1.130   1.733   1.737  0.6225  0.2455 -0.3833
 3600SOL    HW214166   1.210   1.779   1.713 -1.3125  2.6350 -2.8892
 3600SOL    HW314167   1.122   1.663   1.672  1.0908 -0.5804  0.4282
 3600SOL    MW414168   1.140   1.730   1.725  0.4290  0.4518 -0.6068
 3601SOL     OW14169   5.339   1.677   5.141 -0.3010 -0.0237 -0.5813
 3601SOL    HW214170   5.402   1.671   5.069  1.0599  0.8299  0.4836
 3601SOL    HW314171   5.255   1.697   5.098 -0.2007 -2.4947 -2.1374
 3601SOL    MW414172   5.336   1.679   5.126 -0.1082 -0.2371 -0.6461
 3602SOL     OW14173   2.215   2.510   4.810 -0.5425 -0.2765  0.5187
 3602SOL    HW214174   2.287   2.448   4.816  0.1333  0.5339  1.0494
 3602SOL    HW314175   2.250   2.582   4.757 -1.0504  0.0029  0.5580
 3602SOL    MW414176   2.229   2.512   4.804 -0.5204 -0.1327  0.5939
 3603SOL     OW14177   0.124   5.886   0.129  0.7521 -0.4702 -0.3557
 3603SOL    HW214178   0.112   5.835   0.209  0.5978 -0.7977 -0.5826
 3603SOL    HW314179   0.126   5.820   0.059 -0.9563 -0.0746 -0.8208
 3603SOL    MW414180   0.123   5.870   0.130  0.5064 -0.4612 -0.4470
 3604SOL     OW14181   5.306   2.117   0.728 -0.2602  0.7384  0.1343
 3604SOL    HW214182   5.281   2.033   0.765 -0.0814  1.1573  1.2443
 3604SOL    HW314183   5.303   2.104   0.633 -1.8842 -0.0274  0.2666
 3604SOL    MW414184   5.302   2.105   0.720 -0.4509  0.6927  0.2982
 3605SOL     OW14185   3.639   2.893   0.643 -0.4746  0.7525 -0.3690
 3605SOL    HW214186   3.586   2.971   0.629 -0.9891  0.2568 -1.3094
 3605SOL    HW314187   3.578   2.828   0.679 -0.2001  0.5864 -0.1984
 3605SOL    MW414188   3.624   2.895   0.646 -0.5063  0.6652 -0.4705
 3606SOL     OW14189   5.236   6.057   4.562  0.1823  0.4016  0.5480
 3606SOL    HW214190   5.162   6.078   4.619 -0.5094  1.4798 -0.6982
 3606SOL    HW314191   5.257   5.966   4.582 -1.4472  0.0899  0.9609
 3606SOL    MW414192   5.229   6.048   4.573 -0.1240  0.5027  0.4381
 3607SOL     OW14193   0.683   3.578   1.450  0.2788  0.2709 -0.5334
 3607SOL    HW214194   0.760   3.594   1.396  0.5006 -0.9777 -0.6194
 3607SOL    HW314195   0.717   3.540   1.531 -0.1241  1.2974  0.1357
 3607SOL    MW414196   0.698   3.575   1.453  0.2549  0.2416 -0.4565
 3608SOL     OW14197   0.107   2.730   2.081  0.1819  0.5321 -0.0905
 3608SOL    HW214198   0.115   2.789   2.155  0.9951  1.7985 -1.1313
 3608SOL    HW314199   0.043   2.773   2.023  1.0789  0.6225 -1.0422
 3608SOL    MW414200   0.099   2.743   2.083  0.4076  0.7111 -0.3534
 3609SOL     OW14201   5.095   2.885   1.939  0.2551  0.1285  0.3050
 3609SOL    HW214202   5.086   2.883   1.844 -0.5773  0.7196  0.3623
 3609SOL    HW314203   5.006   2.891   1.972  0.4276 -1.5845  1.1936
 3609SOL    MW414204   5.082   2.886   1.931  0.1681 -0.0195  0.4298
 3610SOL     OW14205   1.629   1.850   2.672 -0.1835  0.9248  0.1427
 3610SOL    HW214206   1.689   1.785   2.633 -1.7954 -0.5572  0.0164
 3610SOL    HW314207   1.636   1.926   2.614 -1.1776 -0.5776 -2.1294
 3610SOL    MW414208   1.638   1.851   2.659 -0.5274  0.5311 -0.1738
 3611SOL     OW14209   5.896   5.798   1.260 -0.4552  0.1219 -0.1592
 3611SOL    HW214210   5.911   5.879   1.211 -0.1133 -0.1444 -0.5073
 3611SOL    HW314211   5.823   5.755   1.214 -0.6507  0.2414  0.0381
 3611SOL    MW414212   5.888   5.803   1.247 -0.4359  0.1025 -0.1791
 3612SOL     OW14213   5.317   1.342   1.270 -0.4065  0.6751 -0.1053
 3612SOL    HW214214   5.275   1.421   1.306  1.2318  1.5706 -0.0938
 3612SOL    HW314215   5.331   1.363   1.178  0.1111  0.4206 -0.0816
 3612SOL    MW414216   5.313   1.356   1.263 -0.1221  0.7597 -0.1007
 3613SOL     OW14217   6.329   6.014   6.026 -0.1258 -0.3346  0.3097
 3613SOL    HW214218   6.305   6.104   6.006  1.3940 -0.1670 -0.9269
 3613SOL    HW314219   6.344   6.014   6.121 -1.4550  0.3483  0.5518
 3613SOL    MW414220   6.328   6.026   6.036 -0.1006 -0.2224  0.1785
 3614SOL     OW14221   2.185   5.893   6.110 -0.0277 -0.4645  0.5443
 3614SOL    HW214222   2.118   5.899   6.042  0.0523 -2.3817  0.2488
 3614SOL    HW314223   2.226   5.980   6.111  1.9723 -1.1187 -3.9455
 3614SOL    MW414224   2.182   5.905   6.101  0.2468 -0.8038 -0.0870
 3615SOL     OW14225   2.171   1.135   3.884 -0.0613 -0.3508 -0.2561
 3615SOL    HW214226   2.109   1.208   3.885 -1.0320 -1.1504  0.4534
 3615SOL    HW314227   2.216   1.141   3.969 -1.9998 -2.0504  0.9894
 3615SOL    MW414228   2.169   1.146   3.896 -0.4452 -0.6806  0.0018
 3616SOL     OW14229   2.707   3.457   1.010 -0.3798 -0.5228  0.0069
 3616SOL    HW214230   2.667   3.530   0.964 -2.6656 -1.1905  0.7826
 3616SOL    HW314231   2.800   3.462   0.988 -0.0029  3.7730  1.5427
 3616SOL    MW414232   2.714   3.467   1.001 -0.6317 -0.0441  0.3119
 3617SOL     OW14233   4.537   5.896   3.280 -0.3877 -0.3858  0.0032
 3617SOL    HW214234   4.450   5.858   3.271  0.3058 -2.0600  0.0852
 3617SOL    HW314235   4.595   5.821   3.293  0.8641  0.7744  1.5896
 3617SOL    MW414236   4.533   5.881   3.281 -0.1311 -0.4536  0.2233
 3618SOL     OW14237   0.657   1.993   3.130 -0.1762 -0.0404 -0.5208
 3618SOL    HW214238   0.580   1.938   3.121  0.7106 -1.6800  1.1987
 3618SOL    HW314239   0.655   2.024   3.221  0.6557  0.7166 -0.7411
 3618SOL    MW414240   0.647   1.990   3.141  0.0505 -0.1569 -0.3230
 3619SOL     OW14241   5.704   0.721   3.648 -0.2423 -0.0320 -0.0160
 3619SOL    HW214242   5.760   0.798   3.649 -1.1864  0.6630 -0.1329
 3619SOL    HW314243   5.633   0.742   3.707  1.5955 -2.4603  3.4042
 3619SOL    MW414244   5.702   0.734   3.656 -0.1244 -0.2607  0.4198
 3620SOL     OW14245   2.933   5.221   1.600 -0.2632  0.1725 -0.5265
 3620SOL    HW214246   2.866   5.271   1.647  1.4340  0.9594  1.1583
 3620SOL    HW314247   2.948   5.144   1.654  1.5718  0.9917  0.2008
 3620SOL    MW414248   2.926   5.218   1.613  0.2028  0.3844 -0.2082
 3621SOL     OW14249   2.272   5.631   3.036  0.1410  0.1310 -0.0661
 3621SOL    HW214250   2.300   5.587   2.956  4.1807 -0.0258  1.2025
 3621SOL    HW314251   2.354   5.655   3.080 -1.8727  2.8107  2.6394
 3621SOL    MW414252   2.287   5.628   3.031  0.4083  0.4639  0.4582
 3622SOL     OW14253   3.576   5.747   3.842 -0.7200 -0.4335  0.0749
 3622SOL    HW214254   3.583   5.773   3.750 -1.8265 -0.6978 -0.0995
 3622SOL    HW314255   3.659   5.703   3.861 -0.4701 -0.3522 -0.7902
 3622SOL    MW414256   3.588   5.744   3.832 -0.8331 -0.4577 -0.0623
 3623SOL     OW14257   3.859   0.325   2.434  0.4247 -0.5565 -0.3153
 3623SOL    HW214258   3.811   0.243   2.444 -2.1943  0.8094 -0.8429
 3623SOL    HW314259   3.819   0.385   2.498  1.0146  0.8138 -1.1834
 3623SOL    MW414260   3.847   0.322   2.444  0.1570 -0.1955 -0.4994
 3624SOL     OW14261   0.576   6.089   3.992 -0.5323 -0.0007 -0.1587
 3624SOL    HW214262   0.609   6.142   3.919 -0.0398  1.1102  0.8220
 3624SOL    HW314263   0.481   6.091   3.982 -0.4722  0.1856 -0.7335
 3624SOL    MW414264   0.568   6.097   3.981 -0.4594  0.1705 -0.1051
 3625SOL     OW14265   3.668   3.364   4.585  0.0422  0.3051  0.4997
 3625SOL    HW214266   3.729   3.434   4.608 -0.4438  0.4267  1.4709
 3625SOL    HW314267   3.600   3.369   4.652 -1.0689  0.2085 -0.5966
 3625SOL    MW414268   3.667   3.374   4.597 -0.1685  0.3084  0.4832
 3626SOL     OW14269   3.682   2.897   1.536 -0.0922 -0.4203 -0.5077
 3626SOL    HW214270   3.666   2.848   1.455  0.8040  0.4759 -1.2619
 3626SOL    HW314271   3.776   2.885   1.554 -0.1349 -0.0435  0.0039
 3626SOL    MW414272   3.693   2.889   1.527  0.0204 -0.2523 -0.5397
 3627SOL     OW14273   0.921   3.932   1.499  0.4223  0.0968 -0.0127
 3627SOL    HW214274   0.895   3.893   1.582  1.9147 -2.6088 -0.6636
 3627SOL    HW314275   0.981   4.002   1.522  0.2886 -0.1762  1.2176
 3627SOL    MW414276   0.925   3.936   1.513  0.6016 -0.2962  0.0638
 3628SOL     OW14277   0.154   1.550   2.816 -0.3205 -0.2935  0.7280
 3628SOL    HW214278   0.221   1.505   2.868  0.1162  0.8108  1.1477
 3628SOL    HW314279   0.204   1.610   2.761 -0.8652 -0.6514 -0.1756
 3628SOL    MW414280   0.169   1.552   2.816 -0.3347 -0.1950  0.6642
 3629SOL     OW14281   2.509   2.541   1.743 -0.2690  0.3412  0.1517
 3629SOL    HW214282   2.538   2.463   1.790 -2.7952 -0.7250  0.1581
 3629SOL    HW314283   2.434   2.510   1.691 -2.1968  2.9769  1.1374
 3629SOL    MW414284   2.503   2.527   1.743 -0.8567  0.5482  0.2826
 3630SOL     OW14285   3.955   2.211   2.033 -0.1751 -0.3398 -0.4859
 3630SOL    HW214286   3.923   2.183   1.948  1.7565 -0.4147 -1.2412
 3630SOL    HW314287   3.878   2.244   2.079 -1.1789  0.1513 -2.4379
 3630SOL    MW414288   3.941   2.212   2.028 -0.0527 -0.2849 -0.8431
 3631SOL     OW14289   6.301   0.258   0.764 -0.4854 -0.3829 -0.0232
 3631SOL    HW214290   6.261   0.308   0.835 -0.9494 -0.7787  0.0014
 3631SOL    HW314291   6.331   0.176   0.805 -1.6373 -1.0414 -0.4523
 3631SOL    MW414292   6.300   0.254   0.779 -0.6986 -0.5220 -0.0765
 3632SOL     OW14293   3.268   0.032   0.963  0.1364  0.7282 -0.4225
 3632SOL    HW214294   3.174   0.014   0.956  0.1872  0.0556  0.4602
 3632SOL    HW314295   3.287   0.086   0.886 -0.8972  0.5846 -0.8076
 3632SOL    MW414296   3.258   0.037   0.952  0.0068  0.6205 -0.3569
 3633SOL     OW14297   1.324   3.834   0.015  0.7206 -0.0917  0.7159
 3633SOL    HW214298   1.407   3.873   0.040  1.6435 -2.1620  1.0783
 3633SOL    HW314299   1.313   3.855  -0.077  0.5340  2.0348  1.1871
 3633SOL    MW414300   1.333   3.842   0.006  0.8177 -0.0843  0.8259
 3634SOL     OW14301   0.937   1.908   1.614  0.2993  0.5770  0.7620
 3634SOL    HW214302   0.986   1.848   1.670  0.2030 -1.6999 -1.4258
 3634SOL    HW314303   0.980   1.993   1.626  1.8698 -0.3695  2.2859
 3634SOL    MW414304   0.949   1.911   1.623  0.4938  0.1517  0.6744
 3635SOL     OW14305   5.240   5.872   2.829  0.0534  0.0138 -0.6742
 3635SOL    HW214306   5.330   5.893   2.852  0.5153 -2.4427  0.0830
 3635SOL    HW314307   5.203   5.954   2.798  2.5503  1.0765 -1.0387
 3635SOL    MW414308   5.247   5.885   2.828  0.4438 -0.1701 -0.6224
 3636SOL     OW14309   3.698   2.989   2.422 -0.4887 -0.2597  0.1093
 3636SOL    HW214310   3.761   2.934   2.468 -0.0580 -0.7858 -1.0754
 3636SOL    HW314311   3.739   3.007   2.337 -0.1141  2.7518  0.7832
 3636SOL    MW414312   3.712   2.984   2.417 -0.3824  0.0682  0.0419
 3637SOL     OW14313   5.888   5.861   5.869 -0.1472  0.2023 -0.0921
 3637SOL    HW214314   5.954   5.793   5.851 -0.1077 -0.2903  1.7412
 3637SOL    HW314315   5.840   5.869   5.786  1.4442 -0.2624 -1.1138
 3637SOL    MW414316   5.890   5.853   5.855  0.0680  0.0760  0.0150
 3638SOL     OW14317   2.459   2.775   6.395  0.0691  0.4438  0.2716
 3638SOL    HW214318   2.497   2.782   6.308 -3.0697 -0.2037 -1.3092
 3638SOL    HW314319   2.450   2.681   6.410 -1.6015  0.5522  0.1670
 3638SOL    MW414320   2.463   2.763   6.386 -0.5655  0.3727  0.0492
 3639SOL     OW14321   2.711   4.986   0.906 -0.1875  0.0463  0.2695
 3639SOL    HW214322   2.762   5.034   0.841  1.1185 -1.6380 -0.0190
 3639SOL    HW314323   2.621   4.989   0.873  0.1120  0.9784 -0.5079
 3639SOL    MW414324   2.706   4.993   0.893  0.0243 -0.0530  0.1289
 3640SOL     OW14325   2.100   3.902   3.967 -0.3229  0.1249  0.2560
 3640SOL    HW214326   2.160   3.845   4.015 -0.3220  1.6075  2.1366
 3640SOL    HW314327   2.028   3.844   3.941  1.1447 -1.3600 -0.7122
 3640SOL    MW414328   2.098   3.887   3.970 -0.1291  0.1246  0.3764
 3641SOL     OW14329   0.596   2.814   3.060  0.0402  0.1580 -0.0143
 3641SOL    HW214330   0.615   2.765   2.979 -0.8882 -0.7981  0.3153
 3641SOL    HW314331   0.631   2.759   3.130 -1.3866 -0.2836  0.3933
 3641SOL    MW414332   0.603   2.800   3.058 -0.2706 -0.0264  0.0830
 3642SOL     OW14333   5.648   3.061   0.801 -0.5112 -0.7538 -0.1621
 3642SOL    HW214334   5.561   3.023   0.812 -1.4011  0.7410 -1.6499
 3642SOL    HW314335   5.702   2.987   0.772 -1.6001 -1.4425 -0.5095
 3642SOL    MW414336   5.644   3.046   0.799 -0.7723 -0.6474 -0.4042
 3643SOL     OW14337   1.817   3.594   1.507  0.5586 -0.4783  0.6755
 3643SOL    HW214338   1.815   3.517   1.452  0.2709 -0.5730  0.8179
 3643SOL    HW314339   1.769   3.569   1.586  0.3642 -0.1200  0.6751
 3643SOL    MW414340   1.811   3.581   1.510  0.4950 -0.4435  0.6942
 3644SOL     OW14341   2.013   3.805   5.371  0.5427 -0.1047 -0.2370
 3644SOL    HW214342   1.933   3.824   5.322  0.3936 -0.1427 -0.0080
 3644SOL    HW314343   1.987   3.809   5.463  0.5588 -1.1778 -0.1728
 3644SOL    MW414344   1.999   3.808   5.376  0.5251 -0.2513 -0.1983
 3645SOL     OW14345   3.738   4.140   4.849 -0.1034  0.2540  0.2763
 3645SOL    HW214346   3.742   4.127   4.755  2.6583  0.6038  0.2607
 3645SOL    HW314347   3.749   4.234   4.861  1.0251  0.0481  0.9716
 3645SOL    MW414348   3.740   4.150   4.839  0.4098  0.2730  0.3660
 3646SOL     OW14349   2.474   5.727   5.760  0.2516 -0.0411 -0.9766
 3646SOL    HW214350   2.478   5.632   5.771  2.1968  0.0613 -0.4070
 3646SOL    HW314351   2.438   5.759   5.843  2.7341 -0.1359  0.2598
 3646SOL    MW414352   2.470   5.719   5.772  0.8358 -0.0401 -0.7383
 3647SOL     OW14353   1.346   0.549   4.828 -0.4648 -0.6955 -0.6229
 3647SOL    HW214354   1.414   0.597   4.782 -1.3970  0.2564 -1.0388
 3647SOL    HW314355   1.265   0.576   4.786 -1.0996 -1.9046 -0.2177
 3647SOL    MW414356   1.344   0.559   4.816 -0.6715 -0.7294 -0.6243
 3648SOL     OW14357   3.430   5.526   2.829  0.0106 -0.2259 -0.2991
 3648SOL    HW214358   3.502   5.490   2.881 -0.2458  1.4129  1.2461
 3648SOL    HW314359   3.470   5.597   2.778 -0.5505  0.9476  0.8560
 3648SOL    MW414360   3.445   5.530   2.829 -0.0973  0.1451  0.0572
 3649SOL     OW14361   3.422   5.346   1.015  0.0900 -0.1833  0.3059
 3649SOL    HW214362   3.455   5.432   0.988  0.6804 -0.2157  0.8930
 3649SOL    HW314363   3.485   5.284   0.979 -0.7449 -0.4355 -0.7612
 3649SOL    MW414364   3.435   5.349   1.006  0.0577 -0.2208  0.2425
 3650SOL     OW14365   1.876   4.350   4.416 -0.3236 -0.5543  0.1850
 3650SOL    HW214366   1.926   4.357   4.334  1.5154 -0.0437  1.3109
 3650SOL    HW314367   1.795   4.399   4.398  1.3471  2.2345 -0.4035
 3650SOL    MW414368   1.872   4.357   4.403  0.1395 -0.1190  0.2559
 3651SOL     OW14369   1.626   5.220   2.076  0.1589 -0.2694 -0.1476
 3651SOL    HW214370   1.539   5.198   2.110 -0.3280  2.5895  0.7295
 3651SOL    HW314371   1.687   5.168   2.129 -0.9282 -1.2171  0.2038
 3651SOL    MW414372   1.623   5.210   2.087 -0.0488 -0.0172  0.0145
 3652SOL     OW14373   4.448   4.122   0.461  0.6941 -0.8007  0.1596
 3652SOL    HW214374   4.457   4.216   0.447  0.6456 -0.7565  0.4232
 3652SOL    HW314375   4.532   4.096   0.500  1.2954 -1.1280 -1.2573
 3652SOL    MW414376   4.460   4.131   0.464  0.7671 -0.8380  0.0075
 3653SOL     OW14377   3.217   0.979   2.604  0.1531 -0.4448  0.0673
 3653SOL    HW214378   3.280   1.049   2.590 -1.3937  1.0481  0.2543
 3653SOL    HW314379   3.163   0.978   2.525 -1.1564  0.0320  0.9237
 3653SOL    MW414380   3.218   0.988   2.592 -0.2238 -0.1849  0.2050
 3654SOL     OW14381   2.768   6.368   4.794 -0.0799 -0.1887  0.3753
 3654SOL    HW214382   2.851   6.372   4.747  0.6000 -1.8183  1.3408
 3654SOL    HW314383   2.786   6.410   4.878 -0.1933 -0.6348  0.6273
 3654SOL    MW414384   2.781   6.374   4.799 -0.0051 -0.4625  0.5360
 3655SOL     OW14385   3.106   5.126   2.604  0.2959  0.2325 -0.2382
 3655SOL    HW214386   3.135   5.036   2.615  2.4904  0.7614 -1.0227
 3655SOL    HW314387   3.078   5.154   2.691  0.7698 -0.8284  0.2696
 3655SOL    MW414388   3.106   5.118   2.617  0.6480  0.1623 -0.2747
 3656SOL     OW14389   1.252   6.262   0.831 -0.2179  0.4742 -0.7883
 3656SOL    HW214390   1.216   6.196   0.890 -1.5318  1.1721 -0.7577
 3656SOL    HW314391   1.204   6.249   0.749  0.2348  0.7359 -1.0965
 3656SOL    MW414392   1.241   6.252   0.828 -0.3315  0.6008 -0.8249
 3657SOL     OW14393   5.630   2.191   0.468 -0.5706 -0.5700  0.3860
 3657SOL    HW214394   5.723   2.166   0.473 -1.2122 -3.0369  1.8909
 3657SOL    HW314395   5.593   2.163   0.551 -3.0789 -1.5721 -0.9438
 3657SOL    MW414396   5.638   2.184   0.479 -0.9862 -1.0277  0.4091
 3658SOL     OW14397   5.205   4.188   4.568  0.0562  0.1539  0.1428
 3658SOL    HW214398   5.219   4.279   4.593 -1.9991  0.2946  0.9969
 3658SOL    HW314399   5.126   4.189   4.515  0.2144 -1.0909 -0.1507
 3658SOL    MW414400   5.197   4.200   4.564 -0.1941  0.0082  0.2168
 3659SOL     OW14401   1.272   0.762   0.635  0.6701  0.3931 -0.2396
 3659SOL    HW214402   1.263   0.667   0.643 -0.0628  0.5855  1.5579
 3659SOL    HW314403   1.208   0.786   0.567 -0.7336 -0.1671  0.8465
 3659SOL    MW414404   1.262   0.753   0.627  0.3882  0.3445  0.1409
 3660SOL     OW14405   5.467   1.629   3.280 -0.2632 -0.3828 -0.7737
 3660SOL    HW214406   5.514   1.622   3.363 -3.1895 -0.0008  1.0502
 3660SOL    HW314407   5.459   1.724   3.264 -2.9868 -0.2673  0.6621
 3660SOL    MW414408   5.472   1.641   3.289 -1.0087 -0.3172 -0.3436
 3661SOL     OW14409   6.347   2.342   1.080 -0.3976 -0.7806 -0.0218
 3661SOL    HW214410   6.407   2.304   1.145 -0.0683 -1.7736 -0.8733
 3661SOL    HW314411   6.405   2.385   1.018 -0.7163  0.2052  0.3551
 3661SOL    MW414412   6.363   2.342   1.081 -0.3962 -0.7816 -0.0844
 3662SOL     OW14413   0.604   0.890   4.597 -0.3010 -0.6541  0.1610
 3662SOL    HW214414   0.635   0.963   4.651  0.0936 -1.4398  1.0321
 3662SOL    HW314415   0.626   0.917   4.508  0.5224 -0.0220  0.5252
 3662SOL    MW414416   0.611   0.903   4.593 -0.1403 -0.6743  0.3240
 3663SOL     OW14417   4.534   2.104   4.301  0.0030 -0.0065  0.3968
 3663SOL    HW214418   4.536   2.012   4.276 -1.1877 -0.4595  1.8135
 3663SOL    HW314419   4.573   2.106   4.389 -0.5083  0.7463  0.6218
 3663SOL    MW414420   4.539   2.092   4.309 -0.2215  0.0331  0.6134
 3664SOL     OW14421   0.025   5.298   2.997 -0.1270 -0.1275  0.1702
 3664SOL    HW214422   0.042   5.350   3.075  0.0454 -0.4738  0.3638
 3664SOL    HW314423   0.094   5.322   2.936 -0.6183  0.6079 -0.1134
 3664SOL    MW414424   0.036   5.308   2.999 -0.1691 -0.0762  0.1583
 3665SOL     OW14425   5.946   5.772   5.279  0.0443  0.3849 -0.0509
 3665SOL    HW214426   5.963   5.720   5.200 -1.6417  0.1990 -0.3211
 3665SOL    HW314427   5.982   5.859   5.258 -0.2427  0.2970 -0.9640
 3665SOL    MW414428   5.953   5.777   5.265 -0.2160  0.3487 -0.2070
 3666SOL     OW14429   1.818   1.768   5.860 -0.1804 -0.3622  0.0173
 3666SOL    HW214430   1.851   1.807   5.779  1.8612 -0.2096  0.8534
 3666SOL    HW314431   1.772   1.689   5.832  0.3172 -0.2076 -1.3064
 3666SOL    MW414432   1.817   1.763   5.845  0.1546 -0.3216 -0.0470
 3667SOL     OW14433   5.667   0.131   1.231 -0.0847 -0.0259  0.5523
 3667SOL    HW214434   5.672   0.214   1.278  0.6914  0.3113 -0.0865
 3667SOL    HW314435   5.677   0.064   1.299  0.1538  0.4265  0.9733
 3667SOL    MW414436   5.669   0.133   1.246  0.0491  0.0782  0.5236
 3668SOL     OW14437   4.954   2.984   1.222  0.4782  0.4358  0.1655
 3668SOL    HW214438   4.870   2.997   1.178  0.2933 -0.9790  0.0579
 3668SOL    HW314439   4.939   2.910   1.280  2.2205 -1.2409 -1.4054
 3668SOL    MW414440   4.941   2.976   1.224  0.6836  0.0279 -0.0559
 3669SOL     OW14441   5.237   0.918   5.358  0.0909  0.2054  0.5402
 3669SOL    HW214442   5.197   0.967   5.286  1.0917 -0.0107 -0.1770
 3669SOL    HW314443   5.256   0.832   5.322  2.8124  0.8443  0.2760
 3669SOL    MW414444   5.234   0.913   5.344  0.5820  0.2612  0.4107
 3670SOL     OW14445   1.727   2.578   2.349 -0.1459  0.0725 -0.0765
 3670SOL    HW214446   1.670   2.520   2.298  0.9144 -1.1504  0.0768
 3670SOL    HW314447   1.725   2.542   2.437  0.8609  0.0137 -0.0739
 3670SOL    MW414448   1.719   2.566   2.354  0.1268 -0.0966 -0.0559
 3671SOL     OW14449   1.978   1.821   6.286  0.0989 -0.0141  0.4580
 3671SOL    HW214450   2.060   1.791   6.324 -1.1689 -0.5696  2.9459
 3671SOL    HW314451   2.003   1.890   6.225  2.5559 -1.6394 -0.5447
 3671SOL    MW414452   1.992   1.826   6.283  0.2558 -0.3018  0.6539
 3672SOL     OW14453   5.442   4.490   3.952  0.6702 -0.3308  0.1621
 3672SOL    HW214454   5.392   4.511   3.873  0.1943  2.8627  1.1458
 3672SOL    HW314455   5.382   4.436   4.005 -0.0875 -0.1432 -0.4830
 3672SOL    MW414456   5.427   4.486   3.949  0.5074  0.1153  0.2068
 3673SOL     OW14457   4.257   6.125   0.758  0.0931 -0.0593  0.1500
 3673SOL    HW214458   4.224   6.125   0.669 -0.6256 -2.6010  0.3288
 3673SOL    HW314459   4.178   6.126   0.813  0.4693 -0.1954  0.7043
 3673SOL    MW414460   4.242   6.125   0.754  0.0479 -0.4126  0.2467
 3674SOL     OW14461   2.925   6.104   1.385 -0.3607 -1.1137  0.1784
 3674SOL    HW214462   2.881   6.188   1.373  1.1070 -0.0636  1.8482
 3674SOL    HW314463   2.950   6.078   1.296 -3.2310 -1.2203 -0.7136
 3674SOL    MW414464   2.923   6.111   1.371 -0.5458 -0.9893  0.2811
 3675SOL     OW14465   2.542   5.179   4.604 -0.4835 -0.8543 -0.5860
 3675SOL    HW214466   2.466   5.159   4.548 -1.5424 -2.4154  1.2945
 3675SOL    HW314467   2.590   5.097   4.609  1.0953 -0.0125 -1.3147
 3675SOL    MW414468   2.538   5.165   4.597 -0.4149 -0.9492 -0.4340
 3676SOL     OW14469   2.793   4.671   5.715 -0.2044 -0.4507  0.2007
 3676SOL    HW214470   2.832   4.646   5.631  1.3023  0.8278  0.4730
 3676SOL    HW314471   2.828   4.608   5.777  2.6088  1.3568  0.6654
 3676SOL    MW414472   2.803   4.660   5.712  0.3655 -0.0436  0.2980
 3677SOL     OW14473   3.812   5.597   0.168  0.1222  0.2164 -0.1721
 3677SOL    HW214474   3.778   5.682   0.197 -0.0232 -0.3587  1.4696
 3677SOL    HW314475   3.737   5.537   0.177  0.4297 -0.2336 -0.5721
 3677SOL    MW414476   3.797   5.600   0.173  0.1436  0.0812 -0.0083
 3678SOL     OW14477   4.455   4.134   2.853 -0.1031  0.2941 -0.9920
 3678SOL    HW214478   4.485   4.160   2.766  2.4141  0.1930 -0.2333
 3678SOL    HW314479   4.461   4.214   2.906 -2.0725  0.4791 -0.9439
 3678SOL    MW414480   4.459   4.148   2.849 -0.0309  0.3052 -0.8856
 3679SOL     OW14481   1.769   0.985   0.588 -0.8125  0.3027 -0.4800
 3679SOL    HW214482   1.840   1.010   0.647 -0.6029  0.4224 -0.7779
 3679SOL    HW314483   1.714   0.927   0.640 -1.9143  2.2104  0.5925
 3679SOL    MW414484   1.771   0.981   0.602 -0.9302  0.5702 -0.3778
 3680SOL     OW14485   3.291   2.613   4.329  0.7897  0.3915  0.6791
 3680SOL    HW214486   3.310   2.619   4.236  1.5398  1.7927  0.8916
 3680SOL    HW314487   3.200   2.642   4.338 -0.2204 -2.3611  0.1175
 3680SOL    MW414488   3.281   2.618   4.318  0.7554  0.2132  0.6330
 3681SOL     OW14489   0.058   5.696   0.694  0.1871 -0.0585 -0.4583
 3681SOL    HW214490  -0.001   5.660   0.628  0.6871 -3.6370  0.8244
 3681SOL    HW314491   0.142   5.705   0.649  0.0465 -0.5998 -0.8366
 3681SOL    MW414492   0.061   5.692   0.680  0.2346 -0.6021 -0.3390
 3682SOL     OW14493   5.009   4.910   2.351 -0.1285 -0.1535 -0.3410
 3682SOL    HW214494   5.043   4.826   2.320 -2.1056 -0.7702 -0.9893
 3682SOL    HW314495   5.084   4.952   2.394  1.7197 -0.9508 -2.5633
 3682SOL    MW414496   5.024   4.904   2.353 -0.1455 -0.3400 -0.7197
 3683SOL     OW14497   2.657   0.415   4.948  0.7260  0.0877  0.3185
 3683SOL    HW214498   2.685   0.499   4.985  0.2881  0.2447  0.3069
 3683SOL    HW314499   2.584   0.438   4.890 -0.4120 -0.4462  1.4801
 3683SOL    MW414500   2.651   0.429   4.945  0.5181  0.0379  0.4703
 3684SOL     OW14501   0.905   5.932   0.675 -0.7017  0.6022 -0.0271
 3684SOL    HW214502   0.935   5.952   0.586  0.4347 -2.8166 -0.5538
 3684SOL    HW314503   0.817   5.970   0.679  0.1110  2.9490 -1.6843
 3684SOL    MW414504   0.897   5.940   0.664 -0.4445  0.4607 -0.3152
 3685SOL     OW14505   5.676   0.902   1.620 -0.4552  0.1783  0.3695
 3685SOL    HW214506   5.767   0.922   1.644 -0.2911 -1.1710  0.9780
 3685SOL    HW314507   5.626   0.977   1.651  0.5594  1.4557 -0.9562
 3685SOL    MW414508   5.682   0.914   1.627 -0.2997  0.1688  0.2748
 3686SOL     OW14509   3.272   1.398   1.510  0.1077 -0.1524  0.1835
 3686SOL    HW214510   3.319   1.345   1.573 -0.8270 -0.7253  0.4177
 3686SOL    HW314511   3.273   1.486   1.547  1.7265  0.0378 -0.2405
 3686SOL    MW414512   3.278   1.403   1.523  0.1979 -0.2029  0.1585
 3687SOL     OW14513   2.512   3.934   5.308 -0.5535 -0.3166  0.2628
 3687SOL    HW214514   2.466   3.899   5.384 -1.9650 -0.2359 -0.5281
 3687SOL    HW314515   2.589   3.978   5.345 -0.2335 -1.8047  1.4967
 3687SOL    MW414516   2.516   3.935   5.323 -0.6975 -0.5023  0.3212
 3688SOL     OW14517   4.701   2.215   6.017  0.0901 -1.0059  0.4180
 3688SOL    HW214518   4.787   2.246   5.991  0.3297 -1.8828  0.1578
 3688SOL    HW314519   4.652   2.295   6.036  0.9453 -0.5004  0.5443
 3688SOL    MW414520   4.706   2.230   6.016  0.2346 -1.0549  0.4004
 3689SOL     OW14521   6.045   3.128   2.057  0.8383  0.0967 -0.0018
 3689SOL    HW214522   5.964   3.085   2.084  0.8558  0.1757  0.1796
 3689SOL    HW314523   6.033   3.219   2.085 -0.1408  0.7593 -2.3382
 3689SOL    MW414524   6.032   3.135   2.064  0.7114  0.1945 -0.2861
 3690SOL     OW14525   5.555   5.176   5.159 -0.0684  0.3606  0.1436
 3690SOL    HW214526   5.515   5.251   5.113  1.0475  0.6019 -0.4613
 3690SOL    HW314527   5.648   5.195   5.158  0.3632 -1.5326 -0.9348
 3690SOL    MW414528   5.562   5.189   5.152  0.1358  0.1427 -0.0785
 3691SOL     OW14529   1.848   6.286   4.431 -0.5122 -0.2352  0.0924
 3691SOL    HW214530   1.779   6.229   4.397 -1.0800  1.0482 -1.0438
 3691SOL    HW314531   1.802   6.364   4.462  0.3771  0.4237 -0.1913
 3691SOL    MW414532   1.833   6.289   4.430 -0.4697  0.0211 -0.0949
 3692SOL     OW14533   0.965   3.259   4.378  0.4097  0.0469 -0.4347
 3692SOL    HW214534   0.910   3.254   4.456  0.2158  2.1323 -0.3727
 3692SOL    HW314535   1.052   3.279   4.411  0.9296 -1.7174 -0.6327
 3692SOL    MW414536   0.969   3.261   4.392  0.4527  0.0892 -0.4527
 3693SOL     OW14537   0.461   0.755   1.141  0.0812  0.2270  0.2650
 3693SOL    HW214538   0.469   0.673   1.191 -2.5065  0.3718  1.0791
 3693SOL    HW314539   0.474   0.729   1.050 -1.1372 -1.2234  0.4671
 3693SOL    MW414540   0.463   0.740   1.136 -0.4210  0.0547  0.3991
 3694SOL     OW14541   1.591   0.783   2.124  0.5025  0.4099  0.1595
 3694SOL    HW214542   1.529   0.824   2.184  0.3325  0.7905 -0.2646
 3694SOL    HW314543   1.557   0.804   2.037 -0.6420 -2.2247 -0.1213
 3694SOL    MW414544   1.579   0.791   2.120  0.3291  0.1125  0.0665
 3695SOL     OW14545   0.393   3.072   0.446 -0.1657  0.6840  0.1541
 3695SOL    HW214546   0.364   3.069   0.537 -0.6693 -1.3216 -0.0260
 3695SOL    HW314547   0.485   3.097   0.451  0.4185 -1.4274  1.4246
 3695SOL    MW414548   0.401   3.075   0.459 -0.1550  0.1408  0.2979
 3696SOL     OW14549   1.290   5.806   6.099 -0.0598 -0.6686 -0.2553
 3696SOL    HW214550   1.364   5.846   6.054 -0.3828  0.0146 -0.1905
 3696SOL    HW314551   1.326   5.728   6.141  1.0285  0.5475  1.2054
 3696SOL    MW414552   1.305   5.801   6.099  0.0412 -0.4180 -0.0540
 3697SOL     OW14553   5.202   2.378   5.958  0.0238 -0.8667 -0.1408
 3697SOL    HW214554   5.237   2.466   5.949 -1.6907  0.0562  1.4409
 3697SOL    HW314555   5.275   2.326   5.992  1.4186 -0.4168 -2.2944
 3697SOL    MW414556   5.216   2.383   5.962 -0.0184 -0.6856 -0.2163
 3698SOL     OW14557   2.295   4.282   4.366 -0.0093 -0.2786  0.1285
 3698SOL    HW214558   2.273   4.202   4.414  2.1717 -0.6917  0.5780
 3698SOL    HW314559   2.281   4.352   4.428  0.9807 -0.6411  0.7977
 3698SOL    MW414560   2.290   4.280   4.380  0.4091 -0.3809  0.2761
 3699SOL     OW14561   6.295   4.210   4.037  0.0047  0.7503  0.0076
 3699SOL    HW214562   6.262   4.120   4.028 -0.5844  1.1274 -2.0484
 3699SOL    HW314563   6.245   4.245   4.111 -0.2865 -0.3774  0.3779
 3699SOL    MW414564   6.284   4.203   4.046 -0.1115  0.6513 -0.2148
 3700SOL     OW14565   0.867   4.105   5.540  0.5384 -0.2028  0.0720
 3700SOL    HW214566   0.806   4.088   5.612  0.5943 -0.4067  0.0710
 3700SOL    HW314567   0.811   4.124   5.465  0.4732 -0.4590  0.0539
 3700SOL    MW414568   0.852   4.105   5.540  0.5372 -0.2635  0.0695
 3701SOL     OW14569   2.749   4.716   6.129 -0.4820 -0.1351 -0.3030
 3701SOL    HW214570   2.674   4.657   6.126 -1.1193  0.6675 -0.6044
 3701SOL    HW314571   2.723   4.790   6.074  1.4934 -0.9378 -2.4501
 3701SOL    MW414572   2.735   4.718   6.121 -0.3055 -0.1351 -0.6261
 3702SOL     OW14573   4.832   1.045   4.193  0.0075 -0.4963  0.4861
 3702SOL    HW214574   4.790   1.053   4.279 -0.0005 -2.3389  0.6931
 3702SOL    HW314575   4.767   1.079   4.132 -0.8471 -1.1111  1.0271
 3702SOL    MW414576   4.818   1.050   4.197 -0.1063 -0.8205  0.5848
 3703SOL     OW14577   2.952   4.696   0.220  0.0714  0.7848  0.1946
 3703SOL    HW214578   2.863   4.694   0.255  0.0473 -0.7020  0.0952
 3703SOL    HW314579   2.944   4.746   0.138 -0.6798  0.6428  0.1686
 3703SOL    MW414580   2.939   4.703   0.214 -0.0309  0.5699  0.1781
 3704SOL     OW14581   0.530   3.337   2.308 -0.2798 -0.3163 -0.1210
 3704SOL    HW214582   0.538   3.286   2.228 -2.8492  0.0735 -0.7258
 3704SOL    HW314583   0.498   3.275   2.373 -1.9074  0.1302 -0.4519
 3704SOL    MW414584   0.527   3.322   2.306 -0.8335 -0.2060 -0.2444
 3705SOL     OW14585   1.615   0.358   1.924 -0.1121 -0.3728  0.0550
 3705SOL    HW214586   1.549   0.371   1.855 -0.3690  0.2342  0.4036
 3705SOL    HW314587   1.694   0.400   1.890  0.5561 -2.3220 -0.9844
 3705SOL    MW414588   1.616   0.365   1.910 -0.0578 -0.5498 -0.0361
 3706SOL     OW14589   4.006   1.531   4.732 -0.5605 -0.4765  0.4580
 3706SOL    HW214590   3.935   1.475   4.700 -0.3039  0.8911 -2.9177
 3706SOL    HW314591   4.083   1.501   4.684  0.3821  0.3930  1.3788
 3706SOL    MW414592   4.007   1.520   4.721 -0.4023 -0.1814  0.1341
 3707SOL     OW14593   1.448   3.334   6.399  0.3213  0.4051  0.4730
 3707SOL    HW214594   1.484   3.271   6.462 -0.9992 -1.2433 -0.3361
 3707SOL    HW314595   1.407   3.401   6.453  1.3557  0.3634  1.3529
 3707SOL    MW414596   1.448   3.335   6.414  0.2835  0.1821  0.4823
 3708SOL     OW14597   4.985   2.816   2.845  1.0630  0.3354 -0.2930
 3708SOL    HW214598   5.010   2.837   2.935 -1.1156  0.6799  0.2940
 3708SOL    HW314599   4.890   2.803   2.849  1.2233 -2.0386 -2.1089
 3708SOL    MW414600   4.976   2.817   2.857  0.7967  0.0677 -0.4551
 3709SOL     OW14601   3.508   4.544   2.493 -0.0089  0.0994 -0.0046
 3709SOL    HW214602   3.412   4.552   2.498  0.0448  0.3279  0.6138
 3709SOL    HW314603   3.522   4.486   2.417 -0.7492 -2.0231  1.3771
 3709SOL    MW414604   3.497   4.537   2.483 -0.0995 -0.1505  0.2593
 3710SOL     OW14605   4.052   3.371   4.334 -0.7125  0.0648 -0.3576
 3710SOL    HW214606   4.011   3.291   4.367 -1.1196 -0.4361 -1.9901
 3710SOL    HW314607   4.143   3.366   4.365 -1.5288  0.6942  2.4457
 3710SOL    MW414608   4.059   3.360   4.342 -0.8739  0.0817 -0.2031
 3711SOL     OW14609   1.761   0.718   0.754  0.3279 -0.0873 -0.2269
 3711SOL    HW214610   1.750   0.748   0.844  1.8762  0.2044 -0.1055
 3711SOL    HW314611   1.853   0.738   0.733  0.2517 -1.0032 -1.5469
 3711SOL    MW414612   1.772   0.725   0.763  0.5221 -0.1697 -0.3850
 3712SOL     OW14613   5.429   1.315   0.400 -0.0887  0.0449 -0.1219
 3712SOL    HW214614   5.429   1.410   0.384 -0.9394 -0.3360 -2.6878
 3712SOL    HW314615   5.337   1.293   0.412  0.0041 -0.6090 -0.5976
 3712SOL    MW414616   5.417   1.325   0.400 -0.1887 -0.0916 -0.5232
 3713SOL     OW14617   5.801   1.722   1.647  0.0897 -0.6780 -0.0931
 3713SOL    HW214618   5.758   1.768   1.720  0.5088 -0.8282  0.2488
 3713SOL    HW314619   5.816   1.633   1.679  1.1747 -0.4758  0.0090
 3713SOL    MW414620   5.797   1.717   1.661  0.2882 -0.6711 -0.0345
 3714SOL     OW14621   6.227   3.198   5.261 -0.3301  0.2336 -0.0290
 3714SOL    HW214622   6.228   3.185   5.167  1.6861  1.1857 -0.1931
 3714SOL    HW314623   6.185   3.283   5.274  0.3855  0.6204 -0.1813
 3714SOL    MW414624   6.222   3.208   5.251  0.0303  0.4103 -0.0707
 3715SOL     OW14625   2.660   0.432   0.494  0.4713  0.1691  0.1988
 3715SOL    HW214626   2.713   0.393   0.564  0.4615  0.6196  0.4599
 3715SOL    HW314627   2.678   0.378   0.418 -0.3300 -0.9830  0.7971
 3715SOL    MW414628   2.670   0.420   0.493  0.3643  0.0766  0.3122
 3716SOL     OW14629   5.000   3.239   5.702  0.5434  0.2745  0.3469
 3716SOL    HW214630   4.912   3.209   5.678  0.3827  0.3174  0.8726
 3716SOL    HW314631   4.997   3.247   5.797  0.7861  1.3275  0.2703
 3716SOL    MW414632   4.988   3.236   5.712  0.5542  0.4191  0.4061
 3717SOL     OW14633   2.471   3.247   3.411 -0.2787  0.3886 -0.0581
 3717SOL    HW214634   2.476   3.177   3.476 -0.1969 -0.3367 -0.8263
 3717SOL    HW314635   2.380   3.276   3.415  0.2138  1.9136  1.9349
 3717SOL    MW414636   2.459   3.242   3.420 -0.2029  0.4941  0.1035
 3718SOL     OW14637   2.201   1.465   0.069  0.1224  0.3340  0.4913
 3718SOL    HW214638   2.271   1.519   0.106  0.1941  0.8426 -0.3550
 3718SOL    HW314639   2.120   1.511   0.093  0.1376  0.3477  0.5158
 3718SOL    MW414640   2.199   1.478   0.077  0.1339  0.4029  0.3829
 3719SOL     OW14641   3.135   2.796   3.046 -0.0204 -0.6341 -0.7718
 3719SOL    HW214642   3.093   2.713   3.068  0.3312 -0.7124 -0.3783
 3719SOL    HW314643   3.093   2.860   3.105  0.0614 -0.6229 -0.7253
 3719SOL    MW414644   3.124   2.794   3.057  0.0368 -0.6429 -0.7138
 3720SOL     OW14645   3.520   4.980   2.362 -0.4936  0.0906 -0.6663
 3720SOL    HW214646   3.596   5.012   2.312  0.3494 -0.2577  0.3584
 3720SOL    HW314647   3.494   4.900   2.317  0.1982 -0.1683 -0.6213
 3720SOL    MW414648   3.527   4.974   2.350 -0.2911  0.0105 -0.5252
 3721SOL     OW14649   5.886   1.624   1.139  0.5571  0.4132  0.4902
 3721SOL    HW214650   5.889   1.529   1.128 -1.9474  0.3113  0.1227
 3721SOL    HW314651   5.909   1.638   1.231  1.7397 -0.4471  0.3511
 3721SOL    MW414652   5.890   1.613   1.150  0.3827  0.2862  0.4233
 3722SOL     OW14653   5.105   1.877   2.792  0.3288  0.1184 -0.2537
 3722SOL    HW214654   5.138   1.966   2.788 -0.4828  0.4412  0.0588
 3722SOL    HW314655   5.120   1.841   2.705  1.3117  0.3145 -0.1746
 3722SOL    MW414656   5.111   1.884   2.780  0.3514  0.1869 -0.2020
 3723SOL     OW14657   2.443   4.930   3.611  0.0861  0.2467  0.1499
 3723SOL    HW214658   2.420   4.932   3.518  1.3469  1.0664 -0.1760
 3723SOL    HW314659   2.423   4.841   3.639 -0.4317  0.0229 -0.8794
 3723SOL    MW414660   2.438   4.919   3.602  0.1841  0.3254 -0.0289
 3724SOL     OW14661   4.507   1.561   2.702  0.5314 -0.4599  0.6764
 3724SOL    HW214662   4.600   1.582   2.711  0.5073  0.3401 -0.6807
 3724SOL    HW314663   4.498   1.525   2.614 -0.6612  0.9188  0.1844
 3724SOL    MW414664   4.518   1.559   2.692  0.3708 -0.1725  0.4324
 3725SOL     OW14665   0.949   3.167   5.419 -0.0358 -0.0870  0.7711
 3725SOL    HW214666   0.986   3.159   5.331 -0.5891  0.8743  0.4321
 3725SOL    HW314667   0.856   3.186   5.404 -0.3827 -1.0360  1.5833
 3725SOL    MW414668   0.941   3.169   5.406 -0.1546 -0.0854  0.8335
 3726SOL     OW14669   2.778   1.860   3.555 -0.3096  0.2614 -0.4483
 3726SOL    HW214670   2.871   1.839   3.549  0.3215  2.4822  0.5670
 3726SOL    HW314671   2.761   1.868   3.649 -1.7307 -0.8527 -0.5797
 3726SOL    MW414672   2.788   1.858   3.566 -0.4138  0.4074 -0.3317
 3727SOL     OW14673   5.086   0.671   3.701  0.1577 -0.5002  0.0428
 3727SOL    HW214674   5.177   0.665   3.670  0.5507 -0.8228  1.2058
 3727SOL    HW314675   5.034   0.679   3.621  1.2095 -0.3067 -0.6414
 3727SOL    MW414676   5.091   0.671   3.686  0.3483 -0.5173  0.1060
 3728SOL     OW14677   3.514   4.159   5.958 -0.0484 -0.3096  0.0738
 3728SOL    HW214678   3.527   4.200   5.873  0.8166  1.4380  0.9819
 3728SOL    HW314679   3.447   4.214   6.001 -0.6830 -1.3298  0.4205
 3728SOL    MW414680   3.507   4.172   5.953 -0.0180 -0.2136  0.2394
 3729SOL     OW14681   1.024   1.569   4.669 -0.8342  0.0115  0.2423
 3729SOL    HW214682   1.049   1.618   4.747  1.3934 -2.7711  1.4325
 3729SOL    HW314683   1.064   1.618   4.597  2.0647 -0.3165  1.4698
 3729SOL    MW414684   1.033   1.582   4.669 -0.1578 -0.3989  0.5613
 3730SOL     OW14685   4.702   3.399   3.647 -0.1930 -0.2654 -0.1634
 3730SOL    HW214686   4.743   3.420   3.731 -0.4182  0.9777 -0.3395
 3730SOL    HW314687   4.763   3.435   3.582  0.5756 -2.2598 -0.6095
 3730SOL    MW414688   4.716   3.407   3.650 -0.1213 -0.3645 -0.2455
 3731SOL     OW14689   2.320   2.312   4.145 -0.0079 -0.3363 -0.2729
 3731SOL    HW214690   2.334   2.406   4.133 -1.0271 -0.0770  0.4661
 3731SOL    HW314691   2.392   2.284   4.201 -1.4415  0.6885  2.2487
 3731SOL    MW414692   2.331   2.321   4.150 -0.3315 -0.1669  0.1573
 3732SOL     OW14693   2.818   2.060   1.368  0.5563 -0.0527 -0.4622
 3732SOL    HW214694   2.785   2.042   1.279  1.4671 -2.0491 -0.4617
 3732SOL    HW314695   2.844   2.152   1.365  0.1508  0.0574 -2.1212
 3732SOL    MW414696   2.817   2.070   1.356  0.6230 -0.3016 -0.6810
 3733SOL     OW14697   0.773   1.802   4.345 -0.0512 -0.2215  0.3085
 3733SOL    HW214698   0.738   1.816   4.257  1.5619 -1.8522 -0.6661
 3733SOL    HW314699   0.828   1.878   4.362 -1.8565  1.0347  0.7448
 3733SOL    MW414700   0.776   1.814   4.336 -0.0765 -0.2709  0.2375
 3734SOL     OW14701   2.686   0.528   1.150 -0.0285 -0.2867  0.0356
 3734SOL    HW214702   2.688   0.438   1.182  0.2892 -0.2828  0.0306
 3734SOL    HW314703   2.778   0.555   1.148 -0.2246  1.3012  3.5882
 3734SOL    MW414704   2.699   0.520   1.154 -0.0125 -0.0767  0.5037
 3735SOL     OW14705   0.351   5.684   4.965  0.1590 -0.1069 -0.6479
 3735SOL    HW214706   0.280   5.712   4.908  0.9176 -0.9417 -2.0656
 3735SOL    HW314707   0.350   5.747   5.037 -0.3733  1.4652 -1.9461
 3735SOL    MW414708   0.341   5.696   4.967  0.1889 -0.0096 -1.0062
 3736SOL     OW14709   5.088   2.734   4.570  0.3887  0.0538  0.2056
 3736SOL    HW214710   5.096   2.639   4.570  1.2416  0.1132  1.1395
 3736SOL    HW314711   5.046   2.755   4.653  0.6948  0.5186  0.2514
 3736SOL    MW414712   5.084   2.724   4.581  0.5417  0.1230  0.3349
 3737SOL     OW14713   1.341   4.637   1.107  0.6480 -0.2365  0.2027
 3737SOL    HW214714   1.352   4.705   1.174 -0.3912  0.3989 -0.2366
 3737SOL    HW314715   1.274   4.580   1.142  0.9776 -0.6107  0.2308
 3737SOL    MW414716   1.334   4.639   1.121  0.5544 -0.2021  0.1485
 3738SOL     OW14717   0.076   4.298   4.772  0.1131  0.0518 -0.0063
 3738SOL    HW214718   0.019   4.300   4.695  0.9036 -0.8770 -0.6330
 3738SOL    HW314719   0.128   4.218   4.763 -0.1773 -0.3940  1.7988
 3738SOL    MW414720   0.076   4.288   4.761  0.1791 -0.1296  0.1492
 3739SOL     OW14721   2.928   0.374   4.049  0.0315  0.2578 -0.0294
 3739SOL    HW214722   2.877   0.391   4.128  0.6151  0.5751  0.2886
 3739SOL    HW314723   2.864   0.350   3.983 -0.4259 -0.4751  0.6681
 3739SOL    MW414724   2.913   0.373   4.051  0.0482  0.2030  0.1046
 3740SOL     OW14725   5.827   3.387   0.206  0.3190  0.2695  0.5591
 3740SOL    HW214726   5.810   3.296   0.183  1.7956 -0.0024  0.3969
 3740SOL    HW314727   5.872   3.423   0.129  1.2681  0.6367  1.2655
 3740SOL    MW414728   5.831   3.380   0.193  0.6390  0.2821  0.6309
 3741SOL     OW14729   1.644   1.048   5.185  0.2492  0.0765 -0.0815
 3741SOL    HW214730   1.614   1.072   5.097 -0.1900  0.7961  0.2573
 3741SOL    HW314731   1.566   1.016   5.230 -0.3943  3.0691  1.1870
 3741SOL    MW414732   1.630   1.047   5.179  0.1063  0.5663  0.1305
 3742SOL     OW14733   2.094   1.619   5.587 -0.9008  0.0766  0.2894
 3742SOL    HW214734   2.026   1.685   5.579 -0.5317  0.5069  0.6790
 3742SOL    HW314735   2.121   1.622   5.679 -1.3823 -1.1200  0.4954
 3742SOL    MW414736   2.088   1.628   5.598 -0.9156 -0.0245  0.3680
 3743SOL     OW14737   1.218   1.946   3.348 -0.2183  0.3881  0.3106
 3743SOL    HW214738   1.203   1.987   3.263  0.6572 -1.0482 -0.5911
 3743SOL    HW314739   1.135   1.953   3.395 -1.3711 -0.6090 -1.4821
 3743SOL    MW414740   1.205   1.952   3.343 -0.2549  0.0671 -0.0449
 3744SOL     OW14741   4.556   5.892   4.168 -0.5244 -0.2079  0.0789
 3744SOL    HW214742   4.561   5.807   4.213  0.6934 -0.7145 -0.9401
 3744SOL    HW314743   4.516   5.951   4.232 -1.4937 -1.5607  0.7843
 3744SOL    MW414744   4.551   5.888   4.182 -0.4916 -0.4532  0.0376
 3745SOL     OW14745   1.166   4.784   3.572 -0.2566 -0.4889  0.2350
 3745SOL    HW214746   1.079   4.816   3.595  0.7103  1.9259  0.8096
 3745SOL    HW314747   1.190   4.833   3.494  0.4785 -1.3764 -0.1177
 3745SOL    MW414748   1.157   4.795   3.565 -0.0321 -0.2874  0.2643
 3746SOL     OW14749   5.677   5.784   3.303 -0.1475  0.8768 -0.0395
 3746SOL    HW214750   5.660   5.782   3.209  2.1318 -0.3365 -0.5085
 3746SOL    HW314751   5.641   5.867   3.333 -1.8476  0.8154 -1.7639
 3746SOL    MW414752   5.670   5.794   3.295 -0.0711  0.7086 -0.3289
 3747SOL     OW14753   2.021   0.082   6.293  0.3687 -0.7398  0.0598
 3747SOL    HW214754   2.000   0.173   6.312 -0.4130 -0.9405  0.1924
 3747SOL    HW314755   2.062   0.084   6.207 -0.9522 -0.4077 -0.5894
 3747SOL    MW414756   2.023   0.094   6.284  0.0913 -0.7225 -0.0084
 3748SOL     OW14757   1.761   5.559   1.349  0.1935 -0.0814  0.4220
 3748SOL    HW214758   1.794   5.564   1.259  0.6782  1.2971  0.6555
 3748SOL    HW314759   1.823   5.501   1.394  0.0893 -0.5776 -0.0692
 3748SOL    MW414760   1.774   5.552   1.343  0.2437  0.0350  0.3880
 3749SOL     OW14761   1.574   5.518   3.869 -0.2044 -0.0332 -0.0700
 3749SOL    HW214762   1.495   5.567   3.848 -1.4781 -1.9541  0.0243
 3749SOL    HW314763   1.555   5.475   3.953  1.3595  0.3229  0.4993
 3749SOL    MW414764   1.561   5.519   3.877 -0.1661 -0.2397  0.0175
 3750SOL     OW14765   0.719   5.076   0.802 -0.0783 -0.3719  0.7055
 3750SOL    HW214766   0.659   5.147   0.825 -0.0142 -0.4864  1.2282
 3750SOL    HW314767   0.806   5.114   0.813 -0.0030 -0.9611  2.4641
 3750SOL    MW414768   0.723   5.090   0.806 -0.0599 -0.4647  1.0065
 3751SOL     OW14769   5.428   4.492   2.145 -0.2949  0.0256 -0.0089
 3751SOL    HW214770   5.459   4.546   2.072  1.3372 -1.0968 -0.1970
 3751SOL    HW314771   5.478   4.524   2.220 -1.6188  0.8493  0.5618
 3751SOL    MW414772   5.438   4.504   2.145 -0.2542 -0.0138  0.0416
 3752SOL     OW14773   2.667   2.441   6.402 -0.4084 -0.3996  0.2122
 3752SOL    HW214774   2.721   2.375   6.445  1.7862  2.1024  1.5815
 3752SOL    HW314775   2.652   2.406   6.314  3.2006 -1.4643 -0.1489
 3752SOL    MW414776   2.672   2.428   6.396  0.3573 -0.2099  0.3452
 3753SOL     OW14777   1.851   6.327   1.505  0.5359 -0.0703  0.2692
 3753SOL    HW214778   1.930   6.350   1.555  0.9361  0.5155 -0.5996
 3753SOL    HW314779   1.876   6.342   1.413 -0.8721  1.0595  0.0348
 3753SOL    MW414780   1.865   6.332   1.499  0.4029  0.1560  0.1237
 3754SOL     OW14781   2.953   6.167   5.789  0.2028  0.0213  0.1984
 3754SOL    HW214782   2.930   6.225   5.716 -1.0900 -0.4923  0.1627
 3754SOL    HW314783   2.880   6.175   5.850 -0.5673 -2.3120 -0.2854
 3754SOL    MW414784   2.940   6.175   5.787 -0.0693 -0.3543  0.1299
 3755SOL     OW14785   0.236   1.194   1.495  0.4335 -0.1084 -0.1416
 3755SOL    HW214786   0.258   1.104   1.468  0.6083 -0.2537  0.4669
 3755SOL    HW314787   0.158   1.216   1.444 -1.1757 -1.5661  1.5643
 3755SOL    MW414788   0.229   1.185   1.484  0.2443 -0.3199  0.1638
 3756SOL     OW14789   4.895   1.988   4.117 -0.2542 -0.2628 -0.7040
 3756SOL    HW214790   4.919   1.974   4.025 -1.0818  0.8337 -1.1066
 3756SOL    HW314791   4.976   2.016   4.159  0.0874 -0.5864 -1.1300
 3756SOL    MW414792   4.908   1.990   4.110 -0.3183 -0.1608 -0.8133
 3757SOL     OW14793   1.478   6.141   5.293 -0.6040 -0.1155 -0.6343
 3757SOL    HW214794   1.455   6.108   5.380  2.9453  0.6639  0.7688
 3757SOL    HW314795   1.411   6.206   5.273 -2.2292 -1.2343  0.8892
 3757SOL    MW414796   1.466   6.145   5.301 -0.3501 -0.1603 -0.2481
 3758SOL     OW14797   1.832   2.439   4.855  0.1560  0.8013 -0.2852
 3758SOL    HW214798   1.841   2.445   4.760 -0.6812 -0.1668 -0.4530
 3758SOL    HW314799   1.777   2.362   4.869  1.2654  0.1831  1.0409
 3758SOL    MW414800   1.826   2.429   4.844  0.1919  0.5920 -0.1324
 3759SOL     OW14801   4.057   6.381   0.955 -0.3159  0.0017 -0.3476
 3759SOL    HW214802   4.028   6.302   0.908  0.1565 -0.5299  0.2431
 3759SOL    HW314803   4.069   6.352   1.045 -0.1401  0.7602 -0.1209
 3759SOL    MW414804   4.055   6.366   0.961 -0.2304  0.0316 -0.2397
 3760SOL     OW14805   3.687   1.159   1.323  0.1211  0.0807 -0.0686
 3760SOL    HW214806   3.611   1.101   1.315  0.1688  0.1485 -1.2293
 3760SOL    HW314807   3.665   1.234   1.268  0.2807  0.9476  1.0184
 3760SOL    MW414808   3.674   1.161   1.314  0.1485  0.2040 -0.0783
 3761SOL     OW14809   2.718   4.447   0.444 -0.4276  0.0841  0.3293
 3761SOL    HW214810   2.713   4.505   0.368  0.6386 -1.1323 -0.7106
 3761SOL    HW314811   2.811   4.429   0.456 -0.7583 -2.6625 -0.4152
 3761SOL    MW414812   2.730   4.452   0.436 -0.3306 -0.4388  0.0939
 3762SOL     OW14813   3.638   2.253   4.519 -0.2067  0.1538 -0.3162
 3762SOL    HW214814   3.695   2.259   4.596  2.4555  0.7990 -2.1914
 3762SOL    HW314815   3.627   2.160   4.504 -0.9143  0.0194  0.9257
 3762SOL    MW414816   3.644   2.242   4.527  0.0512  0.2212 -0.3997
 3763SOL     OW14817   5.624   5.193   5.559  0.3516 -0.6294 -0.2521
 3763SOL    HW214818   5.541   5.233   5.586 -0.6027 -2.3745 -0.4399
 3763SOL    HW314819   5.665   5.165   5.640 -0.6954 -2.4021 -0.2626
 3763SOL    MW414820   5.618   5.194   5.573  0.0876 -1.0935 -0.2783
 3764SOL     OW14821   0.708   5.097   3.903 -0.4396  0.1618 -0.5254
 3764SOL    HW214822   0.662   5.157   3.963  0.2198  0.8151 -0.6494
 3764SOL    HW314823   0.638   5.050   3.857 -1.0411  2.0232 -1.6263
 3764SOL    MW414824   0.693   5.099   3.905 -0.4320  0.4936 -0.6870
 3765SOL     OW14825   2.516   0.910   0.650  0.1125 -0.4247 -0.0995
 3765SOL    HW214826   2.578   0.900   0.722  0.5786  0.2283 -0.4115
 3765SOL    HW314827   2.430   0.905   0.692  0.3834  0.2784  0.5498
 3765SOL    MW414828   2.513   0.908   0.665  0.2097 -0.2458 -0.0550
 3766SOL     OW14829   4.323   1.892   4.502 -0.3387  0.2923 -0.6148
 3766SOL    HW214830   4.290   1.899   4.592  1.5948 -0.8811  0.2482
 3766SOL    HW314831   4.364   1.976   4.485  0.8471 -0.0813  0.2941
 3766SOL    MW414832   4.324   1.904   4.512  0.0728  0.0882 -0.3810
 3767SOL     OW14833   0.298   3.623   5.154  0.2977 -0.2230 -0.1726
 3767SOL    HW214834   0.252   3.540   5.165 -0.4249  0.2407  0.4001
 3767SOL    HW314835   0.373   3.602   5.098  0.7456 -1.4928  0.8516
 3767SOL    MW414836   0.302   3.609   5.148  0.2614 -0.3293  0.0381
 3768SOL     OW14837   5.524   3.333   0.924 -0.1139  0.6942  0.7225
 3768SOL    HW214838   5.459   3.311   0.856 -0.4292 -1.6625  1.6932
 3768SOL    HW314839   5.473   3.338   1.005  0.9767 -3.0974  1.8497
 3768SOL    MW414840   5.509   3.331   0.925 -0.0116 -0.1170  0.9993
 3769SOL     OW14841   5.273   2.707   1.027  0.0253 -0.5300  0.1665
 3769SOL    HW214842   5.327   2.648   1.079  0.3743  0.4504  0.9293
 3769SOL    HW314843   5.295   2.794   1.059 -2.0421 -0.1048  0.5244
 3769SOL    MW414844   5.283   2.711   1.038 -0.2014 -0.3445  0.3144
 3770SOL     OW14845   1.630   3.229   0.592  0.3433  0.0814 -0.0449
 3770SOL    HW214846   1.586   3.153   0.629  1.6491 -0.8482 -0.3214
 3770SOL    HW314847   1.569   3.262   0.526  0.8878 -2.4710 -1.9758
 3770SOL    MW414848   1.616   3.223   0.588  0.5874 -0.3780 -0.3362
 3771SOL     OW14849   2.519   1.517   5.794  0.4712  0.0616  0.4296
 3771SOL    HW214850   2.424   1.532   5.793  0.3505 -0.5928 -1.1896
 3771SOL    HW314851   2.542   1.516   5.887 -0.5427  3.5180  0.8754
 3771SOL    MW414852   2.509   1.519   5.806  0.3215  0.4313  0.2748
 3772SOL     OW14853   1.395   4.643   1.794 -0.2326 -0.4025 -0.1195
 3772SOL    HW214854   1.443   4.573   1.839  0.5787 -0.4508 -1.0193
 3772SOL    HW314855   1.429   4.641   1.704  1.9564  2.9749  0.4565
 3772SOL    MW414856   1.406   4.634   1.788  0.1633  0.0367 -0.1622
 3773SOL     OW14857   2.769   3.326   0.116 -0.4332  0.3371 -0.4251
 3773SOL    HW214858   2.707   3.314   0.044 -0.6411  0.9479 -0.3565
 3773SOL    HW314859   2.854   3.335   0.073 -0.0521 -2.3770 -0.4444
 3773SOL    MW414860   2.772   3.326   0.101 -0.4104  0.0596 -0.4186
 3774SOL     OW14861   0.598   1.283   5.183 -0.2262 -0.2194  0.5615
 3774SOL    HW214862   0.534   1.339   5.138  0.3160 -0.9756 -1.2198
 3774SOL    HW314863   0.549   1.203   5.203 -0.2029 -0.2683  0.4240
 3774SOL    MW414864   0.583   1.280   5.180 -0.1516 -0.3256  0.3084
 3775SOL     OW14865   0.308   2.240   3.030  0.2890  0.0142 -0.0848
 3775SOL    HW214866   0.331   2.147   3.033 -0.5178 -0.1838  0.2447
 3775SOL    HW314867   0.359   2.275   2.957  0.4539 -0.7286 -0.3363
 3775SOL    MW414868   0.318   2.232   3.021  0.2043 -0.1100 -0.0745
 3776SOL     OW14869   1.402   0.867   6.406 -0.0352 -0.5859 -0.0166
 3776SOL    HW214870   1.324   0.911   6.439  0.4964  0.4907 -0.1460
 3776SOL    HW314871   1.450   0.839   6.484  0.2602  0.2295  0.1030
 3776SOL    MW414872   1.398   0.869   6.421  0.0739 -0.3363 -0.0179
 3777SOL     OW14873   0.334   5.967   3.476  0.2080  0.4662  0.7923
 3777SOL    HW214874   0.370   5.879   3.464  0.5801  0.7573 -0.4422
 3777SOL    HW314875   0.246   5.954   3.510  0.3897 -0.3742  0.9397
 3777SOL    MW414876   0.327   5.954   3.479  0.2810  0.3937  0.6489
 3778SOL     OW14877   5.779   3.593   5.431 -0.4331  0.1305 -0.0147
 3778SOL    HW214878   5.741   3.563   5.348  0.6488 -0.0212 -0.4705
 3778SOL    HW314879   5.853   3.535   5.446  1.3504  2.1283 -0.6235
 3778SOL    MW414880   5.783   3.582   5.422 -0.0551  0.3741 -0.1552
 3779SOL     OW14881   1.361   5.785   1.606  0.1234 -0.3758 -0.4186
 3779SOL    HW214882   1.280   5.799   1.557  2.6791  0.2959 -4.9361
 3779SOL    HW314883   1.392   5.698   1.578  2.2259  0.4869 -0.9657
 3779SOL    MW414884   1.355   5.775   1.596  0.7380 -0.1733 -1.0868
 3780SOL     OW14885   4.119   1.443   1.745 -0.1851  0.2895 -0.4669
 3780SOL    HW214886   4.151   1.353   1.757 -0.6419  0.3799  2.0342
 3780SOL    HW314887   4.052   1.436   1.677  1.5327 -0.7618 -2.1836
 3780SOL    MW414888   4.115   1.430   1.738 -0.0188  0.1627 -0.3634
 3781SOL     OW14889   2.117   2.323   1.199 -0.2271 -0.3282  0.1449
 3781SOL    HW214890   2.206   2.297   1.177 -0.4423  0.1921 -1.4501
 3781SOL    HW314891   2.066   2.303   1.120 -1.5135 -0.5557  1.0075
 3781SOL    MW414892   2.122   2.317   1.186 -0.4252 -0.2895  0.0483
 3782SOL     OW14893   1.035   3.882   4.040 -0.2553 -0.2771 -0.0218
 3782SOL    HW214894   0.983   3.933   4.102  1.0315 -0.4877  1.2713
 3782SOL    HW314895   1.116   3.863   4.086  0.6741 -0.6120 -1.7129
 3782SOL    MW414896   1.039   3.886   4.054  0.0371 -0.3491 -0.0743
 3783SOL     OW14897   5.134   0.412   2.166 -0.2721 -0.4622  0.0825
 3783SOL    HW214898   5.082   0.341   2.203 -0.3375 -0.0913  0.7052
 3783SOL    HW314899   5.110   0.489   2.218 -1.2259  0.3228 -1.4406
 3783SOL    MW414900   5.124   0.413   2.178 -0.4066 -0.3097 -0.0363
 3784SOL     OW14901   4.080   1.617   1.985 -0.3886 -0.2743 -0.6593
 3784SOL    HW214902   4.080   1.558   1.909 -0.3418  0.0705 -0.9299
 3784SOL    HW314903   4.011   1.582   2.042 -1.5693  0.4049 -1.6142
 3784SOL    MW414904   4.071   1.604   1.983 -0.5382 -0.1392 -0.8210
 3785SOL     OW14905   4.832   4.561   0.456  0.0317  0.2362  0.0956
 3785SOL    HW214906   4.740   4.585   0.453 -0.2642 -0.8838 -1.5316
 3785SOL    HW314907   4.844   4.504   0.379  1.0289 -3.2521  2.5622
 3785SOL    MW414908   4.821   4.556   0.445  0.1243 -0.3718  0.2064
 3786SOL     OW14909   6.227   5.045   1.786  0.3239 -0.7706  0.1635
 3786SOL    HW214910   6.303   5.045   1.728 -0.2810 -2.1746 -0.6859
 3786SOL    HW314911   6.157   5.082   1.733  0.0192 -1.0447  0.3721
 3786SOL    MW414912   6.228   5.050   1.771  0.2039 -0.9920  0.0790
 3787SOL     OW14913   1.863   2.395   0.977  0.1189  0.4239  0.0003
 3787SOL    HW214914   1.771   2.370   0.983  0.3900 -0.5707  0.2432
 3787SOL    HW314915   1.906   2.319   0.937  1.3164 -0.4037  2.5935
 3787SOL    MW414916   1.857   2.381   0.973  0.3127  0.1835  0.3745
 3788SOL     OW14917   3.103   2.492   3.391 -0.2991 -0.5678  0.2507
 3788SOL    HW214918   3.075   2.426   3.454 -2.6171 -0.5218 -0.6396
 3788SOL    HW314919   3.064   2.465   3.309  1.4611  0.1650 -0.8811
 3788SOL    MW414920   3.094   2.480   3.389 -0.3727 -0.4650 -0.0161
 3789SOL     OW14921   0.032   0.449   0.622  0.3887  0.6569  0.3294
 3789SOL    HW214922   0.106   0.399   0.588 -0.9753 -0.1155 -1.6991
 3789SOL    HW314923  -0.020   0.386   0.671 -0.5049  0.4407 -0.8731
 3789SOL    MW414924   0.035   0.434   0.624  0.0908  0.5265 -0.0969
 3790SOL     OW14925   0.905   1.195   4.591  0.2397  0.0313 -0.2923
 3790SOL    HW214926   0.944   1.214   4.676 -0.1822  0.0123 -0.0931
 3790SOL    HW314927   0.959   1.243   4.528  1.0160 -0.5671 -0.0976
 3790SOL    MW414928   0.917   1.204   4.594  0.2865 -0.0502 -0.2403
 3791SOL     OW14929   1.598   0.816   1.617  0.7713 -0.7321 -0.2230
 3791SOL    HW214930   1.537   0.768   1.560  0.4442 -0.4590 -0.1029
 3791SOL    HW314931   1.643   0.876   1.558  0.1139 -0.1341 -0.1221
 3791SOL    MW414932   1.596   0.817   1.601  0.6414 -0.6172 -0.1938
 3792SOL     OW14933   4.031   5.727   3.432  0.3907 -0.4606  0.0642
 3792SOL    HW214934   4.009   5.637   3.457  0.5651 -0.7255 -0.7189
 3792SOL    HW314935   3.982   5.782   3.494 -1.3576 -1.0569 -0.7365
 3792SOL    MW414936   4.022   5.723   3.444  0.1831 -0.5743 -0.1448
 3793SOL     OW14937   0.203   2.006   0.301 -0.0820  0.4415 -0.6416
 3793SOL    HW214938   0.290   1.979   0.271 -0.6747 -2.7534  0.2442
 3793SOL    HW314939   0.220   2.085   0.353  1.9997  1.0128 -2.0527
 3793SOL    MW414940   0.217   2.013   0.304  0.1145  0.0953 -0.7109
 3794SOL     OW14941   4.551   2.427   1.710  0.1190  0.0244 -0.3747
 3794SOL    HW214942   4.538   2.441   1.804  1.9297  1.1259 -0.2400
 3794SOL    HW314943   4.637   2.386   1.703  0.6336  1.1990 -1.5915
 3794SOL    MW414944   4.561   2.424   1.721  0.4258  0.3247 -0.5174
 3795SOL     OW14945   1.424   1.847   1.119  0.1294 -0.2281  0.0618
 3795SOL    HW214946   1.364   1.919   1.137 -0.4207 -0.4895 -0.6751
 3795SOL    HW314947   1.458   1.865   1.032 -0.3157 -1.0528 -0.2930
 3795SOL    MW414948   1.420   1.859   1.110 -0.0019 -0.3714 -0.0823
 3796SOL     OW14949   2.031   5.943   4.984  0.5141  0.4997 -0.1396
 3796SOL    HW214950   2.060   5.853   4.968 -0.6418  0.0427  0.2315
 3796SOL    HW314951   2.090   5.975   5.053  0.7987 -0.0419 -0.1214
 3796SOL    MW414952   2.043   5.935   4.991  0.3992  0.3679 -0.0882
 3797SOL     OW14953   1.386   2.517   0.568  0.1208 -0.3469  0.5132
 3797SOL    HW214954   1.339   2.449   0.519  0.6890 -0.8976  0.7212
 3797SOL    HW314955   1.317   2.576   0.599 -0.4929 -1.4078  1.2364
 3797SOL    MW414956   1.371   2.515   0.565  0.1148 -0.5595  0.6360
 3798SOL     OW14957   5.603   1.586   2.317  0.1206 -0.4062  0.3163
 3798SOL    HW214958   5.595   1.491   2.312  1.5720 -0.4733 -1.8806
 3798SOL    HW314959   5.685   1.606   2.272 -0.3161  1.9248  0.4193
 3798SOL    MW414960   5.613   1.576   2.311  0.2545 -0.1075  0.0400
 3799SOL     OW14961   2.383   1.949   4.622 -0.6883  0.1306  0.5773
 3799SOL    HW214962   2.386   1.897   4.542 -0.4179  0.2073  0.5363
 3799SOL    HW314963   2.366   2.039   4.593  1.6250  0.5730  0.3990
 3799SOL    MW414964   2.381   1.954   4.608 -0.3474  0.1991  0.5484
 3800SOL     OW14965   2.221   4.006   3.727  0.2205 -0.1125  0.3029
 3800SOL    HW214966   2.170   3.982   3.805 -0.6556 -0.6414 -0.4149
 3800SOL    HW314967   2.175   3.963   3.654  0.9056  0.5469 -0.5347
 3800SOL    MW414968   2.208   3.997   3.728  0.1953 -0.0953  0.0977
 3801SOL     OW14969   4.401   5.338   2.066  0.1654 -0.0178  0.4204
 3801SOL    HW214970   4.369   5.300   1.985 -1.1033  1.3033  0.2549
 3801SOL    HW314971   4.496   5.343   2.055 -0.0613  1.1131 -1.4422
 3801SOL    MW414972   4.409   5.334   2.054 -0.0319  0.3057  0.1528
 3802SOL     OW14973   4.610   1.220   2.680 -0.6928  0.1970  0.2981
 3802SOL    HW214974   4.534   1.248   2.732 -1.0300 -2.4332  1.4045
 3802SOL    HW314975   4.685   1.230   2.738 -0.7863 -0.8536  0.6258
 3802SOL    MW414976   4.610   1.225   2.694 -0.7496 -0.2886  0.4873
 3803SOL     OW14977   1.792   3.153   5.907 -0.0408 -0.1629  0.4274
 3803SOL    HW214978   1.704   3.189   5.894 -0.3835 -1.3359 -0.6877
 3803SOL    HW314979   1.846   3.230   5.925 -1.0617  0.7188 -0.0800
 3803SOL    MW414980   1.787   3.168   5.908 -0.2207 -0.2013  0.2133
 3804SOL     OW14981   6.018   2.630   4.954  0.2719  0.2707  0.2035
 3804SOL    HW214982   6.039   2.592   4.868  0.6143  3.0607 -1.0528
 3804SOL    HW314983   6.103   2.652   4.992  0.1323 -1.1295  1.4015
 3804SOL    MW414984   6.032   2.628   4.947  0.2986  0.4541  0.1958
 3805SOL     OW14985   6.023   3.799   1.091 -0.1415  0.0302 -0.5208
 3805SOL    HW214986   6.025   3.742   1.168 -0.5995  1.0917  0.3040
 3805SOL    HW314987   5.980   3.747   1.024 -4.2848  0.6249  1.3297
 3805SOL    MW414988   6.017   3.785   1.093 -0.7486  0.2487 -0.1678
 3806SOL     OW14989   0.290   4.330   4.975  0.4342  0.1281  0.1280
 3806SOL    HW214990   0.198   4.345   4.954  1.1826  2.6323 -1.9517
 3806SOL    HW314991   0.311   4.397   5.041  0.5054 -1.2723  1.5753
 3806SOL    MW414992   0.281   4.341   4.981  0.5423  0.2737  0.0446
 3807SOL     OW14993   0.408   0.575   5.911  0.0715 -0.5285  0.5673
 3807SOL    HW214994   0.398   0.483   5.883  1.3428 -0.7244  0.7056
 3807SOL    HW314995   0.455   0.570   5.994  1.6080  0.2887 -0.2041
 3807SOL    MW414996   0.413   0.562   5.918  0.4420 -0.4466  0.4838
 3808SOL     OW14997   1.839   0.018   3.253  0.2977 -0.3939 -0.0345
 3808SOL    HW214998   1.892  -0.059   3.231  0.5532 -0.2348  0.0109
 3808SOL    HW314999   1.834   0.068   3.172 -0.4625 -0.8044 -0.2447
 3808SOL    MW415000   1.846   0.015   3.240  0.2312 -0.4271 -0.0562
 3809SOL     OW15001   5.537   3.143   0.328 -0.1482 -0.1259 -0.3289
 3809SOL    HW215002   5.585   3.134   0.411 -1.5333 -1.6410  0.3640
 3809SOL    HW315003   5.599   3.114   0.261 -0.3509 -3.1135  0.6536
 3809SOL    MW415004   5.552   3.138   0.330 -0.3577 -0.7200 -0.1079
 3810SOL     OW15005   1.764   0.229   4.293 -0.6291  0.0195  0.0234
 3810SOL    HW215006   1.813   0.191   4.366  1.5393  0.0203 -1.3173
 3810SOL    HW315007   1.743   0.154   4.237  0.7832  0.3517 -1.0146
 3810SOL    MW415008   1.768   0.214   4.295 -0.1567  0.0634 -0.2904
 3811SOL     OW15009   3.404   4.347   6.164 -0.1151  0.4702  0.1180
 3811SOL    HW215010   3.313   4.377   6.163  0.4829  2.5267 -2.1607
 3811SOL    HW315011   3.455   4.425   6.186  1.1720 -0.4070  0.3251
 3811SOL    MW415012   3.399   4.361   6.166  0.1336  0.6258 -0.1553
 3812SOL     OW15013   3.570   0.032   0.745 -0.4150  0.2679 -0.0123
 3812SOL    HW215014   3.536  -0.053   0.774 -1.3157  0.4267 -0.5665
 3812SOL    HW315015   3.492   0.081   0.719  0.2336  0.7000 -1.1869
 3812SOL    MW415016   3.555   0.027   0.745 -0.4483  0.3458 -0.2404
 3813SOL     OW15017   2.398   2.775   4.263 -0.1362 -0.8985 -0.2334
 3813SOL    HW215018   2.492   2.790   4.255 -0.2561 -0.7327 -1.5341
 3813SOL    HW315019   2.368   2.843   4.324  0.6208 -1.1601  0.4524
 3813SOL    MW415020   2.407   2.786   4.270 -0.0521 -0.9111 -0.3145
 3814SOL     OW15021   5.688   2.706   1.154  0.3859  0.0467  0.1212
 3814SOL    HW215022   5.679   2.707   1.059 -0.2396 -0.4061  0.1647
 3814SOL    HW315023   5.764   2.650   1.171 -0.9909 -2.0158 -0.0564
 3814SOL    MW415024   5.697   2.699   1.144  0.1217 -0.2852  0.1035
 3815SOL     OW15025   3.400   5.442   3.588 -0.2568  0.5196 -0.5527
 3815SOL    HW215026   3.369   5.480   3.670  0.2086  2.7140 -1.3179
 3815SOL    HW315027   3.474   5.497   3.563  0.6248 -1.0801 -1.6649
 3815SOL    MW415028   3.406   5.454   3.596 -0.0791  0.5981 -0.8004
 3816SOL     OW15029   4.225   5.390   5.240 -0.3799 -0.0900 -0.0369
 3816SOL    HW215030   4.298   5.350   5.192 -1.6897 -1.7579 -0.7684
 3816SOL    HW315031   4.149   5.374   5.184 -1.4755  0.7033  1.1777
 3816SOL    MW415032   4.224   5.383   5.226 -0.6973 -0.2054  0.0268
 3817SOL     OW15033   4.890   1.867   0.844  0.4372  0.1124 -0.2203
 3817SOL    HW215034   4.832   1.862   0.920 -0.9946 -0.7198 -1.3367
 3817SOL    HW315035   4.883   1.958   0.815 -1.4033 -0.3044 -1.1566
 3817SOL    MW415036   4.882   1.879   0.851  0.0055 -0.0524 -0.4911
 3818SOL     OW15037   3.783   2.518   2.915  0.2577  0.0377  0.0420
 3818SOL    HW215038   3.874   2.549   2.917  0.6499 -0.9921 -0.7853
 3818SOL    HW315039   3.761   2.515   2.823 -0.5107 -0.0274  0.2259
 3818SOL    MW415040   3.792   2.521   2.903  0.2081 -0.1068 -0.0428
 3819SOL     OW15041   4.677   5.587   4.879 -0.2283 -0.5528  0.3506
 3819SOL    HW215042   4.636   5.652   4.936 -0.6138 -0.5764  0.1047
 3819SOL    HW315043   4.718   5.639   4.810  0.4784 -0.5062  0.7870
 3819SOL    MW415044   4.677   5.603   4.878 -0.1860 -0.5498  0.3757
 3820SOL     OW15045   3.197   1.262   6.195  0.0147  0.0119  0.4071
 3820SOL    HW215046   3.141   1.279   6.119  1.9006 -0.0857 -1.0774
 3820SOL    HW315047   3.158   1.314   6.266 -2.1939 -0.4275 -0.4094
 3820SOL    MW415048   3.184   1.271   6.194 -0.0278 -0.0590  0.1035
 3821SOL     OW15049   5.671   2.692   4.613 -0.0467 -0.2823  0.8626
 3821SOL    HW215050   5.674   2.718   4.520 -1.0429  0.7908  1.1035
 3821SOL    HW315051   5.582   2.660   4.626  0.2091 -0.7996  1.3647
 3821SOL    MW415052   5.660   2.691   4.602 -0.1444 -0.2090  0.9606
 3822SOL     OW15053   1.422   2.135   1.569 -0.9002 -0.5059  0.3084
 3822SOL    HW215054   1.393   2.215   1.613  2.0033 -0.3084  2.1152
 3822SOL    HW315055   1.445   2.163   1.481 -1.0731  0.3782  0.5365
 3822SOL    MW415056   1.421   2.149   1.563 -0.5399 -0.3632  0.5768
 3823SOL     OW15057   0.756   0.144   0.531 -0.1768  0.0418 -0.5419
 3823SOL    HW215058   0.675   0.132   0.581  0.3307 -0.0659  0.2788
 3823SOL    HW315059   0.754   0.236   0.505  0.4082  0.6034  1.2659
 3823SOL    MW415060   0.745   0.155   0.534 -0.0327  0.1016 -0.1951
 3824SOL     OW15061   0.412   6.094   1.569 -0.1777  0.2484 -0.2877
 3824SOL    HW215062   0.377   6.122   1.654 -0.0049  0.8957 -0.4259
 3824SOL    HW315063   0.455   6.010   1.587 -1.0034 -0.1133  0.0666
 3824SOL    MW415064   0.413   6.086   1.583 -0.2638  0.2860 -0.2592
 3825SOL     OW15065   3.226   3.953   5.677 -0.4807 -0.0199  0.2014
 3825SOL    HW215066   3.234   3.890   5.605  0.6647 -0.0180  0.3210
 3825SOL    HW315067   3.301   3.936   5.734 -0.6304  0.8743  0.6958
 3825SOL    MW415068   3.237   3.942   5.675 -0.3493  0.0983  0.2824
 3826SOL     OW15069   5.279   0.666   4.117  0.1413 -0.6297 -0.3466
 3826SOL    HW215070   5.189   0.661   4.150  0.8145 -0.0009  1.7653
 3826SOL    HW315071   5.294   0.759   4.100  0.7676 -0.5532  0.5405
 3826SOL    MW415072   5.269   0.677   4.119  0.3128 -0.5366  0.0491
 3827SOL     OW15073   6.097   4.228   6.264 -0.3515  0.4925 -0.0642
 3827SOL    HW215074   6.159   4.261   6.198  0.5449 -0.7534  0.1208
 3827SOL    HW315075   6.011   4.237   6.223  0.1556  0.1339 -1.2448
 3827SOL    MW415076   6.094   4.234   6.250 -0.1663  0.2808 -0.1956
 3828SOL     OW15077   2.821   2.142   4.044 -0.2418 -0.2691 -0.7695
 3828SOL    HW215078   2.871   2.188   4.112 -0.1008 -0.0130 -1.0452
 3828SOL    HW315079   2.884   2.081   4.006 -0.0854  0.1941 -1.2519
 3828SOL    MW415080   2.836   2.140   4.048 -0.2026 -0.1742 -0.8695
 3829SOL     OW15081   4.273   5.333   3.529 -0.4097 -0.2256  0.1257
 3829SOL    HW215082   4.333   5.397   3.492 -0.5541  0.7512  1.5034
 3829SOL    HW315083   4.320   5.250   3.524  0.6021  0.3288  0.1497
 3829SOL    MW415084   4.287   5.331   3.523 -0.2953 -0.0236  0.3106
 3830SOL     OW15085   4.825   0.223   5.296  0.3364  0.6878 -0.0259
 3830SOL    HW215086   4.732   0.205   5.312  0.3768 -0.0039 -0.5261
 3830SOL    HW315087   4.830   0.318   5.285 -0.6163  0.5640 -1.8643
 3830SOL    MW415088   4.813   0.233   5.297  0.2160  0.5802 -0.3344
 3831SOL     OW15089   5.198   2.327   3.499 -0.1633 -0.0399 -0.1663
 3831SOL    HW215090   5.157   2.294   3.419 -1.6577 -1.7491  1.1984
 3831SOL    HW315091   5.232   2.248   3.542  2.1148  1.0244  0.1234
 3831SOL    MW415092   5.197   2.312   3.494 -0.0599 -0.1250  0.0520
 3832SOL     OW15093   1.537   2.538   3.075  0.4898 -0.1894  0.2776
 3832SOL    HW215094   1.576   2.512   3.158  1.5229  1.3652  0.3022
 3832SOL    HW315095   1.446   2.505   3.080  1.2441 -2.3792  0.9050
 3832SOL    MW415096   1.530   2.530   3.087  0.7256 -0.2732  0.3636
 3833SOL     OW15097   5.560   5.734   0.560 -0.9796 -0.3210  0.2840
 3833SOL    HW215098   5.528   5.756   0.647  0.5793  2.7726  0.2185
 3833SOL    HW315099   5.545   5.813   0.508 -0.1821 -1.4243 -1.7216
 3833SOL    MW415100   5.554   5.747   0.565 -0.6687 -0.0584  0.0108
 3834SOL     OW15101   2.265   1.646   0.851 -0.3585 -0.1031 -0.7353
 3834SOL    HW215102   2.184   1.595   0.851  0.2830 -1.1693  0.4913
 3834SOL    HW315103   2.319   1.605   0.784 -0.4132 -0.0767 -0.7961
 3834SOL    MW415104   2.261   1.634   0.842 -0.2811 -0.2403 -0.5815
 3835SOL     OW15105   3.694   2.876   4.058  0.5350 -0.0606  0.2085
 3835SOL    HW215106   3.755   2.921   4.117  0.7607  0.5788 -0.5022
 3835SOL    HW315107   3.693   2.930   3.979  0.6550 -1.2002 -0.5904
 3835SOL    MW415108   3.702   2.889   4.055  0.5806 -0.1266  0.0094
 3836SOL     OW15109   5.437   5.468   0.715  0.5957  0.1256 -0.1050
 3836SOL    HW215110   5.425   5.374   0.702 -1.1277  0.3187 -0.1019
 3836SOL    HW315111   5.532   5.480   0.720  0.8570 -1.5320 -0.6530
 3836SOL    MW415112   5.448   5.457   0.714  0.4028 -0.0677 -0.1769
 3837SOL     OW15113   2.479   3.481   4.801  0.1103  0.3662  0.6374
 3837SOL    HW215114   2.518   3.526   4.876  2.6045  0.5476 -0.6390
 3837SOL    HW315115   2.488   3.388   4.820 -0.7069  0.4066  1.2337
 3837SOL    MW415116   2.486   3.475   4.813  0.3316  0.3954  0.5476
 3838SOL     OW15117   1.935   5.079   2.743 -0.9001  0.2824 -0.1386
 3838SOL    HW215118   1.936   5.092   2.648 -0.0746  1.0236 -0.0338
 3838SOL    HW315119   1.842   5.071   2.765 -1.0759 -0.3907 -1.0698
 3838SOL    MW415120   1.923   5.079   2.733 -0.8144  0.2914 -0.2476
 3839SOL     OW15121   0.264   6.187   3.742 -0.2745  0.5285 -0.0820
 3839SOL    HW215122   0.179   6.156   3.711 -0.7239  1.2173  0.4290
 3839SOL    HW315123   0.279   6.139   3.823 -0.7487  1.2741  0.4597
 3839SOL    MW415124   0.255   6.177   3.748 -0.3963  0.7178  0.0569
 3840SOL     OW15125   1.401   1.336   0.051  0.2466 -0.0733  0.2634
 3840SOL    HW215126   1.311   1.344   0.080  0.0959  2.1056 -0.6148
 3840SOL    HW315127   1.453   1.349   0.131 -0.1518 -2.6784  1.0305
 3840SOL    MW415128   1.396   1.339   0.066  0.1742 -0.1295  0.2488
 3841SOL     OW15129   3.395   4.847   3.362  0.3402  0.0992 -0.6256
 3841SOL    HW215130   3.347   4.888   3.434  0.5170 -0.1746 -0.3446
 3841SOL    HW315131   3.477   4.817   3.402  0.5152  0.0980 -0.9813
 3841SOL    MW415132   3.400   4.848   3.377  0.3866  0.0629 -0.6355
 3842SOL     OW15133   1.875   4.803   4.490 -0.0348  0.6423  0.3749
 3842SOL    HW215134   1.782   4.820   4.504 -0.2537  0.6431 -0.9476
 3842SOL    HW315135   1.904   4.874   4.433  1.0069  1.1359  1.4612
 3842SOL    MW415136   1.866   4.815   4.484  0.0738  0.7075  0.3438
 3843SOL     OW15137   1.151   0.234   1.786  0.1412 -0.3698 -0.1109
 3843SOL    HW215138   1.111   0.318   1.765 -2.0856 -0.5084  2.8323
 3843SOL    HW315139   1.139   0.181   1.707 -0.4411  1.3619 -1.2435
 3843SOL    MW415140   1.144   0.238   1.773 -0.2294 -0.1596  0.1280
 3844SOL     OW15141   2.957   5.197   6.337 -0.2597  0.2239 -0.2363
 3844SOL    HW215142   2.926   5.194   6.427  1.0133  1.6733  0.2941
 3844SOL    HW315143   2.972   5.290   6.319  0.6163 -0.1281 -1.5438
 3844SOL    MW415144   2.955   5.208   6.346  0.0238  0.3687 -0.3389
 3845SOL     OW15145   2.085   2.842   2.812  0.1107  0.0809  0.0206
 3845SOL    HW215146   2.127   2.874   2.732 -0.0747  2.3357  0.7335
 3845SOL    HW315147   2.083   2.919   2.869  0.5778 -1.5363  2.3534
 3845SOL    MW415148   2.091   2.856   2.809  0.1479  0.1650  0.4225
 3846SOL     OW15149   2.345   0.213   4.658  0.8898  0.1540  0.1362
 3846SOL    HW215150   2.374   0.242   4.572  2.8389  2.5567  1.4726
 3846SOL    HW315151   2.361   0.119   4.658  0.4331  0.0127 -2.2176
 3846SOL    MW415152   2.351   0.205   4.647  1.0867  0.4524  0.0020
 3847SOL     OW15153   4.036   1.834   1.646 -0.3459 -0.7571  0.1489
 3847SOL    HW215154   3.964   1.770   1.644 -2.3258  1.3550  0.2052
 3847SOL    HW315155   4.108   1.787   1.688 -2.0098 -2.6428  1.0729
 3847SOL    MW415156   4.036   1.819   1.651 -0.8266 -0.7272  0.2782
 3848SOL     OW15157   0.909   5.476   0.056  0.1239  0.5143  0.5628
 3848SOL    HW215158   0.930   5.399   0.108 -1.4627 -0.0303  0.4452
 3848SOL    HW315159   0.817   5.495   0.077  0.2335  1.8571 -0.0544
 3848SOL    MW415160   0.900   5.469   0.066 -0.0710  0.6196  0.4658
 3849SOL     OW15161   5.952   3.351   5.488  0.0133 -0.0772  0.3564
 3849SOL    HW215162   5.949   3.258   5.466 -2.8487  0.0077 -0.0332
 3849SOL    HW315163   5.913   3.356   5.576  0.0860  0.7655  0.3559
 3849SOL    MW415164   5.946   3.340   5.497 -0.3547  0.0452  0.3049
 3850SOL     OW15165   3.831   2.362   1.245 -0.4649  0.2683  0.1784
 3850SOL    HW215166   3.889   2.286   1.251  1.6697  1.6507 -1.2644
 3850SOL    HW315167   3.885   2.429   1.203 -2.3172  2.5388  1.2177
 3850SOL    MW415168   3.846   2.361   1.240 -0.4276  0.7502  0.1252
 3851SOL     OW15169   0.593   6.330   5.043  0.3120 -0.3497  0.4547
 3851SOL    HW215170   0.589   6.425   5.030 -2.4884  0.1836  3.7280
 3851SOL    HW315171   0.681   6.315   5.079  0.5509  1.1234  0.5700
 3851SOL    MW415172   0.604   6.340   5.046 -0.0259 -0.0850  0.9018
 3852SOL     OW15173   0.396   3.585   6.432 -0.3452  0.0291 -0.2468
 3852SOL    HW215174   0.301   3.576   6.428 -0.9794  3.6793  2.1205
 3852SOL    HW315175   0.424   3.521   6.497 -1.7385  1.2939  1.6772
 3852SOL    MW415176   0.387   3.575   6.440 -0.6127  0.6776  0.3194
 3853SOL     OW15177   4.065   0.448   3.689  0.2158  0.0626 -0.4924
 3853SOL    HW215178   4.139   0.387   3.685 -0.0365 -0.4190  1.2450
 3853SOL    HW315179   3.993   0.400   3.648 -0.1493 -1.1280  1.4340
 3853SOL    MW415180   4.066   0.433   3.683  0.1344 -0.1580 -0.0090
 3854SOL     OW15181   3.772   1.026   1.014  0.2481  0.7000 -0.2892
 3854SOL    HW215182   3.759   0.951   1.071  1.0139  0.4517 -0.4212
 3854SOL    HW315183   3.867   1.036   1.009  0.2462  0.3241 -1.9886
 3854SOL    MW415184   3.783   1.017   1.021  0.3489  0.6176 -0.5308
 3855SOL     OW15185   1.456   0.287   4.822 -0.3901  0.0784  0.5186
 3855SOL    HW215186   1.424   0.374   4.799  1.5985  1.2507  1.8506
 3855SOL    HW315187   1.528   0.270   4.760 -2.0226 -1.5799 -1.0566
 3855SOL    MW415188   1.461   0.296   4.811 -0.3431  0.0143  0.4865
 3856SOL     OW15189   0.719   4.410   1.658  0.1275 -0.1148  0.6671
 3856SOL    HW215190   0.676   4.455   1.585 -0.8059  1.8159  2.2674
 3856SOL    HW315191   0.728   4.320   1.630  2.9911  1.1139 -3.1853
 3856SOL    MW415192   0.714   4.404   1.645  0.3822  0.3021  0.3700
 3857SOL     OW15193   6.184   4.375   0.440 -0.3335 -0.6095 -0.2326
 3857SOL    HW215194   6.115   4.335   0.388 -1.0103 -0.7968  0.7789
 3857SOL    HW315195   6.261   4.321   0.425 -0.6018 -0.8342 -0.7902
 3857SOL    MW415196   6.185   4.363   0.431 -0.4582 -0.6639 -0.1727
 3858SOL     OW15197   3.552   1.423   5.051 -0.0245  0.4087  0.7580
 3858SOL    HW215198   3.540   1.517   5.064  2.5165  0.9536 -0.2659
 3858SOL    HW315199   3.600   1.394   5.129 -1.6574 -0.2984  1.5490
 3858SOL    MW415200   3.557   1.432   5.063  0.0953  0.3873  0.7273
 3859SOL     OW15201   3.092   3.575   5.609 -1.0860 -0.3664 -0.3128
 3859SOL    HW215202   3.071   3.657   5.564  1.4953  0.4897 -0.1527
 3859SOL    HW315203   3.126   3.518   5.541  0.1656 -0.0923  0.0563
 3859SOL    MW415204   3.094   3.578   5.594 -0.5803 -0.2173 -0.2430
 3860SOL     OW15205   0.361   1.084   4.145 -0.8893 -0.2806 -0.2590
 3860SOL    HW215206   0.317   1.128   4.072  0.3606 -1.4573 -1.8015
 3860SOL    HW315207   0.344   1.140   4.221 -1.2955  1.6143 -1.6714
 3860SOL    MW415208   0.353   1.097   4.145 -0.7780 -0.1858 -0.6488
 3861SOL     OW15209   0.637   3.042   5.676 -0.2728  0.5935 -0.4386
 3861SOL    HW215210   0.650   3.137   5.669 -0.1790  0.5118 -1.7164
 3861SOL    HW315211   0.565   3.024   5.615  1.1728 -0.4262 -1.9405
 3861SOL    MW415212   0.629   3.052   5.667 -0.0697  0.4482 -0.8053
 3862SOL     OW15213   0.644   4.161   0.525  0.2360  0.0634 -0.1243
 3862SOL    HW215214   0.580   4.226   0.494  0.2672  0.0158 -0.2935
 3862SOL    HW315215   0.664   4.187   0.615  0.4061  0.4103 -0.2592
 3862SOL    MW415216   0.638   4.173   0.532  0.2626  0.1029 -0.1644
 3863SOL     OW15217   4.744   3.162   5.592  0.5906  0.1831 -0.5306
 3863SOL    HW215218   4.773   3.217   5.519  0.7676  2.2227  0.9988
 3863SOL    HW315219   4.657   3.195   5.614  0.4235 -0.5915  0.0276
 3863SOL    MW415220   4.737   3.173   5.585  0.5919  0.3500 -0.2551
 3864SOL     OW15221   4.586   4.883   5.624 -0.0596  0.1076  0.1180
 3864SOL    HW215222   4.569   4.806   5.570  0.5295  0.0894 -0.0483
 3864SOL    HW315223   4.597   4.849   5.713 -1.3551  0.1727  0.3153
 3864SOL    MW415224   4.585   4.869   5.629 -0.1528  0.1137  0.1221
 3865SOL     OW15225   1.913   3.680   3.080  0.4505  0.4047  0.0993
 3865SOL    HW215226   1.831   3.705   3.123  1.3008 -0.1813  2.1819
 3865SOL    HW315227   1.981   3.724   3.131  1.6083 -1.5556  0.3146
 3865SOL    MW415228   1.911   3.689   3.092  0.7154  0.0687  0.4025
 3866SOL     OW15229   4.105  -0.002   4.372 -0.4124  0.4590  0.1715
 3866SOL    HW215230   4.061   0.059   4.313 -0.6281  1.5801  1.4328
 3866SOL    HW315231   4.198   0.004   4.347 -0.6209  0.1685 -0.6912
 3866SOL    MW415232   4.112   0.007   4.361 -0.4684  0.5686  0.2241
 3867SOL     OW15233   0.157   0.509   3.485  0.0236 -0.3313 -0.0677
 3867SOL    HW215234   0.078   0.542   3.527 -0.8705 -1.9383 -0.4479
 3867SOL    HW315235   0.149   0.535   3.393  0.3496  0.2201  0.0540
 3867SOL    MW415236   0.146   0.517   3.479 -0.0513 -0.4706 -0.1018
 3868SOL     OW15237   5.595   2.627   4.345  0.0642 -0.0272 -0.0559
 3868SOL    HW215238   5.506   2.590   4.345  0.3633 -0.9435  2.3898
 3868SOL    HW315239   5.620   2.628   4.253 -2.9840  1.5842 -1.0313
 3868SOL    MW415240   5.586   2.622   4.333 -0.2985  0.0645  0.1381
 3869SOL     OW15241   5.811   4.325   2.234  0.4381  0.3680 -0.2178
 3869SOL    HW215242   5.891   4.341   2.185  1.6669 -2.0196  0.8710
 3869SOL    HW315243   5.828   4.245   2.283 -1.6172  1.2784  2.2047
 3869SOL    MW415244   5.823   4.317   2.234  0.3291  0.1731  0.2455
 3870SOL     OW15245   4.759   4.961   3.601 -0.6795 -0.4301 -0.3476
 3870SOL    HW215246   4.700   4.939   3.530 -0.4992 -0.4363 -0.4958
 3870SOL    HW315247   4.712   4.936   3.680 -0.6232 -1.0200 -0.4972
 3870SOL    MW415248   4.745   4.955   3.602 -0.6483 -0.5087 -0.3869
 3871SOL     OW15249   3.114   0.132   6.438  0.4847 -0.0654  0.0929
 3871SOL    HW215250   3.083   0.213   6.478 -1.1006 -0.1727 -0.8176
 3871SOL    HW315251   3.169   0.160   6.365  0.5491  0.1733  0.2323
 3871SOL    MW415252   3.117   0.146   6.434  0.2840 -0.0481 -0.0089
 3872SOL     OW15253   1.032   4.321   5.617  0.4316  0.7271  0.0737
 3872SOL    HW215254   0.992   4.251   5.564 -1.0823 -0.3825  2.5165
 3872SOL    HW315255   1.117   4.337   5.575  0.6006 -2.1740 -0.9205
 3872SOL    MW415256   1.038   4.314   5.604  0.2541  0.1980  0.2648
 3873SOL     OW15257   6.137   3.520   4.403  0.4530  0.4092 -0.2749
 3873SOL    HW215258   6.107   3.450   4.346 -1.1343 -1.5643  2.7259
 3873SOL    HW315259   6.070   3.588   4.394  0.0781  0.0079 -0.5400
 3873SOL    MW415260   6.124   3.520   4.394  0.1941  0.0959  0.0861
 3874SOL     OW15261   3.047   3.551   2.841 -0.8091 -0.8775 -0.1413
 3874SOL    HW215262   3.129   3.592   2.868 -2.5548  1.0185  2.9275
 3874SOL    HW315263   3.042   3.471   2.894 -0.9486 -0.9852 -0.3141
 3874SOL    MW415264   3.057   3.546   2.852 -1.0579 -0.6415  0.2408
 3875SOL     OW15265   0.172   1.826   4.567  0.2938  0.6037  0.2761
 3875SOL    HW215266   0.079   1.846   4.583  0.8799  2.7323  1.3615
 3875SOL    HW315267   0.193   1.874   4.486  0.3150 -0.4434 -0.3617
 3875SOL    MW415268   0.162   1.835   4.558  0.3739  0.7464  0.3352
 3876SOL     OW15269   5.801   3.202   1.064  0.4829  0.0414 -0.4833
 3876SOL    HW215270   5.787   3.112   1.093  0.6925  0.0200 -0.4454
 3876SOL    HW315271   5.726   3.222   1.008 -0.4392  0.4069  0.8364
 3876SOL    MW415272   5.789   3.193   1.061  0.3889  0.0868 -0.3042
 3877SOL     OW15273   4.968   2.616   1.717 -0.3163  0.5010  0.5574
 3877SOL    HW215274   4.995   2.708   1.716  0.6240  0.2350 -1.0695
 3877SOL    HW315275   4.951   2.597   1.810 -0.5331  2.2990  0.9170
 3877SOL    MW415276   4.969   2.626   1.729 -0.2208  0.7031  0.3902
 3878SOL     OW15277   3.573   3.436   4.856  0.0577 -0.1483 -0.2200
 3878SOL    HW215278   3.666   3.453   4.869  0.0351 -0.0256 -0.2228
 3878SOL    HW315279   3.542   3.403   4.940  0.6484 -2.5967 -0.8839
 3878SOL    MW415280   3.582   3.434   4.869  0.1326 -0.4551 -0.3079
 3879SOL     OW15281   0.587   0.228   6.127 -0.5151 -0.0212 -0.2813
 3879SOL    HW215282   0.581   0.138   6.158  0.2703 -0.0976 -0.3430
 3879SOL    HW315283   0.503   0.268   6.152 -0.5830 -0.5644  0.3727
 3879SOL    MW415284   0.575   0.222   6.134 -0.4205 -0.1029 -0.2032
 3880SOL     OW15285   5.242   5.863   5.527  0.1291 -0.2958 -0.1693
 3880SOL    HW215286   5.168   5.856   5.467 -0.6557 -0.0982  0.7543
 3880SOL    HW315287   5.205   5.895   5.609  1.3649  0.5683  0.0916
 3880SOL    MW415288   5.228   5.866   5.530  0.1886 -0.1557 -0.0130
 3881SOL     OW15289   3.733   2.639   4.435 -0.0174  0.0930 -0.5609
 3881SOL    HW215290   3.754   2.648   4.342 -0.0647 -0.6658 -0.6517
 3881SOL    HW315291   3.638   2.636   4.438 -0.0366  0.8675 -0.4135
 3881SOL    MW415292   3.724   2.639   4.423 -0.0262  0.0951 -0.5535
 3882SOL     OW15293   4.457   0.158   2.286  0.0139  0.5396 -0.2146
 3882SOL    HW215294   4.522   0.227   2.270 -0.6646  1.1263 -0.4945
 3882SOL    HW315295   4.375   0.205   2.300 -0.3873 -0.2016 -0.0278
 3882SOL    MW415296   4.455   0.173   2.286 -0.1285  0.5192 -0.2269
 3883SOL     OW15297   4.805   4.112   0.284 -0.1535  0.5730  0.2159
 3883SOL    HW215298   4.739   4.076   0.226  1.6740  0.2056 -1.7706
 3883SOL    HW315299   4.786   4.205   0.288 -0.1075  0.6833 -1.3680
 3883SOL    MW415300   4.794   4.119   0.277  0.0937  0.5391 -0.2552
 3884SOL     OW15301   2.979   3.172   6.162 -0.2414 -0.9730 -0.2857
 3884SOL    HW215302   2.898   3.121   6.164 -0.6541 -0.3947  2.9307
 3884SOL    HW315303   2.951   3.262   6.144 -0.2894 -0.8614  0.3135
 3884SOL    MW415304   2.965   3.177   6.160 -0.3022 -0.8820  0.2177
 3885SOL     OW15305   5.195   5.208   3.115  0.7089 -0.6528  0.1497
 3885SOL    HW215306   5.276   5.214   3.166  0.2766  1.8518  0.6652
 3885SOL    HW315307   5.140   5.148   3.165  0.3913  1.5306  2.6157
 3885SOL    MW415308   5.199   5.201   3.128  0.6100 -0.0343  0.5430
 3886SOL     OW15309   6.166   4.303   0.819  0.4744 -0.8485  0.3076
 3886SOL    HW215310   6.086   4.262   0.786  0.1059 -0.4582  0.6927
 3886SOL    HW315311   6.191   4.250   0.894 -1.7183  1.2379  2.7667
 3886SOL    MW415312   6.159   4.291   0.825  0.1365 -0.5217  0.6829
 3887SOL     OW15313   3.754   2.296   2.239 -0.2285 -0.0772 -1.2886
 3887SOL    HW215314   3.734   2.383   2.272 -0.9402 -0.7995  0.2648
 3887SOL    HW315315   3.807   2.255   2.308 -1.5887 -1.5603 -1.0559
 3887SOL    MW415316   3.758   2.302   2.252 -0.5018 -0.3682 -1.0530
 3888SOL     OW15317   4.923   5.813   5.684  0.3506  0.0779  0.7140
 3888SOL    HW215318   4.863   5.859   5.625 -0.8157 -0.3071  1.5661
 3888SOL    HW315319   4.926   5.723   5.650  2.2352  0.5895 -0.6497
 3888SOL    MW415320   4.916   5.807   5.672  0.4454  0.0946  0.6465
 3889SOL     OW15321   2.317   2.743   1.869  0.4134  0.4817  0.2362
 3889SOL    HW215322   2.388   2.681   1.854 -0.1956 -0.1943  0.0806
 3889SOL    HW315323   2.248   2.691   1.910 -0.0275  1.1043  0.3007
 3889SOL    MW415324   2.317   2.728   1.872  0.2749  0.4746  0.2242
 3890SOL     OW15325   4.543   3.793   0.319 -0.5394  0.1767 -0.2377
 3890SOL    HW215326   4.470   3.742   0.283  0.6026 -0.5081 -1.7160
 3890SOL    HW315327   4.530   3.881   0.283 -1.2549  0.3728  0.4625
 3890SOL    MW415328   4.532   3.798   0.309 -0.4831  0.1123 -0.3404
 3891SOL     OW15329   6.244   3.832   2.098 -0.3114  0.1464 -0.3513
 3891SOL    HW215330   6.231   3.904   2.037 -0.3753  0.1852 -0.2916
 3891SOL    HW315331   6.335   3.806   2.085 -0.5886 -0.4688 -1.1477
 3891SOL    MW415332   6.254   3.838   2.088 -0.3564  0.0703 -0.4485
 3892SOL     OW15333   3.035   0.672   4.556  0.0069  0.7391 -0.1780
 3892SOL    HW215334   2.943   0.658   4.576  0.0380  1.9647  0.9664
 3892SOL    HW315335   3.035   0.743   4.491  0.0772 -0.8159 -1.9593
 3892SOL    MW415336   3.023   0.680   4.550  0.0202  0.6956 -0.2620
 3893SOL     OW15337   1.155   6.211   1.252  0.3356  0.1067  0.5701
 3893SOL    HW215338   1.218   6.282   1.261  1.8956 -1.1982  0.3434
 3893SOL    HW315339   1.159   6.164   1.336  1.1316 -1.1221 -0.1242
 3893SOL    MW415340   1.164   6.214   1.264  0.6465 -0.2276  0.4486
 3894SOL     OW15341   3.085   0.615   2.739 -0.2738  0.2365  0.3195
 3894SOL    HW215342   3.037   0.657   2.667 -0.0502 -0.7434 -0.4263
 3894SOL    HW315343   3.020   0.563   2.785 -0.1742 -0.1743  0.0102
 3894SOL    MW415344   3.070   0.614   2.735 -0.2311  0.0530  0.1803
 3895SOL     OW15345   0.248   5.727   1.424 -0.2357 -0.2209  0.0293
 3895SOL    HW215346   0.212   5.764   1.344 -2.8116  0.1825  1.2829
 3895SOL    HW315347   0.341   5.752   1.422 -0.6174  1.2809 -1.9678
 3895SOL    MW415348   0.256   5.735   1.413 -0.6259  0.0304 -0.0688
 3896SOL     OW15349   3.546   4.394   1.618 -0.1154  0.0026 -0.1505
 3896SOL    HW215350   3.606   4.452   1.666  1.0310  1.0788 -2.6693
 3896SOL    HW315351   3.460   4.434   1.628  0.2532  0.7072  0.2703
 3896SOL    MW415352   3.543   4.407   1.625  0.0845  0.2375 -0.4273
 3897SOL     OW15353   4.438   3.459   1.376  1.1923 -0.3341  0.2214
 3897SOL    HW215354   4.384   3.535   1.397  1.0742 -0.3963  0.1446
 3897SOL    HW315355   4.375   3.390   1.356  1.2206 -1.1709  2.7184
 3897SOL    MW415356   4.422   3.460   1.376  1.1805 -0.4527  0.5407
 3898SOL     OW15357   0.028   4.258   6.073  0.8603  0.4516  0.5475
 3898SOL    HW215358  -0.056   4.305   6.081  0.8888  0.5239  0.4299
 3898SOL    HW315359   0.019   4.208   5.991  0.3962 -0.6323  1.2395
 3898SOL    MW415360   0.016   4.258   6.063  0.8028  0.3181  0.6233
 3899SOL     OW15361   4.004   1.168   4.795  0.1697  0.7237 -0.4427
 3899SOL    HW215362   4.016   1.077   4.821  1.0800  0.4319 -1.8017
 3899SOL    HW315363   3.930   1.198   4.848  1.4252 -0.0253  1.8787
 3899SOL    MW415364   3.996   1.160   4.806  0.4554  0.5864 -0.3157
 3900SOL     OW15365   1.749   4.065   0.996 -0.0120  0.6825  0.0037
 3900SOL    HW215366   1.673   4.105   0.953 -0.6879 -0.3036  0.2422
 3900SOL    HW315367   1.766   3.985   0.947 -1.0865 -0.7089  1.7500
 3900SOL    MW415368   1.741   4.060   0.984 -0.2430  0.3688  0.2656
 3901SOL     OW15369   2.458   0.475   1.824  0.1964 -0.3738 -0.1896
 3901SOL    HW215370   2.419   0.407   1.768  0.3180 -0.3344 -0.3227
 3901SOL    HW315371   2.490   0.541   1.763  1.5310 -0.9538 -0.1673
 3901SOL    MW415372   2.457   0.475   1.808  0.3885 -0.4451 -0.2042
 3902SOL     OW15373   6.220   2.839   2.696 -0.3710 -0.2000 -0.2052
 3902SOL    HW215374   6.195   2.795   2.777  1.8896 -0.7470  0.2723
 3902SOL    HW315375   6.273   2.774   2.649  0.7859  1.0853 -0.7479
 3902SOL    MW415376   6.224   2.825   2.700  0.0799 -0.1026 -0.2138
 3903SOL     OW15377   0.567   5.623   0.772  0.1862 -0.1130 -0.2204
 3903SOL    HW215378   0.608   5.670   0.844  1.4454 -1.2357 -0.1638
 3903SOL    HW315379   0.639   5.604   0.712  0.2329 -3.8283  0.7841
 3903SOL    MW415380   0.582   5.627   0.773  0.3585 -0.7513 -0.0804
 3904SOL     OW15381   0.058   6.206   2.905  0.1029 -0.4444 -0.0897
 3904SOL    HW215382   0.152   6.218   2.914  0.0660 -0.6690  0.7258
 3904SOL    HW315383   0.020   6.255   2.978 -0.6887  2.7670 -2.4222
 3904SOL    MW415384   0.065   6.214   2.916 -0.0064 -0.0503 -0.2898
 3905SOL     OW15385   3.002   2.188   1.671 -0.7957  0.2099  0.2039
 3905SOL    HW215386   2.963   2.186   1.583 -1.9564  0.5156  0.6956
 3905SOL    HW315387   2.930   2.163   1.729 -0.3988  1.3232  1.1909
 3905SOL    MW415388   2.987   2.184   1.667 -0.8965  0.3971  0.3990
 3906SOL     OW15389   5.704   4.456   6.034  0.0175 -0.0894 -0.3497
 3906SOL    HW215390   5.746   4.389   6.087 -2.1728 -1.8389 -0.6748
 3906SOL    HW315391   5.610   4.444   6.050 -0.5119  2.3540 -1.1177
 3906SOL    MW415392   5.697   4.446   6.043 -0.3413  0.0021 -0.4939
 3907SOL     OW15393   2.259   2.074   3.492  0.4487 -0.4121  0.6476
 3907SOL    HW215394   2.353   2.081   3.474  0.3584  0.0119  0.3275
 3907SOL    HW315395   2.255   2.044   3.583  0.8944 -0.4405  0.6643
 3907SOL    MW415396   2.271   2.071   3.502  0.4956 -0.3599  0.6076
 3908SOL     OW15397   0.302   3.853   5.946  0.1728  0.3408  0.3026
 3908SOL    HW215398   0.311   3.816   6.034 -1.4808 -1.3126 -0.1756
 3908SOL    HW315399   0.273   3.781   5.892 -1.4016  1.9210 -1.0816
 3908SOL    MW415400   0.299   3.839   5.951 -0.2531  0.3312  0.0569
 3909SOL     OW15401   5.187   4.367   0.833 -0.2727  0.2288  0.1308
 3909SOL    HW215402   5.262   4.353   0.891  0.6820 -0.5604 -1.2380
 3909SOL    HW315403   5.192   4.295   0.770 -2.8596 -0.4922  0.6583
 3909SOL    MW415404   5.198   4.356   0.833 -0.4881  0.0295  0.0198
 3910SOL     OW15405   2.475   0.118   3.919  0.2862 -0.0113 -0.3480
 3910SOL    HW215406   2.478   0.052   3.849  0.3521 -0.0170 -0.3397
 3910SOL    HW315407   2.473   0.068   4.000 -0.0858 -0.0084 -0.3544
 3910SOL    MW415408   2.475   0.103   3.920  0.2458 -0.0117 -0.3478
 3911SOL     OW15409   4.498   4.044   1.840 -0.2999  0.0201  0.2173
 3911SOL    HW215410   4.489   4.029   1.934 -2.1582 -3.4613 -0.3305
 3911SOL    HW315411   4.561   4.115   1.832 -1.1136  1.3787  4.0782
 3911SOL    MW415412   4.505   4.051   1.851 -0.6524 -0.2600  0.6544
 3912SOL     OW15413   5.070   2.090   5.930  0.2355  0.2395  0.1145
 3912SOL    HW215414   5.034   2.071   6.016 -0.4241 -0.1175 -0.2354
 3912SOL    HW315415   5.162   2.113   5.947  0.5070 -1.2381  0.7736
 3912SOL    MW415416   5.077   2.090   5.943  0.1843 -0.0026  0.1553
 3913SOL     OW15417   3.047   0.208   3.196  0.9960  0.0685 -0.0004
 3913SOL    HW215418   3.050   0.240   3.106  2.0721  1.1538  0.4053
 3913SOL    HW315419   3.028   0.285   3.249  2.0094 -0.2522  0.8512
 3913SOL    MW415420   3.045   0.222   3.191  1.2717  0.1694  0.1655
 3914SOL     OW15421   6.130   0.145   4.153 -0.0787 -0.1086  0.2619
 3914SOL    HW215422   6.140   0.223   4.099 -1.0632 -0.8748 -1.0847
 3914SOL    HW315423   6.037   0.141   4.172  0.1533 -0.2499  1.4462
 3914SOL    MW415424   6.119   0.155   4.148 -0.1780 -0.2283  0.2405
 3915SOL     OW15425   0.217   5.281   2.522 -0.3199 -0.5149  0.0061
 3915SOL    HW215426   0.190   5.316   2.607 -1.4987 -2.6475  0.5798
 3915SOL    HW315427   0.152   5.213   2.502 -0.1302 -0.0020 -2.6705
 3915SOL    MW415428   0.205   5.276   2.530 -0.4504 -0.7286 -0.2713
 3916SOL     OW15429   3.956   5.583   4.161 -0.7597  0.3878  0.1640
 3916SOL    HW215430   3.904   5.517   4.206 -0.8799  1.8925  2.4168
 3916SOL    HW315431   3.976   5.648   4.229  0.3455  2.0697 -1.6579
 3916SOL    MW415432   3.952   5.583   4.176 -0.6297  0.8082  0.2209
 3917SOL     OW15433   2.340   0.930   2.310  0.5599  0.2932 -0.7424
 3917SOL    HW215434   2.409   0.868   2.286 -0.3055 -0.3574 -1.6365
 3917SOL    HW315435   2.294   0.887   2.382  0.8731  0.5787 -0.3673
 3917SOL    MW415436   2.343   0.916   2.316  0.4871  0.2451 -0.8109
 3918SOL     OW15437   5.984   6.288   0.286 -0.6812 -0.2231  0.0624
 3918SOL    HW215438   5.992   6.376   0.250 -0.1874  0.2677  1.3293
 3918SOL    HW315439   6.024   6.232   0.219 -1.1068  0.4809 -0.8103
 3918SOL    MW415440   5.991   6.292   0.272 -0.6722 -0.0655  0.1144
 3919SOL     OW15441   3.520   4.466   0.740  0.2362  0.5934  0.2949
 3919SOL    HW215442   3.529   4.476   0.835 -0.0669 -0.3782  0.4380
 3919SOL    HW315443   3.484   4.550   0.710 -0.5055  0.6078  1.1641
 3919SOL    MW415444   3.516   4.478   0.749  0.0983  0.4671  0.4285
 3920SOL     OW15445   0.800   4.288   4.866  0.4895  0.4363 -0.3413
 3920SOL    HW215446   0.795   4.285   4.770  1.1419 -2.4490 -0.3700
 3920SOL    HW315447   0.709   4.291   4.895  0.1710 -1.2946 -1.0716
 3920SOL    MW415448   0.788   4.288   4.857  0.5336 -0.1728 -0.4415
 3921SOL     OW15449   1.698   2.460   2.605  0.2013  0.2919  0.5136
 3921SOL    HW215450   1.680   2.456   2.698  1.8366 -0.6480  0.8246
 3921SOL    HW315451   1.776   2.406   2.593 -0.5998 -0.5290 -1.5593
 3921SOL    MW415452   1.706   2.453   2.615  0.3113  0.0595  0.2811
 3922SOL     OW15453   1.059   0.390   0.505  0.0343 -0.1815 -0.6406
 3922SOL    HW215454   1.061   0.399   0.410  1.7902 -0.3877 -0.6394
 3922SOL    HW315455   1.148   0.410   0.534 -0.3698 -0.5010  0.9376
 3922SOL    MW415456   1.071   0.394   0.497  0.2127 -0.2509 -0.4322
 3923SOL     OW15457   0.977   5.562   2.655 -0.2909 -0.0528  0.2271
 3923SOL    HW215458   0.951   5.529   2.741 -1.8522  0.6812  0.0701
 3923SOL    HW315459   0.966   5.657   2.661 -0.1052  0.0346 -0.6672
 3923SOL    MW415460   0.972   5.570   2.667 -0.4724  0.0555  0.0884
 3924SOL     OW15461   3.798   5.822   4.455  0.0038 -0.7183  0.7887
 3924SOL    HW215462   3.777   5.744   4.507  0.5916 -0.2291  1.8077
 3924SOL    HW315463   3.735   5.821   4.383 -0.6877 -1.5544  1.3784
 3924SOL    MW415464   3.787   5.812   4.452 -0.0098 -0.7641  1.0009
 3925SOL     OW15465   4.467   4.447   5.275 -0.3026  0.2650 -0.3326
 3925SOL    HW215466   4.519   4.368   5.257  0.1207  0.6384 -0.7675
 3925SOL    HW315467   4.379   4.426   5.242 -0.7354 -0.7642  1.3513
 3925SOL    MW415468   4.462   4.433   5.269 -0.3039  0.1785 -0.1678
 3926SOL     OW15469   1.329   5.403   0.365  0.3196 -0.1538  0.5927
 3926SOL    HW215470   1.376   5.320   0.370 -1.1966 -1.2628 -2.0663
 3926SOL    HW315471   1.323   5.422   0.272 -3.1141  0.7003  0.8489
 3926SOL    MW415472   1.335   5.395   0.354 -0.3335 -0.1875  0.2757
 3927SOL     OW15473   0.486   0.176   0.608 -0.2363 -0.5428  0.3441
 3927SOL    HW215474   0.510   0.232   0.682  0.4583 -0.5005  0.0897
 3927SOL    HW315475   0.432   0.107   0.647  0.4625 -0.7604  0.9610
 3927SOL    MW415476   0.482   0.175   0.623 -0.0525 -0.5659  0.3920
 3928SOL     OW15477   2.463   5.515   1.180  0.2990  0.0534  0.2388
 3928SOL    HW215478   2.517   5.503   1.258 -2.1133 -0.5206  1.9481
 3928SOL    HW315479   2.499   5.454   1.116  1.4778 -0.5204  1.3963
 3928SOL    MW415480   2.475   5.505   1.182  0.1362 -0.0980  0.6170
 3929SOL     OW15481   5.633   3.189   5.683 -0.0000 -0.0003  0.0192
 3929SOL    HW215482   5.698   3.214   5.749  0.8230  0.5408 -0.9534
 3929SOL    HW315483   5.561   3.251   5.695 -0.9521 -1.4062  1.9486
 3929SOL    MW415484   5.632   3.201   5.693 -0.0170 -0.1144  0.1454
 3930SOL     OW15485   0.423   6.401   5.235  0.1225  0.0919 -0.1839
 3930SOL    HW215486   0.489   6.377   5.170  1.0173  2.4704 -0.2311
 3930SOL    HW315487   0.396   6.490   5.212 -2.1300 -0.2948  0.6631
 3930SOL    MW415488   0.428   6.409   5.223 -0.0566  0.3547 -0.0784
 3931SOL     OW15489   3.836   3.481   4.969 -0.2627 -0.2023 -0.0945
 3931SOL    HW215490   3.892   3.559   4.968 -0.7739  0.2288  1.5518
 3931SOL    HW315491   3.863   3.431   4.892  0.2107  1.4954 -1.0872
 3931SOL    MW415492   3.847   3.485   4.959 -0.2677  0.0786 -0.0083
 3932SOL     OW15493   4.261   5.445   1.375 -0.0740  0.2450 -0.5085
 3932SOL    HW215494   4.311   5.481   1.448  1.6186 -2.1499 -0.3766
 3932SOL    HW315495   4.318   5.458   1.299 -0.8550  0.7066 -1.0300
 3932SOL    MW415496   4.275   5.451   1.374  0.0463 -0.0101 -0.5599
 3933SOL     OW15497   3.673   3.549   0.462 -0.7333 -0.4766  0.7119
 3933SOL    HW215498   3.767   3.533   0.466 -0.1540  2.5326  1.2873
 3933SOL    HW315499   3.636   3.465   0.434  1.9052 -2.3032  2.2413
 3933SOL    MW415500   3.680   3.535   0.459 -0.3087 -0.3205  0.9896
 3934SOL     OW15501   1.922   4.198   6.294 -0.0383  0.3892  0.4315
 3934SOL    HW215502   2.017   4.197   6.282 -0.0584 -2.5685 -0.1744
 3934SOL    HW315503   1.888   4.223   6.208  0.1747 -1.2498 -0.1505
 3934SOL    MW415504   1.930   4.201   6.281 -0.0128 -0.2173  0.2747
 3935SOL     OW15505   3.074   6.356   3.170 -0.5893  0.0644 -0.0576
 3935SOL    HW215506   3.079   6.450   3.190  0.5484  0.4293 -1.7838
 3935SOL    HW315507   3.144   6.317   3.221 -1.1204  0.1252  0.7347
 3935SOL    MW415508   3.084   6.364   3.179 -0.5092  0.1205 -0.1808
 3936SOL     OW15509   3.744   1.685   0.553 -0.8810 -0.4605  0.0528
 3936SOL    HW215510   3.782   1.601   0.577  2.2739  1.1617  1.4307
 3936SOL    HW315511   3.795   1.749   0.604 -2.1784  2.3751 -1.9564
 3936SOL    MW415512   3.756   1.682   0.563 -0.6359  0.1276 -0.0305
 3937SOL     OW15513   1.090   3.858   1.052 -0.9208  0.0233 -0.1903
 3937SOL    HW215514   1.053   3.770   1.040  2.9379 -1.7452 -0.5199
 3937SOL    HW315515   1.131   3.855   1.139 -0.1207  1.2342 -0.5043
 3937SOL    MW415516   1.090   3.846   1.062 -0.3061 -0.0503 -0.2752
 3938SOL     OW15517   1.664   2.730   2.706 -0.1072 -0.4876  0.0770
 3938SOL    HW215518   1.700   2.731   2.795 -0.8963  0.6054  0.3885
 3938SOL    HW315519   1.687   2.642   2.673  1.6371 -0.3360  0.7430
 3938SOL    MW415520   1.672   2.718   2.713  0.0188 -0.3234  0.2059
 3939SOL     OW15521   0.996   1.431   1.791 -0.4443 -0.4628 -0.4140
 3939SOL    HW215522   1.086   1.439   1.822 -0.0716  0.3088 -1.6053
 3939SOL    HW315523   1.002   1.372   1.715 -0.5402  1.3064 -1.8731
 3939SOL    MW415524   1.009   1.424   1.785 -0.4078 -0.1276 -0.7637
 3940SOL     OW15525   2.319   2.083   0.063  0.2382 -1.1562  0.2338
 3940SOL    HW215526   2.401   2.035   0.079  0.4383 -0.7405  0.4789
 3940SOL    HW315527   2.336   2.133  -0.017  0.5790 -0.3183  0.8109
 3940SOL    MW415528   2.332   2.083   0.055  0.3096 -0.9908  0.3423
 3941SOL     OW15529   0.425   1.446   1.432 -0.0742  0.2347 -0.5834
 3941SOL    HW215530   0.389   1.483   1.351  1.7357 -0.7884 -1.9269
 3941SOL    HW315531   0.360   1.383   1.461 -1.0364  1.0651 -0.8799
 3941SOL    MW415532   0.412   1.443   1.425  0.0377  0.2093 -0.7998
 3942SOL     OW15533   0.278   1.766   2.694 -0.0893 -0.4134 -0.5444
 3942SOL    HW215534   0.185   1.778   2.672  0.3227  0.0231 -2.2506
 3942SOL    HW315535   0.323   1.832   2.641  1.0894  0.5598  1.5692
 3942SOL    MW415536   0.272   1.777   2.684  0.1205 -0.2274 -0.4907
 3943SOL     OW15537   0.072   5.964   1.772  0.5581  0.4760  0.6052
 3943SOL    HW215538   0.097   5.880   1.736 -0.6293 -1.1665  3.2960
 3943SOL    HW315539   0.154   6.011   1.783  1.5242 -1.2803  1.1992
 3943SOL    MW415540   0.086   5.959   1.769  0.5289  0.0276  1.0386
 3944SOL     OW15541   1.248   5.202   4.472  0.7743 -0.7656  0.7592
 3944SOL    HW215542   1.187   5.145   4.424  1.2005 -0.7513  0.1945
 3944SOL    HW315543   1.209   5.289   4.467  2.9021  0.2055 -3.4565
 3944SOL    MW415544   1.235   5.206   4.465  1.1112 -0.6356  0.1285
 3945SOL     OW15545   1.976   3.382   2.804  0.3105  0.1875  0.2270
 3945SOL    HW215546   1.974   3.315   2.872  1.1132 -0.2862 -0.2153
 3945SOL    HW315547   2.008   3.461   2.849 -0.3202  0.2029  0.6668
 3945SOL    MW415548   1.980   3.384   2.819  0.3332  0.1270  0.2267
 3946SOL     OW15549   3.517   4.308   2.748 -0.4339  0.1297  0.7834
 3946SOL    HW215550   3.446   4.372   2.741 -1.9713 -1.5935 -0.2031
 3946SOL    HW315551   3.555   4.304   2.660  0.3098  0.3942  1.0857
 3946SOL    MW415552   3.513   4.316   2.735 -0.5386 -0.0627  0.6931
 3947SOL     OW15553   3.574   1.095   0.577 -0.0918 -0.5991 -0.2608
 3947SOL    HW215554   3.479   1.089   0.566 -0.0879  0.2575 -0.8075
 3947SOL    HW315555   3.591   1.189   0.587  0.7418 -0.7126 -0.5703
 3947SOL    MW415556   3.564   1.107   0.577  0.0187 -0.5011 -0.3738
 3948SOL     OW15557   0.268   2.699   6.023 -0.3726  0.4033  0.0104
 3948SOL    HW215558   0.264   2.786   6.061  0.2312  0.1469  0.6918
 3948SOL    HW315559   0.189   2.691   5.971 -0.6178  1.2168  0.2545
 3948SOL    MW415560   0.257   2.709   6.021 -0.3253  0.4768  0.1325
 3949SOL     OW15561   1.586   1.159   2.917 -0.0912  0.3502 -0.1053
 3949SOL    HW215562   1.673   1.137   2.884  0.3145  0.7326  0.6798
 3949SOL    HW315563   1.602   1.229   2.980 -1.1589  1.5978 -1.1814
 3949SOL    MW415564   1.600   1.165   2.921 -0.1785  0.5653 -0.1437
 3950SOL     OW15565   3.094   2.456   6.275  0.3287 -0.0325  0.0709
 3950SOL    HW215566   3.149   2.379   6.292 -0.1048 -0.3488  0.0762
 3950SOL    HW315567   3.017   2.420   6.232 -0.1391  0.3271  0.5986
 3950SOL    MW415568   3.091   2.441   6.271  0.2098 -0.0268  0.1412
 3951SOL     OW15569   5.242   0.080   4.356 -0.1294 -0.6045 -0.4782
 3951SOL    HW215570   5.330   0.046   4.336  0.5500  0.9008 -0.2081
 3951SOL    HW315571   5.246   0.173   4.332 -1.6083 -0.4734 -0.3035
 3951SOL    MW415572   5.254   0.088   4.350 -0.2349 -0.3886 -0.4195
 3952SOL     OW15573   2.186   0.216   5.031  0.0472 -0.1022 -0.5059
 3952SOL    HW215574   2.278   0.188   5.033 -0.1471 -1.0742  3.3488
 3952SOL    HW315575   2.191   0.312   5.039  0.7978 -0.2363  1.0684
 3952SOL    MW415576   2.199   0.225   5.033  0.1206 -0.2481  0.2104
 3953SOL     OW15577   5.473   0.352   1.080 -0.2560  0.5277  0.1039
 3953SOL    HW215578   5.486   0.367   0.987 -0.2955 -1.1411 -0.2141
 3953SOL    HW315579   5.543   0.401   1.123  1.9191 -1.3587 -1.0437
 3953SOL    MW415580   5.484   0.360   1.074  0.0258  0.0586 -0.0894
 3954SOL     OW15581   0.697   0.269   5.445 -0.0008  0.5447 -0.2244
 3954SOL    HW215582   0.750   0.295   5.370  2.8357 -0.2358  1.3325
 3954SOL    HW315583   0.735   0.318   5.519 -0.3247 -1.2956  1.2478
 3954SOL    MW415584   0.709   0.279   5.445  0.3307  0.1989  0.1752
 3955SOL     OW15585   5.203   1.354   4.846 -0.3374 -0.0995 -0.3886
 3955SOL    HW215586   5.276   1.360   4.908  0.3428  0.1627 -1.1873
 3955SOL    HW315587   5.125   1.355   4.901  0.2236  0.7557  0.4307
 3955SOL    MW415588   5.202   1.355   4.862 -0.1736  0.0480 -0.3859
 3956SOL     OW15589   3.816   0.100   5.982  0.1359  0.3285  0.0409
 3956SOL    HW215590   3.837   0.028   5.922 -0.4679  0.1096  0.0828
 3956SOL    HW315591   3.744   0.066   6.036 -0.8096  1.2821 -0.5682
 3956SOL    MW415592   3.809   0.086   5.981 -0.0685  0.4254 -0.0340
 3957SOL     OW15593   5.550   0.589   4.816  0.0206 -0.0409  0.0841
 3957SOL    HW215594   5.572   0.675   4.853 -1.2467 -0.5628  2.2462
 3957SOL    HW315595   5.519   0.539   4.891  1.0041 -2.5223 -1.0586
 3957SOL    MW415596   5.549   0.594   4.831 -0.0168 -0.4372  0.2186
 3958SOL     OW15597   4.794   5.268   0.291 -0.6544  0.6183  0.0232
 3958SOL    HW215598   4.706   5.267   0.329 -0.6406  1.4446  0.1000
 3958SOL    HW315599   4.782   5.233   0.202 -1.2404  1.6232 -0.3121
 3958SOL    MW415600   4.781   5.263   0.284 -0.7299  0.8599 -0.0109
 3959SOL     OW15601   3.966   2.884   3.136  0.0734 -0.2466 -0.6489
 3959SOL    HW215602   4.003   2.932   3.209  0.2287  0.1314 -0.9724
 3959SOL    HW315603   3.934   2.951   3.076 -1.6001 -0.5609 -0.1583
 3959SOL    MW415604   3.967   2.899   3.138 -0.1269 -0.2382 -0.6268
 3960SOL     OW15605   1.757   1.138   0.174  0.3035  0.7048  0.2159
 3960SOL    HW215606   1.823   1.151   0.241  0.4645  0.3475  0.1307
 3960SOL    HW315607   1.770   1.047   0.145 -0.5038  0.4893  0.5067
 3960SOL    MW415608   1.767   1.128   0.179  0.2182  0.6293  0.2431
 3961SOL     OW15609   1.429   5.137   3.232  0.6067  0.6379 -0.0204
 3961SOL    HW215610   1.507   5.082   3.225  0.0304 -0.3754  1.1441
 3961SOL    HW315611   1.363   5.080   3.271 -0.5769  1.6255 -0.5168
 3961SOL    MW415612   1.431   5.123   3.236  0.3745  0.6345  0.0677
 3962SOL     OW15613   4.817   4.290   0.621  0.1267 -0.2540  0.8888
 3962SOL    HW215614   4.761   4.319   0.693 -0.1812  0.1483  0.4908
 3962SOL    HW315615   4.820   4.364   0.561 -0.1585 -0.8104  0.1686
 3962SOL    MW415616   4.810   4.303   0.622  0.0484 -0.2744  0.7413
 3963SOL     OW15617   1.427   1.898   3.636  0.1751 -0.2783 -0.0313
 3963SOL    HW215618   1.499   1.925   3.693  0.0645  0.3467 -0.1787
 3963SOL    HW315619   1.376   1.837   3.689 -0.1951  0.6549  0.7298
 3963SOL    MW415620   1.430   1.894   3.651  0.1117 -0.0727  0.0497
 3964SOL     OW15621   5.831   3.799   4.908 -0.3656 -0.0206  0.2613
 3964SOL    HW215622   5.750   3.749   4.899  0.1899 -0.5531 -2.8479
 3964SOL    HW315623   5.896   3.734   4.934 -0.2833 -0.3229 -0.6524
 3964SOL    MW415624   5.829   3.784   4.910 -0.2815 -0.1308 -0.2695
 3965SOL     OW15625   3.014   2.846   2.810  0.0877  0.1589  0.0006
 3965SOL    HW215626   2.927   2.806   2.813 -0.5907  1.4618 -1.1036
 3965SOL    HW315627   3.048   2.835   2.898 -1.0917 -0.5983  0.3945
 3965SOL    MW415628   3.007   2.839   2.822 -0.1574  0.2309 -0.0931
 3966SOL     OW15629   3.526   4.368   4.631 -0.1004  0.5462 -0.2463
 3966SOL    HW215630   3.589   4.304   4.597 -0.2131 -0.1172  0.7200
 3966SOL    HW315631   3.447   4.316   4.650 -0.9169  1.3523 -1.3581
 3966SOL    MW415632   3.524   4.352   4.629 -0.2230  0.5650 -0.2655
 3967SOL     OW15633   5.193   5.526   6.426  0.3577  0.5401  0.1137
 3967SOL    HW215634   5.259   5.461   6.400  1.0564  0.7855  1.1754
 3967SOL    HW315635   5.178   5.508   6.519 -1.3601  0.2714 -0.1995
 3967SOL    MW415636   5.200   5.515   6.435  0.2232  0.5370  0.2124
 3968SOL     OW15637   1.495   0.470   2.797 -0.0498  0.0380 -0.0900
 3968SOL    HW215638   1.408   0.475   2.837  0.2020  2.5933  0.3258
 3968SOL    HW315639   1.493   0.537   2.728  2.1736  1.6221  1.2555
 3968SOL    MW415640   1.483   0.480   2.793  0.2768  0.5841  0.1424
 3969SOL     OW15641   5.544   4.643   5.792  0.2492  0.1527  0.1697
 3969SOL    HW215642   5.551   4.719   5.734 -3.6124  0.6122  0.0788
 3969SOL    HW315643   5.528   4.680   5.878 -0.5997 -0.5524  0.3242
 3969SOL    MW415644   5.543   4.658   5.795 -0.3723  0.1203  0.1781
 3970SOL     OW15645   1.888   5.933   3.214 -0.2988 -0.0814  0.1874
 3970SOL    HW215646   1.921   5.872   3.148 -1.9922 -0.1113 -0.6886
 3970SOL    HW315647   1.813   5.888   3.254  0.0913  0.3444  1.4522
 3970SOL    MW415648   1.882   5.919   3.210 -0.4708 -0.0292  0.2387
 3971SOL     OW15649   5.132   3.646   0.595  0.2723 -0.0030 -0.2079
 3971SOL    HW215650   5.069   3.621   0.663  0.5652 -1.4900 -0.4528
 3971SOL    HW315651   5.205   3.685   0.644 -0.3202  0.6953  0.1607
 3971SOL    MW415652   5.133   3.648   0.611  0.2328 -0.1070 -0.1916
 3972SOL     OW15653   1.965   3.439   5.013  0.0548 -0.1253 -0.1271
 3972SOL    HW215654   1.947   3.427   5.107  0.8061  0.8560  0.1521
 3972SOL    HW315655   1.985   3.350   4.982  0.9972 -0.3071  0.9072
 3972SOL    MW415656   1.965   3.425   5.021  0.2783 -0.0198  0.0462
 3973SOL     OW15657   5.503   6.051   4.479  0.0206  0.2971 -0.4149
 3973SOL    HW215658   5.421   6.051   4.527  0.1963 -0.5278 -0.1082
 3973SOL    HW315659   5.507   5.965   4.438  0.6366  0.4055 -0.5912
 3973SOL    MW415660   5.493   6.040   4.480  0.1250  0.2026 -0.3977
 3974SOL     OW15661   5.457   5.556   2.804  0.5707 -0.9369  0.0763
 3974SOL    HW215662   5.478   5.464   2.792  0.1826 -0.7975 -1.9454
 3974SOL    HW315663   5.374   5.568   2.759  0.2994  0.2856  0.8489
 3974SOL    MW415664   5.449   5.546   2.797  0.4837 -0.7572 -0.0885
 3975SOL     OW15665   5.959   0.003   1.812  0.5120 -0.3992 -0.4962
 3975SOL    HW215666   5.879  -0.043   1.837  0.8212 -0.8391 -0.3025
 3975SOL    HW315667   6.028  -0.036   1.866  0.7249  0.5561 -0.0532
 3975SOL    MW415668   5.958  -0.008   1.822  0.5809 -0.3312 -0.4122
 3976SOL     OW15669   5.206   4.199   6.411  0.4966 -0.5679  0.0725
 3976SOL    HW215670   5.179   4.134   6.346 -1.2639  1.0278 -0.9062
 3976SOL    HW315671   5.186   4.159   6.495 -1.2783 -1.0588 -0.5319
 3976SOL    MW415672   5.199   4.185   6.413  0.0302 -0.4222 -0.1364
 3977SOL     OW15673   1.510   4.487   0.239  0.4715 -0.8017 -0.2485
 3977SOL    HW215674   1.536   4.554   0.176 -0.8042 -0.8508 -0.8612
 3977SOL    HW315675   1.435   4.443   0.198 -1.5510  0.2909  1.9976
 3977SOL    MW415676   1.503   4.490   0.225  0.0363 -0.6640 -0.0330
 3978SOL     OW15677   1.926   4.837   0.553  0.1654  0.6855 -0.1868
 3978SOL    HW215678   1.998   4.897   0.533  0.4963 -0.4064 -2.6662
 3978SOL    HW315679   1.892   4.867   0.637  3.3436  1.4108  0.9813
 3978SOL    MW415680   1.931   4.849   0.561  0.6284  0.6371 -0.3598
 3979SOL     OW15681   0.800   2.530   4.143 -1.0070  0.1682 -0.3046
 3979SOL    HW215682   0.765   2.564   4.061 -0.3806  2.5567  0.3199
 3979SOL    HW315683   0.734   2.552   4.209  0.2279  2.0543  0.4110
 3979SOL    MW415684   0.787   2.538   4.141 -0.7615  0.7322 -0.1278
 3980SOL     OW15685   3.699   1.329   4.232 -0.2891  0.1315 -0.1308
 3980SOL    HW215686   3.650   1.395   4.185  1.2915  0.7539 -0.9888
 3980SOL    HW315687   3.643   1.306   4.307 -0.6363  2.9073  0.5753
 3980SOL    MW415688   3.685   1.335   4.236 -0.1264  0.5798 -0.1508
 3981SOL     OW15689   3.183   4.175   1.454 -0.3730 -0.4988  0.2475
 3981SOL    HW215690   3.275   4.147   1.458  0.0404  0.1756 -2.5176
 3981SOL    HW315691   3.141   4.112   1.396 -1.0660  0.5473 -0.4219
 3981SOL    MW415692   3.190   4.163   1.447 -0.4099 -0.2718 -0.2056
 3982SOL     OW15693   2.830   2.648   0.261 -0.2328 -0.1030  0.1475
 3982SOL    HW215694   2.873   2.636   0.176 -2.5631  1.8032 -1.4403
 3982SOL    HW315695   2.871   2.725   0.298 -0.7242  0.4058 -0.3420
 3982SOL    MW415696   2.841   2.656   0.255 -0.6051  0.2156 -0.1266
 3983SOL     OW15697   0.011   5.306   1.150 -0.1465 -0.3470  0.1515
 3983SOL    HW215698   0.023   5.249   1.074 -1.1597  1.5298 -1.5148
 3983SOL    HW315699   0.099   5.337   1.170  0.0436 -0.2766 -0.7461
 3983SOL    MW415700   0.024   5.302   1.143 -0.2551 -0.0901 -0.1868
 3984SOL     OW15701   5.002   3.030   0.484 -0.0545 -0.0479 -0.5273
 3984SOL    HW215702   4.975   2.939   0.472  0.9326 -0.7479  1.9359
 3984SOL    HW315703   5.090   3.024   0.522  0.1708  1.9542 -0.6386
 3984SOL    MW415704   5.010   3.017   0.487  0.1055  0.1239 -0.2170
 3985SOL     OW15705   6.276   0.315   2.252 -0.4603 -0.4687  0.0696
 3985SOL    HW215706   6.217   0.345   2.321  0.8796  0.0036  1.0391
 3985SOL    HW315707   6.364   0.338   2.283  0.4024 -2.7078 -0.5210
 3985SOL    MW415708   6.280   0.322   2.265 -0.1697 -0.7018  0.1196
 3986SOL     OW15709   2.644   5.409   2.416 -0.1933 -0.4638 -0.7356
 3986SOL    HW215710   2.723   5.414   2.469 -0.2952  0.2350 -0.6338
 3986SOL    HW315711   2.674   5.376   2.331  0.0513 -1.0878 -0.4102
 3986SOL    MW415712   2.659   5.406   2.412 -0.1745 -0.4539 -0.6793
 3987SOL     OW15713   6.238   0.001   1.165 -0.1971  0.2434 -0.2556
 3987SOL    HW215714   6.152  -0.004   1.208  0.9432 -1.6184  2.0486
 3987SOL    HW315715   6.289   0.058   1.222  0.5583  0.0519 -0.7332
 3987SOL    MW415716   6.233   0.008   1.178  0.0530 -0.0275 -0.0146
 3988SOL     OW15717   3.992   0.560   0.125 -0.7088  0.5130  0.4184
 3988SOL    HW215718   3.959   0.495   0.063 -0.3148  1.6667 -1.0635
 3988SOL    HW315719   4.059   0.513   0.176 -0.3399 -0.2140 -0.7022
 3988SOL    MW415720   3.997   0.545   0.124 -0.6081  0.5693  0.0750
 3989SOL     OW15721   2.253   3.298   3.917 -0.1269  0.0118 -0.6276
 3989SOL    HW215722   2.196   3.230   3.880 -1.4234  0.1835  0.9375
 3989SOL    HW315723   2.276   3.265   4.004 -0.7777  1.5389  0.1575
 3989SOL    MW415724   2.248   3.284   3.924 -0.3838  0.2359 -0.3176
 3990SOL     OW15725   0.337   1.587   1.809  0.4055  0.5255 -0.2149
 3990SOL    HW215726   0.413   1.529   1.808 -0.1597 -0.2509  0.3441
 3990SOL    HW315727   0.271   1.540   1.757  0.3928  1.3212 -0.9359
 3990SOL    MW415728   0.338   1.573   1.802  0.3293  0.5281 -0.2362
 3991SOL     OW15729   6.374   3.011   0.370  0.0001 -0.2967 -0.2727
 3991SOL    HW215730   6.450   3.055   0.332  0.3245 -1.1409 -0.6138
 3991SOL    HW315731   6.394   2.918   0.363 -0.5145 -0.5036  0.7742
 3991SOL    MW415732   6.387   3.005   0.364 -0.0250 -0.4354 -0.1796
 3992SOL     OW15733   5.037   1.660   3.858  0.6812  0.2821  0.2241
 3992SOL    HW215734   4.999   1.746   3.838 -0.8050 -0.5939 -0.9463
 3992SOL    HW315735   5.091   1.639   3.781  1.6439  0.4659  0.8315
 3992SOL    MW415736   5.039   1.669   3.845  0.6121  0.1908  0.1498
 3993SOL     OW15737   2.172   0.748   4.080  0.2934 -0.2724 -0.5204
 3993SOL    HW215738   2.129   0.804   4.015 -0.3571 -1.2634 -0.9673
 3993SOL    HW315739   2.101   0.714   4.133  0.5886 -1.3078 -0.7654
 3993SOL    MW415740   2.157   0.751   4.078  0.2465 -0.5398 -0.6117
 3994SOL     OW15741   5.626   1.597   3.511 -0.0177 -0.2268 -0.5656
 3994SOL    HW215742   5.674   1.515   3.518  3.4377  1.6318  0.1974
 3994SOL    HW315743   5.694   1.665   3.513 -2.7295  2.7577  0.6517
 3994SOL    MW415744   5.641   1.595   3.512  0.0804  0.4122 -0.3043
 3995SOL     OW15745   2.845   4.475   5.910 -0.3108  0.1890 -0.7574
 3995SOL    HW215746   2.846   4.434   5.996 -0.0302  0.9424 -0.3925
 3995SOL    HW315747   2.936   4.473   5.881 -0.1972  1.0049 -0.5022
 3995SOL    MW415748   2.857   4.469   5.917 -0.2588  0.3960 -0.6755
 3996SOL     OW15749   1.554   5.158   4.195 -0.3805  0.4028  0.1127
 3996SOL    HW215750   1.585   5.076   4.157  0.7890  0.5041  0.7798
 3996SOL    HW315751   1.477   5.182   4.144 -0.3391 -0.7685 -0.5111
 3996SOL    MW415752   1.548   5.151   4.183 -0.2208  0.2616  0.1184
 3997SOL     OW15753   3.727   3.318   0.960 -0.2006  0.3130 -0.4889
 3997SOL    HW215754   3.749   3.317   1.054  1.0978  0.2795 -0.7678
 3997SOL    HW315755   3.812   3.319   0.916 -0.7848 -0.6853 -1.6961
 3997SOL    MW415756   3.741   3.318   0.967 -0.1064  0.1769 -0.6850
 3998SOL     OW15757   4.225   0.507   5.790  0.3146 -0.4850 -0.5877
 3998SOL    HW215758   4.169   0.521   5.713 -0.1490 -1.3916 -0.4295
 3998SOL    HW315759   4.164   0.502   5.863  0.7429  0.1705 -0.1737
 3998SOL    MW415760   4.210   0.508   5.789  0.3099 -0.5181 -0.5122
 3999SOL     OW15761   1.113   3.553   6.193 -0.0164  0.0044 -0.2701
 3999SOL    HW215762   1.107   3.463   6.224  1.3618  0.1776  0.6121
 3999SOL    HW315763   1.160   3.547   6.110 -2.0174 -0.2752 -1.4514
 3999SOL    MW415764   1.119   3.540   6.186 -0.0986 -0.0096 -0.3096
 4000SOL     OW15765   5.547   1.619   1.523 -0.0094 -0.0462  0.1497
 4000SOL    HW215766   5.537   1.708   1.558  0.9523  1.6608 -3.4729
 4000SOL    HW315767   5.641   1.602   1.528 -0.2464 -1.1849  1.3616
 4000SOL    MW415768   5.558   1.629   1.528  0.0863  0.0288 -0.1684
 4001SOL     OW15769   5.074   2.852   2.365  0.4736  0.3913 -0.2880
 4001SOL    HW215770   5.121   2.798   2.302  0.1944 -1.3246  0.8922
 4001SOL    HW315771   5.143   2.888   2.422  0.5086 -1.3248  0.8371
 4001SOL    MW415772   5.090   2.850   2.364  0.4414 -0.0615  0.0162
 4002SOL     OW15773   1.549   0.007   2.914 -0.2325  0.6078  0.3891
 4002SOL    HW215774   1.492   0.042   2.845  0.6637 -0.5741 -1.0229
 4002SOL    HW315775   1.493  -0.051   2.965 -0.7048  0.8222  0.1213
 4002SOL    MW415776   1.534   0.004   2.911 -0.1766  0.4801  0.1675
 4003SOL     OW15777   5.912   2.952   0.249 -0.0551  0.0416  0.2975
 4003SOL    HW215778   5.962   2.968   0.329  0.1797 -0.2940  0.2211
 4003SOL    HW315779   5.970   2.898   0.195  1.1821  2.9161 -1.5127
 4003SOL    MW415780   5.926   2.947   0.252  0.1391  0.3766  0.0486
 4004SOL     OW15781   4.239   0.886   2.319 -0.1089 -0.4574 -0.5248
 4004SOL    HW215782   4.268   0.853   2.403 -0.5678 -0.2280 -0.2699
 4004SOL    HW315783   4.189   0.814   2.280 -1.6432  0.1079  0.3026
 4004SOL    MW415784   4.236   0.873   2.325 -0.3719 -0.3525 -0.3820
 4005SOL     OW15785   0.564   1.704   2.555  0.2690 -0.0193  0.1213
 4005SOL    HW215786   0.635   1.664   2.505 -0.0897 -0.7275  0.1668
 4005SOL    HW315787   0.485   1.685   2.505  0.2658  2.2739 -0.8503
 4005SOL    MW415788   0.563   1.696   2.542  0.2213  0.1898 -0.0009
 4006SOL     OW15789   0.919   6.250   2.359 -0.6661  0.3554 -0.0295
 4006SOL    HW215790   0.887   6.165   2.328 -0.7226  0.7947 -1.2318
 4006SOL    HW315791   0.915   6.243   2.454 -1.6379 -0.6198 -0.1098
 4006SOL    MW415792   0.914   6.238   2.367 -0.8018  0.2847 -0.1987
 4007SOL     OW15793   4.185   2.737   1.012 -0.0042  0.0810 -0.8870
 4007SOL    HW215794   4.232   2.780   0.940  0.8193  0.8717  0.0864
 4007SOL    HW315795   4.192   2.799   1.085 -1.5720 -0.3100 -0.3669
 4007SOL    MW415796   4.192   2.751   1.012 -0.1024  0.1337 -0.6899
 4008SOL     OW15797   2.983   5.928   2.712 -0.6628 -0.3663 -0.4878
 4008SOL    HW215798   2.985   5.985   2.789  0.1973  0.1454 -0.8797
 4008SOL    HW315799   2.890   5.921   2.690 -0.8005  0.7826 -0.3535
 4008SOL    MW415800   2.971   5.934   2.719 -0.5675 -0.1472 -0.5218
 4009SOL     OW15801   5.642   1.332   2.718 -0.2451  0.2896  0.0192
 4009SOL    HW215802   5.637   1.237   2.707 -1.2746  0.5571 -2.2303
 4009SOL    HW315803   5.563   1.366   2.676  0.3182  2.1886  0.3980
 4009SOL    MW415804   5.631   1.324   2.711 -0.3066  0.5754 -0.2276
 4010SOL     OW15805   0.953   5.014   5.176  0.4146 -0.2383 -0.1734
 4010SOL    HW215806   1.011   5.076   5.132  0.2374 -1.0383 -1.5960
 4010SOL    HW315807   1.000   4.930   5.173 -1.2801 -1.2231 -2.5710
 4010SOL    MW415808   0.967   5.011   5.170  0.1676 -0.4737 -0.6774
 4011SOL     OW15809   0.395   1.831   1.705  0.3258 -0.1969  0.0948
 4011SOL    HW215810   0.378   1.886   1.782 -1.3634  0.5793 -0.7672
 4011SOL    HW315811   0.377   1.742   1.734 -1.2697  0.1854  0.3828
 4011SOL    MW415812   0.391   1.827   1.719 -0.1075 -0.0440  0.0191
 4012SOL     OW15813   3.858   3.376   3.120  0.0215 -0.2014 -0.3069
 4012SOL    HW215814   3.782   3.413   3.075  0.4430 -1.3897 -2.1088
 4012SOL    HW315815   3.933   3.416   3.075  0.4921  0.2699  0.8556
 4012SOL    MW415816   3.858   3.386   3.108  0.1392 -0.2960 -0.3913
 4013SOL     OW15817   0.450   3.974   3.373 -0.2161 -0.2165 -0.2823
 4013SOL    HW215818   0.474   3.998   3.463  2.3432 -0.7825 -0.7425
 4013SOL    HW315819   0.518   3.913   3.345 -0.5521  0.4530 -2.8468
 4013SOL    MW415820   0.462   3.969   3.381  0.0772 -0.2029 -0.6814
 4014SOL     OW15821   0.967   2.232   3.819 -0.2803  0.1947  0.4058
 4014SOL    HW215822   1.014   2.314   3.808 -1.5147  0.7721 -1.0111
 4014SOL    HW315823   0.949   2.226   3.912  1.1386  0.7537  0.7376
 4014SOL    MW415824   0.971   2.242   3.830 -0.2559  0.3446  0.2627
 4015SOL     OW15825   2.181   6.094   3.080 -0.6835 -0.3323 -0.1718
 4015SOL    HW215826   2.225   6.051   3.153  2.5362  0.8070 -1.2827
 4015SOL    HW315827   2.099   6.127   3.118  0.0428 -1.2944  2.4479
 4015SOL    MW415828   2.176   6.093   3.095 -0.1629 -0.3089  0.0273
 4016SOL     OW15829   5.664   5.509   0.955 -0.3533 -0.2098 -0.0969
 4016SOL    HW215830   5.683   5.581   1.015  1.4564  0.7963 -1.7430
 4016SOL    HW315831   5.728   5.442   0.978  0.6543  0.3605 -1.1140
 4016SOL    MW415832   5.675   5.510   0.966  0.0184 -0.0018 -0.4482
 4017SOL     OW15833   0.314   2.091   3.635  0.1206  0.2461  0.1154
 4017SOL    HW215834   0.401   2.065   3.667  0.8578  1.8112 -0.5014
 4017SOL    HW315835   0.261   2.098   3.714  0.2242 -1.7198  0.4265
 4017SOL    MW415836   0.319   2.088   3.650  0.2316  0.1932  0.0751
 4018SOL     OW15837   3.443   5.551   5.789 -0.3652  0.2000 -0.6663
 4018SOL    HW215838   3.444   5.564   5.694  1.0524  0.1334 -0.6929
 4018SOL    HW315839   3.477   5.634   5.824 -3.5888  1.3686  0.0113
 4018SOL    MW415840   3.448   5.564   5.781 -0.6035  0.3454 -0.5804
 4019SOL     OW15841   1.677   3.040   0.368  0.1222  0.1629 -0.7650
 4019SOL    HW215842   1.769   3.061   0.356  0.8246 -1.8842  0.5204
 4019SOL    HW315843   1.653   3.084   0.450 -0.5125  1.8870 -1.8153
 4019SOL    MW415844   1.686   3.049   0.377  0.1311  0.1203 -0.7340
 4020SOL     OW15845   5.083   1.726   5.014 -0.0121 -0.1220 -0.1613
 4020SOL    HW215846   5.118   1.753   4.930  2.1318  1.2401  1.0598
 4020SOL    HW315847   5.057   1.635   5.002  3.6595 -1.1708 -1.3703
 4020SOL    MW415848   5.084   1.718   5.002  0.7552 -0.0807 -0.1597
 4021SOL     OW15849   3.354   0.894   0.072 -0.0664 -0.2261 -0.1096
 4021SOL    HW215850   3.433   0.936   0.037 -0.4826 -0.6855 -1.6598
 4021SOL    HW315851   3.282   0.951   0.045 -0.3134  0.0747  1.1123
 4021SOL    MW415852   3.355   0.907   0.064 -0.1539 -0.2470 -0.1529
 4022SOL     OW15853   2.443   0.578   5.262  0.3937  0.0106 -0.2738
 4022SOL    HW215854   2.361   0.566   5.310 -0.0042  1.2594 -0.6006
 4022SOL    HW315855   2.506   0.520   5.306 -0.3021  0.1160  0.8855
 4022SOL    MW415856   2.441   0.568   5.274  0.2494  0.1893 -0.1639
 4023SOL     OW15857   0.742   6.192   0.085  0.4659 -0.0379  0.8057
 4023SOL    HW215858   0.715   6.150   0.166  0.5535  0.4885  1.1121
 4023SOL    HW315859   0.661   6.219   0.043  0.2339 -2.4065 -0.4698
 4023SOL    MW415860   0.728   6.190   0.090  0.4469 -0.2810  0.6778
 4024SOL     OW15861   4.261   0.429   6.426 -0.0909 -0.8064 -0.4924
 4024SOL    HW215862   4.289   0.345   6.390  1.4936 -0.3185 -0.4748
 4024SOL    HW315863   4.251   0.412   6.520 -1.9853 -1.5074 -0.7860
 4024SOL    MW415864   4.264   0.415   6.434 -0.1318 -0.8345 -0.5288
 4025SOL     OW15865   1.207   1.115   5.252 -0.0448  0.3334 -0.0602
 4025SOL    HW215866   1.283   1.077   5.296  0.0998 -0.0985 -0.6770
 4025SOL    HW315867   1.134   1.061   5.281  0.0697 -0.0320 -0.4459
 4025SOL    MW415868   1.207   1.103   5.262 -0.0106  0.2282 -0.1925
 4026SOL     OW15869   3.953   5.858   2.685  0.3457  0.1204  0.0952
 4026SOL    HW215870   3.894   5.827   2.753 -0.3883 -0.0591 -0.6060
 4026SOL    HW315871   3.922   5.815   2.605  2.5299 -1.3837 -0.0050
 4026SOL    MW415872   3.941   5.848   2.683  0.5371 -0.1017 -0.0105
 4027SOL     OW15873   2.497   6.252   6.342  0.0369 -0.0802 -0.0754
 4027SOL    HW215874   2.563   6.185   6.327  2.0065  1.5122  1.0602
 4027SOL    HW315875   2.446   6.219   6.416 -3.3378 -3.2479 -3.3324
 4027SOL    MW415876   2.499   6.238   6.350 -0.1485 -0.2880 -0.3553
 4028SOL     OW15877   3.538   4.349   4.041 -0.2602  0.4764 -0.3531
 4028SOL    HW215878   3.613   4.406   4.056 -0.0695  0.1466 -0.0438
 4028SOL    HW315879   3.462   4.405   4.058 -0.0679  0.4585  0.6396
 4028SOL    MW415880   3.537   4.364   4.045 -0.2097  0.4305 -0.1813
 4029SOL     OW15881   1.265   2.443   3.079 -0.5134 -0.6585  0.1676
 4029SOL    HW215882   1.218   2.526   3.064  0.5080 -0.1683 -0.3756
 4029SOL    HW315883   1.265   2.433   3.174 -1.3170 -0.4426  0.2046
 4029SOL    MW415884   1.259   2.453   3.090 -0.4847 -0.5653  0.1008
 4030SOL     OW15885   2.942   2.938   0.287 -0.1198  0.0690 -0.5965
 4030SOL    HW215886   2.993   3.008   0.246 -0.8863 -0.0286 -1.7725
 4030SOL    HW315887   2.879   2.984   0.343 -0.0689  0.2790 -0.7113
 4030SOL    MW415888   2.940   2.953   0.289 -0.2142  0.0838 -0.7668
 4031SOL     OW15889   3.530   2.262   1.417  0.0935  0.4424 -0.1527
 4031SOL    HW215890   3.574   2.199   1.359 -0.2696  1.5566 -1.6779
 4031SOL    HW315891   3.479   2.207   1.477  0.9137 -0.7563 -0.5062
 4031SOL    MW415892   3.529   2.246   1.418  0.1538  0.4312 -0.4006
 4032SOL     OW15893   1.457   4.073   0.787  0.4312 -0.5022  1.2331
 4032SOL    HW215894   1.423   4.005   0.844 -1.6023  0.0686  0.7909
 4032SOL    HW315895   1.444   4.154   0.836  2.6977 -0.3752  1.7014
 4032SOL    MW415896   1.451   4.075   0.801  0.4619 -0.4101  1.2365
 4033SOL     OW15897   1.709   4.546   3.732  0.1753  0.2327  0.1184
 4033SOL    HW215898   1.802   4.571   3.730  0.0101  0.8490 -0.7220
 4033SOL    HW315899   1.707   4.463   3.779  1.0037  0.8134  1.2343
 4033SOL    MW415900   1.721   4.538   3.738  0.2628  0.3906  0.1547
 4034SOL     OW15901   3.410   2.601   2.892 -0.2587 -0.2779  0.1484
 4034SOL    HW215902   3.467   2.636   2.960  0.1396 -1.1765  0.2892
 4034SOL    HW315903   3.445   2.514   2.874  0.1804  0.2515 -1.8304
 4034SOL    MW415904   3.422   2.594   2.899 -0.1482 -0.3266 -0.0941
 4035SOL     OW15905   2.925   3.938   1.839 -0.0550 -0.7677 -0.2697
 4035SOL    HW215906   2.860   3.939   1.768 -1.3176  2.4003  0.7485
 4035SOL    HW315907   2.996   3.995   1.807 -0.3969  0.2638  0.7441
 4035SOL    MW415908   2.926   3.946   1.825 -0.2667 -0.2136 -0.0016
 4036SOL     OW15909   5.496   5.800   4.389 -0.1606  0.0857  0.4409
 4036SOL    HW215910   5.405   5.789   4.416 -0.1159  0.7092  0.8840
 4036SOL    HW315911   5.497   5.779   4.296 -0.5977 -0.7378  0.6200
 4036SOL    MW415912   5.484   5.796   4.381 -0.2124  0.0593  0.5230
 4037SOL     OW15913   5.396   1.294   5.379  0.0011  0.7203  0.1570
 4037SOL    HW215914   5.390   1.198   5.371  0.6137  0.3266  3.1119
 4037SOL    HW315915   5.488   1.313   5.361  0.0166  0.6661  0.1771
 4037SOL    MW415916   5.408   1.284   5.376  0.0839  0.6612  0.5495
 4038SOL     OW15917   5.854   0.620   4.729  0.2959 -0.3881 -0.1255
 4038SOL    HW215918   5.770   0.613   4.774 -0.2197 -1.2002 -1.1838
 4038SOL    HW315919   5.915   0.571   4.784 -0.3361 -1.4173 -0.3311
 4038SOL    MW415920   5.851   0.613   4.742  0.1445 -0.6311 -0.2923
 4039SOL     OW15921   4.761   2.537   2.354 -0.2092 -0.4108  0.1352
 4039SOL    HW215922   4.745   2.565   2.444  1.2607 -0.4915  0.4520
 4039SOL    HW315923   4.737   2.612   2.300 -0.6039 -0.1742  0.6373
 4039SOL    MW415924   4.756   2.551   2.358 -0.0673 -0.3902  0.2432
 4040SOL     OW15925   2.553   6.403   5.840 -0.1592 -0.2514  0.2035
 4040SOL    HW215926   2.606   6.420   5.762 -1.3552 -3.7717 -1.6183
 4040SOL    HW315927   2.600   6.334   5.887 -1.0405 -0.4909  0.7796
 4040SOL    MW415928   2.566   6.396   5.836 -0.4333 -0.7474  0.0391
 4041SOL     OW15929   0.078   3.920   3.129  0.3275  0.2874  0.1444
 4041SOL    HW215930   0.040   3.901   3.215 -0.2154  0.7978  0.0288
 4041SOL    HW315931   0.096   3.834   3.091  0.0852  0.0494  0.5556
 4041SOL    MW415932   0.076   3.906   3.136  0.2239  0.3234  0.1834
 4042SOL     OW15933   3.207   1.534   3.586  0.1144 -0.1487 -0.5047
 4042SOL    HW215934   3.230   1.574   3.503  3.4593 -0.2568  0.2241
 4042SOL    HW315935   3.212   1.440   3.570  0.2293 -0.1757 -0.3186
 4042SOL    MW415936   3.210   1.527   3.573  0.5708 -0.1665 -0.3840
 4043SOL     OW15937   6.174   4.163   3.627 -0.3837  0.3240 -0.1457
 4043SOL    HW215938   6.173   4.080   3.676  1.5805  0.9835  1.1379
 4043SOL    HW315939   6.150   4.229   3.692  1.6645  1.1486 -0.1533
 4043SOL    MW415940   6.171   4.161   3.642  0.1457  0.5198  0.0226
 4044SOL     OW15941   0.824   5.594   1.276 -0.1145  0.7067 -0.0949
 4044SOL    HW215942   0.858   5.674   1.235  0.0923  0.9254  0.4889
 4044SOL    HW315943   0.846   5.604   1.369  1.9018 -1.0345 -0.3086
 4044SOL    MW415944   0.832   5.606   1.283  0.1788  0.5058 -0.0461
 4045SOL     OW15945   5.135   5.320   1.314  0.3891  0.2830  0.2457
 4045SOL    HW215946   5.077   5.396   1.314  1.6263  1.2553  0.2145
 4045SOL    HW315947   5.151   5.302   1.222  0.5280  0.3260  0.2612
 4045SOL    MW415948   5.129   5.327   1.302  0.5707  0.4170  0.2436
 4046SOL     OW15949   5.979   4.008   1.451  0.2562 -0.4984 -0.0084
 4046SOL    HW215950   6.009   4.057   1.527  1.3496 -1.8346  0.4602
 4046SOL    HW315951   6.026   3.925   1.455 -0.2045 -0.8974 -1.7530
 4046SOL    MW415952   5.989   4.003   1.461  0.3396 -0.7273 -0.1768
 4047SOL     OW15953   4.900   5.204   5.419  0.0840  0.2298  0.4828
 4047SOL    HW215954   4.963   5.228   5.351 -1.6230  1.4482 -0.7510
 4047SOL    HW315955   4.929   5.253   5.496  1.6640 -0.6571  0.5063
 4047SOL    MW415956   4.912   5.214   5.420  0.0673  0.2735  0.3231
 4048SOL     OW15957   1.310   4.817   3.794  0.4602 -0.1407 -0.1997
 4048SOL    HW215958   1.232   4.834   3.847  0.1477  1.1572 -1.0336
 4048SOL    HW315959   1.276   4.776   3.714  0.8536 -1.4234  0.2748
 4048SOL    MW415960   1.295   4.814   3.790  0.4709 -0.1387 -0.2471
 4049SOL     OW15961   1.405   3.227   5.330  0.5128 -0.1973 -0.1382
 4049SOL    HW215962   1.394   3.267   5.417  0.7260 -2.4825  1.0241
 4049SOL    HW315963   1.320   3.238   5.288 -0.0853 -0.3569  0.9718
 4049SOL    MW415964   1.392   3.234   5.336  0.4620 -0.5199  0.1616
 4050SOL     OW15965   6.174   5.691   1.230  0.5626  0.3914 -0.1117
 4050SOL    HW215966   6.082   5.691   1.203  0.7859 -1.7686 -1.0518
 4050SOL    HW315967   6.204   5.780   1.212 -1.4689  1.3415  0.7991
 4050SOL    MW415968   6.166   5.702   1.224  0.3240  0.2318 -0.1155
 4051SOL     OW15969   4.819   2.065   3.037 -0.6793  0.0500  0.6655
 4051SOL    HW215970   4.853   2.145   2.998 -0.1537 -0.0983  0.8073
 4051SOL    HW315971   4.726   2.083   3.053 -0.6050  0.5616  0.5305
 4051SOL    MW415972   4.811   2.078   3.034 -0.6002  0.0979  0.6664
 4052SOL     OW15973   0.633   0.253   3.752 -0.0435  0.6024  0.5362
 4052SOL    HW215974   0.727   0.251   3.739 -0.1893 -1.6516 -0.5860
 4052SOL    HW315975   0.597   0.203   3.679 -2.2417  2.5952  0.1323
 4052SOL    MW415976   0.640   0.246   3.741 -0.3527  0.5680  0.3348
 4053SOL     OW15977   5.087   2.157   0.098  0.5093  0.7569  0.8109
 4053SOL    HW215978   5.103   2.174   0.005 -0.2012  1.9435  0.8917
 4053SOL    HW315979   5.055   2.066   0.100 -0.4169  1.0350 -0.2241
 4053SOL    MW415980   5.085   2.147   0.086  0.2934  0.9502  0.6850
 4054SOL     OW15981   6.263   0.136   0.360  0.5295  0.2082 -0.5715
 4054SOL    HW215982   6.306   0.221   0.355  0.3805  0.3584  0.3638
 4054SOL    HW315983   6.332   0.072   0.346  0.7083  0.4777 -0.9202
 4054SOL    MW415984   6.277   0.139   0.358  0.5334  0.2635 -0.4941
 4055SOL     OW15985   2.594   3.005   2.394  0.2900 -0.5673  0.3902
 4055SOL    HW215986   2.526   3.010   2.327  1.5103  1.3177 -0.8188
 4055SOL    HW315987   2.578   3.080   2.451  1.0661 -0.3621  0.3553
 4055SOL    MW415988   2.583   3.015   2.393  0.5534 -0.2915  0.2261
 4056SOL     OW15989   3.525   2.136   4.192 -0.2907 -0.0780  0.2985
 4056SOL    HW215990   3.551   2.227   4.179 -0.5630  0.0327  0.5127
 4056SOL    HW315991   3.590   2.100   4.253  1.3383 -0.7640 -1.7397
 4056SOL    MW415992   3.537   2.143   4.198 -0.1117 -0.1539  0.0578
 4057SOL     OW15993   6.394   3.457   0.420  0.2776  0.1129  0.0392
 4057SOL    HW215994   6.469   3.515   0.405  0.6009 -0.8299 -2.4989
 4057SOL    HW315995   6.377   3.418   0.335 -2.6931 -0.2467  0.7088
 4057SOL    MW415996   6.402   3.459   0.407 -0.0717 -0.0589 -0.2073
 4058SOL     OW15997   1.025   1.033   2.922  0.1605  0.2429 -0.2547
 4058SOL    HW215998   1.119   1.035   2.902 -0.1017  0.5959 -1.5381
 4058SOL    HW315999   1.006   1.121   2.954  0.2739  0.1324  0.1352
 4058SOL    MW416000   1.035   1.045   2.924  0.1408  0.2749 -0.3726
 4059SOL     OW16001   1.167   2.421   5.202 -0.1230  0.1400 -0.1567
 4059SOL    HW216002   1.111   2.369   5.259  0.6841 -1.7957 -1.0410
 4059SOL    HW316003   1.223   2.357   5.158  1.7034  1.8521 -0.4814
 4059SOL    MW416004   1.167   2.406   5.204  0.2245  0.1105 -0.3162
 4060SOL     OW16005   5.111   3.127   4.948 -0.0908 -0.3243 -0.0151
 4060SOL    HW216006   5.032   3.131   4.894  1.1875  0.3162 -1.9531
 4060SOL    HW316007   5.147   3.040   4.932 -0.7022 -0.8581  1.3754
 4060SOL    MW416008   5.105   3.116   4.939 -0.0028 -0.3102 -0.0873
 4061SOL     OW16009   0.055   2.604   1.014 -0.2931  0.5102  0.0746
 4061SOL    HW216010   0.111   2.666   1.060 -0.9839  1.1630  0.0541
 4061SOL    HW316011   0.107   2.575   0.939  1.2745 -1.3797  1.7770
 4061SOL    MW416012   0.069   2.608   1.010 -0.1774  0.3470  0.2965
 4062SOL     OW16013   0.200   4.815   6.152  0.1236  0.1444 -1.1063
 4062SOL    HW216014   0.118   4.859   6.173  0.6485  1.4270 -1.6571
 4062SOL    HW316015   0.173   4.729   6.120 -0.9174 -0.0151  0.1133
 4062SOL    MW416016   0.186   4.809   6.151  0.0555  0.2925 -1.0181
 4063SOL     OW16017   4.715   4.043   0.011  0.5981  0.1965 -0.0544
 4063SOL    HW216018   4.792   3.986   0.012  0.5298  0.1110  0.3661
 4063SOL    HW316019   4.662   4.011  -0.062 -0.3711 -1.5084  1.3175
 4063SOL    MW416020   4.718   4.032   0.002  0.4612 -0.0398  0.1821
 4064SOL     OW16021   2.908   3.444   4.774  0.5817  0.5656 -0.0886
 4064SOL    HW216022   2.909   3.494   4.856  0.5475  0.8621 -0.2707
 4064SOL    HW316023   2.854   3.496   4.715  1.2837  0.7570 -0.5621
 4064SOL    MW416024   2.901   3.457   4.777  0.6698  0.6300 -0.1751
 4065SOL     OW16025   5.677   0.795   4.934 -0.5170  0.7322 -0.0697
 4065SOL    HW216026   5.623   0.816   5.010 -1.9953 -1.9802 -0.2368
 4065SOL    HW316027   5.764   0.779   4.970 -0.2253  3.1521  0.4717
 4065SOL    MW416028   5.681   0.796   4.949 -0.6736  0.6936 -0.0203
 4066SOL     OW16029   4.526   4.939   2.453 -0.4946  0.1709  0.7412
 4066SOL    HW216030   4.602   4.889   2.483 -0.4781 -1.6885 -2.0315
 4066SOL    HW316031   4.556   4.982   2.373 -2.3659 -0.7297 -0.4904
 4066SOL    MW416032   4.540   4.938   2.447 -0.7393 -0.1933  0.2129
 4067SOL     OW16033   3.346   2.369   4.481  0.5096 -0.4892  0.3137
 4067SOL    HW216034   3.323   2.449   4.435 -0.2497 -0.3877  0.8398
 4067SOL    HW316035   3.438   2.353   4.459  0.3215 -0.1496 -0.7700
 4067SOL    MW416036   3.355   2.377   4.472  0.3846 -0.4310  0.2401
 4068SOL     OW16037   1.101   1.553   4.229  0.0633  0.0700  0.4991
 4068SOL    HW216038   1.132   1.604   4.304 -0.8862  4.0157 -1.5049
 4068SOL    HW316039   1.163   1.574   4.159 -1.0126 -0.6588 -0.7161
 4068SOL    MW416040   1.113   1.563   4.229 -0.2039  0.4944  0.0744
 4069SOL     OW16041   3.378   5.849   4.630 -0.2921 -0.0690 -0.1498
 4069SOL    HW216042   3.469   5.878   4.640 -0.6115  1.0899 -0.4748
 4069SOL    HW316043   3.337   5.917   4.577 -1.6716  0.0686  1.0466
 4069SOL    MW416044   3.385   5.862   4.624 -0.5163  0.1021 -0.0348
 4070SOL     OW16045   0.326   1.068   4.597  0.2855  0.4425  0.1624
 4070SOL    HW216046   0.360   1.079   4.686  2.1129 -0.8493 -0.2959
 4070SOL    HW316047   0.385   1.003   4.557 -0.9654  0.3856 -1.7365
 4070SOL    MW416048   0.338   1.061   4.603  0.3615  0.2645 -0.1486
 4071SOL     OW16049   0.857   5.926   2.270  0.6953  0.0068 -0.0592
 4071SOL    HW216050   0.945   5.924   2.306  0.6056  0.0795  0.1693
 4071SOL    HW316051   0.827   5.835   2.274  0.8853 -0.0721 -0.4538
 4071SOL    MW416052   0.864   5.914   2.275  0.7085  0.0060 -0.0811
 4072SOL     OW16053   5.507   1.138   5.950  0.4996  0.4986  0.3070
 4072SOL    HW216054   5.512   1.198   5.875 -0.3078  1.7461  1.2050
 4072SOL    HW316055   5.461   1.188   6.018 -1.5069 -1.6108  0.6492
 4072SOL    MW416056   5.501   1.153   5.949  0.1283  0.3849  0.4706
 4073SOL     OW16057   5.500   5.888   5.128 -0.3239 -0.0746 -0.4535
 4073SOL    HW216058   5.490   5.946   5.204  0.0330 -0.7489  0.1204
 4073SOL    HW316059   5.561   5.935   5.071  2.5100 -1.1672  1.4029
 4073SOL    MW416060   5.507   5.902   5.131  0.0971 -0.3077 -0.1328
 4074SOL     OW16061   2.870   4.821   2.658  0.3258 -0.2707 -0.0875
 4074SOL    HW216062   2.826   4.790   2.737 -0.3897 -0.1321 -0.4164
 4074SOL    HW316063   2.812   4.890   2.625  1.2348  0.5185 -0.0631
 4074SOL    MW416064   2.857   4.826   2.664  0.3514 -0.1483 -0.1277
 4075SOL     OW16065   2.129   1.373   5.181 -0.3891  0.0698 -0.2115
 4075SOL    HW216066   2.156   1.347   5.269 -0.0418  0.9419 -0.0446
 4075SOL    HW316067   2.036   1.391   5.189 -0.1220  1.3837  0.3159
 4075SOL    MW416068   2.121   1.372   5.194 -0.3080  0.3583 -0.1199
 4076SOL     OW16069   6.376   5.434   0.160  0.3559 -0.5626  0.2909
 4076SOL    HW216070   6.426   5.371   0.211  0.0865  0.0848  1.4006
 4076SOL    HW316071   6.440   5.473   0.100  1.4530  0.9082  2.3075
 4076SOL    MW416072   6.391   5.431   0.159  0.4651 -0.2831  0.7034
 4077SOL     OW16073   5.365   1.997   1.887  0.0287 -0.3456 -0.4210
 4077SOL    HW216074   5.323   1.987   1.802  0.2819 -0.4381 -0.5343
 4077SOL    HW316075   5.358   2.091   1.905  1.2470 -0.0740 -1.2081
 4077SOL    MW416076   5.359   2.008   1.878  0.2228 -0.3220 -0.5398
 4078SOL     OW16077   2.317   3.504   6.157 -0.3085  0.3181  0.2895
 4078SOL    HW216078   2.373   3.533   6.086 -1.2318  1.5523  0.0428
 4078SOL    HW316079   2.241   3.562   6.154 -1.8681 -1.6263  0.2856
 4078SOL    MW416080   2.314   3.515   6.147 -0.6361  0.2244  0.2565
 4079SOL     OW16081   6.023   0.045   3.322 -0.4794  0.4546  0.5704
 4079SOL    HW216082   6.112   0.074   3.344 -0.3644  0.7515 -0.2550
 4079SOL    HW316083   5.979   0.124   3.291 -0.3907 -0.0857 -1.0117
 4079SOL    MW416084   6.029   0.059   3.321 -0.4526  0.4225  0.2528
 4080SOL     OW16085   4.554   5.638   2.828 -0.1430 -0.0469 -0.8148
 4080SOL    HW216086   4.592   5.553   2.805 -2.2370 -1.4260  0.5312
 4080SOL    HW316087   4.564   5.644   2.923 -0.1473  1.1742 -0.8698
 4080SOL    MW416088   4.561   5.628   2.837 -0.4199 -0.0678 -0.6444
 4081SOL     OW16089   4.425   3.191   6.078 -0.0359 -0.3100 -0.0807
 4081SOL    HW216090   4.495   3.242   6.037  0.2218 -0.6983 -0.1313
 4081SOL    HW316091   4.347   3.211   6.026  0.1836 -0.4094 -0.4515
 4081SOL    MW416092   4.424   3.200   6.066  0.0271 -0.3744 -0.1363
 4082SOL     OW16093   5.056   2.458   1.315 -0.8530  0.7425 -0.0116
 4082SOL    HW216094   4.977   2.494   1.274 -1.2091 -1.4285 -1.4008
 4082SOL    HW316095   5.090   2.395   1.251  0.5678 -0.2532  1.6285
 4082SOL    MW416096   5.050   2.454   1.301 -0.7125  0.3247  0.0215
 4083SOL     OW16097   0.619   1.588   1.578 -0.3524  0.1588 -0.1796
 4083SOL    HW216098   0.634   1.678   1.549  1.0360 -0.0001 -0.0467
 4083SOL    HW316099   0.541   1.560   1.531  0.5550  0.6558 -2.0746
 4083SOL    MW416100   0.611   1.597   1.568 -0.0495  0.2034 -0.4121
 4084SOL     OW16101   4.143   6.110   5.744 -0.1720 -0.4122  0.4362
 4084SOL    HW216102   4.140   6.206   5.738 -2.4891 -0.3244  1.9079
 4084SOL    HW316103   4.211   6.092   5.809  1.9009  0.0386 -1.4547
 4084SOL    MW416104   4.152   6.120   5.752 -0.2042 -0.3411  0.3809
 4085SOL     OW16105   3.136   0.465   2.528  0.2772  0.6374 -0.2531
 4085SOL    HW216106   3.164   0.534   2.467  0.7164  1.8123  1.2257
 4085SOL    HW316107   3.152   0.502   2.615 -0.2650 -1.0263  0.5894
 4085SOL    MW416108   3.142   0.479   2.531  0.2636  0.5729  0.0532
 4086SOL     OW16109   5.135   0.298   2.920  0.2747  0.1419  0.1041
 4086SOL    HW216110   5.117   0.221   2.866  2.7582 -1.5333  1.4465
 4086SOL    HW316111   5.194   0.352   2.866  0.0855  0.1308 -0.1122
 4086SOL    MW416112   5.141   0.295   2.905  0.5774 -0.0806  0.2527
 4087SOL     OW16113   0.912   1.982   4.769  0.4457  0.4060 -0.4223
 4087SOL    HW216114   0.840   1.924   4.744  0.3801 -0.2257  1.1564
 4087SOL    HW316115   0.894   2.006   4.859  2.4707 -0.1835  0.2025
 4087SOL    MW416116   0.900   1.978   4.778  0.7042  0.2449 -0.1316
 4088SOL     OW16117   0.407   3.662   6.151  0.1885  0.0977 -0.5478
 4088SOL    HW216118   0.432   3.606   6.078 -0.9640 -0.8318 -0.2533
 4088SOL    HW316119   0.394   3.602   6.224  0.4662  0.9274  0.2030
 4088SOL    MW416120   0.409   3.647   6.151  0.0731  0.0845 -0.4099
 4089SOL     OW16121   6.205   3.942   2.361  0.8031  0.0981 -0.5379
 4089SOL    HW216122   6.231   3.908   2.276  1.8795  0.8498 -0.5239
 4089SOL    HW316123   6.254   3.890   2.424  1.1082  0.4974 -0.4422
 4089SOL    MW416124   6.215   3.931   2.359  0.9854  0.2499 -0.5234
 4090SOL     OW16125   1.125   1.396   0.677 -0.7379 -0.0259  0.1086
 4090SOL    HW216126   1.195   1.426   0.735 -0.6502 -2.2641  1.2817
 4090SOL    HW316127   1.074   1.475   0.659  1.1610  1.3794  0.4894
 4090SOL    MW416128   1.127   1.410   0.683 -0.4758 -0.1358  0.3136
 4091SOL     OW16129   6.050   4.377   2.080 -0.4178 -0.7387 -0.0564
 4091SOL    HW216130   5.997   4.362   2.001 -3.6652 -0.7526  1.9208
 4091SOL    HW316131   6.062   4.472   2.082  0.7889 -0.8468 -1.1693
 4091SOL    MW416132   6.044   4.388   2.070 -0.6871 -0.7548  0.0576
 4092SOL     OW16133   1.534   4.637   2.710  0.1769  0.1052  0.5133
 4092SOL    HW216134   1.458   4.689   2.735  0.3502  0.7035 -0.1599
 4092SOL    HW316135   1.605   4.701   2.698  0.4919 -0.3168  0.0392
 4092SOL    MW416136   1.534   4.652   2.711  0.2413  0.1285  0.3619
 4093SOL     OW16137   0.694   1.543   2.132  0.4489 -0.2913 -0.0353
 4093SOL    HW216138   0.766   1.531   2.071 -0.8551 -0.8474 -1.5588
 4093SOL    HW316139   0.650   1.623   2.102 -1.0759 -1.3624 -0.8250
 4093SOL    MW416140   0.697   1.552   2.120  0.0757 -0.5060 -0.3405
 4094SOL     OW16141   2.131   1.208   0.197 -0.0142 -0.0147 -0.3821
 4094SOL    HW216142   2.127   1.295   0.156 -0.5579  1.2901  2.2222
 4094SOL    HW316143   2.066   1.212   0.267 -2.0161 -3.5124 -1.8099
 4094SOL    MW416144   2.122   1.220   0.201 -0.3501 -0.3041 -0.2269
 4095SOL     OW16145   3.928   0.366   4.946  0.0988  0.0998  0.1966
 4095SOL    HW216146   3.961   0.277   4.936  0.1732  0.2470 -1.0747
 4095SOL    HW316147   3.999   0.422   4.914  0.4334  0.6898  1.8865
 4095SOL    MW416148   3.942   0.361   4.940  0.1527  0.1970  0.2518
 4096SOL     OW16149   4.548   5.356   4.231  0.4376  0.0652  0.1980
 4096SOL    HW216150   4.503   5.399   4.304  0.2645  0.6277 -0.2409
 4096SOL    HW316151   4.563   5.425   4.167 -0.7932 -0.7070 -0.9827
 4096SOL    MW416152   4.544   5.370   4.232  0.2524  0.0375 -0.0157
 4097SOL     OW16153   3.600   6.063   1.059  0.2602 -0.1622  0.1925
 4097SOL    HW216154   3.653   5.988   1.032  1.3417 -0.2385  2.3500
 4097SOL    HW316155   3.513   6.028   1.073  0.5226 -0.8107  0.2365
 4097SOL    MW416156   3.596   6.049   1.057  0.4375 -0.2579  0.4829
 4098SOL     OW16157   3.262   3.203   4.878  0.9127 -0.9533 -0.6358
 4098SOL    HW216158   3.229   3.146   4.947  1.5569 -0.0000  0.4978
 4098SOL    HW316159   3.204   3.280   4.880  0.2031 -1.4279 -1.9781
 4098SOL    MW416160   3.250   3.206   4.887  0.9040 -0.8902 -0.6633
 4099SOL     OW16161   1.686   2.072   3.556 -0.6225  0.0277 -0.3549
 4099SOL    HW216162   1.739   1.993   3.551 -0.0167  0.4789 -1.1870
 4099SOL    HW316163   1.641   2.077   3.472  0.0138  1.0234 -0.6493
 4099SOL    MW416164   1.687   2.062   3.544 -0.4586  0.2186 -0.5035
 4100SOL     OW16165   3.409   0.932   3.364  0.2908 -0.7090 -0.0842
 4100SOL    HW216166   3.331   0.971   3.324  0.5176  0.0400  0.1793
 4100SOL    HW316167   3.472   0.926   3.292  0.6034  0.3820  0.0789
 4100SOL    MW416168   3.407   0.937   3.349  0.3620 -0.4662 -0.0279
 4101SOL     OW16169   4.346   5.543   4.882 -0.2340  0.5086  0.1559
 4101SOL    HW216170   4.400   5.596   4.941  1.8733 -0.2642 -0.9691
 4101SOL    HW316171   4.377   5.454   4.896 -0.5207  0.1714 -1.2528
 4101SOL    MW416172   4.357   5.539   4.892  0.0062  0.3621 -0.1784
 4102SOL     OW16173   5.451   1.732   2.495  0.3612  0.7562 -0.9585
 4102SOL    HW216174   5.507   1.692   2.429  1.1986 -0.1845  0.2932
 4102SOL    HW316175   5.439   1.664   2.562 -0.6002  1.6223 -0.2171
 4102SOL    MW416176   5.457   1.718   2.495  0.3449  0.7463 -0.6955
 4103SOL     OW16177   3.550   5.435   3.989 -0.0253  0.3784 -0.0486
 4103SOL    HW216178   3.623   5.414   4.048  0.3640  1.0885 -0.2628
 4103SOL    HW316179   3.565   5.380   3.912 -0.5164 -0.5288  0.4780
 4103SOL    MW416180   3.562   5.425   3.987 -0.0387  0.3524 -0.0074
 4104SOL     OW16181   1.810   1.414   5.143 -0.5176  0.0897  0.1262
 4104SOL    HW216182   1.767   1.500   5.144 -1.3433 -0.3116 -0.2996
 4104SOL    HW316183   1.767   1.365   5.213  0.5718  0.3065  0.9683
 4104SOL    MW416184   1.799   1.419   5.152 -0.4828  0.0654  0.1811
 4105SOL     OW16185   5.941   6.376   3.741 -0.5594 -0.0458 -0.5019
 4105SOL    HW216186   6.004   6.379   3.813  0.0261 -0.5316 -0.9810
 4105SOL    HW316187   5.964   6.296   3.693 -1.0272  0.2022 -1.1518
 4105SOL    MW416188   5.952   6.366   3.744 -0.5439 -0.0772 -0.6508
 4106SOL     OW16189   1.036   4.385   1.462  0.0001  0.0603 -0.0929
 4106SOL    HW216190   1.025   4.314   1.525 -2.6700 -0.2511 -0.7729
 4106SOL    HW316191   1.040   4.465   1.516 -0.9069 -0.3112  0.5519
 4106SOL    MW416192   1.035   4.386   1.477 -0.4719 -0.0298 -0.0976
 4107SOL     OW16193   2.623   3.350   2.265  0.4411 -0.6233 -0.7053
 4107SOL    HW216194   2.711   3.384   2.281 -0.7459  2.4381  0.0200
 4107SOL    HW316195   2.590   3.329   2.352  0.4234 -1.8273 -0.9836
 4107SOL    MW416196   2.631   3.352   2.278  0.2822 -0.3783 -0.6463
 4108SOL     OW16197   0.707   5.835   6.364  0.3527 -0.3410  0.4865
 4108SOL    HW216198   0.693   5.895   6.291 -0.2946  0.1123  0.9707
 4108SOL    HW316199   0.795   5.856   6.396  0.1195  0.3760  0.6709
 4108SOL    MW416200   0.717   5.846   6.359  0.2365 -0.1866  0.5747
 4109SOL     OW16201   4.946   6.140   4.560  0.0564  0.0699 -0.1253
 4109SOL    HW216202   4.885   6.182   4.621  1.3504 -0.5012  1.6278
 4109SOL    HW316203   4.936   6.046   4.578  2.2297  0.0054  1.0430
 4109SOL    MW416204   4.937   6.133   4.570  0.5139 -0.0140  0.2601
 4110SOL     OW16205   4.735   2.700   0.651 -0.3215 -0.3989 -0.4719
 4110SOL    HW216206   4.682   2.661   0.720  0.2468 -0.2356  0.0666
 4110SOL    HW316207   4.671   2.738   0.591 -0.8198  0.6742  0.6776
 4110SOL    MW416208   4.720   2.700   0.652 -0.3122 -0.2358 -0.2492
 4111SOL     OW16209   4.794   2.520   4.834  0.1536  0.1399 -0.9974
 4111SOL    HW216210   4.745   2.517   4.916  1.5667  1.0120 -0.0611
 4111SOL    HW316211   4.734   2.559   4.771 -0.3497  1.2606  0.1259
 4111SOL    MW416212   4.780   2.525   4.837  0.2736  0.4028 -0.7256
 4112SOL     OW16213   4.070   4.695   4.038  0.4769  0.3413  0.1849
 4112SOL    HW216214   4.156   4.710   4.078  0.1015 -0.0476  1.1748
 4112SOL    HW316215   4.061   4.600   4.035 -0.2077  0.3806  0.7483
 4112SOL    MW416216   4.080   4.684   4.043  0.3370  0.2952  0.3898
 4113SOL     OW16217   3.860   5.448   6.357 -0.1969 -0.3752 -0.2910
 4113SOL    HW216218   3.944   5.407   6.375  0.0991  0.4550  0.2743
 4113SOL    HW316219   3.859   5.527   6.411 -1.2549 -0.2651 -0.4357
 4113SOL    MW416220   3.871   5.453   6.367 -0.2974 -0.2511 -0.2355
 4114SOL     OW16221   6.078   5.053   2.071  0.0605  0.3945 -0.2590
 4114SOL    HW216222   6.066   5.028   1.980  2.0821  0.0998 -0.4891
 4114SOL    HW316223   6.054   4.975   2.121  0.0215  0.1850 -0.6020
 4114SOL    MW416224   6.073   5.040   2.066  0.3221  0.3280 -0.3346
 4115SOL     OW16225   1.809   6.412   5.866 -0.1316 -0.2530  0.0698
 4115SOL    HW216226   1.842   6.449   5.784  0.9165  1.9182  1.3912
 4115SOL    HW316227   1.715   6.403   5.851 -0.3045  2.1021 -0.7028
 4115SOL    MW416228   1.801   6.416   5.853 -0.0161  0.3442  0.1422
 4116SOL     OW16229   2.629   3.337   6.292  0.3719 -0.8950  0.3853
 4116SOL    HW216230   2.690   3.372   6.227  0.2788 -1.6630 -0.1294
 4116SOL    HW316231   2.584   3.414   6.326  0.7500 -0.4363 -0.1261
 4116SOL    MW416232   2.631   3.351   6.288  0.4095 -0.9358  0.2499
 4117SOL     OW16233   0.390   6.367   0.458 -0.2931 -0.4991  0.1317
 4117SOL    HW216234   0.329   6.307   0.501  1.7750 -2.6528  0.3019
 4117SOL    HW316235   0.476   6.339   0.489  0.8445  2.2899 -0.2247
 4117SOL    MW416236   0.393   6.355   0.468  0.1298 -0.4153  0.1071
 4118SOL     OW16237   1.162   1.821   0.423 -0.2105 -0.4724 -0.1829
 4118SOL    HW216238   1.184   1.900   0.472 -1.3787 -0.8032  0.9071
 4118SOL    HW316239   1.177   1.845   0.331 -0.9276  1.1424  0.0916
 4118SOL    MW416240   1.167   1.834   0.417 -0.4592 -0.3030 -0.0029
 4119SOL     OW16241   5.744   0.775   0.206 -0.2506  0.6586  0.2142
 4119SOL    HW216242   5.664   0.730   0.234  0.6163 -1.7119 -0.8681
 4119SOL    HW316243   5.744   0.767   0.111  2.0148 -0.8831  0.2538
 4119SOL    MW416244   5.733   0.768   0.197  0.1626  0.1424  0.0766
 4120SOL     OW16245   5.250   2.173   4.583  0.5427 -0.0264 -0.2777
 4120SOL    HW216246   5.235   2.097   4.527  0.2101  0.7962 -1.3281
 4120SOL    HW316247   5.234   2.140   4.672 -2.0715 -0.5934 -0.8651
 4120SOL    MW416248   5.246   2.158   4.588  0.1539  0.0074 -0.4938
 4121SOL     OW16249   2.405   0.039   1.275  0.1912  0.2712  0.1534
 4121SOL    HW216250   2.414  -0.018   1.351  1.8043 -0.8751 -0.8358
 4121SOL    HW316251   2.317   0.022   1.242 -0.0843 -0.0970  1.0713
 4121SOL    MW416252   2.395   0.029   1.281  0.3677  0.0714  0.1440
 4122SOL     OW16253   0.722   0.355   0.351  0.3860  0.1752 -0.6070
 4122SOL    HW216254   0.731   0.447   0.325 -1.5158  0.2208 -1.2775
 4122SOL    HW316255   0.628   0.337   0.342  0.6956 -1.7846 -0.2986
 4122SOL    MW416256   0.711   0.365   0.346  0.1759 -0.0774 -0.6548
 4123SOL     OW16257   3.638   5.970   6.382 -0.3427 -0.5157  0.2294
 4123SOL    HW216258   3.550   5.976   6.344 -0.7118 -1.8975  0.8132
 4123SOL    HW316259   3.626   5.992   6.474 -0.0068 -0.3788  0.2426
 4123SOL    MW416260   3.624   5.974   6.389 -0.3471 -0.6799  0.3081
 4124SOL     OW16261   1.546   4.405   3.551 -0.2935 -0.5093  0.2657
 4124SOL    HW216262   1.605   4.341   3.511 -0.5383  0.5554 -1.9246
 4124SOL    HW316263   1.602   4.454   3.611  0.6888 -0.6117 -0.5364
 4124SOL    MW416264   1.561   4.403   3.554 -0.1962 -0.3824 -0.1291
 4125SOL     OW16265   5.978   0.548   5.725 -0.2290  0.1703 -0.2611
 4125SOL    HW216266   5.889   0.580   5.736 -0.0426  0.5332  0.2311
 4125SOL    HW316267   6.034   0.623   5.749  0.2063 -0.0232 -0.6471
 4125SOL    MW416268   5.974   0.562   5.729 -0.1470  0.1926 -0.2471
 4126SOL     OW16269   6.313   1.936   4.076  0.6987  0.7024 -0.3323
 4126SOL    HW216270   6.247   1.877   4.039  0.3433  1.4756 -0.9594
 4126SOL    HW316271   6.273   1.970   4.155 -0.8177  3.2189 -2.0566
 4126SOL    MW416272   6.299   1.933   4.082  0.4518  1.1364 -0.6425
 4127SOL     OW16273   4.802   3.520   2.738  0.5723  0.3391  0.3124
 4127SOL    HW216274   4.860   3.450   2.769  0.9876  0.0590 -1.0619
 4127SOL    HW316275   4.714   3.489   2.760  0.6114 -1.4645 -1.7812
 4127SOL    MW416276   4.798   3.507   2.745  0.6322  0.0642 -0.1452
 4128SOL     OW16277   0.656   3.739   3.712  0.1281 -0.0661  0.2767
 4128SOL    HW216278   0.644   3.687   3.633  1.4312 -0.3378  0.2281
 4128SOL    HW316279   0.732   3.700   3.755  2.6966  3.1283 -0.9300
 4128SOL    MW416280   0.665   3.727   3.707  0.6389  0.3195  0.1111
 4129SOL     OW16281   1.567   2.591   5.751 -0.0817  0.2217  0.2615
 4129SOL    HW216282   1.655   2.555   5.736 -0.2659 -0.2299  0.2552
 4129SOL    HW316283   1.509   2.534   5.701 -0.5764 -0.5365  1.6329
 4129SOL    MW416284   1.571   2.579   5.742 -0.1712  0.0621  0.4416
 4130SOL     OW16285   0.473   2.875   4.878 -0.1735  0.8860  0.1440
 4130SOL    HW216286   0.547   2.931   4.856  0.3279  0.7551  1.3771
 4130SOL    HW316287   0.478   2.866   4.974 -0.8376 -0.4326  0.0777
 4130SOL    MW416288   0.483   2.881   4.888 -0.1949  0.6947  0.2979
 4131SOL     OW16289   2.735   2.409   5.378  0.4912  0.4505 -0.5432
 4131SOL    HW216290   2.810   2.382   5.431 -0.6988 -0.2597  0.8433
 4131SOL    HW316291   2.724   2.339   5.314 -0.1078 -0.4101  0.4623
 4131SOL    MW416292   2.743   2.396   5.377  0.2552  0.2432 -0.2276
 4132SOL     OW16293   1.716   4.525   6.210  0.6493  0.0034 -0.0231
 4132SOL    HW216294   1.714   4.605   6.158  0.9431 -0.7287 -1.1887
 4132SOL    HW316295   1.785   4.540   6.275 -0.9175  1.6247  1.3600
 4132SOL    MW416296   1.725   4.537   6.212  0.4813  0.1207  0.0056
 4133SOL     OW16297   1.349   4.612   0.669  0.0032 -0.1135  0.3276
 4133SOL    HW216298   1.384   4.638   0.584 -1.2099  1.4986  0.2772
 4133SOL    HW316299   1.278   4.551   0.647 -1.9914  2.2038 -0.0486
 4133SOL    MW416300   1.344   4.607   0.655 -0.4200  0.4049  0.2713
 4134SOL     OW16301   0.549   1.674   5.438 -0.3069 -0.2381 -0.2255
 4134SOL    HW216302   0.608   1.600   5.430 -0.8241 -0.6575 -0.2226
 4134SOL    HW316303   0.543   1.690   5.532 -1.3767 -1.1746 -0.1126
 4134SOL    MW416304   0.556   1.666   5.449 -0.5163 -0.4170 -0.2102
 4135SOL     OW16305   4.039   0.144   6.334  0.3827 -0.9187  0.2719
 4135SOL    HW216306   4.133   0.133   6.349  0.6307 -0.2847 -0.7080
 4135SOL    HW316307   4.033   0.171   6.242 -0.5368  1.8090  1.0512
 4135SOL    MW416308   4.051   0.146   6.324  0.2941 -0.4752  0.2455
 4136SOL     OW16309   6.330   2.185   0.462 -0.0206  0.2090  0.2238
 4136SOL    HW216310   6.236   2.192   0.446  0.0475  0.6725  0.0271
 4136SOL    HW316311   6.361   2.120   0.399 -0.4921 -1.2374  1.4247
 4136SOL    MW416312   6.322   2.177   0.452 -0.0738  0.0793  0.3563
 4137SOL     OW16313   2.595   4.472   5.185 -0.1791  0.1943  0.0411
 4137SOL    HW216314   2.684   4.508   5.192 -0.1727 -0.0163  1.1747
 4137SOL    HW316315   2.541   4.530   5.239 -1.0869  1.3463 -1.9721
 4137SOL    MW416316   2.600   4.485   5.193 -0.2981  0.3185 -0.0750
 4138SOL     OW16317   5.559   4.926   6.182  0.3114  0.1209 -0.5854
 4138SOL    HW216318   5.523   5.013   6.164 -0.1459  0.0396 -0.1036
 4138SOL    HW316319   5.603   4.935   6.266 -0.3505 -0.2763 -0.1833
 4138SOL    MW416320   5.560   4.939   6.191  0.1638  0.0577 -0.4688
 4139SOL     OW16321   2.056   1.232   2.876 -0.5910  0.3486  0.3721
 4139SOL    HW216322   2.078   1.232   2.969  1.8961  0.7068 -0.1591
 4139SOL    HW316323   2.130   1.188   2.833 -0.8619  1.6941 -1.5972
 4139SOL    MW416324   2.068   1.226   2.882 -0.2986  0.5734  0.0422
 4140SOL     OW16325   4.075   1.129   1.013  0.0107 -0.5094 -0.3410
 4140SOL    HW216326   4.141   1.177   0.963 -0.5189  0.5627 -0.0547
 4140SOL    HW316327   4.073   1.174   1.098  0.8097 -2.2171  0.6414
 4140SOL    MW416328   4.084   1.141   1.018  0.0463 -0.5932 -0.1736
 4141SOL     OW16329   6.421   6.380   2.532 -0.3753 -0.2055  0.2382
 4141SOL    HW216330   6.468   6.437   2.593 -1.8197  1.5411 -0.1867
 4141SOL    HW316331   6.364   6.327   2.588  0.8568 -1.1474  0.6300
 4141SOL    MW416332   6.420   6.381   2.548 -0.4033 -0.0993  0.2338
 4142SOL     OW16333   6.294   3.173   1.644 -0.6060 -0.2670  0.1010
 4142SOL    HW216334   6.335   3.126   1.572 -0.0519 -0.4665  0.5386
 4142SOL    HW316335   6.276   3.260   1.608 -0.7857 -0.5157 -0.4239
 4142SOL    MW416336   6.297   3.178   1.630 -0.5566 -0.3261  0.0895
 4143SOL     OW16337   2.105   6.175   2.675 -0.1704  0.2093 -0.1178
 4143SOL    HW216338   2.106   6.225   2.593 -0.2056 -0.3021 -0.4343
 4143SOL    HW316339   2.059   6.231   2.737 -0.5868  0.3884 -0.5836
 4143SOL    MW416340   2.099   6.189   2.673 -0.2300  0.1655 -0.2210
 4144SOL     OW16341   0.681   0.100   6.418 -0.1802  0.1218  0.1214
 4144SOL    HW216342   0.719   0.091   6.505 -1.5578  0.5527  0.8066
 4144SOL    HW316343   0.593   0.064   6.427 -0.1256 -0.4058 -1.2740
 4144SOL    MW416344   0.674   0.094   6.431 -0.3547  0.1090  0.0277
 4145SOL     OW16345   5.329   4.124   1.164  0.0768 -0.0169 -0.0517
 4145SOL    HW216346   5.330   4.212   1.126  1.0901 -0.6196 -1.5123
 4145SOL    HW316347   5.421   4.105   1.184  0.0096 -1.1191 -0.7077
 4145SOL    MW416348   5.341   4.133   1.162  0.2016 -0.2418 -0.3310
 4146SOL     OW16349   5.429   3.443   2.911 -0.2364 -0.3424 -0.5602
 4146SOL    HW216350   5.448   3.523   2.862 -0.7236  0.7975  1.0398
 4146SOL    HW316351   5.479   3.453   2.992  1.4236 -2.6816 -1.2023
 4146SOL    MW416352   5.438   3.455   2.915 -0.0817 -0.5006 -0.4338
 4147SOL     OW16353   3.097   4.573   0.911  0.2356  0.2221 -0.2268
 4147SOL    HW216354   3.070   4.658   0.944 -1.3962  0.5464 -2.1793
 4147SOL    HW316355   3.015   4.524   0.902  1.1976 -1.8975  1.6048
 4147SOL    MW416356   3.082   4.578   0.914  0.1472 -0.0148 -0.2428
 4148SOL     OW16357   4.501   4.770   1.541 -0.0785 -0.0973 -0.2507
 4148SOL    HW216358   4.474   4.687   1.580  2.8558 -1.5254 -0.9091
 4148SOL    HW316359   4.512   4.829   1.615  0.5508 -1.2079  0.5760
 4148SOL    MW416360   4.499   4.767   1.556  0.3917 -0.4322 -0.2285
 4149SOL     OW16361   5.775   1.221   3.753 -0.0372  0.0560  0.1172
 4149SOL    HW216362   5.869   1.232   3.765  0.3040 -2.3901  0.1839
 4149SOL    HW316363   5.741   1.201   3.840 -0.3694 -0.4952 -0.1290
 4149SOL    MW416364   5.783   1.219   3.766 -0.0361 -0.3395  0.0935
 4150SOL     OW16365   4.087   1.097   5.909 -0.0222  0.2673 -0.2295
 4150SOL    HW216366   4.109   1.126   5.998 -0.3675  1.0458 -0.3851
 4150SOL    HW316367   4.161   1.127   5.856  0.2217 -0.2691 -0.1915
 4150SOL    MW416368   4.100   1.105   5.914 -0.0356  0.2992 -0.2450
 4151SOL     OW16369   0.056   2.325   2.948 -0.0892  0.6755 -0.4316
 4151SOL    HW216370   0.145   2.302   2.975 -0.6550 -1.0673  0.0954
 4151SOL    HW316371   0.043   2.278   2.866  0.1657  2.6122 -1.6467
 4151SOL    MW416372   0.066   2.316   2.941 -0.1302  0.7011 -0.5224
 4152SOL     OW16373   3.108   1.952   3.336  0.5179  0.3448 -0.0138
 4152SOL    HW216374   3.134   2.016   3.402 -0.9705  1.4967 -0.4834
 4152SOL    HW316375   3.013   1.946   3.345  0.5055 -0.9480 -0.7692
 4152SOL    MW416376   3.099   1.960   3.346  0.3199  0.3262 -0.1754
 4153SOL     OW16377   3.491   4.647   5.523  0.2650  0.3112  0.1247
 4153SOL    HW216378   3.466   4.732   5.560  1.4196  0.6927  0.0812
 4153SOL    HW316379   3.494   4.588   5.599  0.0147  0.4467  0.2421
 4153SOL    MW416380   3.488   4.651   5.538  0.3843  0.3794  0.1345
 4154SOL     OW16381   4.517   3.343   3.329 -0.0303 -0.7192 -0.0908
 4154SOL    HW216382   4.575   3.288   3.383  0.0180 -1.6352 -1.0467
 4154SOL    HW316383   4.563   3.427   3.324  0.0051 -0.6340  1.2039
 4154SOL    MW416384   4.531   3.347   3.335 -0.0192 -0.8288 -0.0461
 4155SOL     OW16385   5.448   4.420   2.977 -0.3196 -0.3713 -0.2803
 4155SOL    HW216386   5.453   4.354   2.908 -0.1768 -1.8565  1.0948
 4155SOL    HW316387   5.516   4.394   3.040 -1.3048  0.1536  1.0557
 4155SOL    MW416388   5.458   4.408   2.977 -0.4308 -0.4980  0.0774
 4156SOL     OW16389   3.472   3.959   0.675  0.0054  0.0965  0.1014
 4156SOL    HW216390   3.481   3.950   0.770  1.7059 -1.1041 -0.1253
 4156SOL    HW316391   3.459   4.053   0.661 -1.4502  0.1530  1.5716
 4156SOL    MW416392   3.471   3.971   0.686  0.0377 -0.0544  0.2655
 4157SOL     OW16393   6.126   4.073   3.039 -0.0278  0.6486 -0.1788
 4157SOL    HW216394   6.049   4.129   3.040 -0.1703  0.4758 -1.2294
 4157SOL    HW316395   6.125   4.031   3.125 -0.2949  1.7233  0.3647
 4157SOL    MW416396   6.116   4.075   3.051 -0.0818  0.7676 -0.2457
 4158SOL     OW16397   5.616   5.559   5.598 -0.5184  0.4619 -0.2660
 4158SOL    HW216398   5.652   5.561   5.509  1.5608 -0.0680  0.5116
 4158SOL    HW316399   5.591   5.468   5.612 -0.5933  0.4906 -0.2064
 4158SOL    MW416400   5.617   5.547   5.588 -0.2540  0.3958 -0.1556
 4159SOL     OW16401   3.705   0.865   2.765 -0.8835  0.4343  0.0900
 4159SOL    HW216402   3.609   0.864   2.758 -0.7925  0.9688 -1.7585
 4159SOL    HW316403   3.732   0.783   2.724 -0.5689 -0.4299  1.9286
 4159SOL    MW416404   3.696   0.854   2.759 -0.8300  0.3908  0.0887
 4160SOL     OW16405   0.488   4.648   2.443  0.1650 -0.2041  0.1153
 4160SOL    HW216406   0.408   4.655   2.391  0.5363  1.9278 -0.2389
 4160SOL    HW316407   0.465   4.687   2.527  0.8008  0.4008  0.0193
 4160SOL    MW416408   0.474   4.654   2.447  0.2979  0.1570  0.0559
 4161SOL     OW16409   0.858   5.290   5.255  0.8965 -0.2379 -0.5211
 4161SOL    HW216410   0.899   5.303   5.170 -0.2131  0.2472 -1.0012
 4161SOL    HW316411   0.822   5.376   5.278  0.0324 -0.6720 -0.1919
 4161SOL    MW416412   0.858   5.303   5.247  0.6361 -0.2311 -0.5410
 4162SOL     OW16413   1.962   4.654   4.914 -0.0068  0.0070  0.2052
 4162SOL    HW216414   1.878   4.685   4.949  0.5742  0.1271  1.5084
 4162SOL    HW316415   1.943   4.567   4.880 -0.6008 -0.0643  0.7144
 4162SOL    MW416416   1.948   4.647   4.914 -0.0085  0.0135  0.4443
 4163SOL     OW16417   3.370   2.330   5.989  0.5079 -0.0946  0.0203
 4163SOL    HW216418   3.404   2.300   6.073  0.4738 -0.3732 -0.0672
 4163SOL    HW316419   3.332   2.416   6.008  1.6276  0.4051  0.0368
 4163SOL    MW416420   3.369   2.338   6.002  0.6512 -0.0654  0.0109
 4164SOL     OW16421   2.018   6.083   2.150 -0.0610 -0.1184  0.3330
 4164SOL    HW216422   2.050   6.051   2.066  0.6704 -1.5200  1.1038
 4164SOL    HW316423   1.972   6.008   2.188  0.4948  0.1480  1.6028
 4164SOL    MW416424   2.016   6.069   2.144  0.1088 -0.2682  0.6023
 4165SOL     OW16425   3.266   3.370   0.859  0.1381  0.5551 -0.0066
 4165SOL    HW216426   3.286   3.277   0.846  0.7653  0.8435 -1.2630
 4165SOL    HW316427   3.177   3.370   0.894 -0.1459 -0.5027 -0.6715
 4165SOL    MW416428   3.257   3.358   0.862  0.1834  0.4536 -0.2601
 4166SOL     OW16429   5.288   5.391   1.533  0.0795  0.0420 -0.2360
 4166SOL    HW216430   5.225   5.367   1.465  0.2095  1.6071 -0.9466
 4166SOL    HW316431   5.304   5.309   1.581 -1.1858 -0.7478 -1.1071
 4166SOL    MW416432   5.282   5.377   1.530 -0.0703  0.1443 -0.4447
 4167SOL     OW16433   2.573   1.884   2.799  0.8500  0.2337  0.3847
 4167SOL    HW216434   2.575   1.946   2.872  1.4873  1.1473 -0.3763
 4167SOL    HW316435   2.480   1.879   2.774  0.8481  1.2795  0.1419
 4167SOL    MW416436   2.561   1.891   2.805  0.9339  0.4922  0.2522
 4168SOL     OW16437   2.538   0.893   4.973  0.1077  0.1697  0.3139
 4168SOL    HW216438   2.467   0.955   4.991 -1.2006 -0.9229 -0.8391
 4168SOL    HW316439   2.496   0.823   4.923  1.9929 -0.5855 -0.2847
 4168SOL    MW416440   2.523   0.892   4.969  0.1838 -0.0741  0.0828
 4169SOL     OW16441   0.316   4.362   2.105  0.0378  0.3557  0.2632
 4169SOL    HW216442   0.394   4.327   2.062 -0.7240  0.7731 -1.5319
 4169SOL    HW316443   0.325   4.457   2.098 -0.3713  0.4163  0.5431
 4169SOL    MW416444   0.328   4.370   2.099 -0.1167  0.4188  0.0633
 4170SOL     OW16445   5.653   0.365   5.909 -0.6940 -0.6260 -0.1327
 4170SOL    HW216446   5.577   0.325   5.952 -2.4429  0.9221 -1.6038
 4170SOL    HW316447   5.710   0.392   5.982 -3.4055  1.6709  1.3422
 4170SOL    MW416448   5.651   0.363   5.924 -1.2825 -0.1187 -0.1322
 4171SOL     OW16449   5.815   3.625   2.916  0.7790  0.5077 -0.3862
 4171SOL    HW216450   5.731   3.670   2.925  0.3067 -0.5940  1.0235
 4171SOL    HW316451   5.842   3.605   3.006  1.9744 -0.1937 -0.8723
 4171SOL    MW416452   5.807   3.628   2.929  0.8744  0.2698 -0.2643
 4172SOL     OW16453   1.181   4.341   6.197 -0.0685 -0.1781 -0.9881
 4172SOL    HW216454   1.098   4.299   6.174  0.0189  0.2729 -2.1875
 4172SOL    HW316455   1.248   4.277   6.171  0.1039  0.9349 -3.5652
 4172SOL    MW416456   1.179   4.327   6.190 -0.0342  0.0283 -1.4864
 4173SOL     OW16457   3.327   2.822   2.436 -0.2017  0.4448 -0.0847
 4173SOL    HW216458   3.380   2.896   2.405  1.7043 -0.7520  0.1491
 4173SOL    HW316459   3.312   2.840   2.529  1.0715  0.1200  0.2033
 4173SOL    MW416460   3.332   2.834   2.444  0.2178  0.2440 -0.0159
 4174SOL     OW16461   4.229   2.231   2.965  0.1019  0.2376 -0.4300
 4174SOL    HW216462   4.308   2.195   2.923  0.4711  0.0572  0.4040
 4174SOL    HW316463   4.256   2.317   2.996  0.4862 -0.4635  1.3088
 4174SOL    MW416464   4.243   2.237   2.963  0.2013  0.1213 -0.0906
 4175SOL     OW16465   3.856   6.173   5.138 -0.5723  0.4665 -0.2011
 4175SOL    HW216466   3.917   6.137   5.073  0.6701  2.0986 -0.0148
 4175SOL    HW316467   3.908   6.182   5.217 -0.7018  2.8626 -0.3253
 4175SOL    MW416468   3.871   6.169   5.140 -0.4255  0.9980 -0.1929
 4176SOL     OW16469   1.652   1.404   2.727 -0.0986 -0.0009 -0.2985
 4176SOL    HW216470   1.746   1.421   2.733  0.3168 -1.8160 -1.0345
 4176SOL    HW316471   1.616   1.438   2.808  1.5804 -1.5428  1.1883
 4176SOL    MW416472   1.660   1.411   2.738  0.1778 -0.4438 -0.1995
 4177SOL     OW16473   0.398   5.771   5.657 -0.1024  0.0250  0.4122
 4177SOL    HW216474   0.429   5.689   5.698  0.4798 -0.4326 -0.9059
 4177SOL    HW316475   0.477   5.823   5.645 -0.2864  0.2079 -0.0114
 4177SOL    MW416476   0.413   5.767   5.661 -0.0499 -0.0113  0.1824
 4178SOL     OW16477   1.512   1.222   3.977  0.6839 -0.3830 -0.2431
 4178SOL    HW216478   1.440   1.216   4.039 -0.9476 -0.5849 -2.0682
 4178SOL    HW316479   1.553   1.135   3.978  0.1003 -0.6576 -0.1216
 4178SOL    MW416480   1.508   1.210   3.985  0.3916 -0.4459 -0.4679
 4179SOL     OW16481   4.843   5.096   5.690  0.0319 -0.0235  0.2808
 4179SOL    HW216482   4.883   5.018   5.652 -4.0354 -1.6416 -1.1850
 4179SOL    HW316483   4.827   5.154   5.616  1.7908  1.7347  1.1855
 4179SOL    MW416484   4.846   5.093   5.676 -0.2726 -0.0050  0.2068
 4180SOL     OW16485   5.704   5.404   0.212  0.1209 -0.0282 -0.3818
 4180SOL    HW216486   5.633   5.441   0.265 -0.4808 -2.5347  0.7011
 4180SOL    HW316487   5.784   5.446   0.247 -0.6424  1.8172 -0.7136
 4180SOL    MW416488   5.706   5.415   0.224 -0.0592 -0.1154 -0.2827
 4181SOL     OW16489   3.580   1.511   4.044  0.6352  0.3509  0.0376
 4181SOL    HW216490   3.639   1.545   3.977  1.5446 -2.3440 -0.6360
 4181SOL    HW316491   3.516   1.582   4.058  0.9837  1.3782 -2.9472
 4181SOL    MW416492   3.579   1.525   4.037  0.8012  0.1309 -0.4451
 4182SOL     OW16493   5.571   2.462   0.523  0.3201  0.2252 -0.4051
 4182SOL    HW216494   5.636   2.529   0.501  0.6339 -0.2032 -0.8121
 4182SOL    HW316495   5.618   2.379   0.512 -0.1499 -0.0707 -0.2010
 4182SOL    MW416496   5.586   2.460   0.518  0.2995  0.1296 -0.4318
 4183SOL     OW16497   0.397   1.989   2.895  0.1869 -0.2174  0.2037
 4183SOL    HW216498   0.465   1.927   2.870  0.3029  0.2914 -0.7939
 4183SOL    HW316499   0.317   1.954   2.858 -0.3721 -1.4696  2.4231
 4183SOL    MW416500   0.396   1.976   2.887  0.1284 -0.3155  0.3649
 4184SOL     OW16501   4.557   1.800   0.487  0.3061 -0.0235  0.2976
 4184SOL    HW216502   4.625   1.778   0.550 -0.2467 -1.9397  0.2760
 4184SOL    HW316503   4.512   1.875   0.526 -1.1593 -2.1982  3.1596
 4184SOL    MW416504   4.560   1.807   0.500  0.0398 -0.5632  0.6723
 4185SOL     OW16505   5.092   1.308   4.063  0.2754  0.4240 -0.4503
 4185SOL    HW216506   5.049   1.316   4.148  0.2946 -0.4591 -0.3491
 4185SOL    HW316507   5.150   1.384   4.058  0.0831  0.6195  0.2120
 4185SOL    MW416508   5.094   1.320   4.074  0.2526  0.3333 -0.3495
 4186SOL     OW16509   2.580   6.224   3.944  0.0244 -0.0421  0.1905
 4186SOL    HW216510   2.676   6.221   3.940 -0.0013  0.3543 -1.6921
 4186SOL    HW316511   2.554   6.263   3.861 -1.8150 -0.6988  0.4111
 4186SOL    MW416512   2.589   6.229   3.933 -0.2217 -0.0764 -0.0288
 4187SOL     OW16513   1.697   3.039   3.077  0.1724  0.3006  0.2162
 4187SOL    HW216514   1.612   3.084   3.070  0.2690  1.2500  3.6609
 4187SOL    HW316515   1.680   2.951   3.041 -2.4159  0.3031  1.2093
 4187SOL    MW416516   1.683   3.033   3.071 -0.1564  0.4262  0.8017
 4188SOL     OW16517   6.341   6.013   6.301 -0.1360 -0.2205 -0.0546
 4188SOL    HW216518   6.430   6.045   6.312 -0.2996  0.4139 -0.5450
 4188SOL    HW316519   6.345   5.921   6.328  0.4891  0.0215  0.7076
 4188SOL    MW416520   6.353   6.005   6.306 -0.0751 -0.1049 -0.0187
 4189SOL     OW16521   5.312   5.322   3.382  0.4537  0.1731 -1.1362
 4189SOL    HW216522   5.338   5.413   3.368  2.4669 -0.3309 -0.9738
 4189SOL    HW316523   5.388   5.282   3.425 -1.3347 -0.9910  1.1048
 4189SOL    MW416524   5.326   5.329   3.386  0.4834 -0.0470 -0.8191
 4190SOL     OW16525   4.508   1.840   5.748  0.1951  0.0262 -0.1525
 4190SOL    HW216526   4.530   1.789   5.826  0.5866 -0.8248 -0.8018
 4190SOL    HW316527   4.522   1.931   5.774 -0.3063 -0.1961  0.9638
 4190SOL    MW416528   4.512   1.846   5.762  0.1806 -0.1154 -0.0909
 4191SOL     OW16529   4.981   5.941   4.783  0.0929 -0.2341  0.2137
 4191SOL    HW216530   5.060   5.972   4.828  0.7802 -0.9425 -0.4745
 4191SOL    HW316531   5.003   5.852   4.755 -0.3844  0.0997 -1.3200
 4191SOL    MW416532   4.994   5.933   4.785  0.1206 -0.2835 -0.0795
 4192SOL     OW16533   5.032   4.432   5.490  0.3706  0.1520  0.4357
 4192SOL    HW216534   4.967   4.439   5.559 -0.5274 -2.2492 -0.0793
 4192SOL    HW316535   5.004   4.495   5.423 -0.5078  0.2710  0.9086
 4192SOL    MW416536   5.020   4.442   5.490  0.1362 -0.1491  0.4302
 4193SOL     OW16537   2.879   2.379   6.127 -0.8050 -0.1636 -0.3372
 4193SOL    HW216538   2.792   2.362   6.163 -1.4796  0.8433 -1.4566
 4193SOL    HW316539   2.876   2.470   6.098  0.2506 -0.4622 -1.4396
 4193SOL    MW416540   2.867   2.389   6.128 -0.7548 -0.0701 -0.6304
 4194SOL     OW16541   4.015   2.401   3.219 -0.0345  0.1499  0.5628
 4194SOL    HW216542   3.948   2.419   3.284 -1.2834  0.7935 -0.8397
 4194SOL    HW316543   4.023   2.483   3.170 -1.7170 -1.2483 -2.3336
 4194SOL    MW416544   4.007   2.414   3.221 -0.4213  0.0504 -0.0044
 4195SOL     OW16545   5.571   2.217   2.359  0.4332  0.3349 -0.1981
 4195SOL    HW216546   5.501   2.194   2.420  1.0332  0.8114  0.6912
 4195SOL    HW316547   5.541   2.298   2.318 -0.0721 -0.1048 -0.7191
 4195SOL    MW416548   5.558   2.225   2.362  0.4457  0.3398 -0.1495
 4196SOL     OW16549   2.169   1.720   0.396 -0.3564 -0.9128  0.1921
 4196SOL    HW216550   2.139   1.786   0.459  0.1226  0.0424 -0.5551
 4196SOL    HW316551   2.129   1.747   0.313  0.5522 -1.0462 -0.3000
 4196SOL    MW416552   2.160   1.732   0.394 -0.1733 -0.8044  0.0286
 4197SOL     OW16553   2.350   3.814   4.122 -0.3901  0.4980 -0.5924
 4197SOL    HW216554   2.383   3.810   4.212  0.1937 -0.5826 -0.8421
 4197SOL    HW316555   2.366   3.727   4.086 -3.3668 -0.0587 -0.8225
 4197SOL    MW416556   2.356   3.802   4.129 -0.7058  0.2820 -0.6557
 4198SOL     OW16557   5.926   0.847   3.004 -0.5930  0.4007 -0.2093
 4198SOL    HW216558   5.913   0.939   3.026  0.5649  0.3466  0.8230
 4198SOL    HW316559   6.021   0.835   3.002 -0.5320 -1.6047  3.8442
 4198SOL    MW416560   5.937   0.858   3.007 -0.4322  0.1289  0.4617
 4199SOL     OW16561   0.128   6.228   1.150 -0.3167 -0.1618 -0.1583
 4199SOL    HW216562   0.149   6.187   1.234  0.0600 -0.5792 -0.4519
 4199SOL    HW316563   0.042   6.192   1.127  0.0834 -0.9426 -0.4956
 4199SOL    MW416564   0.120   6.218   1.158 -0.2142 -0.3199 -0.2415
 4200SOL     OW16565   1.266   3.644   3.252  0.0337  0.2259 -0.7173
 4200SOL    HW216566   1.291   3.716   3.310 -2.9219  0.9021 -0.1257
 4200SOL    HW316567   1.312   3.568   3.287 -0.6376  0.8787  1.7724
 4200SOL    MW416568   1.275   3.643   3.264 -0.4448  0.4013 -0.3108
 4201SOL     OW16569   4.917   0.956   2.090  0.6986 -0.0374 -0.0945
 4201SOL    HW216570   4.872   0.871   2.085 -1.6305  1.1688 -0.7505
 4201SOL    HW316571   4.876   1.000   2.164  0.0586  1.4645 -1.2967
 4201SOL    MW416572   4.906   0.950   2.099  0.3069  0.3199 -0.3397
 4202SOL     OW16573   1.697   1.062   2.052  0.1591  0.1149 -0.2804
 4202SOL    HW216574   1.790   1.081   2.068  0.0482  1.9117 -1.5121
 4202SOL    HW316575   1.670   1.012   2.129  1.9819  0.0837  0.4063
 4202SOL    MW416576   1.706   1.058   2.064  0.3850  0.3478 -0.3523
 4203SOL     OW16577   0.952   0.271   2.205 -0.5455  0.1787  0.6579
 4203SOL    HW216578   0.940   0.360   2.238 -1.2196  0.3210  0.0613
 4203SOL    HW316579   0.907   0.216   2.269 -1.4075  0.4063  0.2619
 4203SOL    MW416580   0.944   0.276   2.218 -0.7482  0.2275  0.5270
 4204SOL     OW16581   5.444   3.125   3.789  0.4964 -0.3071  0.3640
 4204SOL    HW216582   5.532   3.146   3.818  1.0747  2.2449 -2.7560
 4204SOL    HW316583   5.387   3.178   3.844  1.0375 -0.4126  1.0383
 4204SOL    MW416584   5.448   3.134   3.800  0.6441  0.0157  0.0413
 4205SOL     OW16585   5.198   3.669   4.935  0.2820 -0.4336  0.4966
 4205SOL    HW216586   5.243   3.601   4.885  0.7777 -0.1652  0.5738
 4205SOL    HW316587   5.230   3.660   5.024 -0.1832 -0.5521  0.6525
 4205SOL    MW416588   5.208   3.659   4.940  0.2860 -0.4138  0.5274
 4206SOL     OW16589   2.185   0.748   5.006  0.1750  0.4236 -1.0500
 4206SOL    HW216590   2.124   0.774   4.937 -1.0136  1.2590  0.2606
 4206SOL    HW316591   2.146   0.783   5.086  1.7801 -0.0764 -0.0183
 4206SOL    MW416592   2.171   0.756   5.007  0.2300  0.4678 -0.7410
 4207SOL     OW16593   6.243   5.976   4.647 -0.3363  0.1875  0.1110
 4207SOL    HW216594   6.228   6.044   4.581  0.2768 -0.8075 -1.1145
 4207SOL    HW316595   6.305   5.916   4.605 -2.5613 -2.3596  0.1849
 4207SOL    MW416596   6.249   5.977   4.633 -0.5489 -0.2798 -0.0409
 4208SOL     OW16597   3.196   0.233   1.575  0.0785 -0.0679 -0.2630
 4208SOL    HW216598   3.111   0.191   1.589 -0.0980 -0.0804 -1.3049
 4208SOL    HW316599   3.174   0.326   1.562  0.2545 -0.0213 -0.2253
 4208SOL    MW416600   3.182   0.240   1.575  0.0784 -0.0634 -0.3955
 4209SOL     OW16601   2.070   3.600   2.274  0.0619  0.3779  0.3085
 4209SOL    HW216602   2.071   3.669   2.341  0.8289  0.8110 -0.1431
 4209SOL    HW316603   2.158   3.599   2.238 -0.4338  0.4142 -0.9676
 4209SOL    MW416604   2.081   3.609   2.278  0.0977  0.4399  0.0805
 4210SOL     OW16605   2.015   4.686   1.299 -0.0045 -0.3324 -0.6369
 4210SOL    HW216606   1.927   4.690   1.262 -0.3650 -1.6292 -0.0089
 4210SOL    HW316607   2.047   4.599   1.276  1.9832  0.8151 -2.6409
 4210SOL    MW416608   2.007   4.675   1.291  0.2102 -0.3521 -0.8185
 4211SOL     OW16609   0.369   1.947   2.496  0.9227 -0.7384 -0.3889
 4211SOL    HW216610   0.280   1.932   2.464  0.5107  1.4866 -0.4938
 4211SOL    HW316611   0.423   1.947   2.417  1.2212 -3.0293 -0.2395
 4211SOL    MW416612   0.364   1.945   2.481  0.9077 -0.7471 -0.3831
 4212SOL     OW16613   2.784   3.026   4.019  0.6184 -0.2795 -0.0418
 4212SOL    HW216614   2.703   3.075   4.005  1.6425  1.4239 -0.1860
 4212SOL    HW316615   2.851   3.077   3.975  1.8711 -1.3941  0.5144
 4212SOL    MW416616   2.782   3.039   4.011  0.9188 -0.2018  0.0126
 4213SOL     OW16617   1.316   5.790   1.882  0.2666 -0.7739 -0.0735
 4213SOL    HW216618   1.323   5.883   1.902 -0.0697 -0.9231  0.7967
 4213SOL    HW316619   1.311   5.786   1.786 -1.6030  0.2488 -0.0678
 4213SOL    MW416620   1.316   5.802   1.872 -0.0244 -0.6586  0.0421
 4214SOL     OW16621   5.458   1.711   1.856 -0.1188  0.7249 -0.2937
 4214SOL    HW216622   5.466   1.766   1.779  0.6587  0.5275 -0.3549
 4214SOL    HW316623   5.426   1.770   1.925 -1.7170  0.7132 -0.9759
 4214SOL    MW416624   5.455   1.726   1.855 -0.2271  0.6973 -0.3918
 4215SOL     OW16625   3.608   4.520   4.373 -0.0543 -0.3971 -0.5860
 4215SOL    HW216626   3.562   4.560   4.299  0.0103 -0.1122 -0.4760
 4215SOL    HW316627   3.545   4.457   4.409  0.3908 -1.4967 -1.6740
 4215SOL    MW416628   3.593   4.517   4.368  0.0129 -0.5046 -0.7151
 4216SOL     OW16629   1.968   4.949   3.111  1.0854 -0.1391 -0.2823
 4216SOL    HW216630   2.018   4.977   3.188  1.8000 -2.7718  0.2844
 4216SOL    HW316631   2.034   4.935   3.043  0.4807  1.9123 -1.3952
 4216SOL    MW416632   1.983   4.951   3.112  1.0999 -0.2158 -0.3544
 4217SOL     OW16633   1.887   4.351   5.167 -0.3026 -0.0463 -0.0778
 4217SOL    HW216634   1.921   4.363   5.256  1.0187  0.8477 -0.6618
 4217SOL    HW316635   1.850   4.263   5.166 -0.5420  0.0205  1.4119
 4217SOL    MW416636   1.887   4.341   5.179 -0.1598  0.0805  0.0417
 4218SOL     OW16637   2.511   3.451   4.302 -0.0339 -0.0757 -0.0504
 4218SOL    HW216638   2.548   3.400   4.374 -1.7454 -1.0230  0.1964
 4218SOL    HW316639   2.497   3.538   4.338 -0.5691 -0.4541  0.6739
 4218SOL    MW416640   2.514   3.456   4.316 -0.3303 -0.2506  0.0777
 4219SOL     OW16641   5.737   4.546   0.333  0.1604 -0.1536 -0.2933
 4219SOL    HW216642   5.809   4.578   0.387  0.1129  0.6068 -0.6681
 4219SOL    HW316643   5.700   4.473   0.383  0.8335 -0.1940  0.1595
 4219SOL    MW416644   5.741   4.540   0.347  0.2429 -0.0586 -0.2830
 4220SOL     OW16645   0.258   2.925   5.662 -0.6136  0.2930  0.0870
 4220SOL    HW216646   0.190   2.865   5.632 -1.2882  0.8597  0.4555
 4220SOL    HW316647   0.310   2.945   5.584 -0.6469 -0.4163 -0.1235
 4220SOL    MW416648   0.256   2.920   5.648 -0.7070  0.2742  0.1078
 4221SOL     OW16649   1.972   6.373   0.816 -0.2597 -0.0046  0.0228
 4221SOL    HW216650   2.032   6.309   0.855 -1.2107 -1.0922 -0.2512
 4221SOL    HW316651   2.004   6.384   0.726  0.2457  0.3503  0.2416
 4221SOL    MW416652   1.984   6.366   0.809 -0.3185 -0.1013  0.0155
 4222SOL     OW16653   4.634   1.908   5.152 -0.4198 -0.2602  0.2469
 4222SOL    HW216654   4.608   1.988   5.195 -1.0248 -0.4532  0.2465
 4222SOL    HW316655   4.726   1.922   5.128  0.4689 -0.7361  2.9711
 4222SOL    MW416656   4.643   1.920   5.154 -0.3824 -0.3485  0.6063
 4223SOL     OW16657   0.718   2.107   6.132 -0.2337  0.1839 -0.2436
 4223SOL    HW216658   0.724   2.181   6.072 -1.4845 -0.1410 -0.8318
 4223SOL    HW316659   0.624   2.088   6.136 -0.0711 -0.4396  1.0509
 4223SOL    MW416660   0.706   2.114   6.124 -0.3773  0.0587 -0.1504
 4224SOL     OW16661   5.575   2.284   1.540 -0.2941 -0.2385  0.0836
 4224SOL    HW216662   5.489   2.246   1.554 -0.0044 -0.7869  0.4348
 4224SOL    HW316663   5.586   2.347   1.612  0.1067 -1.1034  0.8054
 4224SOL    MW416664   5.565   2.287   1.552 -0.2030 -0.4250  0.2252
 4225SOL     OW16665   5.090   3.319   3.707  0.1436  0.9042 -0.2446
 4225SOL    HW216666   5.046   3.394   3.747  0.6488 -0.0452  2.3053
 4225SOL    HW316667   5.149   3.287   3.775  2.9881  0.6114 -2.6316
 4225SOL    MW416668   5.092   3.325   3.721  0.5856  0.7403 -0.2231
 4226SOL     OW16669   0.546   0.689   0.882  0.1874 -0.3611 -0.3023
 4226SOL    HW216670   0.455   0.710   0.863 -0.4223  0.1205  2.6819
 4226SOL    HW316671   0.596   0.761   0.845 -0.8577  0.4921 -0.0902
 4226SOL    MW416672   0.541   0.701   0.875 -0.0309 -0.1850  0.1194
 4227SOL     OW16673   4.056   4.942   2.979  0.0232 -0.4463 -0.0527
 4227SOL    HW216674   3.961   4.942   2.991  0.1100  0.0564  0.6607
 4227SOL    HW316675   4.080   4.850   2.990 -0.2254 -0.3906  1.1514
 4227SOL    MW416676   4.046   4.930   2.982  0.0019 -0.3726  0.2003
 4228SOL     OW16677   0.791   1.959   3.889 -0.3402 -0.0325  0.8344
 4228SOL    HW216678   0.886   1.968   3.892 -0.2038 -0.7501 -0.6184
 4228SOL    HW316679   0.760   2.046   3.863  0.1164 -0.4259 -1.1600
 4228SOL    MW416680   0.799   1.972   3.886 -0.2620 -0.1791  0.3796
 4229SOL     OW16681   0.646   3.817   3.281 -0.4369  0.1930  0.5748
 4229SOL    HW216682   0.681   3.745   3.229 -1.4160 -1.8395  2.5698
 4229SOL    HW316683   0.708   3.826   3.354 -1.5310 -0.2637  1.5930
 4229SOL    MW416684   0.659   3.809   3.284 -0.7104 -0.1354  0.9723
 4230SOL     OW16685   5.619   4.857   5.570 -0.1728  0.3098  0.4847
 4230SOL    HW216686   5.630   4.944   5.530 -1.3826 -0.0409 -0.7014
 4230SOL    HW316687   5.708   4.825   5.583  0.2810  1.2858 -0.0832
 4230SOL    MW416688   5.632   4.864   5.566 -0.2725  0.3923  0.2533
 4231SOL     OW16689   3.436   0.654   3.203  0.1769 -0.1404  0.0185
 4231SOL    HW216690   3.487   0.726   3.165  0.3862  0.7001  1.8205
 4231SOL    HW316691   3.495   0.613   3.266 -0.3631 -1.1301 -0.0984
 4231SOL    MW416692   3.450   0.658   3.206  0.1333 -0.1601  0.2408
 4232SOL     OW16693   3.641   1.797   4.238  0.6598 -0.3547  0.4568
 4232SOL    HW216694   3.546   1.795   4.251  0.6735 -3.4880  0.8296
 4232SOL    HW316695   3.653   1.842   4.155 -1.0547  0.8093  0.7817
 4232SOL    MW416696   3.630   1.803   4.229  0.4354 -0.6146  0.5489
 4233SOL     OW16697   3.936   2.532   5.944 -0.2651 -0.3677 -0.1390
 4233SOL    HW216698   3.923   2.549   5.850  0.2074  2.7206  0.2487
 4233SOL    HW316699   3.851   2.499   5.974 -1.6479  2.0385 -1.0521
 4233SOL    MW416700   3.923   2.530   5.935 -0.3852  0.3572 -0.2084
 4234SOL     OW16701   2.074   4.951   5.317  0.4775 -0.2003 -0.0810
 4234SOL    HW216702   2.103   4.865   5.347 -0.2379 -0.8262 -1.1095
 4234SOL    HW316703   2.153   5.005   5.319  0.4746 -0.1636  2.8833
 4234SOL    MW416704   2.088   4.947   5.321  0.3828 -0.2780  0.1744
 4235SOL     OW16705   4.113   1.058   2.576 -0.0477  0.6573 -0.6287
 4235SOL    HW216706   4.122   1.133   2.517 -1.6516 -0.1284 -1.9682
 4235SOL    HW316707   4.034   1.013   2.545  0.6646 -1.3772  0.3512
 4235SOL    MW416708   4.104   1.062   2.564 -0.1654  0.2852 -0.6762
 4236SOL     OW16709   1.697   0.686   5.158  0.7222  0.1370 -0.2866
 4236SOL    HW216710   1.752   0.687   5.237  0.9870 -1.0676 -0.4268
 4236SOL    HW316711   1.722   0.605   5.114 -1.7270 -0.8762  0.0541
 4236SOL    MW416712   1.708   0.675   5.163  0.4340 -0.1556 -0.2601
 4237SOL     OW16713   0.867   5.654   0.679  0.1056  0.2012  0.3792
 4237SOL    HW216714   0.891   5.745   0.662 -0.4895 -0.1817 -3.2048
 4237SOL    HW316715   0.909   5.604   0.609 -1.8258 -1.9017  0.5865
 4237SOL    MW416716   0.875   5.659   0.668 -0.2277 -0.1268 -0.0663
 4238SOL     OW16717   2.726   0.294   1.309  0.0281 -0.3374  0.0127
 4238SOL    HW216718   2.817   0.288   1.280  0.9956 -1.9861  2.9331
 4238SOL    HW316719   2.732   0.321   1.401 -2.4258 -0.7798  0.3710
 4238SOL    MW416720   2.738   0.297   1.317 -0.1680 -0.6133  0.4453
 4239SOL     OW16721   0.405   1.963   1.421  0.1496  0.9529 -0.1590
 4239SOL    HW216722   0.346   2.038   1.418 -2.2938 -0.7440  1.3098
 4239SOL    HW316723   0.395   1.929   1.510  1.2411 -1.0618 -0.7530
 4239SOL    MW416724   0.396   1.968   1.432 -0.0288  0.4632 -0.0436
 4240SOL     OW16725   3.498   2.873   1.759  0.2552 -0.1449 -0.2606
 4240SOL    HW216726   3.543   2.850   1.678  0.6001 -0.2232 -0.0458
 4240SOL    HW316727   3.565   2.913   1.814 -0.3195  1.3766 -0.6118
 4240SOL    MW416728   3.512   2.875   1.756  0.2249  0.0455 -0.2786
 4241SOL     OW16729   3.365   0.311   5.708  0.1342 -0.8432 -0.1383
 4241SOL    HW216730   3.377   0.402   5.681 -0.6008 -1.1460 -1.5523
 4241SOL    HW316731   3.452   0.271   5.696 -0.0092 -0.7956 -1.4023
 4241SOL    MW416732   3.378   0.318   5.703  0.0183 -0.8769 -0.4916
 4242SOL     OW16733   3.703   5.617   1.329  0.1524 -0.0596 -0.0115
 4242SOL    HW216734   3.714   5.572   1.246  1.2322 -0.1599  0.1692
 4242SOL    HW316735   3.694   5.547   1.394  2.2720 -0.1028  0.3307
 4242SOL    MW416736   3.704   5.602   1.327  0.5745 -0.0786  0.0575
 4243SOL     OW16737   5.749   0.156   5.283  0.2510  0.3076 -0.1399
 4243SOL    HW216738   5.782   0.080   5.330  0.2709  0.4372  0.0568
 4243SOL    HW316739   5.783   0.231   5.332  0.6000  0.4457 -0.5881
 4243SOL    MW416740   5.758   0.156   5.295  0.2997  0.3429 -0.1731
 4244SOL     OW16741   0.845   2.089   6.388  0.0859 -0.5302 -0.1988
 4244SOL    HW216742   0.768   2.130   6.428  0.2257 -0.9411  0.5087
 4244SOL    HW316743   0.824   2.084   6.295  0.1421  1.3023 -0.3466
 4244SOL    MW416744   0.832   2.094   6.381  0.1117 -0.3427 -0.1250
 4245SOL     OW16745   1.704   5.778   5.544  0.0424  0.3334  0.2015
 4245SOL    HW216746   1.711   5.828   5.625  2.0867  1.3668 -0.5318
 4245SOL    HW316747   1.760   5.701   5.558 -1.2292 -0.5771  0.4710
 4245SOL    MW416748   1.713   5.774   5.557  0.1443  0.3496  0.1403
 4246SOL     OW16749   1.615   1.992   2.401  0.6394  0.1349  0.1356
 4246SOL    HW216750   1.617   1.989   2.306 -0.6337 -1.9021  0.1111
 4246SOL    HW316751   1.576   2.077   2.422  2.0168  1.1040 -1.0913
 4246SOL    MW416752   1.610   2.003   2.391  0.6532 -0.0060 -0.0295
 4247SOL     OW16753   3.279   0.631   6.403  0.4622  0.0170  0.2646
 4247SOL    HW216754   3.187   0.652   6.421  0.5169  0.1457  0.4002
 4247SOL    HW316755   3.325   0.715   6.414  0.3883  0.2778 -1.2596
 4247SOL    MW416756   3.273   0.645   6.407  0.4596  0.0684  0.0814
 4248SOL     OW16757   4.285   1.938   3.172  0.6709  0.0413 -0.3217
 4248SOL    HW216758   4.267   2.031   3.187 -0.8484 -0.5910  2.2858
 4248SOL    HW316759   4.362   1.919   3.226  0.6530 -0.3465 -0.4275
 4248SOL    MW416760   4.293   1.948   3.181  0.4681 -0.0933  0.0084
 4249SOL     OW16761   3.808   4.788   0.382  0.2362  0.7783 -0.0360
 4249SOL    HW216762   3.828   4.881   0.372  2.0879  0.3290 -0.8621
 4249SOL    HW316763   3.857   4.745   0.312  0.0188 -0.9043  0.7942
 4249SOL    MW416764   3.817   4.794   0.371  0.4518  0.4970 -0.0354
 4250SOL     OW16765   6.105   2.383   2.901 -0.1009  0.1948  0.0498
 4250SOL    HW216766   6.150   2.304   2.872 -0.8978 -0.8543  1.4881
 4250SOL    HW316767   6.030   2.392   2.842 -0.7921 -0.9675  0.7070
 4250SOL    MW416768   6.101   2.374   2.890 -0.2972 -0.0970  0.3263
 4251SOL     OW16769   2.623   3.044   4.625 -0.4793 -0.3283  0.1169
 4251SOL    HW216770   2.595   3.053   4.534 -3.2256 -1.2333  0.7542
 4251SOL    HW316771   2.705   2.995   4.620 -0.5832 -0.3920 -1.8719
 4251SOL    MW416772   2.630   3.038   4.613 -0.8554 -0.4561 -0.0614
 4252SOL     OW16773   6.124   6.385   4.509 -0.5110  1.0613 -0.0692
 4252SOL    HW216774   6.137   6.377   4.604 -1.4364 -0.4115 -0.0399
 4252SOL    HW316775   6.040   6.431   4.500 -0.3968  1.2498 -0.1739
 4252SOL    MW416776   6.115   6.390   4.520 -0.6180  0.8919 -0.0792
 4253SOL     OW16777   5.993   3.435   5.818  0.5091 -0.1687 -0.0572
 4253SOL    HW216778   6.081   3.418   5.784  0.2950  0.2034 -0.8096
 4253SOL    HW316779   5.972   3.523   5.787 -0.9188 -0.9952 -1.6065
 4253SOL    MW416780   6.002   3.444   5.810  0.2925 -0.2286 -0.3609
 4254SOL     OW16781   3.238   5.729   3.555 -0.6422 -0.8393  0.0368
 4254SOL    HW216782   3.194   5.807   3.589 -0.1259 -0.4267 -0.2161
 4254SOL    HW316783   3.288   5.695   3.629  0.3747 -0.0186 -0.2351
 4254SOL    MW416784   3.239   5.735   3.569 -0.4399 -0.6766 -0.0324
 4255SOL     OW16785   2.608   5.503   6.379 -0.2376 -0.3021 -0.0284
 4255SOL    HW216786   2.617   5.417   6.419  1.0917 -0.5329 -0.7371
 4255SOL    HW316787   2.596   5.563   6.453  0.7305 -0.8810  0.6279
 4255SOL    MW416788   2.608   5.500   6.394  0.0655 -0.4090 -0.0353
 4256SOL     OW16789   3.914   2.332   6.387  0.0046 -0.4340  0.5945
 4256SOL    HW216790   3.874   2.384   6.317  1.5070 -1.1362 -0.8452
 4256SOL    HW316791   3.977   2.391   6.428  0.4334 -0.5752  0.1405
 4256SOL    MW416792   3.917   2.347   6.384  0.2594 -0.5453  0.3447
 4257SOL     OW16793   2.973   1.485   3.343 -0.4165 -0.4047 -0.1175
 4257SOL    HW216794   2.952   1.473   3.435  0.1744 -0.0603  0.0714
 4257SOL    HW316795   3.061   1.525   3.343 -0.4256 -0.3592 -0.8222
 4257SOL    MW416796   2.982   1.488   3.355 -0.3397 -0.3533 -0.1855
 4258SOL     OW16797   6.280   5.737   3.768 -0.0976 -0.5422 -0.1242
 4258SOL    HW216798   6.216   5.807   3.751  1.9428  0.5280 -5.1766
 4258SOL    HW316799   6.356   5.782   3.805 -0.6919 -1.1424  1.9411
 4258SOL    MW416800   6.281   5.752   3.771  0.0932 -0.4802 -0.5183
 4259SOL     OW16801   6.056   5.348   1.409 -0.3203 -0.1993  0.0034
 4259SOL    HW216802   6.137   5.313   1.370 -0.2775 -0.0359 -0.0510
 4259SOL    HW316803   6.078   5.437   1.436 -0.5832 -0.0363 -0.3193
 4259SOL    MW416804   6.070   5.355   1.407 -0.3494 -0.1562 -0.0464
 4260SOL     OW16805   1.869   5.414   1.905 -0.1680  0.0287 -0.3667
 4260SOL    HW216806   1.890   5.392   1.996  0.0813  0.1854 -0.3840
 4260SOL    HW316807   1.946   5.386   1.856 -1.3555 -2.6158 -0.9255
 4260SOL    MW416808   1.882   5.408   1.911 -0.2918 -0.2995 -0.4427
 4261SOL     OW16809   5.933   3.405   2.495  0.2382  0.1409  0.0961
 4261SOL    HW216810   5.961   3.418   2.585 -1.5469 -2.5798  1.1986
 4261SOL    HW316811   6.013   3.382   2.447  0.7456 -2.3703  1.9580
 4261SOL    MW416812   5.947   3.404   2.500  0.0696 -0.5494  0.4873
 4262SOL     OW16813   2.315   2.989   5.135  0.5574 -0.0013  0.0421
 4262SOL    HW216814   2.266   2.929   5.191 -0.9642 -0.9377 -2.1789
 4262SOL    HW316815   2.407   2.963   5.147  0.1150 -1.3839  0.6801
 4262SOL    MW416816   2.321   2.978   5.144  0.2983 -0.3072 -0.1667
 4263SOL     OW16817   2.284   0.720   3.260 -0.5367  0.0490  0.0069
 4263SOL    HW216818   2.241   0.803   3.238 -1.4044 -0.6614 -1.1127
 4263SOL    HW316819   2.238   0.655   3.207  0.4972 -1.0693  0.4432
 4263SOL    MW416820   2.272   0.722   3.250 -0.5148 -0.1923 -0.0832
 4264SOL     OW16821   4.621   5.377   6.101  0.6834 -0.3343 -0.1395
 4264SOL    HW216822   4.556   5.344   6.039  1.2821  0.5903 -1.2975
 4264SOL    HW316823   4.696   5.318   6.091  0.6530 -0.3933 -0.0281
 4264SOL    MW416824   4.622   5.365   6.092  0.7583 -0.2201 -0.2776
 4265SOL     OW16825   3.294   4.491   4.083 -0.2687  0.4320  0.2635
 4265SOL    HW216826   3.198   4.489   4.081 -0.2962  0.2574 -2.8184
 4265SOL    HW316827   3.316   4.580   4.111 -1.3516  0.9822 -0.5798
 4265SOL    MW416828   3.284   4.502   4.087 -0.4152  0.4815 -0.2544
 4266SOL     OW16829   4.980   4.641   2.200 -0.6539  0.4208  0.1568
 4266SOL    HW216830   4.890   4.617   2.179 -1.0630  2.9340 -1.3831
 4266SOL    HW316831   5.032   4.602   2.129 -0.5922 -0.4714  0.6818
 4266SOL    MW416832   4.975   4.633   2.188 -0.6997  0.6347  0.0229
 4267SOL     OW16833   0.059   1.146   2.276 -0.4277  0.0880  0.0022
 4267SOL    HW216834   0.062   1.052   2.257  0.3994  0.4147 -1.6335
 4267SOL    HW316835   0.020   1.151   2.363 -2.4488 -1.6596 -0.7070
 4267SOL    MW416836   0.054   1.134   2.285 -0.5853 -0.0995 -0.3072
 4268SOL     OW16837   4.981   0.929   1.264 -0.2344  0.5435  0.2029
 4268SOL    HW216838   5.053   0.985   1.233 -0.2693  0.2354 -0.4759
 4268SOL    HW316839   4.920   0.927   1.191 -1.1819  1.1938  0.9643
 4268SOL    MW416840   4.983   0.936   1.250 -0.3640  0.5886  0.2138
 4269SOL     OW16841   0.056   5.162   3.789  0.0728 -0.6920 -0.2247
 4269SOL    HW216842  -0.031   5.200   3.778  0.1557 -0.3228  0.3727
 4269SOL    HW316843   0.055   5.083   3.735 -0.5630 -0.5819 -0.3757
 4269SOL    MW416844   0.045   5.157   3.780 -0.0001 -0.6288 -0.1658
 4270SOL     OW16845   1.229   1.663   3.342  0.4524  0.4058  0.2652
 4270SOL    HW216846   1.295   1.627   3.402 -2.1961 -1.5426  2.2800
 4270SOL    HW316847   1.221   1.755   3.367  0.6797  0.0549  1.7554
 4270SOL    MW416848   1.237   1.670   3.353  0.1330  0.1025  0.7276
 4271SOL     OW16849   0.515   2.560   5.396  0.8353 -0.2073  0.0559
 4271SOL    HW216850   0.459   2.494   5.436  1.5674  0.2295  1.8829
 4271SOL    HW316851   0.595   2.513   5.373  0.3036 -0.5240 -1.2629
 4271SOL    MW416852   0.518   2.545   5.398  0.8617 -0.1915  0.1230
 4272SOL     OW16853   5.233   6.218   2.884 -0.4658  0.1059 -0.8471
 4272SOL    HW216854   5.217   6.197   2.792 -1.4010 -0.1669 -0.6332
 4272SOL    HW316855   5.152   6.193   2.928  0.3549 -0.7756  0.2095
 4272SOL    MW416856   5.221   6.212   2.878 -0.4809 -0.0464 -0.6794
 4273SOL     OW16857   4.669   5.015   3.163  0.7352  0.0973 -0.7842
 4273SOL    HW216858   4.744   5.006   3.104  0.6977  1.9997 -1.2144
 4273SOL    HW316859   4.593   4.994   3.109  0.6779  2.0864 -1.5850
 4273SOL    MW416860   4.669   5.011   3.148  0.7227  0.6108 -0.9466
 4274SOL     OW16861   2.962   2.480   5.194 -0.2446 -0.5450 -0.7284
 4274SOL    HW216862   2.876   2.494   5.234 -0.1687 -0.2141 -0.6786
 4274SOL    HW316863   3.022   2.474   5.268  0.0453  1.0611 -0.8022
 4274SOL    MW416864   2.958   2.481   5.209 -0.1963 -0.2894 -0.7315
 4275SOL     OW16865   3.040   5.431   3.980  0.3181  0.7848 -0.6931
 4275SOL    HW216866   2.989   5.458   3.904  0.7437  0.7483 -0.9947
 4275SOL    HW316867   3.082   5.349   3.953 -0.9749 -0.2227  0.2202
 4275SOL    MW416868   3.039   5.424   3.967  0.2037  0.6470 -0.6124
 4276SOL     OW16869   6.159   0.282   4.559  0.5022  0.2698  0.0735
 4276SOL    HW216870   6.142   0.229   4.481  0.4791  0.3137  0.0487
 4276SOL    HW316871   6.081   0.271   4.613  1.2833 -1.2665  0.9542
 4276SOL    MW416872   6.147   0.274   4.556  0.6022  0.0729  0.1864
 4277SOL     OW16873   2.899   5.007   1.402  0.6245  0.3198  0.1046
 4277SOL    HW216874   2.986   4.969   1.411  0.9404  1.1555  0.7454
 4277SOL    HW316875   2.908   5.097   1.435 -0.3694  0.5683 -0.2473
 4277SOL    MW416876   2.911   5.014   1.408  0.5350  0.4628  0.1427
 4278SOL     OW16877   6.193   5.849   1.621  0.3181 -0.3342  0.4098
 4278SOL    HW216878   6.236   5.811   1.697  0.1857  0.5921  0.9661
 4278SOL    HW316879   6.256   5.914   1.589 -0.2845  0.4170  0.7099
 4278SOL    MW416880   6.207   5.853   1.627  0.2211 -0.1128  0.5228
 4279SOL     OW16881   3.816   2.209   5.581  0.1085  0.2707 -0.2378
 4279SOL    HW216882   3.823   2.302   5.599 -5.5220  0.7186  1.3107
 4279SOL    HW316883   3.763   2.204   5.501  0.7896 -1.6458 -0.6188
 4279SOL    MW416884   3.810   2.220   5.572 -0.5445  0.0769 -0.0837
 4280SOL     OW16885   3.151   5.760   2.322 -0.3470  0.2707 -0.5755
 4280SOL    HW216886   3.089   5.737   2.391 -0.3194  1.3353 -0.1774
 4280SOL    HW316887   3.237   5.748   2.362 -0.1634 -2.7449 -1.6011
 4280SOL    MW416888   3.154   5.755   2.336 -0.3191  0.0133 -0.6583
 4281SOL     OW16889   6.381   2.443   4.119 -0.5034 -0.0329  0.0914
 4281SOL    HW216890   6.305   2.429   4.177  0.5484 -2.2839  1.0763
 4281SOL    HW316891   6.431   2.361   4.127  1.9813  1.3351 -0.6008
 4281SOL    MW416892   6.377   2.430   4.128 -0.0368 -0.1494  0.1300
 4282SOL     OW16893   5.646   4.260   0.898 -0.3451  0.1659  0.4070
 4282SOL    HW216894   5.668   4.286   0.809  0.5181 -0.9967  0.2662
 4282SOL    HW316895   5.660   4.165   0.900 -4.5128 -0.6657  0.5313
 4282SOL    MW416896   5.650   4.251   0.886 -0.7811 -0.0972  0.4049
 4283SOL     OW16897   1.252   5.334   1.212 -0.2493 -0.3027  0.1881
 4283SOL    HW216898   1.202   5.301   1.287  0.3861 -0.5037  0.5336
 4283SOL    HW316899   1.342   5.341   1.245 -0.6007  3.7068  0.7691
 4283SOL    MW416900   1.257   5.330   1.226 -0.2118  0.1998  0.3103
 4284SOL     OW16901   6.053   1.212   3.802  0.4829 -0.4151  0.2200
 4284SOL    HW216902   6.065   1.303   3.828  0.3261 -0.8297  1.8571
 4284SOL    HW316903   6.118   1.198   3.733  2.8859  0.0542  2.2519
 4284SOL    MW416904   6.063   1.222   3.796  0.7793 -0.4079  0.7041
 4285SOL     OW16905   2.959   2.810   6.244 -0.1609 -0.1816 -0.0479
 4285SOL    HW216906   2.927   2.891   6.284  1.9238  0.2369  0.9012
 4285SOL    HW316907   2.957   2.745   6.315  0.7162 -0.2321 -0.0548
 4285SOL    MW416908   2.955   2.812   6.259  0.2299 -0.1330  0.0764
 4286SOL     OW16909   0.821   0.024   0.237  0.0728 -0.4114  0.2262
 4286SOL    HW216910   0.760   0.050   0.307 -0.4197 -1.0568  0.0515
 4286SOL    HW316911   0.785  -0.058   0.204  1.4404 -1.1965  0.6062
 4286SOL    MW416912   0.808   0.016   0.242  0.1883 -0.6001  0.2533
 4287SOL     OW16913   1.383   1.728   0.543  0.2026  0.2213 -0.1291
 4287SOL    HW216914   1.347   1.730   0.632  1.3969 -1.5301  0.4349
 4287SOL    HW316915   1.308   1.750   0.487 -0.6293  1.1389  1.2709
 4287SOL    MW416916   1.368   1.731   0.547  0.2504  0.1113  0.1300
 4288SOL     OW16917   3.986   0.558   0.868 -0.4463  0.0101  0.3337
 4288SOL    HW216918   3.901   0.603   0.867 -2.0551 -2.8233  1.0702
 4288SOL    HW316919   4.009   0.552   0.960  1.1083  1.5763  0.1021
 4288SOL    MW416920   3.978   0.563   0.880 -0.4535 -0.1571  0.4003
 4289SOL     OW16921   1.008   2.559   0.061  0.0939  0.0329  0.6685
 4289SOL    HW216922   1.023   2.468   0.087  0.1438  0.6446  3.0732
 4289SOL    HW316923   0.925   2.582   0.104 -0.4040  0.8623 -0.6837
 4289SOL    MW416924   0.999   2.550   0.070  0.0348  0.2231  0.8074
 4290SOL     OW16925   2.991   0.273   1.217  0.5873 -0.1992  0.2202
 4290SOL    HW216926   3.020   0.273   1.126 -0.7426  1.7594 -0.2669
 4290SOL    HW316927   3.063   0.231   1.265  3.1322  2.1086 -1.2500
 4290SOL    MW416928   3.004   0.268   1.211  0.7476  0.3637 -0.0381
 4291SOL     OW16929   2.103   0.375   1.546 -0.0321 -0.4014  0.2311
 4291SOL    HW216930   2.015   0.357   1.515 -0.0088 -1.1493  0.5866
 4291SOL    HW316931   2.091   0.417   1.631 -0.1368  2.7799 -1.2344
 4291SOL    MW416932   2.090   0.378   1.553 -0.0429 -0.0804  0.0847
 4292SOL     OW16933   4.546   6.261   5.975 -0.1997  0.1200  0.4166
 4292SOL    HW216934   4.528   6.339   5.923 -0.8027 -0.6998 -0.6467
 4292SOL    HW316935   4.628   6.227   5.940 -0.3178 -0.1283  0.3793
 4292SOL    MW416936   4.554   6.267   5.963 -0.2949 -0.0209  0.2714
 4293SOL     OW16937   4.251   2.622   5.072 -0.3590  0.8457 -0.4478
 4293SOL    HW216938   4.322   2.606   5.135  0.7099  0.9241 -1.5891
 4293SOL    HW316939   4.264   2.555   5.004 -1.0681  1.1937 -0.9338
 4293SOL    MW416940   4.262   2.611   5.071 -0.3115  0.9019 -0.6625
 4294SOL     OW16941   0.665   2.210   3.800 -0.0155  0.6059 -0.6925
 4294SOL    HW216942   0.623   2.224   3.884 -0.2686 -2.1211 -0.2553
 4294SOL    HW316943   0.755   2.241   3.812  0.3377 -0.9189  1.0712
 4294SOL    MW416944   0.672   2.216   3.812 -0.0023  0.0449 -0.4021
 4295SOL     OW16945   6.197   0.486   2.695  1.1134  0.0579  0.3493
 4295SOL    HW216946   6.251   0.408   2.698  0.8786 -0.1750 -0.7620
 4295SOL    HW316947   6.146   0.477   2.614  1.6338  1.7065 -0.2047
 4295SOL    MW416948   6.197   0.475   2.684  1.1511  0.2447  0.1295
 4296SOL     OW16949   1.688   4.743   0.898 -0.1264 -0.1603 -0.1278
 4296SOL    HW216950   1.755   4.805   0.867 -0.3176  0.1025 -0.0136
 4296SOL    HW316951   1.728   4.657   0.884  0.1158 -0.0159 -0.3456
 4296SOL    MW416952   1.702   4.740   0.892 -0.1197 -0.1065 -0.1414
 4297SOL     OW16953   3.752   3.930   4.431  0.0578  0.1903  0.2167
 4297SOL    HW216954   3.810   3.915   4.356 -0.4062 -0.9001  0.0482
 4297SOL    HW316955   3.670   3.888   4.406  0.2717 -1.2817  1.7868
 4297SOL    MW416956   3.749   3.922   4.418  0.0248 -0.1478  0.4016
 4298SOL     OW16957   3.188   3.330   1.498 -0.3191  0.0597 -0.3408
 4298SOL    HW216958   3.174   3.368   1.584  0.6350  1.0175 -0.5755
 4298SOL    HW316959   3.177   3.403   1.437  1.1280 -0.0956 -0.8442
 4298SOL    MW416960   3.185   3.344   1.501 -0.0023  0.1656 -0.4381
 4299SOL     OW16961   0.638   0.665   0.014 -0.5880 -0.2468  0.0569
 4299SOL    HW216962   0.623   0.708  -0.070 -1.2460 -0.1621  0.2104
 4299SOL    HW316963   0.628   0.571  -0.005 -0.4029 -0.2501 -0.0255
 4299SOL    MW416964   0.635   0.658   0.001 -0.6504 -0.2361  0.0663
 4300SOL     OW16965   1.807   4.602   1.913  0.7832  0.0240 -0.3941
 4300SOL    HW216966   1.798   4.600   1.817  1.5200  0.5261 -0.4793
 4300SOL    HW316967   1.819   4.510   1.938 -0.3071 -0.2116 -0.6853
 4300SOL    MW416968   1.807   4.589   1.903  0.7365  0.0592 -0.4438
 4301SOL     OW16969   4.784   4.305   4.529  0.2973 -0.4281  0.2544
 4301SOL    HW216970   4.738   4.232   4.488 -1.9433 -0.0116  1.8367
 4301SOL    HW316971   4.755   4.382   4.481  1.5283 -0.4105 -0.4874
 4301SOL    MW416972   4.774   4.305   4.517  0.1641 -0.3708  0.3653
 4302SOL     OW16973   0.100   1.367   0.725 -0.3125  0.0157 -0.5352
 4302SOL    HW216974   0.156   1.296   0.694 -1.4170 -1.5223  0.8450
 4302SOL    HW316975   0.025   1.366   0.666 -0.3235  0.0491 -0.5218
 4302SOL    MW416976   0.098   1.358   0.713 -0.4596 -0.1828 -0.3513
 4303SOL     OW16977   4.227   5.169   3.254 -0.4118  0.1881  0.0460
 4303SOL    HW216978   4.269   5.110   3.191  0.8766  0.0873  0.9475
 4303SOL    HW316979   4.189   5.110   3.319  0.4163  0.3123  0.6631
 4303SOL    MW416980   4.228   5.153   3.254 -0.1326  0.1912  0.2464
 4304SOL     OW16981   4.950   5.367   1.857 -0.0977  0.1792 -1.1143
 4304SOL    HW216982   5.005   5.396   1.930 -1.3981 -1.1311  0.4698
 4304SOL    HW316983   4.915   5.448   1.819  2.6497  1.0271 -2.0316
 4304SOL    MW416984   4.952   5.381   1.861  0.0932  0.1182 -1.0263
 4305SOL     OW16985   0.204   1.491   3.917  0.5186 -0.0304  0.6615
 4305SOL    HW216986   0.116   1.527   3.931  1.0751  1.6948 -0.0176
 4305SOL    HW316987   0.242   1.487   4.005  0.2878  0.6565  0.8012
 4305SOL    MW416988   0.197   1.495   3.931  0.5615  0.2879  0.5904
 4306SOL     OW16989   2.433   4.896   1.259 -0.0081 -0.0436 -0.1308
 4306SOL    HW216990   2.427   4.849   1.343 -1.6832  0.6888  0.1930
 4306SOL    HW316991   2.378   4.846   1.199  0.6618 -0.1926 -0.6338
 4306SOL    MW416992   2.425   4.883   1.262 -0.1408  0.0334 -0.1545
 4307SOL     OW16993   5.798   5.492   0.652  0.2706 -0.7449  0.0973
 4307SOL    HW216994   5.838   5.577   0.634 -3.5390  1.2791  0.2193
 4307SOL    HW316995   5.780   5.493   0.746 -2.9328  0.0215 -0.3960
 4307SOL    MW416996   5.801   5.503   0.662 -0.6547 -0.3767  0.0483
 4308SOL     OW16997   4.086   4.407   2.352 -0.3024  0.4895  0.3915
 4308SOL    HW216998   4.069   4.498   2.326  0.3963  0.4499 -0.2452
 4308SOL    HW316999   4.055   4.355   2.277 -2.0645  0.0826  1.3474
 4308SOL    MW417000   4.080   4.412   2.338 -0.4427  0.4306  0.4336
 4309SOL     OW17001   0.376   5.086   0.429 -0.8080  0.1912  0.0111
 4309SOL    HW217002   0.370   5.081   0.334  2.0483  0.5091 -0.2590
 4309SOL    HW317003   0.462   5.124   0.446 -1.8535  1.6070  2.7218
 4309SOL    MW417004   0.386   5.091   0.419 -0.5691  0.4200  0.3331
 4310SOL     OW17005   5.862   2.471   1.631 -0.0256 -0.6754  0.1630
 4310SOL    HW217006   5.925   2.402   1.646  1.4471  0.3115 -1.1345
 4310SOL    HW317007   5.838   2.461   1.538  0.1861  0.4948 -0.0336
 4310SOL    MW417008   5.867   2.461   1.620  0.1967 -0.3908 -0.0341
 4311SOL     OW17009   4.361   1.836   6.187  0.0655  0.0563  0.1718
 4311SOL    HW217010   4.414   1.760   6.211  0.9169 -0.3321 -2.6277
 4311SOL    HW317011   4.277   1.798   6.159  0.7253  0.0074 -1.8857
 4311SOL    MW417012   4.357   1.821   6.186  0.2649 -0.0014 -0.4690
 4312SOL     OW17013   1.557   1.184   1.859  0.1339 -0.5398  0.5909
 4312SOL    HW217014   1.591   1.143   1.939  1.2169 -0.4504  0.2018
 4312SOL    HW317015   1.630   1.180   1.798 -0.9897 -1.4631 -0.7331
 4312SOL    MW417016   1.571   1.178   1.862  0.1285 -0.6498  0.3649
 4313SOL     OW17017   4.062   2.781   2.301  0.1610 -0.4206  0.0803
 4313SOL    HW217018   4.141   2.726   2.304 -0.5926 -1.6006 -0.9161
 4313SOL    HW317019   3.989   2.720   2.297 -0.7672  0.6536 -0.1260
 4313SOL    MW417020   4.063   2.766   2.301 -0.0609 -0.4345 -0.0784
 4314SOL     OW17021   2.289   5.042   3.808  0.0083  0.6516  0.0991
 4314SOL    HW217022   2.321   4.970   3.862  1.1154  1.3870  0.4432
 4314SOL    HW317023   2.338   5.035   3.727  0.0577  0.9668  0.1006
 4314SOL    MW417024   2.300   5.031   3.805  0.1609  0.7902  0.1447
 4315SOL     OW17025   2.385   3.982   4.453 -0.6259 -0.1080  0.2471
 4315SOL    HW217026   2.435   3.957   4.375 -1.6841  1.2264 -0.9134
 4315SOL    HW317027   2.437   4.050   4.495 -0.2125 -0.5983  0.5427
 4315SOL    MW417028   2.398   3.987   4.448 -0.7109  0.0034  0.1330
 4316SOL     OW17029   5.670   1.284   5.464  0.0805 -0.1992 -0.2031
 4316SOL    HW217030   5.719   1.357   5.426 -0.5297 -0.4545 -1.5780
 4316SOL    HW317031   5.712   1.206   5.428 -0.6318 -0.4480 -0.5259
 4316SOL    MW417032   5.682   1.283   5.454 -0.0940 -0.2657 -0.4271
 4317SOL     OW17033   6.101   0.233   6.354  0.1385 -0.2365  0.8319
 4317SOL    HW217034   6.093   0.174   6.428  0.1952  0.7851  1.6747
 4317SOL    HW317035   6.047   0.308   6.377  2.1401  1.2402  1.0198
 4317SOL    MW417036   6.093   0.235   6.367  0.4101  0.0931  0.9679
 4318SOL     OW17037   0.279   5.965   4.732  0.7772 -0.6433  0.0297
 4318SOL    HW217038   0.218   6.036   4.711 -0.8139 -1.8149  0.4956
 4318SOL    HW317039   0.347   6.007   4.785  0.3963  0.7166 -0.5155
 4318SOL    MW417040   0.280   5.980   4.736  0.5170 -0.6185  0.0193
 4319SOL     OW17041   0.144   0.845   1.182 -0.1097 -0.1883  0.2910
 4319SOL    HW217042   0.111   0.900   1.111  0.7797  0.1972  0.1565
 4319SOL    HW317043   0.200   0.780   1.138 -0.9086 -1.0216  0.4790
 4319SOL    MW417044   0.147   0.843   1.166 -0.0978 -0.2474  0.2981
 4320SOL     OW17045   1.603   0.871   6.017  0.5796 -0.0543 -0.2090
 4320SOL    HW217046   1.643   0.798   6.063 -1.9322 -0.9489  0.7030
 4320SOL    HW317047   1.563   0.924   6.086 -1.3783 -0.2351 -1.1344
 4320SOL    MW417048   1.603   0.869   6.032 -0.0101 -0.1962 -0.2108
 4321SOL     OW17049   0.840   6.170   2.614  0.1549 -0.4863 -0.0255
 4321SOL    HW217050   0.802   6.182   2.701 -0.3925  0.1994 -0.3578
 4321SOL    HW317051   0.811   6.082   2.588 -2.3874  0.5044 -0.8294
 4321SOL    MW417052   0.831   6.160   2.622 -0.2528 -0.2651 -0.1754
 4322SOL     OW17053   3.929   1.386   0.990  0.0748  0.3830  0.0318
 4322SOL    HW217054   3.980   1.322   0.942 -0.5784 -0.4472  0.4161
 4322SOL    HW317055   3.965   1.384   1.079  0.9637  1.5672 -0.2744
 4322SOL    MW417056   3.940   1.377   0.995  0.1059  0.4297  0.0421
 4323SOL     OW17057   5.530   1.271   5.705 -0.0290  0.0342  0.2872
 4323SOL    HW217058   5.470   1.346   5.711  1.4352  1.2856 -0.1506
 4323SOL    HW317059   5.565   1.276   5.616 -1.9057 -2.8271 -0.7765
 4323SOL    MW417060   5.526   1.282   5.694 -0.0835 -0.1782  0.0891
 4324SOL     OW17061   0.199   3.516   4.437 -0.8220  0.3826  0.2290
 4324SOL    HW217062   0.191   3.594   4.492 -0.8203 -0.5683  1.6370
 4324SOL    HW317063   0.280   3.531   4.387 -1.9399  2.2204 -1.1735
 4324SOL    MW417064   0.209   3.529   4.438 -0.9692  0.4996  0.2297
 4325SOL     OW17065   0.444   5.413   2.796 -0.2310 -0.0802  0.4104
 4325SOL    HW217066   0.445   5.486   2.735 -1.1027 -0.1983  0.2517
 4325SOL    HW317067   0.520   5.360   2.771 -0.2810  0.1458 -0.2357
 4325SOL    MW417068   0.455   5.415   2.785 -0.3526 -0.0659  0.3042
 4326SOL     OW17069   1.777   5.151   3.535 -0.3663 -0.2565  0.1700
 4326SOL    HW217070   1.774   5.060   3.564 -2.1009 -0.4404 -0.4388
 4326SOL    HW317071   1.741   5.201   3.609 -1.0254 -0.2701 -0.1369
 4326SOL    MW417072   1.772   5.146   3.549 -0.6821 -0.2826  0.0492
 4327SOL     OW17073   0.159   1.893   2.321 -0.6924  0.2960  0.0674
 4327SOL    HW217074   0.067   1.881   2.296 -0.1527 -0.8914 -1.4673
 4327SOL    HW317075   0.196   1.805   2.321  0.8184  0.9019 -0.8822
 4327SOL    MW417076   0.152   1.880   2.318 -0.4219  0.2193 -0.2603
 4328SOL     OW17077   2.124   5.655   0.963  0.2350  0.5585  0.2560
 4328SOL    HW217078   2.183   5.725   0.990  1.6302 -1.3069  2.3551
 4328SOL    HW317079   2.182   5.587   0.928 -0.9532 -0.1551 -0.4005
 4328SOL    MW417080   2.140   5.655   0.962  0.2623  0.2182  0.4463
 4329SOL     OW17081   4.967   6.100   5.210  0.1171  0.0151  0.0796
 4329SOL    HW217082   4.981   6.189   5.175  1.3283  0.2661  1.1379
 4329SOL    HW317083   4.961   6.112   5.304 -0.0279 -1.0045  0.2065
 4329SOL    MW417084   4.968   6.114   5.218  0.2578 -0.0863  0.2360
 4330SOL     OW17085   2.005   5.967   4.307  0.1029 -0.6509 -0.2004
 4330SOL    HW217086   1.940   5.969   4.237 -0.0418 -0.4658 -0.0618
 4330SOL    HW317087   2.084   5.933   4.266  0.0817 -0.3310 -0.5084
 4330SOL    MW417088   2.007   5.963   4.293  0.0810 -0.5843 -0.2227
 4331SOL     OW17089   4.539   2.925   4.091 -0.0965 -0.5062 -0.0388
 4331SOL    HW217090   4.448   2.937   4.117 -0.5263 -1.7516 -0.8773
 4331SOL    HW317091   4.551   2.984   4.017  0.2647  0.8218  1.0320
 4331SOL    MW417092   4.528   2.935   4.085 -0.1055 -0.4953 -0.0081
 4332SOL     OW17093   1.712   5.346   0.374  0.4081 -0.0072 -0.2369
 4332SOL    HW217094   1.666   5.428   0.385  0.9616  0.9291 -3.6667
 4332SOL    HW317095   1.643   5.279   0.371 -0.1622  0.5056  1.0051
 4332SOL    MW417096   1.697   5.348   0.375  0.4059  0.1840 -0.5256
 4333SOL     OW17097   2.448   4.962   0.835  0.5487 -0.3684  0.0524
 4333SOL    HW217098   2.430   4.906   0.759  0.3455 -0.2353 -0.0001
 4333SOL    HW317099   2.438   5.051   0.802  0.2783 -0.3126  0.2781
 4333SOL    MW417100   2.444   4.966   0.821  0.4862 -0.3435  0.0753
 4334SOL     OW17101   2.884   6.208   3.319  0.0829 -0.2603 -0.1584
 4334SOL    HW217102   2.821   6.163   3.262  0.6046 -1.2479  0.0141
 4334SOL    HW317103   2.934   6.265   3.261 -1.0119  0.5901 -0.2833
 4334SOL    MW417104   2.882   6.210   3.304  0.0073 -0.2784 -0.1522
 4335SOL     OW17105   4.207   4.891   0.032  0.1095  0.2345 -0.3735
 4335SOL    HW217106   4.221   4.955   0.102  0.1471  0.6435 -0.7531
 4335SOL    HW317107   4.160   4.819   0.075  0.2689  0.4117  0.1068
 4335SOL    MW417108   4.202   4.890   0.047  0.1355  0.3118 -0.3602
 4336SOL     OW17109   0.926   3.755   6.280 -0.0101 -0.1411 -0.1784
 4336SOL    HW217110   0.987   3.681   6.272 -0.2314 -0.2813 -0.6095
 4336SOL    HW317111   0.862   3.726   6.346  1.1189  0.5275  1.2727
 4336SOL    MW417112   0.925   3.741   6.288  0.1096 -0.0714 -0.0438
 4337SOL     OW17113   0.483   4.985   3.337 -0.5773 -0.0593  0.0880
 4337SOL    HW217114   0.443   4.964   3.253 -0.9674 -0.7941  0.4506
 4337SOL    HW317115   0.553   5.047   3.315  0.5931 -1.6698 -1.0391
 4337SOL    MW417116   0.487   4.990   3.323 -0.4744 -0.3687 -0.0129
 4338SOL     OW17117   2.732   3.100   0.425  0.6264 -0.0270 -1.0040
 4338SOL    HW217118   2.673   3.160   0.380  0.5009  2.2866  1.8848
 4338SOL    HW317119   2.688   3.081   0.508  1.8927 -2.0841 -0.7194
 4338SOL    MW417120   2.719   3.105   0.430  0.7769  0.0068 -0.5853
 4339SOL     OW17121   5.681   2.077   6.352  0.4139 -0.5665 -0.4468
 4339SOL    HW217122   5.749   2.142   6.334  0.4557 -0.6378 -0.5455
 4339SOL    HW317123   5.710   2.033   6.432  1.5231 -1.9925 -1.5793
 4339SOL    MW417124   5.694   2.080   6.360  0.5658 -0.7641 -0.6092
 4340SOL     OW17125   3.948   5.315   1.608  0.1202  0.2553  0.1220
 4340SOL    HW217126   3.985   5.389   1.657  1.2072  0.2606 -0.6706
 4340SOL    HW317127   3.964   5.239   1.665 -0.0816  0.4876  0.4894
 4340SOL    MW417128   3.955   5.314   1.622  0.2370  0.2867  0.0659
 4341SOL     OW17129   0.364   2.633   3.398  0.2527  0.1820  0.3030
 4341SOL    HW217130   0.302   2.646   3.326  1.3217  2.1046 -0.3529
 4341SOL    HW317131   0.450   2.630   3.356  0.7022 -1.8338  1.2531
 4341SOL    MW417132   0.367   2.635   3.383  0.4531  0.1697  0.3418
 4342SOL     OW17133   3.159   4.778   5.818  0.3468  0.4330  0.0102
 4342SOL    HW217134   3.123   4.689   5.812  0.8946  0.1280  0.9491
 4342SOL    HW317135   3.087   4.831   5.852  0.4119  0.0543  0.7810
 4342SOL    MW417136   3.145   4.773   5.822  0.4277  0.3428  0.2358
 4343SOL     OW17137   6.252   4.023   0.863  0.3634  0.4053 -0.2968
 4343SOL    HW217138   6.334   4.044   0.818  0.8451 -0.4735  0.1335
 4343SOL    HW317139   6.259   3.929   0.882 -1.2261  0.0705 -1.2269
 4343SOL    MW417140   6.264   4.013   0.859  0.2173  0.2452 -0.3628
 4344SOL     OW17141   2.971   0.851   1.432  0.3759 -0.4100 -0.1421
 4344SOL    HW217142   2.922   0.771   1.449 -1.1645  0.0490 -2.0491
 4344SOL    HW317143   2.966   0.901   1.513 -1.6852 -0.7411 -0.0283
 4344SOL    MW417144   2.964   0.847   1.445 -0.0993 -0.3931 -0.3787
 4345SOL     OW17145   5.214   5.028   4.346 -0.1128 -0.1652  0.3809
 4345SOL    HW217146   5.272   5.068   4.281 -1.0903 -2.7775 -2.3525
 4345SOL    HW317147   5.272   4.976   4.401  0.7786  2.3596  2.0351
 4345SOL    MW417148   5.229   5.027   4.345 -0.1242 -0.1768  0.2385
 4346SOL     OW17149   3.276   5.411   5.971  0.4529  0.1016  0.0919
 4346SOL    HW217150   3.303   5.458   5.892 -0.9171 -0.4000 -0.7013
 4346SOL    HW317151   3.232   5.478   6.024 -1.8598 -0.2691 -1.2159
 4346SOL    MW417152   3.274   5.426   5.968 -0.0330 -0.0135 -0.1853
 4347SOL     OW17153   4.946   3.122   0.163 -0.6454 -0.0470 -0.1019
 4347SOL    HW217154   4.937   3.106   0.069  0.0821 -0.4268 -0.1181
 4347SOL    HW317155   4.923   3.215   0.174  1.0727  0.5324 -0.9627
 4347SOL    MW417156   4.942   3.132   0.152 -0.3228 -0.0207 -0.2176
 4348SOL     OW17157   1.794   0.054   2.169  0.0460  0.2492 -0.1892
 4348SOL    HW217158   1.785  -0.040   2.188 -0.7983  0.3350 -0.1174
 4348SOL    HW317159   1.711   0.092   2.198  0.2965  0.9859 -0.4256
 4348SOL    MW417160   1.782   0.046   2.175 -0.0324  0.3577 -0.2110
 4349SOL     OW17161   4.722   3.965   3.455 -0.0105 -0.6097  0.6609
 4349SOL    HW217162   4.657   4.033   3.473 -0.6242 -1.2967  1.1105
 4349SOL    HW317163   4.792   4.010   3.409  0.8239  0.8959  3.2174
 4349SOL    MW417164   4.722   3.980   3.451  0.0186 -0.5017  1.0575
 4350SOL     OW17165   4.758   1.716   3.360  0.8785 -0.1862  0.1037
 4350SOL    HW217166   4.852   1.705   3.347  0.8603  0.5810 -0.7124
 4350SOL    HW317167   4.725   1.626   3.367  1.2618 -0.5929 -2.5463
 4350SOL    MW417168   4.766   1.702   3.359  0.9266 -0.1387 -0.3536
 4351SOL     OW17169   2.294   5.308   4.150  0.5705 -0.0635  0.0285
 4351SOL    HW217170   2.376   5.275   4.114  0.1116  0.6009 -1.7261
 4351SOL    HW317171   2.232   5.237   4.140  0.8970 -0.5714  1.3684
 4351SOL    MW417172   2.297   5.295   4.144  0.5530 -0.0429 -0.0262
 4352SOL     OW17173   1.186   1.074   0.956  0.2142  0.1370 -0.6159
 4352SOL    HW217174   1.129   1.132   1.007  0.5831 -1.0500  1.2196
 4352SOL    HW317175   1.266   1.125   0.943  0.1281  0.4421  0.0190
 4352SOL    MW417176   1.189   1.089   0.961  0.2515  0.0206 -0.2900
 4353SOL     OW17177   1.394   5.982   3.964  0.4593 -0.2136 -0.2864
 4353SOL    HW217178   1.486   5.970   3.988  0.4542 -2.4159 -1.1276
 4353SOL    HW317179   1.396   6.050   3.896  1.2396  0.9583  0.8630
 4353SOL    MW417180   1.406   5.989   3.958  0.5616 -0.3496 -0.2457
 4354SOL     OW17181   0.518   6.091   1.282  0.5472  0.3101  0.3613
 4354SOL    HW217182   0.464   6.087   1.361  0.4517  3.3811  0.5816
 4354SOL    HW317183   0.457   6.079   1.210  0.6041 -2.3265  0.6553
 4354SOL    MW417184   0.503   6.089   1.283  0.5421  0.3674  0.4291
 4355SOL     OW17185   1.362   0.933   3.716 -0.1552  0.3964 -0.4179
 4355SOL    HW217186   1.410   0.950   3.635 -1.2920 -1.1647 -1.4806
 4355SOL    HW317187   1.318   0.849   3.701 -0.6256  0.1949  1.7291
 4355SOL    MW417188   1.362   0.924   3.703 -0.3672  0.1638 -0.2749
 4356SOL     OW17189   3.441   1.945   4.689  0.2722 -0.3435 -0.1906
 4356SOL    HW217190   3.362   1.910   4.730 -0.7084  1.5960 -0.3008
 4356SOL    HW317191   3.507   1.944   4.758 -0.2603 -0.6604  0.3258
 4356SOL    MW417192   3.439   1.940   4.703  0.0726 -0.1294 -0.1370
 4357SOL     OW17193   0.127   3.154   5.540 -0.1280 -0.1446 -0.7223
 4357SOL    HW217194   0.033   3.164   5.552 -0.0669 -0.5335  0.1732
 4357SOL    HW317195   0.154   3.093   5.608  0.7065 -0.3955 -1.2551
 4357SOL    MW417196   0.118   3.147   5.550 -0.0098 -0.2290 -0.6745
 4358SOL     OW17197   1.385   3.378   3.281 -0.2355 -0.2893 -0.3714
 4358SOL    HW217198   1.430   3.374   3.197 -1.0037 -1.9798 -0.7496
 4358SOL    HW317199   1.453   3.404   3.343 -0.1059  3.0736 -1.7429
 4358SOL    MW417200   1.400   3.381   3.279 -0.3197 -0.0686 -0.6022
 4359SOL     OW17201   0.583   3.441   4.704 -0.5202 -0.0182  0.1993
 4359SOL    HW217202   0.533   3.360   4.699  0.1567 -0.3963 -0.6416
 4359SOL    HW317203   0.572   3.481   4.617  2.1259 -1.0217 -0.6886
 4359SOL    MW417204   0.575   3.436   4.692 -0.0818 -0.2004 -0.0288
 4360SOL     OW17205   4.762   1.510   1.883  0.2494 -0.0303 -0.2405
 4360SOL    HW217206   4.803   1.586   1.925 -0.0856  0.3429 -0.5694
 4360SOL    HW317207   4.674   1.507   1.921 -0.4435  0.9734 -1.6836
 4360SOL    MW417208   4.756   1.520   1.894  0.1138  0.1514 -0.4743
 4361SOL     OW17209   2.275   4.288   0.520  0.7276 -0.0164 -0.6657
 4361SOL    HW217210   2.364   4.307   0.551  0.3709  1.1194 -0.2918
 4361SOL    HW317211   2.218   4.325   0.587 -0.0420  0.8267 -1.7694
 4361SOL    MW417212   2.279   4.295   0.533  0.5790  0.2447 -0.7620
 4362SOL     OW17213   3.770   1.843   3.004 -0.5286  0.4282 -0.6981
 4362SOL    HW217214   3.754   1.751   2.983 -1.9438  0.6387 -0.5885
 4362SOL    HW317215   3.866   1.850   3.006 -0.3966 -0.9309 -1.1580
 4362SOL    MW417216   3.781   1.832   3.002 -0.6979  0.2766 -0.7443
 4363SOL     OW17217   3.397   3.389   5.463 -0.3562 -0.8846  0.0963
 4363SOL    HW217218   3.477   3.347   5.431  0.4212 -0.0518  0.8981
 4363SOL    HW317219   3.424   3.477   5.487 -1.5816 -0.5068  0.1326
 4363SOL    MW417220   3.412   3.395   5.462 -0.4153 -0.7249  0.2069
 4364SOL     OW17221   5.221   4.125   2.464  0.0227 -0.2111  0.0132
 4364SOL    HW217222   5.192   4.197   2.519 -0.2445 -0.5712  0.3461
 4364SOL    HW317223   5.316   4.135   2.460 -0.0763  0.6493 -0.6306
 4364SOL    MW417224   5.229   4.136   2.470 -0.0256 -0.1451 -0.0278
 4365SOL     OW17225   2.259   1.286   1.037 -0.3903 -0.0517  0.3129
 4365SOL    HW217226   2.189   1.234   1.076 -3.0251  1.8641 -1.4916
 4365SOL    HW317227   2.225   1.376   1.037  0.2815  0.4188 -4.2444
 4365SOL    MW417228   2.246   1.291   1.042 -0.6493  0.2631 -0.5264
 4366SOL     OW17229   0.858   3.512   5.913 -0.0671  0.2768  0.8911
 4366SOL    HW217230   0.846   3.598   5.954  1.0666  1.0081 -0.2385
 4366SOL    HW317231   0.953   3.499   5.913 -0.2781 -1.7983  2.6370
 4366SOL    MW417232   0.869   3.522   5.919  0.0547  0.0995  0.9724
 4367SOL     OW17233   1.635   3.095   4.139  0.0417 -0.8097 -0.2684
 4367SOL    HW217234   1.547   3.130   4.148  0.2053 -0.5963  0.5848
 4367SOL    HW317235   1.682   3.162   4.089  0.2276 -0.0115  0.9467
 4367SOL    MW417236   1.630   3.108   4.134  0.0878 -0.6762  0.0045
 4368SOL     OW17237   6.405   4.652   1.628 -0.2017 -0.6389  0.1777
 4368SOL    HW217238   6.479   4.623   1.574  1.2142 -0.5225  1.9559
 4368SOL    HW317239   6.416   4.746   1.637 -1.7376 -0.2872 -1.1481
 4368SOL    MW417240   6.416   4.660   1.622 -0.2175 -0.5772  0.2374
 4369SOL     OW17241   3.012   4.323   4.279  0.7206  0.2767 -0.0025
 4369SOL    HW217242   2.991   4.304   4.187 -0.4927  1.9242 -0.1065
 4369SOL    HW317243   2.950   4.269   4.329  0.5014  0.3651 -0.1785
 4369SOL    MW417244   3.001   4.313   4.273  0.5316  0.5058 -0.0394
 4370SOL     OW17245   1.909   4.951   2.463  0.4311 -0.0052 -0.1615
 4370SOL    HW217246   1.846   4.902   2.517 -0.1506  1.4918  0.5742
 4370SOL    HW317247   1.855   4.995   2.398  0.9129 -0.0122 -0.5691
 4370SOL    MW417248   1.894   4.950   2.462  0.4179  0.1914 -0.1182
 4371SOL     OW17249   0.544   6.243   2.016  0.1159  0.5736  0.0177
 4371SOL    HW217250   0.581   6.155   2.023 -0.2367  0.3932 -0.3806
 4371SOL    HW317251   0.578   6.277   1.934  1.5321  1.4207  0.9172
 4371SOL    MW417252   0.553   6.236   2.006  0.2562  0.6616  0.0838
 4372SOL     OW17253   2.614   4.794   2.852 -0.6554  0.6055 -0.1403
 4372SOL    HW217254   2.537   4.787   2.909  0.7166  0.2156  1.7819
 4372SOL    HW317255   2.640   4.704   2.836  0.9278  0.6915  1.5338
 4372SOL    MW417256   2.607   4.782   2.858 -0.2655  0.5654  0.3342
 4373SOL     OW17257   1.003   2.755   4.144 -0.2306  0.2256  0.3504
 4373SOL    HW217258   0.928   2.698   4.163  0.1343 -0.2613  0.3535
 4373SOL    HW317259   1.066   2.697   4.101 -0.4148  0.9413 -0.9518
 4373SOL    MW417260   1.001   2.740   4.141 -0.2067  0.2558  0.1790
 4374SOL     OW17261   5.532   3.133   1.370 -0.4745 -0.1794 -0.6865
 4374SOL    HW217262   5.601   3.097   1.315 -0.7940 -0.8709 -0.6424
 4374SOL    HW317263   5.502   3.211   1.323 -1.1183 -1.0533 -1.7748
 4374SOL    MW417264   5.537   3.138   1.357 -0.6016 -0.3859 -0.8243
 4375SOL     OW17265   6.363   2.263   2.568 -0.0320  0.2595  0.0924
 4375SOL    HW217266   6.451   2.292   2.589 -1.1002  2.5082  1.8852
 4375SOL    HW317267   6.316   2.343   2.545 -1.4860 -0.9611 -1.4351
 4375SOL    MW417268   6.368   2.277   2.568 -0.3648  0.3951  0.1274
 4376SOL     OW17269   4.457   4.854   1.133  0.1678  0.4477 -0.1449
 4376SOL    HW217270   4.394   4.845   1.206  2.3846 -0.8565  1.7354
 4376SOL    HW317271   4.502   4.770   1.131  1.9136  1.3754 -1.3674
 4376SOL    MW417272   4.454   4.842   1.143  0.6906  0.3981 -0.0581
 4377SOL     OW17273   2.710   0.064   0.913 -0.1236 -0.1037 -0.4700
 4377SOL    HW217274   2.654   0.023   0.847 -1.8175  0.2683  0.6714
 4377SOL    HW317275   2.686   0.157   0.911  0.1076 -0.0125  0.3638
 4377SOL    MW417276   2.700   0.071   0.904 -0.3166 -0.0426 -0.2094
 4378SOL     OW17277   2.882   4.368   6.198  0.6263  0.1606  0.1205
 4378SOL    HW217278   2.850   4.435   6.259 -0.5358 -0.3025  0.0451
 4378SOL    HW317279   2.975   4.362   6.216  0.7600  1.8181  0.1167
 4378SOL    MW417280   2.890   4.376   6.209  0.4906  0.3182  0.1100
 4379SOL     OW17281   2.857   5.782   4.027  0.2882 -0.1647 -0.0692
 4379SOL    HW217282   2.829   5.842   4.097  2.5754  0.5506  0.3221
 4379SOL    HW317283   2.824   5.823   3.946  1.0990  1.2227  0.2675
 4379SOL    MW417284   2.849   5.796   4.025  0.6969  0.1127  0.0269
 4380SOL     OW17285   3.579   5.337   3.209  0.5545 -0.0912 -0.2157
 4380SOL    HW217286   3.596   5.405   3.144  0.1756 -0.5419 -0.7926
 4380SOL    HW317287   3.617   5.371   3.290  0.3647  0.8043 -0.4979
 4380SOL    MW417288   3.586   5.350   3.211  0.4795 -0.0325 -0.3290
 4381SOL     OW17289   5.086   4.448   0.026 -0.7706 -0.8759  0.2290
 4381SOL    HW217290   5.152   4.510  -0.004  1.0729 -1.0925  3.3148
 4381SOL    HW317291   5.120   4.363   0.001  0.4273 -1.0117  2.1107
 4381SOL    MW417292   5.099   4.445   0.019 -0.3694 -0.9224  0.8844
 4382SOL     OW17293   3.890   0.389   2.725  0.2476  0.0469  1.0507
 4382SOL    HW217294   3.983   0.404   2.709  0.1530 -0.9330 -0.6796
 4382SOL    HW317295   3.887   0.307   2.775  0.3071 -0.2939  0.5078
 4382SOL    MW417296   3.902   0.380   2.729  0.2430 -0.1273  0.7508
 4383SOL     OW17297   0.510   4.949   6.311  0.4086 -0.1155 -0.6165
 4383SOL    HW217298   0.506   4.935   6.217 -0.8625 -1.9611 -0.3461
 4383SOL    HW317299   0.484   4.864   6.349  2.1218  0.1837  1.4110
 4383SOL    MW417300   0.506   4.936   6.304  0.4669 -0.3195 -0.3133
 4384SOL     OW17301   5.876   4.443   2.742 -0.0240  0.0902  0.2333
 4384SOL    HW217302   5.842   4.378   2.681  0.9976 -1.0168  0.7907
 4384SOL    HW317303   5.893   4.394   2.822  1.1100  0.9635  0.5567
 4384SOL    MW417304   5.874   4.428   2.745  0.2604  0.0594  0.3495
 4385SOL     OW17305   6.102   2.064   3.829 -0.1363  0.3038 -0.1023
 4385SOL    HW217306   6.031   2.122   3.800 -0.3958 -0.5376 -1.1949
 4385SOL    HW317307   6.165   2.066   3.758 -0.1823 -0.8049 -0.1911
 4385SOL    MW417308   6.101   2.072   3.816 -0.1766  0.0465 -0.2582
 4386SOL     OW17309   5.048   1.045   0.368  0.0919  0.3772 -0.1324
 4386SOL    HW217310   5.107   1.023   0.296  0.6286  0.1231  0.3741
 4386SOL    HW317311   5.080   1.130   0.401  0.3094  0.1411  0.2748
 4386SOL    MW417312   5.060   1.054   0.363  0.1914  0.3125 -0.0119
 4387SOL     OW17313   0.749   3.134   6.071 -0.4592 -0.1705  0.0212
 4387SOL    HW217314   0.734   3.229   6.068  0.6418  0.0168 -1.5496
 4387SOL    HW317315   0.671   3.096   6.033 -0.0688  0.2843 -1.3103
 4387SOL    MW417316   0.737   3.142   6.065 -0.2624 -0.0858 -0.3617
 4388SOL     OW17317   6.143   5.893   2.348  0.1730  0.0364  0.3918
 4388SOL    HW217318   6.048   5.906   2.340  0.0107 -2.0666 -2.5742
 4388SOL    HW317319   6.152   5.824   2.414 -0.7839 -2.4968 -1.9273
 4388SOL    MW417320   6.131   5.886   2.356  0.0253 -0.5753 -0.3055
 4389SOL     OW17321   5.315   3.232   2.779 -0.0745  0.3149 -0.3431
 4389SOL    HW217322   5.223   3.256   2.790 -0.1296 -0.3917  0.8643
 4389SOL    HW317323   5.363   3.299   2.829  0.0206  0.3239 -0.4472
 4389SOL    MW417324   5.309   3.244   2.787 -0.0692  0.2229 -0.1975
 4390SOL     OW17325   0.229   5.519   1.892  0.0661  0.6590 -0.3488
 4390SOL    HW217326   0.153   5.462   1.880  0.2309  0.2952  0.2913
 4390SOL    HW317327   0.213   5.593   1.833 -0.0200 -0.1621 -1.3868
 4390SOL    MW417328   0.217   5.521   1.882  0.0765  0.5027 -0.4013
 4391SOL     OW17329   4.154   0.712   2.734 -0.0459 -0.3639 -0.0847
 4391SOL    HW217330   4.108   0.652   2.794  2.0730 -0.7907  1.1883
 4391SOL    HW317331   4.137   0.799   2.770 -0.3701 -0.4533 -0.0087
 4391SOL    MW417332   4.145   0.715   2.747  0.1909 -0.4320  0.0933
 4392SOL     OW17333   4.725   0.959   5.910  0.3833  0.2325  0.9138
 4392SOL    HW217334   4.722   0.926   5.820 -0.4548  2.1867  0.1765
 4392SOL    HW317335   4.807   1.007   5.916 -0.2572  1.3831  0.6913
 4392SOL    MW417336   4.736   0.961   5.899  0.1882  0.6422  0.7871
 4393SOL     OW17337   1.186   4.305   0.424 -0.3429 -0.2959  0.3344
 4393SOL    HW217338   1.247   4.243   0.464  0.2324  1.2078  1.8661
 4393SOL    HW317339   1.208   4.389   0.463 -0.1249  1.2035 -2.7702
 4393SOL    MW417340   1.197   4.308   0.434 -0.2382  0.1003  0.1269
 4394SOL     OW17341   3.840   3.495   5.807  0.0610  0.5013  0.4710
 4394SOL    HW217342   3.795   3.553   5.867 -0.6489  0.2620  0.1865
 4394SOL    HW317343   3.933   3.507   5.826 -0.1605  0.1148  1.9008
 4394SOL    MW417344   3.846   3.504   5.817 -0.0619  0.4188  0.6221
 4395SOL     OW17345   1.661   3.481   1.083  0.3963  0.2245 -0.3820
 4395SOL    HW217346   1.627   3.392   1.096  1.9501 -0.5424 -1.3002
 4395SOL    HW317347   1.604   3.519   1.017 -0.4897  0.0483  0.2619
 4395SOL    MW417348   1.649   3.474   1.076  0.4844  0.1001 -0.4182
 4396SOL     OW17349   3.142   0.474   3.837  0.3573  0.4467 -0.7148
 4396SOL    HW217350   3.174   0.557   3.875  2.7870 -1.2441  1.2901
 4396SOL    HW317351   3.086   0.437   3.905  0.8464 -0.3974 -0.7517
 4396SOL    MW417352   3.139   0.480   3.851  0.7424  0.1123 -0.4551
 4397SOL     OW17353   6.094   2.775   3.570  0.0500 -0.4277 -0.3670
 4397SOL    HW217354   6.032   2.725   3.516  0.0888 -0.1354 -0.6839
 4397SOL    HW317355   6.077   2.745   3.659  0.6336 -1.6181 -0.6291
 4397SOL    MW417356   6.083   2.765   3.575  0.1321 -0.5462 -0.4434
 4398SOL     OW17357   4.213   6.408   2.029 -0.0117  0.2413  0.2285
 4398SOL    HW217358   4.231   6.478   1.966 -0.8622 -0.1444 -0.4739
 4398SOL    HW317359   4.123   6.425   2.059  0.3916  0.4365  1.3719
 4398SOL    MW417360   4.203   6.419   2.024 -0.0707  0.2162  0.2867
 4399SOL     OW17361   0.711   0.128   2.347 -0.1026 -0.1254 -1.1321
 4399SOL    HW217362   0.727   0.070   2.273  0.8650 -1.1997 -0.1280
 4399SOL    HW317363   0.691   0.070   2.420  0.8103  0.7738 -0.1085
 4399SOL    MW417364   0.711   0.113   2.347  0.1455 -0.1485 -0.8645
 4400SOL     OW17365   3.852   4.871   1.322 -0.4630  0.0103  0.3959
 4400SOL    HW217366   3.914   4.801   1.343  0.5076  1.0560  1.1531
 4400SOL    HW317367   3.766   4.828   1.322  0.1513 -1.2608  0.3498
 4400SOL    MW417368   3.849   4.856   1.325 -0.2539 -0.0194  0.4897
 4401SOL     OW17369   4.626   4.551   0.638  0.5972  0.0022 -0.0201
 4401SOL    HW217370   4.690   4.583   0.701 -0.0100 -0.8191  1.0568
 4401SOL    HW317371   4.542   4.555   0.685  0.2237 -1.2557 -0.5248
 4401SOL    MW417372   4.623   4.556   0.652  0.4678 -0.2721  0.0554
 4402SOL     OW17373   3.378   0.627   1.554 -0.1914  0.0921  0.2109
 4402SOL    HW217374   3.342   0.706   1.513 -0.4561 -0.7381 -1.2216
 4402SOL    HW317375   3.469   0.624   1.524 -0.6006 -0.9434 -1.0538
 4402SOL    MW417376   3.385   0.637   1.544 -0.2803 -0.1541 -0.1450
 4403SOL     OW17377   1.372   2.053   4.276 -0.0376 -0.3131 -0.0547
 4403SOL    HW217378   1.421   2.084   4.352 -0.1269 -0.5825  0.1131
 4403SOL    HW317379   1.332   2.132   4.239 -2.1572 -0.4631  1.6991
 4403SOL    MW417380   1.373   2.067   4.281 -0.3290 -0.3684  0.1988
 4404SOL     OW17381   2.465   5.715   0.408 -0.6691  1.0387  0.1777
 4404SOL    HW217382   2.381   5.740   0.369 -0.1066  1.7147 -0.6546
 4404SOL    HW317383   2.505   5.798   0.434 -1.1828  0.5958  2.6121
 4404SOL    MW417384   2.460   5.729   0.406 -0.6627  1.0695  0.3891
 4405SOL     OW17385   5.310   4.353   4.163 -0.4190  0.1506  0.6989
 4405SOL    HW217386   5.283   4.268   4.130 -0.1074  0.0367  0.7404
 4405SOL    HW317387   5.229   4.391   4.200 -1.0874  0.8436 -1.3524
 4405SOL    MW417388   5.295   4.347   4.164 -0.4661  0.2270  0.4337
 4406SOL     OW17389   2.847   1.604   1.113  0.4156  0.2014 -0.3752
 4406SOL    HW217390   2.763   1.650   1.122 -0.4100 -1.4764  1.0593
 4406SOL    HW317391   2.881   1.597   1.202  1.9868  0.6002 -0.9042
 4406SOL    MW417392   2.840   1.609   1.126  0.5140  0.0327 -0.2557
 4407SOL     OW17393   3.964   2.568   5.150  0.3536 -0.2026 -0.3189
 4407SOL    HW217394   4.051   2.557   5.114 -0.2419  1.0809 -2.3026
 4407SOL    HW317395   3.957   2.662   5.170 -0.6061 -0.2626 -0.2831
 4407SOL    MW417396   3.974   2.579   5.148  0.1484 -0.0412 -0.5759
 4408SOL     OW17397   4.947   1.470   4.996  0.0474 -0.7819 -0.1422
 4408SOL    HW217398   4.900   1.502   5.074 -1.0694 -1.3536 -0.5550
 4408SOL    HW317399   4.877   1.442   4.937  0.8931 -0.5027 -1.2924
 4408SOL    MW417400   4.931   1.471   4.999  0.0116 -0.8205 -0.3484
 4409SOL     OW17401   5.713   5.341   6.072  0.5816 -0.1575 -0.7551
 4409SOL    HW217402   5.686   5.397   6.000  3.2112 -0.1820 -1.8762
 4409SOL    HW317403   5.797   5.378   6.102 -0.0160 -0.6306  1.7857
 4409SOL    MW417404   5.721   5.353   6.067  0.8497 -0.2232 -0.5678
 4410SOL     OW17405   1.937   3.615   3.673  0.6326 -0.2388 -0.8002
 4410SOL    HW217406   1.886   3.695   3.676  1.5417  0.3475 -0.5502
 4410SOL    HW317407   1.908   3.570   3.594 -0.8394 -0.3308 -0.2479
 4410SOL    MW417408   1.926   3.619   3.663  0.5583 -0.1736 -0.6943
 4411SOL     OW17409   3.124   5.561   1.174  0.6307  0.8205  0.1452
 4411SOL    HW217410   3.058   5.573   1.106 -0.1165  2.3738  1.0838
 4411SOL    HW317411   3.091   5.611   1.249  1.4583 -0.7783  1.6452
 4411SOL    MW417412   3.111   5.569   1.175  0.6413  0.8145  0.4670
 4412SOL     OW17413   4.554   6.416   6.392 -0.2393 -0.3644 -0.3179
 4412SOL    HW217414   4.604   6.481   6.442 -2.8925  1.6324 -0.0535
 4412SOL    HW317415   4.600   6.411   6.308  0.0673  1.9399 -0.3625
 4412SOL    MW417416   4.567   6.424   6.387 -0.5489  0.2031 -0.2889
 4413SOL     OW17417   2.582   3.624   2.192 -0.1297 -0.1413  0.2962
 4413SOL    HW217418   2.649   3.645   2.127 -2.1330 -1.4792 -2.4539
 4413SOL    HW317419   2.585   3.528   2.200 -1.3620 -0.1900  0.4393
 4413SOL    MW417420   2.591   3.614   2.184 -0.5566 -0.3242 -0.0478
 4414SOL     OW17421   3.282   4.640   5.115 -0.0612 -0.5207 -0.1283
 4414SOL    HW217422   3.252   4.632   5.205 -0.8417 -0.8513 -0.4081
 4414SOL    HW317423   3.201   4.649   5.064  0.3583 -0.6254 -0.8200
 4414SOL    MW417424   3.267   4.640   5.120 -0.1089 -0.5781 -0.2565
 4415SOL     OW17425   6.150   1.755   3.298 -0.0066  0.4190 -0.3857
 4415SOL    HW217426   6.231   1.711   3.271 -0.8355 -0.8078 -0.9134
 4415SOL    HW317427   6.085   1.730   3.233 -0.7429  1.6764 -0.1639
 4415SOL    MW417428   6.152   1.746   3.286 -0.2131  0.4231 -0.4261
 4416SOL     OW17429   0.782   6.152   1.237 -0.2927 -0.0305 -0.0933
 4416SOL    HW217430   0.715   6.086   1.219 -1.6972  1.6260 -1.2323
 4416SOL    HW317431   0.857   6.101   1.268 -1.3854 -2.1363 -0.6702
 4416SOL    MW417432   0.783   6.136   1.238 -0.6222 -0.0898 -0.3197
 4417SOL     OW17433   4.382   1.292   3.127  0.3452 -0.6933 -0.0865
 4417SOL    HW217434   4.286   1.284   3.127  0.4345 -2.3232  1.3598
 4417SOL    HW317435   4.412   1.211   3.086  1.1405  0.5403 -2.1125
 4417SOL    MW417436   4.373   1.280   3.122  0.4619 -0.7456 -0.1630
 4418SOL     OW17437   1.226   2.544   1.146 -0.1620  0.4019  0.2107
 4418SOL    HW217438   1.200   2.622   1.195 -0.0207  0.3095  0.4356
 4418SOL    HW317439   1.234   2.574   1.056 -1.3883  0.3611  0.0627
 4418SOL    MW417440   1.223   2.558   1.141 -0.3051  0.3843  0.2209
 4419SOL     OW17441   2.733   3.794   3.417 -0.1670  0.0180  0.3809
 4419SOL    HW217442   2.733   3.855   3.343 -0.2735 -0.6941 -0.2151
 4419SOL    HW317443   2.795   3.725   3.391 -1.9034 -1.4520 -0.0845
 4419SOL    MW417444   2.742   3.793   3.404 -0.4101 -0.2699  0.2409
 4420SOL     OW17445   5.522   0.598   1.978  0.5245 -0.0024 -0.2391
 4420SOL    HW217446   5.549   0.508   1.998 -0.4054 -0.1492  0.4079
 4420SOL    HW317447   5.460   0.620   2.047  1.4593  1.4852  0.1594
 4420SOL    MW417448   5.518   0.589   1.990  0.5252  0.1745 -0.1011
 4421SOL     OW17449   6.302   6.331   6.404 -0.2162  0.6814 -0.7505
 4421SOL    HW217450   6.363   6.404   6.401  0.7508 -0.1324 -1.8429
 4421SOL    HW317451   6.346   6.264   6.456  0.0018 -0.0249 -1.8010
 4421SOL    MW417452   6.316   6.332   6.410 -0.0598  0.4809 -1.0332
 4422SOL     OW17453   2.085   0.210   1.308  0.3928 -0.1037  0.3443
 4422SOL    HW217454   1.998   0.225   1.271  1.1953  1.1339 -1.1398
 4422SOL    HW317455   2.095   0.275   1.377  0.6106  0.6136 -0.3517
 4422SOL    MW417456   2.075   0.220   1.312  0.5274  0.1542  0.0566
 4423SOL     OW17457   0.402   1.153   2.859 -0.1083  0.3262  0.1103
 4423SOL    HW217458   0.428   1.069   2.896  0.9967  0.6968  0.2001
 4423SOL    HW317459   0.306   1.153   2.867 -0.1427 -0.9831 -0.0538
 4423SOL    MW417460   0.393   1.142   2.865  0.0330  0.2023  0.1005
 4424SOL     OW17461   1.752   2.107   1.945 -0.2135  0.2353  0.2994
 4424SOL    HW217462   1.706   2.075   1.867 -0.5916  2.0887 -0.2831
 4424SOL    HW317463   1.727   2.198   1.952  2.2453  0.9525  0.7910
 4424SOL    MW417464   1.743   2.114   1.936  0.0610  0.5745  0.2874
 4425SOL     OW17465   1.501   1.489   0.548 -0.2786 -0.4734  0.3575
 4425SOL    HW217466   1.459   1.574   0.536  1.3091  0.1329 -1.4259
 4425SOL    HW317467   1.439   1.426   0.509 -1.1636 -0.0797  1.1000
 4425SOL    MW417468   1.487   1.492   0.541 -0.1859 -0.3415  0.2202
 4426SOL     OW17469   4.679   2.220   0.740 -0.0405  0.1965  0.1943
 4426SOL    HW217470   4.767   2.196   0.710 -0.6347 -1.0528 -0.5961
 4426SOL    HW317471   4.694   2.292   0.801  1.6572 -0.9342  1.1944
 4426SOL    MW417472   4.693   2.227   0.744  0.1051 -0.1175  0.2220
 4427SOL     OW17473   2.608   3.251   5.161  0.1373 -0.5152  0.1831
 4427SOL    HW217474   2.527   3.281   5.203  0.6317  2.4218 -0.7613
 4427SOL    HW317475   2.678   3.283   5.218  0.6916  0.0284 -0.7661
 4427SOL    MW417476   2.606   3.259   5.174  0.2757 -0.0560 -0.0667
 4428SOL     OW17477   4.422   0.412   4.647 -0.1675  0.4828  0.1680
 4428SOL    HW217478   4.453   0.501   4.631  1.0624 -0.0524 -0.6276
 4428SOL    HW317479   4.494   0.370   4.695  0.2123 -0.6647 -1.3142
 4428SOL    MW417480   4.436   0.418   4.651  0.0449  0.2608 -0.1325
 4429SOL     OW17481   1.827   1.898   3.872  0.2553 -0.0962  0.4726
 4429SOL    HW217482   1.748   1.937   3.911  1.2282  0.2424  2.2022
 4429SOL    HW317483   1.863   1.843   3.941  1.8052  0.1464 -0.1123
 4429SOL    MW417484   1.821   1.896   3.886  0.5882 -0.0195  0.6236
 4430SOL     OW17485   1.678   1.781   3.182 -0.0041 -0.4988 -0.5747
 4430SOL    HW217486   1.658   1.818   3.095  0.1923  0.3690 -0.2622
 4430SOL    HW317487   1.621   1.829   3.242  2.7007  1.8987  0.3159
 4430SOL    MW417488   1.668   1.793   3.178  0.3786 -0.0680 -0.4160
 4431SOL     OW17489   1.506   6.177   4.571 -0.1416  0.2369 -0.0516
 4431SOL    HW217490   1.451   6.105   4.542 -0.4186  0.2105  0.5255
 4431SOL    HW317491   1.471   6.202   4.656  0.2056  0.7859 -0.0595
 4431SOL    MW417492   1.494   6.171   4.578 -0.1323  0.3058  0.0235
 4432SOL     OW17493   0.425   5.268   1.501  0.0257 -0.0550 -0.0463
 4432SOL    HW217494   0.362   5.330   1.463 -0.3982  0.2181  1.0367
 4432SOL    HW317495   0.506   5.283   1.453 -0.3406  0.6539 -0.4584
 4432SOL    MW417496   0.427   5.278   1.490 -0.0786  0.0745  0.0422
 4433SOL     OW17497   5.631   4.600   2.786  0.0839 -0.0326  0.0904
 4433SOL    HW217498   5.596   4.529   2.840 -1.7105 -0.1184 -1.0808
 4433SOL    HW317499   5.668   4.556   2.710  2.4644  0.0974  1.0901
 4433SOL    MW417500   5.631   4.584   2.783  0.1612 -0.0267  0.0678
 4434SOL     OW17501   2.173   2.185   2.193 -0.3570  0.0371 -0.2572
 4434SOL    HW217502   2.225   2.246   2.246  1.3344  0.9089 -2.7405
 4434SOL    HW317503   2.186   2.100   2.235  1.9824  0.4619  0.0454
 4434SOL    MW417504   2.182   2.182   2.205  0.1748  0.2082 -0.5449
 4435SOL     OW17505   0.207   4.634   0.737 -0.7194  0.6514 -0.1995
 4435SOL    HW217506   0.217   4.661   0.828 -0.0800 -1.3560  0.3669
 4435SOL    HW317507   0.122   4.590   0.734 -0.9253  1.0662 -0.6899
 4435SOL    MW417508   0.197   4.632   0.748 -0.6622  0.4413 -0.1895
 4436SOL     OW17509   0.868   4.851   3.612 -0.4468 -0.2695 -0.0765
 4436SOL    HW217510   0.850   4.942   3.632  1.3768  0.2826 -0.6977
 4436SOL    HW317511   0.806   4.829   3.543 -1.6599  0.1296  0.8565
 4436SOL    MW417512   0.857   4.860   3.606 -0.3663 -0.1440 -0.0353
 4437SOL     OW17513   6.130   3.443   0.818 -0.2159  0.5113  0.1692
 4437SOL    HW217514   6.131   3.398   0.902  1.5154 -0.8110 -0.4978
 4437SOL    HW317515   6.111   3.375   0.754 -0.2877  1.2509 -0.6245
 4437SOL    MW417516   6.128   3.428   0.820  0.0030  0.4344 -0.0235
 4438SOL     OW17517   5.520   5.024   1.757 -0.2649  0.0812  0.7905
 4438SOL    HW217518   5.555   5.025   1.846  0.7657  3.2349  0.4635
 4438SOL    HW317519   5.594   4.998   1.702 -0.0312  1.0634  0.6221
 4438SOL    MW417520   5.534   5.021   1.761 -0.0981  0.6269  0.7252
 4439SOL     OW17521   3.335   2.371   0.393  0.7088  0.1413  0.2005
 4439SOL    HW217522   3.404   2.411   0.447  1.1505 -0.8904  0.4230
 4439SOL    HW317523   3.382   2.312   0.334  0.1846  0.8929 -1.0129
 4439SOL    MW417524   3.350   2.369   0.392  0.6979  0.1044  0.0698
 4440SOL     OW17525   1.715   5.065   3.120 -0.1380 -0.4322  0.0567
 4440SOL    HW217526   1.709   5.081   3.026 -0.5091  0.0853  0.1602
 4440SOL    HW317527   1.784   5.000   3.130  0.7171  0.3619 -0.4897
 4440SOL    MW417528   1.724   5.059   3.109 -0.0741 -0.2592 -0.0017
 4441SOL     OW17529   4.903   0.353   5.775 -0.0218 -0.4540 -0.4184
 4441SOL    HW217530   4.961   0.357   5.851 -0.3660 -2.3581 -0.0080
 4441SOL    HW317531   4.830   0.411   5.798 -0.3561 -1.3579  0.9393
 4441SOL    MW417532   4.901   0.361   5.788 -0.1113 -0.8245 -0.1851
 4442SOL     OW17533   3.641   2.634   4.719  0.2588  0.1160  0.1106
 4442SOL    HW217534   3.591   2.676   4.649  0.2801 -2.4025 -1.5772
 4442SOL    HW317535   3.576   2.615   4.787 -0.2517  0.4726 -0.2696
 4442SOL    MW417536   3.626   2.637   4.719  0.1942 -0.1693 -0.1622
 4443SOL     OW17537   5.042   0.658   0.292  0.2034 -0.2062  0.0342
 4443SOL    HW217538   5.113   0.698   0.341 -0.1754  0.3248  0.1616
 4443SOL    HW317539   5.029   0.717   0.217  0.7970 -1.0223 -0.7258
 4443SOL    MW417540   5.049   0.671   0.289  0.2318 -0.2439 -0.0493
 4444SOL     OW17541   5.067   4.462   2.399 -0.0098  0.2048 -0.3457
 4444SOL    HW217542   5.039   4.522   2.330 -0.6808 -0.6022 -0.8006
 4444SOL    HW317543   5.062   4.375   2.358 -0.8515 -0.3340  0.8570
 4444SOL    MW417544   5.063   4.458   2.384 -0.2094  0.0272 -0.2470
 4445SOL     OW17545   3.322   4.306   0.165  0.6002  0.6503 -0.1735
 4445SOL    HW217546   3.279   4.246   0.104  0.7553  0.6392 -0.2723
 4445SOL    HW317547   3.305   4.268   0.252  0.9903  0.2734 -0.2574
 4445SOL    MW417548   3.314   4.293   0.169  0.6721  0.5991 -0.1976
 4446SOL     OW17549   1.312   4.062   1.189  0.1225  0.1451 -0.0735
 4446SOL    HW217550   1.242   4.019   1.238 -0.2886  1.9174  0.9905
 4446SOL    HW317551   1.384   3.998   1.189 -1.1140 -1.2998 -0.3068
 4446SOL    MW417552   1.312   4.048   1.195 -0.0949  0.1883  0.0361
 4447SOL     OW17553   3.552   3.140   4.373  0.2596  0.2805 -0.4127
 4447SOL    HW217554   3.647   3.140   4.390  0.7862  2.1618 -2.7237
 4447SOL    HW317555   3.529   3.233   4.372 -0.9071  0.0511 -3.0352
 4447SOL    MW417556   3.562   3.152   4.375  0.1751  0.4985 -1.0636
 4448SOL     OW17557   5.839   1.902   3.225  0.2515 -0.7423 -0.3706
 4448SOL    HW217558   5.769   1.967   3.232 -0.7744 -1.8186 -0.2576
 4448SOL    HW317559   5.896   1.936   3.156  0.1315  0.6195  0.1772
 4448SOL    MW417560   5.837   1.915   3.216  0.1003 -0.7046 -0.2834
 4449SOL     OW17561   1.867   5.612   1.091  0.6108 -0.3851 -0.7150
 4449SOL    HW217562   1.957   5.590   1.064  0.6128 -1.4594  0.1020
 4449SOL    HW317563   1.843   5.685   1.035  2.5096  0.8817  0.0210
 4449SOL    MW417564   1.876   5.619   1.080  0.8616 -0.3597 -0.5101
 4450SOL     OW17565   2.608   2.207   2.264 -0.5581 -0.5993  0.3496
 4450SOL    HW217566   2.583   2.143   2.332  1.1030 -0.4360  1.1651
 4450SOL    HW317567   2.573   2.290   2.295  0.5452 -0.4479  1.2778
 4450SOL    MW417568   2.600   2.209   2.277 -0.1934 -0.5578  0.5797
 4451SOL     OW17569   4.668   1.090   5.425  0.7560  0.5257  0.3015
 4451SOL    HW217570   4.590   1.144   5.424  1.3304  1.3750  0.2454
 4451SOL    HW317571   4.669   1.048   5.339 -1.3084 -2.0132  1.3825
 4451SOL    MW417572   4.658   1.091   5.414  0.5594  0.3028  0.4367
 4452SOL     OW17573   5.718   1.219   3.311 -0.0936  0.0551 -0.8400
 4452SOL    HW217574   5.674   1.138   3.337 -1.1278  0.7676 -0.2928
 4452SOL    HW317575   5.658   1.258   3.248  0.5222  0.2819 -1.2907
 4452SOL    MW417576   5.704   1.213   3.306 -0.1488  0.1790 -0.8273
 4453SOL     OW17577   4.236   4.584   3.389  0.5069 -0.0993 -0.0704
 4453SOL    HW217578   4.158   4.569   3.336 -0.1499  2.3926  0.1162
 4453SOL    HW317579   4.203   4.600   3.477  1.1735  1.4012 -0.0772
 4453SOL    MW417580   4.222   4.584   3.393  0.5082  0.4274 -0.0467
 4454SOL     OW17581   2.404   4.133   5.150 -0.3995 -0.3218 -0.0467
 4454SOL    HW217582   2.462   4.071   5.193 -0.8469 -0.9485 -0.3385
 4454SOL    HW317583   2.463   4.197   5.109  0.0365 -0.0583  0.9774
 4454SOL    MW417584   2.419   4.133   5.150 -0.4010 -0.3697  0.0499
 4455SOL     OW17585   1.636   5.453   4.811 -0.0282  0.5691 -0.3280
 4455SOL    HW217586   1.594   5.381   4.858  0.8475 -0.5092 -1.1443
 4455SOL    HW317587   1.605   5.444   4.721  0.7229  0.7185 -0.6102
 4455SOL    MW417588   1.626   5.443   4.805  0.1865  0.4465 -0.4729
 4456SOL     OW17589   4.278   2.145   5.913  0.4663  0.1494  0.7062
 4456SOL    HW217590   4.351   2.124   5.970  1.6162  0.9213 -0.4262
 4456SOL    HW317591   4.294   2.235   5.885 -1.2758  0.5704  0.9408
 4456SOL    MW417592   4.290   2.154   5.917  0.3881  0.3068  0.5877
 4457SOL     OW17593   5.779   3.380   4.483  0.4870  0.2017  0.4454
 4457SOL    HW217594   5.838   3.326   4.535  1.6732 -0.2952 -1.3395
 4457SOL    HW317595   5.822   3.389   4.398 -0.7048  2.1701 -0.0190
 4457SOL    MW417596   5.792   3.374   4.479  0.4863  0.3959  0.1486
 4458SOL     OW17597   4.937   0.598   5.012 -0.7036  0.1001 -0.8565
 4458SOL    HW217598   4.870   0.568   4.951  0.0217 -1.9467 -0.7555
 4458SOL    HW317599   4.908   0.564   5.097  0.2001 -0.4056 -0.7346
 4458SOL    MW417600   4.924   0.589   5.015 -0.4887 -0.2367 -0.8271
 4459SOL     OW17601   2.572   1.394   1.499 -0.2903 -0.0049  0.5408
 4459SOL    HW217602   2.509   1.422   1.433  0.0861  0.6375  0.4479
 4459SOL    HW317603   2.556   1.452   1.574  0.9585  0.9641  0.0999
 4459SOL    MW417604   2.562   1.406   1.501 -0.0759  0.2077  0.4704
 4460SOL     OW17605   1.988   2.753   3.677  0.4833  0.2967  0.0884
 4460SOL    HW217606   2.005   2.718   3.589  1.4138 -1.3474  0.8770
 4460SOL    HW317607   2.049   2.706   3.734  0.4218  1.8558  1.5309
 4460SOL    MW417608   1.999   2.742   3.673  0.5980  0.2855  0.3827
 4461SOL     OW17609   1.661   0.742   4.459  0.1788 -0.2772 -0.0335
 4461SOL    HW217610   1.614   0.752   4.377  2.5317  1.1848 -1.3079
 4461SOL    HW317611   1.736   0.685   4.438  0.0156 -1.1288  1.4923
 4461SOL    MW417612   1.665   0.736   4.445  0.4677 -0.1967 -0.0004
 4462SOL     OW17613   2.999   1.144   3.494  0.4334 -0.1724 -0.1287
 4462SOL    HW217614   3.021   1.092   3.571  1.9940  0.7283  0.0631
 4462SOL    HW317615   2.948   1.217   3.528  0.3149 -0.2779 -0.0784
 4462SOL    MW417616   2.995   1.147   3.508  0.6236 -0.0675 -0.0968
 4463SOL     OW17617   5.074   4.141   3.510  0.0511  0.3150  0.5555
 4463SOL    HW217618   5.045   4.196   3.583  0.2287 -1.0930  1.7540
 4463SOL    HW317619   5.027   4.175   3.434 -0.2444  1.7570  1.3410
 4463SOL    MW417620   5.064   4.153   3.510  0.0355  0.3195  0.8173
 4464SOL     OW17621   1.871   3.411   0.864  0.3094  0.3395 -0.0375
 4464SOL    HW217622   1.793   3.427   0.917  1.6790  0.0372  2.2041
 4464SOL    HW317623   1.850   3.450   0.779 -1.6960  1.6020  0.9391
 4464SOL    MW417624   1.858   3.418   0.860  0.2255  0.4662  0.3871
 4465SOL     OW17625   2.133   4.499   0.345 -0.4501  0.2224  0.1149
 4465SOL    HW217626   2.168   4.416   0.377 -0.0624 -0.3770 -1.7620
 4465SOL    HW317627   2.040   4.497   0.369 -0.4094 -0.6730  0.2280
 4465SOL    MW417628   2.125   4.488   0.353 -0.3936  0.0252 -0.1178
 4466SOL     OW17629   6.207   2.661   1.132  0.4324 -0.6214  0.1861
 4466SOL    HW217630   6.208   2.733   1.069 -1.6479 -0.4983  0.2260
 4466SOL    HW317631   6.278   2.603   1.104  0.2471 -0.0233 -1.5989
 4466SOL    MW417632   6.217   2.663   1.120  0.1335 -0.5263 -0.0441
 4467SOL     OW17633   0.677   2.850   0.320  0.0757 -0.0572 -0.4472
 4467SOL    HW217634   0.659   2.936   0.281  0.3970  0.1286 -0.1881
 4467SOL    HW317635   0.740   2.868   0.390 -1.2894 -0.2301  0.8765
 4467SOL    MW417636   0.683   2.864   0.324 -0.0620 -0.0555 -0.2384
 4468SOL     OW17637   0.185   2.758   3.655  0.1183  0.2398 -0.1647
 4468SOL    HW217638   0.278   2.749   3.634  0.3305 -1.3686  1.2557
 4468SOL    HW317639   0.140   2.707   3.587  0.4496 -0.7357  0.3206
 4468SOL    MW417640   0.192   2.750   3.643  0.1900 -0.1011  0.0867
 4469SOL     OW17641   2.671   6.085   3.159 -0.1648 -0.0213  0.2789
 4469SOL    HW217642   2.642   6.172   3.131  0.9217 -0.1558 -1.5094
 4469SOL    HW317643   2.669   6.033   3.078 -1.6454 -1.9415  1.4813
 4469SOL    MW417644   2.667   6.090   3.144 -0.2168 -0.2924  0.2016
 4470SOL     OW17645   2.708   1.601   0.623  0.2586 -0.0188  0.0216
 4470SOL    HW217646   2.781   1.562   0.574 -1.4098  0.5382 -3.1715
 4470SOL    HW317647   2.748   1.675   0.670  2.1113 -1.1213  0.2952
 4470SOL    MW417648   2.723   1.606   0.623  0.2829 -0.0908 -0.3636
 4471SOL     OW17649   3.447   0.228   1.696 -0.2060 -0.0845  0.6423
 4471SOL    HW217650   3.432   0.312   1.740  0.4791 -0.2151  1.1415
 4471SOL    HW317651   3.370   0.217   1.639 -0.4123  0.7692  0.7357
 4471SOL    MW417652   3.435   0.238   1.694 -0.1428  0.0109  0.7205
 4472SOL     OW17653   3.436   5.898   2.072 -0.1576  0.0472 -0.4583
 4472SOL    HW217654   3.481   5.876   1.990  1.4748 -0.4176  0.5253
 4472SOL    HW317655   3.362   5.837   2.075  1.8467 -2.5566  0.1270
 4472SOL    MW417656   3.432   5.887   2.062  0.3222 -0.3577 -0.2513
 4473SOL     OW17657   4.766   6.061   1.323 -0.1126 -0.1064  0.7290
 4473SOL    HW217658   4.774   6.001   1.248  0.9054 -0.9330  1.4786
 4473SOL    HW317659   4.680   6.041   1.360  0.6574 -1.9737  1.6545
 4473SOL    MW417660   4.756   6.050   1.318  0.1233 -0.4618  0.9500
 4474SOL     OW17661   2.713   0.337   1.883 -0.6613 -0.6696 -0.3536
 4474SOL    HW217662   2.710   0.243   1.862 -1.1374 -0.2348 -2.3887
 4474SOL    HW317663   2.625   0.369   1.862  0.1439  0.6572 -1.8489
 4474SOL    MW417664   2.701   0.328   1.878 -0.6179 -0.4372 -0.8194
 4475SOL     OW17665   0.085   5.165   4.069  0.5386 -0.2005  0.2022
 4475SOL    HW217666   0.056   5.145   3.980 -1.2951  1.1766  0.4120
 4475SOL    HW317667   0.180   5.163   4.065  0.5272  0.7655 -2.0669
 4475SOL    MW417668   0.094   5.162   4.057  0.2952  0.1086 -0.0695
 4476SOL     OW17669   3.428   2.723   5.468  0.3938 -0.4648 -0.1925
 4476SOL    HW217670   3.431   2.818   5.481 -0.4834 -0.5148  0.4014
 4476SOL    HW317671   3.464   2.687   5.548 -0.8646 -0.6697  0.2900
 4476SOL    MW417672   3.433   2.731   5.480  0.1120 -0.4984 -0.0505
 4477SOL     OW17673   6.149   3.997   5.837 -0.5308  0.1230  0.3402
 4477SOL    HW217674   6.239   4.027   5.850 -0.3156 -0.1075 -0.5603
 4477SOL    HW317675   6.133   3.939   5.912 -0.4599  1.3147  1.3117
 4477SOL    MW417676   6.159   3.993   5.849 -0.4930  0.2498  0.3496
 4478SOL     OW17677   2.314   1.687   3.410 -0.2423 -0.1771  0.1342
 4478SOL    HW217678   2.220   1.704   3.399 -0.4335 -1.1383  0.1824
 4478SOL    HW317679   2.357   1.756   3.360 -0.9773  0.2745  0.1084
 4478SOL    MW417680   2.307   1.698   3.402 -0.3645 -0.2443  0.1371
 4479SOL     OW17681   0.859   6.323   5.103  0.0931  0.0173 -0.2503
 4479SOL    HW217682   0.880   6.416   5.101 -1.8890  0.5104  0.3445
 4479SOL    HW317683   0.856   6.301   5.196  0.4508 -0.6438 -0.3855
 4479SOL    MW417684   0.862   6.332   5.115 -0.1212 -0.0049 -0.1897
 4480SOL     OW17685   0.935   2.564   2.823 -0.1452 -0.0822 -0.1866
 4480SOL    HW217686   0.912   2.495   2.761 -1.2580  1.2756 -1.3293
 4480SOL    HW317687   0.853   2.586   2.867 -0.0173  1.1986 -0.5576
 4480SOL    MW417688   0.921   2.558   2.821 -0.2751  0.2659 -0.3863
 4481SOL     OW17689   2.656   2.712   0.592  0.0523 -0.0689  0.0852
 4481SOL    HW217690   2.631   2.673   0.508 -1.3128  1.5391 -0.2972
 4481SOL    HW317691   2.752   2.713   0.589  0.0318  0.2657 -1.6116
 4481SOL    MW417692   2.666   2.707   0.581 -0.1305  0.1874 -0.1891
 4482SOL     OW17693   0.854   5.872   3.262 -0.3042  0.7212 -0.2099
 4482SOL    HW217694   0.808   5.808   3.208  1.2108  0.5351 -1.3652
 4482SOL    HW317695   0.876   5.825   3.342  2.2783 -0.8616 -1.7099
 4482SOL    MW417696   0.851   5.858   3.266  0.2364  0.4878 -0.5602
 4483SOL     OW17697   5.585   0.309   2.628 -0.2589  0.8967  0.5138
 4483SOL    HW217698   5.597   0.315   2.723 -1.8642  3.7275  0.6471
 4483SOL    HW317699   5.579   0.400   2.599  0.1723  0.0956 -2.3319
 4483SOL    MW417700   5.586   0.322   2.637 -0.4138  1.1645  0.1559
 4484SOL     OW17701   0.944   2.965   2.950  0.0807  0.4843  0.2693
 4484SOL    HW217702   1.018   3.011   2.990  0.8981 -0.1029 -0.5418
 4484SOL    HW317703   0.946   2.878   2.990 -0.0591  0.4051  0.1035
 4484SOL    MW417704   0.954   2.960   2.961  0.1701  0.3963  0.1404
 4485SOL     OW17705   0.365   0.310   5.811 -0.4513  0.2298 -0.0762
 4485SOL    HW217706   0.452   0.278   5.789 -0.7595  1.1173 -3.2559
 4485SOL    HW317707   0.317   0.307   5.728 -3.5524 -0.3950  1.5718
 4485SOL    MW417708   0.370   0.306   5.797 -0.9011  0.2644 -0.2783
 4486SOL     OW17709   1.338   5.729   3.175  0.5331  0.2445 -0.0535
 4486SOL    HW217710   1.356   5.809   3.224  0.4725  0.3676 -0.2324
 4486SOL    HW317711   1.275   5.755   3.108 -1.0478 -0.3831  1.1392
 4486SOL    MW417712   1.332   5.743   3.173  0.3165  0.1779  0.0803
 4487SOL     OW17713   4.865   5.856   2.873  0.3704 -1.0331 -0.1068
 4487SOL    HW217714   4.884   5.770   2.911 -1.2155 -1.3073  0.1409
 4487SOL    HW317715   4.806   5.897   2.935  0.2708 -0.1837 -0.7467
 4487SOL    MW417716   4.860   5.850   2.886  0.1480 -0.9572 -0.1585
 4488SOL     OW17717   4.661   2.265   5.171  0.4413  0.0057  0.4042
 4488SOL    HW217718   4.736   2.232   5.220  0.5297  1.0015  0.9689
 4488SOL    HW317719   4.585   2.237   5.222  0.5546  1.9220  1.7707
 4488SOL    MW417720   4.661   2.257   5.184  0.4679  0.3899  0.6590
 4489SOL     OW17721   2.562   3.884   6.270  0.2511  0.3701 -0.4229
 4489SOL    HW217722   2.627   3.871   6.201 -2.6181  1.0283 -3.5453
 4489SOL    HW317723   2.490   3.930   6.226 -2.8068 -1.2255  2.4313
 4489SOL    MW417724   2.561   3.888   6.255 -0.5309  0.2464 -0.4583
 4490SOL     OW17725   6.407   6.221   3.262  0.3692 -0.4102  0.1227
 4490SOL    HW217726   6.332   6.164   3.277 -0.7988  1.1282  0.5070
 4490SOL    HW317727   6.481   6.162   3.253 -0.9168 -2.0146 -0.5372
 4490SOL    MW417728   6.407   6.206   3.263  0.0454 -0.4189  0.0863
 4491SOL     OW17729   0.962   3.112   1.993  0.7299 -0.1864 -0.1012
 4491SOL    HW217730   1.014   3.037   2.023  0.5244 -0.7660 -1.1373
 4491SOL    HW317731   0.878   3.102   2.039  0.2970 -1.2584 -1.0828
 4491SOL    MW417732   0.958   3.101   2.003  0.6457 -0.4043 -0.3674
 4492SOL     OW17733   1.340   2.915   0.518  0.1706 -0.1100  0.4225
 4492SOL    HW217734   1.393   2.934   0.596 -0.5840  1.1747  0.6616
 4492SOL    HW317735   1.352   2.992   0.462  1.6144 -1.5170 -1.2950
 4492SOL    MW417736   1.348   2.928   0.521  0.2616 -0.1261  0.2275
 4493SOL     OW17737   5.877   5.080   3.690 -0.6944  0.0949  0.0921
 4493SOL    HW217738   5.870   4.985   3.686  0.6108  0.0039 -0.4527
 4493SOL    HW317739   5.839   5.103   3.775 -0.1782 -1.0045  0.6382
 4493SOL    MW417740   5.871   5.071   3.701 -0.4541 -0.0622  0.0923
 4494SOL     OW17741   2.106   6.272   5.440 -0.5017 -0.2003  0.0895
 4494SOL    HW217742   2.012   6.290   5.439 -0.6796 -1.0194  0.8021
 4494SOL    HW317743   2.145   6.351   5.477 -0.8559  0.3092 -0.5919
 4494SOL    MW417744   2.099   6.285   5.445 -0.5719 -0.2412  0.0936
 4495SOL     OW17745   2.782   4.347   1.460 -0.3356 -0.4527  0.6847
 4495SOL    HW217746   2.849   4.379   1.399 -0.7409 -0.4172  0.2513
 4495SOL    HW317747   2.828   4.337   1.543 -0.0785  0.8136  0.7183
 4495SOL    MW417748   2.797   4.350   1.463 -0.3552 -0.2809  0.6319
 4496SOL     OW17749   3.343   3.041   0.047  0.3132 -0.2177  0.2882
 4496SOL    HW217750   3.433   3.071   0.054 -0.3497  2.1419 -0.3892
 4496SOL    HW317751   3.318   3.062  -0.044 -0.8473 -1.0157  0.4053
 4496SOL    MW417752   3.351   3.048   0.036  0.0727 -0.0116  0.2142
 4497SOL     OW17753   0.584   3.803   5.876 -0.1002  0.0010  0.0922
 4497SOL    HW217754   0.651   3.765   5.933  0.4636  0.2215 -0.4216
 4497SOL    HW317755   0.504   3.801   5.930  0.4073  0.1565  0.8715
 4497SOL    MW417756   0.582   3.798   5.891  0.0412  0.0506  0.1272
 4498SOL     OW17757   2.828   4.147   2.024 -0.3050  0.2418 -0.1346
 4498SOL    HW217758   2.769   4.208   1.979  0.3016  0.3327 -0.8267
 4498SOL    HW317759   2.842   4.076   1.961  0.6448  0.4235 -0.1472
 4498SOL    MW417760   2.822   4.146   2.009 -0.0996  0.2778 -0.2276
 4499SOL     OW17761   2.304   1.689   5.414  0.4253 -0.3718 -0.2881
 4499SOL    HW217762   2.242   1.652   5.477  0.3160  0.2378 -0.0273
 4499SOL    HW317763   2.390   1.672   5.452  0.3271  1.4332  0.8932
 4499SOL    MW417764   2.307   1.682   5.427  0.3979 -0.0532 -0.0978
 4500SOL     OW17765   3.912   3.899   0.414 -0.3359 -0.1155 -0.3594
 4500SOL    HW217766   3.873   3.906   0.501  2.4863  4.5773  0.8704
 4500SOL    HW317767   3.991   3.846   0.427  0.2894  0.8988  0.1261
 4500SOL    MW417768   3.918   3.893   0.427  0.1189  0.6375 -0.1331
 4501SOL     OW17769   3.911   0.887   2.489  0.7380 -0.2353 -0.4925
 4501SOL    HW217770   3.919   0.806   2.540 -0.2731 -0.8623 -1.2749
 4501SOL    HW317771   3.882   0.858   2.403  0.0165  0.9906 -0.6915
 4501SOL    MW417772   3.908   0.872   2.485  0.5094 -0.1563 -0.6220
 4502SOL     OW17773   6.079   3.060   1.786  0.7636  0.4929 -0.1155
 4502SOL    HW217774   6.141   3.124   1.751 -1.4348  2.2033 -1.0759
 4502SOL    HW317775   6.089   3.066   1.881  1.8023  0.9727 -0.2414
 4502SOL    MW417776   6.089   3.069   1.794  0.6106  0.7819 -0.2588
 4503SOL     OW17777   2.660   6.320   3.464 -0.0682 -0.2898  0.2384
 4503SOL    HW217778   2.653   6.388   3.397 -0.0124 -0.2812  0.2413
 4503SOL    HW317779   2.726   6.260   3.429 -1.5562 -1.4380 -0.7426
 4503SOL    MW417780   2.668   6.321   3.450 -0.2572 -0.4402  0.1094
 4504SOL     OW17781   4.462   4.404   0.991 -0.4047 -0.2424  0.0011
 4504SOL    HW217782   4.404   4.332   1.016 -0.3870 -0.0379  0.6431
 4504SOL    HW317783   4.407   4.463   0.941 -0.7524 -0.0661  0.5799
 4504SOL    MW417784   4.447   4.402   0.988 -0.4483 -0.1922  0.1622
 4505SOL     OW17785   0.680   1.733   0.848 -0.5724 -0.1511 -0.6313
 4505SOL    HW217786   0.687   1.818   0.805 -0.7469 -0.1827 -0.7211
 4505SOL    HW317787   0.632   1.750   0.928 -1.7857 -0.3918 -1.2881
 4505SOL    MW417788   0.675   1.746   0.853 -0.7555 -0.1871 -0.7298
 4506SOL     OW17789   5.558   3.870   4.045  0.3311 -0.3952 -0.1890
 4506SOL    HW217790   5.463   3.857   4.043  0.0366  1.2134  0.9427
 4506SOL    HW317791   5.569   3.956   4.087  2.2650 -0.2460 -0.9153
 4506SOL    MW417792   5.547   3.880   4.051  0.5474 -0.1633 -0.1355
 4507SOL     OW17793   1.040   5.557   2.198 -0.0463 -0.0915 -0.3263
 4507SOL    HW217794   1.131   5.585   2.192 -0.1763  0.2544 -0.7464
 4507SOL    HW317795   1.033   5.481   2.140 -0.3275  0.6947 -1.3524
 4507SOL    MW417796   1.051   5.551   2.190 -0.1005  0.0579 -0.5171
 4508SOL     OW17797   6.385   5.586   5.704 -0.2600  0.1342 -0.1179
 4508SOL    HW217798   6.443   5.516   5.675 -0.1368  0.2803 -0.2208
 4508SOL    HW317799   6.309   5.580   5.647  0.4192  1.0718 -1.1542
 4508SOL    MW417800   6.383   5.576   5.693 -0.1541  0.2772 -0.2682
 4509SOL     OW17801   2.362   1.590   3.989 -0.0280 -0.0874  0.2978
 4509SOL    HW217802   2.315   1.658   3.942  0.6908 -1.0419 -1.9390
 4509SOL    HW317803   2.295   1.527   4.014 -0.2259 -0.6042 -1.3801
 4509SOL    MW417804   2.347   1.591   3.986  0.0408 -0.2815 -0.2187
 4510SOL     OW17805   4.916   1.895   5.370 -0.1276 -0.8192  0.2283
 4510SOL    HW217806   4.886   1.851   5.291  1.6530  0.3730 -1.2041
 4510SOL    HW317807   4.840   1.895   5.428 -1.7663 -1.0135 -1.7897
 4510SOL    MW417808   4.902   1.889   5.367 -0.1089 -0.6875 -0.2269
 4511SOL     OW17809   5.807   4.146   4.935  0.2313  0.4239  0.2436
 4511SOL    HW217810   5.759   4.070   4.967 -0.4183  0.6799 -0.0793
 4511SOL    HW317811   5.859   4.176   5.010  0.6699 -0.4655  0.2981
 4511SOL    MW417812   5.807   4.140   4.949  0.2035  0.3404  0.2082
 4512SOL     OW17813   0.314   1.927   5.889 -0.1195  1.0270  0.1223
 4512SOL    HW217814   0.224   1.924   5.922 -0.1172 -0.2373  0.0823
 4512SOL    HW317815   0.347   2.013   5.916 -0.4452  0.4686  2.5970
 4512SOL    MW417816   0.306   1.938   5.897 -0.1621  0.7865  0.4435
 4513SOL     OW17817   5.526   3.732   5.843 -0.0389  0.1008 -0.3280
 4513SOL    HW217818   5.444   3.772   5.816 -0.1035  0.9599  1.0199
 4513SOL    HW317819   5.504   3.685   5.924  0.1311 -2.3592 -1.6177
 4513SOL    MW417820   5.513   3.731   5.850 -0.0250 -0.1104 -0.3203
 4514SOL     OW17821   4.189   4.912   5.483  0.1345 -0.1193  0.1876
 4514SOL    HW217822   4.261   4.960   5.523  0.8089  0.7001 -1.8920
 4514SOL    HW317823   4.229   4.866   5.409 -1.1048 -1.3536  0.2451
 4514SOL    MW417824   4.204   4.912   5.478  0.0600 -0.1741 -0.0792
 4515SOL     OW17825   3.256   1.899   5.356  0.0904 -0.1374 -0.1869
 4515SOL    HW217826   3.347   1.928   5.353  0.6241 -1.7705 -0.6242
 4515SOL    HW317827   3.226   1.903   5.265 -0.1463 -0.0181 -0.1064
 4515SOL    MW417828   3.264   1.904   5.344  0.1296 -0.3371 -0.2340
 4516SOL     OW17829   5.563   2.002   2.187  0.2979  0.2161 -0.4756
 4516SOL    HW217830   5.593   2.017   2.098  1.7408  0.2180 -0.0109
 4516SOL    HW317831   5.585   2.082   2.235  2.7513 -1.0356  0.6570
 4516SOL    MW417832   5.570   2.014   2.182  0.8120  0.0512 -0.2649
 4517SOL     OW17833   1.494   0.734   3.402  0.1505  0.7579  0.0964
 4517SOL    HW217834   1.514   0.822   3.435 -0.6267  0.5183  1.2773
 4517SOL    HW317835   1.568   0.713   3.345  1.1912  1.5111  1.1021
 4517SOL    MW417836   1.506   0.743   3.399  0.1852  0.8257  0.3849
 4518SOL     OW17837   5.348   3.998   3.028 -0.4334 -0.1852 -0.3453
 4518SOL    HW217838   5.438   4.030   3.036 -0.6001  0.0232  0.7912
 4518SOL    HW317839   5.320   3.981   3.117 -1.5848 -0.0849 -0.6681
 4518SOL    MW417840   5.356   4.000   3.041 -0.6073 -0.1445 -0.2379
 4519SOL     OW17841   1.749   1.382   4.070  0.0337  0.3961  0.4793
 4519SOL    HW217842   1.756   1.358   4.163  2.0097 -1.9139 -0.1717
 4519SOL    HW317843   1.664   1.346   4.044  0.4023 -0.8833  0.9353
 4519SOL    MW417844   1.738   1.374   4.079  0.3430 -0.0774  0.4536
 4520SOL     OW17845   5.204   1.816   5.355 -0.2861 -0.1816  0.4642
 4520SOL    HW217846   5.239   1.746   5.299  0.6350 -0.4305  1.3209
 4520SOL    HW317847   5.110   1.814   5.340  0.0260  0.5317 -1.9641
 4520SOL    MW417848   5.196   1.807   5.345 -0.1234 -0.1203  0.2568
 4521SOL     OW17849   5.737   0.173   5.656  0.4521 -0.3372 -0.4721
 4521SOL    HW217850   5.674   0.102   5.651  0.5423 -0.3644 -1.4154
 4521SOL    HW317851   5.702   0.231   5.723  1.4087 -2.2332  1.7934
 4521SOL    MW417852   5.724   0.172   5.664  0.5902 -0.5910 -0.2977
 4522SOL     OW17853   2.287   3.089   2.698 -0.0160 -0.2125 -0.3712
 4522SOL    HW217854   2.250   3.120   2.615  0.5100 -0.7140 -0.8075
 4522SOL    HW317855   2.313   3.168   2.744 -1.4984  0.1488 -0.0999
 4522SOL    MW417856   2.285   3.103   2.693 -0.1422 -0.2310 -0.3930
 4523SOL     OW17857   2.496   4.053   3.988  0.3876 -0.5022  0.6713
 4523SOL    HW217858   2.528   4.078   4.074 -0.3661  2.8946  0.1263
 4523SOL    HW317859   2.411   4.013   4.004  0.6594 -0.7299  1.5642
 4523SOL    MW417860   2.489   4.051   4.001  0.3240 -0.0841  0.7172
 4524SOL     OW17861   5.263   6.007   0.696 -0.0375  0.3137 -0.2760
 4524SOL    HW217862   5.192   5.980   0.755  1.6124 -0.5548  1.4143
 4524SOL    HW317863   5.227   5.992   0.609 -1.2555 -2.1318  0.5246
 4524SOL    MW417864   5.249   6.001   0.693  0.0195 -0.1235  0.0526
 4525SOL     OW17865   6.300   5.622   0.474 -0.1975 -0.0037 -0.3078
 4525SOL    HW217866   6.219   5.645   0.520  0.3029 -0.7219  0.9674
 4525SOL    HW317867   6.302   5.527   0.475  1.0284  0.0128  0.3486
 4525SOL    MW417868   6.289   5.613   0.480  0.0302 -0.0962 -0.0530
 4526SOL     OW17869   0.797   5.479   4.676  0.0541  0.4834 -0.0505
 4526SOL    HW217870   0.723   5.461   4.733 -0.7494 -1.9097 -1.6587
 4526SOL    HW317871   0.867   5.507   4.735 -1.2680 -0.0515  1.8655
 4526SOL    MW417872   0.797   5.480   4.691 -0.2264  0.0971 -0.0099
 4527SOL     OW17873   5.746   1.274   4.917  0.0689 -0.7710 -0.1501
 4527SOL    HW217874   5.825   1.288   4.970 -0.3724 -0.5311  0.4514
 4527SOL    HW317875   5.739   1.178   4.911  0.7140 -0.7949 -0.6866
 4527SOL    MW417876   5.756   1.263   4.923  0.0958 -0.7425 -0.1416
 4528SOL     OW17877   1.011   4.177   0.204  0.1002 -0.1649 -0.4192
 4528SOL    HW217878   1.096   4.205   0.238 -0.1492 -0.9422  0.9309
 4528SOL    HW317879   1.028   4.092   0.164 -0.3435 -1.2570  1.5869
 4528SOL    MW417880   1.024   4.170   0.203  0.0087 -0.4115  0.0236
 4529SOL     OW17881   0.132   0.563   2.610 -0.1896  0.3982  0.3345
 4529SOL    HW217882   0.222   0.536   2.592  0.7592  3.1081  0.5157
 4529SOL    HW317883   0.121   0.643   2.559 -2.1080  0.7601  1.2373
 4529SOL    MW417884   0.143   0.570   2.601 -0.3175  0.8035  0.4775
 4530SOL     OW17885   6.286   2.739   3.363  0.4505 -0.1240  0.2451
 4530SOL    HW217886   6.205   2.750   3.412  0.3229  0.2142 -0.0317
 4530SOL    HW317887   6.265   2.772   3.275  1.0827  0.6316  0.3598
 4530SOL    MW417888   6.273   2.745   3.358  0.5171  0.0203  0.2237
 4531SOL     OW17889   4.303   5.998   6.194 -0.1359  0.0626  0.5862
 4531SOL    HW217890   4.208   5.990   6.202  0.0668 -0.8526  2.7479
 4531SOL    HW317891   4.338   5.946   6.266  2.0160  0.8637  0.2079
 4531SOL    MW417892   4.295   5.990   6.204  0.1748  0.0475  0.8215
 4532SOL     OW17893   4.148  -0.001   3.822 -0.5119  0.4665 -0.5980
 4532SOL    HW217894   4.174  -0.077   3.770 -0.5521  1.3333 -1.9092
 4532SOL    HW317895   4.210  -0.000   3.895 -0.6263 -0.9201 -0.4619
 4532SOL    MW417896   4.160  -0.011   3.825 -0.5323  0.3979 -0.7531
 4533SOL     OW17897   4.928   1.348   4.293  0.0555 -0.7026  0.4614
 4533SOL    HW217898   4.960   1.284   4.356 -2.7005 -1.0632  1.6241
 4533SOL    HW317899   4.941   1.433   4.336  0.5195 -0.7350  0.3928
 4533SOL    MW417900   4.934   1.351   4.307 -0.2469 -0.7544  0.6057
 4534SOL     OW17901   1.376   3.806   3.029 -0.7378  0.0706 -0.3591
 4534SOL    HW217902   1.352   3.733   3.086  1.8996 -0.7868 -0.2047
 4534SOL    HW317903   1.328   3.790   2.948 -0.2531 -1.8388 -0.3139
 4534SOL    MW417904   1.366   3.794   3.026 -0.3258 -0.2944 -0.3328
 4535SOL     OW17905   4.814   5.532   4.270 -0.0644  0.3068 -0.1394
 4535SOL    HW217906   4.816   5.455   4.327 -0.5916 -0.3213 -0.9289
 4535SOL    HW317907   4.742   5.585   4.304 -0.3889 -0.0728 -0.2183
 4535SOL    MW417908   4.805   5.529   4.282 -0.1767  0.1738 -0.2540
 4536SOL     OW17909   0.884   6.163   0.964  0.0018  0.0412 -0.3145
 4536SOL    HW217910   0.853   6.140   1.051 -0.2560 -2.7653 -1.0423
 4536SOL    HW317911   0.890   6.259   0.964 -0.8797  0.1606  2.4405
 4536SOL    MW417912   0.881   6.173   0.975 -0.1486 -0.3133 -0.0470
 4537SOL     OW17913   5.446   6.267   5.094 -0.5642  0.5073  1.1572
 4537SOL    HW217914   5.367   6.218   5.117 -1.5840  2.5811  2.2924
 4537SOL    HW317915   5.453   6.335   5.161  0.1911  2.5633 -0.8806
 4537SOL    MW417916   5.437   6.269   5.106 -0.5991  1.0522  1.0381
 4538SOL     OW17917   1.795   6.038   2.894 -0.4265 -0.1865  0.0099
 4538SOL    HW217918   1.823   6.121   2.855  0.1377 -0.7883 -0.9256
 4538SOL    HW317919   1.701   6.048   2.907 -0.0897  1.2962  1.7109
 4538SOL    MW417920   1.786   6.050   2.891 -0.3076 -0.0703  0.1109
 4539SOL     OW17921   5.756   1.517   3.983 -0.2614  0.0719 -0.1276
 4539SOL    HW217922   5.685   1.530   3.920 -1.9599  1.6958  1.9423
 4539SOL    HW317923   5.814   1.592   3.969 -0.5622  0.3559  0.1310
 4539SOL    MW417924   5.754   1.529   3.973 -0.5252  0.3236  0.1796
 4540SOL     OW17925   0.622   2.474   4.852  0.5342  0.1424 -0.1761
 4540SOL    HW217926   0.627   2.384   4.884 -2.0380 -0.6131 -1.5420
 4540SOL    HW317927   0.659   2.527   4.922 -1.7342 -1.6530  2.6148
 4540SOL    MW417928   0.627   2.469   4.866 -0.1045 -0.1942  0.0119
 4541SOL     OW17929   0.892   4.007   4.914 -0.2283 -0.4267  0.3804
 4541SOL    HW217930   0.896   3.984   4.821 -0.1683  0.1047  0.2501
 4541SOL    HW317931   0.868   4.100   4.915  0.8222 -0.1449  0.8642
 4541SOL    MW417932   0.889   4.016   4.901 -0.0818 -0.3194  0.4270
 4542SOL     OW17933   5.266   4.010   3.288 -1.1058 -0.4053 -0.4401
 4542SOL    HW217934   5.325   3.968   3.350 -2.9090 -2.0188  0.2864
 4542SOL    HW317935   5.243   4.094   3.328 -0.4356 -0.4122 -0.0429
 4542SOL    MW417936   5.270   4.015   3.301 -1.2553 -0.6191 -0.2918
 4543SOL     OW17937   2.373   1.679   0.158  0.4302 -0.3476  0.3559
 4543SOL    HW217938   2.346   1.693   0.249  0.6459  1.1933  0.2247
 4543SOL    HW317939   2.430   1.754   0.139  0.6017 -0.7854 -0.9755
 4543SOL    MW417940   2.377   1.691   0.168  0.4813 -0.2021  0.1629
 4544SOL     OW17941   1.047   3.634   4.347 -0.1164  0.1186  0.1470
 4544SOL    HW217942   1.030   3.624   4.254 -0.0466  0.8703  0.0429
 4544SOL    HW317943   0.966   3.673   4.382 -0.2316 -0.3791  0.4465
 4544SOL    MW417944   1.034   3.638   4.340 -0.1223  0.1521  0.1728
 4545SOL     OW17945   0.134   2.616   4.659 -0.0324 -0.1577  0.5726
 4545SOL    HW217946   0.126   2.526   4.628 -1.3899  0.4620 -1.0091
 4545SOL    HW317947   0.228   2.630   4.669  0.2351 -1.5103  0.1123
 4545SOL    MW417948   0.145   2.606   4.656 -0.1762 -0.2544  0.3032
 4546SOL     OW17949   2.525   4.590   2.017 -0.2836  0.2417  0.2882
 4546SOL    HW217950   2.481   4.517   2.062 -1.2842  0.5977 -0.0887
 4546SOL    HW317951   2.468   4.611   1.944  0.2082  1.1390  0.1512
 4546SOL    MW417952   2.511   4.583   2.014 -0.3508  0.4071  0.2204
 4547SOL     OW17953   6.278   4.503   1.822 -0.2571  0.0033 -0.1012
 4547SOL    HW217954   6.329   4.553   1.758  0.0160 -1.9685 -1.5094
 4547SOL    HW317955   6.330   4.508   1.903 -0.2940  2.0158 -0.1508
 4547SOL    MW417956   6.292   4.511   1.824 -0.2259  0.0087 -0.2935
 4548SOL     OW17957   6.178   0.358   3.987 -0.2738 -0.2197  0.4695
 4548SOL    HW217958   6.143   0.445   3.973  0.0641 -0.1464  0.0582
 4548SOL    HW317959   6.240   0.345   3.915  0.5086 -0.3572  1.1432
 4548SOL    MW417960   6.182   0.368   3.976 -0.1260 -0.2282  0.5041
 4549SOL     OW17961   1.494   4.168   3.090 -0.7034  0.3688 -0.1347
 4549SOL    HW217962   1.475   4.260   3.074 -0.6039  0.3752 -0.2186
 4549SOL    HW317963   1.576   4.152   3.044 -1.2429 -0.0211 -0.9919
 4549SOL    MW417964   1.502   4.178   3.082 -0.7614  0.3182 -0.2589
 4550SOL     OW17965   1.386   3.963   2.669  0.1679 -0.4714 -0.4551
 4550SOL    HW217966   1.334   3.897   2.714 -1.2162 -0.0879 -1.4247
 4550SOL    HW317967   1.383   4.040   2.727  1.3448 -1.0515  0.4229
 4550SOL    MW417968   1.378   3.965   2.683  0.1406 -0.4973 -0.4672
 4551SOL     OW17969   2.566   1.321   5.187 -0.1158  0.1324 -0.3966
 4551SOL    HW217970   2.572   1.313   5.283 -2.7988  2.5846  0.1000
 4551SOL    HW317971   2.488   1.374   5.172  0.8181  0.7465 -3.9475
 4551SOL    MW417972   2.557   1.327   5.198 -0.3466  0.5370 -0.7996
 4552SOL     OW17973   0.605   1.097   0.883 -0.1237  0.1374  0.0056
 4552SOL    HW217974   0.512   1.113   0.869  0.0521 -0.5116 -2.3547
 4552SOL    HW317975   0.625   1.022   0.827  1.8714  0.4193  0.2648
 4552SOL    MW417976   0.595   1.089   0.874  0.1627  0.0890 -0.2716
 4553SOL     OW17977   2.966   0.246   3.583 -0.5353 -0.6289  0.3065
 4553SOL    HW217978   3.053   0.272   3.614 -0.7956  0.6110  0.0673
 4553SOL    HW317979   2.962   0.151   3.597  0.4361 -0.5362  1.3497
 4553SOL    MW417980   2.977   0.237   3.589 -0.4415 -0.4531  0.4126
 4554SOL     OW17981   0.335   4.414   1.490  0.5190 -0.6833 -0.2614
 4554SOL    HW217982   0.355   4.328   1.526 -0.0472 -0.6245  0.2099
 4554SOL    HW317983   0.421   4.455   1.474  0.7785 -1.0636  0.1618
 4554SOL    MW417984   0.349   4.408   1.493  0.4785 -0.7257 -0.1434
 4555SOL     OW17985   3.382   4.300   5.221 -0.1264  0.2040  0.3248
 4555SOL    HW217986   3.398   4.308   5.127  0.1005  1.6722  0.4783
 4555SOL    HW317987   3.440   4.364   5.262 -0.4118 -0.2261  1.4638
 4555SOL    MW417988   3.392   4.309   5.214 -0.1341  0.3410  0.4953
 4556SOL     OW17989   5.352   2.488   2.134  0.0641  0.1981 -0.6781
 4556SOL    HW217990   5.410   2.483   2.210  0.6095  0.9614 -1.0274
 4556SOL    HW317991   5.304   2.570   2.146 -1.8126 -0.9664  0.1896
 4556SOL    MW417992   5.354   2.498   2.146 -0.1115  0.1451 -0.6097
 4557SOL     OW17993   3.640   5.172   0.977 -0.0964  0.3515 -0.5494
 4557SOL    HW217994   3.604   5.099   0.928  0.6305  0.6032 -1.5084
 4557SOL    HW317995   3.659   5.137   1.064  0.6807 -0.7460 -1.1371
 4557SOL    MW417996   3.638   5.158   0.982  0.1020  0.2399 -0.7534
 4558SOL     OW17997   4.664   5.372   5.786 -0.3415 -0.3844  0.3853
 4558SOL    HW217998   4.653   5.298   5.726 -0.8473 -0.9206  1.1327
 4558SOL    HW317999   4.756   5.367   5.813 -0.0304  0.0332 -0.5559
 4558SOL    MW418000   4.675   5.361   5.782 -0.3672 -0.4000  0.3598
 4559SOL     OW18001   5.506   4.912   0.948  0.1644  0.7237 -0.0633
 4559SOL    HW218002   5.412   4.892   0.946  0.0443  1.2848 -1.9696
 4559SOL    HW318003   5.526   4.941   0.859  2.0576  1.0812  0.4412
 4559SOL    MW418004   5.496   4.913   0.936  0.3983  0.8449 -0.2483
 4560SOL     OW18005   5.356   2.217   6.123 -0.4490 -0.3121  0.7455
 4560SOL    HW218006   5.445   2.249   6.141 -0.3780  0.0526 -0.1903
 4560SOL    HW318007   5.369   2.127   6.093 -0.1738  0.3788 -1.3711
 4560SOL    MW418008   5.370   2.209   6.122 -0.4033 -0.1728  0.3428
 4561SOL     OW18009   1.341   3.551   0.278  0.5125  0.0291  0.3069
 4561SOL    HW218010   1.250   3.563   0.307  0.3653 -2.0865  0.9208
 4561SOL    HW318011   1.339   3.575   0.185 -0.9294 -0.8686  0.0602
 4561SOL    MW418012   1.328   3.556   0.270  0.3028 -0.3685  0.3553
 4562SOL     OW18013   4.041   5.315   5.797 -0.3122 -0.3490  0.2179
 4562SOL    HW218014   4.062   5.237   5.849 -0.5161 -1.0213 -0.6761
 4562SOL    HW318015   3.950   5.335   5.819 -0.0462  0.0639  0.9719
 4562SOL    MW418016   4.032   5.307   5.807 -0.3040 -0.3832  0.1994
 4563SOL     OW18017   3.222   6.073   2.590 -0.0191  0.0634  0.3671
 4563SOL    HW218018   3.271   6.121   2.656  0.1063 -0.9030  1.0051
 4563SOL    HW318019   3.153   6.028   2.640 -0.9947  0.6757 -0.3926
 4563SOL    MW418020   3.219   6.073   2.606 -0.1313  0.0167  0.3510
 4564SOL     OW18021   2.995   3.964   4.144 -0.5427 -0.0511 -0.1213
 4564SOL    HW218022   3.051   4.035   4.114  1.0864 -0.9780  0.6166
 4564SOL    HW318023   3.004   3.965   4.239 -1.2742 -0.6529 -0.0335
 4564SOL    MW418024   3.003   3.974   4.153 -0.4243 -0.2528 -0.0124
 4565SOL     OW18025   0.096   0.405   5.683 -0.8590 -0.3963 -0.0973
 4565SOL    HW218026   0.057   0.464   5.748  1.9828  1.6225 -0.0247
 4565SOL    HW318027   0.140   0.464   5.621 -0.5284 -2.3904 -1.8675
 4565SOL    MW418028   0.097   0.421   5.684 -0.4405 -0.3931 -0.3213
 4566SOL     OW18029   1.007   1.671   1.989  0.2649  0.1570  0.1040
 4566SOL    HW218030   1.066   1.694   1.917 -1.3070  0.4789 -1.1360
 4566SOL    HW318031   0.931   1.632   1.947 -1.6829  2.3197  1.3683
 4566SOL    MW418032   1.005   1.669   1.974 -0.1995  0.4848  0.1072
 4567SOL     OW18033   5.148   4.915   1.432 -0.4755  0.1472  0.3107
 4567SOL    HW218034   5.063   4.921   1.475 -0.6409 -0.0610  0.0208
 4567SOL    HW318035   5.203   4.980   1.476 -0.8263  0.3819  0.4011
 4567SOL    MW418036   5.144   4.924   1.443 -0.5436  0.1507  0.2844
 4568SOL     OW18037   1.925   1.113   5.210 -0.3105 -0.5850  0.4294
 4568SOL    HW218038   1.847   1.059   5.223 -0.0115 -0.8997  0.9761
 4568SOL    HW318039   1.922   1.177   5.281  0.6707 -1.5111  1.3536
 4568SOL    MW418040   1.914   1.114   5.221 -0.1416 -0.7487  0.6235
 4569SOL     OW18041   1.513   0.546   1.004  0.3999 -0.7118 -0.0658
 4569SOL    HW218042   1.540   0.636   0.984  1.6062 -1.0457 -0.0305
 4569SOL    HW318043   1.569   0.491   0.950  1.1094 -1.5020  1.4088
 4569SOL    MW418044   1.524   0.551   0.995  0.6527 -0.8601  0.1334
 4570SOL     OW18045   6.273   3.897   0.095 -0.0654 -0.0450  0.2577
 4570SOL    HW218046   6.347   3.841   0.120 -0.2958  0.0300  1.1457
 4570SOL    HW318047   6.271   3.966   0.161 -1.0315 -0.1441  0.3507
 4570SOL    MW418048   6.282   3.899   0.107 -0.2233 -0.0482  0.3871
 4571SOL     OW18049   5.837   1.804   3.898 -0.3934 -0.5907  0.1714
 4571SOL    HW218050   5.930   1.782   3.898 -0.4768 -0.9705  1.1996
 4571SOL    HW318051   5.821   1.837   3.810  1.3810  2.3035  0.8011
 4571SOL    MW418052   5.847   1.806   3.886 -0.1703 -0.2589  0.3902
 4572SOL     OW18053   4.258   0.844   4.683  0.3999 -0.2742 -0.1059
 4572SOL    HW218054   4.322   0.784   4.645 -1.2579 -2.6062  0.4993
 4572SOL    HW318055   4.282   0.849   4.775  0.0336 -0.7611  0.0224
 4572SOL    MW418056   4.269   0.837   4.690  0.1329 -0.6461 -0.0091
 4573SOL     OW18057   4.384   5.920   2.913 -0.0896 -0.3619 -0.1195
 4573SOL    HW218058   4.322   5.883   2.850 -0.6138  0.0994  0.1107
 4573SOL    HW318059   4.343   6.003   2.940  0.0010 -0.6793  1.0256
 4573SOL    MW418060   4.370   5.926   2.908 -0.1468 -0.3429  0.0619
 4574SOL     OW18061   4.476   5.665   1.148  0.8974  0.4853  0.0178
 4574SOL    HW218062   4.435   5.587   1.110  0.6574  1.0976 -1.0363
 4574SOL    HW318063   4.546   5.687   1.086  2.0116  0.2025  1.1273
 4574SOL    MW418064   4.480   5.658   1.134  1.0128  0.5288  0.0251
 4575SOL     OW18065   4.022   1.042   4.401  0.1940  0.1172 -0.3190
 4575SOL    HW218066   3.946   1.062   4.455 -0.7126  0.8617 -1.7977
 4575SOL    HW318067   4.059   0.963   4.439 -1.3254 -0.2669  0.4234
 4575SOL    MW418068   4.017   1.034   4.413 -0.1261  0.1647 -0.4161
 4576SOL     OW18069   2.995   5.607   3.474 -0.1452 -0.4908 -0.1963
 4576SOL    HW218070   2.937   5.671   3.434 -0.2905 -0.9344 -0.6996
 4576SOL    HW318071   3.071   5.658   3.503 -0.5230 -0.0034 -0.0572
 4576SOL    MW418072   2.997   5.622   3.473 -0.2142 -0.4850 -0.2444
 4577SOL     OW18073   3.492   0.943   3.632 -0.1660  0.2981 -0.1672
 4577SOL    HW218074   3.579   0.972   3.602  0.9775 -1.1771  1.5453
 4577SOL    HW318075   3.445   0.924   3.551  1.8259 -0.8217 -1.1423
 4577SOL    MW418076   3.497   0.945   3.617  0.2477 -0.0443 -0.0699
 4578SOL     OW18077   2.098   2.871   3.191  0.5205  0.1705  0.4810
 4578SOL    HW218078   2.155   2.811   3.142  0.7189  2.1443 -1.9207
 4578SOL    HW318079   2.147   2.891   3.271  0.7887 -2.1715  0.9735
 4578SOL    MW418080   2.112   2.866   3.195  0.5821  0.1219  0.2291
 4579SOL     OW18081   2.760   1.036   0.443 -0.7166  0.2571  0.0360
 4579SOL    HW218082   2.696   0.995   0.385 -1.8269  1.6886  0.1745
 4579SOL    HW318083   2.714   1.112   0.478  0.6646  0.6286  1.1252
 4579SOL    MW418084   2.745   1.041   0.440 -0.6809  0.4950  0.1980
 4580SOL     OW18085   3.599   0.588   4.788 -0.4413  0.4915 -0.6628
 4580SOL    HW218086   3.640   0.569   4.873  1.5306 -0.1770 -1.7021
 4580SOL    HW318087   3.591   0.503   4.746 -0.1684  0.9465 -1.6596
 4580SOL    MW418088   3.604   0.574   4.794 -0.1451  0.4633 -0.9314
 4581SOL     OW18089   1.647   5.431   0.897 -0.0237  0.2073  0.1559
 4581SOL    HW218090   1.679   5.464   0.813 -1.0560  0.5305 -0.1371
 4581SOL    HW318091   1.624   5.339   0.879 -0.8056  0.4420 -0.0918
 4581SOL    MW418092   1.648   5.423   0.883 -0.2630  0.2809  0.0846
 4582SOL     OW18093   1.955   2.286   1.428 -0.3680  0.1237  0.1500
 4582SOL    HW218094   2.007   2.300   1.348 -0.5111  0.1218  0.0571
 4582SOL    HW318095   2.011   2.231   1.483 -0.4692 -0.2944 -0.1551
 4582SOL    MW418096   1.969   2.281   1.425 -0.4002  0.0683  0.0975
 4583SOL     OW18097   5.898   4.307   5.415  0.0088  0.2343  0.0364
 4583SOL    HW218098   5.815   4.266   5.439  0.4225  0.3462  1.8124
 4583SOL    HW318099   5.962   4.269   5.475  0.9547  1.3018 -0.2542
 4583SOL    MW418100   5.896   4.297   5.426  0.1882  0.3899  0.2324
 4584SOL     OW18101   5.784   3.695   2.039  0.0418 -0.0796 -0.0817
 4584SOL    HW218102   5.862   3.641   2.051  0.6823  1.0293  0.9308
 4584SOL    HW318103   5.725   3.668   2.109  0.2380  0.2944  0.2344
 4584SOL    MW418104   5.786   3.684   2.050  0.1522  0.1161  0.0936
 4585SOL     OW18105   5.279   0.480   2.773 -0.0309 -0.4548  0.7537
 4585SOL    HW218106   5.197   0.524   2.751  0.3584  0.1525  0.4713
 4585SOL    HW318107   5.298   0.425   2.697  1.3293  1.6665 -0.5664
 4585SOL    MW418108   5.271   0.478   2.760  0.1999 -0.0948  0.5423
 4586SOL     OW18109   2.971   5.200   3.647 -0.4834  0.3660  0.0672
 4586SOL    HW218110   2.913   5.162   3.582  0.1098  1.4366 -1.1231
 4586SOL    HW318111   3.059   5.181   3.615 -0.1309 -1.0014  1.7074
 4586SOL    MW418112   2.975   5.193   3.635 -0.3586  0.3268  0.1265
 4587SOL     OW18113   2.011   3.459   1.855  0.2460 -0.3635 -0.5951
 4587SOL    HW218114   1.973   3.398   1.919  1.2559 -0.2884  0.0928
 4587SOL    HW318115   1.984   3.424   1.770 -0.1540 -1.1160 -0.1728
 4587SOL    MW418116   2.002   3.447   1.853  0.3265 -0.4529 -0.4486
 4588SOL     OW18117   1.053   1.430   5.631 -0.1261  0.3681  0.0734
 4588SOL    HW218118   0.968   1.454   5.669 -0.4283  0.4619 -0.6314
 4588SOL    HW318119   1.045   1.337   5.611  0.4773  0.0284  1.3576
 4588SOL    MW418120   1.040   1.421   5.633 -0.0864  0.3356  0.1498
 4589SOL     OW18121   4.071   4.720   0.202 -0.0459  0.1414  0.5443
 4589SOL    HW218122   4.074   4.625   0.192 -0.8639  0.0243  1.3917
 4589SOL    HW318123   4.111   4.737   0.287  0.0980  0.5701  0.3967
 4589SOL    MW418124   4.077   4.710   0.212 -0.1348  0.1825  0.6366
 4590SOL     OW18125   4.211   4.461   4.980  0.1482  0.7401 -0.5131
 4590SOL    HW218126   4.144   4.439   5.045  0.2344 -0.1115 -0.6948
 4590SOL    HW318127   4.162   4.468   4.898  0.4091 -1.0446 -0.8602
 4590SOL    MW418128   4.195   4.459   4.978  0.1940  0.3923 -0.5828
 4591SOL     OW18129   0.453   3.227   1.132 -0.0514  0.4815  0.1917
 4591SOL    HW218130   0.402   3.170   1.190 -0.4907  2.0920  1.4496
 4591SOL    HW318131   0.398   3.239   1.055 -0.4828  0.2169  0.4572
 4591SOL    MW418132   0.439   3.221   1.129 -0.1662  0.6591  0.3927
 4592SOL     OW18133   1.193   4.939   2.176 -0.2674  0.1915  0.5904
 4592SOL    HW218134   1.281   4.902   2.169 -0.1206  0.6808 -0.2986
 4592SOL    HW318135   1.135   4.863   2.169  0.0657 -0.0498  0.3566
 4592SOL    MW418136   1.197   4.924   2.174 -0.2041  0.2242  0.4423
 4593SOL     OW18137   4.135   0.197   5.172  0.4014 -0.0666 -0.5417
 4593SOL    HW218138   4.149   0.131   5.241  0.0483  0.9107  0.4982
 4593SOL    HW318139   4.098   0.147   5.099 -2.7045 -0.6781  1.2449
 4593SOL    MW418140   4.132   0.182   5.172 -0.0550 -0.0184 -0.1688
 4594SOL     OW18141   4.360   4.473   2.911 -0.3387  0.2859  0.0496
 4594SOL    HW218142   4.337   4.523   2.833 -0.4655  0.5671  0.2618
 4594SOL    HW318143   4.289   4.410   2.921 -1.8672  2.0856  1.5154
 4594SOL    MW418144   4.348   4.472   2.902 -0.5571  0.5605  0.2710
 4595SOL     OW18145   0.655   5.816   3.626 -0.6322  0.0331 -0.2970
 4595SOL    HW218146   0.651   5.791   3.718 -1.3154  0.0968 -0.3037
 4595SOL    HW318147   0.745   5.800   3.600 -0.7171 -1.0765  0.0788
 4595SOL    MW418148   0.666   5.811   3.635 -0.7336 -0.1049 -0.2483
 4596SOL     OW18149   4.015   2.113   1.276 -0.5018  0.0642  0.0979
 4596SOL    HW218150   3.959   2.065   1.338 -2.5603 -0.1071 -1.7971
 4596SOL    HW318151   4.080   2.048   1.248  0.1000 -0.0202  1.5599
 4596SOL    MW418152   4.017   2.098   1.281 -0.6940  0.0304  0.0408
 4597SOL     OW18153   3.864   1.487   2.331 -0.2292 -0.3505  0.5642
 4597SOL    HW218154   3.859   1.531   2.416  0.7782 -0.0529  0.4786
 4597SOL    HW318155   3.803   1.535   2.275  0.4671  0.6122  0.6176
 4597SOL    MW418156   3.855   1.499   2.335 -0.0045 -0.1842  0.5599
 4598SOL     OW18157   2.952   5.861   6.063 -0.6392 -0.5202  0.1360
 4598SOL    HW218158   3.014   5.934   6.066  0.8738 -1.7920  1.7431
 4598SOL    HW318159   2.963   5.823   5.976  0.3417 -0.3196  0.1636
 4598SOL    MW418160   2.961   5.866   6.052 -0.3102 -0.6615  0.3517
 4599SOL     OW18161   1.448   5.507   1.619 -0.2690 -0.2974  0.1022
 4599SOL    HW218162   1.479   5.488   1.707  2.8474  0.9143 -0.6052
 4599SOL    HW318163   1.489   5.440   1.564 -0.1218  0.4404 -0.7158
 4599SOL    MW418164   1.458   5.496   1.623  0.1616 -0.0402 -0.0990
 4600SOL     OW18165   5.579   5.302   2.765  0.0754  0.1715 -0.2772
 4600SOL    HW218166   5.645   5.290   2.834 -0.6525 -0.0884  0.3915
 4600SOL    HW318167   5.531   5.220   2.764  1.2154 -0.5507 -2.3770
 4600SOL    MW418168   5.582   5.289   2.774  0.1297  0.0419 -0.4660
 4601SOL     OW18169   4.916   2.376   5.918 -0.2410  0.7972 -0.7525
 4601SOL    HW218170   5.010   2.386   5.927 -0.2629  1.3491 -1.1233
 4601SOL    HW318171   4.879   2.447   5.971 -0.4288  1.2902 -1.5256
 4601SOL    MW418172   4.923   2.387   5.926 -0.2687  0.9351 -0.9034
 4602SOL     OW18173   4.525   4.632   5.488 -0.3849 -0.3708  0.3051
 4602SOL    HW218174   4.469   4.606   5.561 -1.1927 -1.4694 -0.6724
 4602SOL    HW318175   4.490   4.584   5.413 -1.2516  2.6544 -1.4034
 4602SOL    MW418176   4.513   4.622   5.488 -0.6058 -0.1166 -0.0493
 4603SOL     OW18177   0.614   0.299   0.849 -0.4628 -0.3625 -0.1628
 4603SOL    HW218178   0.581   0.333   0.932  1.9570 -0.2823  0.8559
 4603SOL    HW318179   0.625   0.377   0.794 -1.4956 -0.3470 -0.3642
 4603SOL    MW418180   0.611   0.314   0.853 -0.2798 -0.3499 -0.0549
 4604SOL     OW18181   4.506   2.095   5.379 -0.0193 -0.0162  0.4325
 4604SOL    HW218182   4.420   2.055   5.365 -0.5046  1.3120 -0.6782
 4604SOL    HW318183   4.488   2.170   5.436  0.1239  1.0962 -0.9212
 4604SOL    MW418184   4.492   2.100   5.384 -0.0644  0.3058  0.1073
 4605SOL     OW18185   3.617   2.816   2.713  0.2548  0.1161  0.0337
 4605SOL    HW218186   3.547   2.881   2.704  0.5657  0.4266 -0.1597
 4605SOL    HW318187   3.585   2.756   2.780  0.1563  0.7133  0.5315
 4605SOL    MW418188   3.603   2.817   2.721  0.2828  0.2359  0.0739
 4606SOL     OW18189   1.999   2.630   2.243 -0.2399  0.1441 -0.1209
 4606SOL    HW218190   1.931   2.568   2.271  0.3784 -0.8410 -0.7365
 4606SOL    HW318191   1.951   2.707   2.214 -1.0375 -0.0775  0.5626
 4606SOL    MW418192   1.984   2.632   2.243 -0.2636 -0.0151 -0.1119
 4607SOL     OW18193   4.489   5.097   4.077 -0.5659 -0.6418  0.1280
 4607SOL    HW218194   4.500   5.028   4.142 -0.2625 -0.1059  0.6601
 4607SOL    HW318195   4.521   5.176   4.121  2.1508 -0.6824 -1.5398
 4607SOL    MW418196   4.495   5.098   4.091 -0.1675 -0.5764 -0.0218
 4608SOL     OW18197   5.551   2.315   3.442  0.2885 -0.2183  0.0347
 4608SOL    HW218198   5.467   2.293   3.482  0.0321 -1.2712 -1.0225
 4608SOL    HW318199   5.616   2.290   3.507 -0.1478 -1.2928  0.0879
 4608SOL    MW418200   5.549   2.309   3.456  0.1971 -0.4990 -0.0978
 4609SOL     OW18201   4.273   0.642   3.922  0.1769  0.1226  0.4411
 4609SOL    HW218202   4.221   0.575   3.878 -0.8928  1.6482 -0.7094
 4609SOL    HW318203   4.327   0.680   3.853  1.0571  0.1972  1.1552
 4609SOL    MW418204   4.273   0.638   3.907  0.1519  0.3337  0.3835
 4610SOL     OW18205   4.499   2.484   4.573  0.2016 -0.2257 -0.8274
 4610SOL    HW218206   4.423   2.430   4.591  1.0695 -1.5926 -1.0650
 4610SOL    HW318207   4.490   2.508   4.481  0.1999 -0.6478 -0.9410
 4610SOL    MW418208   4.488   2.480   4.563  0.3159 -0.4617 -0.8737
 4611SOL     OW18209   0.123   0.668   4.427 -0.5405  0.1007  0.1188
 4611SOL    HW218210   0.174   0.702   4.500  1.5556  0.3871 -1.3962
 4611SOL    HW318211   0.046   0.628   4.468  1.2948 -1.1772  2.6252
 4611SOL    MW418212   0.119   0.667   4.442 -0.0218 -0.0301  0.2496
 4612SOL     OW18213   6.191   4.283   1.694  0.2629 -0.1869 -0.4704
 4612SOL    HW218214   6.221   4.355   1.750 -1.8012  0.0669  0.3933
 4612SOL    HW318215   6.139   4.326   1.626  0.9809 -0.6938 -1.3599
 4612SOL    MW418216   6.188   4.299   1.693  0.0853 -0.2203 -0.4738
 4613SOL     OW18217   1.685   2.525   6.131 -0.2275 -0.3001  0.0655
 4613SOL    HW218218   1.662   2.463   6.061 -0.6378  0.3392 -0.3777
 4613SOL    HW318219   1.691   2.610   6.087 -0.0959  0.0503  0.7431
 4613SOL    MW418220   1.683   2.528   6.116 -0.2643 -0.1695  0.0964
 4614SOL     OW18221   4.706   3.249   5.987  0.4927  0.0940  0.2496
 4614SOL    HW218222   4.750   3.271   6.069  1.0192  0.8842 -0.2348
 4614SOL    HW318223   4.732   3.158   5.970 -2.1706 -1.2505  2.5559
 4614SOL    MW418224   4.716   3.240   5.996  0.2108  0.0209  0.4900
 4615SOL     OW18225   3.311   3.939   6.023  0.2293  0.0701  0.2945
 4615SOL    HW218226   3.357   4.001   6.079 -0.4783  0.7772  0.0924
 4615SOL    HW318227   3.307   3.858   6.075  0.6530  0.3532  0.7749
 4615SOL    MW418228   3.317   3.936   6.037  0.1919  0.2008  0.3312
 4616SOL     OW18229   3.810   0.748   2.992  0.2982 -0.5432  0.0344
 4616SOL    HW218230   3.764   0.806   2.931  0.6042  0.5234  0.7970
 4616SOL    HW318231   3.758   0.668   2.992 -0.2591 -0.2031 -0.8668
 4616SOL    MW418232   3.797   0.745   2.984  0.2650 -0.3576  0.0161
 4617SOL     OW18233   1.921   5.594   5.262 -0.2815 -0.1203  0.5024
 4617SOL    HW218234   2.008   5.562   5.237 -0.7536 -1.7204  0.8353
 4617SOL    HW318235   1.935   5.638   5.346  0.2231 -0.3100  0.5200
 4617SOL    MW418236   1.934   5.596   5.270 -0.2772 -0.3564  0.5487
 4618SOL     OW18237   2.116   5.841   3.374 -0.2627 -0.1052 -0.1881
 4618SOL    HW218238   2.201   5.851   3.332 -0.8585  0.2609 -1.3296
 4618SOL    HW318239   2.057   5.897   3.323 -1.0372  0.2522  1.0504
 4618SOL    MW418240   2.119   5.850   3.362 -0.4435 -0.0098 -0.1753
 4619SOL     OW18241   3.100   4.565   1.552 -0.3746 -0.0141 -0.6177
 4619SOL    HW218242   3.110   4.499   1.483  2.7169 -0.1105 -0.2012
 4619SOL    HW318243   3.186   4.569   1.594 -1.1951  2.4840  1.0265
 4619SOL    MW418244   3.113   4.557   1.548 -0.0750  0.3028 -0.3458
 4620SOL     OW18245   3.682   3.940   5.667 -0.3245 -0.3811  0.2557
 4620SOL    HW218246   3.755   3.927   5.728  0.1693 -0.9247 -0.4345
 4620SOL    HW318247   3.718   3.918   5.582 -1.2847 -0.5731 -0.1121
 4620SOL    MW418248   3.697   3.935   5.664 -0.3860 -0.4782  0.1161
 4621SOL     OW18249   3.625   4.682   3.538  0.6421  0.4155 -0.0392
 4621SOL    HW218250   3.593   4.646   3.621 -0.5348  1.3994 -0.0329
 4621SOL    HW318251   3.628   4.608   3.479 -0.0181 -0.0267  0.4627
 4621SOL    MW418252   3.621   4.668   3.541  0.3997  0.4870  0.0278
 4622SOL     OW18253   4.658   1.242   6.201 -0.1479 -0.4860  1.2679
 4622SOL    HW218254   4.688   1.332   6.219 -0.5226  0.3778 -1.7678
 4622SOL    HW318255   4.580   1.231   6.256 -1.1158  1.7678  0.4829
 4622SOL    MW418256   4.651   1.253   6.211 -0.3250 -0.0747  0.7638
 4623SOL     OW18257   3.308   2.311   2.460 -0.0441 -0.5347 -0.4661
 4623SOL    HW218258   3.231   2.275   2.504 -0.0296 -0.8992 -0.7339
 4623SOL    HW318259   3.380   2.255   2.488  0.2230  0.1152  0.1890
 4623SOL    MW418260   3.307   2.299   2.469 -0.0069 -0.4970 -0.4150
 4624SOL     OW18261   6.051   4.101   4.790 -0.0973  0.3626 -0.4145
 4624SOL    HW218262   6.129   4.153   4.814 -0.4357  1.5663 -1.7714
 4624SOL    HW318263   5.980   4.141   4.839 -0.3034  1.0189 -1.2215
 4624SOL    MW418264   6.052   4.113   4.799 -0.1692  0.6080 -0.7000
 4625SOL     OW18265   0.769   5.117   3.507  0.5249 -0.1576 -0.1797
 4625SOL    HW218266   0.705   5.180   3.476  0.9447  0.2801 -0.1736
 4625SOL    HW318267   0.837   5.118   3.439  2.3302  2.1016  1.5162
 4625SOL    MW418268   0.770   5.125   3.494  0.8185  0.1982  0.0448
 4626SOL     OW18269   0.908   4.410   1.041 -0.7184 -0.0051 -0.1543
 4626SOL    HW218270   0.826   4.433   1.085 -1.1545 -0.1991 -0.8501
 4626SOL    HW318271   0.899   4.317   1.022  0.1831 -0.3164  0.8332
 4626SOL    MW418272   0.896   4.401   1.045 -0.6570 -0.0718 -0.1158
 4627SOL     OW18273   4.146   1.504   3.673  0.2424 -0.7460 -0.2831
 4627SOL    HW218274   4.097   1.532   3.750  0.7580  0.2280 -0.2891
 4627SOL    HW318275   4.177   1.415   3.695  2.7395  0.5038  1.8521
 4627SOL    MW418276   4.144   1.496   3.686  0.6399 -0.4526 -0.0022
 4628SOL     OW18277   3.371   0.632   6.077 -0.0241  0.5240 -0.1475
 4628SOL    HW218278   3.429   0.658   6.006  0.7148  2.0813  0.9716
 4628SOL    HW318279   3.409   0.552   6.111  0.3764  0.4930 -0.6545
 4628SOL    MW418280   3.384   0.625   6.072  0.1262  0.7254 -0.0667
 4629SOL     OW18281   5.296   5.988   1.620 -0.5698 -0.0687  0.3278
 4629SOL    HW218282   5.331   6.071   1.587  3.4862 -1.3616  0.7775
 4629SOL    HW318283   5.240   6.012   1.694 -0.2126  2.2744 -0.1056
 4629SOL    MW418284   5.293   6.002   1.626  0.0125  0.0698  0.3299
 4630SOL     OW18285   4.386   4.046   4.444  0.8574  0.2029  0.3845
 4630SOL    HW218286   4.375   4.024   4.537  2.1472  1.1932  0.8173
 4630SOL    HW318287   4.302   4.083   4.418  0.7651  0.8238  1.4649
 4630SOL    MW418288   4.374   4.048   4.453  1.0154  0.4155  0.5841
 4631SOL     OW18289   1.429   2.655   4.088  0.9734  0.5478  0.9594
 4631SOL    HW218290   1.504   2.596   4.081  0.7852 -0.0383  3.1367
 4631SOL    HW318291   1.464   2.742   4.067  0.9619 -0.3287 -3.7246
 4631SOL    MW418292   1.443   2.659   4.084  0.9470  0.3548  0.6287
 4632SOL     OW18293   0.145   5.666   4.772  0.3438 -0.2113  1.1308
 4632SOL    HW218294   0.089   5.743   4.777  0.8022  0.4648 -2.1029
 4632SOL    HW318295   0.083   5.592   4.770 -0.1887  0.1933  2.1972
 4632SOL    MW418296   0.129   5.666   4.772  0.3341 -0.0688  0.8448
 4633SOL     OW18297   3.957   2.494   0.308  0.4825 -0.4505 -0.3547
 4633SOL    HW218298   3.937   2.540   0.390 -0.4357  0.4010 -1.0280
 4633SOL    HW318299   3.890   2.425   0.303 -0.7490  0.7773 -1.3550
 4633SOL    MW418300   3.945   2.491   0.318  0.1989 -0.1762 -0.5755
 4634SOL     OW18301   0.670   4.795   5.204 -0.5398  0.0339  0.2892
 4634SOL    HW218302   0.660   4.720   5.262  0.7660  0.0980  0.6186
 4634SOL    HW318303   0.742   4.846   5.242 -2.1525  2.1227  0.7909
 4634SOL    MW418304   0.678   4.792   5.217 -0.5803  0.3179  0.3988
 4635SOL     OW18305   0.740   5.534   5.319  0.2518  0.0896 -0.6922
 4635SOL    HW218306   0.774   5.589   5.249  1.0430  0.0876 -0.3185
 4635SOL    HW318307   0.775   5.573   5.399 -1.0332  0.3901 -0.2453
 4635SOL    MW418308   0.749   5.547   5.321  0.1866  0.1290 -0.5840
 4636SOL     OW18309   1.093   5.468   5.510  0.2807 -0.3053  0.5094
 4636SOL    HW218310   1.058   5.531   5.447  0.4200 -0.2543  0.4814
 4636SOL    HW318311   1.091   5.515   5.594  1.3685  0.1196  0.3128
 4636SOL    MW418312   1.088   5.483   5.513  0.4426 -0.2425  0.4798
 4637SOL     OW18313   0.975   4.147   3.840 -0.1299  0.4665  0.2140
 4637SOL    HW218314   1.010   4.092   3.770  2.0690  0.9578  0.8490
 4637SOL    HW318315   0.937   4.223   3.795  0.8132  0.5404 -0.4712
 4637SOL    MW418316   0.974   4.150   3.825  0.2847  0.5411  0.2074
 4638SOL     OW18317   2.661   1.145   6.256  0.5349  0.0491 -0.0199
 4638SOL    HW218318   2.620   1.225   6.291  0.2273 -0.0739 -0.0958
 4638SOL    HW318319   2.616   1.130   6.173 -1.2403 -1.6463  1.1601
 4638SOL    MW418320   2.650   1.154   6.250  0.2601 -0.1908  0.1258
 4639SOL     OW18321   0.678   6.030   4.269  0.1365  0.0951  0.7509
 4639SOL    HW218322   0.643   6.031   4.179  2.0801 -1.5569 -0.1075
 4639SOL    HW318323   0.619   5.972   4.316 -1.0817  1.2125  0.6656
 4639SOL    MW418324   0.665   6.023   4.263  0.2322  0.0246  0.6264
 4640SOL     OW18325   1.125   0.030   1.604 -0.5398 -0.3273 -0.0769
 4640SOL    HW218326   1.069  -0.046   1.620 -2.4256  1.1879  0.9962
 4640SOL    HW318327   1.201  -0.005   1.559 -0.3079 -3.1978  2.2341
 4640SOL    MW418328   1.127   0.016   1.600 -0.7580 -0.5061  0.3696
 4641SOL     OW18329   0.396   5.365   3.095 -0.6056  0.4767  0.3754
 4641SOL    HW218330   0.417   5.386   3.004  0.4939 -2.4161 -0.1602
 4641SOL    HW318331   0.377   5.449   3.136 -1.1234  1.8825 -2.5006
 4641SOL    MW418332   0.396   5.379   3.089 -0.5289  0.2805 -0.0747
 4642SOL     OW18333   5.297   3.383   5.941 -0.3539 -0.2009  0.1074
 4642SOL    HW218334   5.202   3.374   5.931 -0.5946  1.5302  0.4653
 4642SOL    HW318335   5.318   3.337   6.022 -0.9352 -0.3804  0.1562
 4642SOL    MW418336   5.287   3.376   5.950 -0.4624  0.0038  0.1610
 4643SOL     OW18337   1.599   2.978   3.838 -0.0539 -0.0080  0.1684
 4643SOL    HW218338   1.676   3.001   3.786 -0.1558  0.0610  0.0459
 4643SOL    HW318339   1.630   2.980   3.928  0.5204 -1.6511  0.0462
 4643SOL    MW418340   1.613   2.981   3.843  0.0084 -0.2157  0.1361
 4644SOL     OW18341   6.277   3.628   2.658 -0.0052 -0.5524 -0.1946
 4644SOL    HW218342   6.264   3.533   2.650 -1.2894 -0.3029 -1.2787
 4644SOL    HW318343   6.343   3.648   2.592 -1.7093 -0.3244 -1.9073
 4644SOL    MW418344   6.284   3.618   2.648 -0.3995 -0.4894 -0.5636
 4645SOL     OW18345   6.221   5.200   5.849  0.2182 -0.4640  0.0121
 4645SOL    HW218346   6.242   5.202   5.755  0.5421 -3.2260 -0.0818
 4645SOL    HW318347   6.286   5.257   5.889 -0.8232  1.9370 -1.5175
 4645SOL    MW418348   6.233   5.208   5.842  0.1235 -0.5116 -0.2021
 4646SOL     OW18349   2.335   5.952   3.256 -0.0583  0.4412  0.3662
 4646SOL    HW218350   2.371   5.985   3.338  0.3086  1.6328 -0.2533
 4646SOL    HW318351   2.409   5.907   3.214 -0.0844  0.3534  0.4134
 4646SOL    MW418352   2.349   5.950   3.261 -0.0133  0.5869  0.2907
 4647SOL     OW18353   4.644   2.741   3.564 -0.3068  0.4232 -0.3953
 4647SOL    HW218354   4.716   2.681   3.580 -0.1730  0.7208  0.1506
 4647SOL    HW318355   4.588   2.733   3.641  0.7295  2.4240  0.6681
 4647SOL    MW418356   4.646   2.732   3.576 -0.1524  0.7264 -0.1830
 4648SOL     OW18357   4.154   2.229   4.234 -1.1153  0.1218 -0.2874
 4648SOL    HW218358   4.136   2.142   4.270 -1.2895  0.8261  1.4375
 4648SOL    HW318359   4.225   2.215   4.171 -2.2625 -1.5029 -1.3316
 4648SOL    MW418360   4.161   2.215   4.230 -1.2896  0.0003 -0.1976
 4649SOL     OW18361   1.612   2.714   4.708  0.1472  0.2119  0.1949
 4649SOL    HW218362   1.547   2.687   4.643 -1.8006  0.8053  1.7783
 4649SOL    HW318363   1.605   2.810   4.711  1.1007  0.2855  0.4074
 4649SOL    MW418364   1.602   2.723   4.700  0.0160  0.2999  0.4319
 4650SOL     OW18365   3.972   5.004   4.769 -0.3708 -0.4257  0.0755
 4650SOL    HW218366   4.045   5.064   4.758 -0.4572 -0.4795 -0.9116
 4650SOL    HW318367   3.973   4.980   4.862  0.5850 -0.0816  0.1580
 4650SOL    MW418368   3.982   5.009   4.780 -0.2561 -0.3874 -0.0439
 4651SOL     OW18369   3.317   1.156   1.242 -0.2020 -0.7352  0.6022
 4651SOL    HW218370   3.387   1.096   1.268 -0.3150 -0.7285  0.9299
 4651SOL    HW318371   3.248   1.142   1.307  0.1615  0.4469  1.2929
 4651SOL    MW418372   3.317   1.146   1.254 -0.1690 -0.5783  0.7366
 4652SOL     OW18373   4.713   1.603   5.625 -0.2969 -0.3600 -0.0444
 4652SOL    HW218374   4.665   1.658   5.564 -0.1229  0.9818  0.9874
 4652SOL    HW318375   4.646   1.561   5.678 -0.3980 -0.4019 -0.2048
 4652SOL    MW418376   4.698   1.605   5.624 -0.2873 -0.1885  0.0706
 4653SOL     OW18377   4.640   1.275   4.290 -0.2599  0.1046  0.0444
 4653SOL    HW218378   4.594   1.345   4.336  0.2916  1.2881 -1.1546
 4653SOL    HW318379   4.729   1.308   4.279  0.2645 -1.1834  0.2704
 4653SOL    MW418380   4.646   1.289   4.295 -0.1180  0.0908 -0.0840
 4654SOL     OW18381   3.532   2.138   2.530  0.4064 -0.2017  0.0265
 4654SOL    HW218382   3.475   2.100   2.597  1.4921  0.1762  1.1979
 4654SOL    HW318383   3.548   2.066   2.468 -0.0536 -0.7583  0.5410
 4654SOL    MW418384   3.526   2.123   2.530  0.4890 -0.2253  0.2489
 4655SOL     OW18385   3.099   2.994   4.390 -0.3928  0.3612  0.0052
 4655SOL    HW218386   3.110   2.960   4.479 -1.3246  0.8641  0.3139
 4655SOL    HW318387   3.147   3.077   4.389  1.3550 -0.5889 -0.5730
 4655SOL    MW418388   3.107   3.000   4.401 -0.2852  0.3022 -0.0304
 4656SOL     OW18389   2.068   2.176   4.205 -0.2162 -0.0714 -0.4180
 4656SOL    HW218390   2.149   2.224   4.188 -0.4268 -0.1651 -1.7831
 4656SOL    HW318391   2.046   2.199   4.295  1.7558 -0.7131  0.2878
 4656SOL    MW418392   2.076   2.186   4.214  0.0162 -0.1684 -0.5050
 4657SOL     OW18393   4.790   0.688   6.318  0.0521 -0.1014  0.3331
 4657SOL    HW218394   4.717   0.630   6.339  0.2164 -0.5759 -0.3524
 4657SOL    HW318395   4.780   0.705   6.224  0.7981 -0.1524  0.2396
 4657SOL    MW418396   4.779   0.682   6.308  0.1722 -0.1707  0.2304
 4658SOL     OW18397   6.279   4.243   1.136  0.9070 -0.0255  0.4868
 4658SOL    HW218398   6.287   4.147   1.132 -0.5156 -0.1356 -0.7014
 4658SOL    HW318399   6.187   4.258   1.155  0.7363  1.1087 -1.1014
 4658SOL    MW418400   6.268   4.232   1.138  0.6968  0.1096  0.1205
 4659SOL     OW18401   5.961   0.189   4.741 -0.2721  0.7221  0.2742
 4659SOL    HW218402   5.891   0.221   4.798 -1.8700 -0.9421 -0.6295
 4659SOL    HW318403   5.987   0.105   4.779  2.0933  1.8028  1.2177
 4659SOL    MW418404   5.955   0.182   4.753 -0.1708  0.6451  0.2794
 4660SOL     OW18405   4.440   1.675   1.037  0.5462  0.3783  0.1780
 4660SOL    HW218406   4.461   1.589   1.072  0.1673  0.6431  1.1020
 4660SOL    HW318407   4.519   1.728   1.053  1.0102  0.0557 -0.9528
 4660SOL    MW418408   4.453   1.671   1.044  0.5574  0.3707  0.1507
 4661SOL     OW18409   6.215   2.747   2.333 -0.0063  0.0264 -0.2185
 4661SOL    HW218410   6.135   2.750   2.280 -0.7043  1.1811  0.8320
 4661SOL    HW318411   6.256   2.832   2.319  1.4295 -0.8155 -1.2846
 4661SOL    MW418412   6.210   2.758   2.324  0.0910  0.0677 -0.2206
 4662SOL     OW18413   2.906   4.505   5.506 -0.3694  0.1320  0.6689
 4662SOL    HW218414   2.904   4.545   5.419  0.4748 -0.6640  0.2633
 4662SOL    HW318415   2.820   4.462   5.514 -0.3607 -0.0025  0.1128
 4662SOL    MW418416   2.894   4.504   5.495 -0.2569  0.0092  0.5420
 4663SOL     OW18417   4.627   4.095   5.935 -0.8534  0.3131  0.3144
 4663SOL    HW218418   4.683   4.033   5.887 -1.2181 -1.0970  1.6388
 4663SOL    HW318419   4.590   4.150   5.867  1.3582  0.6654 -0.7194
 4663SOL    MW418420   4.630   4.094   5.919 -0.6097  0.1735  0.3527
 4664SOL     OW18421   1.057   2.132   1.340  0.0518  0.5256  0.0094
 4664SOL    HW218422   1.048   2.226   1.326  1.1979  0.6160 -0.1775
 4664SOL    HW318423   1.121   2.124   1.411 -0.0785 -0.1125  0.0637
 4664SOL    MW418424   1.064   2.143   1.348  0.1858  0.4534 -0.0081
 4665SOL     OW18425   0.422   3.360   3.162 -0.1644 -0.2950  0.0747
 4665SOL    HW218426   0.366   3.421   3.208 -0.8804 -0.5470 -0.4395
 4665SOL    HW318427   0.444   3.404   3.079 -0.2921 -0.5362 -0.0889
 4665SOL    MW418428   0.417   3.373   3.157 -0.2757 -0.3600 -0.0147
 4666SOL     OW18429   3.303   0.077   5.017  0.3262 -0.7544 -0.2299
 4666SOL    HW218430   3.228   0.128   4.986  0.1594 -0.7657  0.1457
 4666SOL    HW318431   3.275   0.043   5.102  0.6251 -1.0555 -0.2497
 4666SOL    MW418432   3.289   0.079   5.024  0.3436 -0.7956 -0.1830
 4667SOL     OW18433   2.530   4.512   6.061  0.4307  0.5603 -0.3844
 4667SOL    HW218434   2.571   4.437   6.103 -1.2836 -0.0821  0.1777
 4667SOL    HW318435   2.528   4.489   5.968 -0.1556 -0.1401 -0.2066
 4667SOL    MW418436   2.535   4.499   6.054  0.1272  0.3831 -0.2868
 4668SOL     OW18437   2.456   0.557   4.322 -0.6654 -0.0952 -0.0816
 4668SOL    HW218438   2.484   0.621   4.257 -1.1826 -0.6691 -0.8844
 4668SOL    HW318439   2.471   0.600   4.406 -0.5827  0.9034 -0.5932
 4668SOL    MW418440   2.462   0.571   4.325 -0.7227 -0.0392 -0.2551
 4669SOL     OW18441   3.561   1.435   3.652 -0.2631  0.8298 -0.0356
 4669SOL    HW218442   3.494   1.493   3.687 -1.3982  0.3776 -1.3871
 4669SOL    HW318443   3.537   1.422   3.561  1.5774  0.5141 -0.5257
 4669SOL    MW418444   3.549   1.441   3.645 -0.1700  0.7285 -0.2786
 4670SOL     OW18445   3.269   1.621   2.078 -0.1014  0.2851  0.0232
 4670SOL    HW218446   3.316   1.600   1.998 -1.0342  0.4793 -0.5901
 4670SOL    HW318447   3.276   1.542   2.131  0.0935 -0.0274 -0.4585
 4670SOL    MW418448   3.276   1.608   2.074 -0.1988  0.2695 -0.1213
 4671SOL     OW18449   3.406   6.064   2.290  0.1036 -0.0948  0.1683
 4671SOL    HW218450   3.347   6.031   2.358  0.1790  1.0038  0.7882
 4671SOL    HW318451   3.404   5.997   2.222 -0.2231 -1.0602  1.1132
 4671SOL    MW418452   3.398   6.051   2.290  0.0704 -0.0772  0.3748
 4672SOL     OW18453   3.528   0.550   1.279  0.5012  0.0289 -0.1418
 4672SOL    HW218454   3.579   0.564   1.359  1.0261 -1.6328 -0.1574
 4672SOL    HW318455   3.436   0.555   1.308  0.6793  0.1154  0.4204
 4672SOL    MW418456   3.522   0.553   1.294  0.5940 -0.1789 -0.0697
 4673SOL     OW18457   4.293   3.544   3.030  0.5936  0.0293 -0.4915
 4673SOL    HW218458   4.315   3.599   3.105  0.9928  0.1464 -0.6913
 4673SOL    HW318459   4.365   3.481   3.024  0.4147 -0.1667 -0.5976
 4673SOL    MW418460   4.305   3.543   3.039  0.6227  0.0189 -0.5319
 4674SOL     OW18461   4.793   5.336   3.825 -0.5261 -0.8019 -0.4211
 4674SOL    HW218462   4.835   5.412   3.785  2.3282 -2.4170 -0.7246
 4674SOL    HW318463   4.702   5.342   3.797  0.1382  1.1776 -2.4713
 4674SOL    MW418464   4.786   5.347   3.816 -0.0619 -0.7538 -0.7316
 4675SOL     OW18465   5.025   2.636   6.041  0.2711  0.2570  0.3018
 4675SOL    HW218466   4.947   2.682   6.072  0.3604  0.0166  0.9004
 4675SOL    HW318467   5.045   2.574   6.111  0.2298 -0.6059 -0.4334
 4675SOL    MW418468   5.017   2.633   6.055  0.2775  0.1115  0.2838
 4676SOL     OW18469   5.038   2.585   0.937  0.0169 -0.8363  0.1832
 4676SOL    HW218470   4.968   2.642   0.968 -0.1006 -0.3589 -0.9264
 4676SOL    HW318471   5.116   2.615   0.984  0.1616  0.9134 -1.0699
 4676SOL    MW418472   5.039   2.597   0.947  0.0205 -0.5424 -0.1285
 4677SOL     OW18473   2.215   2.942   0.204  0.3218  0.5122 -0.1145
 4677SOL    HW218474   2.262   2.873   0.252 -0.2073  0.5430  0.4614
 4677SOL    HW318475   2.204   2.906   0.115 -0.5264 -0.4483  0.3506
 4677SOL    MW418476   2.220   2.928   0.198  0.1401  0.3895  0.0229
 4678SOL     OW18477   0.845   3.214   0.616 -0.0808  0.5727  0.2108
 4678SOL    HW218478   0.876   3.261   0.693  0.4222 -0.9536  0.9714
 4678SOL    HW318479   0.919   3.217   0.555  0.1528  0.2789  0.4790
 4678SOL    MW418480   0.859   3.221   0.618  0.0164  0.3325  0.3465
 4679SOL     OW18481   2.866   2.263   4.938  0.0744  0.1699 -0.4567
 4679SOL    HW218482   2.952   2.291   4.970 -0.2679  1.6091 -0.7225
 4679SOL    HW318483   2.811   2.261   5.016  0.5269 -1.5789 -0.1488
 4679SOL    MW418484   2.870   2.267   4.952  0.0889  0.1290 -0.4511
 4680SOL     OW18485   4.072   1.878   3.397 -0.2898  0.1888  0.1293
 4680SOL    HW218486   4.114   1.890   3.312 -1.5190 -0.8881 -0.6661
 4680SOL    HW318487   4.005   1.946   3.401 -2.0563 -1.4187 -0.9899
 4680SOL    MW418488   4.069   1.889   3.387 -0.6850 -0.1654 -0.1233
 4681SOL     OW18489   1.953   2.818   2.035 -0.2533  0.0127  0.0271
 4681SOL    HW218490   1.893   2.862   2.095  0.1123  0.8959 -0.2351
 4681SOL    HW318491   2.029   2.876   2.030  0.6266 -1.0785  0.3406
 4681SOL    MW418492   1.955   2.831   2.042 -0.0890 -0.0148  0.0339
 4682SOL     OW18493   5.256   4.204   0.273 -0.5202  0.0788 -0.0640
 4682SOL    HW218494   5.274   4.294   0.303  1.7985 -1.2218  2.9747
 4682SOL    HW318495   5.161   4.195   0.279 -0.7039  1.9674  0.6458
 4682SOL    MW418496   5.246   4.215   0.277 -0.2385  0.1564  0.4306
 4683SOL     OW18497   3.988   4.489   1.552 -0.2991  0.6323 -0.0630
 4683SOL    HW218498   4.045   4.457   1.621 -0.4599 -0.5129 -0.4289
 4683SOL    HW318499   3.902   4.495   1.592 -0.7230 -1.5503 -0.5139
 4683SOL    MW418500   3.984   4.485   1.566 -0.3762  0.1932 -0.1707
 4684SOL     OW18501   1.928   3.863   4.829  0.3626  0.3042  0.0180
 4684SOL    HW218502   1.878   3.910   4.895 -1.5412  0.8184 -1.7109
 4684SOL    HW318503   1.885   3.778   4.822  0.9744 -0.0047 -0.0871
 4684SOL    MW418504   1.916   3.858   4.837  0.1921  0.3312 -0.2240
 4685SOL     OW18505   0.419   0.601   3.553 -0.1240  0.3673  0.2813
 4685SOL    HW218506   0.449   0.543   3.623 -2.1938  0.1791  1.0926
 4685SOL    HW318507   0.326   0.581   3.544 -0.4213  2.0613 -0.9163
 4685SOL    MW418508   0.411   0.591   3.561 -0.4363  0.5659  0.2303
 4686SOL     OW18509   2.521   5.318   1.781  0.2348 -0.6680 -0.0812
 4686SOL    HW218510   2.611   5.332   1.809  0.6394 -1.5984 -0.8704
 4686SOL    HW318511   2.484   5.260   1.848  1.0822 -2.5688 -1.1665
 4686SOL    MW418512   2.528   5.312   1.794  0.4000 -1.0416 -0.3285
 4687SOL     OW18513   3.045   5.048   5.065  0.3755  0.6855 -0.0992
 4687SOL    HW218514   2.981   5.115   5.040 -0.2692  0.6563  1.3844
 4687SOL    HW318515   3.108   5.047   4.993 -0.8546  1.2762 -1.2187
 4687SOL    MW418516   3.045   5.057   5.052  0.1282  0.7596 -0.0512
 4688SOL     OW18517   2.461   0.183   5.140 -0.3473  0.0690  0.0524
 4688SOL    HW218518   2.511   0.250   5.092  1.5654  0.3194  2.2324
 4688SOL    HW318519   2.475   0.102   5.090 -0.6326  0.7891 -1.2408
 4688SOL    MW418520   2.470   0.181   5.127 -0.1326  0.1970  0.1694
 4689SOL     OW18521   4.327   1.541   2.115  0.0387 -0.3680 -0.2796
 4689SOL    HW218522   4.253   1.538   2.055 -0.0652  0.9706 -0.2480
 4689SOL    HW318523   4.390   1.600   2.073  0.2982 -0.0364  0.5613
 4689SOL    MW418524   4.326   1.548   2.102  0.0592 -0.1476 -0.1645
 4690SOL     OW18525   1.311   2.996   0.886  0.1193  0.3025 -0.0904
 4690SOL    HW218526   1.308   2.902   0.904 -0.1333  0.0987 -1.1563
 4690SOL    HW318527   1.259   3.035   0.957  1.5464 -0.1875  1.3011
 4690SOL    MW418528   1.304   2.989   0.898  0.2742  0.2110 -0.0474
 4691SOL     OW18529   1.789   2.135   5.167 -0.5151  0.6330 -0.5256
 4691SOL    HW218530   1.839   2.070   5.216 -0.2956  1.1619 -0.0384
 4691SOL    HW318531   1.828   2.133   5.079 -1.6297 -1.0864 -1.0171
 4691SOL    MW418532   1.801   2.127   5.162 -0.6332  0.4759 -0.5261
 4692SOL     OW18533   0.145   4.595   4.830  0.3281 -0.4209  0.0435
 4692SOL    HW218534   0.171   4.554   4.747  0.0622 -0.9048  0.1908
 4692SOL    HW318535   0.197   4.675   4.835  0.2361 -0.3108 -0.6643
 4692SOL    MW418536   0.155   4.600   4.820  0.2809 -0.4702 -0.0304
 4693SOL     OW18537   6.256   4.864   5.612 -0.5540  0.1695 -0.3172
 4693SOL    HW218538   6.316   4.937   5.625  1.7084 -1.7431  0.6716
 4693SOL    HW318539   6.248   4.823   5.698 -0.9400 -1.3460 -1.0386
 4693SOL    MW418540   6.263   4.868   5.625 -0.3064 -0.2828 -0.2819
 4694SOL     OW18541   1.194   0.689   3.698 -0.3547  0.1066 -0.4975
 4694SOL    HW218542   1.205   0.676   3.603 -1.1196 -0.1047 -0.5589
 4694SOL    HW318543   1.243   0.618   3.738 -0.3939 -0.0603 -0.7446
 4694SOL    MW418544   1.202   0.678   3.690 -0.4608  0.0567 -0.5382
 4695SOL     OW18545   0.043   4.092   0.677 -0.1953  0.3832  0.4923
 4695SOL    HW218546   0.025   4.137   0.595  1.8115  1.2650  0.4780
 4695SOL    HW318547   0.129   4.126   0.705  0.5596 -2.0670  1.4246
 4695SOL    MW418548   0.052   4.102   0.670  0.1691  0.1763  0.6134
 4696SOL     OW18549   5.385   3.845   1.203  0.0696 -0.0367 -0.2388
 4696SOL    HW218550   5.359   3.760   1.239  1.7456 -0.6642 -0.4383
 4696SOL    HW318551   5.315   3.905   1.231 -0.4057 -1.1733  1.1455
 4696SOL    MW418552   5.372   3.842   1.212  0.2280 -0.2694 -0.0825
 4697SOL     OW18553   2.768   1.790   1.571  0.0228  0.2923 -0.1548
 4697SOL    HW218554   2.701   1.751   1.515  0.0676 -0.1225  0.0753
 4697SOL    HW318555   2.849   1.779   1.521  0.2326 -1.0508  0.4416
 4697SOL    MW418556   2.770   1.783   1.557  0.0564  0.0603 -0.0458
 4698SOL     OW18557   4.834   2.934   5.890 -0.3590  0.1509 -0.0015
 4698SOL    HW218558   4.759   2.926   5.831  0.0645 -0.2591 -0.5039
 4698SOL    HW318559   4.909   2.912   5.835  0.3306  2.2827  0.0273
 4698SOL    MW418560   4.834   2.930   5.875 -0.2122  0.3781 -0.0640
 4699SOL     OW18561   5.902   0.854   6.049  0.2408 -0.1525  0.1598
 4699SOL    HW218562   5.933   0.767   6.024  0.1704 -0.3309  0.6754
 4699SOL    HW318563   5.928   0.863   6.141 -1.0753 -0.2481  0.5647
 4699SOL    MW418564   5.909   0.844   6.058  0.0579 -0.1887  0.2813
 4700SOL     OW18565   4.923   0.488   2.899 -0.0769  0.9689  0.2282
 4700SOL    HW218566   4.980   0.418   2.931  0.2455  0.9635 -0.3511
 4700SOL    HW318567   4.937   0.560   2.960 -0.5561  0.4677  0.9413
 4700SOL    MW418568   4.932   0.488   2.911 -0.0976  0.9021  0.2459
 4701SOL     OW18569   4.173   1.421   4.255 -0.0831 -0.3072  0.1339
 4701SOL    HW218570   4.247   1.374   4.215 -0.3252 -0.3147 -0.3034
 4701SOL    HW318571   4.208   1.508   4.273 -0.1768 -0.0705 -0.7594
 4701SOL    MW418572   4.188   1.426   4.252 -0.1274 -0.2769 -0.0417
 4702SOL     OW18573   1.255   0.316   5.265 -0.1300 -0.5332  0.4958
 4702SOL    HW218574   1.332   0.261   5.282 -0.4364 -1.1914 -0.1533
 4702SOL    HW318575   1.233   0.353   5.350 -0.2009 -1.8229  1.0666
 4702SOL    MW418576   1.262   0.313   5.278 -0.1798 -0.7902  0.4855
 4703SOL     OW18577   1.265   6.018   2.175 -0.0753 -0.2977 -0.4134
 4703SOL    HW218578   1.225   6.075   2.109 -0.0239  0.9577  0.5855
 4703SOL    HW318579   1.359   6.026   2.160 -0.0955 -0.8638 -0.8586
 4703SOL    MW418580   1.272   6.027   2.164 -0.0712 -0.2068 -0.3404
 4704SOL     OW18581   4.483   5.922   1.881  0.3925  0.3615 -0.1147
 4704SOL    HW218582   4.445   5.908   1.795 -0.7012 -0.4773  0.4791
 4704SOL    HW318583   4.557   5.981   1.866 -1.5508  2.7073 -1.2337
 4704SOL    MW418584   4.488   5.928   1.868 -0.0082  0.5604 -0.1840
 4705SOL     OW18585   2.030   1.487   0.902 -0.0650  0.7192 -0.6748
 4705SOL    HW218586   1.986   1.454   0.980 -0.7967 -0.2346 -1.4628
 4705SOL    HW318587   2.008   1.424   0.833  2.2522  0.3967 -1.2030
 4705SOL    MW418588   2.021   1.474   0.903  0.1442  0.5508 -0.8484
 4706SOL     OW18589   0.935   3.045   2.557 -0.2591  0.5911 -0.2921
 4706SOL    HW218590   0.975   3.020   2.474 -0.3389  0.3066 -0.2466
 4706SOL    HW318591   0.960   2.975   2.617 -0.0413  0.8942 -0.0288
 4706SOL    MW418592   0.944   3.033   2.554 -0.2409  0.5935 -0.2514
 4707SOL     OW18593   2.844   6.373   1.367  0.0696  0.0290  0.4481
 4707SOL    HW218594   2.764   6.387   1.316 -0.4376  1.6719  1.6047
 4707SOL    HW318595   2.915   6.395   1.306 -0.5289  1.9906  0.3908
 4707SOL    MW418596   2.843   6.378   1.352 -0.0763  0.5046  0.5932
 4708SOL     OW18597   6.248   5.294   2.782  0.2539  0.4485 -0.3347
 4708SOL    HW218598   6.298   5.286   2.864 -0.8220  0.6982  0.3652
 4708SOL    HW318599   6.252   5.387   2.760  0.8618  0.3252 -0.7942
 4708SOL    MW418600   6.255   5.305   2.790  0.1922  0.4652 -0.3030
 4709SOL     OW18601   2.174   4.530   5.287  0.0655 -0.1773 -0.1239
 4709SOL    HW218602   2.205   4.440   5.297  2.4636  0.7188  1.4613
 4709SOL    HW318603   2.201   4.555   5.199  0.5782 -0.6036 -0.0926
 4709SOL    MW418604   2.181   4.521   5.277  0.4496 -0.1153  0.0894
 4710SOL     OW18605   2.711   1.202   1.008  0.2278  0.1865 -0.0123
 4710SOL    HW218606   2.710   1.282   0.955  0.6195  0.2195  0.0264
 4710SOL    HW318607   2.740   1.230   1.094 -1.0263  0.2373  0.4100
 4710SOL    MW418608   2.715   1.216   1.012  0.1140  0.1976  0.0486
 4711SOL     OW18609   3.059   5.563   5.405 -0.1728 -0.2417  0.5353
 4711SOL    HW218610   3.079   5.651   5.439 -0.3648  0.3326 -0.7496
 4711SOL    HW318611   3.088   5.503   5.474  1.4451  0.7685  0.7933
 4711SOL    MW418612   3.066   5.567   5.419  0.0153 -0.0326  0.3998
 4712SOL     OW18613   4.338   6.313   0.344 -0.2396  0.0444 -0.2913
 4712SOL    HW218614   4.401   6.297   0.274  0.8085 -0.2255  0.6909
 4712SOL    HW318615   4.361   6.399   0.379 -1.2626  0.5368 -0.7709
 4712SOL    MW418616   4.349   6.322   0.339 -0.2363  0.0738 -0.2250
 4713SOL     OW18617   0.916   5.283   0.772 -0.2979  0.3836 -0.9299
 4713SOL    HW218618   0.904   5.367   0.818 -0.6288  0.0502 -0.4017
 4713SOL    HW318619   0.999   5.294   0.725  0.4993  0.4553  0.4137
 4713SOL    MW418620   0.925   5.296   0.772 -0.2364  0.3491 -0.6829
 4714SOL     OW18621   1.590   1.669   4.297 -0.2102  0.5136 -0.1714
 4714SOL    HW218622   1.614   1.671   4.390 -2.0634 -0.6392  0.3884
 4714SOL    HW318623   1.669   1.697   4.251  1.2674 -0.4283  1.6596
 4714SOL    MW418624   1.603   1.673   4.303 -0.2597  0.2372  0.1441
 4715SOL     OW18625   2.643   6.340   0.433 -0.0538 -0.3719  0.5044
 4715SOL    HW218626   2.671   6.279   0.365 -1.5116 -1.0238  0.4678
 4715SOL    HW318627   2.560   6.375   0.401  0.5600  1.3627  0.7048
 4715SOL    MW418628   2.636   6.337   0.420 -0.1651 -0.2291  0.5260
 4716SOL     OW18629   4.147   4.655   3.030  0.5058 -0.0361 -0.3504
 4716SOL    HW218630   4.225   4.603   3.009 -1.2504 -2.4202 -1.4296
 4716SOL    HW318631   4.076   4.591   3.032 -1.3960  1.9826  1.0298
 4716SOL    MW418632   4.148   4.640   3.028  0.0231 -0.0843 -0.3107
 4717SOL     OW18633   3.098   5.400   5.647  0.0881  0.2195  0.4565
 4717SOL    HW218634   3.019   5.348   5.660  0.4039  0.1450  2.3233
 4717SOL    HW318635   3.169   5.341   5.669  0.5766  0.7736  0.3783
 4717SOL    MW418636   3.097   5.385   5.651  0.1942  0.2827  0.6925
 4718SOL     OW18637   3.490   3.910   0.939  0.5454 -0.0102  0.2707
 4718SOL    HW218638   3.521   3.998   0.959 -1.1861  0.4823  0.9940
 4718SOL    HW318639   3.433   3.888   1.013  0.9297 -1.7419  0.0933
 4718SOL    MW418640   3.487   3.918   0.952  0.3676 -0.1737  0.3427
 4719SOL     OW18641   0.782   2.138   1.312 -0.1683  0.1167  0.0319
 4719SOL    HW218642   0.877   2.141   1.324  0.0006  2.8048 -1.3500
 4719SOL    HW318643   0.746   2.169   1.395  0.2103  0.3651  0.1038
 4719SOL    MW418644   0.790   2.142   1.324 -0.0961  0.5041 -0.1409
 4720SOL     OW18645   4.530   5.304   3.735 -0.0418 -0.2821 -0.2502
 4720SOL    HW218646   4.511   5.315   3.642 -1.0569  1.3232  0.1052
 4720SOL    HW318647   4.482   5.226   3.760  1.3424 -1.5405 -1.3267
 4720SOL    MW418648   4.521   5.295   3.726  0.0069 -0.2364 -0.3453
 4721SOL     OW18649   3.904   3.296   1.971 -0.0589 -0.3025  0.4481
 4721SOL    HW218650   3.834   3.310   1.908  0.4326 -0.9388 -0.2475
 4721SOL    HW318651   3.963   3.234   1.929 -0.0923 -1.3106  1.8194
 4721SOL    MW418652   3.903   3.290   1.957  0.0016 -0.5195  0.5372
 4722SOL     OW18653   5.966   5.124   4.256 -0.0091 -0.5178  0.3063
 4722SOL    HW218654   5.942   5.041   4.297  0.7758 -1.1016 -0.3732
 4722SOL    HW318655   5.896   5.184   4.280 -1.6323 -1.8887 -0.8180
 4722SOL    MW418656   5.954   5.121   4.265 -0.1197 -0.7757  0.0683
 4723SOL     OW18657   0.056   4.347   3.332 -0.2004  0.2596 -0.2471
 4723SOL    HW218658   0.061   4.258   3.368  0.3118 -0.0446 -1.0296
 4723SOL    HW318659   0.093   4.339   3.244  0.8341  1.4614  0.0546
 4723SOL    MW418660   0.061   4.334   3.325  0.0036  0.3780 -0.3105
 4724SOL     OW18661   1.332   0.318   3.409 -0.3478 -0.1814 -0.2234
 4724SOL    HW218662   1.312   0.232   3.371 -1.7173  0.4731 -1.0850
 4724SOL    HW318663   1.362   0.370   3.334  0.0681  0.2115  0.2146
 4724SOL    MW418664   1.333   0.313   3.394 -0.4736 -0.0432 -0.2793
 4725SOL     OW18665   4.704   0.558   3.744 -0.5710 -0.2394 -0.4038
 4725SOL    HW218666   4.654   0.559   3.826 -0.5509  0.4881 -0.3947
 4725SOL    HW318667   4.732   0.649   3.732  0.7762 -0.6222 -0.3941
 4725SOL    MW418668   4.701   0.570   3.754 -0.3906 -0.1939 -0.4013
 4726SOL     OW18669   5.522   4.176   5.060 -0.9126 -0.3765  0.1444
 4726SOL    HW218670   5.545   4.257   5.105  1.0602 -0.5088 -0.5237
 4726SOL    HW318671   5.578   4.109   5.100 -2.2667 -1.3828  0.4612
 4726SOL    MW418672   5.532   4.178   5.072 -0.8309 -0.5268  0.0980
 4727SOL     OW18673   2.149   2.612   1.274 -0.2894  0.1843  0.1814
 4727SOL    HW218674   2.123   2.527   1.238 -2.0429  0.7954 -0.0968
 4727SOL    HW318675   2.160   2.668   1.198 -0.7185  0.6185  0.4341
 4727SOL    MW418676   2.147   2.608   1.259 -0.5773  0.3222  0.1780
 4728SOL     OW18677   3.194   2.957   5.075  0.0357  0.2776  0.1438
 4728SOL    HW218678   3.263   2.997   5.127 -1.9893  2.0482  1.6088
 4728SOL    HW318679   3.194   2.865   5.103  1.6252  0.2694  0.2410
 4728SOL    MW418680   3.203   2.950   5.085 -0.0217  0.5101  0.3499
 4729SOL     OW18681   1.853   2.714   4.554  0.2182  0.1428  0.2760
 4729SOL    HW218682   1.777   2.701   4.611 -0.1702  2.9402  0.5419
 4729SOL    HW318683   1.918   2.756   4.611  0.5589  1.1596 -0.8337
 4729SOL    MW418684   1.851   2.718   4.569  0.2119  0.6460  0.1647
 4730SOL     OW18685   6.332   6.071   1.469  0.3754  0.0268 -0.5291
 4730SOL    HW218686   6.307   6.107   1.384  0.3536  0.3860 -0.3720
 4730SOL    HW318687   6.425   6.093   1.478  0.2136  0.5752 -0.1669
 4730SOL    MW418688   6.341   6.079   1.459  0.3512  0.1465 -0.4606
 4731SOL     OW18689   1.340   4.576   6.170  0.2685  0.0610  0.5224
 4731SOL    HW218690   1.397   4.540   6.103  1.4021 -0.0387  1.5113
 4731SOL    HW318691   1.271   4.510   6.182 -0.0321  0.1529 -0.6272
 4731SOL    MW418692   1.338   4.563   6.163  0.3784  0.0600  0.5012
 4732SOL     OW18693   4.570   0.560   5.248 -0.2431  0.3886 -0.0924
 4732SOL    HW218694   4.553   0.556   5.342  1.7508  0.9406  0.3248
 4732SOL    HW318695   4.544   0.649   5.223 -1.9947 -0.1645 -0.3572
 4732SOL    MW418696   4.564   0.571   5.257 -0.2111  0.3885 -0.0723
 4733SOL     OW18697   5.403   5.367   5.665 -0.8365 -0.2798 -0.6586
 4733SOL    HW218698   5.366   5.322   5.741 -1.1975  0.3831 -0.4289
 4733SOL    HW318699   5.327   5.404   5.620 -0.4845  1.2409 -0.0946
 4733SOL    MW418700   5.388   5.366   5.669 -0.8377  0.0083 -0.5539
 4734SOL     OW18701   6.023   1.405   4.274  0.2812  0.2744 -0.3171
 4734SOL    HW218702   6.049   1.432   4.186 -0.0467  2.8497  0.2960
 4734SOL    HW318703   5.937   1.365   4.263  0.5593 -0.0692 -1.2582
 4734SOL    MW418704   6.015   1.403   4.261  0.2747  0.5689 -0.3604
 4735SOL     OW18705   4.855   5.638   2.127  0.1474 -0.2127 -0.2029
 4735SOL    HW218706   4.776   5.636   2.073 -1.0116 -2.0608  1.4296
 4735SOL    HW318707   4.858   5.552   2.169  2.3137  0.2949  0.8244
 4735SOL    MW418708   4.845   5.626   2.125  0.2803 -0.3895  0.1481
 4736SOL     OW18709   5.780   5.315   2.579 -0.1078  0.0340  1.0815
 4736SOL    HW218710   5.695   5.306   2.624 -0.1898 -0.1081  0.8968
 4736SOL    HW318711   5.776   5.252   2.508  0.4096 -0.4293  1.4580
 4736SOL    MW418712   5.768   5.306   2.576 -0.0504 -0.0459  1.1068
 4737SOL     OW18713   5.968   0.644   1.852  0.3148  0.3465  0.0095
 4737SOL    HW218714   5.960   0.563   1.903 -0.1302 -0.6501 -1.5828
 4737SOL    HW318715   5.879   0.679   1.849  0.4115  0.6191  0.2277
 4737SOL    MW418716   5.955   0.638   1.859  0.2688  0.2510 -0.1718
 4738SOL     OW18717   2.723   5.183   2.725  0.5628 -1.0339  0.2361
 4738SOL    HW218718   2.788   5.249   2.701 -0.3033  0.3060  1.4091
 4738SOL    HW318719   2.739   5.166   2.818 -1.1151 -0.1620  0.7480
 4738SOL    MW418720   2.733   5.190   2.734  0.2271 -0.7421  0.4584
 4739SOL     OW18721   1.735   6.131   2.517  0.0635  0.3003 -0.3104
 4739SOL    HW218722   1.725   6.036   2.509  0.8437  0.2237 -0.4364
 4739SOL    HW318723   1.756   6.145   2.609  0.1282  0.3303 -0.3292
 4739SOL    MW418724   1.736   6.120   2.528  0.1750  0.2941 -0.3295
 4740SOL     OW18725   6.167   5.742   0.054  0.3206 -0.0601  0.4113
 4740SOL    HW218726   6.092   5.798   0.033  2.0336  1.8487 -1.0169
 4740SOL    HW318727   6.204   5.719  -0.031  0.7348 -1.9676  1.0493
 4740SOL    MW418728   6.162   5.746   0.040  0.6013 -0.0599  0.3071
 4741SOL     OW18729   2.779   0.768   5.458 -0.1248 -0.3132 -0.1695
 4741SOL    HW218730   2.687   0.792   5.452  0.1729  0.6268 -1.3132
 4741SOL    HW318731   2.825   0.835   5.408  1.2057 -0.6899  0.4977
 4741SOL    MW418732   2.773   0.780   5.450  0.0900 -0.2389 -0.2324
 4742SOL     OW18733   5.948   1.759   1.401  0.2350  0.0903  0.4999
 4742SOL    HW218734   6.030   1.710   1.409 -0.5536 -1.5620 -0.8798
 4742SOL    HW318735   5.907   1.751   1.487 -0.2763 -2.5387  0.0991
 4742SOL    MW418736   5.953   1.752   1.413  0.0635 -0.4746  0.2650
 4743SOL     OW18737   2.651   0.334   2.183  0.5705 -0.0566 -1.1616
 4743SOL    HW218738   2.625   0.371   2.267  1.2521 -0.5121 -0.7457
 4743SOL    HW318739   2.687   0.248   2.204 -0.6581 -0.8276 -2.0776
 4743SOL    MW418740   2.652   0.327   2.197  0.4984 -0.2184 -1.2276
 4744SOL     OW18741   3.346   6.040   0.559  0.0736  0.1938  0.3164
 4744SOL    HW218742   3.257   6.031   0.525 -0.5144 -2.6380  2.2414
 4744SOL    HW318743   3.394   5.968   0.519  0.6250 -0.2484  1.7254
 4744SOL    MW418744   3.341   6.029   0.549  0.0687 -0.2381  0.7563
 4745SOL     OW18745   1.556   4.361   2.737  0.1585 -0.1196 -0.1266
 4745SOL    HW218746   1.563   4.456   2.749  0.1355 -0.0211 -0.8254
 4745SOL    HW318747   1.624   4.340   2.672  0.0234 -0.5456 -0.1338
 4745SOL    MW418748   1.566   4.371   2.730  0.1376 -0.1628 -0.2197
 4746SOL     OW18749   2.049   4.349   0.694 -0.7769 -0.0047  0.3011
 4746SOL    HW218750   1.966   4.312   0.664  0.2451 -1.3847 -0.9428
 4746SOL    HW318751   2.057   4.320   0.785 -1.5984  0.0851  0.4137
 4746SOL    MW418752   2.039   4.340   0.702 -0.7504 -0.1749  0.1518
 4747SOL     OW18753   4.197   0.184   1.842  0.1423  0.4893  0.0628
 4747SOL    HW218754   4.290   0.194   1.819 -0.0252  1.8354 -0.1076
 4747SOL    HW318755   4.158   0.144   1.765  0.4739  0.4922 -0.1097
 4747SOL    MW418756   4.204   0.180   1.829  0.1640  0.6673  0.0175
 4748SOL     OW18757   4.218   6.165   1.914  0.2241 -0.4401 -0.3407
 4748SOL    HW218758   4.175   6.182   1.831  0.7263 -0.7470 -0.6697
 4748SOL    HW318759   4.218   6.249   1.959 -0.4407 -0.3666 -0.4589
 4748SOL    MW418760   4.212   6.178   1.909  0.2026 -0.4709 -0.3997
 4749SOL     OW18761   4.215   5.723   5.619  0.2561  0.2418 -0.1109
 4749SOL    HW218762   4.266   5.655   5.576  0.9182  0.7533 -0.1510
 4749SOL    HW318763   4.141   5.739   5.560  1.7356  1.7219 -1.6722
 4749SOL    MW418764   4.212   5.716   5.605  0.5386  0.5046 -0.3222
 4750SOL     OW18765   2.487   1.058   2.489  0.0953 -0.5240  0.4422
 4750SOL    HW218766   2.513   1.141   2.450 -0.0419 -0.6523  0.0821
 4750SOL    HW318767   2.431   1.016   2.424 -0.0615 -0.7760  0.7359
 4750SOL    MW418768   2.483   1.064   2.476  0.0565 -0.5742  0.4334
 4751SOL     OW18769   4.535   5.665   5.263  0.4650 -0.1851 -0.7546
 4751SOL    HW218770   4.537   5.651   5.358 -0.0046 -3.7677 -1.1509
 4751SOL    HW318771   4.623   5.696   5.241  0.3162  1.5932  0.8780
 4751SOL    MW418772   4.547   5.667   5.273  0.3834 -0.4231 -0.5915
 4752SOL     OW18773   5.863   0.708   1.135  0.3244 -0.0615  0.3201
 4752SOL    HW218774   5.852   0.743   1.223 -0.7742 -1.1468  0.6496
 4752SOL    HW318775   5.900   0.780   1.084 -1.6891  1.5120  0.9856
 4752SOL    MW418776   5.867   0.722   1.140 -0.0862  0.0029  0.4514
 4753SOL     OW18777   5.728   1.797   1.908  0.0929 -0.2653 -0.0650
 4753SOL    HW218778   5.642   1.756   1.898  0.1401 -0.1252 -1.2444
 4753SOL    HW318779   5.709   1.889   1.925 -0.0015 -0.1092 -0.9597
 4753SOL    MW418780   5.714   1.804   1.909  0.0867 -0.2262 -0.3386
 4754SOL     OW18781   5.064   0.601   0.717 -0.8080  0.1908 -0.4497
 4754SOL    HW218782   5.131   0.616   0.651 -1.2443 -0.6659 -1.1073
 4754SOL    HW318783   5.088   0.518   0.758 -0.5404  0.7107  0.4931
 4754SOL    MW418784   5.076   0.592   0.714 -0.8302  0.1463 -0.4121
 4755SOL     OW18785   5.773   5.276   2.994  0.1960 -0.4843  0.5757
 4755SOL    HW218786   5.803   5.200   3.043  2.2827  0.3652  0.7137
 4755SOL    HW318787   5.834   5.283   2.920 -0.4879  0.5450  0.0792
 4755SOL    MW418788   5.785   5.267   2.991  0.3811 -0.2364  0.5284
 4756SOL     OW18789   2.510   5.669   2.403  0.1277  0.1635 -0.1725
 4756SOL    HW218790   2.428   5.655   2.450  1.0985 -1.0337  1.2663
 4756SOL    HW318791   2.550   5.582   2.399  1.0655  0.6259 -1.3676
 4756SOL    MW418792   2.505   5.655   2.409  0.3795  0.0665 -0.1403
 4757SOL     OW18793   1.847   4.485   0.921 -0.0395  0.2301  0.0174
 4757SOL    HW218794   1.812   4.452   0.838 -1.1890  0.7145  0.2859
 4757SOL    HW318795   1.873   4.406   0.969 -1.0671 -0.1853 -0.0751
 4757SOL    MW418796   1.846   4.470   0.916 -0.3267  0.2392  0.0406
 4758SOL     OW18797   4.587   3.478   0.476 -0.2008  0.3089 -0.3119
 4758SOL    HW218798   4.515   3.462   0.414 -0.5022 -0.9777  0.3494
 4758SOL    HW318799   4.639   3.398   0.473 -0.6122 -0.0731  1.6066
 4758SOL    MW418800   4.584   3.466   0.467 -0.2948  0.0887  0.0284
 4759SOL     OW18801   1.113   2.769   3.474 -0.0226 -0.7946  0.2041
 4759SOL    HW218802   1.055   2.706   3.517 -2.5288  1.6417  0.7414
 4759SOL    HW318803   1.057   2.845   3.457  2.5174  0.8766 -1.4412
 4759SOL    MW418804   1.098   2.771   3.478 -0.0181 -0.2527  0.0579
 4760SOL     OW18805   5.594   1.256   2.149 -0.5862  0.3679  0.2854
 4760SOL    HW218806   5.664   1.207   2.107 -1.3037 -0.8898  0.5010
 4760SOL    HW318807   5.600   1.233   2.242 -0.7134  0.9776  0.4508
 4760SOL    MW418808   5.604   1.246   2.156 -0.6977  0.2824  0.3356
 4761SOL     OW18809   5.399   2.229   4.278 -0.1919 -0.2342 -0.3480
 4761SOL    HW218810   5.323   2.173   4.262 -1.3731  0.9673  0.8112
 4761SOL    HW318811   5.446   2.231   4.194 -1.2646 -1.2354 -0.9975
 4761SOL    MW418812   5.395   2.222   4.265 -0.4893 -0.2078 -0.2807
 4762SOL     OW18813   1.248   1.870   5.832  0.6237  0.2284 -0.2378
 4762SOL    HW218814   1.330   1.896   5.874 -1.0736  2.0077  2.2601
 4762SOL    HW318815   1.224   1.787   5.874  0.5712  0.3153 -0.0950
 4762SOL    MW418816   1.256   1.862   5.843  0.3928  0.4746  0.1106
 4763SOL     OW18817   1.808   6.233   3.773 -0.2227  0.0958  0.3441
 4763SOL    HW218818   1.904   6.224   3.776 -0.2629 -0.8005 -0.5297
 4763SOL    HW318819   1.794   6.325   3.748  0.4346 -0.0072 -0.4748
 4763SOL    MW418820   1.819   6.244   3.770 -0.1412 -0.0360  0.1208
 4764SOL     OW18821   4.279   5.152   1.403 -0.5136 -0.1662 -0.2306
 4764SOL    HW218822   4.282   5.246   1.422 -0.5296 -0.0158 -0.9476
 4764SOL    HW318823   4.206   5.120   1.455 -0.2187  0.1332  0.3813
 4764SOL    MW418824   4.270   5.160   1.412 -0.4768 -0.1068 -0.2445
 4765SOL     OW18825   5.229   5.624   2.677  0.6064 -0.1196 -0.3115
 4765SOL    HW218826   5.226   5.696   2.739 -1.8276  0.8246 -1.3879
 4765SOL    HW318827   5.237   5.666   2.591 -1.9570 -0.9757 -1.0481
 4765SOL    MW418828   5.230   5.639   2.673 -0.0530 -0.1079 -0.5507
 4766SOL     OW18829   2.582   2.743   2.566  0.0370  0.3285  0.4302
 4766SOL    HW218830   2.511   2.684   2.538  1.3399 -1.1969  0.2195
 4766SOL    HW318831   2.600   2.796   2.488  0.3442 -0.5270 -0.0872
 4766SOL    MW418832   2.575   2.743   2.552  0.2494  0.0144  0.3342
 4767SOL     OW18833   2.489   5.735   4.015  0.1574  0.0228 -0.0936
 4767SOL    HW218834   2.517   5.818   3.978 -1.4316  0.4018 -0.4983
 4767SOL    HW318835   2.433   5.696   3.948 -2.2067  0.4005  1.5324
 4767SOL    MW418836   2.486   5.741   4.001 -0.3642  0.1226  0.0675
 4768SOL     OW18837   0.995   2.417   1.226 -0.0913  0.5324  0.0645
 4768SOL    HW218838   0.949   2.480   1.282  1.8350  0.5678  1.6822
 4768SOL    HW318839   1.081   2.455   1.213  0.0676 -0.3176 -1.5599
 4768SOL    MW418840   1.000   2.430   1.232  0.1838  0.4249  0.0636
 4769SOL     OW18841   4.256   2.953   2.992  0.5021  0.2279 -0.4534
 4769SOL    HW218842   4.340   2.943   2.947  0.8879  0.0657  0.2901
 4769SOL    HW318843   4.192   2.914   2.933  0.8941  0.6651 -1.1845
 4769SOL    MW418844   4.259   2.947   2.978  0.6047  0.2642 -0.4517
 4770SOL     OW18845   6.017   6.362   4.799 -0.5698 -0.2743 -0.2994
 4770SOL    HW218846   6.096   6.317   4.829 -0.3401 -0.4636 -1.1648
 4770SOL    HW318847   5.963   6.293   4.762 -0.4294  0.0797 -1.1874
 4770SOL    MW418848   6.021   6.347   4.798 -0.5210 -0.2526 -0.5308
 4771SOL     OW18849   3.922   5.200   2.843  0.1124  0.2636 -0.3365
 4771SOL    HW218850   3.916   5.286   2.802 -1.2382 -0.7705 -2.4820
 4771SOL    HW318851   4.004   5.163   2.810  0.8671  0.8025  0.8541
 4771SOL    MW418852   3.932   5.207   2.833  0.0338  0.1983 -0.4625
 4772SOL     OW18853   5.940   5.315   2.786  0.3939  0.4296 -0.6843
 4772SOL    HW218854   5.917   5.305   2.693 -0.4872  1.1239 -0.5522
 4772SOL    HW318855   6.018   5.261   2.797  0.4418  0.2449 -1.8055
 4772SOL    MW418856   5.947   5.307   2.775  0.2839  0.4969 -0.8148
 4773SOL     OW18857   0.899   4.746   3.880  0.0012  0.1966 -0.1959
 4773SOL    HW218858   0.873   4.787   3.798 -0.8554  0.1223  0.0226
 4773SOL    HW318859   0.835   4.778   3.944  0.8804  0.5529  0.5265
 4773SOL    MW418860   0.887   4.756   3.878  0.0042  0.2338 -0.0718
 4774SOL     OW18861   2.961   4.278   4.012  0.5328  0.2640  0.6517
 4774SOL    HW218862   2.868   4.263   3.992  0.7003 -0.4301  0.3739
 4774SOL    HW318863   2.979   4.366   3.978 -0.1685  0.6413  1.2327
 4774SOL    MW418864   2.951   4.287   4.005  0.4624  0.2222  0.6917
 4775SOL     OW18865   6.001   3.841   1.743 -0.3788  0.2303 -0.3932
 4775SOL    HW218866   5.964   3.805   1.824  1.0387 -1.1623 -0.3149
 4775SOL    HW318867   5.979   3.934   1.746 -1.5409 -0.0443  0.9115
 4775SOL    MW418868   5.993   3.848   1.754 -0.3451  0.0103 -0.2107
 4776SOL     OW18869   2.455   1.684   3.048  0.0224  0.3317  0.2581
 4776SOL    HW218870   2.450   1.603   3.099 -0.6089  0.2331  0.0441
 4776SOL    HW318871   2.414   1.750   3.104 -1.1708  0.1133 -0.3202
 4776SOL    MW418872   2.449   1.682   3.063 -0.2183  0.2899  0.1536
 4777SOL     OW18873   0.132   0.535   4.815  0.0870  0.0951 -0.2522
 4777SOL    HW218874   0.175   0.546   4.900 -0.0186 -0.2633 -0.1495
 4777SOL    HW318875   0.155   0.446   4.788 -1.2281 -0.3985  0.1760
 4777SOL    MW418876   0.140   0.525   4.823 -0.1004 -0.0173 -0.1822
 4778SOL     OW18877   1.637   4.270   1.187  0.0584 -0.3511 -0.4091
 4778SOL    HW218878   1.709   4.215   1.218  0.7554 -0.6337 -2.3818
 4778SOL    HW318879   1.654   4.356   1.226 -0.2981 -1.1453  1.6195
 4778SOL    MW418880   1.649   4.274   1.197  0.1033 -0.4932 -0.4017
 4779SOL     OW18881   4.598   5.190   2.606 -0.0057 -0.5671  0.1929
 4779SOL    HW218882   4.528   5.130   2.581  2.3614 -3.2128 -0.6736
 4779SOL    HW318883   4.678   5.143   2.584  2.0923  2.9588 -0.5271
 4779SOL    MW418884   4.599   5.176   2.600  0.5834 -0.4509 -0.0164
 4780SOL     OW18885   3.942   2.823   0.333 -0.1349 -0.5245  0.3063
 4780SOL    HW218886   3.857   2.781   0.329  0.2535 -1.3063 -0.0294
 4780SOL    HW318887   3.982   2.805   0.248  0.2667  0.0447  0.3691
 4780SOL    MW418888   3.936   2.815   0.321 -0.0307 -0.5526  0.2703
 4781SOL     OW18889   6.396   5.723   3.045 -0.3636  0.4143  0.8414
 4781SOL    HW218890   6.418   5.726   3.138 -0.6675 -0.8955  0.9822
 4781SOL    HW318891   6.328   5.789   3.034  0.2497  1.1410  1.3810
 4781SOL    MW418892   6.390   5.732   3.055 -0.3228  0.3373  0.9312
 4782SOL     OW18893   3.280   2.940   3.447 -0.4592 -0.3197 -0.4458
 4782SOL    HW218894   3.249   2.860   3.489  0.6600 -0.9574 -0.7811
 4782SOL    HW318895   3.233   3.010   3.491  0.9244 -0.9094  2.1811
 4782SOL    MW418896   3.270   2.938   3.459 -0.1290 -0.4816 -0.1435
 4783SOL     OW18897   1.166   3.045   3.786 -0.3131 -0.6591 -0.1369
 4783SOL    HW218898   1.255   3.069   3.758 -0.8585  0.4729 -0.9720
 4783SOL    HW318899   1.118   3.033   3.704 -1.2648  0.0818  0.3022
 4783SOL    MW418900   1.172   3.047   3.771 -0.5106 -0.4120 -0.1891
 4784SOL     OW18901   1.897   3.846   0.246 -0.0262  0.0601 -0.2591
 4784SOL    HW218902   1.833   3.905   0.285 -0.7029 -0.0019 -1.2498
 4784SOL    HW318903   1.916   3.782   0.315 -2.5559 -1.1292 -0.5602
 4784SOL    MW418904   1.891   3.845   0.260 -0.4492 -0.1050 -0.4295
 4785SOL     OW18905   5.271   2.460   4.878  0.6381 -0.7008  0.0831
 4785SOL    HW218906   5.331   2.386   4.878  0.4105 -0.8949 -0.5458
 4785SOL    HW318907   5.193   2.429   4.924  0.0653 -1.2679 -1.2205
 4785SOL    MW418908   5.269   2.446   4.884  0.5325 -0.8012 -0.1719
 4786SOL     OW18909   3.224   5.403   0.182 -0.8080 -0.3343 -0.4936
 4786SOL    HW218910   3.135   5.389   0.149 -1.2562 -2.0682  1.2800
 4786SOL    HW318911   3.268   5.319   0.166 -0.2527 -0.3122  0.8165
 4786SOL    MW418912   3.218   5.390   0.175 -0.7939 -0.5601 -0.0868
 4787SOL     OW18913   5.858   0.794   3.266 -0.1704  0.2974 -0.0879
 4787SOL    HW218914   5.923   0.851   3.307  0.4461 -1.8696  2.1998
 4787SOL    HW318915   5.882   0.792   3.174  0.4309  2.7818 -0.0524
 4787SOL    MW418916   5.870   0.802   3.259 -0.0097  0.3393  0.2187
 4788SOL     OW18917   2.169   0.519   1.786 -0.1035  0.5102  0.1103
 4788SOL    HW218918   2.246   0.527   1.843  1.3558  1.0386 -1.8336
 4788SOL    HW318919   2.155   0.608   1.753 -1.0161  0.2361 -0.2771
 4788SOL    MW418920   2.177   0.532   1.789 -0.0314  0.5437 -0.1973
 4789SOL     OW18921   0.561   5.801   2.932  0.2266  0.1806  0.5063
 4789SOL    HW218922   0.611   5.747   2.993  1.2649 -0.0973 -0.5449
 4789SOL    HW318923   0.554   5.747   2.853  1.0977  1.4790 -0.4974
 4789SOL    MW418924   0.567   5.787   2.929  0.4785  0.3152  0.2352
 4790SOL     OW18925   5.869   5.170   6.308 -0.0393 -0.3803 -0.3296
 4790SOL    HW218926   5.935   5.102   6.327 -1.5542 -1.7851  0.1801
 4790SOL    HW318927   5.915   5.252   6.324  1.5689 -1.2962  0.0872
 4790SOL    MW418928   5.884   5.172   6.313 -0.0270 -0.6865 -0.2074
 4791SOL     OW18929   1.714   4.572   5.601  0.1621  0.2193  0.0840
 4791SOL    HW218930   1.659   4.648   5.581 -2.4252 -0.8359  2.5346
 4791SOL    HW318931   1.655   4.497   5.593  2.7912 -1.7778 -2.9763
 4791SOL    MW418932   1.699   4.572   5.597  0.1676 -0.1834  0.0036
 4792SOL     OW18933   3.987   3.921   4.294 -0.1134 -0.2305 -0.5817
 4792SOL    HW218934   4.050   3.992   4.311 -1.1504  0.6768 -0.4097
 4792SOL    HW318935   4.010   3.853   4.357  0.2532  0.3795 -0.0404
 4792SOL    MW418936   3.998   3.922   4.305 -0.2018 -0.0303 -0.4876
 4793SOL     OW18937   5.685   2.790   0.237 -0.3059  0.1576  0.3072
 4793SOL    HW218938   5.612   2.850   0.224 -0.2733 -0.0387 -0.9521
 4793SOL    HW318939   5.763   2.845   0.237 -0.4054  0.3126  1.1545
 4793SOL    MW418940   5.686   2.805   0.235 -0.3147  0.1522  0.2528
 4794SOL     OW18941   3.317   5.253   3.285 -0.2443 -0.0542 -0.3806
 4794SOL    HW218942   3.270   5.333   3.306  1.6801  0.8036  1.0103
 4794SOL    HW318943   3.403   5.283   3.256 -0.0679 -1.5919 -1.5911
 4794SOL    MW418944   3.322   5.268   3.284  0.0329 -0.1439 -0.3568
 4795SOL     OW18945   1.274   0.413   2.070 -0.5896  0.1680  0.1758
 4795SOL    HW218946   1.338   0.457   2.125 -0.5812  0.4460 -0.0518
 4795SOL    HW318947   1.323   0.343   2.027 -0.3520  0.5877 -0.2526
 4795SOL    MW418948   1.289   0.409   2.071 -0.5571  0.2601  0.0892
 4796SOL     OW18949   1.110   6.343   4.798 -0.0410 -0.3148 -0.1462
 4796SOL    HW218950   1.121   6.438   4.790  0.7973 -0.4163 -0.2919
 4796SOL    HW318951   1.109   6.328   4.893  0.0529 -0.1778 -0.1221
 4796SOL    MW418952   1.112   6.354   4.810  0.0820 -0.3101 -0.1622
 4797SOL     OW18953   4.986   1.754   1.906  0.8828  0.7929 -0.6655
 4797SOL    HW218954   4.994   1.731   1.814  2.5707 -0.5397 -0.2407
 4797SOL    HW318955   5.054   1.703   1.950 -0.9962  0.0072  1.5762
 4797SOL    MW418956   4.996   1.744   1.900  0.8576  0.5134 -0.3137
 4798SOL     OW18957   1.528   4.309   0.932  0.5449 -0.0125  0.2736
 4798SOL    HW218958   1.439   4.316   0.967  0.2553  0.1587 -0.4843
 4798SOL    HW318959   1.584   4.303   1.010 -0.1221 -0.0810  0.7569
 4798SOL    MW418960   1.524   4.309   0.947  0.4187  0.0011  0.2374
 4799SOL     OW18961   6.231   3.307   5.713  0.5266 -0.2779 -0.2279
 4799SOL    HW218962   6.308   3.364   5.713  0.4588 -0.1797 -0.6254
 4799SOL    HW318963   6.246   3.246   5.641 -0.1628  0.2965 -0.8750
 4799SOL    MW418964   6.243   3.307   5.704  0.4267 -0.1892 -0.3657
 4800SOL     OW18965   4.367   2.427   0.482  0.0992  0.0464 -0.1586
 4800SOL    HW218966   4.416   2.407   0.402 -2.1470 -0.1034 -1.5963
 4800SOL    HW318967   4.345   2.520   0.475 -1.7695 -0.4022 -0.7502
 4800SOL    MW418968   4.370   2.436   0.471 -0.4437 -0.0326 -0.4264
 4801SOL     OW18969   6.002   0.593   3.904 -0.2104  0.1547  0.4750
 4801SOL    HW218970   5.943   0.520   3.884  2.1173 -1.3582 -1.3868
 4801SOL    HW318971   6.014   0.638   3.821  1.2058  0.4086  0.7797
 4801SOL    MW418972   5.996   0.589   3.890  0.2836 -0.0114  0.2696
 4802SOL     OW18973   5.213   4.761   4.887  0.5078  0.1281 -0.7073
 4802SOL    HW218974   5.279   4.692   4.875 -0.5249 -0.9157 -0.5447
 4802SOL    HW318975   5.135   4.727   4.845 -0.1342  1.0408 -0.2827
 4802SOL    MW418976   5.212   4.747   4.880  0.2868  0.1108 -0.6298
 4803SOL     OW18977   3.401   6.004   6.271 -0.0071 -0.1514 -0.2023
 4803SOL    HW218978   3.322   5.959   6.301 -1.4041  1.1163 -1.7861
 4803SOL    HW318979   3.391   6.093   6.305 -0.0986  0.4614 -1.7867
 4803SOL    MW418980   3.389   6.010   6.280 -0.2035  0.0967 -0.6203
 4804SOL     OW18981   2.082   1.388   4.334 -0.5845  0.2064 -0.4031
 4804SOL    HW218982   1.991   1.410   4.357 -0.9217 -1.5813  0.1382
 4804SOL    HW318983   2.133   1.421   4.408 -0.9014  0.4302 -0.2784
 4804SOL    MW418984   2.076   1.395   4.347 -0.6708  0.0000 -0.3152
 4805SOL     OW18985   3.949   3.811   1.376 -0.2044 -0.3807  0.1186
 4805SOL    HW218986   3.906   3.873   1.434 -1.2228 -0.2877 -0.6983
 4805SOL    HW318987   4.013   3.864   1.328 -0.2796 -0.1858  0.2318
 4805SOL    MW418988   3.952   3.826   1.377 -0.3487 -0.3427  0.0257
 4806SOL     OW18989   5.718   1.944   3.679 -0.2198 -0.2068  0.5647
 4806SOL    HW218990   5.750   1.892   3.605  1.3528 -0.2400  1.2367
 4806SOL    HW318991   5.725   2.035   3.649 -0.6234 -0.2663  0.2834
 4806SOL    MW418992   5.723   1.949   3.665 -0.0656 -0.2191  0.6162
 4807SOL     OW18993   0.212   1.988   4.351 -0.3462  0.1061  0.3702
 4807SOL    HW218994   0.307   1.999   4.355 -0.2870 -0.1532 -0.2159
 4807SOL    HW318995   0.197   1.940   4.269 -1.0023  0.3803  0.3235
 4807SOL    MW418996   0.222   1.983   4.340 -0.4250  0.1081  0.2867
 4808SOL     OW18997   3.267   5.885   5.853 -0.5535 -0.0781  0.1865
 4808SOL    HW218998   3.210   5.811   5.873  0.2828 -1.0336 -0.9012
 4808SOL    HW318999   3.356   5.852   5.867 -0.1914  1.0386  0.6924
 4808SOL    MW419000   3.271   5.871   5.858 -0.3954 -0.0569  0.1097
 4809SOL     OW19001   5.837   1.803   0.931  0.1295  0.0501 -0.3475
 4809SOL    HW219002   5.864   1.744   1.001 -0.2221  1.1992  0.8113
 4809SOL    HW319003   5.898   1.876   0.936 -1.4534  1.3943  0.5458
 4809SOL    MW419004   5.848   1.805   0.941 -0.1257  0.3790 -0.0767
 4810SOL     OW19005   4.871   0.720   3.477  0.1070  0.1686  0.4149
 4810SOL    HW219006   4.914   0.776   3.411  1.6200 -0.7479  0.5748
 4810SOL    HW319007   4.837   0.646   3.427 -0.2251  0.2919  0.4553
 4810SOL    MW419008   4.873   0.718   3.462  0.2628  0.0640  0.4414
 4811SOL     OW19009   2.900   1.485   5.318  0.0048 -0.3585  0.4789
 4811SOL    HW219010   2.952   1.409   5.343  0.3321  0.2696  1.8013
 4811SOL    HW319011   2.895   1.538   5.398 -1.3491  0.3599 -0.0509
 4811SOL    MW419012   2.906   1.482   5.332 -0.1306 -0.1808  0.5835
 4812SOL     OW19013   2.079   4.844   4.035  0.4438  0.5072 -0.2410
 4812SOL    HW219014   2.050   4.861   3.946 -0.1067  1.0754  0.0413
 4812SOL    HW319015   2.022   4.773   4.066  0.7609  0.1788 -0.4005
 4812SOL    MW419016   2.068   4.837   4.028  0.4130  0.5389 -0.2248
 4813SOL     OW19017   3.270   0.115   2.793 -0.4107  0.4619  0.2729
 4813SOL    HW219018   3.269   0.132   2.699 -0.7796 -1.5364 -0.1196
 4813SOL    HW319019   3.195   0.163   2.827 -1.5778 -0.5496 -0.8035
 4813SOL    MW419020   3.260   0.123   2.785 -0.6133  0.0648  0.0791
 4814SOL     OW19021   0.759   1.721   0.518 -0.4728 -0.4336 -0.6348
 4814SOL    HW219022   0.732   1.793   0.462 -0.2359  3.0745  3.2935
 4814SOL    HW319023   0.684   1.703   0.574  0.7605 -0.3501  1.1368
 4814SOL    MW419024   0.746   1.728   0.518 -0.2789  0.0402  0.1172
 4815SOL     OW19025   1.174   4.942   0.403  0.3467 -0.7959  0.6870
 4815SOL    HW219026   1.213   4.861   0.368  2.0272 -0.1960  1.0521
 4815SOL    HW319027   1.112   4.912   0.469  0.8000 -1.8021  0.6771
 4815SOL    MW419028   1.171   4.927   0.407  0.6282 -0.8495  0.7339
 4816SOL     OW19029   1.545   6.109   5.654  0.1788  0.0369 -0.8188
 4816SOL    HW219030   1.634   6.075   5.665  0.1241  0.5557  1.9375
 4816SOL    HW319031   1.557   6.203   5.639  0.1007  0.0604 -0.7311
 4816SOL    MW419032   1.559   6.117   5.653  0.1613  0.1084 -0.4436
 4817SOL     OW19033   4.874   4.443   5.727  0.5146  0.4432  0.3085
 4817SOL    HW219034   4.831   4.509   5.780 -1.8020 -0.2762 -0.5713
 4817SOL    HW319035   4.888   4.370   5.786  1.5039  1.0495  0.8499
 4817SOL    MW419036   4.870   4.442   5.741  0.3395  0.4283  0.2639
 4818SOL     OW19037   5.042   3.828   5.320  0.4520 -0.0010  0.0566
 4818SOL    HW219038   5.057   3.876   5.239  1.5098  0.6604  0.6190
 4818SOL    HW319039   5.016   3.895   5.383  0.8694 -0.3193  0.5744
 4818SOL    MW419040   5.041   3.843   5.318  0.6466  0.0442  0.1991
 4819SOL     OW19041   2.625   5.214   1.492  0.0596 -0.0220  0.4735
 4819SOL    HW219042   2.595   5.190   1.404 -0.2539 -1.0804  0.8668
 4819SOL    HW319043   2.549   5.254   1.533 -0.1130 -0.5437  0.6542
 4819SOL    MW419044   2.611   5.216   1.486 -0.0045 -0.2304  0.5492
 4820SOL     OW19045   3.673   6.062   5.482  0.3466  0.1368  0.4809
 4820SOL    HW219046   3.632   5.979   5.456 -1.7097  0.8186  1.3184
 4820SOL    HW319047   3.763   6.038   5.503 -0.3309 -2.0515  1.3121
 4820SOL    MW419048   3.679   6.048   5.482 -0.0141 -0.0620  0.7011
 4821SOL     OW19049   0.322   0.352   6.208  0.6995 -0.2787 -0.1053
 4821SOL    HW219050   0.273   0.274   6.179 -1.8621  1.3436 -0.4583
 4821SOL    HW319051   0.308   0.355   6.302  0.0434  0.2145 -0.2134
 4821SOL    MW419052   0.313   0.342   6.216  0.2749  0.0005 -0.1661
 4822SOL     OW19053   3.843   0.418   1.930 -0.0005 -0.6683  0.0152
 4822SOL    HW219054   3.914   0.369   1.971  0.4451 -1.1089 -1.2388
 4822SOL    HW319055   3.887   0.484   1.876 -0.5704 -0.1008  0.2246
 4822SOL    MW419056   3.858   0.420   1.928 -0.0169 -0.6515 -0.1226
 4823SOL     OW19057   0.712   1.462   6.058  0.6424 -0.0055  0.0302
 4823SOL    HW219058   0.660   1.423   5.987 -0.4536 -0.1248  0.8750
 4823SOL    HW319059   0.648   1.511   6.110  1.6568  1.2337  0.1646
 4823SOL    MW419060   0.697   1.463   6.055  0.6316  0.1422  0.1594
 4824SOL     OW19061   1.267   5.999   4.461  0.2599 -0.0021  0.2223
 4824SOL    HW219062   1.279   5.997   4.366  0.6327  2.1887  0.1723
 4824SOL    HW319063   1.205   6.070   4.476 -0.7787 -1.1092  1.5846
 4824SOL    MW419064   1.260   6.008   4.451  0.1720  0.1409  0.3955
 4825SOL     OW19065   4.704   4.326   6.438 -0.0169 -0.0719  0.2670
 4825SOL    HW219066   4.613   4.333   6.408 -0.0902  0.6714  0.6329
 4825SOL    HW319067   4.724   4.232   6.435 -0.6933 -0.2071 -0.1117
 4825SOL    MW419068   4.695   4.315   6.434 -0.1158  0.0083  0.2653
 4826SOL     OW19069   3.628   3.253   5.380  0.1556 -0.1559 -0.3354
 4826SOL    HW219070   3.654   3.236   5.290  1.3676 -0.9873  0.1452
 4826SOL    HW319071   3.629   3.167   5.422 -0.7586  0.1657  0.3934
 4826SOL    MW419072   3.631   3.239   5.374  0.1949 -0.2231 -0.1758
 4827SOL     OW19073   5.394   2.681   2.861 -0.5814 -0.7772  0.2209
 4827SOL    HW219074   5.317   2.673   2.806 -1.2817 -2.3143  1.3538
 4827SOL    HW319075   5.413   2.775   2.863 -3.2016 -0.2038  0.9385
 4827SOL    MW419076   5.387   2.692   2.854 -1.0195 -0.9043  0.4651
 4828SOL     OW19077   5.982   1.195   0.795 -0.2251 -0.5044  0.5626
 4828SOL    HW219078   5.952   1.249   0.867 -0.4006  0.2347 -0.0503
 4828SOL    HW319079   5.902   1.168   0.749 -0.0654  0.1232 -0.1147
 4828SOL    MW419080   5.968   1.199   0.798 -0.2272 -0.3241  0.3924
 4829SOL     OW19081   0.982   5.281   2.104 -0.1403 -0.5144  0.0450
 4829SOL    HW219082   0.916   5.279   2.173 -1.0913  1.2924 -0.7319
 4829SOL    HW319083   0.975   5.195   2.062 -1.9981 -0.4041  0.0210
 4829SOL    MW419084   0.972   5.270   2.107 -0.5109 -0.2615 -0.0607
 4830SOL     OW19085   0.828   3.446   6.313 -0.0165 -0.8120  0.1636
 4830SOL    HW219086   0.859   3.384   6.379 -0.2537  0.2057  1.2451
 4830SOL    HW319087   0.785   3.515   6.362 -1.3948 -0.6836 -1.1306
 4830SOL    MW419088   0.827   3.447   6.328 -0.2297 -0.6608  0.1355
 4831SOL     OW19089   4.912   3.731   4.890 -0.3925 -0.2549 -0.1751
 4831SOL    HW219090   5.006   3.720   4.882 -0.2226 -0.6402  1.8093
 4831SOL    HW319091   4.894   3.818   4.854  0.7626 -0.0580 -0.2944
 4831SOL    MW419092   4.922   3.741   4.885 -0.2177 -0.2798  0.0710
 4832SOL     OW19093   1.313   3.670   0.590  0.4304  0.5507 -0.1875
 4832SOL    HW219094   1.356   3.678   0.505 -2.0319  2.8065 -1.4009
 4832SOL    HW319095   1.302   3.576   0.603  3.0934  0.0266 -1.0748
 4832SOL    MW419096   1.317   3.659   0.580  0.4569  0.7792 -0.4646
 4833SOL     OW19097   3.930   1.464   4.388  0.3454  0.0413  0.0715
 4833SOL    HW219098   3.852   1.420   4.354  0.0777 -0.3901  1.1915
 4833SOL    HW319099   3.999   1.443   4.325  0.0186 -1.2632  0.1263
 4833SOL    MW419100   3.929   1.456   4.375  0.2670 -0.1878  0.2265
 4834SOL     OW19101   0.928   5.757   3.567  0.1306 -0.1629 -0.2539
 4834SOL    HW219102   0.966   5.673   3.593  0.1773  0.5042  2.0237
 4834SOL    HW319103   0.946   5.816   3.640 -2.8284  0.9296 -0.2404
 4834SOL    MW419104   0.935   5.753   3.580 -0.2536  0.0693  0.0484
 4835SOL     OW19105   4.470   0.423   1.020  0.1942  0.3310  0.2699
 4835SOL    HW219106   4.404   0.359   1.045  0.7291 -0.5596 -0.5211
 4835SOL    HW319107   4.553   0.384   1.047  0.5846  0.3648 -0.8334
 4835SOL    MW419108   4.473   0.409   1.027  0.3163  0.2180  0.0200
 4836SOL     OW19109   0.004   1.061   3.479 -0.3400  0.1495 -0.0782
 4836SOL    HW219110  -0.002   0.980   3.530  0.7518  0.9934  1.4694
 4836SOL    HW319111  -0.075   1.110   3.504 -0.2339  0.2069  0.1424
 4836SOL    MW419112  -0.007   1.057   3.489 -0.1820  0.2684  0.1551
 4837SOL     OW19113   2.507   0.137   0.112 -0.2748 -0.4701  0.1870
 4837SOL    HW219114   2.467   0.106   0.030 -0.7787  0.3189  0.1205
 4837SOL    HW319115   2.457   0.093   0.181 -0.0159 -0.9405  0.0798
 4837SOL    MW419116   2.495   0.127   0.110 -0.3071 -0.4281  0.1641
 4838SOL     OW19117   0.041   1.529   1.733  0.1745 -0.1781  0.3110
 4838SOL    HW219118   0.040   1.525   1.638  0.0771 -1.7497  0.3462
 4838SOL    HW319119   0.062   1.440   1.761  1.3667  0.4943  1.7456
 4838SOL    MW419120   0.044   1.517   1.724  0.3190 -0.2967  0.5050
 4839SOL     OW19121   0.189   0.638   5.513  0.1308  0.0529 -0.1059
 4839SOL    HW219122   0.278   0.632   5.479 -0.0453 -1.0627 -0.4255
 4839SOL    HW319123   0.138   0.673   5.440  0.6277  2.7219  0.7376
 4839SOL    MW419124   0.194   0.642   5.499  0.1732  0.2579 -0.0368
 4840SOL     OW19125   0.579   1.490   0.152  0.0947 -0.0250  0.2080
 4840SOL    HW219126   0.567   1.395   0.157  0.2537 -0.0036  1.6238
 4840SOL    HW319127   0.657   1.506   0.205  1.9524  0.6086 -2.5053
 4840SOL    MW419128   0.588   1.480   0.160  0.3608  0.0614  0.0368
 4841SOL     OW19129   0.884   0.101   6.200 -0.2786 -0.0979  0.0437
 4841SOL    HW219130   0.829   0.138   6.269  0.5978  0.5204  0.4408
 4841SOL    HW319131   0.963   0.156   6.202 -0.4465  0.2458 -1.7979
 4841SOL    MW419132   0.887   0.113   6.210 -0.1851  0.0290 -0.1469
 4842SOL     OW19133   4.083   3.682   4.406  0.1547  0.0961 -0.1577
 4842SOL    HW219134   4.142   3.677   4.331  0.0140 -0.7191 -0.2248
 4842SOL    HW319135   4.135   3.723   4.475  0.1714  1.1747 -0.7973
 4842SOL    MW419136   4.097   3.687   4.405  0.1384  0.1309 -0.2509
 4843SOL     OW19137   1.173   3.136   1.125 -0.8539 -0.0443 -0.2216
 4843SOL    HW219138   1.104   3.083   1.165 -0.1491 -0.6047  0.2697
 4843SOL    HW319139   1.142   3.226   1.134 -1.2365 -0.2430  0.5549
 4843SOL    MW419140   1.160   3.141   1.131 -0.8114 -0.1444 -0.0543
 4844SOL     OW19141   1.446   5.652   0.911 -0.2232  0.5019 -0.0730
 4844SOL    HW219142   1.498   5.572   0.916 -1.2637 -0.1716  0.4667
 4844SOL    HW319143   1.358   5.622   0.887 -0.6592  1.4648  0.2603
 4844SOL    MW419144   1.441   5.637   0.909 -0.4180  0.5401  0.0422
 4845SOL     OW19145   0.871   0.475   5.860  0.0478  0.2233 -0.1874
 4845SOL    HW219146   0.874   0.570   5.851  1.5639  0.0975 -1.2253
 4845SOL    HW319147   0.957   0.445   5.832 -1.1594 -1.6345 -2.1719
 4845SOL    MW419148   0.883   0.484   5.855  0.0886 -0.0384 -0.5862
 4846SOL     OW19149   4.956   5.814   3.244  0.5354 -0.5669  0.2459
 4846SOL    HW219150   5.037   5.784   3.202  0.7363  0.0142  0.2029
 4846SOL    HW319151   4.972   5.907   3.261 -0.1742 -0.4231  0.1273
 4846SOL    MW419152   4.969   5.822   3.241  0.4683 -0.4712  0.2246
 4847SOL     OW19153   2.777   3.621   0.267 -0.4609  0.2228 -0.0078
 4847SOL    HW219154   2.871   3.622   0.284 -0.7116  0.5992  1.5210
 4847SOL    HW319155   2.749   3.532   0.287 -0.6490  0.4909  0.9715
 4847SOL    MW419156   2.786   3.609   0.272 -0.5188  0.3078  0.3231
 4848SOL     OW19157   0.958   3.781   5.275  0.0722 -0.5843  0.4264
 4848SOL    HW219158   0.999   3.828   5.202 -0.8601 -0.7104 -0.1934
 4848SOL    HW319159   1.001   3.696   5.275  3.9691  1.1025  3.4420
 4848SOL    MW419160   0.969   3.776   5.265  0.4634 -0.3784  0.7425
 4849SOL     OW19161   0.140   0.894   2.168 -0.0377  0.4269 -0.1534
 4849SOL    HW219162   0.170   0.810   2.202  0.7958  1.6549  2.4205
 4849SOL    HW319163   0.197   0.911   2.093  0.5490 -0.7991 -0.0083
 4849SOL    MW419164   0.152   0.886   2.163  0.1497  0.4272  0.2054
 4850SOL     OW19165   5.701   4.080   4.680 -0.1067  0.2547 -0.6019
 4850SOL    HW219166   5.724   3.994   4.647  1.8583  0.8662 -0.9259
 4850SOL    HW319167   5.750   4.090   4.761 -1.1523  0.6730  0.0099
 4850SOL    MW419168   5.710   4.070   4.686  0.0146  0.3905 -0.5639
 4851SOL     OW19169   5.815   1.653   2.144  0.5600  0.3919  1.0120
 4851SOL    HW219170   5.870   1.575   2.135 -1.0129 -0.6014 -0.4831
 4851SOL    HW319171   5.822   1.696   2.059  3.2423  3.2431  2.4862
 4851SOL    MW419172   5.823   1.648   2.131  0.7064  0.6370  1.0092
 4852SOL     OW19173   1.503   3.019   2.448 -0.0329 -0.2204  0.2206
 4852SOL    HW219174   1.485   2.931   2.415  0.6987 -1.3388  2.5788
 4852SOL    HW319175   1.421   3.067   2.435 -0.0250 -0.7721 -2.3503
 4852SOL    MW419176   1.490   3.014   2.442  0.0647 -0.4407  0.1926
 4853SOL     OW19177   1.815   6.116   4.929  0.2719 -0.1663 -0.1909
 4853SOL    HW219178   1.884   6.053   4.951  2.2711  1.7620 -0.5855
 4853SOL    HW319179   1.750   6.105   4.998  0.2556 -2.9960 -0.5523
 4853SOL    MW419180   1.816   6.107   4.941  0.5336 -0.2853 -0.2907
 4854SOL     OW19181   0.181   4.335   3.076  0.0022 -0.4882  0.3373
 4854SOL    HW219182   0.239   4.269   3.115 -2.9463 -2.6865  1.3366
 4854SOL    HW319183   0.142   4.292   3.000 -1.2026  0.4896  0.3647
 4854SOL    MW419184   0.184   4.321   3.071 -0.5458 -0.6492  0.4728
 4855SOL     OW19185   5.655   4.259   0.388 -0.4840 -0.1595 -0.0364
 4855SOL    HW219186   5.572   4.286   0.428 -0.4358 -0.4154  0.2423
 4855SOL    HW319187   5.640   4.264   0.294  0.6166  4.4989 -0.2016
 4855SOL    MW419188   5.642   4.263   0.381 -0.3325  0.4214 -0.0214
 4856SOL     OW19189   5.469   1.599   6.028 -0.3118  0.3111 -0.3035
 4856SOL    HW219190   5.463   1.508   6.055 -0.1980  0.4905  0.3534
 4856SOL    HW319191   5.556   1.607   5.990  0.8447  0.7961  2.2570
 4856SOL    MW419192   5.480   1.588   6.026 -0.1442  0.3988  0.1210
 4857SOL     OW19193   0.103   3.256   3.011 -0.3617 -0.1347  0.3265
 4857SOL    HW219194   0.097   3.217   3.099  1.4967 -0.6918  0.2465
 4857SOL    HW319195   0.193   3.286   3.004 -0.8132  1.0243 -0.9644
 4857SOL    MW419196   0.114   3.255   3.022 -0.1761 -0.0553  0.1456
 4858SOL     OW19197   0.262   1.437   5.622  0.1349  0.3661  0.2958
 4858SOL    HW219198   0.279   1.494   5.547 -1.3708  1.8830  1.0489
 4858SOL    HW319199   0.256   1.496   5.697  0.9715 -1.0559  1.5272
 4858SOL    MW419200   0.263   1.452   5.622  0.0466  0.3786  0.5577
 4859SOL     OW19201   5.705   4.376   3.121 -0.5192  0.2880  0.1759
 4859SOL    HW219202   5.668   4.338   3.200  0.4989  0.3037  0.6797
 4859SOL    HW319203   5.718   4.468   3.143  1.9907 -0.1554  0.8943
 4859SOL    MW419204   5.702   4.383   3.134 -0.0538  0.2315  0.3371
 4860SOL     OW19205   3.122   1.912   2.511  0.3485  0.5990 -0.4974
 4860SOL    HW219206   3.149   1.861   2.435 -0.4120  0.5910 -0.7688
 4860SOL    HW319207   3.080   1.848   2.569  0.0560  0.7838 -0.5063
 4860SOL    MW419208   3.120   1.897   2.509  0.2096  0.6223 -0.5344
 4861SOL     OW19209   2.597   0.313   6.158 -0.1941  0.4850 -0.4728
 4861SOL    HW219210   2.668   0.346   6.213 -0.1366 -1.4616  0.7410
 4861SOL    HW319211   2.642   0.275   6.083 -0.0600  0.7060 -0.5051
 4861SOL    MW419212   2.612   0.312   6.156 -0.1688  0.2574 -0.3169
 4862SOL     OW19213   2.485   0.688   2.235  0.1454 -0.1061 -0.2086
 4862SOL    HW219214   2.451   0.606   2.271  1.1116 -1.4226 -2.0955
 4862SOL    HW319215   2.548   0.660   2.168  0.9155  2.2005 -0.5246
 4862SOL    MW419216   2.489   0.673   2.231  0.3745  0.0245 -0.4992
 4863SOL     OW19217   1.047   3.033   5.878  0.1334  0.3594 -0.0843
 4863SOL    HW219218   1.060   3.087   5.800 -1.1348  1.6405  0.5405
 4863SOL    HW319219   0.975   2.974   5.855 -0.9728  1.4603  0.4211
 4863SOL    MW419220   1.039   3.032   5.865 -0.1799  0.6737  0.0648
 4864SOL     OW19221   0.251   6.369   2.415 -0.0182 -0.4254  0.4922
 4864SOL    HW219222   0.243   6.432   2.343 -0.4959 -1.1163 -0.0697
 4864SOL    HW319223   0.166   6.371   2.459 -0.5489 -1.6943 -0.4031
 4864SOL    MW419224   0.239   6.377   2.412 -0.1512 -0.6840  0.2999
 4865SOL     OW19225   1.490   1.478   1.760  0.3114  0.1779 -0.3526
 4865SOL    HW219226   1.457   1.509   1.676 -0.6116 -0.5331 -0.2664
 4865SOL    HW319227   1.411   1.459   1.811  0.8565 -0.3280  0.3235
 4865SOL    MW419228   1.475   1.480   1.756  0.2615  0.0173 -0.2520
 4866SOL     OW19229   0.360   2.319   4.296 -0.5914  0.4910  0.0395
 4866SOL    HW219230   0.265   2.306   4.302 -0.6842  0.8181 -0.6574
 4866SOL    HW319231   0.397   2.239   4.333 -1.1447  0.2119  0.0019
 4866SOL    MW419232   0.353   2.307   4.302 -0.6767  0.4974 -0.0574
 4867SOL     OW19233   5.876   4.760   5.625  0.0733 -0.1224  0.1338
 4867SOL    HW219234   5.929   4.840   5.626  0.2587 -0.2467  0.5217
 4867SOL    HW319235   5.921   4.702   5.563  1.6443 -1.0497  2.0432
 4867SOL    MW419236   5.889   4.763   5.617  0.3051 -0.2612  0.4369
 4868SOL     OW19237   1.104   6.221   4.541  0.4503  0.1896 -0.1363
 4868SOL    HW219238   1.092   6.286   4.610  1.0145  0.1372  0.0235
 4868SOL    HW319239   1.057   6.256   4.466  0.8876  0.8649 -0.1056
 4868SOL    MW419240   1.096   6.234   4.540  0.5824  0.2718 -0.1112
 4869SOL     OW19241   2.858   0.978   3.928 -0.1429  0.3550 -0.6678
 4869SOL    HW219242   2.936   0.979   3.872 -0.0645 -0.9172 -0.5939
 4869SOL    HW319243   2.833   0.886   3.933 -0.2832  0.4621  1.2259
 4869SOL    MW419244   2.865   0.966   3.921 -0.1510  0.2013 -0.4082
 4870SOL     OW19245   5.158   1.670   2.114 -0.3169 -0.0993 -0.2051
 4870SOL    HW219246   5.117   1.741   2.164 -2.3321  0.6955 -2.8101
 4870SOL    HW319247   5.252   1.688   2.123 -0.6709  1.3350  1.3506
 4870SOL    MW419248   5.165   1.682   2.122 -0.6295  0.1948 -0.3435
 4871SOL     OW19249   0.292   1.176   0.591  0.4620  0.1896  0.1685
 4871SOL    HW219250   0.286   1.134   0.677  1.1523 -0.4552 -0.0909
 4871SOL    HW319251   0.347   1.253   0.605 -0.7469  1.0117  0.6297
 4871SOL    MW419252   0.298   1.181   0.604  0.3936  0.2130  0.1951
 4872SOL     OW19253   4.558   4.027   6.215 -0.4131  0.5763 -0.4041
 4872SOL    HW219254   4.593   4.055   6.131 -0.2530  1.0135 -0.1943
 4872SOL    HW319255   4.504   3.950   6.194 -1.6080  1.5705 -1.1270
 4872SOL    MW419256   4.555   4.020   6.201 -0.5496  0.7652 -0.4718
 4873SOL     OW19257   1.253   0.469   4.250  0.3342  0.5930 -0.5493
 4873SOL    HW219258   1.183   0.438   4.307  0.3926 -0.9093 -1.2408
 4873SOL    HW319259   1.332   0.465   4.304  0.2820 -0.1733 -0.5142
 4873SOL    MW419260   1.254   0.464   4.264  0.3350  0.2937 -0.6359
 4874SOL     OW19261   6.201   4.689   0.632 -0.2746 -0.1049  0.0684
 4874SOL    HW219262   6.185   4.658   0.721 -0.0840 -1.7020 -0.4173
 4874SOL    HW319263   6.172   4.780   0.632 -0.7681 -0.2428  1.6148
 4874SOL    MW419264   6.195   4.697   0.643 -0.3146 -0.3338  0.2084
 4875SOL     OW19265   2.271   5.329   5.028 -0.7356  0.3156 -0.0620
 4875SOL    HW219266   2.287   5.307   4.936  2.0543  1.7754 -0.0337
 4875SOL    HW319267   2.350   5.300   5.073 -0.8786  2.0459  1.4082
 4875SOL    MW419268   2.283   5.322   5.022 -0.3864  0.7365  0.1357
 4876SOL     OW19269   2.060   2.594   1.673  0.1710  1.2032 -0.3959
 4876SOL    HW219270   2.148   2.574   1.640  0.1621  0.8694 -0.2251
 4876SOL    HW319271   2.071   2.598   1.768 -0.5121 -1.7205 -0.0783
 4876SOL    MW419272   2.073   2.592   1.681  0.0797  0.7734 -0.3315
 4877SOL     OW19273   0.957   6.041   2.970  0.6594 -0.6587  0.2286
 4877SOL    HW219274   0.927   6.021   3.059 -0.9514 -1.1916 -0.3875
 4877SOL    HW319275   0.889   6.098   2.934  1.8882  0.5437 -0.2851
 4877SOL    MW419276   0.944   6.046   2.977  0.6090 -0.5704  0.0795
 4878SOL     OW19277   4.924   6.357   0.886  0.6902  0.2454  0.3319
 4878SOL    HW219278   4.901   6.296   0.957  1.6291 -0.4414  0.0747
 4878SOL    HW319279   4.916   6.444   0.926 -2.4881  0.1323  0.1882
 4878SOL    MW419280   4.920   6.360   0.901  0.3948  0.1399  0.2790
 4879SOL     OW19281   3.509   0.857   6.217 -0.1584 -0.4417 -0.2699
 4879SOL    HW219282   3.457   0.794   6.166 -1.5251  1.4551 -1.3366
 4879SOL    HW319283   3.450   0.932   6.229  1.5063  0.7582  0.7075
 4879SOL    MW419284   3.494   0.859   6.212 -0.1191 -0.0331 -0.2817
 4880SOL     OW19285   2.145   0.785   1.735  0.0192  0.4888  0.1820
 4880SOL    HW219286   2.202   0.795   1.658  0.0345 -1.3127 -0.0962
 4880SOL    HW319287   2.206   0.778   1.809  0.1893 -1.0121 -0.0651
 4880SOL    MW419288   2.161   0.785   1.735  0.0437  0.0531  0.1127
 4881SOL     OW19289   4.630   3.344   4.674 -0.2481  0.1474  0.1483
 4881SOL    HW219290   4.690   3.364   4.745 -1.4020  0.8934  0.9564
 4881SOL    HW319291   4.545   3.332   4.717 -0.4059 -2.5200 -0.7750
 4881SOL    MW419292   4.627   3.345   4.689 -0.4212 -0.1061  0.1331
 4882SOL     OW19293   4.224   4.405   3.752 -0.2688 -0.1626  0.4406
 4882SOL    HW219294   4.190   4.486   3.714 -1.3277 -0.4722  0.7070
 4882SOL    HW319295   4.177   4.336   3.706  0.0172 -0.6067  0.8159
 4882SOL    MW419296   4.213   4.407   3.741 -0.3708 -0.2621  0.5252
 4883SOL     OW19297   2.270   0.765   2.537 -0.2620  0.1345  0.8944
 4883SOL    HW219298   2.216   0.687   2.549 -0.0103 -0.3160 -0.6485
 4883SOL    HW319299   2.360   0.735   2.551 -0.0909 -0.0775 -0.4794
 4883SOL    MW419300   2.275   0.751   2.540 -0.2062  0.0471  0.5096
 4884SOL     OW19301   1.335   2.894   0.136 -0.0499  0.4715  0.0396
 4884SOL    HW219302   1.360   2.887   0.044  1.2324 -0.7215  0.4369
 4884SOL    HW319303   1.357   2.809   0.174 -1.7496  0.4762  1.1946
 4884SOL    MW419304   1.341   2.882   0.129 -0.1050  0.3147  0.2444
 4885SOL     OW19305   4.290   0.761   6.015  0.0963 -0.2196 -0.1954
 4885SOL    HW219306   4.310   0.849   6.046 -0.6439  0.5279 -1.6974
 4885SOL    HW319307   4.329   0.757   5.927  1.3140 -1.9022  0.3782
 4885SOL    MW419308   4.297   0.772   6.007  0.1593 -0.3429 -0.3179
 4886SOL     OW19309   6.421   4.457   0.687 -0.3285  0.0334  0.3689
 4886SOL    HW219310   6.402   4.380   0.739  1.9034 -2.9797 -2.8101
 4886SOL    HW319311   6.335   4.491   0.662 -1.4263 -2.2165  0.8365
 4886SOL    MW419312   6.407   4.452   0.690 -0.1788 -0.6610  0.0112
 4887SOL     OW19313   5.777   0.242   4.936 -0.1372  0.5027  0.1457
 4887SOL    HW219314   5.778   0.167   4.996 -0.8697  0.5081  0.1677
 4887SOL    HW319315   5.805   0.316   4.990  2.7247 -0.0943 -0.3785
 4887SOL    MW419316   5.781   0.242   4.951  0.1438  0.4247  0.0795
 4888SOL     OW19317   3.412   0.973   5.021  0.2987  0.3603  0.0998
 4888SOL    HW219318   3.324   1.010   5.028 -0.4333 -1.1354 -0.6992
 4888SOL    HW319319   3.441   0.962   5.112 -1.3938 -1.4840  0.4705
 4888SOL    MW419320   3.404   0.977   5.034 -0.0212 -0.0803  0.0433
 4889SOL     OW19321   2.386   2.533   2.566 -0.6216 -0.0524  0.0690
 4889SOL    HW219322   2.302   2.515   2.607 -0.8720 -0.4368 -0.5890
 4889SOL    HW319323   2.448   2.474   2.610 -0.7835 -0.0816  0.2565
 4889SOL    MW419324   2.383   2.523   2.577 -0.6760 -0.1070  0.0069
 4890SOL     OW19325   0.242   0.069   1.166  0.2613  0.1817  0.5632
 4890SOL    HW219326   0.202  -0.016   1.147 -0.5049  0.9375 -1.5717
 4890SOL    HW319327   0.335   0.050   1.175  0.0576 -0.9335  0.4957
 4890SOL    MW419328   0.249   0.055   1.165  0.1333  0.1343  0.2726
 4891SOL     OW19329   0.254   5.161   5.736 -0.3380 -0.0290 -0.1774
 4891SOL    HW219330   0.238   5.086   5.794  0.7224  0.6359  0.9959
 4891SOL    HW319331   0.300   5.123   5.661 -1.0617 -0.7682 -0.2736
 4891SOL    MW419332   0.258   5.146   5.733 -0.2936 -0.0388 -0.0353
 4892SOL     OW19333   3.195   2.868   4.138  0.0178 -0.4486 -0.3089
 4892SOL    HW219334   3.160   2.932   4.200  0.1301  0.7312 -1.4046
 4892SOL    HW319335   3.265   2.916   4.093 -0.5545 -1.0083 -1.8547
 4892SOL    MW419336   3.200   2.883   4.140 -0.0429 -0.3668 -0.6574
 4893SOL     OW19337   5.585   4.475   4.217 -0.0096 -0.6093  0.0682
 4893SOL    HW219338   5.562   4.483   4.125 -1.6023 -1.7840  0.3331
 4893SOL    HW319339   5.506   4.504   4.264  0.3613 -1.1604  1.0553
 4893SOL    MW419340   5.571   4.480   4.211 -0.1708 -0.8370  0.2334
 4894SOL     OW19341   0.521   4.234   1.975  0.4258 -0.1122 -0.3380
 4894SOL    HW219342   0.599   4.288   1.981 -0.0195  0.6173 -0.8536
 4894SOL    HW319343   0.523   4.199   1.886  0.9456 -1.3291  0.1365
 4894SOL    MW419344   0.531   4.237   1.964  0.4356 -0.1765 -0.3434
 4895SOL     OW19345   5.212   3.662   5.492  0.0079  0.1424  0.0632
 4895SOL    HW219346   5.159   3.711   5.429 -0.9495  1.4350  1.8016
 4895SOL    HW319347   5.301   3.670   5.459 -0.3969  1.2960 -0.8247
 4895SOL    MW419348   5.217   3.669   5.479 -0.1718  0.4651  0.1754
 4896SOL     OW19349   5.809   5.799   4.099 -0.0862 -0.1249 -0.4972
 4896SOL    HW219350   5.826   5.875   4.042 -2.6688 -0.4281 -1.8069
 4896SOL    HW319351   5.842   5.724   4.049  1.4852 -0.0467  0.3368
 4896SOL    MW419352   5.816   5.799   4.085 -0.2196 -0.1546 -0.5600
 4897SOL     OW19353   3.415   1.143   2.723  1.1710  0.2574  0.8485
 4897SOL    HW219354   3.372   1.224   2.695  2.9828  0.3094 -2.2460
 4897SOL    HW319355   3.503   1.171   2.749  0.5784 -0.2874  3.7749
 4897SOL    MW419356   3.421   1.158   2.723  1.3318  0.1924  0.8263
 4898SOL     OW19357   5.154   6.351   2.485 -0.2323  0.9464 -0.3635
 4898SOL    HW219358   5.236   6.338   2.437 -1.8860 -1.2404 -2.9360
 4898SOL    HW319359   5.144   6.270   2.536 -0.8676  1.0858 -0.2600
 4898SOL    MW419360   5.163   6.338   2.485 -0.5343  0.6763 -0.6893
 4899SOL     OW19361   0.251   4.114   5.831  0.1569  0.2182  0.1363
 4899SOL    HW219362   0.158   4.115   5.808  0.4931 -1.9686 -1.7643
 4899SOL    HW319363   0.264   4.031   5.877  1.0537  0.7818  0.9297
 4899SOL    MW419364   0.241   4.103   5.834  0.3196  0.0040 -0.0098
 4900SOL     OW19365   4.408   3.629   3.986  0.3996  0.3881 -0.6854
 4900SOL    HW219366   4.414   3.573   3.908  0.4208  1.2181 -1.2961
 4900SOL    HW319367   4.478   3.693   3.974  0.1943  0.7172 -0.1354
 4900SOL    MW419368   4.418   3.630   3.974  0.3753  0.5410 -0.6934
 4901SOL     OW19369   1.330   1.249   5.489  0.6819 -0.2454  0.3378
 4901SOL    HW219370   1.416   1.246   5.447 -0.1935  0.8117 -1.6905
 4901SOL    HW319371   1.339   1.315   5.558  1.7531 -0.8912  0.8365
 4901SOL    MW419372   1.343   1.257   5.492  0.7077 -0.1911  0.1360
 4902SOL     OW19373   1.114   0.649   4.685  0.7496 -0.1634  0.2387
 4902SOL    HW219374   1.082   0.588   4.618 -0.0584 -0.9919  1.3577
 4902SOL    HW319375   1.069   0.732   4.666 -0.6380 -0.7953  0.6280
 4902SOL    MW419376   1.104   0.652   4.673  0.4599 -0.3561  0.4377
 4903SOL     OW19377   0.466   4.883   4.236 -0.4212  0.1292 -0.4128
 4903SOL    HW219378   0.391   4.833   4.268  0.1368 -0.9964 -0.7889
 4903SOL    HW319379   0.496   4.932   4.313  0.0013 -1.3841  0.4428
 4903SOL    MW419380   0.460   4.883   4.251 -0.2919 -0.2190 -0.3496
 4904SOL     OW19381   0.463   2.705   3.988  0.0667  0.0024  0.0966
 4904SOL    HW219382   0.467   2.721   4.082 -0.4553  1.4938 -0.1100
 4904SOL    HW319383   0.378   2.662   3.975  1.1203 -2.4147  0.5468
 4904SOL    MW419384   0.452   2.701   3.998  0.1369 -0.1197  0.1287
 4905SOL     OW19385   0.914   2.960   0.772  0.6828 -0.0487  0.8445
 4905SOL    HW219386   0.842   3.023   0.763  1.1631  0.3474 -0.4846
 4905SOL    HW319387   0.990   3.005   0.737  1.3228 -0.9180  1.0798
 4905SOL    MW419388   0.914   2.974   0.766  0.8306 -0.1112  0.7002
 4906SOL     OW19389   4.411   1.940   3.969  0.2391  0.4306 -0.0603
 4906SOL    HW219390   4.316   1.943   3.977  0.3169  1.6839  0.5763
 4906SOL    HW319391   4.427   1.908   3.880 -0.7696  0.7881 -0.3730
 4906SOL    MW419392   4.401   1.936   3.959  0.1163  0.6432 -0.0176
 4907SOL     OW19393   1.610   1.155   2.582 -0.1621 -0.3267 -0.1636
 4907SOL    HW219394   1.661   1.223   2.626 -0.0994 -0.3749 -0.1625
 4907SOL    HW319395   1.524   1.195   2.569 -0.5900 -0.7801  1.1905
 4907SOL    MW419396   1.605   1.169   2.586 -0.2103 -0.3929  0.0152
 4908SOL     OW19397   2.579   2.752   3.443 -0.0416  0.5097  0.0363
 4908SOL    HW219398   2.557   2.666   3.479 -0.5871  1.2384  1.5191
 4908SOL    HW319399   2.620   2.799   3.516 -0.7405  1.8785 -0.4166
 4908SOL    MW419400   2.582   2.747   3.457 -0.2058  0.7864  0.1722
 4909SOL     OW19401   3.734   3.068   2.777  0.1779 -0.3187 -0.1343
 4909SOL    HW219402   3.679   2.992   2.757  0.0414 -0.1527 -0.3907
 4909SOL    HW319403   3.721   3.128   2.703  0.5077 -0.1688 -0.0759
 4909SOL    MW419404   3.725   3.066   2.765  0.2034 -0.2770 -0.1604
 4910SOL     OW19405   6.343   0.870   1.764  0.4699  0.4233 -0.0168
 4910SOL    HW219406   6.292   0.827   1.696  0.6062 -0.6813  0.5588
 4910SOL    HW319407   6.393   0.800   1.805  0.9096  1.1733  0.7749
 4910SOL    MW419408   6.343   0.855   1.760  0.5459  0.3765  0.1636
 4911SOL     OW19409   3.896   2.893   3.648 -0.1225  0.2286  0.0392
 4911SOL    HW219410   3.978   2.935   3.674  0.2631 -1.1420  1.1504
 4911SOL    HW319411   3.828   2.945   3.691  0.3975 -0.7516  2.2241
 4911SOL    MW419412   3.898   2.906   3.657 -0.0030 -0.0816  0.4740
 4912SOL     OW19413   5.884   6.141   1.998  0.0533  0.0895  0.2362
 4912SOL    HW219414   5.814   6.194   1.959  0.1664  0.2065  0.1890
 4912SOL    HW319415   5.875   6.155   2.092 -0.3714 -0.3845  0.2704
 4912SOL    MW419416   5.873   6.150   2.005  0.0122  0.0424  0.2345
 4913SOL     OW19417   2.817   0.327   0.703 -0.7029  0.2290  0.0495
 4913SOL    HW219418   2.782   0.303   0.789 -1.0354  0.7582  0.0642
 4913SOL    HW319419   2.912   0.318   0.712 -0.7140  0.5945  0.5684
 4913SOL    MW419420   2.825   0.322   0.715 -0.7482  0.3470  0.1199
 4914SOL     OW19421   1.411   6.102   0.516  0.4715  0.1952  0.6707
 4914SOL    HW219422   1.412   6.013   0.480 -0.4994  0.6630 -0.5986
 4914SOL    HW319423   1.318   6.124   0.520  0.7123  1.1768  0.9234
 4914SOL    MW419424   1.399   6.093   0.512  0.3752  0.3864  0.5366
 4915SOL     OW19425   4.542   5.854   5.609  0.1516 -0.4108  0.2371
 4915SOL    HW219426   4.524   5.762   5.587 -1.8925 -0.8019  3.0121
 4915SOL    HW319427   4.591   5.850   5.691  0.4978  1.0038  0.1266
 4915SOL    MW419428   4.546   5.841   5.617 -0.0724 -0.2758  0.5887
 4916SOL     OW19429   5.794   2.809   5.063 -0.0655 -0.2516 -0.1091
 4916SOL    HW219430   5.817   2.770   5.147  0.7365 -0.6979 -0.5260
 4916SOL    HW319431   5.874   2.803   5.011  0.0552  1.8174 -0.2435
 4916SOL    MW419432   5.808   2.803   5.068  0.0562 -0.0375 -0.1819
 4917SOL     OW19433   4.434   4.415   6.135  0.5405 -0.3095 -0.0914
 4917SOL    HW219434   4.405   4.338   6.184  1.5428 -0.1767  0.7360
 4917SOL    HW319435   4.433   4.387   6.044 -2.8894 -0.0889 -0.2409
 4917SOL    MW419436   4.430   4.401   6.130  0.2202 -0.2629 -0.0019
 4918SOL     OW19437   1.489   1.946   5.947  0.2053 -0.2225  0.0573
 4918SOL    HW219438   1.544   1.896   6.007  0.7966 -0.4172 -0.6351
 4918SOL    HW319439   1.449   2.014   6.002  1.6335  0.3373  0.4483
 4918SOL    MW419440   1.491   1.948   5.962  0.4718 -0.1743  0.0176
 4919SOL     OW19441   0.971   0.483   3.717  0.4720 -0.1509 -0.2922
 4919SOL    HW219442   1.029   0.558   3.714  1.0127 -0.5847 -0.7526
 4919SOL    HW319443   0.924   0.485   3.633 -1.1183  0.9160  0.5599
 4919SOL    MW419444   0.972   0.493   3.706  0.3335 -0.0674 -0.2405
 4920SOL     OW19445   5.367   6.083   0.180  0.1517  0.4543 -0.0043
 4920SOL    HW219446   5.394   6.028   0.107 -1.3732  0.4569 -0.5961
 4920SOL    HW319447   5.401   6.039   0.257  3.0476  1.1899 -0.7451
 4920SOL    MW419448   5.375   6.070   0.180  0.3326  0.5517 -0.1801
 4921SOL     OW19449   0.866   4.477   3.939  0.1534 -0.1124  0.0496
 4921SOL    HW219450   0.899   4.487   4.029  1.0545  0.8449 -0.3693
 4921SOL    HW319451   0.889   4.560   3.896 -0.8010 -0.3211 -0.9045
 4921SOL    MW419452   0.873   4.489   3.945  0.1464 -0.0136 -0.1315
 4922SOL     OW19453   5.272   3.849   3.685 -0.7441 -0.2932  0.0715
 4922SOL    HW219454   5.298   3.762   3.715  0.0853 -0.1462 -0.2054
 4922SOL    HW319455   5.185   3.835   3.646 -2.2775 -0.3726  3.1256
 4922SOL    MW419456   5.264   3.835   3.684 -0.8369 -0.2843  0.4380
 4923SOL     OW19457   5.348   4.577   4.355 -0.2530  0.4799 -0.0376
 4923SOL    HW219458   5.288   4.651   4.357  0.5761  1.1937 -0.9658
 4923SOL    HW319459   5.312   4.516   4.420 -1.9460  0.8981 -0.5361
 4923SOL    MW419460   5.335   4.579   4.364 -0.3670  0.6293 -0.2259
 4924SOL     OW19461   6.231   4.316   3.192 -0.6339  0.1114 -0.0598
 4924SOL    HW219462   6.320   4.335   3.222 -0.7261  2.8593 -1.2826
 4924SOL    HW319463   6.242   4.242   3.132  0.8061  0.3098 -0.0866
 4924SOL    MW419464   6.244   4.308   3.188 -0.4561  0.5001 -0.2247
 4925SOL     OW19465   4.135   0.694   4.975  0.5073 -0.2052 -0.1614
 4925SOL    HW219466   4.226   0.706   4.949  0.6327  0.0957  0.4075
 4925SOL    HW319467   4.138   0.626   5.042  0.5391  1.1075  1.1961
 4925SOL    MW419468   4.147   0.686   4.980  0.5280  0.0077  0.0927
 4926SOL     OW19469   0.231   0.125   0.762 -0.0193  0.1589 -0.4145
 4926SOL    HW219470   0.203   0.187   0.828 -1.0842  0.2714 -0.9533
 4926SOL    HW319471   0.213   0.039   0.800 -1.0524  0.2282 -0.7140
 4926SOL    MW419472   0.225   0.122   0.776 -0.2961  0.1829 -0.5251
 4927SOL     OW19473   3.122   3.527   1.179 -0.1431 -0.7202  0.2946
 4927SOL    HW219474   3.164   3.567   1.255 -2.5751  1.2946  0.7141
 4927SOL    HW319475   3.149   3.580   1.105 -0.8386 -0.2404  0.3725
 4927SOL    MW419476   3.131   3.539   1.179 -0.5557 -0.3911  0.3602
 4928SOL     OW19477   3.848   0.775   1.936 -0.7123  0.3551 -0.0537
 4928SOL    HW219478   3.935   0.735   1.943 -1.6559 -1.6240  1.0383
 4928SOL    HW319479   3.847   0.813   1.848  1.2769  0.5154 -0.0570
 4928SOL    MW419480   3.860   0.775   1.925 -0.5743  0.1151  0.0899
 4929SOL     OW19481   4.679   2.696   1.731  0.5723  0.5501  0.0498
 4929SOL    HW219482   4.760   2.661   1.694 -0.9298 -1.3850 -1.6027
 4929SOL    HW319483   4.614   2.627   1.716 -1.5362  2.2888  0.7425
 4929SOL    MW419484   4.681   2.682   1.724  0.0960  0.5242 -0.0769
 4930SOL     OW19485   3.576   3.538   1.870  0.2905 -0.1589 -0.5083
 4930SOL    HW219486   3.543   3.541   1.960  1.2095 -0.5448 -0.1471
 4930SOL    HW319487   3.661   3.582   1.874  0.0181  0.4729 -1.3424
 4930SOL    MW419488   3.583   3.545   1.882  0.3758 -0.1265 -0.5707
 4931SOL     OW19489   0.120   0.734   0.624  0.4940 -0.1372  0.4767
 4931SOL    HW219490   0.154   0.725   0.535  3.0012  1.7941  1.1344
 4931SOL    HW319491   0.087   0.646   0.646  1.2518 -1.0540 -1.7728
 4931SOL    MW419492   0.120   0.721   0.615  0.9248 -0.0033  0.2667
 4932SOL     OW19493   4.139   2.476   4.341 -0.4101  0.2402 -0.4627
 4932SOL    HW219494   4.049   2.445   4.353  0.1331 -1.0135  0.7587
 4932SOL    HW319495   4.186   2.400   4.308  0.7732 -0.0827  1.7293
 4932SOL    MW419496   4.133   2.462   4.338 -0.1823  0.0322 -0.0123
 4933SOL     OW19497   4.466   1.183   1.171  0.5946  0.5549  0.4799
 4933SOL    HW219498   4.420   1.197   1.088 -0.4028  0.6234  1.0216
 4933SOL    HW319499   4.493   1.091   1.168  0.5269  0.5461  0.0959
 4933SOL    MW419500   4.463   1.173   1.160  0.4541  0.5628  0.5007
 4934SOL     OW19501   2.142   1.454   4.746  0.6124 -0.0699 -0.2550
 4934SOL    HW219502   2.074   1.389   4.729  0.2245  0.4342 -0.7063
 4934SOL    HW319503   2.096   1.526   4.789  0.9698  0.0438 -0.0584
 4934SOL    MW419504   2.127   1.455   4.749  0.6083  0.0116 -0.2886
 4935SOL     OW19505   2.388   4.865   5.852  0.0242 -0.4667  0.1923
 4935SOL    HW219506   2.421   4.778   5.829 -0.1412 -0.6454  0.6263
 4935SOL    HW319507   2.399   4.916   5.772 -1.2251 -1.2735 -0.5328
 4935SOL    MW419508   2.394   4.860   5.838 -0.1624 -0.5967  0.1539
 4936SOL     OW19509   4.418   0.981   3.903  0.8717 -0.3821  0.0058
 4936SOL    HW219510   4.429   0.909   3.841  0.5885  0.4494 -1.0416
 4936SOL    HW319511   4.325   0.982   3.924  0.5509  0.7278 -1.3328
 4936SOL    MW419512   4.407   0.971   3.898  0.7920 -0.1260 -0.3090
 4937SOL     OW19513   0.030   4.191   4.257  0.4059 -0.1628 -0.2801
 4937SOL    HW219514   0.101   4.235   4.211 -0.3986  0.7458 -0.6959
 4937SOL    HW319515  -0.037   4.176   4.191 -0.5726  0.7430  0.4568
 4937SOL    MW419516   0.030   4.195   4.242  0.1707  0.0766 -0.2377
 4938SOL     OW19517   3.586   3.889   2.936  0.4650 -0.6322 -0.1559
 4938SOL    HW219518   3.650   3.818   2.931  0.9671 -0.1112 -1.8062
 4938SOL    HW319519   3.637   3.969   2.920 -0.1109  0.1205  1.5430
 4938SOL    MW419520   3.601   3.890   2.933  0.4552 -0.4641 -0.1495
 4939SOL     OW19521   5.020   1.353   1.580  0.0398 -0.2391 -0.1900
 4939SOL    HW219522   4.953   1.295   1.544  0.6702 -0.0626 -1.7367
 4939SOL    HW319523   5.067   1.299   1.644  0.2572 -1.2862 -1.1907
 4939SOL    MW419524   5.018   1.338   1.583  0.1517 -0.3540 -0.5261
 4940SOL     OW19525   2.713   0.344   4.599 -0.1073 -0.4131 -0.6369
 4940SOL    HW219526   2.728   0.255   4.631 -0.0060 -0.5362 -1.0203
 4940SOL    HW319527   2.621   0.361   4.617 -0.1087 -0.5660 -0.4932
 4940SOL    MW419528   2.703   0.334   4.606 -0.0941 -0.4495 -0.6685
 4941SOL     OW19529   3.925   1.938   0.704 -0.0864 -0.4043  0.1311
 4941SOL    HW219530   3.941   1.858   0.754  0.2699 -0.4027  0.0235
 4941SOL    HW319531   4.009   1.957   0.662  0.1815  0.6563  1.0752
 4941SOL    MW419532   3.939   1.930   0.705 -0.0041 -0.2642  0.2415
 4942SOL     OW19533   3.745   3.915   0.659 -0.5450 -0.3503  0.4819
 4942SOL    HW219534   3.651   3.927   0.658 -0.4921  0.1767  1.4250
 4942SOL    HW319535   3.763   3.870   0.742  0.0076 -0.6824  0.1923
 4942SOL    MW419536   3.735   3.910   0.670 -0.4651 -0.3245  0.5681
 4943SOL     OW19537   2.733   6.083   6.403 -0.0563  0.0167  0.0516
 4943SOL    HW219538   2.716   5.989   6.404  0.4200 -0.0767 -0.3189
 4943SOL    HW319539   2.741   6.107   6.496  2.9296 -0.9063  0.1549
 4943SOL    MW419540   2.732   6.074   6.416  0.4005 -0.1174  0.0163
 4944SOL     OW19541   3.573   2.553   5.662  0.2752  0.5384  0.5522
 4944SOL    HW219542   3.547   2.546   5.754 -1.0227  0.8366  0.2332
 4944SOL    HW319543   3.569   2.463   5.630 -0.9005  0.6299  0.3919
 4944SOL    MW419544   3.569   2.540   5.670 -0.0512  0.5898  0.4889
 4945SOL     OW19545   3.841   3.601   1.877 -0.4342  0.0089  0.2988
 4945SOL    HW219546   3.878   3.660   1.811 -0.8901  0.9737  0.8654
 4945SOL    HW319547   3.900   3.526   1.880  1.6194  1.5659  1.3055
 4945SOL    MW419548   3.853   3.599   1.869 -0.2234  0.3416  0.5064
 4946SOL     OW19549   4.121   5.062   2.677  0.1721 -0.1430  0.2155
 4946SOL    HW219550   4.067   5.065   2.598  0.0611  1.9426  0.3155
 4946SOL    HW319551   4.074   5.005   2.737  0.0775 -1.4748 -1.0625
 4946SOL    MW419552   4.108   5.055   2.674  0.1450 -0.0435  0.0601
 4947SOL     OW19553   1.104   3.147   5.635  0.0650  0.2399 -0.1986
 4947SOL    HW219554   1.180   3.104   5.596 -0.6275 -1.7780  0.5224
 4947SOL    HW319555   1.033   3.133   5.572 -0.6697 -1.6270  0.9413
 4947SOL    MW419556   1.104   3.139   5.622 -0.1233 -0.2726  0.0469
 4948SOL     OW19557   6.249   2.712   5.077  0.3741  0.2524  0.0171
 4948SOL    HW219558   6.307   2.640   5.101  0.6536 -0.0116 -1.4101
 4948SOL    HW319559   6.291   2.753   5.002 -1.8349 -0.6436 -1.8054
 4948SOL    MW419560   6.262   2.708   5.070  0.1195  0.0993 -0.4117
 4949SOL     OW19561   1.273   3.446   1.800 -0.2462 -0.4252  0.3425
 4949SOL    HW219562   1.287   3.538   1.779 -1.7636 -0.2468  0.0331
 4949SOL    HW319563   1.346   3.400   1.758  1.3237  0.7423  1.6689
 4949SOL    MW419564   1.284   3.452   1.792 -0.2393 -0.2476  0.4767
 4950SOL     OW19565   4.201   0.913   6.367  0.4400  0.7910  0.0822
 4950SOL    HW219566   4.257   0.849   6.411  1.7185  2.0853  0.4264
 4950SOL    HW319567   4.114   0.874   6.367  0.8107 -0.1226  1.9772
 4950SOL    MW419568   4.197   0.900   6.373  0.6576  0.8413  0.3777
 4951SOL     OW19569   1.212   5.600   1.255  0.0330 -0.0673 -0.1748
 4951SOL    HW219570   1.303   5.629   1.259 -0.1013  0.5234 -1.0654
 4951SOL    HW319571   1.217   5.510   1.224  0.4345 -0.9716  2.2624
 4951SOL    MW419572   1.225   5.592   1.252  0.0682 -0.1087  0.0293
 4952SOL     OW19573   5.359   1.423   1.578 -0.4415  0.4738 -0.5169
 4952SOL    HW219574   5.346   1.361   1.507 -1.9130  0.4157 -0.2198
 4952SOL    HW319575   5.407   1.495   1.538  1.5193 -0.9069 -0.8164
 4952SOL    MW419576   5.364   1.424   1.563 -0.3769  0.2840 -0.5172
 4953SOL     OW19577   1.098   0.805   0.925 -0.0867 -0.0105 -0.2953
 4953SOL    HW219578   1.027   0.807   0.989 -0.1338 -0.0735 -0.3454
 4953SOL    HW319579   1.131   0.895   0.922 -0.2808  0.0555 -0.4052
 4953SOL    MW419580   1.093   0.817   0.933 -0.1185 -0.0101 -0.3164
 4954SOL     OW19581   3.145   4.877   1.577  0.4737  0.5655  0.0723
 4954SOL    HW219582   3.055   4.859   1.603  1.1853 -1.0851  1.5976
 4954SOL    HW319583   3.153   4.839   1.489  0.2605 -1.3025  0.8273
 4954SOL    MW419584   3.134   4.870   1.569  0.5395  0.1013  0.3731
 4955SOL     OW19585   1.981   3.457   3.211 -0.7828  0.0197 -0.0272
 4955SOL    HW219586   1.953   3.541   3.177 -1.8313 -0.7632 -1.2018
 4955SOL    HW319587   1.930   3.393   3.161 -0.5713 -1.2817  1.3602
 4955SOL    MW419588   1.970   3.459   3.200 -0.8932 -0.2553  0.0009
 4956SOL     OW19589   5.443   0.239   4.969  0.1206 -0.0195  0.2326
 4956SOL    HW219590   5.493   0.162   4.943  0.7005 -0.1506  1.6508
 4956SOL    HW319591   5.403   0.271   4.888  1.1260 -0.9039 -0.6301
 4956SOL    MW419592   5.444   0.233   4.955  0.3298 -0.1535  0.3059
 4957SOL     OW19593   6.254   1.328   4.965 -0.5631 -0.3817 -0.4097
 4957SOL    HW219594   6.316   1.319   4.894 -1.0501  2.1989 -1.2877
 4957SOL    HW319595   6.301   1.296   5.042  1.2036 -0.1580 -1.3395
 4957SOL    MW419596   6.268   1.323   4.966 -0.3943 -0.0117 -0.6482
 4958SOL     OW19597   1.339   5.390   5.401 -0.1750  0.3045  0.0125
 4958SOL    HW219598   1.245   5.390   5.419 -0.1990 -0.0547 -0.1030
 4958SOL    HW319599   1.376   5.332   5.467 -0.1926 -0.5421 -0.7124
 4958SOL    MW419600   1.331   5.383   5.412 -0.1805  0.1454 -0.0984
 4959SOL     OW19601   2.775   4.800   3.562  0.1677 -0.1327 -0.1030
 4959SOL    HW219602   2.746   4.820   3.651 -0.2061 -0.8667 -0.0502
 4959SOL    HW319603   2.796   4.706   3.564 -1.0228 -0.4569 -1.0870
 4959SOL    MW419604   2.774   4.790   3.574 -0.0386 -0.2723 -0.2259
 4960SOL     OW19605   1.677   5.063   2.807 -0.0690 -0.6280 -0.0925
 4960SOL    HW219606   1.596   5.018   2.828  0.4456 -0.9022  1.4417
 4960SOL    HW319607   1.658   5.156   2.822 -0.1390 -0.6753  0.1050
 4960SOL    MW419608   1.664   5.069   2.811 -0.0103 -0.6704  0.1359
 4961SOL     OW19609   4.510   0.675   2.175 -0.5219 -0.4710 -0.2654
 4961SOL    HW219610   4.502   0.760   2.132  0.0586 -0.1940  0.1630
 4961SOL    HW319611   4.515   0.696   2.268 -0.1365 -0.9575 -0.1753
 4961SOL    MW419612   4.510   0.689   2.181 -0.3945 -0.4986 -0.1970
 4962SOL     OW19613   1.009   4.447   5.860  0.5250  0.3726  0.1604
 4962SOL    HW219614   1.102   4.467   5.862  0.6389 -0.1447  0.2949
 4962SOL    HW319615   0.999   4.389   5.785  0.2007  0.9474 -0.2440
 4962SOL    MW419616   1.020   4.442   5.851  0.4973  0.3802  0.1248
 4963SOL     OW19617   1.624   0.162   3.386  0.5380  0.5097  0.3511
 4963SOL    HW219618   1.700   0.121   3.346 -1.1849 -2.2330 -0.3466
 4963SOL    HW319619   1.557   0.161   3.318 -1.3531 -0.9058  2.1061
 4963SOL    MW419620   1.625   0.157   3.372  0.0611 -0.0389  0.4906
 4964SOL     OW19621   4.867   1.968   2.033 -0.2721  0.2925  0.1907
 4964SOL    HW219622   4.916   1.897   1.993  0.1576 -0.1894  1.5142
 4964SOL    HW319623   4.912   2.048   2.004  0.7661 -0.1065  0.6638
 4964SOL    MW419624   4.879   1.969   2.024 -0.0784  0.1763  0.4278
 4965SOL     OW19625   0.944   2.065   0.422  0.3560  0.0456  0.4721
 4965SOL    HW219626   0.951   2.013   0.502  0.3017 -2.3089 -0.9395
 4965SOL    HW319627   1.026   2.047   0.375  0.2094  1.0250 -0.1942
 4965SOL    MW419628   0.956   2.056   0.426  0.3295 -0.1358  0.1980
 4966SOL     OW19629   0.281   2.043   1.890 -0.5490  0.2826  0.8181
 4966SOL    HW219630   0.343   2.086   1.831  0.5044 -1.1642  0.8123
 4966SOL    HW319631   0.198   2.087   1.873 -0.8127 -1.3100 -3.2875
 4966SOL    MW419632   0.279   2.054   1.880 -0.4448 -0.1184  0.2757
 4967SOL     OW19633   1.356   5.666   4.202  0.2409 -0.4361 -0.4944
 4967SOL    HW219634   1.431   5.611   4.182  1.7607  1.5487 -0.6190
 4967SOL    HW319635   1.313   5.623   4.276  0.6530 -2.3445 -1.3040
 4967SOL    MW419636   1.360   5.653   4.209  0.4958 -0.4260 -0.6177
 4968SOL     OW19637   2.943   2.678   0.601 -0.3623 -0.8856 -0.2450
 4968SOL    HW219638   2.941   2.582   0.592 -1.9597 -1.0132  0.9259
 4968SOL    HW319639   2.944   2.692   0.696  0.5881  0.2861 -0.4107
 4968SOL    MW419640   2.943   2.667   0.612 -0.4477 -0.7478 -0.1123
 4969SOL     OW19641   4.027   5.057   1.168  0.3858  0.2539  0.3711
 4969SOL    HW219642   3.965   4.993   1.204 -0.0642  0.4679 -0.0049
 4969SOL    HW319643   4.020   5.132   1.227 -2.5922  1.8251 -1.6843
 4969SOL    MW419644   4.018   5.058   1.181 -0.0665  0.4894  0.0503
 4970SOL     OW19645   0.067   0.411   2.371  0.1356 -0.0442 -0.4535
 4970SOL    HW219646   0.107   0.484   2.323  0.6537 -0.0134  0.0155
 4970SOL    HW319647   0.040   0.449   2.454  1.6426 -0.6608  0.3618
 4970SOL    MW419648   0.069   0.426   2.375  0.4028 -0.1215 -0.2840
 4971SOL     OW19649   4.208   3.217   5.171 -0.3264  0.1642  0.4508
 4971SOL    HW219650   4.249   3.151   5.114  2.0854 -0.0230  2.2602
 4971SOL    HW319651   4.130   3.174   5.205  0.1292 -1.0191  0.0445
 4971SOL    MW419652   4.203   3.203   5.168  0.0520 -0.0166  0.6359
 4972SOL     OW19653   3.488   3.479   1.494 -0.4178  0.2104  0.3210
 4972SOL    HW219654   3.579   3.503   1.511 -0.6776  1.3170  0.2305
 4972SOL    HW319655   3.467   3.416   1.562 -0.0375  1.0893  1.2892
 4972SOL    MW419656   3.497   3.474   1.505 -0.4019  0.4723  0.4368
 4973SOL     OW19657   1.828   6.335   5.132 -0.2410  0.0224  0.2015
 4973SOL    HW219658   1.880   6.303   5.058 -1.6363 -2.0475  0.0299
 4973SOL    HW319659   1.749   6.371   5.092 -0.3712  0.2004  0.6118
 4973SOL    MW419660   1.825   6.335   5.117 -0.4423 -0.2272  0.2330
 4974SOL     OW19661   1.570   1.040   6.246 -0.1709  0.6184 -0.0040
 4974SOL    HW219662   1.505   1.105   6.219 -0.0331  0.0652 -1.8502
 4974SOL    HW319663   1.524   0.985   6.310 -0.3228  2.4130  1.5015
 4974SOL    MW419664   1.555   1.041   6.251 -0.1727  0.7822 -0.0490
 4975SOL     OW19665   6.196   1.569   4.488  0.0660 -0.1235 -0.1151
 4975SOL    HW219666   6.189   1.665   4.485  2.9118  0.1618 -0.4452
 4975SOL    HW319667   6.139   1.539   4.417 -0.5489  1.3381 -0.2887
 4975SOL    MW419668   6.188   1.578   4.478  0.3603  0.1070 -0.1816
 4976SOL     OW19669   3.285   3.038   1.658  0.5373 -0.5819 -0.6632
 4976SOL    HW219670   3.337   3.097   1.604  2.4440 -0.8171  0.8102
 4976SOL    HW319671   3.349   2.976   1.695 -0.7735 -0.9141  1.1994
 4976SOL    MW419672   3.301   3.037   1.656  0.6159 -0.6567 -0.2231
 4977SOL     OW19673   3.991   6.138   2.150 -0.0942  0.0278  0.4769
 4977SOL    HW219674   4.066   6.116   2.095  0.4851 -0.3694  1.4046
 4977SOL    HW319675   3.994   6.233   2.158  0.2648  0.0205  0.4449
 4977SOL    MW419676   4.001   6.147   2.144  0.0296 -0.0256  0.5951
 4978SOL     OW19677   1.569   2.195   3.215  0.0161  0.6673 -0.0260
 4978SOL    HW219678   1.651   2.147   3.230  0.2124  0.6445 -1.0652
 4978SOL    HW319679   1.516   2.135   3.162 -0.9064  0.4605  1.0858
 4978SOL    MW419680   1.573   2.180   3.210 -0.0797  0.6370 -0.0164
 4979SOL     OW19681   1.467   3.347   0.790 -0.1660  0.1968 -0.0197
 4979SOL    HW219682   1.463   3.289   0.867  1.6297  1.0926  0.8097
 4979SOL    HW319683   1.514   3.296   0.724  1.2140  0.5601  0.6338
 4979SOL    MW419684   1.473   3.332   0.792  0.2530  0.3629  0.1759
 4980SOL     OW19685   4.257   6.223   5.124 -0.0699 -0.0986  0.1800
 4980SOL    HW219686   4.283   6.237   5.033  0.1219  2.1828  0.5216
 4980SOL    HW319687   4.316   6.154   5.155 -0.8584 -1.7239 -1.6655
 4980SOL    MW419688   4.268   6.216   5.116 -0.1486 -0.0120 -0.0184
 4981SOL     OW19689   5.674   2.237   5.517  0.1389  0.0501 -0.1502
 4981SOL    HW219690   5.671   2.145   5.541 -0.6767 -0.0211 -0.4922
 4981SOL    HW319691   5.586   2.257   5.484  0.4790  0.7851 -0.6625
 4981SOL    MW419692   5.662   2.228   5.515  0.0761  0.1377 -0.2629
 4982SOL     OW19693   0.177   4.180   3.755  0.0914  0.8669  0.3090
 4982SOL    HW219694   0.177   4.180   3.851 -0.3958  0.8167  0.3154
 4982SOL    HW319695   0.184   4.272   3.731  2.7110  0.7387  0.3528
 4982SOL    MW419696   0.178   4.192   3.765  0.3728  0.8433  0.3156
 4983SOL     OW19697   0.494   3.092   5.915  0.5212  0.1761 -0.4029
 4983SOL    HW219698   0.526   3.072   5.827 -0.0774 -1.2059 -0.3170
 4983SOL    HW319699   0.421   3.153   5.901  1.6734  1.5517 -0.7206
 4983SOL    MW419700   0.489   3.098   5.902  0.5943  0.1752 -0.4335
 4984SOL     OW19701   4.185   0.361   0.934 -0.1984 -0.3315 -0.0610
 4984SOL    HW219702   4.142   0.433   0.888  0.1478  0.3606  0.6702
 4984SOL    HW319703   4.180   0.287   0.874  0.6370  0.6697 -1.3965
 4984SOL    MW419704   4.179   0.361   0.920 -0.0425 -0.1081 -0.1408
 4985SOL     OW19705   0.569   1.405   3.431  0.0676  0.7560  0.3910
 4985SOL    HW219706   0.474   1.397   3.437  0.0429  1.0090  0.3572
 4985SOL    HW319707   0.591   1.376   3.343  0.0394  0.5241  0.4622
 4985SOL    MW419708   0.559   1.400   3.420  0.0606  0.7588  0.3959
 4986SOL     OW19709   0.578   4.449   3.845 -0.0936  0.0529 -0.0443
 4986SOL    HW219710   0.559   4.393   3.770  0.6963 -0.1132 -0.1267
 4986SOL    HW319711   0.670   4.432   3.865  0.3516  1.7732 -0.4621
 4986SOL    MW419712   0.588   4.439   3.837  0.0694  0.2580 -0.1103
 4987SOL     OW19713   1.587   3.068   5.665  0.1285  0.3361 -0.3108
 4987SOL    HW219714   1.611   2.985   5.624  1.9081  1.0321 -0.7793
 4987SOL    HW319715   1.588   3.050   5.759 -0.4483 -0.3952 -0.4386
 4987SOL    MW419716   1.590   3.055   5.672  0.2872  0.3314 -0.3894
 4988SOL     OW19717   1.572   5.331   1.476 -0.0876  0.2578 -0.1951
 4988SOL    HW219718   1.661   5.355   1.501  0.6902 -1.9680 -0.6505
 4988SOL    HW319719   1.568   5.347   1.382  0.2722 -0.8502 -0.4095
 4988SOL    MW419720   1.583   5.337   1.467  0.0625 -0.1821 -0.2835
 4989SOL     OW19721   2.078   6.428   0.546  0.6932  0.0534 -0.2350
 4989SOL    HW219722   2.067   6.348   0.496 -1.7103  0.4128 -0.3770
 4989SOL    HW319723   2.066   6.498   0.482  0.4209  0.5163  0.3112
 4989SOL    MW419724   2.075   6.427   0.531  0.3402  0.1619 -0.1817
 4990SOL     OW19725   4.961   5.322   5.872  0.2087  0.0527 -0.1273
 4990SOL    HW219726   4.935   5.280   5.954 -0.6270  1.5458  0.4066
 4990SOL    HW319727   4.962   5.416   5.893  0.3252  0.4318 -1.7427
 4990SOL    MW419728   4.958   5.329   5.886  0.1138  0.2997 -0.2700
 4991SOL     OW19729   5.723   0.280   2.337  0.1003  0.0420  0.1428
 4991SOL    HW219730   5.778   0.280   2.415 -0.9899  0.8414  0.9437
 4991SOL    HW319731   5.742   0.197   2.294  0.0667 -0.8375  1.7427
 4991SOL    MW419732   5.733   0.269   2.342 -0.0480  0.0314  0.4595
 4992SOL     OW19733   1.655   1.973   4.965 -0.1449 -0.2764 -0.2088
 4992SOL    HW219734   1.677   1.993   5.056 -1.0007 -0.4013  0.0387
 4992SOL    HW319735   1.564   1.941   4.969  0.4515 -2.1719 -0.8656
 4992SOL    MW419736   1.646   1.972   4.978 -0.1792 -0.5429 -0.2628
 4993SOL     OW19737   4.854   5.882   4.448 -0.0089  0.0938 -0.1070
 4993SOL    HW219738   4.907   5.806   4.423 -0.6123 -0.4043  0.0749
 4993SOL    HW319739   4.764   5.855   4.429 -0.3442  0.3129  1.0589
 4993SOL    MW419740   4.849   5.868   4.442 -0.1328  0.0570  0.0709
 4994SOL     OW19741   0.820   0.735   3.389  0.1537  0.1684 -0.3129
 4994SOL    HW219742   0.832   0.824   3.355  0.7394 -0.1671 -0.9965
 4994SOL    HW319743   0.794   0.748   3.480  0.7841  1.0336 -0.2474
 4994SOL    MW419744   0.818   0.748   3.397  0.3141  0.2383 -0.3944
 4995SOL     OW19745   3.793   1.548   5.797  0.1109  0.9754 -0.0932
 4995SOL    HW219746   3.733   1.474   5.803  1.0384  0.2538  0.5982
 4995SOL    HW319747   3.810   1.558   5.703  0.2300  0.0988 -0.1715
 4995SOL    MW419748   3.788   1.539   5.785  0.2490  0.7645 -0.0123
 4996SOL     OW19749   4.834   6.147   1.619 -0.0861 -0.6699  0.0932
 4996SOL    HW219750   4.808   6.125   1.529  1.8836 -2.7489 -0.0550
 4996SOL    HW319751   4.920   6.188   1.609 -0.4511  0.3456  0.9705
 4996SOL    MW419752   4.842   6.150   1.606  0.1256 -0.8102  0.1894
 4997SOL     OW19753   4.846   4.979   1.898 -0.1561 -0.1627  0.3433
 4997SOL    HW219754   4.864   4.888   1.876 -0.1955 -0.0734 -0.0736
 4997SOL    HW319755   4.890   5.029   1.830  0.2044  0.1464  0.7978
 4997SOL    MW419756   4.854   4.974   1.886 -0.1138 -0.1101  0.3483
 4998SOL     OW19757   2.976   1.328   6.026 -0.1392  0.0084 -0.1712
 4998SOL    HW219758   3.024   1.405   5.996  1.3088 -0.9515 -0.4228
 4998SOL    HW319759   2.929   1.297   5.948  0.6683 -0.3445 -0.5339
 4998SOL    MW419760   2.976   1.334   6.011  0.1584 -0.1648 -0.2522
 4999SOL     OW19761   2.486   6.378   3.718  0.5340 -0.3434  0.6214
 4999SOL    HW219762   2.560   6.372   3.657 -0.0185 -2.4386  0.1016
 4999SOL    HW319763   2.428   6.444   3.679 -0.5334 -2.6790 -2.0173
 4999SOL    MW419764   2.488   6.386   3.705  0.3203 -0.9280  0.2046
 5000SOL     OW19765   0.107   0.277   6.415  0.3738 -0.0431  0.2164
 5000SOL    HW219766   0.036   0.213   6.425 -1.8895  1.9166 -1.9437
 5000SOL    HW319767   0.104   0.328   6.497 -0.1782 -0.4794  0.4773
 5000SOL    MW419768   0.097   0.275   6.427  0.0024  0.1579 -0.0342
 5001SOL     OW19769   4.478   2.826   0.544 -0.2812 -0.0675 -0.9158
 5001SOL    HW219770   4.472   2.916   0.512 -0.7500  0.1956 -0.1368
 5001SOL    HW319771   4.429   2.775   0.480 -2.9318  0.7235  0.3076
 5001SOL    MW419772   4.471   2.831   0.532 -0.6928  0.0716 -0.6516
 5002SOL     OW19773   4.692   4.379   5.530  0.1783  0.2660 -0.2580
 5002SOL    HW219774   4.744   4.394   5.610 -0.6643 -1.2679  0.6050
 5002SOL    HW319775   4.640   4.459   5.521  1.7552  1.3194 -0.4505
 5002SOL    MW419776   4.692   4.392   5.539  0.2752  0.2026 -0.1696
 5003SOL     OW19777   0.674   5.828   0.967 -0.1603 -0.3370 -0.4405
 5003SOL    HW219778   0.761   5.822   1.006  0.7368  1.8651 -1.9090
 5003SOL    HW319779   0.618   5.775   1.024  2.0065 -1.2931  0.8935
 5003SOL    MW419780   0.678   5.820   0.980  0.2439 -0.1726 -0.4583
 5004SOL     OW19781   4.855   3.301   5.347  0.5686  0.5204 -0.1873
 5004SOL    HW219782   4.784   3.285   5.286  1.0479  1.1093 -0.9153
 5004SOL    HW319783   4.933   3.264   5.305  0.7116 -0.0680  0.5753
 5004SOL    MW419784   4.856   3.294   5.334  0.6507  0.5205 -0.1828
 5005SOL     OW19785   5.808   2.691   2.739 -1.1021 -0.0603 -0.0982
 5005SOL    HW219786   5.884   2.726   2.786 -1.9719  0.2427  1.1000
 5005SOL    HW319787   5.786   2.759   2.675  0.7457 -0.9199 -1.7952
 5005SOL    MW419788   5.815   2.705   2.736 -0.9731 -0.1337 -0.1640
 5006SOL     OW19789   2.697   0.320   0.246 -0.3787  0.5176 -0.2977
 5006SOL    HW219790   2.714   0.389   0.182  0.2056 -0.2898 -1.0467
 5006SOL    HW319791   2.648   0.253   0.198  0.9015 -0.5392 -0.2167
 5006SOL    MW419792   2.693   0.320   0.232 -0.1327  0.2717 -0.3858
 5007SOL     OW19793   2.384   3.052   2.207 -0.3921  0.1609  0.2876
 5007SOL    HW219794   2.435   3.032   2.128 -0.0845  0.4187  0.4193
 5007SOL    HW319795   2.354   2.966   2.237  0.4123 -0.0573  0.5034
 5007SOL    MW419796   2.387   3.038   2.200 -0.2454  0.1661  0.3334
 5008SOL     OW19797   5.960   1.314   2.964  0.7746  0.1810  0.1809
 5008SOL    HW219798   5.890   1.251   2.983 -0.6266  2.1142  1.8637
 5008SOL    HW319799   5.915   1.388   2.922  1.7401  1.5266  1.4339
 5008SOL    MW419800   5.944   1.315   2.961  0.7171  0.6136  0.5682
 5009SOL     OW19801   5.085   3.986   5.067  0.0287  0.2780  0.3964
 5009SOL    HW219802   5.173   4.000   5.102 -0.2338  1.1616  0.7089
 5009SOL    HW319803   5.080   4.044   4.991 -0.2999  0.2555  0.3990
 5009SOL    MW419804   5.096   3.995   5.061 -0.0493  0.3916  0.4380
 5010SOL     OW19805   2.717   1.446   0.886  0.1947 -0.3843  0.0627
 5010SOL    HW219806   2.647   1.508   0.909 -1.9136 -2.9253  0.9148
 5010SOL    HW319807   2.788   1.468   0.947 -0.7532  0.7489  0.8179
 5010SOL    MW419808   2.717   1.457   0.897 -0.2085 -0.5700  0.2748
 5011SOL     OW19809   1.909   3.230   3.027 -0.3826  0.1010 -0.0747
 5011SOL    HW219810   1.963   3.152   3.025 -2.7478 -1.9407  3.5519
 5011SOL    HW319811   1.823   3.200   2.996 -1.5361  0.9502  2.1080
 5011SOL    MW419812   1.905   3.216   3.023 -0.8469 -0.0564  0.6918
 5012SOL     OW19813   5.289   2.947   3.550 -0.7207  0.4559 -0.0265
 5012SOL    HW219814   5.308   3.041   3.546  0.3486  0.2967  0.7820
 5012SOL    HW319815   5.262   2.932   3.640  1.6377 -0.4157  0.6143
 5012SOL    MW419816   5.288   2.958   3.561 -0.2684  0.3199  0.1647
 5013SOL     OW19817   3.237   5.383   0.448 -0.5861  0.1905 -0.4082
 5013SOL    HW219818   3.228   5.374   0.353 -2.1278 -1.0811 -0.1837
 5013SOL    HW319819   3.163   5.335   0.483 -0.9247  1.9409  1.4225
 5013SOL    MW419820   3.226   5.375   0.440 -0.8342  0.2537 -0.1370
 5014SOL     OW19821   3.695   0.121   4.840 -0.4466  0.1226 -0.3606
 5014SOL    HW219822   3.773   0.081   4.803  1.4947 -0.1071  3.4201
 5014SOL    HW319823   3.663   0.180   4.772  1.3344 -1.7865 -3.0772
 5014SOL    MW419824   3.701   0.123   4.826  0.0445 -0.1596 -0.2202
 5015SOL     OW19825   0.684   3.080   0.156  0.0536  0.2645  0.3705
 5015SOL    HW219826   0.720   3.054   0.071 -1.2719  1.4278 -0.5947
 5015SOL    HW319827   0.730   3.162   0.176  0.3273  0.0181  0.7670
 5015SOL    MW419828   0.695   3.088   0.147 -0.0852  0.3855  0.2955
 5016SOL     OW19829   1.846   1.452   4.455 -0.3449 -0.2131  0.4277
 5016SOL    HW219830   1.786   1.396   4.405 -0.8471  0.3804  0.3506
 5016SOL    HW319831   1.882   1.394   4.521  1.2003 -1.3136 -1.2842
 5016SOL    MW419832   1.843   1.437   4.457 -0.2073 -0.2800  0.1916
 5017SOL     OW19833   1.091   5.044   0.159 -0.3942 -0.3244  0.5274
 5017SOL    HW219834   1.128   5.009   0.240 -2.0361 -0.7058  1.1400
 5017SOL    HW319835   1.097   4.972   0.096  0.3463 -0.2161  0.4645
 5017SOL    MW419836   1.097   5.030   0.161 -0.5131 -0.3604  0.6000
 5018SOL     OW19837   2.143   0.323   4.789 -0.6962 -0.4315 -0.4722
 5018SOL    HW219838   2.177   0.283   4.869  0.3540  2.7183  0.7999
 5018SOL    HW319839   2.208   0.301   4.722  0.5024  0.1262  0.4679
 5018SOL    MW419840   2.156   0.315   4.790 -0.3995  0.0576 -0.1803
 5019SOL     OW19841   5.888   0.422   6.378  0.2841 -0.2601  0.4621
 5019SOL    HW219842   5.919   0.504   6.418 -0.5218 -0.0389  0.6607
 5019SOL    HW319843   5.866   0.366   6.453 -0.3656 -0.1832  0.3352
 5019SOL    MW419844   5.889   0.426   6.393  0.0921 -0.2207  0.4715
 5020SOL     OW19845   1.944   5.709   4.565 -0.0646 -0.6653  0.2708
 5020SOL    HW219846   1.964   5.802   4.558 -0.7589 -0.5975 -1.1183
 5020SOL    HW319847   1.928   5.695   4.659  0.1686  0.5791  0.5092
 5020SOL    MW419848   1.944   5.719   4.577 -0.1254 -0.4922  0.1190
 5021SOL     OW19849   5.076   3.682   0.321  0.2668 -0.3675  0.4822
 5021SOL    HW219850   5.088   3.657   0.412  0.0223 -0.8258  0.3896
 5021SOL    HW319851   5.140   3.752   0.307  1.1677 -1.1314  0.6622
 5021SOL    MW419852   5.086   3.688   0.331  0.3534 -0.5287  0.4937
 5022SOL     OW19853   0.923   5.157   6.323  0.5317 -0.3265 -0.3095
 5022SOL    HW219854   1.006   5.199   6.344  0.2757 -0.0331  0.1145
 5022SOL    HW319855   0.948   5.072   6.286  1.0134 -0.2927 -0.0660
 5022SOL    MW419856   0.937   5.151   6.321  0.5615 -0.2833 -0.2214
 5023SOL     OW19857   5.046   1.604   2.923  0.0728 -0.3295  0.1718
 5023SOL    HW219858   5.080   1.617   3.011 -1.9304  1.2958  0.7842
 5023SOL    HW319859   5.051   1.691   2.883  0.5116 -0.9501 -1.1735
 5023SOL    MW419860   5.051   1.617   2.929 -0.1336 -0.1969  0.0751
 5024SOL     OW19861   3.506   3.356   5.839  0.2963  0.0625 -0.3335
 5024SOL    HW219862   3.515   3.291   5.770  1.5352 -0.3053  0.1503
 5024SOL    HW319863   3.560   3.430   5.809  1.0209 -0.1875  0.3176
 5024SOL    MW419864   3.514   3.357   5.826  0.5553 -0.0190 -0.1838
 5025SOL     OW19865   6.213   1.684   2.725  0.0647 -0.1842  0.3935
 5025SOL    HW219866   6.123   1.701   2.754  0.0346 -1.2666  0.9532
 5025SOL    HW319867   6.256   1.646   2.802  0.7606 -0.4801 -0.1385
 5025SOL    MW419868   6.207   1.682   2.739  0.1525 -0.3660  0.3972
 5026SOL     OW19869   0.945   1.957   0.744 -0.0936 -0.3428  0.0924
 5026SOL    HW219870   0.858   1.993   0.762  1.1787  2.0288  2.0552
 5026SOL    HW319871   0.952   1.880   0.800 -1.5071 -1.6969 -1.4496
 5026SOL    MW419872   0.935   1.951   0.754 -0.1122 -0.2086  0.1479
 5027SOL     OW19873   4.156   0.392   2.676  0.3823 -0.5838 -0.6348
 5027SOL    HW219874   4.180   0.303   2.649  0.0066 -0.3304 -1.8614
 5027SOL    HW319875   4.220   0.448   2.634 -2.7234  0.2141 -4.9767
 5027SOL    MW419876   4.167   0.387   2.667 -0.0770 -0.4451 -1.3695
 5028SOL     OW19877   2.570   6.092   1.093 -0.1438 -0.5272  0.0556
 5028SOL    HW219878   2.601   6.180   1.111  1.0898 -0.9349  0.0440
 5028SOL    HW319879   2.594   6.042   1.171  2.1250 -1.5481 -1.2138
 5028SOL    MW419880   2.577   6.097   1.105  0.3183 -0.7157 -0.1134
 5029SOL     OW19881   1.219   0.560   0.956  0.5064 -0.8176 -0.3123
 5029SOL    HW219882   1.192   0.652   0.951  1.1575 -0.6015  0.0117
 5029SOL    HW319883   1.306   0.559   0.917  0.0721 -1.4890 -1.2651
 5029SOL    MW419884   1.227   0.572   0.951  0.5350 -0.8777 -0.3953
 5030SOL     OW19885   5.449   5.340   3.873  0.0213 -0.2370  0.6555
 5030SOL    HW219886   5.371   5.389   3.847  0.3595  1.1293  2.1174
 5030SOL    HW319887   5.520   5.379   3.822 -0.1209 -1.1132 -0.2585
 5030SOL    MW419888   5.448   5.351   3.863  0.0471 -0.1723  0.7278
 5031SOL     OW19889   1.130   0.321   1.070 -0.0479 -0.0432  0.0403
 5031SOL    HW219890   1.151   0.401   1.023  0.5802  1.0702  2.0903
 5031SOL    HW319891   1.169   0.251   1.016 -0.9048  0.9423 -1.9546
 5031SOL    MW419892   1.138   0.322   1.057 -0.0781  0.2337  0.0476
 5032SOL     OW19893   2.709   5.910   2.660  0.0597  0.0853  0.0795
 5032SOL    HW219894   2.698   5.920   2.565  2.0674  0.3698 -0.1745
 5032SOL    HW319895   2.718   5.815   2.673  2.6383  0.1672 -0.4718
 5032SOL    MW419896   2.709   5.899   2.649  0.6648  0.1337 -0.0268
 5033SOL     OW19897   3.133   1.406   0.631  0.1093  0.2322 -0.0374
 5033SOL    HW219898   3.045   1.401   0.667 -0.0411  2.3369  0.0349
 5033SOL    HW319899   3.190   1.416   0.708  0.1372  1.2252 -0.1641
 5033SOL    MW419900   3.129   1.407   0.646  0.0931  0.6409 -0.0446
 5034SOL     OW19901   1.495   5.941   0.998  0.2023  0.4657  0.2071
 5034SOL    HW219902   1.457   5.857   0.971  2.8067 -1.3520  1.7544
 5034SOL    HW319903   1.545   5.971   0.922  0.3913 -0.1187  0.1007
 5034SOL    MW419904   1.497   5.934   0.984  0.5708  0.1488  0.3972
 5035SOL     OW19905   2.833   2.935   2.244  0.5674 -0.0880 -0.2139
 5035SOL    HW219906   2.875   2.870   2.299  1.2360  1.1801  0.8392
 5035SOL    HW319907   2.759   2.966   2.296 -0.6669 -1.0341 -1.3229
 5035SOL    MW419908   2.829   2.931   2.258  0.4927 -0.0455 -0.2213
 5036SOL     OW19909   1.897   1.058   0.850  0.2239  0.3551 -0.1251
 5036SOL    HW219910   1.842   1.117   0.901 -1.1208 -0.9512 -0.0044
 5036SOL    HW319911   1.913   0.983   0.908 -1.1599 -1.0582 -1.4713
 5036SOL    MW419912   1.892   1.056   0.864 -0.1361 -0.0037 -0.2868
 5037SOL     OW19913   3.478   1.857   3.816 -0.4811  0.4433 -0.1797
 5037SOL    HW219914   3.534   1.873   3.740  0.1294 -1.1684 -0.1153
 5037SOL    HW319915   3.451   1.765   3.807 -0.8430  0.3867  1.2518
 5037SOL    MW419916   3.482   1.847   3.805 -0.4483  0.2232  0.0176
 5038SOL     OW19917   4.415   4.044   5.074 -0.0464  0.3933  0.3141
 5038SOL    HW219918   4.509   4.025   5.067 -0.4604 -1.7329 -0.2717
 5038SOL    HW319919   4.398   4.049   5.168  0.9112  2.4941  0.4289
 5038SOL    MW419920   4.425   4.042   5.085  0.0253  0.3899  0.2519
 5039SOL     OW19921   2.673   3.319   4.495  0.0525  0.2681  0.0422
 5039SOL    HW219922   2.658   3.267   4.574 -0.8078 -0.4540 -0.5690
 5039SOL    HW319923   2.752   3.282   4.457 -1.5084 -1.9531 -1.3592
 5039SOL    MW419924   2.681   3.307   4.500 -0.2670 -0.1202 -0.2233
 5040SOL     OW19925   5.755   2.585   0.014  0.3854 -0.3101  0.0168
 5040SOL    HW219926   5.746   2.659   0.075  2.0812  0.5709 -0.7496
 5040SOL    HW319927   5.695   2.519   0.049  0.2156  0.7077  1.8123
 5040SOL    MW419928   5.746   2.586   0.027  0.5867 -0.0596  0.1526
 5041SOL     OW19929   1.927   0.757   1.457 -0.4496  0.7260  0.6577
 5041SOL    HW219930   1.883   0.720   1.533 -4.0923 -0.5337 -1.7778
 5041SOL    HW319931   1.988   0.688   1.429 -0.4517  0.4458  1.3280
 5041SOL    MW419932   1.930   0.743   1.463 -0.9305  0.5229  0.4248
 5042SOL     OW19933   5.240   0.269   6.366  0.3459 -0.6828 -0.3642
 5042SOL    HW219934   5.335   0.254   6.362  0.8764  1.5354  1.6744
 5042SOL    HW319935   5.231   0.361   6.393 -2.4057 -0.7812 -0.6606
 5042SOL    MW419936   5.252   0.279   6.369  0.0529 -0.4031 -0.1343
 5043SOL     OW19937   4.676   4.103   4.803 -0.1535 -0.1684  0.0241
 5043SOL    HW219938   4.696   4.092   4.896 -0.3088  1.9058  0.3684
 5043SOL    HW319939   4.589   4.064   4.793  0.2489 -1.2319  0.5294
 5043SOL    MW419940   4.667   4.097   4.814 -0.1209 -0.0350  0.1362
 5044SOL     OW19941   2.403   5.143   1.976  0.2586  0.3471  0.1374
 5044SOL    HW219942   2.469   5.094   2.026  1.4471  0.5193 -1.2032
 5044SOL    HW319943   2.346   5.181   2.043  0.5493 -1.1263  1.2788
 5044SOL    MW419944   2.404   5.142   1.991  0.4538  0.1754  0.1111
 5045SOL     OW19945   5.592   0.001   2.952  0.1346  0.0218 -0.0062
 5045SOL    HW219946   5.523   0.016   3.017  0.4386 -2.6834  1.0710
 5045SOL    HW319947   5.635  -0.080   2.981  1.6513 -0.1468 -2.4558
 5045SOL    MW419948   5.589  -0.008   2.965  0.3748 -0.3573 -0.1873
 5046SOL     OW19949   3.241   2.206   2.855  0.1619 -0.0108  0.2337
 5046SOL    HW219950   3.230   2.290   2.899  0.0357 -0.0661  0.3094
 5046SOL    HW319951   3.237   2.141   2.925  1.2865 -0.0230  0.3103
 5046SOL    MW419952   3.239   2.209   2.870  0.2936 -0.0197  0.2538
 5047SOL     OW19953   0.254   3.296   1.861 -0.3502  0.3937 -0.1172
 5047SOL    HW219954   0.308   3.373   1.879  0.7060 -0.5344  0.9210
 5047SOL    HW319955   0.263   3.281   1.767 -1.5395  2.2036 -0.5529
 5047SOL    MW419956   0.262   3.304   1.851 -0.3678  0.5100 -0.0377
 5048SOL     OW19957   1.913   2.278   3.554  0.1991 -0.0232 -0.2604
 5048SOL    HW219958   1.998   2.285   3.510  0.1726 -1.5776 -0.6185
 5048SOL    HW319959   1.886   2.187   3.540 -1.4389  0.3848  0.0093
 5048SOL    MW419960   1.920   2.267   3.546 -0.0205 -0.1744 -0.2721
 5049SOL     OW19961   3.003   1.753   5.882 -0.2996 -0.3134  0.0130
 5049SOL    HW219962   3.052   1.790   5.955  1.7733 -0.5529 -1.1882
 5049SOL    HW319963   2.933   1.817   5.866  1.4491  1.6552 -0.1686
 5049SOL    MW419964   3.000   1.766   5.890  0.2046 -0.0853 -0.1694
 5050SOL     OW19965   0.516   0.708   3.295 -0.1023  0.0810  0.1429
 5050SOL    HW219966   0.497   0.683   3.386  0.9012  2.5803  1.1294
 5050SOL    HW319967   0.611   0.697   3.287  0.2329  2.4079  0.3189
 5050SOL    MW419968   0.526   0.703   3.306  0.0743  0.7178  0.2963
 5051SOL     OW19969   6.298   3.266   3.554  0.1386 -0.0516 -0.0957
 5051SOL    HW219970   6.269   3.347   3.510 -0.1519 -0.2286 -0.2346
 5051SOL    HW319971   6.331   3.211   3.483 -0.9615 -0.6125 -0.2070
 5051SOL    MW419972   6.298   3.270   3.538 -0.0449 -0.1489 -0.1287
 5052SOL     OW19973   1.209   6.381   2.723 -0.1822 -0.2831  0.2995
 5052SOL    HW219974   1.202   6.313   2.789  2.0847 -0.7935  0.1047
 5052SOL    HW319975   1.239   6.336   2.644  1.7963  0.9407  0.2828
 5052SOL    MW419976   1.212   6.366   2.721  0.3780 -0.1890  0.2716
 5053SOL     OW19977   5.354   2.802   4.521 -0.1262 -0.1460 -0.0298
 5053SOL    HW219978   5.259   2.804   4.513 -0.1806  1.4288  0.6777
 5053SOL    HW319979   5.375   2.708   4.526 -1.6978 -0.5120  0.4647
 5053SOL    MW419980   5.344   2.790   4.521 -0.3407  0.0135  0.1288
 5054SOL     OW19981   1.961   2.235   3.127  0.1171 -0.2113 -0.0766
 5054SOL    HW219982   1.960   2.310   3.187  0.1693 -0.3327  0.0781
 5054SOL    HW319983   1.889   2.179   3.157 -0.0148 -0.1518 -0.2831
 5054SOL    MW419984   1.951   2.237   3.139  0.1066 -0.2195 -0.0834
 5055SOL     OW19985   3.745   4.674   0.975 -0.2805 -0.2167 -0.3389
 5055SOL    HW219986   3.822   4.650   1.026 -0.1337  1.0531  0.0730
 5055SOL    HW319987   3.765   4.645   0.886  0.7860  0.3228 -0.2898
 5055SOL    MW419988   3.758   4.667   0.970 -0.1204  0.0220 -0.2781
 5056SOL     OW19989   2.919   3.392   2.283 -0.0360  0.1537  0.1666
 5056SOL    HW219990   2.957   3.468   2.327  2.2334 -0.3424 -0.7771
 5056SOL    HW319991   2.931   3.320   2.345  1.0693 -0.1017 -0.3302
 5056SOL    MW419992   2.925   3.393   2.297  0.4093  0.0546 -0.0234
 5057SOL     OW19993   4.754   1.010   4.486 -0.1853 -0.3396 -0.0450
 5057SOL    HW219994   4.719   1.019   4.575 -0.4133 -1.2423 -0.0334
 5057SOL    HW319995   4.837   0.964   4.497 -0.2852 -0.5872 -0.3057
 5057SOL    MW419996   4.760   1.005   4.500 -0.2285 -0.4914 -0.0779
 5058SOL     OW19997   5.509   2.968   6.310  0.1334  0.3044  0.2880
 5058SOL    HW219998   5.473   3.052   6.282 -1.3997 -0.5840 -0.6180
 5058SOL    HW319999   5.458   2.903   6.261  1.5964 -1.1446  0.5839
 5058SOL    MW420000   5.497   2.970   6.300  0.1241 -0.0040  0.2075
 5059SOL     OW20001   1.703   6.026   5.172 -0.7112 -0.4055  0.2843
 5059SOL    HW220002   1.780   6.036   5.228 -0.5620  3.1994 -0.3447
 5059SOL    HW320003   1.630   6.057   5.226 -1.3542 -1.3495 -0.0111
 5059SOL    MW420004   1.703   6.031   5.187 -0.7764 -0.0544  0.1623
 5060SOL     OW20005   3.316   3.633   1.788  0.3086  0.2208 -0.5548
 5060SOL    HW220006   3.327   3.728   1.790 -1.4805  0.5143  2.4388
 5060SOL    HW320007   3.405   3.598   1.785  1.0070  1.9602 -1.6364
 5060SOL    MW420008   3.329   3.641   1.788  0.1647  0.4890 -0.3025
 5061SOL     OW20009   5.478   5.332   1.111  0.3367  0.6505 -0.1009
 5061SOL    HW220010   5.480   5.368   1.199  1.2474  2.5911 -0.8588
 5061SOL    HW320011   5.497   5.406   1.054 -1.5450 -0.2378 -2.0418
 5061SOL    MW420012   5.481   5.346   1.115  0.2086  0.7893 -0.4570
 5062SOL     OW20013   3.855   0.316   3.556  0.2150  0.3398  0.1061
 5062SOL    HW220014   3.860   0.264   3.476  1.0619  1.8688 -0.8814
 5062SOL    HW320015   3.765   0.348   3.558  0.0569 -0.0898  0.0389
 5062SOL    MW420016   3.844   0.313   3.546  0.3059  0.4849 -0.0331
 5063SOL     OW20017   5.761   4.238   2.582 -0.1499 -0.4232 -0.4285
 5063SOL    HW220018   5.782   4.196   2.665 -0.7605  0.6840  0.3258
 5063SOL    HW320019   5.829   4.209   2.522  1.0599 -0.2488  0.8058
 5063SOL    MW420020   5.772   4.229   2.585 -0.0709 -0.2541 -0.1661
 5064SOL     OW20021   1.672   3.576   1.727 -0.3648 -0.0007  0.4347
 5064SOL    HW220022   1.682   3.493   1.773 -0.5040 -0.0474  0.3810
 5064SOL    HW320023   1.738   3.633   1.765 -0.3919 -0.0807  0.5996
 5064SOL    MW420024   1.682   3.573   1.738 -0.3867 -0.0174  0.4493
 5065SOL     OW20025   6.240   5.409   6.196 -0.3180 -0.1962 -0.4157
 5065SOL    HW220026   6.322   5.377   6.158 -0.1445 -0.5075  0.2234
 5065SOL    HW320027   6.224   5.352   6.270  0.2578  1.4624  1.0575
 5065SOL    MW420028   6.249   5.398   6.201 -0.2191 -0.0184 -0.1370
 5066SOL     OW20029   3.242   1.256   3.489 -0.2840 -0.4354 -0.1952
 5066SOL    HW220030   3.155   1.216   3.481 -0.7295  0.2669  0.8892
 5066SOL    HW320031   3.283   1.240   3.405 -1.1336 -1.5516 -0.4317
 5066SOL    MW420032   3.236   1.248   3.477 -0.4549 -0.4900 -0.0833
 5067SOL     OW20033   5.415   2.116   1.087  0.4236  0.3037 -0.5308
 5067SOL    HW220034   5.477   2.043   1.092  0.1437  0.1173  2.9808
 5067SOL    HW320035   5.463   2.190   1.124 -0.7685  0.6211  0.4747
 5067SOL    MW420036   5.430   2.116   1.093  0.2294  0.3210  0.0652
 5068SOL     OW20037   4.069   3.041   1.010 -0.2060  0.0512 -0.0913
 5068SOL    HW220038   4.026   3.055   1.094  0.9518  1.0797  0.3468
 5068SOL    HW320039   4.009   2.982   0.963 -0.8614 -0.5800  1.4416
 5068SOL    MW420040   4.055   3.035   1.015 -0.1397  0.1036  0.1687
 5069SOL     OW20041   3.200   4.965   4.850  0.0022 -0.5845 -0.1246
 5069SOL    HW220042   3.182   4.934   4.761  0.9130 -1.2461 -0.0882
 5069SOL    HW320043   3.279   5.018   4.842  0.2375 -0.8601  0.3260
 5069SOL    MW420044   3.208   4.968   4.838  0.1534 -0.7082 -0.0604
 5070SOL     OW20045   2.784   4.342   3.011 -0.0634  0.1835 -0.7245
 5070SOL    HW220046   2.790   4.254   2.975  1.5885  0.2471 -0.7075
 5070SOL    HW320047   2.857   4.347   3.073 -0.7086  1.2593 -0.0134
 5070SOL    MW420048   2.794   4.331   3.015  0.0694  0.3338 -0.6285
 5071SOL     OW20049   5.012   2.239   2.621 -0.0156 -1.0118  0.5019
 5071SOL    HW220050   4.985   2.169   2.561  0.2246 -0.4590 -0.2772
 5071SOL    HW320051   4.931   2.280   2.649 -0.1368 -1.3497  0.6541
 5071SOL    MW420052   4.998   2.235   2.616  0.0001 -0.9835  0.4191
 5072SOL     OW20053   2.848   3.019   6.402 -0.4957 -0.4451  0.1725
 5072SOL    HW220054   2.763   3.030   6.445 -0.1402  1.8010  0.4186
 5072SOL    HW320055   2.911   3.062   6.461 -0.1287  3.7905 -2.8382
 5072SOL    MW420056   2.845   3.026   6.415 -0.4004  0.4101 -0.1922
 5073SOL     OW20057   1.309   3.106   0.322  0.0205 -0.0639  0.4564
 5073SOL    HW220058   1.377   3.170   0.303  1.0602 -1.1931  0.2709
 5073SOL    HW320059   1.323   3.036   0.258 -1.9809  0.1449 -0.2748
 5073SOL    MW420060   1.320   3.105   0.311 -0.1064 -0.1854  0.3355
 5074SOL     OW20061   3.970   4.520   3.284  0.3461 -0.1371 -0.0359
 5074SOL    HW220062   3.929   4.595   3.326 -0.3244 -0.5601  0.0898
 5074SOL    HW320063   3.954   4.447   3.345 -0.7691 -0.7885 -1.0775
 5074SOL    MW420064   3.963   4.520   3.298  0.1105 -0.2788 -0.1567
 5075SOL     OW20065   5.103   1.883   1.156  0.4207 -0.0539 -0.3590
 5075SOL    HW220066   5.133   1.854   1.070 -1.1025 -0.7596 -0.6821
 5075SOL    HW320067   5.183   1.886   1.209  1.0610 -2.1314 -1.0938
 5075SOL    MW420068   5.117   1.880   1.151  0.3042 -0.4211 -0.4986
 5076SOL     OW20069   6.278   3.324   2.633  0.4868  0.8125 -0.3121
 5076SOL    HW220070   6.242   3.236   2.621 -0.5237  1.2030 -0.2560
 5076SOL    HW320071   6.294   3.330   2.727 -0.6769  1.1266 -0.1109
 5076SOL    MW420072   6.275   3.313   2.644  0.1999  0.9055 -0.2782
 5077SOL     OW20073   2.918   5.651   0.459 -0.2507  0.9639 -1.1329
 5077SOL    HW220074   2.895   5.596   0.385 -1.2503  1.8085 -1.4777
 5077SOL    HW320075   2.905   5.594   0.536  1.6260 -0.1834 -1.5974
 5077SOL    MW420076   2.913   5.636   0.460 -0.1350  0.9240 -1.2397
 5078SOL     OW20077   5.758   2.185   2.643 -0.2043 -0.5126 -0.1211
 5078SOL    HW220078   5.729   2.122   2.576 -2.3695  0.2932 -0.0020
 5078SOL    HW320079   5.743   2.271   2.604  1.9357  0.0028  0.0517
 5078SOL    MW420080   5.752   2.188   2.629 -0.2076 -0.3383 -0.0826
 5079SOL     OW20081   4.421   2.352   0.755 -0.2655 -0.3207  0.0436
 5079SOL    HW220082   4.482   2.282   0.733  1.7194  1.2063  0.3908
 5079SOL    HW320083   4.388   2.383   0.671 -0.3067 -0.9346 -0.1690
 5079SOL    MW420084   4.425   2.347   0.741 -0.0091 -0.2002  0.0613
 5080SOL     OW20085   0.234   1.621   3.495 -0.5997  0.3724  0.1903
 5080SOL    HW220086   0.256   1.531   3.472 -0.1861  0.7429 -0.9088
 5080SOL    HW320087   0.284   1.638   3.575  0.0446 -0.0751 -0.1084
 5080SOL    MW420088   0.244   1.612   3.503 -0.4602  0.3622  0.0059
 5081SOL     OW20089   1.940   1.191   0.393 -0.2555 -0.4717  0.2787
 5081SOL    HW220090   1.853   1.224   0.417 -1.0191 -1.5092 -0.8941
 5081SOL    HW320091   1.997   1.219   0.464 -1.4310  0.7473  0.7889
 5081SOL    MW420092   1.936   1.199   0.406 -0.5113 -0.4478  0.1913
 5082SOL     OW20093   2.011   2.233   6.320 -0.1239 -0.6301 -0.3919
 5082SOL    HW220094   1.917   2.251   6.324 -0.4187 -2.0116 -0.5365
 5082SOL    HW320095   2.024   2.160   6.380  1.1464  0.5581  0.8405
 5082SOL    MW420096   2.000   2.226   6.328  0.0048 -0.6556 -0.2484
 5083SOL     OW20097   2.257   3.919   5.959 -0.0472  0.4154  0.2753
 5083SOL    HW220098   2.317   3.981   6.000 -0.2122 -0.0363  1.2244
 5083SOL    HW320099   2.312   3.867   5.900  0.3904  0.3921  0.6973
 5083SOL    MW420100   2.272   3.920   5.956 -0.0112  0.3528  0.4562
 5084SOL     OW20101   2.342   4.454   1.037 -0.5467 -0.2567  0.3779
 5084SOL    HW220102   2.312   4.544   1.044 -1.4256 -0.3127 -1.9174
 5084SOL    HW320103   2.414   4.448   1.101  0.3514  2.3935 -0.2576
 5084SOL    MW420104   2.348   4.465   1.047 -0.5442  0.0856 -0.0088
 5085SOL     OW20105   3.039   3.155   5.817 -0.3941  0.1635  0.1491
 5085SOL    HW220106   3.078   3.229   5.864 -0.5043  0.5514 -0.3732
 5085SOL    HW320107   3.110   3.090   5.811 -0.7036 -0.3959  1.9021
 5085SOL    MW420108   3.054   3.156   5.823 -0.4495  0.1409  0.3115
 5086SOL     OW20109   5.217   4.926   5.295  0.3436 -0.7368  0.1977
 5086SOL    HW220110   5.211   4.839   5.256  1.7162 -0.4005 -0.8348
 5086SOL    HW320111   5.303   4.959   5.268 -0.8975  1.7052 -1.0773
 5086SOL    MW420112   5.228   4.919   5.286  0.3609 -0.3702 -0.1068
 5087SOL     OW20113   5.164   5.629   1.722 -0.2343 -0.0041  0.3017
 5087SOL    HW220114   5.250   5.666   1.738 -1.0264  1.5335  1.2978
 5087SOL    HW320115   5.173   5.581   1.640  1.4846  0.3333  0.2547
 5087SOL    MW420116   5.176   5.627   1.713 -0.1120  0.2433  0.4269
 5088SOL     OW20117   5.132   0.098   3.218  0.6016  0.4581  0.2100
 5088SOL    HW220118   5.061   0.036   3.201  1.0332 -0.2526  0.9700
 5088SOL    HW320119   5.131   0.109   3.313  0.1255  2.1096  0.0503
 5088SOL    MW420120   5.122   0.091   3.229  0.5957  0.5822  0.2892
 5089SOL     OW20121   6.085   6.128   6.257 -0.2113 -0.0751  0.1246
 5089SOL    HW220122   6.172   6.091   6.273 -0.7818 -0.6644  2.0810
 5089SOL    HW320123   6.102   6.218   6.227  1.0658 -0.0673  0.8179
 5089SOL    MW420124   6.099   6.135   6.255 -0.1180 -0.1518  0.4742
 5090SOL     OW20125   3.988   1.107   1.991  0.6168 -0.3738  0.2467
 5090SOL    HW220126   3.912   1.098   1.933  0.2188 -0.3467  0.7533
 5090SOL    HW320127   4.063   1.112   1.932  0.1636  0.2569 -0.2889
 5090SOL    MW420128   3.987   1.106   1.975  0.5045 -0.2870  0.2429
 5091SOL     OW20129   4.986   4.103   5.693  0.0008 -0.0813 -0.3155
 5091SOL    HW220130   5.010   4.075   5.605 -0.0330  1.3320 -0.7982
 5091SOL    HW320131   5.068   4.137   5.730 -0.4086  1.2672 -0.5916
 5091SOL    MW420132   5.000   4.104   5.687 -0.0577  0.2831 -0.4156
 5092SOL     OW20133   4.311   4.143   1.666  0.1818  0.5835 -0.1688
 5092SOL    HW220134   4.373   4.096   1.723  0.5956 -0.9719 -1.8139
 5092SOL    HW320135   4.254   4.190   1.727  0.0493 -1.6831  1.5791
 5092SOL    MW420136   4.312   4.143   1.682  0.2189  0.0792 -0.1553
 5093SOL     OW20137   4.722   3.841   5.554  0.9884  0.1736  0.0619
 5093SOL    HW220138   4.742   3.818   5.645 -0.0977  1.3553  0.6338
 5093SOL    HW320139   4.795   3.806   5.503  0.6655 -2.2292  1.1393
 5093SOL    MW420140   4.734   3.834   5.559  0.8025  0.0125  0.2795
 5094SOL     OW20141   1.917   3.089   1.314  0.0455 -0.2814  0.0512
 5094SOL    HW220142   1.932   3.063   1.223  0.9032 -1.6297  0.5531
 5094SOL    HW320143   1.892   3.182   1.308 -0.0008 -0.3653 -1.5554
 5094SOL    MW420144   1.916   3.098   1.301  0.1526 -0.4704 -0.0945
 5095SOL     OW20145   3.582   1.179   5.282  0.0274  0.3535 -0.0978
 5095SOL    HW220146   3.645   1.248   5.301  0.3261 -0.0677  0.4601
 5095SOL    HW320147   3.633   1.110   5.239 -0.1078  0.1361  0.0845
 5095SOL    MW420148   3.597   1.179   5.279  0.0490  0.2692 -0.0002
 5096SOL     OW20149   5.979   0.507   4.504 -0.1430  0.4515 -0.4237
 5096SOL    HW220150   5.935   0.522   4.588  1.4121 -1.2244  0.7438
 5096SOL    HW320151   6.058   0.458   4.526  0.5695  0.3911 -2.8337
 5096SOL    MW420152   5.983   0.503   4.518  0.1561  0.2224 -0.5876
 5097SOL     OW20153   4.481   4.843   5.904 -0.2205  0.2047  0.0381
 5097SOL    HW220154   4.433   4.777   5.954 -1.1005  0.2591 -0.6998
 5097SOL    HW320155   4.421   4.918   5.901 -0.1682  0.2197 -1.0336
 5097SOL    MW420156   4.466   4.844   5.910 -0.3297  0.2139 -0.2006
 5098SOL     OW20157   2.568   0.775   3.192 -0.2294 -0.2406  0.1889
 5098SOL    HW220158   2.546   0.827   3.115  1.3269  0.2972  0.0613
 5098SOL    HW320159   2.485   0.763   3.237 -1.3679 -1.5123 -2.1035
 5098SOL    MW420160   2.554   0.781   3.188 -0.1743 -0.3374 -0.1304
 5099SOL     OW20161   3.348   3.475   2.305  0.0423 -0.3534  0.2504
 5099SOL    HW220162   3.303   3.541   2.358 -0.5120 -0.3610 -0.2049
 5099SOL    HW320163   3.316   3.391   2.339  1.0481 -0.4183  1.0990
 5099SOL    MW420164   3.338   3.473   2.316  0.1018 -0.3630  0.3023
 5100SOL     OW20165   3.998   0.811   3.187 -0.0114 -0.1528  0.7108
 5100SOL    HW220166   3.934   0.842   3.123  1.0200  0.5502 -0.0019
 5100SOL    HW320167   3.953   0.819   3.271 -1.4329 -1.1911  0.1034
 5100SOL    MW420168   3.983   0.816   3.189 -0.0628 -0.1970  0.5366
 5101SOL     OW20169   4.607   4.371   4.787 -0.2906  0.2812  0.3481
 5101SOL    HW220170   4.619   4.277   4.776  1.2859  0.5673 -0.7156
 5101SOL    HW320171   4.581   4.402   4.701  0.1403  0.9321  0.4436
 5101SOL    MW420172   4.606   4.363   4.774 -0.0258  0.4048  0.2204
 5102SOL     OW20173   1.703   2.771   2.983  0.0935 -0.1432 -0.2718
 5102SOL    HW220174   1.783   2.727   3.012 -0.1545 -0.1391  0.4293
 5102SOL    HW320175   1.633   2.711   3.008 -0.1403 -0.0361 -0.6713
 5102SOL    MW420176   1.704   2.757   2.990  0.0299 -0.1286 -0.2320
 5103SOL     OW20177   1.935   1.623   3.943 -0.3206  0.2602 -0.1073
 5103SOL    HW220178   1.997   1.627   3.871 -1.4193 -0.1738 -1.1184
 5103SOL    HW320179   1.854   1.591   3.903 -0.9467 -0.0411  1.3291
 5103SOL    MW420180   1.932   1.619   3.928 -0.5482  0.1632 -0.0512
 5104SOL     OW20181   5.238   2.063   4.828 -0.5429  0.4014 -0.5745
 5104SOL    HW220182   5.183   2.092   4.901 -1.0932 -0.3156 -0.6969
 5104SOL    HW320183   5.317   2.028   4.870  0.0401  1.8312 -0.4159
 5104SOL    MW420184   5.241   2.063   4.843 -0.5386  0.4955 -0.5697
 5105SOL     OW20185   2.853   3.700   1.609  0.3405 -0.2130 -0.6717
 5105SOL    HW220186   2.793   3.775   1.601  0.7487  0.4870  1.9617
 5105SOL    HW320187   2.830   3.660   1.692  1.6574 -1.6832 -0.9710
 5105SOL    MW420188   2.842   3.705   1.619  0.5681 -0.3146 -0.3638
 5106SOL     OW20189   0.243   3.082   6.384  0.0890  0.5926  0.9698
 5106SOL    HW220190   0.230   2.989   6.369 -1.2043  0.3399  3.1416
 5106SOL    HW320191   0.196   3.125   6.313  0.2751 -0.3907  0.2323
 5106SOL    MW420192   0.235   3.075   6.373 -0.0571  0.4295  1.1591
 5107SOL     OW20193   0.469   5.444   6.220 -0.2928 -0.1689  0.2045
 5107SOL    HW220194   0.420   5.425   6.140 -0.7835  2.8386 -0.3492
 5107SOL    HW320195   0.558   5.414   6.201  0.2816  2.7532 -2.6589
 5107SOL    MW420196   0.474   5.438   6.207 -0.2818  0.6135 -0.2464
 5108SOL     OW20197   1.294   2.633   5.331  0.1522  0.7703 -0.0578
 5108SOL    HW220198   1.252   2.571   5.271  1.1533  0.3431 -0.3341
 5108SOL    HW320199   1.222   2.684   5.367 -0.9809 -1.7498  1.5719
 5108SOL    MW420200   1.279   2.631   5.328  0.1348  0.3814  0.1207
 5109SOL     OW20201   1.087   4.538   0.603 -0.5968  0.3402  0.7296
 5109SOL    HW220202   1.051   4.560   0.517  1.1949  1.5571  0.2261
 5109SOL    HW320203   1.014   4.549   0.664 -1.4134  1.4023 -0.4000
 5109SOL    MW420204   1.073   4.542   0.600 -0.4682  0.6409  0.5141
 5110SOL     OW20205   4.349   5.533   1.669  0.3933  0.5123 -0.0279
 5110SOL    HW220206   4.377   5.624   1.656  0.4099  0.3584 -1.1069
 5110SOL    HW320207   4.256   5.540   1.691  0.6199  0.8459  0.8752
 5110SOL    MW420208   4.340   5.546   1.670  0.4254  0.5360 -0.0511
 5111SOL     OW20209   4.462   2.074   0.550 -0.1350  0.4611 -0.8926
 5111SOL    HW220210   4.532   2.126   0.510 -0.1574  1.1451 -0.0795
 5111SOL    HW320211   4.397   2.063   0.481 -0.3873  2.0126 -0.9527
 5111SOL    MW420212   4.463   2.079   0.536 -0.1713  0.7561 -0.7932
 5112SOL     OW20213   4.757   1.502   3.573  0.4295  0.1651 -0.4205
 5112SOL    HW220214   4.677   1.478   3.620 -0.2550 -0.0142 -1.6115
 5112SOL    HW320215   4.778   1.589   3.605  0.9187 -0.5728  1.3698
 5112SOL    MW420216   4.749   1.510   3.583  0.4038  0.0441 -0.3415
 5113SOL     OW20217   2.729   0.619   2.117 -0.0262  0.1824 -0.1417
 5113SOL    HW220218   2.718   0.657   2.030  1.1565  0.8484 -0.0235
 5113SOL    HW320219   2.733   0.525   2.102  2.1524  0.3692 -1.0893
 5113SOL    MW420220   2.728   0.611   2.104  0.4173  0.2949 -0.2511
 5114SOL     OW20221   4.954   1.331   3.613  0.0081 -0.4575 -0.2412
 5114SOL    HW220222   4.883   1.395   3.609  0.3653  0.1254  1.8292
 5114SOL    HW320223   4.934   1.278   3.690  1.9477 -0.1080  0.5352
 5114SOL    MW420224   4.942   1.332   3.623  0.3112 -0.3345  0.1344
 5115SOL     OW20225   2.403   1.332   4.195  0.8379  0.0735  0.3185
 5115SOL    HW220226   2.362   1.404   4.243 -1.5555 -1.1556  0.3015
 5115SOL    HW320227   2.442   1.277   4.263 -1.2547 -0.8814  0.8560
 5115SOL    MW420228   2.402   1.334   4.211  0.2461 -0.2147  0.3872
 5116SOL     OW20229   3.080   4.398   5.154  0.2942 -0.6787  0.4197
 5116SOL    HW220230   3.077   4.302   5.152  1.4101 -0.7355  0.4722
 5116SOL    HW320231   3.172   4.418   5.174 -0.1612  0.3878  1.5765
 5116SOL    MW420232   3.092   4.388   5.156  0.3814 -0.5455  0.5792
 5117SOL     OW20233   3.994   4.959   5.025 -0.3934  0.8005 -0.4759
 5117SOL    HW220234   3.922   4.937   5.084  1.6494 -1.2719  1.4371
 5117SOL    HW320235   4.033   5.038   5.062  0.0145  0.3130  0.1504
 5117SOL    MW420236   3.990   4.966   5.038 -0.0701  0.4627 -0.1409
 5118SOL     OW20237   2.415   4.908   3.341  0.5942 -0.2188 -0.1259
 5118SOL    HW220238   2.454   4.969   3.279 -0.6550  0.0546 -0.6723
 5118SOL    HW320239   2.444   4.821   3.311  0.8970 -0.0176 -0.4206
 5118SOL    MW420240   2.424   4.904   3.329  0.4693 -0.1562 -0.2369
 5119SOL     OW20241   0.796   0.526   5.587 -0.4569  0.2035  0.4917
 5119SOL    HW220242   0.740   0.604   5.588  0.5523  0.9394  1.5557
 5119SOL    HW320243   0.808   0.505   5.680 -0.8349 -1.3328  0.2241
 5119SOL    MW420244   0.790   0.533   5.600 -0.3736  0.0979  0.5968
 5120SOL     OW20245   5.077   3.153   3.185 -0.5833  0.2624  0.1074
 5120SOL    HW220246   5.050   3.182   3.272 -3.9554 -2.1770  0.0409
 5120SOL    HW320247   5.010   3.187   3.126 -0.1971 -0.9241 -1.0618
 5120SOL    MW420248   5.065   3.161   3.189 -0.9773 -0.2160 -0.0556
 5121SOL     OW20249   2.489   3.563   5.947 -0.2167 -0.0301 -0.2056
 5121SOL    HW220250   2.433   3.628   5.904  0.4251  1.6378  1.3651
 5121SOL    HW320251   2.504   3.497   5.879 -1.3400  1.1623 -1.7045
 5121SOL    MW420252   2.483   3.563   5.932 -0.2802  0.3473 -0.1961
 5122SOL     OW20253   4.084   2.122   5.394 -0.3095  0.5237 -0.3601
 5122SOL    HW220254   4.115   2.136   5.484 -1.0550  1.0233 -0.1683
 5122SOL    HW320255   4.019   2.052   5.403 -0.7114  0.8832 -0.4336
 5122SOL    MW420256   4.079   2.114   5.407 -0.4609  0.6371 -0.3445
 5123SOL     OW20257   3.470   2.047   1.593  0.0161 -0.1208  0.4301
 5123SOL    HW220258   3.377   2.066   1.582  0.2365  0.9130  0.2447
 5123SOL    HW320259   3.482   2.037   1.687 -0.2411 -0.0072  0.4743
 5123SOL    MW420260   3.460   2.048   1.604  0.0112  0.0306  0.4115
 5124SOL     OW20261   0.116   5.794   2.371  0.0831 -0.0743 -0.3033
 5124SOL    HW220262   0.199   5.839   2.357  1.4270 -2.4758 -0.6463
 5124SOL    HW320263   0.086   5.773   2.282 -2.0218  2.5223 -0.3176
 5124SOL    MW420264   0.123   5.797   2.357 -0.0173 -0.0485 -0.3505
 5125SOL     OW20265   1.655   5.039   3.845  0.1130  0.2658  0.4106
 5125SOL    HW220266   1.667   4.996   3.760 -1.7431 -0.9328  0.6853
 5125SOL    HW320267   1.681   5.130   3.830  1.8211 -0.3927 -0.8634
 5125SOL    MW420268   1.660   5.045   3.832  0.0935  0.0208  0.2788
 5126SOL     OW20269   2.920   3.321   0.440  0.2126 -0.0622 -0.2941
 5126SOL    HW220270   2.896   3.373   0.363  2.8274 -0.0905 -1.2384
 5126SOL    HW320271   2.867   3.242   0.433  0.8636 -0.3858 -2.5265
 5126SOL    MW420272   2.910   3.318   0.429  0.6434 -0.1087 -0.7132
 5127SOL     OW20273   4.401   5.215   0.923 -0.0395 -0.4965  0.0421
 5127SOL    HW220274   4.473   5.169   0.880 -0.5698 -1.7527  0.4535
 5127SOL    HW320275   4.342   5.146   0.954  0.2055  0.3202  2.6111
 5127SOL    MW420276   4.402   5.200   0.921 -0.0771 -0.5545  0.4353
 5128SOL     OW20277   6.223   3.868   4.853  0.4836  0.2480  0.0450
 5128SOL    HW220278   6.245   3.840   4.942 -0.2308 -0.4467  0.0163
 5128SOL    HW320279   6.180   3.953   4.864  0.0475 -0.0141  0.4114
 5128SOL    MW420280   6.220   3.875   4.866  0.3318  0.1218  0.0895
 5129SOL     OW20281   3.906   5.912   0.722 -0.2270  0.2596 -0.1540
 5129SOL    HW220282   3.874   5.944   0.637  0.4120  1.8282  0.1635
 5129SOL    HW320283   3.990   5.872   0.702 -0.4760 -0.1638 -0.3784
 5129SOL    MW420284   3.913   5.911   0.708 -0.1756  0.4107 -0.1417
 5130SOL     OW20285   6.043   1.560   4.026 -0.0908  0.4854  0.6025
 5130SOL    HW220286   6.113   1.597   3.972 -2.1601  1.2943 -1.7524
 5130SOL    HW320287   6.027   1.627   4.093 -0.0134  1.2941 -0.1645
 5130SOL    MW420288   6.050   1.574   4.028 -0.3536  0.6988  0.1906
 5131SOL     OW20289   2.864   4.202   3.408  0.3608  0.3725 -0.0990
 5131SOL    HW220290   2.800   4.271   3.428 -1.1511 -1.0727  0.2733
 5131SOL    HW320291   2.842   4.131   3.469  2.5364 -0.0810  0.2424
 5131SOL    MW420292   2.853   4.202   3.419  0.4484  0.1220 -0.0048
 5132SOL     OW20293   3.086   4.064   3.356  0.1740  0.2227  0.0616
 5132SOL    HW220294   3.004   4.115   3.355  2.0035  3.4454  0.8842
 5132SOL    HW320295   3.081   4.013   3.437 -1.6333 -0.8515 -0.6664
 5132SOL    MW420296   3.074   4.064   3.367  0.1769  0.5062  0.0741
 5133SOL     OW20297   4.115   1.724   1.374 -0.1952  0.1130  0.0394
 5133SOL    HW220298   4.159   1.796   1.328  0.9487  0.0585  0.9747
 5133SOL    HW320299   4.137   1.738   1.467 -1.1669 -0.6264  0.4018
 5133SOL    MW420300   4.124   1.735   1.381 -0.1725  0.0082  0.2106
 5134SOL     OW20301   4.536   4.964   5.322  0.1864  0.3817 -0.4038
 5134SOL    HW220302   4.521   4.873   5.296  0.7816 -0.3156  1.5458
 5134SOL    HW320303   4.457   5.010   5.292 -0.6788 -1.0018 -0.3632
 5134SOL    MW420304   4.524   4.958   5.315  0.1507  0.1072 -0.1412
 5135SOL     OW20305   3.066   2.630   1.729  0.1605 -0.2891 -0.4113
 5135SOL    HW220306   3.100   2.707   1.685 -0.8852  1.2825  1.3642
 5135SOL    HW320307   3.144   2.578   1.749  1.0945  1.1302 -0.1865
 5135SOL    MW420308   3.081   2.633   1.726  0.1458  0.1055 -0.1474
 5136SOL     OW20309   2.474   5.910   3.593 -0.4163  1.0290  0.1405
 5136SOL    HW220310   2.413   5.976   3.626 -0.7282  0.0832  1.5778
 5136SOL    HW320311   2.425   5.827   3.601  0.0488  0.5896 -1.3679
 5136SOL    MW420312   2.459   5.907   3.599 -0.3961  0.8462  0.1311
 5137SOL     OW20313   4.566   2.059   1.624 -0.0491  0.1480  0.3031
 5137SOL    HW220314   4.519   2.036   1.543 -0.4832  1.1195  0.2620
 5137SOL    HW320315   4.600   1.976   1.656  2.3729 -0.0027 -2.2391
 5137SOL    MW420316   4.564   2.045   1.617  0.2132  0.2563 -0.0378
 5138SOL     OW20317   6.013   1.968   5.871 -0.2218 -0.2486  0.1680
 5138SOL    HW220318   6.072   1.975   5.795 -0.2205  0.4111  0.2201
 5138SOL    HW320319   6.063   2.005   5.943  0.9067 -3.4455  1.1996
 5138SOL    MW420320   6.028   1.974   5.870 -0.0728 -0.5834  0.3110
 5139SOL     OW20321   6.195   5.918   5.471 -0.2802  0.3140  0.0046
 5139SOL    HW220322   6.288   5.937   5.456  0.1490 -0.8042  1.0250
 5139SOL    HW320323   6.189   5.907   5.566 -0.9887 -1.8102 -0.2295
 5139SOL    MW420324   6.207   5.919   5.482 -0.3171 -0.1138  0.1083
 5140SOL     OW20325   4.606   2.114   0.990 -0.3175  0.2420 -0.2833
 5140SOL    HW220326   4.631   2.136   0.901 -1.1567  1.5315 -0.2266
 5140SOL    HW320327   4.689   2.102   1.036  0.1228 -0.1737 -1.1548
 5140SOL    MW420328   4.620   2.115   0.985 -0.3701  0.3573 -0.3908
 5141SOL     OW20329   4.137   1.331   2.488  0.2269 -0.2819  0.0620
 5141SOL    HW220330   4.164   1.308   2.399  1.5935 -0.4010  0.4813
 5141SOL    HW320331   4.130   1.426   2.487  1.5172 -0.1726  0.1474
 5141SOL    MW420332   4.139   1.340   2.476  0.5775 -0.2832  0.1286
 5142SOL     OW20333   3.352   1.164   3.755  0.1767  0.0392 -0.0922
 5142SOL    HW220334   3.392   1.081   3.730 -0.6056 -0.4425  0.2243
 5142SOL    HW320335   3.335   1.209   3.672  2.8185  0.9826 -0.2112
 5142SOL    MW420336   3.355   1.159   3.741  0.4220  0.1001 -0.0661
 5143SOL     OW20337   1.531   0.256   0.279 -0.0039  0.0136  0.3333
 5143SOL    HW220338   1.515   0.162   0.273 -1.0324  0.2408 -1.5936
 5143SOL    HW320339   1.623   0.267   0.257 -0.1810 -0.4965 -0.7650
 5143SOL    MW420340   1.541   0.245   0.275 -0.1630 -0.0237 -0.0659
 5144SOL     OW20341   1.174   0.776   1.625 -0.0108  0.0386 -0.1017
 5144SOL    HW220342   1.156   0.754   1.716  1.0789  3.8651  1.2157
 5144SOL    HW320343   1.246   0.717   1.600 -2.3253 -3.2027  0.3390
 5144SOL    MW420344   1.181   0.765   1.634 -0.1724  0.1158  0.1303
 5145SOL     OW20345   4.669   0.323   2.172  0.3115  0.5897 -0.6381
 5145SOL    HW220346   4.761   0.298   2.176 -0.0020 -0.5008  0.2010
 5145SOL    HW320347   4.653   0.370   2.254 -0.1455 -0.1926 -0.2747
 5145SOL    MW420348   4.679   0.326   2.183  0.2098  0.3426 -0.4795
 5146SOL     OW20349   3.021   2.707   3.798  0.0134  0.2359  0.1411
 5146SOL    HW220350   3.037   2.696   3.705 -1.3457  1.4282 -0.2810
 5146SOL    HW320351   2.949   2.647   3.818 -0.0715  0.3801  0.2800
 5146SOL    MW420352   3.014   2.698   3.788 -0.1771  0.4122  0.1037
 5147SOL     OW20353   0.059   3.208   3.282  0.0939  0.3244  0.5084
 5147SOL    HW220354   0.013   3.127   3.304 -1.3357  0.9726 -0.0272
 5147SOL    HW320355   0.122   3.220   3.354  0.3228 -1.2368  0.5959
 5147SOL    MW420356   0.061   3.199   3.295 -0.0645  0.2039  0.4493
 5148SOL     OW20357   3.215   6.222   3.555  0.2487 -0.0935  0.2057
 5148SOL    HW220358   3.247   6.246   3.468  3.1365 -1.7148  0.6860
 5148SOL    HW320359   3.194   6.128   3.549  2.0483 -0.6471  1.5771
 5148SOL    MW420360   3.216   6.212   3.543  0.8671 -0.3805  0.4500
 5149SOL     OW20361   2.565   3.082   4.343  0.5013 -0.4170 -0.1995
 5149SOL    HW220362   2.622   3.007   4.325  0.1484 -0.4792 -1.0870
 5149SOL    HW320363   2.624   3.150   4.375  0.6273 -1.6380  2.5043
 5149SOL    MW420364   2.580   3.081   4.345  0.4714 -0.5863  0.0402
 5150SOL     OW20365   5.734   5.280   1.477 -0.7420  0.3656  0.6538
 5150SOL    HW220366   5.697   5.194   1.455 -0.4008  0.5185 -0.6115
 5150SOL    HW320367   5.753   5.275   1.571  1.6082 -1.8652  0.1747
 5150SOL    MW420368   5.732   5.268   1.486 -0.3869  0.0915  0.4236
 5151SOL     OW20369   2.976   4.844   5.269  0.2771  0.0736 -0.1579
 5151SOL    HW220370   3.019   4.869   5.351  2.1994 -1.5285 -0.5996
 5151SOL    HW320371   3.016   4.899   5.202 -0.6572  0.7571 -0.1792
 5151SOL    MW420372   2.987   4.854   5.271  0.4075 -0.0476 -0.2190
 5152SOL     OW20373   1.682   3.784   3.197  0.1763  0.3082 -0.1184
 5152SOL    HW220374   1.628   3.810   3.122  0.4340  0.4973 -0.2415
 5152SOL    HW320375   1.731   3.863   3.220 -0.6303  0.5302  0.8834
 5152SOL    MW420376   1.682   3.798   3.190  0.1039  0.3624 -0.0024
 5153SOL     OW20377   5.875   3.770   5.985  0.3128  0.3032  0.1075
 5153SOL    HW220378   5.955   3.816   6.012 -0.2314  1.2389  0.1991
 5153SOL    HW320379   5.892   3.745   5.894 -0.1301  2.5777 -0.6774
 5153SOL    MW420380   5.888   3.773   5.977  0.1826  0.7267  0.0160
 5154SOL     OW20381   5.830   4.707   5.210  0.5992 -0.3198  0.1015
 5154SOL    HW220382   5.750   4.707   5.157  0.8159 -0.6816 -0.2300
 5154SOL    HW320383   5.826   4.789   5.260 -1.3123 -1.5656  2.1452
 5154SOL    MW420384   5.819   4.718   5.209  0.3756 -0.5319  0.3274
 5155SOL     OW20385   1.661   1.640   5.123  0.2053  0.1579 -0.2320
 5155SOL    HW220386   1.640   1.664   5.033  1.9070  2.2364 -0.1443
 5155SOL    HW320387   1.658   1.722   5.172 -2.8593 -1.1742  2.1836
 5155SOL    MW420388   1.658   1.654   5.118  0.0255  0.2563  0.0983
 5156SOL     OW20389   4.281   5.813   3.203 -0.7044  0.6698 -0.0854
 5156SOL    HW220390   4.285   5.857   3.118  1.3032  2.5419  0.8912
 5156SOL    HW320391   4.220   5.866   3.254  0.8538  1.7130  0.7407
 5156SOL    MW420392   4.273   5.826   3.198 -0.2339  1.0544  0.1524
 5157SOL     OW20393   4.713   2.640   5.624 -0.1386  0.7329 -0.4631
 5157SOL    HW220394   4.807   2.629   5.637 -0.3254  0.9364  1.2332
 5157SOL    HW320395   4.702   2.735   5.613 -0.1772  0.7352 -0.4019
 5157SOL    MW420396   4.724   2.651   5.624 -0.1684  0.7601 -0.2312
 5158SOL     OW20397   5.368   1.963   6.010 -0.0256  0.3551  0.2657
 5158SOL    HW220398   5.386   1.974   5.916  1.0336 -1.5649  0.2118
 5158SOL    HW320399   5.299   1.898   6.014 -0.2997  0.6731  0.8241
 5158SOL    MW420400   5.362   1.956   5.998  0.0780  0.1437  0.3322
 5159SOL     OW20401   3.217   2.077   1.533 -0.0149 -0.0951 -0.6931
 5159SOL    HW220402   3.163   2.131   1.590  1.3130 -0.7794  1.3169
 5159SOL    HW320403   3.154   2.024   1.484 -1.2273 -0.5219  1.2102
 5159SOL    MW420404   3.202   2.077   1.534  0.0004 -0.2417 -0.1768
 5160SOL     OW20405   5.567   5.040   4.354 -0.2110  0.4353 -0.2692
 5160SOL    HW220406   5.515   5.089   4.290 -0.8560 -0.4811 -0.4577
 5160SOL    HW320407   5.618   5.108   4.399 -1.9023  1.4192  0.2500
 5160SOL    MW420408   5.567   5.056   4.351 -0.5193  0.4442 -0.2256
 5161SOL     OW20409   4.259   2.633   3.651 -0.4306  0.0583  1.1100
 5161SOL    HW220410   4.165   2.635   3.669 -1.2335  0.5576 -2.3674
 5161SOL    HW320411   4.300   2.662   3.732 -3.4702  3.0251  1.7866
 5161SOL    MW420412   4.252   2.637   3.664 -0.9376  0.5156  0.7405
 5162SOL     OW20413   0.110   4.851   3.933  0.2130  0.4216 -0.0515
 5162SOL    HW220414   0.111   4.755   3.938  0.9876  0.4506  0.4003
 5162SOL    HW320415   0.098   4.870   3.840  1.1271 -0.1148 -0.2885
 5162SOL    MW420416   0.108   4.841   3.921  0.4358  0.3547 -0.0232
 5163SOL     OW20417   2.558   4.566   0.073 -0.3180 -0.6760 -0.1638
 5163SOL    HW220418   2.523   4.581  -0.014  1.9191 -3.3494 -1.7007
 5163SOL    HW320419   2.653   4.580   0.064 -0.2626  2.1707  2.7424
 5163SOL    MW420420   2.566   4.570   0.061 -0.0155 -0.6531  0.0169
 5164SOL     OW20421   4.766   1.635   2.874 -0.0118  0.1861  0.1121
 5164SOL    HW220422   4.794   1.720   2.840  1.4032 -0.5746 -0.7055
 5164SOL    HW320423   4.844   1.599   2.916 -0.4684 -0.9066  0.0565
 5164SOL    MW420424   4.780   1.642   2.875  0.1147 -0.0584 -0.0031
 5165SOL     OW20425   1.249   6.131   5.971  0.0873  0.3423 -0.0730
 5165SOL    HW220426   1.250   6.044   5.932 -0.9603 -0.5350  1.7348
 5165SOL    HW320427   1.164   6.137   6.016  0.4608  1.9820  0.5064
 5165SOL    MW420428   1.238   6.120   5.972 -0.0016  0.4429  0.2420
 5166SOL     OW20429   5.426   3.968   6.263  0.7044 -0.1046  0.1264
 5166SOL    HW220430   5.490   4.027   6.303  0.4264  0.2720  0.0217
 5166SOL    HW320431   5.464   3.945   6.179 -1.0242  3.3318 -1.8169
 5166SOL    MW420432   5.439   3.973   6.257  0.4397  0.3985 -0.1438
 5167SOL     OW20433   3.277   1.017   1.671 -0.1080 -0.2043 -0.4758
 5167SOL    HW220434   3.192   1.054   1.646  0.7067  1.0641 -1.4841
 5167SOL    HW320435   3.254   0.938   1.720 -1.8800  0.4600 -0.1287
 5167SOL    MW420436   3.262   1.012   1.674 -0.2343  0.0507 -0.5630
 5168SOL     OW20437   1.291   3.603   5.122  0.0823  0.7155  0.0699
 5168SOL    HW220438   1.338   3.662   5.182  0.6726 -0.2443  0.5724
 5168SOL    HW320439   1.356   3.578   5.056  0.6568 -1.4553  1.3606
 5168SOL    MW420440   1.306   3.608   5.121  0.2360  0.3025  0.3065
 5169SOL     OW20441   1.465   6.387   4.371  0.1319 -0.2097 -0.3552
 5169SOL    HW220442   1.451   6.318   4.436 -0.9600  2.0299  2.0235
 5169SOL    HW320443   1.403   6.368   4.301 -1.4900 -0.6580  1.1470
 5169SOL    MW420444   1.455   6.376   4.371 -0.2262  0.0266  0.1568
 5170SOL     OW20445   1.006   6.070   3.716 -0.0180  0.3326  0.0591
 5170SOL    HW220446   1.016   6.015   3.794 -0.6427 -0.0801 -0.1440
 5170SOL    HW320447   1.034   6.157   3.744  1.2633 -0.1409  0.3083
 5170SOL    MW420448   1.011   6.074   3.730  0.0687  0.2157  0.0652
 5171SOL     OW20449   5.662   2.058   5.231  0.3074  0.4164 -0.5990
 5171SOL    HW220450   5.614   2.101   5.302 -1.1084 -1.2557 -0.4792
 5171SOL    HW320451   5.749   2.098   5.234 -0.5160  2.2708  0.3419
 5171SOL    MW420452   5.667   2.069   5.241  0.0120  0.4405 -0.4591
 5172SOL     OW20453   4.920   1.732   5.751  0.1421  0.0556 -0.0227
 5172SOL    HW220454   4.834   1.694   5.731 -0.7376  0.6298  2.3432
 5172SOL    HW320455   4.981   1.685   5.694 -1.3325 -2.5903  0.4151
 5172SOL    MW420456   4.917   1.721   5.741 -0.1685 -0.2177  0.3472
 5173SOL     OW20457   0.479   4.484   5.115  0.4388 -0.2914 -0.2697
 5173SOL    HW220458   0.425   4.533   5.177  0.2870 -0.4927 -0.2434
 5173SOL    HW320459   0.547   4.443   5.168  1.8724  1.6132 -0.5196
 5173SOL    MW420460   0.481   4.485   5.130  0.6079 -0.0667 -0.2992
 5174SOL     OW20461   4.230   2.041   5.053 -0.0686  0.3892 -0.7264
 5174SOL    HW220462   4.209   2.132   5.074  0.1732  0.1014  0.9145
 5174SOL    HW320463   4.146   2.001   5.032 -0.7601  0.1818  2.0299
 5174SOL    MW420464   4.216   2.048   5.053 -0.1279  0.3239 -0.1462
 5175SOL     OW20465   5.106   6.300   4.916  0.0175 -0.5460 -0.0015
 5175SOL    HW220466   5.155   6.219   4.905  0.0266 -0.4413 -0.8447
 5175SOL    HW320467   5.114   6.344   4.831 -0.3006  0.1577  0.3253
 5175SOL    MW420468   5.113   6.295   4.903 -0.0233 -0.4393 -0.0696
 5176SOL     OW20469   5.922   4.329   0.339 -0.2236  0.3088  0.8225
 5176SOL    HW220470   5.847   4.296   0.389 -0.1841  1.0675  1.4027
 5176SOL    HW320471   5.904   4.422   0.327  0.5939  0.4934  0.9284
 5176SOL    MW420472   5.910   4.337   0.344 -0.1105  0.4333  0.9130
 5177SOL     OW20473   2.930   5.383   2.031  0.5918 -0.1136 -0.0714
 5177SOL    HW220474   2.922   5.476   2.050  1.0244 -0.1296  0.2276
 5177SOL    HW320475   2.864   5.341   2.087  0.2699  0.0269 -0.3447
 5177SOL    MW420476   2.921   5.390   2.041  0.6064 -0.0972 -0.0680
 5178SOL     OW20477   3.043   4.699   3.141  0.2394  0.7231 -0.2411
 5178SOL    HW220478   3.137   4.684   3.153 -0.1731 -1.0504  1.2006
 5178SOL    HW320479   3.020   4.642   3.067  0.0717  0.0434  0.3187
 5178SOL    MW420480   3.053   4.689   3.133  0.1628  0.3994  0.0229
 5179SOL     OW20481   1.727   0.651   6.141  0.3052  0.2710 -0.4021
 5179SOL    HW220482   1.763   0.596   6.071 -1.2388  0.4670 -1.3976
 5179SOL    HW320483   1.804   0.687   6.184  1.3378  0.5277 -2.3236
 5179SOL    MW420484   1.742   0.649   6.137  0.2378  0.3307 -0.7870
 5180SOL     OW20485   0.260   0.746   4.670  0.1716  0.3483  0.0072
 5180SOL    HW220486   0.210   0.681   4.720 -1.4347  0.5373 -1.2625
 5180SOL    HW320487   0.342   0.701   4.648 -0.6816 -1.0782 -0.3930
 5180SOL    MW420488   0.264   0.731   4.674 -0.1529  0.1850 -0.2132
 5181SOL     OW20489   3.477   1.513   1.082  0.1599 -0.1871 -0.4575
 5181SOL    HW220490   3.513   1.577   1.020 -1.3283  0.0215 -1.1407
 5181SOL    HW320491   3.534   1.437   1.073 -0.8047 -0.7089 -3.1758
 5181SOL    MW420492   3.490   1.512   1.073 -0.1637 -0.2284 -0.9063
 5182SOL     OW20493   4.146   3.826   2.858 -0.1042  0.9357 -0.0113
 5182SOL    HW220494   4.105   3.830   2.945 -0.5781 -0.1509 -0.1696
 5182SOL    HW320495   4.084   3.776   2.805  0.3858  1.2225 -0.8688
 5182SOL    MW420496   4.132   3.820   2.863 -0.1021  0.8302 -0.1453
 5183SOL     OW20497   1.315   0.138   0.553 -0.2344 -0.1456 -0.3640
 5183SOL    HW220498   1.305   0.185   0.636 -0.2129 -0.1042 -0.3847
 5183SOL    HW320499   1.226   0.130   0.519 -0.0115  2.7566 -1.9486
 5183SOL    MW420500   1.302   0.143   0.559 -0.2022  0.2428 -0.5758
 5184SOL     OW20501   6.188   3.230   4.705 -0.2114 -0.3316  0.3194
 5184SOL    HW220502   6.097   3.224   4.675  0.5894 -0.3259 -2.3186
 5184SOL    HW320503   6.208   3.323   4.704  0.5983 -0.4787 -1.8226
 5184SOL    MW420504   6.178   3.241   4.701  0.0011 -0.3503 -0.3112
 5185SOL     OW20505   2.482   1.546   1.016  0.3208  0.9106 -0.0346
 5185SOL    HW220506   2.494   1.629   1.062 -1.2935  0.8359  0.5801
 5185SOL    HW320507   2.397   1.554   0.973  1.2075  0.4748 -1.9987
 5185SOL    MW420508   2.473   1.558   1.016  0.2248  0.8433 -0.2127
 5186SOL     OW20509   5.540   4.426   5.176  0.0315  0.0960 -0.0691
 5186SOL    HW220510   5.562   4.492   5.111 -1.0573  0.1198 -0.4415
 5186SOL    HW320511   5.604   4.439   5.246  0.6560  0.6628 -0.7294
 5186SOL    MW420512   5.551   4.436   5.177 -0.0298  0.1739 -0.2053
 5187SOL     OW20513   4.942   0.096   1.573  0.1554 -0.1862  0.3514
 5187SOL    HW220514   4.854   0.071   1.602 -0.1362 -0.1487 -0.4745
 5187SOL    HW320515   4.989   0.116   1.654 -0.8102  0.5131  0.7607
 5187SOL    MW420516   4.936   0.095   1.587 -0.0105 -0.0890  0.2965
 5188SOL     OW20517   2.025   4.033   3.063  0.1445 -0.4098 -0.1982
 5188SOL    HW220518   2.032   4.025   2.968  1.2685  1.0743 -0.2881
 5188SOL    HW320519   2.074   3.958   3.098  0.3656 -0.5534 -0.8097
 5188SOL    MW420520   2.033   4.022   3.055  0.3220 -0.2329 -0.2907
 5189SOL     OW20521   0.357   4.698   6.354 -0.2935  0.0461 -0.2544
 5189SOL    HW220522   0.298   4.705   6.429  2.2244  1.3871  1.7605
 5189SOL    HW320523   0.304   4.727   6.279 -1.9987  1.9032  1.5465
 5189SOL    MW420524   0.342   4.703   6.354 -0.1863  0.4681  0.2490
 5190SOL     OW20525   0.618   2.674   5.638 -0.1772  0.5706 -0.3500
 5190SOL    HW220526   0.543   2.722   5.672 -1.4831 -2.4091  1.3750
 5190SOL    HW320527   0.582   2.620   5.567  0.6171  0.1093 -0.4131
 5190SOL    MW420528   0.603   2.673   5.633 -0.2447  0.1166 -0.1307
 5191SOL     OW20529   1.831   4.869   5.871 -0.1275 -0.0468 -0.1947
 5191SOL    HW220530   1.807   4.942   5.814 -0.1268  1.4521  1.6605
 5191SOL    HW320531   1.920   4.846   5.844  0.6223  1.9356  0.4442
 5191SOL    MW420532   1.840   4.875   5.860 -0.0284  0.4125  0.1344
 5192SOL     OW20533   0.817   1.141   5.093 -0.1775  0.0441 -0.3953
 5192SOL    HW220534   0.745   1.190   5.134 -2.0761 -4.3135  2.1652
 5192SOL    HW320535   0.882   1.130   5.162  1.2441  0.6691 -1.5748
 5192SOL    MW420536   0.816   1.146   5.107 -0.2405 -0.4484 -0.2131
 5193SOL     OW20537   5.772   5.737   2.192  0.1417 -0.1200  0.7870
 5193SOL    HW220538   5.797   5.674   2.124 -0.4512 -0.2162  0.6574
 5193SOL    HW320539   5.678   5.749   2.181 -0.0400 -0.4591  1.8648
 5193SOL    MW420540   5.763   5.730   2.181  0.0395 -0.1774  0.9121
 5194SOL     OW20541   1.672   0.486   4.255  0.0597 -0.1056  0.2161
 5194SOL    HW220542   1.700   0.394   4.251 -1.4265 -0.5679 -0.0685
 5194SOL    HW320543   1.617   0.498   4.178  2.2921  1.8033 -1.2415
 5194SOL    MW420544   1.669   0.475   4.245  0.1581  0.0852 -0.0137
 5195SOL     OW20545   1.183   0.362   5.009 -0.2415  0.0848  0.7189
 5195SOL    HW220546   1.215   0.353   5.099 -0.1504  0.9475  0.7807
 5195SOL    HW320547   1.241   0.426   4.969 -0.7283  0.2421  0.2562
 5195SOL    MW420548   1.195   0.369   5.016 -0.2937  0.2194  0.6660
 5196SOL     OW20549   2.086   5.536   4.310  0.1205  0.0329  0.6366
 5196SOL    HW220550   2.017   5.584   4.355  0.1549 -0.5250  1.2938
 5196SOL    HW320551   2.078   5.446   4.342  1.1309 -0.0497  0.7055
 5196SOL    MW420552   2.076   5.530   4.320  0.2583 -0.0516  0.7324
 5197SOL     OW20553   4.910   1.910   3.552 -0.0564 -0.3236 -0.3787
 5197SOL    HW220554   4.929   1.878   3.464 -0.3203 -0.3481 -0.4291
 5197SOL    HW320555   4.861   1.839   3.594  1.5058 -1.0064  0.3681
 5197SOL    MW420556   4.906   1.897   3.546  0.1149 -0.4169 -0.2868
 5198SOL     OW20557   3.610   2.429   0.498 -0.1152  0.7398  0.2054
 5198SOL    HW220558   3.655   2.503   0.456  2.2336 -0.0452  1.1678
 5198SOL    HW320559   3.579   2.463   0.581  0.2095  0.8763  0.2727
 5198SOL    MW420560   3.612   2.443   0.503  0.2375  0.6542  0.3412
 5199SOL     OW20561   5.178   5.575   0.574 -0.0549 -0.1815  0.1650
 5199SOL    HW220562   5.113   5.519   0.616  2.5788 -1.8454  2.3256
 5199SOL    HW320563   5.262   5.548   0.612  2.3127  0.1591 -4.1329
 5199SOL    MW420564   5.180   5.564   0.585  0.6049 -0.3561 -0.1170
 5200SOL     OW20565   2.235   1.081   2.699 -0.1141  0.0442 -0.3824
 5200SOL    HW220566   2.243   0.989   2.724  0.8455  0.6368  1.6561
 5200SOL    HW320567   2.297   1.091   2.626  0.6895 -0.6686  0.1779
 5200SOL    MW420568   2.245   1.071   2.693  0.1185  0.0284 -0.0395
 5201SOL     OW20569   4.583   4.589   1.174  0.1112 -0.3482  0.1099
 5201SOL    HW220570   4.679   4.586   1.174  0.1251 -3.6495  0.4172
 5201SOL    HW320571   4.557   4.522   1.111 -2.0103  0.0132  0.5265
 5201SOL    MW420572   4.592   4.580   1.166 -0.1669 -0.7361  0.2054
 5202SOL     OW20573   0.836   5.083   3.051 -0.2263 -0.8054 -0.4199
 5202SOL    HW220574   0.748   5.113   3.027  0.3359  0.3481 -1.1348
 5202SOL    HW320575   0.895   5.134   2.996  0.8780 -2.0795 -0.4803
 5202SOL    MW420576   0.832   5.094   3.041 -0.0065 -0.8213 -0.5222
 5203SOL     OW20577   0.167   2.823   2.822 -0.4851  0.2215  0.4849
 5203SOL    HW220578   0.124   2.786   2.746 -0.6546 -1.8941  1.5467
 5203SOL    HW320579   0.261   2.820   2.800 -0.5477 -0.1559  0.2578
 5203SOL    MW420580   0.174   2.818   2.809 -0.5157 -0.1074  0.5950
 5204SOL     OW20581   5.582   3.439   0.327 -0.1387 -0.4257  0.1964
 5204SOL    HW220582   5.567   3.344   0.327 -0.9083 -0.3071  0.2645
 5204SOL    HW320583   5.667   3.449   0.285  0.1932 -1.1870  0.6628
 5204SOL    MW420584   5.591   3.428   0.322 -0.1965 -0.5105  0.2670
 5205SOL     OW20585   3.602   2.807   3.536 -0.3763 -0.0563 -0.0294
 5205SOL    HW220586   3.611   2.731   3.480  0.3572  0.3909 -0.5292
 5205SOL    HW320587   3.626   2.881   3.480 -0.1537  0.4498  0.7212
 5205SOL    MW420588   3.606   2.807   3.521 -0.2502  0.0695  0.0037
 5206SOL     OW20589   2.610   5.937   3.877 -0.2189  0.1476 -0.5910
 5206SOL    HW220590   2.590   6.031   3.882 -1.0535 -0.0249 -0.6639
 5206SOL    HW320591   2.575   5.909   3.793 -0.8994 -0.4439 -0.1168
 5206SOL    MW420592   2.603   5.946   3.867 -0.4188  0.0468 -0.5380
 5207SOL     OW20593   4.403   3.318   5.340 -0.4338  0.5830  0.6881
 5207SOL    HW220594   4.326   3.288   5.291 -0.3291 -0.7206  1.2792
 5207SOL    HW320595   4.415   3.408   5.312 -0.9001  0.1514 -1.0267
 5207SOL    MW420596   4.394   3.326   5.330 -0.4815  0.3541  0.5398
 5208SOL     OW20597   2.887   4.933   1.726  0.8545  0.0004 -0.1922
 5208SOL    HW220598   2.874   4.839   1.741 -0.9488  0.3550  0.6888
 5208SOL    HW320599   2.816   4.958   1.668 -0.5933  1.3904  2.0481
 5208SOL    MW420600   2.876   4.924   1.721  0.4256  0.2306  0.2196
 5209SOL     OW20601   2.949   2.278   4.236 -0.0699 -0.4030 -0.0785
 5209SOL    HW220602   2.900   2.263   4.317  0.0828 -1.5630 -0.1711
 5209SOL    HW320603   3.040   2.258   4.259  0.5508  2.4554  0.2877
 5209SOL    MW420604   2.955   2.273   4.249  0.0322 -0.1789 -0.0424
 5210SOL     OW20605   1.327   1.194   6.210 -0.0118 -0.2618 -0.3604
 5210SOL    HW220606   1.308   1.266   6.150 -2.0747 -0.6163 -0.1935
 5210SOL    HW320607   1.339   1.236   6.295 -0.0009 -0.0163 -0.4819
 5210SOL    MW420608   1.326   1.209   6.213 -0.2825 -0.2762 -0.3544
 5211SOL     OW20609   1.182   4.753   5.486 -0.2239 -0.2547 -0.0383
 5211SOL    HW220610   1.170   4.813   5.560  0.4682  0.1614 -0.2564
 5211SOL    HW320611   1.272   4.723   5.494 -0.7263 -1.7160  0.3918
 5211SOL    MW420612   1.192   4.757   5.497 -0.1989 -0.3926 -0.0103
 5212SOL     OW20613   1.561   1.377   0.263 -0.4026  0.7634  0.5866
 5212SOL    HW220614   1.577   1.471   0.264  1.2757  0.5962  3.6941
 5212SOL    HW320615   1.641   1.340   0.225 -0.9686  0.5450 -0.4247
 5212SOL    MW420616   1.574   1.384   0.258 -0.2558  0.7125  0.8632
 5213SOL     OW20617   2.477   1.990   5.813 -0.2410 -0.4196 -0.0313
 5213SOL    HW220618   2.422   1.955   5.743  1.7303 -1.5171 -1.1099
 5213SOL    HW320619   2.507   2.074   5.779 -2.5917  1.0809  1.3238
 5213SOL    MW420620   2.473   1.996   5.799 -0.2911 -0.3665  0.0052
 5214SOL     OW20621   4.225   2.208   3.279 -0.6166  0.0858  0.3746
 5214SOL    HW220622   4.305   2.261   3.278  0.8426 -1.9339 -1.8160
 5214SOL    HW320623   4.154   2.271   3.265  0.7955  1.7120  0.2505
 5214SOL    MW420624   4.226   2.223   3.277 -0.2378  0.0339  0.0692
 5215SOL     OW20625   0.722   3.959   1.106 -0.5186  0.4835  0.4558
 5215SOL    HW220626   0.795   4.013   1.075  0.5183 -0.4620  1.1850
 5215SOL    HW320627   0.684   3.922   1.026  1.7176 -1.4119  0.1795
 5215SOL    MW420628   0.726   3.961   1.091 -0.0868  0.1087  0.5156
 5216SOL     OW20629   3.447   2.175   0.643  0.0529  0.2881  0.3655
 5216SOL    HW220630   3.440   2.152   0.551 -0.1286  1.1785  0.1500
 5216SOL    HW320631   3.533   2.140   0.670 -0.2398 -0.6752  0.0803
 5216SOL    MW420632   3.458   2.168   0.635 -0.0097  0.2785  0.2994
 5217SOL     OW20633   3.273   1.022   6.128 -0.0266 -0.1840 -0.7260
 5217SOL    HW220634   3.259   1.104   6.175  1.8437  0.8237 -1.8089
 5217SOL    HW320635   3.229   1.034   6.044 -1.7195 -1.2358 -0.0403
 5217SOL    MW420636   3.266   1.034   6.123 -0.0032 -0.1899 -0.7784
 5218SOL     OW20637   1.514   1.558   2.523 -0.5914  0.1339 -0.0671
 5218SOL    HW220638   1.569   1.506   2.583 -0.4614 -2.6512 -2.3914
 5218SOL    HW320639   1.577   1.605   2.468 -0.6426  0.2548 -0.0227
 5218SOL    MW420640   1.530   1.557   2.524 -0.5810 -0.2176 -0.3679
 5219SOL     OW20641   4.290   1.502   0.266  0.3533  0.0307  0.1354
 5219SOL    HW220642   4.201   1.478   0.292 -0.9756  0.4531 -3.5303
 5219SOL    HW320643   4.329   1.421   0.235  0.6558  0.1481  0.2026
 5219SOL    MW420644   4.284   1.488   0.266  0.2179  0.1019 -0.3394
 5220SOL     OW20645   3.507   0.394   6.082 -0.7605  0.3819  0.2879
 5220SOL    HW220646   3.598   0.391   6.054  0.0488  1.5651  2.5362
 5220SOL    HW320647   3.460   0.341   6.018  1.4985 -0.2889 -0.9064
 5220SOL    MW420648   3.513   0.386   6.070 -0.3557  0.4495  0.4270
 5221SOL     OW20649   0.123   0.969   4.846  0.2077 -0.7727  0.1503
 5221SOL    HW220650   0.107   1.062   4.831 -0.0886 -0.9548 -0.6828
 5221SOL    HW320651   0.139   0.932   4.759 -2.5122 -2.0311  0.0942
 5221SOL    MW420652   0.123   0.976   4.833 -0.1902 -0.9628  0.0330
 5222SOL     OW20653   0.106   4.190   2.833  0.2651  0.3094 -0.1450
 5222SOL    HW220654   0.061   4.243   2.767  0.6964  0.6477 -0.1737
 5222SOL    HW320655   0.047   4.115   2.848 -0.2380  0.6720 -0.2771
 5222SOL    MW420656   0.092   4.187   2.827  0.2557  0.4019 -0.1662
 5223SOL     OW20657   3.250   3.707   5.199 -0.1585  0.5086 -0.3447
 5223SOL    HW220658   3.341   3.684   5.180 -0.7318 -1.7472 -0.7296
 5223SOL    HW320659   3.230   3.779   5.139  0.6980 -0.5734 -1.9993
 5223SOL    MW420660   3.259   3.713   5.188 -0.1211  0.0682 -0.6138
 5224SOL     OW20661   2.191   2.867   6.372 -0.5673 -0.0683  0.5577
 5224SOL    HW220662   2.277   2.825   6.368 -0.3277  0.4445  0.2790
 5224SOL    HW320663   2.131   2.795   6.392 -0.2038 -0.6082 -0.2141
 5224SOL    MW420664   2.195   2.852   6.374 -0.4877 -0.0719  0.4191
 5225SOL     OW20665   0.575   1.951   1.204 -0.5429 -0.3293 -0.2679
 5225SOL    HW220666   0.640   2.007   1.248 -0.9318  0.1265 -0.2627
 5225SOL    HW320667   0.502   1.946   1.265  0.0337 -2.0061  0.3475
 5225SOL    MW420668   0.574   1.958   1.218 -0.5181 -0.4904 -0.1860
 5226SOL     OW20669   4.566   5.874   4.534 -0.1019  0.3019 -0.4862
 5226SOL    HW220670   4.491   5.854   4.589 -2.0990  2.2970 -2.2828
 5226SOL    HW320671   4.578   5.968   4.543  1.9797  0.0815 -0.5384
 5226SOL    MW420672   4.558   5.884   4.542 -0.0907  0.5360 -0.7302
 5227SOL     OW20673   1.987   5.994   0.811 -0.4394 -0.0193 -0.1933
 5227SOL    HW220674   2.043   6.047   0.867  0.6360 -0.3121 -0.9600
 5227SOL    HW320675   1.925   5.953   0.872 -1.0905  1.8182  0.4448
 5227SOL    MW420676   1.986   5.995   0.827 -0.3834  0.1845 -0.2103
 5228SOL     OW20677   6.121   1.832   1.853  0.1603 -0.1042 -0.5314
 5228SOL    HW220678   6.192   1.864   1.910 -0.6906  1.0453 -0.0793
 5228SOL    HW320679   6.120   1.737   1.868  0.5478  0.0648  0.6912
 5228SOL    MW420680   6.130   1.823   1.863  0.0991  0.0698 -0.3104
 5229SOL     OW20681   2.692   1.877   3.838  0.3177  0.2849  0.3012
 5229SOL    HW220682   2.608   1.845   3.805  0.7026  0.0645 -0.4937
 5229SOL    HW320683   2.669   1.930   3.914 -0.6174  0.8272 -0.3351
 5229SOL    MW420684   2.678   1.880   3.843  0.2451  0.3274  0.1123
 5230SOL     OW20685   0.884   5.598   1.565 -0.2430 -0.9490 -0.1625
 5230SOL    HW220686   0.916   5.512   1.591 -0.1244 -0.7461  0.3863
 5230SOL    HW320687   0.801   5.607   1.612 -0.1885 -0.7071 -0.1137
 5230SOL    MW420688   0.877   5.588   1.575 -0.2202 -0.8903 -0.0837
 5231SOL     OW20689   1.206   1.996   4.704 -0.2112 -0.2397 -0.0820
 5231SOL    HW220690   1.236   1.905   4.706 -0.0211 -0.1684  0.7172
 5231SOL    HW320691   1.119   1.994   4.743  0.1972  0.0518  0.8837
 5231SOL    MW420692   1.199   1.984   4.710 -0.1322 -0.1918  0.1508
 5232SOL     OW20693   0.766   0.527   1.434 -0.2978 -0.3202 -0.1112
 5232SOL    HW220694   0.845   0.579   1.418 -0.7272  0.5199  0.4107
 5232SOL    HW320695   0.752   0.533   1.529 -0.2494 -1.5686 -0.0081
 5232SOL    MW420696   0.775   0.535   1.445 -0.3481 -0.3741 -0.0288
 5233SOL     OW20697   1.299   5.661   2.187 -0.3076  0.5208 -0.2292
 5233SOL    HW220698   1.291   5.716   2.109  1.0666  1.2549  0.1111
 5233SOL    HW320699   1.306   5.723   2.259  1.0362 -0.0779  0.1838
 5233SOL    MW420700   1.299   5.676   2.186  0.0510  0.5387 -0.1298
 5234SOL     OW20701   5.459   2.012   4.992  0.7956 -0.4023 -0.0651
 5234SOL    HW220702   5.552   1.991   4.998  1.4307  2.2926  2.8781
 5234SOL    HW320703   5.425   1.995   5.080 -1.1261  0.1732 -0.6351
 5234SOL    MW420704   5.467   2.007   5.005  0.6258  0.0292  0.2480
 5235SOL     OW20705   1.030   5.833   4.904  0.4051 -0.0808  0.1394
 5235SOL    HW220706   0.937   5.853   4.914  0.5751  0.6661  0.2632
 5235SOL    HW320707   1.060   5.892   4.835  0.7795 -0.3404  0.0783
 5235SOL    MW420708   1.022   5.843   4.896  0.4769 -0.0165  0.1476
 5236SOL     OW20709   5.292   2.268   1.914 -0.8388 -0.2025  0.2966
 5236SOL    HW220710   5.214   2.253   1.860 -0.6965 -0.4866  0.1665
 5236SOL    HW320711   5.258   2.295   1.999 -1.0916 -0.7308  0.3657
 5236SOL    MW420712   5.277   2.270   1.918 -0.8534 -0.3097  0.2885
 5237SOL     OW20713   0.397   2.269   3.451  0.0020 -0.1339 -1.0062
 5237SOL    HW220714   0.346   2.316   3.384 -1.1340  1.7124  1.0214
 5237SOL    HW320715   0.342   2.196   3.477 -1.1457  1.1304  0.2784
 5237SOL    MW420716   0.383   2.266   3.445 -0.2993  0.2765 -0.5692
 5238SOL     OW20717   6.186   3.874   5.308  0.4586  0.1657  0.4237
 5238SOL    HW220718   6.093   3.865   5.284 -0.2332  0.8489  2.5980
 5238SOL    HW320719   6.234   3.841   5.232 -1.5462  0.6184 -1.1271
 5238SOL    MW420720   6.180   3.868   5.295  0.1028  0.3156  0.5060
 5239SOL     OW20721   5.501   1.587   0.371  0.2916  0.2340  0.1745
 5239SOL    HW220722   5.580   1.595   0.318 -1.2362 -1.5638 -2.6276
 5239SOL    HW320723   5.443   1.656   0.338  0.2367  0.7950  1.3942
 5239SOL    MW420724   5.504   1.597   0.359  0.0828  0.0708 -0.0342
 5240SOL     OW20725   3.779   3.764   3.837  0.2210  0.1501  0.0356
 5240SOL    HW220726   3.798   3.675   3.867 -1.2556 -0.6227 -1.1848
 5240SOL    HW320727   3.860   3.812   3.852  0.6898 -1.1004  1.7778
 5240SOL    MW420728   3.792   3.759   3.843  0.0880 -0.1169  0.1044
 5241SOL     OW20729   3.727   2.993   1.916  0.1902  0.2155 -0.3801
 5241SOL    HW220730   3.771   3.078   1.909  0.5797  0.4035  2.7740
 5241SOL    HW320731   3.798   2.930   1.926 -0.1166 -0.4863 -2.2417
 5241SOL    MW420732   3.742   2.996   1.916  0.2011  0.1477 -0.2096
 5242SOL     OW20733   4.264   4.985   0.678  0.0570 -0.5220 -0.1587
 5242SOL    HW220734   4.243   4.970   0.586  0.2828  0.2488 -0.3415
 5242SOL    HW320735   4.200   4.932   0.726 -0.8877  0.0550 -0.7456
 5242SOL    MW420736   4.252   4.976   0.672 -0.0378 -0.3442 -0.2603
 5243SOL     OW20737   0.883   3.901   2.080 -0.5318  0.0702  0.2478
 5243SOL    HW220738   0.790   3.888   2.057 -0.5130 -1.3148  0.8922
 5243SOL    HW320739   0.881   3.964   2.152 -0.9901 -0.0756  0.3683
 5243SOL    MW420740   0.870   3.908   2.086 -0.5898 -0.1318  0.3487
 5244SOL     OW20741   4.373   3.562   5.708  0.2571 -0.3105 -0.0849
 5244SOL    HW220742   4.403   3.628   5.646 -1.7050  0.4916 -0.2435
 5244SOL    HW320743   4.416   3.481   5.680  0.5324  0.3315 -1.5805
 5244SOL    MW420744   4.383   3.560   5.696  0.0346 -0.1199 -0.3031
 5245SOL     OW20745   3.482   3.547   3.995 -0.2167  0.3849 -0.4101
 5245SOL    HW220746   3.448   3.636   4.009 -1.9165 -0.6651  3.2022
 5245SOL    HW320747   3.452   3.497   4.071  3.4268 -2.5318 -0.5813
 5245SOL    MW420748   3.474   3.552   4.007  0.0397 -0.1385  0.0439
 5246SOL     OW20749   6.218   4.820   0.213 -0.9237 -0.6260  0.8258
 5246SOL    HW220750   6.291   4.768   0.246 -0.7256 -0.7888  0.1554
 5246SOL    HW320751   6.248   4.911   0.222 -0.7933 -0.6773  0.9121
 5246SOL    MW420752   6.232   4.825   0.218 -0.8804 -0.6543  0.7488
 5247SOL     OW20753   4.821   5.990   5.014  0.2976  0.0211 -0.1447
 5247SOL    HW220754   4.878   6.008   5.088  0.6443 -3.7190  0.7187
 5247SOL    HW320755   4.881   5.984   4.939  0.2251  1.6962 -0.3620
 5247SOL    MW420756   4.837   5.991   5.014  0.3338 -0.2513 -0.0595
 5248SOL     OW20757   1.189   3.890   4.446 -0.1097 -0.3870 -0.1572
 5248SOL    HW220758   1.125   3.905   4.516  0.7326 -0.1979  0.5883
 5248SOL    HW320759   1.165   3.805   4.409 -0.0058 -0.9397  0.9949
 5248SOL    MW420760   1.177   3.881   4.451  0.0152 -0.4350  0.0932
 5249SOL     OW20761   5.445   4.758   4.080 -0.5403 -0.1973 -0.2529
 5249SOL    HW220762   5.410   4.680   4.122  0.1912 -1.1545 -1.3418
 5249SOL    HW320763   5.467   4.729   3.991  3.0771  0.2131  0.3322
 5249SOL    MW420764   5.443   4.744   4.074  0.0335 -0.2694 -0.3194
 5250SOL     OW20765   4.670   4.635   3.632  0.5640  0.5913  0.0913
 5250SOL    HW220766   4.643   4.714   3.586  1.6527  1.1117  0.3216
 5250SOL    HW320767   4.738   4.597   3.577  1.6006  1.0072  1.0292
 5250SOL    MW420768   4.675   4.640   3.619  0.8444  0.7149  0.2454
 5251SOL     OW20769   2.004   0.230   0.429 -0.3926  0.1250 -0.6278
 5251SOL    HW220770   2.086   0.255   0.387 -0.1077 -0.3361 -0.3633
 5251SOL    HW320771   1.973   0.310   0.472 -1.4633  1.0164 -2.9176
 5251SOL    MW420772   2.011   0.244   0.429 -0.4963  0.1818 -0.8950
 5252SOL     OW20773   5.290   2.875   1.538 -0.1220  0.4941  0.6652
 5252SOL    HW220774   5.301   2.785   1.506 -0.8472  0.4523  0.5349
 5252SOL    HW320775   5.277   2.927   1.459 -0.7611  0.5591  0.8151
 5252SOL    MW420776   5.290   2.870   1.523 -0.3020  0.4972  0.6678
 5253SOL     OW20777   1.513   0.100   2.267  0.1232 -0.4516 -0.5999
 5253SOL    HW220778   1.422   0.127   2.271  0.0550 -0.5508 -1.2951
 5253SOL    HW320779   1.521   0.030   2.331 -0.4361 -0.8347 -0.9402
 5253SOL    MW420780   1.502   0.094   2.276  0.0404 -0.5152 -0.7365
 5254SOL     OW20781   4.734   3.483   1.726  0.4185 -1.1845  0.1200
 5254SOL    HW220782   4.748   3.496   1.632 -1.1925 -1.1110 -0.1346
 5254SOL    HW320783   4.660   3.422   1.731 -0.7638  0.2897  1.3262
 5254SOL    MW420784   4.726   3.476   1.714  0.0500 -0.9803  0.2455
 5255SOL     OW20785   1.403   0.690   3.078 -0.1541 -0.0526 -0.0557
 5255SOL    HW220786   1.491   0.706   3.044 -0.0128  0.6654  0.6178
 5255SOL    HW320787   1.366   0.777   3.093 -0.6050 -0.3437  0.6155
 5255SOL    MW420788   1.409   0.703   3.076 -0.1950  0.0037  0.1217
 5256SOL     OW20789   0.618   0.043   0.965  1.0733 -0.0026  0.5445
 5256SOL    HW220790   0.712   0.028   0.957  1.2670  0.5221  1.6252
 5256SOL    HW320791   0.605   0.134   0.939  1.3501  0.9014  3.1863
 5256SOL    MW420792   0.628   0.053   0.961  1.1354  0.1859  1.0356
 5257SOL     OW20793   2.946   5.970   2.263 -0.2168  0.4251  0.0896
 5257SOL    HW220794   3.023   5.921   2.293 -0.8466 -0.3897  0.4089
 5257SOL    HW320795   2.889   5.975   2.339 -0.0021  2.0319  0.1803
 5257SOL    MW420796   2.949   5.964   2.277 -0.2716  0.5296  0.1437
 5258SOL     OW20797   4.024   3.816   3.517 -0.3864 -0.6392 -0.0166
 5258SOL    HW220798   4.059   3.786   3.601  0.0129 -0.0166  0.0490
 5258SOL    HW320799   3.954   3.876   3.540 -1.0831 -1.3908 -0.1447
 5258SOL    MW420800   4.020   3.820   3.531 -0.4256 -0.6562 -0.0248
 5259SOL     OW20801   4.923   5.029   4.792  0.4426 -0.4715  0.0290
 5259SOL    HW220802   4.894   5.118   4.812 -1.9590 -0.8213 -1.5259
 5259SOL    HW320803   4.949   4.993   4.877 -0.9656  0.8924  1.1014
 5259SOL    MW420804   4.922   5.036   4.806 -0.0600 -0.3377 -0.0347
 5260SOL     OW20805   1.089   1.468   1.130  0.4164  0.1423  0.3482
 5260SOL    HW220806   1.055   1.505   1.049  0.8959  0.2267  0.1783
 5260SOL    HW320807   1.177   1.505   1.138  1.4939 -2.0127 -0.5878
 5260SOL    MW420808   1.096   1.478   1.120  0.6219 -0.1309  0.2023
 5261SOL     OW20809   1.967   4.572   4.076 -0.1165 -0.1879  0.2915
 5261SOL    HW220810   1.893   4.594   4.133 -1.0406 -0.8974 -0.5969
 5261SOL    HW320811   1.990   4.483   4.101 -2.1316 -1.4849 -1.9978
 5261SOL    MW420812   1.960   4.563   4.087 -0.5043 -0.4527 -0.1278
 5262SOL     OW20813   6.302   3.372   2.917 -0.4476 -0.2007  0.0542
 5262SOL    HW220814   6.385   3.334   2.944  0.6666  0.7537 -1.7962
 5262SOL    HW320815   6.310   3.465   2.935 -1.8952 -0.3354  1.5958
 5262SOL    MW420816   6.314   3.379   2.923 -0.4916 -0.0926  0.0134
 5263SOL     OW20817   5.549   4.181   4.281 -0.3658 -0.3640 -0.2622
 5263SOL    HW220818   5.477   4.242   4.267 -0.4180 -0.0183  1.3304
 5263SOL    HW320819   5.506   4.100   4.308 -0.2174 -0.6178 -0.7786
 5263SOL    MW420820   5.534   4.178   4.282 -0.3531 -0.3519 -0.1202
 5264SOL     OW20821   4.514   0.865   4.386 -0.1178  0.5745 -0.8644
 5264SOL    HW220822   4.603   0.893   4.407  0.1547 -0.6516 -0.3013
 5264SOL    HW320823   4.459   0.937   4.415  0.5194  0.3379  1.0957
 5264SOL    MW420824   4.518   0.878   4.393  0.0022  0.3815 -0.5315
 5265SOL     OW20825   1.036   2.025   3.637  0.2982  0.1297  0.0036
 5265SOL    HW220826   1.009   2.069   3.718  1.0235 -0.1280  0.4054
 5265SOL    HW320827   1.010   1.934   3.650  0.7763  0.0079  0.1242
 5265SOL    MW420828   1.029   2.019   3.650  0.4570  0.0796  0.0725
 5266SOL     OW20829   0.741   3.604   3.107 -0.7103 -0.1683 -0.4247
 5266SOL    HW220830   0.730   3.517   3.068 -0.4282  0.0804 -1.0775
 5266SOL    HW320831   0.835   3.615   3.114 -0.6191  1.0619 -2.6623
 5266SOL    MW420832   0.752   3.594   3.103 -0.6611  0.0268 -0.8061
 5267SOL     OW20833   4.014   1.744   0.232 -0.8465  0.7205 -0.1179
 5267SOL    HW220834   3.984   1.654   0.244  1.6273 -0.1092  0.2768
 5267SOL    HW320835   4.055   1.745   0.146 -3.0360  2.1755 -1.2283
 5267SOL    MW420836   4.015   1.733   0.222 -0.8090  0.8030 -0.2123
 5268SOL     OW20837   5.237   6.039   5.162  0.2015  0.6442 -0.0887
 5268SOL    HW220838   5.270   5.981   5.230 -0.1876 -0.1351 -0.5582
 5268SOL    HW320839   5.146   6.056   5.187 -0.1800 -0.2661 -0.8115
 5268SOL    MW420840   5.229   6.034   5.174  0.0998  0.4213 -0.2460
 5269SOL     OW20841   0.799   0.940   2.154 -0.0329 -0.2557 -0.3419
 5269SOL    HW220842   0.834   0.885   2.224  1.1655 -0.2463 -0.9135
 5269SOL    HW320843   0.720   0.894   2.125 -0.8792  0.0109  1.3452
 5269SOL    MW420844   0.793   0.927   2.160  0.0136 -0.2193 -0.1947
 5270SOL     OW20845   3.937   4.683   1.922 -0.0088 -0.1848 -0.1118
 5270SOL    HW220846   4.006   4.722   1.976 -0.9810 -0.0107  1.0711
 5270SOL    HW320847   3.905   4.609   1.975 -1.0384  0.0350 -0.4132
 5270SOL    MW420848   3.942   4.678   1.936 -0.2729 -0.1328  0.0045
 5271SOL     OW20849   3.153   4.292   5.425 -0.0300  0.1881 -0.6327
 5271SOL    HW220850   3.089   4.344   5.377 -0.3118 -0.4447 -0.9531
 5271SOL    HW320851   3.224   4.277   5.363  0.8579  1.6040 -0.0254
 5271SOL    MW420852   3.154   4.297   5.411  0.0499  0.2914 -0.5949
 5272SOL     OW20853   5.479   3.042   1.632 -0.1806  0.7135 -0.6197
 5272SOL    HW220854   5.511   3.069   1.546 -0.4594 -0.1900 -1.0270
 5272SOL    HW320855   5.425   2.965   1.614  1.8816 -1.1418  0.6039
 5272SOL    MW420856   5.476   3.035   1.618  0.0547  0.3495 -0.5120
 5273SOL     OW20857   4.556   2.917   5.781  0.1963  0.0874 -0.4112
 5273SOL    HW220858   4.528   2.851   5.844  1.3999  0.3924  0.4898
 5273SOL    HW320859   4.526   3.000   5.817 -1.3270  0.0614 -1.5491
 5273SOL    MW420860   4.549   2.919   5.794  0.1542  0.1242 -0.4424
 5274SOL     OW20861   2.874   1.297   2.625 -0.6281 -0.5576  0.0657
 5274SOL    HW220862   2.948   1.357   2.615  0.9265 -2.3954 -0.0150
 5274SOL    HW320863   2.871   1.276   2.718 -0.2535 -1.4432 -0.1162
 5274SOL    MW420864   2.883   1.302   2.636 -0.3736 -0.9169  0.0311
 5275SOL     OW20865   0.977   1.445   2.803  0.1089 -0.2471  0.0415
 5275SOL    HW220866   1.053   1.479   2.756 -1.0465 -0.6845 -2.3005
 5275SOL    HW320867   0.922   1.522   2.818  0.4790 -0.1064  0.6973
 5275SOL    MW420868   0.980   1.460   2.799  0.0053 -0.2863 -0.1809
 5276SOL     OW20869   1.063   2.214   5.343  0.1540  0.4586 -0.6084
 5276SOL    HW220870   1.123   2.141   5.328  1.4973  0.9540  1.8758
 5276SOL    HW320871   0.977   2.173   5.352  0.2751 -0.4101 -2.6918
 5276SOL    MW420872   1.060   2.199   5.342  0.3472  0.4093 -0.5555
 5277SOL     OW20873   2.138   5.020   5.068 -0.2938 -0.1807  0.1252
 5277SOL    HW220874   2.221   4.984   5.038  0.4514  0.8415  0.9129
 5277SOL    HW320875   2.110   4.961   5.138 -1.3804 -1.8089 -1.5750
 5277SOL    MW420876   2.145   5.007   5.073 -0.3388 -0.2607  0.0048
 5278SOL     OW20877   5.236   0.603   5.834 -0.2402  0.5140  0.8454
 5278SOL    HW220878   5.191   0.565   5.759  0.6105  0.1380  0.5214
 5278SOL    HW320879   5.326   0.614   5.805 -0.3180  2.2450  1.1189
 5278SOL    MW420880   5.242   0.600   5.820 -0.1382  0.6928  0.8387
 5279SOL     OW20881   3.246   3.069   6.222  0.8103  0.1046 -0.2462
 5279SOL    HW220882   3.155   3.093   6.206  0.4773 -0.9792 -0.0840
 5279SOL    HW320883   3.257   2.985   6.177  1.3845 -0.3652  0.7260
 5279SOL    MW420884   3.236   3.061   6.214  0.8421 -0.1004 -0.0965
 5280SOL     OW20885   2.887   5.919   3.723  0.0247  0.4651  0.2183
 5280SOL    HW220886   2.838   5.997   3.695  0.6450  0.6443 -0.4083
 5280SOL    HW320887   2.844   5.846   3.679 -0.9202  0.3688  1.2637
 5280SOL    MW420888   2.875   5.920   3.714 -0.0181  0.4760  0.2736
 5281SOL     OW20889   5.508   2.154   0.223  0.1270 -0.1841 -0.4358
 5281SOL    HW220890   5.425   2.202   0.220  1.7164  2.8229 -0.3714
 5281SOL    HW320891   5.545   2.177   0.308  1.1037 -1.3372 -0.5396
 5281SOL    MW420892   5.502   2.164   0.233  0.4656  0.0605 -0.4410
 5282SOL     OW20893   5.213   2.727   2.138  0.4641 -0.6989 -0.2064
 5282SOL    HW220894   5.155   2.768   2.075 -1.7811 -1.2744  1.3383
 5282SOL    HW320895   5.298   2.769   2.125 -0.9086  2.1039 -0.8524
 5282SOL    MW420896   5.216   2.738   2.128 -0.0132 -0.4050 -0.0878
 5283SOL     OW20897   3.990   2.655   1.429 -0.4209 -0.4633  0.4652
 5283SOL    HW220898   3.905   2.612   1.435 -1.2914  0.7865 -1.7143
 5283SOL    HW320899   4.039   2.604   1.365  0.8545 -1.6202  2.2434
 5283SOL    MW420900   3.985   2.643   1.422 -0.3675 -0.4511  0.4123
 5284SOL     OW20901   0.403   4.224   2.334  0.6173  0.0620  0.2311
 5284SOL    HW220902   0.421   4.283   2.407  3.1734  0.5416 -0.7081
 5284SOL    HW320903   0.360   4.279   2.269 -0.7371 -0.1355  0.9106
 5284SOL    MW420904   0.400   4.239   2.335  0.7759  0.0992  0.1968
 5285SOL     OW20905   3.315   5.018   3.147  0.2304  0.8024  0.1402
 5285SOL    HW220906   3.338   4.963   3.222 -0.6077  0.3796  0.1062
 5285SOL    HW320907   3.299   5.105   3.184  0.1132  0.6644  0.4153
 5285SOL    MW420908   3.316   5.022   3.162  0.1044  0.7284  0.1720
 5286SOL     OW20909   3.450   0.684   4.465  0.9506  0.1493  0.2231
 5286SOL    HW220910   3.403   0.640   4.535  1.4539 -1.3227 -0.3152
 5286SOL    HW320911   3.516   0.738   4.510  0.4575  0.1968  0.8963
 5286SOL    MW420912   3.453   0.685   4.480  0.9520 -0.0387  0.2409
 5287SOL     OW20913   3.594   0.337   5.347 -0.2359 -0.3938  0.2726
 5287SOL    HW220914   3.568   0.301   5.263  0.1588 -1.1378  0.4561
 5287SOL    HW320915   3.690   0.341   5.342  0.0099 -2.8346  1.5852
 5287SOL    MW420916   3.603   0.333   5.335 -0.1514 -0.8140  0.4700
 5288SOL     OW20917   2.408   4.319   1.677 -0.2642  0.4515  0.3193
 5288SOL    HW220918   2.319   4.355   1.676  0.6359  2.9819  1.5132
 5288SOL    HW320919   2.458   4.376   1.618  0.5712 -0.9731 -0.3882
 5288SOL    MW420920   2.403   4.332   1.669 -0.0352  0.5974  0.3835
 5289SOL     OW20921   5.523   1.337   4.371 -0.1142 -0.3904  0.1012
 5289SOL    HW220922   5.601   1.282   4.364  1.5167  1.7852 -0.0508
 5289SOL    HW320923   5.495   1.349   4.280  0.3511  0.0985  0.0162
 5289SOL    MW420924   5.530   1.331   4.358  0.1624 -0.0389  0.0699
 5290SOL     OW20925   0.074   4.415   2.388  0.4111  0.2920 -0.1324
 5290SOL    HW220926   0.029   4.331   2.373  0.9276 -0.3216  1.4713
 5290SOL    HW320927   0.132   4.397   2.462  0.4596  2.1077  0.3031
 5290SOL    MW420928   0.075   4.401   2.396  0.4857  0.4506  0.1366
 5291SOL     OW20929   0.282   4.597   4.264  0.0337  0.0126 -0.2537
 5291SOL    HW220930   0.268   4.517   4.315  1.8789  0.0222  0.3083
 5291SOL    HW320931   0.216   4.592   4.194 -0.0418 -1.8782 -0.0937
 5291SOL    MW420932   0.271   4.586   4.261  0.2672 -0.2356 -0.1584
 5292SOL     OW20933   1.510   3.873   2.418  0.5629  0.0824  0.7338
 5292SOL    HW220934   1.481   3.883   2.508  2.4598  0.5355  1.3420
 5292SOL    HW320935   1.498   3.959   2.378 -0.4422 -0.1642  0.4820
 5292SOL    MW420936   1.505   3.886   2.424  0.6806  0.1096  0.7808
 5293SOL     OW20937   1.891   0.548   2.711  0.0244 -0.2544  0.3039
 5293SOL    HW220938   1.864   0.640   2.708 -0.0146 -0.2314  1.0632
 5293SOL    HW320939   1.835   0.505   2.646 -1.7907 -0.1795  1.7067
 5293SOL    MW420940   1.880   0.555   2.702 -0.2202 -0.2415  0.5892
 5294SOL     OW20941   4.739   5.500   0.047  0.0237 -0.1080  0.4356
 5294SOL    HW220942   4.814   5.443   0.029 -0.3378 -0.8099  1.1297
 5294SOL    HW320943   4.663   5.443   0.043 -0.4559  0.5430  0.0505
 5294SOL    MW420944   4.739   5.485   0.044 -0.0873 -0.1147  0.4764
 5295SOL     OW20945   4.418   6.137   3.872  0.1826  0.0151  0.3136
 5295SOL    HW220946   4.357   6.128   3.799  0.9351  0.0989 -0.3275
 5295SOL    HW320947   4.427   6.048   3.906  0.1510 -0.0911  0.0480
 5295SOL    MW420948   4.411   6.124   3.867  0.2777  0.0121  0.1939
 5296SOL     OW20949   1.921   5.343   4.792 -0.2259 -0.6102 -0.1245
 5296SOL    HW220950   1.924   5.310   4.882 -1.3516  1.0281  0.5676
 5296SOL    HW320951   1.832   5.379   4.782 -0.0048 -0.4183 -1.7706
 5296SOL    MW420952   1.909   5.344   4.802 -0.3452 -0.3687 -0.2504
 5297SOL     OW20953   1.683   2.421   2.882  0.5536 -0.1212  0.0979
 5297SOL    HW220954   1.630   2.472   2.943  0.8236 -1.8201  1.8468
 5297SOL    HW320955   1.633   2.342   2.866  0.1694  0.5442 -2.5223
 5297SOL    MW420956   1.670   2.417   2.888  0.5386 -0.2575 -0.0170
 5298SOL     OW20957   0.214   3.941   5.406  0.5075  0.3810 -0.1168
 5298SOL    HW220958   0.267   3.988   5.470  1.0280 -0.2113 -0.1063
 5298SOL    HW320959   0.267   3.940   5.327 -0.3896  1.6598 -0.7759
 5298SOL    MW420960   0.228   3.947   5.404  0.4578  0.4716 -0.2024
 5299SOL     OW20961   5.195   4.181   1.980  0.2372 -0.2525  0.2486
 5299SOL    HW220962   5.282   4.202   2.013  0.0011  0.2952  0.5428
 5299SOL    HW320963   5.181   4.244   1.909  0.1491 -0.4463  0.0938
 5299SOL    MW420964   5.204   4.192   1.975  0.1944 -0.2058  0.2670
 5300SOL     OW20965   2.689   3.856   4.519  0.0767 -0.2096  0.2626
 5300SOL    HW220966   2.677   3.916   4.593 -0.3762  1.3171 -0.9735
 5300SOL    HW320967   2.713   3.773   4.559  2.4779  1.1940  2.0381
 5300SOL    MW420968   2.691   3.853   4.534  0.3337  0.1770  0.3338
 5301SOL     OW20969   3.060   4.788   4.648 -0.3744  0.4164  0.0197
 5301SOL    HW220970   3.019   4.775   4.563 -1.8531 -0.3513  0.8008
 5301SOL    HW320971   3.154   4.783   4.631 -0.5831  1.6874 -1.7623
 5301SOL    MW420972   3.067   4.786   4.635 -0.5970  0.4828 -0.1123
 5302SOL     OW20973   0.619   0.195   5.842 -0.2225  0.1274 -0.5184
 5302SOL    HW220974   0.598   0.212   5.934  1.1686  1.1523 -0.3345
 5302SOL    HW320975   0.580   0.110   5.822  0.8336 -0.8972  1.5152
 5302SOL    MW420976   0.611   0.186   5.851  0.1004  0.1274 -0.2258
 5303SOL     OW20977   6.035   0.761   5.373 -0.4992  0.1585 -0.4242
 5303SOL    HW220978   6.107   0.823   5.362  0.1639 -0.3785  0.7481
 5303SOL    HW320979   6.074   0.684   5.414 -1.8328  0.0903  0.8117
 5303SOL    MW420980   6.049   0.759   5.377 -0.5877  0.0787 -0.1065
 5304SOL     OW20981   1.943   0.586   3.902 -0.2910 -0.4281 -0.4552
 5304SOL    HW220982   1.926   0.522   3.833 -1.4777  0.8865 -1.4367
 5304SOL    HW320983   1.865   0.642   3.903  0.3729  0.5294  0.8949
 5304SOL    MW420984   1.931   0.585   3.893 -0.3600 -0.1284 -0.4065
 5305SOL     OW20985   5.178   1.468   2.612 -0.7463 -0.1810 -0.2799
 5305SOL    HW220986   5.140   1.535   2.554  0.8927  0.1444 -1.0668
 5305SOL    HW320987   5.103   1.424   2.651 -1.8932  1.4129 -0.5662
 5305SOL    MW420988   5.163   1.471   2.609 -0.6814  0.0723 -0.4215
 5306SOL     OW20989   2.371   0.923   3.571  0.5698 -0.0672  0.1669
 5306SOL    HW220990   2.388   1.001   3.624  2.1123 -0.0157 -0.3348
 5306SOL    HW320991   2.293   0.883   3.610  1.4979  0.1015  2.3365
 5306SOL    MW420992   2.363   0.928   3.583  0.8957 -0.0381  0.3870
 5307SOL     OW20993   3.082   4.437   3.566 -0.0003  0.1482 -0.0872
 5307SOL    HW220994   3.146   4.443   3.637  0.8425  0.5960 -0.8543
 5307SOL    HW320995   3.133   4.407   3.491 -1.1601 -1.8204 -0.1632
 5307SOL    MW420996   3.097   4.434   3.565 -0.0421 -0.0525 -0.1984
 5308SOL     OW20997   4.728   4.405   3.223 -0.5333  0.0445  0.0611
 5308SOL    HW220998   4.652   4.390   3.279  0.2901  1.5429  1.6973
 5308SOL    HW320999   4.794   4.440   3.283  0.9723  0.0958 -1.5733
 5308SOL    MW421000   4.727   4.408   3.238 -0.2260  0.2489  0.0613
 5309SOL     OW21001   0.503   1.022   5.212 -0.1012 -0.1904  0.0702
 5309SOL    HW221002   0.578   0.965   5.228  1.3301  1.4244 -0.6112
 5309SOL    HW321003   0.456   0.980   5.141 -0.3035 -1.6258  1.0152
 5309SOL    MW421004   0.507   1.009   5.205  0.0609 -0.1667  0.1050
 5310SOL     OW21005   5.108   4.438   3.456  0.3915 -0.6051  0.3530
 5310SOL    HW221006   5.098   4.417   3.363  0.6546 -1.3157  0.4855
 5310SOL    HW321007   5.169   4.512   3.456 -0.6842  0.3390 -0.1152
 5310SOL    MW421008   5.114   4.445   3.443  0.2843 -0.5743  0.3087
 5311SOL     OW21009   6.021   4.624   2.558  0.3015 -0.5063  0.0229
 5311SOL    HW221010   6.069   4.569   2.496  0.8499 -0.7124  0.6133
 5311SOL    HW321011   5.980   4.562   2.618 -0.2700 -0.3092 -0.1642
 5311SOL    MW421012   6.022   4.609   2.558  0.2985 -0.5075  0.0761
 5312SOL     OW21013   3.691   0.113   1.353 -0.0462 -0.3879  0.7744
 5312SOL    HW221014   3.622   0.174   1.327  0.0546 -0.2897  0.7341
 5312SOL    HW321015   3.741   0.098   1.273 -0.8548 -1.5640  0.4616
 5312SOL    MW421016   3.688   0.119   1.339 -0.1396 -0.5301  0.7278
 5313SOL     OW21017   3.561   2.043   2.927  0.7833 -0.0928  0.2758
 5313SOL    HW221018   3.641   1.990   2.928 -0.3487 -1.9708 -1.6442
 5313SOL    HW321019   3.593   2.133   2.936  3.1691 -0.7353 -0.7796
 5313SOL    MW421020   3.576   2.048   2.928  0.9487 -0.4253 -0.1167
 5314SOL     OW21021   5.207   3.478   0.170 -0.3345  0.1776  0.1288
 5314SOL    HW221022   5.294   3.511   0.150 -0.9901  1.2130 -1.1961
 5314SOL    HW321023   5.166   3.546   0.224 -0.0966 -0.6282  1.3581
 5314SOL    MW421024   5.213   3.491   0.175 -0.3896  0.2079  0.1162
 5315SOL     OW21025   0.913   1.069   6.364 -0.0523  0.1348 -0.0542
 5315SOL    HW221026   0.931   0.976   6.354 -1.9245 -0.0879 -2.1363
 5315SOL    HW321027   0.928   1.106   6.277 -1.9317  1.2201  0.0223
 5315SOL    MW421028   0.917   1.062   6.351 -0.5473  0.2486 -0.3188
 5316SOL     OW21029   5.295   0.106   1.604  0.3602  0.3328 -0.2913
 5316SOL    HW221030   5.308   0.144   1.517 -0.7727  0.3224 -0.4743
 5316SOL    HW321031   5.228   0.161   1.644  1.6977  1.0579  1.0443
 5316SOL    MW421032   5.288   0.118   1.598  0.3872  0.4271 -0.1393
 5317SOL     OW21033   6.146   5.290   2.480  0.2562 -0.8388 -0.3086
 5317SOL    HW221034   6.190   5.287   2.564  1.7532 -0.3629 -1.0409
 5317SOL    HW321035   6.168   5.207   2.437 -1.3708 -1.5536  0.1467
 5317SOL    MW421036   6.155   5.279   2.485  0.2390 -0.8704 -0.3451
 5318SOL     OW21037   1.569   2.779   2.280 -0.4537  0.5413  0.3913
 5318SOL    HW221038   1.633   2.709   2.295 -0.1781  1.1899  2.6377
 5318SOL    HW321039   1.488   2.733   2.260  0.2894 -0.3411 -0.6820
 5318SOL    MW421040   1.567   2.763   2.279 -0.3193  0.5105  0.5461
 5319SOL     OW21041   3.119   3.810   0.111  0.1876  0.4132 -0.2181
 5319SOL    HW221042   3.079   3.772   0.034 -1.9145  1.1463  0.4578
 5319SOL    HW321043   3.114   3.741   0.178 -1.2223  0.9493  0.2515
 5319SOL    MW421044   3.113   3.796   0.110 -0.2758  0.5806 -0.0670
 5320SOL     OW21045   1.670   2.831   5.544  0.0897  0.5501 -0.2870
 5320SOL    HW221046   1.601   2.792   5.491 -1.0230  1.4434  0.4714
 5320SOL    HW321047   1.705   2.759   5.596 -1.2358  0.3289  0.3449
 5320SOL    MW421048   1.666   2.817   5.544 -0.2320  0.6388 -0.1035
 5321SOL     OW21049   4.951   3.307   0.479 -0.5473 -0.1205  0.1518
 5321SOL    HW221050   4.977   3.218   0.457 -1.2793 -0.7465  1.6566
 5321SOL    HW321051   4.932   3.348   0.395  0.7564 -1.0630 -0.6361
 5321SOL    MW421052   4.952   3.301   0.465 -0.4719 -0.3275  0.2464
 5322SOL     OW21053   1.748   5.161   1.822 -0.2976  0.8242  0.0601
 5322SOL    HW221054   1.722   5.192   1.909 -0.7076  1.3423 -0.2388
 5322SOL    HW321055   1.769   5.241   1.773  0.8093  0.4875 -0.0510
 5322SOL    MW421056   1.748   5.176   1.827 -0.2056  0.8481  0.0060
 5323SOL     OW21057   0.190   0.069   1.918 -0.8918  0.0713  0.1643
 5323SOL    HW221058   0.133  -0.001   1.949 -1.1966  0.1862 -0.1311
 5323SOL    HW321059   0.151   0.149   1.954 -1.3433  0.2237 -0.6376
 5323SOL    MW421060   0.177   0.070   1.927 -0.9916  0.1066  0.0196
 5324SOL     OW21061   4.826   4.695   0.074 -0.1593 -0.0302 -0.2775
 5324SOL    HW221062   4.830   4.790   0.085 -0.0830 -0.1054  0.3973
 5324SOL    HW321063   4.874   4.660   0.149  0.7412 -0.5829 -1.0900
 5324SOL    MW421064   4.833   4.703   0.086 -0.0304 -0.1130 -0.2957
 5325SOL     OW21065   0.603   5.254   3.254  0.1754 -0.2924 -0.2195
 5325SOL    HW221066   0.547   5.286   3.184 -0.4533  2.7037  1.4870
 5325SOL    HW321067   0.692   5.279   3.227  0.2176 -1.1340 -0.9091
 5325SOL    MW421068   0.607   5.261   3.241  0.0980 -0.0081 -0.0853
 5326SOL     OW21069   1.038   1.184   5.865  0.0098  0.5937  0.5365
 5326SOL    HW221070   1.063   1.167   5.774  0.9685  1.3666  0.6406
 5326SOL    HW321071   1.082   1.116   5.915 -0.4121  0.2476  0.4487
 5326SOL    MW421072   1.047   1.172   5.859  0.0806  0.6500  0.5386
 5327SOL     OW21073   5.696   5.690   6.331 -0.4582  0.0407  0.1464
 5327SOL    HW221074   5.692   5.694   6.236  0.7289 -0.0631  0.0840
 5327SOL    HW321075   5.702   5.597   6.352  0.6239  0.1195  0.2453
 5327SOL    MW421076   5.696   5.678   6.321 -0.1588  0.0374  0.1512
 5328SOL     OW21077   5.451   3.570   1.544 -0.1223  0.6328  0.0173
 5328SOL    HW221078   5.486   3.658   1.529  1.0221  0.2861  0.5884
 5328SOL    HW321079   5.514   3.511   1.504 -0.3325  0.0191  0.5606
 5328SOL    MW421080   5.464   3.574   1.537  0.0009  0.5061  0.1643
 5329SOL     OW21081   5.487   1.663   6.293 -0.0071  0.1524  0.1000
 5329SOL    HW221082   5.461   1.659   6.201 -1.2908  0.7946  0.4182
 5329SOL    HW321083   5.575   1.624   6.295  0.2649  0.6213 -1.4775
 5329SOL    MW421084   5.495   1.657   6.281 -0.1406  0.2990 -0.0662
 5330SOL     OW21085   3.715   4.149   2.208  0.4730 -0.5054  0.0868
 5330SOL    HW221086   3.802   4.115   2.229  0.6970  0.8900  1.6868
 5330SOL    HW321087   3.657   4.074   2.217  1.4285 -1.3131 -0.3556
 5330SOL    MW421088   3.719   4.135   2.212  0.6287 -0.4279  0.2396
 5331SOL     OW21089   1.756   5.930   4.163 -0.6783  0.4551 -0.1690
 5331SOL    HW221090   1.679   5.921   4.220 -0.7873  0.0722 -0.3670
 5331SOL    HW321091   1.753   5.852   4.108  0.9643 -0.6063  1.1510
 5331SOL    MW421092   1.745   5.918   4.163 -0.4760  0.2646 -0.0210
 5332SOL     OW21093   1.083   5.640   1.791  0.1626 -0.0591  0.2046
 5332SOL    HW221094   1.149   5.697   1.831  0.3222 -0.4616  0.5242
 5332SOL    HW321095   1.109   5.552   1.817  0.4822 -0.3697 -1.1006
 5332SOL    MW421096   1.095   5.636   1.800  0.2258 -0.1532  0.0745
 5333SOL     OW21097   0.986   4.431   0.091 -0.5069  0.0356 -0.0201
 5333SOL    HW221098   0.954   4.349   0.130  0.9104 -0.8158 -0.5477
 5333SOL    HW321099   0.924   4.449   0.019 -1.7313  0.3015  1.0701
 5333SOL    MW421100   0.973   4.422   0.086 -0.4815 -0.0417  0.0541
 5334SOL     OW21101   1.896   4.385   4.872  0.2618  0.2190 -0.4265
 5334SOL    HW221102   1.801   4.390   4.883  0.2151 -0.0962 -0.6464
 5334SOL    HW321103   1.930   4.373   4.960 -0.0334 -1.4010 -0.5047
 5334SOL    MW421104   1.888   4.384   4.885  0.2167 -0.0363 -0.4659
 5335SOL     OW21105   3.839   5.313   4.611 -0.1643  0.4217 -0.3631
 5335SOL    HW221106   3.810   5.307   4.702 -0.2483 -0.9392 -0.4554
 5335SOL    HW321107   3.793   5.388   4.575 -0.9043  0.3623  0.4425
 5335SOL    MW421108   3.829   5.322   4.618 -0.2730  0.2343 -0.2690
 5336SOL     OW21109   5.906   0.266   2.545 -0.3577 -0.0288 -0.0570
 5336SOL    HW221110   5.893   0.325   2.619 -1.2183  0.3690 -0.5126
 5336SOL    HW321111   5.923   0.181   2.585 -0.0840  0.3269  0.5960
 5336SOL    MW421112   5.907   0.262   2.560 -0.4352  0.0706 -0.0309
 5337SOL     OW21113   1.055   5.646   5.717 -0.0687 -0.0186 -0.1691
 5337SOL    HW221114   1.147   5.655   5.740  0.3895 -2.6207 -0.6794
 5337SOL    HW321115   1.021   5.580   5.778 -1.1950 -0.1748 -0.9340
 5337SOL    MW421116   1.062   5.638   5.728 -0.1568 -0.3825 -0.3373
 5338SOL     OW21117   1.064   3.490   5.239  0.0956  0.2527  0.3087
 5338SOL    HW221118   1.147   3.522   5.205  0.3551  0.5415  1.1924
 5338SOL    HW321119   1.081   3.471   5.332 -0.8391  0.3915  0.5181
 5338SOL    MW421120   1.077   3.491   5.247  0.0065  0.3091  0.4529
 5339SOL     OW21121   1.478   3.643   5.581 -0.0027 -0.1617  0.1910
 5339SOL    HW221122   1.569   3.657   5.554 -0.4842 -0.3099 -1.6605
 5339SOL    HW321123   1.443   3.731   5.595  0.4022 -0.1034  0.8947
 5339SOL    MW421124   1.485   3.656   5.579 -0.0128 -0.1736  0.0395
 5340SOL     OW21125   1.637   2.364   1.993 -0.0318  0.2754 -0.2518
 5340SOL    HW221126   1.593   2.387   2.075  0.6974  1.6631 -0.2238
 5340SOL    HW321127   1.662   2.448   1.955  0.4621 -0.3929 -1.4491
 5340SOL    MW421128   1.634   2.378   1.999  0.1296  0.3703 -0.4061
 5341SOL     OW21129   2.283   2.120   2.637 -0.0459 -0.8051 -0.4769
 5341SOL    HW221130   2.287   2.048   2.700  1.7250 -1.5845 -1.3982
 5341SOL    HW321131   2.338   2.188   2.676 -0.4616 -0.5486 -0.3303
 5341SOL    MW421132   2.291   2.120   2.651  0.1329 -0.8741 -0.5791
 5342SOL     OW21133   1.067   1.123   0.680  0.1431 -0.6277 -0.1725
 5342SOL    HW221134   1.096   1.098   0.768 -1.9287  0.3544  0.8453
 5342SOL    HW321135   1.064   1.219   0.682  0.7732 -0.5641 -1.5694
 5342SOL    MW421136   1.070   1.132   0.692 -0.0471 -0.4898 -0.2225
 5343SOL     OW21137   5.360   2.971   2.900  0.1525 -0.4383  0.3880
 5343SOL    HW221138   5.343   3.063   2.882  0.0124 -0.4909  0.2378
 5343SOL    HW321139   5.282   2.941   2.947  0.4448 -0.3437  0.9376
 5343SOL    MW421140   5.347   2.979   2.904  0.1726 -0.4327  0.4407
 5344SOL     OW21141   2.681   5.914   2.379 -0.0704  0.0033 -0.3774
 5344SOL    HW221142   2.627   5.988   2.351  0.9153  2.1102  2.7214
 5344SOL    HW321143   2.621   5.840   2.383 -1.3699  0.8594 -2.4038
 5344SOL    MW421144   2.666   5.914   2.375 -0.1118  0.3943 -0.2359
 5345SOL     OW21145   2.823   2.733   5.821  0.4004  0.1152  0.5149
 5345SOL    HW221146   2.821   2.828   5.831  0.6833  0.0937  0.7874
 5345SOL    HW321147   2.782   2.700   5.900 -1.7225  0.0500 -0.5406
 5345SOL    MW421148   2.818   2.741   5.832  0.1576  0.1038  0.4116
 5346SOL     OW21149   3.099   5.657   2.713 -0.0026  0.2443  0.5175
 5346SOL    HW221150   3.135   5.622   2.795  0.2720  1.0229  0.7447
 5346SOL    HW321151   3.065   5.743   2.737  0.8739  0.8612 -0.3545
 5346SOL    MW421152   3.100   5.664   2.727  0.1493  0.4284  0.4324
 5347SOL     OW21153   3.689   5.491   3.006 -0.0442 -0.0406 -0.1578
 5347SOL    HW221154   3.768   5.495   3.060 -0.9959 -0.0617  1.3132
 5347SOL    HW321155   3.664   5.582   2.994  1.2763  0.0913 -2.3612
 5347SOL    MW421156   3.696   5.503   3.012  0.0045 -0.0260 -0.2544
 5348SOL     OW21157   2.731   1.157   4.763 -0.0444 -0.1286 -0.3124
 5348SOL    HW221158   2.642   1.139   4.732 -1.5227  0.5602  3.0372
 5348SOL    HW321159   2.786   1.092   4.718 -2.6395 -2.3252 -0.5814
 5348SOL    MW421160   2.727   1.146   4.753 -0.5819 -0.3275  0.0941
 5349SOL     OW21161   0.286   0.881   3.456 -0.3358 -0.2899  0.4273
 5349SOL    HW221162   0.352   0.816   3.480  2.3287  1.8875 -0.4331
 5349SOL    HW321163   0.300   0.953   3.518 -0.2179  1.2104 -1.2577
 5349SOL    MW421164   0.297   0.882   3.467  0.0313  0.1953  0.0915
 5350SOL     OW21165   1.260   0.553   2.903  0.5878  0.1985 -0.3402
 5350SOL    HW221166   1.227   0.616   2.840 -1.0885  0.0193  0.3184
 5350SOL    HW321167   1.303   0.606   2.970 -0.4459  0.6135 -0.0036
 5350SOL    MW421168   1.262   0.568   2.904  0.2302  0.2296 -0.2089
 5351SOL     OW21169   1.477   1.637   5.748 -0.9646  0.1847 -0.2700
 5351SOL    HW221170   1.565   1.622   5.782 -1.3500  1.4466  1.4056
 5351SOL    HW321171   1.490   1.656   5.655  0.7640  2.2195  0.3176
 5351SOL    MW421172   1.490   1.637   5.740 -0.7874  0.6197  0.0286
 5352SOL     OW21173   5.706   6.163   3.035 -0.2391  0.1086 -0.1526
 5352SOL    HW221174   5.688   6.198   3.122 -1.4111  2.0912 -1.1029
 5352SOL    HW321175   5.799   6.183   3.020  0.5576 -2.1189  1.3719
 5352SOL    MW421176   5.716   6.170   3.044 -0.2886  0.0763 -0.0768
 5353SOL     OW21177   4.693   4.306   0.876 -0.3304 -0.0500  0.1546
 5353SOL    HW221178   4.760   4.339   0.935 -0.0434  0.7499 -0.5838
 5353SOL    HW321179   4.612   4.347   0.906 -0.2223  0.1896  0.1220
 5353SOL    MW421180   4.691   4.315   0.887 -0.2783  0.0872  0.0529
 5354SOL     OW21181   5.749   6.318   0.021 -0.1758  0.4826 -0.5085
 5354SOL    HW221182   5.773   6.408  -0.000  1.3909  0.7208  1.9434
 5354SOL    HW321183   5.653   6.316   0.012 -0.4242  2.8519  0.8168
 5354SOL    MW421184   5.739   6.330   0.017 -0.0019  0.8267 -0.0102
 5355SOL     OW21185   2.177   4.688   3.197 -0.2901  0.2502  0.0352
 5355SOL    HW221186   2.096   4.639   3.186 -1.0366  1.5431 -0.5245
 5355SOL    HW321187   2.211   4.661   3.282 -2.3223  1.0975  1.1648
 5355SOL    MW421188   2.171   4.678   3.207 -0.6567  0.5326  0.1104
 5356SOL     OW21189   2.008   4.944   1.124 -0.3300 -0.1542 -0.0578
 5356SOL    HW221190   2.064   4.962   1.049 -0.4141  2.0390  0.3446
 5356SOL    HW321191   1.984   4.852   1.115  0.9714 -0.3614 -1.8126
 5356SOL    MW421192   2.012   4.934   1.113 -0.1694  0.1078 -0.2363
 5357SOL     OW21193   1.385   4.314   2.517 -0.0077 -0.3736 -0.0426
 5357SOL    HW221194   1.441   4.315   2.594 -1.7652 -1.4322  1.3223
 5357SOL    HW321195   1.385   4.405   2.486 -1.0147  0.6330  2.5836
 5357SOL    MW421196   1.392   4.326   2.523 -0.3724 -0.3805  0.4840
 5358SOL     OW21197   5.819   0.510   4.286  0.0816 -0.1847 -0.0205
 5358SOL    HW221198   5.849   0.566   4.214 -1.2337  1.4123  0.6028
 5358SOL    HW321199   5.881   0.527   4.357  0.4997 -0.6003 -0.2825
 5358SOL    MW421200   5.831   0.520   4.286 -0.0368 -0.0289  0.0271
 5359SOL     OW21201   3.516   2.305   5.553 -0.1820 -0.2929 -0.5430
 5359SOL    HW221202   3.426   2.275   5.541 -0.4895 -0.1968  1.2572
 5359SOL    HW321203   3.546   2.260   5.632  1.2038  0.0340 -0.8545
 5359SOL    MW421204   3.508   2.295   5.562 -0.0397 -0.2371 -0.3466
 5360SOL     OW21205   0.146   5.519   6.428 -0.7077  0.3084 -0.0802
 5360SOL    HW221206   0.162   5.446   6.369 -0.0264  1.1574 -0.9578
 5360SOL    HW321207   0.231   5.537   6.469 -0.7539  0.9414 -0.2544
 5360SOL    MW421208   0.159   5.512   6.426 -0.6239  0.5040 -0.2190
 5361SOL     OW21209   2.602   4.869   5.377 -0.2384 -0.4546 -0.4571
 5361SOL    HW221210   2.657   4.885   5.454 -0.3668 -2.9294  0.2431
 5361SOL    HW321211   2.654   4.901   5.303  0.6927  0.2857  0.4930
 5361SOL    MW421212   2.616   4.875   5.377 -0.1325 -0.6835 -0.2394
 5362SOL     OW21213   3.580   3.739   0.244  0.3816  0.0963  0.1161
 5362SOL    HW221214   3.508   3.681   0.219  0.9319 -0.6233  0.1404
 5362SOL    HW321215   3.611   3.703   0.328  2.1455 -0.9567 -0.9241
 5362SOL    MW421216   3.575   3.726   0.252  0.6870 -0.1375 -0.0180
 5363SOL     OW21217   3.092   0.037   5.643  0.4920 -0.9097 -0.0251
 5363SOL    HW221218   3.090   0.061   5.736  1.2643 -1.1875  0.0671
 5363SOL    HW321219   3.122   0.116   5.598 -0.2722 -0.6467 -0.0903
 5363SOL    MW421220   3.095   0.050   5.649  0.4931 -0.9117 -0.0215
 5364SOL     OW21221   0.646   5.166   5.992  0.1471 -0.0513 -0.0805
 5364SOL    HW221222   0.687   5.206   6.069 -0.3063  1.0071 -0.3677
 5364SOL    HW321223   0.623   5.078   6.020  0.2642  0.2165  0.8992
 5364SOL    MW421224   0.649   5.160   6.006  0.1027  0.1237  0.0108
 5365SOL     OW21225   6.168   4.559   0.876 -0.0566 -0.2037 -0.0384
 5365SOL    HW221226   6.166   4.464   0.866 -1.1674 -0.3168  1.0190
 5365SOL    HW321227   6.194   4.573   0.967  0.8785  0.5457 -0.3940
 5365SOL    MW421228   6.172   4.549   0.887 -0.0798 -0.1197  0.0542
 5366SOL     OW21229   1.036   0.861   5.609  0.3625  0.4438  0.0530
 5366SOL    HW221230   1.023   0.801   5.535 -0.7841 -0.8058  1.2039
 5366SOL    HW321231   1.102   0.817   5.663  1.3137  1.4321 -0.2701
 5366SOL    MW421232   1.043   0.847   5.606  0.3367  0.4093  0.1622
 5367SOL     OW21233   1.901   2.908   5.937 -0.4134  0.3134  0.1450
 5367SOL    HW221234   1.841   2.982   5.938 -2.3385 -1.1525  1.7977
 5367SOL    HW321235   1.923   2.893   6.029  1.7520  0.1757 -0.3305
 5367SOL    MW421236   1.896   2.916   5.949 -0.3817  0.1018  0.3003
 5368SOL     OW21237   3.647   4.788   1.605  0.1610 -0.4697  0.0592
 5368SOL    HW221238   3.656   4.846   1.529  1.0054 -2.2837 -1.3014
 5368SOL    HW321239   3.572   4.823   1.653 -0.2244  0.9127 -1.4658
 5368SOL    MW421240   3.638   4.800   1.601  0.2216 -0.5267 -0.3215
 5369SOL     OW21241   1.201   2.438   2.168  0.1683  0.7688  0.1049
 5369SOL    HW221242   1.226   2.395   2.086 -1.4389  0.6972 -0.3676
 5369SOL    HW321243   1.122   2.488   2.147  0.0270  1.1751  1.4874
 5369SOL    MW421244   1.194   2.439   2.154 -0.0624  0.8129  0.2250
 5370SOL     OW21245   2.477   3.165   0.249  0.4705 -0.3636 -0.1969
 5370SOL    HW221246   2.515   3.088   0.207  1.0710 -0.6450  0.8420
 5370SOL    HW321247   2.405   3.191   0.191 -0.2942 -2.2107 -0.1373
 5370SOL    MW421248   2.473   3.159   0.236  0.4488 -0.6444 -0.0519
 5371SOL     OW21249   1.477   4.939   3.530  0.3212 -0.1224  0.0064
 5371SOL    HW221250   1.442   4.920   3.443 -0.1848  1.2291 -0.1035
 5371SOL    HW321251   1.404   4.924   3.590  0.1674  0.5931  0.0075
 5371SOL    MW421252   1.463   4.934   3.526  0.2342  0.1504 -0.0079
 5372SOL     OW21253   5.098   0.693   1.921  0.3601  0.1627 -0.4612
 5372SOL    HW221254   5.068   0.762   1.862 -0.4464 -1.3075 -1.8818
 5372SOL    HW321255   5.040   0.619   1.902 -1.2820  0.1357  3.5702
 5372SOL    MW421256   5.086   0.692   1.911  0.0370 -0.0348 -0.1168
 5373SOL     OW21257   4.935   4.539   2.785 -0.3156 -0.2036  0.0241
 5373SOL    HW221258   4.848   4.520   2.751 -0.4383  0.0920  0.1596
 5373SOL    HW321259   4.950   4.631   2.763  0.1623 -0.3850 -0.4186
 5373SOL    MW421260   4.925   4.549   2.778 -0.2687 -0.1885 -0.0164
 5374SOL     OW21261   0.300   0.264   2.411 -0.6136 -0.3113 -0.5950
 5374SOL    HW221262   0.299   0.192   2.349  0.2802 -1.4598  0.6526
 5374SOL    HW321263   0.217   0.310   2.397 -1.0211 -1.3469 -1.6876
 5374SOL    MW421264   0.289   0.261   2.401 -0.5495 -0.5995 -0.5746
 5375SOL     OW21265   6.177   5.833   4.943 -0.3357 -0.2168  0.5026
 5375SOL    HW221266   6.215   5.917   4.968  1.0686 -0.4240 -0.7883
 5375SOL    HW321267   6.084   5.851   4.928 -0.7276  0.4396  3.1438
 5375SOL    MW421268   6.170   5.846   4.944 -0.2021 -0.1575  0.6808
 5376SOL     OW21269   4.008   3.489   2.170  0.1042  0.8821  0.2880
 5376SOL    HW221270   3.997   3.578   2.138 -0.5059  0.3523 -1.0330
 5376SOL    HW321271   4.019   3.436   2.091  1.4295 -0.1015  1.0845
 5376SOL    MW421272   4.008   3.494   2.155  0.1985  0.6824  0.2188
 5377SOL     OW21273   2.993   0.601   1.747  0.0637  0.0897  0.3007
 5377SOL    HW221274   2.905   0.636   1.763  0.8022  1.5663  1.3491
 5377SOL    HW321275   2.996   0.520   1.797 -1.3444 -1.0552 -1.3499
 5377SOL    MW421276   2.982   0.595   1.756 -0.0246  0.1335  0.2212
 5378SOL     OW21277   3.921   0.129   3.345 -0.6598  0.3755 -0.8859
 5378SOL    HW221278   4.002   0.133   3.397 -1.1461 -0.9341  0.0406
 5378SOL    HW321279   3.949   0.106   3.257  0.0205  0.2752 -0.6464
 5378SOL    MW421280   3.935   0.126   3.341 -0.6342  0.1895 -0.7320
 5379SOL     OW21281   4.945   2.345   3.715  0.0051  0.1323 -0.2640
 5379SOL    HW221282   4.904   2.258   3.709  0.7107 -0.2486  0.2323
 5379SOL    HW321283   5.039   2.327   3.709  0.2839  0.6279  1.8169
 5379SOL    MW421284   4.952   2.331   3.713  0.1350  0.1474  0.0760
 5380SOL     OW21285   6.233   0.832   1.399  0.5118  0.6810 -0.1352
 5380SOL    HW221286   6.203   0.775   1.329 -0.7246  1.9387 -0.6727
 5380SOL    HW321287   6.191   0.798   1.478  0.3824  0.4160 -0.3194
 5380SOL    MW421288   6.224   0.820   1.400  0.3316  0.8120 -0.2304
 5381SOL     OW21289   4.671   1.041   0.800 -0.2302 -0.4190  0.2262
 5381SOL    HW221290   4.579   1.020   0.820 -0.7134 -0.0212 -1.4380
 5381SOL    HW321291   4.684   1.007   0.712  0.6152  1.3246 -0.3518
 5381SOL    MW421292   4.660   1.034   0.791 -0.1824 -0.1365 -0.0697
 5382SOL     OW21293   2.374   4.749   2.992 -0.1933 -0.3172 -0.0931
 5382SOL    HW221294   2.304   4.739   3.056 -1.0262 -2.3229 -1.2064
 5382SOL    HW321295   2.333   4.795   2.919 -0.1070 -0.6655 -0.3655
 5382SOL    MW421296   2.359   4.753   2.991 -0.2918 -0.6278 -0.2759
 5383SOL     OW21297   2.312   6.121   6.142  0.2033 -0.7181  0.7455
 5383SOL    HW221298   2.369   6.170   6.201  1.4128 -0.8120 -0.2931
 5383SOL    HW321299   2.297   6.180   6.068  1.8483 -1.8728 -0.6230
 5383SOL    MW421300   2.318   6.135   6.140  0.5799 -0.8828  0.4279
 5384SOL     OW21301   1.549   6.172   3.400 -0.0272 -0.1409  0.1197
 5384SOL    HW221302   1.635   6.161   3.442  0.1612  1.7127  0.3009
 5384SOL    HW321303   1.506   6.241   3.451 -1.5608 -0.8962 -0.1013
 5384SOL    MW421304   1.555   6.180   3.412 -0.2046  0.0040  0.1145
 5385SOL     OW21305   0.743   4.739   0.612 -0.8612  0.2069 -0.3912
 5385SOL    HW221306   0.788   4.668   0.659 -1.3298  0.0077 -0.2324
 5385SOL    HW321307   0.678   4.771   0.675 -1.5187 -0.0832 -0.9173
 5385SOL    MW421308   0.741   4.734   0.627 -1.0098  0.1423 -0.4396
 5386SOL     OW21309   1.130   2.472   3.818  0.5244  0.1361  0.3752
 5386SOL    HW221310   1.221   2.445   3.804  1.1349  1.7788  0.9314
 5386SOL    HW321311   1.123   2.484   3.913 -0.5138 -0.7094  0.4255
 5386SOL    MW421312   1.141   2.470   3.828  0.4680  0.2413  0.4552
 5387SOL     OW21313   5.232   5.715   1.179 -0.0389  0.3483  0.3310
 5387SOL    HW221314   5.200   5.792   1.131 -0.4030 -0.2207 -0.3549
 5387SOL    HW321315   5.243   5.648   1.112  0.4419 -0.1501  0.9013
 5387SOL    MW421316   5.229   5.717   1.164 -0.0235  0.2074  0.3158
 5388SOL     OW21317   1.908   2.072   1.267 -0.8255 -0.3184 -0.3884
 5388SOL    HW221318   1.909   2.145   1.329 -0.5926  0.0346 -0.8033
 5388SOL    HW321319   1.817   2.069   1.235 -1.2737 -1.3044  0.8933
 5388SOL    MW421320   1.896   2.081   1.271 -0.8539 -0.4019 -0.2740
 5389SOL     OW21321   4.715   3.935   3.751  0.5387 -0.1108  0.1123
 5389SOL    HW221322   4.723   4.031   3.755  1.1367 -0.1832  0.7798
 5389SOL    HW321323   4.703   3.916   3.658  1.8316  0.5124 -0.2042
 5389SOL    MW421324   4.715   3.945   3.739  0.7882 -0.0381  0.1586
 5390SOL     OW21325   3.257   0.073   5.286 -0.0832  0.3142  0.5046
 5390SOL    HW221326   3.242   0.157   5.331  0.2930  0.3750  0.5198
 5390SOL    HW321327   3.345   0.047   5.314 -0.8467 -0.9337  1.8516
 5390SOL    MW421328   3.267   0.081   5.296 -0.1343  0.1576  0.6843
 5391SOL     OW21329   1.248   4.762   0.887 -0.3343  0.1886 -0.4229
 5391SOL    HW221330   1.268   4.701   0.816 -1.7274  1.1035 -1.6465
 5391SOL    HW321331   1.281   4.718   0.965 -0.7918 -1.8827 -1.3275
 5391SOL    MW421332   1.255   4.748   0.888 -0.5785  0.0360 -0.7037
 5392SOL     OW21333   1.546   3.170   2.744  0.4281  0.2998 -0.0225
 5392SOL    HW221334   1.607   3.242   2.760  0.8242  0.1193 -0.6770
 5392SOL    HW321335   1.599   3.102   2.701  0.1486 -0.5293  0.8992
 5392SOL    MW421336   1.561   3.170   2.740  0.4435  0.1666  0.0128
 5393SOL     OW21337   5.939   5.481   0.355 -0.3219 -0.2226  0.7825
 5393SOL    HW221338   6.004   5.499   0.287 -0.5620 -0.5224  0.4763
 5393SOL    HW321339   5.973   5.405   0.401 -1.5894 -1.8484 -0.8509
 5393SOL    MW421340   5.952   5.474   0.352 -0.5208 -0.4766  0.5266
 5394SOL     OW21341   2.488   2.396   5.515 -0.3002  0.1489  0.2742
 5394SOL    HW221342   2.469   2.323   5.456  1.4755 -0.1465  0.0203
 5394SOL    HW321343   2.576   2.424   5.491  0.0723  0.6839  2.0984
 5394SOL    MW421344   2.497   2.390   5.504 -0.0167  0.1805  0.4814
 5395SOL     OW21345   6.240   3.518   4.683  0.1174  0.1562  0.0643
 5395SOL    HW221346   6.220   3.504   4.591 -0.5065  0.3582  0.1663
 5395SOL    HW321347   6.156   3.513   4.728  0.3383  0.6330  0.5511
 5395SOL    MW421348   6.226   3.516   4.677  0.0643  0.2458  0.1420
 5396SOL     OW21349   1.849   0.287   1.173 -0.2479  0.3097 -0.0611
 5396SOL    HW221350   1.785   0.337   1.223 -0.0535  0.7729 -0.2617
 5396SOL    HW321351   1.802   0.258   1.095 -0.5162 -0.3047  0.3244
 5396SOL    MW421352   1.835   0.290   1.169 -0.2577  0.2897 -0.0367
 5397SOL     OW21353   3.185   4.763   1.319 -0.2828  0.3999  0.2366
 5397SOL    HW221354   3.148   4.679   1.346 -1.0976  0.5294 -0.4299
 5397SOL    HW321355   3.150   4.777   1.231  1.1963  0.6442 -0.3375
 5397SOL    MW421356   3.176   4.754   1.311 -0.1952  0.4492  0.0729
 5398SOL     OW21357   4.570   3.276   2.272 -0.6826  0.2290 -0.1303
 5398SOL    HW221358   4.580   3.352   2.331  0.4329 -0.5703  0.7570
 5398SOL    HW321359   4.657   3.263   2.235 -0.8409 -0.6650 -0.2112
 5398SOL    MW421360   4.583   3.285   2.275 -0.5563  0.0056 -0.0239
 5399SOL     OW21361   1.371   3.372   5.578 -0.0331 -0.4163 -0.0898
 5399SOL    HW221362   1.425   3.450   5.586 -3.3249  2.2071 -1.0775
 5399SOL    HW321363   1.367   3.336   5.667 -0.7841  2.3297  1.0764
 5399SOL    MW421364   1.378   3.377   5.591 -0.5665  0.2921 -0.0662
 5400SOL     OW21365   4.715   0.176   0.099  0.2639 -0.1142  0.0042
 5400SOL    HW221366   4.685   0.170   0.190 -0.1770  0.1537 -0.1169
 5400SOL    HW321367   4.809   0.159   0.103  0.1725 -0.5363  0.4539
 5400SOL    MW421368   4.723   0.173   0.111  0.1936 -0.1346  0.0475
 5401SOL     OW21369   4.109   4.701   2.387 -0.1039 -0.1581  0.3172
 5401SOL    HW221370   4.082   4.678   2.476 -0.2724 -0.4505  0.1923
 5401SOL    HW321371   4.169   4.774   2.398  0.8774 -1.0078  0.7642
 5401SOL    MW421372   4.113   4.708   2.400  0.0034 -0.3088  0.3597
 5402SOL     OW21373   4.322   1.219   0.937 -0.1521 -0.2443 -0.2473
 5402SOL    HW221374   4.358   1.284   0.877 -0.9114 -1.1496 -1.7311
 5402SOL    HW321375   4.350   1.135   0.901 -2.2042 -0.8949 -0.4375
 5402SOL    MW421376   4.330   1.216   0.924 -0.5230 -0.4496 -0.4682
 5403SOL     OW21377   6.071   5.551   2.843 -0.1432  0.2554 -0.5705
 5403SOL    HW221378   6.092   5.584   2.756  0.6207  0.7982 -0.1956
 5403SOL    HW321379   6.023   5.470   2.827  0.8070 -0.1531 -1.5029
 5403SOL    MW421380   6.068   5.544   2.829  0.0829  0.2731 -0.6440
 5404SOL     OW21381   2.899   5.827   3.330  0.3269 -0.2911 -0.1114
 5404SOL    HW221382   2.844   5.881   3.387  1.4148  1.0078 -0.2559
 5404SOL    HW321383   2.986   5.865   3.337  1.3774 -2.6235  0.5371
 5404SOL    MW421384   2.903   5.839   3.339  0.6090 -0.4275 -0.0449
 5405SOL     OW21385   4.562   2.927   5.286  0.0035  0.4565  0.6962
 5405SOL    HW221386   4.615   2.951   5.362  0.4357  1.0860  0.2026
 5405SOL    HW321387   4.472   2.926   5.319  0.2501  0.0464  1.3771
 5405SOL    MW421388   4.557   2.930   5.301  0.0930  0.4855  0.7209
 5406SOL     OW21389   2.606   1.256   0.548 -0.1265 -0.2436 -0.3967
 5406SOL    HW221390   2.564   1.296   0.472 -1.9648 -1.0079  0.1622
 5406SOL    HW321391   2.533   1.232   0.606  1.0671 -1.8093  0.5437
 5406SOL    MW421392   2.591   1.258   0.546 -0.2115 -0.5510 -0.1989
 5407SOL     OW21393   2.557   3.043   5.467  0.5844  0.1501 -0.5685
 5407SOL    HW221394   2.641   3.006   5.495  1.1965  2.7866  1.4433
 5407SOL    HW321395   2.492   2.994   5.516  0.9923 -1.0812 -1.2037
 5407SOL    MW421396   2.560   3.032   5.477  0.7190  0.3355 -0.3869
 5408SOL     OW21397   3.005   6.118   2.913  0.0018 -0.0746  0.6456
 5408SOL    HW221398   2.920   6.156   2.892  0.1063  0.0288  0.4033
 5408SOL    HW321399   3.068   6.188   2.892  0.1261 -0.0502  1.0884
 5408SOL    MW421400   3.002   6.133   2.907  0.0320 -0.0578  0.6720
 5409SOL     OW21401   4.382   4.980   2.712 -0.6661 -0.1243 -0.7954
 5409SOL    HW221402   4.287   4.986   2.698 -0.9378 -0.0353  0.8598
 5409SOL    HW321403   4.408   4.899   2.668 -1.5661 -0.2737 -1.0651
 5409SOL    MW421404   4.373   4.970   2.705 -0.8207 -0.1322 -0.6126
 5410SOL     OW21405   1.483   4.630   4.572  0.1255 -0.1994  0.2248
 5410SOL    HW221406   1.426   4.668   4.506  1.7700 -1.1394 -1.8578
 5410SOL    HW321407   1.540   4.702   4.600  0.9351 -0.2920 -1.1270
 5410SOL    MW421408   1.483   4.645   4.567  0.4493 -0.3357 -0.2283
 5411SOL     OW21409   0.170   4.259   0.240 -0.3496  0.0557 -0.1223
 5411SOL    HW221410   0.187   4.319   0.167 -0.4741  0.3902  0.1198
 5411SOL    HW321411   0.242   4.274   0.300 -1.6407  1.7867  1.1103
 5411SOL    MW421412   0.182   4.269   0.238 -0.5364  0.3282  0.0723
 5412SOL     OW21413   2.220   4.973   0.246 -0.5963 -0.4020 -0.2747
 5412SOL    HW221414   2.126   4.984   0.259 -0.9485 -2.4247 -0.7992
 5412SOL    HW321415   2.233   4.878   0.244  1.7481 -0.2423  1.8432
 5412SOL    MW421416   2.210   4.962   0.248 -0.3334 -0.6478 -0.0645
 5413SOL     OW21417   5.853   5.204   0.681 -0.7748 -0.2710 -0.0265
 5413SOL    HW221418   5.868   5.223   0.774  1.5180 -0.6800 -0.2515
 5413SOL    HW321419   5.814   5.284   0.646 -1.4128 -0.0132  1.2323
 5413SOL    MW421420   5.850   5.217   0.689 -0.5565 -0.2910  0.1099
 5414SOL     OW21421   0.147   3.623   1.694 -0.2153 -0.0275 -0.1565
 5414SOL    HW221422   0.216   3.591   1.751 -1.1261 -2.4648 -0.3044
 5414SOL    HW321423   0.171   3.590   1.607 -0.9719  0.0648 -0.4054
 5414SOL    MW421424   0.159   3.614   1.690 -0.4353 -0.3369 -0.2089
 5415SOL     OW21425   6.040   2.773   0.629  0.4422 -0.1648 -0.2040
 5415SOL    HW221426   6.045   2.700   0.567  1.0042 -0.4400  0.1546
 5415SOL    HW321427   6.053   2.851   0.575 -2.7657 -0.0585 -1.0500
 5415SOL    MW421428   6.042   2.774   0.614  0.0931 -0.1871 -0.2683
 5416SOL     OW21429   3.941   2.131   4.058 -0.2204 -0.1069 -0.1171
 5416SOL    HW221430   3.988   2.079   3.992 -2.1323 -1.1597 -0.7216
 5416SOL    HW321431   4.011   2.166   4.114  1.4999  0.8110 -2.6158
 5416SOL    MW421432   3.957   2.129   4.056 -0.2457 -0.1247 -0.5265
 5417SOL     OW21433   3.737   4.759   4.169  0.6428 -0.6850  0.1221
 5417SOL    HW221434   3.731   4.801   4.255 -1.1839 -0.7561  0.0572
 5417SOL    HW321435   3.772   4.827   4.112 -2.3717  0.9214 -0.0094
 5417SOL    MW421436   3.741   4.774   4.173  0.0041 -0.4824  0.0961
 5418SOL     OW21437   4.496   0.959   3.273  0.2789  0.2455 -0.6037
 5418SOL    HW221438   4.481   0.872   3.311  2.3582 -0.3543 -1.0154
 5418SOL    HW321439   4.410   0.986   3.241 -0.4918 -1.5118 -0.1723
 5418SOL    MW421440   4.482   0.951   3.274  0.4516 -0.0655 -0.6011
 5419SOL     OW21441   4.129   4.975   3.459  0.1857 -0.0093 -0.4271
 5419SOL    HW221442   4.141   4.880   3.451  0.3579 -0.0360  0.0979
 5419SOL    HW321443   4.038   4.985   3.485  0.5198 -0.1119  0.8246
 5419SOL    MW421444   4.119   4.964   3.461  0.2525 -0.0263 -0.1927
 5420SOL     OW21445   4.184   5.271   2.235 -0.0140  0.0674  0.4094
 5420SOL    HW221446   4.189   5.314   2.320 -1.0786 -0.1579  0.6058
 5420SOL    HW321447   4.266   5.294   2.191  1.0940 -0.7506  1.9285
 5420SOL    MW421448   4.196   5.279   2.241 -0.0083 -0.0702  0.6357
 5421SOL     OW21449   3.509   1.771   0.413 -0.0674  0.3244  0.0738
 5421SOL    HW221450   3.582   1.748   0.471 -0.5149 -0.1454  0.4665
 5421SOL    HW321451   3.447   1.698   0.422 -1.0811  1.2066  0.5768
 5421SOL    MW421452   3.510   1.758   0.422 -0.2602  0.3788  0.1920
 5422SOL     OW21453   5.880   2.089   4.342 -0.7317  0.0430  0.3605
 5422SOL    HW221454   5.875   2.081   4.247 -0.3191  0.8764  0.2622
 5422SOL    HW321455   5.797   2.053   4.373 -0.7910 -0.4060 -0.3011
 5422SOL    MW421456   5.868   2.084   4.333 -0.6851  0.0937  0.2603
 5423SOL     OW21457   5.661   6.246   3.293  0.0518 -0.1394  0.5733
 5423SOL    HW221458   5.734   6.210   3.344  2.3359  1.1870 -1.5125
 5423SOL    HW321459   5.647   6.333   3.328  0.3207  0.0601  0.1916
 5423SOL    MW421460   5.669   6.252   3.304  0.3886  0.0619  0.2477
 5424SOL     OW21461   1.245   1.141   1.960 -0.3353  0.4047  1.0744
 5424SOL    HW221462   1.309   1.082   1.920  0.3180  2.3366 -0.9608
 5424SOL    HW321463   1.240   1.113   2.052  1.4261 -1.4776  0.6681
 5424SOL    MW421464   1.253   1.129   1.967 -0.0167  0.4113  0.7523
 5425SOL     OW21465   5.982   3.752   0.628  0.2923 -0.2492 -0.2167
 5425SOL    HW221466   6.004   3.845   0.635 -1.1369  0.2185 -1.3003
 5425SOL    HW321467   5.945   3.729   0.714 -1.5188  0.8457 -0.6515
 5425SOL    MW421468   5.980   3.761   0.640 -0.1352 -0.0430 -0.4170
 5426SOL     OW21469   0.963   5.013   1.363  0.5034  1.1031  0.4850
 5426SOL    HW221470   0.987   4.997   1.271 -1.9675 -0.5743  0.0205
 5426SOL    HW321471   0.980   4.929   1.407 -0.0835  1.3107  1.1227
 5426SOL    MW421472   0.969   5.000   1.356  0.1000  0.9092  0.5079
 5427SOL     OW21473   4.461   1.689   5.095 -0.1428  0.2463 -0.2040
 5427SOL    HW221474   4.510   1.607   5.104 -1.1926 -0.3196  0.5254
 5427SOL    HW321475   4.517   1.754   5.137  0.0705 -0.3658  0.4899
 5427SOL    MW421476   4.475   1.687   5.102 -0.2531  0.0908 -0.0162
 5428SOL     OW21477   1.255   3.517   5.930  0.1937  0.1710  0.2306
 5428SOL    HW221478   1.335   3.555   5.896 -0.2476  0.1924 -0.8232
 5428SOL    HW321479   1.267   3.422   5.920  0.7503  0.0704  1.6237
 5428SOL    MW421480   1.267   3.509   5.925  0.2089  0.1605  0.2754
 5429SOL     OW21481   4.863   4.620   1.199 -0.7312  0.4399  0.2980
 5429SOL    HW221482   4.911   4.673   1.136  0.3870  1.2004  1.7262
 5429SOL    HW321483   4.919   4.543   1.214 -0.1339  1.0956  1.6053
 5429SOL    MW421484   4.877   4.617   1.193 -0.5049  0.6268  0.6589
 5430SOL     OW21485   2.023   2.444   4.619  0.1835 -0.1685 -0.4188
 5430SOL    HW221486   2.047   2.509   4.553  2.0069  1.2224  1.4653
 5430SOL    HW321487   2.077   2.466   4.694 -1.6072 -1.8406  1.4764
 5430SOL    MW421488   2.033   2.455   4.620  0.1878 -0.2056  0.0798
 5431SOL     OW21489   2.133   5.049   0.587 -0.7252 -0.0642 -0.2109
 5431SOL    HW221490   2.189   4.972   0.572 -0.4409  0.0218  0.3440
 5431SOL    HW321491   2.088   5.030   0.670 -1.2346  0.0343 -0.4635
 5431SOL    MW421492   2.135   5.036   0.596 -0.7549 -0.0398 -0.1710
 5432SOL     OW21493   3.103   6.390   0.658  0.2987 -0.0390  0.2725
 5432SOL    HW221494   3.110   6.314   0.715 -0.0853 -0.6346 -0.4635
 5432SOL    HW321495   3.036   6.367   0.594 -1.0277  1.5555  1.0018
 5432SOL    MW421496   3.095   6.377   0.657  0.0730  0.0928  0.2716
 5433SOL     OW21497   3.888   3.590   4.598 -0.2950 -0.3946 -0.5566
 5433SOL    HW221498   3.962   3.607   4.539  0.6520 -0.3068  0.6243
 5433SOL    HW321499   3.881   3.669   4.651 -1.2442 -0.4072 -0.6505
 5433SOL    MW421500   3.897   3.603   4.597 -0.2953 -0.3846 -0.4132
 5434SOL     OW21501   0.201   3.503   1.452 -0.4252 -0.0628  0.0518
 5434SOL    HW221502   0.147   3.539   1.382 -0.9311  1.0778  0.9915
 5434SOL    HW321503   0.291   3.518   1.422 -0.6261  0.0421 -0.5243
 5434SOL    MW421504   0.206   3.510   1.439 -0.5184  0.1015  0.0998
 5435SOL     OW21505   1.320   1.568   4.830  0.0021  0.4878  0.1733
 5435SOL    HW221506   1.288   1.483   4.860  0.3281  0.5949  0.8588
 5435SOL    HW321507   1.415   1.562   4.839  0.0596  0.7511 -0.2523
 5435SOL    MW421508   1.328   1.556   4.835  0.0527  0.5366  0.2076
 5436SOL     OW21509   6.374   3.014   1.428 -0.2214  0.1309  0.1659
 5436SOL    HW221510   6.310   3.006   1.357 -1.2050  1.5798  0.8439
 5436SOL    HW321511   6.367   2.932   1.476 -3.1993  1.0422  1.4970
 5436SOL    MW421512   6.364   3.002   1.425 -0.7441  0.4423  0.4310
 5437SOL     OW21513   5.853   2.458   4.659  0.3810  0.1219  0.1280
 5437SOL    HW221514   5.803   2.539   4.666  0.6935  0.6710 -2.8946
 5437SOL    HW321515   5.794   2.390   4.693 -1.2379  1.1595 -0.4964
 5437SOL    MW421516   5.839   2.460   4.665  0.2087  0.3313 -0.3532
 5438SOL     OW21517   5.635   0.347   4.713  0.6867 -0.0501  0.3146
 5438SOL    HW221518   5.608   0.424   4.762  1.8684 -0.3191  1.4269
 5438SOL    HW321519   5.665   0.285   4.780  3.5576  0.0334 -0.7638
 5438SOL    MW421520   5.635   0.349   4.728  1.2214 -0.0745  0.3191
 5439SOL     OW21521   4.453   0.933   2.113  0.3693  0.0200  0.1879
 5439SOL    HW221522   4.506   1.007   2.142  0.9560  0.2801 -1.4406
 5439SOL    HW321523   4.378   0.933   2.173  0.5473  1.6863  0.4740
 5439SOL    MW421524   4.450   0.943   2.125  0.4702  0.2742  0.0108
 5440SOL     OW21525   0.944   0.921   4.791  0.0052 -0.0740  0.5215
 5440SOL    HW221526   0.958   0.912   4.885 -0.8690  1.1564  0.8036
 5440SOL    HW321527   0.864   0.974   4.784  0.6963  0.8519 -0.8911
 5440SOL    MW421528   0.936   0.927   4.802 -0.0189  0.2105  0.3724
 5441SOL     OW21529   5.701   3.982   0.798  0.2259  0.1992  0.1237
 5441SOL    HW221530   5.681   3.932   0.719  0.6660 -0.5217  0.4579
 5441SOL    HW321531   5.680   3.923   0.870  2.4977 -0.2305  0.5086
 5441SOL    MW421532   5.696   3.968   0.797  0.5837  0.0474  0.2186
 5442SOL     OW21533   5.366   5.045   0.036 -0.5795 -0.5180  0.4000
 5442SOL    HW221534   5.332   4.993  -0.037 -0.0542  0.7577 -0.8023
 5442SOL    HW321535   5.460   5.026   0.036 -0.5301 -0.2729  0.5335
 5442SOL    MW421536   5.374   5.035   0.026 -0.5037 -0.3173  0.2590
 5443SOL     OW21537   1.830   3.380   1.353 -0.2657  0.1686 -0.1444
 5443SOL    HW221538   1.749   3.345   1.316 -1.8415  3.1872  0.1108
 5443SOL    HW321539   1.886   3.395   1.277 -0.9102  0.2825 -0.6040
 5443SOL    MW421540   1.827   3.377   1.338 -0.5586  0.5819 -0.1714
 5444SOL     OW21541   4.969   4.289   1.006 -0.5096 -0.0257  0.4161
 5444SOL    HW221542   5.003   4.314   1.093 -1.7800  1.5188  0.5084
 5444SOL    HW321543   5.038   4.315   0.945 -1.7137  4.1774  0.4825
 5444SOL    MW421544   4.983   4.296   1.010 -0.8361  0.7326  0.4370
 5445SOL     OW21545   3.098   3.143   0.165  0.0326 -0.3055 -0.0263
 5445SOL    HW221546   3.076   3.207   0.097 -1.5234 -1.2364 -0.4669
 5445SOL    HW321547   3.185   3.111   0.141 -0.6210 -0.8901 -1.8605
 5445SOL    MW421548   3.106   3.147   0.153 -0.2589 -0.5055 -0.3265
 5446SOL     OW21549   6.179   3.044   1.215 -0.2147  0.4297  0.0098
 5446SOL    HW221550   6.158   2.998   1.134  1.4086  0.8742 -0.7196
 5446SOL    HW321551   6.100   3.038   1.268 -0.9412 -0.8367 -1.1538
 5446SOL    MW421552   6.166   3.037   1.212 -0.0963  0.3213 -0.2400
 5447SOL     OW21553   3.944   6.196   4.479 -0.3066  0.1466 -0.3121
 5447SOL    HW221554   3.987   6.258   4.420  0.5789  0.3102  0.4728
 5447SOL    HW321555   3.895   6.137   4.421  2.3254 -1.1221 -1.4529
 5447SOL    MW421556   3.944   6.196   4.464  0.1575  0.0008 -0.3591
 5448SOL     OW21557   5.205   0.901   1.486 -0.2587 -0.3966  0.0004
 5448SOL    HW221558   5.134   0.890   1.549  1.3880  1.8047  2.4921
 5448SOL    HW321559   5.271   0.836   1.512 -0.3831 -0.8344 -0.7622
 5448SOL    MW421560   5.205   0.891   1.498 -0.0579 -0.1639  0.2285
 5449SOL     OW21561   0.020   5.401   3.244 -0.1603  0.1890 -0.3929
 5449SOL    HW221562  -0.001   5.493   3.259  0.2840  0.3500 -0.7523
 5449SOL    HW321563   0.054   5.370   3.328 -1.5585 -0.0158  0.1420
 5449SOL    MW421564   0.021   5.409   3.257 -0.2861  0.1832 -0.3698
 5450SOL     OW21565   3.938   0.314   0.685 -0.2440  0.6205 -0.0902
 5450SOL    HW221566   3.919   0.287   0.595 -0.3201 -0.3479  0.2013
 5450SOL    HW321567   3.869   0.272   0.737  2.5079 -3.0101  1.0244
 5450SOL    MW421568   3.926   0.304   0.680  0.1090  0.0137  0.0953
 5451SOL     OW21569   6.409   5.375   0.533 -0.3791  0.0719 -0.2690
 5451SOL    HW221570   6.483   5.366   0.473 -1.2748 -0.1716 -1.3632
 5451SOL    HW321571   6.449   5.389   0.619  0.9526 -1.5186 -0.5889
 5451SOL    MW421572   6.424   5.376   0.537 -0.3216 -0.1701 -0.4556
 5452SOL     OW21573   5.993   4.534   4.012  0.0137 -0.2059  0.0149
 5452SOL    HW221574   5.977   4.629   4.006  0.2977 -0.1605 -0.0398
 5452SOL    HW321575   5.942   4.506   4.088  0.2404  0.0627  0.2694
 5452SOL    MW421576   5.984   4.543   4.021  0.0811 -0.1645  0.0413
 5453SOL     OW21577   5.429   0.012   4.638  0.1729  0.0027  0.4955
 5453SOL    HW221578   5.339  -0.015   4.622  0.6669 -1.1887 -0.3735
 5453SOL    HW321579   5.435   0.099   4.598 -0.4303 -0.1527  0.0517
 5453SOL    MW421580   5.418   0.020   4.631  0.1585 -0.1750  0.3223
 5454SOL     OW21581   2.025   3.705   1.011  0.2795 -0.4454 -0.3991
 5454SOL    HW221582   2.027   3.621   1.058  0.4429 -0.7289 -0.9087
 5454SOL    HW321583   2.117   3.724   0.992  0.2933  0.1563  0.2499
 5454SOL    MW421584   2.037   3.696   1.015  0.3029 -0.4034 -0.3807
 5455SOL     OW21585   4.470   2.582   4.282  0.0152  0.0568  0.6011
 5455SOL    HW221586   4.562   2.592   4.256 -0.1689 -0.0397 -0.1130
 5455SOL    HW321587   4.429   2.539   4.206 -0.5501 -0.1882  1.0429
 5455SOL    MW421588   4.477   2.577   4.268 -0.0837  0.0117  0.5651
 5456SOL     OW21589   3.093   0.295   2.937  0.4258 -0.4427 -1.0538
 5456SOL    HW221590   3.145   0.371   2.961 -0.9564 -0.1071  1.1123
 5456SOL    HW321591   3.009   0.331   2.910 -0.5071 -1.1761  0.7226
 5456SOL    MW421592   3.089   0.310   2.936  0.1203 -0.4952 -0.5336
 5457SOL     OW21593   4.211   5.586   0.121 -0.3143  0.6799  0.2413
 5457SOL    HW221594   4.256   5.558   0.041 -1.3543 -0.1088 -0.0912
 5457SOL    HW321595   4.129   5.626   0.090 -0.0546  1.7213  0.8482
 5457SOL    MW421596   4.206   5.587   0.106 -0.4173  0.7132  0.2775
 5458SOL     OW21597   5.868   0.524   3.373  0.3789 -0.0213  0.7778
 5458SOL    HW221598   5.877   0.612   3.335 -0.6337 -0.2329  0.0204
 5458SOL    HW321599   5.776   0.501   3.360  1.1077 -2.1743 -1.1792
 5458SOL    MW421600   5.857   0.533   3.366  0.3415 -0.3333  0.4197
 5459SOL     OW21601   5.993   0.009   1.333 -0.0139 -0.2644 -0.0496
 5459SOL    HW221602   6.015  -0.047   1.408 -1.6328 -0.6761  0.1622
 5459SOL    HW321603   5.934  -0.045   1.280 -2.0625  1.3541  0.4340
 5459SOL    MW421604   5.988  -0.006   1.336 -0.4978 -0.1052  0.0422
 5460SOL     OW21605   2.249   3.298   1.055 -0.1435  0.0858 -0.0307
 5460SOL    HW221606   2.273   3.206   1.051  1.6471  0.5515 -1.1798
 5460SOL    HW321607   2.299   3.333   1.129 -1.0666  0.1030  0.6095
 5460SOL    MW421608   2.259   3.291   1.064 -0.0290  0.1495 -0.0979
 5461SOL     OW21609   0.282   2.168   3.970  0.0136 -0.4356  0.1962
 5461SOL    HW221610   0.192   2.150   3.996 -0.1988  0.4968  0.1320
 5461SOL    HW321611   0.276   2.246   3.915  0.7319 -1.0086 -0.7262
 5461SOL    MW421612   0.269   2.176   3.966  0.0803 -0.3882  0.0660
 5462SOL     OW21613   2.395   1.236   1.908  0.0482 -0.4156  0.4243
 5462SOL    HW221614   2.393   1.249   1.813 -1.8750  0.0759  0.5025
 5462SOL    HW321615   2.468   1.291   1.938  0.0003  0.2613 -0.6528
 5462SOL    MW421616   2.404   1.245   1.900 -0.2119 -0.2615  0.2925
 5463SOL     OW21617   5.072   0.268   1.757  0.0608 -0.1479 -0.1897
 5463SOL    HW221618   4.999   0.241   1.812 -1.3023  1.5438 -1.0605
 5463SOL    HW321619   5.143   0.287   1.818 -0.8216 -0.0475  0.8337
 5463SOL    MW421620   5.071   0.267   1.772 -0.2355  0.0885 -0.1696
 5464SOL     OW21621   1.014   0.203   0.098 -0.1789 -0.2744 -0.6619
 5464SOL    HW221622   1.021   0.283   0.150 -0.6581 -2.2818  2.7721
 5464SOL    HW321623   0.940   0.156   0.136  1.1882 -3.1467 -1.3220
 5464SOL    MW421624   1.005   0.208   0.110 -0.0617 -0.9182 -0.2959
 5465SOL     OW21625   4.945   4.037   3.066 -0.0710  0.4481 -0.3439
 5465SOL    HW221626   4.870   4.029   3.006 -0.6095 -1.4195  0.5018
 5465SOL    HW321627   4.979   3.948   3.073 -0.3783  0.4847  2.5430
 5465SOL    MW421628   4.939   4.024   3.059 -0.1826  0.2065  0.1486
 5466SOL     OW21629   5.077   0.159   4.092 -0.0076  0.2448 -0.1691
 5466SOL    HW221630   5.095   0.126   4.180  0.9191  0.1532 -0.3877
 5466SOL    HW321631   5.126   0.241   4.086 -1.0876  0.9141 -0.1625
 5466SOL    MW421632   5.085   0.166   4.103 -0.0278  0.3210 -0.1971
 5467SOL     OW21633   1.067   5.479   3.867  0.2282 -0.1874 -0.3935
 5467SOL    HW221634   1.132   5.408   3.865 -1.4975 -1.8741  0.2833
 5467SOL    HW321635   0.986   5.436   3.895 -1.4294  1.6405 -2.1085
 5467SOL    MW421636   1.065   5.464   3.870 -0.2182 -0.1688 -0.5305
 5468SOL     OW21637   5.578   5.947   2.468 -0.7046 -0.1557 -0.1659
 5468SOL    HW221638   5.593   5.861   2.507  0.8059 -0.1983 -0.7723
 5468SOL    HW321639   5.593   6.008   2.540 -0.5720 -0.3446 -0.0318
 5468SOL    MW421640   5.582   5.944   2.483 -0.4878 -0.1862 -0.2282
 5469SOL     OW21641   0.937   2.107   3.398 -0.5873 -0.2842 -0.0383
 5469SOL    HW221642   0.849   2.132   3.427 -0.3370 -1.1786  1.5801
 5469SOL    HW321643   0.983   2.082   3.478  1.1934  0.2572 -0.8372
 5469SOL    MW421644   0.931   2.107   3.412 -0.3193 -0.3308  0.0698
 5470SOL     OW21645   2.553   4.263   3.294 -0.1759  0.6204  0.5573
 5470SOL    HW221646   2.477   4.317   3.269  0.2648  0.7144 -0.6435
 5470SOL    HW321647   2.629   4.319   3.277  0.2693 -0.2460 -0.3705
 5470SOL    MW421648   2.553   4.278   3.288 -0.0591  0.5185  0.2765
 5471SOL     OW21649   2.498   0.227   3.596  0.3576 -0.2267  0.5874
 5471SOL    HW221650   2.534   0.316   3.599  3.4822 -1.3127 -0.9203
 5471SOL    HW321651   2.513   0.199   3.506 -3.0209 -1.4278  0.2761
 5471SOL    MW421652   2.505   0.235   3.585  0.3241 -0.5285  0.3474
 5472SOL     OW21653   1.802   6.271   2.751 -0.4632  0.3754 -0.5171
 5472SOL    HW221654   1.736   6.316   2.805 -1.3253  1.3842 -2.3291
 5472SOL    HW321655   1.873   6.335   2.743  0.5679 -0.5231  1.0154
 5472SOL    MW421656   1.802   6.285   2.757 -0.4409  0.3900 -0.5540
 5473SOL     OW21657   4.644   1.466   3.077 -0.1242  0.0962 -0.2468
 5473SOL    HW221658   4.711   1.447   3.142  0.4476  0.7241 -0.6443
 5473SOL    HW321659   4.687   1.451   2.993 -0.5276  0.3443 -0.4999
 5473SOL    MW421660   4.658   1.461   3.075 -0.1020  0.2118 -0.3326
 5474SOL     OW21661   2.746   5.060   5.193  0.4030 -0.3853 -0.4417
 5474SOL    HW221662   2.832   5.070   5.235 -0.3182 -0.9691  1.2905
 5474SOL    HW321663   2.759   4.990   5.129  1.4976  0.3821 -1.1082
 5474SOL    MW421664   2.759   5.052   5.190  0.4523 -0.3610 -0.3011
 5475SOL     OW21665   6.357   2.828   1.896 -0.0622  0.2020 -0.1578
 5475SOL    HW221666   6.263   2.819   1.912  0.1789  0.1354  1.4202
 5475SOL    HW321667   6.379   2.912   1.937  0.5348  0.3278 -0.7272
 5475SOL    MW421668   6.347   2.838   1.904  0.0484  0.2098 -0.0247
 5476SOL     OW21669   3.218   0.621   0.307  0.1424 -0.2227  0.1239
 5476SOL    HW221670   3.260   0.652   0.227  1.1447 -1.4816  0.1135
 5476SOL    HW321671   3.280   0.556   0.342 -0.5999 -0.2037  1.5413
 5476SOL    MW421672   3.232   0.616   0.301  0.1767 -0.3863  0.3095
 5477SOL     OW21673   1.115   3.842   5.047 -0.2669 -0.4813 -0.3556
 5477SOL    HW221674   1.081   3.809   4.964  0.2615 -0.0165 -0.7686
 5477SOL    HW321675   1.174   3.774   5.078 -0.5585 -0.7090 -0.3030
 5477SOL    MW421676   1.119   3.829   5.040 -0.2357 -0.4500 -0.4032
 5478SOL     OW21677   5.427   4.574   4.838  0.3988 -0.2858 -0.8428
 5478SOL    HW221678   5.482   4.608   4.909  0.3082 -0.0437 -0.8879
 5478SOL    HW321679   5.468   4.490   4.815  0.9270  0.0239 -1.0683
 5478SOL    MW421680   5.440   4.567   4.844  0.4565 -0.2130 -0.8785
 5479SOL     OW21681   1.885   3.099   4.337  0.3663 -0.2376  0.1555
 5479SOL    HW221682   1.806   3.109   4.284  0.6322  0.8709 -0.0550
 5479SOL    HW321683   1.955   3.135   4.283  1.0845 -1.4383  0.2364
 5479SOL    MW421684   1.884   3.105   4.323  0.4962 -0.2497  0.1384
 5480SOL     OW21685   2.828   5.907   4.604  0.0738 -0.8472 -0.4630
 5480SOL    HW221686   2.889   5.966   4.560  0.5727  0.7953  2.1978
 5480SOL    HW321687   2.746   5.957   4.611  0.0629 -0.9892  0.5897
 5480SOL    MW421688   2.825   5.921   4.600  0.1382 -0.6492  0.0269
 5481SOL     OW21689   2.784   1.788   1.844  0.3735 -0.3473 -0.3192
 5481SOL    HW221690   2.776   1.802   1.750  1.4326  2.6174 -0.0850
 5481SOL    HW321691   2.871   1.749   1.856  1.8323  2.6085 -0.4421
 5481SOL    MW421692   2.794   1.785   1.833  0.7057  0.4338 -0.3045
 5482SOL     OW21693   1.409   2.629   0.241 -0.2104 -0.1316  0.5093
 5482SOL    HW221694   1.323   2.633   0.282  0.2508  1.7328  1.3634
 5482SOL    HW321695   1.469   2.667   0.305  1.0792 -0.2997 -0.5450
 5482SOL    MW421696   1.406   2.634   0.255  0.0206  0.0922  0.4829
 5483SOL     OW21697   2.887   2.150   5.950 -0.1489  0.2025  0.5902
 5483SOL    HW221698   2.905   2.236   5.987  1.8363 -0.8177  2.2410
 5483SOL    HW321699   2.925   2.153   5.863 -0.7308  1.2075  0.3616
 5483SOL    MW421700   2.895   2.161   5.944  0.0363  0.2005  0.7778
 5484SOL     OW21701   6.160   5.163   3.772  0.0260 -0.7811 -0.1506
 5484SOL    HW221702   6.075   5.161   3.728 -0.6929  0.9055  1.0532
 5484SOL    HW321703   6.153   5.098   3.841 -0.4976 -0.2917  0.2684
 5484SOL    MW421704   6.148   5.154   3.775 -0.1379 -0.4940  0.0635
 5485SOL     OW21705   1.735   4.075   5.606 -0.3954  0.0399  0.0062
 5485SOL    HW221706   1.799   4.120   5.662 -0.1467  1.4371 -1.3214
 5485SOL    HW321707   1.788   4.036   5.537 -0.6886 -1.7371  0.7537
 5485SOL    MW421708   1.751   4.076   5.604 -0.4012 -0.0102 -0.0704
 5486SOL     OW21709   3.406   4.068   6.257  0.6277  0.6711 -0.2266
 5486SOL    HW221710   3.404   4.163   6.242  0.0979  0.4868 -1.3976
 5486SOL    HW321711   3.366   4.057   6.343  0.2117  1.4703 -0.3077
 5486SOL    MW421712   3.401   4.079   6.267  0.5029  0.7522 -0.3918
 5487SOL     OW21713   0.434   3.624   3.830 -0.0935 -0.1467  0.3109
 5487SOL    HW221714   0.512   3.659   3.787 -0.3808 -1.7340 -1.6828
 5487SOL    HW321715   0.461   3.538   3.862 -1.1190 -1.0205 -1.0091
 5487SOL    MW421716   0.448   3.617   3.829 -0.2667 -0.4714 -0.1263
 5488SOL     OW21717   3.657   5.723   3.554 -0.0064 -0.6609 -0.0617
 5488SOL    HW221718   3.638   5.751   3.464  0.7309  2.0780  0.5674
 5488SOL    HW321719   3.743   5.760   3.574  0.7942 -2.9275  1.1528
 5488SOL    MW421720   3.666   5.731   3.545  0.1965 -0.5986  0.1815
 5489SOL     OW21721   4.152   5.759   0.640  0.5065 -0.0363  0.4926
 5489SOL    HW221722   4.121   5.680   0.684 -0.2297  0.4287  0.8314
 5489SOL    HW321723   4.216   5.796   0.701  0.8579 -0.3653  0.3300
 5489SOL    MW421724   4.157   5.753   0.654  0.4557 -0.0184  0.5159
 5490SOL     OW21725   5.497   4.913   5.117 -0.3846  0.3288  0.4405
 5490SOL    HW221726   5.431   4.928   5.049 -0.2595  0.9154  0.4397
 5490SOL    HW321727   5.529   5.001   5.139  0.7356  0.0201  0.1083
 5490SOL    MW421728   5.492   4.927   5.111 -0.2203  0.3655  0.3966
 5491SOL     OW21729   1.445   0.670   5.284 -0.4549  0.0959  0.1426
 5491SOL    HW221730   1.529   0.639   5.249 -0.4978 -0.2013  0.2969
 5491SOL    HW321731   1.446   0.645   5.376  0.4663  2.5823  0.8751
 5491SOL    MW421732   1.456   0.662   5.291 -0.3390  0.3847  0.2596
 5492SOL     OW21733   1.067   6.029   4.720  0.6784  0.3601 -0.7565
 5492SOL    HW221734   1.004   6.081   4.770 -0.9970 -0.6731 -1.6895
 5492SOL    HW321735   1.105   6.091   4.658  0.2916  0.9249 -0.4389
 5492SOL    MW421736   1.064   6.044   4.719  0.4063  0.2983 -0.8377
 5493SOL     OW21737   6.023   2.769   3.193  0.2642 -0.2566  0.1294
 5493SOL    HW221738   6.053   2.848   3.237  0.6718  0.8999 -2.0935
 5493SOL    HW321739   5.937   2.750   3.231  0.2948  1.0608  0.8917
 5493SOL    MW421740   6.016   2.777   3.204  0.3220  0.0698 -0.0633
 5494SOL     OW21741   2.284   2.660   6.015  0.3914  0.4599  0.1591
 5494SOL    HW221742   2.200   2.650   5.972  0.5540 -0.9348  0.1180
 5494SOL    HW321743   2.302   2.754   6.012 -0.5276  0.6165 -1.0129
 5494SOL    MW421744   2.275   2.671   6.009  0.2916  0.2966 -0.0010
 5495SOL     OW21745   4.216   6.396   5.352 -0.0362 -0.1200  0.0568
 5495SOL    HW221746   4.238   6.339   5.278  0.4438  0.6645 -0.4209
 5495SOL    HW321747   4.290   6.385   5.412  0.6427  0.8629 -0.5647
 5495SOL    MW421748   4.229   6.387   5.350  0.1167  0.1132 -0.0883
 5496SOL     OW21749   3.109   4.686   0.654  0.1814 -0.5412 -0.1606
 5496SOL    HW221750   3.128   4.629   0.579  2.8297 -0.2273  0.1734
 5496SOL    HW321751   3.093   4.625   0.727 -1.1791 -0.8293 -0.6643
 5496SOL    MW421752   3.109   4.670   0.654  0.3513 -0.5378 -0.1830
 5497SOL     OW21753   2.966   5.252   3.132  0.4194 -0.7526 -0.2292
 5497SOL    HW221754   3.029   5.320   3.157 -1.1551  1.3546 -1.5721
 5497SOL    HW321755   2.961   5.258   3.037 -0.9599 -1.6512 -0.2468
 5497SOL    MW421756   2.974   5.262   3.123  0.0297 -0.5932 -0.4087
 5498SOL     OW21757   0.911   0.213   3.726  0.6909 -0.5929 -0.0232
 5498SOL    HW221758   0.935   0.199   3.818  0.1564  0.8669  0.3662
 5498SOL    HW321759   0.934   0.304   3.709  1.0755 -0.9365 -1.4537
 5498SOL    MW421760   0.917   0.223   3.736  0.6711 -0.4457 -0.1606
 5499SOL     OW21761   2.758   1.798   5.345 -0.0654 -0.3027 -0.0268
 5499SOL    HW221762   2.824   1.763   5.405 -0.5677 -0.6580  0.3262
 5499SOL    HW321763   2.797   1.789   5.258 -0.2448 -1.9029  0.0311
 5499SOL    MW421764   2.772   1.792   5.341 -0.1553 -0.5607  0.0274
 5500SOL     OW21765   2.652   4.939   4.607  0.4750  0.3606 -0.3413
 5500SOL    HW221766   2.656   4.870   4.542  0.0322  0.7646 -0.8038
 5500SOL    HW321767   2.731   4.927   4.660  0.5036 -0.3676 -0.5432
 5500SOL    MW421768   2.663   4.928   4.606  0.4203  0.3179 -0.4290
 5501SOL     OW21769   0.697   1.100   4.750  0.7053  0.1015  0.6635
 5501SOL    HW221770   0.635   1.169   4.774  0.2167  0.2140 -0.8317
 5501SOL    HW321771   0.747   1.138   4.678  1.5588 -0.5229  0.9179
 5501SOL    MW421772   0.695   1.114   4.744  0.7535  0.0340  0.4998
 5502SOL     OW21773   4.763   0.701   6.034 -0.8067  0.1314  0.0196
 5502SOL    HW221774   4.740   0.786   5.995 -0.0112  1.5070  2.3188
 5502SOL    HW321775   4.733   0.636   5.971 -2.2120  2.0956 -1.4454
 5502SOL    MW421776   4.756   0.704   6.021 -0.8872  0.5721  0.1297
 5503SOL     OW21777   3.854   1.581   1.757 -0.4682 -0.1198  0.1921
 5503SOL    HW221778   3.781   1.532   1.720 -0.0875 -0.9213  0.4656
 5503SOL    HW321779   3.890   1.523   1.825 -1.9830  1.8046  2.8352
 5503SOL    MW421780   3.849   1.567   1.761 -0.6178  0.0284  0.5769
 5504SOL     OW21781   3.128   5.441   6.327 -0.7685 -0.2546 -0.5977
 5504SOL    HW221782   3.215   5.413   6.353 -1.0736 -1.6857 -0.9952
 5504SOL    HW321783   3.142   5.496   6.250 -0.1283  0.9230  0.3276
 5504SOL    MW421784   3.141   5.444   6.320 -0.7243 -0.2880 -0.5280
 5505SOL     OW21785   3.200   4.136   4.044 -0.3888  0.1216 -0.2281
 5505SOL    HW221786   3.219   4.066   3.980  0.5569 -0.1834  0.3563
 5505SOL    HW321787   3.163   4.207   3.992  0.6184 -0.0167 -1.1781
 5505SOL    MW421788   3.198   4.136   4.028 -0.1311  0.0631 -0.2763
 5506SOL     OW21789   3.799   3.023   6.254 -0.3781  0.7542 -0.2277
 5506SOL    HW221790   3.875   3.064   6.214  0.0892 -0.3782 -0.5471
 5506SOL    HW321791   3.737   3.010   6.182  0.1916 -0.6715 -0.4907
 5506SOL    MW421792   3.801   3.026   6.239 -0.2413  0.4167 -0.3046
 5507SOL     OW21793   2.846   4.054   2.979  0.2682  0.1901  0.1844
 5507SOL    HW221794   2.781   4.037   2.911 -0.7265  0.7135  0.9818
 5507SOL    HW321795   2.799   4.039   3.061  0.9684  1.1999  0.7865
 5507SOL    MW421796   2.831   4.050   2.981  0.2293  0.3924  0.3691
 5508SOL     OW21797   4.651   2.672   3.256  0.5448 -0.2497 -0.1991
 5508SOL    HW221798   4.649   2.693   3.349  0.0082 -2.4653  0.3401
 5508SOL    HW321799   4.573   2.715   3.220  0.8403  0.7488  0.3322
 5508SOL    MW421800   4.640   2.680   3.263  0.5130 -0.4103 -0.0579
 5509SOL     OW21801   3.275   1.096   0.659 -0.5158  0.4647 -0.2056
 5509SOL    HW221802   3.194   1.106   0.708 -1.0174 -0.0667 -0.8952
 5509SOL    HW321803   3.257   1.136   0.574  0.3200  1.3318  0.0012
 5509SOL    MW421804   3.262   1.103   0.654 -0.4717  0.5090 -0.2693
 5510SOL     OW21805   4.668   2.769   2.154 -0.5175  0.7700 -0.3980
 5510SOL    HW221806   4.703   2.850   2.116 -0.0231  0.3747 -0.7964
 5510SOL    HW321807   4.628   2.797   2.236  1.7828  1.0943  0.7070
 5510SOL    MW421808   4.668   2.784   2.159 -0.1488  0.7607 -0.3048
 5511SOL     OW21809   5.916   6.122   3.354 -0.1517 -0.0597  0.0811
 5511SOL    HW221810   5.937   6.134   3.262  1.9181 -1.0668  0.3545
 5511SOL    HW321811   5.985   6.169   3.401  0.6570 -2.1081  1.0697
 5511SOL    MW421812   5.927   6.130   3.348  0.2281 -0.4628  0.2476
 5512SOL     OW21813   4.695   5.402   2.773  0.5378 -0.5438 -0.0065
 5512SOL    HW221814   4.642   5.348   2.832  0.3312 -0.2272  0.0995
 5512SOL    HW321815   4.668   5.376   2.685  1.0722 -1.2443  0.0334
 5512SOL    MW421816   4.685   5.392   2.769  0.5810 -0.5945  0.0127
 5513SOL     OW21817   5.084   1.814   1.467  0.2368  0.1826 -0.0526
 5513SOL    HW221818   5.171   1.847   1.446  0.0532 -0.0222 -1.1729
 5513SOL    HW321819   5.086   1.722   1.441  0.1228 -0.2005  1.2275
 5513SOL    MW421820   5.096   1.806   1.461  0.1975  0.1051 -0.0315
 5514SOL     OW21821   1.914   0.924   4.201 -0.4161 -0.1424  0.1821
 5514SOL    HW221822   1.909   0.845   4.254  0.8382 -0.9689 -0.8691
 5514SOL    HW321823   1.959   0.987   4.257 -0.5851 -0.4647  0.6897
 5514SOL    MW421824   1.919   0.922   4.216 -0.2729 -0.2940  0.1104
 5515SOL     OW21825   0.853   1.705   2.838 -0.2427 -0.1798 -0.3581
 5515SOL    HW221826   0.926   1.760   2.810 -2.2051  2.2672 -1.0082
 5515SOL    HW321827   0.849   1.717   2.933  0.4914 -0.7928 -0.2333
 5515SOL    MW421828   0.862   1.714   2.847 -0.4047  0.0622 -0.4274
 5516SOL     OW21829   3.741   3.596   1.513 -0.2117  0.1872  0.5697
 5516SOL    HW221830   3.820   3.555   1.550 -1.6682 -2.4988  0.9458
 5516SOL    HW321831   3.773   3.645   1.437  1.7003 -1.7653  0.0108
 5516SOL    MW421832   3.756   3.597   1.508 -0.1516 -0.4248  0.5456
 5517SOL     OW21833   5.128   2.236   6.283  0.0890 -0.2915 -0.0947
 5517SOL    HW221834   5.096   2.324   6.263 -0.8026 -0.1676  1.7158
 5517SOL    HW321835   5.211   2.230   6.236  0.3227  1.6324 -0.0142
 5517SOL    MW421836   5.135   2.247   6.274  0.0022 -0.0213  0.1548
 5518SOL     OW21837   4.997   5.413   3.163  0.3257  0.2992 -0.0547
 5518SOL    HW221838   4.921   5.356   3.172  0.2283  0.3016 -0.8421
 5518SOL    HW321839   5.068   5.354   3.138  1.2268 -0.1306  3.0663
 5518SOL    MW421840   4.996   5.397   3.161  0.4317  0.2428  0.2532
 5519SOL     OW21841   0.530   5.619   0.401 -0.3821  0.0372 -0.0302
 5519SOL    HW221842   0.520   5.711   0.423 -0.2755  0.0996 -0.2462
 5519SOL    HW321843   0.587   5.584   0.470  0.6538  0.4193 -0.6783
 5519SOL    MW421844   0.536   5.626   0.413 -0.2314  0.0959 -0.1442
 5520SOL     OW21845   3.153   2.250   5.826 -0.3428 -0.0970 -0.1234
 5520SOL    HW221846   3.106   2.330   5.850  0.6182  0.5822 -0.4663
 5520SOL    HW321847   3.233   2.253   5.878 -0.8985 -1.5406  0.8958
 5520SOL    MW421848   3.157   2.261   5.836 -0.2893 -0.1979 -0.0342
 5521SOL     OW21849   4.222   5.161   0.174  0.2992  0.1622 -0.3520
 5521SOL    HW221850   4.237   5.233   0.235 -2.9066 -0.1144  0.9726
 5521SOL    HW321851   4.154   5.194   0.115 -1.2167 -1.6728  0.2662
 5521SOL    MW421852   4.215   5.175   0.174 -0.3238 -0.1164 -0.0957
 5522SOL     OW21853   1.210   6.044   0.192  0.5244 -0.0178  0.2564
 5522SOL    HW221854   1.179   6.079   0.109  2.4702 -0.5884 -0.7561
 5522SOL    HW321855   1.295   6.084   0.205  0.4994 -0.3693  1.7156
 5522SOL    MW421856   1.217   6.054   0.183  0.7778 -0.1395  0.3154
 5523SOL     OW21857   0.510   3.490   5.883 -0.3481  0.6054 -0.3294
 5523SOL    HW221858   0.554   3.444   5.954  0.2483  0.3448 -0.8646
 5523SOL    HW321859   0.544   3.450   5.803  2.1356  3.6371 -0.9541
 5523SOL    MW421860   0.520   3.479   5.882  0.0583  0.9710 -0.4824
 5524SOL     OW21861   4.043   5.210   6.384  0.5473  0.1397 -0.5435
 5524SOL    HW221862   3.979   5.169   6.326 -0.3780  0.7710  0.0147
 5524SOL    HW321863   4.110   5.245   6.325  0.5258 -0.7582 -1.1190
 5524SOL    MW421864   4.043   5.209   6.369  0.4224  0.1045 -0.5458
 5525SOL     OW21865   6.115   5.325   5.253 -0.0636  0.0905  0.2410
 5525SOL    HW221866   6.027   5.306   5.286  0.1668  0.8698  1.3631
 5525SOL    HW321867   6.101   5.392   5.185 -0.4346 -0.6831 -0.4651
 5525SOL    MW421868   6.102   5.332   5.248 -0.0821  0.0912  0.2959
 5526SOL     OW21869   0.641   0.747   5.583 -0.0779  0.2721  0.2139
 5526SOL    HW221870   0.605   0.778   5.666 -1.4104 -0.6173  0.0052
 5526SOL    HW321871   0.564   0.724   5.531  0.7816 -1.2398 -0.4526
 5526SOL    MW421872   0.626   0.748   5.587 -0.1403 -0.0447  0.0984
 5527SOL     OW21873   5.212   4.729   5.583 -0.2510  0.2450  0.2947
 5527SOL    HW221874   5.120   4.757   5.590  0.1713  1.3438  2.9894
 5527SOL    HW321875   5.215   4.645   5.629  0.0294  0.0787 -0.0292
 5527SOL    MW421876   5.200   4.722   5.590 -0.1583  0.3680  0.6075
 5528SOL     OW21877   2.676   4.035   0.036 -0.4394  0.0645  0.0979
 5528SOL    HW221878   2.650   4.124   0.015  0.7920  0.9942  2.2070
 5528SOL    HW321879   2.617   3.980  -0.015 -3.1767  2.0395  0.9147
 5528SOL    MW421880   2.665   4.039   0.027 -0.6381  0.4477  0.4839
 5529SOL     OW21881   2.937   4.974   3.188 -0.4633 -1.0796 -0.4061
 5529SOL    HW221882   2.983   4.893   3.167  0.1993 -1.0906  0.9380
 5529SOL    HW321883   2.997   5.044   3.162 -0.5897 -1.0458 -0.6065
 5529SOL    MW421884   2.951   4.973   3.182 -0.3926 -1.0766 -0.2552
 5530SOL     OW21885   2.196   2.083   3.138  0.0791  0.1112 -0.3820
 5530SOL    HW221886   2.110   2.126   3.136 -0.6364 -1.2876 -0.7209
 5530SOL    HW321887   2.184   2.002   3.089  1.3518 -0.5837  0.3893
 5530SOL    MW421888   2.183   2.078   3.131  0.1526 -0.1650 -0.3250
 5531SOL     OW21889   3.580   0.360   3.543 -0.8026 -0.2073  0.1182
 5531SOL    HW221890   3.597   0.422   3.472  0.0766 -0.4531  0.1041
 5531SOL    HW321891   3.560   0.416   3.618  0.7574  0.1489  0.3086
 5531SOL    MW421892   3.580   0.376   3.544 -0.4807 -0.1927  0.1415
 5532SOL     OW21893   5.465   3.284   6.146 -0.1272  0.3975  0.6704
 5532SOL    HW221894   5.461   3.237   6.062 -1.7522  0.9841  0.3920
 5532SOL    HW321895   5.399   3.241   6.201 -0.2323  1.0787  1.0814
 5532SOL    MW421896   5.456   3.272   6.142 -0.3555  0.5648  0.6879
 5533SOL     OW21897   5.743   1.637   3.193 -0.3059 -0.3768  0.1250
 5533SOL    HW221898   5.727   1.727   3.220 -1.5436 -0.2532 -0.9106
 5533SOL    HW321899   5.656   1.602   3.173  0.3499 -0.8386 -2.3586
 5533SOL    MW421900   5.729   1.644   3.194 -0.3826 -0.4214 -0.3393
 5534SOL     OW21901   0.896   0.793   4.303 -0.0341 -0.4718  0.3668
 5534SOL    HW221902   0.952   0.804   4.227  0.2619  0.2265  0.6773
 5534SOL    HW321903   0.890   0.698   4.315  2.4737 -0.5809  1.3193
 5534SOL    MW421904   0.903   0.782   4.295  0.3358 -0.3941  0.5334
 5535SOL     OW21905   4.377   6.412   3.990 -0.2389 -0.0449 -0.5310
 5535SOL    HW221906   4.392   6.423   4.084  0.3615  0.6696 -0.6983
 5535SOL    HW321907   4.389   6.318   3.975 -1.0957 -0.2828  0.2222
 5535SOL    MW421908   4.381   6.401   4.000 -0.2727  0.0180 -0.4537
 5536SOL     OW21909   3.764   1.944   6.235  0.1660 -0.0804  0.0668
 5536SOL    HW221910   3.721   1.868   6.196 -2.2485  1.6215 -0.8190
 5536SOL    HW321911   3.744   1.937   6.329  1.5798 -1.4636  0.3079
 5536SOL    MW421912   3.756   1.933   6.243  0.0340 -0.0384 -0.0182
 5537SOL     OW21913   4.070   0.504   4.546 -0.7919  0.0519 -0.1743
 5537SOL    HW221914   4.105   0.483   4.632 -1.5457 -2.5515 -0.4210
 5537SOL    HW321915   4.027   0.589   4.557  0.5241  0.5347  1.5700
 5537SOL    MW421916   4.069   0.513   4.558 -0.7177 -0.2279  0.0233
 5538SOL     OW21917   1.624   5.179   6.389 -0.3740  0.4170  0.0391
 5538SOL    HW221918   1.574   5.097   6.392 -0.2826  0.3958  1.2383
 5538SOL    HW321919   1.714   5.152   6.376 -0.2791  0.2893  0.9103
 5538SOL    MW421920   1.629   5.165   6.387 -0.3494  0.3974  0.3123
 5539SOL     OW21921   0.216   5.148   3.146 -0.2681  0.3474 -0.1599
 5539SOL    HW221922   0.279   5.213   3.113  1.2704 -1.4401 -0.9816
 5539SOL    HW321923   0.132   5.177   3.113  0.1916  2.4552  0.3671
 5539SOL    MW421924   0.213   5.160   3.137 -0.0044  0.3896 -0.1988
 5540SOL     OW21925   4.520   4.620   3.952  0.1244 -0.3624 -0.1381
 5540SOL    HW221926   4.514   4.700   3.901 -1.7975 -1.0757 -1.1595
 5540SOL    HW321927   4.522   4.550   3.886 -0.4034 -1.2216  0.7258
 5540SOL    MW421928   4.519   4.621   3.937 -0.1988 -0.5699 -0.1589
 5541SOL     OW21929   1.467   0.349   5.956 -0.0256 -0.2335  0.1588
 5541SOL    HW221930   1.561   0.358   5.972  0.3289 -2.5535 -0.2780
 5541SOL    HW321931   1.442   0.272   6.006 -1.4619 -0.3358 -0.6659
 5541SOL    MW421932   1.476   0.340   5.965 -0.1684 -0.5531 -0.0077
 5542SOL     OW21933   4.333   0.677   0.079  0.3920  0.0868  0.3831
 5542SOL    HW221934   4.290   0.591   0.080  1.5807 -0.6213 -1.9812
 5542SOL    HW321935   4.296   0.723   0.154 -1.4363 -1.9259  0.8184
 5542SOL    MW421936   4.322   0.672   0.089  0.3076 -0.2722  0.1286
 5543SOL     OW21937   5.534   4.599   0.086 -0.4711 -0.8169  0.3229
 5543SOL    HW221938   5.600   4.668   0.090 -2.5640  1.2959  1.0534
 5543SOL    HW321939   5.581   4.519   0.108  2.0138  0.3929 -0.2419
 5543SOL    MW421940   5.549   4.598   0.090 -0.4194 -0.3785  0.3448
 5544SOL     OW21941   1.621   1.961   1.729 -0.3337 -0.0389 -0.2396
 5544SOL    HW221942   1.707   1.957   1.688 -0.2352 -1.2887  0.0462
 5544SOL    HW321943   1.561   1.984   1.659  0.3521  1.9294 -0.2298
 5544SOL    MW421944   1.624   1.963   1.715 -0.2302  0.0559 -0.2006
 5545SOL     OW21945   3.424   4.130   1.566  0.0059  0.1495 -0.2494
 5545SOL    HW221946   3.467   4.215   1.571  0.3090  0.1899 -2.3974
 5545SOL    HW321947   3.479   4.080   1.505 -0.4124 -1.4417  0.6435
 5545SOL    MW421948   3.437   4.135   1.558 -0.0093 -0.0551 -0.4150
 5546SOL     OW21949   4.928   2.871   0.800  0.1302  0.3110 -0.6715
 5546SOL    HW221950   4.929   2.959   0.763  0.9512 -0.0009 -1.4312
 5546SOL    HW321951   4.871   2.821   0.741 -1.0996  0.5397  0.2903
 5546SOL    MW421952   4.920   2.876   0.787  0.0762  0.3000 -0.6449
 5547SOL     OW21953   1.695   4.699   0.142 -0.1102  0.1354  0.3746
 5547SOL    HW221954   1.734   4.769   0.195 -2.1045  1.5650  0.0959
 5547SOL    HW321955   1.768   4.662   0.093  0.8770  3.1129 -0.6688
 5547SOL    MW421956   1.709   4.704   0.143 -0.2431  0.7169  0.2001
 5548SOL     OW21957   0.500   0.621   4.598 -0.6601  0.0617  0.8954
 5548SOL    HW221958   0.537   0.709   4.596 -2.1677  0.7515  1.3701
 5548SOL    HW321959   0.524   0.581   4.515 -2.2944  1.9656 -0.5805
 5548SOL    MW421960   0.508   0.627   4.587 -1.0746  0.4039  0.7633
 5549SOL     OW21961   1.488   3.416   3.745 -0.5455  0.1176  0.0428
 5549SOL    HW221962   1.577   3.438   3.771  0.5460 -0.6578 -2.6892
 5549SOL    HW321963   1.477   3.325   3.773 -0.8357  0.4661  1.1244
 5549SOL    MW421964   1.498   3.407   3.752 -0.4398  0.0612 -0.1750
 5550SOL     OW21965   5.491   4.568   0.699  0.3215  0.5167 -0.0953
 5550SOL    HW221966   5.468   4.494   0.642 -0.4643 -0.1536  1.0646
 5550SOL    HW321967   5.462   4.645   0.650 -2.1642 -0.1556  0.2005
 5550SOL    MW421968   5.484   4.568   0.685 -0.1102  0.3396  0.0967
 5551SOL     OW21969   1.138   4.515   3.634 -0.0727 -0.6633 -0.1372
 5551SOL    HW221970   1.198   4.460   3.684 -2.9150 -0.2711  4.2991
 5551SOL    HW321971   1.170   4.604   3.646  0.1301 -0.6986 -0.4127
 5551SOL    MW421972   1.150   4.519   3.642 -0.4210 -0.6162  0.4117
 5552SOL     OW21973   5.864   5.326   0.933 -0.4968  0.1841  0.0971
 5552SOL    HW221974   5.823   5.265   0.994  0.6848 -0.8316 -0.0936
 5552SOL    HW321975   5.947   5.348   0.973 -0.6823  1.2857 -0.0909
 5552SOL    MW421976   5.869   5.321   0.946 -0.3654  0.1954  0.0471
 5553SOL     OW21977   2.885   0.458   2.875  0.2415  0.6307 -0.2283
 5553SOL    HW221978   2.849   0.535   2.919 -1.7975 -0.2017 -0.3724
 5553SOL    HW321979   2.809   0.411   2.842  1.5661 -0.2759 -2.1526
 5553SOL    MW421980   2.870   0.462   2.877  0.1473  0.4012 -0.5012
 5554SOL     OW21981   5.509   3.461   1.939 -0.1922  0.1069  0.1770
 5554SOL    HW221982   5.491   3.380   1.892  0.0708 -0.9330  1.7920
 5554SOL    HW321983   5.439   3.521   1.912 -0.4927 -0.7166 -0.8971
 5554SOL    MW421984   5.497   3.458   1.929 -0.1971 -0.1390  0.2484
 5555SOL     OW21985   4.066   3.230   3.524  0.1516  0.4528  0.3416
 5555SOL    HW221986   4.149   3.278   3.516  1.8628 -2.2889  0.2117
 5555SOL    HW321987   4.057   3.214   3.618 -0.4655  1.0826  0.3949
 5555SOL    MW421988   4.076   3.234   3.535  0.2960  0.1742  0.3315
 5556SOL     OW21989   5.222   0.347   2.498  0.7089 -0.1969  0.5031
 5556SOL    HW221990   5.282   0.283   2.459 -0.6267 -1.7934  0.9785
 5556SOL    HW321991   5.247   0.430   2.458  1.5080 -1.2387 -1.2746
 5556SOL    MW421992   5.233   0.350   2.488  0.6381 -0.5450  0.3313
 5557SOL     OW21993   5.289   5.766   4.630 -0.3766  0.5372  0.1137
 5557SOL    HW221994   5.234   5.744   4.706  0.6180 -0.1483  0.6583
 5557SOL    HW321995   5.377   5.737   4.655 -0.1618 -0.3843 -1.6009
 5557SOL    MW421996   5.293   5.759   4.643 -0.2170  0.3252 -0.0407
 5558SOL     OW21997   2.820   3.572   1.849 -0.4190  0.3935  0.2704
 5558SOL    HW221998   2.890   3.524   1.805 -0.4226 -0.1083  0.8110
 5558SOL    HW321999   2.862   3.613   1.924 -0.6286  0.3971  0.3871
 5558SOL    MW422000   2.834   3.571   1.853 -0.4471  0.3278  0.3571
 5559SOL     OW22001   0.294   3.167   4.326  0.2048  0.0662 -0.6580
 5559SOL    HW222002   0.230   3.133   4.388 -0.3606  0.2712 -1.1185
 5559SOL    HW322003   0.289   3.108   4.251  0.3725  0.2374 -0.8056
 5559SOL    MW422004   0.285   3.155   4.324  0.1523  0.1159 -0.7382
 5560SOL     OW22005   5.791   0.837   4.593  0.1058 -0.2595  0.4646
 5560SOL    HW222006   5.876   0.873   4.565  0.7055  0.0115  2.5159
 5560SOL    HW322007   5.814   0.763   4.650 -1.0760 -0.7664  0.3185
 5560SOL    MW422008   5.805   0.832   4.597  0.0290 -0.2906  0.7160
 5561SOL     OW22009   2.201   0.564   5.377 -0.4220 -0.2323 -0.1327
 5561SOL    HW222010   2.201   0.490   5.438 -0.4387 -0.8159 -0.8348
 5561SOL    HW322011   2.143   0.537   5.306 -0.0452  0.2530 -0.6337
 5561SOL    MW422012   2.193   0.551   5.376 -0.3745 -0.2453 -0.2914
 5562SOL     OW22013   5.061   3.313   2.730 -0.1524  0.2774 -0.4825
 5562SOL    HW222014   5.081   3.226   2.696 -1.4364  0.3255 -1.4255
 5562SOL    HW322015   5.081   3.372   2.657  1.3515  0.8865  0.3602
 5562SOL    MW422016   5.067   3.309   2.716 -0.1234  0.3641 -0.4958
 5563SOL     OW22017   5.257   5.801   2.448  0.2901  0.7035 -0.6273
 5563SOL    HW222018   5.170   5.801   2.406  0.2755  0.3318 -0.5971
 5563SOL    HW322019   5.307   5.736   2.400  1.0767  2.0502 -1.7051
 5563SOL    MW422020   5.252   5.793   2.436  0.3919  0.8322 -0.7655
 5564SOL     OW22021   2.373   5.880   0.758 -0.0894  0.0410  0.3519
 5564SOL    HW222022   2.312   5.870   0.831 -0.0604  0.3374  0.4159
 5564SOL    HW322023   2.409   5.968   0.768 -1.1036  0.6008 -0.8046
 5564SOL    MW422024   2.370   5.890   0.769 -0.2194  0.1540  0.2077
 5565SOL     OW22025   5.142   2.931   6.178  0.4611 -0.3031  0.0247
 5565SOL    HW222026   5.213   2.867   6.185 -0.1121 -1.0667 -0.8842
 5565SOL    HW322027   5.141   2.955   6.085  0.3288  0.6441  0.2624
 5565SOL    MW422028   5.151   2.926   6.166  0.3680 -0.2789 -0.0639
 5566SOL     OW22029   1.082   3.331   2.301  0.3553  0.4311  0.1973
 5566SOL    HW222030   1.010   3.290   2.252  0.1723  0.4843  0.4188
 5566SOL    HW322031   1.121   3.393   2.239  2.3986 -1.9930 -1.0952
 5566SOL    MW422032   1.078   3.334   2.287  0.6008  0.1183  0.0560
 5567SOL     OW22033   0.214   2.569   2.968 -0.8285 -0.3387 -0.1252
 5567SOL    HW222034   0.186   2.605   3.052 -0.5497 -2.6574  1.0427
 5567SOL    HW322035   0.183   2.632   2.903 -0.7092  1.7409  1.7058
 5567SOL    MW422036   0.206   2.582   2.971 -0.7760 -0.3702  0.2705
 5568SOL     OW22037   2.018   5.359   0.662  0.3112  0.2876  0.2292
 5568SOL    HW222038   2.001   5.311   0.581 -0.3823  0.9260 -0.0219
 5568SOL    HW322039   1.949   5.425   0.665  1.8060  1.9295  0.0362
 5568SOL    MW422040   2.006   5.362   0.652  0.4169  0.5884  0.1706
 5569SOL     OW22041   4.600   4.735   2.732  0.4004  0.3094 -0.1151
 5569SOL    HW222042   4.663   4.771   2.671  0.8733 -0.2077  0.0574
 5569SOL    HW322043   4.548   4.673   2.680 -1.0062  1.8378 -0.6305
 5569SOL    MW422044   4.601   4.731   2.717  0.2772  0.4429 -0.1603
 5570SOL     OW22045   6.261   5.652   4.768  0.0288 -0.2297 -0.0812
 5570SOL    HW222046   6.272   5.697   4.684  2.2416 -0.4861  0.0162
 5570SOL    HW322047   6.232   5.720   4.828 -0.8372  0.1173 -0.8700
 5570SOL    MW422048   6.258   5.667   4.765  0.2065 -0.2178 -0.1724
 5571SOL     OW22049   0.337   0.975   1.332 -0.4630  0.3442  0.4846
 5571SOL    HW222050   0.425   0.938   1.341 -0.3730  0.9455  2.3854
 5571SOL    HW322051   0.290   0.911   1.277  0.9221 -0.3834  0.1123
 5571SOL    MW422052   0.342   0.961   1.326 -0.2684  0.3275  0.6863
 5572SOL     OW22053   3.520   4.009   0.276  0.1945 -0.0985 -0.3182
 5572SOL    HW222054   3.566   3.925   0.281  1.0515  0.4349  1.8260
 5572SOL    HW322055   3.590   4.073   0.260 -0.0332  0.5053  0.9898
 5572SOL    MW422056   3.536   4.006   0.275  0.2775  0.0516  0.1372
 5573SOL     OW22057   1.409   1.151   1.400  0.1839 -0.4273 -0.3349
 5573SOL    HW222058   1.326   1.187   1.368  0.1631 -1.1839 -1.1823
 5573SOL    HW322059   1.399   1.149   1.495 -0.4142  0.3270 -0.3713
 5573SOL    MW422060   1.397   1.155   1.409  0.1023 -0.4276 -0.4515
 5574SOL     OW22061   1.190   6.377   0.016  0.4359 -0.5702  0.4679
 5574SOL    HW222062   1.138   6.451   0.047  2.0022 -0.1817  2.3173
 5574SOL    HW322063   1.127   6.304   0.013 -0.9944  0.6474 -0.8428
 5574SOL    MW422064   1.175   6.377   0.019  0.4538 -0.3583  0.5389
 5575SOL     OW22065   2.147   0.443   2.611 -0.0021 -0.2160  0.0658
 5575SOL    HW222066   2.071   0.471   2.663  0.2643  2.2217 -0.7149
 5575SOL    HW322067   2.221   0.456   2.669 -0.0636 -1.7650  0.5306
 5575SOL    MW422068   2.147   0.448   2.626  0.0250 -0.0987  0.0241
 5576SOL     OW22069   5.623   2.977   3.120 -0.2163  0.1555  0.3250
 5576SOL    HW222070   5.695   2.914   3.126 -0.3314  0.0896  1.1382
 5576SOL    HW322071   5.562   2.939   3.056  0.1133 -0.1451  0.1862
 5576SOL    MW422072   5.625   2.964   3.112 -0.1880  0.1072  0.4140
 5577SOL     OW22073   2.375   3.440   0.370  0.1071  0.2074 -0.5576
 5577SOL    HW222074   2.383   3.534   0.384  0.5360  0.1640 -0.5017
 5577SOL    HW322075   2.302   3.413   0.426  1.8355  0.0074  1.7491
 5577SOL    MW422076   2.366   3.449   0.379  0.3917  0.1753 -0.2459
 5578SOL     OW22077   4.699   0.541   5.822 -0.1780  0.4085  0.1533
 5578SOL    HW222078   4.612   0.502   5.814 -0.8356  1.9955 -0.7296
 5578SOL    HW322079   4.704   0.605   5.751  1.5922  0.5986  0.3957
 5578SOL    MW422080   4.688   0.544   5.811 -0.0312  0.6430  0.0688
 5579SOL     OW22081   0.444   3.217   4.766  0.4433  0.3263 -0.4321
 5579SOL    HW222082   0.370   3.249   4.715  0.0867  1.0924  0.5345
 5579SOL    HW322083   0.407   3.194   4.852  1.4990  1.9851  0.5338
 5579SOL    MW422084   0.430   3.218   4.771  0.5355  0.6462 -0.1772
 5580SOL     OW22085   6.071   2.944   5.594  0.4769 -0.0408 -0.1303
 5580SOL    HW222086   6.119   2.872   5.551 -1.1406 -0.7270 -0.8822
 5580SOL    HW322087   6.031   2.992   5.522  0.6117  0.9573  0.4423
 5580SOL    MW422088   6.072   2.941   5.579  0.2813  0.0003 -0.1539
 5581SOL     OW22089   0.770   3.731   0.228  0.0124  0.6225  0.0157
 5581SOL    HW222090   0.762   3.826   0.223  0.7597  0.7240  0.6066
 5581SOL    HW322091   0.771   3.712   0.322 -1.2457 -0.0793 -0.0885
 5581SOL    MW422092   0.769   3.741   0.240 -0.0550  0.5433  0.0799
 5582SOL     OW22093   2.088   2.594   0.351 -0.1834 -0.4814 -0.4813
 5582SOL    HW222094   2.046   2.567   0.269  0.4759 -1.3504 -0.5393
 5582SOL    HW322095   2.074   2.521   0.411 -1.1006  0.3447  0.3709
 5582SOL    MW422096   2.080   2.581   0.348 -0.2174 -0.4870 -0.3766
 5583SOL     OW22097   5.437   6.032   5.407 -0.2365  0.1432  0.1560
 5583SOL    HW222098   5.385   6.111   5.392  0.2315  0.8719  2.0888
 5583SOL    HW322099   5.375   5.970   5.446 -0.0584  0.4258  0.9025
 5583SOL    MW422100   5.422   6.034   5.410 -0.1512  0.2766  0.5095
 5584SOL     OW22101   1.651   2.224   4.831 -0.0374  0.3304  0.3394
 5584SOL    HW222102   1.560   2.254   4.834 -0.3172 -0.3029 -0.8049
 5584SOL    HW322103   1.651   2.141   4.879  0.4528  1.4238  2.3357
 5584SOL    MW422104   1.639   2.217   4.837 -0.0097  0.3912  0.4518
 5585SOL     OW22105   0.717   0.620   2.220  0.1687 -0.4737 -0.1483
 5585SOL    HW222106   0.659   0.565   2.272 -0.6007  0.3009 -0.1672
 5585SOL    HW322107   0.665   0.646   2.144 -0.0674  1.6030  0.6679
 5585SOL    MW422108   0.702   0.616   2.217  0.0361 -0.0975 -0.0431
 5586SOL     OW22109   0.707   2.957   2.087  0.2197  0.0652 -0.3542
 5586SOL    HW222110   0.656   3.038   2.076  1.6170  1.1651  0.7604
 5586SOL    HW322111   0.720   2.925   1.998  0.6120  1.7405 -0.9480
 5586SOL    MW422112   0.702   2.964   2.074  0.4558  0.4314 -0.2855
 5587SOL     OW22113   1.825   3.998   3.285  0.1258  0.4373 -0.8159
 5587SOL    HW222114   1.895   4.001   3.352  1.2764  0.6739 -1.9850
 5587SOL    HW322115   1.799   4.090   3.275  0.2724  0.4577 -1.0120
 5587SOL    MW422116   1.831   4.011   3.293  0.2970  0.4712 -0.9960
 5588SOL     OW22117   1.273   2.062   1.168  0.8459 -0.5265 -0.1642
 5588SOL    HW222118   1.198   2.053   1.227  1.4527 -0.8544  0.5735
 5588SOL    HW322119   1.234   2.083   1.083 -0.1032 -1.0649  0.1208
 5588SOL    MW422120   1.258   2.063   1.164  0.8008 -0.6408 -0.0293
 5589SOL     OW22121   1.629   3.110   1.487 -0.2837 -0.1648  0.1636
 5589SOL    HW222122   1.547   3.112   1.437 -0.5119 -1.4544  0.4637
 5589SOL    HW322123   1.697   3.104   1.420 -0.5174 -0.5284 -0.0481
 5589SOL    MW422124   1.627   3.110   1.471 -0.3446 -0.3829  0.1752
 5590SOL     OW22125   4.715   2.835   2.933  0.1838  0.0317  0.2560
 5590SOL    HW222126   4.681   2.751   2.965 -0.4993  0.6681  1.2674
 5590SOL    HW322127   4.702   2.895   3.007  1.0889  0.9201 -0.2914
 5590SOL    MW422128   4.709   2.832   2.947  0.2131  0.2329  0.3173
 5591SOL     OW22129   2.122   5.921   6.385 -0.7465  0.2401  0.4408
 5591SOL    HW222130   2.134   5.899   6.293 -3.5987  0.4688 -0.0746
 5591SOL    HW322131   2.210   5.921   6.422  0.3626 -0.9294 -2.0265
 5591SOL    MW422132   2.135   5.918   6.378 -0.9765  0.1159  0.0473
 5592SOL     OW22133   1.230   1.730   5.075  0.3188 -0.3700 -0.6188
 5592SOL    HW222134   1.244   1.682   4.994  1.5447  0.8771 -1.1830
 5592SOL    HW322135   1.276   1.813   5.062 -1.4065  0.8165  0.4638
 5592SOL    MW422136   1.238   1.735   5.063  0.2529 -0.0489 -0.5504
 5593SOL     OW22137   6.008   2.576   5.899  0.1979 -0.3781  0.0867
 5593SOL    HW222138   5.934   2.586   5.839  0.4405 -0.2227 -0.1902
 5593SOL    HW322139   5.995   2.490   5.939  0.6414 -0.9753 -1.0204
 5593SOL    MW422140   5.996   2.566   5.896  0.2884 -0.4364 -0.0959
 5594SOL     OW22141   3.310   6.258   1.678  0.7540 -0.2530 -0.3489
 5594SOL    HW222142   3.314   6.340   1.727  1.1310 -0.6907  0.3629
 5594SOL    HW322143   3.226   6.262   1.631  0.0457 -0.1517  0.8946
 5594SOL    MW422144   3.299   6.270   1.678  0.7103 -0.2973 -0.0909
 5595SOL     OW22145   0.894   0.986   3.284 -0.0340  0.1672  0.0391
 5595SOL    HW222146   0.836   1.009   3.211 -1.4811 -0.8979  0.7793
 5595SOL    HW322147   0.855   1.029   3.360  1.8830  1.8904  0.1180
 5595SOL    MW422148   0.881   0.994   3.284  0.0280  0.2540  0.1472
 5596SOL     OW22149   6.211   2.889   4.394 -0.0564  0.1580 -0.4893
 5596SOL    HW222150   6.265   2.820   4.433  0.1532 -0.3663 -1.6656
 5596SOL    HW322151   6.248   2.971   4.429  0.1028 -0.2869  0.4183
 5596SOL    MW422152   6.223   2.891   4.404 -0.0077  0.0301 -0.5247
 5597SOL     OW22153   3.185   5.646   0.550 -0.1069  0.6551  0.0004
 5597SOL    HW222154   3.221   5.570   0.505  2.1031  0.9205  1.1946
 5597SOL    HW322155   3.103   5.664   0.505  0.0091 -1.5536 -1.2246
 5597SOL    MW422156   3.179   5.639   0.538  0.2000  0.3987 -0.0036
 5598SOL     OW22157   3.080   6.340   1.233  0.3917  0.2406 -0.3359
 5598SOL    HW222158   3.126   6.420   1.208  1.5757 -0.5956 -0.9126
 5598SOL    HW322159   3.136   6.269   1.202  0.5330 -0.8645  2.1522
 5598SOL    MW422160   3.093   6.341   1.226  0.5665 -0.0155 -0.0837
 5599SOL     OW22161   3.139   5.835   0.204  0.1708 -0.4596 -0.0501
 5599SOL    HW222162   3.188   5.755   0.224  0.2351  0.1522  2.5954
 5599SOL    HW322163   3.206   5.899   0.182  0.2194 -0.7152 -0.6817
 5599SOL    MW422164   3.154   5.833   0.204  0.1857 -0.4126  0.2156
 5600SOL     OW22165   3.849   4.235   0.745 -0.1178 -0.1333  0.2689
 5600SOL    HW222166   3.839   4.328   0.764  2.1639 -0.0314  1.2414
 5600SOL    HW322167   3.771   4.195   0.784 -0.3823  1.2028  1.1905
 5600SOL    MW422168   3.837   4.242   0.753  0.1483  0.0564  0.5188
 5601SOL     OW22169   1.124   2.700   5.795  0.0904  0.3026  0.8540
 5601SOL    HW222170   1.211   2.664   5.811  0.7908  1.5274 -0.0895
 5601SOL    HW322171   1.137   2.795   5.794 -1.0368  0.4692 -0.5045
 5601SOL    MW422172   1.137   2.708   5.797  0.0341  0.4861  0.5503
 5602SOL     OW22173   1.782   4.853   1.531  0.2338  0.4547 -0.0563
 5602SOL    HW222174   1.875   4.857   1.549 -0.0410  1.0360  1.3079
 5602SOL    HW322175   1.756   4.944   1.516  0.1786  0.1559 -2.2032
 5602SOL    MW422176   1.791   4.866   1.531  0.1902  0.4919 -0.1595
 5603SOL     OW22177   0.160   3.906   5.009  0.0229 -0.9582 -0.8626
 5603SOL    HW222178   0.241   3.888   5.057  1.4879 -0.3151 -2.9346
 5603SOL    HW322179   0.095   3.847   5.048  1.3911 -1.2703  1.0782
 5603SOL    MW422180   0.162   3.896   5.020  0.3967 -0.9146 -0.8799
 5604SOL     OW22181   6.385   2.068   4.880  0.2204  0.3670 -0.2064
 5604SOL    HW222182   6.338   2.122   4.944 -1.7954  0.6258 -1.7962
 5604SOL    HW322183   6.475   2.065   4.912 -0.9374 -0.7902  3.4556
 5604SOL    MW422184   6.391   2.075   4.892 -0.1983  0.2485  0.0670
 5605SOL     OW22185   1.703   2.594   1.858 -0.3382  0.0053  0.0383
 5605SOL    HW222186   1.684   2.684   1.883  2.2629  0.1367  1.8536
 5605SOL    HW322187   1.710   2.597   1.762  0.1567  1.8106  0.0964
 5605SOL    MW422188   1.701   2.606   1.848  0.0703  0.2608  0.2854
 5606SOL     OW22189   2.865   3.950   0.248 -0.0441 -0.2708 -0.2987
 5606SOL    HW222190   2.937   3.898   0.213  0.6518  0.7892 -0.5014
 5606SOL    HW322191   2.804   3.960   0.175 -0.2012 -0.8139 -0.2484
 5606SOL    MW422192   2.866   3.944   0.234  0.0270 -0.2026 -0.3188
 5607SOL     OW22193   0.505   4.482   5.516  0.3821 -0.0972  0.2074
 5607SOL    HW222194   0.441   4.424   5.475 -0.6257 -1.1953  3.0441
 5607SOL    HW322195   0.589   4.454   5.480 -0.2949 -1.9016 -0.0949
 5607SOL    MW422196   0.508   4.471   5.506  0.1598 -0.4801  0.5418
 5608SOL     OW22197   6.425   4.506   2.063  0.7047 -0.0163  0.6403
 5608SOL    HW222198   6.500   4.549   2.023  1.4250 -1.1674  0.7128
 5608SOL    HW322199   6.457   4.419   2.088 -0.9399 -0.9673 -0.3461
 5608SOL    MW422200   6.439   4.500   2.061  0.5827 -0.2937  0.5197
 5609SOL     OW22201   2.919   6.384   6.331  0.5940  0.0361 -0.1338
 5609SOL    HW222202   2.851   6.404   6.396  0.4981  0.9577 -0.5042
 5609SOL    HW322203   2.994   6.436   6.357  0.4818  0.5841 -0.8798
 5609SOL    MW422204   2.920   6.393   6.343  0.5666  0.2300 -0.2811
 5610SOL     OW22205   3.876   4.211   3.867 -0.0876  0.0021 -0.3121
 5610SOL    HW222206   3.849   4.230   3.956 -1.5351 -1.5318 -0.3716
 5610SOL    HW322207   3.863   4.293   3.819  1.5410  1.0992  1.0034
 5610SOL    MW422208   3.871   4.224   3.872 -0.0637 -0.0555 -0.1464
 5611SOL     OW22209   3.836   5.954   2.333  0.0161  0.1594  0.4069
 5611SOL    HW222210   3.769   5.917   2.276  0.5289  0.1969 -0.2288
 5611SOL    HW322211   3.905   5.983   2.273  1.6395 -1.9060  1.1566
 5611SOL    MW422212   3.837   5.953   2.317  0.2979 -0.1081  0.4219
 5612SOL     OW22213   2.108   3.528   5.746 -0.0545  0.3195 -0.0533
 5612SOL    HW222214   2.072   3.461   5.805  1.4964 -0.8431 -0.3605
 5612SOL    HW322215   2.156   3.478   5.681  4.0725  1.7498  1.5949
 5612SOL    MW422216   2.109   3.513   5.746  0.6946  0.3548  0.1237
 5613SOL     OW22217   3.890   4.955   3.634  0.7947  0.4012 -0.6259
 5613SOL    HW222218   3.883   4.872   3.588 -1.5438  0.1006  0.1337
 5613SOL    HW322219   3.959   4.941   3.698  1.0757 -0.6294 -1.1288
 5613SOL    MW422220   3.898   4.942   3.636  0.5232  0.2256 -0.5921
 5614SOL     OW22221   2.563   1.603   5.471 -0.1281  0.0679  0.0503
 5614SOL    HW222222   2.592   1.625   5.383 -0.5718  0.3385 -0.0298
 5614SOL    HW322223   2.636   1.631   5.527  0.9266 -1.7319 -0.3557
 5614SOL    MW422224   2.577   1.610   5.467 -0.0475 -0.1339 -0.0138
 5615SOL     OW22225   2.507   4.149   4.637  0.2354  0.0593 -0.1173
 5615SOL    HW222226   2.420   4.179   4.663  0.2972  1.2606 -1.2064
 5615SOL    HW322227   2.551   4.228   4.605  1.0567 -0.8746 -1.3706
 5615SOL    MW422228   2.501   4.164   4.636  0.3519  0.0946 -0.4263
 5616SOL     OW22229   2.815   1.469   4.436 -0.2396  0.1108  0.5861
 5616SOL    HW222230   2.720   1.466   4.450 -0.1977 -1.6907  0.8013
 5616SOL    HW322231   2.851   1.425   4.513  0.4450 -3.4269 -1.5281
 5616SOL    MW422232   2.807   1.463   4.448 -0.1437 -0.5936  0.3356
 5617SOL     OW22233   3.838   0.767   3.425  0.2943  0.6273 -0.1532
 5617SOL    HW222234   3.828   0.790   3.517  0.1940 -0.9687  0.2529
 5617SOL    HW322235   3.896   0.691   3.425 -0.7106 -0.1724 -1.2985
 5617SOL    MW422236   3.844   0.760   3.437  0.1485  0.3112 -0.2507
 5618SOL     OW22237   6.026   0.069   5.708 -0.0637 -0.2538 -0.0802
 5618SOL    HW222238   5.980   0.034   5.632 -0.2073 -1.0368  0.3563
 5618SOL    HW322239   5.975   0.146   5.733 -0.4374 -0.4183 -0.3293
 5618SOL    MW422240   6.013   0.074   5.701 -0.1319 -0.3788 -0.0554
 5619SOL     OW22241   3.361   6.270   6.367 -0.3778 -0.6512  0.2046
 5619SOL    HW222242   3.287   6.308   6.320  1.4265 -0.8406 -3.1716
 5619SOL    HW322243   3.404   6.344   6.409  0.3762  0.3854 -2.2319
 5619SOL    MW422244   3.357   6.284   6.366 -0.0402 -0.5394 -0.5623
 5620SOL     OW22245   4.365   5.077   3.557 -0.2264  0.0341 -0.2452
 5620SOL    HW222246   4.441   5.043   3.510  0.1489  0.4567  0.0399
 5620SOL    HW322247   4.290   5.039   3.512  0.1660 -1.3667  0.2120
 5620SOL    MW422248   4.365   5.068   3.545 -0.1251 -0.0950 -0.1472
 5621SOL     OW22249   4.749   4.500   4.331 -0.0856 -0.4424 -0.2620
 5621SOL    HW222250   4.774   4.472   4.243 -2.0096 -0.6572 -0.7921
 5621SOL    HW322251   4.752   4.596   4.327  1.3250 -0.4646 -0.0725
 5621SOL    MW422252   4.753   4.509   4.319 -0.1533 -0.4737 -0.3070
 5622SOL     OW22253   5.792   2.622   5.726 -0.0394 -0.1073 -0.0731
 5622SOL    HW222254   5.720   2.685   5.726  1.2122  1.4606  2.0615
 5622SOL    HW322255   5.840   2.640   5.645 -1.4580 -0.5337 -1.0431
 5622SOL    MW422256   5.789   2.633   5.715 -0.0614  0.0433  0.0806
 5623SOL     OW22257   3.006   1.855   5.514 -0.4574 -0.6903  0.1303
 5623SOL    HW222258   3.046   1.768   5.510  0.9391 -0.0885  0.0967
 5623SOL    HW322259   3.058   1.907   5.452 -1.9948 -0.0924 -0.7060
 5623SOL    MW422260   3.018   1.850   5.505 -0.4760 -0.5320  0.0155
 5624SOL     OW22261   3.826   3.676   5.598 -0.2261 -0.1186 -0.2932
 5624SOL    HW222262   3.817   3.625   5.679 -1.9077 -0.1682 -0.4925
 5624SOL    HW322263   3.915   3.712   5.603 -0.1427 -0.4689  1.3665
 5624SOL    MW422264   3.837   3.674   5.609 -0.4370 -0.1713 -0.1005
 5625SOL     OW22265   4.008   0.603   4.123  0.3012 -0.2862 -0.1713
 5625SOL    HW222266   4.087   0.655   4.134  0.2104 -0.1639 -0.0932
 5625SOL    HW322267   3.981   0.580   4.212  0.0941 -0.0952 -0.1854
 5625SOL    MW422268   4.015   0.607   4.136  0.2619 -0.2449 -0.1628
 5626SOL     OW22269   2.231   1.477   3.735  0.0342  0.3523  0.1328
 5626SOL    HW222270   2.295   1.478   3.806 -0.7070 -0.0195  0.8346
 5626SOL    HW322271   2.283   1.469   3.655  0.8221 -1.0977  0.7515
 5626SOL    MW422272   2.246   1.476   3.734  0.0403  0.1119  0.3070
 5627SOL     OW22273   0.426   4.395   2.567  0.4601 -0.2990  0.0078
 5627SOL    HW222274   0.434   4.483   2.530 -2.4548  0.5955  1.1952
 5627SOL    HW322275   0.447   4.405   2.660  1.9393 -1.2892 -0.1902
 5627SOL    MW422276   0.430   4.408   2.574  0.2707 -0.3116  0.1384
 5628SOL     OW22277   4.305   3.304   2.518 -0.0088 -0.1406 -0.2812
 5628SOL    HW222278   4.290   3.263   2.433  2.7386  1.1420 -1.4987
 5628SOL    HW322279   4.302   3.232   2.581 -1.6306 -1.1818 -1.4839
 5628SOL    MW422280   4.302   3.289   2.515  0.1397 -0.1087 -0.6005
 5629SOL     OW22281   2.131   0.921   5.245 -0.4988 -0.0666  0.0781
 5629SOL    HW222282   2.208   0.965   5.208  0.8427 -0.3912  2.2794
 5629SOL    HW322283   2.061   0.986   5.241  0.8573  1.5563  1.2638
 5629SOL    MW422284   2.132   0.935   5.239 -0.1429  0.1047  0.5250
 5630SOL     OW22285   3.639   2.565   1.143 -0.2594 -0.0192  0.1240
 5630SOL    HW222286   3.684   2.481   1.153 -1.2038 -0.7322 -1.2263
 5630SOL    HW322287   3.702   2.620   1.097 -0.3335 -0.6480 -0.7586
 5630SOL    MW422288   3.653   2.561   1.138 -0.3938 -0.1962 -0.1706
 5631SOL     OW22289   2.978   3.124   1.885 -0.6739  0.0546  0.4695
 5631SOL    HW222290   2.913   3.065   1.923 -0.1391 -1.6122 -1.0419
 5631SOL    HW322291   3.061   3.076   1.893 -0.1032  0.9135 -0.1503
 5631SOL    MW422292   2.980   3.110   1.891 -0.5280 -0.0520  0.1883
 5632SOL     OW22293   1.168   0.444   5.796  0.3582 -0.4103 -0.2281
 5632SOL    HW222294   1.228   0.503   5.841 -0.4660  0.1345  0.1809
 5632SOL    HW322295   1.194   0.356   5.825  1.1169 -0.2068 -0.2654
 5632SOL    MW422296   1.179   0.440   5.805  0.3496 -0.3115 -0.1790
 5633SOL     OW22297   4.372   6.034   5.919  0.9976  0.2302 -0.0711
 5633SOL    HW222298   4.362   6.020   6.013  1.0016  1.4363  0.1207
 5633SOL    HW322299   4.455   6.082   5.911  1.8765 -1.3247 -0.8456
 5633SOL    MW422300   4.382   6.038   5.930  1.1141  0.1842 -0.1480
 5634SOL     OW22301   0.611   3.222   3.320 -0.0294  0.4449  0.4634
 5634SOL    HW222302   0.557   3.279   3.265  1.3278  2.3349  1.0101
 5634SOL    HW322303   0.692   3.210   3.271 -0.1416 -0.7397  0.5323
 5634SOL    MW422304   0.614   3.228   3.307  0.1349  0.5380  0.5446
 5635SOL     OW22305   1.659   0.167   1.530  0.0091 -0.3372 -0.3098
 5635SOL    HW222306   1.632   0.105   1.598 -3.1615  0.4339 -0.6928
 5635SOL    HW322307   1.671   0.113   1.452  0.5266 -0.8560  0.1257
 5635SOL    MW422308   1.657   0.152   1.528 -0.3410 -0.3039 -0.3029
 5636SOL     OW22309   5.169   0.468   5.349  0.1845  0.1219 -0.1460
 5636SOL    HW222310   5.224   0.389   5.345  0.9768  0.5188  1.8748
 5636SOL    HW322311   5.131   0.467   5.436 -0.3135  1.6545 -0.3122
 5636SOL    MW422312   5.171   0.457   5.360  0.2233  0.3765  0.0987
 5637SOL     OW22313   1.201   1.571   2.391 -0.0692  0.4879 -0.0128
 5637SOL    HW222314   1.164   1.484   2.376  1.1491  0.2500 -1.9995
 5637SOL    HW322315   1.141   1.630   2.346 -0.2686  0.5663  0.3493
 5637SOL    MW422316   1.188   1.567   2.383  0.0653  0.4668 -0.2272
 5638SOL     OW22317   1.129   2.095   0.928  0.2832 -0.0192 -0.0187
 5638SOL    HW222318   1.091   2.033   0.866  0.5234 -1.1123  0.9063
 5638SOL    HW322319   1.097   2.180   0.899 -1.1154 -0.6899 -0.5292
 5638SOL    MW422320   1.120   2.098   0.916  0.1304 -0.2519  0.0360
 5639SOL     OW22321   5.005   2.512   0.436  0.2217 -0.3620  0.0733
 5639SOL    HW222322   4.999   2.466   0.519  1.6002 -0.5578  0.0886
 5639SOL    HW322323   5.099   2.528   0.424  0.0377 -0.2590 -1.3997
 5639SOL    MW422324   5.017   2.508   0.445  0.3793 -0.3742 -0.1190
 5640SOL     OW22325   5.535   1.028   3.433 -0.2397 -0.3021  0.1930
 5640SOL    HW222326   5.504   1.029   3.524 -0.5802 -1.2630  0.1065
 5640SOL    HW322327   5.478   1.089   3.387 -1.4086 -1.3275  0.2345
 5640SOL    MW422328   5.524   1.036   3.439 -0.4389 -0.5641  0.1870
 5641SOL     OW22329   2.920   5.088   5.612  0.0807 -0.0256 -0.2078
 5641SOL    HW222330   2.838   5.039   5.611 -0.8485  1.4840 -1.6104
 5641SOL    HW322331   2.914   5.144   5.689 -0.0850 -0.0877 -0.1754
 5641SOL    MW422332   2.909   5.089   5.622 -0.0637  0.1653 -0.3886
 5642SOL     OW22333   6.387   0.329   3.806  0.5670  0.0841  0.2583
 5642SOL    HW222334   6.379   0.234   3.797  0.0214  0.2028 -0.6791
 5642SOL    HW322335   6.349   0.364   3.725 -2.1852  1.2030  1.9016
 5642SOL    MW422336   6.381   0.321   3.794  0.1319  0.2474  0.3514
 5643SOL     OW22337   4.460   4.356   3.386  0.1829 -0.7565  0.3140
 5643SOL    HW222338   4.388   4.318   3.337 -0.1817 -1.1995  1.1791
 5643SOL    HW322339   4.421   4.432   3.430  0.3610 -0.7016  0.3774
 5643SOL    MW422340   4.445   4.361   3.386  0.1583 -0.8077  0.4365
 5644SOL     OW22341   5.932   0.448   2.038 -0.1853 -0.2266 -0.0299
 5644SOL    HW222342   5.924   0.353   2.028 -0.0800 -0.1307 -1.2011
 5644SOL    HW322343   5.856   0.472   2.092 -1.4822 -0.7301 -1.5367
 5644SOL    MW422344   5.921   0.438   2.044 -0.3425 -0.2804 -0.3833
 5645SOL     OW22345   4.168   2.387   5.354  0.2459 -0.2919 -0.0474
 5645SOL    HW222346   4.222   2.419   5.426 -0.8723  1.7547 -0.0588
 5645SOL    HW322347   4.137   2.301   5.383  0.2396  0.2742  1.6781
 5645SOL    MW422348   4.171   2.380   5.367  0.0975  0.0528  0.1788
 5646SOL     OW22349   3.085   4.135   1.732 -0.1245  0.1814 -0.2763
 5646SOL    HW222350   3.007   4.179   1.698 -1.6591 -3.4337 -2.0840
 5646SOL    HW322351   3.144   4.129   1.656  0.9445  0.8979  0.4772
 5646SOL    MW422352   3.082   4.140   1.717 -0.1859 -0.2010 -0.4154
 5647SOL     OW22353   2.937   1.577   1.387 -0.5684  0.4239  0.0476
 5647SOL    HW222354   3.010   1.599   1.446  0.2776  1.2202 -1.2388
 5647SOL    HW322355   2.922   1.483   1.401  1.4065 -0.0043 -0.3732
 5647SOL    MW422356   2.945   1.567   1.397 -0.1962  0.4725 -0.1777
 5648SOL     OW22357   0.816   1.523   0.315  0.2230 -0.1193  0.0065
 5648SOL    HW222358   0.813   1.584   0.389 -0.3471  1.9565 -1.6653
 5648SOL    HW322359   0.899   1.541   0.271  1.2443 -2.3307  0.8424
 5648SOL    MW422360   0.827   1.533   0.319  0.2825 -0.1372 -0.1038
 5649SOL     OW22361   2.960   0.981   1.695 -0.5154  0.0139  0.0092
 5649SOL    HW222362   2.873   0.990   1.733 -0.9047 -2.1274 -0.2289
 5649SOL    HW322363   3.016   0.953   1.767 -0.7128 -1.5595 -0.4035
 5649SOL    MW422364   2.956   0.979   1.709 -0.5928 -0.4762 -0.0766
 5650SOL     OW22365   1.602   1.834   1.422 -0.1207  0.0392  0.3513
 5650SOL    HW222366   1.693   1.826   1.392 -1.0604 -1.0906 -2.5247
 5650SOL    HW322367   1.555   1.870   1.347 -2.4049 -1.2407  1.0817
 5650SOL    MW422368   1.608   1.838   1.408 -0.5461 -0.2787  0.0682
 5651SOL     OW22369   1.996   0.931   5.764 -0.7891  0.3207 -0.3846
 5651SOL    HW222370   2.012   0.858   5.823 -0.4307 -0.1283 -1.0364
 5651SOL    HW322371   2.079   0.947   5.721 -0.9977  0.7804 -0.6292
 5651SOL    MW422372   2.009   0.924   5.766 -0.7693  0.3221 -0.5029
 5652SOL     OW22373   2.683   5.998   3.426  0.2119  0.2637 -0.0629
 5652SOL    HW222374   2.611   5.952   3.469 -0.6434  0.0215 -1.6997
 5652SOL    HW322375   2.651   6.018   3.338  1.5081  1.7223 -0.2584
 5652SOL    MW422376   2.670   5.995   3.420  0.2701  0.4242 -0.3047
 5653SOL     OW22377   6.215   1.995   3.399  0.4889  0.2155  0.5936
 5653SOL    HW222378   6.177   1.909   3.380  2.1013 -0.6015  0.8791
 5653SOL    HW322379   6.283   2.006   3.333  1.7414  0.2750  1.8307
 5653SOL    MW422380   6.219   1.985   3.388  0.8669  0.1156  0.7945
 5654SOL     OW22381   1.738   5.873   0.544 -0.2138 -0.3818  0.4664
 5654SOL    HW222382   1.778   5.958   0.563  1.1914 -0.9144  0.0442
 5654SOL    HW322383   1.680   5.857   0.618  0.8662  0.1382  1.4630
 5654SOL    MW422384   1.736   5.882   0.556  0.1141 -0.3834  0.5422
 5655SOL     OW22385   5.319   2.801   5.378 -0.2968 -0.5992  0.0043
 5655SOL    HW222386   5.339   2.728   5.319 -0.1623 -0.4472 -0.1382
 5655SOL    HW322387   5.369   2.875   5.343 -0.7702 -0.3254 -0.1036
 5655SOL    MW422388   5.328   2.801   5.366 -0.3415 -0.5430 -0.0287
 5656SOL     OW22389   5.739   0.237   0.952 -0.1312  0.2823 -0.1021
 5656SOL    HW222390   5.674   0.262   0.886 -0.8381  2.3815  1.2712
 5656SOL    HW322391   5.687   0.219   1.030  0.8198 -0.0383  0.4655
 5656SOL    MW422392   5.723   0.238   0.954 -0.0990  0.5170  0.1540
 5657SOL     OW22393   0.454   1.223   5.644  0.1217  0.2348  0.0857
 5657SOL    HW222394   0.464   1.166   5.719 -1.5717  0.6581  0.6951
 5657SOL    HW322395   0.444   1.311   5.681  1.4456  0.7769 -0.7624
 5657SOL    MW422396   0.454   1.227   5.659  0.0730  0.3622  0.0542
 5658SOL     OW22397   3.089   4.222   2.052 -0.4628  0.4788  0.1020
 5658SOL    HW222398   2.998   4.193   2.043  0.0291 -0.6970 -1.3775
 5658SOL    HW322399   3.141   4.143   2.038  0.8039  0.9080  1.9623
 5658SOL    MW422400   3.084   4.208   2.049 -0.2308  0.3803  0.1522
 5659SOL     OW22401   4.354   2.776   5.621 -0.1654  0.3303  0.1203
 5659SOL    HW222402   4.411   2.817   5.685 -0.1747 -0.0401  0.3715
 5659SOL    HW322403   4.406   2.702   5.587  0.1349  0.9674 -0.8562
 5659SOL    MW422404   4.369   2.771   5.625 -0.1270  0.3655  0.0246
 5660SOL     OW22405   6.021   3.772   2.531  0.1546  0.4262  0.3221
 5660SOL    HW222406   6.075   3.808   2.461  1.7314  1.7252  2.1139
 5660SOL    HW322407   6.081   3.719   2.583 -1.6487 -3.3541 -1.0423
 5660SOL    MW422408   6.036   3.770   2.528  0.1247  0.0988  0.3785
 5661SOL     OW22409   3.531   1.557   2.520 -0.3317  0.1817 -0.0616
 5661SOL    HW222410   3.618   1.526   2.545 -0.0950  1.3019  0.5512
 5661SOL    HW322411   3.531   1.650   2.543 -1.8714  0.0890  0.4116
 5661SOL    MW422412   3.543   1.565   2.526 -0.5036  0.3173  0.0817
 5662SOL     OW22413   4.695   6.382   6.180 -0.1542  0.2550  0.0952
 5662SOL    HW222414   4.752   6.451   6.146  0.5701 -0.4316 -0.1073
 5662SOL    HW322415   4.632   6.366   6.109 -0.5992  0.9886  0.3073
 5662SOL    MW422416   4.694   6.389   6.166 -0.1173  0.2612  0.0964
 5663SOL     OW22417   5.457   6.153   5.670  0.1554 -0.6135  0.1347
 5663SOL    HW222418   5.445   6.095   5.595  1.0935 -1.9983  1.0087
 5663SOL    HW322419   5.369   6.168   5.704 -0.3502  0.4391 -1.4781
 5663SOL    MW422420   5.444   6.147   5.664  0.2125 -0.6573  0.0372
 5664SOL     OW22421   0.563   2.893   0.946 -0.3428  0.2484  0.2995
 5664SOL    HW222422   0.548   2.799   0.938 -0.6451  0.1847  1.4919
 5664SOL    HW322423   0.654   2.900   0.977 -1.2393  0.1823  3.1971
 5664SOL    MW422424   0.573   2.881   0.949 -0.5009  0.2313  0.8392
 5665SOL     OW22425   4.738   2.775   0.101 -0.2950  0.3472 -0.5287
 5665SOL    HW222426   4.715   2.826   0.024  1.3393  1.1684 -0.5188
 5665SOL    HW322427   4.762   2.841   0.167  2.8635 -0.3590 -0.8344
 5665SOL    MW422428   4.738   2.790   0.100  0.3374  0.3624 -0.5677
 5666SOL     OW22429   4.216   1.090   5.265  0.2856 -0.2919 -0.3330
 5666SOL    HW222430   4.140   1.125   5.311  2.2934  2.7074  0.9600
 5666SOL    HW322431   4.215   1.134   5.180 -0.5482 -1.9502 -1.2499
 5666SOL    MW422432   4.206   1.100   5.259  0.4405 -0.1149 -0.2834
 5667SOL     OW22433   0.605   1.339   1.258 -0.1533  0.4622  0.1295
 5667SOL    HW222434   0.679   1.399   1.246 -0.1220  0.0526 -2.0492
 5667SOL    HW322435   0.551   1.381   1.325  2.2736  0.4946  2.2482
 5667SOL    MW422436   0.607   1.352   1.265  0.1710  0.4125  0.1216
 5668SOL     OW22437   0.032   1.335   4.203  0.2518 -0.4531  1.1877
 5668SOL    HW222438   0.078   1.284   4.137 -0.4627  0.7556 -0.3220
 5668SOL    HW322439   0.073   1.311   4.286 -0.1575 -3.5544  0.6051
 5668SOL    MW422440   0.043   1.325   4.205  0.1035 -0.7028  0.9116
 5669SOL     OW22441   1.891   2.114   0.124  0.5662 -0.1098 -0.2140
 5669SOL    HW222442   1.867   2.195   0.169  0.9789  0.3397 -0.7937
 5669SOL    HW322443   1.873   2.045   0.188 -1.0778  0.3061 -0.1841
 5669SOL    MW422444   1.886   2.116   0.138  0.4038  0.0044 -0.2866
 5670SOL     OW22445   3.025   2.592   2.620  0.5783 -0.3558 -0.3360
 5670SOL    HW222446   2.957   2.614   2.684  0.5174  0.9705 -0.8224
 5670SOL    HW322447   3.105   2.631   2.654  0.8698 -0.9396 -0.3329
 5670SOL    MW422448   3.026   2.600   2.633  0.6087 -0.2578 -0.3998
 5671SOL     OW22449   0.527   2.934   5.186 -0.1092 -0.4953  0.3165
 5671SOL    HW222450   0.444   2.887   5.180  0.4288 -1.4415  0.1398
 5671SOL    HW322451   0.594   2.867   5.171  0.7540 -0.0821  2.0534
 5671SOL    MW422452   0.525   2.919   5.183  0.0757 -0.5656  0.5223
 5672SOL     OW22453   4.953   2.307   4.322  0.4026 -0.0981  0.2211
 5672SOL    HW222454   4.951   2.371   4.251  1.2828 -0.1099  0.1789
 5672SOL    HW322455   4.861   2.286   4.337  0.1238  0.8986 -0.0129
 5672SOL    MW422456   4.940   2.313   4.315  0.4819  0.0318  0.1847
 5673SOL     OW22457   2.770   1.681   3.112 -0.5359  0.3476  0.2271
 5673SOL    HW222458   2.850   1.648   3.071 -1.3213 -0.8446 -0.4069
 5673SOL    HW322459   2.701   1.656   3.051 -1.3208  2.1110  0.3333
 5673SOL    MW422460   2.772   1.673   3.098 -0.7430  0.4230  0.1575
 5674SOL     OW22461   2.342   2.718   0.311 -0.5107 -0.5175 -0.3245
 5674SOL    HW222462   2.258   2.673   0.324 -0.8751 -0.0576 -1.0061
 5674SOL    HW322463   2.399   2.653   0.270 -0.2535 -1.0968  0.9296
 5674SOL    MW422464   2.338   2.704   0.307 -0.5248 -0.5332 -0.2490
 5675SOL     OW22465   1.526   5.537   2.695  0.1342 -0.3641 -0.0627
 5675SOL    HW222466   1.565   5.610   2.743 -1.6285  1.3459 -1.0532
 5675SOL    HW322467   1.580   5.527   2.617 -1.1909  1.9227 -1.3846
 5675SOL    MW422468   1.538   5.545   2.691 -0.2732  0.1632 -0.3678
 5676SOL     OW22469   3.561   0.531   4.215 -0.3311  0.3702  0.4036
 5676SOL    HW222470   3.540   0.576   4.297  1.7624  0.9308  0.6833
 5676SOL    HW322471   3.601   0.598   4.161  2.4379 -0.9678  0.6525
 5676SOL    MW422472   3.563   0.546   4.219  0.3104  0.2677  0.4733
 5677SOL     OW22473   2.052   5.558   2.354  0.0441 -0.1589 -0.4950
 5677SOL    HW222474   2.130   5.585   2.403 -0.2976  0.5897 -0.3510
 5677SOL    HW322475   2.078   5.564   2.262  1.3719 -3.5492 -0.5024
 5677SOL    MW422476   2.066   5.562   2.348  0.1742 -0.5074 -0.4770
 5678SOL     OW22477   1.918   2.382   3.803 -0.2784 -0.0996  0.0590
 5678SOL    HW222478   1.918   2.353   3.712  0.2859  0.1369 -0.0252
 5678SOL    HW322479   1.943   2.304   3.853  0.4471  0.0254 -0.0926
 5678SOL    MW422480   1.921   2.368   3.798 -0.1082 -0.0519  0.0279
 5679SOL     OW22481   4.720   0.634   4.486 -0.4373 -0.0880 -0.3524
 5679SOL    HW222482   4.671   0.691   4.546 -0.1294 -0.0071 -0.1757
 5679SOL    HW322483   4.661   0.621   4.413 -0.1409  1.3109 -0.8841
 5679SOL    MW422484   4.706   0.640   4.485 -0.3576  0.1072 -0.3992
 5680SOL     OW22485   4.834   3.758   5.156  0.5412 -0.1730  0.3047
 5680SOL    HW222486   4.896   3.790   5.222  1.3934  0.3676 -0.7156
 5680SOL    HW322487   4.886   3.754   5.076 -0.2616 -1.6002 -0.1645
 5680SOL    MW422488   4.849   3.762   5.154  0.5477 -0.2900  0.1082
 5681SOL     OW22489   1.096   4.934   1.116  0.5647  0.3850  0.2163
 5681SOL    HW222490   1.191   4.939   1.120  0.5298  1.3508  0.1183
 5681SOL    HW322491   1.076   4.840   1.121  1.3521  0.2519  4.3364
 5681SOL    MW422492   1.106   4.922   1.117  0.6640  0.4949  0.7470
 5682SOL     OW22493   5.046   0.022   0.505  0.8082  0.5036 -0.4671
 5682SOL    HW222494   5.018   0.113   0.518  1.5456  1.0087 -2.1858
 5682SOL    HW322495   5.018   0.001   0.416  1.5315 -0.6282 -0.4404
 5682SOL    MW422496   5.039   0.031   0.495  1.0010  0.4209 -0.6904
 5683SOL     OW22497   6.316   4.965   4.770 -0.5526  0.4491 -0.2526
 5683SOL    HW222498   6.229   4.989   4.737 -1.0292 -0.6938  0.1184
 5683SOL    HW322499   6.323   4.871   4.752 -0.2295  0.0913  1.5275
 5683SOL    MW422500   6.306   4.955   4.763 -0.5728  0.2511  0.0312
 5684SOL     OW22501   5.694   3.352   3.726  0.0477  0.1077 -0.0286
 5684SOL    HW222502   5.683   3.385   3.815  0.2031 -0.2900  0.1392
 5684SOL    HW322503   5.778   3.306   3.727 -0.3466 -0.6305 -0.1495
 5684SOL    MW422504   5.703   3.350   3.738  0.0162 -0.0422 -0.0224
 5685SOL     OW22505   5.341   0.949   4.045 -0.1883 -0.3883 -0.1811
 5685SOL    HW222506   5.405   0.920   3.979  0.6343  0.2160  0.3395
 5685SOL    HW322507   5.324   1.040   4.023  1.0484  0.2114  1.1529
 5685SOL    MW422508   5.347   0.957   4.033  0.0834 -0.2294  0.0636
 5686SOL     OW22509   2.714   0.680   0.337 -0.5228  0.3322  0.1351
 5686SOL    HW222510   2.742   0.658   0.248  0.7599  1.2719  0.2847
 5686SOL    HW322511   2.694   0.595   0.377  0.6019 -0.2563 -0.5010
 5686SOL    MW422512   2.715   0.666   0.331 -0.2052  0.3785  0.0709
 5687SOL     OW22513   0.222   2.399   3.237 -0.9478  0.1097 -0.6874
 5687SOL    HW222514   0.127   2.398   3.225 -0.8019 -1.8285 -2.3643
 5687SOL    HW322515   0.255   2.346   3.164  1.1425 -2.3470  1.8357
 5687SOL    MW422516   0.213   2.392   3.226 -0.6528 -0.4702 -0.5757
 5688SOL     OW22517   0.360   1.998   0.603  0.2332 -0.2826 -0.3925
 5688SOL    HW222518   0.307   2.055   0.547  0.8410 -1.6653 -2.5127
 5688SOL    HW322519   0.347   2.031   0.691 -2.0389  1.0611 -1.1584
 5688SOL    MW422520   0.351   2.010   0.607  0.0136 -0.2877 -0.7733
 5689SOL     OW22521   0.230   3.260   1.586 -0.3877 -0.0946  0.6901
 5689SOL    HW222522   0.227   3.186   1.526  1.1434 -0.4919  1.0730
 5689SOL    HW322523   0.212   3.337   1.532  1.3315 -0.4012 -0.3710
 5689SOL    MW422524   0.227   3.261   1.571  0.0411 -0.1875  0.6006
 5690SOL     OW22525   2.744   1.414   2.259 -0.1820  0.1692  0.3897
 5690SOL    HW222526   2.677   1.381   2.318 -1.4889  1.1112 -0.5192
 5690SOL    HW322527   2.751   1.507   2.278 -3.5570  1.5004 -3.4512
 5690SOL    MW422528   2.736   1.422   2.269 -0.7997  0.4691 -0.2369
 5691SOL     OW22529   2.655   0.343   0.931 -0.1504  0.3834  0.0850
 5691SOL    HW222530   2.674   0.434   0.955 -0.8282  1.9299 -4.3737
 5691SOL    HW322531   2.565   0.330   0.960  0.8756 -0.1165  3.5118
 5691SOL    MW422532   2.646   0.354   0.938 -0.1044  0.5215 -0.0512
 5692SOL     OW22533   1.693   4.957   4.110  0.5221  0.0255  0.1513
 5692SOL    HW222534   1.740   5.016   4.051  0.8921 -0.4922 -0.0774
 5692SOL    HW322535   1.695   4.873   4.066 -0.0579 -0.1455  0.4502
 5692SOL    MW422536   1.700   4.954   4.097  0.4944 -0.0654  0.1606
 5693SOL     OW22537   0.437   4.351   4.081 -0.0043  0.0184 -0.1800
 5693SOL    HW222538   0.462   4.409   4.009  0.9486 -0.7680 -0.4952
 5693SOL    HW322539   0.513   4.351   4.140 -0.1910 -0.5137  0.0689
 5693SOL    MW422540   0.450   4.359   4.079  0.0968 -0.1556 -0.1887
 5694SOL     OW22541   3.030   5.545   4.538 -0.3494 -0.3276  0.3601
 5694SOL    HW222542   3.034   5.579   4.627 -1.5516  0.6430  0.0671
 5694SOL    HW322543   3.056   5.619   4.483 -0.1370 -0.7594 -0.1278
 5694SOL    MW422544   3.034   5.559   4.542 -0.4800 -0.2565  0.2570
 5695SOL     OW22545   2.936   1.647   0.439  0.1926  0.0472 -0.4329
 5695SOL    HW222546   2.920   1.738   0.462 -1.7805 -0.6295  1.2137
 5695SOL    HW322547   3.031   1.636   0.446  0.3582  1.7228  0.3059
 5695SOL    MW422548   2.947   1.657   0.443 -0.0459  0.1790 -0.1182
 5696SOL     OW22549   4.742   2.328   2.677  0.3286  0.0536  0.4356
 5696SOL    HW222550   4.672   2.275   2.638  0.6558 -0.6639  0.8033
 5696SOL    HW322551   4.717   2.419   2.659 -0.9123 -0.1734  0.9215
 5696SOL    MW422552   4.729   2.333   2.669  0.2081 -0.0710  0.5482
 5697SOL     OW22553   4.858   5.648   0.436  0.5101 -0.4117  0.4189
 5697SOL    HW222554   4.785   5.668   0.378 -0.8565 -0.6592  1.9740
 5697SOL    HW322555   4.920   5.600   0.381 -1.8609 -2.9138 -0.2859
 5697SOL    MW422556   4.857   5.644   0.421  0.0170 -0.7744  0.5311
 5698SOL     OW22557   2.497   1.685   4.984  0.0590 -0.3836  0.1500
 5698SOL    HW222558   2.448   1.759   4.949  0.0022 -0.6215 -0.2871
 5698SOL    HW322559   2.442   1.650   5.053 -0.2738 -0.4917 -0.1652
 5698SOL    MW422560   2.483   1.690   4.988  0.0076 -0.4292  0.0507
 5699SOL     OW22561   0.663   0.477   1.935 -0.1966 -0.4289  0.0849
 5699SOL    HW222562   0.641   0.388   1.962  0.0347 -0.2904  0.7398
 5699SOL    HW322563   0.608   0.492   1.858 -0.6838 -0.9190  0.3269
 5699SOL    MW422564   0.653   0.467   1.928 -0.2304 -0.4753  0.2032
 5700SOL     OW22565   0.583   4.100   1.741  0.3353 -0.2588 -0.1903
 5700SOL    HW222566   0.641   4.098   1.664  0.4252  0.0031 -0.1289
 5700SOL    HW322567   0.509   4.045   1.716  0.9823 -1.2703  0.0318
 5700SOL    MW422568   0.581   4.092   1.727  0.4325 -0.3577 -0.1529
 5701SOL     OW22569   2.970   0.535   1.153 -0.2747  0.3572 -0.2136
 5701SOL    HW222570   2.992   0.549   1.061  0.5489  1.2985  0.1026
 5701SOL    HW322571   2.989   0.443   1.169  1.3725  0.6061 -0.5390
 5701SOL    MW422572   2.975   0.525   1.143  0.0513  0.5143 -0.2148
 5702SOL     OW22573   2.677   4.711   4.448 -0.3191  0.5168  0.3989
 5702SOL    HW222574   2.626   4.697   4.368 -0.4134  1.3058  0.3100
 5702SOL    HW322575   2.762   4.743   4.417 -0.6128  1.5592  0.6290
 5702SOL    MW422576   2.682   4.714   4.433 -0.3703  0.7585  0.4175
 5703SOL     OW22577   3.618   3.901   4.007 -0.2888 -0.4997 -0.2682
 5703SOL    HW222578   3.659   3.986   4.022 -0.4788 -0.6613  1.3546
 5703SOL    HW322579   3.678   3.854   3.950  1.0646 -0.1808  0.8484
 5703SOL    MW422580   3.631   3.906   4.002 -0.1353 -0.4790  0.0932
 5704SOL     OW22581   2.264   1.731   6.065 -0.1971  0.0273  0.4235
 5704SOL    HW222582   2.171   1.715   6.053 -1.0358  2.1429  2.9969
 5704SOL    HW322583   2.271   1.827   6.073  1.3905 -0.2211  4.8068
 5704SOL    MW422584   2.253   1.742   6.064 -0.0983  0.2736  1.3413
 5705SOL     OW22585   3.417   0.846   2.779  0.1787  0.3452  0.0061
 5705SOL    HW222586   3.369   0.900   2.716 -4.6458 -0.9596  2.0666
 5705SOL    HW322587   3.396   0.756   2.754 -1.8952 -0.2282  3.1251
 5705SOL    MW422588   3.408   0.841   2.767 -0.7315  0.0974  0.6895
 5706SOL     OW22589   0.461   1.589   6.160 -0.3229 -0.1274 -0.1334
 5706SOL    HW222590   0.419   1.505   6.142  0.6553 -0.7682  0.4841
 5706SOL    HW322591   0.438   1.609   6.251 -0.1768  0.0472 -0.1334
 5706SOL    MW422592   0.453   1.581   6.170 -0.1746 -0.1889 -0.0520
 5707SOL     OW22593   3.939   3.412   5.234  0.3718  0.1699 -0.2682
 5707SOL    HW222594   3.904   3.411   5.145  2.3392 -0.3889 -1.1085
 5707SOL    HW322595   4.027   3.449   5.224  0.4814  0.4842  1.5215
 5707SOL    MW422596   3.946   3.417   5.221  0.6458  0.1376 -0.1429
 5708SOL     OW22597   6.410   4.298   5.518 -0.2584 -0.0303 -0.0873
 5708SOL    HW222598   6.419   4.318   5.425 -0.0176 -0.5689 -0.1821
 5708SOL    HW322599   6.352   4.366   5.551  1.6690  1.7311 -0.1042
 5708SOL    MW422600   6.403   4.310   5.510  0.0277  0.1310 -0.1021
 5709SOL     OW22601   1.134   4.299   2.065 -0.0165 -0.5740  0.0298
 5709SOL    HW222602   1.187   4.223   2.090 -1.2286 -1.3201  0.4739
 5709SOL    HW322603   1.054   4.260   2.029 -1.4529  0.4401  1.9530
 5709SOL    MW422604   1.130   4.284   2.064 -0.3659 -0.5387  0.3421
 5710SOL     OW22605   6.071   5.364   3.359 -0.5040 -0.0252 -0.0369
 5710SOL    HW222606   6.076   5.459   3.349 -0.7663  0.1191  1.1162
 5710SOL    HW322607   6.003   5.350   3.424 -0.5917 -1.0173 -0.3334
 5710SOL    MW422608   6.063   5.375   3.366 -0.5502 -0.1370  0.0761
 5711SOL     OW22609   5.142   3.446   4.315  0.7053  0.0359 -0.0242
 5711SOL    HW222610   5.111   3.441   4.405 -0.2538 -2.4645 -0.4201
 5711SOL    HW322611   5.236   3.463   4.323  0.4463  1.0280  1.3618
 5711SOL    MW422612   5.150   3.448   4.328  0.5446 -0.1631  0.1064
 5712SOL     OW22613   4.174   1.815   0.466  0.0264 -0.0127 -0.2554
 5712SOL    HW222614   4.205   1.741   0.519 -1.3310  0.0671  0.7007
 5712SOL    HW322615   4.125   1.774   0.394 -2.3495 -0.1109  1.2903
 5712SOL    MW422616   4.171   1.800   0.463 -0.4661 -0.0152  0.0747
 5713SOL     OW22617   0.587   2.158   0.550  0.1223  0.4980  0.1936
 5713SOL    HW222618   0.523   2.087   0.548  1.8373 -1.1189 -2.5138
 5713SOL    HW322619   0.542   2.231   0.508 -0.2421 -0.3941 -1.0292
 5713SOL    MW422620   0.572   2.158   0.544  0.3005  0.1670 -0.3249
 5714SOL     OW22621   2.438   1.512   1.297  0.8064 -0.6410  0.3940
 5714SOL    HW222622   2.346   1.538   1.289  0.9649 -0.5088 -1.4726
 5714SOL    HW322623   2.464   1.489   1.208  2.9364  0.4992  0.6590
 5714SOL    MW422624   2.429   1.512   1.284  1.1083 -0.4731  0.1827
 5715SOL     OW22625   4.483   0.936   5.557  0.0026  0.1866  0.1326
 5715SOL    HW222626   4.414   0.943   5.492 -0.5671  1.7202  0.8544
 5715SOL    HW322627   4.562   0.966   5.512  0.4028 -2.1901 -0.8936
 5715SOL    MW422628   4.484   0.941   5.543 -0.0197  0.0754  0.0925
 5716SOL     OW22629   3.972   5.999   1.265  0.5963  0.3330  0.4085
 5716SOL    HW222630   4.000   6.085   1.234  1.0638  0.3097  0.7441
 5716SOL    HW322631   3.888   6.015   1.308  1.1814  0.8092  1.3963
 5716SOL    MW422632   3.964   6.012   1.267  0.7352  0.3928  0.5831
 5717SOL     OW22633   3.378   5.223   2.275  0.1701 -0.3091 -0.3150
 5717SOL    HW222634   3.424   5.145   2.305 -0.7554 -0.7981 -0.1339
 5717SOL    HW322635   3.292   5.192   2.249 -0.1422  0.6240 -0.4381
 5717SOL    MW422636   3.373   5.209   2.275  0.0068 -0.2505 -0.3073
 5718SOL     OW22637   0.167   5.768   6.318  0.7418  0.0251 -0.4074
 5718SOL    HW222638   0.144   5.682   6.353 -1.4372  0.6466 -0.1211
 5718SOL    HW322639   0.112   5.777   6.240  0.3561  1.4464  0.0025
 5718SOL    MW422640   0.156   5.758   6.312  0.4034  0.2946 -0.3156
 5719SOL     OW22641   0.409   1.639   6.433 -0.3831  0.6241 -0.1992
 5719SOL    HW222642   0.463   1.578   6.484 -0.3409  0.8249 -0.0002
 5719SOL    HW322643   0.345   1.673   6.496 -2.4211 -1.5023 -0.9607
 5719SOL    MW422644   0.408   1.636   6.448 -0.6464  0.3701 -0.2734
 5720SOL     OW22645   0.551   3.167   2.044  0.5132 -0.1265  0.3022
 5720SOL    HW222646   0.558   3.202   1.955  0.6391  2.0846  1.1210
 5720SOL    HW322647   0.461   3.135   2.051  0.4087 -0.0332 -0.5213
 5720SOL    MW422648   0.540   3.168   2.033  0.5160  0.1776  0.3016
 5721SOL     OW22649   1.492   0.220   2.679 -0.1847 -0.3013 -0.6072
 5721SOL    HW222650   1.442   0.240   2.599 -0.1449  0.8462 -0.3655
 5721SOL    HW322651   1.486   0.300   2.731 -1.5246 -1.5350  1.2603
 5721SOL    MW422652   1.484   0.233   2.675 -0.3562 -0.3126 -0.3289
 5722SOL     OW22653   0.146   6.306   5.864 -0.5156 -0.3254  0.2866
 5722SOL    HW222654   0.055   6.297   5.890  0.3484 -2.8227  2.9175
 5722SOL    HW322655   0.150   6.266   5.777 -2.1863  1.6517 -0.7949
 5722SOL    MW422656   0.134   6.300   5.856 -0.6221 -0.3941  0.4910
 5723SOL     OW22657   0.635   2.811   5.950 -0.3864  0.2310 -0.7640
 5723SOL    HW222658   0.709   2.826   5.892 -1.4478  1.7922 -1.7900
 5723SOL    HW322659   0.564   2.783   5.892 -1.2917  1.1895 -0.1510
 5723SOL    MW422660   0.636   2.809   5.935 -0.6459  0.5634 -0.8185
 5724SOL     OW22661   5.428   6.149   1.866 -0.2316  0.1835 -0.0524
 5724SOL    HW222662   5.473   6.069   1.892  0.0983  0.5626  0.5787
 5724SOL    HW322663   5.358   6.159   1.931  0.1642  0.7711  0.2989
 5724SOL    MW422664   5.425   6.140   1.878 -0.1358  0.3110  0.0772
 5725SOL     OW22665   5.289   0.199   5.205 -0.3834  0.2828  0.7578
 5725SOL    HW222666   5.331   0.224   5.123 -0.3363  1.3826  1.1094
 5725SOL    HW322667   5.210   0.151   5.179 -0.6176  1.0372  0.0633
 5725SOL    MW422668   5.284   0.196   5.191 -0.4081  0.5274  0.7126
 5726SOL     OW22669   2.709   2.635   2.303  0.4160  0.2367 -0.8247
 5726SOL    HW222670   2.694   2.583   2.224  0.7194 -1.3956  0.1357
 5726SOL    HW322671   2.658   2.590   2.371  1.8911  0.2768  0.3773
 5726SOL    MW422672   2.700   2.622   2.302  0.6507  0.0267 -0.5394
 5727SOL     OW22673   1.476   4.162   2.310 -0.0403 -0.0325  0.2188
 5727SOL    HW222674   1.429   4.203   2.383 -0.8271 -0.9124  0.2242
 5727SOL    HW322675   1.408   4.125   2.255  0.5800  0.1016 -0.6606
 5727SOL    MW422676   1.461   4.162   2.312 -0.0623 -0.1309  0.1035
 5728SOL     OW22677   4.778   2.123   3.712  0.1367  0.3934  0.6846
 5728SOL    HW222678   4.804   2.092   3.625 -0.2513 -0.9990  1.0485
 5728SOL    HW322679   4.810   2.056   3.772 -1.8237  0.0484  1.3870
 5728SOL    MW422680   4.786   2.110   3.709 -0.1731  0.1641  0.8253
 5729SOL     OW22681   0.194   2.301   5.748 -0.1187  0.0686  0.1356
 5729SOL    HW222682   0.277   2.281   5.791 -0.7384 -0.1056  1.2957
 5729SOL    HW322683   0.177   2.393   5.770 -1.7061 -0.7037  2.5781
 5729SOL    MW422684   0.202   2.311   5.756 -0.4099 -0.0563  0.6109
 5730SOL     OW22685   1.434   2.926   4.460 -0.0112 -0.7880  0.3020
 5730SOL    HW222686   1.382   2.885   4.391  0.8188 -2.3234  0.5431
 5730SOL    HW322687   1.524   2.904   4.437  0.2663 -1.4516  1.9266
 5730SOL    MW422688   1.439   2.917   4.448  0.1350 -1.0781  0.5481
 5731SOL     OW22689   0.859   4.164   4.432 -0.0330 -0.8110  0.3079
 5731SOL    HW222690   0.869   4.215   4.352 -0.9464 -2.2019 -0.7605
 5731SOL    HW322691   0.928   4.195   4.490 -0.1930  1.1811 -0.4963
 5731SOL    MW422692   0.869   4.175   4.429 -0.1746 -0.7317  0.0609
 5732SOL     OW22693   3.759   6.191   6.268  0.0349  0.0690  1.0607
 5732SOL    HW222694   3.721   6.111   6.305  1.1792 -1.5794 -1.0499
 5732SOL    HW322695   3.850   6.167   6.250  0.7796  2.3251  1.5775
 5732SOL    MW422696   3.766   6.177   6.270  0.2841  0.1492  0.8505
 5733SOL     OW22697   5.589   4.082   1.244 -0.2150 -0.0213 -0.5579
 5733SOL    HW222698   5.558   3.996   1.272 -0.1482  0.2413  0.3719
 5733SOL    HW322699   5.678   4.066   1.213 -0.3995 -0.3736 -0.9188
 5733SOL    MW422700   5.597   4.069   1.244 -0.2305 -0.0331 -0.4828
 5734SOL     OW22701   2.486   1.387   0.307 -0.0113 -0.3968 -0.1933
 5734SOL    HW222702   2.549   1.454   0.280  0.4433 -0.7645 -0.0648
 5734SOL    HW322703   2.413   1.436   0.343  0.4871  0.0316  0.2590
 5734SOL    MW422704   2.485   1.402   0.309  0.1144 -0.3888 -0.1166
 5735SOL     OW22705   4.236   4.345   0.392  0.0587 -0.0549  0.5108
 5735SOL    HW222706   4.238   4.437   0.419  0.0556 -0.3912  1.7422
 5735SOL    HW322707   4.165   4.307   0.444 -0.6975 -0.5209 -0.8216
 5735SOL    MW422708   4.227   4.352   0.403 -0.0415 -0.1608  0.4974
 5736SOL     OW22709   4.144   1.968   3.947 -0.7800  0.0006  0.1292
 5736SOL    HW222710   4.135   1.953   3.853  1.0669 -0.0169 -0.0715
 5736SOL    HW322711   4.100   1.893   3.988  0.1421 -1.0390 -0.7435
 5736SOL    MW422712   4.137   1.956   3.940 -0.4146 -0.1388 -0.0124
 5737SOL     OW22713   0.214   3.369   4.676  0.1673 -0.5226  0.5843
 5737SOL    HW222714   0.203   3.446   4.731 -1.9115  0.6719 -1.3108
 5737SOL    HW322715   0.201   3.401   4.586 -6.0868 -3.5027 -0.1837
 5737SOL    MW422716   0.211   3.383   4.671 -0.9321 -0.7582  0.2330
 5738SOL     OW22717   1.273   2.389   2.541  0.1526  0.4728 -0.0340
 5738SOL    HW222718   1.243   2.372   2.630  0.3122 -0.3494 -0.1354
 5738SOL    HW322719   1.201   2.362   2.485  0.9568 -1.2995 -0.2670
 5738SOL    MW422720   1.260   2.383   2.545  0.2797  0.1305 -0.0781
 5739SOL     OW22721   0.606   0.177   4.962 -0.3478  0.3662  0.2567
 5739SOL    HW222722   0.651   0.175   4.878 -0.0772 -0.0847  0.4122
 5739SOL    HW322723   0.517   0.206   4.941  0.0704  1.4967 -0.0193
 5739SOL    MW422724   0.600   0.180   4.948 -0.2569  0.4559  0.2408
 5740SOL     OW22725   0.996   0.579   2.254 -0.2817 -0.1505 -0.3302
 5740SOL    HW222726   1.051   0.625   2.191 -0.6003 -0.0475 -0.5342
 5740SOL    HW322727   0.906   0.595   2.225 -0.4009 -0.9312 -0.4239
 5740SOL    MW422728   0.991   0.587   2.242 -0.3395 -0.2399 -0.3695
 5741SOL     OW22729   1.428   4.520   1.515 -0.2381 -0.4044  0.4423
 5741SOL    HW222730   1.493   4.526   1.444  0.3505  0.8313  1.0545
 5741SOL    HW322731   1.384   4.436   1.500  1.9074 -1.5968  0.3399
 5741SOL    MW422732   1.431   4.510   1.504  0.1226 -0.3987  0.5096
 5742SOL     OW22733   4.980   0.800   0.913  0.0745  0.7105  0.1212
 5742SOL    HW222734   5.039   0.802   0.988 -0.1636 -1.8987  0.4559
 5742SOL    HW322735   5.029   0.756   0.844 -0.0343  2.2870 -1.0334
 5742SOL    MW422736   4.994   0.795   0.914  0.0287  0.5743  0.0131
 5743SOL     OW22737   2.393   0.758   4.788 -0.5759 -0.7645  0.7651
 5743SOL    HW222738   2.343   0.801   4.719 -0.4847 -2.5136 -0.4585
 5743SOL    HW322739   2.326   0.728   4.850 -1.0401 -2.3201 -0.4209
 5743SOL    MW422740   2.377   0.759   4.787 -0.6251 -1.2005  0.4472
 5744SOL     OW22741   0.944   0.040   2.535 -0.2268  0.0468  0.1745
 5744SOL    HW222742   0.991   0.053   2.617 -0.3430  0.5850  0.1559
 5744SOL    HW322743   1.012   0.011   2.474  0.1893  1.2625  0.0263
 5744SOL    MW422744   0.959   0.038   2.538 -0.1873  0.2782  0.1525
 5745SOL     OW22745   5.161   2.856   3.066  0.0457 -0.0933  0.5692
 5745SOL    HW222746   5.154   2.907   3.147 -1.4300 -0.7487  0.8744
 5745SOL    HW322747   5.190   2.769   3.095 -1.1102 -0.5221  0.4974
 5745SOL    MW422748   5.164   2.851   3.081 -0.3015 -0.2363  0.6000
 5746SOL     OW22749   5.581   4.842   3.799 -0.0796  0.0186 -0.1615
 5746SOL    HW222750   5.675   4.829   3.804 -0.1236  0.0618  1.1807
 5746SOL    HW322751   5.553   4.789   3.724  1.0253  0.2166 -0.7379
 5746SOL    MW422752   5.589   4.833   3.790  0.0604  0.0504 -0.0604
 5747SOL     OW22753   3.030   2.527   4.101 -0.0910 -0.1546  0.0858
 5747SOL    HW222754   2.947   2.526   4.055  0.4881  0.3222 -1.0123
 5747SOL    HW322755   3.025   2.454   4.163 -1.7399  0.5559  0.8215
 5747SOL    MW422756   3.019   2.517   4.103 -0.2321  0.0020  0.0380
 5748SOL     OW22757   0.576   6.043   5.429  0.2459  0.7175  0.3770
 5748SOL    HW222758   0.573   5.961   5.379 -2.1400  0.0034  1.5313
 5748SOL    HW322759   0.586   6.014   5.520  0.0971  1.7644  0.7354
 5748SOL    MW422760   0.577   6.028   5.435 -0.0885  0.7614  0.5766
 5749SOL     OW22761   5.939   3.040   1.372 -0.1803  0.3012 -0.6313
 5749SOL    HW222762   5.950   2.977   1.443 -1.9801 -0.3820 -0.9195
 5749SOL    HW322763   5.906   3.118   1.414  1.4798  0.9009 -0.3596
 5749SOL    MW422764   5.936   3.042   1.387 -0.1988  0.2902 -0.6335
 5750SOL     OW22765   2.897   1.926   0.512  0.0492  0.4520  0.2505
 5750SOL    HW222766   2.855   1.882   0.586 -0.6375 -1.6458 -1.2834
 5750SOL    HW322767   2.989   1.898   0.517 -0.0769 -0.0007  0.1253
 5750SOL    MW422768   2.904   1.916   0.522 -0.0580  0.1155  0.0316
 5751SOL     OW22769   4.461   3.770   5.544 -0.3268  0.0130 -0.3774
 5751SOL    HW222770   4.553   3.799   5.544 -0.0029 -0.9607  0.9683
 5751SOL    HW322771   4.451   3.722   5.462  0.0610  1.0068 -1.0282
 5751SOL    MW422772   4.472   3.768   5.533 -0.2329  0.0156 -0.2857
 5752SOL     OW22773   4.076   5.526   0.797 -0.2708 -0.0394  0.0085
 5752SOL    HW222774   4.131   5.448   0.798  0.0513  0.1768 -0.6602
 5752SOL    HW322775   4.045   5.533   0.888 -0.7289 -1.2304 -0.0357
 5752SOL    MW422776   4.080   5.517   0.809 -0.2888 -0.1680 -0.0856
 5753SOL     OW22777   5.775   2.465   2.358 -0.0171 -0.3075  0.2885
 5753SOL    HW222778   5.754   2.395   2.296 -1.0501 -0.0211  0.2915
 5753SOL    HW322779   5.802   2.538   2.302 -2.1004  0.3480  0.0494
 5753SOL    MW422780   5.775   2.466   2.342 -0.4283 -0.1832  0.2573
 5754SOL     OW22781   2.799   1.196   5.856  0.2958 -0.7948 -0.1660
 5754SOL    HW222782   2.839   1.121   5.813  0.9425 -1.0967  0.9212
 5754SOL    HW322783   2.733   1.158   5.914 -1.0362 -0.3508 -1.3257
 5754SOL    MW422784   2.796   1.181   5.858  0.2054 -0.7760 -0.1756
 5755SOL     OW22785   0.987   2.957   2.300  0.0097  0.3339  0.2864
 5755SOL    HW222786   1.035   2.929   2.222 -1.0936  2.1300 -1.1284
 5755SOL    HW322787   0.925   2.886   2.317 -0.9850  0.6521 -1.6423
 5755SOL    MW422788   0.985   2.944   2.292 -0.2671  0.6128 -0.1547
 5756SOL     OW22789   5.090   3.399   4.931  0.0128 -0.1288 -0.2771
 5756SOL    HW222790   5.117   3.308   4.942 -0.4701 -0.1333  1.1081
 5756SOL    HW322791   5.137   3.447   5.000 -0.6338  0.4696 -0.2368
 5756SOL    MW422792   5.100   3.394   4.942 -0.1363 -0.0505 -0.0890
 5757SOL     OW22793   3.924   4.214   3.352 -0.6974 -0.1702 -0.7064
 5757SOL    HW222794   3.856   4.226   3.285 -1.0888  0.3950 -0.2204
 5757SOL    HW322795   3.975   4.139   3.321 -1.4892 -0.5562 -1.1258
 5757SOL    MW422796   3.921   4.206   3.339 -0.8535 -0.1465 -0.6976
 5758SOL     OW22797   3.701   6.341   0.190 -0.2528 -0.1432 -0.1934
 5758SOL    HW222798   3.706   6.415   0.251 -0.2696  0.7358 -1.2223
 5758SOL    HW322799   3.759   6.366   0.118  0.1915 -1.4074 -0.2912
 5758SOL    MW422800   3.709   6.354   0.188 -0.1964 -0.1940 -0.3420
 5759SOL     OW22801   0.321   4.243   1.263 -0.7512 -0.4952  0.4659
 5759SOL    HW222802   0.292   4.263   1.351  0.2892 -1.0025  0.9464
 5759SOL    HW322803   0.394   4.182   1.275  0.2910  0.4781 -0.6703
 5759SOL    MW422804   0.327   4.238   1.276 -0.4764 -0.4337  0.3794
 5760SOL     OW22805   0.954   1.764   3.414  0.3123  0.5436  0.6792
 5760SOL    HW222806   1.005   1.683   3.406  0.8371  0.7785  1.5883
 5760SOL    HW322807   0.870   1.742   3.373  1.6226  0.6340 -2.3149
 5760SOL    MW422808   0.950   1.750   3.408  0.5544  0.5865  0.4041
 5761SOL     OW22809   6.376   3.564   5.345  0.4825 -0.0877  0.3591
 5761SOL    HW222810   6.455   3.515   5.322  0.3601 -0.4021  0.6116
 5761SOL    HW322811   6.406   3.630   5.408  0.5430 -0.2048  0.4533
 5761SOL    MW422812   6.391   3.566   5.350  0.4743 -0.1447  0.4048
 5762SOL     OW22813   2.092   4.799   5.799 -0.3845 -0.2777  0.2310
 5762SOL    HW222814   2.090   4.706   5.821 -1.4584  0.3414  3.0955
 5762SOL    HW322815   2.186   4.820   5.794 -0.1110 -1.1134  1.4482
 5762SOL    MW422816   2.104   4.790   5.801 -0.4901 -0.3063  0.7696
 5763SOL     OW22817   6.152   5.875   3.041  0.5101  0.0010 -0.3189
 5763SOL    HW222818   6.124   5.937   2.973  0.7327  0.5574  0.0903
 5763SOL    HW322819   6.073   5.825   3.061  0.6994 -0.9129 -1.7524
 5763SOL    MW422820   6.138   5.877   3.035  0.5645 -0.0462 -0.4541
 5764SOL     OW22821   5.921   3.188   4.657  0.2271  0.0456  0.0117
 5764SOL    HW222822   5.887   3.101   4.638 -0.0547  0.2705 -0.5546
 5764SOL    HW322823   5.876   3.214   4.738  0.1784 -0.2623  0.0856
 5764SOL    MW422824   5.910   3.180   4.665  0.1835  0.0346 -0.0533
 5765SOL     OW22825   3.284   3.448   3.818 -0.5386 -0.4916  0.4765
 5765SOL    HW222826   3.368   3.468   3.858  1.0272 -1.3506 -2.1126
 5765SOL    HW322827   3.291   3.355   3.794 -1.2828 -0.0364 -1.7497
 5765SOL    MW422828   3.296   3.438   3.820 -0.4302 -0.5449 -0.1588
 5766SOL     OW22829   4.166   5.437   4.317  0.0997 -0.1722 -0.1863
 5766SOL    HW222830   4.134   5.524   4.293  2.8389  0.6930 -1.0941
 5766SOL    HW322831   4.186   5.395   4.233  0.4827 -1.0045  0.3081
 5766SOL    MW422832   4.164   5.443   4.303  0.5117 -0.1678 -0.2409
 5767SOL     OW22833   2.487   3.524   3.179  0.2281  0.0969 -0.3096
 5767SOL    HW222834   2.570   3.563   3.152 -0.0122  0.7021 -0.1854
 5767SOL    HW322835   2.494   3.517   3.274 -0.3817  1.3969 -0.1476
 5767SOL    MW422836   2.499   3.528   3.188  0.1160  0.3483 -0.2718
 5768SOL     OW22837   5.564   1.741   5.618 -0.4738 -0.3694  0.6395
 5768SOL    HW222838   5.566   1.736   5.523  0.9518 -0.2677  0.6415
 5768SOL    HW322839   5.593   1.830   5.638  1.3814 -1.0378  1.1763
 5768SOL    MW422840   5.568   1.752   5.608 -0.0409 -0.4442  0.7106
 5769SOL     OW22841   2.130   0.145   0.921  0.1992  0.7053  0.2236
 5769SOL    HW222842   2.103   0.234   0.897  1.4962  0.7171 -1.3646
 5769SOL    HW322843   2.073   0.088   0.871 -1.1428  0.5688  1.8110
 5769SOL    MW422844   2.119   0.149   0.911  0.1932  0.6889  0.2235
 5770SOL     OW22845   3.879   1.382   2.799 -0.0443 -0.3517  0.1533
 5770SOL    HW222846   3.801   1.331   2.779 -0.8387  1.3412 -1.3532
 5770SOL    HW322847   3.952   1.321   2.787 -0.9731 -1.2197 -1.3154
 5770SOL    MW422848   3.879   1.367   2.795 -0.2717 -0.2429 -0.2392
 5771SOL     OW22849   4.888   3.472   3.172  0.0617  0.6288  0.1025
 5771SOL    HW222850   4.893   3.422   3.090 -0.1434  1.6152 -0.5347
 5771SOL    HW322851   4.979   3.485   3.198  0.1591  0.9873 -0.4025
 5771SOL    MW422852   4.901   3.467   3.164  0.0475  0.8062 -0.0482
 5772SOL     OW22853   0.658   5.084   5.135  0.2226  0.0291 -0.3050
 5772SOL    HW222854   0.623   4.996   5.153 -1.4488  0.7176 -0.0253
 5772SOL    HW322855   0.749   5.079   5.164 -0.1351 -1.3003  0.7158
 5772SOL    MW422856   0.666   5.071   5.141 -0.0451 -0.0554 -0.1334
 5773SOL     OW22857   0.379   6.044   5.761  0.0364 -0.3390 -0.4358
 5773SOL    HW222858   0.383   5.949   5.774 -3.0110 -0.4464  0.4098
 5773SOL    HW322859   0.305   6.072   5.814  2.0673  2.8608  0.9624
 5773SOL    MW422860   0.370   6.035   5.770 -0.0977  0.0690 -0.1397
 5774SOL     OW22861   5.177   6.197   0.926 -0.1613 -0.4160  0.2284
 5774SOL    HW222862   5.231   6.231   0.997 -0.8987  1.0989  0.1061
 5774SOL    HW322863   5.236   6.193   0.851  0.4683 -1.4518  0.7642
 5774SOL    MW422864   5.192   6.201   0.925 -0.1755 -0.3528  0.2830
 5775SOL     OW22865   2.466   3.731   4.384 -0.1915 -0.2473 -0.1441
 5775SOL    HW222866   2.546   3.765   4.425  0.4794 -1.1862 -0.6285
 5775SOL    HW322867   2.400   3.737   4.453  0.9045 -1.7789  1.1494
 5775SOL    MW422868   2.468   3.736   4.399  0.0416 -0.5732 -0.0373
 5776SOL     OW22869   0.605   1.813   5.202  0.1885 -0.0912 -0.2418
 5776SOL    HW222870   0.583   1.754   5.274 -0.3280  1.5242  0.9969
 5776SOL    HW322871   0.525   1.819   5.150  0.1825 -0.3261 -0.2598
 5776SOL    MW422872   0.592   1.806   5.205  0.1196  0.0909 -0.0808
 5777SOL     OW22873   3.015   3.763   2.672  0.2899 -0.5974 -0.2051
 5777SOL    HW222874   2.991   3.678   2.710  1.0210 -0.8890 -0.3856
 5777SOL    HW322875   3.040   3.817   2.747  2.0859 -1.2866 -0.2658
 5777SOL    MW422876   3.015   3.759   2.687  0.6234 -0.7268 -0.2369
 5778SOL     OW22877   6.026   3.214   0.673  0.2628  0.3814  0.3735
 5778SOL    HW222878   5.961   3.261   0.622 -0.1970 -1.5391 -0.9248
 5778SOL    HW322879   5.975   3.172   0.743  0.5303  1.0639  0.9852
 5778SOL    MW422880   6.011   3.214   0.676  0.2374  0.2180  0.2829
 5779SOL     OW22881   2.321   3.789   3.450 -0.4397 -0.2686  0.2774
 5779SOL    HW222882   2.397   3.733   3.434 -0.4160  0.0804 -0.8973
 5779SOL    HW322883   2.329   3.813   3.542  1.6205  0.8583 -0.1383
 5779SOL    MW422884   2.332   3.784   3.460 -0.1647 -0.0739  0.0676
 5780SOL     OW22885   3.154   0.613   5.594 -0.4882 -0.1448  0.6626
 5780SOL    HW222886   3.246   0.612   5.622  0.4300  1.4369 -1.9582
 5780SOL    HW322887   3.136   0.705   5.577 -2.7827 -0.3636  1.6209
 5780SOL    MW422888   3.164   0.625   5.596 -0.6698  0.0350  0.4433
 5781SOL     OW22889   3.568   0.174   3.119 -0.2845 -0.3076  0.0768
 5781SOL    HW222890   3.641   0.212   3.167  1.7790 -2.4034 -1.2025
 5781SOL    HW322891   3.490   0.212   3.159  1.4332  0.8464  2.5316
 5781SOL    MW422892   3.567   0.184   3.131  0.2144 -0.4318  0.2319
 5782SOL     OW22893   5.435   4.430   6.084  0.0163  0.3980 -0.3296
 5782SOL    HW222894   5.442   4.350   6.032 -3.1711 -0.2255 -0.0015
 5782SOL    HW322895   5.441   4.401   6.174 -0.9476  0.5317 -0.2131
 5782SOL    MW422896   5.437   4.416   6.089 -0.5314  0.3334 -0.2709
 5783SOL     OW22897   2.359   2.595   2.156  0.3947 -0.3397  0.6552
 5783SOL    HW222898   2.439   2.545   2.139  0.4182 -1.1054  2.7490
 5783SOL    HW322899   2.291   2.550   2.106  1.1926  0.1988 -0.9803
 5783SOL    MW422900   2.361   2.583   2.147  0.5030 -0.3697  0.7157
 5784SOL     OW22901   2.316   3.212   5.803  0.0357 -0.4664 -0.2934
 5784SOL    HW222902   2.269   3.130   5.787  0.7068 -0.4976 -2.2808
 5784SOL    HW322903   2.283   3.272   5.736  0.1442  0.6693  0.6399
 5784SOL    MW422904   2.305   3.209   5.792  0.1385 -0.3207 -0.4325
 5785SOL     OW22905   3.781   4.416   6.103  0.3404  0.0117  0.3855
 5785SOL    HW222906   3.809   4.340   6.154 -0.1372 -1.4794 -1.4494
 5785SOL    HW322907   3.700   4.444   6.144  1.0120  0.1701  1.6707
 5785SOL    MW422908   3.774   4.410   6.115  0.3660 -0.1641  0.3129
 5786SOL     OW22909   2.671   1.664   2.650 -0.0959 -0.5503 -0.3823
 5786SOL    HW222910   2.636   1.734   2.706  0.3437 -0.5010 -0.1641
 5786SOL    HW322911   2.622   1.586   2.676  0.8213 -0.7513  0.8216
 5786SOL    MW422912   2.660   1.663   2.661  0.0831 -0.5703 -0.1946
 5787SOL     OW22913   2.807   2.549   4.460  0.6679  0.2237 -0.0302
 5787SOL    HW222914   2.885   2.585   4.417  1.6589 -1.6797  0.0791
 5787SOL    HW322915   2.820   2.454   4.458 -1.8610 -0.1807 -0.3746
 5787SOL    MW422916   2.819   2.541   4.454  0.4650 -0.0808 -0.0612
 5788SOL     OW22917   3.441   1.584   1.869 -0.3367 -0.6285  0.4514
 5788SOL    HW222918   3.397   1.587   1.784 -0.4845 -0.1152  0.5479
 5788SOL    HW322919   3.511   1.648   1.862  1.2667 -2.3345 -0.1738
 5788SOL    MW422920   3.444   1.593   1.857 -0.1446 -0.7858  0.3816
 5789SOL     OW22921   3.485   6.178   0.808  0.2818  0.1799 -0.8206
 5789SOL    HW222922   3.519   6.139   0.889  1.8240  1.8839 -0.5789
 5789SOL    HW322923   3.465   6.103   0.752 -1.5524 -1.1044  1.3493
 5789SOL    MW422924   3.487   6.163   0.812  0.2433  0.2353 -0.5025
 5790SOL     OW22925   4.099   1.394   6.384 -0.4001  0.0641  0.0933
 5790SOL    HW222926   4.113   1.488   6.397 -1.3676  0.5253 -1.7534
 5790SOL    HW322927   4.004   1.383   6.388 -0.2955 -0.8437  0.3029
 5790SOL    MW422928   4.088   1.405   6.386 -0.5140  0.0052 -0.1227
 5791SOL     OW22929   1.044   0.028   0.497 -0.1042 -0.4664  0.8710
 5791SOL    HW222930   0.994   0.048   0.418 -0.0078 -2.1135  0.3687
 5791SOL    HW322931   0.995   0.071   0.567 -1.3572 -0.7237  0.1834
 5791SOL    MW422932   1.030   0.036   0.496 -0.2568 -0.7177  0.7140
 5792SOL     OW22933   6.029   2.754   0.084  0.3350  0.1664 -0.5452
 5792SOL    HW222934   6.031   2.792  -0.004  2.0483  1.5615  0.0279
 5792SOL    HW322935   6.099   2.689   0.084 -0.6747 -0.9659 -0.6332
 5792SOL    MW422936   6.039   2.750   0.073  0.4278  0.2011 -0.4812
 5793SOL     OW22937   2.830   1.049   4.213 -0.4149  0.1988  0.6022
 5793SOL    HW222938   2.778   0.984   4.261  0.7186 -0.5341  0.8835
 5793SOL    HW322939   2.834   1.014   4.123 -0.8547  0.5362  0.4483
 5793SOL    MW422940   2.824   1.036   4.207 -0.3234  0.1466  0.6190
 5794SOL     OW22941   3.755   6.179   2.491 -0.0614 -0.8484  0.0995
 5794SOL    HW222942   3.663   6.198   2.472 -0.0370 -0.6747  0.1594
 5794SOL    HW322943   3.769   6.091   2.454 -0.0658 -0.5982 -0.5089
 5794SOL    MW422944   3.745   6.170   2.484 -0.0588 -0.7925  0.0272
 5795SOL     OW22945   4.943   1.913   0.120  0.0116  0.0615  0.0634
 5795SOL    HW222946   4.882   1.852   0.163 -1.3218  0.5374 -1.0732
 5795SOL    HW322947   4.886   1.972   0.070  1.2739  2.2109  1.0676
 5795SOL    MW422948   4.927   1.913   0.119  0.0022  0.4079  0.0459
 5796SOL     OW22949   1.512   1.165   0.613 -0.2738  0.3910  0.2608
 5796SOL    HW222950   1.590   1.178   0.559  0.8282  0.1451  1.7223
 5796SOL    HW322951   1.439   1.188   0.555  0.6970 -1.4714 -1.8430
 5796SOL    MW422952   1.513   1.170   0.598 -0.0003  0.1128  0.1760
 5797SOL     OW22953   2.918   6.138   6.204  0.1199 -0.1445 -0.0397
 5797SOL    HW222954   2.857   6.112   6.273 -1.2392  1.0047 -0.7503
 5797SOL    HW322955   2.942   6.228   6.226  0.3823 -0.0841 -0.5570
 5797SOL    MW422956   2.913   6.147   6.216 -0.0248  0.0151 -0.2017
 5798SOL     OW22957   2.345   6.234   4.277  0.2668  0.1300  0.0222
 5798SOL    HW222958   2.276   6.250   4.342  0.4892 -0.4717  0.4083
 5798SOL    HW322959   2.375   6.322   4.252  0.8701  0.3658  1.4775
 5798SOL    MW422960   2.340   6.248   4.283  0.3758  0.0817  0.2652
 5799SOL     OW22961   4.880   5.209   1.473  0.3721 -0.0120  0.1043
 5799SOL    HW222962   4.931   5.201   1.392 -1.4026 -0.4354 -1.0277
 5799SOL    HW322963   4.846   5.299   1.471  0.6883  0.1208  0.6151
 5799SOL    MW422964   4.882   5.220   1.462  0.1797 -0.0504  0.0223
 5800SOL     OW22965   1.815   0.391   1.526  0.5181 -0.4151  0.1634
 5800SOL    HW222966   1.758   0.314   1.525  0.5962 -0.4894  1.0195
 5800SOL    HW322967   1.770   0.454   1.582  1.0039 -0.2580  0.3805
 5800SOL    MW422968   1.802   0.389   1.533  0.5925 -0.4042  0.3050
 5801SOL     OW22969   2.834   5.955   4.279  0.3530  0.2613 -0.3529
 5801SOL    HW222970   2.902   6.013   4.245  0.8514  2.2214  3.4950
 5801SOL    HW322971   2.756   6.010   4.283 -0.2358 -0.5641 -0.3655
 5801SOL    MW422972   2.833   5.970   4.275  0.3411  0.4110  0.1531
 5802SOL     OW22973   4.707   4.494   1.859 -0.2553  0.4907  0.1411
 5802SOL    HW222974   4.774   4.550   1.819  0.0553  0.6202  0.8203
 5802SOL    HW322975   4.723   4.501   1.953 -1.4684  0.8250  0.3412
 5802SOL    MW422976   4.718   4.503   1.867 -0.3744  0.5519  0.2571
 5803SOL     OW22977   2.763   6.250   2.840 -0.0018 -0.2407 -0.8043
 5803SOL    HW222978   2.796   6.331   2.800  1.2550 -0.2682  0.0993
 5803SOL    HW322979   2.694   6.279   2.900  2.1462  0.5732  1.4762
 5803SOL    MW422980   2.758   6.265   2.843  0.4474 -0.1369 -0.3842
 5804SOL     OW22981   6.019   5.529   2.408 -0.5892 -0.2212  0.5114
 5804SOL    HW222982   6.055   5.538   2.319  0.9656 -1.6125  0.9615
 5804SOL    HW322983   6.029   5.437   2.429 -3.6486 -0.5393  1.0807
 5804SOL    MW422984   6.025   5.518   2.399 -0.7877 -0.4467  0.6459
 5805SOL     OW22985   3.580   0.767   4.067 -0.1565  0.1597 -0.3004
 5805SOL    HW222986   3.558   0.859   4.085  0.2924  0.0913  0.6973
 5805SOL    HW322987   3.530   0.745   3.989  0.6238  1.6060 -1.2750
 5805SOL    MW422988   3.571   0.776   4.059  0.0057  0.3415 -0.2974
 5806SOL     OW22989   4.991   5.486   2.715  0.4022 -0.0219  0.6938
 5806SOL    HW222990   5.074   5.528   2.693  1.1556 -0.8907  1.7842
 5806SOL    HW322991   4.963   5.527   2.796  0.4457 -0.6509  1.0341
 5806SOL    MW422992   4.998   5.497   2.722  0.5073 -0.2195  0.8826
 5807SOL     OW22993   6.364   3.346   6.002  0.4696 -0.3762  0.0265
 5807SOL    HW222994   6.311   3.266   5.998 -0.0802 -0.0731  0.8322
 5807SOL    HW322995   6.399   3.357   5.914  0.7934 -1.6641 -0.0284
 5807SOL    MW422996   6.362   3.337   5.990  0.4398 -0.5061  0.1256
 5808SOL     OW22997   5.020   2.388   4.989 -0.0901  0.3899 -0.1357
 5808SOL    HW222998   4.986   2.440   5.062 -1.3696  0.7677 -0.9649
 5808SOL    HW322999   4.964   2.412   4.915  0.9924 -0.2033 -1.1718
 5808SOL    MW423000   5.008   2.398   4.989 -0.1161  0.3615 -0.3818
 5809SOL     OW23001   4.442   2.280   5.567  0.1763  0.0293  0.1194
 5809SOL    HW223002   4.497   2.258   5.642 -0.5042 -0.7506  0.4048
 5809SOL    HW323003   4.355   2.250   5.591 -0.4871  1.6281 -0.1530
 5809SOL    MW423004   4.438   2.273   5.580 -0.0010  0.1373  0.1211
 5810SOL     OW23005   4.299   4.167   0.983 -0.1776  0.1011 -0.0931
 5810SOL    HW223006   4.348   4.120   1.050 -0.7933 -1.2425 -0.5598
 5810SOL    HW323007   4.347   4.151   0.902 -0.2135  0.5553 -0.2105
 5810SOL    MW423008   4.312   4.159   0.981 -0.2636 -0.0162 -0.1701
 5811SOL     OW23009   2.822   4.549   4.239 -0.2976 -0.2832 -0.0306
 5811SOL    HW223010   2.871   4.470   4.260 -0.7868 -0.9024 -1.1457
 5811SOL    HW323011   2.776   4.529   4.157 -0.6431  1.0561 -0.2034
 5811SOL    MW423012   2.822   4.536   4.231 -0.4077 -0.1882 -0.2005
 5812SOL     OW23013   2.317   0.156   3.222  0.6318 -0.0815 -0.0733
 5812SOL    HW223014   2.235   0.188   3.258  0.7787  0.0235  0.1651
 5812SOL    HW323015   2.311   0.061   3.230 -0.1905 -0.1982 -1.5946
 5812SOL    MW423016   2.305   0.147   3.228  0.5427 -0.0831 -0.2425
 5813SOL     OW23017   1.031   2.994   0.221 -0.1106  0.0201 -0.7205
 5813SOL    HW223018   0.983   2.954   0.293  0.2197 -0.4065 -0.7307
 5813SOL    HW323019   1.122   2.997   0.252 -0.0418  0.2466 -0.9415
 5813SOL    MW423020   1.037   2.989   0.235 -0.0579 -0.0063 -0.7510
 5814SOL     OW23021   2.036   1.130   4.923 -0.0759 -0.4360  0.5833
 5814SOL    HW223022   2.130   1.135   4.937  0.0606  0.1979 -0.4894
 5814SOL    HW323023   1.999   1.119   5.011  0.7501  3.1996  1.5403
 5814SOL    MW423024   2.043   1.129   4.937  0.0511  0.1273  0.5680
 5815SOL     OW23025   0.353   1.670   3.743  0.0212  0.1843  0.3236
 5815SOL    HW223026   0.302   1.614   3.801  1.1666 -1.1224  0.1135
 5815SOL    HW323027   0.357   1.754   3.789 -0.4686 -0.3404  1.3563
 5815SOL    MW423028   0.347   1.674   3.757  0.1077 -0.0573  0.4321
 5816SOL     OW23029   4.324   5.099   6.045 -0.2785  0.3819  0.4672
 5816SOL    HW223030   4.351   5.165   5.981 -0.4375  1.5916  1.5996
 5816SOL    HW323031   4.239   5.068   6.013  0.2170  0.0419 -0.5596
 5816SOL    MW423032   4.316   5.104   6.033 -0.2341  0.4967  0.4811
 5817SOL     OW23033   1.295   4.669   2.323  0.2610 -0.1369 -0.0229
 5817SOL    HW223034   1.242   4.711   2.391 -0.6907 -2.2687  0.6193
 5817SOL    HW323035   1.350   4.740   2.289 -1.1673  1.5752  1.0728
 5817SOL    MW423036   1.295   4.684   2.328 -0.0530 -0.1923  0.2064
 5818SOL     OW23037   6.236   5.546   3.980  0.0485  0.2869  0.2494
 5818SOL    HW223038   6.249   5.613   3.913  0.2889  1.0778  1.0609
 5818SOL    HW323039   6.148   5.513   3.964 -0.5275  1.6040  0.5136
 5818SOL    MW423040   6.227   5.551   3.969  0.0042  0.5651  0.3913
 5819SOL     OW23041   0.865   0.084   5.891 -0.0136 -0.7894  0.8991
 5819SOL    HW223042   0.862   0.108   5.984 -2.6282 -0.5976  0.8209
 5819SOL    HW323043   0.801   0.141   5.849  2.4708  0.5229 -1.4459
 5819SOL    MW423044   0.856   0.095   5.898 -0.0308 -0.5910  0.5794
 5820SOL     OW23045   3.760   0.376   3.187 -0.4770 -0.3662 -0.1174
 5820SOL    HW223046   3.847   0.337   3.184  0.1987  1.0897 -1.0471
 5820SOL    HW323047   3.748   0.416   3.100 -1.5299  0.5628  0.4140
 5820SOL    MW423048   3.770   0.376   3.175 -0.5268 -0.0516 -0.1699
 5821SOL     OW23049   0.114   0.434   1.739 -0.7322  0.2427 -0.2397
 5821SOL    HW223050   0.178   0.466   1.675  0.9341 -0.6853  0.9135
 5821SOL    HW323051   0.082   0.513   1.782  0.7454  0.6311  0.1763
 5821SOL    MW423052   0.118   0.449   1.736 -0.3174  0.1715 -0.0327
 5822SOL     OW23053   4.890   2.979   5.287 -0.4167 -0.4099  0.0422
 5822SOL    HW223054   4.959   3.044   5.275 -0.3656 -0.6414 -0.9499
 5822SOL    HW323055   4.833   2.990   5.211 -2.1109  0.5223  1.3619
 5822SOL    MW423056   4.892   2.989   5.276 -0.6335 -0.3174  0.0854
 5823SOL     OW23057   2.282   3.194   4.619 -0.3667  0.1275  0.3786
 5823SOL    HW223058   2.330   3.267   4.580 -1.8664  1.2296  0.4875
 5823SOL    HW323059   2.316   3.187   4.709  1.3795 -0.8367 -0.3084
 5823SOL    MW423060   2.293   3.203   4.626 -0.3342  0.1457  0.3024
 5824SOL     OW23061   3.706   6.128   2.763 -0.0923 -0.5199  0.9757
 5824SOL    HW223062   3.652   6.203   2.788 -1.3019 -1.3531  0.9449
 5824SOL    HW323063   3.747   6.154   2.681  0.5412  0.5994  1.6214
 5824SOL    MW423064   3.704   6.142   2.755 -0.1683 -0.4821  1.0568
 5825SOL     OW23065   2.855   4.760   0.822 -0.7210 -0.0211 -0.0878
 5825SOL    HW223066   2.939   4.799   0.798 -0.1260 -0.2577  1.4680
 5825SOL    HW323067   2.801   4.835   0.846 -0.2723  0.0368  0.8274
 5825SOL    MW423068   2.859   4.775   0.822 -0.5833 -0.0447  0.2382
 5826SOL     OW23069   5.190   6.226   3.922 -0.7961 -0.4758  0.0421
 5826SOL    HW223070   5.096   6.229   3.936 -0.6479 -0.5005  1.1387
 5826SOL    HW323071   5.202   6.173   3.843 -1.7295  0.1151 -0.5067
 5826SOL    MW423072   5.179   6.220   3.913 -0.8997 -0.4011  0.1144
 5827SOL     OW23073   1.211   2.844   3.954 -0.1543 -0.0626  0.4539
 5827SOL    HW223074   1.216   2.773   3.890 -3.0456 -0.0534  0.0714
 5827SOL    HW323075   1.192   2.922   3.902 -0.7640  0.2684  1.1515
 5827SOL    MW423076   1.209   2.845   3.939 -0.6162 -0.0177  0.4955
 5828SOL     OW23077   6.020   3.011   5.864  0.6954  0.1990  0.3718
 5828SOL    HW223078   6.027   2.994   5.770 -0.1224 -0.0251  0.3449
 5828SOL    HW323079   5.966   2.939   5.898 -4.4908  3.3569 -0.0312
 5828SOL    MW423080   6.014   2.999   5.856 -0.0968  0.5861  0.3150
 5829SOL     OW23081   3.029   5.411   4.256  0.3901  0.1401  0.1637
 5829SOL    HW223082   3.031   5.413   4.160 -1.1681  2.4648  0.1076
 5829SOL    HW323083   3.113   5.450   4.282  0.9070 -0.6822 -0.2314
 5829SOL    MW423084   3.040   5.417   4.247  0.2527  0.3383  0.1042
 5830SOL     OW23085   3.631   3.097   0.058 -0.6179 -0.0944  0.2762
 5830SOL    HW223086   3.686   3.083  -0.019  0.1188 -1.5754  1.0246
 5830SOL    HW323087   3.662   3.179   0.096  0.7075 -0.6163  0.3619
 5830SOL    MW423088   3.642   3.106   0.053 -0.3458 -0.3586  0.3863
 5831SOL     OW23089   5.959   5.358   5.629 -0.1094  0.4399  0.2332
 5831SOL    HW223090   5.881   5.337   5.681 -0.2348 -1.8557 -0.7307
 5831SOL    HW323091   5.936   5.437   5.581 -1.0132  1.0188  1.5723
 5831SOL    MW423092   5.946   5.366   5.630 -0.2452  0.2134  0.2827
 5832SOL     OW23093   2.169   5.386   3.184  0.0409  0.3628 -0.7528
 5832SOL    HW223094   2.216   5.462   3.150  1.0475 -0.0678 -0.3655
 5832SOL    HW323095   2.076   5.408   3.174  0.3211  1.5113 -0.9080
 5832SOL    MW423096   2.163   5.399   3.178  0.2107  0.4575 -0.7222
 5833SOL     OW23097   0.960   0.869   0.690 -0.1538 -0.4691 -0.1090
 5833SOL    HW223098   1.007   0.831   0.764 -1.0402  0.3778  0.9277
 5833SOL    HW323099   1.000   0.955   0.678  0.4107 -0.8499 -1.0453
 5833SOL    MW423100   0.972   0.875   0.698 -0.1963 -0.4076 -0.0958
 5834SOL     OW23101   3.267   0.249   6.250  0.6066 -0.3197  0.3831
 5834SOL    HW223102   3.352   0.289   6.231  0.3550  0.0858  0.0936
 5834SOL    HW323103   3.205   0.298   6.195 -0.0104  0.2793  1.5738
 5834SOL    MW423104   3.270   0.261   6.240  0.4920 -0.1872  0.5020
 5835SOL     OW23105   5.713   4.861   1.618 -0.2323 -0.1594 -0.0656
 5835SOL    HW223106   5.798   4.834   1.582 -0.0673 -0.0205  0.2159
 5835SOL    HW323107   5.649   4.825   1.558 -0.0739 -2.1690  0.8860
 5835SOL    MW423108   5.716   4.853   1.606 -0.1896 -0.4062  0.0971
 5836SOL     OW23109   6.032   1.546   5.987 -0.0844  0.0053 -0.2987
 5836SOL    HW223110   5.970   1.489   5.942 -0.1599 -0.5543  0.4938
 5836SOL    HW323111   5.982   1.626   6.005 -0.7079 -0.5706  0.6364
 5836SOL    MW423112   6.017   1.549   5.984 -0.1766 -0.1445 -0.0707
 5837SOL     OW23113   1.225   2.819   1.570 -0.5089 -0.6019 -1.0567
 5837SOL    HW223114   1.310   2.812   1.527 -0.1688 -0.1778 -0.4631
 5837SOL    HW323115   1.228   2.902   1.618 -1.5301 -0.2275 -1.6153
 5837SOL    MW423116   1.236   2.829   1.571 -0.5987 -0.4965 -1.0521
 5838SOL     OW23117   4.995   3.959   1.387 -0.0656  0.0160 -0.1159
 5838SOL    HW223118   5.002   3.980   1.294  1.3022 -0.1629 -0.0673
 5838SOL    HW323119   4.984   3.863   1.389  1.7690 -0.2204 -0.0471
 5838SOL    MW423120   4.994   3.949   1.375  0.3569 -0.0388 -0.1004
 5839SOL     OW23121   0.614   0.878   6.264  0.1645  0.0978 -0.4937
 5839SOL    HW223122   0.521   0.877   6.241  0.6232  1.2550 -2.6150
 5839SOL    HW323123   0.629   0.964   6.303  0.3769 -0.0326 -0.2839
 5839SOL    MW423124   0.604   0.889   6.266  0.2530  0.2333 -0.7459
 5840SOL     OW23125   0.526   3.827   4.021 -0.5608 -0.0462  0.6045
 5840SOL    HW223126   0.525   3.895   3.954 -0.6703 -1.1530 -0.5493
 5840SOL    HW323127   0.493   3.749   3.976 -0.9645 -0.7346  2.0434
 5840SOL    MW423128   0.521   3.826   4.006 -0.6285 -0.2831  0.6421
 5841SOL     OW23129   2.879   4.335   1.717  0.3400  0.1458  0.5254
 5841SOL    HW223130   2.792   4.333   1.757 -0.4347 -0.1780 -1.0750
 5841SOL    HW323131   2.938   4.363   1.787 -0.6815 -1.9041  2.3138
 5841SOL    MW423132   2.875   4.338   1.732  0.1031 -0.1674  0.5502
 5842SOL     OW23133   1.624   2.617   0.614 -0.1739 -0.3408 -0.2283
 5842SOL    HW223134   1.543   2.566   0.613  1.0633 -2.7770  3.3543
 5842SOL    HW323135   1.694   2.551   0.607  1.4999  1.0864  1.7968
 5842SOL    MW423136   1.623   2.602   0.613  0.2102 -0.4739  0.5116
 5843SOL     OW23137   0.159   0.069   2.738  0.0835  0.0628 -0.2975
 5843SOL    HW223138   0.190   0.086   2.827 -1.2382 -0.8346  0.3641
 5843SOL    HW323139   0.126   0.153   2.707  2.0824  0.7837 -0.6174
 5843SOL    MW423140   0.159   0.082   2.745  0.1728  0.0395 -0.2524
 5844SOL     OW23141   3.281   4.434   3.781 -0.0469 -0.2069  0.3485
 5844SOL    HW223142   3.315   4.347   3.802 -1.0922 -0.8977 -0.6857
 5844SOL    HW323143   3.256   4.471   3.866  1.5505 -0.3969  0.9294
 5844SOL    MW423144   3.282   4.428   3.795  0.0259 -0.3231  0.2887
 5845SOL     OW23145   1.846   2.464   0.657 -0.4914 -0.4400  0.1329
 5845SOL    HW223146   1.852   2.387   0.713 -1.0186 -0.5095  0.0956
 5845SOL    HW323147   1.883   2.535   0.709 -2.2968 -0.1879  1.1570
 5845SOL    MW423148   1.852   2.463   0.671 -0.7992 -0.4159  0.2631
 5846SOL     OW23149   2.748   3.063   2.985  0.2739  0.6168 -0.1750
 5846SOL    HW223150   2.693   3.136   3.013 -0.1335  1.2330 -2.3624
 5846SOL    HW323151   2.698   2.985   3.009 -0.7972  1.1440 -0.6348
 5846SOL    MW423152   2.734   3.062   2.992  0.0789  0.7677 -0.5243
 5847SOL     OW23153   3.338   5.916   4.221  0.0751  0.0465  0.2615
 5847SOL    HW223154   3.327   5.940   4.129  0.9989  1.0045  0.3745
 5847SOL    HW323155   3.431   5.895   4.229  0.6624  2.6650  1.5151
 5847SOL    MW423156   3.349   5.917   4.210  0.2744  0.5184  0.4418
 5848SOL     OW23157   3.179   5.317   1.325  0.0332 -0.1851 -0.1822
 5848SOL    HW223158   3.136   5.376   1.264 -0.4163  1.2653  1.4540
 5848SOL    HW323159   3.143   5.341   1.411  0.3399 -2.3950  0.6324
 5848SOL    MW423160   3.168   5.328   1.329  0.0143 -0.2853  0.1412
 5849SOL     OW23161   3.101   2.405   0.873  0.1028  0.3721  0.9948
 5849SOL    HW223162   3.156   2.411   0.795  0.2852 -1.5089  0.9471
 5849SOL    HW323163   3.160   2.376   0.943 -0.5308 -0.3062  1.2632
 5849SOL    MW423164   3.116   2.402   0.872  0.0433  0.0344  1.0239
 5850SOL     OW23165   4.901   2.273   4.697 -0.3318 -0.3995  0.4418
 5850SOL    HW223166   4.855   2.350   4.733 -0.4256  0.8157 -2.0847
 5850SOL    HW323167   4.978   2.309   4.654  1.0168 -2.0440  1.3513
 5850SOL    MW423168   4.905   2.288   4.696 -0.1662 -0.4562  0.2285
 5851SOL     OW23169   0.667   6.307   4.657 -0.2606  0.1054  0.3023
 5851SOL    HW223170   0.664   6.278   4.566 -0.5414 -0.7078  0.5564
 5851SOL    HW323171   0.690   6.399   4.653  1.1578 -0.2602 -0.5297
 5851SOL    MW423172   0.670   6.315   4.645 -0.1106 -0.0501  0.2261
 5852SOL     OW23173   2.730   2.780   1.664 -0.2362  0.7398 -0.0236
 5852SOL    HW223174   2.657   2.779   1.602  0.6624  0.8922 -1.1129
 5852SOL    HW323175   2.708   2.713   1.728 -1.5246  1.0606 -0.0875
 5852SOL    MW423176   2.717   2.771   1.664 -0.2876  0.8022 -0.1757
 5853SOL     OW23177   1.531   5.135   0.924  0.2990  0.1962 -0.0135
 5853SOL    HW223178   1.445   5.176   0.935 -0.4351 -1.2901  0.1348
 5853SOL    HW323179   1.517   5.067   0.858  1.6891  0.7614 -0.9346
 5853SOL    MW423180   1.518   5.132   0.917  0.3855  0.0747 -0.1155
 5854SOL     OW23181   0.145   3.986   1.303 -0.3628  0.1957 -0.5577
 5854SOL    HW223182   0.184   4.070   1.327  0.2280  0.3246 -1.8467
 5854SOL    HW323183   0.063   3.983   1.350 -0.6830  1.7803 -0.9395
 5854SOL    MW423184   0.140   3.997   1.312 -0.3271  0.4218 -0.7782
 5855SOL     OW23185   5.316   0.227   5.555  0.7443 -0.4107 -0.3024
 5855SOL    HW223186   5.328   0.226   5.650  0.6822 -1.7724 -0.2953
 5855SOL    HW323187   5.250   0.160   5.538  1.2759 -0.6903 -1.3664
 5855SOL    MW423188   5.309   0.218   5.566  0.8062 -0.6273 -0.4419
 5856SOL     OW23189   4.596   6.132   4.658  0.2670 -0.1314  0.4071
 5856SOL    HW223190   4.557   6.076   4.725 -0.3802  1.0940  1.0850
 5856SOL    HW323191   4.664   6.181   4.704  1.8655 -1.4000 -0.5057
 5856SOL    MW423192   4.600   6.131   4.673  0.3925 -0.1371  0.3761
 5857SOL     OW23193   3.769   1.969   2.658  0.0076 -0.3664 -0.8195
 5857SOL    HW223194   3.812   2.011   2.583  1.9044 -1.2194 -0.2692
 5857SOL    HW323195   3.840   1.924   2.704 -1.2638 -0.6037  1.0017
 5857SOL    MW423196   3.784   1.968   2.654  0.0901 -0.5103 -0.5066
 5858SOL     OW23197   5.403   4.343   1.007 -0.1381  0.0829 -1.1900
 5858SOL    HW223198   5.495   4.350   0.980  1.2133 -0.2778  2.6225
 5858SOL    HW323199   5.393   4.410   1.075 -2.4298 -0.5055 -0.8605
 5858SOL    MW423200   5.414   4.353   1.012 -0.2622 -0.0423 -0.6435
 5859SOL     OW23201   1.916   4.243   5.763  0.6608  0.0583  0.3424
 5859SOL    HW223202   1.982   4.178   5.788  0.6659  0.2467  0.8178
 5859SOL    HW323203   1.947   4.276   5.678  1.3424  0.3553  0.6964
 5859SOL    MW423204   1.929   4.239   5.755  0.7514  0.1223  0.4518
 5860SOL     OW23205   2.601   2.294   6.155 -0.4539  0.4282 -0.4014
 5860SOL    HW223206   2.577   2.345   6.077 -0.1859  1.0531 -0.0755
 5860SOL    HW323207   2.621   2.207   6.120  0.1550  0.8310 -1.1053
 5860SOL    MW423208   2.600   2.289   6.140 -0.3382  0.5638 -0.4513
 5861SOL     OW23209   0.432   5.178   6.422 -0.4832  0.1750 -0.1071
 5861SOL    HW223210   0.409   5.247   6.361  1.8601  0.6074 -0.5931
 5861SOL    HW323211   0.449   5.101   6.367 -4.1641 -1.2637  0.4887
 5861SOL    MW423212   0.431   5.177   6.407 -0.6597  0.0423 -0.0926
 5862SOL     OW23213   4.100   4.001   3.316 -0.3962  0.6667  0.1638
 5862SOL    HW223214   4.129   3.944   3.387 -1.8578  1.2486  1.2695
 5862SOL    HW323215   4.173   4.062   3.303 -0.0748  0.5030  1.1074
 5862SOL    MW423216   4.114   4.002   3.323 -0.5466  0.7219  0.4341
 5863SOL     OW23217  -0.006   6.053   3.686 -0.0346  0.2298  0.7716
 5863SOL    HW223218   0.001   6.019   3.597  1.2378 -1.4563  1.4700
 5863SOL    HW323219  -0.044   6.140   3.675 -2.1525 -0.8418 -1.2124
 5863SOL    MW423220  -0.010   6.060   3.673 -0.1462 -0.1340  0.6020
 5864SOL     OW23221   2.160   2.791   1.013  0.5335  0.1003 -0.1035
 5864SOL    HW223222   2.135   2.725   0.947  1.6581 -2.4250  1.8189
 5864SOL    HW323223   2.252   2.810   0.995  0.9198 -0.7908  0.7991
 5864SOL    MW423224   2.169   2.785   1.002  0.7328 -0.3504  0.2692
 5865SOL     OW23225   1.484   3.954   5.593 -0.0530 -0.0752 -0.9577
 5865SOL    HW223226   1.559   4.003   5.561  0.7266  0.1667  1.1135
 5865SOL    HW323227   1.423   4.021   5.623 -0.5223 -0.3116 -1.3652
 5865SOL    MW423228   1.486   3.969   5.593 -0.0121 -0.0745 -0.7382
 5866SOL     OW23229   2.666   4.610   0.653 -0.1611 -0.4203 -0.3428
 5866SOL    HW223230   2.698   4.551   0.584 -2.0234 -2.4649  0.4246
 5866SOL    HW323231   2.740   4.617   0.714 -0.1586 -2.7987  0.0200
 5866SOL    MW423232   2.680   4.603   0.652 -0.4065 -1.0039 -0.1937
 5867SOL     OW23233   2.357   1.080   5.909  0.2372  0.1428 -0.4641
 5867SOL    HW223234   2.452   1.074   5.897  0.5628  1.3619  1.1823
 5867SOL    HW323235   2.343   1.168   5.942 -1.7148  0.6504 -2.5019
 5867SOL    MW423236   2.368   1.091   5.912  0.0226  0.3706 -0.5158
 5868SOL     OW23237   4.874   4.717   5.854 -0.0397 -0.3692  0.3038
 5868SOL    HW223238   4.801   4.693   5.912 -0.4276  1.7146  0.7460
 5868SOL    HW323239   4.952   4.686   5.900 -0.4028  0.5304  1.5879
 5868SOL    MW423240   4.874   4.710   5.868 -0.1388  0.0244  0.5315
 5869SOL     OW23241   0.449   2.514   1.583 -0.4765 -0.4882 -0.2355
 5869SOL    HW223242   0.409   2.581   1.528  0.4555  0.1099 -0.2116
 5869SOL    HW323243   0.543   2.523   1.567 -0.2170 -0.6379  1.0776
 5869SOL    MW423244   0.456   2.524   1.574 -0.3193 -0.4291 -0.0591
 5870SOL     OW23245   1.396   1.816   0.158 -0.5190 -0.4720 -0.4168
 5870SOL    HW223246   1.413   1.810   0.064  0.4765 -1.9865 -0.1665
 5870SOL    HW323247   1.411   1.908   0.179 -1.6767  0.1023 -1.8873
 5870SOL    MW423248   1.400   1.828   0.148 -0.5404 -0.5960 -0.5778
 5871SOL     OW23249   4.010   1.527   3.915  0.1627 -0.6947 -0.1855
 5871SOL    HW223250   3.963   1.451   3.948 -0.0731 -0.5115 -0.0967
 5871SOL    HW323251   4.052   1.565   3.992  2.0608 -1.9490 -0.5273
 5871SOL    MW423252   4.009   1.522   3.929  0.3820 -0.8360 -0.2189
 5872SOL     OW23253   3.868   4.426   4.325  0.0136 -0.5764  0.4501
 5872SOL    HW223254   3.892   4.518   4.336  1.5620 -1.0558  1.3108
 5872SOL    HW323255   3.773   4.425   4.338  0.0957  0.7626  1.3542
 5872SOL    MW423256   3.859   4.438   4.328  0.2287 -0.4630  0.6829
 5873SOL     OW23257   3.127   6.008   3.299  0.4917  0.1032 -0.3499
 5873SOL    HW223258   3.132   5.966   3.213 -1.3218 -0.3481 -0.2756
 5873SOL    HW323259   3.049   6.064   3.295 -0.5363 -1.0618  1.4180
 5873SOL    MW423260   3.117   6.010   3.287  0.1168 -0.1101 -0.1069
 5874SOL     OW23261   4.702   2.683   3.888 -0.3621  0.1651  0.1251
 5874SOL    HW223262   4.704   2.592   3.858 -0.4283  0.0216  0.5455
 5874SOL    HW323263   4.610   2.709   3.877 -0.2132  0.3950 -0.6121
 5874SOL    MW423264   4.690   2.674   3.883 -0.3512  0.1765  0.0833
 5875SOL     OW23265   0.320   5.495   0.888  0.4971  0.2709  0.2480
 5875SOL    HW223266   0.228   5.489   0.861  0.2787 -0.4646  1.0975
 5875SOL    HW323267   0.350   5.580   0.854 -0.9206  1.1995  1.2009
 5875SOL    MW423268   0.312   5.505   0.880  0.2812  0.2963  0.4858
 5876SOL     OW23269   1.945   3.353   2.278 -0.3694 -0.8073 -0.0656
 5876SOL    HW223270   1.982   3.440   2.289 -1.6511 -0.2968  0.2591
 5876SOL    HW323271   1.948   3.314   2.365 -0.1068 -0.9731 -0.1458
 5876SOL    MW423272   1.950   3.359   2.291 -0.5039 -0.7618 -0.0333
 5877SOL     OW23273   2.765   0.350   3.423  0.3133 -0.2751  0.2598
 5877SOL    HW223274   2.732   0.413   3.486 -0.0552 -0.5583  0.3508
 5877SOL    HW323275   2.827   0.296   3.473 -0.5018 -0.9514  0.5687
 5877SOL    MW423276   2.769   0.351   3.438  0.1571 -0.4017  0.3126
 5878SOL     OW23277   1.779   5.707   3.995  0.4471  0.7404 -0.4846
 5878SOL    HW223278   1.730   5.654   3.933  0.5260  0.7709 -0.5741
 5878SOL    HW323279   1.863   5.661   4.006  0.6172  0.9818 -0.7613
 5878SOL    MW423280   1.784   5.694   3.988  0.4800  0.7763 -0.5329
 5879SOL     OW23281   5.696   5.890   0.172  0.1969 -0.4255 -0.0189
 5879SOL    HW223282   5.770   5.903   0.113 -0.6178  0.1221 -0.9393
 5879SOL    HW323283   5.737   5.866   0.255  1.4810  0.9726 -0.1819
 5879SOL    MW423284   5.711   5.889   0.175  0.2588 -0.1688 -0.1619
 5880SOL     OW23285   4.876   0.188   6.250  0.4093  0.3085  0.4696
 5880SOL    HW223286   4.918   0.210   6.334  1.5026  0.6210 -0.1402
 5880SOL    HW323287   4.923   0.240   6.185  1.1860 -1.6477 -0.6453
 5880SOL    MW423288   4.888   0.198   6.253  0.6560  0.0916  0.2420
 5881SOL     OW23289   4.477   1.597   6.263  0.1053 -0.2085  0.2965
 5881SOL    HW223290   4.454   1.569   6.174 -1.3637  0.9953  0.2604
 5881SOL    HW323291   4.573   1.590   6.266  0.3985  1.4859 -2.0429
 5881SOL    MW423292   4.487   1.592   6.252 -0.0498  0.1739 -0.0169
 5882SOL     OW23293   2.357   2.475   4.428 -0.2375 -0.0509 -0.0851
 5882SOL    HW223294   2.424   2.510   4.370  0.7381 -2.5544 -0.6015
 5882SOL    HW323295   2.279   2.527   4.410  1.6791  3.6412  1.2442
 5882SOL    MW423296   2.355   2.486   4.418  0.1441  0.1059  0.0222
 5883SOL     OW23297   4.595   4.904   3.865  0.2151  0.4214 -0.3243
 5883SOL    HW223298   4.663   4.866   3.921  0.3803 -0.2408 -0.9657
 5883SOL    HW323299   4.586   4.994   3.897  1.3932  0.5256 -0.2362
 5883SOL    MW423300   4.602   4.910   3.877  0.3923  0.3477 -0.3973
 5884SOL     OW23301   2.458   5.817   5.475 -0.3279 -0.2689 -0.2120
 5884SOL    HW223302   2.473   5.739   5.422 -1.5615  0.2738 -1.4266
 5884SOL    HW323303   2.456   5.786   5.565  0.6711 -1.3949 -0.5520
 5884SOL    MW423304   2.460   5.803   5.480 -0.3589 -0.3458 -0.4171
 5885SOL     OW23305   0.541   2.534   4.256  0.2461  0.3429 -0.5149
 5885SOL    HW223306   0.477   2.463   4.253 -0.7483  1.2090 -0.3022
 5885SOL    HW323307   0.526   2.577   4.340  1.0477  0.6191 -0.5058
 5885SOL    MW423308   0.531   2.530   4.267  0.2207  0.4936 -0.4857
 5886SOL     OW23309   6.261   6.221   1.705 -0.5719  0.3272  0.0873
 5886SOL    HW223310   6.318   6.173   1.645 -0.1870  2.0611 -1.0167
 5886SOL    HW323311   6.295   6.311   1.704 -2.0877  0.9548  0.9797
 5886SOL    MW423312   6.273   6.227   1.697 -0.7211  0.6387  0.0594
 5887SOL     OW23313   4.342   4.039   5.339 -0.3659  0.4127  0.1907
 5887SOL    HW223314   4.421   4.008   5.382 -1.1354 -1.1124  0.5654
 5887SOL    HW323315   4.320   4.120   5.384  1.4730  1.3714 -0.5395
 5887SOL    MW423316   4.349   4.046   5.350 -0.2248  0.3380  0.1438
 5888SOL     OW23317   4.960   3.436   1.211 -0.0861  0.2020 -0.2731
 5888SOL    HW223318   5.041   3.486   1.202  1.2889 -1.4554  1.9619
 5888SOL    HW323319   4.987   3.353   1.251 -2.5731 -1.4545 -1.7937
 5888SOL    MW423320   4.974   3.432   1.215 -0.2328 -0.2352 -0.1789
 5889SOL     OW23321   5.454   3.899   3.450 -0.3821  0.1832  0.2672
 5889SOL    HW223322   5.496   3.819   3.419 -1.3430 -1.1592  2.2548
 5889SOL    HW323323   5.398   3.871   3.522 -0.3883  2.7231  1.3629
 5889SOL    MW423324   5.452   3.885   3.455 -0.5097  0.3412  0.6740
 5890SOL     OW23325   0.378   1.588   2.372  0.6820 -0.3123 -0.5928
 5890SOL    HW223326   0.310   1.548   2.426  0.8523 -0.3527 -0.4076
 5890SOL    HW323327   0.345   1.582   2.283  0.8372 -1.1162 -0.5979
 5890SOL    MW423328   0.365   1.582   2.367  0.7249 -0.4237 -0.5691
 5891SOL     OW23329   1.320   6.326   4.128  0.3133  0.1857  0.0870
 5891SOL    HW223330   1.265   6.247   4.136  1.0707 -0.3885 -0.2290
 5891SOL    HW323331   1.259   6.394   4.099 -0.4604 -0.1494  0.8580
 5891SOL    MW423332   1.304   6.324   4.125  0.3111  0.0657  0.1470
 5892SOL     OW23333   5.510   3.275   4.957  0.4564  0.4405  0.7567
 5892SOL    HW223334   5.529   3.196   4.906 -0.0977 -0.1834  1.4872
 5892SOL    HW323335   5.458   3.329   4.898 -0.4511 -0.4092  0.7438
 5892SOL    MW423336   5.506   3.272   4.942  0.2636  0.2461  0.8513
 5893SOL     OW23337   1.370   4.304   4.652 -0.3263 -0.0976 -0.6130
 5893SOL    HW223338   1.398   4.376   4.595 -0.8680 -0.1585 -0.9652
 5893SOL    HW323339   1.366   4.341   4.739  1.0005 -0.1220 -0.5191
 5893SOL    MW423340   1.373   4.318   4.656 -0.2227 -0.1088 -0.6471
 5894SOL     OW23341   0.503   4.496   0.788 -0.0156  0.0199 -0.7998
 5894SOL    HW223342   0.551   4.499   0.871  2.3809 -1.7515 -2.0270
 5894SOL    HW323343   0.413   4.473   0.814  0.6353 -0.4223  1.3030
 5894SOL    MW423344   0.497   4.494   0.803  0.3865 -0.2721 -0.6842
 5895SOL     OW23345   6.006   5.938   0.566  0.5018 -0.3082 -0.4453
 5895SOL    HW223346   6.090   5.895   0.582  0.1850 -0.4184  1.0702
 5895SOL    HW323347   6.026   6.032   0.570  1.0782 -0.2278 -3.1484
 5895SOL    MW423348   6.020   5.945   0.568  0.5360 -0.3121 -0.6020
 5896SOL     OW23349   1.058   0.571   6.218 -0.1136 -0.0636 -0.8092
 5896SOL    HW223350   0.970   0.538   6.200 -0.5012  0.1853  0.5313
 5896SOL    HW323351   1.115   0.494   6.209 -0.6735 -0.5602 -0.2106
 5896SOL    MW423352   1.054   0.556   6.215 -0.2386 -0.0963 -0.5534
 5897SOL     OW23353   1.249   4.677   2.779 -0.4683  0.1319 -0.1871
 5897SOL    HW223354   1.225   4.733   2.853  0.9033  0.2381  0.2075
 5897SOL    HW323355   1.235   4.588   2.810  1.3529  0.1083  0.7373
 5897SOL    MW423356   1.244   4.672   2.793 -0.0471  0.1428 -0.0131
 5898SOL     OW23357   4.710   5.985   0.456  0.5167  0.2251  0.2354
 5898SOL    HW223358   4.621   5.966   0.426 -0.7486  1.5029  2.8567
 5898SOL    HW323359   4.731   6.069   0.415  0.1433  0.3604  0.3178
 5898SOL    MW423360   4.701   5.994   0.447  0.3005  0.4115  0.5921
 5899SOL     OW23361   1.295   4.088   2.107  0.2740 -0.1845  0.0792
 5899SOL    HW223362   1.252   4.005   2.129  1.8830 -0.6212  1.8355
 5899SOL    HW323363   1.341   4.071   2.025 -2.6128  0.2606 -1.8033
 5899SOL    MW423364   1.295   4.075   2.099  0.1054 -0.1834  0.0625
 5900SOL     OW23365   0.997   1.270   4.859  0.0299 -0.8968  0.2225
 5900SOL    HW223366   1.080   1.304   4.894  0.1581  0.1089 -0.9651
 5900SOL    HW323367   0.976   1.195   4.915  2.2066 -1.7485  0.0099
 5900SOL    MW423368   1.005   1.265   4.871  0.3340 -0.8764  0.0378
 5901SOL     OW23369   4.726   5.285   0.680 -0.2015 -0.0890 -0.5688
 5901SOL    HW223370   4.749   5.194   0.697 -1.2811 -0.1974  0.4324
 5901SOL    HW323371   4.696   5.319   0.764 -0.1811  1.0839 -1.0101
 5901SOL    MW423372   4.725   5.278   0.693 -0.3413  0.0515 -0.4949
 5902SOL     OW23373   4.733   1.147   3.530  0.5204  0.7049  0.0513
 5902SOL    HW223374   4.737   1.069   3.585  2.4133 -2.7221 -4.3092
 5902SOL    HW323375   4.810   1.198   3.555  1.9004 -1.2487  0.0185
 5902SOL    MW423376   4.744   1.144   3.540  0.9522 -0.0050 -0.5283
 5903SOL     OW23377   4.024   5.748   6.403 -0.1112  0.8297 -0.0475
 5903SOL    HW223378   4.034   5.767   6.309  0.1350 -0.2776 -0.2603
 5903SOL    HW323379   4.053   5.828   6.447  3.5346  0.1424 -0.8151
 5903SOL    MW423380   4.029   5.761   6.396  0.4023  0.5929 -0.1768
 5904SOL     OW23381   3.404   2.561   2.374 -0.1364 -0.3767 -0.4782
 5904SOL    HW223382   3.350   2.508   2.433 -1.8920  0.4689 -1.2587
 5904SOL    HW323383   3.397   2.650   2.409 -0.1702 -0.0786 -1.2290
 5904SOL    MW423384   3.396   2.566   2.386 -0.3725 -0.2258 -0.6802
 5905SOL     OW23385   6.306   5.911   0.652  0.3398  1.0327  0.5788
 5905SOL    HW223386   6.343   5.951   0.573 -0.5972  1.2994  0.2732
 5905SOL    HW323387   6.366   5.839   0.672  0.7969  1.2018 -0.1486
 5905SOL    MW423388   6.319   5.907   0.644  0.2765  1.0902  0.4425
 5906SOL     OW23389   5.675   3.663   4.218 -0.5259 -0.0822 -0.2471
 5906SOL    HW223390   5.647   3.729   4.155 -1.4703 -0.7212 -0.5199
 5906SOL    HW323391   5.768   3.681   4.232 -0.8235  1.5130 -0.0598
 5906SOL    MW423392   5.684   3.674   4.212 -0.6898  0.0440 -0.2584
 5907SOL     OW23393   5.186   4.372   2.729 -1.0364 -0.2298 -0.0563
 5907SOL    HW223394   5.137   4.449   2.756  0.6756  0.9626 -0.2042
 5907SOL    HW323395   5.207   4.328   2.812 -0.0020  0.7651  0.2312
 5907SOL    MW423396   5.183   4.376   2.744 -0.6740  0.0588 -0.0379
 5908SOL     OW23397   2.236   4.702   3.714 -0.2447  0.0321  0.1676
 5908SOL    HW223398   2.184   4.781   3.730  0.4197  0.2580  1.3048
 5908SOL    HW323399   2.180   4.630   3.743  0.5914  0.3727  2.8844
 5908SOL    MW423400   2.222   4.703   3.720 -0.0467  0.1069  0.6761
 5909SOL     OW23401   4.676   1.102   3.964 -0.3487  0.4500 -0.4711
 5909SOL    HW223402   4.588   1.068   3.950 -0.8370  1.4430  0.1069
 5909SOL    HW323403   4.664   1.196   3.978  0.5606  0.2908  1.8620
 5909SOL    MW423404   4.663   1.110   3.964 -0.2932  0.5600 -0.0870
 5910SOL     OW23405   1.304   0.447   6.363 -0.8228 -0.2599 -1.0193
 5910SOL    HW223406   1.397   0.473   6.361  0.6619 -4.5739  0.0064
 5910SOL    HW323407   1.276   0.467   6.452  0.0036 -1.2537 -0.5129
 5910SOL    MW423408   1.313   0.453   6.374 -0.5179 -0.9602 -0.8172
 5911SOL     OW23409   4.701   3.073   1.124  0.5938  0.4238  0.0902
 5911SOL    HW223410   4.647   3.042   1.051  0.6298  2.7411 -1.0239
 5911SOL    HW323411   4.638   3.103   1.189  0.5576 -0.4325  0.4529
 5911SOL    MW423412   4.686   3.073   1.123  0.5938  0.6166 -0.0089
 5912SOL     OW23413   5.908   6.232   2.271 -0.0575  0.5719  0.0687
 5912SOL    HW223414   5.900   6.144   2.310  3.4026 -0.4209 -1.0725
 5912SOL    HW323415   5.984   6.270   2.314  0.5833  1.5890 -1.8557
 5912SOL    MW423416   5.917   6.225   2.281  0.4835  0.5751 -0.3358
 5913SOL     OW23417   1.713   0.423   5.532 -0.2601  0.2423  0.6301
 5913SOL    HW223418   1.629   0.401   5.574  0.8579 -0.1623  2.8204
 5913SOL    HW323419   1.721   0.362   5.460 -1.2383 -0.6417  1.2383
 5913SOL    MW423420   1.703   0.412   5.528 -0.2417  0.0723  0.9993
 5914SOL     OW23421   3.574   4.815   6.202  0.1031 -0.2035  0.2542
 5914SOL    HW223422   3.507   4.878   6.230  0.8041  0.9803 -0.6528
 5914SOL    HW323423   3.608   4.851   6.121 -0.1374 -2.2808 -0.8163
 5914SOL    MW423424   3.570   4.828   6.195  0.1638 -0.3214 -0.0067
 5915SOL     OW23425   5.984   0.164   3.585  0.2045  0.7070  0.3047
 5915SOL    HW223426   5.965   0.102   3.654  1.8584  0.2631  0.4092
 5915SOL    HW323427   5.990   0.111   3.505  0.9758  0.8124  0.2855
 5915SOL    MW423428   5.983   0.149   3.583  0.5245  0.6623  0.3160
 5916SOL     OW23429   3.896   3.847   4.689  0.5968 -0.5147  0.5960
 5916SOL    HW223430   3.953   3.918   4.718 -0.3385 -0.6521  3.0665
 5916SOL    HW323431   3.853   3.881   4.610 -0.4775  2.0973  2.1685
 5916SOL    MW423432   3.897   3.861   4.683  0.3317 -0.1882  1.1294
 5917SOL     OW23433   3.539   1.762   6.261  0.7437 -0.2002  0.1142
 5917SOL    HW223434   3.530   1.838   6.204  0.9336  0.2705  0.7017
 5917SOL    HW323435   3.569   1.798   6.345  1.0775 -0.9479  0.3243
 5917SOL    MW423436   3.542   1.777   6.265  0.8128 -0.2368  0.2194
 5918SOL     OW23437   0.698   4.023   0.184  0.2836 -0.0207  0.0326
 5918SOL    HW223438   0.612   3.981   0.185  0.4779 -0.4321  1.1517
 5918SOL    HW323439   0.695   4.083   0.109 -1.0295  0.0866  0.1489
 5918SOL    MW423440   0.687   4.026   0.175  0.1360 -0.0608  0.1956
 5919SOL     OW23441   1.792   5.877   0.986  0.0004 -0.0246 -0.2919
 5919SOL    HW223442   1.700   5.881   1.010 -0.1867  1.4213 -1.0965
 5919SOL    HW323443   1.838   5.920   1.058  0.3029 -2.2979  0.9806
 5919SOL    MW423444   1.786   5.883   0.998  0.0156 -0.1338 -0.2302
 5920SOL     OW23445   2.128   2.593   4.134  0.2207  0.0030  0.6689
 5920SOL    HW223446   2.128   2.541   4.053 -0.6264  1.1899 -0.1271
 5920SOL    HW323447   2.157   2.680   4.108 -1.0348  0.6875  1.4199
 5920SOL    MW423448   2.132   2.597   4.120 -0.0567  0.2499  0.6629
 5921SOL     OW23449   2.125   5.315   1.857 -0.1661  0.6096  0.2216
 5921SOL    HW223450   2.190   5.385   1.868 -0.4614  0.8315  0.6070
 5921SOL    HW323451   2.149   5.272   1.775  0.3713  0.7911  0.2800
 5921SOL    MW423452   2.137   5.319   1.848 -0.1342  0.6628  0.2802
 5922SOL     OW23453   1.834   0.441   3.188 -0.2651  0.0000 -0.1425
 5922SOL    HW223454   1.799   0.530   3.195  0.1116  0.1327  0.0909
 5922SOL    HW323455   1.813   0.414   3.099  3.1064  1.8415 -1.6684
 5922SOL    MW423456   1.827   0.449   3.177  0.2295  0.2605 -0.3130
 5923SOL     OW23457   4.088   4.855   3.788 -0.2440  0.8518 -0.2263
 5923SOL    HW223458   4.079   4.807   3.870 -1.4252 -1.2272 -1.4731
 5923SOL    HW323459   4.167   4.908   3.799  2.8937 -3.4022  0.3539
 5923SOL    MW423460   4.097   4.855   3.800  0.0141  0.0162 -0.3142
 5924SOL     OW23461   3.547   0.556   2.423  0.3163 -0.0206 -0.1869
 5924SOL    HW223462   3.556   0.535   2.330  1.3234  0.0666 -0.1238
 5924SOL    HW323463   3.470   0.507   2.452  0.8533 -1.2246 -0.7295
 5924SOL    MW423464   3.538   0.547   2.414  0.5200 -0.1679 -0.2502
 5925SOL     OW23465   2.521   3.608   3.448 -0.1905  0.7365  0.0923
 5925SOL    HW223466   2.589   3.674   3.460 -0.1079  0.6565  0.0621
 5925SOL    HW323467   2.536   3.545   3.519  1.5999 -0.8742 -1.6314
 5925SOL    MW423468   2.532   3.608   3.459  0.0566  0.5134 -0.1391
 5926SOL     OW23469   2.808   5.537   1.092  0.0898 -0.3869  0.3855
 5926SOL    HW223470   2.775   5.584   1.015 -0.0826 -0.6703  0.2845
 5926SOL    HW323471   2.729   5.506   1.136  0.2200 -1.6535 -0.2227
 5926SOL    MW423472   2.793   5.539   1.087  0.0842 -0.5914  0.2919
 5927SOL     OW23473   1.537   1.930   0.866  0.2661  0.0725 -0.2058
 5927SOL    HW223474   1.535   2.019   0.831  2.9150  0.0309 -0.7091
 5927SOL    HW323475   1.621   1.895   0.837  0.3423 -1.7817  1.9514
 5927SOL    MW423476   1.548   1.937   0.858  0.6257 -0.1776  0.0124
 5928SOL     OW23477   4.424   5.325   5.911 -0.1986 -0.3887 -0.2350
 5928SOL    HW223478   4.359   5.386   5.878 -0.7938 -1.7363 -1.6090
 5928SOL    HW323479   4.501   5.338   5.855 -0.4750 -1.1806 -0.8142
 5928SOL    MW423480   4.426   5.335   5.900 -0.3136 -0.6710 -0.4927
 5929SOL     OW23481   3.061   6.227   2.362  0.1974 -0.2357 -0.1645
 5929SOL    HW223482   3.044   6.144   2.317  2.3122  0.2947 -2.1829
 5929SOL    HW323483   3.093   6.201   2.448  1.3253 -1.6050 -0.9384
 5929SOL    MW423484   3.063   6.212   2.367  0.6253 -0.3463 -0.5329
 5930SOL     OW23485   5.123   5.215   5.226  0.5923 -0.0732  0.0146
 5930SOL    HW223486   5.197   5.264   5.262  1.8757 -1.6353 -0.3702
 5930SOL    HW323487   5.156   5.126   5.216 -1.8386 -1.2113  1.2838
 5930SOL    MW423488   5.137   5.210   5.230  0.4409 -0.4294  0.1313
 5931SOL     OW23489   0.754   3.988   4.614  0.2552  0.3852 -0.0537
 5931SOL    HW223490   0.768   4.058   4.551  0.2987  0.4878  0.0695
 5931SOL    HW323491   0.841   3.950   4.628  0.0461 -0.4699 -1.0198
 5931SOL    MW423492   0.767   3.992   4.608  0.2334  0.2859 -0.1649
 5932SOL     OW23493   5.198   3.734   0.884  0.2122  0.1124 -0.0543
 5932SOL    HW223494   5.286   3.738   0.847  0.5161 -0.6863  0.5493
 5932SOL    HW323495   5.194   3.808   0.945 -0.0157  0.9520 -1.0595
 5932SOL    MW423496   5.209   3.745   0.887  0.2223  0.1178 -0.1072
 5933SOL     OW23497   3.520   3.985   2.322 -0.7409 -0.3201  0.0754
 5933SOL    HW223498   3.439   4.035   2.322  0.4528  1.7276 -0.0018
 5933SOL    HW323499   3.533   3.962   2.414 -0.9055  0.2325  0.2432
 5933SOL    MW423500   3.511   3.989   2.334 -0.6051  0.0230  0.0873
 5934SOL     OW23501   5.479   1.323   4.085 -0.4683  0.7391 -0.0534
 5934SOL    HW223502   5.541   1.250   4.090 -1.2582  0.1345  1.6073
 5934SOL    HW323503   5.522   1.387   4.029  1.3048  0.0040  0.4078
 5934SOL    MW423504   5.493   1.322   4.079 -0.3386  0.5623  0.2265
 5935SOL     OW23505   1.635   5.192   2.405  0.4428 -0.3126 -0.0980
 5935SOL    HW223506   1.622   5.098   2.390 -0.2491 -0.2746  0.2150
 5935SOL    HW323507   1.547   5.230   2.398  0.6610  0.2515  0.1749
 5935SOL    MW423508   1.622   5.185   2.402  0.3803 -0.2332 -0.0207
 5936SOL     OW23509   4.120   3.795   5.937 -0.3663  0.2235 -0.5188
 5936SOL    HW223510   4.154   3.835   6.018  1.4249  1.1009 -1.6244
 5936SOL    HW323511   4.047   3.851   5.911 -0.2939  0.5440 -0.0434
 5936SOL    MW423512   4.115   3.808   5.944 -0.1204  0.3816 -0.6019
 5937SOL     OW23513   0.127   1.753   5.571  0.2973  0.1028  0.6602
 5937SOL    HW223514   0.144   1.727   5.662 -1.1508 -0.5006  0.7886
 5937SOL    HW323515   0.052   1.699   5.544 -1.3954  2.5235  0.1960
 5937SOL    MW423516   0.119   1.742   5.580 -0.1171  0.3426  0.6159
 5938SOL     OW23517   3.184   1.645   5.451 -0.1079  0.4862  0.1865
 5938SOL    HW223518   3.212   1.724   5.404  0.1108 -0.3123 -1.0752
 5938SOL    HW323519   3.167   1.581   5.382 -1.5030 -0.1931  1.1313
 5938SOL    MW423520   3.186   1.647   5.436 -0.2631  0.2912  0.1447
 5939SOL     OW23521   6.056   2.278   1.713 -0.0720  0.6650  0.3508
 5939SOL    HW223522   6.014   2.197   1.740  0.2636  0.1417 -0.6593
 5939SOL    HW323523   6.133   2.250   1.664 -0.2271  1.5880 -0.4471
 5939SOL    MW423524   6.061   2.264   1.710 -0.0482  0.7177  0.1122
 5940SOL     OW23525   0.198   4.934   2.594 -0.9971 -0.5269  0.2517
 5940SOL    HW223526   0.159   4.846   2.598 -1.0116 -0.6948 -1.9677
 5940SOL    HW323527   0.263   4.927   2.524 -1.2137  1.2900 -0.1699
 5940SOL    MW423528   0.201   4.921   2.585 -1.0276 -0.3093 -0.0968
 5941SOL     OW23529   4.561   6.004   4.911 -0.0481 -0.0370 -0.1373
 5941SOL    HW223530   4.514   5.935   4.958 -1.2814 -0.4933 -1.9641
 5941SOL    HW323531   4.634   6.027   4.969 -1.2717 -0.8291  1.8092
 5941SOL    MW423532   4.564   5.998   4.925 -0.3723 -0.2017 -0.1215
 5942SOL     OW23533   5.407   1.749   2.155 -0.7444 -0.4281  0.2985
 5942SOL    HW223534   5.456   1.677   2.194 -1.4951 -0.7457  0.6728
 5942SOL    HW323535   5.457   1.828   2.180 -0.1872 -0.7744  0.2909
 5942SOL    MW423536   5.420   1.750   2.163 -0.7699 -0.5157  0.3469
 5943SOL     OW23537   0.737   0.022   2.935  0.3192  0.3397  0.1081
 5943SOL    HW223538   0.762   0.095   2.879  0.9376 -0.4275 -0.6317
 5943SOL    HW323539   0.641   0.022   2.932  0.3479  0.0874 -1.2469
 5943SOL    MW423540   0.728   0.032   2.927  0.4046  0.2052 -0.1683
 5944SOL     OW23541   6.114   5.647   3.279 -0.0876  0.5256 -0.2371
 5944SOL    HW223542   6.066   5.712   3.330 -1.0115 -0.1856 -0.1752
 5944SOL    HW323543   6.060   5.630   3.202 -0.8291 -1.5150  0.6461
 5944SOL    MW423544   6.101   5.653   3.276 -0.3073  0.1625 -0.1124
 5945SOL     OW23545   5.045   2.907   1.672 -0.3273  0.0678 -0.4725
 5945SOL    HW223546   5.128   2.892   1.627 -1.4121 -1.6816 -2.0761
 5945SOL    HW323547   5.040   3.002   1.682  0.9534  0.3828 -2.2179
 5945SOL    MW423548   5.055   2.918   1.667 -0.3014 -0.1215 -0.9143
 5946SOL     OW23549   4.585   5.670   4.354  0.0700 -0.5068  0.2205
 5946SOL    HW223550   4.526   5.603   4.388 -1.7351  1.2589  0.8073
 5946SOL    HW323551   4.579   5.741   4.418  0.2936  1.0156 -1.3797
 5946SOL    MW423552   4.576   5.671   4.367 -0.1387 -0.0730  0.0868
 5947SOL     OW23553   2.773   1.000   3.043 -0.1224  0.5190  0.0438
 5947SOL    HW223554   2.767   1.087   3.081  0.6493  0.4201  0.3964
 5947SOL    HW323555   2.804   1.014   2.954 -2.4115  0.7927 -0.7782
 5947SOL    MW423556   2.776   1.013   3.036 -0.3226  0.5421 -0.0181
 5948SOL     OW23557   5.924   5.439   6.340  0.2927 -0.3355  0.0301
 5948SOL    HW223558   5.980   5.457   6.416  0.3198 -1.2460  0.2369
 5948SOL    HW323559   5.964   5.488   6.269  0.1197  0.7428  0.6584
 5948SOL    MW423560   5.937   5.448   6.341  0.2735 -0.3133  0.1403
 5949SOL     OW23561   6.249   2.152   2.796 -0.4577  0.3187  0.5373
 5949SOL    HW223562   6.170   2.122   2.751  0.7796 -1.3603 -0.6222
 5949SOL    HW323563   6.309   2.179   2.726  1.6470 -2.7111  0.9904
 5949SOL    MW423564   6.247   2.152   2.781 -0.0168 -0.3025  0.4441
 5950SOL     OW23565   4.546   4.171   2.566 -0.0112  0.0163 -0.2096
 5950SOL    HW223566   4.582   4.093   2.523 -0.3955 -0.5726  0.5046
 5950SOL    HW323567   4.455   4.174   2.536 -0.0503  0.0782 -0.0850
 5950SOL    MW423568   4.538   4.161   2.556 -0.0671 -0.0533 -0.0989
 5951SOL     OW23569   4.824   2.451   3.177 -0.2876  0.2398  0.0200
 5951SOL    HW223570   4.904   2.489   3.212  0.3751 -0.6329 -0.4995
 5951SOL    HW323571   4.760   2.522   3.180  0.9250  1.4319 -1.0174
 5951SOL    MW423572   4.826   2.465   3.182 -0.0401  0.2820 -0.1854
 5952SOL     OW23573   0.030   3.764   5.705  0.9301  0.3751 -0.1892
 5952SOL    HW223574  -0.061   3.782   5.683  0.9240  1.8941  0.9060
 5952SOL    HW323575   0.033   3.765   5.801  2.2402  1.2217 -0.2058
 5952SOL    MW423576   0.019   3.766   5.715  1.1021  0.6872 -0.0468
 5953SOL     OW23577   6.178   3.468   3.429 -0.9286 -0.0689 -0.3193
 5953SOL    HW223578   6.152   3.525   3.357 -0.8087 -1.1399 -1.2349
 5953SOL    HW323579   6.105   3.406   3.439 -0.9035  0.0047  0.4256
 5953SOL    MW423580   6.165   3.468   3.421 -0.9095 -0.2005 -0.3418
 5954SOL     OW23581   1.501   0.930   5.620 -0.1807  0.1359 -0.1937
 5954SOL    HW223582   1.525   1.011   5.664 -1.2967  0.5876 -0.3800
 5954SOL    HW323583   1.557   0.863   5.659  0.1382  0.8461  0.5866
 5954SOL    MW423584   1.511   0.931   5.631 -0.2859  0.2892 -0.1154
 5955SOL     OW23585   1.018   4.308   4.629 -0.3750  0.1900  0.2966
 5955SOL    HW223586   1.036   4.306   4.722  0.2006 -0.6789  0.1724
 5955SOL    HW323587   1.077   4.376   4.595  0.2815 -0.3259  0.3910
 5955SOL    MW423588   1.028   4.317   4.636 -0.2125  0.0073  0.2926
 5956SOL     OW23589   3.974   5.196   3.131 -0.0539  0.3232 -0.0112
 5956SOL    HW223590   3.978   5.184   3.036  0.1007  2.2625 -0.2908
 5956SOL    HW323591   4.065   5.194   3.159  0.0115  1.1897 -0.1314
 5956SOL    MW423592   3.986   5.194   3.122 -0.0249  0.6934 -0.0640
 5957SOL     OW23593   5.846   0.957   3.661 -0.6455  0.1494 -0.1568
 5957SOL    HW223594   5.817   1.040   3.700 -0.6550  0.3537 -0.5862
 5957SOL    HW323595   5.898   0.984   3.585 -0.0916 -0.2320  0.0849
 5957SOL    MW423596   5.849   0.972   3.656 -0.5737  0.1260 -0.1815
 5958SOL     OW23597   4.175   5.511   3.732 -0.6032  0.9101 -0.0732
 5958SOL    HW223598   4.208   5.436   3.683  0.5320  0.9077  0.6675
 5958SOL    HW323599   4.189   5.586   3.673 -0.8914  0.6743 -0.4475
 5958SOL    MW423600   4.181   5.511   3.717 -0.4915  0.8787 -0.0249
 5959SOL     OW23601   1.595   5.599   3.129  0.6737  0.8835  0.1616
 5959SOL    HW223602   1.577   5.506   3.145  1.3756  0.7764  0.3456
 5959SOL    HW323603   1.508   5.640   3.133  0.3504  0.2371  0.0469
 5959SOL    MW423604   1.581   5.592   3.132  0.7236  0.7841  0.1708
 5960SOL     OW23605   1.087   4.983   3.892  0.0151  0.0109 -0.2611
 5960SOL    HW223606   1.040   4.900   3.894 -1.4485  0.7371 -2.1094
 5960SOL    HW323607   1.108   4.997   3.800 -1.9864  2.8083 -0.4338
 5960SOL    MW423608   1.083   4.974   3.880 -0.4421  0.4758 -0.5277
 5961SOL     OW23609   5.478   5.652   4.989  0.4806 -0.1296 -0.1163
 5961SOL    HW223610   5.502   5.683   4.902 -0.0003 -0.8011 -0.5024
 5961SOL    HW323611   5.455   5.731   5.038 -1.2693  0.1192 -1.2365
 5961SOL    MW423612   5.478   5.666   4.984  0.1863 -0.1854 -0.3150
 5962SOL     OW23613   2.235   0.953   0.830  0.6508  0.4018 -0.2480
 5962SOL    HW223614   2.150   0.910   0.839  0.2936  1.1561  0.1392
 5962SOL    HW323615   2.286   0.921   0.904  0.1519  1.1503  0.4384
 5962SOL    MW423616   2.231   0.943   0.841  0.5378  0.6001 -0.1063
 5963SOL     OW23617   3.367   2.344   5.127 -0.1716 -0.1041 -0.1628
 5963SOL    HW223618   3.413   2.392   5.197 -1.7199  1.4531 -0.1533
 5963SOL    HW323619   3.414   2.368   5.047 -0.0577  0.3170  0.0236
 5963SOL    MW423620   3.380   2.354   5.126 -0.3609  0.1569 -0.1369
 5964SOL     OW23621   3.646   4.410   2.182 -0.0151  0.3357  0.1483
 5964SOL    HW223622   3.675   4.320   2.196 -1.4565 -0.2461 -0.3865
 5964SOL    HW323623   3.580   4.404   2.113  1.1678  2.0658 -1.2000
 5964SOL    MW423624   3.641   4.397   2.175 -0.0492  0.4872 -0.1001
 5965SOL     OW23625   5.400   2.946   1.130 -0.2168  0.2887 -0.3826
 5965SOL    HW223626   5.490   2.966   1.156  0.0556 -1.7550  0.3979
 5965SOL    HW323627   5.396   2.971   1.038  1.0123  0.8379 -0.3041
 5965SOL    MW423628   5.411   2.952   1.121 -0.0187  0.0915 -0.2693
 5966SOL     OW23629   3.766   3.372   2.246  0.2024 -0.0035 -0.1034
 5966SOL    HW223630   3.690   3.418   2.212  0.5438  0.6155 -0.0347
 5966SOL    HW323631   3.841   3.418   2.208  0.5411 -1.8270 -1.8079
 5966SOL    MW423632   3.766   3.384   2.236  0.2922 -0.1624 -0.3192
 5967SOL     OW23633   2.733   0.688   1.846 -0.2331 -0.1086  0.3566
 5967SOL    HW223634   2.749   0.782   1.847 -0.6374 -0.0016 -0.8612
 5967SOL    HW323635   2.678   0.674   1.769  0.4190 -1.4388  0.0984
 5967SOL    MW423636   2.728   0.699   1.836 -0.2004 -0.2699  0.1619
 5968SOL     OW23637   4.738   3.785   2.215 -0.2806 -0.6914  0.3954
 5968SOL    HW223638   4.788   3.854   2.172  0.4201  0.7725  3.3137
 5968SOL    HW323639   4.677   3.753   2.148  0.2178  1.9132 -1.4131
 5968SOL    MW423640   4.736   3.790   2.201 -0.1224 -0.1546  0.5418
 5969SOL     OW23641   2.063   4.812   2.290 -0.0083  0.1982  0.1146
 5969SOL    HW223642   1.985   4.766   2.259 -1.0959  2.5201 -0.7630
 5969SOL    HW323643   2.032   4.871   2.358  1.4275 -0.5750  1.5044
 5969SOL    MW423644   2.049   4.813   2.295  0.0377  0.4025  0.1822
 5970SOL     OW23645   0.663   6.281   4.382 -0.3560 -0.6919  0.3878
 5970SOL    HW223646   0.585   6.320   4.342 -0.0652 -0.8727 -0.3769
 5970SOL    HW323647   0.667   6.193   4.344  0.5245 -0.4912  0.0063
 5970SOL    MW423648   0.653   6.274   4.372 -0.2015 -0.6893  0.2366
 5971SOL     OW23649   5.148   6.097   2.658 -0.5687  0.5760 -0.0640
 5971SOL    HW223650   5.053   6.096   2.642 -0.8593 -0.7071  1.4572
 5971SOL    HW323651   5.185   6.052   2.581 -1.3026  0.1864 -0.2022
 5971SOL    MW423652   5.140   6.091   2.646 -0.7039  0.3553  0.1184
 5972SOL     OW23653   2.550   2.979   2.715  0.3698 -0.3064 -0.6293
 5972SOL    HW223654   2.473   3.034   2.705  1.2015  0.7756 -1.2810
 5972SOL    HW323655   2.540   2.910   2.649  1.1555  1.2868 -2.5097
 5972SOL    MW423656   2.538   2.977   2.705  0.5832  0.0466 -0.9634
 5973SOL     OW23657   5.595   1.318   1.648  0.2356  0.0736 -0.1428
 5973SOL    HW223658   5.508   1.356   1.639 -0.4796 -1.2498  0.7370
 5973SOL    HW323659   5.582   1.241   1.704  2.0997  0.2849  0.6818
 5973SOL    MW423660   5.582   1.313   1.654  0.3872 -0.0732  0.0821
 5974SOL     OW23661   0.123   0.086   1.555  0.4206  0.6561  0.1516
 5974SOL    HW223662   0.193   0.050   1.610  0.2157  0.6456  0.4095
 5974SOL    HW323663   0.167   0.146   1.496  0.7215  0.2525 -0.0394
 5974SOL    MW423664   0.138   0.089   1.555  0.4333  0.6015  0.1604
 5975SOL     OW23665   1.928   4.137   2.458 -0.6283 -0.1361 -0.0119
 5975SOL    HW223666   1.986   4.157   2.384 -0.8573  3.1537  0.5624
 5975SOL    HW323667   1.884   4.056   2.432  2.4600 -1.4850 -1.4991
 5975SOL    MW423668   1.930   4.129   2.445 -0.2510  0.1200 -0.1324
 5976SOL     OW23669   2.562   6.009   4.552 -0.4633  0.5069  0.1701
 5976SOL    HW223670   2.570   6.084   4.493  0.3723  0.5380  0.3228
 5976SOL    HW323671   2.505   5.948   4.504  0.3362  0.4559 -0.7518
 5976SOL    MW423672   2.555   6.011   4.538 -0.2476  0.5043  0.0686
 5977SOL     OW23673   5.450   2.412   1.757 -0.2449  0.2725  0.3867
 5977SOL    HW223674   5.402   2.493   1.741 -0.2153  0.1386 -0.3929
 5977SOL    HW323675   5.403   2.371   1.830 -1.1480  0.2831 -0.1764
 5977SOL    MW423676   5.437   2.417   1.764 -0.3602  0.2562  0.2095
 5978SOL     OW23677   5.596   5.471   4.538 -0.4935 -0.1558  0.4446
 5978SOL    HW223678   5.509   5.492   4.503 -0.8351  3.1380  2.7084
 5978SOL    HW323679   5.653   5.538   4.502  1.2285 -2.2876 -1.0191
 5978SOL    MW423680   5.592   5.483   4.529 -0.3114 -0.0025  0.5501
 5979SOL     OW23681   0.421   0.386   5.446 -0.2116  0.4989 -0.3306
 5979SOL    HW223682   0.499   0.333   5.468 -0.2430  0.2849 -0.7190
 5979SOL    HW323683   0.362   0.324   5.403 -0.9134  0.4835  0.6297
 5979SOL    MW423684   0.424   0.370   5.443 -0.3084  0.4686 -0.2551
 5980SOL     OW23685   2.279   2.826   2.292  0.2394 -0.2394  0.3400
 5980SOL    HW223686   2.306   2.744   2.251  0.5888  0.0412 -0.0023
 5980SOL    HW323687   2.216   2.800   2.359 -2.7874 -0.5105 -2.3613
 5980SOL    MW423688   2.274   2.812   2.296 -0.1139 -0.2381 -0.0616
 5981SOL     OW23689   4.295   4.827   4.693  0.2884  0.0676 -0.1123
 5981SOL    HW223690   4.205   4.797   4.683  0.0260  1.2933 -1.6326
 5981SOL    HW323691   4.299   4.861   4.783 -1.4646  2.1899 -0.7614
 5981SOL    MW423692   4.284   4.827   4.704  0.0225  0.5093 -0.3986
 5982SOL     OW23693   3.900   0.133   2.842 -0.4090  0.4799 -0.2202
 5982SOL    HW223694   3.804   0.133   2.842 -0.4125  0.0464 -0.6789
 5982SOL    HW323695   3.924   0.084   2.764  0.1954  1.1000 -0.4386
 5982SOL    MW423696   3.890   0.127   2.832 -0.3297  0.5045 -0.3095
 5983SOL     OW23697   2.265   2.948   6.099  0.8707  0.3803  0.1165
 5983SOL    HW223698   2.246   3.039   6.077 -2.0604 -0.5265 -1.7042
 5983SOL    HW323699   2.219   2.933   6.182  1.4307  0.5503  0.4645
 5983SOL    MW423700   2.256   2.958   6.107  0.5579  0.2831 -0.0778
 5984SOL     OW23701   2.126   5.040   3.344  0.0189  0.5506  0.3836
 5984SOL    HW223702   2.123   5.092   3.424 -0.5381  1.5441 -0.2575
 5984SOL    HW323703   2.206   4.988   3.351 -0.1716  0.4098  1.7023
 5984SOL    MW423704   2.136   5.040   3.355 -0.0797  0.6631  0.4730
 5985SOL     OW23705   2.703   5.552   3.981  0.7444 -0.0088 -0.9314
 5985SOL    HW223706   2.768   5.623   3.984 -0.5615  1.2448 -1.3566
 5985SOL    HW323707   2.621   5.593   4.004  0.5082 -2.2374  3.1087
 5985SOL    MW423708   2.701   5.566   3.984  0.5410 -0.1374 -0.4545
 5986SOL     OW23709   5.963   1.430   6.238 -0.1758  0.9552  0.2119
 5986SOL    HW223710   6.005   1.344   6.242  0.8836  1.4450 -0.0085
 5986SOL    HW323711   5.985   1.463   6.150 -1.5733  0.9664 -0.1547
 5986SOL    MW423712   5.972   1.423   6.227 -0.2204  1.0213  0.1345
 5987SOL     OW23713   0.094   2.239   4.321  0.4044  0.3824 -0.1066
 5987SOL    HW223714   0.129   2.150   4.321  2.3197  1.0905 -0.3153
 5987SOL    HW323715   0.112   2.272   4.409  2.8625  1.6713 -1.0062
 5987SOL    MW423716   0.101   2.232   4.333  0.9814  0.6459 -0.2528
 5988SOL     OW23717   2.245   2.547   6.302  0.9654 -0.5677 -0.2047
 5988SOL    HW223718   2.263   2.595   6.221  0.6598 -0.2565 -0.0900
 5988SOL    HW323719   2.214   2.461   6.272 -3.3020  0.8432 -0.6133
 5988SOL    MW423720   2.243   2.542   6.287  0.3621 -0.3405 -0.2435
 5989SOL     OW23721   0.941   5.266   4.562 -0.1233 -0.1465  0.0314
 5989SOL    HW223722   0.958   5.311   4.479 -1.3653 -0.9903 -0.7306
 5989SOL    HW323723   0.889   5.328   4.613  1.1922  0.6264  0.4613
 5989SOL    MW423724   0.936   5.280   4.558 -0.1136 -0.1558 -0.0124
 5990SOL     OW23725   0.393   0.517   4.116 -0.1987  0.3619 -0.0543
 5990SOL    HW223726   0.440   0.484   4.040  1.7936  1.3136  0.6965
 5990SOL    HW323727   0.305   0.538   4.084  0.1813 -0.5103 -1.7497
 5990SOL    MW423728   0.387   0.515   4.102  0.1143  0.3724 -0.1789
 5991SOL     OW23729   2.110   5.265   6.304 -0.1771  0.1705 -0.6868
 5991SOL    HW223730   2.040   5.206   6.331  1.7324 -0.8432  2.7967
 5991SOL    HW323731   2.122   5.248   6.211 -1.2423 -3.2954 -0.3389
 5991SOL    MW423732   2.102   5.255   6.296 -0.0657 -0.4206 -0.1813
 5992SOL     OW23733   1.142   4.757   3.227 -0.1957 -0.2793  0.1250
 5992SOL    HW223734   1.139   4.669   3.265  1.3420 -0.3936  0.0509
 5992SOL    HW323735   1.052   4.774   3.200 -0.5844 -1.7089  0.3965
 5992SOL    MW423736   1.130   4.748   3.229 -0.0441 -0.4830  0.1510
 5993SOL     OW23737   5.860   0.105   6.009 -0.2665  0.0661 -0.2053
 5993SOL    HW223738   5.871   0.034   5.945 -0.0930  1.2202 -1.4899
 5993SOL    HW323739   5.903   0.180   5.969 -1.9426  1.3728  0.3422
 5993SOL    MW423740   5.867   0.105   5.996 -0.4648  0.3908 -0.3026
 5994SOL     OW23741   3.236   4.623   5.403 -0.4528  0.0663 -0.2069
 5994SOL    HW223742   3.324   4.630   5.440 -0.9465  0.5100  0.9273
 5994SOL    HW323743   3.189   4.699   5.437 -2.5670 -2.3466  2.8714
 5994SOL    MW423744   3.241   4.634   5.412 -0.7969 -0.1935  0.3489
 5995SOL     OW23745   2.548   6.057   5.804 -0.0999 -0.0523  0.0823
 5995SOL    HW223746   2.496   6.010   5.869 -1.8911  1.5288 -0.1060
 5995SOL    HW323747   2.603   5.990   5.764 -0.8100 -1.5178  1.4498
 5995SOL    MW423748   2.548   6.042   5.807 -0.4299 -0.0371  0.2379
 5996SOL     OW23749   3.178   0.817   2.931  0.5384  0.0339 -0.0191
 5996SOL    HW223750   3.271   0.831   2.911  0.2049  1.3686 -0.7695
 5996SOL    HW323751   3.145   0.769   2.855  0.5194 -0.0062  0.0154
 5996SOL    MW423752   3.186   0.813   2.918  0.4919  0.2047 -0.1136
 5997SOL     OW23753   3.275   1.092   5.386  0.0093 -0.1512  0.6030
 5997SOL    HW223754   3.279   1.172   5.439  2.9721 -0.1379  0.5264
 5997SOL    HW323755   3.294   1.122   5.297 -1.3630 -0.6532  0.1167
 5997SOL    MW423756   3.278   1.107   5.381  0.2191 -0.2157  0.5287
 5998SOL     OW23757   0.938   4.100   0.997 -0.6710 -0.9003 -0.3296
 5998SOL    HW223758   0.957   4.112   0.904 -1.1667 -0.6209 -0.4019
 5998SOL    HW323759   0.993   4.027   1.024  0.4657 -0.1296 -0.5217
 5998SOL    MW423760   0.947   4.092   0.988 -0.5864 -0.7617 -0.3645
 5999SOL     OW23761   1.362   1.198   1.668  0.1025  0.3678  0.2239
 5999SOL    HW223762   1.289   1.148   1.706 -0.5981  0.3773 -1.0489
 5999SOL    HW323763   1.427   1.202   1.738 -0.9213 -0.0492  1.2362
 5999SOL    MW423764   1.361   1.192   1.682 -0.1250  0.3141  0.1896
 6000SOL     OW23765   4.368   0.775   1.704  0.1420  0.2174  0.1891
 6000SOL    HW223766   4.452   0.729   1.701  0.2118  0.3525  0.0917
 6000SOL    HW323767   4.387   0.860   1.743  0.4861  1.1705 -1.9183
 6000SOL    MW423768   4.381   0.780   1.709  0.1966  0.3610 -0.1018
 6001SOL     OW23769   2.712   4.320   5.524 -0.2870 -0.2561 -0.0372
 6001SOL    HW223770   2.723   4.290   5.614 -1.3405 -2.6811 -0.6257
 6001SOL    HW323771   2.730   4.243   5.470  0.6991  1.2160 -1.9652
 6001SOL    MW423772   2.716   4.306   5.529 -0.2959 -0.3818 -0.3692
 6002SOL     OW23773   2.112   5.869   1.499 -0.8127  0.4901  0.1165
 6002SOL    HW223774   2.122   5.836   1.588 -1.2297 -0.1181 -0.0523
 6002SOL    HW323775   2.187   5.926   1.485  0.0882 -0.5982  0.3346
 6002SOL    MW423776   2.123   5.872   1.509 -0.7488  0.2663  0.1230
 6003SOL     OW23777   4.687   1.904   5.519  0.2468  0.4996 -0.1360
 6003SOL    HW223778   4.634   1.967   5.471 -0.4385  0.2474  0.2763
 6003SOL    HW323779   4.650   1.904   5.607 -0.5422 -1.3236 -0.4235
 6003SOL    MW423780   4.675   1.912   5.524  0.0523  0.2258 -0.1195
 6004SOL     OW23781   4.049   0.278   2.043 -0.0542  0.2198 -0.1138
 6004SOL    HW223782   4.001   0.197   2.058  1.7444 -0.7931  0.3854
 6004SOL    HW323783   4.107   0.258   1.969  2.0471  0.2543  1.4360
 6004SOL    MW423784   4.050   0.265   2.035  0.4603  0.0908  0.1565
 6005SOL     OW23785   3.815   0.670   3.929  0.6504 -0.0458 -0.4841
 6005SOL    HW223786   3.896   0.653   3.977 -0.1683 -0.5071  0.7801
 6005SOL    HW323787   3.760   0.716   3.992 -0.3578 -0.4437 -1.0617
 6005SOL    MW423788   3.818   0.674   3.944  0.4094 -0.1592 -0.3935
 6006SOL     OW23789   5.864   0.434   2.770 -0.0713 -0.3570 -0.1502
 6006SOL    HW223790   5.827   0.522   2.775 -0.1270 -0.3484 -0.6368
 6006SOL    HW323791   5.791   0.376   2.790  0.5982 -0.2368  3.1314
 6006SOL    MW423792   5.850   0.438   2.773  0.0097 -0.3400  0.2186
 6007SOL     OW23793   6.353   3.293   0.216  0.0089 -0.4959 -0.2157
 6007SOL    HW223794   6.286   3.231   0.186 -2.3148  0.0298  3.2453
 6007SOL    HW323795   6.436   3.245   0.208 -1.3933 -3.1825  0.0625
 6007SOL    MW423796   6.355   3.278   0.211 -0.4827 -0.7810  0.2776
 6008SOL     OW23797   1.576   1.262   5.344 -0.1466  0.2798 -0.2599
 6008SOL    HW223798   1.594   1.192   5.281 -0.8032  0.5625 -0.7624
 6008SOL    HW323799   1.624   1.235   5.423 -2.0924 -1.8432  0.2913
 6008SOL    MW423800   1.585   1.249   5.346 -0.4900  0.0370 -0.2535
 6009SOL     OW23801   3.064   1.606   4.332  0.6955  0.0735 -0.0132
 6009SOL    HW223802   3.023   1.692   4.325 -0.5923 -0.3644  1.5095
 6009SOL    HW323803   2.994   1.550   4.366  1.4864 -1.6020 -1.0511
 6009SOL    MW423804   3.049   1.610   4.336  0.6300 -0.2053  0.0507
 6010SOL     OW23805   4.640   2.903   6.303 -0.2328  0.3568  0.2980
 6010SOL    HW223806   4.570   2.966   6.284 -0.7670 -0.3380 -0.0607
 6010SOL    HW323807   4.720   2.956   6.300 -0.5530  0.8163 -1.1979
 6010SOL    MW423808   4.641   2.919   6.300 -0.3456  0.3258  0.0533
 6011SOL     OW23809   0.767   1.563   1.833 -0.3584 -0.0276  0.1234
 6011SOL    HW223810   0.850   1.521   1.807 -1.0133 -1.3829  0.1326
 6011SOL    HW323811   0.727   1.587   1.749  0.0833  0.7287  0.1224
 6011SOL    MW423812   0.773   1.560   1.818 -0.3866 -0.1066  0.1245
 6012SOL     OW23813   4.132   3.170   4.608 -0.0058 -0.6258  0.0078
 6012SOL    HW223814   4.222   3.202   4.621  0.5223 -1.6459 -1.0392
 6012SOL    HW323815   4.077   3.241   4.642  1.1387  1.1473 -1.6512
 6012SOL    MW423816   4.136   3.184   4.614  0.2149 -0.5265 -0.3492
 6013SOL     OW23817   5.031   6.115   4.281  0.0647 -0.1745 -0.3625
 6013SOL    HW223818   4.998   6.107   4.370 -0.9779  0.6256 -0.6566
 6013SOL    HW323819   5.125   6.099   4.288 -0.2397 -1.6971  0.6281
 6013SOL    MW423820   5.039   6.112   4.294 -0.1130 -0.2698 -0.2706
 6014SOL     OW23821   4.747   3.492   4.270 -0.0436  0.3334  0.0906
 6014SOL    HW223822   4.820   3.504   4.208  0.4995 -0.6446  0.5048
 6014SOL    HW323823   4.777   3.421   4.327 -0.4761  1.3179  1.5743
 6014SOL    MW423824   4.761   3.484   4.269 -0.0290  0.3342  0.3410
 6015SOL     OW23825   2.446   1.815   3.717  0.4283  0.1054  0.6935
 6015SOL    HW223826   2.397   1.891   3.746  3.5026  2.7241 -0.4493
 6015SOL    HW323827   2.427   1.808   3.623  1.1895  0.3198  0.5169
 6015SOL    MW423828   2.437   1.824   3.708  0.9344  0.4792  0.5194
 6016SOL     OW23829   1.188   6.039   4.161  0.6806  0.2896  0.1836
 6016SOL    HW223830   1.142   5.967   4.204 -1.1767  1.0536 -0.4170
 6016SOL    HW323831   1.261   5.997   4.116 -0.5341 -1.3108 -0.4218
 6016SOL    MW423832   1.191   6.024   4.161  0.2753  0.1792  0.0245
 6017SOL     OW23833   2.541   1.911   0.088  0.2180  0.5652  0.6917
 6017SOL    HW223834   2.617   1.933   0.034  0.1508 -0.2571  0.2460
 6017SOL    HW323835   2.578   1.881   0.171  0.4855 -1.4748 -0.1075
 6017SOL    MW423836   2.556   1.910   0.092  0.2444  0.1876  0.5274
 6018SOL     OW23837   2.523   6.415   4.158 -0.8526  0.2470 -0.4759
 6018SOL    HW223838   2.541   6.347   4.094 -0.6354 -1.1980  1.0474
 6018SOL    HW323839   2.606   6.464   4.164  0.6620 -2.3080  1.7437
 6018SOL    MW423840   2.536   6.413   4.151 -0.6241 -0.2808  0.0179
 6019SOL     OW23841   1.376   6.179   6.306  0.1544  0.4862 -0.0400
 6019SOL    HW223842   1.435   6.250   6.280 -1.2809  2.3278  1.4399
 6019SOL    HW323843   1.292   6.222   6.319 -1.0971 -1.7571 -0.3375
 6019SOL    MW423844   1.373   6.194   6.304 -0.2001  0.4332  0.1160
 6020SOL     OW23845   1.563   0.667   4.706 -0.4185  0.0626 -0.5216
 6020SOL    HW223846   1.611   0.713   4.774 -0.5335  0.5622 -0.7756
 6020SOL    HW323847   1.596   0.703   4.624 -3.1166  2.4486 -0.7140
 6020SOL    MW423848   1.574   0.678   4.704 -0.7897  0.4433 -0.5805
 6021SOL     OW23849   1.877   4.542   0.446  0.1642 -0.5922 -0.2663
 6021SOL    HW223850   1.833   4.474   0.498 -0.2385 -0.5032 -0.4906
 6021SOL    HW323851   1.855   4.624   0.490 -1.3220 -0.3693 -1.3313
 6021SOL    MW423852   1.868   4.544   0.459 -0.0850 -0.5511 -0.4364
 6022SOL     OW23853   1.751   3.460   3.883  0.1248  0.1460 -0.0252
 6022SOL    HW223854   1.807   3.382   3.884  0.1106  0.1313  1.3538
 6022SOL    HW323855   1.810   3.531   3.910 -0.9357 -0.2436  3.9642
 6022SOL    MW423856   1.766   3.459   3.887 -0.0170  0.0927  0.6831
 6023SOL     OW23857   0.829   5.257   5.781 -0.0291  0.4147  0.0414
 6023SOL    HW223858   0.855   5.189   5.718  0.3597  1.9660 -1.5537
 6023SOL    HW323859   0.750   5.222   5.823 -0.3232 -0.6645 -1.3473
 6023SOL    MW423860   0.822   5.243   5.778 -0.0166  0.4770 -0.3523
 6024SOL     OW23861   4.152   4.737   2.077  0.1445  0.4303  0.0894
 6024SOL    HW223862   4.130   4.718   2.169  0.0954  1.4381  0.3055
 6024SOL    HW323863   4.197   4.822   2.081 -0.6393  0.9193 -0.9042
 6024SOL    MW423864   4.155   4.746   2.090  0.0346  0.6278 -0.0132
 6025SOL     OW23865   3.147   3.615   4.687  0.3750 -0.1317 -0.5452
 6025SOL    HW223866   3.167   3.657   4.771 -0.3706  0.2314 -0.5425
 6025SOL    HW323867   3.057   3.583   4.697  0.1743  0.1826 -1.3094
 6025SOL    MW423868   3.138   3.616   4.700  0.2502 -0.0423 -0.6457
 6026SOL     OW23869   0.257   3.600   5.828 -0.2491 -0.0889  0.2786
 6026SOL    HW223870   0.213   3.519   5.803 -0.3053  0.0359 -0.0369
 6026SOL    HW323871   0.346   3.573   5.851 -0.0063 -0.1338 -0.6661
 6026SOL    MW423872   0.263   3.586   5.828 -0.2245 -0.0784  0.1124
 6027SOL     OW23873   0.845   5.784   0.286 -0.2271 -1.3270 -0.1650
 6027SOL    HW223874   0.849   5.828   0.371 -0.3991 -1.2519 -0.1949
 6027SOL    HW323875   0.753   5.759   0.277 -0.8133  1.1293 -1.5769
 6027SOL    MW423876   0.833   5.786   0.296 -0.3271 -0.9930 -0.3552
 6028SOL     OW23877   2.327   2.090   0.618  0.1905  0.1624 -0.0197
 6028SOL    HW223878   2.340   2.145   0.696  1.2090 -0.0128 -0.0437
 6028SOL    HW323879   2.293   2.150   0.552  1.2930  0.7969 -0.0478
 6028SOL    MW423880   2.325   2.105   0.620  0.4703  0.2230 -0.0266
 6029SOL     OW23881   3.570   3.420   6.375  0.6996 -0.0916 -0.2392
 6029SOL    HW223882   3.545   3.353   6.311 -2.5482 -0.9465  1.6625
 6029SOL    HW323883   3.620   3.373   6.441  0.4440 -0.1520 -0.0854
 6029SOL    MW423884   3.573   3.405   6.376  0.2373 -0.2124  0.0320
 6030SOL     OW23885   2.253   5.758   3.670 -0.7154 -0.3560  0.4786
 6030SOL    HW223886   2.221   5.835   3.718 -1.9473 -0.4208 -0.1908
 6030SOL    HW323887   2.180   5.734   3.613  0.1854 -1.1641 -0.3595
 6030SOL    MW423888   2.239   5.765   3.669 -0.7591 -0.4712  0.2797
 6031SOL     OW23889   4.640   1.457   0.146  0.3436 -0.0800  0.4115
 6031SOL    HW223890   4.573   1.471   0.214 -0.5909  1.9681 -0.8444
 6031SOL    HW323891   4.617   1.373   0.106 -0.9728  0.2071  0.5470
 6031SOL    MW423892   4.628   1.448   0.150  0.0466  0.2281  0.2637
 6032SOL     OW23893   3.668   0.580   1.526  0.2598  0.1143 -0.1406
 6032SOL    HW223894   3.755   0.539   1.521  1.5988  2.8693 -1.2164
 6032SOL    HW323895   3.679   0.652   1.588 -0.9166  1.2471 -1.2059
 6032SOL    MW423896   3.681   0.584   1.534  0.2813  0.6272 -0.4231
 6033SOL     OW23897   1.918   5.550   5.842  0.0289 -0.5402 -0.2789
 6033SOL    HW223898   1.901   5.468   5.889 -2.1141 -0.4741 -0.8351
 6033SOL    HW323899   1.852   5.611   5.876  0.9820  0.6903 -0.5608
 6033SOL    MW423900   1.907   5.548   5.853 -0.1281 -0.3692 -0.3895
 6034SOL     OW23901   5.671   4.030   3.613  0.0507 -0.0435 -0.0421
 6034SOL    HW223902   5.619   3.994   3.541  0.3050  3.0810 -1.9798
 6034SOL    HW323903   5.688   3.955   3.670 -2.1241 -2.2188 -2.0183
 6034SOL    MW423904   5.667   4.015   3.611 -0.2027  0.0817 -0.5585
 6035SOL     OW23905   0.006   4.586   2.907  0.3019  0.4534  0.2944
 6035SOL    HW223906  -0.006   4.587   3.002  0.9324  2.0622  0.3779
 6035SOL    HW323907  -0.023   4.672   2.878 -1.9712 -0.7226 -1.2775
 6035SOL    MW423908  -0.000   4.597   2.916  0.0851  0.5105  0.0980
 6036SOL     OW23909   2.233   1.830   6.408 -0.3798 -0.2478  0.2008
 6036SOL    HW223910   2.268   1.774   6.477  0.8949  1.2419  0.8228
 6036SOL    HW323911   2.268   1.917   6.428  1.3192 -0.0100 -3.1243
 6036SOL    MW423912   2.243   1.834   6.420  0.0126 -0.0199 -0.1559
 6037SOL     OW23913   5.116   2.517   6.281  0.1521 -0.5174  0.0318
 6037SOL    HW223914   5.076   2.590   6.328  1.0538  1.5374 -2.1993
 6037SOL    HW323915   5.208   2.520   6.305  1.1553  2.0765 -3.3372
 6037SOL    MW423916   5.123   2.527   6.290  0.4034  0.0960 -0.7071
 6038SOL     OW23917  -0.003   4.110   2.334  0.2813  0.0978 -0.1481
 6038SOL    HW223918  -0.083   4.064   2.360  0.6691 -0.9176 -0.7284
 6038SOL    HW323919   0.067   4.067   2.384  0.8025 -0.7486 -1.5419
 6038SOL    MW423920  -0.004   4.098   2.344  0.4012 -0.1478 -0.4085
 6039SOL     OW23921   3.255   5.744   5.188  0.0098 -0.1950  0.0379
 6039SOL    HW223922   3.219   5.667   5.233  0.6519  0.1727  1.2305
 6039SOL    HW323923   3.218   5.740   5.100  0.3585 -2.1135 -0.0683
 6039SOL    MW423924   3.246   5.733   5.183  0.1405 -0.3996  0.1812
 6040SOL     OW23925   1.800   4.576   3.328  0.5036  0.0700  0.0140
 6040SOL    HW223926   1.723   4.625   3.299 -0.5251  0.2915  2.7565
 6040SOL    HW323927   1.856   4.642   3.369  0.3064 -0.5943  1.4404
 6040SOL    MW423928   1.797   4.591   3.330  0.3419  0.0116  0.5640
 6041SOL     OW23929   1.466   2.144   4.515  0.7654 -0.3987  0.0827
 6041SOL    HW223930   1.478   2.096   4.597  0.2175 -0.2082  0.2789
 6041SOL    HW323931   1.404   2.214   4.537  0.8346 -0.1707 -0.4258
 6041SOL    MW423932   1.460   2.147   4.529  0.7023 -0.3435  0.0415
 6042SOL     OW23933   0.876   3.225   3.224  0.0853 -0.1150 -0.0404
 6042SOL    HW223934   0.852   3.277   3.147  0.3993  1.8950  1.1383
 6042SOL    HW323935   0.961   3.260   3.250 -0.4046 -0.1383  1.7044
 6042SOL    MW423936   0.884   3.237   3.217  0.0621  0.1471  0.3453
 6043SOL     OW23937   2.009   0.841   4.547  0.0970 -0.2526 -0.4957
 6043SOL    HW223938   1.973   0.752   4.557 -1.9512  0.6514  0.7058
 6043SOL    HW323939   1.933   0.898   4.554  1.6783  1.7538  1.2104
 6043SOL    MW423940   1.994   0.837   4.549  0.0354  0.1314 -0.1120
 6044SOL     OW23941   1.487   0.466   3.235 -0.4102  0.1412  1.0327
 6044SOL    HW223942   1.530   0.517   3.302  1.2449 -0.3032  0.3618
 6044SOL    HW323943   1.434   0.529   3.186  0.2669  0.9071  1.2687
 6044SOL    MW423944   1.486   0.481   3.237 -0.1025  0.1836  0.9753
 6045SOL     OW23945   4.738   5.161   0.031 -0.0581  0.3539  0.1692
 6045SOL    HW223946   4.795   5.122  -0.035 -0.4989  0.8260 -0.5022
 6045SOL    HW323947   4.691   5.230  -0.016 -2.1106 -0.8286  0.3794
 6045SOL    MW423948   4.739   5.165   0.016 -0.3870  0.2602  0.1084
 6046SOL     OW23949   2.728   5.059   2.966  0.1206 -0.3725 -0.3896
 6046SOL    HW223950   2.785   5.010   3.026 -1.2493 -0.7133  0.6905
 6046SOL    HW323951   2.689   4.993   2.910  0.7600 -0.1407 -1.1192
 6046SOL    MW423952   2.730   5.044   2.967  0.0242 -0.3869 -0.3434
 6047SOL     OW23953   5.745   4.782   2.162  0.0903  0.4376  0.4016
 6047SOL    HW223954   5.839   4.781   2.182  0.0594 -1.9189  0.6543
 6047SOL    HW323955   5.739   4.820   2.075  1.1455  1.7170  0.8529
 6047SOL    MW423956   5.756   4.787   2.153  0.2254  0.2955  0.4945
 6048SOL     OW23957   2.410   0.872   6.100 -0.1284 -0.0633  0.0033
 6048SOL    HW223958   2.376   0.933   6.034  1.8610  0.6040 -0.4919
 6048SOL    HW323959   2.374   0.905   6.183 -1.2656  0.1290 -0.5396
 6048SOL    MW423960   2.401   0.885   6.102 -0.0160  0.0501 -0.1336
 6049SOL     OW23961   1.350   1.579   2.120  0.0703  0.2731  0.7527
 6049SOL    HW223962   1.434   1.549   2.155  0.4060  1.1526  0.7390
 6049SOL    HW323963   1.290   1.571   2.194 -0.2099 -1.7834  0.3486
 6049SOL    MW423964   1.353   1.574   2.135  0.0776  0.1178  0.6976
 6050SOL     OW23965   4.471   6.369   2.865  0.0419 -0.2689  0.1739
 6050SOL    HW223966   4.423   6.316   2.801 -1.5364 -0.0797  1.1401
 6050SOL    HW323967   4.531   6.307   2.907 -1.0030 -1.0726  0.5256
 6050SOL    MW423968   4.473   6.354   2.862 -0.3042 -0.3500  0.3478
 6051SOL     OW23969   5.347   2.874   3.812 -0.1941  0.0920 -0.5333
 6051SOL    HW223970   5.339   2.867   3.907 -0.6307  0.2434 -0.5557
 6051SOL    HW323971   5.402   2.951   3.799 -0.9949  0.6901 -0.4206
 6051SOL    MW423972   5.353   2.883   3.823 -0.3574  0.1909 -0.5214
 6052SOL     OW23973   3.781   5.635   1.861 -0.0889 -0.0830 -0.1613
 6052SOL    HW223974   3.861   5.686   1.857  0.8942 -1.6482 -3.2334
 6052SOL    HW323975   3.759   5.615   1.770 -2.5829 -1.8207  0.6822
 6052SOL    MW423976   3.789   5.639   1.848 -0.2882 -0.5188 -0.4553
 6053SOL     OW23977   4.928   0.886   2.484 -0.1404 -0.1571 -0.5225
 6053SOL    HW223978   4.866   0.944   2.439  0.4533  0.1437 -0.9629
 6053SOL    HW323979   5.003   0.881   2.425 -0.0554 -1.1279 -0.3355
 6053SOL    MW423980   4.929   0.893   2.470 -0.0508 -0.2455 -0.5559
 6054SOL     OW23981   6.344   4.867   4.142  0.2361  0.0132 -0.1833
 6054SOL    HW223982   6.416   4.869   4.079 -0.8548  0.2969 -1.4678
 6054SOL    HW323983   6.387   4.857   4.227  1.8888  1.7207 -0.7458
 6054SOL    MW423984   6.359   4.866   4.145  0.3102  0.2759 -0.4270
 6055SOL     OW23985  -0.003   2.141   3.970 -0.3495 -0.3773  0.2200
 6055SOL    HW223986  -0.071   2.181   3.916 -0.0370 -2.2298 -1.6408
 6055SOL    HW323987  -0.044   2.061   4.004 -0.1376  0.1562  1.8023
 6055SOL    MW423988  -0.018   2.136   3.968 -0.2803 -0.5513  0.1833
 6056SOL     OW23989   3.387   5.577   4.583 -0.6930 -0.1235 -0.4877
 6056SOL    HW223990   3.384   5.526   4.664 -0.6648  0.1917 -0.2864
 6056SOL    HW323991   3.378   5.667   4.611  0.4273  0.0846 -0.7310
 6056SOL    MW423992   3.386   5.582   4.597 -0.5415 -0.0545 -0.4933
 6057SOL     OW23993   6.322   5.097   0.612  0.2067 -0.0177  0.3255
 6057SOL    HW223994   6.393   5.144   0.656  1.4352 -1.3944 -0.1024
 6057SOL    HW323995   6.272   5.166   0.568  0.4014  1.1290  1.8236
 6057SOL    MW423996   6.325   5.112   0.612  0.3945 -0.0480  0.4667
 6058SOL     OW23997   1.579   2.687   0.900  0.1533 -0.6424  0.4556
 6058SOL    HW223998   1.620   2.703   0.815 -0.0972 -0.1046  0.4303
 6058SOL    HW323999   1.652   2.693   0.963  0.0151  1.2389  0.5100
 6058SOL    MW424000   1.594   2.690   0.897  0.1020 -0.3233  0.4595
 6059SOL     OW24001   0.094   0.013   0.279 -0.0446  0.7237  0.6148
 6059SOL    HW224002   0.142  -0.055   0.327 -1.9510 -0.7833  0.5413
 6059SOL    HW324003   0.153   0.040   0.209  0.3911 -1.7479 -0.0760
 6059SOL    MW424004   0.108   0.008   0.276 -0.2386  0.1987  0.5139
 6060SOL     OW24005   0.377   4.107   2.866 -0.7264 -0.1807 -0.1155
 6060SOL    HW224006   0.294   4.138   2.832 -2.0029 -0.9743  2.0330
 6060SOL    HW324007   0.375   4.012   2.853  1.0338 -0.0018 -2.3286
 6060SOL    MW424008   0.366   4.098   2.860 -0.6626 -0.2618 -0.1240
 6061SOL     OW24009   4.190   2.312   2.172 -0.2466  0.1979 -0.0153
 6061SOL    HW224010   4.120   2.255   2.139 -0.1270  0.2332 -0.3321
 6061SOL    HW324011   4.245   2.253   2.224  0.7303 -0.3305 -1.5744
 6061SOL    MW424012   4.188   2.297   2.175 -0.1019  0.1328 -0.2628
 6062SOL     OW24013   2.507   5.801   1.268  0.2316 -0.0569  0.4283
 6062SOL    HW224014   2.598   5.790   1.297 -0.3975  0.6477  2.8600
 6062SOL    HW324015   2.484   5.716   1.230  1.8484 -0.2907 -0.0981
 6062SOL    MW424016   2.516   5.788   1.267  0.3619  0.0052  0.6797
 6063SOL     OW24017   2.995   0.369   1.932 -0.3241  0.6788 -0.3192
 6063SOL    HW224018   2.902   0.367   1.911  0.0845  1.5331 -2.5478
 6063SOL    HW324019   3.010   0.290   1.984 -2.0924 -0.0442 -0.8275
 6063SOL    MW424020   2.985   0.358   1.936 -0.5035  0.6961 -0.6803
 6064SOL     OW24021   1.692   3.973   0.662  0.1631  0.2258  0.3339
 6064SOL    HW224022   1.729   3.920   0.733 -2.8588 -2.4328  0.1821
 6064SOL    HW324023   1.608   4.004   0.697 -1.5139 -1.3308 -1.9922
 6064SOL    MW424024   1.685   3.970   0.676 -0.4568 -0.3303  0.0069
 6065SOL     OW24025   4.826   0.785   5.362  0.1667  0.1347  0.3267
 6065SOL    HW224026   4.895   0.777   5.428  1.5418  0.7048 -0.9635
 6065SOL    HW324027   4.873   0.812   5.282 -1.3822 -0.7313 -0.9370
 6065SOL    MW424028   4.842   0.787   5.360  0.1438  0.0956 -0.0102
 6066SOL     OW24029   4.569   5.710   3.799  1.0824 -0.2858  0.2022
 6066SOL    HW224030   4.581   5.663   3.716 -1.6126 -1.4488  0.3750
 6066SOL    HW324031   4.558   5.640   3.864 -0.4470  0.5661  0.9085
 6066SOL    MW424032   4.569   5.694   3.797  0.5250 -0.3268  0.3182
 6067SOL     OW24033   0.618   1.303   2.650 -0.0154 -0.3568 -0.2556
 6067SOL    HW224034   0.608   1.377   2.709  1.5657 -0.8865  0.7247
 6067SOL    HW324035   0.682   1.332   2.585 -2.2790  0.4900 -2.2310
 6067SOL    MW424036   0.625   1.316   2.649 -0.1054 -0.3150 -0.3869
 6068SOL     OW24037   1.890   6.343   1.209 -0.0598  0.2050  0.0615
 6068SOL    HW224038   1.985   6.348   1.208 -0.1206  1.8423  0.4736
 6068SOL    HW324039   1.866   6.328   1.117  0.5998 -0.8362  0.0444
 6068SOL    MW424040   1.899   6.341   1.196  0.0192  0.2836  0.1136
 6069SOL     OW24041   2.224   2.073   5.664 -0.3902  0.1802 -0.0744
 6069SOL    HW224042   2.199   2.112   5.580 -0.0135  0.9796  0.1813
 6069SOL    HW324043   2.274   2.141   5.709 -1.2052  0.0217  1.1172
 6069SOL    MW424044   2.227   2.087   5.659 -0.4480  0.2647  0.1166
 6070SOL     OW24045   4.860   3.814   4.207 -0.0078  0.2546 -0.3592
 6070SOL    HW224046   4.900   3.897   4.179 -0.3234  0.5313  0.0029
 6070SOL    HW324047   4.781   3.807   4.155 -0.7580  0.9218  0.6429
 6070SOL    MW424048   4.855   3.824   4.196 -0.1484  0.3791 -0.1792
 6071SOL     OW24049   0.255   2.239   0.496  0.2498  0.5455  0.1393
 6071SOL    HW224050   0.325   2.292   0.459 -0.1257 -0.5099 -2.2713
 6071SOL    HW324051   0.183   2.302   0.511  1.1728  1.3750  1.2630
 6071SOL    MW424052   0.254   2.255   0.493  0.3220  0.5157 -0.0305
 6072SOL     OW24053   3.040   6.059   4.833  0.6012 -0.2377 -0.6207
 6072SOL    HW224054   3.004   6.079   4.747  2.0588 -1.4682 -1.5677
 6072SOL    HW324055   3.081   6.141   4.861  0.3848  0.0853 -1.2334
 6072SOL    MW424056   3.041   6.073   4.825  0.7650 -0.3574 -0.8265
 6073SOL     OW24057   4.923   1.376   0.579 -0.3648  0.1204  0.1407
 6073SOL    HW224058   4.893   1.339   0.662 -2.3839  1.7028  0.2009
 6073SOL    HW324059   4.846   1.373   0.522  0.3396  1.1241 -0.9110
 6073SOL    MW424060   4.909   1.371   0.583 -0.5382  0.4616  0.0099
 6074SOL     OW24061   4.893   4.723   1.931  0.3529 -0.2954 -0.0291
 6074SOL    HW224062   4.973   4.706   1.881 -0.0257 -1.1589 -0.3580
 6074SOL    HW324063   4.923   4.729   2.022  0.7285 -1.1198 -0.0902
 6074SOL    MW424064   4.908   4.722   1.937  0.3525 -0.5181 -0.0806
 6075SOL     OW24065   1.766   4.096   3.001 -0.3548 -0.0176  0.2595
 6075SOL    HW224066   1.748   4.033   2.932  0.6867  1.5942 -1.5830
 6075SOL    HW324067   1.848   4.066   3.040  0.1452  0.1661 -0.6198
 6075SOL    MW424068   1.775   4.084   2.997 -0.1514  0.2193 -0.0996
 6076SOL     OW24069   6.346   3.087   0.856 -0.0452 -0.1041  0.5353
 6076SOL    HW224070   6.324   3.112   0.767  0.8094 -1.7221 -0.1727
 6076SOL    HW324071   6.436   3.054   0.852 -0.2532 -0.9481  1.8144
 6076SOL    MW424072   6.355   3.086   0.844  0.0401 -0.4289  0.6107
 6077SOL     OW24073   3.408   3.389   5.099 -0.7807 -0.0795  0.2328
 6077SOL    HW224074   3.318   3.408   5.071 -0.5909  0.6913  0.1161
 6077SOL    HW324075   3.433   3.465   5.152 -0.6495 -0.8857  1.3707
 6077SOL    MW424076   3.400   3.402   5.102 -0.7383 -0.0842  0.3675
 6078SOL     OW24077   4.376   6.073   4.330 -0.5930 -0.1748  1.2302
 6078SOL    HW224078   4.323   5.998   4.301 -1.2193 -0.2641  2.5098
 6078SOL    HW324079   4.338   6.097   4.414  2.1504 -1.0351  2.8527
 6078SOL    MW424080   4.364   6.066   4.337 -0.3137 -0.3001  1.6131
 6079SOL     OW24081   4.903   6.219   3.956  0.2350  0.1742 -0.5564
 6079SOL    HW224082   4.910   6.157   4.029  1.2246  1.7786  0.7858
 6079SOL    HW324083   4.812   6.212   3.928 -0.0131 -0.9436  0.4144
 6079SOL    MW424084   4.892   6.210   3.962  0.3328  0.2384 -0.2512
 6080SOL     OW24085   0.570   0.197   4.410 -0.1004  0.5925 -0.0448
 6080SOL    HW224086   0.484   0.184   4.451 -0.0236  1.9189  0.5920
 6080SOL    HW324087   0.555   0.180   4.317 -1.2919  1.6908 -0.0917
 6080SOL    MW424088   0.556   0.193   4.403 -0.2475  0.9124  0.0330
 6081SOL     OW24089   5.207   0.826   0.476  0.8085 -0.4168  0.0531
 6081SOL    HW224090   5.156   0.907   0.469  1.3826 -0.1187 -1.0135
 6081SOL    HW324091   5.281   0.849   0.532  0.7887 -0.2920  0.0299
 6081SOL    MW424092   5.210   0.840   0.482  0.8816 -0.3610 -0.0906
 6082SOL     OW24093   3.939   4.525   0.459  0.3752  0.4760  0.7080
 6082SOL    HW224094   3.846   4.546   0.453 -0.0652 -0.2664  3.7036
 6082SOL    HW324095   3.942   4.429   0.459  1.0813  0.4955  1.2777
 6082SOL    MW424096   3.927   4.515   0.458  0.4102  0.3806  1.1784
 6083SOL     OW24097   2.869   4.588   5.240  0.4518 -0.0414  0.1953
 6083SOL    HW224098   2.910   4.675   5.246 -1.5138  0.9045  0.7535
 6083SOL    HW324099   2.940   4.530   5.210  1.5028  1.9743 -1.4766
 6083SOL    MW424100   2.884   4.592   5.237  0.3311  0.3493  0.0484
 6084SOL     OW24101   2.948   5.994   5.188  0.2717  0.4872 -0.2787
 6084SOL    HW224102   2.913   5.915   5.229 -0.0918  1.4056  1.2434
 6084SOL    HW324103   2.921   5.988   5.096 -0.1680 -0.9065 -0.0690
 6084SOL    MW424104   2.940   5.983   5.181  0.1658  0.4245 -0.0502
 6085SOL     OW24105   4.793   5.268   4.827 -0.0766  0.3479  0.3904
 6085SOL    HW224106   4.768   5.308   4.744 -0.4763 -0.6612  0.0111
 6085SOL    HW324107   4.758   5.327   4.894  0.8430  1.5398 -0.1315
 6085SOL    MW424108   4.785   5.281   4.825 -0.0080  0.3720  0.2715
 6086SOL     OW24109   5.172   3.446   3.055 -0.0583 -0.4847 -0.6251
 6086SOL    HW224110   5.250   3.428   3.002  0.0650  1.6006 -1.2408
 6086SOL    HW324111   5.107   3.477   2.992 -0.7330 -0.3663  0.1216
 6086SOL    MW424112   5.174   3.448   3.040 -0.1311 -0.1939 -0.6078
 6087SOL     OW24113   2.225   3.476   2.921  0.3048 -0.0994  0.6129
 6087SOL    HW224114   2.259   3.557   2.882 -0.0607  0.2476  1.0038
 6087SOL    HW324115   2.227   3.492   3.015  4.9851 -2.3399  1.2020
 6087SOL    MW424116   2.230   3.489   2.928  0.8741 -0.3492  0.7422
 6088SOL     OW24117   2.324   6.264   1.837 -0.1879  0.4463 -0.1550
 6088SOL    HW224118   2.350   6.178   1.869  0.7983 -0.2929 -2.7198
 6088SOL    HW324119   2.230   6.270   1.857 -0.5735 -1.7940 -1.1035
 6088SOL    MW424120   2.315   6.254   1.844 -0.1086  0.0532 -0.6185
 6089SOL     OW24121   3.336   2.023   2.673  0.1102  0.4346  0.0777
 6089SOL    HW224122   3.277   1.999   2.601  0.6608 -1.1394  0.1088
 6089SOL    HW324123   3.289   2.092   2.721 -0.4296  1.2437 -1.5443
 6089SOL    MW424124   3.322   2.029   2.670  0.1117  0.3336 -0.1322
 6090SOL     OW24125   3.508   4.522   5.763 -0.2293 -0.3114 -0.3345
 6090SOL    HW224126   3.553   4.448   5.803  0.2049  0.0873 -0.0773
 6090SOL    HW324127   3.457   4.561   5.834  0.7383  0.5480 -0.0918
 6090SOL    MW424128   3.507   4.518   5.778 -0.0443 -0.1454 -0.2686
 6091SOL     OW24129   5.948   5.827   3.403  0.7904 -0.2535  0.2587
 6091SOL    HW224130   5.934   5.798   3.493 -0.3168 -1.1240 -0.1696
 6091SOL    HW324131   5.874   5.791   3.355 -0.0979  2.4187 -0.5254
 6091SOL    MW424132   5.936   5.819   3.409  0.5271 -0.0158  0.0987
 6092SOL     OW24133   4.259   2.927   4.104 -0.6706  0.1056 -0.2380
 6092SOL    HW224134   4.252   2.992   4.174 -0.7514 -0.1696  0.0127
 6092SOL    HW324135   4.210   2.851   4.137 -0.3286 -0.1898 -0.4032
 6092SOL    MW424136   4.251   2.925   4.118 -0.6362  0.0303 -0.2267
 6093SOL     OW24137   0.326   5.116   0.892 -0.0032  0.3111  0.5845
 6093SOL    HW224138   0.323   5.053   0.820 -0.4305 -0.0319  0.8994
 6093SOL    HW324139   0.380   5.188   0.859 -1.0361  0.6348 -0.4639
 6093SOL    MW424140   0.332   5.117   0.878 -0.1959  0.3085  0.4877
 6094SOL     OW24141   3.149   0.259   0.358  0.3971 -0.3809 -0.2696
 6094SOL    HW224142   3.209   0.189   0.333 -0.4598 -0.6066 -1.7941
 6094SOL    HW324143   3.155   0.323   0.287  0.3043  0.5349  0.5347
 6094SOL    MW424144   3.157   0.258   0.345  0.2718 -0.2899 -0.3646
 6095SOL     OW24145   4.772   1.505   5.217  0.0740 -0.0748  0.6355
 6095SOL    HW224146   4.701   1.454   5.178  2.0149 -1.2462 -1.6078
 6095SOL    HW324147   4.786   1.466   5.303 -1.2641 -0.4999  0.6848
 6095SOL    MW424148   4.765   1.493   5.223  0.1536 -0.2854  0.3460
 6096SOL     OW24149   4.191   3.381   4.911 -0.2324 -0.2027  0.6797
 6096SOL    HW224150   4.263   3.382   4.847 -0.0069 -1.3883  0.8913
 6096SOL    HW324151   4.193   3.292   4.947 -2.4474 -0.6047 -0.0425
 6096SOL    MW424152   4.201   3.369   4.907 -0.4949 -0.4122  0.6123
 6097SOL     OW24153   0.182   6.293   5.217 -0.1053 -0.0273 -0.4242
 6097SOL    HW224154   0.119   6.345   5.267 -0.3502 -1.0345  0.3504
 6097SOL    HW324155   0.266   6.337   5.232 -0.3102  0.1638  0.1988
 6097SOL    MW424156   0.185   6.305   5.226 -0.1646 -0.1350 -0.2398
 6098SOL     OW24157   2.792   0.067   2.683  0.1182 -0.3072  0.2493
 6098SOL    HW224158   2.873   0.099   2.645 -1.7833  1.2591 -2.8892
 6098SOL    HW324159   2.747   0.145   2.715 -0.5972 -1.0229  1.0699
 6098SOL    MW424160   2.797   0.081   2.682 -0.2270 -0.1950 -0.0565
 6099SOL     OW24161   3.552   1.232   3.962  0.3205 -0.1804  0.0931
 6099SOL    HW224162   3.536   1.323   3.985  0.4881 -0.5103  1.6412
 6099SOL    HW324163   3.494   1.214   3.887 -3.6195 -0.2240  2.8725
 6099SOL    MW424164   3.543   1.241   3.955 -0.1772 -0.2297  0.6641
 6100SOL     OW24165   3.875   1.597   6.051  1.0574  0.1423 -0.5639
 6100SOL    HW224166   3.858   1.572   5.961  0.0395  0.6585 -0.5277
 6100SOL    HW324167   3.802   1.561   6.101 -0.8082  3.4623 -0.5818
 6100SOL    MW424168   3.863   1.589   6.046  0.6770  0.6484 -0.5615
 6101SOL     OW24169   4.924   1.672   1.229 -0.0632  0.0161 -0.3046
 6101SOL    HW224170   4.956   1.761   1.213  0.0226  0.1392  0.5186
 6101SOL    HW324171   4.861   1.681   1.300 -0.5971 -0.4876 -0.6992
 6101SOL    MW424172   4.920   1.685   1.236 -0.1223 -0.0341 -0.2481
 6102SOL     OW24173   0.065   2.543   3.453 -0.0934 -0.0223 -0.0472
 6102SOL    HW224174   0.132   2.530   3.386  0.6484  2.1824  0.1923
 6102SOL    HW324175  -0.007   2.585   3.407 -0.1470  0.2363  0.2710
 6102SOL    MW424176   0.065   2.547   3.438 -0.0026  0.3027  0.0263
 6103SOL     OW24177   6.095   2.201   1.048  0.1122 -0.0732 -0.4539
 6103SOL    HW224178   6.075   2.128   0.990 -0.3783 -0.0036 -0.3746
 6103SOL    HW324179   6.185   2.225   1.026  0.3020 -0.7501 -0.4236
 6103SOL    MW424180   6.105   2.195   1.037  0.0725 -0.1533 -0.4394
 6104SOL     OW24181   2.960   3.154   0.838  0.2946 -0.3672  0.7023
 6104SOL    HW224182   2.984   3.241   0.871 -0.9155  0.4757 -0.5384
 6104SOL    HW324183   2.897   3.121   0.902  0.5395 -0.2133  1.0260
 6104SOL    MW424184   2.955   3.161   0.851  0.1672 -0.2357  0.5813
 6105SOL     OW24185   5.693   3.151   2.788  0.4839 -0.6198  0.1374
 6105SOL    HW224186   5.698   3.190   2.875  1.2724 -0.3331 -0.0277
 6105SOL    HW324187   5.775   3.103   2.779  0.2265 -0.9881 -0.2919
 6105SOL    MW424188   5.704   3.150   2.798  0.5540 -0.6306  0.0590
 6106SOL     OW24189   6.214   5.826   4.262  0.1264 -0.0591 -0.4422
 6106SOL    HW224190   6.295   5.829   4.211  1.2465 -1.5431  1.1470
 6106SOL    HW324191   6.185   5.735   4.255 -1.2958  0.4047 -0.7892
 6106SOL    MW424192   6.221   5.814   4.254  0.0865 -0.1937 -0.2783
 6107SOL     OW24193   3.731   1.094   1.848 -0.3972 -0.0855  0.0212
 6107SOL    HW224194   3.706   1.181   1.815  2.1982  0.5984 -0.3621
 6107SOL    HW324195   3.686   1.086   1.932 -2.7046  0.5034 -1.0640
 6107SOL    MW424196   3.722   1.105   1.855 -0.3592  0.0825 -0.1726
 6108SOL     OW24197   4.933   2.124   0.652  0.7600  0.6087  0.6893
 6108SOL    HW224198   4.989   2.073   0.594  0.8076  1.9038 -0.4535
 6108SOL    HW324199   4.983   2.204   0.669 -1.3559  2.6109 -1.7865
 6108SOL    MW424200   4.947   2.128   0.647  0.4871  1.0437  0.2119
 6109SOL     OW24201   4.289   3.898   6.174 -0.1059  0.3897  0.3006
 6109SOL    HW224202   4.305   3.807   6.200 -1.0238  0.3057  0.6096
 6109SOL    HW324203   4.233   3.933   6.243 -1.6161  0.5164 -0.9350
 6109SOL    MW424204   4.284   3.890   6.187 -0.4262  0.3953  0.1783
 6110SOL     OW24205   2.613   0.634   1.604  0.7983 -0.1975  0.0996
 6110SOL    HW224206   2.683   0.583   1.563  1.1327  0.7754 -0.5952
 6110SOL    HW324207   2.566   0.672   1.530  0.8005  0.8000  0.5900
 6110SOL    MW424208   2.616   0.632   1.588  0.8427  0.0625  0.0727
 6111SOL     OW24209   0.779   4.716   1.774 -0.4141  0.0849  0.4109
 6111SOL    HW224210   0.695   4.675   1.753  0.8310 -2.6967  0.4093
 6111SOL    HW324211   0.786   4.705   1.869  0.5970 -1.2017  0.2188
 6111SOL    MW424212   0.769   4.709   1.784 -0.1164 -0.4519  0.3853
 6112SOL     OW24213   1.216   2.057   0.584  0.3178  0.3715 -0.0975
 6112SOL    HW224214   1.176   2.142   0.605 -1.1175 -0.5703  1.2371
 6112SOL    HW324215   1.223   2.013   0.669  2.3904 -0.3184 -0.5815
 6112SOL    MW424216   1.211   2.063   0.598  0.4019  0.1562  0.0147
 6113SOL     OW24217   2.935   0.734   6.207  0.0813 -0.1764  0.0972
 6113SOL    HW224218   2.993   0.711   6.135 -1.5697 -0.2456 -1.2689
 6113SOL    HW324219   2.928   0.829   6.204 -0.2844 -0.2069 -0.0825
 6113SOL    MW424220   2.942   0.744   6.197 -0.1848 -0.1896 -0.1068
 6114SOL     OW24221   4.878   1.063   6.213  0.0450 -0.3529 -0.1267
 6114SOL    HW224222   4.941   1.075   6.285 -0.2939  0.1289  0.0916
 6114SOL    HW324223   4.809   1.126   6.231 -0.5829 -0.9825 -0.2808
 6114SOL    MW424224   4.877   1.073   6.225 -0.0826 -0.3724 -0.1182
 6115SOL     OW24225   3.390   5.674   1.160  0.2285 -0.3298 -0.0768
 6115SOL    HW224226   3.308   5.628   1.143  0.5555 -0.7401 -0.5678
 6115SOL    HW324227   3.428   5.628   1.235 -1.0513  1.2684  1.6471
 6115SOL    MW424228   3.384   5.662   1.168  0.1028 -0.1731  0.0858
 6116SOL     OW24229   4.829   3.294   4.441  0.3969  0.1349  0.2278
 6116SOL    HW224230   4.903   3.241   4.468  2.7601  2.2248 -1.6094
 6116SOL    HW324231   4.789   3.324   4.522  1.7264 -0.8263  1.2745
 6116SOL    MW424232   4.834   3.291   4.455  0.8841  0.2838  0.1235
 6117SOL     OW24233   4.723   1.483   0.831  0.0663  0.1313  0.9893
 6117SOL    HW224234   4.765   1.400   0.808  0.3843  0.4488  0.4349
 6117SOL    HW324235   4.745   1.496   0.924  1.3883  0.4101  0.6488
 6117SOL    MW424236   4.731   1.473   0.841  0.2827  0.2100  0.8712
 6118SOL     OW24237   4.171   3.551   2.382 -0.7010  0.7110 -0.1513
 6118SOL    HW224238   4.093   3.504   2.352 -1.2988  1.3221  0.4398
 6118SOL    HW324239   4.210   3.493   2.447 -0.3988  0.2004 -0.7706
 6118SOL    MW424240   4.166   3.537   2.386 -0.7400  0.7243 -0.1550
 6119SOL     OW24241   0.857   0.946   6.051 -0.5312 -0.3563 -0.6843
 6119SOL    HW224242   0.784   0.914   6.105 -0.9514  0.2728 -0.8662
 6119SOL    HW324243   0.833   1.036   6.030 -0.5140 -0.6564 -2.1293
 6119SOL    MW424244   0.844   0.954   6.056 -0.5844 -0.3129 -0.8990
 6120SOL     OW24245   3.828   0.677   5.172 -0.0582  0.4106  0.4989
 6120SOL    HW224246   3.782   0.606   5.127  0.9207  1.6095 -2.6734
 6120SOL    HW324247   3.919   0.647   5.175 -0.1653  0.1719  2.2023
 6120SOL    MW424248   3.834   0.663   5.166  0.0568  0.5373  0.3051
 6121SOL     OW24249   2.449   4.784   1.527  0.1320  0.2302 -0.5000
 6121SOL    HW224250   2.536   4.824   1.531 -0.8239  2.3335  1.9441
 6121SOL    HW324251   2.426   4.767   1.618 -2.3754  0.5054 -1.0077
 6121SOL    MW424252   2.458   4.787   1.539 -0.3249  0.5441 -0.2445
 6122SOL     OW24253   3.622   0.074   3.492  0.0255 -0.0519 -0.3110
 6122SOL    HW224254   3.695   0.074   3.555 -2.0537 -0.2263  2.2391
 6122SOL    HW324255   3.610   0.167   3.471 -0.9143  0.3115  1.6588
 6122SOL    MW424256   3.630   0.087   3.498 -0.3728 -0.0270  0.2854
 6123SOL     OW24257   3.917   4.570   5.543 -0.3053  0.4906 -0.0348
 6123SOL    HW224258   3.885   4.480   5.539  1.0715 -0.0260  0.2090
 6123SOL    HW324259   3.885   4.603   5.627  0.7916 -0.4272  0.7755
 6123SOL    MW424260   3.909   4.563   5.553  0.0211  0.3013  0.1042
 6124SOL     OW24261   2.703   0.951   5.188 -0.0064 -0.3733  0.2963
 6124SOL    HW224262   2.645   0.923   5.259  1.3770 -2.2296  0.7867
 6124SOL    HW324263   2.648   0.950   5.110 -1.5846  1.7899  1.3074
 6124SOL    MW424264   2.688   0.947   5.187 -0.0321 -0.3328  0.4944
 6125SOL     OW24265   4.180   0.517   5.444 -0.2161  0.3471  0.0974
 6125SOL    HW224266   4.146   0.594   5.490  0.8576 -0.7506  2.9575
 6125SOL    HW324267   4.117   0.448   5.463  0.3359 -0.1782  0.0431
 6125SOL    MW424268   4.167   0.518   5.452 -0.0016  0.1330  0.4676
 6126SOL     OW24269   1.069   5.481   6.177  0.1531 -0.8099 -0.7675
 6126SOL    HW224270   1.050   5.438   6.094  0.1170  1.0178 -1.7669
 6126SOL    HW324271   0.988   5.526   6.200  0.5877 -0.1597 -0.4739
 6126SOL    MW424272   1.056   5.481   6.169  0.2057 -0.4830 -0.8606
 6127SOL     OW24273   0.396   5.611   5.427 -0.2187  0.4695  0.2684
 6127SOL    HW224274   0.314   5.631   5.381 -1.5330  0.4905  2.4736
 6127SOL    HW324275   0.381   5.640   5.517  0.6627 -3.2101  1.7874
 6127SOL    MW424276   0.383   5.617   5.433 -0.2758 -0.0132  0.7597
 6128SOL     OW24277   4.979   6.229   5.937 -0.3109  0.2573  0.2089
 6128SOL    HW224278   5.059   6.179   5.951 -0.0849  1.0532  2.1671
 6128SOL    HW324279   5.002   6.318   5.962 -1.6904  0.5807  0.4061
 6128SOL    MW424280   4.993   6.234   5.942 -0.4631  0.4050  0.4933
 6129SOL     OW24281   1.612   5.533   5.218 -0.0298 -0.0735 -0.3149
 6129SOL    HW224282   1.666   5.586   5.160  1.5403 -1.1773  0.0868
 6129SOL    HW324283   1.544   5.497   5.161  0.5703  0.0914 -1.1453
 6129SOL    MW424284   1.610   5.535   5.203  0.2566 -0.1974 -0.3715
 6130SOL     OW24285   2.154   2.133   1.561 -0.5415 -0.3286 -0.2403
 6130SOL    HW224286   2.107   2.119   1.644 -0.6859 -1.2740 -0.4748
 6130SOL    HW324287   2.233   2.181   1.586 -0.4329 -0.8775  0.4879
 6130SOL    MW424288   2.158   2.138   1.575 -0.5462 -0.5258 -0.1752
 6131SOL     OW24289   2.837   3.732   2.072  0.5672  0.6443 -0.3073
 6131SOL    HW224290   2.884   3.715   2.154 -0.1846 -0.5859 -0.1064
 6131SOL    HW324291   2.899   3.782   2.019  1.4683  0.5356  0.5989
 6131SOL    MW424292   2.851   3.736   2.076  0.5869  0.4676 -0.1612
 6132SOL     OW24293   2.155   0.585   1.372 -0.2189  0.2948 -0.3704
 6132SOL    HW224294   2.157   0.516   1.438 -1.2870 -0.1059 -0.7360
 6132SOL    HW324295   2.206   0.550   1.298  0.1400  0.3436 -0.1496
 6132SOL    MW424296   2.162   0.571   1.371 -0.3124  0.2484 -0.3895
 6133SOL     OW24297   1.673   2.221   4.363  0.0504 -0.0264 -0.1504
 6133SOL    HW224298   1.598   2.206   4.421 -0.9848  0.0829 -1.4049
 6133SOL    HW324299   1.681   2.316   4.359 -0.0632 -0.0243 -0.3857
 6133SOL    MW424300   1.664   2.231   4.370 -0.1012 -0.0117 -0.3470
 6134SOL     OW24301   3.331   3.605   4.449 -0.4661  0.0871 -0.1254
 6134SOL    HW224302   3.357   3.698   4.454  1.2687 -0.4389  2.6451
 6134SOL    HW324303   3.281   3.590   4.529 -0.7280 -1.3877 -0.5451
 6134SOL    MW424304   3.328   3.616   4.460 -0.2717 -0.1769  0.1848
 6135SOL     OW24305   6.423   5.551   3.551 -0.0183  0.3908  0.0985
 6135SOL    HW224306   6.372   5.471   3.566 -1.3163  0.5796 -2.5235
 6135SOL    HW324307   6.398   5.610   3.623  0.0411 -1.1279  1.3982
 6135SOL    MW424308   6.413   5.549   3.562 -0.1817  0.2153 -0.0760
 6136SOL     OW24309   4.436   2.111   2.810 -0.2643  0.0521  0.2083
 6136SOL    HW224310   4.488   2.093   2.888  0.4471  1.8622  0.1929
 6136SOL    HW324311   4.496   2.155   2.750 -1.2094  0.0924 -0.7510
 6136SOL    MW424312   4.450   2.114   2.812 -0.2952  0.2962  0.0797
 6137SOL     OW24313   2.106   0.747   2.876 -0.2554  0.2246 -0.0939
 6137SOL    HW224314   2.030   0.760   2.819  0.7117  1.5747 -1.1742
 6137SOL    HW324315   2.093   0.810   2.947 -0.4664 -0.0303  0.0973
 6137SOL    MW424316   2.094   0.757   2.878 -0.1557  0.3691 -0.2112
 6138SOL     OW24317   4.940   4.790   4.560 -0.3097  0.2922  0.0234
 6138SOL    HW224318   4.854   4.831   4.564 -0.4723 -0.1665  2.0442
 6138SOL    HW324319   4.948   4.743   4.642  1.4711 -0.5136 -0.5727
 6138SOL    MW424320   4.930   4.790   4.571 -0.0962  0.1254  0.2114
 6139SOL     OW24321   0.407   2.738   5.794  0.5235 -0.5045 -0.4616
 6139SOL    HW224322   0.370   2.736   5.882  0.3027 -1.4674 -0.5674
 6139SOL    HW324323   0.365   2.814   5.752  0.4231 -0.2060  0.1644
 6139SOL    MW424324   0.396   2.748   5.800  0.4811 -0.5921 -0.3930
 6140SOL     OW24325   4.745   1.667   1.427 -0.6513 -0.0961  0.0698
 6140SOL    HW224326   4.652   1.684   1.415 -0.6996 -0.6416 -0.4229
 6140SOL    HW324327   4.759   1.671   1.521 -0.7534  2.0548  0.0340
 6140SOL    MW424328   4.735   1.669   1.438 -0.6711  0.1157  0.0001
 6141SOL     OW24329   1.430   3.729   1.885  0.4366 -0.6433 -0.3795
 6141SOL    HW224330   1.484   3.758   1.811 -0.6181  1.1535 -0.5000
 6141SOL    HW324331   1.389   3.809   1.917 -1.6466 -1.8542  0.1272
 6141SOL    MW424332   1.432   3.744   1.880  0.0226 -0.5660 -0.3285
 6142SOL     OW24333   4.122   1.386   3.391 -0.0125 -0.4320 -0.3997
 6142SOL    HW224334   4.091   1.476   3.400  0.6798 -0.2588  0.2907
 6142SOL    HW324335   4.072   1.337   3.456 -0.5814 -0.6067 -0.9559
 6142SOL    MW424336   4.111   1.392   3.401  0.0038 -0.4322 -0.3820
 6143SOL     OW24337   0.447   0.286   0.349  0.3857 -0.4244  0.1460
 6143SOL    HW224338   0.418   0.267   0.438 -0.7143 -1.2199 -0.3604
 6143SOL    HW324339   0.469   0.200   0.312 -0.6748 -0.2951 -0.8393
 6143SOL    MW424340   0.446   0.272   0.356  0.1007 -0.5123 -0.0508
 6144SOL     OW24341   0.172   3.135   0.249  0.5785 -0.7127  0.5107
 6144SOL    HW224342   0.203   3.098   0.166  0.8442  1.2971 -0.3356
 6144SOL    HW324343   0.247   3.127   0.308 -0.3767 -4.4706  1.4537
 6144SOL    MW424344   0.186   3.129   0.246  0.4875 -0.9434  0.5235
 6145SOL     OW24345   4.713   2.950   3.186  0.1027  0.1669  0.7984
 6145SOL    HW224346   4.765   2.882   3.229 -1.0848 -2.8853 -2.1422
 6145SOL    HW324347   4.625   2.939   3.220 -0.0882  0.2279  0.3396
 6145SOL    MW424348   4.709   2.940   3.196 -0.0792 -0.2278  0.3499
 6146SOL     OW24349   6.250   2.107   2.366  0.0930  0.0504 -0.1102
 6146SOL    HW224350   6.155   2.122   2.366 -0.2802 -1.9204  0.7210
 6146SOL    HW324351   6.281   2.151   2.445 -0.3356 -0.3107  0.2671
 6146SOL    MW424352   6.241   2.115   2.377 -0.0128 -0.2572  0.0493
 6147SOL     OW24353   4.734   1.005   1.629 -0.2809 -0.2995  0.3613
 6147SOL    HW224354   4.679   0.962   1.562  0.4956  0.1348 -0.5819
 6147SOL    HW324355   4.784   1.070   1.580  1.3740 -0.9525  1.1178
 6147SOL    MW424356   4.733   1.008   1.613  0.0399 -0.3284  0.3366
 6148SOL     OW24357   2.404   0.238   2.503 -0.2690  0.2786 -0.1325
 6148SOL    HW224358   2.369   0.232   2.592 -2.4162 -0.1431 -0.9423
 6148SOL    HW324359   2.449   0.154   2.490 -0.6308  0.0078  0.2942
 6148SOL    MW424360   2.405   0.226   2.513 -0.6000  0.1872 -0.1831
 6149SOL     OW24361   3.160   6.164   1.915 -0.1276 -0.2839 -0.4365
 6149SOL    HW224362   3.235   6.186   1.860  1.4575 -1.6913  1.0248
 6149SOL    HW324363   3.194   6.167   2.005 -1.5807 -1.7966  0.2281
 6149SOL    MW424364   3.174   6.167   1.920 -0.1102 -0.6692 -0.1560
 6150SOL     OW24365   4.572   0.118   3.381  0.5927 -0.1139  0.2742
 6150SOL    HW224366   4.621   0.064   3.320 -1.5326 -0.2361 -1.4467
 6150SOL    HW324367   4.637   0.151   3.442  2.5972 -1.1491 -1.2131
 6150SOL    MW424368   4.587   0.115   3.381  0.5768 -0.2666 -0.1491
 6151SOL     OW24369   5.315   2.631   3.652 -0.0231  0.1823 -0.0443
 6151SOL    HW224370   5.332   2.704   3.711 -0.9972 -1.9291  3.1049
 6151SOL    HW324371   5.225   2.646   3.622 -0.6521 -0.2659  1.5329
 6151SOL    MW424372   5.305   2.643   3.656 -0.2346 -0.1554  0.5793
 6152SOL     OW24373   1.475   3.119   3.438 -0.5255 -0.1077 -0.2843
 6152SOL    HW224374   1.430   3.050   3.389  1.2389 -1.7145  0.2269
 6152SOL    HW324375   1.438   3.200   3.404 -3.9575 -1.2644  0.2870
 6152SOL    MW424376   1.464   3.120   3.427 -0.7455 -0.4723 -0.1415
 6153SOL     OW24377   2.040   3.307   2.534 -0.1153  0.6245 -0.0877
 6153SOL    HW224378   2.109   3.368   2.508  0.4420  0.2237  0.4115
 6153SOL    HW324379   2.019   3.332   2.624 -1.8771  1.8704 -0.7904
 6153SOL    MW424380   2.047   3.318   2.543 -0.2742  0.7360 -0.1146
 6154SOL     OW24381   1.543   1.735   5.491 -0.1480 -0.6674  0.1870
 6154SOL    HW224382   1.456   1.716   5.457  0.3046 -0.6993 -1.0206
 6154SOL    HW324383   1.593   1.655   5.474 -0.1524 -1.0537  1.8771
 6154SOL    MW424384   1.538   1.722   5.484 -0.0889 -0.7226  0.2507
 6155SOL     OW24385   3.265   0.123   4.443  0.5874 -0.5002  0.4566
 6155SOL    HW224386   3.296   0.188   4.505  1.4124  0.0744 -0.5275
 6155SOL    HW324387   3.172   0.145   4.429  0.2861 -0.8642  1.7242
 6155SOL    MW424388   3.257   0.134   4.449  0.6565 -0.4724  0.4940
 6156SOL     OW24389   4.609   3.421   4.990  0.0470 -0.0549 -0.1955
 6156SOL    HW224390   4.693   3.429   4.945 -0.0167 -0.9161 -0.4889
 6156SOL    HW324391   4.629   3.375   5.071 -0.1705 -0.4641 -0.3714
 6156SOL    MW424392   4.622   3.416   4.995  0.0099 -0.2225 -0.2574
 6157SOL     OW24393   5.286   0.659   2.123 -0.2625  0.3053 -0.2573
 6157SOL    HW224394   5.283   0.750   2.151  1.1293  0.0499  0.8575
 6157SOL    HW324395   5.210   0.648   2.066 -0.8103  1.9821  0.1105
 6157SOL    MW424396   5.275   0.669   2.119 -0.1512  0.4928 -0.0617
 6158SOL     OW24397   1.873   0.514   2.174  0.5079  0.0618 -0.3032
 6158SOL    HW224398   1.929   0.446   2.211 -0.6426  0.0023  1.4488
 6158SOL    HW324399   1.869   0.494   2.080  2.1576 -0.8059 -0.2148
 6158SOL    MW424400   1.879   0.502   2.166  0.5737 -0.0605 -0.0604
 6159SOL     OW24401   2.556   5.476   5.626  0.4044  0.3735 -0.0138
 6159SOL    HW224402   2.635   5.520   5.596 -0.0138  0.4855 -0.9704
 6159SOL    HW324403   2.587   5.397   5.670  1.1051  1.0509  0.7543
 6159SOL    MW424404   2.570   5.471   5.628  0.4416  0.4776 -0.0387
 6160SOL     OW24405   0.335   0.792   6.201  0.3791 -0.1373 -0.3012
 6160SOL    HW224406   0.283   0.777   6.122  0.1972  0.8904 -0.3997
 6160SOL    HW324407   0.286   0.748   6.271 -0.2183  0.1554 -0.5266
 6160SOL    MW424408   0.322   0.784   6.200  0.2762  0.0369 -0.3440
 6161SOL     OW24409   4.872   6.066   2.660  0.1431  0.3263 -0.1886
 6161SOL    HW224410   4.878   5.994   2.722  1.5587 -0.2615 -0.9812
 6161SOL    HW324411   4.844   6.025   2.578  0.0434  0.8211 -0.4062
 6161SOL    MW424412   4.869   6.051   2.658  0.3167  0.3140 -0.3219
 6162SOL     OW24413   3.488   0.951   1.294 -0.3205  0.4717 -0.0961
 6162SOL    HW224414   3.531   0.897   1.228 -2.0670 -1.8544  0.5499
 6162SOL    HW324415   3.434   0.890   1.345 -1.9360  2.7297  1.1060
 6162SOL    MW424416   3.486   0.936   1.292 -0.7641  0.4627  0.1477
 6163SOL     OW24417   2.737   5.804   6.406  0.3051  0.2962 -0.0828
 6163SOL    HW224418   2.728   5.812   6.501  0.4860  2.2671 -0.1819
 6163SOL    HW324419   2.827   5.775   6.393 -0.7526 -3.8535  0.3871
 6163SOL    MW424420   2.748   5.802   6.417  0.1894  0.0087 -0.0339
 6164SOL     OW24421   2.331   0.982   6.352  0.0648 -0.8069 -0.1126
 6164SOL    HW224422   2.340   0.904   6.407  1.1689 -0.7456 -0.1798
 6164SOL    HW324423   2.357   1.054   6.410 -0.5944 -0.5253 -0.1607
 6164SOL    MW424424   2.336   0.981   6.367  0.1235 -0.7617 -0.1278
 6165SOL     OW24425   1.410   0.933   5.335 -0.2115 -0.0886 -0.1439
 6165SOL    HW224426   1.431   0.841   5.321  1.0418 -0.0292  1.1776
 6165SOL    HW324427   1.415   0.945   5.430 -2.2336  0.9213 -0.1068
 6165SOL    MW424428   1.413   0.923   5.346 -0.3129  0.0524  0.0353
 6166SOL     OW24429   6.343   5.201   1.976  0.0377  0.3836  0.3247
 6166SOL    HW224430   6.290   5.162   1.908 -0.0777 -0.2482  0.7656
 6166SOL    HW324431   6.379   5.126   2.025  1.5159  0.7748 -0.0970
 6166SOL    MW424432   6.341   5.186   1.974  0.2175  0.3519  0.3273
 6167SOL     OW24433   4.027   0.330   3.127  0.7173  0.5312  0.5735
 6167SOL    HW224434   4.099   0.277   3.091  0.3157 -1.9281  3.0319
 6167SOL    HW324435   4.066   0.377   3.200  0.0914  0.1298  1.1708
 6167SOL    MW424436   4.041   0.329   3.132  0.5817  0.1537  0.9767
 6168SOL     OW24437   4.411   1.301   6.328  0.3067  0.2357  0.1101
 6168SOL    HW224438   4.322   1.284   6.297  0.6243  1.9439 -1.9586
 6168SOL    HW324439   4.423   1.395   6.315  1.4867  0.5898  3.0058
 6168SOL    MW424440   4.401   1.311   6.322  0.5042  0.5078  0.2192
 6169SOL     OW24441   3.149   1.053   5.880 -0.2924  0.5986 -0.2570
 6169SOL    HW224442   3.138   1.125   5.818 -0.4520 -0.1078 -1.0532
 6169SOL    HW324443   3.075   0.995   5.864  0.8235 -0.7070 -0.9413
 6169SOL    MW424444   3.138   1.055   5.870 -0.1662  0.3331 -0.4523
 6170SOL     OW24445   5.649   6.345   0.992 -0.0549  0.0327 -0.5168
 6170SOL    HW224446   5.687   6.294   0.920 -0.3311  0.0855 -0.7032
 6170SOL    HW324447   5.585   6.402   0.949 -0.8794 -0.5782 -0.1224
 6170SOL    MW424448   5.646   6.346   0.977 -0.2002 -0.0409 -0.4894
 6171SOL     OW24449   1.413   1.232   0.877 -0.7005  0.7005 -0.2401
 6171SOL    HW224450   1.406   1.326   0.864 -0.3174  0.7883  0.1934
 6171SOL    HW324451   1.453   1.199   0.797  1.0460  1.1620  0.4037
 6171SOL    MW424452   1.417   1.240   0.865 -0.4196  0.7729 -0.0980
 6172SOL     OW24453   6.288   0.829   4.676  0.1897  1.1542 -0.7446
 6172SOL    HW224454   6.330   0.909   4.644  2.4288  0.0638 -0.7164
 6172SOL    HW324455   6.236   0.858   4.751  2.8248  2.3135  0.7806
 6172SOL    MW424456   6.287   0.843   4.681  0.8328  1.1633 -0.5396
 6173SOL     OW24457   5.557   2.423   5.128 -0.1387 -0.9009 -0.3227
 6173SOL    HW224458   5.546   2.378   5.044  0.6125 -2.0492  0.1716
 6173SOL    HW324459   5.648   2.452   5.128 -0.3420 -0.2360 -0.2014
 6173SOL    MW424460   5.568   2.421   5.117 -0.0664 -0.9647 -0.2415
 6174SOL     OW24461   6.208   0.992   1.994  0.1566 -0.0464  0.1181
 6174SOL    HW224462   6.173   0.905   2.012  0.6820 -0.0036  1.4432
 6174SOL    HW324463   6.254   0.982   1.910 -0.4314 -0.8480 -0.1151
 6174SOL    MW424464   6.210   0.979   1.985  0.1483 -0.1465  0.2621
 6175SOL     OW24465   3.321   1.377   4.438 -0.1273  0.1517 -0.0037
 6175SOL    HW224466   3.313   1.452   4.496 -1.0780  0.5437 -0.6274
 6175SOL    HW324467   3.264   1.397   4.364 -0.5288 -1.2614 -0.1003
 6175SOL    MW424468   3.313   1.389   4.436 -0.3057  0.0170 -0.0987
 6176SOL     OW24469   4.779   0.626   0.844 -0.6398 -0.5780  0.4204
 6176SOL    HW224470   4.814   0.540   0.818  0.4359 -0.6172  1.8810
 6176SOL    HW324471   4.856   0.675   0.873 -1.4882  0.2339  1.3625
 6176SOL    MW424472   4.794   0.621   0.844 -0.6098 -0.4760  0.7374
 6177SOL     OW24473   0.239   0.647   2.287 -0.2757 -0.5322  0.4186
 6177SOL    HW224474   0.293   0.589   2.233  0.9475 -0.0080  1.0373
 6177SOL    HW324475   0.296   0.672   2.360 -0.0458  2.8733 -0.7090
 6177SOL    MW424476   0.254   0.643   2.290 -0.0840 -0.0137  0.3515
 6178SOL     OW24477   5.797   6.100   6.310  0.0215  0.7486  0.0014
 6178SOL    HW224478   5.798   6.173   6.372  0.1933 -2.4231  4.2223
 6178SOL    HW324479   5.884   6.102   6.270 -0.2722  3.2281 -0.7042
 6178SOL    MW424480   5.809   6.110   6.313  0.0054  0.6572  0.4652
 6179SOL     OW24481   6.110   6.089   0.117 -0.4050  0.0378 -0.9137
 6179SOL    HW224482   6.063   6.038   0.052 -0.4948  0.7301 -1.3976
 6179SOL    HW324483   6.159   6.154   0.067 -0.3538  0.4820 -0.3074
 6179SOL    MW424484   6.110   6.091   0.102 -0.4101  0.1878 -0.8975
 6180SOL     OW24485   2.306   2.388   2.345 -0.2445  0.5100 -0.6139
 6180SOL    HW224486   2.312   2.460   2.283  2.4177 -0.9760 -2.2993
 6180SOL    HW324487   2.350   2.420   2.424 -0.0571  1.0981 -0.9495
 6180SOL    MW424488   2.313   2.402   2.347  0.1315  0.3915 -0.8805
 6181SOL     OW24489   0.825   4.978   1.648  0.0212 -0.6958  0.0011
 6181SOL    HW224490   0.809   4.884   1.656 -0.9908 -0.3979  2.1823
 6181SOL    HW324491   0.766   5.019   1.711 -0.0702  1.4874 -1.3790
 6181SOL    MW424492   0.815   4.971   1.658 -0.1244 -0.3685  0.1068
 6182SOL     OW24493   0.021   1.948   5.898  0.1985 -0.0768  0.3785
 6182SOL    HW224494  -0.028   1.994   5.966 -1.3362 -1.1447  0.0528
 6182SOL    HW324495  -0.046   1.910   5.841  1.4282 -0.6847 -0.7354
 6182SOL    MW424496   0.006   1.949   5.899  0.1583 -0.2979  0.1885
 6183SOL     OW24497   1.110   6.041   2.640  0.0430  0.5271 -0.7970
 6183SOL    HW224498   1.046   6.106   2.611  0.4551  1.2889 -0.0593
 6183SOL    HW324499   1.058   5.977   2.689 -0.3069  0.5283 -1.1584
 6183SOL    MW424500   1.094   6.041   2.643  0.0512  0.6278 -0.7474
 6184SOL     OW24501   4.674   3.526   0.843 -0.1434  0.1908 -0.4534
 6184SOL    HW224502   4.765   3.509   0.819 -0.7304 -3.0407 -0.8971
 6184SOL    HW324503   4.668   3.501   0.935 -0.4852  0.9016 -0.2751
 6184SOL    MW424504   4.685   3.520   0.852 -0.2659 -0.1418 -0.4884
 6185SOL     OW24505   1.040   3.493   0.178 -0.3049  0.1740  0.0625
 6185SOL    HW224506   0.968   3.441   0.142 -0.7512  1.6529 -1.2982
 6185SOL    HW324507   1.100   3.506   0.104  0.6191  0.2005  0.8040
 6185SOL    MW424508   1.038   3.488   0.163 -0.2419  0.3726 -0.0192
 6186SOL     OW24509   2.568   2.286   1.870 -0.0087 -0.2822  0.0705
 6186SOL    HW224510   2.501   2.227   1.903 -1.3385  0.3357 -1.4028
 6186SOL    HW324511   2.644   2.230   1.854 -0.7401 -1.3195  0.1444
 6186SOL    MW424512   2.569   2.271   1.872 -0.2806 -0.3376 -0.1142
 6187SOL     OW24513   5.380   2.586   5.856  0.5879 -0.2445  0.3711
 6187SOL    HW224514   5.469   2.551   5.853  0.6503 -0.1540  1.0360
 6187SOL    HW324515   5.367   2.626   5.770  0.4224 -2.0998 -0.5175
 6187SOL    MW424516   5.390   2.586   5.844  0.5743 -0.4773  0.3416
 6188SOL     OW24517   2.198   4.902   4.521  0.4837 -0.0490  0.2549
 6188SOL    HW224518   2.140   4.885   4.595 -0.2990 -0.3342 -0.3977
 6188SOL    HW324519   2.184   4.828   4.462  2.4528 -0.7528  0.6158
 6188SOL    MW424520   2.188   4.890   4.523  0.6402 -0.1795  0.2164
 6189SOL     OW24521   0.972   6.000   5.353  0.3311  0.0411 -0.1674
 6189SOL    HW224522   0.917   5.930   5.316  2.4551 -0.1367 -3.3792
 6189SOL    HW324523   0.915   6.077   5.353 -0.7746 -0.7351 -0.6852
 6189SOL    MW424524   0.957   6.001   5.348  0.4655 -0.0848 -0.6594
 6190SOL     OW24525   1.548   6.016   2.111 -0.4609 -0.0221 -0.7231
 6190SOL    HW224526   1.582   6.084   2.169 -0.3251  0.6669 -1.5855
 6190SOL    HW324527   1.579   5.934   2.149 -0.9197  0.3670  0.5262
 6190SOL    MW424528   1.557   6.014   2.124 -0.5035  0.1201 -0.6720
 6191SOL     OW24529   1.740   1.222   6.351 -0.0289  0.0327  0.4354
 6191SOL    HW224530   1.752   1.198   6.443  1.2173 -2.0985 -0.1872
 6191SOL    HW324531   1.689   1.150   6.315 -0.8199  1.0337 -0.4794
 6191SOL    MW424532   1.735   1.209   6.359  0.0311 -0.1164  0.2326
 6192SOL     OW24533   1.756   3.619   5.517  0.1368 -0.1892  0.5479
 6192SOL    HW224534   1.828   3.661   5.563 -0.1682 -0.0745  0.9267
 6192SOL    HW324535   1.757   3.528   5.549  0.4258 -0.3174  0.1759
 6192SOL    MW424536   1.765   3.612   5.527  0.1347 -0.1910  0.5488
 6193SOL     OW24537   5.460   4.219   2.083  0.0473 -0.7285 -0.1046
 6193SOL    HW224538   5.463   4.170   2.166  0.9005  0.4442  0.5837
 6193SOL    HW324539   5.456   4.311   2.110  2.6869 -0.1768 -1.3437
 6193SOL    MW424540   5.460   4.224   2.098  0.5081 -0.5010 -0.1773
 6194SOL     OW24541   1.857   3.739   1.842 -0.1796 -0.1832 -0.2591
 6194SOL    HW224542   1.886   3.817   1.795 -2.3390  0.8770  0.0493
 6194SOL    HW324543   1.938   3.692   1.863  1.2746  2.3007  0.1469
 6194SOL    MW424544   1.872   3.743   1.839 -0.2726  0.2844 -0.1648
 6195SOL     OW24545   2.568   0.018   2.492  0.3438 -0.0198 -0.3707
 6195SOL    HW224546   2.628   0.031   2.565 -1.3115  0.8894  0.9064
 6195SOL    HW324547   2.532  -0.070   2.506 -0.2367  0.2909  0.1399
 6195SOL    MW424548   2.571   0.008   2.504  0.0488  0.1412 -0.1349
 6196SOL     OW24549   3.884   0.180   1.551 -0.4045 -0.2885 -0.7145
 6196SOL    HW224550   3.834   0.166   1.631 -0.6690 -1.4942 -1.0714
 6196SOL    HW324551   3.825   0.151   1.481  0.4317 -0.8431 -1.2050
 6196SOL    MW424552   3.869   0.174   1.552 -0.3291 -0.5208 -0.8263
 6197SOL     OW24553   6.329   1.082   4.532  0.5390 -0.4159  0.2845
 6197SOL    HW224554   6.253   1.132   4.500  0.3995 -0.8333 -0.0378
 6197SOL    HW324555   6.402   1.115   4.480  0.6043  0.0696  0.6753
 6197SOL    MW424556   6.329   1.093   4.521  0.5292 -0.4069  0.2935
 6198SOL     OW24557   2.271   0.483   3.966 -0.0502 -0.2944  0.2031
 6198SOL    HW224558   2.359   0.513   3.990 -0.5813  1.8628 -0.3207
 6198SOL    HW324559   2.215   0.558   3.985 -1.8725 -1.7751  0.9478
 6198SOL    MW424560   2.275   0.497   3.972 -0.3607 -0.2052  0.2323
 6199SOL     OW24561   1.959   0.496   5.685  0.7104  0.0238 -0.3058
 6199SOL    HW224562   2.042   0.464   5.651  0.3540 -0.3336 -0.8419
 6199SOL    HW324563   1.893   0.437   5.650  0.3144 -0.3086  0.9299
 6199SOL    MW424564   1.961   0.484   5.676  0.6111 -0.0672 -0.2135
 6200SOL     OW24565   3.630   4.149   0.930  0.1168 -0.3532  0.0333
 6200SOL    HW224566   3.685   4.139   1.008 -0.9180  0.1539  0.8577
 6200SOL    HW324567   3.581   4.230   0.946 -1.0688 -0.9319 -0.5369
 6200SOL    MW424568   3.630   4.158   0.943 -0.1761 -0.3626  0.0668
 6201SOL     OW24569   4.790   0.145   2.985 -0.7477 -0.3373 -0.1969
 6201SOL    HW224570   4.838   0.163   2.904 -1.1195  0.6754 -0.2036
 6201SOL    HW324571   4.700   0.173   2.967 -0.6223  0.8555  0.8838
 6201SOL    MW424572   4.784   0.151   2.972 -0.7802 -0.0463 -0.0552
 6202SOL     OW24573   5.718   2.226   4.729  0.2713 -0.3793 -0.2015
 6202SOL    HW224574   5.740   2.133   4.738  0.1486 -0.4768 -0.8939
 6202SOL    HW324575   5.656   2.230   4.656 -0.0961  0.1906  0.1292
 6202SOL    MW424576   5.712   2.214   4.721  0.2067 -0.3170 -0.2492
 6203SOL     OW24577   1.260   1.305   3.476  0.2424  0.2096 -0.3614
 6203SOL    HW224578   1.220   1.219   3.465  1.0340 -0.0802 -1.0751
 6203SOL    HW324579   1.186   1.365   3.487 -0.3249 -0.5099 -0.1872
 6203SOL    MW424580   1.245   1.302   3.476  0.2720  0.0764 -0.4326
 6204SOL     OW24581   2.370   6.014   2.900 -0.5509  0.2434  0.0976
 6204SOL    HW224582   2.302   6.021   2.966  1.1143 -0.2705  1.9913
 6204SOL    HW324583   2.375   6.101   2.860 -1.1659  0.7638  1.1224
 6204SOL    MW424584   2.362   6.026   2.903 -0.4124  0.2443  0.4827
 6205SOL     OW24585   6.218   2.731   1.424 -0.0538  0.0383  0.0392
 6205SOL    HW224586   6.232   2.639   1.445 -0.6527  0.1344  0.8997
 6205SOL    HW324587   6.214   2.733   1.329  2.1216 -0.4994 -0.1209
 6205SOL    MW424588   6.219   2.719   1.414  0.1542 -0.0200  0.1316
 6206SOL     OW24589   5.185   1.760   4.766 -0.0926 -0.0517 -0.2330
 6206SOL    HW224590   5.188   1.856   4.770 -1.4176  0.0088 -0.5085
 6206SOL    HW324591   5.277   1.735   4.756  0.0779  1.3386 -3.1289
 6206SOL    MW424592   5.198   1.769   4.765 -0.2449  0.1397 -0.6514
 6207SOL     OW24593   0.051   3.061   5.281 -0.1186 -0.6107  0.3294
 6207SOL    HW224594   0.084   3.098   5.364  1.3236 -1.0486 -0.0103
 6207SOL    HW324595   0.007   3.135   5.238  2.9615  0.9311 -0.4803
 6207SOL    MW424596   0.050   3.076   5.287  0.4781 -0.4651  0.1777
 6208SOL     OW24597   0.845   1.455   1.518  0.4164  0.1619 -0.3811
 6208SOL    HW224598   0.818   1.363   1.519 -0.5810  0.3691 -2.3671
 6208SOL    HW324599   0.765   1.504   1.536  0.8535  0.6492  0.2384
 6208SOL    MW424600   0.831   1.449   1.520  0.3425  0.2535 -0.5614
 6209SOL     OW24601   6.354   5.558   1.065 -0.3348 -0.1471  0.1395
 6209SOL    HW224602   6.381   5.475   1.105  0.0830  0.7682  1.8096
 6209SOL    HW324603   6.310   5.605   1.135 -0.3368  1.1664 -0.7193
 6209SOL    MW424604   6.352   5.553   1.079 -0.2800  0.1470  0.2466
 6210SOL     OW24605   0.655   5.893   5.632  0.7607 -0.5996 -0.2684
 6210SOL    HW224606   0.656   5.881   5.727 -0.2591  1.8356  0.1458
 6210SOL    HW324607   0.698   5.816   5.597  1.4016 -1.4453  2.1860
 6210SOL    MW424608   0.661   5.881   5.640  0.7107 -0.3899  0.1101
 6211SOL     OW24609   1.954   0.821   1.023  0.0195 -0.0466 -0.1328
 6211SOL    HW224610   1.899   0.798   1.097 -0.0376 -1.8432 -0.6797
 6211SOL    HW324611   2.013   0.747   1.013 -0.0959  0.0558 -1.9836
 6211SOL    MW424612   1.955   0.808   1.031 -0.0033 -0.2701 -0.4491
 6212SOL     OW24613   3.496   5.260   5.119  0.5401 -0.9095  0.4967
 6212SOL    HW224614   3.467   5.352   5.115 -0.4392 -1.2618 -1.2480
 6212SOL    HW324615   3.529   5.242   5.032  0.0343 -2.4353  0.5986
 6212SOL    MW424616   3.496   5.270   5.107  0.3441 -1.1573  0.2800
 6213SOL     OW24617   1.137   5.359   1.889  0.1432 -0.6794 -0.2441
 6213SOL    HW224618   1.217   5.367   1.941  0.6067 -0.4546 -0.9945
 6213SOL    HW324619   1.067   5.359   1.955  0.2747  4.5664  0.3122
 6213SOL    MW424620   1.138   5.360   1.905  0.2217  0.0424 -0.2697
 6214SOL     OW24621   2.125   2.572   5.761  0.0218  0.5250 -0.1047
 6214SOL    HW224622   2.070   2.630   5.710  0.6059  0.3088 -0.9976
 6214SOL    HW324623   2.206   2.564   5.710  0.1827 -0.5846  0.2945
 6214SOL    MW424624   2.128   2.578   5.748  0.1201  0.3501 -0.1699
 6215SOL     OW24625   4.573   6.185   3.053 -0.3162  0.0637 -0.1249
 6215SOL    HW224626   4.611   6.102   3.023 -0.0236  1.1019 -2.8707
 6215SOL    HW324627   4.627   6.211   3.127 -1.6686 -3.1216  2.2372
 6215SOL    MW424628   4.585   6.177   3.059 -0.4561 -0.2195 -0.1755
 6216SOL     OW24629   2.349   4.674   1.791 -0.1852 -0.0763 -0.6861
 6216SOL    HW224630   2.289   4.734   1.836  0.4382  0.7573 -0.9247
 6216SOL    HW324631   2.293   4.605   1.756 -0.7212 -0.5826  1.0843
 6216SOL    MW424632   2.334   4.673   1.792 -0.1737 -0.0331 -0.4840
 6217SOL     OW24633   2.831   5.685   2.221  0.1566 -0.3138  0.2624
 6217SOL    HW224634   2.906   5.659   2.274 -0.2672  0.4055  1.2516
 6217SOL    HW324635   2.791   5.756   2.270 -1.6741 -1.2376  0.2040
 6217SOL    MW424636   2.835   5.691   2.235 -0.1409 -0.3408  0.3852
 6218SOL     OW24637   4.433   2.733   3.886 -0.1298  0.0603  0.2665
 6218SOL    HW224638   4.398   2.649   3.915 -1.9732  1.4574  2.4620
 6218SOL    HW324639   4.424   2.791   3.962  0.8345  2.3264 -1.2162
 6218SOL    MW424640   4.427   2.730   3.899 -0.2458  0.5436  0.3606
 6219SOL     OW24641   2.623   1.114   2.200 -0.7183 -0.0162 -0.7885
 6219SOL    HW224642   2.581   1.193   2.232  0.3642 -0.0351  0.8147
 6219SOL    HW324643   2.702   1.145   2.155  0.2142 -0.1533  0.6544
 6219SOL    MW424644   2.628   1.128   2.198 -0.4525 -0.0368 -0.3866
 6220SOL     OW24645   6.117   1.234   3.287  0.1986 -0.3687  0.0337
 6220SOL    HW224646   6.187   1.244   3.223 -0.0631  1.1804 -0.0649
 6220SOL    HW324647   6.048   1.292   3.255 -0.1951 -0.0779  1.3592
 6220SOL    MW424648   6.117   1.243   3.274  0.1121 -0.1259  0.1956
 6221SOL     OW24649   1.160   3.110   0.669 -0.0356 -0.0055  0.3174
 6221SOL    HW224650   1.205   3.058   0.603  0.0077  0.6259 -0.1538
 6221SOL    HW324651   1.203   3.086   0.751  2.0886  1.5523 -0.2712
 6221SOL    MW424652   1.172   3.100   0.671  0.2504  0.2833  0.1776
 6222SOL     OW24653   1.736   4.206   0.070  0.0807  0.2273 -0.3528
 6222SOL    HW224654   1.794   4.206  -0.007 -0.2661 -1.0493 -0.6357
 6222SOL    HW324655   1.785   4.255   0.136  0.8226  0.4917 -1.0771
 6222SOL    MW424656   1.750   4.212   0.069  0.1329  0.0937 -0.4857
 6223SOL     OW24657   1.237   4.516   4.455  0.0977 -0.1216  0.0067
 6223SOL    HW224658   1.211   4.461   4.380  0.9249  0.4919 -0.7528
 6223SOL    HW324659   1.177   4.590   4.452  0.8745  0.4968 -0.7849
 6223SOL    MW424660   1.226   4.518   4.445  0.3093  0.0410 -0.1980
 6224SOL     OW24661   3.961   3.270   6.378 -0.1633 -0.0283 -0.3420
 6224SOL    HW224662   4.007   3.189   6.399  2.7093  1.7276  0.7982
 6224SOL    HW324663   3.900   3.283   6.451  0.4959 -0.4191  0.2994
 6224SOL    MW424664   3.959   3.261   6.391  0.3027  0.1518 -0.1069
 6225SOL     OW24665   2.790   4.243   4.418  0.0843  0.8212  0.4373
 6225SOL    HW224666   2.718   4.305   4.423 -0.8844  0.0314 -2.1945
 6225SOL    HW324667   2.825   4.239   4.507 -1.4720  3.1377  1.2224
 6225SOL    MW424668   2.785   4.250   4.430 -0.2488  1.0227  0.1937
 6226SOL     OW24669   1.557   1.129   1.112 -0.5701  0.3255 -0.4758
 6226SOL    HW224670   1.491   1.065   1.141 -0.7683  0.2967 -0.9701
 6226SOL    HW324671   1.513   1.177   1.041  0.4596 -0.7344 -1.8779
 6226SOL    MW424672   1.542   1.127   1.106 -0.4604  0.1819 -0.7260
 6227SOL     OW24673   1.323   3.037   4.784  0.0280 -0.0891  0.1492
 6227SOL    HW224674   1.255   3.051   4.718  1.8935  1.5820 -1.5227
 6227SOL    HW324675   1.349   3.125   4.810  1.9997 -0.6808  0.2846
 6227SOL    MW424676   1.317   3.050   4.779  0.5342  0.0533 -0.0536
 6228SOL     OW24677   3.400   3.010   5.488  0.1357 -0.0517  0.1111
 6228SOL    HW224678   3.395   3.032   5.395 -0.6667 -1.4349 -0.2097
 6228SOL    HW324679   3.337   3.069   5.530 -1.2430 -0.9768 -0.5771
 6228SOL    MW424680   3.391   3.021   5.481 -0.1521 -0.3563 -0.0220
 6229SOL     OW24681   3.679   2.094   0.739 -0.0271  0.2352  0.6051
 6229SOL    HW224682   3.744   2.024   0.733 -0.0894  0.2694 -1.2536
 6229SOL    HW324683   3.726   2.172   0.709 -0.3372  0.7060  1.3328
 6229SOL    MW424684   3.694   2.095   0.734 -0.0762  0.3018  0.4559
 6230SOL     OW24685   2.252   3.633   5.377  0.0098  0.3333  0.9631
 6230SOL    HW224686   2.173   3.676   5.345 -0.5882 -1.5243 -0.1806
 6230SOL    HW324687   2.302   3.613   5.299  2.5222  2.9292  1.7258
 6230SOL    MW424688   2.248   3.636   5.363  0.2624  0.4307  0.9128
 6231SOL     OW24689   1.404   1.788   2.916  0.1658 -0.1758 -0.1488
 6231SOL    HW224690   1.317   1.757   2.942 -0.6532  2.6619  0.9235
 6231SOL    HW324691   1.396   1.809   2.823  0.2363 -1.4471 -0.4601
 6231SOL    MW424692   1.392   1.787   2.907  0.0671  0.0309 -0.0484
 6232SOL     OW24693   2.354   2.903   5.620 -0.5172  0.2434 -0.0768
 6232SOL    HW224694   2.289   2.884   5.553 -2.1137  1.2624  1.1129
 6232SOL    HW324695   2.304   2.909   5.701  0.6861  3.1962  0.5784
 6232SOL    MW424696   2.339   2.901   5.622 -0.5691  0.7674  0.1666
 6233SOL     OW24697   5.929   3.559   4.675  0.3337 -0.8552 -0.5929
 6233SOL    HW224698   5.897   3.516   4.596 -2.0975 -0.3543  0.0468
 6233SOL    HW324699   5.899   3.649   4.667 -0.4420 -0.9290  1.1224
 6233SOL    MW424700   5.921   3.565   4.663 -0.0894 -0.7989 -0.2822
 6234SOL     OW24701   5.397   6.320   4.180  0.5545 -0.2540  0.5828
 6234SOL    HW224702   5.358   6.371   4.109  0.0571 -0.9917  0.3178
 6234SOL    HW324703   5.460   6.380   4.221 -0.0190  0.5722  0.2824
 6234SOL    MW424704   5.400   6.335   4.176  0.4132 -0.2423  0.5082
 6235SOL     OW24705   2.262   1.119   5.630  0.6356 -0.1602  0.0448
 6235SOL    HW224706   2.322   1.049   5.604  0.9961 -0.0832  0.6480
 6235SOL    HW324707   2.274   1.127   5.725  0.5882  0.6967 -0.0103
 6235SOL    MW424708   2.272   1.111   5.639  0.6769 -0.0370  0.1171
 6236SOL     OW24709   2.203   0.120   3.836 -0.3329 -0.0646  0.2041
 6236SOL    HW224710   2.282   0.143   3.886 -0.1854 -2.6144  1.2895
 6236SOL    HW324711   2.137   0.102   3.903 -1.2765  0.1173 -0.6562
 6236SOL    MW424712   2.205   0.121   3.851 -0.4379 -0.3770  0.2338
 6237SOL     OW24713   3.022   1.450   1.721 -0.1579 -0.3342  0.0245
 6237SOL    HW224714   3.064   1.382   1.774  1.9883  0.8959  0.0082
 6237SOL    HW324715   2.999   1.518   1.784 -1.5299 -0.6557 -0.0828
 6237SOL    MW424716   3.024   1.450   1.736 -0.0558 -0.2143  0.0082
 6238SOL     OW24717   4.223   0.712   0.885  0.2854 -0.6342  0.0435
 6238SOL    HW224718   4.144   0.684   0.839  0.9068 -1.9788 -0.2642
 6238SOL    HW324719   4.293   0.662   0.843  1.6062  1.9338 -1.0120
 6238SOL    MW424720   4.222   0.702   0.873  0.5417 -0.4728 -0.1364
 6239SOL     OW24721   4.640   3.224   2.803 -0.3006  0.3956 -0.5738
 6239SOL    HW224722   4.566   3.284   2.795  1.0036  2.3949  0.9954
 6239SOL    HW324723   4.668   3.207   2.713 -0.6558  2.3015 -1.0861
 6239SOL    MW424724   4.634   3.230   2.790 -0.1754  0.9108 -0.4343
 6240SOL     OW24725   1.798   1.828   4.780  0.9085  0.3018 -0.5928
 6240SOL    HW224726   1.855   1.892   4.737  1.1577 -0.0557 -0.7997
 6240SOL    HW324727   1.746   1.880   4.842  0.4507  0.8427 -1.4077
 6240SOL    MW424728   1.799   1.843   4.783  0.8810  0.3260 -0.7276
 6241SOL     OW24729   4.834   0.363   0.744 -0.3284  0.1825 -0.0303
 6241SOL    HW224730   4.750   0.339   0.706 -0.7876  0.7234  0.6080
 6241SOL    HW324731   4.896   0.360   0.671 -1.5093  2.9868 -1.2902
 6241SOL    MW424732   4.831   0.360   0.730 -0.5448  0.6239 -0.1123
 6242SOL     OW24733   4.959   3.562   4.126 -0.7293  0.1841  0.2054
 6242SOL    HW224734   5.033   3.537   4.180 -0.7251  0.3555  0.2798
 6242SOL    HW324735   4.941   3.653   4.150 -0.1219  0.5779 -0.7522
 6242SOL    MW424736   4.967   3.571   4.136 -0.6486  0.2587  0.0889
 6243SOL     OW24737   1.546   4.693   3.031 -0.1071 -0.1960 -0.5636
 6243SOL    HW224738   1.530   4.727   3.118 -0.5983  0.9608 -1.0871
 6243SOL    HW324739   1.641   4.684   3.025 -0.1137 -0.9130  0.3094
 6243SOL    MW424740   1.557   4.696   3.041 -0.1728 -0.1379 -0.5175
 6244SOL     OW24741   4.114   2.964   4.371  0.7493 -0.0254  0.6135
 6244SOL    HW224742   4.178   2.897   4.394  0.1280 -0.5418  0.8667
 6244SOL    HW324743   4.122   3.029   4.441  1.9763  0.6238 -0.1040
 6244SOL    MW424744   4.124   2.964   4.383  0.8292 -0.0078  0.5522
 6245SOL     OW24745   5.316   4.234   1.623  0.0938  0.4124  0.1436
 6245SOL    HW224746   5.408   4.245   1.646  0.4511  0.7810 -1.3683
 6245SOL    HW324747   5.315   4.161   1.560 -0.8762 -0.7416  1.4274
 6245SOL    MW424748   5.328   4.226   1.617  0.0130  0.3088  0.1135
 6246SOL     OW24749   5.621   0.472   0.019 -0.7945  0.1709 -0.2559
 6246SOL    HW224750   5.584   0.506   0.101  0.7785  0.5559  0.3339
 6246SOL    HW324751   5.654   0.550  -0.026 -2.0202  0.0213 -1.5005
 6246SOL    MW424752   5.621   0.487   0.024 -0.7487  0.2019 -0.3423
 6247SOL     OW24753   0.054   4.127   6.312  0.7666  0.2124 -0.1114
 6247SOL    HW224754  -0.002   4.175   6.373  0.1608 -1.6704  0.8791
 6247SOL    HW324755   0.059   4.183   6.235 -0.7217  1.3984  0.6129
 6247SOL    MW424756   0.048   4.141   6.310  0.4903  0.1205  0.1148
 6248SOL     OW24757   2.231   4.422   0.048 -0.2205  0.9920 -0.0173
 6248SOL    HW224758   2.324   4.425   0.070 -0.0771  0.1580 -0.4641
 6248SOL    HW324759   2.199   4.341   0.087 -0.5440  0.7948 -0.6760
 6248SOL    MW424760   2.239   4.412   0.056 -0.2442  0.8560 -0.1632
 6249SOL     OW24761   1.156   2.016   2.320  0.8511 -0.7497  0.1190
 6249SOL    HW224762   1.095   1.942   2.322  0.5930 -0.5309  0.3958
 6249SOL    HW324763   1.242   1.977   2.338  0.8640 -1.1229 -0.6898
 6249SOL    MW424764   1.159   2.001   2.323  0.8187 -0.7701  0.0488
 6250SOL     OW24765   1.029   0.436   0.229  0.1075  0.1130  0.5232
 6250SOL    HW224766   1.112   0.479   0.209  0.5031 -0.5170  0.7868
 6250SOL    HW324767   0.962   0.503   0.210  0.5946  0.2432 -0.8064
 6250SOL    MW424768   1.031   0.451   0.224  0.2240  0.0471  0.3825
 6251SOL     OW24769   6.056   3.989   2.715  0.5740 -0.1521  0.0199
 6251SOL    HW224770   6.048   3.951   2.802 -0.3677  0.8417  0.3834
 6251SOL    HW324771   6.061   3.913   2.656 -1.1458 -0.8810  0.7384
 6251SOL    MW424772   6.055   3.974   2.719  0.2228 -0.1171  0.1627
 6252SOL     OW24773   6.174   3.326   2.372 -0.1968 -0.1013  0.3369
 6252SOL    HW224774   6.191   3.400   2.314  1.2301 -0.6621 -0.0129
 6252SOL    HW324775   6.198   3.357   2.459  0.3318 -0.1113  0.2006
 6252SOL    MW424776   6.180   3.340   2.376  0.0612 -0.1766  0.2728
 6253SOL     OW24777   0.505   2.410   3.687  0.2822  0.1956  0.1272
 6253SOL    HW224778   0.462   2.361   3.616 -1.3774  1.0615  0.4866
 6253SOL    HW324779   0.532   2.343   3.750 -0.6915 -0.3724 -0.0495
 6253SOL    MW424780   0.503   2.395   3.686 -0.0653  0.2349  0.1513
 6254SOL     OW24781   1.349   4.684   0.018  0.1584  0.0205  1.1928
 6254SOL    HW224782   1.266   4.720  -0.014 -0.0348 -0.0511  1.6082
 6254SOL    HW324783   1.371   4.616  -0.046  0.2932  0.5559  0.6563
 6254SOL    MW424784   1.341   4.680   0.005  0.1507  0.0817  1.1768
 6255SOL     OW24785   3.113   6.013   6.346 -0.0027  1.1077  0.2733
 6255SOL    HW224786   3.087   5.921   6.336  1.0223  0.5929  1.8816
 6255SOL    HW324787   3.078   6.056   6.268 -1.7304 -0.3604  0.1599
 6255SOL    MW424788   3.105   6.006   6.334 -0.0954  0.8461  0.4705
 6256SOL     OW24789   5.445   4.052   4.817 -0.5196 -0.0020 -0.3863
 6256SOL    HW224790   5.456   4.098   4.900 -0.8407 -1.0064  0.2288
 6256SOL    HW324791   5.530   4.062   4.773 -0.3380  0.5140  0.0596
 6256SOL    MW424792   5.458   4.060   4.822 -0.5380 -0.0664 -0.2463
 6257SOL     OW24793   0.189   6.328   4.933  0.0311 -0.3626 -0.1819
 6257SOL    HW224794   0.164   6.315   5.024 -0.4456  0.4130 -0.1962
 6257SOL    HW324795   0.247   6.404   4.934  0.1055 -0.4100 -0.5182
 6257SOL    MW424796   0.193   6.336   4.945 -0.0220 -0.2665 -0.2281
 6258SOL     OW24797   5.922   4.538   3.391 -0.2967 -0.4140 -0.0380
 6258SOL    HW224798   5.967   4.454   3.392 -1.5955 -1.1344  1.7296
 6258SOL    HW324799   5.834   4.519   3.422 -0.5979  1.6179  0.4854
 6258SOL    MW424800   5.917   4.524   3.395 -0.5078 -0.2410  0.2643
 6259SOL     OW24801   5.342   1.131   1.450 -0.1115  0.2910  0.3519
 6259SOL    HW224802   5.295   1.163   1.373  0.9425 -1.3473 -1.0356
 6259SOL    HW324803   5.292   1.054   1.478 -0.2764  0.6587  1.1008
 6259SOL    MW424804   5.329   1.125   1.444  0.0058  0.1233  0.2676
 6260SOL     OW24805   5.232   4.832   0.913  0.0591 -0.2373  0.3625
 6260SOL    HW224806   5.195   4.860   0.997 -0.1897  0.9082 -0.1152
 6260SOL    HW324807   5.211   4.903   0.852 -0.2225 -1.2840 -0.8079
 6260SOL    MW424808   5.224   4.845   0.916 -0.0109 -0.2243  0.1450
 6261SOL     OW24809   3.087   4.733   1.970 -0.2012 -0.3908 -0.3259
 6261SOL    HW224810   3.018   4.796   1.991 -0.5915 -0.7444 -0.5233
 6261SOL    HW324811   3.125   4.709   2.054  0.4611  0.6760 -0.3087
 6261SOL    MW424812   3.082   4.738   1.984 -0.1653 -0.2967 -0.3496
 6262SOL     OW24813   4.027   3.841   3.101 -0.2143 -0.2997  0.0103
 6262SOL    HW224814   4.062   3.902   3.166 -4.2512  4.1028 -1.2878
 6262SOL    HW324815   3.986   3.771   3.152 -0.1498  1.0787  2.0486
 6262SOL    MW424816   4.026   3.840   3.116 -0.7384  0.4630  0.1080
 6263SOL     OW24817   5.955   5.065   5.829 -0.2075  0.6927 -0.1693
 6263SOL    HW224818   6.013   5.132   5.864  1.9768 -0.7594 -0.8075
 6263SOL    HW324819   5.943   5.003   5.901 -0.1653  0.5006 -0.3242
 6263SOL    MW424820   5.961   5.065   5.843  0.0862  0.4758 -0.2739
 6264SOL     OW24821   4.610   0.106   5.869  0.0103  0.0390 -0.2185
 6264SOL    HW224822   4.569   0.183   5.829 -0.6901  0.2171  0.8167
 6264SOL    HW324823   4.674   0.077   5.804 -1.7901 -0.2842 -1.9296
 6264SOL    MW424824   4.613   0.112   5.855 -0.3197  0.0199 -0.3077
 6265SOL     OW24825   0.652   0.927   4.312  0.4263 -0.0623  0.1004
 6265SOL    HW224826   0.585   0.866   4.281 -0.6186 -0.3504  2.6604
 6265SOL    HW324827   0.734   0.879   4.302 -0.3394 -1.9018  1.8165
 6265SOL    MW424828   0.654   0.913   4.306  0.1874 -0.3430  0.6646
 6266SOL     OW24829   4.737   3.841   3.228  0.1300  0.2788  0.4264
 6266SOL    HW224830   4.714   3.866   3.318 -0.0723  0.1154  0.4218
 6266SOL    HW324831   4.722   3.747   3.225 -0.1536  0.3313  0.1341
 6266SOL    MW424832   4.732   3.832   3.240  0.0659  0.2642  0.3872
 6267SOL     OW24833   5.458   4.366   0.535  0.5036 -0.2539 -0.1015
 6267SOL    HW224834   5.410   4.311   0.597  0.5579 -0.0153  0.1571
 6267SOL    HW324835   5.389   4.406   0.482  0.4044  0.1539  0.3257
 6267SOL    MW424836   5.442   4.364   0.536  0.4977 -0.1686 -0.0110
 6268SOL     OW24837   4.334   4.268   1.387 -0.4067  0.1121  0.0990
 6268SOL    HW224838   4.325   4.233   1.476  0.5102 -1.4462 -0.3858
 6268SOL    HW324839   4.422   4.306   1.386 -0.2604 -0.2444 -0.2758
 6268SOL    MW424840   4.344   4.269   1.399 -0.2664 -0.1405 -0.0144
 6269SOL     OW24841   4.467   2.645   5.252 -0.6885  0.0093 -0.1000
 6269SOL    HW224842   4.507   2.732   5.257  0.3760 -0.3352 -1.7568
 6269SOL    HW324843   4.479   2.607   5.338  1.4005  0.4331 -0.1654
 6269SOL    MW424844   4.474   2.652   5.264 -0.2724  0.0198 -0.3272
 6270SOL     OW24845   2.812   3.959   5.735 -0.4187  0.2546  0.0260
 6270SOL    HW224846   2.882   3.916   5.784 -0.1607  0.9116  0.2552
 6270SOL    HW324847   2.818   4.051   5.762  0.0648  0.7429 -1.6491
 6270SOL    MW424848   2.822   3.965   5.745 -0.3209  0.4057 -0.1647
 6271SOL     OW24849   4.430   1.502   2.423 -0.6134 -0.1292 -0.3263
 6271SOL    HW224850   4.346   1.456   2.426 -0.8608  0.1677 -1.8647
 6271SOL    HW324851   4.409   1.591   2.452 -1.1286  0.3121 -1.9583
 6271SOL    MW424852   4.416   1.508   2.427 -0.7140 -0.0318 -0.7446
 6272SOL     OW24853   0.698   0.656   2.586 -0.0930 -0.2778  0.2140
 6272SOL    HW224854   0.732   0.567   2.600 -0.0804 -0.1347  1.1042
 6272SOL    HW324855   0.644   0.674   2.663 -0.5949  0.2572 -0.2531
 6272SOL    MW424856   0.695   0.646   2.598 -0.1576 -0.1883  0.2698
 6273SOL     OW24857  -0.006   0.419   1.161 -0.1024  0.0992 -0.1440
 6273SOL    HW224858  -0.047   0.356   1.220  0.6550 -0.1904  0.0788
 6273SOL    HW324859  -0.001   0.500   1.212  2.4634 -0.6700  1.0253
 6273SOL    MW424860  -0.011   0.421   1.176  0.3360 -0.0405  0.0397
 6274SOL     OW24861   3.280   1.573   4.169  0.1587  0.0600 -0.7786
 6274SOL    HW224862   3.293   1.480   4.149 -0.0466 -0.6192  1.8811
 6274SOL    HW324863   3.200   1.575   4.221  0.5640  1.6346 -0.1806
 6274SOL    MW424864   3.271   1.561   4.173  0.1851  0.1781 -0.3488
 6275SOL     OW24865   0.679   0.030   2.609 -0.3450 -0.0671  0.3631
 6275SOL    HW224866   0.647  -0.046   2.562  0.4791 -1.2507  1.6349
 6275SOL    HW324867   0.775   0.024   2.603 -0.2680  1.1378  0.0838
 6275SOL    MW424868   0.688   0.019   2.602 -0.2261 -0.0643  0.4941
 6276SOL     OW24869   2.222   5.547   5.180  0.6252 -0.3526 -0.0446
 6276SOL    HW224870   2.248   5.470   5.129 -1.9394 -1.0623 -0.4221
 6276SOL    HW324871   2.213   5.617   5.115  3.3138  0.4809  0.3429
 6276SOL    MW424872   2.224   5.546   5.164  0.6416 -0.3362 -0.0433
 6277SOL     OW24873   2.357   0.316   4.408  0.3599 -0.0912 -0.7741
 6277SOL    HW224874   2.420   0.379   4.373 -0.3424  0.8941 -0.3154
 6277SOL    HW324875   2.332   0.263   4.332 -1.1961  2.0531 -1.8871
 6277SOL    MW424876   2.362   0.317   4.393  0.0619  0.3217 -0.8604
 6278SOL     OW24877   2.729   1.276   1.812 -0.0524 -0.1991  0.0014
 6278SOL    HW224878   2.687   1.357   1.841  0.9215  0.4302 -0.2928
 6278SOL    HW324879   2.814   1.304   1.778  0.7434 -1.4706  0.8672
 6278SOL    MW424880   2.735   1.290   1.811  0.1811 -0.2838  0.0768
 6279SOL     OW24881   0.550   4.913   1.030  0.3209 -0.4914  0.3455
 6279SOL    HW224882   0.557   4.871   0.945  0.0433  0.5108 -0.1921
 6279SOL    HW324883   0.614   4.985   1.027 -0.0502 -0.1328  0.7765
 6279SOL    MW424884   0.560   4.917   1.018  0.2353 -0.3119  0.3315
 6280SOL     OW24885   5.939   6.428   2.596 -0.6342  0.0588  0.2166
 6280SOL    HW224886   5.942   6.341   2.636  0.9303  0.0778  0.2127
 6280SOL    HW324887   5.991   6.419   2.516 -1.9878  0.5535 -0.7660
 6280SOL    MW424888   5.946   6.416   2.591 -0.6064  0.1266  0.0865
 6281SOL     OW24889   2.892   0.995   5.664  0.2877 -0.3305  0.2772
 6281SOL    HW224890   2.872   1.071   5.609 -0.0071 -0.2673  0.4689
 6281SOL    HW324891   2.826   0.930   5.640  0.7502 -0.6526 -0.1300
 6281SOL    MW424892   2.881   0.997   5.654  0.3099 -0.3647  0.2488
 6282SOL     OW24893   0.295   5.475   3.871  0.8999 -0.1806 -0.2088
 6282SOL    HW224894   0.314   5.388   3.837 -0.4455  0.1871 -2.0423
 6282SOL    HW324895   0.214   5.463   3.922  0.5349  0.0488 -0.7314
 6282SOL    MW424896   0.287   5.462   3.873  0.6742 -0.1018 -0.5197
 6283SOL     OW24897   0.725   4.118   1.506 -0.3494  0.0050  0.6227
 6283SOL    HW224898   0.660   4.109   1.437 -0.1420  0.1635  0.4042
 6283SOL    HW324899   0.791   4.051   1.486  0.6141  1.1834 -0.3545
 6283SOL    MW424900   0.725   4.108   1.494 -0.1949  0.1814  0.4649
 6284SOL     OW24901   1.378   6.361   1.796 -0.4742 -0.3454  0.4268
 6284SOL    HW224902   1.313   6.431   1.807 -0.1210  0.5357 -2.2035
 6284SOL    HW324903   1.462   6.407   1.795 -0.2065 -0.8027 -0.8502
 6284SOL    MW424904   1.380   6.377   1.797 -0.3923 -0.2895 -0.0887
 6285SOL     OW24905   0.008   2.312   3.649  0.3584  0.4000 -0.1252
 6285SOL    HW224906  -0.017   2.372   3.719  0.3651 -0.1797  0.3855
 6285SOL    HW324907   0.015   2.367   3.571 -2.8974  0.5869 -0.4381
 6285SOL    MW424908   0.006   2.327   3.648 -0.0703  0.3482 -0.0991
 6286SOL     OW24909   0.934   2.009   4.240  0.6258  0.4418  0.3575
 6286SOL    HW224910   1.005   1.984   4.298  1.6029  1.2263 -0.4684
 6286SOL    HW324911   0.964   1.984   4.153 -0.0266  0.9708 -0.0328
 6286SOL    MW424912   0.947   2.002   4.236  0.6686  0.6151  0.1970
 6287SOL     OW24913   1.891   2.669   1.325 -0.2079  0.1793 -0.0137
 6287SOL    HW224914   1.984   2.666   1.304  0.1410  1.2822  1.2708
 6287SOL    HW324915   1.879   2.600   1.391 -1.1556 -2.7542 -2.9645
 6287SOL    MW424916   1.902   2.660   1.331 -0.2869 -0.0623 -0.2336
 6288SOL     OW24917   2.689   5.381   4.227  0.7148  0.0025 -0.0747
 6288SOL    HW224918   2.721   5.434   4.153  1.3555 -0.5847 -0.2346
 6288SOL    HW324919   2.604   5.419   4.249  0.9855  0.8485 -0.4359
 6288SOL    MW424920   2.682   5.393   4.220  0.8351  0.0366 -0.1434
 6289SOL     OW24921   0.188   2.041   5.062 -0.2647 -0.8849  0.1974
 6289SOL    HW224922   0.271   2.071   5.025 -0.8124  0.3396 -0.0690
 6289SOL    HW324923   0.152   2.117   5.106 -3.0147 -0.1951 -2.8538
 6289SOL    MW424924   0.194   2.055   5.063 -0.6998 -0.6324 -0.2403
 6290SOL     OW24925   5.586   3.919   6.039  0.0514 -0.6351  0.3586
 6290SOL    HW224926   5.681   3.924   6.030  0.0267 -1.4812 -0.6874
 6290SOL    HW324927   5.561   3.850   5.977 -1.4475  0.9544 -0.8997
 6290SOL    MW424928   5.595   3.910   6.029 -0.1497 -0.5370  0.0546
 6291SOL     OW24929   3.127   6.332   4.895  0.4768 -0.0104 -0.1107
 6291SOL    HW224930   3.198   6.385   4.931  0.5981 -0.9037  1.0554
 6291SOL    HW324931   3.055   6.343   4.957 -0.0189 -0.0185 -0.6706
 6291SOL    MW424932   3.127   6.340   4.908  0.4274 -0.1293 -0.0307
 6292SOL     OW24933   2.754   2.650   6.101 -0.2442 -0.0832  0.5699
 6292SOL    HW224934   2.674   2.701   6.107  0.1316  0.5296  0.4329
 6292SOL    HW324935   2.822   2.708   6.135  0.1552 -0.5638  0.5978
 6292SOL    MW424936   2.753   2.664   6.107 -0.1419 -0.0658  0.5555
 6293SOL     OW24937   3.658   1.029   2.517 -0.7404 -0.0014  0.8638
 6293SOL    HW224938   3.726   0.964   2.531 -0.9272 -1.0578 -2.2022
 6293SOL    HW324939   3.692   1.085   2.447 -1.9893  1.0392  1.0417
 6293SOL    MW424940   3.671   1.028   2.509 -0.9298 -0.0035  0.4827
 6294SOL     OW24941   0.736   4.907   2.419  0.3430 -0.3173 -0.0328
 6294SOL    HW224942   0.786   4.828   2.439 -0.1826 -0.5956  0.1935
 6294SOL    HW324943   0.778   4.975   2.473 -0.0543 -0.7306  0.8188
 6294SOL    MW424944   0.748   4.906   2.429  0.2213 -0.4085  0.1094
 6295SOL     OW24945   3.139   5.965   3.652  0.2359 -0.1122 -0.2611
 6295SOL    HW224946   3.193   5.998   3.724  1.0839 -2.3329  0.2201
 6295SOL    HW324947   3.049   5.972   3.685  0.3231  2.0489 -0.3879
 6295SOL    MW424948   3.134   5.970   3.666  0.3593 -0.1200 -0.2143
 6296SOL     OW24949   5.156   4.221   2.985  0.2416  0.4177 -1.3697
 6296SOL    HW224950   5.089   4.153   2.974 -0.4654  0.9879 -0.6878
 6296SOL    HW324951   5.230   4.175   3.024 -0.2020  0.0084 -0.9945
 6296SOL    MW424952   5.157   4.206   2.989  0.0898  0.4389 -1.2302
 6297SOL     OW24953   0.249   0.967   3.848  0.6593 -0.5349 -0.4242
 6297SOL    HW224954   0.304   1.019   3.789  1.6912 -0.1157  0.8591
 6297SOL    HW324955   0.311   0.912   3.896  0.1446  0.7933  1.9037
 6297SOL    MW424956   0.265   0.967   3.847  0.7276 -0.3044  0.0522
 6298SOL     OW24957   0.118   1.814   5.203  0.7711 -0.0754 -0.2992
 6298SOL    HW224958   0.118   1.902   5.163 -0.5126  0.5267  0.9332
 6298SOL    HW324959   0.026   1.788   5.202  0.8377 -0.4371  1.3966
 6298SOL    MW424960   0.106   1.822   5.197  0.6105 -0.0437  0.0872
 6299SOL     OW24961   0.397   2.239   2.769  0.1811 -0.2300  0.4140
 6299SOL    HW224962   0.423   2.240   2.677 -2.3956 -0.7997 -0.4102
 6299SOL    HW324963   0.383   2.146   2.789 -0.5522 -0.0070  0.9679
 6299SOL    MW424964   0.399   2.227   2.760 -0.2556 -0.2758  0.3783
 6300SOL     OW24965   4.124   4.330   1.784  0.1898  0.3332  0.2050
 6300SOL    HW224966   4.068   4.254   1.771  1.1057 -0.2014 -0.8180
 6300SOL    HW324967   4.166   4.316   1.869  1.2793 -0.9596 -0.5031
 6300SOL    MW424968   4.122   4.318   1.793  0.4544  0.0921 -0.0234
 6301SOL     OW24969   1.734   1.694   6.426  0.4691  0.0049 -0.1382
 6301SOL    HW224970   1.690   1.618   6.388  3.1594 -1.4965 -0.5018
 6301SOL    HW324971   1.729   1.762   6.359 -0.1916 -0.5281 -0.6374
 6301SOL    MW424972   1.727   1.693   6.412  0.7369 -0.2635 -0.2520
 6302SOL     OW24973   3.644   2.521   5.952 -0.3927  0.5215 -0.0526
 6302SOL    HW224974   3.606   2.438   5.981  1.1160 -0.0030  0.5041
 6302SOL    HW324975   3.622   2.583   6.021 -0.6343  0.3245  0.0483
 6302SOL    MW424976   3.636   2.518   5.965 -0.2255  0.4263  0.0341
 6303SOL     OW24977   6.340   1.524   2.183  0.8927 -0.0383  1.2868
 6303SOL    HW224978   6.404   1.563   2.124  0.5799 -0.7588  0.4489
 6303SOL    HW324979   6.350   1.430   2.169 -1.3966 -0.1563 -0.0452
 6303SOL    MW424980   6.350   1.517   2.173  0.5494 -0.1489  1.0005
 6304SOL     OW24981   0.694   0.599   4.970 -0.0469  1.3782 -0.1294
 6304SOL    HW224982   0.651   0.684   4.967 -1.7163  0.5468 -1.0422
 6304SOL    HW324983   0.761   0.603   4.902  0.2461  2.1253  0.1913
 6304SOL    MW424984   0.697   0.611   4.961 -0.2285  1.3671 -0.2076
 6305SOL     OW24985   6.072   1.091   5.153 -0.1268  0.0720 -0.3793
 6305SOL    HW224986   6.155   1.136   5.169  0.1421 -0.9790  1.4571
 6305SOL    HW324987   6.067   1.083   5.058  2.3297 -0.6407 -0.5215
 6305SOL    MW424988   6.082   1.096   5.143  0.2328 -0.1607 -0.1557
 6306SOL     OW24989   4.866   5.987   4.116 -0.4127 -0.2359  0.2359
 6306SOL    HW224990   4.792   5.957   4.169 -0.1512  0.1766  0.8515
 6306SOL    HW324991   4.930   6.019   4.180  0.6885 -1.4236 -0.2396
 6306SOL    MW424992   4.864   5.987   4.132 -0.2329 -0.3381  0.2544
 6307SOL     OW24993   3.508   1.424   1.355 -0.0146  0.0526  0.3653
 6307SOL    HW224994   3.490   1.459   1.268  0.6693  1.1516  0.6470
 6307SOL    HW324995   3.425   1.428   1.401  0.1222  1.7378  0.5251
 6307SOL    MW424996   3.495   1.429   1.350  0.0937  0.4199  0.4236
 6308SOL     OW24997   4.965   4.394   4.733  0.3740  0.1796  0.2292
 6308SOL    HW224998   4.911   4.340   4.674  1.9763  0.6502 -1.8111
 6308SOL    HW324999   4.995   4.333   4.800  1.0992 -1.2268 -1.2934
 6308SOL    MW425000   4.962   4.379   4.734  0.6811  0.0561 -0.2409
 6309SOL     OW25001   5.777   3.052   6.306 -0.4160 -0.2546  0.2982
 6309SOL    HW225002   5.798   3.117   6.239 -1.2473 -0.2720  0.0107
 6309SOL    HW325003   5.686   3.028   6.289 -0.9634  0.4483  2.0138
 6309SOL    MW425004   5.768   3.057   6.295 -0.5979 -0.1642  0.4866
 6310SOL     OW25005   2.730   4.522   1.030  0.2685 -0.1558 -0.1779
 6310SOL    HW225006   2.655   4.480   1.072 -0.1159 -0.4137 -1.0990
 6310SOL    HW325007   2.735   4.609   1.070  0.1798 -0.5410  0.6955
 6310SOL    MW425008   2.721   4.528   1.041  0.2061 -0.2407 -0.1842
 6311SOL     OW25009   1.292   3.191   2.429 -0.0874  0.3593 -0.2572
 6311SOL    HW225010   1.337   3.268   2.465 -0.0979 -0.2677  1.1867
 6311SOL    HW325011   1.204   3.222   2.409 -0.3684  0.5385  1.1508
 6311SOL    MW425012   1.286   3.205   2.431 -0.1259  0.3003  0.1191
 6312SOL     OW25013   4.017   3.687   0.755  0.7751 -0.1996  0.3365
 6312SOL    HW225014   3.947   3.729   0.806  1.4051  1.4943 -0.1204
 6312SOL    HW325015   4.059   3.628   0.817  0.1982  0.2569  1.1832
 6312SOL    MW425016   4.013   3.685   0.770  0.7821  0.0841  0.3879
 6313SOL     OW25017   4.214   1.221   5.016  0.5869 -0.8784 -0.4148
 6313SOL    HW225018   4.147   1.232   4.948 -0.5775 -1.3065  0.6113
 6313SOL    HW325019   4.226   1.310   5.051  0.1950 -0.8693 -0.2929
 6313SOL    MW425020   4.206   1.234   5.012  0.3816 -0.9337 -0.2634
 6314SOL     OW25021  -0.004   5.370   5.961  0.3522 -0.0395  0.6551
 6314SOL    HW225022   0.002   5.456   5.920 -0.6539  0.2177  1.0391
 6314SOL    HW325023   0.085   5.352   5.991  0.6731  0.6449  0.1334
 6314SOL    MW425024   0.009   5.379   5.959  0.2618  0.0847  0.6369
 6315SOL     OW25025   0.504   1.426   5.850 -0.1105 -0.0366 -0.6030
 6315SOL    HW225026   0.498   1.513   5.810  1.2625  0.4319  0.1438
 6315SOL    HW325027   0.433   1.424   5.914 -0.3226  0.4325 -0.8217
 6315SOL    MW425028   0.494   1.437   5.853  0.0427  0.0871 -0.5333
 6316SOL     OW25029   2.061   1.261   3.154  0.1761  0.1081 -0.4021
 6316SOL    HW225030   2.129   1.207   3.195  0.6446  2.0400  1.5356
 6316SOL    HW325031   1.983   1.246   3.208 -0.3087 -0.2839 -1.1919
 6316SOL    MW425032   2.060   1.252   3.166  0.1739  0.3113 -0.2507
 6317SOL     OW25033   3.388   2.046   1.033  0.0103 -0.3268 -0.2694
 6317SOL    HW225034   3.362   2.036   0.941  0.5587  1.5020 -0.6620
 6317SOL    HW325035   3.356   2.133   1.058  0.3480 -0.5691  1.1100
 6317SOL    MW425036   3.380   2.056   1.024  0.1272 -0.1175 -0.1392
 6318SOL     OW25037   0.205   0.234   0.513 -0.5212  0.2543  0.5146
 6318SOL    HW225038   0.136   0.190   0.464 -0.7066  1.6721 -0.5781
 6318SOL    HW325039   0.213   0.184   0.594 -2.1226 -0.5414  0.2228
 6318SOL    MW425040   0.197   0.222   0.517 -0.7570  0.3364  0.3319
 6319SOL     OW25041   1.892   3.164   3.454  0.3584 -0.2018 -0.6469
 6319SOL    HW225042   1.981   3.133   3.439  0.7639 -0.7371  2.3332
 6319SOL    HW325043   1.836   3.101   3.408  1.4615 -0.2268 -2.0009
 6319SOL    MW425044   1.896   3.152   3.446  0.5574 -0.2757 -0.4324
 6320SOL     OW25045   6.076   0.797   1.625 -0.1628 -0.1540 -0.0578
 6320SOL    HW225046   6.038   0.737   1.689 -0.6981 -0.7643 -0.9271
 6320SOL    HW325047   6.028   0.879   1.639  0.4094  0.0299  0.9755
 6320SOL    MW425048   6.065   0.800   1.636 -0.1579 -0.2102 -0.0362
 6321SOL     OW25049   4.485   4.985   0.385 -0.0207 -0.4144  0.3697
 6321SOL    HW225050   4.499   4.969   0.291  1.3723 -1.9527  0.7924
 6321SOL    HW325051   4.502   5.078   0.396 -0.7342 -0.0965 -0.9851
 6321SOL    MW425052   4.489   4.995   0.374  0.0689 -0.5754  0.2467
 6322SOL     OW25053   5.650   4.198   5.496  0.0601  0.0807 -0.2256
 6322SOL    HW225054   5.603   4.115   5.491  0.1757 -0.0050  0.0648
 6322SOL    HW325055   5.582   4.265   5.489  0.0985 -0.0068 -1.9088
 6322SOL    MW425056   5.635   4.196   5.494  0.0804  0.0579 -0.4094
 6323SOL     OW25057   3.668   6.331   3.262  0.4261 -0.2352  0.4209
 6323SOL    HW225058   3.725   6.367   3.195  1.0722 -0.9643  0.5617
 6323SOL    HW325059   3.669   6.396   3.333  0.8504 -0.1107  0.2995
 6323SOL    MW425060   3.676   6.344   3.263  0.5673 -0.3150  0.4235
 6324SOL     OW25061   1.108   2.855   2.085  0.2861 -0.1452  0.0683
 6324SOL    HW225062   1.095   2.780   2.027 -0.4192 -0.6974  0.9091
 6324SOL    HW325063   1.185   2.900   2.050  1.3169 -1.7943  0.0904
 6324SOL    MW425064   1.116   2.851   2.073  0.3290 -0.4357  0.1822
 6325SOL     OW25065   1.215   3.271   3.955  0.5974 -0.0270 -0.1891
 6325SOL    HW225066   1.207   3.221   3.873  0.5624 -0.5565  0.1297
 6325SOL    HW325067   1.140   3.242   4.007 -1.4906  2.9099 -1.2994
 6325SOL    MW425068   1.204   3.261   3.951  0.3173  0.2906 -0.2935
 6326SOL     OW25069   3.515   3.042   5.823  0.4818  0.0688  0.0023
 6326SOL    HW225070   3.552   3.019   5.908  1.4810  1.8237  0.0770
 6326SOL    HW325071   3.591   3.062   5.768 -0.2218  0.6605 -0.7856
 6326SOL    MW425072   3.529   3.042   5.827  0.5208  0.3784 -0.0918
 6327SOL     OW25073   3.980   3.800   1.746  0.6688  0.3065  0.8678
 6327SOL    HW225074   4.056   3.759   1.786 -0.3404 -1.0054  1.5302
 6327SOL    HW325075   3.964   3.751   1.666 -1.2381 -1.5099  2.2397
 6327SOL    MW425076   3.988   3.788   1.741  0.2841 -0.1063  1.1362
 6328SOL     OW25077   2.651   0.315   2.769  0.0969 -0.1646  0.2919
 6328SOL    HW225078   2.575   0.367   2.743 -1.7416 -3.2414 -0.9191
 6328SOL    HW325079   2.620   0.261   2.842  1.5631 -0.4699  0.7202
 6328SOL    MW425080   2.637   0.315   2.776  0.0478 -0.6108  0.1887
 6329SOL     OW25081   2.143   6.247   2.389 -0.2852 -0.1107 -0.7266
 6329SOL    HW225082   2.114   6.326   2.344  1.2771 -0.2012 -1.9882
 6329SOL    HW325083   2.110   6.175   2.335 -1.0135 -0.3185 -0.0226
 6329SOL    MW425084   2.135   6.248   2.376 -0.1752 -0.1500 -0.8002
 6330SOL     OW25085   3.960   2.636   3.722 -0.4424 -0.1820 -0.2972
 6330SOL    HW225086   3.878   2.592   3.746 -0.7996  0.9069  0.5362
 6330SOL    HW325087   3.935   2.726   3.704  0.4921  0.0216 -0.6118
 6330SOL    MW425088   3.946   2.642   3.723 -0.3662 -0.0114 -0.2288
 6331SOL     OW25089   1.295   5.194   1.643 -0.3529 -0.0126 -0.8095
 6331SOL    HW225090   1.318   5.281   1.677 -0.7930 -0.7320  1.5259
 6331SOL    HW325091   1.371   5.140   1.663 -1.4114 -0.9178  0.9818
 6331SOL    MW425092   1.308   5.198   1.650 -0.5506 -0.2269 -0.2650
 6332SOL     OW25093   3.657   3.726   4.224 -0.0789  0.3222 -0.0290
 6332SOL    HW225094   3.686   3.644   4.185 -2.7631 -1.0881  0.6539
 6332SOL    HW325095   3.646   3.785   4.150  0.0705 -0.5599 -0.7707
 6332SOL    MW425096   3.659   3.723   4.209 -0.4133  0.0198 -0.0368
 6333SOL     OW25097   4.092   3.702   0.062  0.5677 -0.1383 -0.1224
 6333SOL    HW225098   4.106   3.794   0.087  0.0242  0.4505 -1.8870
 6333SOL    HW325099   3.998   3.690   0.067  0.6111 -0.5098 -0.2017
 6333SOL    MW425100   4.082   3.712   0.066  0.5017 -0.1096 -0.3657
 6334SOL     OW25101   6.379   4.877   2.905  0.2867  0.5734  0.1188
 6334SOL    HW225102   6.381   4.930   2.825  0.4038  0.1030 -0.1936
 6334SOL    HW325103   6.382   4.941   2.976  0.4440  0.9840 -0.2532
 6334SOL    MW425104   6.379   4.893   2.904  0.3229  0.5655  0.0285
 6335SOL     OW25105   1.034   4.786   1.493  0.0305  0.1814 -0.7464
 6335SOL    HW225106   1.049   4.796   1.587 -1.1742 -0.9204 -0.4200
 6335SOL    HW325107   1.122   4.780   1.456  0.5092  0.0754  0.3648
 6335SOL    MW425108   1.048   4.787   1.501 -0.0653  0.0220 -0.5568
 6336SOL     OW25109   4.561   5.236   0.448 -0.0227  0.3003 -0.0102
 6336SOL    HW225110   4.534   5.327   0.435  0.7887  0.4935 -0.4613
 6336SOL    HW325111   4.613   5.238   0.528 -0.5484  0.1161  0.3314
 6336SOL    MW425112   4.565   5.248   0.457  0.0150  0.3015 -0.0246
 6337SOL     OW25113   1.975   4.228   0.987 -0.1887 -0.0427 -0.2643
 6337SOL    HW225114   2.057   4.179   0.989 -0.2722 -0.4223 -2.6673
 6337SOL    HW325115   1.907   4.161   0.980 -0.8404  0.2391  2.3139
 6337SOL    MW425116   1.977   4.213   0.986 -0.2857 -0.0556 -0.2412
 6338SOL     OW25117   3.651   5.767   2.202 -0.6849 -0.6802  0.1904
 6338SOL    HW225118   3.664   5.682   2.161 -0.9499 -0.0442 -1.2645
 6338SOL    HW325119   3.571   5.801   2.162 -1.2997 -0.2751  1.6910
 6338SOL    MW425120   3.642   5.760   2.191 -0.8010 -0.5428  0.1964
 6339SOL     OW25121   2.727   5.299   3.878 -0.1613 -0.1590 -0.3086
 6339SOL    HW225122   2.751   5.319   3.787 -0.7329 -0.9690 -0.6492
 6339SOL    HW325123   2.713   5.385   3.918  3.1420  0.3971 -0.0943
 6339SOL    MW425124   2.728   5.313   3.871  0.1992 -0.1925 -0.3253
 6340SOL     OW25125   0.423   5.617   3.212  0.4959 -0.0318  0.0613
 6340SOL    HW225126   0.372   5.681   3.162  1.8198  0.8657 -0.1900
 6340SOL    HW325127   0.417   5.647   3.303 -0.4640 -0.6647  0.2184
 6340SOL    MW425128   0.416   5.630   3.217  0.5439  0.0031  0.0489
 6341SOL     OW25129   2.115   6.405   0.097 -0.3304  0.2257  0.1779
 6341SOL    HW225130   2.074   6.318   0.098  0.8802 -0.3633  0.1293
 6341SOL    HW325131   2.082   6.446   0.017 -0.3792 -0.4599 -0.1623
 6341SOL    MW425132   2.105   6.399   0.087 -0.1771  0.0575  0.1266
 6342SOL     OW25133   0.687   2.612   2.012 -0.1568  0.0931  0.1640
 6342SOL    HW225134   0.659   2.522   2.030 -0.1906 -0.5771 -2.8448
 6342SOL    HW325135   0.636   2.665   2.074 -0.5368 -1.8748  1.6393
 6342SOL    MW425136   0.676   2.607   2.023 -0.2114 -0.2549 -0.0383
 6343SOL     OW25137   4.707   1.923   6.080 -0.0575 -0.0080 -0.8754
 6343SOL    HW225138   4.708   1.835   6.042  0.7009 -0.5723  0.3601
 6343SOL    HW325139   4.800   1.946   6.089 -0.2398  0.6914 -0.6931
 6343SOL    MW425140   4.720   1.915   6.076  0.0185  0.0098 -0.6883
 6344SOL     OW25141   3.988   3.750   2.084 -0.0818 -0.1189 -0.3755
 6344SOL    HW225142   3.950   3.736   1.997 -1.2964  0.0587  0.1043
 6344SOL    HW325143   4.082   3.763   2.067 -0.3400  0.2402 -1.6924
 6344SOL    MW425144   3.995   3.750   2.070 -0.2761 -0.0481 -0.4860
 6345SOL     OW25145   0.693   3.668   6.415  0.2257  0.5160 -0.4114
 6345SOL    HW225146   0.711   3.694   6.505  0.4179  1.6359 -0.7579
 6345SOL    HW325147   0.601   3.642   6.415  0.7132 -1.4415  0.5138
 6345SOL    MW425148   0.683   3.668   6.427  0.3154  0.4055 -0.3350
 6346SOL     OW25149   2.160   5.682   5.843 -0.1170 -0.2261  0.9260
 6346SOL    HW225150   2.202   5.637   5.769  1.1607  0.3249  1.3062
 6346SOL    HW325151   2.067   5.659   5.834  0.1763 -1.0830 -0.1994
 6346SOL    MW425152   2.153   5.673   5.832  0.0903 -0.2665  0.8277
 6347SOL     OW25153   1.121   4.277   4.041  0.3106  0.0520  0.1122
 6347SOL    HW225154   1.040   4.269   3.990  0.7181  0.0239 -0.5456
 6347SOL    HW325155   1.163   4.356   4.007 -0.1201  0.8879  1.4459
 6347SOL    MW425156   1.116   4.287   4.030  0.3076  0.1586  0.2014
 6348SOL     OW25157   4.345   4.469   0.052 -0.5011 -0.0852  0.6786
 6348SOL    HW225158   4.319   4.545  -0.001 -0.2789 -0.2692  0.3029
 6348SOL    HW325159   4.342   4.396  -0.009  3.0280  0.1869 -0.0079
 6348SOL    MW425160   4.341   4.470   0.037 -0.0062 -0.0736  0.5385
 6349SOL     OW25161   3.161   1.869   0.456 -0.3230 -0.2493 -0.1825
 6349SOL    HW225162   3.208   1.875   0.539  1.6577 -1.0304 -1.1741
 6349SOL    HW325163   3.173   1.778   0.429 -1.5175 -0.1830 -1.0127
 6349SOL    MW425164   3.169   1.857   0.464 -0.2193 -0.3436 -0.4229
 6350SOL     OW25165   1.084   6.079   1.761  0.4078  0.3955  0.1453
 6350SOL    HW225166   1.175   6.064   1.736  0.0326 -2.0846  0.0563
 6350SOL    HW325167   1.089   6.102   1.854  1.1528  0.9234 -0.0163
 6350SOL    MW425168   1.097   6.080   1.770  0.4566  0.1379  0.1123
 6351SOL     OW25169   3.982   2.564   2.627 -0.5309  0.6323  0.0385
 6351SOL    HW225170   4.025   2.537   2.546 -0.0348  1.0821  0.1430
 6351SOL    HW325171   4.009   2.498   2.692  1.6116  1.9183  0.5735
 6351SOL    MW425172   3.992   2.552   2.625 -0.1828  0.8613  0.1228
 6352SOL     OW25173   2.992   5.298   2.846  0.6726 -0.2241 -0.3289
 6352SOL    HW225174   3.059   5.356   2.882 -1.4315  2.5416 -0.4422
 6352SOL    HW325175   2.944   5.354   2.784 -2.2980 -1.6679  0.4662
 6352SOL    MW425176   2.994   5.313   2.843  0.0031 -0.0497 -0.2389
 6353SOL     OW25177   0.326   2.109   0.850 -0.8167 -0.1281 -0.0403
 6353SOL    HW225178   0.400   2.130   0.907 -1.4939  0.4285  0.6618
 6353SOL    HW325179   0.276   2.043   0.898 -1.1542  0.0121 -0.1942
 6353SOL    MW425180   0.329   2.103   0.864 -0.9506 -0.0361  0.0320
 6354SOL     OW25181   2.809   0.727   0.621 -0.2184  0.3355  0.1192
 6354SOL    HW225182   2.750   0.736   0.547  1.1991 -0.0108 -1.1000
 6354SOL    HW325183   2.865   0.805   0.618  1.5049 -0.8637 -0.7514
 6354SOL    MW425184   2.809   0.738   0.611  0.1960  0.1316 -0.1565
 6355SOL     OW25185   3.048   1.152   0.830  0.2199  0.7495 -0.4867
 6355SOL    HW225186   3.036   1.245   0.849  1.0780  0.8268 -0.2756
 6355SOL    HW325187   3.028   1.109   0.913  2.1369  0.9493  0.1487
 6355SOL    MW425188   3.044   1.159   0.844  0.5861  0.7860 -0.3750
 6356SOL     OW25189   1.745   4.813   2.656 -0.1052 -0.0749  0.1108
 6356SOL    HW225190   1.744   4.890   2.714  0.3485  0.2698 -0.3288
 6356SOL    HW325191   1.807   4.753   2.697 -0.4499 -0.2013  0.4496
 6356SOL    MW425192   1.753   4.815   2.669 -0.0908 -0.0461  0.0975
 6357SOL     OW25193   2.766   0.943   1.258  0.5067 -0.1328 -0.1250
 6357SOL    HW225194   2.750   1.037   1.252  1.8036  0.1111 -0.1168
 6357SOL    HW325195   2.840   0.936   1.318 -0.4916 -1.2687  1.0365
 6357SOL    MW425196   2.774   0.955   1.265  0.5461 -0.2505  0.0293
 6358SOL     OW25197   2.145   5.579   3.444  0.6538  0.6034 -0.6431
 6358SOL    HW225198   2.153   5.521   3.368  1.3324 -0.1210 -0.0307
 6358SOL    HW325199   2.117   5.663   3.407 -1.0894 -0.2792 -1.4853
 6358SOL    MW425200   2.142   5.582   3.429  0.5133  0.3914 -0.6734
 6359SOL     OW25201   4.229   1.529   5.072 -0.2985 -0.2579 -0.4514
 6359SOL    HW225202   4.286   1.587   5.122 -2.3522  1.6284 -0.1278
 6359SOL    HW325203   4.168   1.588   5.028 -1.0863 -2.0999 -1.9617
 6359SOL    MW425204   4.229   1.545   5.072 -0.6734 -0.2520 -0.6079
 6360SOL     OW25205   2.535   5.757   4.310 -0.3505  0.2392  0.0633
 6360SOL    HW225206   2.526   5.836   4.256  1.3165 -1.0463 -2.2958
 6360SOL    HW325207   2.484   5.691   4.262 -0.1333 -0.5780  0.9444
 6360SOL    MW425208   2.527   5.759   4.296 -0.1019 -0.0382 -0.1317
 6361SOL     OW25209   1.156   1.400   5.184 -0.4039  0.1845 -0.0460
 6361SOL    HW225210   1.217   1.467   5.217 -0.8529  0.7232 -0.2888
 6361SOL    HW325211   1.180   1.320   5.230 -0.4824  0.7306  0.9578
 6361SOL    MW425212   1.168   1.398   5.194 -0.4735  0.3276  0.0544
 6362SOL     OW25213   5.120   1.133   1.773 -0.0178 -0.3312  0.1150
 6362SOL    HW225214   5.208   1.106   1.799  0.9191  1.1289 -1.4119
 6362SOL    HW325215   5.099   1.206   1.831 -0.6308 -1.2383  1.0782
 6362SOL    MW425216   5.129   1.139   1.784  0.0249 -0.2582  0.0407
 6363SOL     OW25217   1.493   5.439   5.670 -0.7676 -0.0071  0.2355
 6363SOL    HW225218   1.479   5.524   5.630 -1.3831  0.4645  1.3988
 6363SOL    HW325219   1.548   5.391   5.608  1.2998  1.9385  0.4302
 6363SOL    MW425220   1.498   5.444   5.657 -0.5760  0.3118  0.4147
 6364SOL     OW25221   0.101   3.680   2.986  0.5041 -0.3075  0.0919
 6364SOL    HW225222   0.105   3.622   2.910 -2.9185 -1.1691  0.3817
 6364SOL    HW325223   0.076   3.623   3.059  0.3832  1.0172  1.1238
 6364SOL    MW425224   0.098   3.665   2.986  0.0366 -0.2464  0.2663
 6365SOL     OW25225   5.828   0.389   5.424  0.1661 -0.1839  0.1220
 6365SOL    HW225226   5.734   0.397   5.440  0.1702  0.6995 -0.2452
 6365SOL    HW325227   5.863   0.351   5.505 -0.2669  1.1991  1.0069
 6365SOL    MW425228   5.820   0.385   5.437  0.1095  0.1152  0.1903
 6366SOL     OW25229   0.891   4.823   3.153  0.0192  0.1813  0.5233
 6366SOL    HW225230   0.821   4.780   3.103  0.0012  0.8356 -0.0222
 6366SOL    HW325231   0.894   4.912   3.119  1.6070 -0.0315  0.0457
 6366SOL    MW425232   0.882   4.829   3.142  0.2263  0.2396  0.3883
 6367SOL     OW25233   5.792   6.181   5.222  0.0725  0.1442 -0.1270
 6367SOL    HW225234   5.786   6.240   5.147  0.1858  2.4731  1.5660
 6367SOL    HW325235   5.885   6.157   5.226 -0.0384 -0.4692 -1.0466
 6367SOL    MW425236   5.804   6.186   5.213  0.0728  0.3705 -0.0250
 6368SOL     OW25237   3.515   3.354   0.346  0.2733  0.3106  0.1515
 6368SOL    HW225238   3.447   3.400   0.297 -0.8878 -1.9634 -0.4878
 6368SOL    HW325239   3.469   3.316   0.420  1.1143 -0.1438  0.4459
 6368SOL    MW425240   3.500   3.355   0.349  0.2311 -0.0494  0.1060
 6369SOL     OW25241   5.409   2.030   5.740  0.3258  0.3947 -0.0844
 6369SOL    HW225242   5.343   1.975   5.699  0.0192 -1.0876  2.2137
 6369SOL    HW325243   5.386   2.120   5.715 -4.2716  0.2686  2.7015
 6369SOL    MW425244   5.398   2.035   5.732 -0.3212  0.1825  0.5864
 6370SOL     OW25245   2.849   2.272   4.496 -0.1860  0.1276 -0.8302
 6370SOL    HW225246   2.788   2.264   4.568 -0.9297  1.0482 -1.3236
 6370SOL    HW325247   2.925   2.317   4.533  1.3010 -3.1064  0.3721
 6370SOL    MW425248   2.851   2.277   4.510 -0.0879 -0.1777 -0.7367
 6371SOL     OW25249   3.781   1.388   5.261  0.0144 -0.0613 -0.8023
 6371SOL    HW225250   3.791   1.424   5.349  0.2134  3.0290 -1.9840
 6371SOL    HW325251   3.842   1.314   5.258 -1.6709 -1.8165  2.3150
 6371SOL    MW425252   3.790   1.383   5.272 -0.1817  0.1148 -0.5469
 6372SOL     OW25253   2.277   2.910   3.621 -0.0924  0.5908 -0.6623
 6372SOL    HW225254   2.283   2.841   3.688 -0.6490  1.3467  0.1969
 6372SOL    HW325255   2.366   2.944   3.614  0.2318 -0.3472 -1.2511
 6372SOL    MW425256   2.290   2.906   3.629 -0.1230  0.5668 -0.6266
 6373SOL     OW25257   1.241   4.059   3.593  0.1608 -0.2276  0.3288
 6373SOL    HW225258   1.288   4.021   3.518 -0.8116 -0.1611 -0.3260
 6373SOL    HW325259   1.221   3.983   3.648  1.9821 -0.1408  1.1920
 6373SOL    MW425260   1.245   4.044   3.590  0.2728 -0.2074  0.3563
 6374SOL     OW25261   2.198   4.637   0.601  0.1008  0.1047  0.4126
 6374SOL    HW225262   2.154   4.584   0.534 -0.3721  0.7407  0.2126
 6374SOL    HW325263   2.272   4.583   0.628 -0.1589 -0.5057 -0.0497
 6374SOL    MW425264   2.202   4.623   0.595  0.0041  0.1081  0.3252
 6375SOL     OW25265   1.380   5.373   2.031 -0.3038 -0.0939 -0.1029
 6375SOL    HW225266   1.400   5.431   2.105 -0.2094 -0.8342  0.4666
 6375SOL    HW325267   1.456   5.379   1.974 -1.6144  2.9171 -1.7999
 6375SOL    MW425268   1.392   5.382   2.034 -0.4643  0.2057 -0.2517
 6376SOL     OW25269   5.379   5.066   3.834 -0.2299  0.9011 -0.1514
 6376SOL    HW225270   5.448   5.000   3.823 -1.2802 -0.0261 -1.3018
 6376SOL    HW325271   5.427   5.147   3.854  1.2057  0.3126 -1.0725
 6376SOL    MW425272   5.395   5.068   3.835 -0.1790  0.7011 -0.4247
 6377SOL     OW25273   3.119   0.147   2.078 -0.3932  1.0931 -0.3152
 6377SOL    HW225274   3.082   0.125   2.163  0.8138  0.6507  0.1265
 6377SOL    HW325275   3.203   0.188   2.099  0.1101  0.5984 -1.2933
 6377SOL    MW425276   3.125   0.149   2.092 -0.1675  0.9694 -0.3859
 6378SOL     OW25277   0.651   4.680   2.771  0.1407 -0.5731  0.0303
 6378SOL    HW225278   0.592   4.754   2.755  2.8351  1.6041 -0.6255
 6378SOL    HW325279   0.593   4.604   2.772 -2.5350  1.2188 -1.7310
 6378SOL    MW425280   0.635   4.680   2.769  0.1431 -0.0494 -0.2886
 6379SOL     OW25281   0.847   1.610   4.088  0.4074 -0.0185  0.7946
 6379SOL    HW225282   0.869   1.593   3.996 -1.1070  0.7798  0.2554
 6379SOL    HW325283   0.932   1.610   4.133  1.0846 -1.5548 -0.3822
 6379SOL    MW425284   0.861   1.608   4.082  0.2969 -0.1159  0.5682
 6380SOL     OW25285   4.208   3.350   0.639  0.0294  0.4843  0.1936
 6380SOL    HW225286   4.283   3.408   0.626 -0.7930  1.3400 -1.0812
 6380SOL    HW325287   4.133   3.401   0.606 -0.7557 -1.2124 -0.7827
 6380SOL    MW425288   4.208   3.365   0.633 -0.1827  0.3733 -0.1034
 6381SOL     OW25289   1.625   3.906   6.205 -0.1958 -0.0378 -0.0709
 6381SOL    HW225290   1.545   3.939   6.165 -0.6458 -1.9122 -0.8138
 6381SOL    HW325291   1.615   3.811   6.204  1.6427 -0.2840  0.6725
 6381SOL    MW425292   1.613   3.898   6.200 -0.0126 -0.3176 -0.0708
 6382SOL     OW25293   5.017   0.210   0.075 -0.4917 -0.1127  0.0789
 6382SOL    HW225294   5.025   0.273   0.147  0.9703  0.4717 -0.5694
 6382SOL    HW325295   5.099   0.216   0.028  0.0980 -3.2062  0.4998
 6382SOL    MW425296   5.029   0.219   0.079 -0.2210 -0.4438  0.0489
 6383SOL     OW25297   3.446   2.474   4.886 -0.1004  0.3090 -0.0201
 6383SOL    HW225298   3.351   2.477   4.879 -0.1970 -0.2727  0.9418
 6383SOL    HW325299   3.472   2.397   4.836 -0.4728 -1.6384  2.5786
 6383SOL    MW425300   3.437   2.465   4.878 -0.1623 -0.0247  0.4497
 6384SOL     OW25301   1.354   2.575   5.940 -0.8788  0.2506 -0.3693
 6384SOL    HW225302   1.331   2.483   5.925 -0.9305  0.3156 -0.6789
 6384SOL    HW325303   1.432   2.589   5.886 -2.1103  0.9854 -2.0270
 6384SOL    MW425304   1.361   2.564   5.931 -1.0481  0.3561 -0.6289
 6385SOL     OW25305   2.308   0.294   2.982  0.0151  0.2993  0.1406
 6385SOL    HW225306   2.298   0.239   3.060 -1.5079 -0.8074 -0.7685
 6385SOL    HW325307   2.239   0.360   2.989 -0.4734 -0.1235 -0.4884
 6385SOL    MW425308   2.297   0.295   2.993 -0.2503  0.0975 -0.0623
 6386SOL     OW25309   0.861   0.586   0.611  0.0717  0.3815 -0.0230
 6386SOL    HW225310   0.925   0.539   0.558  0.4193  0.5124  0.2738
 6386SOL    HW325311   0.864   0.676   0.577 -0.3294  0.2737 -0.3497
 6386SOL    MW425312   0.870   0.592   0.599  0.0646  0.3845 -0.0270
 6387SOL     OW25313   0.851   5.131   2.559 -0.3182 -0.0364 -0.3515
 6387SOL    HW225314   0.827   5.194   2.491  1.6682  0.3300 -0.7793
 6387SOL    HW325315   0.945   5.145   2.572 -0.0168 -2.2452  0.2383
 6387SOL    MW425316   0.860   5.141   2.551 -0.0163 -0.2795 -0.3301
 6388SOL     OW25317   1.981   1.879   5.668 -0.5477 -0.0623  0.0527
 6388SOL    HW225318   1.971   1.927   5.586 -0.7564  1.4395  0.9166
 6388SOL    HW325319   2.058   1.919   5.709 -1.2308  0.1304  1.1783
 6388SOL    MW425320   1.990   1.891   5.662 -0.6654  0.1613  0.3152
 6389SOL     OW25321   5.499   6.003   4.814 -0.5298 -0.0046  0.1234
 6389SOL    HW225322   5.505   6.086   4.766  0.7619 -0.4794 -0.5837
 6389SOL    HW325323   5.572   6.006   4.876 -2.1281  0.5652  2.0917
 6389SOL    MW425324   5.510   6.014   4.816 -0.5703  0.0079  0.2898
 6390SOL     OW25325   5.298   2.174   1.556 -0.1848  0.4331  0.0216
 6390SOL    HW225326   5.262   2.175   1.468 -0.0541 -2.4337 -0.1446
 6390SOL    HW325327   5.221   2.182   1.613 -0.4067  0.8256 -0.3235
 6390SOL    MW425328   5.283   2.176   1.552 -0.1968  0.1066 -0.0459
 6391SOL     OW25329   0.116   3.525   3.767  0.3439  0.1333  0.3717
 6391SOL    HW225330   0.127   3.542   3.673  1.7595 -1.2870  0.2328
 6391SOL    HW325331   0.043   3.463   3.771 -1.8152  2.4989  0.5325
 6391SOL    MW425332   0.108   3.519   3.755  0.2458  0.2580  0.3746
 6392SOL     OW25333   3.949   4.894   2.208  0.4639 -0.2578  0.3228
 6392SOL    HW225334   3.997   4.911   2.290 -0.7033 -0.8289  1.1587
 6392SOL    HW325335   3.884   4.828   2.232 -0.3582  0.0750 -0.9062
 6392SOL    MW425336   3.947   4.888   2.222  0.2015 -0.2892  0.2709
 6393SOL     OW25337   0.447   0.658   5.396 -0.1822 -0.1840  0.3841
 6393SOL    HW225338   0.395   0.681   5.319 -0.4868 -0.6953  0.4326
 6393SOL    HW325339   0.453   0.562   5.393  1.5232 -0.1009 -0.1174
 6393SOL    MW425340   0.441   0.648   5.385  0.0026 -0.2405  0.3244
 6394SOL     OW25341   5.823   4.701   6.137 -0.0796  0.2319 -0.0433
 6394SOL    HW225342   5.866   4.681   6.220  0.1571  0.3180 -0.1450
 6394SOL    HW325343   5.784   4.618   6.110  3.4225 -0.9662 -1.9716
 6394SOL    MW425344   5.823   4.687   6.145  0.4137  0.0852 -0.3111
 6395SOL     OW25345   1.903   2.067   2.808 -0.2398  0.1693 -0.6131
 6395SOL    HW225346   1.951   2.010   2.868 -0.9919  0.3762  0.2028
 6395SOL    HW325347   1.931   2.156   2.832  0.1152  0.2129 -1.1614
 6395SOL    MW425348   1.913   2.071   2.819 -0.2922  0.2023 -0.5778
 6396SOL     OW25349   3.596   6.080   0.216 -0.2669 -0.4730  0.2928
 6396SOL    HW225350   3.613   6.157   0.270  1.3678  0.2958 -1.2157
 6396SOL    HW325351   3.506   6.091   0.186 -0.6595 -0.1153  1.5362
 6396SOL    MW425352   3.586   6.091   0.219 -0.1030 -0.3244  0.2578
 6397SOL     OW25353   3.203   3.889   3.176 -0.0130  0.2287 -0.1332
 6397SOL    HW225354   3.185   3.797   3.197  2.9177 -0.4948 -0.2722
 6397SOL    HW325355   3.143   3.939   3.231 -1.3634 -1.7496  0.2956
 6397SOL    MW425356   3.193   3.883   3.186  0.1955 -0.1278 -0.0950
 6398SOL     OW25357   6.037   4.824   4.872 -0.3657  0.6605 -0.1225
 6398SOL    HW225358   6.039   4.877   4.952 -1.4115 -0.6063  0.7991
 6398SOL    HW325359   6.056   4.885   4.802  2.1810  1.5265  1.2072
 6398SOL    MW425360   6.040   4.839   4.874 -0.1676  0.6076  0.1745
 6399SOL     OW25361   0.984   4.084   3.190 -0.1907  0.3269  0.5163
 6399SOL    HW225362   1.037   4.160   3.162  0.1212 -0.0264  0.1323
 6399SOL    HW325363   1.013   4.066   3.279 -1.1736  1.4512  1.0868
 6399SOL    MW425364   0.995   4.092   3.198 -0.2792  0.4286  0.5409
 6400SOL     OW25365   5.102   0.550   4.462 -0.1769 -0.5332 -0.0240
 6400SOL    HW225366   5.167   0.546   4.533 -0.0541  0.0151 -0.0994
 6400SOL    HW325367   5.034   0.607   4.497  0.1197  0.1440 -0.5318
 6400SOL    MW425368   5.102   0.557   4.476 -0.1215 -0.3715 -0.1009
 6401SOL     OW25369   3.556   1.394   0.559  0.3427 -0.2024 -0.5874
 6401SOL    HW225370   3.536   1.464   0.497 -0.2627 -1.1769 -1.5216
 6401SOL    HW325371   3.494   1.409   0.631 -0.4332 -0.3218 -1.2148
 6401SOL    MW425372   3.545   1.406   0.560  0.1605 -0.3467 -0.7934
 6402SOL     OW25373   1.262   5.820   5.373  0.0645  0.1626  0.1874
 6402SOL    HW225374   1.271   5.915   5.377 -0.3479  0.2418 -0.6990
 6402SOL    HW325375   1.322   5.788   5.441  0.2983  1.0425  0.4114
 6402SOL    MW425376   1.271   5.828   5.383  0.0410  0.2891  0.1000
 6403SOL     OW25377   2.564   0.200   2.988  0.2050  0.1554 -0.1462
 6403SOL    HW225378   2.480   0.244   2.994 -0.6267 -1.2928 -0.7097
 6403SOL    HW325379   2.612   0.230   3.065 -1.3373  0.0057  0.9230
 6403SOL    MW425380   2.560   0.209   2.999 -0.1082 -0.0554 -0.0795
 6404SOL     OW25381   3.904   2.333   4.967  0.0022  0.0851 -0.3893
 6404SOL    HW225382   3.975   2.291   5.015 -0.5445  0.5293  0.8507
 6404SOL    HW325383   3.870   2.399   5.027 -0.9057  0.4589 -1.2802
 6404SOL    MW425384   3.909   2.336   4.981 -0.1897  0.1930 -0.3432
 6405SOL     OW25385   3.809   0.739   5.883 -0.2756  0.0637 -0.0739
 6405SOL    HW225386   3.883   0.788   5.848 -1.2069  0.4101 -1.6599
 6405SOL    HW325387   3.824   0.736   5.977  0.4539  2.3396 -0.0661
 6405SOL    MW425388   3.821   0.745   5.891 -0.3022  0.4097 -0.2821
 6406SOL     OW25389   5.748   3.335   4.838  0.3382  0.0316  0.1302
 6406SOL    HW225390   5.673   3.315   4.894 -0.9630  0.8335 -1.2680
 6406SOL    HW325391   5.716   3.402   4.777  1.3079 -1.6373 -2.3722
 6406SOL    MW425392   5.734   3.341   4.837  0.2945 -0.0828 -0.3844
 6407SOL     OW25393   5.639   3.602   2.245 -0.0259 -0.6287  0.1647
 6407SOL    HW225394   5.682   3.613   2.330  1.3811 -0.6057 -0.5296
 6407SOL    HW325395   5.659   3.512   2.220 -1.0999 -0.8896  0.1934
 6407SOL    MW425396   5.647   3.591   2.253  0.0180 -0.6601  0.0768
 6408SOL     OW25397   2.566   3.739   4.905 -0.1824  0.2859  0.0001
 6408SOL    HW225398   2.510   3.814   4.926 -2.1814 -1.0159 -0.4054
 6408SOL    HW325399   2.592   3.704   4.990 -0.9279  0.2685  0.2310
 6408SOL    MW425400   2.562   3.744   4.919 -0.5445  0.1119 -0.0230
 6409SOL     OW25401   0.315   2.934   1.576 -0.0300  0.1464 -0.2226
 6409SOL    HW225402   0.220   2.927   1.584 -0.2084  0.6187 -1.6760
 6409SOL    HW325403   0.349   2.885   1.651 -1.4250  1.2321  1.2068
 6409SOL    MW425404   0.307   2.927   1.587 -0.2376  0.3519 -0.2257
 6410SOL     OW25405   2.149   4.833   1.877  0.1791  0.2003  0.2107
 6410SOL    HW225406   2.057   4.859   1.873 -0.0849 -0.7755 -0.3286
 6410SOL    HW325407   2.158   4.782   1.957  0.0018 -0.5818 -0.2555
 6410SOL    MW425408   2.138   4.830   1.887  0.1209 -0.0316  0.0780
 6411SOL     OW25409   5.985   0.656   2.307  0.0143 -0.0212  0.6366
 6411SOL    HW225410   5.904   0.609   2.287 -0.0200 -0.1801  1.1235
 6411SOL    HW325411   5.968   0.697   2.392  0.7165 -0.6963  1.1136
 6411SOL    MW425412   5.972   0.655   2.316  0.1024 -0.1312  0.7638
 6412SOL     OW25413   3.188   2.790   0.956 -0.2573 -1.0152  0.8145
 6412SOL    HW225414   3.257   2.727   0.977 -0.1320 -0.8964  0.7547
 6412SOL    HW325415   3.189   2.852   1.029  0.9757  0.0913 -0.0995
 6412SOL    MW425416   3.197   2.789   0.968 -0.0781 -0.8535  0.6860
 6413SOL     OW25417   4.156   3.924   1.147  0.3305  0.1305 -0.3455
 6413SOL    HW225418   4.138   3.948   1.056  0.1573  0.0477 -0.3329
 6413SOL    HW325419   4.242   3.963   1.166 -0.3935  1.6295  0.0040
 6413SOL    MW425420   4.165   3.932   1.138  0.2122  0.3173 -0.2977
 6414SOL     OW25421   5.787   3.410   5.200  0.4370 -0.5555  0.2706
 6414SOL    HW225422   5.730   3.363   5.260 -0.2893 -1.2690 -0.9258
 6414SOL    HW325423   5.825   3.342   5.145 -0.0470  0.1678 -1.0114
 6414SOL    MW425424   5.784   3.395   5.200  0.2773 -0.5542 -0.0564
 6415SOL     OW25425   3.773   1.643   3.628 -0.0740 -0.3585 -0.1927
 6415SOL    HW225426   3.790   1.642   3.722  1.5454  2.1456 -0.3768
 6415SOL    HW325427   3.726   1.561   3.611  1.6570 -2.0208  2.3950
 6415SOL    MW425428   3.769   1.632   3.638  0.3680 -0.2475  0.1245
 6416SOL     OW25429   4.245   6.257   6.281 -0.1050 -0.0503  0.7174
 6416SOL    HW225430   4.234   6.318   6.208 -1.3287  0.2064  1.0907
 6416SOL    HW325431   4.278   6.176   6.241 -0.1573  0.2912 -0.0235
 6416SOL    MW425432   4.248   6.254   6.266 -0.2733  0.0286  0.6689
 6417SOL     OW25433   0.570   3.347   5.652  0.1308  0.0800  0.1596
 6417SOL    HW225434   0.631   3.392   5.594 -0.3939 -1.4294 -1.6301
 6417SOL    HW325435   0.483   3.368   5.618 -0.2981  0.6338  1.5191
 6417SOL    MW425436   0.567   3.356   5.640  0.0050 -0.0461  0.1028
 6418SOL     OW25437   5.655   4.900   0.456  0.1480  0.2634  0.4021
 6418SOL    HW225438   5.641   4.985   0.414  1.5584  0.5849  0.5486
 6418SOL    HW325439   5.748   4.882   0.443 -0.2890 -1.6379 -0.2943
 6418SOL    MW425440   5.665   4.909   0.449  0.2764  0.0550  0.3296
 6419SOL     OW25441   2.068   5.671   0.661 -0.6886  0.1769  0.4205
 6419SOL    HW225442   2.081   5.674   0.756  0.0031  0.2076  0.3346
 6419SOL    HW325443   2.115   5.592   0.633 -0.8820  0.1718  0.1021
 6419SOL    MW425444   2.076   5.661   0.670 -0.6228  0.1803  0.3672
 6420SOL     OW25445   2.054   5.125   4.675  0.1103  0.3768 -0.0013
 6420SOL    HW225446   2.052   5.036   4.710  1.1138  1.0520  1.9190
 6420SOL    HW325447   1.985   5.171   4.722  1.0181  1.1317  0.6413
 6420SOL    MW425448   2.045   5.119   4.686  0.3625  0.5655  0.3368
 6421SOL     OW25449   0.576   0.788   1.600  0.3658 -0.3086 -0.1108
 6421SOL    HW225450   0.596   0.837   1.521  3.6392 -2.0286 -0.5230
 6421SOL    HW325451   0.619   0.837   1.670  0.6976 -0.7570  0.0034
 6421SOL    MW425452   0.585   0.801   1.599  0.8415 -0.5947 -0.1501
 6422SOL     OW25453   4.646   4.872   0.562 -0.4181  0.1877  0.1114
 6422SOL    HW225454   4.584   4.901   0.496 -0.7092  0.5723  0.5528
 6422SOL    HW325455   4.610   4.790   0.595  0.9353 -1.3098 -1.8827
 6422SOL    MW425456   4.633   4.865   0.558 -0.2779  0.0409 -0.0935
 6423SOL     OW25457   1.379   0.950   1.200  0.2276  0.4155  0.0783
 6423SOL    HW225458   1.378   1.000   1.282  0.3530  0.6534 -0.0640
 6423SOL    HW325459   1.297   0.974   1.157 -0.7715 -1.1699  0.9974
 6423SOL    MW425460   1.368   0.960   1.205  0.1123  0.2377  0.1808
 6424SOL     OW25461   0.178   3.306   0.613 -0.0456  0.0149 -0.1949
 6424SOL    HW225462   0.088   3.294   0.585 -0.4927 -0.5523  1.4163
 6424SOL    HW325463   0.210   3.218   0.634 -0.0622  0.4588  1.9421
 6424SOL    MW425464   0.171   3.293   0.612 -0.1068 -0.0014  0.2997
 6425SOL     OW25465   5.134   5.680   4.857  0.0328 -0.1192 -0.8527
 6425SOL    HW225466   5.152   5.739   4.930  1.5167 -0.9710 -0.4822
 6425SOL    HW325467   5.067   5.621   4.889  0.1813 -0.0579 -0.4203
 6425SOL    MW425468   5.128   5.680   4.870  0.2482 -0.2235 -0.7468
 6426SOL     OW25469   0.940   2.660   4.481 -0.2531  0.3515 -0.0459
 6426SOL    HW225470   0.862   2.716   4.474 -0.1428  0.2854 -3.1135
 6426SOL    HW325471   0.909   2.581   4.524 -1.4266  1.0582  0.4595
 6426SOL    MW425472   0.926   2.657   4.486 -0.3934  0.4360 -0.3840
 6427SOL     OW25473   2.720   2.843   0.888  0.0287 -0.2163 -0.3813
 6427SOL    HW225474   2.626   2.857   0.898  0.1279  1.7068 -1.6485
 6427SOL    HW325475   2.758   2.882   0.967 -0.2212 -1.0842  0.1803
 6427SOL    MW425476   2.713   2.850   0.900  0.0088 -0.0771 -0.4744
 6428SOL     OW25477   0.219   6.072   3.200 -0.3030 -0.3279  0.0342
 6428SOL    HW225478   0.237   6.060   3.293 -0.7774  2.4016  0.5693
 6428SOL    HW325479   0.268   6.151   3.177 -1.3777 -0.1146 -1.6665
 6428SOL    MW425480   0.228   6.081   3.209 -0.5074  0.0604 -0.1196
 6429SOL     OW25481   3.536   2.648   0.714  0.1554 -0.2454 -0.5160
 6429SOL    HW225482   3.543   2.668   0.807 -0.6107  1.6657 -0.8366
 6429SOL    HW325483   3.446   2.672   0.691  0.6915  0.4213 -2.0084
 6429SOL    MW425484   3.525   2.654   0.723  0.1251  0.0947 -0.7552
 6430SOL     OW25485   3.311   6.161   2.877 -0.4260 -0.0000  0.3512
 6430SOL    HW225486   3.343   6.185   2.963  1.4245  0.1215 -0.3347
 6430SOL    HW325487   3.358   6.081   2.854  1.4019  1.5413 -1.7257
 6430SOL    MW425488   3.321   6.153   2.885  0.0593  0.2194 -0.0133
 6431SOL     OW25489   1.136   1.300   2.316  0.0257  0.1270  0.4126
 6431SOL    HW225490   1.078   1.316   2.242  0.2704  0.9586  0.3983
 6431SOL    HW325491   1.093   1.230   2.365 -0.5890  0.1917 -0.0270
 6431SOL    MW425492   1.123   1.293   2.313 -0.0232  0.2453  0.3527
 6432SOL     OW25493   2.275   3.707   4.586 -0.2181  0.3158 -0.1080
 6432SOL    HW225494   2.259   3.789   4.633 -0.8447 -0.2592  0.7302
 6432SOL    HW325495   2.244   3.639   4.647  2.5519 -0.7201  0.2812
 6432SOL    MW425496   2.269   3.709   4.600  0.0647  0.1033  0.0539
 6433SOL     OW25497   0.909   0.827   1.151 -0.1526 -0.0645  0.2402
 6433SOL    HW225498   0.854   0.749   1.149 -0.8938  0.4043 -2.7571
 6433SOL    HW325499   0.847   0.900   1.150  0.4956  0.7573  3.7635
 6433SOL    MW425500   0.894   0.826   1.151 -0.1649  0.1058  0.3096
 6434SOL     OW25501   6.133   1.160   5.465  0.2724 -0.1767  0.2881
 6434SOL    HW225502   6.088   1.138   5.383  0.4103  0.5168  0.0201
 6434SOL    HW325503   6.214   1.109   5.462  0.7133  0.5324 -0.4565
 6434SOL    MW425504   6.138   1.150   5.453  0.3488  0.0084  0.1545
 6435SOL     OW25505   3.141   5.215   1.883 -0.1303 -0.6400  0.0383
 6435SOL    HW225506   3.184   5.177   1.959 -2.8573 -1.6816  1.1851
 6435SOL    HW325507   3.129   5.307   1.905 -1.1743 -0.9959  1.0703
 6435SOL    MW425508   3.145   5.222   1.896 -0.6279 -0.8244  0.3258
 6436SOL     OW25509  -0.000   1.845   0.382  0.1800 -0.5992 -0.6676
 6436SOL    HW225510   0.071   1.909   0.371 -0.6223  0.7022  1.1862
 6436SOL    HW325511   0.041   1.769   0.421  1.0482 -1.0701 -2.3820
 6436SOL    MW425512   0.015   1.844   0.385  0.1887 -0.4896 -0.6492
 6437SOL     OW25513   0.675   3.039   4.749 -0.1578 -0.3877 -0.0343
 6437SOL    HW225514   0.689   2.969   4.684  0.7660 -1.3741  1.1761
 6437SOL    HW325515   0.587   3.072   4.730 -0.8384 -2.2426 -0.3122
 6437SOL    MW425516   0.665   3.034   4.738 -0.1257 -0.7625  0.0887
 6438SOL     OW25517   5.376   3.710   2.260 -0.1952  0.0536  0.3220
 6438SOL    HW225518   5.328   3.652   2.320  0.3796 -1.7100 -0.8398
 6438SOL    HW325519   5.460   3.666   2.247  0.5342  1.5267 -0.0865
 6438SOL    MW425520   5.381   3.696   2.266 -0.0231  0.0153  0.1148
 6439SOL     OW25521   5.831   1.794   3.489  0.6042  0.2579 -0.7924
 6439SOL    HW225522   5.910   1.755   3.527  0.6712 -0.5859 -1.7597
 6439SOL    HW325523   5.862   1.838   3.409  0.0100 -0.7470 -1.6078
 6439SOL    MW425524   5.846   1.795   3.483  0.5347  0.0140 -1.0276
 6440SOL     OW25525   1.771   0.516   5.905 -0.5023  0.4964 -0.3176
 6440SOL    HW225526   1.836   0.522   5.835  0.3018  0.9377  0.4372
 6440SOL    HW325527   1.693   0.557   5.870  0.1563  1.4983 -0.6594
 6440SOL    MW425528   1.769   0.522   5.891 -0.3093  0.6868 -0.2631
 6441SOL     OW25529   5.042   5.508   3.422  0.6576  0.0968 -0.0305
 6441SOL    HW225530   5.004   5.481   3.339  0.5241 -1.7811  0.5860
 6441SOL    HW325531   5.123   5.457   3.429  2.3258  2.5313 -0.3837
 6441SOL    MW425532   5.048   5.497   3.412  0.8601  0.1703  0.0043
 6442SOL     OW25533   2.948   2.781   4.856  0.2275 -0.0305  0.0091
 6442SOL    HW225534   2.906   2.699   4.883  0.0834  0.6082  1.8965
 6442SOL    HW325535   2.888   2.849   4.886  0.8950  0.7962 -0.5128
 6442SOL    MW425536   2.935   2.779   4.863  0.2966  0.1628  0.1892
 6443SOL     OW25537   3.854   2.479   1.777  0.3537  0.4148  0.3492
 6443SOL    HW225538   3.822   2.504   1.691 -0.0834 -0.0563  0.3713
 6443SOL    HW325539   3.776   2.470   1.831  0.3699 -1.8705  0.1001
 6443SOL    MW425540   3.840   2.481   1.773  0.2982  0.0511  0.3192
 6444SOL     OW25541   0.823   4.741   1.052 -0.0633  0.1165  0.0270
 6444SOL    HW225542   0.855   4.720   1.139 -0.0836 -0.4979 -0.1058
 6444SOL    HW325543   0.778   4.825   1.062  1.0108  0.6672  0.3423
 6444SOL    MW425544   0.821   4.749   1.065  0.0757  0.1081  0.0511
 6445SOL     OW25545   3.326   4.782   4.607 -0.5313  0.1795  0.0228
 6445SOL    HW225546   3.369   4.855   4.563 -1.5162  1.5750  1.2893
 6445SOL    HW325547   3.398   4.732   4.644  0.1677  0.4332 -0.9404
 6445SOL    MW425548   3.341   4.785   4.606 -0.5690  0.3971  0.0628
 6446SOL     OW25549   5.298   2.353   0.534 -0.1053 -0.5141 -0.4572
 6446SOL    HW225550   5.287   2.311   0.449 -0.0294 -2.0483  0.2411
 6446SOL    HW325551   5.388   2.386   0.533 -0.4211  0.3745 -1.3183
 6446SOL    MW425552   5.308   2.352   0.523 -0.1370 -0.5993 -0.4786
 6447SOL     OW25553   5.497   1.295   3.168  0.4872  0.1482  0.4816
 6447SOL    HW225554   5.445   1.279   3.090  1.8018 -1.6462 -0.0734
 6447SOL    HW325555   5.432   1.306   3.238 -0.6535 -0.3910 -0.4616
 6447SOL    MW425556   5.482   1.295   3.167  0.5102 -0.1597  0.2839
 6448SOL     OW25557   5.505   3.464   3.584  0.5130 -0.2425 -0.4135
 6448SOL    HW225558   5.466   3.383   3.549  0.9175 -0.6400  0.0425
 6448SOL    HW325559   5.577   3.434   3.639 -1.1213  0.2397  2.1831
 6448SOL    MW425560   5.509   3.449   3.586  0.3507 -0.2313 -0.0107
 6449SOL     OW25561   1.037   6.324   3.813 -1.3058 -0.1875 -0.1785
 6449SOL    HW225562   0.961   6.352   3.763  0.5496  2.6712 -1.6917
 6449SOL    HW325563   1.012   6.339   3.904 -2.6639  0.4256 -0.6258
 6449SOL    MW425564   1.024   6.330   3.819 -1.2402  0.2705 -0.4372
 6450SOL     OW25565   2.708   0.913   4.447  0.3454  0.1426 -0.5454
 6450SOL    HW225566   2.663   0.845   4.497 -3.4855  1.9023 -1.2390
 6450SOL    HW325567   2.782   0.937   4.501 -1.7059 -0.3382  2.7439
 6450SOL    MW425568   2.712   0.907   4.461 -0.4307  0.3113 -0.2029
 6451SOL     OW25569   2.042   6.343   4.932 -0.1290 -0.1925  0.2024
 6451SOL    HW225570   2.105   6.337   5.004 -2.1151 -1.3024  1.9524
 6451SOL    HW325571   2.073   6.278   4.868  0.8060 -0.3008  0.7499
 6451SOL    MW425572   2.055   6.333   4.933 -0.2677 -0.3532  0.5055
 6452SOL     OW25573   1.169   5.705   0.300  0.1032 -0.0479 -0.2705
 6452SOL    HW225574   1.240   5.719   0.363  0.4501  1.8716 -1.0162
 6452SOL    HW325575   1.097   5.670   0.353 -0.1929  3.0610  1.6652
 6452SOL    MW425576   1.169   5.702   0.316  0.1099  0.6155 -0.1135
 6453SOL     OW25577   2.029   2.093   4.979 -0.0603  0.2945  0.3503
 6453SOL    HW225578   2.083   2.112   4.902 -0.8621 -0.7421 -0.5002
 6453SOL    HW325579   2.045   2.000   4.998  0.6653  0.6969  1.8943
 6453SOL    MW425580   2.038   2.083   4.971 -0.0704  0.2108  0.4418
 6454SOL     OW25581   2.579   0.987   3.865 -0.2436  0.5561  0.0444
 6454SOL    HW225582   2.548   0.939   3.943  0.9909 -1.6985 -0.7591
 6454SOL    HW325583   2.674   0.993   3.877  0.0801 -0.5369 -1.5849
 6454SOL    MW425584   2.587   0.981   3.877 -0.0380  0.1144 -0.2766
 6455SOL     OW25585   6.207   1.261   2.844 -0.0497  0.2242 -0.3246
 6455SOL    HW225586   6.124   1.280   2.888  0.4274  1.9039 -0.0853
 6455SOL    HW325587   6.210   1.166   2.839 -2.0941  0.1324 -0.5441
 6455SOL    MW425588   6.197   1.251   2.849 -0.2565  0.4337 -0.3220
 6456SOL     OW25589   4.669   1.845   1.796 -0.1701 -0.3736  0.5442
 6456SOL    HW225590   4.604   1.780   1.821 -1.2962 -0.0122 -1.2703
 6456SOL    HW325591   4.681   1.898   1.875 -0.1896 -1.9555  1.6605
 6456SOL    MW425592   4.662   1.844   1.810 -0.3212 -0.5347  0.4521
 6457SOL     OW25593   0.364   1.764   5.055 -0.0158 -0.0609 -0.4464
 6457SOL    HW225594   0.350   1.832   4.989  0.0558  0.9046  0.5081
 6457SOL    HW325595   0.306   1.788   5.127  0.8269 -0.3882  0.3613
 6457SOL    MW425596   0.354   1.776   5.056  0.1048  0.0233 -0.2139
 6458SOL     OW25597   3.903   1.748   4.354  0.8420 -0.7821 -0.4087
 6458SOL    HW225598   3.813   1.753   4.321  0.0565  0.3521  1.6950
 6458SOL    HW325599   3.914   1.657   4.379  0.2694 -0.9288 -0.6570
 6458SOL    MW425600   3.892   1.737   4.353  0.6628 -0.6518 -0.1639
 6459SOL     OW25601   3.766   5.578   5.158  0.0880  0.2817 -0.1164
 6459SOL    HW225602   3.791   5.671   5.161 -1.0210  0.5698  0.9626
 6459SOL    HW325603   3.827   5.535   5.218  2.0977 -0.1195 -2.3001
 6459SOL    MW425604   3.778   5.585   5.167  0.2068  0.2668 -0.2622
 6460SOL     OW25605   1.958   2.622   2.977  0.2781  0.2097  0.0275
 6460SOL    HW225606   1.982   2.556   2.912  0.3019 -0.6122  0.8635
 6460SOL    HW325607   1.996   2.703   2.943 -1.1502  0.1539 -1.8636
 6460SOL    MW425608   1.966   2.624   2.964  0.0928  0.0939 -0.1117
 6461SOL     OW25609   1.211   0.189   4.701  0.1264 -0.4200  0.0400
 6461SOL    HW225610   1.275   0.220   4.765 -1.3194  0.8879  0.9204
 6461SOL    HW325611   1.264   0.158   4.628  1.7619  0.5617  0.7472
 6461SOL    MW425612   1.227   0.189   4.700  0.1515 -0.1179  0.2495
 6462SOL     OW25613   5.678   0.863   4.046  0.2778  0.4919 -0.6418
 6462SOL    HW225614   5.762   0.819   4.061  0.0294  0.1142 -0.3098
 6462SOL    HW325615   5.645   0.881   4.134 -1.2973 -1.9124 -0.6501
 6462SOL    MW425616   5.685   0.859   4.060  0.0372  0.1248 -0.5991
 6463SOL     OW25617   2.555   2.711   5.526  0.2673  0.3791  0.0590
 6463SOL    HW225618   2.498   2.667   5.463 -0.7020  0.4855  0.8311
 6463SOL    HW325619   2.498   2.775   5.569  1.0745  0.7723  0.5706
 6463SOL    MW425620   2.540   2.714   5.523  0.2459  0.4450  0.2283
 6464SOL     OW25621   3.037   1.754   3.576 -0.1558  0.3631 -0.7903
 6464SOL    HW225622   3.065   1.663   3.591 -1.3150  0.3091  1.4860
 6464SOL    HW325623   3.106   1.807   3.615 -0.0215  0.4154 -1.1034
 6464SOL    MW425624   3.049   1.749   3.583 -0.2910  0.3629 -0.5313
 6465SOL     OW25625   0.344   2.357   5.521 -0.0538 -0.0528 -0.2974
 6465SOL    HW225626   0.288   2.317   5.588 -0.5137 -0.7061 -1.0475
 6465SOL    HW325627   0.286   2.369   5.445 -0.1426  2.7757  0.1170
 6465SOL    MW425628   0.329   2.353   5.520 -0.1262  0.2342 -0.3417
 6466SOL     OW25629   5.172   3.312   2.134 -0.4251  0.5156  0.1662
 6466SOL    HW225630   5.230   3.246   2.096 -0.3972  1.0075 -0.6724
 6466SOL    HW325631   5.157   3.374   2.063 -0.2738  1.5275  0.9904
 6466SOL    MW425632   5.178   3.311   2.120 -0.4014  0.7140  0.1643
 6467SOL     OW25633   4.055   5.557   4.882  0.1639 -0.6678 -0.0720
 6467SOL    HW225634   4.138   5.576   4.925 -0.6305  1.6509  0.6117
 6467SOL    HW325635   4.060   5.603   4.798 -0.9155  0.7189  0.5788
 6467SOL    MW425636   4.066   5.566   4.876 -0.0833 -0.1789  0.1041
 6468SOL     OW25637   1.837   0.104   1.911  0.5526  0.8424 -0.3715
 6468SOL    HW225638   1.828   0.199   1.907 -1.5718  0.7107  0.0239
 6468SOL    HW325639   1.827   0.083   2.004 -0.4748  0.1340 -0.6293
 6468SOL    MW425640   1.834   0.114   1.923  0.1368  0.7316 -0.3533
 6469SOL     OW25641   4.461   4.046   0.196 -0.1453 -0.1645 -0.3667
 6469SOL    HW225642   4.447   4.087   0.281 -0.8255 -0.2124 -0.4524
 6469SOL    HW325643   4.438   4.114   0.132 -1.8949 -0.8445 -0.5148
 6469SOL    MW425644   4.456   4.060   0.199 -0.4659 -0.2606 -0.3975
 6470SOL     OW25645   2.319   5.433   6.423 -0.1091  0.2077 -0.1194
 6470SOL    HW225646   2.247   5.382   6.386 -0.2579  0.3425 -0.0182
 6470SOL    HW325647   2.394   5.373   6.421 -0.0457  0.3051 -0.8833
 6470SOL    MW425648   2.320   5.418   6.418 -0.1204  0.2383 -0.2068
 6471SOL     OW25649   3.205   3.390   0.245 -0.5683 -0.1835 -0.1122
 6471SOL    HW225650   3.187   3.361   0.335  1.4889  0.4940  0.5940
 6471SOL    HW325651   3.198   3.311   0.192  3.2360 -1.8277  1.4701
 6471SOL    MW425652   3.202   3.376   0.250  0.2051 -0.3110  0.1897
 6472SOL     OW25653   0.251   3.600   4.809 -0.3335 -0.8068 -0.1098
 6472SOL    HW225654   0.279   3.647   4.887  0.5967 -0.7315 -0.4719
 6472SOL    HW325655   0.321   3.616   4.746  0.1420 -2.9062 -0.1605
 6472SOL    MW425656   0.264   3.609   4.811 -0.1480 -1.0738 -0.1643
 6473SOL     OW25657   2.286   0.014   5.587 -0.2106 -0.5082  0.1905
 6473SOL    HW225658   2.268   0.066   5.666 -0.0360 -1.3849  0.8275
 6473SOL    HW325659   2.309  -0.072   5.621 -0.4855 -0.9968 -0.8504
 6473SOL    MW425660   2.287   0.010   5.602 -0.2238 -0.6884  0.1372
 6474SOL     OW25661   1.052   0.105   5.532  0.2863  0.2771 -0.5175
 6474SOL    HW225662   0.958   0.088   5.524  0.4037 -0.1830 -1.0076
 6474SOL    HW325663   1.060   0.200   5.532  0.0334  0.3720 -3.4139
 6474SOL    MW425664   1.041   0.115   5.531  0.2685  0.2289 -0.9643
 6475SOL     OW25665   2.071   0.173   3.589  0.1361 -0.7589  0.4034
 6475SOL    HW225666   2.002   0.106   3.585 -0.0454 -0.5999  0.8111
 6475SOL    HW325667   2.118   0.154   3.670  1.1051 -1.3780 -0.2862
 6475SOL    MW425668   2.068   0.162   3.599  0.2400 -0.8196  0.3662
 6476SOL     OW25669   4.491   4.507   1.650  0.4913 -0.3953 -0.0234
 6476SOL    HW225670   4.561   4.507   1.715 -0.6785 -0.7265  1.3001
 6476SOL    HW325671   4.523   4.450   1.580  0.8838 -1.9144  1.3307
 6476SOL    MW425672   4.504   4.499   1.650  0.3888 -0.6395  0.3298
 6477SOL     OW25673   1.271   2.328   0.398 -0.4378  0.2811  0.1886
 6477SOL    HW225674   1.208   2.281   0.453 -0.5087  0.3932  0.2046
 6477SOL    HW325675   1.218   2.396   0.356 -0.7157 -0.7297 -1.1788
 6477SOL    MW425676   1.256   2.331   0.399 -0.4838  0.1625  0.0103
 6478SOL     OW25677   0.378   1.517   1.165 -0.3932 -0.2577 -0.7109
 6478SOL    HW225678   0.457   1.571   1.170  1.0387 -2.1174 -1.8138
 6478SOL    HW325679   0.311   1.575   1.131  1.3993  0.5551 -3.0974
 6478SOL    MW425680   0.380   1.531   1.161  0.0322 -0.3958 -1.1713
 6479SOL     OW25681   2.282   0.482   0.737 -0.0061  0.1292  0.0077
 6479SOL    HW225682   2.329   0.432   0.803 -0.3180 -0.2007 -0.0207
 6479SOL    HW325683   2.348   0.540   0.699  0.4629 -0.6069 -0.3076
 6479SOL    MW425684   2.297   0.483   0.741  0.0146 -0.0114 -0.0377
 6480SOL     OW25685   4.804   2.565   4.406 -0.2739 -0.7891  0.1571
 6480SOL    HW225686   4.781   2.595   4.317  2.0298 -1.4370 -0.7116
 6480SOL    HW325687   4.780   2.472   4.407  1.5457 -1.2959 -0.5208
 6480SOL    MW425688   4.798   2.557   4.394  0.2701 -0.9415 -0.0470
 6481SOL     OW25689   0.033   5.972   0.439  0.2718  0.0735 -0.3566
 6481SOL    HW225690   0.054   5.879   0.446 -1.1349 -0.3717 -1.5408
 6481SOL    HW325691  -0.051   5.974   0.392  0.5117  1.9614 -0.7740
 6481SOL    MW425692   0.025   5.960   0.434  0.1179  0.2639 -0.5679
 6482SOL     OW25693   3.748   2.469   3.752  0.0961 -0.1856 -0.3191
 6482SOL    HW225694   3.764   2.398   3.690  0.3387 -0.8293  0.4518
 6482SOL    HW325695   3.748   2.426   3.838  1.0728  0.8700  0.2346
 6482SOL    MW425696   3.750   2.454   3.755  0.2570 -0.1313 -0.1443
 6483SOL     OW25697   0.616   4.686   0.384 -0.3100 -0.6440  0.2896
 6483SOL    HW225698   0.681   4.686   0.455 -1.2008 -0.7524  1.1378
 6483SOL    HW325699   0.538   4.647   0.424 -0.3313 -2.3246 -1.2540
 6483SOL    MW425700   0.614   4.681   0.399 -0.4304 -0.8800  0.1978
 6484SOL     OW25701   1.644   5.678   5.877 -0.9035 -0.4402 -0.0685
 6484SOL    HW225702   1.627   5.709   5.966 -0.4884 -2.8645  0.9495
 6484SOL    HW325703   1.604   5.591   5.874 -0.4127 -0.6476 -2.0798
 6484SOL    MW425704   1.636   5.670   5.889 -0.7840 -0.7874 -0.1996
 6485SOL     OW25705   5.615   1.570   4.586  0.7992 -0.2884  0.0909
 6485SOL    HW225706   5.558   1.514   4.639 -1.9254  0.2432 -2.0358
 6485SOL    HW325707   5.636   1.517   4.509  0.7234  0.5523 -0.5218
 6485SOL    MW425708   5.610   1.555   4.583  0.4297 -0.1073 -0.2705
 6486SOL     OW25709   0.319   2.809   0.279 -0.5952 -0.2468  0.4592
 6486SOL    HW225710   0.388   2.871   0.304 -1.4546  1.0735 -0.3127
 6486SOL    HW325711   0.321   2.810   0.183 -2.0312  0.2453  0.4142
 6486SOL    MW425712   0.329   2.817   0.270 -0.8980 -0.0077  0.3514
 6487SOL     OW25713   0.400   2.637   4.748  0.5699 -0.3528 -0.2653
 6487SOL    HW225714   0.458   2.569   4.782 -0.1340 -1.0216 -0.3946
 6487SOL    HW325715   0.422   2.715   4.799 -0.5647 -1.3615  1.8606
 6487SOL    MW425716   0.411   2.638   4.759  0.3273 -0.5741 -0.0019
 6488SOL     OW25717   4.026   3.069   5.797  0.5796  0.5711  0.1569
 6488SOL    HW225718   4.070   3.125   5.861  0.2490  0.7969  0.1901
 6488SOL    HW325719   3.950   3.121   5.768  0.8128  0.5343 -0.5309
 6488SOL    MW425720   4.021   3.084   5.801  0.5667  0.5960  0.0705
 6489SOL     OW25721   3.529   1.820   2.637  0.0806  0.5505 -0.0539
 6489SOL    HW225722   3.604   1.877   2.653  0.0255 -0.0211  2.8270
 6489SOL    HW325723   3.455   1.868   2.675 -0.6044  0.0941 -0.7971
 6489SOL    MW425724   3.529   1.834   2.644 -0.0170  0.4149  0.2281
 6490SOL     OW25725   1.016   1.001   4.104  0.2713  0.2074  0.4755
 6490SOL    HW225726   1.053   1.049   4.030  0.1024  2.1684  1.5884
 6490SOL    HW325727   0.939   1.053   4.130  0.0489 -0.6916  1.7189
 6490SOL    MW425728   1.011   1.014   4.098  0.2197  0.3475  0.7864
 6491SOL     OW25729   4.705   5.757   6.328 -0.3019  0.1974  0.1376
 6491SOL    HW225730   4.692   5.725   6.238 -1.4094 -0.9570  0.6780
 6491SOL    HW325731   4.724   5.678   6.378 -0.6613  0.7104  1.0942
 6491SOL    MW425732   4.706   5.742   6.322 -0.4954  0.1128  0.3351
 6492SOL     OW25733   3.357   6.389   3.329 -0.2890  0.2274 -0.4169
 6492SOL    HW225734   3.423   6.379   3.398 -0.5617 -0.5570 -0.2602
 6492SOL    HW325735   3.396   6.350   3.252 -0.8158 -0.8431 -0.1578
 6492SOL    MW425736   3.371   6.383   3.328 -0.3945 -0.0174 -0.3621
 6493SOL     OW25737   4.371   4.600   0.776 -0.1913 -0.0005  0.0014
 6493SOL    HW225738   4.288   4.606   0.822  0.0684  4.1585  0.2649
 6493SOL    HW325739   4.347   4.597   0.684 -0.5817 -4.0377  0.0471
 6493SOL    MW425740   4.357   4.600   0.770 -0.2085  0.0156  0.0422
 6494SOL     OW25741   2.009   3.959   3.500  0.2109  0.3343 -0.2016
 6494SOL    HW225742   1.992   4.052   3.510 -0.8493  0.3745 -1.9419
 6494SOL    HW325743   1.935   3.916   3.544  0.8763  0.2713  0.9025
 6494SOL    MW425744   1.997   3.966   3.507  0.1588  0.3313 -0.2855
 6495SOL     OW25745   2.258   2.062   3.780  0.2924  0.6336  0.2334
 6495SOL    HW225746   2.263   2.157   3.789 -0.3512  0.7426 -0.4805
 6495SOL    HW325747   2.165   2.042   3.789  0.3296  0.1547 -0.3949
 6495SOL    MW425748   2.247   2.072   3.783  0.2124  0.5848  0.0563
 6496SOL     OW25749   1.008   4.078   3.483 -0.3524  0.6230  0.0389
 6496SOL    HW225750   0.969   4.165   3.476 -1.0051  0.3477  0.1730
 6496SOL    HW325751   1.097   4.094   3.516  1.0111  1.5597 -3.6114
 6496SOL    MW425752   1.015   4.091   3.487 -0.2586  0.7103 -0.4250
 6497SOL     OW25753   2.862   3.989   2.545  0.4133  0.0351 -0.3539
 6497SOL    HW225754   2.872   3.962   2.454 -1.0190  1.3745 -0.9474
 6497SOL    HW325755   2.865   3.907   2.594  0.3478 -0.7965 -1.6791
 6497SOL    MW425756   2.863   3.975   2.539  0.2157  0.1021 -0.6071
 6498SOL     OW25757   1.785   0.391   2.512  0.3227  0.7592 -0.0304
 6498SOL    HW225758   1.705   0.387   2.459 -0.1510  0.3243  0.6985
 6498SOL    HW325759   1.855   0.374   2.450 -0.1807  0.7409 -0.6112
 6498SOL    MW425760   1.783   0.388   2.496  0.1938  0.6994 -0.0108
 6499SOL     OW25761   1.422   0.623   5.574 -0.0646  0.4500  0.4504
 6499SOL    HW225762   1.357   0.681   5.615  0.4355  0.9542  0.5298
 6499SOL    HW325763   1.496   0.623   5.635 -0.7100 -1.6208  1.3095
 6499SOL    MW425764   1.423   0.631   5.588 -0.0837  0.2433  0.5742
 6500SOL     OW25765   6.192   5.535   4.251 -0.5418  0.6902  0.8347
 6500SOL    HW225766   6.098   5.518   4.257  0.0784 -3.7141  1.5765
 6500SOL    HW325767   6.210   5.537   4.157 -1.2091  0.4741  0.6955
 6500SOL    MW425768   6.182   5.533   4.239 -0.5480  0.0806  0.9142
 6501SOL     OW25769   1.158   1.023   0.450 -0.0765 -0.0752 -0.2078
 6501SOL    HW225770   1.244   1.043   0.413 -0.6582 -1.0358 -2.2478
 6501SOL    HW325771   1.161   1.057   0.539  2.1877  0.4657 -0.4396
 6501SOL    MW425772   1.170   1.030   0.457  0.1455 -0.1306 -0.5076
 6502SOL     OW25773   2.350   4.476   4.564 -0.1527 -0.4506 -0.0108
 6502SOL    HW225774   2.341   4.523   4.646  0.6288  1.6982 -1.0879
 6502SOL    HW325775   2.445   4.474   4.548 -0.3485  0.3212 -1.4570
 6502SOL    MW425776   2.361   4.482   4.573 -0.0754 -0.0653 -0.3437
 6503SOL     OW25777   2.288   1.288   3.496  0.2031  0.1361 -0.4514
 6503SOL    HW225778   2.333   1.333   3.425  1.1598  1.1147  0.7324
 6503SOL    HW325779   2.358   1.264   3.557 -0.5223 -1.2710 -0.1439
 6503SOL    MW425780   2.303   1.291   3.495  0.2336  0.0796 -0.2547
 6504SOL     OW25781   6.116   6.374   2.397 -0.0436  0.1831 -0.5479
 6504SOL    HW225782   6.157   6.296   2.432  0.0604  0.0388 -0.9865
 6504SOL    HW325783   6.175   6.404   2.328 -1.5595 -1.1402 -2.5584
 6504SOL    MW425784   6.129   6.368   2.392 -0.2299 -0.0105 -0.8711
 6505SOL     OW25785   6.193   2.026   4.316  0.9749 -0.2795 -0.3745
 6505SOL    HW225786   6.236   2.056   4.396  0.0398  0.9112 -0.2845
 6505SOL    HW325787   6.113   2.078   4.311  0.5324 -1.0342 -1.5738
 6505SOL    MW425788   6.188   2.037   4.326  0.7932 -0.2220 -0.5209
 6506SOL     OW25789   4.714   3.885   2.458  0.1675 -0.4527 -0.5884
 6506SOL    HW225790   4.799   3.906   2.495  0.8295 -5.1584  1.1896
 6506SOL    HW325791   4.733   3.845   2.373 -0.6816  1.4143 -1.7544
 6506SOL    MW425792   4.728   3.883   2.451  0.1429 -0.8272 -0.5077
 6507SOL     OW25793   6.101   5.607   0.913  0.1764 -0.4418 -0.3896
 6507SOL    HW225794   6.057   5.692   0.911  1.3740  0.1769 -1.5081
 6507SOL    HW325795   6.183   5.624   0.959 -1.6997 -2.1547  4.2496
 6507SOL    MW425796   6.106   5.621   0.919  0.0869 -0.5862  0.0749
 6508SOL     OW25797   5.193   3.023   4.218 -0.5675  0.1489 -0.4077
 6508SOL    HW225798   5.139   2.980   4.285  0.5865 -0.8330 -0.0741
 6508SOL    HW325799   5.143   3.100   4.192 -0.9460  0.6645  1.7263
 6508SOL    MW425800   5.179   3.027   4.223 -0.4652  0.0874 -0.0821
 6509SOL     OW25801   2.115   6.004   5.617  0.1709  0.2071 -0.9228
 6509SOL    HW225802   2.176   6.076   5.628 -1.1868  1.2568  0.0970
 6509SOL    HW325803   2.036   6.044   5.580  0.0497 -1.1037 -2.1729
 6509SOL    MW425804   2.112   6.018   5.614 -0.0242  0.1727 -0.9532
 6510SOL     OW25805   4.328   0.848   2.582  0.3587 -0.2176 -0.0082
 6510SOL    HW225806   4.268   0.923   2.582 -1.0379 -1.1976 -2.5206
 6510SOL    HW325807   4.284   0.781   2.634 -0.5097 -0.7199 -1.3349
 6510SOL    MW425808   4.314   0.849   2.589  0.0598 -0.4132 -0.5148
 6511SOL     OW25809   3.798   2.529   5.368  0.6629  0.2886  0.0821
 6511SOL    HW225810   3.855   2.517   5.443  1.3669 -0.7080 -0.5862
 6511SOL    HW325811   3.857   2.534   5.293 -0.0969 -0.4653 -0.5900
 6511SOL    MW425812   3.813   2.528   5.368  0.6555  0.0576 -0.0947
 6512SOL     OW25813   1.231   1.007   4.326  0.2848 -0.3898  0.0300
 6512SOL    HW225814   1.150   0.991   4.375  0.3832  0.3674  0.4462
 6512SOL    HW325815   1.295   1.032   4.393  1.4658 -3.0027  0.0008
 6512SOL    MW425816   1.229   1.008   4.341  0.4536 -0.6346  0.0811
 6513SOL     OW25817   2.225   4.875   6.237  0.0737  0.4229  0.3154
 6513SOL    HW225818   2.226   4.924   6.155  1.3169 -0.8161 -0.4493
 6513SOL    HW325819   2.267   4.933   6.300  0.9240  0.6275 -0.4190
 6513SOL    MW425820   2.231   4.889   6.234  0.3499  0.2864  0.1176
 6514SOL     OW25821   5.066   3.163   5.206 -0.1618 -0.2808  0.1317
 6514SOL    HW225822   5.075   3.146   5.113 -0.6168 -1.4407  0.2888
 6514SOL    HW325823   5.152   3.143   5.243  0.1081  0.4724 -0.0671
 6514SOL    MW425824   5.079   3.158   5.199 -0.1862 -0.3344  0.1262
 6515SOL     OW25825   4.489   3.448   4.207  0.0824 -0.2885  0.2807
 6515SOL    HW225826   4.438   3.507   4.151 -0.5292 -0.0466  1.0698
 6515SOL    HW325827   4.575   3.490   4.214 -0.2500  0.3656  0.5793
 6515SOL    MW425828   4.494   3.462   4.201 -0.0421 -0.1703  0.4242
 6516SOL     OW25829   4.773   0.674   2.074 -0.1849 -0.1149  0.3670
 6516SOL    HW225830   4.682   0.671   2.103 -0.2975  1.0808  0.1796
 6516SOL    HW325831   4.823   0.639   2.148 -0.8483 -1.5458  0.1586
 6516SOL    MW425832   4.768   0.669   2.088 -0.2873 -0.1459  0.3148
 6517SOL     OW25833   0.874   3.487   4.795 -0.0613 -0.0542  0.2257
 6517SOL    HW225834   0.866   3.486   4.891  1.3908  0.3089  0.3689
 6517SOL    HW325835   0.787   3.463   4.764 -0.6199  0.0344  1.6360
 6517SOL    MW425836   0.861   3.484   4.804  0.0566  0.0054  0.4306
 6518SOL     OW25837   5.078   0.385   0.268 -0.3242  0.1063  0.5681
 6518SOL    HW225838   5.075   0.477   0.242  0.1772 -0.2322 -0.7519
 6518SOL    HW325839   5.168   0.371   0.296 -0.4216  0.0230  0.8504
 6518SOL    MW425840   5.089   0.395   0.268 -0.2709  0.0507  0.4312
 6519SOL     OW25841   6.005   1.600   3.070 -0.1583  0.0949 -0.0878
 6519SOL    HW225842   5.915   1.629   3.088 -0.2520  0.6316 -1.3043
 6519SOL    HW325843   6.010   1.512   3.107 -0.5546  0.7995  1.7571
 6519SOL    MW425844   5.994   1.592   3.077 -0.2230  0.2587 -0.0049
 6520SOL     OW25845   1.470   2.124   5.297  0.2250 -0.7136 -0.4457
 6520SOL    HW225846   1.484   2.189   5.365 -1.1840 -0.5710 -0.2739
 6520SOL    HW325847   1.441   2.174   5.221  1.8911 -0.8554 -1.2279
 6520SOL    MW425848   1.468   2.139   5.296  0.2589 -0.7135 -0.5262
 6521SOL     OW25849   0.304   5.132   6.128 -0.1434  0.0853 -1.1624
 6521SOL    HW225850   0.353   5.051   6.145 -2.7398 -1.4826 -0.7072
 6521SOL    HW325851   0.349   5.171   6.053  2.1022 -0.9424 -0.4312
 6521SOL    MW425852   0.317   5.127   6.120 -0.1896 -0.2572 -1.0059
 6522SOL     OW25853   2.330   3.137   3.169  0.1956 -0.0908 -0.1711
 6522SOL    HW225854   2.303   3.063   3.223 -2.8636  1.3790  0.5175
 6522SOL    HW325855   2.372   3.197   3.230  0.7123 -0.3032 -0.3119
 6522SOL    MW425856   2.332   3.135   3.184 -0.1399  0.0751 -0.0988
 6523SOL     OW25857   5.865   5.962   2.336  0.2071  0.0268 -0.9019
 6523SOL    HW225858   5.795   5.958   2.401  0.1760 -1.5289 -1.0096
 6523SOL    HW325859   5.840   5.898   2.269  1.1457  0.3008 -1.5309
 6523SOL    MW425860   5.852   5.953   2.336  0.3268 -0.1423 -0.9991
 6524SOL     OW25861   3.367   0.101   0.326  0.1102 -0.3529  0.1432
 6524SOL    HW225862   3.414   0.163   0.381 -0.7971  0.5795 -0.1184
 6524SOL    HW325863   3.430   0.078   0.257 -0.3328  2.2748 -1.2584
 6524SOL    MW425864   3.382   0.106   0.324 -0.0680  0.1168 -0.0763
 6525SOL     OW25865   6.079   4.566   5.144  0.1354 -0.2600 -0.8323
 6525SOL    HW225866   5.988   4.589   5.164 -0.5154 -2.0233 -1.4772
 6525SOL    HW325867   6.072   4.506   5.070  1.7859 -0.9299 -0.4920
 6525SOL    MW425868   6.066   4.561   5.137  0.2673 -0.5810 -0.8725
 6526SOL     OW25869   3.700   1.846   2.114  0.5292  0.2851  0.7552
 6526SOL    HW225870   3.785   1.889   2.125  1.0674 -0.2787 -0.9451
 6526SOL    HW325871   3.638   1.906   2.154  1.5606  1.4622  0.6480
 6526SOL    MW425872   3.703   1.860   2.121  0.7363  0.3660  0.5167
 6527SOL     OW25873   4.894   6.077   0.826  0.3309  0.5327  0.0359
 6527SOL    HW225874   4.956   6.148   0.843 -0.0387  0.5410  1.5354
 6527SOL    HW325875   4.811   6.109   0.861 -0.0370 -0.3054 -0.0464
 6527SOL    MW425876   4.892   6.090   0.833  0.2336  0.4232  0.2229
 6528SOL     OW25877   5.952   1.421   2.012 -0.0025  0.4155 -0.4638
 6528SOL    HW225878   6.028   1.476   1.991 -0.7544  1.2024 -1.2043
 6528SOL    HW325879   5.933   1.376   1.930 -0.0581 -0.1240 -0.1516
 6528SOL    MW425880   5.960   1.423   1.998 -0.1090  0.4482 -0.5203
 6529SOL     OW25881   2.891   4.213   2.335  0.0016  0.2237 -0.4844
 6529SOL    HW225882   2.825   4.145   2.346  1.1130 -0.8110 -0.0241
 6529SOL    HW325883   2.918   4.205   2.243 -0.5207  0.6695 -0.6820
 6529SOL    MW425884   2.886   4.203   2.324  0.0793  0.1460 -0.4497
 6530SOL     OW25885   4.604   5.430   0.898 -0.2393  0.5445 -0.3862
 6530SOL    HW225886   4.512   5.422   0.922 -0.3097  0.5565 -0.6478
 6530SOL    HW325887   4.604   5.487   0.821  0.1102  1.7351  0.4655
 6530SOL    MW425888   4.592   5.436   0.891 -0.2025  0.7032 -0.3083
 6531SOL     OW25889   2.459   5.432   5.924  0.4782 -0.0083  0.3409
 6531SOL    HW225890   2.372   5.417   5.961  0.1441  0.6855 -0.1221
 6531SOL    HW325891   2.501   5.493   5.985  1.5478 -2.1240  1.8166
 6531SOL    MW425892   2.453   5.438   5.937  0.5752 -0.1959  0.4745
 6532SOL     OW25893   4.450   0.783   3.711 -0.1506 -0.3228 -0.8258
 6532SOL    HW225894   4.538   0.809   3.682 -0.4636  0.8373 -0.8015
 6532SOL    HW325895   4.394   0.798   3.635 -0.5826  0.4960 -0.3708
 6532SOL    MW425896   4.454   0.789   3.697 -0.2489 -0.0617 -0.7625
 6533SOL     OW25897   3.040   1.704   1.898 -0.3924 -0.6107 -0.4797
 6533SOL    HW225898   3.090   1.685   1.978 -1.1789 -1.8854 -0.2671
 6533SOL    HW325899   3.084   1.780   1.861 -0.9550  1.0504  1.9833
 6533SOL    MW425900   3.053   1.711   1.904 -0.5704 -0.5598 -0.1267
 6534SOL     OW25901   6.275   6.158   1.190  0.2491 -0.1299 -0.2974
 6534SOL    HW225902   6.265   6.243   1.147 -1.6974 -0.3470 -0.3545
 6534SOL    HW325903   6.220   6.098   1.139 -0.1827 -0.9167  1.0318
 6534SOL    MW425904   6.266   6.161   1.178 -0.0647 -0.2624 -0.1295
 6535SOL     OW25905   6.034   3.473   0.028  0.6048 -0.0542  0.2033
 6535SOL    HW225906   5.994   3.481  -0.059 -0.5114 -1.7231  0.5266
 6535SOL    HW325907   6.031   3.562   0.063 -0.4422  0.3519 -0.8296
 6535SOL    MW425908   6.028   3.486   0.021  0.3194 -0.2208  0.1097
 6536SOL     OW25909   1.758   3.365   0.090  0.5234 -0.4199 -0.0200
 6536SOL    HW225910   1.695   3.437   0.088  0.0669 -0.8119  0.1587
 6536SOL    HW325911   1.838   3.405   0.124  0.7806  0.3957 -1.4832
 6536SOL    MW425912   1.760   3.380   0.094  0.4971 -0.3640 -0.1894
 6537SOL     OW25913   4.039   1.286   1.233 -0.2076  0.1758  0.2996
 6537SOL    HW225914   4.102   1.344   1.275 -0.7325  0.3701  0.8419
 6537SOL    HW325915   3.983   1.256   1.304 -1.1403  0.5330 -0.2534
 6537SOL    MW425916   4.040   1.290   1.248 -0.3999  0.2485  0.2982
 6538SOL     OW25917   2.894   4.877   3.859 -0.0665 -0.4540  0.5672
 6538SOL    HW225918   2.907   4.959   3.906  0.1578 -1.4707  2.3408
 6538SOL    HW325919   2.800   4.861   3.864 -0.0557 -0.5134  0.5781
 6538SOL    MW425920   2.884   4.886   3.866 -0.0355 -0.5960  0.8027
 6539SOL     OW25921   1.142   0.024   3.447 -0.5867  0.9873 -0.5455
 6539SOL    HW225922   1.124   0.019   3.353 -0.0724  0.1944 -0.6102
 6539SOL    HW325923   1.056   0.011   3.488 -0.5656 -0.4476 -0.8850
 6539SOL    MW425924   1.128   0.021   3.440 -0.5161  0.6934 -0.5988
 6540SOL     OW25925   1.265   3.471   2.856  0.8080  0.3048 -0.5668
 6540SOL    HW225926   1.223   3.394   2.893  0.8544  1.2562  1.5823
 6540SOL    HW325927   1.193   3.532   2.838  0.9062  0.3446 -0.8420
 6540SOL    MW425928   1.250   3.469   2.858  0.8271  0.4356 -0.3196
 6541SOL     OW25929   5.545   2.808   3.510 -0.0620 -0.3855  0.1490
 6541SOL    HW225930   5.451   2.808   3.531  0.1466 -0.6820  1.1636
 6541SOL    HW325931   5.554   2.743   3.440 -0.6925  0.0939 -0.3955
 6541SOL    MW425932   5.534   2.799   3.504 -0.1176 -0.3614  0.2110
 6542SOL     OW25933   4.014   4.091   0.935  0.2729 -0.4140  0.0067
 6542SOL    HW225934   4.100   4.093   0.893  1.4696  1.5537  2.3348
 6542SOL    HW325935   3.954   4.123   0.867  1.7607  0.5385 -0.9280
 6542SOL    MW425936   4.018   4.095   0.920  0.6271 -0.0287  0.1905
 6543SOL     OW25937   0.806   3.724   2.735  0.0749 -0.2282 -0.2873
 6543SOL    HW225938   0.773   3.749   2.821  2.9195 -1.7600  1.3792
 6543SOL    HW325939   0.764   3.640   2.717 -0.1892 -0.1129 -0.2252
 6543SOL    MW425940   0.796   3.716   2.744  0.4153 -0.4151 -0.0592
 6544SOL     OW25941   6.248   2.711   5.523 -0.0842 -0.1534 -0.0369
 6544SOL    HW225942   6.166   2.664   5.538  0.1151 -0.9991 -1.4530
 6544SOL    HW325943   6.237   2.753   5.438  0.1792  1.4789  0.6875
 6544SOL    MW425944   6.236   2.710   5.514 -0.0232 -0.0496 -0.1282
 6545SOL     OW25945   5.367   3.186   3.098  0.5882  0.1596 -0.4423
 6545SOL    HW225946   5.273   3.183   3.112  0.0231 -0.4730 -3.6250
 6545SOL    HW325947   5.398   3.100   3.128  0.6693  1.1431  2.7538
 6545SOL    MW425948   5.359   3.174   3.104  0.5244  0.2059 -0.4406
 6546SOL     OW25949   5.693   1.436   6.298 -0.3708 -0.7468  0.7287
 6546SOL    HW225950   5.780   1.429   6.259 -0.5982  0.6800 -0.1088
 6546SOL    HW325951   5.699   1.385   6.378  0.8888 -1.6286  0.1091
 6546SOL    MW425952   5.705   1.429   6.303 -0.2346 -0.6749  0.5364
 6547SOL     OW25953   3.303   2.715   1.505 -0.0394  0.8218 -0.3284
 6547SOL    HW225954   3.251   2.680   1.433  1.6976  0.0016 -1.2594
 6547SOL    HW325955   3.272   2.805   1.515 -3.4939 -0.3828  1.0488
 6547SOL    MW425956   3.292   2.722   1.497 -0.2660  0.5547 -0.2695
 6548SOL     OW25957   4.562   2.576   0.859  0.1710 -1.0845 -0.1998
 6548SOL    HW225958   4.492   2.526   0.817 -1.1297  1.3835 -1.1766
 6548SOL    HW325959   4.521   2.614   0.937  0.9980 -1.1505  0.2856
 6548SOL    MW425960   4.548   2.575   0.864  0.1085 -0.7676 -0.2646
 6549SOL     OW25961   2.063   4.073   5.316  0.2007  0.4743 -0.0406
 6549SOL    HW225962   2.052   3.981   5.338 -1.0797  0.6684  0.2671
 6549SOL    HW325963   2.056   4.077   5.221 -0.2048  0.2914 -0.0226
 6549SOL    MW425964   2.060   4.062   5.307 -0.0217  0.4758  0.0024
 6550SOL     OW25965   3.250   5.475   2.069  0.0242  0.6554 -0.4677
 6550SOL    HW225966   3.311   5.410   2.034 -0.8291  0.1738 -1.0910
 6550SOL    HW325967   3.214   5.435   2.148 -0.1210  0.5860 -0.5694
 6550SOL    MW425968   3.254   5.461   2.075 -0.1075  0.5827 -0.5634
 6551SOL     OW25969   1.870   6.290   6.245 -0.3888  0.6059 -0.0355
 6551SOL    HW225970   1.915   6.373   6.261  0.5609  0.8958 -3.4298
 6551SOL    HW325971   1.792   6.315   6.194 -1.2093 -0.4401  0.6617
 6551SOL    MW425972   1.865   6.305   6.240 -0.3717  0.5062 -0.3913
 6552SOL     OW25973   0.734   4.295   2.392  0.0884  0.3014 -0.1315
 6552SOL    HW225974   0.694   4.374   2.355 -1.0171 -1.1566 -2.2932
 6552SOL    HW325975   0.671   4.226   2.374  0.0648 -0.8560  3.4912
 6552SOL    MW425976   0.720   4.296   2.385 -0.0605 -0.0437  0.0612
 6553SOL     OW25977   1.042   1.472   3.503  0.5321 -0.2990  0.7959
 6553SOL    HW225978   0.955   1.505   3.525  0.7888 -0.7238  2.6367
 6553SOL    HW325979   1.054   1.495   3.411 -1.4423 -0.0795  0.5469
 6553SOL    MW425980   1.032   1.480   3.494  0.3054 -0.3261  1.0059
 6554SOL     OW25981   3.502   4.286   1.936  0.2076 -0.2956 -0.1174
 6554SOL    HW225982   3.477   4.337   1.859 -1.3764 -1.3618 -0.3681
 6554SOL    HW325983   3.574   4.231   1.906  0.4546  0.2046 -0.4639
 6554SOL    MW425984   3.508   4.285   1.922  0.0312 -0.3703 -0.1962
 6555SOL     OW25985   0.549   5.847   4.850  0.8143 -0.6777 -0.2015
 6555SOL    HW225986   0.604   5.808   4.782  1.3584  0.2067 -0.2923
 6555SOL    HW325987   0.500   5.774   4.887 -1.4233 -0.9227 -3.2352
 6555SOL    MW425988   0.550   5.833   4.846  0.5909 -0.5933 -0.6137
 6556SOL     OW25989   1.770   4.578   5.888  0.0564 -0.0446  0.0002
 6556SOL    HW225990   1.772   4.674   5.893 -2.4363  0.0488  0.7241
 6556SOL    HW325991   1.760   4.559   5.794 -0.4285  0.4650 -0.0562
 6556SOL    MW425992   1.769   4.588   5.876 -0.3364  0.0350  0.0883
 6557SOL     OW25993   4.430   0.506   0.481  0.1180 -0.1728  0.3883
 6557SOL    HW225994   4.518   0.484   0.449  0.2327  1.0686 -0.2233
 6557SOL    HW325995   4.444   0.536   0.571  0.2597 -0.3801  0.4363
 6557SOL    MW425996   4.444   0.507   0.489  0.1518 -0.0363  0.3139
 6558SOL     OW25997   5.971   6.198   3.091 -0.1914 -0.4036 -0.2782
 6558SOL    HW225998   6.028   6.167   3.021  0.3417 -0.7696  0.3065
 6558SOL    HW325999   5.965   6.292   3.078  2.9337  0.1504  1.2978
 6558SOL    MW426000   5.977   6.206   3.080  0.2912 -0.3788  0.0069
 6559SOL     OW26001   3.564   1.681   0.151  0.0616 -0.2665 -0.2977
 6559SOL    HW226002   3.649   1.638   0.164  0.8641  1.3746  0.1037
 6559SOL    HW326003   3.548   1.727   0.233 -1.2290 -0.5329 -0.3822
 6559SOL    MW426004   3.573   1.681   0.163 -0.0028 -0.0851 -0.2559
 6560SOL     OW26005   1.389   0.228   0.806 -0.4515  0.0420 -0.0634
 6560SOL    HW226006   1.469   0.180   0.782  0.1586  1.1994 -0.4488
 6560SOL    HW326007   1.339   0.166   0.859 -0.1179 -1.3193 -1.2602
 6560SOL    MW426008   1.393   0.213   0.810 -0.3270  0.0151 -0.2721
 6561SOL     OW26009   3.566   6.118   3.519  0.2123  0.3947  0.6713
 6561SOL    HW226010   3.573   6.141   3.612 -0.1102 -2.8060  1.6230
 6561SOL    HW326011   3.494   6.055   3.515  1.6470 -1.2649 -1.3463
 6561SOL    MW426012   3.557   6.113   3.531  0.3590 -0.2466  0.5307
 6562SOL     OW26013   0.021   3.264   5.022 -0.3646 -0.1579  0.0509
 6562SOL    HW226014   0.011   3.341   4.967 -0.2704  0.0979  0.3866
 6562SOL    HW326015  -0.055   3.210   5.002 -1.7510  1.1083  1.5363
 6562SOL    MW426016   0.009   3.267   5.012 -0.5351  0.0429  0.2912
 6563SOL     OW26017   1.005   2.634   5.086  0.1792  0.9429  0.4411
 6563SOL    HW226018   1.044   2.556   5.125 -2.4960  0.4825  2.4383
 6563SOL    HW326019   1.036   2.633   4.995  2.1366 -1.0800  1.0455
 6563SOL    MW426020   1.014   2.623   5.079  0.0845  0.6153  0.7844
 6564SOL     OW26021   4.416   6.362   0.941  0.4421 -0.1665 -0.2232
 6564SOL    HW226022   4.346   6.310   0.903  0.4608 -0.0224 -0.4532
 6564SOL    HW326023   4.479   6.298   0.975  0.2395 -0.2949 -0.0884
 6564SOL    MW426024   4.415   6.347   0.941  0.4179 -0.1645 -0.2358
 6565SOL     OW26025   5.392   5.110   2.783 -0.2430 -0.0809 -0.5711
 6565SOL    HW226026   5.311   5.161   2.778  0.5029  1.2960  0.7147
 6565SOL    HW326027   5.420   5.118   2.874  3.4992  3.0836 -1.7329
 6565SOL    MW426028   5.385   5.118   2.794  0.3492  0.5183 -0.5547
 6566SOL     OW26029   5.365   0.035   3.101 -0.2423  0.1334 -0.5580
 6566SOL    HW226030   5.272   0.058   3.105 -0.3125 -0.3648  0.9592
 6566SOL    HW326031   5.369  -0.057   3.127  0.6583  0.0503 -0.9373
 6566SOL    MW426032   5.354   0.026   3.105 -0.1328  0.0567 -0.4079
 6567SOL     OW26033   6.040   1.377   1.537  0.4464 -0.3742  0.6319
 6567SOL    HW226034   6.098   1.330   1.597 -0.0220 -2.0256 -0.1434
 6567SOL    HW326035   5.974   1.312   1.512  1.5193 -0.3088 -2.8836
 6567SOL    MW426036   6.039   1.362   1.542  0.5261 -0.5834  0.0658
 6568SOL     OW26037   2.515   2.556   1.058  0.2455  0.1048 -0.4238
 6568SOL    HW226038   2.567   2.532   0.981 -1.6393 -0.6762 -1.5327
 6568SOL    HW326039   2.580   2.570   1.127  2.0595  1.2696 -2.2226
 6568SOL    MW426040   2.531   2.555   1.057  0.2362  0.1554 -0.8075
 6569SOL     OW26041   1.521   5.074   4.445 -0.0265 -0.1872  0.1577
 6569SOL    HW226042   1.522   5.094   4.351 -1.2445 -2.4221 -0.3999
 6569SOL    HW326043   1.442   5.118   4.477 -0.0114 -0.0321 -0.0112
 6569SOL    MW426044   1.510   5.083   4.437 -0.1852 -0.4616  0.0618
 6570SOL     OW26045   0.336   5.908   5.132  0.0055  0.4837 -0.1604
 6570SOL    HW226046   0.370   5.976   5.074 -0.8378 -0.6130 -2.0417
 6570SOL    HW326047   0.254   5.943   5.166 -1.1193 -0.0324 -2.1828
 6570SOL    MW426048   0.330   5.921   5.129 -0.2542  0.2709 -0.6754
 6571SOL     OW26049   4.059   5.395   1.061  0.7744 -0.0322 -0.5831
 6571SOL    HW226050   4.030   5.327   1.000  1.7221 -0.6216 -0.3912
 6571SOL    HW326051   4.034   5.362   1.147 -2.7174  1.8572 -0.7067
 6571SOL    MW426052   4.052   5.381   1.064  0.4387  0.1393 -0.5741
 6572SOL     OW26053   5.504   4.646   3.545  0.4153 -0.0893 -0.4860
 6572SOL    HW226054   5.447   4.619   3.474 -0.7612 -2.3085  1.1809
 6572SOL    HW326055   5.579   4.587   3.540  0.6525  0.1859 -0.2748
 6572SOL    MW426056   5.507   4.635   3.535  0.2913 -0.3458 -0.2382
 6573SOL     OW26057   0.737   0.346   3.213 -0.3330  0.3253 -0.5229
 6573SOL    HW226058   0.726   0.251   3.222  2.4964 -0.3407 -2.6451
 6573SOL    HW326059   0.764   0.375   3.300 -0.0701 -1.0378 -0.1192
 6573SOL    MW426060   0.739   0.337   3.226  0.0750  0.0576 -0.7496
 6574SOL     OW26061   4.586   1.681   5.386 -0.3161  0.1490  0.1478
 6574SOL    HW226062   4.599   1.774   5.403 -0.4227  0.4127 -1.0815
 6574SOL    HW326063   4.667   1.654   5.341 -0.4710 -0.2364  0.0975
 6574SOL    MW426064   4.598   1.690   5.382 -0.3506  0.1329 -0.0210
 6575SOL     OW26065   5.222   5.745   3.109  0.2201 -0.4534  0.8403
 6575SOL    HW226066   5.205   5.775   3.020  0.1138 -1.0064  0.6705
 6575SOL    HW326067   5.313   5.714   3.107  0.7269  0.9238  1.3153
 6575SOL    MW426068   5.232   5.745   3.097  0.2730 -0.3446  0.8806
 6576SOL     OW26069   0.365   1.161   1.154  0.1339  0.3978  0.3147
 6576SOL    HW226070   0.458   1.182   1.165  0.0479 -0.1624  2.6251
 6576SOL    HW326071   0.348   1.092   1.218 -1.6645 -0.2310 -0.7586
 6576SOL    MW426072   0.375   1.155   1.164 -0.1148  0.2409  0.4779
 6577SOL     OW26073   0.662   4.572   0.122  0.0440 -0.1401  0.1273
 6577SOL    HW226074   0.651   4.607   0.211 -1.6137 -2.2510  0.8587
 6577SOL    HW326075   0.574   4.575   0.084  0.3892 -0.9246 -0.7734
 6577SOL    MW426076   0.649   4.577   0.129 -0.1292 -0.5221  0.1049
 6578SOL     OW26077   0.101   1.193   3.261  0.3730  0.1251  0.0977
 6578SOL    HW226078   0.041   1.234   3.199  0.6413  1.4050  0.6490
 6578SOL    HW326079   0.044   1.160   3.331  0.2759  1.0721  0.4748
 6578SOL    MW426080   0.085   1.194   3.262  0.3956  0.4189  0.2202
 6579SOL     OW26081   4.493   3.718   2.520 -0.4009 -0.3024  0.1478
 6579SOL    HW226082   4.568   3.777   2.510 -0.6315 -0.1148 -0.4891
 6579SOL    HW326083   4.470   3.725   2.613  0.8459 -0.9405  0.5353
 6579SOL    MW426084   4.500   3.727   2.531 -0.2668 -0.3619  0.1149
 6580SOL     OW26085   5.469   6.318   0.059  0.1064 -0.3668  0.4353
 6580SOL    HW226086   5.457   6.241   0.115 -0.0038 -0.5750  0.1262
 6580SOL    HW326087   5.387   6.326   0.011  0.7330 -1.0898 -0.8092
 6580SOL    MW426088   5.457   6.308   0.060  0.1745 -0.4897  0.2303
 6581SOL     OW26089   6.145   0.746   5.873  0.0979 -0.3407  0.3726
 6581SOL    HW226090   6.209   0.759   5.943 -0.2640 -1.7723  0.9988
 6581SOL    HW326091   6.153   0.825   5.818  1.6554 -0.0239  1.0107
 6581SOL    MW426092   6.155   0.758   5.875  0.2557 -0.4878  0.5394
 6582SOL     OW26093   1.386   2.762   2.716  0.0393 -0.1032 -0.0854
 6582SOL    HW226094   1.481   2.767   2.721 -0.0257  0.8765  0.2690
 6582SOL    HW326095   1.369   2.700   2.645  0.9285 -1.4766  0.8426
 6582SOL    MW426096   1.396   2.754   2.707  0.1480 -0.1552  0.0838
 6583SOL     OW26097   6.196   5.128   1.088  0.4408  0.3339  0.0260
 6583SOL    HW226098   6.153   5.212   1.103  0.1955  0.2932 -0.4613
 6583SOL    HW326099   6.286   5.142   1.118  0.0297  0.3206  1.3505
 6583SOL    MW426100   6.202   5.141   1.094  0.3542  0.3268  0.1364
 6584SOL     OW26101   3.986   0.350   5.536 -0.3012 -0.4110 -0.0315
 6584SOL    HW226102   3.940   0.361   5.453  0.5482  2.7554 -0.2326
 6584SOL    HW326103   3.924   0.384   5.602  0.8293  2.0345 -0.0880
 6584SOL    MW426104   3.971   0.356   5.534 -0.0400  0.3294 -0.0655
 6585SOL     OW26105   2.050   1.596   2.371  0.2639  0.0133 -0.1314
 6585SOL    HW226106   2.002   1.597   2.288  0.2187  1.8207 -0.1212
 6585SOL    HW326107   2.142   1.596   2.345  0.2600  1.7500 -0.2232
 6585SOL    MW426108   2.056   1.596   2.357  0.2574  0.4809 -0.1422
 6586SOL     OW26109   4.237   6.307   2.576  0.6181  0.3767 -0.8154
 6586SOL    HW226110   4.246   6.299   2.481 -0.5858  2.0968 -1.1166
 6586SOL    HW326111   4.165   6.249   2.598 -0.1075  1.1170 -1.1934
 6586SOL    MW426112   4.229   6.298   2.566  0.3635  0.7013 -0.9050
 6587SOL     OW26113   1.459   6.245   3.132  0.4023  0.3143 -0.0751
 6587SOL    HW226114   1.395   6.180   3.103  1.0599  0.4313 -1.9237
 6587SOL    HW326115   1.483   6.217   3.220 -1.9533  0.1215  0.5557
 6587SOL    MW426116   1.454   6.233   3.140  0.1782  0.3043 -0.2358
 6588SOL     OW26117   2.154   3.607   3.878  0.1898  1.0762 -0.5930
 6588SOL    HW226118   2.074   3.635   3.833 -0.4165  0.0251 -0.2058
 6588SOL    HW326119   2.163   3.514   3.854  0.9502  1.0205 -0.1205
 6588SOL    MW426120   2.144   3.598   3.869  0.2102  0.9302 -0.4796
 6589SOL     OW26121   3.798   4.689   0.039  0.0078 -0.5604  0.5076
 6589SOL    HW226122   3.845   4.676  -0.043  0.0318 -0.5950  0.5269
 6589SOL    HW326123   3.706   4.676   0.016  0.1288 -2.0791  0.7892
 6589SOL    MW426124   3.792   4.686   0.025  0.0269 -0.7654  0.5473
 6590SOL     OW26125   5.273   2.319   0.892  0.1708 -0.0273 -0.5469
 6590SOL    HW226126   5.284   2.252   0.825  1.4630  0.2248 -0.6111
 6590SOL    HW326127   5.340   2.298   0.958 -1.1211 -0.3244  0.7206
 6590SOL    MW426128   5.284   2.308   0.892  0.1708 -0.0332 -0.3881
 6591SOL     OW26129   1.236   2.260   4.118 -0.2494  0.2585 -0.2082
 6591SOL    HW226130   1.252   2.196   4.048  1.6610 -0.0543  0.4510
 6591SOL    HW326131   1.320   2.305   4.129 -0.7164  0.8168  1.3837
 6591SOL    MW426132   1.249   2.257   4.110 -0.0590  0.2909  0.0888
 6592SOL     OW26133   0.902   1.892   5.627 -0.3042  0.5133  0.1775
 6592SOL    HW226134   0.877   1.908   5.718 -0.8270  1.6072 -0.1493
 6592SOL    HW326135   0.847   1.950   5.576  0.4147  0.3548 -0.8087
 6592SOL    MW426136   0.892   1.902   5.632 -0.2783  0.6367  0.0043
 6593SOL     OW26137   4.342   5.490   5.542 -0.4084 -0.1410 -0.3701
 6593SOL    HW226138   4.308   5.498   5.630 -0.0741  1.6200 -0.3625
 6593SOL    HW326139   4.430   5.529   5.547 -0.3329 -0.1483 -1.4357
 6593SOL    MW426140   4.349   5.496   5.554 -0.3543  0.0904 -0.5097
 6594SOL     OW26141   2.793   4.546   1.966  0.3347  0.0568 -0.8025
 6594SOL    HW226142   2.702   4.552   1.994  0.3218  1.2179 -1.0487
 6594SOL    HW326143   2.843   4.552   2.048  0.2091  0.2818 -0.7406
 6594SOL    MW426144   2.788   4.547   1.981  0.3164  0.2397 -0.8268
 6595SOL     OW26145   5.691   1.892   0.707  0.1652 -0.1170  0.0325
 6595SOL    HW226146   5.630   1.826   0.674 -0.5614  0.7613 -0.4458
 6595SOL    HW326147   5.732   1.852   0.783 -1.8982 -0.3186  1.0942
 6595SOL    MW426148   5.688   1.878   0.713 -0.2029 -0.0278  0.1095
 6596SOL     OW26149   0.718   1.460   5.384 -0.1169  0.3654  0.1890
 6596SOL    HW226150   0.799   1.497   5.350  0.3645  0.4183  1.3839
 6596SOL    HW326151   0.693   1.395   5.318  1.2509 -0.1282  0.1259
 6596SOL    MW426152   0.725   1.456   5.370  0.1271  0.3072  0.3383
 6597SOL     OW26153   5.797   1.067   0.601  0.3489  0.0409  0.5670
 6597SOL    HW226154   5.797   1.050   0.507 -1.2847  0.6483  0.4228
 6597SOL    HW326155   5.828   0.986   0.640  0.4068 -0.4474 -0.4549
 6597SOL    MW426156   5.801   1.054   0.593  0.1410  0.0566  0.4132
 6598SOL     OW26157   5.929   0.336   0.234  0.4965 -0.9909  0.5300
 6598SOL    HW226158   5.842   0.315   0.270 -1.7062  1.1210 -3.0025
 6598SOL    HW326159   5.939   0.430   0.249  0.3018 -0.4121 -2.4395
 6598SOL    MW426160   5.918   0.345   0.241  0.1802 -0.6359 -0.3278
 6599SOL     OW26161   4.376   0.540   2.890  0.0097  0.2468  0.0017
 6599SOL    HW226162   4.325   0.609   2.931  0.3945 -0.2035  1.2817
 6599SOL    HW326163   4.313   0.472   2.867 -0.0060 -0.2326  1.4156
 6599SOL    MW426164   4.361   0.540   2.892  0.0584  0.1242  0.3571
 6600SOL     OW26165   0.249   4.400   3.510 -0.5396 -0.0511  0.2614
 6600SOL    HW226166   0.182   4.392   3.443  1.3249 -2.9164 -1.4630
 6600SOL    HW326167   0.281   4.489   3.501 -1.3013  0.0693 -1.7070
 6600SOL    MW426168   0.244   4.411   3.500 -0.3941 -0.4133 -0.2258
 6601SOL     OW26169   0.282   5.310   0.579 -0.5453  0.3493 -0.5241
 6601SOL    HW226170   0.283   5.222   0.542 -2.0455 -0.2823  0.8178
 6601SOL    HW326171   0.348   5.308   0.648 -1.2753 -0.0533  0.1735
 6601SOL    MW426172   0.291   5.298   0.583 -0.8395  0.2129 -0.2550
 6602SOL     OW26173   5.593   0.011   4.921 -0.3281 -0.7050  0.1994
 6602SOL    HW226174   5.582  -0.019   4.830  2.6533 -0.3255 -0.3840
 6602SOL    HW326175   5.548  -0.054   4.974 -0.1849 -2.1981 -1.4434
 6602SOL    MW426176   5.585  -0.001   4.916  0.0842 -0.8519 -0.0943
 6603SOL     OW26177   1.373   6.231   4.831 -0.0870 -0.3474 -0.0848
 6603SOL    HW226178   1.278   6.249   4.832 -0.0337 -0.0556  0.8055
 6603SOL    HW326179   1.384   6.156   4.890  0.2247 -0.4678 -0.2929
 6603SOL    MW426180   1.362   6.224   4.839 -0.0389 -0.3248  0.0052
 6604SOL     OW26181   4.263   0.125   2.674  0.0582 -0.8415 -0.6343
 6604SOL    HW226182   4.251   0.040   2.633  1.2102 -1.4396  0.2294
 6604SOL    HW326183   4.355   0.148   2.658  0.0028 -0.1812 -0.0942
 6604SOL    MW426184   4.273   0.117   2.666  0.2029 -0.8333 -0.4491
 6605SOL     OW26185   4.243   5.797   2.711 -0.2727  0.5977  0.0891
 6605SOL    HW226186   4.149   5.805   2.694 -0.2949 -0.6827 -0.5672
 6605SOL    HW326187   4.252   5.715   2.760  0.5149  0.6176 -0.0045
 6605SOL    MW426188   4.232   5.787   2.715 -0.1717  0.4314 -0.0098
 6606SOL     OW26189   3.637   5.138   6.178 -0.1318 -0.1539  0.3878
 6606SOL    HW226190   3.641   5.158   6.271 -1.4160  0.6600  0.2966
 6606SOL    HW326191   3.615   5.221   6.136 -0.5189 -0.7021 -0.5379
 6606SOL    MW426192   3.634   5.151   6.185 -0.3523 -0.1188  0.2537
 6607SOL     OW26193   1.995   1.685   1.629 -0.2513  0.4948  0.0643
 6607SOL    HW226194   1.962   1.657   1.714  2.5023 -1.4040  0.6427
 6607SOL    HW326195   2.002   1.605   1.578  3.3498  0.6260  0.0746
 6607SOL    MW426196   1.992   1.671   1.634  0.5871  0.2616  0.1419
 6608SOL     OW26197   4.882   2.167   5.329  0.2322  0.2190  0.7543
 6608SOL    HW226198   4.885   2.071   5.329  2.3186  0.2440  1.1271
 6608SOL    HW326199   4.869   2.191   5.421 -1.0224  0.3302  0.5762
 6608SOL    MW426200   4.880   2.158   5.341  0.3420  0.2370  0.7800
 6609SOL     OW26201   5.169   4.937   6.018  0.2257 -0.1773 -0.2560
 6609SOL    HW226202   5.095   4.990   5.988  0.6087  1.1776  1.0719
 6609SOL    HW326203   5.243   4.997   6.017  1.1791 -1.3321 -0.9112
 6609SOL    MW426204   5.169   4.952   6.014  0.4020 -0.1509 -0.1673
 6610SOL     OW26205   5.567   4.232   3.324  0.2643 -0.2204  0.4012
 6610SOL    HW226206   5.492   4.228   3.383  0.9434 -3.4187  1.2142
 6610SOL    HW326207   5.559   4.155   3.268  2.8982 -0.7258  0.5669
 6610SOL    MW426208   5.556   4.222   3.325  0.7014 -0.7091  0.5303
 6611SOL     OW26209   4.291   3.915   3.853  0.2233 -0.5872 -0.0120
 6611SOL    HW226210   4.207   3.961   3.852  0.3680 -0.1216  2.5781
 6611SOL    HW326211   4.270   3.827   3.820 -1.2762 -0.4509  0.5034
 6611SOL    MW426212   4.277   3.909   3.848  0.0445 -0.5078  0.3978
 6612SOL     OW26213   1.172   0.263   1.367 -0.9573 -0.0297  0.5706
 6612SOL    HW226214   1.149   0.298   1.281 -0.2524 -1.3800 -0.2077
 6612SOL    HW326215   1.092   0.219   1.397 -0.9341 -0.3616  0.1615
 6612SOL    MW426216   1.158   0.262   1.360 -0.8612 -0.2517  0.4139
 6613SOL     OW26217   1.354   5.700   5.109  0.0870 -0.3384 -0.3146
 6613SOL    HW226218   1.341   5.754   5.186 -1.4627 -1.0726 -0.0304
 6613SOL    HW326219   1.297   5.739   5.042  2.8891  1.5284 -1.8053
 6613SOL    MW426220   1.345   5.712   5.110  0.2522 -0.1890 -0.4738
 6614SOL     OW26221   2.629   5.504   1.398 -0.7168 -0.3868 -0.3164
 6614SOL    HW226222   2.657   5.421   1.437 -1.3968  0.5583  2.3987
 6614SOL    HW326223   2.614   5.562   1.472 -1.4566  1.8227 -2.0655
 6614SOL    MW426224   2.631   5.500   1.413 -0.9041  0.0294 -0.1889
 6615SOL     OW26225   2.271   0.175   2.732 -0.2141  0.3076  0.1962
 6615SOL    HW226226   2.201   0.218   2.683  0.0506  0.1099 -0.3559
 6615SOL    HW326227   2.271   0.220   2.817 -0.3662  0.9675 -0.1425
 6615SOL    MW426228   2.262   0.187   2.737 -0.1993  0.3686  0.0787
 6616SOL     OW26229   6.116   3.649   3.199  0.1522  0.1015 -0.7472
 6616SOL    HW226230   6.171   3.656   3.121  1.6105  0.5220  0.2815
 6616SOL    HW326231   6.098   3.739   3.225  0.0069 -0.0298 -0.3778
 6616SOL    MW426232   6.121   3.662   3.192  0.3255  0.1397 -0.5628
 6617SOL     OW26233   5.242   4.475   4.610 -0.1989 -0.6421  0.3980
 6617SOL    HW226234   5.172   4.537   4.627 -0.3761 -1.0508  1.2545
 6617SOL    HW326235   5.322   4.521   4.638  0.7079  1.7203 -4.8714
 6617SOL    MW426236   5.244   4.489   4.616 -0.1026 -0.3843 -0.1842
 6618SOL     OW26237   5.505   0.776   3.852 -0.4993  0.5755  0.3251
 6618SOL    HW226238   5.569   0.781   3.923 -1.0615  0.6791  0.8363
 6618SOL    HW326239   5.462   0.691   3.865 -0.3082  0.4026 -0.1574
 6618SOL    MW426240   5.508   0.765   3.863 -0.5483  0.5664  0.3289
 6619SOL     OW26241   5.645   3.210   0.559  0.1499 -0.1886 -1.0800
 6619SOL    HW226242   5.636   3.157   0.638  0.3402 -0.4044 -1.2010
 6619SOL    HW326243   5.582   3.281   0.570 -0.2508 -0.5508 -1.0035
 6619SOL    MW426244   5.636   3.212   0.571  0.1221 -0.2649 -1.0859
 6620SOL     OW26245   4.814   5.608   1.027  0.7581 -0.0692  0.6172
 6620SOL    HW226246   4.770   5.525   1.009 -0.6333  0.5155  1.1914
 6620SOL    HW326247   4.881   5.615   0.959 -1.2903 -0.0921 -1.5277
 6620SOL    MW426248   4.817   5.598   1.016  0.3043  0.0050  0.4100
 6621SOL     OW26249   1.920   2.966   3.994 -0.1978 -0.0469 -0.0474
 6621SOL    HW226250   1.925   2.929   3.906 -0.1236 -2.1238  0.7605
 6621SOL    HW326251   1.851   2.916   4.037 -0.4924  1.1889  0.9737
 6621SOL    MW426252   1.912   2.955   3.988 -0.2269 -0.1579  0.1939
 6622SOL     OW26253   5.350   1.852   2.953 -0.1344 -0.2383 -0.2309
 6622SOL    HW226254   5.422   1.903   2.915  0.6152 -1.1163 -0.0229
 6622SOL    HW326255   5.278   1.861   2.891  0.6566 -0.6171 -1.2291
 6622SOL    MW426256   5.350   1.860   2.940  0.0688 -0.4041 -0.3351
 6623SOL     OW26257   0.955   3.301   2.768 -0.2488  0.1469  0.3315
 6623SOL    HW226258   0.930   3.217   2.729 -1.4642  0.6716 -0.0740
 6623SOL    HW326259   0.983   3.355   2.694  0.6768  0.0665  0.6081
 6623SOL    MW426260   0.955   3.297   2.753 -0.2871  0.2055  0.3145
 6624SOL     OW26261   1.472   1.402   5.128 -0.2703 -0.5058  0.2692
 6624SOL    HW226262   1.501   1.492   5.112 -1.6032 -0.2785 -1.0234
 6624SOL    HW326263   1.514   1.378   5.211  3.4389 -0.1604 -1.3142
 6624SOL    MW426264   1.481   1.411   5.137  0.0433 -0.4302 -0.1102
 6625SOL     OW26265   1.075   3.744   0.316  0.1274  0.4724 -0.4712
 6625SOL    HW226266   1.046   3.661   0.279  0.3358  0.0542  0.2838
 6625SOL    HW326267   1.094   3.799   0.240  1.5081 -0.6927 -1.0080
 6625SOL    MW426268   1.074   3.740   0.301  0.3371  0.2635 -0.4424
 6626SOL     OW26269   6.136   3.449   5.294  0.0368  0.0532  0.2837
 6626SOL    HW226270   6.078   3.452   5.370  1.1545 -1.0185  1.2264
 6626SOL    HW326271   6.219   3.487   5.325 -0.2151  1.8832 -1.1318
 6626SOL    MW426272   6.140   3.455   5.308  0.1511  0.1533  0.2213
 6627SOL     OW26273   3.912   6.359   1.831  0.5589 -0.1766  0.1168
 6627SOL    HW226274   3.836   6.417   1.829  0.8762  0.2327 -0.1686
 6627SOL    HW326275   3.895   6.295   1.762  0.2215 -0.4186  0.4145
 6627SOL    MW426276   3.900   6.358   1.822  0.5563 -0.1545  0.1185
 6628SOL     OW26277   1.932   1.876   0.855 -0.1774  0.0926  0.1541
 6628SOL    HW226278   1.999   1.889   0.787  1.5063 -0.3741  1.6499
 6628SOL    HW326279   1.867   1.820   0.814  0.9186 -0.3804 -1.0123
 6628SOL    MW426280   1.933   1.870   0.841  0.1894 -0.0314  0.1975
 6629SOL     OW26281   1.669   5.701   2.874  0.0741 -0.1260 -0.2722
 6629SOL    HW226282   1.652   5.676   2.965 -0.9446  1.3383 -0.0334
 6629SOL    HW326283   1.740   5.765   2.879  2.3733 -2.4353 -0.8520
 6629SOL    MW426284   1.676   5.706   2.886  0.2430 -0.2375 -0.3172
 6630SOL     OW26285   4.617   0.378   2.449  0.2243 -0.1502 -0.5988
 6630SOL    HW226286   4.563   0.457   2.447 -2.1073 -1.6254  0.3816
 6630SOL    HW326287   4.674   0.389   2.525 -1.9315 -0.4810  1.1521
 6630SOL    MW426288   4.618   0.390   2.459 -0.3678 -0.3885 -0.2385
 6631SOL     OW26289   6.405   2.316   2.236 -0.2069  0.1053  0.3426
 6631SOL    HW226290   6.338   2.263   2.279 -0.3262  1.8596  2.5184
 6631SOL    HW326291   6.358   2.390   2.199  0.2170 -0.1658 -0.8048
 6631SOL    MW426292   6.390   2.318   2.237 -0.1667  0.3009  0.4783
 6632SOL     OW26293   0.301   3.051   1.960  0.5604 -0.5583  0.0933
 6632SOL    HW226294   0.237   3.008   2.018 -0.6458 -0.0919 -0.8435
 6632SOL    HW326295   0.269   3.141   1.952  3.2315  0.7522  2.3146
 6632SOL    MW426296   0.288   3.058   1.967  0.7537 -0.3238  0.2628
 6633SOL     OW26297   6.305   3.758   0.930  0.0360  0.1836  0.3809
 6633SOL    HW226298   6.320   3.762   1.024  0.6441  1.2935  0.2554
 6633SOL    HW326299   6.223   3.710   0.920 -0.2063  0.3524  1.4858
 6633SOL    MW426300   6.296   3.752   0.941  0.0843  0.3523  0.5101
 6634SOL     OW26301   5.455   5.832   0.037 -0.3842  0.3841 -0.1879
 6634SOL    HW226302   5.496   5.777  -0.029 -0.3383  1.3194 -0.9642
 6634SOL    HW326303   5.523   5.846   0.103 -0.0915  0.3034 -0.4730
 6634SOL    MW426304   5.469   5.827   0.037 -0.3395  0.4969 -0.3279
 6635SOL     OW26305   4.002   2.264   5.864 -0.2076  0.3485  0.0351
 6635SOL    HW226306   3.985   2.358   5.869 -0.3888  0.3364 -0.3502
 6635SOL    HW326307   4.037   2.241   5.950 -1.3129  0.5349  0.5516
 6635SOL    MW426308   4.004   2.273   5.876 -0.3773  0.3715  0.0524
 6636SOL     OW26309   1.841   3.004   3.699  0.0127 -0.0205 -0.1493
 6636SOL    HW226310   1.858   3.047   3.615 -0.4908 -0.8947 -0.7105
 6636SOL    HW326311   1.881   2.918   3.690  0.7298  0.1895  0.8487
 6636SOL    MW426312   1.849   2.999   3.687  0.0409 -0.1081 -0.0917
 6637SOL     OW26313   1.590   3.331   6.146  0.2634 -0.3841  0.1103
 6637SOL    HW226314   1.676   3.340   6.188  0.4622 -0.7096 -0.2197
 6637SOL    HW326315   1.528   3.328   6.219  0.2583  2.4360  0.3012
 6637SOL    MW426316   1.593   3.332   6.161  0.2890 -0.0550  0.0920
 6638SOL     OW26317   4.727   1.334   2.242  0.2702  0.5646  0.2697
 6638SOL    HW226318   4.782   1.407   2.270  1.3840 -0.2306  0.2108
 6638SOL    HW326319   4.768   1.302   2.162 -0.5493  0.2384 -0.0315
 6638SOL    MW426320   4.740   1.339   2.235  0.3090  0.4167  0.2222
 6639SOL     OW26321   0.645   1.868   2.761 -0.3544 -0.3572  0.4724
 6639SOL    HW226322   0.715   1.807   2.783  0.3277  0.5050  0.7386
 6639SOL    HW326323   0.603   1.829   2.684  1.2881 -0.2394 -0.5427
 6639SOL    MW426324   0.648   1.855   2.754 -0.0477 -0.2279  0.3736
 6640SOL     OW26325   1.508   4.908   6.396  0.5855  0.2776 -0.4474
 6640SOL    HW226326   1.462   4.826   6.416  2.3035 -0.9843 -1.3937
 6640SOL    HW326327   1.601   4.887   6.407  1.0754  2.1311 -0.6697
 6640SOL    MW426328   1.514   4.894   6.400  0.8768  0.3557 -0.6016
 6641SOL     OW26329   5.131   2.262   2.161 -0.0146 -0.2565 -0.4929
 6641SOL    HW226330   5.111   2.343   2.208  1.5176 -0.2892  0.2987
 6641SOL    HW326331   5.061   2.253   2.097 -0.9420  0.9900  0.2952
 6641SOL    MW426332   5.119   2.272   2.159  0.0652 -0.0964 -0.2844
 6642SOL     OW26333   2.638   4.775   3.822 -0.4957 -0.8810  0.4789
 6642SOL    HW226334   2.555   4.814   3.849 -1.2893 -1.6179 -0.7831
 6642SOL    HW326335   2.646   4.695   3.874 -1.9023 -2.1720 -1.1530
 6642SOL    MW426336   2.628   4.770   3.832 -0.7860 -1.1486  0.0971
 6643SOL     OW26337   4.283   2.451   4.866 -0.0280 -0.3366 -0.2556
 6643SOL    HW226338   4.249   2.513   4.801 -1.6808  0.4107  1.2384
 6643SOL    HW326339   4.300   2.371   4.817 -0.1678  0.5416 -1.7931
 6643SOL    MW426340   4.281   2.449   4.851 -0.2645 -0.1221 -0.2614
 6644SOL     OW26341   3.151   4.561   0.370 -0.5039 -0.6243 -0.4580
 6644SOL    HW226342   3.091   4.495   0.404 -0.3588 -0.0675  0.9523
 6644SOL    HW326343   3.095   4.631   0.337 -0.6374 -0.3410  0.3671
 6644SOL    MW426344   3.136   4.562   0.370 -0.5024 -0.5134 -0.1631
 6645SOL     OW26345   1.050   4.340   3.106 -0.0450 -0.2506  0.2336
 6645SOL    HW226346   0.961   4.369   3.084 -0.1121 -0.8034 -0.2333
 6645SOL    HW326347   1.071   4.387   3.186 -2.0585 -2.5720  2.3029
 6645SOL    MW426348   1.041   4.350   3.114 -0.3195 -0.6298  0.4450
 6646SOL     OW26349   3.301   1.976   0.775  0.6702 -0.4216  0.3458
 6646SOL    HW226350   3.362   2.032   0.728  0.7785 -0.4119  0.4980
 6646SOL    HW326351   3.215   2.013   0.756  0.7252 -0.3275  0.2786
 6646SOL    MW426352   3.298   1.988   0.767  0.6918 -0.4079  0.3570
 6647SOL     OW26353   2.456   3.547   6.400  0.1494  0.1969 -0.3082
 6647SOL    HW226354   2.402   3.537   6.321 -0.2896 -0.0322  0.0187
 6647SOL    HW326355   2.397   3.526   6.472  0.5912  0.2644  0.0745
 6647SOL    MW426356   2.441   3.543   6.399  0.1498  0.1756 -0.2146
 6648SOL     OW26357   4.058   0.132   0.243  0.1251 -0.0891 -0.4767
 6648SOL    HW226358   4.086   0.087   0.163  1.4462 -1.6455  0.7772
 6648SOL    HW326359   4.042   0.061   0.305 -0.1895  1.1024  0.8484
 6648SOL    MW426360   4.060   0.116   0.240  0.2579 -0.1372 -0.1364
 6649SOL     OW26361   3.789   0.193   0.877 -0.2466 -0.1548  0.5105
 6649SOL    HW226362   3.714   0.136   0.857 -1.2583  0.7277  1.6610
 6649SOL    HW326363   3.751   0.267   0.924  1.4492 -0.0792  1.8621
 6649SOL    MW426364   3.774   0.195   0.881 -0.1563 -0.0284  0.8406
 6650SOL     OW26365   0.944   1.313   2.073  0.3701  0.5152 -0.6018
 6650SOL    HW226366   0.967   1.348   1.987 -0.4409 -0.9140 -1.4391
 6650SOL    HW326367   0.855   1.280   2.062  0.3752  0.0247  0.7060
 6650SOL    MW426368   0.935   1.313   2.060  0.2638  0.2619 -0.5397
 6651SOL     OW26369   1.325   5.902   5.770  0.0381 -0.0419  0.0946
 6651SOL    HW226370   1.339   5.807   5.763 -0.0978  0.0179 -1.1199
 6651SOL    HW326371   1.329   5.934   5.680 -0.6402  1.0057  0.4197
 6651SOL    MW426372   1.327   5.893   5.758 -0.0694  0.1042 -0.0227
 6652SOL     OW26373   0.613   0.876   1.336 -0.1361  0.1110 -0.3394
 6652SOL    HW226374   0.657   0.950   1.294 -0.2872 -0.3077 -1.2632
 6652SOL    HW326375   0.575   0.827   1.263 -2.4667  0.6434  0.4271
 6652SOL    MW426376   0.614   0.879   1.320 -0.4635  0.1260 -0.3602
 6653SOL     OW26377   4.942   3.465   0.727 -0.4710 -0.1036 -0.0102
 6653SOL    HW226378   4.976   3.393   0.781 -0.0431 -0.8476 -1.2355
 6653SOL    HW326379   4.967   3.442   0.638 -3.9286 -0.5431 -1.0010
 6653SOL    MW426380   4.950   3.452   0.722 -0.8707 -0.2597 -0.3026
 6654SOL     OW26381   4.807   5.240   1.138 -0.4903 -0.0434  0.2306
 6654SOL    HW226382   4.844   5.266   1.054 -0.0983 -1.0726  0.0714
 6654SOL    HW326383   4.717   5.214   1.117  0.1480 -2.0238 -0.2084
 6654SOL    MW426384   4.800   5.240   1.124 -0.3544 -0.4405  0.1517
 6655SOL     OW26385   4.121   3.525   5.850 -0.0552  0.0220 -0.3395
 6655SOL    HW226386   4.184   3.526   5.778 -2.0931 -1.3795 -2.3028
 6655SOL    HW326387   4.115   3.617   5.877  0.7192  0.6347 -2.0416
 6655SOL    MW426388   4.128   3.538   5.844 -0.2219 -0.0821 -0.8231
 6656SOL     OW26389   0.390   1.417   2.949 -0.7856  0.0150  0.0989
 6656SOL    HW226390   0.392   1.322   2.940 -0.8505  0.0280 -0.0502
 6656SOL    HW326391   0.458   1.448   2.889 -0.7276  0.0589  0.1878
 6656SOL    MW426392   0.399   1.409   2.940 -0.7865  0.0225  0.0909
 6657SOL     OW26393   1.946   1.291   0.723 -0.5266  0.4980 -0.6688
 6657SOL    HW226394   2.034   1.290   0.684  0.0229  1.5381  0.4820
 6657SOL    HW326395   1.944   1.212   0.778  0.5925  1.6184  1.1063
 6657SOL    MW426396   1.957   1.281   0.725 -0.3064  0.7831 -0.2827
 6658SOL     OW26397   3.046   1.316   5.087 -0.5530  0.0383  0.0784
 6658SOL    HW226398   2.951   1.317   5.072 -0.4592 -2.9125 -1.3559
 6658SOL    HW326399   3.082   1.364   5.013 -0.8928  0.4679  0.1884
 6658SOL    MW426400   3.038   1.322   5.075 -0.5855 -0.2944 -0.0963
 6659SOL     OW26401   3.732   4.276   3.165  0.9523 -0.3915 -0.1370
 6659SOL    HW226402   3.716   4.183   3.150 -0.5275  0.1353 -2.3351
 6659SOL    HW326403   3.769   4.307   3.083 -0.0818  1.2567 -0.0243
 6659SOL    MW426404   3.735   4.268   3.152  0.6206 -0.1045 -0.4121
 6660SOL     OW26405   5.717   2.955   3.719 -0.4367  0.3742 -0.3477
 6660SOL    HW226406   5.681   2.888   3.661 -3.3514  0.5876  0.9824
 6660SOL    HW326407   5.792   2.991   3.673 -1.3015 -0.9601 -2.9580
 6660SOL    MW426408   5.722   2.951   3.705 -0.9354  0.2263 -0.5166
 6661SOL     OW26409   1.398   1.812   4.163  0.4469 -0.2555  0.2484
 6661SOL    HW226410   1.380   1.895   4.207 -0.7587 -0.8539  0.9189
 6661SOL    HW326411   1.464   1.769   4.217  0.7801  0.0794  0.1144
 6661SOL    MW426412   1.404   1.817   4.176  0.3318 -0.2903  0.3192
 6662SOL     OW26413   2.866   0.911   2.754  0.0182  0.3002 -0.2281
 6662SOL    HW226414   2.811   0.973   2.705  0.7467  0.9311 -0.2619
 6662SOL    HW326415   2.945   0.960   2.774  0.5878 -0.6122 -0.2038
 6662SOL    MW426416   2.869   0.926   2.750  0.1895  0.2630 -0.2294
 6663SOL     OW26417   1.887   4.910   1.857 -0.5044 -0.1497  0.1488
 6663SOL    HW226418   1.819   4.842   1.864 -1.2668  0.3261 -1.7510
 6663SOL    HW326419   1.839   4.988   1.829  0.7626  0.3256 -0.7880
 6663SOL    MW426420   1.871   4.912   1.854 -0.4378 -0.0242 -0.2255
 6664SOL     OW26421   4.543   1.396   5.140 -0.1767  0.0533  0.4067
 6664SOL    HW226422   4.523   1.348   5.060  1.0942 -0.6876  0.5026
 6664SOL    HW326423   4.496   1.349   5.209  1.1865 -1.2033  0.5243
 6664SOL    MW426424   4.534   1.383   5.139  0.1709 -0.2102  0.4349
 6665SOL     OW26425   1.716   6.170   4.047 -0.3759 -0.1856 -0.1817
 6665SOL    HW226426   1.734   6.186   3.955  0.8825  0.8368  0.2222
 6665SOL    HW326427   1.749   6.081   4.063 -1.1245 -0.5921 -0.8287
 6665SOL    MW426428   1.723   6.160   4.037 -0.3086 -0.1043 -0.2138
 6666SOL     OW26429   6.179   5.613   5.097 -0.0481 -0.1547 -0.2446
 6666SOL    HW226430   6.170   5.689   5.039 -0.3987 -1.1877 -1.6137
 6666SOL    HW326431   6.264   5.576   5.075  0.7803  0.6612  1.4775
 6666SOL    MW426432   6.189   5.618   5.086  0.0149 -0.1833 -0.1981
 6667SOL     OW26433   2.108   0.928   0.247 -0.2032 -0.0198 -0.0150
 6667SOL    HW226434   2.038   0.935   0.312 -1.0789 -0.5182 -0.8769
 6667SOL    HW326435   2.131   1.019   0.227 -2.2079  0.2533 -1.3715
 6667SOL    MW426436   2.102   0.941   0.253 -0.5832 -0.0495 -0.3077
 6668SOL     OW26437   4.373   1.707   0.752 -0.4168 -0.3258 -0.2233
 6668SOL    HW226438   4.432   1.683   0.680  0.2711  1.7802 -0.4274
 6668SOL    HW326439   4.416   1.675   0.831 -0.3281 -1.1533 -0.6020
 6668SOL    MW426440   4.386   1.700   0.753 -0.3143 -0.1571 -0.3002
 6669SOL     OW26441   5.268   3.841   4.117 -0.3559 -0.2790 -0.0748
 6669SOL    HW226442   5.245   3.926   4.080 -0.1083 -0.1055  0.1669
 6669SOL    HW326443   5.225   3.839   4.203 -2.1897 -1.2877 -0.9541
 6669SOL    MW426444   5.259   3.852   4.124 -0.5652 -0.3892 -0.1590
 6670SOL     OW26445   1.795   2.018   3.240 -0.4230 -0.0905  0.4934
 6670SOL    HW226446   1.869   1.995   3.295 -0.9857 -0.1152  1.2606
 6670SOL    HW326447   1.761   1.933   3.209 -0.5268 -0.1199  0.6833
 6670SOL    MW426448   1.800   2.004   3.243 -0.5109 -0.0976  0.6197
 6671SOL     OW26449   2.216   6.302   5.152 -0.2251  0.7116  0.6834
 6671SOL    HW226450   2.220   6.212   5.183 -2.2074  0.1869 -0.3841
 6671SOL    HW326451   2.157   6.346   5.214  2.6234  2.0362  2.6851
 6671SOL    MW426452   2.209   6.296   5.165 -0.1108  0.8171  0.8066
 6672SOL     OW26453   6.344   3.918   4.031 -0.2233  0.7791  0.5633
 6672SOL    HW226454   6.399   3.909   4.108 -0.3063 -1.2003  0.4503
 6672SOL    HW326455   6.401   3.895   3.958 -0.8881 -0.2838  0.3498
 6672SOL    MW426456   6.359   3.914   4.031 -0.3220  0.3777  0.5202
 6673SOL     OW26457   4.645   1.891   2.630 -0.3479 -0.0350  0.3893
 6673SOL    HW226458   4.702   1.826   2.589 -1.1813 -1.7629  1.8036
 6673SOL    HW326459   4.688   1.911   2.713 -1.3551 -0.7402  1.1036
 6673SOL    MW426460   4.659   1.885   2.636 -0.5907 -0.3560  0.6702
 6674SOL     OW26461   5.901   1.299   0.304 -0.2962  0.2837  0.2768
 6674SOL    HW226462   5.835   1.340   0.359 -0.3489 -0.1527  0.5434
 6674SOL    HW326463   5.890   1.205   0.319 -1.2084  0.0588 -1.4935
 6674SOL    MW426464   5.891   1.292   0.313 -0.4235  0.1965  0.0784
 6675SOL     OW26465   5.653   3.122   2.300 -0.0899 -0.0117 -0.0305
 6675SOL    HW226466   5.594   3.184   2.259  0.8710  1.2585  0.4280
 6675SOL    HW326467   5.619   3.112   2.389 -0.9660 -1.1490 -0.4676
 6675SOL    MW426468   5.641   3.129   2.306 -0.0787  0.0059 -0.0277
 6676SOL     OW26469   6.075   5.391   1.104 -0.0900  0.0087  0.1247
 6676SOL    HW226470   6.004   5.419   1.162 -0.5240 -1.1035  0.1510
 6676SOL    HW326471   6.106   5.472   1.064 -1.7764  0.4609 -0.3530
 6676SOL    MW426472   6.070   5.405   1.107 -0.3697 -0.0784  0.0652
 6677SOL     OW26473   5.329   2.630   3.119 -0.0124 -0.0028  0.3227
 6677SOL    HW226474   5.260   2.564   3.114 -0.1402  0.1327  0.2706
 6677SOL    HW326475   5.355   2.643   3.028 -0.5727  0.6254  0.2401
 6677SOL    MW426476   5.323   2.623   3.107 -0.1032  0.0980  0.3049
 6678SOL     OW26477   0.026   0.987   6.161 -0.6355 -0.4700  0.3867
 6678SOL    HW226478   0.004   1.080   6.162 -2.0887 -0.7783  2.3281
 6678SOL    HW326479   0.105   0.981   6.108 -0.8800  1.7781 -0.3014
 6678SOL    MW426480   0.033   0.998   6.154 -0.8595 -0.2141  0.5521
 6679SOL     OW26481   4.961   2.922   4.415  0.1950 -0.4635 -0.4399
 6679SOL    HW226482   4.986   2.846   4.466 -1.6054 -0.1966  0.9389
 6679SOL    HW326483   4.898   2.889   4.351 -0.6139 -0.1696  0.1814
 6679SOL    MW426484   4.956   2.908   4.413 -0.1492 -0.3895 -0.1760
 6680SOL     OW26485   3.869   4.888   1.753  0.0182  0.3670  0.3159
 6680SOL    HW226486   3.890   4.820   1.817  0.2983 -0.3641 -0.5269
 6680SOL    HW326487   3.807   4.846   1.694 -0.2189  1.0255  0.0923
 6680SOL    MW426488   3.863   4.873   1.754  0.0239  0.3574  0.1752
 6681SOL     OW26489   5.256   0.857   2.701  0.3916  0.0031  0.0595
 6681SOL    HW226490   5.193   0.826   2.765  1.2369  0.6544  1.2453
 6681SOL    HW326491   5.230   0.815   2.619 -1.4238  0.0852  0.5597
 6681SOL    MW426492   5.244   0.847   2.698  0.2636  0.0999  0.2819
 6682SOL     OW26493   2.100   5.681   4.057  0.9436 -0.4162 -0.6075
 6682SOL    HW226494   2.106   5.606   3.999  1.3737 -1.5309  0.8110
 6682SOL    HW326495   2.091   5.643   4.145 -0.0202  1.1922  0.0408
 6682SOL    MW426496   2.100   5.666   4.061  0.8732 -0.3511 -0.3348
 6683SOL     OW26497   5.068   3.739   2.961  0.0361 -0.1272  0.5125
 6683SOL    HW226498   4.974   3.730   2.945 -0.3467 -1.5339  2.9954
 6683SOL    HW326499   5.104   3.765   2.877 -2.3081 -1.5183 -1.0486
 6683SOL    MW426500   5.060   3.742   2.948 -0.3237 -0.4963  0.6341
 6684SOL     OW26501   2.353   0.874   4.310 -0.1531  0.2221 -0.2972
 6684SOL    HW226502   2.282   0.817   4.282 -1.1916  0.7869  1.0880
 6684SOL    HW326503   2.342   0.954   4.259 -1.6067  0.9751  1.1181
 6684SOL    MW426504   2.342   0.877   4.300 -0.4819  0.3960  0.0723
 6685SOL     OW26505   0.697   3.887   5.330  0.0102  0.0564  0.4628
 6685SOL    HW226506   0.641   3.834   5.387  1.1242  0.6688  2.1938
 6685SOL    HW326507   0.783   3.846   5.335  0.4874  1.0368  0.4614
 6685SOL    MW426508   0.701   3.875   5.338  0.2202  0.2665  0.6910
 6686SOL     OW26509   3.909   5.698   2.442 -0.3264 -0.0078  0.1565
 6686SOL    HW226510   3.985   5.689   2.384  0.4675  0.0917  1.1541
 6686SOL    HW326511   3.865   5.778   2.412  1.2740  1.2484  0.9989
 6686SOL    MW426512   3.913   5.708   2.431 -0.0105  0.1711  0.3993
 6687SOL     OW26513   4.338   4.999   3.049  0.4985 -0.5702 -0.1893
 6687SOL    HW226514   4.401   4.940   3.008  1.0863  0.6324 -1.0866
 6687SOL    HW326515   4.254   4.972   3.013  0.8365 -0.4760 -1.0974
 6687SOL    MW426516   4.335   4.987   3.039  0.6206 -0.3991 -0.4275
 6688SOL     OW26517   1.063   3.919   0.086  0.4236  0.2405 -0.3015
 6688SOL    HW226518   1.156   3.918   0.061  0.9021 -1.5733  1.2802
 6688SOL    HW326519   1.019   3.872   0.015  1.0150 -0.4863 -0.2091
 6688SOL    MW426520   1.070   3.912   0.073  0.5648 -0.0947 -0.0806
 6689SOL     OW26521   4.524   2.142   3.080 -0.6234  0.1717  0.0731
 6689SOL    HW226522   4.465   2.083   3.127 -1.4176  1.4857  0.7800
 6689SOL    HW326523   4.486   2.229   3.093  1.7071  1.1244  0.8981
 6689SOL    MW426524   4.511   2.145   3.088 -0.4207  0.4708  0.2752
 6690SOL     OW26525   1.161   1.294   0.239  0.4460  0.0193  0.1624
 6690SOL    HW226526   1.086   1.241   0.269 -0.1814  0.6608 -0.2390
 6690SOL    HW326527   1.122   1.377   0.211  1.1600 -0.0419 -1.1230
 6690SOL    MW426528   1.146   1.298   0.239  0.4574  0.0959 -0.0602
 6691SOL     OW26529   4.763   6.128   5.824 -0.3534  0.2632 -0.0388
 6691SOL    HW226530   4.846   6.166   5.853 -0.5772  1.4964 -0.8997
 6691SOL    HW326531   4.765   6.038   5.855  0.2728  0.9168  1.9937
 6691SOL    MW426532   4.774   6.121   5.832 -0.3003  0.5122  0.1158
 6692SOL     OW26533   2.621   5.223   0.582  0.0200 -0.4522  0.5248
 6692SOL    HW226534   2.639   5.134   0.551  2.6890  0.4856 -0.9897
 6692SOL    HW326535   2.691   5.241   0.645 -1.2362  0.1630  1.8002
 6692SOL    MW426536   2.633   5.214   0.586  0.2064 -0.2473  0.4932
 6693SOL     OW26537   0.252   3.559   2.139  0.4644  0.5652  0.2779
 6693SOL    HW226538   0.269   3.603   2.223 -1.4438  2.8998 -0.4216
 6693SOL    HW326539   0.216   3.474   2.163 -0.0842  1.2019  1.8404
 6693SOL    MW426540   0.250   3.554   2.153  0.1402  0.9572  0.3917
 6694SOL     OW26541   1.743   1.360   0.529 -0.6322  0.0959  0.7445
 6694SOL    HW226542   1.771   1.352   0.620 -0.2483  0.0690  0.6261
 6694SOL    HW326543   1.651   1.388   0.534 -0.4201  0.7408  1.1375
 6694SOL    MW426544   1.734   1.362   0.542 -0.5536  0.1774  0.7808
 6695SOL     OW26545   2.975   3.297   4.165 -0.1590  0.3047 -0.1567
 6695SOL    HW226546   2.880   3.298   4.158 -0.2418  0.0364  0.7355
 6695SOL    HW326547   2.992   3.303   4.260  0.6973 -0.2448 -0.2617
 6695SOL    MW426548   2.965   3.298   4.177 -0.0569  0.1968 -0.0528
 6696SOL     OW26549   5.623   2.918   6.000  0.6875  0.3706  0.9087
 6696SOL    HW226550   5.712   2.883   5.995  1.2912  1.8713  0.8655
 6696SOL    HW326551   5.589   2.885   6.084  2.4883  2.4797  2.5675
 6696SOL    MW426552   5.630   2.909   6.011  1.0047  0.8469  1.1219
 6697SOL     OW26553   2.730   1.687   2.278 -0.1882 -0.7457  0.4729
 6697SOL    HW226554   2.784   1.759   2.309 -0.7417 -0.8793  1.8524
 6697SOL    HW326555   2.701   1.714   2.191 -0.2054  0.6073  0.8734
 6697SOL    MW426556   2.733   1.700   2.271 -0.2635 -0.5848  0.7078
 6698SOL     OW26557   0.848   4.583   4.877  0.5513 -0.1134  0.0213
 6698SOL    HW226558   0.766   4.613   4.917  0.5873  1.4224 -0.9610
 6698SOL    HW326559   0.834   4.490   4.860 -0.4510 -0.1903  1.1268
 6698SOL    MW426560   0.835   4.575   4.880  0.4238  0.0790  0.0376
 6699SOL     OW26561   3.569   3.718   4.811 -0.2515 -0.2562  0.3567
 6699SOL    HW226562   3.606   3.768   4.885  1.0519 -1.3293  0.4559
 6699SOL    HW326563   3.550   3.632   4.848 -0.2253 -0.5914 -0.4088
 6699SOL    MW426564   3.571   3.713   4.826 -0.0761 -0.4420  0.2688
 6700SOL     OW26565   2.405   5.586   2.111 -0.4227  0.1852  0.3683
 6700SOL    HW226566   2.447   5.601   2.196  2.4126 -0.1781 -0.8609
 6700SOL    HW326567   2.372   5.497   2.116  0.5629 -0.1732  0.7948
 6700SOL    MW426568   2.406   5.576   2.123  0.0814  0.0900  0.2624
 6701SOL     OW26569   0.508   3.585   4.934  0.5887 -0.2119  0.3098
 6701SOL    HW226570   0.531   3.549   4.848 -0.3595 -0.1528  0.0139
 6701SOL    HW326571   0.571   3.656   4.948  1.0176 -0.4966 -0.1470
 6701SOL    MW426572   0.519   3.590   4.924  0.5202 -0.2417  0.2105
 6702SOL     OW26573   1.667   2.281   5.973  0.0597  0.1520  0.1843
 6702SOL    HW226574   1.652   2.243   6.060  0.8792  0.2037  0.3559
 6702SOL    HW326575   1.712   2.212   5.924  1.1359  0.7166  0.3478
 6702SOL    MW426576   1.671   2.267   5.978  0.3099  0.2333  0.2285
 6703SOL     OW26577   5.368   0.106   1.251  0.2036  0.3321 -0.3152
 6703SOL    HW226578   5.464   0.099   1.255  0.1503 -0.6533 -0.5324
 6703SOL    HW326579   5.352   0.166   1.178  0.6511  0.3314 -0.4194
 6703SOL    MW426580   5.379   0.113   1.242  0.2556  0.2020 -0.3576
 6704SOL     OW26581   6.290   5.313   3.563  0.7409 -0.4632 -0.3026
 6704SOL    HW226582   6.245   5.323   3.479  0.0437  1.1762  0.2235
 6704SOL    HW326583   6.231   5.259   3.616 -0.0972  0.6609 -0.0321
 6704SOL    MW426584   6.276   5.307   3.559  0.5383 -0.0986 -0.1975
 6705SOL     OW26585   3.229   4.788   3.957 -0.8492 -0.2752  0.2945
 6705SOL    HW226586   3.198   4.849   4.024 -2.2820 -1.3029  0.6190
 6705SOL    HW326587   3.151   4.741   3.929  0.0303 -1.1846 -0.7627
 6705SOL    MW426588   3.215   4.790   3.962 -0.9222 -0.5308  0.1979
 6706SOL     OW26589   3.434   4.700   1.227 -0.1635 -0.3456 -0.1281
 6706SOL    HW226590   3.358   4.728   1.278  0.1142 -1.5330  0.9986
 6706SOL    HW326591   3.400   4.634   1.167 -0.0403 -0.8961  0.3942
 6706SOL    MW426592   3.420   4.695   1.226 -0.1106 -0.5749  0.0894
 6707SOL     OW26593   3.005   1.884   4.244 -0.5226  0.2453  0.0652
 6707SOL    HW226594   3.044   1.935   4.314  0.4326 -0.5399  0.1332
 6707SOL    HW326595   3.036   1.925   4.164  0.1711 -0.1464  0.1204
 6707SOL    MW426596   3.014   1.896   4.243 -0.3050  0.0900  0.0815
 6708SOL     OW26597   5.609   1.909   1.104  0.1520  0.7452  0.1948
 6708SOL    HW226598   5.669   1.945   1.169  0.1848  0.5520  0.2711
 6708SOL    HW326599   5.664   1.893   1.027  0.6046 -1.1689  0.8560
 6708SOL    MW426600   5.624   1.912   1.102  0.2160  0.4672  0.2921
 6709SOL     OW26601   5.971   1.391   5.025 -0.7275 -0.2659  0.1953
 6709SOL    HW226602   5.956   1.483   5.045 -0.8508 -0.4536  0.9882
 6709SOL    HW326603   6.065   1.384   5.009 -0.2551 -0.4605  2.7269
 6709SOL    MW426604   5.981   1.402   5.025 -0.6815 -0.3163  0.6339
 6710SOL     OW26605   3.192   3.318   0.522 -0.0506 -0.3095  0.0524
 6710SOL    HW226606   3.223   3.248   0.579  0.4644 -1.3606 -1.4568
 6710SOL    HW326607   3.097   3.307   0.519 -0.2121  0.4440  1.5369
 6710SOL    MW426608   3.183   3.308   0.529 -0.0039 -0.3487  0.0491
 6711SOL     OW26609   1.850   2.532   4.146 -0.3044  0.3631  0.1384
 6711SOL    HW226610   1.816   2.516   4.058  1.1471 -0.6350 -0.2728
 6711SOL    HW326611   1.941   2.556   4.133 -0.3094  1.1419  1.3300
 6711SOL    MW426612   1.857   2.533   4.133 -0.1136  0.3342  0.2413
 6712SOL     OW26613   0.140   0.880   4.240  0.7605 -0.4067 -0.0095
 6712SOL    HW226614   0.126   0.817   4.312  0.0638 -2.2407 -1.6488
 6712SOL    HW326615   0.235   0.881   4.227  1.1522  1.5706  2.2153
 6712SOL    MW426616   0.151   0.872   4.248  0.7203 -0.3878  0.0678
 6713SOL     OW26617   5.970   2.321   6.007 -0.2417 -0.1274  0.3636
 6713SOL    HW226618   5.961   2.337   6.101  1.7107  1.2747  0.3683
 6713SOL    HW326619   5.910   2.249   5.989 -2.0816  0.8330  2.3031
 6713SOL    MW426620   5.961   2.314   6.017 -0.2269  0.1843  0.6201
 6714SOL     OW26621   0.283   3.813   3.712 -0.4352  0.6525  0.1515
 6714SOL    HW226622   0.323   3.748   3.769  2.2751  0.5313 -1.6589
 6714SOL    HW326623   0.356   3.870   3.686 -1.9533  1.9919 -1.4603
 6714SOL    MW426624   0.298   3.812   3.716 -0.2779  0.8132 -0.3000
 6715SOL     OW26625   3.026   4.745   6.130  0.1083  0.5638 -0.7070
 6715SOL    HW226626   2.931   4.739   6.116  0.1586  0.8107 -1.1527
 6715SOL    HW326627   3.050   4.832   6.098  0.6802  0.0404 -1.7614
 6715SOL    MW426628   3.017   4.756   6.124  0.1904  0.5273 -0.9049
 6716SOL     OW26629   0.175   4.548   3.760  0.2992  0.0120 -0.1450
 6716SOL    HW226630   0.192   4.553   3.666  0.2483  2.3158 -0.0725
 6716SOL    HW326631   0.253   4.586   3.800  0.1849 -0.6742  0.7664
 6716SOL    MW426632   0.188   4.553   3.753  0.2774  0.2254 -0.0152
 6717SOL     OW26633   3.902   2.099   2.433  0.2404 -0.3054 -0.4117
 6717SOL    HW226634   3.991   2.120   2.461  0.3091 -0.8984 -0.1575
 6717SOL    HW326635   3.913   2.043   2.356  0.1270 -1.2575  0.2381
 6717SOL    MW426636   3.915   2.094   2.426  0.2345 -0.5093 -0.2924
 6718SOL     OW26637   1.589   0.955   3.536  0.3739  0.1745  0.1496
 6718SOL    HW226638   1.568   1.013   3.462  1.9382 -1.9948 -2.1671
 6718SOL    HW326639   1.656   1.002   3.585  0.1061  1.2096 -0.4421
 6718SOL    MW426640   1.595   0.969   3.532  0.5450  0.0249 -0.2341
 6719SOL     OW26641   0.303   6.128   1.814 -0.3695  0.5407 -0.0125
 6719SOL    HW226642   0.287   6.220   1.791 -0.1150  0.7371  0.5942
 6719SOL    HW326643   0.334   6.130   1.904 -1.0023 -0.2008  0.2336
 6719SOL    MW426644   0.305   6.141   1.823 -0.4194  0.4688  0.1000
 6720SOL     OW26645   1.587   1.582   4.831 -0.3374 -0.2288  0.1930
 6720SOL    HW226646   1.631   1.606   4.749  2.5818  1.2288  2.0395
 6720SOL    HW326647   1.611   1.491   4.846 -0.2645 -0.2728 -0.1784
 6720SOL    MW426648   1.596   1.573   4.822  0.0573 -0.0423  0.3876
 6721SOL     OW26649   1.170   1.704   4.455  0.3541  1.0689 -0.5342
 6721SOL    HW226650   1.145   1.796   4.445  2.5472  2.3313  3.1842
 6721SOL    HW326651   1.259   1.708   4.490  0.8670 -2.5635 -1.0592
 6721SOL    MW426652   1.178   1.717   4.459  0.7111  0.7562 -0.1128
 6722SOL     OW26653   6.381   4.036   5.562 -0.3681 -0.3412  0.2695
 6722SOL    HW226654   6.393   4.128   5.541 -0.3275 -0.3738  0.1465
 6722SOL    HW326655   6.427   3.989   5.491  0.5692 -0.4456  0.9205
 6722SOL    MW426656   6.389   4.042   5.549 -0.2391 -0.3593  0.3392
 6723SOL     OW26657   3.133   5.882   3.046  0.2564 -0.3583 -0.1526
 6723SOL    HW226658   3.052   5.832   3.047 -0.4085  0.6789  1.1672
 6723SOL    HW326659   3.110   5.964   3.001  0.2333  0.3987  1.1707
 6723SOL    MW426660   3.119   5.886   3.041  0.1656 -0.1216  0.1961
 6724SOL     OW26661   5.034   5.799   6.388  0.2353  0.1067 -0.1048
 6724SOL    HW226662   5.082   5.716   6.393  0.3230  0.0910 -1.0372
 6724SOL    HW326663   5.102   5.866   6.380  0.1526  0.2401  0.2987
 6724SOL    MW426664   5.049   5.796   6.388  0.2359  0.1222 -0.1746
 6725SOL     OW26665   1.078   2.608   1.905  0.2394 -0.4326 -0.1902
 6725SOL    HW226666   1.166   2.626   1.872  0.3718  1.2842  0.9649
 6725SOL    HW326667   1.020   2.627   1.831  0.7828 -1.0165 -0.7819
 6725SOL    MW426668   1.082   2.613   1.891  0.3285 -0.2831 -0.1159
 6726SOL     OW26669   1.031   1.292   3.019 -0.3080 -0.1897  0.0506
 6726SOL    HW226670   1.013   1.338   3.101 -0.4488  0.6078 -0.4072
 6726SOL    HW326671   0.987   1.345   2.952  0.3315 -0.4712 -0.6109
 6726SOL    MW426672   1.023   1.305   3.021 -0.2422 -0.1216 -0.0971
 6727SOL     OW26673   1.797   3.901   5.232 -0.7086  0.3492  0.0953
 6727SOL    HW226674   1.793   3.964   5.160 -0.7996 -0.9987 -1.1079
 6727SOL    HW326675   1.719   3.846   5.221 -0.5527 -0.0843  1.0341
 6727SOL    MW426676   1.786   3.902   5.221 -0.7000  0.1141  0.0604
 6728SOL     OW26677   5.984   4.125   5.624 -0.2737  0.1597 -0.6230
 6728SOL    HW226678   6.041   4.071   5.679 -1.5123 -0.8647 -0.2657
 6728SOL    HW326679   5.923   4.062   5.585  0.8452  0.8039 -3.6054
 6728SOL    MW426680   5.983   4.109   5.626 -0.2895  0.1096 -0.9693
 6729SOL     OW26681   0.064   5.172   5.111 -0.4404  0.2337  0.0585
 6729SOL    HW226682   0.151   5.156   5.075  0.1652 -0.1179  1.5766
 6729SOL    HW326683   0.009   5.190   5.035  0.9843  0.6250 -0.9217
 6729SOL    MW426684   0.068   5.172   5.096 -0.1725  0.2389  0.1295
 6730SOL     OW26685   2.085   6.010   1.894 -0.0903 -0.2722  0.2984
 6730SOL    HW226686   2.174   5.976   1.891  0.4227  0.7204  2.2438
 6730SOL    HW326687   2.029   5.933   1.884  0.9659 -0.8995 -0.9955
 6730SOL    MW426688   2.090   5.995   1.893  0.1168 -0.2240  0.3843
 6731SOL     OW26689   5.995   2.798   2.173 -0.0539 -0.0273 -0.5519
 6731SOL    HW226690   5.912   2.751   2.168  0.0503 -0.1518 -1.2166
 6731SOL    HW326691   6.029   2.797   2.084  0.2221  0.8221 -0.4685
 6731SOL    MW426692   5.988   2.792   2.161 -0.0037  0.0683 -0.6286
 6732SOL     OW26693   4.335   1.104   1.437 -0.1347  0.1715  0.3151
 6732SOL    HW226694   4.254   1.055   1.427 -1.0494  1.5153  0.7911
 6732SOL    HW326695   4.347   1.148   1.352  0.1090 -0.0398  0.2388
 6732SOL    MW426696   4.326   1.104   1.424 -0.2232  0.3209  0.3678
 6733SOL     OW26697   5.799   4.822   2.538  0.4605 -0.0638  0.2860
 6733SOL    HW226698   5.865   4.758   2.567  1.8914 -0.1258 -2.7540
 6733SOL    HW326699   5.717   4.773   2.540  1.0523 -1.0875  0.7897
 6733SOL    MW426700   5.797   4.807   2.542  0.7274 -0.2071 -0.0486
 6734SOL     OW26701   3.105   3.693   4.319 -0.5124 -0.3042  0.1451
 6734SOL    HW226702   3.186   3.678   4.369  0.2860  0.2165 -0.9582
 6734SOL    HW326703   3.135   3.712   4.230 -1.7535  1.7254  0.1070
 6734SOL    MW426704   3.120   3.693   4.314 -0.5708  0.0323 -0.0055
 6735SOL     OW26705   4.584   4.141   3.150 -0.3191 -0.3576  0.1747
 6735SOL    HW226706   4.652   4.077   3.171  1.0362  1.2816  1.0067
 6735SOL    HW326707   4.632   4.218   3.121 -1.9163  0.2886 -0.8691
 6735SOL    MW426708   4.600   4.143   3.149 -0.3510 -0.0560  0.1467
 6736SOL     OW26709   2.321   3.289   5.219 -0.1487 -0.2767 -0.3454
 6736SOL    HW226710   2.263   3.294   5.295 -0.3928  1.5342 -0.6194
 6736SOL    HW326711   2.319   3.197   5.193 -0.7102 -0.7638  1.3294
 6736SOL    MW426712   2.313   3.277   5.226 -0.2550 -0.1021 -0.1606
 6737SOL     OW26713   2.038   0.662   0.154 -0.2055  0.0955 -0.8444
 6737SOL    HW226714   2.111   0.636   0.097 -0.8240 -1.4858 -0.9672
 6737SOL    HW326715   2.061   0.749   0.184  1.4545 -0.1311 -1.3579
 6737SOL    MW426716   2.051   0.670   0.150 -0.0681 -0.1431 -0.9283
 6738SOL     OW26717   4.104   2.674   4.160  0.1691 -0.2877 -0.1845
 6738SOL    HW226718   4.113   2.613   4.234  0.3030  0.7362  0.6717
 6738SOL    HW326719   4.112   2.619   4.082 -1.4836 -1.6428  0.5356
 6738SOL    MW426720   4.106   2.659   4.160 -0.0313 -0.3314  0.0235
 6739SOL     OW26721   0.112   1.264   5.445 -0.2027  0.0093  0.4990
 6739SOL    HW226722   0.186   1.204   5.432  0.4543  0.7127  0.9564
 6739SOL    HW326723   0.144   1.328   5.509  0.0668  2.4194 -1.8685
 6739SOL    MW426724   0.126   1.264   5.452 -0.0805  0.4201  0.2470
 6740SOL     OW26725   3.620   1.343   5.864 -0.3756 -0.0744  0.1261
 6740SOL    HW226726   3.562   1.323   5.937 -0.6588 -1.6473 -0.4829
 6740SOL    HW326727   3.688   1.275   5.868  0.2368  0.4920 -0.4051
 6740SOL    MW426728   3.621   1.331   5.874 -0.3322 -0.2072 -0.0243
 6741SOL     OW26729   0.446   4.018   4.425 -0.0020 -0.1460 -0.0727
 6741SOL    HW226730   0.454   3.949   4.491  1.1707  1.3672  1.4376
 6741SOL    HW326731   0.512   4.083   4.449  1.2880  0.0016 -3.3967
 6741SOL    MW426732   0.456   4.017   4.437  0.3229  0.0731 -0.3120
 6742SOL     OW26733   2.998   4.182   3.736  0.4566  0.0091 -0.6419
 6742SOL    HW226734   2.975   4.265   3.695 -2.7886 -1.3149 -1.8141
 6742SOL    HW326735   2.975   4.194   3.828  0.8121  0.6308 -0.6235
 6742SOL    MW426736   2.992   4.195   3.743  0.0753 -0.0836 -0.7941
 6743SOL     OW26737   3.091   5.451   1.568 -0.8639 -0.0576  0.1713
 6743SOL    HW226738   3.182   5.455   1.598 -1.0775  0.5280  0.7734
 6743SOL    HW326739   3.056   5.371   1.607 -1.2518  0.8901  1.8685
 6743SOL    MW426740   3.099   5.441   1.577 -0.9432  0.1447  0.4746
 6744SOL     OW26741   5.417   1.882   3.222 -0.4672 -0.3741  0.2506
 6744SOL    HW226742   5.475   1.958   3.227 -0.5894 -0.3136  0.8378
 6744SOL    HW326743   5.381   1.884   3.133 -0.8473  0.5421  0.4180
 6744SOL    MW426744   5.420   1.892   3.211 -0.5335 -0.2452  0.3502
 6745SOL     OW26745   2.680   3.337   4.098 -0.4974  0.0068  0.4429
 6745SOL    HW226746   2.722   3.419   4.072 -1.2757  0.4237  0.4937
 6745SOL    HW326747   2.605   3.364   4.150  0.1835 -0.7776  1.8954
 6745SOL    MW426748   2.676   3.351   4.102 -0.5102 -0.0417  0.6412
 6746SOL     OW26749   2.593   3.365   1.770  0.1707 -0.4420 -0.5628
 6746SOL    HW226750   2.554   3.331   1.850  0.6775 -1.3588 -0.6846
 6746SOL    HW326751   2.671   3.413   1.800 -0.5718  0.6858 -0.3866
 6746SOL    MW426752   2.598   3.367   1.785  0.1396 -0.4141 -0.5556
 6747SOL     OW26753   3.064   4.706   4.976  0.0136  0.5367  0.4629
 6747SOL    HW226754   3.056   4.675   4.886 -1.5193  2.7202 -0.2457
 6747SOL    HW326755   3.068   4.802   4.968  0.6571  0.7504  2.6772
 6747SOL    MW426756   3.063   4.715   4.963 -0.1037  0.8530  0.6615
 6748SOL     OW26757   4.355   2.010   1.002 -0.3903 -1.0936 -0.1588
 6748SOL    HW226758   4.323   2.003   0.913 -1.0889  0.3883 -0.0515
 6748SOL    HW326759   4.444   2.046   0.993 -1.0069  0.4923 -0.2282
 6748SOL    MW426760   4.363   2.014   0.989 -0.5639 -0.6888 -0.1538
 6749SOL     OW26761   1.303   4.118   1.660 -0.5438 -0.0521  0.1213
 6749SOL    HW226762   1.335   4.182   1.724  0.3553 -0.2363 -0.1277
 6749SOL    HW326763   1.317   4.160   1.575 -0.1638 -0.4730 -0.0320
 6749SOL    MW426764   1.309   4.132   1.657 -0.3750 -0.1320  0.0682
 6750SOL     OW26765   5.022   3.649   6.238 -0.2641 -0.4464  0.1874
 6750SOL    HW226766   5.014   3.593   6.315 -0.9180  2.0440  2.0780
 6750SOL    HW326767   5.094   3.708   6.258 -0.6406  0.4478 -0.9556
 6750SOL    MW426768   5.030   3.650   6.251 -0.4001  0.0001  0.2861
 6751SOL     OW26769   0.537   0.503   3.833  0.1814 -0.2454 -0.0313
 6751SOL    HW226770   0.568   0.420   3.797  0.7958  0.3690 -0.9960
 6751SOL    HW326771   0.616   0.558   3.835 -0.5169  0.8211 -0.9281
 6751SOL    MW426772   0.552   0.499   3.829  0.1703 -0.0237 -0.2769
 6752SOL     OW26773   6.064   4.394   4.930  0.0535  0.5975 -0.0079
 6752SOL    HW226774   6.028   4.447   4.859  1.5112  1.8676  0.1469
 6752SOL    HW326775   6.141   4.352   4.892  0.9247  1.3928  0.8415
 6752SOL    MW426776   6.069   4.395   4.915  0.3608  0.8700  0.1246
 6753SOL     OW26777   3.614   0.197   2.851 -1.1201 -0.0757  0.0272
 6753SOL    HW226778   3.590   0.118   2.802  0.2745 -0.7443  0.3602
 6753SOL    HW326779   3.580   0.182   2.939 -0.4523 -0.5310  0.2150
 6753SOL    MW426780   3.606   0.185   2.856 -0.8480 -0.2240  0.0959
 6754SOL     OW26781   0.111   0.821   2.522  0.0286 -0.8496  0.5552
 6754SOL    HW226782   0.082   0.895   2.575  1.7554  1.2266 -1.2017
 6754SOL    HW326783   0.172   0.859   2.458 -0.5278 -3.4694 -1.7604
 6754SOL    MW426784   0.115   0.836   2.520  0.1830 -0.9214  0.0179
 6755SOL     OW26785   4.284   2.387   1.603 -0.3414 -0.0846  0.3306
 6755SOL    HW226786   4.291   2.404   1.509 -0.7361 -1.6139 -0.0055
 6755SOL    HW326787   4.374   2.391   1.635 -0.3160  1.6047  0.1338
 6755SOL    MW426788   4.297   2.389   1.595 -0.3901 -0.0635  0.2603
 6756SOL     OW26789   1.848   1.015   6.009 -0.0986 -0.1889  0.3297
 6756SOL    HW226790   1.777   0.953   6.023 -0.6335  0.4670  0.5906
 6756SOL    HW326791   1.887   0.989   5.925 -0.1051 -1.0649  0.5990
 6756SOL    MW426792   1.844   1.004   6.000 -0.1700 -0.2179  0.3997
 6757SOL     OW26793   3.002   4.175   0.366 -0.1127 -0.1924 -0.3027
 6757SOL    HW226794   3.094   4.151   0.365 -0.3564 -1.1771 -0.6105
 6757SOL    HW326795   2.956   4.091   0.373 -0.9509  0.3789  1.9756
 6757SOL    MW426796   3.008   4.161   0.367 -0.2554 -0.2469 -0.0427
 6758SOL     OW26797   0.574   5.366   5.134 -0.6052  0.1598 -0.1465
 6758SOL    HW226798   0.604   5.420   5.207  3.0266  0.1555 -1.3909
 6758SOL    HW326799   0.606   5.278   5.155 -2.2925 -0.5351 -0.3493
 6758SOL    MW426800   0.583   5.361   5.146 -0.3486  0.0675 -0.3374
 6759SOL     OW26801   0.921   2.476   3.136 -0.2899 -0.0307 -0.3416
 6759SOL    HW226802   0.992   2.446   3.193 -0.3137  0.3783 -0.0981
 6759SOL    HW326803   0.953   2.458   3.048  0.4291  0.8255 -0.2655
 6759SOL    MW426804   0.935   2.469   3.132 -0.1981  0.1362 -0.2994
 6760SOL     OW26805   3.118   2.001   3.054 -0.6589  0.7076 -0.2055
 6760SOL    HW226806   3.036   1.967   3.019  0.5578 -2.7601 -0.0764
 6760SOL    HW326807   3.113   1.983   3.148  0.2916  0.2640 -0.2303
 6760SOL    MW426808   3.106   1.994   3.061 -0.3730  0.1916 -0.1917
 6761SOL     OW26809   1.761   0.953   3.093 -0.0594  0.1091 -0.1050
 6761SOL    HW226810   1.810   1.015   3.039  1.5085  0.9624  2.1603
 6761SOL    HW326811   1.685   1.002   3.123 -0.5583 -0.1490 -0.8942
 6761SOL    MW426812   1.757   0.968   3.090  0.0817  0.1876  0.0898
 6762SOL     OW26813   4.362   2.428   2.578 -0.5456 -0.1952  0.0719
 6762SOL    HW226814   4.289   2.368   2.576 -0.9776  0.3529 -1.2238
 6762SOL    HW326815   4.381   2.448   2.487 -1.2941  2.6575  0.4428
 6762SOL    MW426816   4.355   2.423   2.566 -0.7014  0.2535 -0.0501
 6763SOL     OW26817   3.793   3.587   6.162 -0.3253 -0.2643  0.9188
 6763SOL    HW226818   3.878   3.561   6.197 -0.3197  0.6344  1.6297
 6763SOL    HW326819   3.755   3.506   6.129  1.2659 -0.4913 -0.4598
 6763SOL    MW426820   3.799   3.573   6.162 -0.1146 -0.1757  0.8307
 6764SOL     OW26821   2.080   1.254   1.693  0.1127  0.5864  0.2787
 6764SOL    HW226822   2.036   1.322   1.644  0.6059  1.8662  1.5365
 6764SOL    HW326823   2.164   1.242   1.648 -1.5288 -2.2506 -2.4555
 6764SOL    MW426824   2.086   1.261   1.681 -0.0388  0.3810  0.0839
 6765SOL     OW26825   2.532   4.121   0.973 -0.0311 -0.1397 -0.8776
 6765SOL    HW226826   2.597   4.051   0.975  0.7323  0.5514 -0.9885
 6765SOL    HW326827   2.505   4.132   1.064  0.8561  0.3327 -0.6595
 6765SOL    MW426828   2.537   4.113   0.985  0.1866  0.0138 -0.8635
 6766SOL     OW26829   2.007   2.112   2.549 -0.2178 -0.4339 -0.0331
 6766SOL    HW226830   1.960   2.112   2.633 -1.7794  2.8098 -0.7377
 6766SOL    HW326831   2.099   2.122   2.573 -0.7654  2.3078  1.4422
 6766SOL    MW426832   2.013   2.114   2.564 -0.4961  0.3558  0.0686
 6767SOL     OW26833   3.452   5.105   3.550 -0.7043  0.3338  0.0680
 6767SOL    HW226834   3.419   5.192   3.531 -2.2918 -0.7095 -2.5469
 6767SOL    HW326835   3.544   5.107   3.523  0.0797  1.8603  2.5905
 6767SOL    MW426836   3.460   5.117   3.544 -0.8103  0.3975  0.0558
 6768SOL     OW26837   2.439   2.108   5.003  0.4099 -0.0755  0.8378
 6768SOL    HW226838   2.408   2.076   5.088  0.6206 -0.7959  0.6522
 6768SOL    HW326839   2.529   2.076   4.997  0.0636 -0.9513 -0.0976
 6768SOL    MW426840   2.447   2.099   5.014  0.3920 -0.2861  0.6899
 6769SOL     OW26841   0.825   5.634   6.208  0.3667 -0.0580 -0.2795
 6769SOL    HW226842   0.901   5.688   6.186 -0.2359  0.2046 -1.8465
 6769SOL    HW326843   0.775   5.687   6.270  1.3012 -0.1167  0.5497
 6769SOL    MW426844   0.829   5.648   6.213  0.4105 -0.0311 -0.3769
 6770SOL     OW26845   3.849   5.267   0.181  0.0321  0.4253  0.4429
 6770SOL    HW226846   3.905   5.261   0.104 -0.4110  2.5641 -0.1188
 6770SOL    HW326847   3.887   5.338   0.233 -0.9114  0.4540  1.1247
 6770SOL    MW426848   3.861   5.275   0.178 -0.1509  0.7113  0.4587
 6771SOL     OW26849   0.425   1.346   3.741 -0.0506  0.0744  0.3581
 6771SOL    HW226850   0.343   1.391   3.762  0.5944  1.5683 -0.1392
 6771SOL    HW326851   0.480   1.359   3.817  0.0583 -0.0986  0.3098
 6771SOL    MW426852   0.421   1.354   3.754  0.0489  0.2487  0.2861
 6772SOL     OW26853   1.348   4.109   0.178  0.1716  0.1501 -0.2929
 6772SOL    HW226854   1.321   4.201   0.184  1.2087  0.3955  0.8993
 6772SOL    HW326855   1.416   4.109   0.111  0.9522  0.4611  0.4832
 6772SOL    MW426856   1.353   4.121   0.170  0.4114  0.2235 -0.0332
 6773SOL     OW26857   2.216   5.194   1.620 -0.1198  0.4877 -0.0100
 6773SOL    HW226858   2.184   5.157   1.537 -1.3519  0.9879  0.2162
 6773SOL    HW326859   2.260   5.121   1.664  1.2272  0.4006 -1.4212
 6773SOL    MW426860   2.218   5.179   1.615 -0.1046  0.5422 -0.1664
 6774SOL     OW26861   4.900   0.867   5.092  0.0352 -0.2562  0.0171
 6774SOL    HW226862   4.924   0.785   5.050  1.0120 -0.0415  0.1404
 6774SOL    HW326863   4.982   0.914   5.102 -0.6582  1.3292 -1.2714
 6774SOL    MW426864   4.914   0.862   5.088  0.0726 -0.0187 -0.1366
 6775SOL     OW26865   5.113   0.035   5.566  0.0078 -0.3069 -0.1161
 6775SOL    HW226866   5.129   0.012   5.657  0.3095  0.3905  0.0111
 6775SOL    HW326867   5.018   0.051   5.562  0.2578  1.6908  0.5730
 6775SOL    MW426868   5.102   0.034   5.577  0.0806  0.0487 -0.0084
 6776SOL     OW26869   2.069   3.982   5.768 -0.6475 -0.4237 -0.0275
 6776SOL    HW226870   2.145   3.957   5.819 -0.0037  0.9243 -0.2774
 6776SOL    HW326871   1.996   3.982   5.830 -0.3777 -1.2776  0.3047
 6776SOL    MW426872   2.069   3.979   5.783 -0.5269 -0.3585 -0.0166
 6777SOL     OW26873   3.723   6.012   4.003  0.8132 -0.2964 -0.0490
 6777SOL    HW226874   3.695   6.036   3.915 -0.5191 -1.5957 -0.0222
 6777SOL    HW326875   3.675   6.073   4.060 -1.3722 -1.8764 -0.0631
 6777SOL    MW426876   3.713   6.023   3.999  0.3491 -0.6763 -0.0473
 6778SOL     OW26877   3.696   5.592   4.596 -0.3240  0.2583 -0.3875
 6778SOL    HW226878   3.608   5.596   4.559  0.0783  2.2153 -1.3049
 6778SOL    HW326879   3.683   5.603   4.690 -1.1100 -0.4974 -0.3994
 6778SOL    MW426880   3.683   5.594   4.603 -0.3746  0.4168 -0.5101
 6779SOL     OW26881   5.982   3.284   2.959  0.4286 -0.0018  0.1081
 6779SOL    HW226882   5.893   3.279   2.993 -0.0970 -1.8478 -1.4114
 6779SOL    HW326883   6.037   3.254   3.031 -0.4693 -1.8266  0.0745
 6779SOL    MW426884   5.978   3.280   2.973  0.2408 -0.4862 -0.0968
 6780SOL     OW26885   2.737   1.230   1.274  0.0536  0.0413 -0.5544
 6780SOL    HW226886   2.805   1.252   1.338 -1.0780 -1.2762  1.1930
 6780SOL    HW326887   2.655   1.248   1.319 -0.7853 -0.4355 -1.8449
 6780SOL    MW426888   2.735   1.235   1.289 -0.2063 -0.1954 -0.4941
 6781SOL     OW26889   0.629   5.871   0.505 -0.1464  0.1980 -0.1696
 6781SOL    HW226890   0.575   5.916   0.570 -1.2651  0.4612 -1.2360
 6781SOL    HW326891   0.624   5.926   0.427  1.0820 -0.1672 -0.5246
 6781SOL    MW426892   0.621   5.884   0.503 -0.1319  0.1845 -0.3571
 6782SOL     OW26893   5.297   4.183   5.444  0.0848 -0.0647  0.6575
 6782SOL    HW226894   5.317   4.277   5.443  1.7035 -0.3501  2.1072
 6782SOL    HW326895   5.324   4.154   5.531  0.3854 -2.0472 -0.0546
 6782SOL    MW426896   5.303   4.192   5.455  0.3380 -0.3639  0.7549
 6783SOL     OW26897   0.947   4.931   0.568  0.7910  0.4150  0.6883
 6783SOL    HW226898   0.894   4.856   0.596 -0.0187  0.3361 -0.9268
 6783SOL    HW326899   0.973   4.974   0.650 -1.8706  0.5151  1.5875
 6783SOL    MW426900   0.943   4.927   0.583  0.3330  0.4178  0.5938
 6784SOL     OW26901   2.837   3.523   5.678  0.1166  0.2338  0.0496
 6784SOL    HW226902   2.926   3.520   5.642  0.9486  0.4296  1.9721
 6784SOL    HW326903   2.788   3.578   5.617  0.8476 -1.2171 -1.9528
 6784SOL    MW426904   2.842   3.529   5.665  0.3228  0.0682  0.0390
 6785SOL     OW26905   1.716   0.247   5.281 -0.2554 -0.5613 -0.0830
 6785SOL    HW226906   1.800   0.201   5.281 -0.2082 -0.5063 -0.9327
 6785SOL    HW326907   1.708   0.280   5.191 -0.3931  0.8935  0.4345
 6785SOL    MW426908   1.726   0.245   5.269 -0.2674 -0.3621 -0.1268
 6786SOL     OW26909   1.904   5.242   2.465 -0.2586  0.1031  0.1244
 6786SOL    HW226910   1.810   5.252   2.449  0.1204  2.3261 -1.1050
 6786SOL    HW326911   1.922   5.300   2.539  0.1705 -0.2633  0.3094
 6786SOL    MW426912   1.894   5.251   2.473 -0.1519  0.3481 -0.0134
 6787SOL     OW26913   4.989   3.396   5.958 -0.1601  0.0145  0.1781
 6787SOL    HW226914   4.974   3.489   5.941 -1.2021 -0.2660 -0.5615
 6787SOL    HW326915   4.951   3.380   6.044  1.1512  0.5135  0.8820
 6787SOL    MW426916   4.982   3.406   5.967 -0.1246  0.0433  0.1734
 6788SOL     OW26917   1.987   3.138   0.792 -0.3060 -0.0471  0.0873
 6788SOL    HW226918   1.940   3.217   0.819 -0.8482  0.0892 -1.1893
 6788SOL    HW326919   2.006   3.092   0.874  0.3423  1.5765  0.8823
 6788SOL    MW426920   1.983   3.142   0.806 -0.2920  0.1851  0.0238
 6789SOL     OW26921   2.433   5.889   5.987 -0.5968 -0.1350  0.2456
 6789SOL    HW226922   2.489   5.893   6.065 -0.6271  1.8698  0.2186
 6789SOL    HW326923   2.346   5.871   6.020 -0.6816  1.1231  0.7471
 6789SOL    MW426924   2.429   5.887   6.001 -0.6119  0.2955  0.3082
 6790SOL     OW26925   0.108   2.571   1.554  0.2091  0.6075  0.0363
 6790SOL    HW226926   0.090   2.563   1.648  0.1087 -2.9009 -0.1627
 6790SOL    HW326927   0.030   2.535   1.512  0.4871  1.6330 -1.4240
 6790SOL    MW426928   0.095   2.565   1.561  0.2325  0.2799 -0.1826
 6791SOL     OW26929   3.555   5.026   5.277  0.3827  0.3875  0.3316
 6791SOL    HW226930   3.529   5.077   5.201 -0.7661  0.0559  0.4851
 6791SOL    HW326931   3.641   4.990   5.254 -0.4956 -0.7845 -1.3517
 6791SOL    MW426932   3.563   5.028   5.264  0.1153  0.1891  0.1297
 6792SOL     OW26933   4.702   0.726   5.620  0.3190 -0.0013 -0.0022
 6792SOL    HW226934   4.715   0.749   5.528 -0.1382  2.2708  0.4395
 6792SOL    HW326935   4.609   0.739   5.636  0.4144 -0.2416  0.8218
 6792SOL    MW426936   4.692   0.731   5.610  0.2713  0.2668  0.1648
 6793SOL     OW26937   0.942   2.081   5.027  0.4748 -0.5727 -0.1624
 6793SOL    HW226938   0.950   2.013   5.094  1.0601  0.4877  0.9060
 6793SOL    HW326939   0.892   2.150   5.071  1.9092  0.6507 -0.3657
 6793SOL    MW426940   0.937   2.081   5.042  0.7413 -0.2714 -0.0483
 6794SOL     OW26941   3.359   1.359   2.201 -0.7595  0.9526 -0.1857
 6794SOL    HW226942   3.435   1.395   2.155 -1.1021  1.9032 -0.0308
 6794SOL    HW326943   3.396   1.300   2.266 -0.1919  0.8380 -0.6081
 6794SOL    MW426944   3.374   1.356   2.204 -0.7298  1.0629 -0.2210
 6795SOL     OW26945   4.356   6.322   2.284  0.4285  0.2830  0.3651
 6795SOL    HW226946   4.393   6.408   2.304 -0.9005  0.5863  1.6830
 6795SOL    HW326947   4.293   6.340   2.214  1.6258  0.0066 -0.8279
 6795SOL    MW426948   4.352   6.336   2.277  0.4111  0.2865  0.3816
 6796SOL     OW26949   0.939   4.445   2.482 -0.6549 -0.2018  0.4802
 6796SOL    HW226950   1.002   4.466   2.413 -0.3120 -1.3152  0.4328
 6796SOL    HW326951   0.886   4.374   2.445  0.5731 -1.9543  1.9157
 6796SOL    MW426952   0.940   4.438   2.468 -0.4477 -0.5799  0.6633
 6797SOL     OW26953   4.794   2.735   1.015 -0.1502 -0.4194  0.5466
 6797SOL    HW226954   4.702   2.762   1.005  0.2572  1.4238  1.4800
 6797SOL    HW326955   4.841   2.787   0.950  0.6447  1.2331  2.3476
 6797SOL    MW426956   4.788   2.745   1.005  0.0084  0.0418  0.9074
 6798SOL     OW26957   2.035   4.313   4.168  0.1486  0.3803  0.0641
 6798SOL    HW226958   2.130   4.303   4.175  0.4133  1.1230 -1.8796
 6798SOL    HW326959   2.002   4.224   4.163  0.6594  0.0964  1.2873
 6798SOL    MW426960   2.043   4.300   4.169  0.2509  0.4408 -0.0310
 6799SOL     OW26961   0.276   5.029   1.578 -0.1524  0.1453  0.0135
 6799SOL    HW226962   0.320   5.113   1.568  1.7243 -0.7454  0.4272
 6799SOL    HW326963   0.302   4.998   1.664 -0.0053 -1.3174 -0.5342
 6799SOL    MW426964   0.285   5.036   1.588  0.1146 -0.1652 -0.0042
 6800SOL     OW26965   0.094   3.595   6.413  0.4996  0.6734  0.4595
 6800SOL    HW226966   0.084   3.661   6.345  1.1044 -1.5258 -1.9379
 6800SOL    HW326967   0.019   3.536   6.400  0.1791  0.6388  2.2684
 6800SOL    MW426968   0.082   3.596   6.402  0.5371  0.3787  0.3819
 6801SOL     OW26969   5.871   1.937   4.643  0.0129  0.0609  0.3772
 6801SOL    HW226970   5.950   1.900   4.603  1.5752  0.7707  2.6274
 6801SOL    HW326971   5.832   1.864   4.691  0.0879  0.0620  0.4385
 6801SOL    MW426972   5.876   1.922   4.644  0.2289  0.1547  0.6822
 6802SOL     OW26973   0.830   5.384   3.968 -0.8167 -0.2243  0.3874
 6802SOL    HW226974   0.814   5.467   4.013  2.8386  2.0520 -2.0632
 6802SOL    HW326975   0.765   5.382   3.898 -2.2191 -0.5333  1.6344
 6802SOL    MW426976   0.819   5.394   3.965 -0.5195  0.0353  0.2286
 6803SOL     OW26977   6.228   5.898   0.298  0.0135 -0.8345 -0.3277
 6803SOL    HW226978   6.195   5.963   0.236  0.0913 -1.3972 -0.9720
 6803SOL    HW326979   6.200   5.814   0.261 -1.5169 -1.1129  1.3190
 6803SOL    MW426980   6.220   5.895   0.285 -0.1782 -0.9455 -0.1955
 6804SOL     OW26981   3.096   0.387   6.100 -0.1071  0.3154 -0.4723
 6804SOL    HW226982   3.094   0.326   6.026 -2.0059  0.2278 -0.3890
 6804SOL    HW326983   3.096   0.474   6.060 -1.4529  0.2712 -0.6006
 6804SOL    MW426984   3.096   0.390   6.085 -0.5352  0.2980 -0.4782
 6805SOL     OW26985   2.132   3.031   2.028 -0.2429  0.1462  0.1573
 6805SOL    HW226986   2.174   3.020   1.943 -1.2112  1.7545 -0.5615
 6805SOL    HW326987   2.204   3.021   2.091  0.3398 -1.9322 -0.7589
 6805SOL    MW426988   2.147   3.028   2.025 -0.2938  0.0842 -0.0584
 6806SOL     OW26989   1.283   3.848   1.563 -0.3537 -0.3241  0.5016
 6806SOL    HW226990   1.222   3.788   1.606 -1.0701  0.7067  0.9728
 6806SOL    HW326991   1.260   3.935   1.598  0.1878  0.3170 -0.6705
 6806SOL    MW426992   1.272   3.852   1.573 -0.3768 -0.1035  0.4091
 6807SOL     OW26993   5.839   6.393   5.028  0.2721  0.2977 -0.2107
 6807SOL    HW226994   5.751   6.403   4.991  0.2624  0.6981 -0.0824
 6807SOL    HW326995   5.895   6.377   4.952  0.1686  0.5695 -0.3456
 6807SOL    MW426996   5.834   6.392   5.013  0.2572  0.3864 -0.2116
 6808SOL     OW26997   5.874   3.060   3.467  0.3220  0.0673  0.1793
 6808SOL    HW226998   5.869   3.154   3.486 -0.5263  0.0036  0.2698
 6808SOL    HW326999   5.786   3.036   3.441  0.7479 -0.5198 -0.7638
 6808SOL    MW427000   5.862   3.070   3.466  0.2662 -0.0186  0.0668
 6809SOL     OW27001   1.680   0.214   0.970  0.0317  0.3486 -0.3948
 6809SOL    HW227002   1.686   0.283   0.904  3.4684 -0.5572 -1.2285
 6809SOL    HW327003   1.653   0.137   0.921 -4.2222  0.9726  0.6032
 6809SOL    MW427004   1.677   0.213   0.955 -0.0761  0.3114 -0.3731
 6810SOL     OW27005   5.427   5.119   0.311 -0.2418 -0.1368 -0.1797
 6810SOL    HW227006   5.401   5.090   0.223 -0.1682 -0.7704  0.0024
 6810SOL    HW327007   5.522   5.124   0.307 -0.2568  0.1470 -0.2264
 6810SOL    MW427008   5.436   5.116   0.299 -0.2340 -0.1830 -0.1618
 6811SOL     OW27009   5.018   4.387   1.269 -0.4483 -0.0566 -0.2154
 6811SOL    HW227010   5.100   4.428   1.298 -0.9880  0.5304  0.5318
 6811SOL    HW327011   4.981   4.348   1.348 -0.4394 -1.1376 -0.7321
 6811SOL    MW427012   5.024   4.387   1.283 -0.5183 -0.1218 -0.1850
 6812SOL     OW27013   1.485   0.997   4.504 -0.0486 -0.2986  0.1146
 6812SOL    HW227014   1.441   0.912   4.496 -0.5433 -0.1219  0.9156
 6812SOL    HW327015   1.454   1.033   4.587  1.9395 -0.3573  0.9393
 6812SOL    MW427016   1.475   0.990   4.514  0.1485 -0.2831  0.3291
 6813SOL     OW27017   2.674   4.537   4.007  0.3510  0.0841  0.2796
 6813SOL    HW227018   2.650   4.450   3.976  0.9352  0.0894 -0.1983
 6813SOL    HW327019   2.615   4.554   4.081  0.0288 -0.5849  0.1741
 6813SOL    MW427020   2.663   4.528   4.013  0.3856 -0.0035  0.2026
 6814SOL     OW27021   5.945   1.862   2.484  0.0923 -0.2334 -0.6017
 6814SOL    HW227022   6.007   1.790   2.477 -0.0555 -0.3996 -0.2265
 6814SOL    HW327023   5.911   1.874   2.395  0.7430 -0.0644 -0.8276
 6814SOL    MW427024   5.948   1.854   2.471  0.1587 -0.2330 -0.5820
 6815SOL     OW27025   1.226   4.718   0.269 -0.2397 -0.8796 -0.4166
 6815SOL    HW227026   1.145   4.667   0.264  0.1291 -1.5830  0.5927
 6815SOL    HW327027   1.263   4.713   0.181 -2.6059  1.7373 -1.7636
 6815SOL    MW427028   1.220   4.711   0.257 -0.5032 -0.6271 -0.4611
 6816SOL     OW27029   5.271   5.879   2.044  0.7198 -0.1865 -0.2186
 6816SOL    HW227030   5.256   5.785   2.033  0.2622 -0.3821  1.7722
 6816SOL    HW327031   5.354   5.885   2.091  1.2647  0.4829 -1.2206
 6816SOL    MW427032   5.280   5.867   2.048  0.7313 -0.1240 -0.0882
 6817SOL     OW27033   3.434   4.588   0.366 -0.1207 -0.5866 -0.3620
 6817SOL    HW227034   3.339   4.582   0.368 -0.2676  0.4578 -2.0601
 6817SOL    HW327035   3.452   4.681   0.356  1.1068 -0.7069  0.5781
 6817SOL    MW427036   3.424   4.599   0.365  0.0218 -0.4647 -0.4620
 6818SOL     OW27037   4.417   0.657   4.530 -0.0575  0.4838  0.0170
 6818SOL    HW227038   4.371   0.596   4.473  0.7217 -0.6636  0.5675
 6818SOL    HW327039   4.432   0.734   4.476 -0.6197 -0.0103 -0.8637
 6818SOL    MW427040   4.413   0.659   4.516 -0.0289  0.2672 -0.0266
 6819SOL     OW27041   0.939   3.061   5.039 -0.1919  0.1853 -0.6081
 6819SOL    HW227042   0.861   3.077   5.091 -0.2708  0.1974 -0.7300
 6819SOL    HW327043   0.968   2.973   5.063 -0.6831 -0.1251 -1.1304
 6819SOL    MW427044   0.933   3.052   5.049 -0.2671  0.1460 -0.6931
 6820SOL     OW27045   4.348   5.620   2.102  0.3218 -0.5750 -0.0548
 6820SOL    HW227046   4.339   5.525   2.092  0.9525 -0.8069  1.3825
 6820SOL    HW327047   4.440   5.638   2.082 -0.1873  0.0243 -2.1329
 6820SOL    MW427048   4.359   5.610   2.098  0.3379 -0.5265 -0.1394
 6821SOL     OW27049   0.850   1.499   0.893  0.1963  0.1033  0.2597
 6821SOL    HW227050   0.818   1.443   0.823 -1.7100  0.7544  0.5645
 6821SOL    HW327051   0.795   1.577   0.889  1.6627  1.2138  0.9470
 6821SOL    MW427052   0.839   1.502   0.883  0.1382  0.3357  0.3906
 6822SOL     OW27053   3.481   4.265   1.278 -0.1450 -0.4920 -0.6523
 6822SOL    HW227054   3.534   4.320   1.336 -2.1146  0.1623  0.5962
 6822SOL    HW327055   3.478   4.180   1.321 -0.3659 -0.4445 -0.5748
 6822SOL    MW427056   3.488   4.261   1.291 -0.4340 -0.3994 -0.4773
 6823SOL     OW27057   5.838   4.148   2.832  0.1272 -0.1024 -0.9825
 6823SOL    HW227058   5.867   4.188   2.914 -0.1108  0.5842 -1.2255
 6823SOL    HW327059   5.903   4.081   2.813 -0.7607 -1.5442  0.7041
 6823SOL    MW427060   5.850   4.144   2.840 -0.0213 -0.2021 -0.7920
 6824SOL     OW27061   1.706   3.700   0.543 -0.3356  0.3815  0.5017
 6824SOL    HW227062   1.671   3.746   0.619 -1.4028 -0.2522  0.4163
 6824SOL    HW327063   1.667   3.744   0.467  1.1104  1.3328  0.2635
 6824SOL    MW427064   1.696   3.712   0.543 -0.2856  0.4234  0.4590
 6825SOL     OW27065   2.488   0.631   0.593  0.1232  0.4373 -0.0713
 6825SOL    HW227066   2.522   0.719   0.610  1.4842 -0.3973  1.8361
 6825SOL    HW327067   2.551   0.593   0.531  0.1240  0.4298 -0.0659
 6825SOL    MW427068   2.501   0.638   0.587  0.3029  0.3262  0.1811
 6826SOL     OW27069   0.790   4.541   3.378 -0.0017 -0.3709 -0.0651
 6826SOL    HW227070   0.751   4.628   3.368  0.7742 -0.1964 -1.9874
 6826SOL    HW327071   0.717   4.480   3.369 -0.5159  0.0417  1.1023
 6826SOL    MW427072   0.775   4.544   3.376  0.0328 -0.2935 -0.1647
 6827SOL     OW27073   1.313   2.696   2.220 -1.0532  0.7128 -0.3889
 6827SOL    HW227074   1.263   2.765   2.175  0.3515  0.0056 -3.2506
 6827SOL    HW327075   1.300   2.618   2.167  1.3316 -0.0013 -0.0557
 6827SOL    MW427076   1.305   2.695   2.207 -0.5532  0.5253 -0.7225
 6828SOL     OW27077   0.079   5.597   4.378  0.6794  0.0561  0.4869
 6828SOL    HW227078   0.058   5.509   4.411 -0.3693  0.4461  0.8973
 6828SOL    HW327079   0.173   5.606   4.393  0.8477 -1.0715  0.2538
 6828SOL    MW427080   0.088   5.586   4.384  0.5633 -0.0412  0.5103
 6829SOL     OW27081   0.804   5.672   1.858  0.0076 -0.3522 -0.1353
 6829SOL    HW227082   0.775   5.620   1.933 -1.1242 -2.4501 -1.9338
 6829SOL    HW327083   0.892   5.639   1.839  0.7164  0.9015  0.8528
 6829SOL    MW427084   0.812   5.661   1.865 -0.0482 -0.4636 -0.2422
 6830SOL     OW27085   2.642   4.268   1.872 -0.7735 -0.5014 -0.3050
 6830SOL    HW227086   2.574   4.259   1.805 -0.9013  0.5727 -0.3371
 6830SOL    HW327087   2.593   4.273   1.954 -0.7537  0.3900 -0.3381
 6830SOL    MW427088   2.626   4.267   1.874 -0.7878 -0.2420 -0.3136
 6831SOL     OW27089   4.217   4.764   5.024  0.5857 -0.7720 -0.5764
 6831SOL    HW227090   4.212   4.674   4.992  1.5386 -0.8946 -0.4086
 6831SOL    HW327091   4.126   4.792   5.030  0.1023 -2.5255  1.6045
 6831SOL    MW427092   4.204   4.756   5.021  0.6477 -1.0195 -0.2665
 6832SOL     OW27093   0.516   1.869   6.332  0.8200  0.2296 -0.4353
 6832SOL    HW227094   0.609   1.854   6.310  0.3785 -0.6772 -1.8461
 6832SOL    HW327095   0.486   1.786   6.368 -0.3660 -0.8450 -3.5791
 6832SOL    MW427096   0.525   1.856   6.334  0.6052 -0.0318 -1.0362
 6833SOL     OW27097   0.961   2.985   1.232 -0.5690 -0.3282  0.3878
 6833SOL    HW227098   0.879   3.009   1.273 -1.2572 -1.2196 -0.4195
 6833SOL    HW327099   0.987   2.904   1.275 -1.3054 -1.2774 -0.9073
 6833SOL    MW427100   0.954   2.978   1.243 -0.7569 -0.5711  0.1104
 6834SOL     OW27101   3.222   6.067   6.047 -0.3299  0.4715  0.4581
 6834SOL    HW227102   3.295   6.055   6.107 -0.6180 -0.9667  0.5619
 6834SOL    HW327103   3.242   6.009   5.973 -0.3721  1.6070 -0.4667
 6834SOL    MW427104   3.234   6.058   6.045 -0.3734  0.4316  0.3498
 6835SOL     OW27105   5.369   2.625   0.787  0.1238  0.7757 -0.3554
 6835SOL    HW227106   5.334   2.658   0.870  2.0692  0.6667  0.5926
 6835SOL    HW327107   5.326   2.541   0.774  0.0686  0.6083  0.7887
 6835SOL    MW427108   5.359   2.618   0.797  0.3732  0.7392 -0.0794
 6836SOL     OW27109   0.114   5.589   5.361  0.3145  0.3295 -0.0066
 6836SOL    HW227110   0.028   5.629   5.377 -0.3364 -0.7570 -0.6762
 6836SOL    HW327111   0.104   5.541   5.279  1.1199 -1.0358  0.6561
 6836SOL    MW427112   0.101   5.588   5.352  0.3349  0.0060 -0.0075
 6837SOL     OW27113   3.977   3.363   4.746  0.0073  0.5551 -0.0274
 6837SOL    HW227114   4.048   3.386   4.806 -0.1408  2.6528 -0.5463
 6837SOL    HW327115   3.966   3.442   4.691 -2.1623 -0.0000 -0.4896
 6837SOL    MW427116   3.985   3.377   4.746 -0.2985  0.7586 -0.1568
 6838SOL     OW27117   3.317   0.212   3.248  0.2511 -0.0787 -0.5539
 6838SOL    HW227118   3.223   0.227   3.242  0.0986  1.6199  3.1201
 6838SOL    HW327119   3.325   0.126   3.289  0.2516  0.1006 -0.1733
 6838SOL    MW427120   3.306   0.203   3.252  0.2310  0.1691 -0.0190
 6839SOL     OW27121   0.097   3.023   3.669 -0.0015 -0.2969 -0.2896
 6839SOL    HW227122   0.128   3.058   3.753 -0.7852  0.1708 -0.1886
 6839SOL    HW327123   0.127   2.932   3.669 -0.3915 -0.4403  0.7121
 6839SOL    MW427124   0.105   3.016   3.680 -0.1563 -0.2541 -0.1441
 6840SOL     OW27125   2.687   3.891   0.997 -0.3016  0.1593 -0.3961
 6840SOL    HW227126   2.695   3.837   1.076 -0.0150 -1.4801 -1.4778
 6840SOL    HW327127   2.686   3.827   0.925 -0.7355  1.5857 -1.7102
 6840SOL    MW427128   2.688   3.875   0.998 -0.3210  0.1312 -0.7122
 6841SOL     OW27129   0.909   1.250   6.108 -0.1452 -0.6138 -0.1520
 6841SOL    HW227130   0.975   1.267   6.041 -0.0587  0.0225  0.0860
 6841SOL    HW327131   0.830   1.292   6.073  0.2292  0.8844  0.7386
 6841SOL    MW427132   0.907   1.258   6.094 -0.0844 -0.3322 -0.0031
 6842SOL     OW27133   4.159   3.675   0.426 -0.2856 -0.7079  0.4166
 6842SOL    HW227134   4.181   3.701   0.337  0.9389  0.4080  1.0202
 6842SOL    HW327135   4.198   3.743   0.482  1.7007 -2.9877  1.9972
 6842SOL    MW427136   4.167   3.688   0.422  0.1380 -0.8615  0.7048
 6843SOL     OW27137   0.446   0.789   3.934  0.4560  0.0374  0.2347
 6843SOL    HW227138   0.429   0.699   3.906 -2.4794  0.7171 -0.4872
 6843SOL    HW327139   0.485   0.831   3.858  2.0599 -0.6278  0.6502
 6843SOL    MW427140   0.449   0.782   3.920  0.2804  0.0393  0.1943
 6844SOL     OW27141   6.333   6.292   3.627 -0.1432 -0.2773  0.1176
 6844SOL    HW227142   6.387   6.321   3.553  0.8601 -1.6384  0.2907
 6844SOL    HW327143   6.349   6.358   3.695  1.2381 -0.5978  0.1245
 6844SOL    MW427144   6.342   6.305   3.627  0.1714 -0.4992  0.1413
 6845SOL     OW27145   5.265   3.083   2.018 -0.2399 -0.1324  0.1396
 6845SOL    HW227146   5.328   3.023   2.059 -0.0956 -0.9643 -1.2331
 6845SOL    HW327147   5.194   3.027   1.988  0.7749 -0.0082 -2.8962
 6845SOL    MW427148   5.264   3.067   2.020 -0.0870 -0.2257 -0.4420
 6846SOL     OW27149   2.404   6.397   4.967 -0.2451 -0.5489 -0.5395
 6846SOL    HW227150   2.411   6.328   4.901  0.3739  0.2481 -1.3197
 6846SOL    HW327151   2.345   6.360   5.033  1.7036 -2.6964  0.1479
 6846SOL    MW427152   2.397   6.383   4.967  0.0937 -0.7271 -0.5518
 6847SOL     OW27153   6.352   3.706   5.081 -0.3415 -0.2580 -0.3548
 6847SOL    HW227154   6.355   3.639   5.013  0.4221 -0.3753 -0.2101
 6847SOL    HW327155   6.372   3.658   5.162  2.6448  0.4903 -0.5300
 6847SOL    MW427156   6.355   3.691   5.083  0.1532 -0.1748 -0.3588
 6848SOL     OW27157   5.612   5.371   4.809 -0.1784  0.1426  0.1427
 6848SOL    HW227158   5.621   5.424   4.729 -0.6669 -1.0279 -0.7176
 6848SOL    HW327159   5.521   5.384   4.836 -0.4628 -0.6714 -0.3907
 6848SOL    MW427160   5.601   5.380   4.802 -0.2804 -0.1192 -0.0412
 6849SOL     OW27161   3.123   5.873   1.559 -0.4547 -0.1365  0.5437
 6849SOL    HW227162   3.193   5.814   1.586 -0.0175  0.1400  0.0337
 6849SOL    HW327163   3.109   5.931   1.634  0.2459  0.1576  0.4572
 6849SOL    MW427164   3.130   5.873   1.572 -0.3046 -0.0612  0.4650
 6850SOL     OW27165   4.103   6.242   1.206 -0.3954 -0.3536 -0.4262
 6850SOL    HW227166   4.117   6.273   1.296 -0.0699 -1.6712 -0.0107
 6850SOL    HW327167   4.185   6.201   1.181 -0.6760 -0.5016 -1.1282
 6850SOL    MW427168   4.116   6.241   1.215 -0.3895 -0.5470 -0.4640
 6851SOL     OW27169   3.764   3.089   2.184  0.5336 -0.1550 -0.3769
 6851SOL    HW227170   3.736   3.053   2.099 -1.1040  1.6347 -0.6737
 6851SOL    HW327171   3.757   3.184   2.173  1.1137  0.1467  1.5111
 6851SOL    MW427172   3.759   3.097   2.171  0.3941  0.1209 -0.1670
 6852SOL     OW27173   5.047   4.074   5.428  0.2203  0.0732  0.2182
 6852SOL    HW227174   4.981   4.138   5.402 -1.0757 -2.2278 -2.8352
 6852SOL    HW327175   5.130   4.118   5.411 -0.6035  1.2731 -1.0030
 6852SOL    MW427176   5.049   4.088   5.422 -0.0594 -0.0720 -0.3458
 6853SOL     OW27177   1.818   0.233   0.233 -0.3053 -0.3120  0.0767
 6853SOL    HW227178   1.814   0.321   0.196 -0.3892 -1.0489 -1.7611
 6853SOL    HW327179   1.882   0.240   0.304  1.3866  0.7641 -1.4542
 6853SOL    MW427180   1.826   0.246   0.238 -0.0931 -0.2673 -0.3678
 6854SOL     OW27181   2.794   5.785   0.775  0.2327  0.1636  0.3775
 6854SOL    HW227182   2.744   5.845   0.720  1.0346 -0.4650 -1.1104
 6854SOL    HW327183   2.728   5.723   0.808 -0.7427  2.2046  2.5858
 6854SOL    MW427184   2.778   5.784   0.772  0.2098  0.3500  0.4725
 6855SOL     OW27185   0.353   5.996   0.568  0.3820 -0.2770 -0.1555
 6855SOL    HW227186   0.351   5.978   0.474 -2.3498 -0.7937 -0.0809
 6855SOL    HW327187   0.287   6.064   0.581 -1.2870 -2.1214  1.6777
 6855SOL    MW427188   0.344   6.003   0.558 -0.1986 -0.5885  0.0962
 6856SOL     OW27189   1.178   0.405   5.508 -0.0317  0.2067 -0.1760
 6856SOL    HW227190   1.183   0.433   5.599 -1.9966 -1.2525  0.4466
 6856SOL    HW327191   1.136   0.478   5.463 -1.4997 -0.0714  0.6563
 6856SOL    MW427192   1.173   0.418   5.514 -0.4846 -0.0225  0.0159
 6857SOL     OW27193   0.297   2.457   6.153 -0.6790  0.3803 -0.6670
 6857SOL    HW227194   0.281   2.528   6.091 -0.7169 -0.7641 -2.0035
 6857SOL    HW327195   0.259   2.380   6.112  2.2656 -1.1199 -0.8581
 6857SOL    MW427196   0.290   2.457   6.140 -0.2955  0.0314 -0.8686
 6858SOL     OW27197   2.038   2.497   3.214 -0.2938 -0.3295  0.0348
 6858SOL    HW227198   2.013   2.562   3.279  0.8554 -1.6365  1.8886
 6858SOL    HW327199   2.001   2.529   3.132  0.2429  2.6471  0.8308
 6858SOL    MW427200   2.030   2.510   3.212 -0.0714 -0.1092  0.3844
 6859SOL     OW27201   1.993   4.461   3.133  0.4879 -0.1086  0.5989
 6859SOL    HW227202   2.028   4.388   3.184 -0.8592 -1.0512  0.2458
 6859SOL    HW327203   1.921   4.495   3.186  2.4362  2.4636  1.8060
 6859SOL    MW427204   1.988   4.456   3.146  0.5672  0.1064  0.7116
 6860SOL     OW27205   4.642   1.375   0.480 -0.0940 -0.1401  0.4916
 6860SOL    HW227206   4.583   1.301   0.465 -0.8660  0.2999  1.2679
 6860SOL    HW327207   4.584   1.450   0.495  0.6663  0.4777  0.4428
 6860SOL    MW427208   4.627   1.376   0.480 -0.0955 -0.0005  0.5876
 6861SOL     OW27209   1.696   0.706   3.904 -0.1640  0.2811  0.3731
 6861SOL    HW227210   1.693   0.695   3.809  1.6052  0.3398  0.2746
 6861SOL    HW327211   1.648   0.631   3.938 -0.4081  0.0026 -0.5540
 6861SOL    MW427212   1.689   0.695   3.896  0.0372  0.2521  0.2378
 6862SOL     OW27213   5.951   5.532   1.709  0.4757 -0.9839 -0.1200
 6862SOL    HW227214   6.035   5.521   1.665 -0.4262 -2.2589 -1.5958
 6862SOL    HW327215   5.909   5.606   1.665  0.2328 -1.2523 -0.3433
 6862SOL    MW427216   5.956   5.540   1.698  0.3246 -1.1875 -0.3442
 6863SOL     OW27217   3.146   1.480   4.891  1.0294  0.7838  0.0224
 6863SOL    HW227218   3.208   1.407   4.894 -0.5603 -0.5732  1.8242
 6863SOL    HW327219   3.094   1.464   4.812  1.8918  1.0439 -0.6123
 6863SOL    MW427220   3.147   1.468   4.881  0.9335  0.6391  0.1764
 6864SOL     OW27221   0.001   3.514   4.891 -0.0134  0.3484  0.0944
 6864SOL    HW227222  -0.062   3.516   4.819 -1.4668  3.5594  1.2800
 6864SOL    HW327223   0.085   3.533   4.850 -0.5732  0.6911 -0.9262
 6864SOL    MW427224   0.004   3.517   4.876 -0.2790  0.8173  0.1162
 6865SOL     OW27225   1.039   3.707   2.582 -0.2560 -0.4928  0.5492
 6865SOL    HW227226   0.960   3.705   2.637  0.3940  0.7508  1.5613
 6865SOL    HW327227   1.053   3.615   2.558 -2.5444 -0.6462 -0.4535
 6865SOL    MW427228   1.030   3.694   2.586 -0.4721 -0.3489  0.5504
 6866SOL     OW27229   2.131   3.664   4.974 -0.1542 -0.3107 -0.5782
 6866SOL    HW227230   2.061   3.605   5.001 -0.8280  0.8075  0.1941
 6866SOL    HW327231   2.087   3.736   4.930  0.5688  0.0384 -0.7527
 6866SOL    MW427232   2.116   3.665   4.972 -0.1477 -0.1171 -0.4994
 6867SOL     OW27233   4.188   2.039   1.894 -0.0692  0.0775 -0.2885
 6867SOL    HW227234   4.272   2.084   1.878 -0.5780  1.3277  0.3935
 6867SOL    HW327235   4.123   2.098   1.856 -0.5955 -1.3369 -1.6633
 6867SOL    MW427236   4.191   2.053   1.887 -0.2058  0.0558 -0.3799
 6868SOL     OW27237   5.005   5.769   5.381  0.2716  0.0150  0.2109
 6868SOL    HW227238   4.932   5.831   5.381 -0.2642 -0.5622 -1.8611
 6868SOL    HW327239   5.027   5.758   5.289  2.9137  0.0589  0.7546
 6868SOL    MW427240   4.998   5.776   5.369  0.5495 -0.0553  0.0093
 6869SOL     OW27241   6.333   3.608   1.478 -0.0205 -0.0431  0.3315
 6869SOL    HW227242   6.374   3.607   1.392 -0.5073 -2.6769  0.0406
 6869SOL    HW327243   6.365   3.688   1.519  2.1855  0.0501 -1.3696
 6869SOL    MW427244   6.343   3.618   1.472  0.2063 -0.3783  0.0687
 6870SOL     OW27245   1.065   2.124   5.886 -0.0555 -0.3008 -0.0634
 6870SOL    HW227246   1.079   2.136   5.979  2.5954  1.5105 -0.5880
 6870SOL    HW327247   1.112   2.043   5.865 -0.4817 -0.5998  0.1254
 6870SOL    MW427248   1.073   2.115   5.895  0.2380 -0.1013 -0.1077
 6871SOL     OW27249   2.153   4.014   1.115  0.7520 -0.2071  0.6608
 6871SOL    HW227250   2.194   3.939   1.071  0.2547 -0.6282  0.8943
 6871SOL    HW327251   2.086   3.974   1.171  1.6505  0.2766  2.1279
 6871SOL    MW427252   2.150   3.999   1.116  0.8050 -0.1988  0.8852
 6872SOL     OW27253   5.754   5.159   4.930 -0.1920  1.0459  0.7518
 6872SOL    HW227254   5.691   5.090   4.951 -0.2671  0.5976 -0.8721
 6872SOL    HW327255   5.702   5.227   4.887  0.4213  0.5902 -0.7807
 6872SOL    MW427256   5.739   5.159   4.927 -0.1210  0.9266  0.3353
 6873SOL     OW27257   0.949   2.679   0.749 -0.2867 -0.4331  0.3181
 6873SOL    HW227258   0.916   2.768   0.746 -0.4481 -0.5070 -0.2170
 6873SOL    HW327259   0.958   2.660   0.843  1.3207  0.7028  0.4171
 6873SOL    MW427260   0.945   2.688   0.761 -0.0959 -0.2930  0.2605
 6874SOL     OW27261   5.707   0.152   0.607  0.0525  1.0471 -0.0768
 6874SOL    HW227262   5.788   0.101   0.612 -0.8082 -0.3219  0.3104
 6874SOL    HW327263   5.700   0.176   0.515 -0.7552 -1.6460 -0.7890
 6874SOL    MW427264   5.717   0.148   0.595 -0.1677  0.5112 -0.1197
 6875SOL     OW27265   5.862   6.051   1.093 -0.3563 -0.5889  0.3142
 6875SOL    HW227266   5.918   6.092   1.027 -0.2689 -2.0277 -0.5324
 6875SOL    HW327267   5.836   6.124   1.151  1.3676  0.3081  0.0159
 6875SOL    MW427268   5.866   6.066   1.092 -0.1173 -0.6604  0.1631
 6876SOL     OW27269   0.657   0.189   1.680  0.3900 -0.2310 -0.2400
 6876SOL    HW227270   0.583   0.208   1.623  0.0732 -1.1382 -0.1362
 6876SOL    HW327271   0.733   0.189   1.621  0.3119  0.6560 -0.3527
 6876SOL    MW427272   0.657   0.192   1.665  0.3379 -0.2337 -0.2412
 6877SOL     OW27273   1.614   3.115   2.039 -0.4337  0.6527 -0.0631
 6877SOL    HW227274   1.680   3.076   2.096  0.7770  1.5282 -0.8187
 6877SOL    HW327275   1.544   3.143   2.098 -0.4234 -0.8302  0.6884
 6877SOL    MW427276   1.614   3.113   2.054 -0.2726  0.5726 -0.0636
 6878SOL     OW27277   2.990   5.228   0.483 -0.2627 -0.3406  0.5047
 6878SOL    HW227278   2.938   5.262   0.556  1.1315 -1.0893  1.9381
 6878SOL    HW327279   3.016   5.140   0.512 -2.3452 -2.0600 -2.3248
 6878SOL    MW427280   2.987   5.220   0.497 -0.3535 -0.6663  0.3205
 6879SOL     OW27281   2.825   5.903   1.597  0.1542  0.0055 -0.2878
 6879SOL    HW227282   2.914   5.879   1.624 -0.0822 -1.5418 -0.8273
 6879SOL    HW327283   2.829   5.905   1.501 -0.7442 -1.5651 -0.3798
 6879SOL    MW427284   2.838   5.900   1.588  0.0044 -0.4059 -0.3711
 6880SOL     OW27285   5.261   2.666   0.425  0.1081 -0.2341 -0.3579
 6880SOL    HW227286   5.309   2.592   0.462  2.0794  0.7795 -0.7117
 6880SOL    HW327287   5.300   2.743   0.467 -2.3913  0.6265  0.5766
 6880SOL    MW427288   5.273   2.667   0.435  0.0385  0.0132 -0.2813
 6881SOL     OW27289   3.081   5.590   0.797 -0.2225 -0.7842 -0.4615
 6881SOL    HW227290   3.130   5.635   0.728  0.0053 -0.0314  0.1779
 6881SOL    HW327291   3.128   5.508   0.812  2.6506  1.1324  2.1551
 6881SOL    MW427292   3.094   5.585   0.790  0.1866 -0.4320 -0.0319
 6882SOL     OW27293   3.877   2.990   4.232  0.5286 -0.0104  0.2098
 6882SOL    HW227294   3.850   3.066   4.284  1.0722  0.1551  0.2554
 6882SOL    HW327295   3.962   2.965   4.268  1.6995  1.1219 -1.6365
 6882SOL    MW427296   3.885   2.997   4.243  0.7548  0.1608 -0.0278
 6883SOL     OW27297   1.217   2.707   0.662  0.2397  0.1575  0.7604
 6883SOL    HW227298   1.230   2.784   0.607  2.2710  0.1004  1.0637
 6883SOL    HW327299   1.123   2.705   0.681 -0.0456  1.7802 -0.3522
 6883SOL    MW427300   1.206   2.717   0.658  0.4700  0.3641  0.6536
 6884SOL     OW27301   3.292   2.800   0.206  0.5209 -0.3946 -0.4950
 6884SOL    HW227302   3.276   2.879   0.154  1.1689  0.2096  0.2013
 6884SOL    HW327303   3.270   2.826   0.296 -0.1577 -1.2928 -0.3818
 6884SOL    MW427304   3.287   2.814   0.211  0.5169 -0.4334 -0.3882
 6885SOL     OW27305   1.095   5.034   4.295 -0.4314 -0.5972  0.0206
 6885SOL    HW227306   1.175   5.014   4.247  0.0601 -1.0268  0.9996
 6885SOL    HW327307   1.047   5.094   4.238  0.6021 -0.3079 -0.5635
 6885SOL    MW427308   1.099   5.039   4.281 -0.2302 -0.6157  0.0727
 6886SOL     OW27309   0.405   6.130   4.961  0.2663 -0.2365  0.3421
 6886SOL    HW227310   0.474   6.184   5.000 -0.5831  0.6901  0.6127
 6886SOL    HW327311   0.333   6.191   4.945 -0.0622 -0.9567 -1.0390
 6886SOL    MW427312   0.405   6.145   4.964  0.1109 -0.2093  0.1956
 6887SOL     OW27313   5.937   3.320   3.421 -0.0629 -0.2066  0.5217
 6887SOL    HW227314   5.938   3.313   3.326  0.7156 -0.5058  0.5444
 6887SOL    HW327315   5.879   3.393   3.440  0.2053  0.1953 -0.2060
 6887SOL    MW427316   5.929   3.328   3.411  0.0752 -0.1931  0.4287
 6888SOL     OW27317   1.662   0.656   2.431  0.3942  0.0782  0.2131
 6888SOL    HW227318   1.735   0.596   2.449  1.7261  1.9401  1.5081
 6888SOL    HW327319   1.681   0.691   2.344 -2.1975 -3.6719 -2.1122
 6888SOL    MW427320   1.674   0.653   2.422  0.2280 -0.1709  0.0772
 6889SOL     OW27321   6.404   5.524   1.647 -0.0869  0.5769 -0.0535
 6889SOL    HW227322   6.360   5.569   1.718  1.2923  2.3625 -0.2543
 6889SOL    HW327323   6.340   5.522   1.576 -0.0010  2.9538 -0.2832
 6889SOL    MW427324   6.390   5.530   1.647  0.1064  1.1261 -0.1103
 6890SOL     OW27325   3.193   1.018   3.256 -0.7114 -0.1901  0.8739
 6890SOL    HW227326   3.105   0.983   3.266 -1.0343 -0.1091 -1.1746
 6890SOL    HW327327   3.214   1.003   3.164  1.3990 -0.1334  1.2861
 6890SOL    MW427328   3.184   1.011   3.245 -0.4755 -0.1719  0.6580
 6891SOL     OW27329   5.703   2.044   1.556  0.3173  0.3975 -0.1151
 6891SOL    HW227330   5.772   2.039   1.621 -1.7156  0.1392  2.1650
 6891SOL    HW327331   5.678   2.136   1.552 -1.5625  0.0451  1.8213
 6891SOL    MW427332   5.708   2.055   1.564 -0.1990  0.3169  0.4412
 6892SOL     OW27333   1.107   5.766   1.475 -0.4759  0.0307 -0.6197
 6892SOL    HW227334   1.140   5.698   1.416 -0.1541 -0.4650  0.1220
 6892SOL    HW327335   1.079   5.719   1.553 -0.2882  0.7442 -0.1144
 6892SOL    MW427336   1.108   5.751   1.477 -0.4087  0.0594 -0.4552
 6893SOL     OW27337   2.175   1.678   2.920  0.3107 -0.2120 -0.4829
 6893SOL    HW227338   2.269   1.660   2.928  0.3719  0.7818  2.0577
 6893SOL    HW327339   2.137   1.639   2.999 -1.4217 -0.4629 -1.4035
 6893SOL    MW427340   2.183   1.670   2.932  0.0902 -0.1140 -0.2691
 6894SOL     OW27341   1.343   5.553   6.195 -0.1722  0.0817 -0.2159
 6894SOL    HW227342   1.389   5.518   6.271  0.6462 -1.2998 -1.3013
 6894SOL    HW327343   1.250   5.537   6.213  0.1206 -2.0438 -0.3214
 6894SOL    MW427344   1.337   5.546   6.207 -0.0256 -0.3810 -0.3730
 6895SOL     OW27345   4.090   0.532   0.599 -0.1184 -0.4268  0.1055
 6895SOL    HW227346   4.052   0.488   0.675 -2.0328 -1.8282 -1.5433
 6895SOL    HW327347   4.069   0.625   0.613 -1.1974 -0.7643  0.8844
 6895SOL    MW427348   4.082   0.538   0.611 -0.5133 -0.6562 -0.0093
 6896SOL     OW27349   1.224   2.674   2.486 -0.0666 -0.0397 -0.5098
 6896SOL    HW227350   1.229   2.580   2.503 -1.2876  0.0856  0.6975
 6896SOL    HW327351   1.266   2.685   2.401  1.7250 -1.4238  0.1160
 6896SOL    MW427352   1.231   2.663   2.477  0.0086 -0.2058 -0.2679
 6897SOL     OW27353   5.034   3.182   1.641 -0.9644  0.1522  0.1893
 6897SOL    HW227354   5.099   3.251   1.624 -0.9027 -0.0059 -0.2479
 6897SOL    HW327355   4.969   3.194   1.572 -2.1204  1.1501  1.3937
 6897SOL    MW427356   5.034   3.193   1.629 -1.1088  0.2630  0.2905
 6898SOL     OW27357   0.250   2.532   0.264 -0.2537  0.1780  0.0652
 6898SOL    HW227358   0.181   2.512   0.328  0.4778  0.0919  0.8488
 6898SOL    HW327359   0.262   2.627   0.272  1.5578 -0.1111  1.9317
 6898SOL    MW427360   0.242   2.542   0.274  0.0818  0.1285  0.4148
 6899SOL     OW27361   2.675   2.525   0.842  0.0185 -0.1178  0.4917
 6899SOL    HW227362   2.646   2.586   0.775 -2.1417  1.2686  2.4871
 6899SOL    HW327363   2.751   2.566   0.882  1.5275 -1.1164 -1.2333
 6899SOL    MW427364   2.681   2.538   0.839 -0.0674 -0.0667  0.5273
 6900SOL     OW27365   3.597   0.159   5.559  0.0866 -0.5680  0.2161
 6900SOL    HW227366   3.590   0.208   5.477  3.1642  0.5164  0.4784
 6900SOL    HW327367   3.576   0.069   5.536 -2.1837  0.2157 -1.0468
 6900SOL    MW427368   3.593   0.154   5.545  0.1931 -0.3216  0.0841
 6901SOL     OW27369   3.224   0.832   1.094 -0.1581  0.1380 -0.5834
 6901SOL    HW227370   3.303   0.821   1.041 -1.2626  1.4640 -2.6443
 6901SOL    HW327371   3.238   0.914   1.141  0.8440 -1.0646  1.3422
 6901SOL    MW427372   3.236   0.841   1.093 -0.1716  0.1543 -0.6012
 6902SOL     OW27373   6.079   3.755   4.059  0.6024  0.0912 -0.0055
 6902SOL    HW227374   6.159   3.804   4.076  0.7970 -0.6347  1.2469
 6902SOL    HW327375   6.040   3.799   3.983  0.9643  1.9374  0.8172
 6902SOL    MW427376   6.084   3.768   4.051  0.6758  0.2390  0.2683
 6903SOL     OW27377   0.714   3.932   2.550 -0.6000 -0.5502  0.3314
 6903SOL    HW227378   0.687   4.010   2.598 -2.6258 -0.3346 -1.0524
 6903SOL    HW327379   0.747   3.872   2.617 -2.8964 -0.1030  1.9513
 6903SOL    MW427380   0.715   3.934   2.565 -1.1703 -0.4628  0.3626
 6904SOL     OW27381   4.221   1.930   4.751 -0.0943  0.2246 -0.8056
 6904SOL    HW227382   4.154   1.862   4.749 -0.4636  0.5117  0.7530
 6904SOL    HW327383   4.173   2.012   4.739  0.0329  0.3911 -0.2051
 6904SOL    MW427384   4.206   1.932   4.749 -0.1263  0.2845 -0.5207
 6905SOL     OW27385   4.099   0.848   3.741 -0.0713  0.3109 -0.0221
 6905SOL    HW227386   4.006   0.832   3.726  0.0669  0.8315 -1.6945
 6905SOL    HW327387   4.103   0.896   3.823 -1.3534  0.9675 -0.3229
 6905SOL    MW427388   4.088   0.852   3.750 -0.2222  0.4663 -0.2824
 6906SOL     OW27389   2.369   2.813   3.876 -0.2245  0.5745  0.1198
 6906SOL    HW227390   2.396   2.732   3.920 -0.2496  0.1152 -0.6947
 6906SOL    HW327391   2.292   2.842   3.926 -1.0208 -0.6213 -0.3669
 6906SOL    MW427392   2.363   2.806   3.889 -0.3329  0.3562 -0.0518
 6907SOL     OW27393   3.509   3.986   5.276 -0.1882  0.2073 -0.3364
 6907SOL    HW227394   3.469   4.056   5.327 -1.9630 -0.4698 -0.7134
 6907SOL    HW327395   3.578   3.951   5.332  0.8322  2.3173 -0.2109
 6907SOL    MW427396   3.513   3.990   5.290 -0.2878  0.3963 -0.3696
 6908SOL     OW27397   2.538   2.081   3.508  0.2151  0.2834 -0.2862
 6908SOL    HW227398   2.594   2.158   3.517 -0.0349  0.5502 -0.9548
 6908SOL    HW327399   2.579   2.015   3.563  1.8465  0.1041 -1.6319
 6908SOL    MW427400   2.550   2.082   3.516  0.3974  0.2950 -0.5520
 6909SOL     OW27401   0.983   1.852   5.237 -0.0082  0.3625  0.3024
 6909SOL    HW227402   0.960   1.759   5.235 -1.6745  0.7313  1.2339
 6909SOL    HW327403   1.074   1.852   5.268  0.7697 -1.0322 -1.7233
 6909SOL    MW427404   0.992   1.839   5.241 -0.1254  0.2271  0.1580
 6910SOL     OW27405   5.046   1.765   6.336  0.0291 -0.5514  0.2881
 6910SOL    HW227406   5.116   1.703   6.353  1.0431  0.0669 -1.4492
 6910SOL    HW327407   5.021   1.797   6.423  2.1082 -0.5720  0.9413
 6910SOL    MW427408   5.052   1.761   6.350  0.4372 -0.4726  0.1451
 6911SOL     OW27409   6.172   5.912   5.736 -0.0998  0.8322 -0.2162
 6911SOL    HW227410   6.124   5.976   5.787  0.1831  1.0929 -0.2717
 6911SOL    HW327411   6.209   5.852   5.800  0.5828  1.3837 -0.0703
 6911SOL    MW427412   6.171   5.913   5.751  0.0276  0.9393 -0.2043
 6912SOL     OW27413   0.385   4.487   4.626 -0.0326  0.3155  0.3648
 6912SOL    HW227414   0.448   4.559   4.634  0.6310 -0.0160 -1.3852
 6912SOL    HW327415   0.431   4.411   4.661  0.1932  0.2716 -0.0183
 6912SOL    MW427416   0.400   4.486   4.632  0.0847  0.2660  0.0834
 6913SOL     OW27417   5.839   5.741   1.536 -0.4148  0.1105  0.5143
 6913SOL    HW227418   5.838   5.726   1.441  2.1497 -2.1771  0.7095
 6913SOL    HW327419   5.869   5.831   1.546 -0.0329  0.1561 -0.8614
 6913SOL    MW427420   5.843   5.751   1.525 -0.0261 -0.1853  0.3586
 6914SOL     OW27421   2.411   3.460   3.730  0.0882  0.4236 -0.1455
 6914SOL    HW227422   2.355   3.424   3.798  0.5396  0.2044  0.1079
 6914SOL    HW327423   2.352   3.515   3.678 -0.5052 -0.3330 -0.2833
 6914SOL    MW427424   2.396   3.463   3.732  0.0695  0.2948 -0.1303
 6915SOL     OW27425   1.527   5.951   6.350 -0.1420  0.0930 -0.2689
 6915SOL    HW227426   1.484   6.034   6.327  1.1772  0.1730 -2.8406
 6915SOL    HW327427   1.619   5.974   6.363  0.3606 -0.9947 -1.6044
 6915SOL    MW427428   1.533   5.965   6.348  0.0983 -0.0399 -0.7844
 6916SOL     OW27429   3.823   0.941   4.174 -0.2423  0.3383  1.1568
 6916SOL    HW227430   3.831   0.856   4.217 -0.0986 -0.5087 -0.4703
 6916SOL    HW327431   3.887   0.996   4.218  0.0671 -0.5501  1.8568
 6916SOL    MW427432   3.832   0.937   4.185 -0.1825  0.1093  1.0345
 6917SOL     OW27433   5.651   1.922   2.554  0.3101  0.4707 -0.4509
 6917SOL    HW227434   5.731   1.879   2.522  0.6796  0.4839  0.4238
 6917SOL    HW327435   5.580   1.867   2.521  0.7105  0.0185 -0.5881
 6917SOL    MW427436   5.652   1.909   2.545  0.4117  0.4128 -0.3536
 6918SOL     OW27437   5.665   0.236   4.016 -0.4695 -0.3638 -0.3214
 6918SOL    HW227438   5.628   0.180   3.948 -2.7719  1.6898 -0.9096
 6918SOL    HW327439   5.675   0.321   3.974  0.6455  0.2925  1.1776
 6918SOL    MW427440   5.661   0.240   4.002 -0.6261 -0.0063 -0.2012
 6919SOL     OW27441   4.663   6.155   0.963  0.5157 -0.4732  0.3151
 6919SOL    HW227442   4.621   6.083   1.009 -1.1972 -0.9312 -1.8240
 6919SOL    HW327443   4.700   6.210   1.033 -0.1550 -2.1719  2.0842
 6919SOL    MW427444   4.663   6.153   0.979  0.2012 -0.7578  0.2663
 6920SOL     OW27445   0.398   6.307   4.675 -0.2072  0.3241 -0.1699
 6920SOL    HW227446   0.493   6.309   4.685 -0.0745 -1.5055 -0.6499
 6920SOL    HW327447   0.381   6.233   4.617 -2.0197 -0.5471  1.3159
 6920SOL    MW427448   0.408   6.298   4.669 -0.4289 -0.0323 -0.0372
 6921SOL     OW27449   5.778   1.539   4.300 -0.5948 -0.2646  0.7871
 6921SOL    HW227450   5.873   1.550   4.302 -0.3382 -2.0895  0.2546
 6921SOL    HW327451   5.760   1.499   4.215 -1.9520  0.8004  0.5309
 6921SOL    MW427452   5.788   1.536   4.289 -0.7400 -0.3649  0.6830
 6922SOL     OW27453   4.815   0.483   4.770  0.4306  0.1972 -0.3619
 6922SOL    HW227454   4.776   0.508   4.686 -0.4300  0.3650  0.0801
 6922SOL    HW327455   4.753   0.422   4.809  1.1111 -0.3413 -0.1036
 6922SOL    MW427456   4.802   0.478   4.764  0.4069  0.1483 -0.2695
 6923SOL     OW27457   3.312   4.775   1.785  0.0877 -0.1477 -0.0840
 6923SOL    HW227458   3.245   4.782   1.853  0.2010 -0.4554  0.0632
 6923SOL    HW327459   3.268   4.801   1.704  0.2737  1.3975  0.2861
 6923SOL    MW427460   3.298   4.779   1.783  0.1272  0.0156 -0.0157
 6924SOL     OW27461   4.928   1.679   6.096 -0.5750  0.3435  0.2935
 6924SOL    HW227462   4.990   1.708   6.163  0.0250 -0.4819  0.1074
 6924SOL    HW327463   4.946   1.735   6.021 -0.7564  0.7874  0.5767
 6924SOL    MW427464   4.938   1.690   6.095 -0.5198  0.2932  0.3063
 6925SOL     OW27465   4.477   1.320   1.595 -0.7191  0.0367  0.6179
 6925SOL    HW227466   4.540   1.279   1.654  2.5858 -0.9843 -3.1585
 6925SOL    HW327467   4.420   1.248   1.567 -0.3946 -0.1349  0.3900
 6925SOL    MW427468   4.478   1.305   1.599 -0.2402 -0.1206  0.0896
 6926SOL     OW27469   6.185   0.365   3.591 -0.0456  0.3268  0.2484
 6926SOL    HW227470   6.209   0.354   3.499  0.3423  0.0340  0.3810
 6926SOL    HW327471   6.117   0.300   3.606  1.6346 -1.4083  0.8023
 6926SOL    MW427472   6.179   0.355   3.581  0.2273  0.0592  0.3390
 6927SOL     OW27473   1.442   3.112   3.009 -0.2843  0.3382  0.3502
 6927SOL    HW227474   1.359   3.069   3.030 -0.2508  0.5537  0.9598
 6927SOL    HW327475   1.449   3.107   2.914 -1.5718  1.3515  0.1747
 6927SOL    MW427476   1.432   3.106   2.999 -0.4497  0.5003  0.4075
 6928SOL     OW27477   0.808   2.092   2.284 -0.5718 -0.0208  0.0669
 6928SOL    HW227478   0.844   2.038   2.214  0.7328 -0.3433  0.9305
 6928SOL    HW327479   0.861   2.172   2.282  1.3273 -1.0739  2.2574
 6928SOL    MW427480   0.820   2.095   2.275 -0.1491 -0.2023  0.4699
 6929SOL     OW27481   2.934   3.666   2.326 -0.1454  0.0464  0.0437
 6929SOL    HW227482   2.894   3.648   2.412 -1.3515 -0.8774 -0.6802
 6929SOL    HW327483   3.025   3.686   2.346 -0.3198 -0.4971  1.5201
 6929SOL    MW427484   2.940   3.666   2.340 -0.3276 -0.1472  0.1430
 6930SOL     OW27485   3.655   4.286   3.625  0.1692 -0.7046  0.2214
 6930SOL    HW227486   3.580   4.270   3.683  0.3699  0.1564  0.7433
 6930SOL    HW327487   3.645   4.222   3.554 -0.9437 -0.7378  0.3903
 6930SOL    MW427488   3.644   4.276   3.623  0.0489 -0.5954  0.3125
 6931SOL     OW27489   4.492   4.184   5.680 -0.2394 -0.1582 -0.6004
 6931SOL    HW227490   4.405   4.146   5.665 -0.4117 -0.2406  0.4878
 6931SOL    HW327491   4.536   4.178   5.596 -0.4323 -2.3069 -0.6060
 6931SOL    MW427492   4.486   4.178   5.667 -0.2876 -0.4526 -0.4576
 6932SOL     OW27493   5.436   3.934   0.500 -1.0375 -0.0630  0.1849
 6932SOL    HW227494   5.367   3.933   0.434 -1.6209  1.0164  0.7487
 6932SOL    HW327495   5.422   4.016   0.548 -0.5381 -0.7611  1.5569
 6932SOL    MW427496   5.425   3.945   0.497 -1.0486 -0.0127  0.4403
 6933SOL     OW27497   3.176   0.820   1.831 -0.2951 -0.4159 -0.0652
 6933SOL    HW227498   3.113   0.761   1.790  0.1557 -2.0498  1.4433
 6933SOL    HW327499   3.163   0.807   1.925 -0.3741  2.1654  0.3470
 6933SOL    MW427500   3.166   0.810   1.838 -0.2460 -0.2909  0.1882
 6934SOL     OW27501   0.815   2.799   3.779  0.4304  0.5692 -0.4366
 6934SOL    HW227502   0.767   2.727   3.820  1.2422  0.4707  0.3631
 6934SOL    HW327503   0.754   2.835   3.714 -0.2886 -0.2917 -0.2493
 6934SOL    MW427504   0.800   2.795   3.776  0.4426  0.4426 -0.3064
 6935SOL     OW27505   5.651   2.537   3.753  0.6030 -0.1725 -0.1286
 6935SOL    HW227506   5.627   2.572   3.839 -0.0216 -2.0632  0.5326
 6935SOL    HW327507   5.579   2.562   3.696  0.5692  0.2955  0.1101
 6935SOL    MW427508   5.639   2.545   3.757  0.5161 -0.3602 -0.0098
 6936SOL     OW27509   2.794   0.779   2.337 -0.0036 -0.4563 -0.1221
 6936SOL    HW227510   2.753   0.725   2.270  0.0099  0.1207 -0.6024
 6936SOL    HW327511   2.725   0.795   2.401 -0.1023 -0.7588 -0.1544
 6936SOL    MW427512   2.780   0.774   2.337 -0.0149 -0.4201 -0.1897
 6937SOL     OW27513   5.408   3.798   5.311  0.1955 -0.0661 -0.6344
 6937SOL    HW227514   5.452   3.753   5.239  2.2904  0.6865  0.0954
 6937SOL    HW327515   5.384   3.883   5.275  2.8849  1.0409 -0.0510
 6937SOL    MW427516   5.411   3.803   5.297  0.8267  0.1792 -0.4611
 6938SOL     OW27517   1.595   5.450   1.846  0.4217  0.2882 -0.6124
 6938SOL    HW227518   1.617   5.542   1.835  1.5027  0.0025 -1.0199
 6938SOL    HW327519   1.679   5.407   1.866 -0.2895 -0.4021  1.0457
 6938SOL    MW427520   1.609   5.456   1.847  0.4705  0.1594 -0.4474
 6939SOL     OW27521   1.183   2.546   4.104 -0.0249  0.2669  0.2381
 6939SOL    HW227522   1.269   2.584   4.089  0.5745 -1.2677 -0.4204
 6939SOL    HW327523   1.199   2.452   4.110 -1.8266 -0.1809 -1.1876
 6939SOL    MW427524   1.196   2.538   4.103 -0.1835  0.0053 -0.0369
 6940SOL     OW27525   5.920   1.011   1.655  0.1554 -0.1437  0.2723
 6940SOL    HW227526   5.942   1.063   1.732 -1.7279  0.3487  0.5306
 6940SOL    HW327527   5.886   1.074   1.592  2.4414 -0.4108 -1.3486
 6940SOL    MW427528   5.919   1.026   1.657  0.2085 -0.1139  0.0925
 6941SOL     OW27529   4.153   1.462   5.778  0.0237  0.0622 -0.6015
 6941SOL    HW227530   4.113   1.429   5.859 -1.1790  1.6164 -0.5091
 6941SOL    HW327531   4.128   1.554   5.776  0.5752  0.1952 -2.4417
 6941SOL    MW427532   4.145   1.470   5.789 -0.0622  0.2848 -0.8321
 6942SOL     OW27533   0.674   0.880   0.721  0.0507  0.5768  0.6519
 6942SOL    HW227534   0.649   0.896   0.630  2.9642  1.1805 -0.1332
 6942SOL    HW327535   0.768   0.895   0.724  0.6246 -2.3351  3.1309
 6942SOL    MW427536   0.683   0.884   0.709  0.5108  0.2722  0.8754
 6943SOL     OW27537   3.674   0.766   1.147  0.2623  0.0941 -0.1098
 6943SOL    HW227538   3.739   0.763   1.217  0.9049 -0.3674 -0.7156
 6943SOL    HW327539   3.615   0.692   1.166 -0.0477  0.4640  0.3922
 6943SOL    MW427540   3.675   0.756   1.159  0.3062  0.0820 -0.1235
 6944SOL     OW27541   3.581   4.965   1.397  0.1157  0.3707  0.1542
 6944SOL    HW227542   3.497   4.967   1.351 -0.9932  0.0294  2.0625
 6944SOL    HW327543   3.573   5.034   1.463  1.4230  0.4594  0.2324
 6944SOL    MW427544   3.569   4.974   1.399  0.1418  0.3374  0.4163
 6945SOL     OW27545   0.221   0.774   5.946  0.1225  0.0257  0.1402
 6945SOL    HW227546   0.286   0.705   5.932  0.6055  0.7388 -1.2989
 6945SOL    HW327547   0.241   0.840   5.879 -0.4512  1.4749  1.3380
 6945SOL    MW427548   0.232   0.774   5.935  0.1105  0.3110  0.1083
 6946SOL     OW27549   3.204   3.738   2.437 -0.2525 -0.2155  0.8757
 6946SOL    HW227550   3.249   3.806   2.388 -0.7476  0.4666  1.3503
 6946SOL    HW327551   3.150   3.785   2.500 -2.0865 -0.9842 -0.0532
 6946SOL    MW427552   3.203   3.753   2.439 -0.5598 -0.2270  0.8158
 6947SOL     OW27553   3.484   1.141   6.418  0.1701  0.2886  0.6422
 6947SOL    HW227554   3.471   1.235   6.429 -0.0537  0.2453  0.7557
 6947SOL    HW327555   3.578   1.129   6.421  0.2646  0.6579 -0.5621
 6947SOL    MW427556   3.494   1.152   6.420  0.1530  0.3316  0.4983
 6948SOL     OW27557   1.591   5.861   4.906  0.1214  0.8281 -0.2858
 6948SOL    HW227558   1.644   5.832   4.980 -0.0298  0.1243 -0.4446
 6948SOL    HW327559   1.536   5.930   4.941 -0.6614 -0.1817  0.5192
 6948SOL    MW427560   1.591   5.866   4.920 -0.0018  0.6020 -0.2006
 6949SOL     OW27561   4.257   1.487   4.572  0.0127  0.0441  0.7252
 6949SOL    HW227562   4.301   1.478   4.657  0.8481  0.2348  0.3241
 6949SOL    HW327563   4.229   1.398   4.550  0.9959 -0.2482  0.5799
 6949SOL    MW427564   4.259   1.474   4.580  0.2527  0.0307  0.6531
 6950SOL     OW27565   0.390   4.756   2.679 -0.6426  0.0674  0.1922
 6950SOL    HW227566   0.357   4.699   2.749 -1.1946 -0.3220 -0.3748
 6950SOL    HW327567   0.326   4.828   2.676 -0.2595  0.4311  0.5204
 6950SOL    MW427568   0.377   4.758   2.688 -0.6649  0.0640  0.1607
 6951SOL     OW27569   2.100   4.117   5.032  0.0572  0.2791  0.2882
 6951SOL    HW227570   2.184   4.159   5.053 -1.2132  2.9827  0.3357
 6951SOL    HW327571   2.121   4.056   4.961  1.7515  2.3546 -1.1205
 6951SOL    MW427572   2.114   4.114   5.026  0.1132  0.9096  0.1086
 6952SOL     OW27573   3.218   4.635   2.489 -0.3734  0.3344  0.2040
 6952SOL    HW227574   3.159   4.563   2.510 -0.0315  0.0064  0.0566
 6952SOL    HW327575   3.211   4.695   2.564  1.1067 -0.9952  1.4941
 6952SOL    MW427576   3.209   4.634   2.502 -0.1330  0.1157  0.3548
 6953SOL     OW27577   1.374   1.491   0.814 -0.1374 -0.3863 -0.2029
 6953SOL    HW227578   1.415   1.458   0.734  0.8737  0.2434  0.0366
 6953SOL    HW327579   1.441   1.545   0.855 -0.1153 -1.8393  1.8157
 6953SOL    MW427580   1.388   1.493   0.809 -0.0011 -0.4950  0.0950
 6954SOL     OW27581   1.196   0.988   2.231 -0.1045  0.7865 -0.2421
 6954SOL    HW227582   1.267   0.934   2.264  3.2288  3.2639 -2.6535
 6954SOL    HW327583   1.158   1.028   2.309  1.5693 -0.1687  1.1255
 6954SOL    MW427584   1.200   0.986   2.246  0.5562  0.9873 -0.3798
 6955SOL     OW27585   6.115   0.858   4.902  0.2652 -0.2264  0.0361
 6955SOL    HW227586   6.083   0.947   4.886  1.4068  0.2935  0.5003
 6955SOL    HW327587   6.044   0.815   4.949 -1.3021 -0.3624 -2.2864
 6955SOL    MW427588   6.101   0.864   4.906  0.2090 -0.1757 -0.2091
 6956SOL     OW27589   4.722   0.841   3.674 -0.2752 -0.1608  0.4726
 6956SOL    HW227590   4.778   0.818   3.600 -0.0092 -2.1942  1.2295
 6956SOL    HW327591   4.780   0.888   3.734 -0.2630  0.6950 -0.1931
 6956SOL    MW427592   4.737   0.844   3.673 -0.2385 -0.3162  0.4846
 6957SOL     OW27593   4.693   0.886   0.492 -0.4758 -0.2876  0.1300
 6957SOL    HW227594   4.738   0.931   0.422 -1.8009 -2.0151 -1.9639
 6957SOL    HW327595   4.747   0.809   0.510 -0.2836  0.0034  0.8651
 6957SOL    MW427596   4.706   0.882   0.485 -0.6253 -0.4771 -0.0493
 6958SOL     OW27597   1.824   1.084   2.802  0.1274  0.9928 -0.0462
 6958SOL    HW227598   1.836   1.103   2.709  0.1342  2.7784  0.2739
 6958SOL    HW327599   1.897   1.128   2.846  0.4962 -0.3701  0.7852
 6958SOL    MW427600   1.835   1.092   2.796  0.1769  1.0486  0.1057
 6959SOL     OW27601   5.028   0.303   4.705  0.2133 -0.1640 -0.1615
 6959SOL    HW227602   5.015   0.278   4.614  0.7601  1.0058 -0.5797
 6959SOL    HW327603   4.966   0.375   4.719 -0.8807 -1.2609  0.8242
 6959SOL    MW427604   5.018   0.309   4.695  0.1411 -0.1544 -0.0866
 6960SOL     OW27605   3.345   5.331   2.648 -0.4136  0.1420 -0.8581
 6960SOL    HW227606   3.392   5.257   2.686 -2.2282 -0.3241  0.6143
 6960SOL    HW327607   3.348   5.399   2.715 -0.4664  0.6873 -1.4004
 6960SOL    MW427608   3.351   5.330   2.662 -0.6600  0.1524 -0.7354
 6961SOL     OW27609   1.333   4.891   4.185  0.2845  0.5418 -0.2885
 6961SOL    HW227610   1.362   4.960   4.125  1.7961  0.4100  0.2685
 6961SOL    HW327611   1.292   4.826   4.128  1.2922  0.6284 -1.1307
 6961SOL    MW427612   1.331   4.892   4.169  0.6169  0.5359 -0.3261
 6962SOL     OW27613   0.489   4.386   3.257  0.3360  0.0360  0.7977
 6962SOL    HW227614   0.462   4.315   3.315 -1.1556 -0.5014 -0.4816
 6962SOL    HW327615   0.528   4.342   3.182 -0.3877  0.5501  0.0978
 6962SOL    MW427616   0.490   4.371   3.254  0.0437  0.0329  0.5366
 6963SOL     OW27617   1.975   0.864   4.848 -0.5112  0.0181  0.3294
 6963SOL    HW227618   2.008   0.843   4.761 -3.4019 -0.1739 -0.8539
 6963SOL    HW327619   2.003   0.954   4.863  1.5823 -0.5335  0.0598
 6963SOL    MW427620   1.983   0.873   4.838 -0.6163 -0.0800  0.1377
 6964SOL     OW27621   3.128   1.194   4.535 -0.1107  0.3758 -0.3965
 6964SOL    HW227622   3.169   1.110   4.557 -1.2101 -0.7114 -2.2413
 6964SOL    HW327623   3.194   1.239   4.481  0.1685  0.3472 -0.0812
 6964SOL    MW427624   3.142   1.189   4.531 -0.2189  0.2286 -0.5983
 6965SOL     OW27625   3.053   4.085   6.354  0.1966 -0.4278 -0.7707
 6965SOL    HW227626   3.017   3.998   6.372 -1.5387  0.3260 -0.3436
 6965SOL    HW327627   3.055   4.091   6.259 -1.7300 -0.1906 -0.8361
 6965SOL    MW427628   3.049   4.074   6.344 -0.2865 -0.2971 -0.7230
 6966SOL     OW27629   5.296   3.151   6.316 -0.1800 -0.3807  0.2689
 6966SOL    HW227630   5.249   3.069   6.300 -0.6586  0.0257 -0.4817
 6966SOL    HW327631   5.297   3.160   6.411 -0.9325 -0.8079  0.3286
 6966SOL    MW427632   5.290   3.142   6.326 -0.3424 -0.3834  0.1777
 6967SOL     OW27633   3.185   5.082   0.733 -0.3453  0.6442 -0.1614
 6967SOL    HW227634   3.247   5.064   0.663  0.8379  0.9395  0.7709
 6967SOL    HW327635   3.205   5.172   0.760  1.4605 -0.4695  2.6674
 6967SOL    MW427636   3.196   5.092   0.728  0.0490  0.5362  0.3348
 6968SOL     OW27637   0.685   4.186   6.389  0.2069  0.5081  0.4592
 6968SOL    HW227638   0.737   4.260   6.357  2.7213 -0.9508  0.9849
 6968SOL    HW327639   0.648   4.147   6.310  0.0941  1.4117  0.0490
 6968SOL    MW427640   0.687   4.191   6.374  0.5238  0.4349  0.4744
 6969SOL     OW27641   1.598   0.701   5.778 -0.1745  0.0080 -0.1394
 6969SOL    HW227642   1.691   0.723   5.768  0.0687 -0.8477  0.2083
 6969SOL    HW327643   1.573   0.742   5.861  0.2675 -0.9437  0.4835
 6969SOL    MW427644   1.607   0.710   5.787 -0.0841 -0.2304 -0.0114
 6970SOL     OW27645   0.155   3.598   4.038 -0.1923  0.4818 -0.3578
 6970SOL    HW227646   0.085   3.658   4.063  0.1027  0.9524 -0.6462
 6970SOL    HW327647   0.141   3.582   3.944 -0.6091 -0.3553 -0.1567
 6970SOL    MW427648   0.144   3.604   4.029 -0.2084  0.4335 -0.3694
 6971SOL     OW27649   0.642   3.327   5.052  0.3272 -0.4296  0.1068
 6971SOL    HW227650   0.614   3.306   4.964 -2.6134  0.1883  0.7918
 6971SOL    HW327651   0.662   3.421   5.050 -0.4012 -0.2662  0.2241
 6971SOL    MW427652   0.641   3.337   5.040 -0.1569 -0.3265  0.2127
 6972SOL     OW27653   5.480   0.033   2.173 -0.2492 -0.2900  0.2683
 6972SOL    HW227654   5.448  -0.042   2.223  0.9814 -0.3197  1.0841
 6972SOL    HW327655   5.444   0.022   2.085  1.4371 -2.9214 -0.2035
 6972SOL    MW427656   5.471   0.022   2.168  0.1356 -0.6411  0.3136
 6973SOL     OW27657   2.824   3.133   1.209 -0.0207  0.1303 -0.3100
 6973SOL    HW227658   2.753   3.185   1.171 -0.2803  0.1619  0.2201
 6973SOL    HW327659   2.828   3.160   1.301 -0.2156 -0.8500 -0.0039
 6973SOL    MW427660   2.816   3.144   1.216 -0.0807  0.0051 -0.1997
 6974SOL     OW27661   5.288   4.640   3.356  0.1376  0.2256 -0.3791
 6974SOL    HW227662   5.266   4.733   3.361  0.8305  0.3630  0.2610
 6974SOL    HW327663   5.271   4.617   3.265 -0.8227  0.7763 -0.3487
 6974SOL    MW427664   5.283   4.649   3.345  0.1023  0.3164 -0.2907
 6975SOL     OW27665   5.608   0.880   3.187 -0.0250  0.4242  1.0977
 6975SOL    HW227666   5.693   0.862   3.227 -0.8922 -0.3532  2.6971
 6975SOL    HW327667   5.553   0.908   3.260 -0.6729  2.7807 -0.2030
 6975SOL    MW427668   5.612   0.881   3.202 -0.2249  0.6325  1.1371
 6976SOL     OW27669   5.933   4.111   5.982  0.7479  0.1164 -0.0878
 6976SOL    HW227670   6.019   4.111   5.939  1.1284  0.6233  0.6501
 6976SOL    HW327671   5.876   4.157   5.920  0.9859 -0.2782 -0.6110
 6976SOL    MW427672   5.937   4.117   5.968  0.8295  0.1313 -0.0595
 6977SOL     OW27673   0.601   4.506   1.404  0.1455  0.8271  0.0031
 6977SOL    HW227674   0.645   4.453   1.338 -2.1052  1.0888 -1.8328
 6977SOL    HW327675   0.565   4.580   1.355 -1.8287  0.9043  1.4429
 6977SOL    MW427676   0.602   4.509   1.389 -0.4120  0.8718 -0.0491
 6978SOL     OW27677   3.256   4.317   4.406 -0.0524 -0.0943 -0.1311
 6978SOL    HW227678   3.179   4.309   4.349 -0.8570 -0.2139  0.9407
 6978SOL    HW327679   3.308   4.240   4.387 -1.3404 -1.2347  0.7680
 6978SOL    MW427680   3.252   4.306   4.396 -0.3285 -0.2606  0.1289
 6979SOL     OW27681   2.199   5.761   2.095  0.1915 -0.0633 -0.2271
 6979SOL    HW227682   2.272   5.700   2.098  1.3411  1.2333 -0.7123
 6979SOL    HW327683   2.232   5.840   2.139 -0.4169  1.0268 -1.6419
 6979SOL    MW427684   2.213   5.764   2.101  0.2629  0.2516 -0.4778
 6980SOL     OW27685   0.704   1.933   0.338  0.0219  0.2931 -0.7871
 6980SOL    HW227686   0.741   1.905   0.254  2.1460 -0.9408  0.4625
 6980SOL    HW327687   0.776   1.980   0.381  0.3153 -2.2327  1.7752
 6980SOL    MW427688   0.719   1.936   0.333  0.3409 -0.2030 -0.2842
 6981SOL     OW27689   3.040   0.513   4.957  0.3564  0.6691 -0.2309
 6981SOL    HW227690   2.992   0.483   5.035  1.5546  1.9544  1.0430
 6981SOL    HW327691   3.117   0.557   4.991  1.4528  0.4023 -2.1972
 6981SOL    MW427692   3.044   0.515   4.972  0.6591  0.8035 -0.3223
 6982SOL     OW27693   2.362   2.299   5.758  0.0532 -0.4511  0.2062
 6982SOL    HW227694   2.391   2.330   5.844  1.3442 -1.3755  0.1312
 6982SOL    HW327695   2.402   2.359   5.695  0.6149 -0.8583  0.1713
 6982SOL    MW427696   2.371   2.311   5.761  0.2977 -0.6268  0.1917
 6983SOL     OW27697   5.914   5.648   1.952  0.4378 -0.2917  0.3261
 6983SOL    HW227698   5.917   5.743   1.935  0.2306 -0.0649  1.5243
 6983SOL    HW327699   5.937   5.609   1.867  1.8906  0.8430  0.1451
 6983SOL    MW427700   5.917   5.656   1.938  0.6021 -0.1121  0.4603
 6984SOL     OW27701   5.086   5.263   0.374  0.8597  0.8168  0.8187
 6984SOL    HW227702   5.107   5.228   0.288 -0.2239 -0.7011  1.1345
 6984SOL    HW327703   4.991   5.275   0.373  0.5196 -1.1851  2.4600
 6984SOL    MW427704   5.076   5.260   0.363  0.6719  0.3524  1.0769
 6985SOL     OW27705   4.695   0.431   0.353 -0.1708 -0.1585  0.0976
 6985SOL    HW227706   4.746   0.492   0.406  0.2366  1.6684 -2.1954
 6985SOL    HW327707   4.725   0.344   0.380  3.5055  0.7678 -0.3881
 6985SOL    MW427708   4.706   0.428   0.363  0.3680  0.2047 -0.2690
 6986SOL     OW27709   5.711   0.790   1.879 -0.6787 -0.5663 -0.0651
 6986SOL    HW227710   5.659   0.816   1.803 -0.5372  0.4973  0.1990
 6986SOL    HW327711   5.650   0.739   1.932 -1.5900  0.9653  0.4134
 6986SOL    MW427712   5.696   0.786   1.876 -0.7803 -0.2239  0.0328
 6987SOL     OW27713   2.986   2.398   3.153 -0.1808  0.2599  0.1148
 6987SOL    HW227714   3.069   2.392   3.106 -0.6185  1.1206 -0.8042
 6987SOL    HW327715   2.947   2.311   3.145  0.5717 -0.1191  0.4628
 6987SOL    MW427716   2.992   2.386   3.145 -0.1393  0.3234  0.0394
 6988SOL     OW27717   5.690   4.643   3.208 -0.3530  0.4371 -0.1632
 6988SOL    HW227718   5.770   4.686   3.179 -0.4315  2.6929  2.6045
 6988SOL    HW327719   5.620   4.689   3.161 -0.1776 -0.4301 -1.3255
 6988SOL    MW427720   5.691   4.655   3.198 -0.3402  0.6203  0.0486
 6989SOL     OW27721   3.540   6.220   4.100 -0.2242 -0.1950  0.5389
 6989SOL    HW227722   3.561   6.227   4.194 -0.8711  0.0334  0.6698
 6989SOL    HW327723   3.566   6.305   4.064  2.1777 -1.0511  0.0552
 6989SOL    MW427724   3.546   6.232   4.108  0.0074 -0.2778  0.4923
 6990SOL     OW27725   1.259   4.278   1.010  0.1225 -0.7365 -0.1587
 6990SOL    HW227726   1.212   4.345   1.060 -0.5092 -0.4840 -1.0492
 6990SOL    HW327727   1.269   4.205   1.071 -0.2972 -0.3068  0.4441
 6990SOL    MW427728   1.254   4.277   1.025 -0.0162 -0.6465 -0.1967
 6991SOL     OW27729   3.644   0.977   4.880 -0.0471  0.2623 -0.5730
 6991SOL    HW227730   3.583   0.987   4.953  1.5399 -1.6924  1.1418
 6991SOL    HW327731   3.590   0.990   4.802 -2.1964  0.6571  0.8919
 6991SOL    MW427732   3.629   0.980   4.879 -0.1213  0.0565 -0.1535
 6992SOL     OW27733   5.930   2.475   2.614 -0.1056  0.2923 -0.4761
 6992SOL    HW227734   5.895   2.555   2.652 -0.4882  0.1085 -0.4400
 6992SOL    HW327735   5.882   2.464   2.532  0.7528  0.7184 -1.0547
 6992SOL    MW427736   5.919   2.484   2.608 -0.0428  0.3243 -0.5477
 6993SOL     OW27737   2.297   4.074   5.603  0.3708  0.0835  0.1920
 6993SOL    HW227738   2.221   4.053   5.658 -1.5099  0.5030 -2.0795
 6993SOL    HW327739   2.260   4.123   5.529  3.2000  2.3051  0.0992
 6993SOL    MW427740   2.282   4.077   5.600  0.4960  0.4319 -0.1200
 6994SOL     OW27741   3.272   4.135   1.101 -0.1727 -0.1684  0.0966
 6994SOL    HW227742   3.349   4.181   1.135  0.7847 -0.7511 -1.2208
 6994SOL    HW327743   3.236   4.194   1.035 -1.1153  0.2671  0.9593
 6994SOL    MW427744   3.278   4.149   1.097 -0.1707 -0.1879  0.0367
 6995SOL     OW27745   1.153   5.123   3.668 -0.1402 -0.3163 -0.2834
 6995SOL    HW227746   1.203   5.176   3.729 -0.4893 -0.1597 -0.1277
 6995SOL    HW327747   1.061   5.144   3.687 -0.2486 -0.0802 -1.0268
 6995SOL    MW427748   1.147   5.133   3.679 -0.2006 -0.2645 -0.3610
 6996SOL     OW27749   4.754   3.670   0.208 -0.5258  0.1034  0.4424
 6996SOL    HW227750   4.812   3.673   0.284 -0.4363 -0.9618  0.4333
 6996SOL    HW327751   4.676   3.717   0.236  0.2051  1.2809  0.5617
 6996SOL    MW427752   4.751   3.676   0.222 -0.4175  0.1182  0.4570
 6997SOL     OW27753   1.382   3.422   2.573  0.8554 -0.3700  0.5092
 6997SOL    HW227754   1.437   3.477   2.517  1.9492 -1.3137  0.6192
 6997SOL    HW327755   1.405   3.447   2.662  0.6257 -0.2998  0.5479
 6997SOL    MW427756   1.392   3.432   2.577  0.9694 -0.4852  0.5289
 6998SOL     OW27757   2.500   0.939   2.955  0.7603  0.2745 -0.1294
 6998SOL    HW227758   2.591   0.966   2.962  1.0988 -0.2302 -1.9680
 6998SOL    HW327759   2.502   0.860   2.900 -0.9248  1.5317 -2.1840
 6998SOL    MW427760   2.512   0.932   2.949  0.5826  0.3738 -0.6431
 6999SOL     OW27761   5.442   3.080   5.877  0.6429  0.1795  0.4714
 6999SOL    HW227762   5.509   3.026   5.918  0.4848 -1.6563 -1.5055
 6999SOL    HW327763   5.481   3.108   5.794 -0.8564 -0.6397 -0.5522
 6999SOL    MW427764   5.456   3.076   5.872  0.4242 -0.1708  0.0756
 7000SOL     OW27765   6.019   2.076   2.658 -0.3289  0.5850  0.0864
 7000SOL    HW227766   5.929   2.108   2.652 -0.0940  1.3002  0.2644
 7000SOL    HW327767   6.016   1.987   2.624 -0.6738  1.3784 -2.0910
 7000SOL    MW427768   6.007   2.069   2.653 -0.3434  0.7840 -0.1774
 7001SOL     OW27769   0.450   0.825   0.188  0.1742 -0.2876 -0.1420
 7001SOL    HW227770   0.393   0.758   0.226  0.0602 -0.3628 -0.4469
 7001SOL    HW327771   0.512   0.777   0.133 -0.5493 -0.0671 -1.1748
 7001SOL    MW427772   0.451   0.810   0.186  0.0637 -0.2684 -0.3185
 7002SOL     OW27773   5.682   0.270   0.348 -0.0092  0.1304 -0.2968
 7002SOL    HW227774   5.629   0.348   0.331 -1.0001 -0.0776  1.6065
 7002SOL    HW327775   5.634   0.198   0.307 -1.4816 -0.1158  1.7373
 7002SOL    MW427776   5.669   0.271   0.340 -0.3342  0.0705  0.2227
 7003SOL     OW27777   6.044   2.760   3.837  0.1284  0.4291 -0.1582
 7003SOL    HW227778   6.042   2.666   3.853 -0.1298  0.5083  0.2943
 7003SOL    HW327779   6.130   2.788   3.868  0.6064  0.1873 -1.2233
 7003SOL    MW427780   6.055   2.751   3.843  0.1574  0.4077 -0.2390
 7004SOL     OW27781   5.266   0.835   3.367  0.1906 -0.2548  0.3397
 7004SOL    HW227782   5.327   0.831   3.441  0.5692 -0.5981  0.0183
 7004SOL    HW327783   5.274   0.749   3.326 -0.5712 -0.3312  0.3335
 7004SOL    MW427784   5.275   0.823   3.372  0.1400 -0.3102  0.2965
 7005SOL     OW27785   2.270   2.649   0.762  0.1232 -0.6428  0.0121
 7005SOL    HW227786   2.175   2.658   0.751  0.2277 -1.1557 -1.4553
 7005SOL    HW327787   2.307   2.720   0.709  0.5947 -1.5717 -0.9196
 7005SOL    MW427788   2.262   2.660   0.754  0.1992 -0.8330 -0.3044
 7006SOL     OW27789   1.025   1.636   0.593  0.2291 -0.1049  0.2509
 7006SOL    HW227790   0.945   1.685   0.612  1.2145  1.1375  1.2923
 7006SOL    HW327791   1.073   1.692   0.532  0.0211 -1.1592 -0.9177
 7006SOL    MW427792   1.021   1.650   0.587  0.3317 -0.0801  0.2341
 7007SOL     OW27793   2.834   2.870   4.545  0.6330 -0.7443  0.5390
 7007SOL    HW227794   2.920   2.910   4.556  1.4700 -2.0788 -0.7728
 7007SOL    HW327795   2.835   2.795   4.604  0.5525 -1.0252  0.1859
 7007SOL    MW427796   2.846   2.865   4.554  0.7328 -0.9574  0.3193
 7008SOL     OW27797   3.545   4.986   0.758  0.3038 -0.0642  0.0640
 7008SOL    HW227798   3.518   5.065   0.711  0.4923 -0.7320 -1.2109
 7008SOL    HW327799   3.477   4.922   0.738  0.2901 -0.3078  0.8788
 7008SOL    MW427800   3.533   4.988   0.749  0.3268 -0.1845  0.0033
 7009SOL     OW27801   4.068   1.173   4.163  0.3456  0.0908 -0.3092
 7009SOL    HW227802   4.050   1.133   4.248  0.8528 -0.2888 -0.3798
 7009SOL    HW327803   4.109   1.257   4.185 -2.1363  1.3637 -0.1163
 7009SOL    MW427804   4.071   1.179   4.177  0.0850  0.2086 -0.2930
 7010SOL     OW27805   1.281   1.440   6.060  0.1211 -0.5611  0.5439
 7010SOL    HW227806   1.230   1.511   6.019 -0.4958 -1.4132 -0.1959
 7010SOL    HW327807   1.372   1.470   6.055 -0.3034  1.2304  2.3620
 7010SOL    MW427808   1.286   1.454   6.054 -0.0163 -0.4372  0.6862
 7011SOL     OW27809   0.548   0.780   2.027 -0.7075 -0.3962 -0.0680
 7011SOL    HW227810   0.605   0.801   1.954 -0.2719 -0.4882  0.2413
 7011SOL    HW327811   0.471   0.740   1.987 -1.2380  1.0859 -0.6139
 7011SOL    MW427812   0.545   0.777   2.012 -0.7200 -0.2128 -0.0992
 7012SOL     OW27813   5.708   0.595   5.789 -0.6969 -0.1998 -1.0340
 7012SOL    HW227814   5.637   0.597   5.725 -0.9552 -1.2487 -0.8088
 7012SOL    HW327815   5.694   0.513   5.837  0.0302  0.1205 -0.2582
 7012SOL    MW427816   5.697   0.584   5.786 -0.6350 -0.2959 -0.9020
 7013SOL     OW27817   0.576   4.688   4.646  0.1997 -0.0838  0.3861
 7013SOL    HW227818   0.565   4.783   4.648 -0.4305 -0.1503  1.8718
 7013SOL    HW327819   0.611   4.667   4.733 -1.5707 -1.3954  0.8292
 7013SOL    MW427820   0.579   4.698   4.658 -0.1171 -0.2656  0.6406
 7014SOL     OW27821   5.973   4.557   4.708  0.3475  0.3876  0.1104
 7014SOL    HW227822   5.890   4.599   4.730  0.8941  1.1890  0.7182
 7014SOL    HW327823   5.981   4.568   4.613  0.0454  0.8512  0.1342
 7014SOL    MW427824   5.963   4.564   4.698  0.3798  0.5545  0.1937
 7015SOL     OW27825   2.309   6.006   2.161  0.4764 -0.4155 -0.3224
 7015SOL    HW227826   2.234   6.057   2.190  0.1252 -1.0748 -0.0635
 7015SOL    HW327827   2.384   6.064   2.176 -0.0110  0.3939 -0.9529
 7015SOL    MW427828   2.309   6.021   2.167  0.3657 -0.3957 -0.3714
 7016SOL     OW27829   6.206   4.377   6.050 -0.1046 -0.3594  0.3371
 7016SOL    HW227830   6.148   4.383   5.975 -1.3097 -0.5608  1.2317
 7016SOL    HW327831   6.255   4.459   6.049  1.6317 -1.3145 -2.0073
 7016SOL    MW427832   6.205   4.388   6.040 -0.0345 -0.5120  0.1458
 7017SOL     OW27833   6.418   3.961   2.628 -0.6584  1.1083 -0.5532
 7017SOL    HW227834   6.482   4.033   2.630  0.5932  0.0307  0.2006
 7017SOL    HW327835   6.377   3.964   2.715 -1.4797  1.6429 -0.9493
 7017SOL    MW427836   6.421   3.971   2.640 -0.6017  1.0367 -0.5060
 7018SOL     OW27837   0.583   6.313   1.441  0.1824  0.2139 -0.2200
 7018SOL    HW227838   0.578   6.229   1.395  0.6107  0.6003 -0.9983
 7018SOL    HW327839   0.669   6.347   1.418  0.6997  0.1197  1.4289
 7018SOL    MW427840   0.594   6.306   1.432  0.3072  0.2524 -0.1051
 7019SOL     OW27841   2.140   4.304   3.825 -0.5217  0.1220 -0.1716
 7019SOL    HW227842   2.216   4.337   3.874 -0.5461  1.9437 -1.2632
 7019SOL    HW327843   2.178   4.265   3.746 -0.6391 -0.4608  0.0550
 7019SOL    MW427844   2.155   4.303   3.821 -0.5404  0.2855 -0.2857
 7020SOL     OW27845   2.958   1.371   0.340 -0.2062  0.0766  0.6988
 7020SOL    HW227846   2.923   1.452   0.378 -1.0207  0.1915 -0.2640
 7020SOL    HW327847   2.997   1.325   0.414  1.5079  1.9509  1.0590
 7020SOL    MW427848   2.958   1.376   0.355 -0.0875  0.3391  0.6193
 7021SOL     OW27849   3.911   3.205   4.046  0.2166 -0.2937 -0.7463
 7021SOL    HW227850   3.837   3.266   4.042  0.3906  0.0643  0.7215
 7021SOL    HW327851   3.874   3.125   4.083  0.3956 -0.3683 -0.7285
 7021SOL    MW427852   3.896   3.203   4.051  0.2632 -0.2563 -0.5503
 7022SOL     OW27853   1.421   0.166   1.985  0.0068 -0.1176  0.3320
 7022SOL    HW227854   1.451   0.102   2.050  1.1333  1.2854  1.2651
 7022SOL    HW327855   1.500   0.215   1.962 -0.7660  0.7443 -0.5768
 7022SOL    MW427856   1.436   0.164   1.991  0.0534  0.1813  0.3352
 7023SOL     OW27857   5.285   4.614   6.315  0.7578  0.1831 -0.3488
 7023SOL    HW227858   5.267   4.565   6.235  1.5159  0.5789 -0.7729
 7023SOL    HW327859   5.363   4.572   6.351 -0.6765 -1.2471  1.2338
 7023SOL    MW427860   5.293   4.602   6.309  0.6686  0.0467 -0.1959
 7024SOL     OW27861   0.371   3.134   2.892  0.2148  0.1955  0.1445
 7024SOL    HW227862   0.358   3.065   2.957  0.5033  0.6189  0.6629
 7024SOL    HW327863   0.414   3.204   2.940  0.3457  0.5566 -0.4872
 7024SOL    MW427864   0.375   3.134   2.907  0.2701  0.2990  0.1295
 7025SOL     OW27865   1.891   0.570   4.543 -0.3819  0.4518 -0.6582
 7025SOL    HW227866   1.827   0.502   4.562 -0.4467  1.0224  1.3964
 7025SOL    HW327867   1.950   0.530   4.479 -1.8893 -0.6081 -1.4423
 7025SOL    MW427868   1.891   0.556   4.537 -0.5894  0.3872 -0.4906
 7026SOL     OW27869   4.651   4.124   4.372 -0.2743 -0.0370  0.5948
 7026SOL    HW227870   4.703   4.057   4.415 -0.5992  1.1905  3.0902
 7026SOL    HW327871   4.561   4.107   4.400 -0.7581 -0.1156 -0.9117
 7026SOL    MW427872   4.646   4.113   4.382 -0.3810  0.1146  0.7253
 7027SOL     OW27873   3.830   1.594   2.619  0.1012 -0.7799 -0.4329
 7027SOL    HW227874   3.863   1.531   2.683 -0.1855 -0.5358 -0.0319
 7027SOL    HW327875   3.814   1.674   2.670  0.6132 -0.3314 -0.9647
 7027SOL    MW427876   3.832   1.596   2.634  0.1309 -0.6885 -0.4502
 7028SOL     OW27877   2.759   4.056   5.372 -0.0309  0.1649  0.4759
 7028SOL    HW227878   2.854   4.049   5.384  0.0387 -0.4306 -0.3291
 7028SOL    HW327879   2.749   4.098   5.286 -0.5092  2.2432  1.4839
 7028SOL    MW427880   2.771   4.060   5.362 -0.0848  0.3606  0.5027
 7029SOL     OW27881   3.407   5.502   1.588  0.4022  0.4075 -0.5536
 7029SOL    HW227882   3.499   5.513   1.610  0.5172  0.9130 -1.2527
 7029SOL    HW327883   3.408   5.452   1.507 -0.0196 -1.6003  0.6078
 7029SOL    MW427884   3.419   5.496   1.580  0.3617  0.2093 -0.4926
 7030SOL     OW27885   4.558   3.790   1.436 -0.0249 -0.1865  0.2734
 7030SOL    HW227886   4.467   3.784   1.464 -0.4956  0.8082 -0.9262
 7030SOL    HW327887   4.553   3.796   1.340  1.1588  1.6770  0.2773
 7030SOL    MW427888   4.545   3.790   1.427  0.0691  0.1906  0.1156
 7031SOL     OW27889   3.196   5.033   3.607 -0.1800 -0.1810  0.0920
 7031SOL    HW227890   3.190   4.994   3.694 -2.0466 -2.3587 -0.9392
 7031SOL    HW327891   3.290   5.048   3.594  0.2136 -0.6264  2.0982
 7031SOL    MW427892   3.208   5.030   3.617 -0.3743 -0.5271  0.2206
 7032SOL     OW27893   6.268   1.224   3.633 -0.4098 -0.2986  0.2453
 7032SOL    HW227894   6.286   1.258   3.721  0.9914 -1.2628  0.3751
 7032SOL    HW327895   6.220   1.295   3.589 -1.1315  0.2019  1.7674
 7032SOL    MW427896   6.264   1.238   3.639 -0.3201 -0.3598  0.4632
 7033SOL     OW27897   0.675   4.686   3.046  0.0636  0.0467  0.2968
 7033SOL    HW227898   0.731   4.609   3.058 -0.9910 -0.6903  0.6037
 7033SOL    HW327899   0.680   4.704   2.952  0.2833 -0.4158  0.2147
 7033SOL    MW427900   0.683   4.678   3.035 -0.0466 -0.1116  0.3264
 7034SOL     OW27901   5.717   2.976   1.210 -0.3512  0.4112 -0.0588
 7034SOL    HW227902   5.718   2.881   1.202 -1.0637  0.4711 -1.1718
 7034SOL    HW327903   5.788   2.997   1.270 -0.3508 -0.8388  0.3873
 7034SOL    MW427904   5.726   2.967   1.217 -0.4451  0.2542 -0.1468
 7035SOL     OW27905   3.364   3.960   3.878 -0.4038 -0.2562  0.1116
 7035SOL    HW227906   3.398   3.932   3.792  1.7003  0.2476  0.7140
 7035SOL    HW327907   3.436   3.943   3.938 -1.7233 -0.2775  1.7502
 7035SOL    MW427908   3.378   3.954   3.874 -0.3003 -0.1925  0.4073
 7036SOL     OW27909   4.170   3.950   1.949  0.2959  0.1141  0.0630
 7036SOL    HW227910   4.234   3.993   2.006  0.1520  1.3170 -0.6575
 7036SOL    HW327911   4.125   4.021   1.904  1.0007 -0.7860 -2.2222
 7036SOL    MW427912   4.173   3.965   1.950  0.3699  0.1540 -0.3336
 7037SOL     OW27913   3.705   4.963   4.752 -0.1917  0.2940 -0.0578
 7037SOL    HW227914   3.710   4.879   4.799 -0.6517  2.0285  3.4547
 7037SOL    HW327915   3.796   4.983   4.730 -0.0628 -1.0213 -0.8425
 7037SOL    MW427916   3.718   4.955   4.756 -0.2354  0.3493  0.3021
 7038SOL     OW27917   5.120   4.908   1.136 -0.0374  0.3374  0.8626
 7038SOL    HW227918   5.147   4.881   1.224  0.5931  1.1760  0.9389
 7038SOL    HW327919   5.027   4.932   1.146 -0.3999 -1.0047  0.9539
 7038SOL    MW427920   5.111   4.908   1.149 -0.0020  0.2710  0.8847
 7039SOL     OW27921   5.617   6.177   5.899  0.2395  0.6302 -0.2428
 7039SOL    HW227922   5.573   6.162   5.815 -0.0561 -0.2639  0.0671
 7039SOL    HW327923   5.708   6.193   5.875  0.0077  1.1762 -0.7919
 7039SOL    MW427924   5.623   6.177   5.885  0.1699  0.5843 -0.2744
 7040SOL     OW27925   0.352   1.622   2.082  0.0292  0.5236 -0.1372
 7040SOL    HW227926   0.366   1.596   1.991 -0.6987 -1.9402  0.3776
 7040SOL    HW327927   0.408   1.699   2.094  2.3067 -0.7428 -1.8672
 7040SOL    MW427928   0.361   1.629   2.071  0.2337  0.0314 -0.2975
 7041SOL     OW27929   0.827   1.840   0.091  0.2274 -0.3049 -0.0449
 7041SOL    HW227930   0.844   1.901   0.019 -0.3159  1.6767  1.4076
 7041SOL    HW327931   0.800   1.759   0.048 -2.2138  1.4453 -2.1069
 7041SOL    MW427932   0.826   1.838   0.075 -0.1664  0.1875 -0.1253
 7042SOL     OW27933   5.727   6.036   3.613  0.1488 -0.3133 -0.0672
 7042SOL    HW227934   5.797   6.042   3.548 -0.3139  0.5442 -0.4934
 7042SOL    HW327935   5.657   5.989   3.568 -1.2328  2.5945 -1.1813
 7042SOL    MW427936   5.727   6.030   3.599 -0.0946  0.1835 -0.2704
 7043SOL     OW27937   1.840   0.840   0.356 -0.0580 -0.2167 -0.2484
 7043SOL    HW227938   1.798   0.915   0.399 -0.7511 -1.1422  0.7486
 7043SOL    HW327939   1.806   0.763   0.403  3.5783 -1.0218  1.4472
 7043SOL    MW427940   1.830   0.840   0.368  0.3303 -0.4450  0.1069
 7044SOL     OW27941   5.101   3.967   6.175  0.3337  0.0316 -0.2671
 7044SOL    HW227942   5.193   3.954   6.197  0.7988 -1.0768 -2.5717
 7044SOL    HW327943   5.097   4.058   6.143 -0.0342  1.0900  2.5040
 7044SOL    MW427944   5.113   3.977   6.174  0.3465  0.0250 -0.2055
 7045SOL     OW27945   4.248   3.850   0.870 -0.1732  0.4257  0.0158
 7045SOL    HW227946   4.294   3.921   0.825  1.5297  0.1801  1.3144
 7045SOL    HW327947   4.168   3.838   0.818  1.0087  1.1174 -2.0957
 7045SOL    MW427948   4.243   3.858   0.857  0.2074  0.4846 -0.0915
 7046SOL     OW27949   4.388   0.272   4.401  0.0714  0.0817  0.2921
 7046SOL    HW227950   4.458   0.322   4.359 -1.2540  2.2084  0.4677
 7046SOL    HW327951   4.395   0.294   4.494  0.9864 -2.0801  0.7926
 7046SOL    MW427952   4.398   0.282   4.408  0.0173  0.0771  0.3813
 7047SOL     OW27953   3.006   0.259   4.433  0.0280  0.8377 -0.3811
 7047SOL    HW227954   2.925   0.270   4.382 -0.4863  1.0326  0.4671
 7047SOL    HW327955   3.060   0.333   4.406 -0.3951  1.1606 -0.3571
 7047SOL    MW427956   3.002   0.270   4.423 -0.0957  0.9060 -0.2660
 7048SOL     OW27957   4.416   1.326   2.844  0.0724 -0.5224  0.1960
 7048SOL    HW227958   4.429   1.415   2.812  1.3806 -0.5897  0.4833
 7048SOL    HW327959   4.429   1.333   2.938 -1.7431 -0.6912  0.4933
 7048SOL    MW427960   4.419   1.339   2.852  0.0055 -0.5536  0.2731
 7049SOL     OW27961   1.811   2.466   5.696  0.3093  0.0176 -0.1645
 7049SOL    HW227962   1.900   2.465   5.732  0.6336  0.5035 -0.9074
 7049SOL    HW327963   1.798   2.378   5.661  1.3955  0.5657 -2.0931
 7049SOL    MW427964   1.821   2.454   5.696  0.4954  0.1540 -0.5170
 7050SOL     OW27965   5.201   1.910   1.691 -0.1543  0.0819  0.3129
 7050SOL    HW227966   5.162   1.868   1.768 -0.3218 -0.8356 -0.2660
 7050SOL    HW327967   5.149   1.878   1.617  1.3506 -0.7745 -0.4187
 7050SOL    MW427968   5.189   1.900   1.692  0.0222 -0.1521  0.1400
 7051SOL     OW27969   4.438   6.306   5.510 -0.3145 -0.5915  0.1318
 7051SOL    HW227970   4.507   6.303   5.576 -1.3446  1.9828  1.4625
 7051SOL    HW327971   4.385   6.228   5.527  1.0140 -1.4304  0.5033
 7051SOL    MW427972   4.440   6.295   5.521 -0.2751 -0.3626  0.3564
 7052SOL     OW27973   2.272   1.473   0.457  0.0179  0.4866  0.1334
 7052SOL    HW227974   2.329   1.495   0.531 -1.6597  0.4115  1.5220
 7052SOL    HW327975   2.230   1.556   0.434 -0.2548  0.3055 -0.0242
 7052SOL    MW427976   2.274   1.487   0.464 -0.2394  0.4528  0.2958
 7053SOL     OW27977   1.965   0.479   0.575 -0.0852  0.2387  0.2761
 7053SOL    HW227978   2.017   0.480   0.655  0.2123 -2.3981  0.2060
 7053SOL    HW327979   2.026   0.509   0.507 -0.0767  1.6220  0.8602
 7053SOL    MW427980   1.980   0.483   0.577 -0.0448  0.0733  0.3439
 7054SOL     OW27981   4.617   2.967   1.507 -0.5583 -0.2434 -0.4640
 7054SOL    HW227982   4.578   2.887   1.472  2.0262 -2.0381  0.4652
 7054SOL    HW327983   4.601   2.962   1.601 -0.3584  0.3128 -0.3984
 7054SOL    MW427984   4.610   2.956   1.514 -0.1909 -0.4068 -0.3327
 7055SOL     OW27985   0.657   2.641   2.839 -0.0317 -0.3990 -0.7206
 7055SOL    HW227986   0.604   2.684   2.773  1.4374 -0.9890 -2.3631
 7055SOL    HW327987   0.595   2.588   2.889 -1.0607 -0.8048 -2.3545
 7055SOL    MW427988   0.642   2.640   2.837  0.0264 -0.5304 -1.1529
 7056SOL     OW27989   3.811   3.435   4.242 -0.4242  0.1945 -0.7783
 7056SOL    HW227990   3.898   3.404   4.266 -0.3238 -0.1419 -1.5454
 7056SOL    HW327991   3.787   3.497   4.311 -0.0681 -0.5841  0.0648
 7056SOL    MW427992   3.819   3.439   4.254 -0.3640  0.0474 -0.7683
 7057SOL     OW27993   1.640   5.638   0.143  0.2035 -0.3401  1.2401
 7057SOL    HW227994   1.700   5.702   0.182 -0.0135 -1.1396  2.9616
 7057SOL    HW327995   1.558   5.686   0.131  1.1733  0.8322 -1.3587
 7057SOL    MW427996   1.637   5.653   0.147  0.3029 -0.2909  1.1243
 7058SOL     OW27997   4.620   5.537   3.080 -0.0011  0.1435  0.4640
 7058SOL    HW227998   4.542   5.490   3.109 -1.1464  1.6151 -0.1192
 7058SOL    HW327999   4.634   5.603   3.148  1.1063 -0.4873  0.8667
 7058SOL    MW428000   4.611   5.540   3.093 -0.0061  0.2545  0.4402
 7059SOL     OW28001   4.504   1.839   4.225  0.0185  0.4661 -0.4985
 7059SOL    HW228002   4.502   1.855   4.130  1.2903 -0.4272 -0.7040
 7059SOL    HW328003   4.596   1.818   4.243 -0.3921 -0.2855  0.7823
 7059SOL    MW428004   4.516   1.838   4.215  0.1321  0.2491 -0.3566
 7060SOL     OW28005   4.761   2.269   1.679 -0.0891  0.4111  0.4284
 7060SOL    HW228006   4.833   2.279   1.617  2.2705 -2.4605  2.3858
 7060SOL    HW328007   4.711   2.194   1.646  0.2284 -0.1087  1.0961
 7060SOL    MW428008   4.764   2.260   1.667  0.2641 -0.0363  0.7748
 7061SOL     OW28009   0.995   0.229   0.764 -0.4260  0.3555 -0.8874
 7061SOL    HW228010   1.036   0.281   0.695  0.8008  3.1784  1.6864
 7061SOL    HW328011   0.931   0.288   0.804  0.3779 -0.3317  1.6224
 7061SOL    MW428012   0.992   0.243   0.760 -0.1581  0.6373 -0.2167
 7062SOL     OW28013   4.491   2.968   2.842 -0.0418  0.2108  0.1254
 7062SOL    HW228014   4.561   2.903   2.844 -1.7036 -1.7240 -0.6355
 7062SOL    HW328015   4.535   3.052   2.849  2.1484 -1.0073  2.0480
 7062SOL    MW428016   4.506   2.971   2.843  0.0279 -0.2052  0.2786
 7063SOL     OW28017   1.884   0.774   3.487  0.5292 -0.0245 -0.4918
 7063SOL    HW228018   1.943   0.700   3.504 -0.2179 -0.8187 -1.2891
 7063SOL    HW328019   1.801   0.748   3.528  0.5773  0.8838  0.2186
 7063SOL    MW428020   1.881   0.761   3.495  0.4370 -0.0094 -0.5032
 7064SOL     OW28021   2.696   3.496   3.705 -0.3391 -0.1325 -0.3812
 7064SOL    HW228022   2.608   3.461   3.719 -0.9222  1.1216 -0.7788
 7064SOL    HW328023   2.718   3.540   3.787 -0.3875  0.1862 -0.5373
 7064SOL    MW428024   2.687   3.497   3.718 -0.4225  0.0750 -0.4543
 7065SOL     OW28025   1.727   3.722   1.261 -0.1481 -0.2365  0.1146
 7065SOL    HW228026   1.737   3.650   1.199  2.4486  0.4998 -0.4449
 7065SOL    HW328027   1.704   3.679   1.344 -1.8074 -1.3887 -0.9027
 7065SOL    MW428028   1.726   3.707   1.264 -0.0244 -0.2914 -0.0935
 7066SOL     OW28029   3.731   5.350   4.212 -0.6768 -0.5234  0.2863
 7066SOL    HW228030   3.780   5.270   4.194 -1.1911 -0.9921  0.9090
 7066SOL    HW328031   3.642   5.319   4.230 -0.5299  0.0259  2.1016
 7066SOL    MW428032   3.726   5.335   4.212 -0.7253 -0.5128  0.6080
 7067SOL     OW28033   0.807   4.443   3.029  0.5884 -0.3055  0.4344
 7067SOL    HW228034   0.742   4.375   3.049 -0.8444  1.0906  0.7519
 7067SOL    HW328035   0.810   4.446   2.933 -1.0310  0.6680  0.3798
 7067SOL    MW428036   0.798   4.435   3.019  0.1857  0.0072  0.4691
 7068SOL     OW28037   1.516   4.540   3.306  0.1169  0.5002 -0.2639
 7068SOL    HW228038   1.486   4.485   3.234  0.5981 -0.2140  0.0745
 7068SOL    HW328039   1.509   4.484   3.383 -0.4215  1.2655  0.2600
 7068SOL    MW428040   1.511   4.526   3.307  0.1093  0.5069 -0.1501
 7069SOL     OW28041   4.483   2.556   5.516  0.5456  0.1216  0.2936
 7069SOL    HW228042   4.490   2.464   5.541  3.9546 -0.1882 -1.2468
 7069SOL    HW328043   4.563   2.597   5.549 -0.3457  2.3011 -0.0451
 7069SOL    MW428044   4.495   2.549   5.523  0.8777  0.3682  0.0457
 7070SOL     OW28045   0.227   0.370   3.836  0.2244  0.2716  0.3869
 7070SOL    HW228046   0.133   0.355   3.848  0.7515 -1.2304  3.7001
 7070SOL    HW328047   0.233   0.461   3.808 -2.2243  0.2029 -0.6858
 7070SOL    MW428048   0.215   0.380   3.834 -0.0292  0.0644  0.6825
 7071SOL     OW28049   5.979   0.634   0.295 -0.2863 -0.1967 -0.6232
 7071SOL    HW228050   5.973   0.685   0.376 -0.2378  0.0644 -0.7856
 7071SOL    HW328051   5.911   0.671   0.239 -0.3433 -0.4018 -0.6900
 7071SOL    MW428052   5.969   0.645   0.298 -0.2874 -0.1893 -0.6534
 7072SOL     OW28053   1.399   4.925   2.582 -0.6711  0.0347  0.8390
 7072SOL    HW228054   1.408   4.931   2.677  1.4510 -3.3623  1.0239
 7072SOL    HW328055   1.315   4.881   2.569  0.0484 -1.6236  1.3951
 7072SOL    MW428056   1.389   4.920   2.593 -0.2962 -0.6323  0.9368
 7073SOL     OW28057   4.022   3.013   2.117 -0.0785  0.1190 -0.8267
 7073SOL    HW228058   3.956   3.057   2.171  0.9897 -0.1383  0.7413
 7073SOL    HW328059   4.025   2.924   2.151 -0.9369 -0.7404 -2.8011
 7073SOL    MW428060   4.013   3.007   2.129 -0.0508 -0.0283 -0.8803
 7074SOL     OW28061   0.670   1.997   0.786  0.4348 -0.1030 -0.0298
 7074SOL    HW228062   0.647   2.062   0.719  0.1441  1.7527  1.7476
 7074SOL    HW328063   0.629   2.030   0.866  1.0668 -2.0307  1.1639
 7074SOL    MW428064   0.661   2.010   0.788  0.4798 -0.1125  0.3622
 7075SOL     OW28065   0.632   3.223   0.446 -0.3105 -0.1244 -0.1642
 7075SOL    HW228066   0.659   3.190   0.360  0.6186 -2.0304  0.8055
 7075SOL    HW328067   0.702   3.196   0.505 -0.9282  1.1550  1.2127
 7075SOL    MW428068   0.645   3.215   0.443 -0.2694 -0.2070  0.1454
 7076SOL     OW28069   6.033   3.045   4.238  0.3164  0.3257 -0.2919
 7076SOL    HW228070   6.116   3.011   4.271  0.4628 -0.6239 -1.5675
 7076SOL    HW328071   6.027   3.012   4.148 -0.5461  1.9418 -0.8822
 7076SOL    MW428072   6.043   3.036   4.230  0.2219  0.4137 -0.5381
 7077SOL     OW28073   0.839   5.951   1.790 -0.1985 -0.3602  0.1266
 7077SOL    HW228074   0.931   5.970   1.768  0.0677 -2.1900 -0.5487
 7077SOL    HW328075   0.837   5.856   1.802 -2.1051 -0.4231 -0.3676
 7077SOL    MW428076   0.851   5.941   1.788 -0.4149 -0.6099 -0.0277
 7078SOL     OW28077   5.965   4.831   4.019  0.5374  0.2236 -0.1492
 7078SOL    HW228078   5.888   4.865   4.064  0.5976 -0.4323  0.4531
 7078SOL    HW328079   6.022   4.907   4.009  0.1739  0.5374  0.1425
 7078SOL    MW428080   5.962   4.846   4.023  0.4974  0.1785 -0.0313
 7079SOL     OW28081   0.941   4.079   2.770 -0.8545  0.1449  0.3985
 7079SOL    HW228082   1.018   4.091   2.715 -1.4602  0.1134 -0.4722
 7079SOL    HW328083   0.906   4.168   2.782 -2.9730 -0.1366 -2.6077
 7079SOL    MW428084   0.947   4.093   2.764 -1.2140  0.1036 -0.1130
 7080SOL     OW28085   6.402   0.042   3.140  0.2139  0.4744 -0.4634
 7080SOL    HW228086   6.411  -0.047   3.175 -2.7257 -0.1161 -0.8959
 7080SOL    HW328087   6.368   0.093   3.213 -0.6925  0.5639 -0.9346
 7080SOL    MW428088   6.399   0.037   3.154 -0.2936  0.4083 -0.5826
 7081SOL     OW28089   1.840   1.773   4.164 -0.3054 -0.0485  0.0567
 7081SOL    HW228090   1.914   1.820   4.201 -1.1522  2.7922 -1.5923
 7081SOL    HW328091   1.879   1.715   4.098  0.5886 -0.1825  0.6792
 7081SOL    MW428092   1.855   1.771   4.160 -0.2992  0.3086 -0.0787
 7082SOL     OW28093   4.042   2.815   5.241 -0.2529 -0.6323  0.0962
 7082SOL    HW228094   4.044   2.833   5.335 -0.6407 -0.8505  0.1496
 7082SOL    HW328095   4.134   2.806   5.216 -0.1407 -0.4449  0.4291
 7082SOL    MW428096   4.054   2.816   5.250 -0.2892 -0.6363  0.1471
 7083SOL     OW28097   1.450   1.458   3.839  0.3468 -0.1165 -0.7981
 7083SOL    HW228098   1.534   1.501   3.824  0.8003 -1.1288 -1.2631
 7083SOL    HW328099   1.472   1.378   3.886 -0.5937  0.6674  1.0711
 7083SOL    MW428100   1.464   1.453   3.843  0.2825 -0.1466 -0.6129
 7084SOL     OW28101   1.927   1.487   2.767  0.1958  0.8385 -0.2211
 7084SOL    HW228102   1.908   1.524   2.854 -0.9083  1.2033 -0.5971
 7084SOL    HW328103   1.968   1.403   2.785 -1.4812  0.1662  0.6948
 7084SOL    MW428104   1.930   1.481   2.781 -0.1711  0.7979 -0.1499
 7085SOL     OW28105   5.660   2.500   1.903  0.6049  0.0846  0.4938
 7085SOL    HW228106   5.587   2.470   1.849  0.0163 -0.3867  1.5122
 7085SOL    HW328107   5.723   2.536   1.841 -0.1313 -0.2577 -0.4786
 7085SOL    MW428108   5.658   2.501   1.888  0.4301 -0.0228  0.4999
 7086SOL     OW28109   5.694   6.223   0.732 -0.3372 -0.0264 -0.0452
 7086SOL    HW228110   5.633   6.243   0.661  0.9333 -0.0179 -1.1938
 7086SOL    HW328111   5.781   6.236   0.693  0.4679 -2.4724  0.7439
 7086SOL    MW428112   5.698   6.227   0.717 -0.0634 -0.3480 -0.0926
 7087SOL     OW28113   5.890   4.042   3.398  0.2103 -0.3259 -0.1590
 7087SOL    HW228114   5.913   4.130   3.369 -0.3555 -0.6535 -1.6556
 7087SOL    HW328115   5.806   4.053   3.443  0.4106 -0.0269  0.1474
 7087SOL    MW428116   5.882   4.055   3.400  0.1621 -0.3297 -0.3160
 7088SOL     OW28117   3.772   4.155   4.579 -0.2601 -0.0741 -0.6771
 7088SOL    HW228118   3.753   4.079   4.524 -0.5262 -0.6979  0.2506
 7088SOL    HW328119   3.866   4.151   4.593 -0.3693 -0.6462 -0.0584
 7088SOL    MW428120   3.782   4.145   4.573 -0.3096 -0.2319 -0.4731
 7089SOL     OW28121   3.869   4.229   6.284 -0.0374 -0.0138  0.9332
 7089SOL    HW228122   3.788   4.177   6.282  0.0925 -0.1892 -0.3982
 7089SOL    HW328123   3.863   4.278   6.366 -0.2723 -1.9278  2.1243
 7089SOL    MW428124   3.857   4.229   6.295 -0.0512 -0.2895  0.9147
 7090SOL     OW28125   6.363   1.893   1.973 -0.2696 -0.3331  0.2851
 7090SOL    HW228126   6.341   1.877   2.065 -0.2057 -0.6771  0.2443
 7090SOL    HW328127   6.431   1.829   1.953  0.8169  0.7453  0.4203
 7090SOL    MW428128   6.369   1.882   1.982 -0.1178 -0.2362  0.2975
 7091SOL     OW28129   0.802   2.524   2.431 -0.1971  0.0813  0.2848
 7091SOL    HW228130   0.849   2.472   2.497  2.1333 -1.2268 -2.1822
 7091SOL    HW328131   0.740   2.463   2.393  0.0113  0.1719 -0.2005
 7091SOL    MW428132   0.800   2.509   2.435  0.1378 -0.0793 -0.1047
 7092SOL     OW28133   6.060   5.642   0.600 -0.0753 -0.4014  0.9668
 7092SOL    HW228134   6.026   5.578   0.538  1.5059  0.2648 -0.6996
 7092SOL    HW328135   6.073   5.594   0.681 -3.2695 -1.0578  1.2376
 7092SOL    MW428136   6.057   5.627   0.602 -0.2881 -0.4001  0.7827
 7093SOL     OW28137   0.718   3.815   5.022 -0.1826  0.5241 -0.8839
 7093SOL    HW228138   0.686   3.834   5.110  2.2738 -0.6215  0.3854
 7093SOL    HW328139   0.743   3.900   4.986  1.1278  0.8142  0.5907
 7093SOL    MW428140   0.717   3.829   5.029  0.3144  0.4112 -0.5219
 7094SOL     OW28141   1.117   6.248   5.057 -0.4141 -0.1761 -0.3098
 7094SOL    HW228142   1.027   6.269   5.080 -0.5528 -0.3869 -0.6578
 7094SOL    HW328143   1.121   6.152   5.060 -0.7879 -0.3049 -2.4493
 7094SOL    MW428144   1.106   6.238   5.060 -0.4817 -0.2209 -0.6380
 7095SOL     OW28145   5.196   5.436   2.253  0.1296 -0.1820  0.1399
 7095SOL    HW228146   5.187   5.351   2.210 -1.7224 -0.3388  0.7475
 7095SOL    HW328147   5.186   5.500   2.183  1.3242 -0.4400 -0.2860
 7095SOL    MW428148   5.193   5.433   2.238  0.0429 -0.2367  0.1639
 7096SOL     OW28149   4.300   2.409   1.330 -0.2129 -0.0717 -0.2394
 7096SOL    HW228150   4.250   2.429   1.251  0.2911 -2.9997 -1.4186
 7096SOL    HW328151   4.369   2.350   1.301  1.3079  0.4186  2.0799
 7096SOL    MW428152   4.302   2.404   1.316  0.0543 -0.3933 -0.0890
 7097SOL     OW28153   3.123   5.192   3.885 -0.2057  0.0871 -0.0095
 7097SOL    HW228154   3.103   5.201   3.792  0.8202  3.0539 -0.0477
 7097SOL    HW328155   3.038   5.175   3.926 -0.8607  0.0140 -1.3240
 7097SOL    MW428156   3.109   5.191   3.878 -0.1567  0.4689 -0.1880
 7098SOL     OW28157   3.753   4.414   1.216  0.1082  0.2082 -0.1733
 7098SOL    HW228158   3.829   4.455   1.175  0.4699 -0.5570 -0.2811
 7098SOL    HW328159   3.726   4.477   1.283  1.1796  0.2410  0.2467
 7098SOL    MW428160   3.760   4.428   1.219  0.2973  0.1116 -0.1322
 7099SOL     OW28161   2.637   1.601   3.526 -0.2646  0.7763 -0.3028
 7099SOL    HW228162   2.607   1.577   3.614 -1.7406  2.3559 -0.3260
 7099SOL    HW328163   2.700   1.672   3.542 -0.8574  1.3597 -0.5234
 7099SOL    MW428164   2.642   1.607   3.540 -0.5375  1.0617 -0.3350
 7100SOL     OW28165   1.392   1.091   0.292  0.1428  0.5258  0.5731
 7100SOL    HW228166   1.445   1.014   0.313 -1.7763 -0.8713  0.5216
 7100SOL    HW328167   1.453   1.165   0.300  2.0419 -0.9713  0.6347
 7100SOL    MW428168   1.407   1.091   0.296  0.1402  0.1440  0.5744
 7101SOL     OW28169   3.266   6.252   2.161 -0.3702  0.7703 -0.3563
 7101SOL    HW228170   3.193   6.277   2.218  0.0695 -0.8453  1.0021
 7101SOL    HW328171   3.307   6.178   2.207  2.0015  1.5151 -1.1814
 7101SOL    MW428172   3.261   6.245   2.175  0.0007  0.6554 -0.2859
 7102SOL     OW28173   4.703   4.162   4.102 -0.1075 -0.1000  0.0025
 7102SOL    HW228174   4.689   4.149   4.196 -1.4288 -0.9387 -0.2855
 7102SOL    HW328175   4.617   4.148   4.062  0.1778  1.3520 -1.2390
 7102SOL    MW428176   4.690   4.158   4.109 -0.2442 -0.0191 -0.1993
 7103SOL     OW28177   5.489   1.042   3.710 -0.2483 -0.3623 -0.0953
 7103SOL    HW228178   5.465   1.107   3.775  0.9748 -0.4210  0.4442
 7103SOL    HW328179   5.478   0.958   3.754 -0.6348 -0.4671 -0.3851
 7103SOL    MW428180   5.484   1.039   3.724 -0.1379 -0.3839 -0.0624
 7104SOL     OW28181   1.984   5.658   0.140 -0.3549  0.1133 -0.3997
 7104SOL    HW228182   2.012   5.704   0.061 -2.7495  0.7491 -0.9833
 7104SOL    HW328183   1.925   5.720   0.184 -0.5783 -0.9458  0.8681
 7104SOL    MW428184   1.980   5.672   0.135 -0.7003  0.0575 -0.3094
 7105SOL     OW28185   1.591   1.951   5.691 -0.6399 -0.2450  0.0839
 7105SOL    HW228186   1.548   1.933   5.775 -0.0726  1.2471  0.7280
 7105SOL    HW328187   1.582   1.869   5.642  0.8097 -1.8989  2.3662
 7105SOL    MW428188   1.584   1.937   5.696 -0.3738 -0.2663  0.4700
 7106SOL     OW28189   2.783   6.043   0.646 -0.0410 -0.0811 -0.4467
 7106SOL    HW228190   2.780   6.097   0.725 -1.6725  1.0520 -1.2033
 7106SOL    HW328191   2.876   6.040   0.622  0.2616  1.1859  0.4414
 7106SOL    MW428192   2.795   6.050   0.653 -0.2163  0.2355 -0.4294
 7107SOL     OW28193   4.116   4.261   1.195 -0.2565 -0.0912  0.6386
 7107SOL    HW228194   4.146   4.235   1.108  0.6804  0.3826  0.8036
 7107SOL    HW328195   4.193   4.249   1.251 -0.8716 -0.4505  1.4133
 7107SOL    MW428196   4.130   4.256   1.191 -0.2140 -0.0761  0.7626
 7108SOL     OW28197   2.157   0.108   1.651  0.3407  0.0750  0.3856
 7108SOL    HW228198   2.116   0.182   1.605 -0.6134  0.3914  1.6821
 7108SOL    HW328199   2.170   0.042   1.583  2.7878  1.9777 -1.2030
 7108SOL    MW428200   2.153   0.109   1.636  0.5377  0.3678  0.3470
 7109SOL     OW28201   5.945   4.532   0.557 -0.8001 -0.1650 -0.3950
 7109SOL    HW228202   5.987   4.450   0.531 -0.5996  0.9052 -3.9910
 7109SOL    HW328203   6.018   4.593   0.568 -1.1113  0.4921 -1.8138
 7109SOL    MW428204   5.960   4.529   0.555 -0.8147  0.0629 -1.0566
 7110SOL     OW28205   5.962   3.049   2.792 -0.0007 -0.1279  0.3836
 7110SOL    HW228206   5.960   3.117   2.859 -0.3075 -0.1640  0.4124
 7110SOL    HW328207   6.024   3.081   2.727 -0.5602  0.4441  0.1197
 7110SOL    MW428208   5.970   3.062   2.792 -0.1150 -0.0572  0.3526
 7111SOL     OW28209   2.484   2.326   2.726 -0.3680  0.1268  0.3602
 7111SOL    HW228210   2.430   2.334   2.804  0.3962 -0.8652  1.0057
 7111SOL    HW328211   2.574   2.329   2.758 -0.0281 -1.7298 -0.2786
 7111SOL    MW428212   2.489   2.328   2.740 -0.2223 -0.2490  0.3611
 7112SOL     OW28213   5.141   3.888   4.356  0.6176  0.2029 -0.3385
 7112SOL    HW228214   5.226   3.933   4.357  0.8456 -0.2350  0.2360
 7112SOL    HW328215   5.156   3.806   4.402 -0.0629  0.0104 -0.4429
 7112SOL    MW428216   5.154   3.883   4.362  0.5579  0.1198 -0.2765
 7113SOL     OW28217   5.932   3.196   3.763 -0.0357  0.4924  0.1793
 7113SOL    HW228218   5.994   3.173   3.694 -0.0420  0.8391  0.0542
 7113SOL    HW328219   5.948   3.132   3.832  0.2525  0.3918  0.0221
 7113SOL    MW428220   5.942   3.185   3.763  0.0015  0.5249  0.1421
 7114SOL     OW28221   5.333   0.294   0.370 -0.5103 -0.2688  0.9539
 7114SOL    HW228222   5.359   0.209   0.334 -2.3442 -1.3659  2.0155
 7114SOL    HW328223   5.405   0.353   0.348  0.7503 -2.0522  0.0245
 7114SOL    MW428224   5.346   0.290   0.363 -0.5859 -0.6488  0.9713
 7115SOL     OW28225   1.922   4.202   1.644  0.3102 -0.2130  0.2347
 7115SOL    HW228226   1.915   4.263   1.717 -0.0188  1.3513 -1.0427
 7115SOL    HW328227   1.985   4.243   1.584  2.0065 -2.3370  0.4312
 7115SOL    MW428228   1.929   4.215   1.646  0.4906 -0.2869  0.0921
 7116SOL     OW28229   0.798   0.800   3.664  0.4177 -0.3058  0.2068
 7116SOL    HW228230   0.857   0.875   3.656  0.1390  0.0563  1.4318
 7116SOL    HW328231   0.812   0.768   3.753  0.1486 -1.3907 -0.1349
 7116SOL    MW428232   0.808   0.806   3.675  0.3455 -0.4011  0.3233
 7117SOL     OW28233   5.028   4.367   3.201  0.8437  0.4323 -0.3243
 7117SOL    HW228234   5.055   4.320   3.122 -0.1044 -0.8846  0.0946
 7117SOL    HW328235   5.000   4.453   3.170  2.3734  0.6701 -1.1498
 7117SOL    MW428236   5.028   4.372   3.186  0.9205  0.2899 -0.3779
 7118SOL     OW28237   1.145   4.465   1.208  0.1619  0.3918  0.0841
 7118SOL    HW228238   1.058   4.467   1.168 -0.2719 -0.4429  0.9508
 7118SOL    HW328239   1.129   4.455   1.301  1.1641  2.1599  0.4778
 7118SOL    MW428240   1.132   4.464   1.215  0.2369  0.5149  0.2504
 7119SOL     OW28241   3.906   3.655   3.276 -0.1339 -0.1314  0.1263
 7119SOL    HW228242   3.943   3.567   3.276 -1.2983 -0.6313 -0.0218
 7119SOL    HW328243   3.932   3.692   3.361 -2.1101 -1.6902  1.4854
 7119SOL    MW428244   3.914   3.648   3.287 -0.5482 -0.4030  0.2861
 7120SOL     OW28245   4.338   4.813   3.303  0.0418  0.2591 -0.2958
 7120SOL    HW228246   4.303   4.724   3.310 -0.3654  0.3650 -0.8923
 7120SOL    HW328247   4.313   4.842   3.215  0.5535  0.8008 -0.2693
 7120SOL    MW428248   4.330   4.805   3.292  0.0556  0.3445 -0.3710
 7121SOL     OW28249   4.997   1.063   5.950  0.5295 -0.2820  0.6753
 7121SOL    HW228250   4.958   1.040   6.035  0.2930  1.1751  0.9833
 7121SOL    HW328251   5.090   1.040   5.960  1.5827  3.8665  3.0641
 7121SOL    MW428252   5.004   1.057   5.963  0.6373  0.4576  1.0311
 7122SOL     OW28253   5.673   5.116   1.074  0.2639  0.7645  0.2590
 7122SOL    HW228254   5.608   5.186   1.078  0.8284  1.2866  0.4079
 7122SOL    HW328255   5.630   5.046   1.024 -0.1300  1.4063 -0.3237
 7122SOL    MW428256   5.659   5.116   1.068  0.2864  0.9181  0.2018
 7123SOL     OW28257   4.630   3.832   1.705  0.1147  0.4040  0.1271
 7123SOL    HW228258   4.591   3.817   1.619 -1.7321 -0.0768  1.0027
 7123SOL    HW328259   4.592   3.916   1.733  1.7604  1.2500 -0.0639
 7123SOL    MW428260   4.620   3.841   1.697  0.0881  0.4522  0.2174
 7124SOL     OW28261   0.722   2.906   1.826  0.0994  0.4369  0.2027
 7124SOL    HW228262   0.632   2.877   1.812  0.0777  0.1218  0.9259
 7124SOL    HW328263   0.776   2.832   1.799  0.0139 -0.8114  3.0607
 7124SOL    MW428264   0.717   2.892   1.821  0.0852  0.2306  0.6752
 7125SOL     OW28265   3.584   0.300   6.354  0.0588 -0.4551 -0.2802
 7125SOL    HW228266   3.555   0.377   6.402  0.1781 -0.0506 -0.8517
 7125SOL    HW328267   3.574   0.323   6.262 -2.9160 -2.2124 -0.5443
 7125SOL    MW428268   3.579   0.313   6.349 -0.3180 -0.6336 -0.3904
 7126SOL     OW28269   1.455   5.671   5.501  0.0446  0.6378 -0.0352
 7126SOL    HW228270   1.472   5.600   5.440 -0.0187  1.2880 -0.8328
 7126SOL    HW328271   1.541   5.709   5.519  0.0810  0.3479  0.4031
 7126SOL    MW428272   1.468   5.667   5.495  0.0410  0.6853 -0.0826
 7127SOL     OW28273   3.556   6.223   3.778 -0.7285  0.3662  0.1037
 7127SOL    HW228274   3.466   6.255   3.778 -0.9931 -0.2299  2.0364
 7127SOL    HW328275   3.608   6.297   3.810 -0.2867  1.1373 -2.1921
 7127SOL    MW428276   3.551   6.237   3.782 -0.7051  0.3893  0.0558
 7128SOL     OW28277   2.111   3.195   0.545 -0.5451 -0.2815  0.2696
 7128SOL    HW228278   2.068   3.160   0.623 -1.2659 -0.4674 -0.1963
 7128SOL    HW328279   2.187   3.138   0.532 -0.1364  0.0542  1.1074
 7128SOL    MW428280   2.115   3.183   0.553 -0.5863 -0.2618  0.3186
 7129SOL     OW28281   2.913   3.519   1.419 -0.6373 -0.4190 -0.2166
 7129SOL    HW228282   2.918   3.445   1.480 -1.6951 -0.4120 -0.1019
 7129SOL    HW328283   2.894   3.595   1.474  1.2780  0.1314 -0.2262
 7129SOL    MW428284   2.911   3.519   1.434 -0.5242 -0.3454 -0.2028
 7130SOL     OW28285   0.711   1.309   0.733 -0.1931  0.2551  0.3188
 7130SOL    HW228286   0.636   1.335   0.679 -0.1888  1.8150  1.0231
 7130SOL    HW328287   0.683   1.227   0.775 -1.6268  0.9575  0.7884
 7130SOL    MW428288   0.698   1.301   0.731 -0.3817  0.5536  0.4737
 7131SOL     OW28289   5.627   4.483   1.717 -0.3629  0.4061  0.1465
 7131SOL    HW228290   5.617   4.392   1.743 -0.1728 -0.3874 -2.3368
 7131SOL    HW328291   5.548   4.502   1.666  0.6822  0.8747 -1.3473
 7131SOL    MW428292   5.615   4.474   1.714 -0.2000  0.3632 -0.3782
 7132SOL     OW28293   4.181   2.721   1.646  0.0299  0.3224 -0.2826
 7132SOL    HW228294   4.177   2.650   1.710  0.3932 -0.5940 -1.2539
 7132SOL    HW328295   4.104   2.707   1.591  0.2974  0.4607 -0.6958
 7132SOL    MW428296   4.170   2.710   1.647  0.1131  0.2197 -0.4653
 7133SOL     OW28297   2.296   6.126   3.675  0.7916  0.3337  0.0283
 7133SOL    HW228298   2.226   6.153   3.734  0.6993 -0.2443  0.1865
 7133SOL    HW328299   2.329   6.208   3.638  0.7058  0.6835  0.7144
 7133SOL    MW428300   2.291   6.140   3.678  0.7681  0.3036  0.1397
 7134SOL     OW28301   3.741   5.856   0.948 -0.0631  0.4188  0.7891
 7134SOL    HW228302   3.801   5.863   0.874 -0.9050  1.3566  0.1783
 7134SOL    HW328303   3.707   5.766   0.943  0.3927  0.2631  0.4405
 7134SOL    MW428304   3.744   5.845   0.938 -0.1140  0.5220  0.6625
 7135SOL     OW28305   2.215   6.018   5.228  0.2990  0.0987  0.5156
 7135SOL    HW228306   2.289   5.983   5.178  1.2328 -0.5628  2.2532
 7135SOL    HW328307   2.178   5.942   5.272 -2.4416  0.1531 -1.4430
 7135SOL    MW428308   2.220   6.004   5.227  0.0606  0.0186  0.4864
 7136SOL     OW28309   6.356   5.761   4.518  0.4687  1.0563  0.0244
 7136SOL    HW228310   6.299   5.793   4.448 -1.3447 -0.5318  0.6914
 7136SOL    HW328311   6.409   5.694   4.477 -0.2988  0.4218  0.0411
 7136SOL    MW428312   6.355   5.757   4.503  0.1282  0.7630  0.1146
 7137SOL     OW28313   2.227   6.113   1.250  0.3742  0.3760 -0.1290
 7137SOL    HW228314   2.282   6.089   1.324 -0.8346 -1.7038  0.1772
 7137SOL    HW328315   2.209   6.206   1.262  0.2350  0.1014  2.1972
 7137SOL    MW428316   2.231   6.122   1.262  0.1964  0.0654  0.2184
 7138SOL     OW28317   5.479   6.035   1.338  0.1715 -0.0546  0.2587
 7138SOL    HW228318   5.512   5.968   1.399  1.2598  0.0518 -0.1850
 7138SOL    HW328319   5.525   6.115   1.365  0.1201  0.1461 -0.2481
 7138SOL    MW428320   5.490   6.036   1.350  0.3083 -0.0141  0.1333
 7139SOL     OW28321   2.825   4.500   0.032 -0.3980 -0.2601 -0.0980
 7139SOL    HW228322   2.842   4.412   0.067 -0.0148  0.2439  1.0326
 7139SOL    HW328323   2.872   4.559   0.092 -1.3939  0.7805 -0.3131
 7139SOL    MW428324   2.834   4.496   0.045 -0.4789 -0.0563  0.0228
 7140SOL     OW28325   4.612   6.221   5.320  0.2044  0.0469 -0.2777
 7140SOL    HW228326   4.572   6.154   5.266 -0.4780  1.1998 -1.2493
 7140SOL    HW328327   4.545   6.244   5.385  0.4937 -0.3106  0.1542
 7140SOL    MW428328   4.598   6.215   5.321  0.1526  0.1518 -0.3489
 7141SOL     OW28329   3.391   1.641   4.558 -0.1972 -0.2626 -0.7444
 7141SOL    HW228330   3.395   1.696   4.480  1.0450  0.4711 -0.1848
 7141SOL    HW328331   3.368   1.700   4.629 -0.1288 -0.7084 -0.3422
 7141SOL    MW428332   3.389   1.656   4.557 -0.0243 -0.2246 -0.6175
 7142SOL     OW28333   2.857   1.334   0.668 -0.0321  0.0462 -0.6789
 7142SOL    HW228334   2.775   1.300   0.633 -0.9026  0.8432  0.4922
 7142SOL    HW328335   2.831   1.401   0.731  1.5036  0.0599  0.0169
 7142SOL    MW428336   2.843   1.338   0.672  0.0557  0.1532 -0.4326
 7143SOL     OW28337   2.389   1.839   4.371 -0.8039 -0.0155 -0.1872
 7143SOL    HW228338   2.430   1.754   4.354  1.0960  0.2264  2.4914
 7143SOL    HW328339   2.310   1.839   4.317 -0.6561 -3.2999 -0.5980
 7143SOL    MW428340   2.384   1.828   4.362 -0.5337 -0.4169  0.1120
 7144SOL     OW28341   5.045   2.519   2.279 -0.1297 -0.1511 -0.4640
 7144SOL    HW228342   4.958   2.531   2.317 -0.4744 -1.2686 -0.8612
 7144SOL    HW328343   5.105   2.550   2.347 -0.7648 -1.3211  0.6772
 7144SOL    MW428344   5.042   2.525   2.293 -0.2590 -0.4529 -0.3658
 7145SOL     OW28345   3.093   0.365   0.970 -0.0899 -0.0506  0.7321
 7145SOL    HW228346   3.102   0.307   0.894  1.1409  1.3396 -0.2556
 7145SOL    HW328347   3.160   0.432   0.956 -1.3989  1.5699  1.8490
 7145SOL    MW428348   3.103   0.366   0.958 -0.1003  0.3466  0.7492
 7146SOL     OW28349   0.819   2.266   5.703 -0.3802 -0.6025  0.2330
 7146SOL    HW228350   0.900   2.240   5.747  0.7588  0.7702 -0.9447
 7146SOL    HW328351   0.810   2.359   5.721  0.2571  0.0816 -2.4877
 7146SOL    MW428352   0.829   2.275   5.711 -0.1458 -0.3312 -0.2814
 7147SOL     OW28353   2.725   3.829   4.200  0.4271  0.2595 -0.1458
 7147SOL    HW228354   2.816   3.848   4.222  0.0465 -0.3724  2.2970
 7147SOL    HW328355   2.708   3.744   4.240 -1.2919  0.4718 -0.3513
 7147SOL    MW428356   2.735   3.821   4.208  0.1501  0.2042  0.1494
 7148SOL     OW28357   4.039   0.218   6.077 -0.2317 -0.0638 -0.3377
 7148SOL    HW228358   4.105   0.175   6.023 -0.9656 -0.4234 -0.9758
 7148SOL    HW328359   3.957   0.175   6.053 -1.0124  1.7102 -1.0399
 7148SOL    MW428360   4.037   0.207   6.067 -0.4316  0.1228 -0.5145
 7149SOL     OW28361   3.587   0.212   3.897  0.2850 -0.4738 -0.3007
 7149SOL    HW228362   3.525   0.175   3.835  0.2284  0.1717 -0.6364
 7149SOL    HW328363   3.653   0.144   3.909 -0.0253 -0.8298 -0.6046
 7149SOL    MW428364   3.587   0.198   3.890  0.2366 -0.4356 -0.3851
 7150SOL     OW28365   6.061   0.371   2.990  0.4327 -0.6461  0.2581
 7150SOL    HW228366   5.993   0.390   2.925  2.6323 -0.8317 -2.2662
 7150SOL    HW328367   6.013   0.337   3.066 -2.4221  1.4671 -0.4646
 7150SOL    MW428368   6.046   0.369   2.992  0.3463 -0.3918 -0.1703
 7151SOL     OW28369   2.126   5.762   1.747  0.0094  0.0304 -0.0297
 7151SOL    HW228370   2.187   5.696   1.779 -0.5808  0.1025  1.3498
 7151SOL    HW328371   2.041   5.717   1.745 -0.2862  0.5601  0.3147
 7151SOL    MW428372   2.123   5.748   1.751 -0.1074  0.1098  0.1978
 7152SOL     OW28373   2.988   0.084   0.873  0.4845 -0.3103  0.6529
 7152SOL    HW228374   2.893   0.091   0.880  0.4746 -0.3685  0.5895
 7152SOL    HW328375   3.003   0.060   0.781  0.3310 -3.7786  1.3937
 7152SOL    MW428376   2.978   0.082   0.862  0.4630 -0.7756  0.7423
 7153SOL     OW28377   5.903   4.160   0.685  0.5924  0.1344 -0.2688
 7153SOL    HW228378   5.854   4.236   0.656  0.1494  0.0824  0.3260
 7153SOL    HW328379   5.837   4.096   0.711  0.9621 -0.3226 -0.4216
 7153SOL    MW428380   5.888   4.162   0.684  0.5828  0.0673 -0.2105
 7154SOL     OW28381   4.331   5.220   1.824 -0.0777  0.1800  1.0227
 7154SOL    HW228382   4.255   5.231   1.767  0.1316 -0.1898  0.6660
 7154SOL    HW328383   4.381   5.148   1.784  0.5262  0.5020  1.1800
 7154SOL    MW428384   4.328   5.212   1.811  0.0296  0.1737  0.9964
 7155SOL     OW28385   0.774   0.003   5.519 -0.1946 -0.2498  0.1789
 7155SOL    HW228386   0.745  -0.016   5.608 -0.8555 -0.8706 -0.1570
 7155SOL    HW328387   0.722   0.078   5.492 -1.4162 -1.2582 -0.3629
 7155SOL    MW428388   0.764   0.010   5.527 -0.4430 -0.4647  0.0631
 7156SOL     OW28389   1.848   5.303   1.142 -0.0280 -0.1166 -0.1644
 7156SOL    HW228390   1.924   5.333   1.192  0.2838 -0.8499 -0.1776
 7156SOL    HW328391   1.817   5.381   1.096  2.9668 -0.4165 -3.1424
 7156SOL    MW428392   1.854   5.317   1.142  0.4083 -0.2529 -0.5591
 7157SOL     OW28393   5.367   2.819   4.107  0.0851 -0.0814  0.4951
 7157SOL    HW228394   5.459   2.838   4.123 -0.2327  1.7181  0.4148
 7157SOL    HW328395   5.321   2.898   4.135 -1.0612  0.7449 -3.1449
 7157SOL    MW428396   5.373   2.832   4.113 -0.1081  0.2650  0.0042
 7158SOL     OW28397   4.834   2.933   3.482 -0.1559  0.2635  0.1478
 7158SOL    HW228398   4.784   2.864   3.525  0.5350 -0.5591 -0.3447
 7158SOL    HW328399   4.768   2.997   3.455 -0.8681 -0.4559  0.1445
 7158SOL    MW428400   4.818   2.932   3.484 -0.1587  0.0600  0.0824
 7159SOL     OW28401   1.631   3.700   2.082  0.7305 -0.2763 -0.3447
 7159SOL    HW228402   1.587   3.702   1.997  0.3876  0.4045 -0.1589
 7159SOL    HW328403   1.624   3.608   2.110  0.5979 -0.4460 -0.9172
 7159SOL    MW428404   1.624   3.688   2.075  0.6678 -0.2089 -0.3957
 7160SOL     OW28405   5.582   2.180   4.027 -0.0569  0.6290  0.2416
 7160SOL    HW228406   5.565   2.192   3.933  0.4094  1.1508  0.2145
 7160SOL    HW328407   5.570   2.087   4.042  0.5118  0.4285 -0.4854
 7160SOL    MW428408   5.579   2.170   4.016  0.0796  0.6714  0.1421
 7161SOL     OW28409   5.925   1.666   0.510  0.5585 -0.2368 -0.0439
 7161SOL    HW228410   5.947   1.752   0.545  0.1487 -0.6325  1.2409
 7161SOL    HW328411   5.922   1.678   0.415  2.2246  0.7593 -0.0034
 7161SOL    MW428412   5.928   1.679   0.502  0.7243 -0.1576  0.1309
 7162SOL     OW28413   5.634   5.388   6.388 -0.0794 -0.2754 -0.2471
 7162SOL    HW228414   5.698   5.348   6.330  0.3824 -0.8321  0.6163
 7162SOL    HW328415   5.669   5.374   6.476 -0.5695  0.8701  0.1548
 7162SOL    MW428416   5.647   5.381   6.392 -0.0831 -0.1977 -0.0801
 7163SOL     OW28417   5.683   3.347   2.589 -0.3910 -0.3886  0.1447
 7163SOL    HW228418   5.769   3.381   2.567 -0.2982 -0.2579  0.6781
 7163SOL    HW328419   5.698   3.295   2.668 -0.8452 -0.1295  0.4056
 7163SOL    MW428420   5.696   3.345   2.597 -0.4386 -0.3372  0.2495
 7164SOL     OW28421   3.576   1.720   5.190 -0.2047 -0.3460  0.2522
 7164SOL    HW228422   3.607   1.810   5.195  1.4777 -0.8988  0.3153
 7164SOL    HW328423   3.570   1.691   5.281 -0.4851 -0.3914  0.2214
 7164SOL    MW428424   3.579   1.728   5.202 -0.0197 -0.4250  0.2565
 7165SOL     OW28425   0.724   5.306   1.799 -0.4097 -0.3609  0.0099
 7165SOL    HW228426   0.776   5.323   1.721  0.8234 -0.3132  0.8163
 7165SOL    HW328427   0.634   5.322   1.772  0.1933  2.2691 -0.6938
 7165SOL    MW428428   0.719   5.310   1.785 -0.1675 -0.0076  0.0234
 7166SOL     OW28429   3.848   4.336   2.482 -0.0933 -0.7021 -0.2851
 7166SOL    HW228430   3.938   4.327   2.452  0.9690  0.6985  2.1748
 7166SOL    HW328431   3.844   4.425   2.518 -1.2879 -1.9599  3.0684
 7166SOL    MW428432   3.859   4.347   2.483 -0.1108 -0.6833  0.4819
 7167SOL     OW28433   5.078   1.114   3.421  0.5659  0.0362  0.3659
 7167SOL    HW228434   5.033   1.196   3.440  1.9595  0.5943  1.4118
 7167SOL    HW328435   5.098   1.077   3.507  0.2202 -1.2606 -0.0877
 7167SOL    MW428436   5.075   1.120   3.435  0.7042 -0.0612  0.4440
 7168SOL     OW28437   4.034   1.840   6.163 -0.1606  0.2258 -0.2305
 7168SOL    HW228438   3.957   1.869   6.212 -0.8158  0.0025 -1.0938
 7168SOL    HW328439   4.004   1.762   6.116 -0.1946  1.5680 -2.5929
 7168SOL    MW428440   4.019   1.834   6.163 -0.2515  0.3734 -0.6561
 7169SOL     OW28441   3.768   1.560   0.294 -0.0611  0.3652 -0.3382
 7169SOL    HW228442   3.796   1.470   0.310 -0.7556  0.0177 -1.0090
 7169SOL    HW328443   3.769   1.601   0.380  0.2941 -0.2744 -0.0303
 7169SOL    MW428444   3.772   1.553   0.307 -0.1058  0.2350 -0.3861
 7170SOL     OW28445   5.639   2.690   2.974 -0.5121 -0.0788 -0.6426
 7170SOL    HW228446   5.709   2.687   2.910  0.0273 -1.2456 -0.0256
 7170SOL    HW328447   5.561   2.662   2.926 -0.0399 -1.3200 -0.7083
 7170SOL    MW428448   5.638   2.686   2.959 -0.3786 -0.3965 -0.5698
 7171SOL     OW28449   6.280   6.233   5.524 -0.4964  0.1226  0.2023
 7171SOL    HW228450   6.280   6.283   5.605  0.2037  0.0020  0.2840
 7171SOL    HW328451   6.247   6.147   5.549  0.2349 -0.0895  0.4877
 7171SOL    MW428452   6.276   6.228   5.538 -0.3075  0.0787  0.2507
 7172SOL     OW28453   3.729   4.758   4.462  0.2062  0.2966 -0.2036
 7172SOL    HW228454   3.665   4.779   4.530 -0.4070 -1.1480 -0.3011
 7172SOL    HW328455   3.703   4.671   4.431  1.8256 -0.0356 -0.7109
 7172SOL    MW428456   3.717   4.749   4.467  0.3389  0.0621 -0.2834
 7173SOL     OW28457   4.892   1.076   3.772  0.0982  0.3635 -0.1994
 7173SOL    HW228458   4.849   1.087   3.857 -2.2433 -2.4073 -0.8497
 7173SOL    HW328459   4.970   1.025   3.791 -1.2377 -1.6327  0.2235
 7173SOL    MW428460   4.896   1.071   3.786 -0.3870 -0.2655 -0.2294
 7174SOL     OW28461   5.923   0.022   3.006 -0.3288 -0.0611  0.3267
 7174SOL    HW228462   5.997   0.068   2.966  1.0644 -1.9813  0.5553
 7174SOL    HW328463   5.921   0.052   3.097  0.9958 -0.9126  0.6561
 7174SOL    MW428464   5.932   0.032   3.012  0.0298 -0.4268  0.4003
 7175SOL     OW28465   3.488   6.288   2.494  0.2627  0.1348 -0.3014
 7175SOL    HW228466   3.437   6.220   2.451 -0.7909 -0.4207  1.7168
 7175SOL    HW328467   3.449   6.370   2.464 -0.2378 -0.2155 -0.6334
 7175SOL    MW428468   3.476   6.290   2.484  0.0577  0.0153 -0.0789
 7176SOL     OW28469   2.906   5.516   0.211 -0.1143  0.1201  0.2991
 7176SOL    HW228470   2.814   5.544   0.210  0.1309  0.9267 -0.9632
 7176SOL    HW328471   2.903   5.424   0.185 -0.7653 -0.6753  2.8069
 7176SOL    MW428472   2.893   5.507   0.208 -0.1679  0.1216  0.4634
 7177SOL     OW28473   1.226   3.405   0.651  0.9960  0.1312  0.0581
 7177SOL    HW228474   1.184   3.324   0.624 -0.9570  1.2830 -0.5742
 7177SOL    HW328475   1.299   3.377   0.706 -0.7409 -2.0172  1.4400
 7177SOL    MW428476   1.230   3.391   0.655  0.5092 -0.0003  0.1570
 7178SOL     OW28477   2.983   5.606   2.481 -0.3048 -0.3314 -0.6188
 7178SOL    HW228478   3.022   5.621   2.567  0.3460 -1.3474 -0.7186
 7178SOL    HW328479   3.033   5.533   2.444 -0.3689  0.2911 -1.9938
 7178SOL    MW428480   2.995   5.598   2.488 -0.2274 -0.3833 -0.8134
 7179SOL     OW28481   0.474   2.498   2.964  0.2112 -0.1927 -0.1413
 7179SOL    HW228482   0.384   2.529   2.959  0.7864  1.6173  0.1468
 7179SOL    HW328483   0.489   2.480   3.057  0.2676 -0.0921 -0.1303
 7179SOL    MW428484   0.464   2.499   2.976  0.2945  0.0594 -0.1019
 7180SOL     OW28485   5.677   5.968   0.835 -0.0110  0.0371  0.1063
 7180SOL    HW228486   5.666   6.057   0.803  0.1569  0.5761  1.4830
 7180SOL    HW328487   5.638   5.969   0.923  1.4856 -0.7923  0.8198
 7180SOL    MW428488   5.670   5.980   0.843  0.2086 -0.0012  0.3821
 7181SOL     OW28489   2.259   0.061   2.093 -0.2982  0.0171 -0.0489
 7181SOL    HW228490   2.214   0.042   2.011  1.3730 -1.1850 -0.7206
 7181SOL    HW328491   2.293   0.150   2.081 -2.0538  0.7816  0.3089
 7181SOL    MW428492   2.258   0.070   2.081 -0.3093 -0.0406 -0.0903
 7182SOL     OW28493   1.037   6.163   3.398 -0.1002  0.0645  0.6367
 7182SOL    HW228494   0.976   6.155   3.473 -2.8191 -0.5363 -1.4696
 7182SOL    HW328495   1.024   6.252   3.367 -0.1835 -0.1817 -0.0390
 7182SOL    MW428496   1.027   6.174   3.404 -0.4699 -0.0473  0.2697
 7183SOL     OW28497   4.118   2.257   3.817  0.6433 -0.3449  0.1392
 7183SOL    HW228498   4.158   2.193   3.877  1.3982  0.1737  0.2064
 7183SOL    HW328499   4.154   2.235   3.732  0.2500 -0.5257  0.0150
 7183SOL    MW428500   4.128   2.246   3.814  0.6910 -0.3004  0.1317
 7184SOL     OW28501   3.074   2.119   0.697  0.4452 -0.1460  0.2110
 7184SOL    HW228502   2.999   2.144   0.751  0.5793  0.5816  0.0683
 7184SOL    HW328503   3.036   2.092   0.614  0.3668  0.8998 -0.1120
 7184SOL    MW428504   3.059   2.119   0.693  0.4525  0.0880  0.1496
 7185SOL     OW28505   1.020   3.669   3.117  0.0214 -0.2328 -0.1297
 7185SOL    HW228506   1.104   3.664   3.161  0.2145 -2.9137 -0.6060
 7185SOL    HW328507   1.032   3.735   3.048  2.1619 -1.3885 -0.9462
 7185SOL    MW428508   1.033   3.677   3.114  0.3293 -0.7390 -0.3003
 7186SOL     OW28509   2.793   1.069   2.506 -0.4732  0.3566  0.6506
 7186SOL    HW228510   2.829   1.151   2.540  1.3322  0.1475 -0.5689
 7186SOL    HW328511   2.728   1.097   2.441 -0.4810  0.8126  0.8493
 7186SOL    MW428512   2.789   1.084   2.502 -0.2360  0.3891  0.5159
 7187SOL     OW28513   5.777   5.265   5.311 -0.6531 -0.5824 -0.2470
 7187SOL    HW228514   5.724   5.337   5.277 -0.1001 -0.2882 -0.4949
 7187SOL    HW328515   5.745   5.253   5.401 -0.6933  0.0272 -0.1745
 7187SOL    MW428516   5.765   5.273   5.318 -0.5854 -0.4631 -0.2701
 7188SOL     OW28517   4.432   3.144   1.265 -0.0696 -0.0652 -0.2455
 7188SOL    HW228518   4.394   3.167   1.180  1.6665 -1.3465 -1.4559
 7188SOL    HW328519   4.414   3.050   1.273  2.4400 -0.6556 -0.7345
 7188SOL    MW428520   4.424   3.134   1.255  0.4906 -0.3121 -0.4697
 7189SOL     OW28521   3.506   1.294   3.152 -1.0338 -0.0437  0.3626
 7189SOL    HW228522   3.584   1.255   3.191 -2.0704 -1.1411  1.4118
 7189SOL    HW328523   3.476   1.359   3.217 -1.0936  0.2433  0.0509
 7189SOL    MW428524   3.512   1.298   3.166 -1.1784 -0.1506  0.4599
 7190SOL     OW28525   3.133   0.361   0.628 -0.1320  0.1827  0.1357
 7190SOL    HW228526   3.124   0.454   0.603  1.7310  0.3712  0.0833
 7190SOL    HW328527   3.124   0.314   0.546  0.0622  0.3933 -0.0076
 7190SOL    MW428528   3.130   0.367   0.614  0.1394  0.2354  0.1099
 7191SOL     OW28529   5.161   1.131   1.159  0.1629  0.0437  0.1784
 7191SOL    HW228530   5.181   1.205   1.217 -0.5840 -0.5665  1.2719
 7191SOL    HW328531   5.246   1.092   1.139  0.4173 -0.1362  1.4671
 7191SOL    MW428532   5.174   1.136   1.164  0.0979 -0.0606  0.4927
 7192SOL     OW28533   0.957   2.586   1.014  0.6435 -0.4054  1.0724
 7192SOL    HW228534   0.951   2.516   1.079  0.1833  0.2286  1.7338
 7192SOL    HW328535   0.895   2.652   1.044  2.2360  1.0290  1.3937
 7192SOL    MW428536   0.948   2.585   1.026  0.7929 -0.1325  1.2021
 7193SOL     OW28537   2.108   0.469   2.947 -0.3989 -0.2449 -0.4667
 7193SOL    HW228538   2.129   0.553   2.905 -1.4154  0.3794  0.2253
 7193SOL    HW328539   2.101   0.490   3.041 -0.1588 -1.2109 -0.2192
 7193SOL    MW428540   2.110   0.483   2.954 -0.5013 -0.2900 -0.3427
 7194SOL     OW28541   3.914   5.471   0.580 -0.1697 -0.9260  0.1661
 7194SOL    HW228542   3.958   5.471   0.495 -0.4706 -0.1224  0.0032
 7194SOL    HW328543   3.985   5.483   0.644 -0.1654  0.8606 -0.1232
 7194SOL    MW428544   3.929   5.473   0.577 -0.2088 -0.5842  0.1065
 7195SOL     OW28545   5.773   2.197   3.577  0.1149  0.1887 -0.3931
 7195SOL    HW228546   5.832   2.164   3.509  0.9324 -0.5863  0.6740
 7195SOL    HW328547   5.829   2.212   3.653 -1.0307 -0.5011  0.6217
 7195SOL    MW428548   5.788   2.194   3.578  0.0716 -0.0046 -0.1184
 7196SOL     OW28549   4.875   4.333   1.520 -0.1410 -0.0062 -0.2249
 7196SOL    HW228550   4.797   4.287   1.488  0.4056  0.5275 -2.4561
 7196SOL    HW328551   4.921   4.267   1.573 -1.1399 -0.9083 -0.4470
 7196SOL    MW428552   4.871   4.318   1.523 -0.2007 -0.0548 -0.5486
 7197SOL     OW28553   4.541   2.981   0.894  0.6911  0.5649 -0.6269
 7197SOL    HW228554   4.506   3.031   0.820 -2.5796 -1.2419 -0.4833
 7197SOL    HW328555   4.478   2.910   0.907  1.8426 -0.0077  3.0440
 7197SOL    MW428556   4.528   2.978   0.886  0.4115  0.2510 -0.1236
 7198SOL     OW28557   1.294   3.882   5.330 -0.4621 -0.0443  0.3638
 7198SOL    HW228558   1.254   3.924   5.405  1.0315  1.1055  0.5628
 7198SOL    HW328559   1.365   3.829   5.367 -0.3368 -0.2407 -0.1490
 7198SOL    MW428560   1.298   3.880   5.345 -0.2485  0.0815  0.3224
 7199SOL     OW28561   1.163   3.777   2.040 -0.5018  0.2772  0.2837
 7199SOL    HW228562   1.073   3.805   2.028 -0.6194 -0.1289  0.2261
 7199SOL    HW328563   1.165   3.740   2.128 -0.0411  1.6617  0.8846
 7199SOL    MW428564   1.152   3.776   2.050 -0.4565  0.4063  0.3554
 7200SOL     OW28565   5.473   1.939   0.047 -0.0681 -0.2273 -0.2774
 7200SOL    HW228566   5.510   2.017   0.089 -1.5579  0.7270 -0.6519
 7200SOL    HW328567   5.516   1.935  -0.038  0.6315 -0.3011  0.0769
 7200SOL    MW428568   5.483   1.949   0.042 -0.1723 -0.1111 -0.2801
 7201SOL     OW28569   3.539   2.244   0.231 -0.1893  0.0057  0.5639
 7201SOL    HW228570   3.518   2.167   0.285  0.8144 -1.1582 -0.6285
 7201SOL    HW328571   3.626   2.270   0.260 -0.2222  0.2345  0.4545
 7201SOL    MW428572   3.547   2.237   0.242 -0.0612 -0.1177  0.3921
 7202SOL     OW28573   3.727   0.105   0.393  0.0002 -0.3907  0.0436
 7202SOL    HW228574   3.803   0.163   0.401 -0.1993 -0.2869  1.4725
 7202SOL    HW328575   3.751   0.027   0.443 -0.5542 -0.6596 -0.1007
 7202SOL    MW428576   3.740   0.102   0.401 -0.0993 -0.4125  0.2131
 7203SOL     OW28577   5.047   2.562   3.348 -0.1242 -0.2654 -0.1557
 7203SOL    HW228578   5.043   2.657   3.356 -0.0949 -0.3550  1.1602
 7203SOL    HW328579   5.131   2.538   3.387 -0.9188 -0.9732  1.1814
 7203SOL    MW428580   5.058   2.571   3.354 -0.2252 -0.3706  0.1944
 7204SOL     OW28581   5.413   5.389   5.018 -0.2564 -0.4689 -0.5468
 7204SOL    HW228582   5.324   5.375   4.987  0.1718 -1.2973 -1.4419
 7204SOL    HW328583   5.428   5.482   5.006 -1.4522 -0.0331  0.9028
 7204SOL    MW428584   5.403   5.399   5.013 -0.3577 -0.5207 -0.4737
 7205SOL     OW28585   2.479   0.439   4.747 -0.2945  0.4913  0.1210
 7205SOL    HW228586   2.417   0.365   4.744 -0.2483  0.4855 -1.3330
 7205SOL    HW328587   2.431   0.512   4.707  0.4377  0.6373 -0.5116
 7205SOL    MW428588   2.464   0.439   4.741 -0.1918  0.5098 -0.1543
 7206SOL     OW28589   0.081   3.792   0.193  0.4711  0.7825  0.0585
 7206SOL    HW228590   0.099   3.723   0.128  0.7666 -0.1256  1.0687
 7206SOL    HW328591   0.128   3.868   0.161 -0.0997  0.6145 -1.2484
 7206SOL    MW428592   0.089   3.793   0.180  0.4348  0.6405  0.0194
 7207SOL     OW28593   4.617   2.493   6.083  0.0456 -0.0640  0.4577
 7207SOL    HW228594   4.655   2.558   6.142  0.7819 -0.0107 -0.0577
 7207SOL    HW328595   4.549   2.450   6.135  1.0654 -0.4234  1.5361
 7207SOL    MW428596   4.613   2.496   6.098  0.2773 -0.1044  0.5320
 7208SOL     OW28597   6.168   0.264   1.773  0.1691  0.3180  0.1106
 7208SOL    HW228598   6.203   0.186   1.731  0.1558 -0.4248  1.4012
 7208SOL    HW328599   6.083   0.277   1.732  0.3900 -0.0465 -0.4756
 7208SOL    MW428600   6.161   0.255   1.762  0.1965  0.1719  0.2036
 7209SOL     OW28601   2.670   1.472   3.277  0.2562  0.7027 -0.3413
 7209SOL    HW228602   2.740   1.521   3.234 -0.2184  1.4705 -0.2568
 7209SOL    HW328603   2.662   1.511   3.364 -2.2483  2.6882 -1.3331
 7209SOL    MW428604   2.678   1.483   3.283 -0.1368  1.0659 -0.4610
 7210SOL     OW28605   4.418   3.379   0.293  0.3946 -0.2740  0.2150
 7210SOL    HW228606   4.349   3.317   0.316 -0.0822  0.1357 -0.1029
 7210SOL    HW328607   4.479   3.328   0.240  0.7331 -0.8344  1.1252
 7210SOL    MW428608   4.417   3.364   0.289  0.3764 -0.2939  0.2931
 7211SOL     OW28609   6.204   4.820   3.769  0.2096  0.2151 -0.2852
 7211SOL    HW228610   6.141   4.815   3.698 -0.1722 -1.8359  0.1543
 7211SOL    HW328611   6.232   4.730   3.784  1.4148  0.7780  1.1713
 7211SOL    MW428612   6.199   4.808   3.761  0.3182  0.0187 -0.0350
 7212SOL     OW28613   6.035   3.018   3.963  0.0532 -0.0150  0.0707
 7212SOL    HW228614   6.123   3.055   3.958 -0.0817  0.1567 -1.3657
 7212SOL    HW328615   6.036   2.946   3.900 -1.2589  0.9115 -1.0666
 7212SOL    MW428616   6.047   3.013   3.954 -0.1377  0.1299 -0.2689
 7213SOL     OW28617   3.073   5.135   4.334 -0.9134 -0.3035  0.1259
 7213SOL    HW228618   3.036   5.215   4.297 -2.0831 -0.3688  1.0800
 7213SOL    HW328619   3.143   5.165   4.392 -0.3021 -0.0901 -0.7036
 7213SOL    MW428620   3.077   5.150   4.336 -0.9871 -0.2840  0.1423
 7214SOL     OW28621   4.562   5.331   3.456  0.0163 -0.1896  0.6752
 7214SOL    HW228622   4.646   5.288   3.441 -1.0712 -1.8085 -1.5388
 7214SOL    HW328623   4.532   5.356   3.368 -1.2821  1.4162  1.5225
 7214SOL    MW428624   4.569   5.328   3.442 -0.2985 -0.1914  0.4948
 7215SOL     OW28625   4.061   5.052   5.947  0.0458  0.1712 -0.4562
 7215SOL    HW228626   4.026   4.982   5.892 -1.8268 -1.9768  3.0821
 7215SOL    HW328627   3.988   5.077   6.004  1.7515  2.3172  0.9708
 7215SOL    MW428628   4.047   5.046   5.948  0.0238  0.1709  0.1989
 7216SOL     OW28629   2.518   0.994   1.420 -0.2506  0.1964  0.0198
 7216SOL    HW228630   2.607   0.961   1.406  0.2143  0.8478  1.3695
 7216SOL    HW328631   2.500   1.049   1.343  1.2721  1.6265  0.6353
 7216SOL    MW428632   2.527   0.997   1.408  0.0116  0.4710  0.2791
 7217SOL     OW28633   4.253   2.670   0.411 -0.2005 -0.3489 -0.1457
 7217SOL    HW228634   4.160   2.682   0.390 -0.4760  0.4864  1.4232
 7217SOL    HW328635   4.296   2.666   0.326 -1.7685 -1.7475 -0.9437
 7217SOL    MW428636   4.246   2.671   0.397 -0.4437 -0.4232 -0.0440
 7218SOL     OW28637   5.808   5.817   0.418 -0.3110  0.5532  0.1605
 7218SOL    HW228638   5.876   5.867   0.463 -0.6455  1.0379  0.1430
 7218SOL    HW328639   5.751   5.785   0.489 -0.6980  1.1079  0.1099
 7218SOL    MW428640   5.809   5.820   0.433 -0.4062  0.6904  0.1515
 7219SOL     OW28641   0.333   0.238   5.204  0.4459 -0.1491 -0.1824
 7219SOL    HW228642   0.238   0.226   5.195  0.2429  0.7415  0.5884
 7219SOL    HW328643   0.348   0.329   5.179  0.6878  0.5549  2.2457
 7219SOL    MW428644   0.322   0.248   5.200  0.4510  0.0613  0.2397
 7220SOL     OW28645   3.723   1.171   3.725 -0.1660  0.4934 -0.3970
 7220SOL    HW228646   3.768   1.190   3.808 -0.8158 -1.3257  0.4334
 7220SOL    HW328647   3.669   1.249   3.708  1.1411  1.5350  0.0453
 7220SOL    MW428648   3.722   1.184   3.734 -0.0793  0.3908 -0.2291
 7221SOL     OW28649   2.716   4.406   2.581 -0.1810  0.2171  0.0674
 7221SOL    HW228650   2.678   4.454   2.507  0.0659 -2.0333 -1.6336
 7221SOL    HW328651   2.702   4.314   2.559 -0.4677 -0.5560  3.0721
 7221SOL    MW428652   2.709   4.400   2.568 -0.1863 -0.1818  0.2394
 7222SOL     OW28653   4.630   5.655   6.058  0.0196  0.1556 -0.4414
 7222SOL    HW228654   4.537   5.671   6.042  0.6148  3.2665 -1.4583
 7222SOL    HW328655   4.639   5.559   6.053 -3.1819 -0.3084  0.3501
 7222SOL    MW428656   4.619   5.644   6.055 -0.3243  0.5048 -0.4712
 7223SOL     OW28657   1.231   1.713   3.732 -0.2994  0.3882  0.1381
 7223SOL    HW228658   1.142   1.731   3.701  0.1341 -0.1832 -1.5633
 7223SOL    HW328659   1.269   1.658   3.663  1.9933  2.1453 -0.1032
 7223SOL    MW428660   1.224   1.708   3.719  0.0602  0.5446 -0.1182
 7224SOL     OW28661   1.832   6.128   0.572 -0.7888 -0.2349 -0.3256
 7224SOL    HW228662   1.873   6.120   0.658 -3.6836 -0.1670  1.1443
 7224SOL    HW328663   1.901   6.166   0.517  0.2678  2.7339  2.7113
 7224SOL    MW428664   1.847   6.132   0.576 -1.0313  0.1658  0.2690
 7225SOL     OW28665   1.733   1.884   2.915  0.0088  0.4985 -0.2328
 7225SOL    HW228666   1.789   1.958   2.891 -0.0868 -0.3199 -3.2846
 7225SOL    HW328667   1.687   1.860   2.835 -1.4361 -1.6806  1.1134
 7225SOL    MW428668   1.734   1.891   2.902 -0.1944  0.1030 -0.4578
 7226SOL     OW28669   3.379   1.913   3.083 -0.4424  0.3114  0.0428
 7226SOL    HW228670   3.291   1.948   3.065  0.1263  0.3865 -3.2017
 7226SOL    HW328671   3.436   1.961   3.023  1.5073 -1.1342  0.6597
 7226SOL    MW428672   3.375   1.924   3.073 -0.1101  0.1305 -0.3039
 7227SOL     OW28673   0.793   3.756   4.441  0.1924 -0.4126 -0.0841
 7227SOL    HW228674   0.757   3.819   4.503 -1.8220 -0.7226 -0.8731
 7227SOL    HW328675   0.780   3.797   4.355  1.9003 -0.4930 -0.4202
 7227SOL    MW428676   0.787   3.770   4.438  0.1519 -0.4641 -0.2325
 7228SOL     OW28677   0.142   1.113   4.385 -0.7803 -0.5514 -0.0063
 7228SOL    HW228678   0.146   1.038   4.325 -1.0405 -0.4332 -0.1694
 7228SOL    HW328679   0.201   1.088   4.457  0.0181 -0.4357 -0.5988
 7228SOL    MW428680   0.151   1.099   4.387 -0.7093 -0.5206 -0.1060
 7229SOL     OW28681   2.528   2.777   1.489 -0.0099  0.2041 -0.2299
 7229SOL    HW228682   2.486   2.856   1.454 -0.6308 -0.5733 -1.2990
 7229SOL    HW328683   2.565   2.734   1.413  3.3780  1.1565  0.7373
 7229SOL    MW428684   2.527   2.782   1.475  0.3552  0.2272 -0.2433
 7230SOL     OW28685   3.176   1.029   4.064  0.8164  0.2768 -0.7511
 7230SOL    HW228686   3.204   0.939   4.075 -1.5212 -0.5311 -0.7842
 7230SOL    HW328687   3.145   1.034   3.974 -0.7725  0.5491 -0.2201
 7230SOL    MW428688   3.176   1.018   4.054  0.2983  0.2062 -0.6854
 7231SOL     OW28689   5.376   5.103   4.128  0.2442  0.5749  0.3280
 7231SOL    HW228690   5.391   5.049   4.051  1.7272 -0.0898  1.0580
 7231SOL    HW328691   5.312   5.168   4.099 -1.3169 -1.3048 -0.6702
 7231SOL    MW428692   5.369   5.105   4.114  0.2339  0.2392  0.2926
 7232SOL     OW28693   6.066   5.638   5.827  0.5635  0.4534 -0.5119
 7232SOL    HW228694   6.076   5.599   5.740 -0.1215  2.4421 -1.5489
 7232SOL    HW328695   6.149   5.619   5.871  1.6735  0.9317 -2.2646
 7232SOL    MW428696   6.079   5.630   5.821  0.6195  0.7789 -0.8799
 7233SOL     OW28697   2.796   3.181   3.666 -0.6886 -0.0671  0.0723
 7233SOL    HW228698   2.769   3.267   3.633  2.0622  0.2761 -1.5852
 7233SOL    HW328699   2.827   3.198   3.755 -2.8413  0.0457  0.8684
 7233SOL    MW428700   2.796   3.195   3.673 -0.6097 -0.0069 -0.0414
 7234SOL     OW28701   3.312   0.051   1.878  1.2157  0.1693  0.4219
 7234SOL    HW228702   3.365   0.114   1.829  0.8091 -0.3609 -0.7184
 7234SOL    HW328703   3.254   0.105   1.932  1.6087  0.7557  0.2687
 7234SOL    MW428704   3.312   0.067   1.879  1.2139  0.1767  0.2512
 7235SOL     OW28705   5.357   4.240   3.539  0.2792 -0.3017 -0.0602
 7235SOL    HW228706   5.265   4.252   3.515  0.0393  1.0674  1.3632
 7235SOL    HW328707   5.355   4.185   3.617  0.6874 -0.4900 -0.1809
 7235SOL    MW428708   5.345   4.234   3.546  0.3014 -0.1459  0.1117
 7236SOL     OW28709   2.200   2.863   5.371 -0.0297 -0.2162 -0.1849
 7236SOL    HW228710   2.105   2.852   5.373  0.0215 -0.5918  1.3143
 7236SOL    HW328711   2.234   2.774   5.371  0.3174 -0.1135  1.6407
 7236SOL    MW428712   2.192   2.850   5.371  0.0229 -0.2522  0.2538
 7237SOL     OW28713   5.430   1.444   2.029 -0.3218  0.2533 -0.4708
 7237SOL    HW228714   5.466   1.503   1.963 -0.0841 -0.0767 -0.6457
 7237SOL    HW328715   5.504   1.388   2.053 -0.0429  1.2706  1.1104
 7237SOL    MW428716   5.445   1.444   2.023 -0.2536  0.3440 -0.2853
 7238SOL     OW28717   0.335   5.396   4.988 -0.1753 -0.3241 -0.4900
 7238SOL    HW228718   0.330   5.490   4.973 -0.1058 -0.2847 -0.2693
 7238SOL    HW328719   0.413   5.384   5.043  0.6773 -0.6572 -1.7314
 7238SOL    MW428720   0.345   5.407   4.993 -0.0536 -0.3628 -0.6247
 7239SOL     OW28721   1.618   1.454   2.019  0.2067 -0.2619  0.2922
 7239SOL    HW228722   1.614   1.423   1.929  1.4268 -1.4159  0.6059
 7239SOL    HW328723   1.623   1.374   2.072  0.6816  0.4095  1.2985
 7239SOL    MW428724   1.618   1.439   2.014  0.4303 -0.3256  0.4663
 7240SOL     OW28725   3.850   5.343   4.925 -0.1293 -0.1258 -0.7762
 7240SOL    HW228726   3.912   5.396   4.875 -0.0175  1.1898  0.6932
 7240SOL    HW328727   3.814   5.403   4.991 -0.3576 -1.7414  0.6460
 7240SOL    MW428728   3.854   5.358   4.927 -0.1447 -0.1654 -0.3947
 7241SOL     OW28729   6.371   3.263   1.076 -0.8872 -0.0218 -0.5875
 7241SOL    HW228730   6.442   3.215   1.121 -0.8286  0.7952  0.2187
 7241SOL    HW328731   6.347   3.206   1.003 -0.7619 -1.2545  0.2935
 7241SOL    MW428732   6.377   3.249   1.073 -0.8630 -0.0767 -0.3649
 7242SOL     OW28733   5.528   1.676   1.216  0.1715  0.2389 -0.3160
 7242SOL    HW228734   5.557   1.662   1.306 -0.6733  0.3633 -0.0157
 7242SOL    HW328735   5.567   1.759   1.190  0.5309  0.1321 -0.1162
 7242SOL    MW428736   5.537   1.685   1.224  0.1074  0.2412 -0.2500
 7243SOL     OW28737   2.200   4.598   3.465  0.1963 -0.1898 -0.6307
 7243SOL    HW228738   2.206   4.505   3.488 -1.2861  0.0050  0.7340
 7243SOL    HW328739   2.228   4.644   3.545 -0.5730  0.5346 -0.7647
 7243SOL    MW428740   2.205   4.592   3.479 -0.1008 -0.0685 -0.4683
 7244SOL     OW28741   4.352   3.935   3.597 -0.7273  0.2536 -0.2194
 7244SOL    HW228742   4.322   3.937   3.688 -1.1983  0.9288 -0.3859
 7244SOL    HW328743   4.412   4.009   3.589 -0.0664 -0.2706 -0.2605
 7244SOL    MW428744   4.356   3.945   3.608 -0.7022  0.2735 -0.2468
 7245SOL     OW28745   6.413   3.256   1.881 -0.2476  0.1547 -0.3356
 7245SOL    HW228746   6.379   3.228   1.796 -1.4441  1.7696 -0.4408
 7245SOL    HW328747   6.506   3.272   1.866 -0.3449 -0.0536 -1.1961
 7245SOL    MW428748   6.421   3.254   1.868 -0.4183  0.3403 -0.4630
 7246SOL     OW28749   2.207   3.558   3.531 -0.0325  0.0981 -0.1470
 7246SOL    HW228750   2.118   3.568   3.565 -0.6998 -2.2866 -0.9985
 7246SOL    HW328751   2.224   3.641   3.486 -1.2324  1.1637  1.2322
 7246SOL    MW428752   2.197   3.570   3.530 -0.2788 -0.0759 -0.0774
 7247SOL     OW28753   2.366   0.804   0.149  0.0078 -0.1385  0.3684
 7247SOL    HW228754   2.439   0.858   0.180  0.9482 -1.3600  0.3189
 7247SOL    HW328755   2.290   0.839   0.196  0.5090  1.4617  0.0686
 7247SOL    MW428756   2.366   0.816   0.159  0.1980 -0.0886  0.3223
 7248SOL     OW28757   2.807   3.511   2.556 -0.1275  0.2525 -0.2851
 7248SOL    HW228758   2.755   3.469   2.625 -1.1084  0.0510 -1.1235
 7248SOL    HW328759   2.895   3.474   2.567 -0.7619 -1.3992 -0.4559
 7248SOL    MW428760   2.812   3.501   2.567 -0.3406  0.0080 -0.4182
 7249SOL     OW28761   2.505   2.060   2.481 -0.5435 -0.1616  0.4257
 7249SOL    HW228762   2.479   1.972   2.453  1.3283 -0.8746  0.8414
 7249SOL    HW328763   2.433   2.089   2.537 -0.9877 -1.6133  0.6478
 7249SOL    MW428764   2.492   2.052   2.485 -0.3551 -0.4472  0.5099
 7250SOL     OW28765   3.184   2.443   4.883 -0.0852  0.5265  0.4066
 7250SOL    HW228766   3.180   2.369   4.943  0.4004  1.6701  1.9189
 7250SOL    HW328767   3.147   2.516   4.932 -1.0351  1.2094 -1.2231
 7250SOL    MW428768   3.179   2.443   4.897 -0.1465  0.7675  0.3911
 7251SOL     OW28769   2.089   0.746   5.955  0.9391  0.0036 -0.1779
 7251SOL    HW228770   2.080   0.650   5.949 -1.7290  0.1558  0.0916
 7251SOL    HW328771   2.047   0.768   6.038  0.6796  1.5021 -0.6871
 7251SOL    MW428772   2.082   0.736   5.965  0.5529  0.2214 -0.2095
 7252SOL     OW28773   5.849   1.020   0.340  0.1847  1.1602 -0.7167
 7252SOL    HW228774   5.917   0.967   0.383 -1.1197  0.7731  0.9963
 7252SOL    HW328775   5.812   0.962   0.273 -0.1710  0.4221  0.0924
 7252SOL    MW428776   5.853   1.005   0.337 -0.0343  1.0117 -0.3839
 7253SOL     OW28777   3.648   0.840   4.590  0.3158  0.2503 -0.2900
 7253SOL    HW228778   3.687   0.927   4.582  1.4971 -0.3029 -0.9003
 7253SOL    HW328779   3.694   0.800   4.665 -1.4231  0.7208  1.1047
 7253SOL    MW428780   3.659   0.846   4.599  0.2422  0.2394 -0.1865
 7254SOL     OW28781   3.462   1.774   3.419 -0.4538 -0.4381  0.0288
 7254SOL    HW228782   3.510   1.807   3.343  0.5246 -0.4434  0.6339
 7254SOL    HW328783   3.374   1.759   3.386 -0.6063  1.5277 -0.6017
 7254SOL    MW428784   3.457   1.776   3.404 -0.3448 -0.1794  0.0255
 7255SOL     OW28785   5.860   5.847   2.637 -0.1643  0.4397 -0.0488
 7255SOL    HW228786   5.798   5.775   2.643 -1.2298  1.4107  1.1253
 7255SOL    HW328787   5.946   5.805   2.628 -0.7777 -0.9516  0.3967
 7255SOL    MW428788   5.863   5.832   2.637 -0.3858  0.3843  0.1649
 7256SOL     OW28789   5.394   0.245   3.296  0.4801  0.1799  0.4096
 7256SOL    HW228790   5.318   0.291   3.332  0.4204  0.0775  0.4131
 7256SOL    HW328791   5.363   0.208   3.213  0.8627  1.1655 -0.1876
 7256SOL    MW428792   5.380   0.246   3.290  0.5227  0.2964  0.3313
 7257SOL     OW28793   2.437   5.246   6.204  0.3193 -0.2677 -0.1953
 7257SOL    HW228794   2.375   5.318   6.213 -0.3143 -0.9099  0.6900
 7257SOL    HW328795   2.437   5.227   6.110  1.0469  1.3367 -0.5570
 7257SOL    MW428796   2.429   5.253   6.193  0.3317 -0.1408 -0.1262
 7258SOL     OW28797   0.181   6.147   5.609  0.0472  0.1398  0.4800
 7258SOL    HW228798   0.223   6.207   5.548 -0.3259 -1.2005 -1.1752
 7258SOL    HW328799   0.252   6.091   5.642  0.1530  0.4651  0.8110
 7258SOL    MW428800   0.196   6.147   5.605  0.0119  0.0059  0.3053
 7259SOL     OW28801   6.256   4.586   4.141  0.1152  0.3852 -0.4879
 7259SOL    HW228802   6.177   4.578   4.087 -0.2573 -1.3808  0.2345
 7259SOL    HW328803   6.262   4.679   4.161 -1.0488  0.7383 -1.6357
 7259SOL    MW428804   6.246   4.597   4.137 -0.0876  0.1988 -0.5440
 7260SOL     OW28805   2.461   4.115   2.326 -0.5803  0.1461  0.3307
 7260SOL    HW228806   2.503   4.191   2.285  1.9998 -1.5633 -0.4224
 7260SOL    HW328807   2.392   4.090   2.264  0.1171  0.4862 -0.6177
 7260SOL    MW428808   2.458   4.122   2.312 -0.1478 -0.0346  0.1062
 7261SOL     OW28809   0.850   3.665   2.302 -0.4069 -0.2465 -0.3622
 7261SOL    HW228810   0.943   3.649   2.315 -0.8128 -1.4201  1.6250
 7261SOL    HW328811   0.844   3.756   2.276  1.1310  0.9275  2.8780
 7261SOL    MW428812   0.861   3.675   2.301 -0.2575 -0.2464  0.3275
 7262SOL     OW28813   5.306   4.503   3.688  0.5404  0.1047 -0.1424
 7262SOL    HW228814   5.376   4.544   3.638  0.3048  0.9723  0.2221
 7262SOL    HW328815   5.299   4.415   3.652  0.2219  0.7653 -1.7883
 7262SOL    MW428816   5.314   4.497   3.677  0.4673  0.3063 -0.3114
 7263SOL     OW28817   4.023   6.338   4.782 -0.7634 -0.0827 -0.3971
 7263SOL    HW228818   4.066   6.406   4.730 -0.1614 -1.6927 -2.1153
 7263SOL    HW328819   3.942   6.319   4.734 -0.9984 -0.4804  0.1482
 7263SOL    MW428820   4.018   6.344   4.769 -0.7150 -0.3476 -0.5519
 7264SOL     OW28821   1.019   2.385   1.603 -0.7732  0.4020  0.0054
 7264SOL    HW228822   0.964   2.441   1.549  0.6988  2.7758  0.7779
 7264SOL    HW328823   1.005   2.417   1.693  1.8949  1.2438  0.2108
 7264SOL    MW428824   1.010   2.397   1.608 -0.2270  0.8263  0.1344
 7265SOL     OW28825   2.810   2.563   3.936 -0.0584 -0.2196 -0.0377
 7265SOL    HW228826   2.748   2.634   3.927 -0.4212 -0.5701 -0.3220
 7265SOL    HW328827   2.769   2.489   3.892  0.9088 -0.2357 -0.9473
 7265SOL    MW428828   2.797   2.563   3.929  0.0214 -0.2680 -0.1952
 7266SOL     OW28829   1.450   5.886   3.376  0.0842 -0.1947  0.2062
 7266SOL    HW228830   1.411   5.844   3.452 -2.4293  1.7893  0.1546
 7266SOL    HW328831   1.487   5.968   3.409 -0.1779  0.2367 -0.5246
 7266SOL    MW428832   1.450   5.892   3.390 -0.2820  0.1240  0.1030
 7267SOL     OW28833   0.745   2.648   0.132  0.8415 -0.5100  0.0737
 7267SOL    HW228834   0.747   2.704   0.055 -1.0025 -2.0950 -1.2024
 7267SOL    HW328835   0.711   2.703   0.202 -1.0320 -0.0214 -1.1714
 7267SOL    MW428836   0.741   2.662   0.131  0.3510 -0.6547 -0.2590
 7268SOL     OW28837   0.997   1.740   0.898  1.2710  0.3486  0.1684
 7268SOL    HW228838   0.960   1.758   0.984 -1.5907  0.8701 -1.0494
 7268SOL    HW328839   0.951   1.662   0.868  2.5250 -0.0669 -0.7457
 7268SOL    MW428840   0.986   1.732   0.905  1.0589  0.3626 -0.1129
 7269SOL     OW28841   4.468   2.408   0.226  0.1637 -0.2358  0.6058
 7269SOL    HW228842   4.414   2.363   0.162  0.3422 -0.2162  0.4431
 7269SOL    HW328843   4.523   2.340   0.264  0.7722 -0.0746  0.0189
 7269SOL    MW428844   4.468   2.393   0.223  0.2676 -0.2120  0.5069
 7270SOL     OW28845   1.018   0.418   1.634  0.4624 -0.5020 -0.3883
 7270SOL    HW228846   1.036   0.469   1.555  0.8759  0.8937  0.5708
 7270SOL    HW328847   0.967   0.343   1.603 -1.1234  1.0485 -1.7379
 7270SOL    MW428848   1.013   0.415   1.620  0.3077 -0.1133 -0.4398
 7271SOL     OW28849   2.471   3.216   0.752  0.6333  0.5831  0.1005
 7271SOL    HW228850   2.410   3.182   0.686  0.4105 -0.5126  0.8357
 7271SOL    HW328851   2.551   3.165   0.739  0.6847  0.5655  0.4846
 7271SOL    MW428852   2.473   3.204   0.741  0.6107  0.4362  0.2482
 7272SOL     OW28853   6.084   1.987   0.869 -0.3252 -0.4899  0.4650
 7272SOL    HW228854   6.028   1.977   0.792 -1.1367  3.0076  0.4348
 7272SOL    HW328855   6.169   2.013   0.834  0.6290 -3.0486  0.6602
 7272SOL    MW428856   6.088   1.989   0.854 -0.3064 -0.3661  0.4868
 7273SOL     OW28857   5.023   5.068   3.284 -0.5087  0.9768 -0.3058
 7273SOL    HW228858   5.082   5.019   3.341 -0.2632  1.4300 -0.1658
 7273SOL    HW328859   4.966   5.115   3.344 -0.9429  0.6332 -0.4406
 7273SOL    MW428860   5.023   5.067   3.300 -0.5336  0.9913 -0.3051
 7274SOL     OW28861   3.210   6.060   1.313 -0.1204 -0.0468 -0.0762
 7274SOL    HW228862   3.174   6.015   1.389 -0.9045  1.1452  0.2806
 7274SOL    HW328863   3.238   6.145   1.346 -0.2394  0.3950 -1.0754
 7274SOL    MW428864   3.209   6.065   1.327 -0.2395  0.1688 -0.1610
 7275SOL     OW28865   5.009   5.768   2.331  0.0795 -0.8986  0.3160
 7275SOL    HW228866   4.971   5.749   2.245  0.4309  0.2900 -0.1148
 7275SOL    HW328867   4.946   5.730   2.393 -1.5430  0.5015 -0.3840
 7275SOL    MW428868   4.995   5.760   2.328 -0.0882 -0.5570  0.1668
 7276SOL     OW28869   0.265   4.020   2.470  0.3911 -0.0712  0.4924
 7276SOL    HW228870   0.334   3.956   2.452  0.8352  0.3580  0.6483
 7276SOL    HW328871   0.296   4.100   2.428  0.9652  0.6762  2.2491
 7276SOL    MW428872   0.278   4.022   2.462  0.5254  0.0841  0.7447
 7277SOL     OW28873   4.226   5.523   5.823  0.0929 -0.5344 -0.1879
 7277SOL    HW228874   4.141   5.477   5.816  0.1949 -0.4678 -2.7551
 7277SOL    HW328875   4.207   5.612   5.793  0.8318 -0.1579  0.4544
 7277SOL    MW428876   4.212   5.528   5.818  0.2039 -0.4759 -0.4419
 7278SOL     OW28877   2.128   0.577   0.387 -0.3217 -1.1433  0.0536
 7278SOL    HW228878   2.071   0.617   0.322  0.3913  0.4724  0.3831
 7278SOL    HW328879   2.171   0.650   0.431  1.1153 -2.2610  0.6274
 7278SOL    MW428880   2.126   0.592   0.385 -0.0380 -1.0776  0.1728
 7279SOL     OW28881   6.231   4.715   6.384 -0.5779  0.4953  0.1888
 7279SOL    HW228882   6.220   4.725   6.479 -2.2242  0.1187  0.0775
 7279SOL    HW328883   6.299   4.648   6.375  1.2729  2.1499  1.0314
 7279SOL    MW428884   6.238   4.707   6.396 -0.5509  0.6639  0.2853
 7280SOL     OW28885   2.152   0.772   3.682 -0.2048  0.1233  0.4259
 7280SOL    HW228886   2.083   0.780   3.747  1.5056  0.3733  2.2842
 7280SOL    HW328887   2.130   0.692   3.633 -0.7102 -0.9795  2.3534
 7280SOL    MW428888   2.140   0.762   3.684 -0.0458  0.0108  0.9254
 7281SOL     OW28889   0.573   1.795   5.986 -0.1637 -0.2017  0.2410
 7281SOL    HW228890   0.536   1.716   6.025  0.7965 -1.1187 -0.6350
 7281SOL    HW328891   0.512   1.865   6.011 -2.4516 -1.5983 -1.0554
 7281SOL    MW428892   0.560   1.794   5.994 -0.3389 -0.5069 -0.0456
 7282SOL     OW28893   3.878   5.837   4.807  0.0812 -0.0160  0.0880
 7282SOL    HW228894   3.867   5.751   4.848 -0.6747  0.0425  0.0242
 7282SOL    HW328895   3.790   5.860   4.777  0.3025  0.7256 -0.0020
 7282SOL    MW428896   3.865   5.829   4.809  0.0107  0.0895  0.0677
 7283SOL     OW28897   2.786   3.358   5.348 -0.1362 -0.0178  0.4546
 7283SOL    HW228898   2.825   3.436   5.309 -0.9785  0.3435  0.3268
 7283SOL    HW328899   2.861   3.300   5.365  0.2134 -0.4910 -2.3239
 7283SOL    MW428900   2.801   3.361   5.345 -0.2012 -0.0326  0.0711
 7284SOL     OW28901   1.626   2.207   6.226 -0.0071  0.1212  0.2346
 7284SOL    HW228902   1.670   2.272   6.280 -1.1097  1.0133  0.0883
 7284SOL    HW328903   1.661   2.123   6.257  1.3367  0.7584  0.5044
 7284SOL    MW428904   1.637   2.204   6.237  0.0247  0.3230  0.2509
 7285SOL     OW28905   0.865   3.810   3.487  0.3468  0.1362 -0.0988
 7285SOL    HW228906   0.850   3.779   3.577 -1.9236  1.2792  0.0051
 7285SOL    HW328907   0.918   3.889   3.498  1.1030 -0.3966  0.1263
 7285SOL    MW428908   0.870   3.816   3.501  0.1470  0.2167 -0.0554
 7286SOL     OW28909   3.984   0.811   0.592  0.0577  0.3579 -0.0093
 7286SOL    HW228910   3.892   0.822   0.618  0.2748  3.9953 -0.2553
 7286SOL    HW328911   3.981   0.801   0.497 -0.1865 -3.8037  0.2656
 7286SOL    MW428912   3.971   0.811   0.583  0.0541  0.2887 -0.0055
 7287SOL     OW28913   3.099   0.171   5.881 -0.5411  0.5636  0.4673
 7287SOL    HW228914   3.190   0.166   5.913  0.0488 -1.5179 -1.2886
 7287SOL    HW328915   3.053   0.104   5.932 -0.2456 -0.7880 -0.9748
 7287SOL    MW428916   3.105   0.161   5.892 -0.4242  0.1107  0.0454
 7288SOL     OW28917   3.691   5.636   6.080 -0.2237 -1.0736  0.2668
 7288SOL    HW228918   3.779   5.615   6.049 -0.5111  1.5744 -2.7598
 7288SOL    HW328919   3.705   5.679   6.165  1.5626  0.4475 -0.7375
 7288SOL    MW428920   3.705   5.639   6.087 -0.0259 -0.5236 -0.2650
 7289SOL     OW28921   2.658   1.797   0.333  0.3956 -0.3840 -0.1319
 7289SOL    HW228922   2.644   1.815   0.426  0.4092  0.1958 -0.2365
 7289SOL    HW328923   2.746   1.830   0.315  0.0037  0.4455 -0.5763
 7289SOL    MW428924   2.668   1.804   0.343  0.3457 -0.1981 -0.2043
 7290SOL     OW28925   1.879   3.645   6.388  0.0545  0.2068  0.3245
 7290SOL    HW228926   1.861   3.739   6.386  1.2123  0.4342 -0.7459
 7290SOL    HW328927   1.923   3.631   6.472 -1.0545  0.4202  0.9540
 7290SOL    MW428928   1.882   3.656   6.399  0.0609  0.2650  0.2663
 7291SOL     OW28929   1.510   4.865   1.349 -0.0414  0.3277 -0.2924
 7291SOL    HW228930   1.552   4.866   1.263 -1.7507  1.8559 -1.2022
 7291SOL    HW328931   1.578   4.835   1.409  1.2272 -0.7415 -2.1458
 7291SOL    MW428932   1.524   4.861   1.346 -0.0995  0.3883 -0.6570
 7292SOL     OW28933   5.963   3.031   2.364 -0.2399  0.0535 -0.4254
 7292SOL    HW228934   5.962   2.957   2.304 -0.6934 -0.7488  0.5268
 7292SOL    HW328935   5.886   3.083   2.339  0.0554  0.1857 -1.0717
 7292SOL    MW428936   5.953   3.028   2.353 -0.2608 -0.0349 -0.3851
 7293SOL     OW28937   3.972   0.007   2.181 -0.2280 -0.5366 -0.1747
 7293SOL    HW228938   4.006   0.048   2.260  1.6596  0.6799 -1.5422
 7293SOL    HW328939   3.884  -0.023   2.205 -0.8549  2.3415  1.5670
 7293SOL    MW428940   3.965   0.008   2.194 -0.0617  0.0036 -0.1254
 7294SOL     OW28941   3.789   4.668   5.761 -0.3440 -0.1794 -0.8049
 7294SOL    HW228942   3.781   4.589   5.815  0.6644  1.3550  1.7740
 7294SOL    HW328943   3.698   4.690   5.738 -0.7505 -1.2359 -0.2857
 7294SOL    MW428944   3.776   4.660   5.765 -0.2646 -0.1164 -0.3962
 7295SOL     OW28945   1.768   5.062   5.668  0.5391  0.0025 -0.0819
 7295SOL    HW228946   1.712   5.107   5.732  1.1954  1.3023 -0.3959
 7295SOL    HW328947   1.707   5.030   5.602 -0.1789 -1.5645  1.2795
 7295SOL    MW428948   1.752   5.064   5.668  0.5310 -0.0328  0.0563
 7296SOL     OW28949   1.521   0.764   4.207 -0.1844  0.3264  0.5826
 7296SOL    HW228950   1.562   0.840   4.166  0.5733 -0.5476 -0.3317
 7296SOL    HW328951   1.434   0.758   4.166  0.3219 -0.1585 -0.4433
 7296SOL    MW428952   1.515   0.773   4.196 -0.0176  0.1471  0.3266
 7297SOL     OW28953   3.317   0.137   0.703  0.2263  0.3775  0.0044
 7297SOL    HW228954   3.259   0.064   0.680  1.1015 -0.0669 -0.8053
 7297SOL    HW328955   3.269   0.215   0.675 -0.8267  0.1577  1.0985
 7297SOL    MW428956   3.303   0.138   0.696  0.2028  0.2899  0.0419
 7298SOL     OW28957   0.939   6.256   1.607 -0.4276  0.3655  0.2647
 7298SOL    HW228958   1.002   6.192   1.641  0.8109  0.7975 -1.1190
 7298SOL    HW328959   0.890   6.285   1.684  1.7038  0.7164  1.5717
 7298SOL    MW428960   0.941   6.251   1.622  0.0170  0.4688  0.2546
 7299SOL     OW28961   1.964   0.146   5.198 -0.2781 -0.1744  0.4191
 7299SOL    HW228962   1.910   0.072   5.171  0.7220 -0.7291 -0.1212
 7299SOL    HW328963   2.027   0.157   5.127  1.7400 -0.9468  2.0003
 7299SOL    MW428964   1.965   0.138   5.185  0.1201 -0.3495  0.5565
 7300SOL     OW28965   1.525   2.187   0.509 -0.1011 -0.2431  0.4079
 7300SOL    HW228966   1.540   2.193   0.604 -0.1132  0.3487  0.3792
 7300SOL    HW328967   1.432   2.209   0.498 -0.1799 -0.6280  0.2847
 7300SOL    MW428968   1.514   2.191   0.520 -0.1131 -0.2158  0.3879
 7301SOL     OW28969   4.557   1.257   5.915  0.2287 -0.1953 -0.0310
 7301SOL    HW228970   4.642   1.239   5.876  0.0474 -1.5996  0.1603
 7301SOL    HW328971   4.560   1.215   6.001 -1.1264 -1.5059 -0.5815
 7301SOL    MW428972   4.569   1.249   5.921  0.0260 -0.5535 -0.0784
 7302SOL     OW28973   4.933   5.500   4.926  0.0002 -0.4931  0.7610
 7302SOL    HW228974   4.839   5.512   4.912  0.0892 -1.2107 -0.5752
 7302SOL    HW328975   4.950   5.409   4.901  1.2328 -0.0509 -0.1175
 7302SOL    MW428976   4.923   5.490   4.921  0.1746 -0.5295  0.4688
 7303SOL     OW28977   3.277   0.496   4.112 -0.0625 -0.3079  0.0395
 7303SOL    HW228978   3.357   0.517   4.159 -0.4589 -2.0660  1.6252
 7303SOL    HW328979   3.213   0.477   4.181 -1.1759 -1.2279 -1.1908
 7303SOL    MW428980   3.279   0.496   4.127 -0.2617 -0.6612  0.0864
 7304SOL     OW28981   6.099   1.911   5.272 -0.3184  0.8177  0.3147
 7304SOL    HW228982   6.044   1.833   5.264  3.3224 -2.0403  0.9319
 7304SOL    HW328983   6.145   1.917   5.189  1.1466  0.8764  1.0987
 7304SOL    MW428984   6.098   1.902   5.260  0.3552  0.4484  0.4996
 7305SOL     OW28985   6.188   1.596   1.410 -0.2510 -0.8483 -0.3257
 7305SOL    HW228986   6.143   1.518   1.443  0.3048 -0.9261  0.2656
 7305SOL    HW328987   6.215   1.642   1.489  0.8901 -0.9014 -0.6737
 7305SOL    MW428988   6.185   1.592   1.425 -0.0271 -0.8656 -0.2936
 7306SOL     OW28989   5.722   0.891   5.790 -0.3637 -0.1592 -0.3707
 7306SOL    HW228990   5.719   0.796   5.792 -0.1895 -0.1978 -1.2333
 7306SOL    HW328991   5.660   0.916   5.721 -3.5690  0.5997  2.5139
 7306SOL    MW428992   5.713   0.882   5.781 -0.7636 -0.0642 -0.1039
 7307SOL     OW28993   3.329   2.002   4.003  0.3973 -0.3703 -0.1644
 7307SOL    HW228994   3.405   2.024   4.057 -0.0634  0.7913  0.0203
 7307SOL    HW328995   3.365   1.945   3.934  1.0325 -1.6982  1.1946
 7307SOL    MW428996   3.344   1.997   4.001  0.4203 -0.3922  0.0392
 7308SOL     OW28997   2.511   4.609   3.248  0.3354  0.1781 -0.3019
 7308SOL    HW228998   2.601   4.577   3.247  0.3420  0.1248 -1.8621
 7308SOL    HW328999   2.502   4.655   3.164 -0.3496  2.3889  0.9085
 7308SOL    MW429000   2.522   4.611   3.237  0.2459  0.4627 -0.3481
 7309SOL     OW29001   6.393   2.753   0.209  0.0303 -0.0840 -0.1734
 7309SOL    HW229002   6.348   2.674   0.179  0.0765  0.1281 -0.8063
 7309SOL    HW329003   6.377   2.818   0.140  0.2302  0.3734  0.2085
 7309SOL    MW429004   6.385   2.751   0.196  0.0628  0.0043 -0.2065
 7310SOL     OW29005   3.420   2.356   2.122  0.4639 -0.0134  0.1773
 7310SOL    HW229006   3.413   2.420   2.192 -1.3209 -2.5177  2.4915
 7310SOL    HW329007   3.355   2.384   2.057  1.2662  1.6607  0.0519
 7310SOL    MW429008   3.410   2.368   2.122  0.3342 -0.1230  0.4661
 7311SOL     OW29009   2.523   3.320   5.479 -0.8635  0.7799  0.2644
 7311SOL    HW229010   2.528   3.228   5.455  0.8158  0.2755  2.2253
 7311SOL    HW329011   2.609   3.356   5.455 -0.9343  1.4313  0.9291
 7311SOL    MW429012   2.535   3.313   5.472 -0.6513  0.7993  0.6108
 7312SOL     OW29013   0.714   2.395   0.241 -0.0976 -0.3467  0.6606
 7312SOL    HW229014   0.682   2.313   0.203 -0.0306  0.1747 -0.5715
 7312SOL    HW329015   0.706   2.459   0.170 -0.0711  0.7025  1.5694
 7312SOL    MW429016   0.709   2.393   0.227 -0.0853 -0.1395  0.6180
 7313SOL     OW29017   4.207   3.139   5.568  0.2128  0.0294 -0.0545
 7313SOL    HW229018   4.157   3.076   5.619  0.2845  0.5850  0.7190
 7313SOL    HW329019   4.142   3.180   5.511 -0.2363  0.7299  0.9270
 7313SOL    MW429020   4.191   3.137   5.567  0.1630  0.1951  0.1770
 7314SOL     OW29021   2.111   1.448   4.052  0.2897 -0.0214 -0.5127
 7314SOL    HW229022   2.038   1.497   4.014  0.7646  2.3121  1.3663
 7314SOL    HW329023   2.092   1.446   4.146  2.6622  0.7722  0.0418
 7314SOL    MW429024   2.099   1.454   4.060  0.6654  0.3912 -0.1917
 7315SOL     OW29025   3.309   6.083   0.155 -0.4617  0.4500 -0.4893
 7315SOL    HW229026   3.269   6.129   0.229  1.6168  0.8262  0.4717
 7315SOL    HW329027   3.318   6.150   0.087  2.1721  1.5161  0.7579
 7315SOL    MW429028   3.305   6.098   0.156  0.1601  0.6403 -0.1979
 7316SOL     OW29029   0.658   5.604   6.002  0.0438 -0.4754 -0.3466
 7316SOL    HW229030   0.711   5.607   6.082 -0.6293  0.2317  0.0798
 7316SOL    HW329031   0.663   5.693   5.966  1.3691 -1.0775 -1.7970
 7316SOL    MW429032   0.666   5.616   6.007  0.1298 -0.4616 -0.4817
 7317SOL     OW29033   2.493   0.841   5.340 -0.1904  0.0801 -0.0583
 7317SOL    HW229034   2.463   0.757   5.304 -1.0885  0.1110  0.5928
 7317SOL    HW329035   2.444   0.852   5.421  1.2258  0.3983  0.7906
 7317SOL    MW429036   2.483   0.831   5.346 -0.1221  0.1262  0.1396
 7318SOL     OW29037   5.231   1.855   5.627  0.6386 -0.2138  0.0600
 7318SOL    HW229038   5.238   1.833   5.534 -0.4042  0.2639 -0.1361
 7318SOL    HW329039   5.147   1.899   5.636  1.6142  1.6296  0.8568
 7318SOL    MW429040   5.221   1.858   5.616  0.6297  0.0925  0.1392
 7319SOL     OW29041   2.212   1.548   2.618 -0.4594 -0.1649  0.1090
 7319SOL    HW229042   2.160   1.578   2.693 -0.2397  0.9607 -0.1605
 7319SOL    HW329043   2.147   1.526   2.551 -0.6242  0.3676  0.0863
 7319SOL    MW429044   2.196   1.549   2.619 -0.4522  0.0539  0.0704
 7320SOL     OW29045   1.588   4.063   3.650  0.8463 -0.2021 -0.6246
 7320SOL    HW229046   1.531   4.021   3.714  1.4413  1.2625  0.9654
 7320SOL    HW329047   1.530   4.087   3.578 -1.4432  3.9473  2.1541
 7320SOL    MW429048   1.573   4.060   3.649  0.6227  0.5386 -0.0482
 7321SOL     OW29049   1.288   6.055   3.028 -0.6297 -0.5129 -0.4426
 7321SOL    HW229050   1.234   6.004   3.088  0.0312  1.3865  1.9575
 7321SOL    HW329051   1.231   6.125   2.998  0.0778  0.8771  1.2615
 7321SOL    MW429052   1.274   6.058   3.032 -0.4491 -0.0789  0.0989
 7322SOL     OW29053   3.533   1.467   4.728  0.1347 -0.2352 -0.0542
 7322SOL    HW229054   3.553   1.506   4.813  0.8635 -0.0186 -0.3110
 7322SOL    HW329055   3.495   1.538   4.677 -2.9506 -1.0226  0.9340
 7322SOL    MW429056   3.531   1.481   4.732 -0.1762 -0.3105  0.0423
 7323SOL     OW29057   4.315   3.915   2.386  0.1630  0.4368 -0.4003
 7323SOL    HW229058   4.301   3.872   2.302  0.8556 -0.2186 -0.1824
 7323SOL    HW329059   4.380   3.861   2.431  0.1095  1.0115  0.3878
 7323SOL    MW429060   4.322   3.903   2.380  0.2473  0.4261 -0.2675
 7324SOL     OW29061   5.083   4.623   0.567  1.0015  0.3505 -0.0012
 7324SOL    HW229062   5.081   4.600   0.660  1.2945 -2.1262 -0.5227
 7324SOL    HW329063   4.991   4.628   0.542  0.9226  0.5380  0.3168
 7324SOL    MW429064   5.070   4.620   0.576  1.0298  0.0485 -0.0280
 7325SOL     OW29065   2.468   5.120   0.318  0.2044 -0.2720 -0.7369
 7325SOL    HW229066   2.383   5.079   0.303 -0.1024  0.9334 -2.6000
 7325SOL    HW329067   2.447   5.209   0.346  0.8698 -0.5461  0.7076
 7325SOL    MW429068   2.454   5.126   0.320  0.2517 -0.1491 -0.7921
 7326SOL     OW29069   0.589   1.686   1.128 -0.3777  0.3797  0.2409
 7326SOL    HW229070   0.589   1.774   1.166 -0.9984  1.6627 -2.4485
 7326SOL    HW329071   0.667   1.644   1.163  0.3566  2.2952  1.0114
 7326SOL    MW429072   0.599   1.692   1.137 -0.3627  0.8018 -0.0123
 7327SOL     OW29073   3.600   0.420   0.967 -0.8259  0.1708  0.2811
 7327SOL    HW229074   3.509   0.444   0.982 -0.4472  0.5572  2.0869
 7327SOL    HW329075   3.643   0.501   0.940 -1.3721 -0.3973 -2.6824
 7327SOL    MW429076   3.594   0.434   0.965 -0.8480  0.1468  0.1283
 7328SOL     OW29077   0.350   0.060   5.941  0.3524  0.0241  0.3199
 7328SOL    HW229078   0.297  -0.004   5.894 -2.1863  0.0386  2.8885
 7328SOL    HW329079   0.343   0.140   5.888 -2.7220  0.1537  0.6936
 7328SOL    MW429080   0.342   0.062   5.928 -0.3882  0.0431  0.7081
 7329SOL     OW29081   3.871   3.929   5.853  0.6329  0.1031 -0.3874
 7329SOL    HW229082   3.802   3.938   5.918  0.5180 -0.7661 -0.3726
 7329SOL    HW329083   3.895   4.019   5.830  1.4934  0.4512  1.6965
 7329SOL    MW429084   3.865   3.942   5.858  0.7313  0.0343 -0.1105
 7330SOL     OW29085   0.204   3.926   1.948 -0.0773  0.1270 -0.2924
 7330SOL    HW229086   0.156   3.844   1.954 -1.3518  0.8438 -0.3801
 7330SOL    HW329087   0.259   3.928   2.026  1.5572 -1.7572 -1.3289
 7330SOL    MW429088   0.205   3.916   1.959 -0.0298 -0.0270 -0.4407
 7331SOL     OW29089   3.466   4.062   4.864 -0.1691  0.2092  0.6791
 7331SOL    HW229090   3.560   4.082   4.870 -0.2508  0.4491  1.2689
 7331SOL    HW329091   3.461   3.989   4.803  0.2192  1.3613 -0.7864
 7331SOL    MW429092   3.478   4.055   4.857 -0.1286  0.3928  0.5636
 7332SOL     OW29093   3.310   4.983   0.988  0.2474  0.4395  0.3841
 7332SOL    HW229094   3.289   5.022   0.903 -0.0643  0.5802  0.5227
 7332SOL    HW329095   3.388   4.930   0.972  1.8797  2.6391  0.6123
 7332SOL    MW429096   3.317   4.981   0.975  0.4216  0.7483  0.4325
 7333SOL     OW29097   2.882   3.180   4.423 -0.5505  0.0765 -0.0878
 7333SOL    HW229098   2.935   3.208   4.497 -0.3614  0.7704 -0.4780
 7333SOL    HW329099   2.926   3.103   4.389  1.1333  1.5392 -1.3867
 7333SOL    MW429100   2.895   3.174   4.429 -0.3034  0.3610 -0.3106
 7334SOL     OW29101   2.385   2.418   0.609  0.0189 -0.3777 -0.1138
 7334SOL    HW229102   2.365   2.497   0.661  0.3483 -0.0126 -0.5403
 7334SOL    HW329103   2.456   2.445   0.552  1.0019 -1.3606  0.6198
 7334SOL    MW429104   2.392   2.432   0.609  0.1921 -0.4592 -0.0733
 7335SOL     OW29105   5.650   3.980   5.183  0.2299  0.2522 -0.9411
 7335SOL    HW229106   5.634   3.891   5.152  2.4824 -0.0765 -1.3555
 7335SOL    HW329107   5.718   3.970   5.250  0.3807  1.6286 -0.8519
 7335SOL    MW429108   5.657   3.967   5.188  0.5470  0.3904 -0.9840
 7336SOL     OW29109   0.492   4.452   2.823 -0.1431 -0.3651 -0.1057
 7336SOL    HW229110   0.541   4.399   2.886 -0.2013 -1.2016 -0.7470
 7336SOL    HW329111   0.421   4.490   2.874 -0.6590 -1.6806  0.1772
 7336SOL    MW429112   0.489   4.450   2.838 -0.2188 -0.6490 -0.1530
 7337SOL     OW29113   2.852   5.265   5.033 -0.4644  0.2297  0.3357
 7337SOL    HW229114   2.790   5.306   4.973 -0.1485 -0.1492 -0.2508
 7337SOL    HW329115   2.797   5.210   5.089 -0.6892  0.1274  0.0155
 7337SOL    MW429116   2.836   5.263   5.033 -0.4524  0.1662  0.2161
 7338SOL     OW29117   4.267   3.803   4.964 -0.5098 -0.1272 -0.0101
 7338SOL    HW229118   4.340   3.752   5.001  0.4901 -0.6482 -2.5132
 7338SOL    HW329119   4.290   3.894   4.984  1.1357 -0.2421 -1.1119
 7338SOL    MW429120   4.280   3.808   4.972 -0.1608 -0.2111 -0.4857
 7339SOL     OW29121   4.832   6.143   6.232 -0.1995  0.3904 -0.1845
 7339SOL    HW229122   4.795   6.098   6.308  1.0226 -0.6487 -0.1720
 7339SOL    HW329123   4.767   6.210   6.210 -0.7320  0.4990  1.5649
 7339SOL    MW429124   4.819   6.146   6.239 -0.1085  0.2676  0.0480
 7340SOL     OW29125   6.235   0.793   3.414  0.5548  0.5968  0.2362
 7340SOL    HW229126   6.321   0.815   3.378  0.3611  0.5150 -0.2987
 7340SOL    HW329127   6.253   0.741   3.492  0.9938  0.8762  0.3225
 7340SOL    MW429128   6.249   0.789   3.419  0.5872  0.6229  0.1770
 7341SOL     OW29129   2.085   0.467   6.010 -0.0681  0.0016  0.6077
 7341SOL    HW229130   2.048   0.412   5.941 -0.5343  0.5021  0.4502
 7341SOL    HW329131   2.152   0.412   6.051 -1.3693 -1.1551  1.2790
 7341SOL    MW429132   2.089   0.453   6.006 -0.3013 -0.0849  0.6755
 7342SOL     OW29133   2.948   1.971   4.922  0.5823 -0.3302  0.1778
 7342SOL    HW229134   2.969   2.049   4.870  0.9295  0.0812  0.9268
 7342SOL    HW329135   2.948   1.899   4.858 -0.1116  0.3271 -0.5863
 7342SOL    MW429136   2.951   1.972   4.906  0.5365 -0.1892  0.1758
 7343SOL     OW29137   3.608   2.692   3.049  0.0227  0.2376  0.0693
 7343SOL    HW229138   3.684   2.643   3.019  0.1829  0.4387  0.1437
 7343SOL    HW329139   3.585   2.652   3.132 -0.2587 -0.1474 -0.1900
 7343SOL    MW429140   3.615   2.680   3.056  0.0067  0.2133  0.0449
 7344SOL     OW29141   4.777   3.689   0.517 -0.2123 -0.4143  0.2114
 7344SOL    HW229142   4.720   3.613   0.504 -0.8649  0.0890  0.0572
 7344SOL    HW329143   4.823   3.671   0.598  0.8500 -1.7156 -0.6457
 7344SOL    MW429144   4.775   3.677   0.526 -0.1582 -0.5196  0.0779
 7345SOL     OW29145   6.346   6.278   0.639 -0.4229  0.5042  0.0207
 7345SOL    HW229146   6.270   6.246   0.589  0.3970 -0.5892 -0.5831
 7345SOL    HW329147   6.308   6.335   0.706 -1.7293  0.4253 -0.6122
 7345SOL    MW429148   6.331   6.281   0.641 -0.4871  0.3495 -0.1424
 7346SOL     OW29149   2.841   2.174   2.130 -0.2657 -0.0388 -0.2520
 7346SOL    HW229150   2.769   2.208   2.184 -0.3907 -0.4088 -0.1814
 7346SOL    HW329151   2.912   2.237   2.142 -0.0738 -0.4458  0.8441
 7346SOL    MW429152   2.841   2.187   2.139 -0.2569 -0.1413 -0.0980
 7347SOL     OW29153   3.709   4.253   0.316  0.1632 -0.0590  0.4001
 7347SOL    HW229154   3.702   4.314   0.390 -1.7268  0.1240  0.1252
 7347SOL    HW329155   3.724   4.310   0.240  1.0727 -0.1688  0.4866
 7347SOL    MW429156   3.710   4.269   0.316  0.0339 -0.0493  0.3753
 7348SOL     OW29157   6.310   2.818   3.851  0.4877  0.1237  0.1219
 7348SOL    HW229158   6.309   2.906   3.813 -1.8762  1.1218  2.1673
 7348SOL    HW329159   6.324   2.833   3.945  1.0961 -1.7940  0.3833
 7348SOL    MW429160   6.312   2.832   3.859  0.2560  0.0024  0.4263
 7349SOL     OW29161   2.275   4.276   5.334  0.3136 -0.3371 -0.9931
 7349SOL    HW229162   2.199   4.219   5.348  0.8805 -0.6210  1.4728
 7349SOL    HW329163   2.333   4.224   5.278  0.1996 -1.6754  0.0509
 7349SOL    MW429164   2.273   4.261   5.329  0.3734 -0.5511 -0.5300
 7350SOL     OW29165   5.379   3.185   4.370  0.1964 -0.1945  0.4668
 7350SOL    HW229166   5.441   3.113   4.358  0.5220  0.1045  0.3140
 7350SOL    HW329167   5.300   3.157   4.325 -0.1421 -1.0325  1.5590
 7350SOL    MW429168   5.377   3.172   4.362  0.1947 -0.2656  0.5907
 7351SOL     OW29169   0.954   3.330   3.687 -0.7488  0.6688 -0.3466
 7351SOL    HW229170   0.876   3.335   3.632 -2.7792 -1.8900  2.0350
 7351SOL    HW329171   1.001   3.253   3.654 -1.4438 -0.2636  0.7862
 7351SOL    MW429172   0.950   3.320   3.675 -1.1084  0.2082  0.1171
 7352SOL     OW29173   2.008   4.102   0.415 -0.4850  0.3152  0.1259
 7352SOL    HW229174   2.049   4.018   0.438 -2.1945 -0.9951 -1.3820
 7352SOL    HW329175   1.927   4.078   0.371 -0.8121  2.7803 -0.7510
 7352SOL    MW429176   2.003   4.088   0.412 -0.7537  0.4675 -0.1888
 7353SOL     OW29177   4.704   5.390   5.326 -0.0596 -0.0922  0.3507
 7353SOL    HW229178   4.745   5.310   5.360 -0.6593  0.2721  2.0748
 7353SOL    HW329179   4.775   5.438   5.283  0.7727 -0.6196  1.0957
 7353SOL    MW429180   4.719   5.386   5.325 -0.0289 -0.1137  0.6765
 7354SOL     OW29181   4.669   4.060   0.587  0.9870 -0.1750  0.2501
 7354SOL    HW229182   4.719   4.141   0.595 -0.2112  0.4608  1.6912
 7354SOL    HW329183   4.735   3.993   0.565  2.0441  1.0918 -0.5659
 7354SOL    MW429184   4.684   4.062   0.585  0.9684  0.0760  0.3325
 7355SOL     OW29185   0.480   2.046   4.359  0.0614 -0.5434  0.2255
 7355SOL    HW229186   0.491   1.957   4.325  3.5553 -0.2166  0.1230
 7355SOL    HW329187   0.528   2.046   4.442  1.0665  1.4619 -0.2992
 7355SOL    MW429188   0.488   2.034   4.365  0.6550 -0.2357  0.1427
 7356SOL     OW29189   0.964   3.484   4.066  0.1771 -0.8573 -0.5177
 7356SOL    HW229190   0.978   3.403   4.018  1.1008 -0.3678 -1.1121
 7356SOL    HW329191   0.918   3.541   4.004  0.5083 -0.5608 -0.4969
 7356SOL    MW429192   0.960   3.481   4.051  0.3427 -0.7536 -0.5933
 7357SOL     OW29193   2.398   4.882   4.711  0.0753  0.0239 -0.1110
 7357SOL    HW229194   2.347   4.873   4.631  0.8877 -1.9174 -0.4705
 7357SOL    HW329195   2.487   4.900   4.681 -0.2688  3.6321  0.5126
 7357SOL    MW429196   2.403   4.883   4.697  0.1371  0.2439 -0.0762
 7358SOL     OW29197   3.220   4.302   3.355 -0.2496  0.2915 -0.0554
 7358SOL    HW229198   3.171   4.221   3.346  1.9401 -1.2002  0.6331
 7358SOL    HW329199   3.288   4.297   3.288  0.3531  1.2199  0.4680
 7358SOL    MW429200   3.222   4.291   3.345  0.1188  0.2172  0.1045
 7359SOL     OW29201   6.101   4.552   3.149 -0.5764 -0.3935  0.6401
 7359SOL    HW229202   6.047   4.568   3.226 -0.1748 -1.3143  1.1341
 7359SOL    HW329203   6.167   4.489   3.179 -1.0301 -1.5812 -0.7101
 7359SOL    MW429204   6.103   4.546   3.163 -0.5833 -0.6717  0.5271
 7360SOL     OW29205   3.263   1.355   3.949  0.0120  0.2079  0.4442
 7360SOL    HW229206   3.240   1.307   4.028 -0.9557  0.3728  0.2705
 7360SOL    HW329207   3.284   1.287   3.885 -0.9602  0.0126  0.3170
 7360SOL    MW429208   3.263   1.340   3.951 -0.2440  0.2039  0.4045
 7361SOL     OW29209   4.246   3.135   0.316  0.6321  0.4955 -0.4667
 7361SOL    HW229210   4.339   3.110   0.317  0.4212 -0.2899 -0.2241
 7361SOL    HW329211   4.210   3.088   0.241  0.0509 -0.6052  0.4822
 7361SOL    MW429212   4.254   3.126   0.306  0.5276  0.2466 -0.3095
 7362SOL     OW29213   5.909   1.297   5.286  0.0164 -0.2142 -0.1727
 7362SOL    HW229214   5.952   1.292   5.201  0.1883  0.8737 -0.1619
 7362SOL    HW329215   5.921   1.388   5.314 -0.7738 -0.3440  0.6293
 7362SOL    MW429216   5.916   1.308   5.279 -0.0651 -0.0878 -0.0655
 7363SOL     OW29217   5.151   0.062   2.737 -0.0626  0.4550 -0.4453
 7363SOL    HW229218   5.208   0.015   2.798 -0.5756  0.2973 -0.0763
 7363SOL    HW329219   5.173   0.027   2.651  0.6286  0.6340 -0.3500
 7363SOL    MW429220   5.162   0.051   2.734 -0.0391  0.4578 -0.3840
 7364SOL     OW29221   1.554   3.630   0.855 -0.9704 -0.6499  0.0187
 7364SOL    HW229222   1.514   3.552   0.817 -2.5400 -0.7348  1.6903
 7364SOL    HW329223   1.480   3.680   0.889  0.1647  0.5555  0.8030
 7364SOL    MW429224   1.539   3.626   0.854 -1.0278 -0.5020  0.3427
 7365SOL     OW29225   2.929   1.033   5.300 -0.6573 -0.6858 -0.3007
 7365SOL    HW229226   3.000   1.043   5.238  1.3605 -0.4494  1.8902
 7365SOL    HW329227   2.852   1.014   5.247  0.8315 -0.0076 -2.8338
 7365SOL    MW429228   2.928   1.032   5.285 -0.1947 -0.5651 -0.3459
 7366SOL     OW29229   4.142   4.139   4.354 -0.9452  0.0789 -0.4010
 7366SOL    HW229230   4.202   4.182   4.292  0.2466 -0.1598  0.5430
 7366SOL    HW329231   4.102   4.211   4.402 -0.6998  0.2123 -0.3935
 7366SOL    MW429232   4.145   4.154   4.352 -0.7555  0.0650 -0.2754
 7367SOL     OW29233   2.190   2.311   6.056 -0.3009  0.0727 -0.2845
 7367SOL    HW229234   2.121   2.375   6.042  0.7046  1.1742 -0.4130
 7367SOL    HW329235   2.186   2.254   5.979 -2.0585 -0.8956  0.4533
 7367SOL    MW429236   2.181   2.312   6.044 -0.4001  0.0903 -0.2041
 7368SOL     OW29237   5.658   3.711   0.164 -0.5494 -0.3644 -0.1797
 7368SOL    HW229238   5.731   3.720   0.103  0.1228  0.4089  0.7107
 7368SOL    HW329239   5.698   3.680   0.245 -1.3777 -1.0070 -0.0070
 7368SOL    MW429240   5.673   3.708   0.167 -0.5700 -0.3472 -0.0394
 7369SOL     OW29241   2.419   3.853   1.604 -0.1607 -0.7543  0.2311
 7369SOL    HW229242   2.392   3.824   1.516 -1.5196 -0.6446  0.5879
 7369SOL    HW329243   2.427   3.771   1.653  1.8189 -0.9184 -0.2821
 7369SOL    MW429244   2.416   3.838   1.599 -0.0788 -0.7615  0.2105
 7370SOL     OW29245   3.152   2.222   5.051 -0.4136  0.2637 -0.0505
 7370SOL    HW229246   3.223   2.270   5.093  0.0679 -1.1305  0.7648
 7370SOL    HW329247   3.195   2.149   5.006 -1.1220  0.6352 -1.4013
 7370SOL    MW429248   3.167   2.219   5.050 -0.4436  0.1287 -0.1212
 7371SOL     OW29249   5.108   4.728   4.320 -0.2666 -0.1736  0.1019
 7371SOL    HW229250   5.050   4.760   4.389  1.4121  2.9820  0.2070
 7371SOL    HW329251   5.077   4.771   4.241  1.6370  1.3008  0.1024
 7371SOL    MW429252   5.096   4.738   4.319  0.2060  0.4373  0.1159
 7372SOL     OW29253   6.111   3.990   0.617  0.4350  0.0360  0.0819
 7372SOL    HW229254   6.178   4.009   0.683 -0.2671 -0.2811  0.9039
 7372SOL    HW329255   6.037   4.046   0.641 -0.2295 -0.8786  0.2342
 7372SOL    MW429256   6.110   4.000   0.629  0.2547 -0.1265  0.2105
 7373SOL     OW29257   3.453   4.042   3.155  0.1592 -0.2452 -0.5441
 7373SOL    HW229258   3.364   4.012   3.138 -1.2085  3.6010 -1.2027
 7373SOL    HW329259   3.509   3.977   3.113 -2.2980 -2.5788 -0.4435
 7373SOL    MW429260   3.449   4.030   3.147 -0.3455 -0.0456 -0.6178
 7374SOL     OW29261   1.024   2.700   6.181  0.6910 -0.0673  0.3013
 7374SOL    HW229262   1.003   2.773   6.240  0.3078 -0.2165  0.3543
 7374SOL    HW329263   1.079   2.739   6.113  1.1575  0.1013  0.7709
 7374SOL    MW429264   1.029   2.715   6.180  0.7020 -0.0647  0.3703
 7375SOL     OW29265   2.684   4.952   5.656 -0.0088 -0.1414  0.1970
 7375SOL    HW229266   2.695   4.882   5.719  1.6706  0.9535  1.1983
 7375SOL    HW329267   2.660   5.028   5.709  1.3722  0.7854 -0.4503
 7375SOL    MW429268   2.682   4.953   5.671  0.3950  0.1254  0.2437
 7376SOL     OW29269   2.475   2.437   5.960 -0.5376 -0.0887  0.1345
 7376SOL    HW229270   2.533   2.494   5.909  1.6511  0.2218  2.7786
 7376SOL    HW329271   2.400   2.493   5.981 -0.9660  0.1006 -1.7337
 7376SOL    MW429272   2.473   2.452   5.956 -0.3053 -0.0228  0.2368
 7377SOL     OW29273   2.876   3.556   3.473 -0.6759  0.2200  0.0330
 7377SOL    HW229274   2.861   3.599   3.556 -0.6502 -0.4228  0.3808
 7377SOL    HW329275   2.816   3.481   3.474  0.7883 -0.9919  0.3941
 7377SOL    MW429276   2.866   3.552   3.484 -0.4793 -0.0247  0.1266
 7378SOL     OW29277   0.929   4.339   3.645  0.4027  0.2692  0.5791
 7378SOL    HW229278   0.867   4.402   3.609  1.3082  1.3923  0.9124
 7378SOL    HW329279   1.013   4.385   3.644  0.9951 -0.7485  1.3219
 7378SOL    MW429280   0.932   4.353   3.640  0.6004  0.2831  0.7211
 7379SOL     OW29281   2.861   2.363   1.079  0.6227 -0.0666 -0.3995
 7379SOL    HW229282   2.890   2.445   1.039 -1.1292  0.5184 -0.5624
 7379SOL    HW329283   2.772   2.350   1.045  0.8166 -1.9843 -0.2901
 7379SOL    MW429284   2.853   2.372   1.069  0.4171 -0.2424 -0.4065
 7380SOL     OW29285   3.292   5.213   5.718 -0.2010  0.3264  0.0783
 7380SOL    HW229286   3.263   5.196   5.807 -1.7408  0.9553 -0.2719
 7380SOL    HW329287   3.279   5.130   5.672  0.0665  0.1596  0.3039
 7380SOL    MW429288   3.286   5.200   5.724 -0.3688  0.3874  0.0619
 7381SOL     OW29289   4.780   6.017   2.394 -0.0509  0.1355  0.0548
 7381SOL    HW229290   4.686   6.032   2.395  0.1453  1.5590  0.6229
 7381SOL    HW329291   4.792   5.940   2.339 -1.4962  0.2711 -0.4969
 7381SOL    MW429292   4.770   6.009   2.387 -0.2157  0.3412  0.0569
 7382SOL     OW29293   0.728   0.435   4.069 -0.3045  0.0997 -0.3426
 7382SOL    HW229294   0.791   0.364   4.060 -0.0069  0.3376 -0.1136
 7382SOL    HW329295   0.746   0.473   4.154 -1.2410 -0.3010  0.0541
 7382SOL    MW429296   0.738   0.431   4.079 -0.3888  0.0782 -0.2600
 7383SOL     OW29297   1.388   0.134   6.398 -0.6932  0.4921 -0.2199
 7383SOL    HW229298   1.332   0.060   6.424  2.0606 -1.5451  0.3379
 7383SOL    HW329299   1.393   0.189   6.476 -0.3815 -0.3598  0.3796
 7383SOL    MW429300   1.381   0.131   6.412 -0.2887  0.1109 -0.0672
 7384SOL     OW29301   1.735   4.019   0.384 -0.2440 -0.1182 -0.1914
 7384SOL    HW229302   1.731   4.011   0.479  1.7147  1.0413  0.0491
 7384SOL    HW329303   1.685   4.098   0.364  0.4186  0.3633  0.0303
 7384SOL    MW429304   1.728   4.028   0.394  0.1019  0.0983 -0.1305
 7385SOL     OW29305   5.948   4.396   0.071  0.0850  0.4385 -0.2045
 7385SOL    HW229306   5.998   4.337   0.014 -0.2257  0.4782 -0.5241
 7385SOL    HW329307   5.950   4.353   0.157  0.4051  0.2859 -0.2865
 7385SOL    MW429308   5.955   4.382   0.075  0.0863  0.4236 -0.2575
 7386SOL     OW29309   5.560   4.332   1.369 -0.3994 -0.1446 -0.5118
 7386SOL    HW229310   5.641   4.322   1.419 -0.2230  1.5572 -0.3979
 7386SOL    HW329311   5.566   4.267   1.299  1.4083  0.4354 -0.9430
 7386SOL    MW429312   5.571   4.322   1.367 -0.1376  0.1565 -0.5537
 7387SOL     OW29313   1.162   3.823   3.787  0.1432 -0.0510 -0.3235
 7387SOL    HW229314   1.145   3.730   3.780 -0.5585  0.2003 -2.5816
 7387SOL    HW329315   1.121   3.849   3.869  1.8613 -1.9927  1.2574
 7387SOL    MW429316   1.155   3.814   3.797  0.2773 -0.2740 -0.4129
 7388SOL     OW29317   3.589   4.885   1.064  0.2472  0.0300  0.2239
 7388SOL    HW229318   3.557   4.842   1.144  2.1105 -1.5465  0.2140
 7388SOL    HW329319   3.640   4.817   1.020  1.1366  1.5406 -1.1770
 7388SOL    MW429320   3.592   4.870   1.069  0.6104  0.0213  0.0378
 7389SOL     OW29321   1.121   0.477   4.017 -0.4174 -0.1301 -0.1076
 7389SOL    HW229322   1.169   0.466   4.099  1.2208  0.4839 -0.9518
 7389SOL    HW329323   1.086   0.566   4.021 -0.1586 -0.0263 -0.1745
 7389SOL    MW429324   1.123   0.487   4.028 -0.1671 -0.0354 -0.2278
 7390SOL     OW29325   6.301   4.244   0.038 -0.0214  0.0155  0.4734
 7390SOL    HW229326   6.235   4.236  -0.031 -0.1933  0.8436  0.5321
 7390SOL    HW329327   6.336   4.333   0.028  1.9550 -0.7978 -0.3273
 7390SOL    MW429328   6.297   4.255   0.028  0.2167  0.0174  0.3755
 7391SOL     OW29329   3.579   0.900   3.119 -0.1876 -0.1155  0.3552
 7391SOL    HW229330   3.528   0.958   3.061 -1.5118 -0.3817  1.2137
 7391SOL    HW329331   3.652   0.871   3.065 -1.7941 -0.9845 -1.4988
 7391SOL    MW429332   3.582   0.904   3.104 -0.5742 -0.2653  0.2239
 7392SOL     OW29333   5.528   0.223   6.375 -0.8010 -0.7033 -0.0299
 7392SOL    HW229334   5.603   0.173   6.344 -1.3065 -0.1547 -2.2793
 7392SOL    HW329335   5.564   0.308   6.401 -0.4518 -0.9784  0.4058
 7392SOL    MW429336   5.543   0.228   6.374 -0.8216 -0.6672 -0.2692
 7393SOL     OW29337   0.444   2.863   1.800  0.0544 -0.6265  0.0835
 7393SOL    HW229338   0.417   2.785   1.849  0.5017 -0.6963  0.2196
 7393SOL    HW329339   0.392   2.934   1.839  1.8650 -0.2890  2.1214
 7393SOL    MW429340   0.433   2.862   1.812  0.3523 -0.5912  0.3703
 7394SOL     OW29341   0.005   0.583   5.868  0.0762  0.2895  0.5446
 7394SOL    HW229342   0.054   0.633   5.934  0.5837 -0.3275  0.6527
 7394SOL    HW329343  -0.084   0.617   5.874  0.8545  2.8792 -1.0720
 7394SOL    MW429344  -0.000   0.594   5.878  0.2458  0.5498  0.3455
 7395SOL     OW29345   3.769   6.069   3.364 -0.0202 -0.4290 -0.0149
 7395SOL    HW229346   3.706   6.091   3.433  1.8010  0.2040  1.5617
 7395SOL    HW329347   3.761   6.140   3.300 -0.3586  0.0794  0.5810
 7395SOL    MW429348   3.760   6.081   3.365  0.1754 -0.2784  0.2717
 7396SOL     OW29349   3.830   1.749   1.327  0.0930  0.2618  0.2992
 7396SOL    HW229350   3.922   1.731   1.308  0.1571  2.3084 -1.7777
 7396SOL    HW329351   3.830   1.835   1.369 -0.9385  1.2552 -1.5987
 7396SOL    MW429352   3.842   1.758   1.330 -0.0346  0.6629 -0.2253
 7397SOL     OW29353   2.035   0.303   5.461 -0.3581 -0.0990 -0.1552
 7397SOL    HW229354   2.105   0.261   5.411  1.0868  3.7425 -1.7510
 7397SOL    HW329355   1.959   0.299   5.403 -1.2470 -2.9851  0.9959
 7397SOL    MW429356   2.034   0.297   5.447 -0.2847  0.0271 -0.2139
 7398SOL     OW29357   0.376   5.950   2.338 -0.0732  0.6394  0.0288
 7398SOL    HW229358   0.414   5.883   2.282  1.6852  0.4216  1.3944
 7398SOL    HW329359   0.325   6.005   2.278  0.9158 -0.1443 -1.6180
 7398SOL    MW429360   0.375   5.948   2.322  0.2893  0.5072 -0.0083
 7399SOL     OW29361   6.023   4.077   2.034 -0.6528 -0.2970 -0.5992
 7399SOL    HW229362   6.066   4.159   2.058 -1.7500  0.1572 -0.1043
 7399SOL    HW329363   6.012   4.082   1.939 -1.4097  0.5108 -0.4897
 7399SOL    MW429364   6.027   4.089   2.025 -0.8974 -0.1305 -0.5195
 7400SOL     OW29365   4.598   1.135   0.071 -0.0154  0.0634 -0.9207
 7400SOL    HW229366   4.610   1.098  -0.016 -0.2071 -0.4893 -0.7228
 7400SOL    HW329367   4.656   1.082   0.127 -1.7999 -1.3165 -0.2842
 7400SOL    MW429368   4.607   1.123   0.067 -0.2761 -0.1916 -0.8106
 7401SOL     OW29369   5.804   3.265   1.466  0.4786  0.5057  0.2648
 7401SOL    HW229370   5.807   3.270   1.562 -0.6915  0.7468  0.3046
 7401SOL    HW329371   5.876   3.322   1.437  0.7400  0.5594  0.9998
 7401SOL    MW429372   5.814   3.273   1.475  0.3587  0.5446  0.3670
 7402SOL     OW29373   1.411   6.037   5.033 -0.0869 -0.9902 -0.0514
 7402SOL    HW229374   1.447   6.067   5.117 -1.0442 -1.0881  0.4091
 7402SOL    HW329375   1.318   6.027   5.050 -0.5356  0.3234 -1.5085
 7402SOL    MW429376   1.404   6.040   5.046 -0.2724 -0.8298 -0.1829
 7403SOL     OW29377   1.575   0.939   3.903  0.4083 -0.3859 -0.5390
 7403SOL    HW229378   1.619   0.862   3.939 -0.2253 -0.7249 -0.4563
 7403SOL    HW329379   1.488   0.906   3.878  0.2885  0.2041 -0.9156
 7403SOL    MW429380   1.569   0.924   3.904  0.3089 -0.3528 -0.5778
 7404SOL     OW29381   0.964   3.369   1.313  0.3736 -0.0053 -0.3183
 7404SOL    HW229382   0.901   3.299   1.324 -0.1196  0.3327 -0.9334
 7404SOL    HW329383   0.924   3.429   1.250  0.7831  0.8293  0.1869
 7404SOL    MW429384   0.951   3.368   1.306  0.3625  0.1494 -0.3328
 7405SOL     OW29385   2.755   4.506   3.290  0.5382  0.0855 -0.4323
 7405SOL    HW229386   2.780   4.529   3.380  0.7001  0.6814 -0.6306
 7405SOL    HW329387   2.836   4.513   3.240  0.7060 -1.3891 -0.4161
 7405SOL    MW429388   2.769   4.510   3.295  0.5817 -0.0305 -0.4563
 7406SOL     OW29389   0.767   3.155   1.364  0.2244  0.2136  0.6599
 7406SOL    HW229390   0.672   3.161   1.380  0.2113  1.7539  0.1102
 7406SOL    HW329391   0.803   3.123   1.447 -0.7355 -0.0897  0.9750
 7406SOL    MW429392   0.759   3.151   1.377  0.0960  0.3768  0.6289
 7407SOL     OW29393   0.344   2.679   1.978  0.0225  0.4545 -0.6457
 7407SOL    HW229394   0.354   2.587   1.951 -0.2863 -0.2041  1.3289
 7407SOL    HW329395   0.250   2.689   1.994 -0.1870  1.6017 -2.3291
 7407SOL    MW429396   0.333   2.668   1.976 -0.0459  0.5190 -0.6073
 7408SOL     OW29397   4.083   0.030   1.646  0.1459  0.3024 -0.3531
 7408SOL    HW229398   4.022   0.088   1.600  0.7213  2.5949  1.5564
 7408SOL    HW329399   4.033  -0.003   1.721  0.5856  0.5055  0.0397
 7408SOL    MW429400   4.068   0.033   1.650  0.2798  0.6317 -0.0493
 7409SOL     OW29401   0.577   5.635   1.616 -0.0307 -0.0931  0.0489
 7409SOL    HW229402   0.539   5.557   1.656 -0.6077 -0.4134 -1.0941
 7409SOL    HW329403   0.531   5.708   1.658 -0.4133 -0.4066  0.1788
 7409SOL    MW429404   0.566   5.634   1.627 -0.1573 -0.1767 -0.0848
 7410SOL     OW29405   0.739   1.621   3.093 -0.1430 -0.4197  0.0381
 7410SOL    HW229406   0.709   1.533   3.118  1.0249 -0.9286 -0.3048
 7410SOL    HW329407   0.708   1.678   3.164 -0.5301 -1.1667  0.4837
 7410SOL    MW429408   0.731   1.617   3.105 -0.0400 -0.5854  0.0516
 7411SOL     OW29409   1.683   2.849   1.273  0.7157  0.3832  0.1671
 7411SOL    HW229410   1.604   2.831   1.325  0.5524 -2.1850 -0.8178
 7411SOL    HW329411   1.752   2.797   1.315  0.3854 -2.5378 -2.4839
 7411SOL    MW429412   1.682   2.840   1.285  0.6506 -0.3410 -0.3126
 7412SOL     OW29413   4.535   4.769   6.291 -0.0159 -0.0627 -0.1148
 7412SOL    HW229414   4.581   4.832   6.235 -0.7044  2.1279  1.6710
 7412SOL    HW329415   4.592   4.758   6.367 -0.2719 -1.0563 -0.0482
 7412SOL    MW429416   4.549   4.776   6.293 -0.1405  0.0952  0.1296
 7413SOL     OW29417   0.514   4.194   5.158 -0.0317  0.0497  0.1307
 7413SOL    HW229418   0.609   4.186   5.159  0.2116  2.4136 -0.4909
 7413SOL    HW329419   0.494   4.245   5.080 -1.8843 -0.8423 -0.0384
 7413SOL    MW429420   0.524   4.199   5.148 -0.2440  0.2439  0.0264
 7414SOL     OW29421   4.379   1.708   0.067 -0.3232 -0.2280  0.3272
 7414SOL    HW229422   4.422   1.644   0.011 -0.0184 -0.6642  1.0451
 7414SOL    HW329423   4.344   1.657   0.140 -2.3754  0.0701 -0.3930
 7414SOL    MW429424   4.380   1.693   0.069 -0.5538 -0.2462  0.3269
 7415SOL     OW29425   2.783   3.774   0.681 -0.1297  0.1995  0.0104
 7415SOL    HW229426   2.751   3.850   0.631  0.0456 -0.4654 -1.1335
 7415SOL    HW329427   2.711   3.712   0.678  0.1955 -0.1734 -0.1299
 7415SOL    MW429428   2.769   3.776   0.674 -0.0637  0.0626 -0.1590
 7416SOL     OW29429   2.630   0.909   6.428 -0.2063 -0.0176  0.0047
 7416SOL    HW229430   2.718   0.920   6.464 -0.4215  0.8005  0.3132
 7416SOL    HW329431   2.618   0.984   6.371 -0.8499  0.0973  0.2826
 7416SOL    MW429432   2.640   0.920   6.425 -0.3196  0.1055  0.0821
 7417SOL     OW29433   0.372   3.367   6.100 -0.1319 -0.6451 -0.7162
 7417SOL    HW229434   0.288   3.339   6.136 -0.1814  1.5400  1.0829
 7417SOL    HW329435   0.438   3.327   6.157 -0.1109  0.3841  0.0153
 7417SOL    MW429436   0.370   3.358   6.113 -0.1356 -0.2210 -0.3823
 7418SOL     OW29437   2.511   3.279   2.512  0.7730 -0.2712 -0.4893
 7418SOL    HW229438   2.557   3.307   2.591  0.4524 -0.5321 -0.2082
 7418SOL    HW329439   2.425   3.320   2.518  0.3568 -1.1664 -0.1584
 7418SOL    MW429440   2.506   3.288   2.523  0.6758 -0.4237 -0.4085
 7419SOL     OW29441   6.198   3.809   5.616  0.3224  0.2439  0.2648
 7419SOL    HW229442   6.197   3.897   5.654  1.0684  0.4684 -0.2173
 7419SOL    HW329443   6.181   3.823   5.523  0.7803 -0.0870  0.1281
 7419SOL    MW429444   6.195   3.822   5.609  0.4812  0.2299  0.1832
 7420SOL     OW29445   3.771   4.344   5.477  0.1691 -0.4763  0.5147
 7420SOL    HW229446   3.838   4.313   5.415  0.8573 -0.5781  1.2845
 7420SOL    HW329447   3.701   4.378   5.422  1.1634  0.2793 -0.3150
 7420SOL    MW429448   3.771   4.344   5.462  0.3911 -0.3900  0.5068
 7421SOL     OW29449   2.000   4.050   4.176 -0.4272  0.7833 -0.2663
 7421SOL    HW229450   2.031   3.981   4.117 -0.6810  1.3956 -1.1443
 7421SOL    HW329451   2.035   4.027   4.261  0.9071  0.4794 -0.8763
 7421SOL    MW429452   2.009   4.038   4.179 -0.2847  0.8240 -0.4627
 7422SOL     OW29453   5.191   2.828   0.702  0.3185 -0.3713  0.1426
 7422SOL    HW229454   5.109   2.834   0.751 -0.6263 -1.6360 -1.1766
 7422SOL    HW329455   5.225   2.741   0.721  0.5155 -0.4517 -0.5405
 7422SOL    MW429456   5.185   2.818   0.711  0.2198 -0.5488 -0.1216
 7423SOL     OW29457   3.623   0.331   4.417  0.5581 -0.5743 -0.2612
 7423SOL    HW229458   3.609   0.405   4.358  1.4108 -1.2987 -1.4193
 7423SOL    HW329459   3.591   0.255   4.369 -1.7725 -0.8349  1.5348
 7423SOL    MW429460   3.617   0.331   4.403  0.3631 -0.7042 -0.1770
 7424SOL     OW29461   3.101   2.739   3.540  0.2961  0.4136  0.3113
 7424SOL    HW229462   3.032   2.801   3.515  0.8898  1.0432  0.2128
 7424SOL    HW329463   3.082   2.660   3.490 -1.2805  0.0041  1.4695
 7424SOL    MW429464   3.089   2.737   3.530  0.1664  0.4426  0.4511
 7425SOL     OW29465   6.356   3.524   0.680  0.0983  0.2654  0.1357
 7425SOL    HW229466   6.345   3.511   0.585  0.2585  1.3324 -0.0356
 7425SOL    HW329467   6.275   3.491   0.718 -1.1500  2.2823 -0.6086
 7425SOL    MW429468   6.344   3.518   0.672 -0.0452  0.6723  0.0149
 7426SOL     OW29469   4.627   3.214   5.209  0.1842 -0.4083  0.0237
 7426SOL    HW229470   4.622   3.119   5.216  0.0917 -0.3756  0.4728
 7426SOL    HW329471   4.546   3.245   5.250  0.1051 -0.1423 -0.3276
 7426SOL    MW429472   4.616   3.206   5.216  0.1615 -0.3689  0.0366
 7427SOL     OW29473   2.621   6.286   4.446  0.0313  0.2873 -0.9771
 7427SOL    HW229474   2.568   6.290   4.366 -1.5941 -2.0749 -0.1545
 7427SOL    HW329475   2.572   6.337   4.510  1.3619  2.2284 -1.4401
 7427SOL    MW429476   2.607   6.293   4.444 -0.0076  0.2317 -0.9297
 7428SOL     OW29477   4.945   0.821   0.087  0.5726 -0.3704  0.6691
 7428SOL    HW229478   4.897   0.768   0.024 -0.0132  2.0754 -1.0684
 7428SOL    HW329479   5.024   0.849   0.041  1.6363 -0.9251  2.0753
 7428SOL    MW429480   4.949   0.818   0.073  0.6356 -0.1209  0.6254
 7429SOL     OW29481   5.875   2.796   4.073 -0.2476  0.0602 -0.0787
 7429SOL    HW229482   5.901   2.815   3.983  0.0001 -0.6472 -0.1652
 7429SOL    HW329483   5.957   2.770   4.116 -0.4901 -0.3105  0.1567
 7429SOL    MW429484   5.889   2.795   4.067 -0.2469 -0.0820 -0.0591
 7430SOL     OW29485   4.184   4.015   0.448 -0.3401  0.1950 -0.6352
 7430SOL    HW229486   4.259   4.075   0.448  0.5650 -0.8027  1.5558
 7430SOL    HW329487   4.108   4.071   0.464  0.6315  0.7851  2.8293
 7430SOL    MW429488   4.184   4.030   0.450 -0.0925  0.1412  0.1110
 7431SOL     OW29489   5.346   2.507   4.342 -0.5050  0.1764 -0.6924
 7431SOL    HW229490   5.354   2.414   4.318 -0.4724 -0.2803  0.9313
 7431SOL    HW329491   5.280   2.508   4.411  0.7616  1.1026  0.5550
 7431SOL    MW429492   5.339   2.495   4.348 -0.3336  0.2383 -0.3136
 7432SOL     OW29493   0.155   1.452   5.220 -0.3009  0.0180 -0.1881
 7432SOL    HW229494   0.129   1.381   5.279 -0.3478 -0.6365 -0.9819
 7432SOL    HW329495   0.201   1.514   5.276 -0.1503 -0.7023  0.4998
 7432SOL    MW429496   0.158   1.451   5.235 -0.2872 -0.1634 -0.2021
 7433SOL     OW29497   4.024   4.864   5.706  0.0349  0.1724 -0.2286
 7433SOL    HW229498   4.070   4.838   5.626  1.5679  1.8578  0.0378
 7433SOL    HW329499   4.065   4.812   5.775  0.6330  0.7023 -0.1775
 7433SOL    MW429500   4.035   4.853   5.704  0.3161  0.4647 -0.1867
 7434SOL     OW29501   5.213   1.544   3.216  0.4304 -0.1908  0.3832
 7434SOL    HW229502   5.152   1.596   3.269 -0.2392 -0.4075 -0.1620
 7434SOL    HW329503   5.300   1.575   3.241  0.1120 -0.1258  1.4341
 7434SOL    MW429504   5.217   1.555   3.226  0.3000 -0.2108  0.4499
 7435SOL     OW29505   5.207   0.935   2.135 -0.2594 -0.0628  0.0554
 7435SOL    HW229506   5.113   0.956   2.134 -0.2497  0.0840  1.1106
 7435SOL    HW329507   5.250   1.017   2.114 -0.3821 -0.3714 -1.5098
 7435SOL    MW429508   5.200   0.948   2.132 -0.2743 -0.0842 -0.0119
 7436SOL     OW29509   2.621   3.810   3.893  0.0990  0.5537  0.2535
 7436SOL    HW229510   2.589   3.844   3.977 -1.1717 -1.8910  0.8661
 7436SOL    HW329511   2.548   3.824   3.832 -0.2957 -0.6604  0.4254
 7436SOL    MW429512   2.607   3.817   3.896 -0.1207  0.0710  0.3570
 7437SOL     OW29513   2.180   0.468   3.234  0.0204 -0.0034  0.4087
 7437SOL    HW229514   2.270   0.444   3.253  0.6365  2.5007  0.9178
 7437SOL    HW329515   2.128   0.394   3.267  1.6078  0.2107  3.7397
 7437SOL    MW429516   2.185   0.455   3.241  0.3112  0.3552  0.9153
 7438SOL     OW29517   1.946   5.040   0.249 -0.6246 -0.8089 -0.5367
 7438SOL    HW229518   1.868   4.987   0.266 -0.0030 -1.6157 -0.1426
 7438SOL    HW329519   1.940   5.113   0.311  0.2125 -2.2381  1.3079
 7438SOL    MW429520   1.935   5.043   0.259 -0.4321 -1.1039 -0.2413
 7439SOL     OW29521   0.481   3.199   3.790 -0.0109  0.3585 -0.0933
 7439SOL    HW229522   0.442   3.113   3.804  1.0186 -0.3008 -1.1539
 7439SOL    HW329523   0.575   3.183   3.786  0.0970  1.2035 -2.3121
 7439SOL    MW429524   0.488   3.186   3.791  0.1392  0.3830 -0.5259
 7440SOL     OW29525   3.795   2.201   1.619  0.2213 -0.1466  0.1529
 7440SOL    HW229526   3.811   2.291   1.647 -0.8300 -0.0547  0.5281
 7440SOL    HW329527   3.701   2.198   1.601  0.3467 -1.0155 -0.4358
 7440SOL    MW429528   3.785   2.212   1.620  0.0991 -0.2491  0.1247
 7441SOL     OW29529   2.083   5.365   5.469  0.3737 -0.2985  0.0082
 7441SOL    HW229530   2.095   5.339   5.378 -0.9382 -0.5754 -0.1093
 7441SOL    HW329531   2.009   5.425   5.468 -0.3407 -1.1009  0.9960
 7441SOL    MW429532   2.075   5.369   5.457  0.1064 -0.4409  0.1230
 7442SOL     OW29533   1.043   2.901   6.365  0.0361 -0.3269  0.1914
 7442SOL    HW229534   1.102   2.954   6.312  0.4341 -2.2373 -1.3598
 7442SOL    HW329535   1.066   2.923   6.456  1.2187  0.9762 -0.3845
 7442SOL    MW429536   1.054   2.911   6.370  0.2446 -0.4071 -0.0892
 7443SOL     OW29537   1.775   4.922   6.297  0.5931  0.2967 -0.4292
 7443SOL    HW229538   1.800   5.000   6.248  0.6383 -0.6232 -1.9503
 7443SOL    HW329539   1.848   4.906   6.357  0.6469  1.3268 -0.2064
 7443SOL    MW429540   1.788   4.930   6.298  0.6061  0.3112 -0.6005
 7444SOL     OW29541   3.005   3.310   6.408  0.7857 -0.0953 -0.1416
 7444SOL    HW229542   2.981   3.243   6.344 -1.2235  0.2397  0.1980
 7444SOL    HW329543   3.039   3.382   6.355 -1.8597  0.6119 -1.0424
 7444SOL    MW429544   3.006   3.311   6.392  0.1716  0.0422 -0.2156
 7445SOL     OW29545   4.270   1.950   5.327 -0.3020 -0.0727  0.2372
 7445SOL    HW229546   4.203   2.002   5.370 -1.4654 -2.3147  1.2877
 7445SOL    HW329547   4.261   1.971   5.234 -1.4895  0.7459  0.5225
 7445SOL    MW429548   4.260   1.959   5.320 -0.6122 -0.2605  0.4134
 7446SOL     OW29549   4.440   3.569   1.735 -0.5024 -0.1233  0.5122
 7446SOL    HW229550   4.434   3.487   1.685 -0.1505  1.2490 -1.9689
 7446SOL    HW329551   4.529   3.600   1.720 -0.7603  0.9318  1.0479
 7446SOL    MW429552   4.451   3.562   1.726 -0.4900  0.1970  0.2556
 7447SOL     OW29553   5.191   2.111   5.333  0.0047 -0.3010  0.0647
 7447SOL    HW229554   5.129   2.155   5.392 -1.3618  0.4596 -1.8009
 7447SOL    HW329555   5.198   2.022   5.367 -3.1728 -0.8217 -0.2968
 7447SOL    MW429556   5.183   2.105   5.345 -0.5948 -0.2694 -0.2291
 7448SOL     OW29557   4.727   0.478   3.369 -0.2217  0.3789  0.7019
 7448SOL    HW229558   4.692   0.521   3.291 -0.8361  2.3881  2.0024
 7448SOL    HW329559   4.786   0.411   3.335 -0.2173  1.4079 -1.4993
 7448SOL    MW429560   4.730   0.475   3.354 -0.3022  0.7798  0.5830
 7449SOL     OW29561   6.329   0.574   2.103 -1.0844  0.1043  0.0372
 7449SOL    HW229562   6.290   0.502   2.153 -0.6596 -1.0204 -1.1776
 7449SOL    HW329563   6.256   0.632   2.083 -1.3513  0.2811  1.4501
 7449SOL    MW429564   6.314   0.572   2.107 -1.0635 -0.0208  0.0634
 7450SOL     OW29565   1.417   4.191   6.163  0.4145 -0.0941  0.2423
 7450SOL    HW229566   1.475   4.248   6.214  0.0872  0.4489  0.0211
 7450SOL    HW329567   1.449   4.200   6.073  0.4943 -0.4272  0.2387
 7450SOL    MW429568   1.429   4.200   6.158  0.3818 -0.0664  0.2126
 7451SOL     OW29569   5.039   1.537   4.454  0.0912  0.4718 -0.3609
 7451SOL    HW229570   5.001   1.598   4.517  1.1672  1.0322 -0.2413
 7451SOL    HW329571   5.057   1.458   4.505 -1.0352  0.1413 -0.4529
 7451SOL    MW429572   5.036   1.535   4.469  0.0846  0.5021 -0.3572
 7452SOL     OW29573   4.284   1.707   3.475  0.2922  0.1835 -0.4680
 7452SOL    HW229574   4.245   1.636   3.527  1.4302  0.3921  0.7272
 7452SOL    HW329575   4.210   1.764   3.453 -0.3185 -0.2479  0.3897
 7452SOL    MW429576   4.269   1.705   3.479  0.3617  0.1541 -0.1971
 7453SOL     OW29577   1.051   3.258   0.423 -0.1075 -0.0249  0.2591
 7453SOL    HW229578   1.125   3.202   0.399  1.1677  1.2257  1.1451
 7453SOL    HW329579   1.033   3.310   0.345  1.0631  0.8295  0.5285
 7453SOL    MW429580   1.058   3.257   0.410  0.2152  0.2529  0.4115
 7454SOL     OW29581   1.271   5.150   2.941  0.1722  0.4629 -0.5605
 7454SOL    HW229582   1.296   5.142   2.849  0.2205  1.9873 -0.7078
 7454SOL    HW329583   1.342   5.200   2.982 -0.4064  0.8351  0.0263
 7454SOL    MW429584   1.283   5.156   2.935  0.1023  0.7132 -0.5025
 7455SOL     OW29585   3.346   5.010   0.474 -0.5563  0.1965 -0.1885
 7455SOL    HW229586   3.294   4.979   0.400 -0.0641  0.0756 -0.4933
 7455SOL    HW329587   3.381   5.094   0.444 -0.7772  0.3935  0.1085
 7455SOL    MW429588   3.344   5.017   0.460 -0.5205  0.2066 -0.1895
 7456SOL     OW29589   1.902   4.104   4.610  0.0360  0.2720 -0.2812
 7456SOL    HW229590   1.958   4.035   4.575  0.8997 -0.3931  2.1525
 7456SOL    HW329591   1.943   4.186   4.582 -0.1854 -0.1700 -1.9965
 7456SOL    MW429592   1.915   4.106   4.602  0.1208  0.1259 -0.1864
 7457SOL     OW29593   5.048   4.485   4.221  0.3590 -0.4379 -0.3103
 7457SOL    HW229594   5.061   4.560   4.279  0.2981 -0.0346 -0.8161
 7457SOL    HW329595   4.981   4.514   4.159 -0.7122 -1.3971  0.3503
 7457SOL    MW429596   5.041   4.499   4.221  0.2097 -0.5112 -0.2899
 7458SOL     OW29597   0.017   5.104   6.441  0.6087  0.7530  0.0045
 7458SOL    HW229598   0.099   5.079   6.483  1.4197  1.0760 -1.3435
 7458SOL    HW329599  -0.002   5.032   6.381 -0.9738 -0.1045  1.4395
 7458SOL    MW429600   0.025   5.091   6.439  0.5069  0.6825  0.0160
 7459SOL     OW29601   3.804   5.069   5.803  0.1376  0.1283 -0.0815
 7459SOL    HW229602   3.881   5.040   5.755  0.4924 -0.4134  0.7903
 7459SOL    HW329603   3.756   5.125   5.741 -0.6018 -2.3009 -1.8649
 7459SOL    MW429604   3.808   5.073   5.789  0.0869 -0.2637 -0.2017
 7460SOL     OW29605   5.439   0.415   2.205 -0.0565  0.0528  0.6035
 7460SOL    HW229606   5.346   0.401   2.192 -0.3468  2.3330 -0.2751
 7460SOL    HW329607   5.464   0.352   2.273 -2.3182 -0.3215  1.1582
 7460SOL    MW429608   5.430   0.405   2.212 -0.3932  0.3043  0.5607
 7461SOL     OW29609   4.189   3.186   3.124  0.7310 -0.2153 -0.9398
 7461SOL    HW229610   4.179   3.143   3.209  2.0862  0.3781 -0.4452
 7461SOL    HW329611   4.188   3.115   3.061  0.5417 -0.7435 -0.3548
 7461SOL    MW429612   4.188   3.171   3.127  0.8849 -0.2067 -0.7973
 7462SOL     OW29613   3.162   3.934   3.584 -0.5163  0.2374  0.1598
 7462SOL    HW229614   3.256   3.919   3.586 -0.4203  0.6154  3.1142
 7462SOL    HW329615   3.150   4.016   3.632 -2.2691  1.0399 -1.5066
 7462SOL    MW429616   3.173   3.943   3.591 -0.7349  0.3931  0.3298
 7463SOL     OW29617   6.250   6.413   0.878  0.4399  0.0536 -0.1882
 7463SOL    HW229618   6.260   6.437   0.970  1.4793 -0.1240 -0.2445
 7463SOL    HW329619   6.162   6.443   0.855 -0.2216 -0.7684  1.1284
 7463SOL    MW429620   6.240   6.420   0.887  0.4898 -0.0783 -0.0220
 7464SOL     OW29621   3.414   4.341   3.141 -0.4304 -0.7043 -0.1672
 7464SOL    HW229622   3.397   4.374   3.053 -1.4583 -1.3453 -0.2279
 7464SOL    HW329623   3.465   4.261   3.128 -0.0631 -0.4727 -0.1489
 7464SOL    MW429624   3.418   4.335   3.128 -0.5176 -0.7583 -0.1728
 7465SOL     OW29625   5.042   4.050   0.142  0.4956  0.2116 -0.0775
 7465SOL    HW229626   5.014   3.971   0.095 -0.0534 -0.1615  0.8476
 7465SOL    HW329627   4.963   4.083   0.184  0.7555  1.1742 -0.3200
 7465SOL    MW429628   5.028   4.044   0.141  0.4575  0.2893  0.0126
 7466SOL     OW29629   0.068   5.749   2.086 -0.2296  0.0149 -0.3830
 7466SOL    HW229630   0.067   5.663   2.044  0.5128  0.9830 -2.5006
 7466SOL    HW329631  -0.019   5.784   2.071 -1.0669 -0.9380  1.8685
 7466SOL    MW429632   0.057   5.742   2.079 -0.2421  0.0169 -0.3653
 7467SOL     OW29633   3.660   5.478   2.076  0.0360 -0.0891  0.1433
 7467SOL    HW229634   3.724   5.415   2.108  0.3051  0.2433  0.2612
 7467SOL    HW329635   3.695   5.508   1.991  0.9566  1.4114  1.0023
 7467SOL    MW429636   3.673   5.474   2.069  0.1930  0.1528  0.2722
 7468SOL     OW29637   3.532   5.162   1.571  0.5597  0.0896 -0.6144
 7468SOL    HW229638   3.439   5.163   1.590  0.4822 -0.9266 -0.8765
 7468SOL    HW329639   3.574   5.151   1.656  0.3932 -0.3548 -0.5868
 7468SOL    MW429640   3.526   5.161   1.584  0.5275 -0.1031 -0.6453
 7469SOL     OW29641   5.319   6.379   6.084 -0.3123 -0.6368 -0.1897
 7469SOL    HW229642   5.415   6.382   6.086 -0.2456 -2.0473 -0.5521
 7469SOL    HW329643   5.294   6.353   6.173 -0.5556  2.5678  0.8257
 7469SOL    MW429644   5.329   6.376   6.096 -0.3356 -0.4001 -0.1035
 7470SOL     OW29645   5.824   5.440   1.267 -0.1738  0.6073 -0.3673
 7470SOL    HW229646   5.750   5.501   1.269 -2.2000 -1.7057 -0.9647
 7470SOL    HW329647   5.804   5.375   1.333 -0.1894 -1.6491 -2.4575
 7470SOL    MW429648   5.811   5.440   1.276 -0.4432  0.0044 -0.7219
 7471SOL     OW29649   1.736   6.137   1.753 -0.5062  0.5108 -0.1149
 7471SOL    HW229650   1.671   6.078   1.715  0.5109 -1.1539  0.6244
 7471SOL    HW329651   1.818   6.089   1.745  0.0984  1.1234  2.0188
 7471SOL    MW429652   1.738   6.123   1.747 -0.2923  0.3720  0.2642
 7472SOL     OW29653   0.328   3.163   2.416  0.1913  0.0101  0.0800
 7472SOL    HW229654   0.358   3.074   2.434  2.1344  0.6621  0.2920
 7472SOL    HW329655   0.327   3.207   2.501  0.5802  0.5573 -0.1873
 7472SOL    MW429656   0.332   3.157   2.429  0.4990  0.1683  0.0728
 7473SOL     OW29657   1.542   1.050   3.242  0.7178 -0.9076  0.1807
 7473SOL    HW229658   1.480   1.014   3.179  0.8394 -1.8681  0.6003
 7473SOL    HW329659   1.522   1.144   3.245  0.9927 -0.7601 -1.6048
 7473SOL    MW429660   1.531   1.058   3.234  0.7701 -1.0148  0.0005
 7474SOL     OW29661   4.222   2.689   4.684  0.5453 -0.1810  0.1816
 7474SOL    HW229662   4.130   2.669   4.669 -0.1420  2.4164  0.5629
 7474SOL    HW329663   4.256   2.715   4.598  0.2893  1.1198  0.4627
 7474SOL    MW429664   4.214   2.690   4.671  0.4209  0.3334  0.2690
 7475SOL     OW29665   0.270   4.147   1.523  0.8542  0.0197 -0.0239
 7475SOL    HW229666   0.189   4.185   1.557  1.2867  2.5437 -1.5167
 7475SOL    HW329667   0.293   4.078   1.585 -2.5781 -1.0498  0.2676
 7475SOL    MW429668   0.262   4.143   1.535  0.4584  0.2116 -0.1824
 7476SOL     OW29669   3.863   0.336   5.282  0.1600  0.3305  0.2065
 7476SOL    HW229670   3.908   0.398   5.225  0.6509 -0.4873 -0.3257
 7476SOL    HW329671   3.876   0.251   5.240 -1.3288 -0.0241  0.3948
 7476SOL    MW429672   3.871   0.333   5.269  0.0284  0.1758  0.1612
 7477SOL     OW29673   3.838   5.054   0.382  0.4820 -0.0811 -0.2892
 7477SOL    HW229674   3.865   5.113   0.311 -1.2831  4.4489  2.3819
 7477SOL    HW329675   3.906   5.064   0.448  0.1876 -1.2212  0.2139
 7477SOL    MW429676   3.851   5.063   0.381  0.2103  0.3661  0.1296
 7478SOL     OW29677   6.138   0.396   5.129 -0.0100  1.3090 -0.6509
 7478SOL    HW229678   6.124   0.303   5.111  0.0676  1.0638  0.4359
 7478SOL    HW329679   6.110   0.441   5.049 -1.8078  0.4711 -0.5540
 7478SOL    MW429680   6.132   0.390   5.116 -0.2370  1.1661 -0.4948
 7479SOL     OW29681   4.155   6.335   0.103 -0.4218 -0.1865 -0.0228
 7479SOL    HW229682   4.221   6.312   0.167  0.3389  1.1735 -0.2777
 7479SOL    HW329683   4.190   6.305   0.019 -0.4014 -0.0011 -0.0817
 7479SOL    MW429684   4.168   6.328   0.100 -0.3188  0.0174 -0.0642
 7480SOL     OW29685   4.863   6.373   2.042 -0.0692 -0.4446 -0.0453
 7480SOL    HW229686   4.882   6.378   2.136  0.0956 -1.2241 -0.0312
 7480SOL    HW329687   4.805   6.297   2.033  0.6127 -0.8984 -0.6843
 7480SOL    MW429688   4.858   6.363   2.053  0.0425 -0.6073 -0.1278
 7481SOL     OW29689   0.485   6.224   6.380  0.5603 -0.4655 -0.0132
 7481SOL    HW229690   0.484   6.274   6.298 -0.1511 -0.5140 -0.0398
 7481SOL    HW329691   0.426   6.151   6.365 -0.4758  0.1467  0.9200
 7481SOL    MW429692   0.477   6.221   6.367  0.3298 -0.3911  0.1064
 7482SOL     OW29693   5.966   5.837   0.850 -0.3087  0.3641 -0.5752
 7482SOL    HW229694   5.876   5.869   0.840 -0.0858  1.0942 -0.3267
 7482SOL    HW329695   6.008   5.858   0.766 -0.9205 -1.8940 -1.5059
 7482SOL    MW429696   5.960   5.844   0.837 -0.3600  0.1625 -0.6652
 7483SOL     OW29697   2.688   5.664   1.631 -0.2346  0.3556 -0.2383
 7483SOL    HW229698   2.734   5.733   1.584  0.0582 -0.1733 -0.7378
 7483SOL    HW329699   2.625   5.710   1.687  0.2216  1.0372 -0.2846
 7483SOL    MW429700   2.685   5.679   1.632 -0.1358  0.3757 -0.3103
 7484SOL     OW29701   1.613   5.007   4.842  0.2591 -0.1389  0.3191
 7484SOL    HW229702   1.664   4.953   4.903  0.1822  0.1547  0.6456
 7484SOL    HW329703   1.587   5.084   4.893 -1.4983 -0.8143  0.4880
 7484SOL    MW429704   1.617   5.010   4.857  0.0171 -0.1893  0.3845
 7485SOL     OW29705   1.419   3.643   4.192 -0.1689 -0.3908  0.2571
 7485SOL    HW229706   1.377   3.601   4.116  0.5162  0.3194 -0.5396
 7485SOL    HW329707   1.365   3.720   4.210  0.1827 -0.0551 -0.1017
 7485SOL    MW429708   1.407   3.647   4.184 -0.0321 -0.2528  0.1047
 7486SOL     OW29709   3.641   3.421   3.601  0.2092 -0.9432  0.3979
 7486SOL    HW229710   3.721   3.384   3.563 -0.8348 -3.9362  0.7853
 7486SOL    HW329711   3.571   3.385   3.546 -1.0399 -1.3915  2.1909
 7486SOL    MW429712   3.642   3.411   3.589 -0.0933 -1.3973  0.6856
 7487SOL     OW29713   0.039   3.073   2.491  0.2830  0.4430 -0.2990
 7487SOL    HW229714   0.132   3.090   2.475  0.4668  0.8788  1.0795
 7487SOL    HW329715   0.028   3.087   2.585 -1.1226  0.1003 -0.3889
 7487SOL    MW429716   0.050   3.077   2.501  0.1218  0.4553 -0.1290
 7488SOL     OW29717   4.846   0.128   5.601  0.0342  0.4275  0.7986
 7488SOL    HW229718   4.846   0.187   5.525 -1.2136 -0.4064  0.1056
 7488SOL    HW329719   4.893   0.176   5.669  2.4430  0.6423 -0.9021
 7488SOL    MW429720   4.852   0.142   5.600  0.1874  0.3458  0.4828
 7489SOL     OW29721   4.935   0.187   0.925 -0.8984 -0.0217  0.2000
 7489SOL    HW229722   4.960   0.242   0.999 -0.5997  1.2959 -0.8349
 7489SOL    HW329723   4.901   0.248   0.860  0.1308 -0.9573 -1.2964
 7489SOL    MW429724   4.934   0.202   0.926 -0.7232  0.0287 -0.1340
 7490SOL     OW29725   0.503   4.957   3.798 -0.7058  0.3527  0.1638
 7490SOL    HW229726   0.441   4.975   3.869 -0.8538  0.9164 -0.1067
 7490SOL    HW329727   0.465   5.000   3.721 -0.9038 -0.8320 -0.4231
 7490SOL    MW429728   0.489   4.965   3.797 -0.7515  0.2707  0.0507
 7491SOL     OW29729   3.061   6.250   1.584  0.1232 -0.0256 -0.4910
 7491SOL    HW229730   3.026   6.335   1.561 -1.0811 -0.6131 -0.8918
 7491SOL    HW329731   3.015   6.188   1.527 -0.1709 -1.1051  0.8522
 7491SOL    MW429732   3.050   6.253   1.573 -0.0745 -0.2455 -0.3667
 7492SOL     OW29733   4.332   0.143   1.116 -0.0204  0.0022  0.1522
 7492SOL    HW229734   4.350   0.070   1.057  0.4060  0.3308 -0.1293
 7492SOL    HW329735   4.237   0.150   1.118 -0.0571 -0.4353  0.0267
 7492SOL    MW429736   4.322   0.134   1.109  0.0310 -0.0122  0.0985
 7493SOL     OW29737   4.968   2.577   5.710 -0.4399 -0.7385 -0.3331
 7493SOL    HW229738   5.022   2.648   5.745 -0.6997 -0.3380 -0.7403
 7493SOL    HW329739   4.966   2.513   5.781  1.0724 -1.0515 -0.5311
 7493SOL    MW429740   4.975   2.578   5.724 -0.2746 -0.7269 -0.4129
 7494SOL     OW29741   0.134   0.131   6.129 -0.2767 -0.7483  0.0514
 7494SOL    HW229742   0.203   0.096   6.073  1.6361  1.7046  0.7036
 7494SOL    HW329743   0.077   0.180   6.069 -0.5300 -1.4440 -0.2785
 7494SOL    MW429744   0.135   0.133   6.114 -0.0577 -0.5164  0.0939
 7495SOL     OW29745   1.029   3.553   0.783 -0.4958  0.2436 -0.0874
 7495SOL    HW229746   0.967   3.482   0.802  1.6036 -1.2454  1.6367
 7495SOL    HW329747   1.090   3.516   0.720  0.5521  0.5057  0.7347
 7495SOL    MW429748   1.029   3.539   0.778 -0.0806  0.0817  0.2485
 7496SOL     OW29749   1.062   0.803   0.209  0.8393  0.7132 -0.2620
 7496SOL    HW229750   1.116   0.875   0.174  0.6992  0.6564 -0.6027
 7496SOL    HW329751   1.026   0.760   0.131 -1.6361  2.2073 -0.0626
 7496SOL    MW429752   1.064   0.807   0.194  0.4942  0.9028 -0.2806
 7497SOL     OW29753   3.045   5.646   4.783  0.0715  0.0861  0.6696
 7497SOL    HW229754   2.952   5.666   4.791  0.2276  1.4375 -0.5226
 7497SOL    HW329755   3.088   5.731   4.796  0.8838  0.3174 -2.7379
 7497SOL    MW429756   3.038   5.660   4.786  0.1993  0.2949  0.0627
 7498SOL     OW29757   2.969   0.772   2.530  0.3805  0.4332  0.3050
 7498SOL    HW229758   2.945   0.854   2.573 -0.8655  0.7018 -0.8514
 7498SOL    HW329759   2.917   0.770   2.450 -0.0182 -1.7641  0.5606
 7498SOL    MW429760   2.959   0.783   2.525  0.1635  0.1787  0.1861
 7499SOL     OW29761   5.536   3.029   2.588 -0.2933  0.2548 -0.4651
 7499SOL    HW229762   5.459   2.977   2.612 -1.5831  2.0696 -0.4218
 7499SOL    HW329763   5.549   3.087   2.663 -0.2032  1.4035 -1.3431
 7499SOL    MW429764   5.528   3.030   2.601 -0.4516  0.6458 -0.5753
 7500SOL     OW29765   1.400   5.795   0.111  0.0403 -0.4063  0.1152
 7500SOL    HW229766   1.429   5.850   0.038  1.1148 -0.5196  0.4299
 7500SOL    HW329767   1.316   5.832   0.137  1.7919  2.7651  1.9442
 7500SOL    MW429768   1.393   5.808   0.105  0.4132 -0.0028  0.3980
 7501SOL     OW29769   5.760   1.708   4.793  0.0632  0.3151 -0.2837
 7501SOL    HW229770   5.714   1.651   4.731 -0.6864  0.6280 -0.0266
 7501SOL    HW329771   5.840   1.661   4.814 -0.2686 -0.3704 -0.5291
 7501SOL    MW429772   5.764   1.695   4.788 -0.0795  0.2659 -0.2821
 7502SOL     OW29773   0.842   2.865   5.761  0.4518  0.3136  0.2428
 7502SOL    HW229774   0.835   2.796   5.695  0.0572  0.2820  0.3182
 7502SOL    HW329775   0.776   2.929   5.735 -0.6267 -0.3206  1.3638
 7502SOL    MW429776   0.832   2.864   5.749  0.2574  0.2258  0.4007
 7503SOL     OW29777   1.624   4.915   2.377 -0.1684 -0.1998 -0.2579
 7503SOL    HW229778   1.669   4.830   2.377  1.4631  0.6131  0.2567
 7503SOL    HW329779   1.564   4.910   2.451  0.3335 -0.7116  0.1238
 7503SOL    MW429780   1.622   4.903   2.387  0.1131 -0.1601 -0.1397
 7504SOL     OW29781   1.676   3.056   6.236  0.3085 -0.0178 -0.0858
 7504SOL    HW229782   1.668   3.116   6.162  0.1166 -2.1829 -1.9343
 7504SOL    HW329783   1.652   3.109   6.313 -2.9500  1.5024 -1.9160
 7504SOL    MW429784   1.671   3.071   6.237 -0.1468 -0.1029 -0.5712
 7505SOL     OW29785   0.173   5.371   2.779 -0.4551 -0.0813  0.1705
 7505SOL    HW229786   0.268   5.377   2.789 -0.5347 -0.8390  1.7400
 7505SOL    HW329787   0.144   5.462   2.769  0.1787  0.5265  2.9290
 7505SOL    MW429788   0.182   5.384   2.779 -0.3820 -0.1011  0.7415
 7506SOL     OW29789   4.329   3.199   3.767  0.2628  0.2062 -0.0728
 7506SOL    HW229790   4.406   3.147   3.743  0.0655 -1.1146  1.9606
 7506SOL    HW329791   4.347   3.286   3.731  1.8606 -0.5344 -1.1914
 7506SOL    MW429792   4.342   3.204   3.759  0.4476 -0.0658  0.0479
 7507SOL     OW29793   2.760   1.788   4.153 -0.2831  0.5994  0.2114
 7507SOL    HW229794   2.812   1.757   4.078  0.3480  1.5953  0.2154
 7507SOL    HW329795   2.825   1.808   4.220 -0.5191  2.8188 -0.1255
 7507SOL    MW429796   2.776   1.787   4.152 -0.2309  1.0236  0.1675
 7508SOL     OW29797   1.362   2.341   3.352 -0.0996 -0.2921 -0.3969
 7508SOL    HW229798   1.358   2.286   3.431  0.6299 -0.2325 -0.3114
 7508SOL    HW329799   1.437   2.307   3.303  0.3119  0.5633 -0.3840
 7508SOL    MW429800   1.371   2.329   3.356  0.0509 -0.1713 -0.3839
 7509SOL     OW29801   3.516   1.497   3.364  0.6101 -0.0039  0.4492
 7509SOL    HW229802   3.605   1.495   3.328  0.6506  0.5363  0.5075
 7509SOL    HW329803   3.499   1.590   3.380 -0.7147  0.1398 -1.4435
 7509SOL    MW429804   3.525   1.509   3.361  0.4407  0.0863  0.2072
 7510SOL     OW29805   0.606   1.842   4.065 -0.3328  0.3379 -0.2842
 7510SOL    HW229806   0.633   1.755   4.037  1.9998  0.7575  0.4059
 7510SOL    HW329807   0.668   1.901   4.022 -0.9345  1.5252  0.4292
 7510SOL    MW429808   0.618   1.839   4.056 -0.1044  0.5499 -0.0990
 7511SOL     OW29809   4.470   1.150   0.486 -0.2012  0.0541  0.3848
 7511SOL    HW229810   4.377   1.128   0.484  0.0727 -1.1757 -1.3162
 7511SOL    HW329811   4.514   1.066   0.497  0.7413  0.4696 -0.0713
 7511SOL    MW429812   4.464   1.136   0.487 -0.0407 -0.0533  0.1002
 7512SOL     OW29813   4.328   3.209   1.027  0.2938  0.2737 -0.0338
 7512SOL    HW229814   4.382   3.240   0.954 -0.6325  1.4048 -0.2694
 7512SOL    HW329815   4.283   3.131   0.992  1.3847 -0.4002  0.0150
 7512SOL    MW429816   4.329   3.203   1.012  0.3155  0.3340 -0.0584
 7513SOL     OW29817   5.323   3.101   2.364 -0.2508 -0.3909  0.0604
 7513SOL    HW229818   5.396   3.049   2.329  0.6274  1.5768 -1.2296
 7513SOL    HW329819   5.365   3.178   2.402 -1.6172  0.4166 -0.0036
 7513SOL    MW429820   5.338   3.104   2.365 -0.3152 -0.0247 -0.1182
 7514SOL     OW29821   2.806   4.519   3.546  0.2582 -0.2178 -0.6730
 7514SOL    HW229822   2.760   4.440   3.573 -2.5264  1.1142 -1.1448
 7514SOL    HW329823   2.899   4.498   3.556 -0.2720 -4.0740 -2.2769
 7514SOL    MW429824   2.812   4.506   3.551 -0.1792 -0.5508 -0.9469
 7515SOL     OW29825   2.080   5.478   3.870  0.1336 -0.5351  0.1912
 7515SOL    HW229826   2.155   5.422   3.848 -2.6200 -4.4811 -0.2450
 7515SOL    HW329827   2.038   5.497   3.786 -0.0222  0.6478  0.5175
 7515SOL    MW429828   2.084   5.473   3.856 -0.2503 -0.8997  0.1767
 7516SOL     OW29829   4.038   2.145   4.621 -0.4771 -0.6464 -0.2052
 7516SOL    HW229830   4.095   2.221   4.610 -3.4812  2.3032  2.5596
 7516SOL    HW329831   4.031   2.108   4.533 -0.0876  3.2975 -2.1057
 7516SOL    MW429832   4.045   2.150   4.608 -0.8221  0.2631 -0.0912
 7517SOL     OW29833   4.574   3.232   0.115  0.7340 -0.0375 -0.3352
 7517SOL    HW229834   4.540   3.144   0.097  0.1640  0.6551 -3.0680
 7517SOL    HW329835   4.539   3.286   0.044  4.2899  1.5591 -1.0599
 7517SOL    MW429836   4.565   3.227   0.103  1.1280  0.2645 -0.7914
 7518SOL     OW29837   5.815   4.240   6.187  0.6887 -0.4964 -0.2587
 7518SOL    HW229838   5.848   4.185   6.117  1.9035 -0.0498 -0.0612
 7518SOL    HW329839   5.744   4.190   6.226 -0.1671 -0.6453 -1.9356
 7518SOL    MW429840   5.810   4.226   6.183  0.7361 -0.4572 -0.4539
 7519SOL     OW29841   0.142   6.391   3.968 -0.3243  0.4365  0.5594
 7519SOL    HW229842   0.216   6.442   3.999  0.4591 -0.8797  0.9631
 7519SOL    HW329843   0.180   6.324   3.912 -1.2028 -0.2530  0.7495
 7519SOL    MW429844   0.157   6.389   3.965 -0.3368  0.1719  0.6378
 7520SOL     OW29845   1.682   0.613   0.516 -0.0734  0.3972 -0.3425
 7520SOL    HW229846   1.685   0.667   0.595  0.0116  0.0008 -0.0736
 7520SOL    HW329847   1.756   0.554   0.524  0.5659  1.0666 -1.2439
 7520SOL    MW429848   1.692   0.613   0.528  0.0222  0.4332 -0.4260
 7521SOL     OW29849   3.342   5.041   1.291  0.2164  0.4321 -0.1372
 7521SOL    HW229850   3.290   5.114   1.325  0.3961  1.0174 -1.0715
 7521SOL    HW329851   3.327   5.045   1.196 -0.8586 -1.5809 -0.1034
 7521SOL    MW429852   3.333   5.051   1.283  0.0982  0.2437 -0.2560
 7522SOL     OW29853   5.214   2.233   3.198 -0.2232 -0.1971 -0.5420
 7522SOL    HW229854   5.178   2.302   3.143 -2.7952 -0.0659  1.1536
 7522SOL    HW329855   5.142   2.171   3.211  1.7700 -2.9371 -1.4152
 7522SOL    MW429856   5.200   2.234   3.193 -0.2996 -0.5413 -0.4335
 7523SOL     OW29857   5.299   4.523   5.753 -0.4229  0.0570  0.1440
 7523SOL    HW229858   5.241   4.541   5.827 -0.5766  1.4053 -0.2943
 7523SOL    HW329859   5.381   4.568   5.775  0.3066 -1.3872  0.5097
 7523SOL    MW429860   5.302   4.531   5.766 -0.3469  0.0444  0.1344
 7524SOL     OW29861   2.785   5.435   3.281  0.0655  0.1497 -0.6661
 7524SOL    HW229862   2.839   5.373   3.233  0.0953 -0.0688 -0.3553
 7524SOL    HW329863   2.835   5.455   3.360 -0.6422 -0.6643  0.0067
 7524SOL    MW429864   2.798   5.429   3.285 -0.0240  0.0134 -0.5363
 7525SOL     OW29865   4.826   5.579   1.746  0.2683  0.5768 -0.1900
 7525SOL    HW229866   4.872   5.630   1.679  1.7572  1.2005  1.2174
 7525SOL    HW329867   4.758   5.532   1.698  1.4951  0.6952 -2.1852
 7525SOL    MW429868   4.823   5.580   1.731  0.6266  0.6747 -0.2676
 7526SOL     OW29869   4.799   0.999   0.248 -0.2108 -0.1963 -0.2823
 7526SOL    HW229870   4.819   0.931   0.184  0.0541  0.6432 -1.1269
 7526SOL    HW329871   4.882   1.016   0.292 -0.5960 -1.4531  1.0058
 7526SOL    MW429872   4.812   0.992   0.245 -0.2267 -0.2513 -0.2238
 7527SOL     OW29873   4.455   2.120   1.900  0.1644  0.3011 -0.3627
 7527SOL    HW229874   4.510   2.118   1.979  0.2214 -2.0413 -0.4104
 7527SOL    HW329875   4.518   2.118   1.828  0.0737  1.1935 -0.4793
 7527SOL    MW429876   4.471   2.120   1.901  0.1600  0.1098 -0.3844
 7528SOL     OW29877   0.089   6.179   4.699 -0.6510  0.1453 -0.6120
 7528SOL    HW229878   0.089   6.229   4.617  0.5434  0.5339 -0.3972
 7528SOL    HW329879   0.118   6.242   4.765 -2.2177  0.0086  0.2420
 7528SOL    MW429880   0.093   6.194   4.697 -0.7001  0.1785 -0.4710
 7529SOL     OW29881   0.107   0.233   3.487  0.3618 -0.2266  0.2560
 7529SOL    HW229882   0.127   0.326   3.502  3.6909 -0.6992 -0.3637
 7529SOL    HW329883   0.163   0.187   3.550  0.4321 -1.8237 -0.9170
 7529SOL    MW429884   0.117   0.240   3.497  0.8103 -0.4997  0.0195
 7530SOL     OW29885   4.010   2.737   5.559 -0.2825 -0.6177  0.3105
 7530SOL    HW229886   4.063   2.681   5.616 -0.2519 -0.0822  0.8213
 7530SOL    HW329887   3.957   2.789   5.620 -2.4409 -2.1023 -0.1712
 7530SOL    MW429888   4.010   2.736   5.575 -0.5632 -0.7429  0.3144
 7531SOL     OW29889   3.873   3.682   1.133 -0.1409  0.0570 -0.1090
 7531SOL    HW229890   3.895   3.738   1.207  0.2974  1.3968 -1.2155
 7531SOL    HW329891   3.846   3.743   1.064  0.8744 -1.0470 -1.5312
 7531SOL    MW429892   3.872   3.697   1.133  0.0509  0.0881 -0.4427
 7532SOL     OW29893   3.985   0.094   4.974 -0.5876  0.0001  0.1019
 7532SOL    HW229894   4.017   0.011   4.939 -1.3129  0.4687 -1.7712
 7532SOL    HW329895   3.898   0.073   5.007 -1.4305  0.2831 -1.8063
 7532SOL    MW429896   3.978   0.080   4.974 -0.7945  0.0992 -0.3970
 7533SOL     OW29897   0.764   4.781   6.245  0.0824  0.0507 -0.1535
 7533SOL    HW229898   0.694   4.829   6.288 -0.7199 -0.5400 -0.7519
 7533SOL    HW329899   0.722   4.700   6.215  1.3344 -0.9122  0.6162
 7533SOL    MW429900   0.749   4.777   6.247  0.1417 -0.1543 -0.1309
 7534SOL     OW29901   4.984   1.994   5.699 -0.1445  0.0085 -0.1733
 7534SOL    HW229902   5.031   2.029   5.774  0.8814 -1.8788  0.1214
 7534SOL    HW329903   4.951   1.909   5.728  1.2580 -1.3117 -2.1551
 7534SOL    MW429904   4.986   1.987   5.712  0.1759 -0.4147 -0.3959
 7535SOL     OW29905   5.566   1.910   4.064  0.0852 -0.3206  0.1909
 7535SOL    HW229906   5.572   1.844   4.133 -0.2989 -0.0777  0.4557
 7535SOL    HW329907   5.631   1.882   3.999  0.6078 -0.4274  0.7497
 7535SOL    MW429908   5.576   1.898   4.064  0.1034 -0.3026  0.2996
 7536SOL     OW29909   3.269   1.986   5.772  0.6488  0.5339 -0.4529
 7536SOL    HW229910   3.203   2.053   5.792 -0.0148 -0.2368  0.0086
 7536SOL    HW329911   3.220   1.904   5.774  1.6842 -0.0868  0.1520
 7536SOL    MW429912   3.254   1.984   5.775  0.6979  0.3503 -0.3122
 7537SOL     OW29913   3.955   4.090   1.775  0.2905  0.4670  0.2141
 7537SOL    HW229914   3.960   4.001   1.740  0.5080  1.2563 -1.9464
 7537SOL    HW329915   3.879   4.089   1.832  0.3590 -1.1200  0.3373
 7537SOL    MW429916   3.946   4.078   1.778  0.3283  0.3618 -0.0547
 7538SOL     OW29917   2.429   5.234   2.786  0.0264  0.0790  0.0666
 7538SOL    HW229918   2.381   5.207   2.864  2.8699  0.0446  1.9402
 7538SOL    HW329919   2.512   5.188   2.791  0.6646  0.7504 -2.5635
 7538SOL    MW429920   2.434   5.225   2.797  0.4858  0.1630 -0.0332
 7539SOL     OW29921   3.852   0.731   4.369  0.0079  0.8787  0.0422
 7539SOL    HW229922   3.898   0.771   4.442 -0.0273  2.1797 -0.6251
 7539SOL    HW329923   3.762   0.719   4.401  0.3094  0.1512  0.6631
 7539SOL    MW429924   3.846   0.735   4.383  0.0431  0.9543  0.0361
 7540SOL     OW29925   5.930   0.731   5.074  0.5055 -0.1034 -0.4274
 7540SOL    HW229926   5.895   0.643   5.087 -1.1585  0.6187  0.2841
 7540SOL    HW329927   5.951   0.762   5.163 -0.5333  0.8248 -0.4861
 7540SOL    MW429928   5.928   0.724   5.088  0.1489  0.1144 -0.3413
 7541SOL     OW29929   1.669   3.207   1.174  0.0608 -0.3844 -0.0717
 7541SOL    HW229930   1.583   3.203   1.217  0.3560 -1.9232  0.4357
 7541SOL    HW329931   1.675   3.126   1.125  1.7103 -0.8966  0.8838
 7541SOL    MW429932   1.658   3.196   1.173  0.3174 -0.6550  0.1213
 7542SOL     OW29933   2.416   0.890   1.034 -0.4106 -0.2671 -0.1075
 7542SOL    HW229934   2.441   0.945   1.108  1.3766 -1.5999  0.3445
 7542SOL    HW329935   2.498   0.873   0.988 -1.1334 -1.4106 -1.0296
 7542SOL    MW429936   2.430   0.895   1.037 -0.2701 -0.5938 -0.1695
 7543SOL     OW29937   6.173   6.411   6.174  0.0203  0.4515  0.3764
 7543SOL    HW229938   6.217   6.395   6.257 -0.0458 -0.8784  0.1889
 7543SOL    HW329939   6.120   6.489   6.189  1.4578  1.3432  0.9847
 7543SOL    MW429940   6.171   6.419   6.187  0.2012  0.3937  0.4319
 7544SOL     OW29941   4.667   1.007   5.161 -0.5935  0.0214  0.1132
 7544SOL    HW229942   4.748   0.969   5.126 -1.2241 -0.2072 -1.1780
 7544SOL    HW329943   4.646   1.079   5.101 -0.3582  1.2988  1.5264
 7544SOL    MW429944   4.675   1.011   5.148 -0.6456  0.1598  0.1293
 7545SOL     OW29945   1.487   4.205   5.891 -0.2843 -0.1851 -0.3506
 7545SOL    HW229946   1.568   4.163   5.861 -0.0691  0.5758 -0.8642
 7545SOL    HW329947   1.421   4.178   5.828 -0.8146 -2.0764  0.9295
 7545SOL    MW429948   1.489   4.196   5.879 -0.3259 -0.3342 -0.2495
 7546SOL     OW29949   5.402   3.230   1.803  0.0810  0.3312 -0.5398
 7546SOL    HW229950   5.346   3.189   1.870 -0.4319  1.1494 -0.4563
 7546SOL    HW329951   5.440   3.156   1.756  0.7394 -0.2751  0.8810
 7546SOL    MW429952   5.400   3.215   1.806  0.1002  0.3592 -0.3413
 7547SOL     OW29953   5.663   0.275   2.897  0.1696  0.6683 -0.3779
 7547SOL    HW229954   5.656   0.308   2.986  1.4769  0.8813 -0.3405
 7547SOL    HW329955   5.679   0.181   2.907 -0.8252  0.4753 -0.4331
 7547SOL    MW429956   5.664   0.267   2.910  0.2108  0.6710 -0.3802
 7548SOL     OW29957   0.796   3.024   6.321  0.4204 -0.3202 -0.0532
 7548SOL    HW229958   0.792   3.058   6.231  0.0426 -0.3290 -0.0395
 7548SOL    HW329959   0.889   3.002   6.333  0.9931  2.0654  0.4526
 7548SOL    MW429960   0.808   3.026   6.311  0.4461 -0.0067  0.0153
 7549SOL     OW29961   2.378   3.027   1.413 -0.0717 -0.0767  0.0698
 7549SOL    HW229962   2.295   3.031   1.460  0.8965 -1.2809  2.0126
 7549SOL    HW329963   2.430   3.099   1.450 -0.0433  0.3239 -0.7304
 7549SOL    MW429964   2.374   3.037   1.424  0.0598 -0.1827  0.2206
 7550SOL     OW29965   3.719   6.351   2.272 -0.2839 -0.1001  0.1176
 7550SOL    HW229966   3.657   6.307   2.213 -0.4289  0.0764  0.1394
 7550SOL    HW329967   3.752   6.281   2.328  0.2326 -0.3671 -0.4999
 7550SOL    MW429968   3.715   6.336   2.271 -0.2349 -0.1121  0.0390
 7551SOL     OW29969   0.778   3.368   3.491  0.1993  0.1506  0.0397
 7551SOL    HW229970   0.716   3.316   3.438 -0.4689  1.1819 -0.2186
 7551SOL    HW329971   0.852   3.383   3.432  0.4104 -0.5227  0.1252
 7551SOL    MW429972   0.779   3.363   3.476  0.1390  0.1978  0.0169
 7552SOL     OW29973   0.768   0.177   1.944 -0.1145  0.9965 -0.1190
 7552SOL    HW229974   0.739   0.187   1.854  0.0058  0.8334 -0.1754
 7552SOL    HW329975   0.863   0.184   1.940  0.1459 -1.6836 -0.3897
 7552SOL    MW429976   0.777   0.179   1.932 -0.0643  0.6214 -0.1622
 7553SOL     OW29977   4.545   6.051   3.530 -0.2766 -0.6601  0.3850
 7553SOL    HW229978   4.536   6.145   3.514  2.7867 -0.3404 -0.0745
 7553SOL    HW329979   4.550   6.012   3.443 -0.1835 -1.0480  0.5625
 7553SOL    MW429980   4.545   6.058   3.516  0.1398 -0.6691  0.3478
 7554SOL     OW29981   4.656   0.676   2.454  0.5968 -0.6188  0.3822
 7554SOL    HW229982   4.654   0.766   2.487 -1.3448 -0.1426 -0.9025
 7554SOL    HW329983   4.695   0.626   2.526  2.0004  1.2470  1.0261
 7554SOL    MW429984   4.661   0.681   2.468  0.5258 -0.3098  0.2977
 7555SOL     OW29985   1.884   0.652   4.190 -0.4042 -0.1816  0.2990
 7555SOL    HW229986   1.910   0.638   4.099 -1.4547  1.2923 -0.2723
 7555SOL    HW329987   1.801   0.604   4.199  1.2264 -2.9948  1.4629
 7555SOL    MW429988   1.876   0.644   4.179 -0.3277 -0.3583  0.3772
 7556SOL     OW29989   2.898   5.110   4.015  0.2138  0.7914  0.1729
 7556SOL    HW229990   2.835   5.176   3.987 -0.8037  0.0981  0.7963
 7556SOL    HW329991   2.856   5.064   4.087  0.8993 -0.5356 -0.2310
 7556SOL    MW429992   2.884   5.113   4.021  0.1700  0.5249  0.2019
 7557SOL     OW29993   4.639   3.812   3.988 -0.1216  0.0944 -0.0888
 7557SOL    HW229994   4.645   3.835   3.895  2.5021  1.1738  0.2535
 7557SOL    HW329995   4.604   3.890   4.030  0.9502  0.5132  0.0699
 7557SOL    MW429996   4.635   3.825   3.981  0.3660  0.2920 -0.0227
 7558SOL     OW29997   5.062   4.850   0.196  0.2749 -0.1912  0.2982
 7558SOL    HW229998   5.017   4.867   0.279 -0.4064  2.1927 -0.4863
 7558SOL    HW329999   5.142   4.804   0.222 -0.3619 -0.3269  2.1881
 7558SOL    MW430000   5.067   4.846   0.211  0.1010  0.1054  0.4440
 7559SOL     OW30001   0.576   0.328   1.114 -0.2592 -0.1325 -0.2369
 7559SOL    HW230002   0.547   0.258   1.172  0.3539 -0.3773 -0.2159
 7559SOL    HW330003   0.671   0.334   1.129  0.0801 -0.8488 -1.9162
 7559SOL    MW430004   0.585   0.320   1.124 -0.1335 -0.2593 -0.4557
 7560SOL     OW30005   1.652   0.631   3.641 -0.5725 -0.3247  0.6917
 7560SOL    HW230006   1.589   0.663   3.575 -1.0460 -2.0652  0.2379
 7560SOL    HW330007   1.683   0.548   3.605  0.5786 -0.4014  1.8204
 7560SOL    MW430008   1.648   0.624   3.627 -0.4831 -0.5645  0.7807
 7561SOL     OW30009   5.302   0.042   3.974  0.1587  0.4391 -0.1881
 7561SOL    HW230010   5.265  -0.041   3.943  0.3735 -0.0969  0.9450
 7561SOL    HW330011   5.226   0.093   4.001 -0.0379  0.9419 -1.6112
 7561SOL    MW430012   5.287   0.038   3.974  0.1611  0.4347 -0.2263
 7562SOL     OW30013   2.896   3.078   3.386  0.0194 -0.0797 -0.2636
 7562SOL    HW230014   2.909   3.057   3.294  1.8614 -1.1895  0.2042
 7562SOL    HW330015   2.969   3.137   3.408  0.4350 -0.9580  0.8149
 7562SOL    MW430016   2.908   3.083   3.377  0.3173 -0.3420 -0.0596
 7563SOL     OW30017   5.659   2.691   6.197 -0.4799  0.0920 -0.0833
 7563SOL    HW230018   5.689   2.656   6.280 -0.7684  0.1966  0.0668
 7563SOL    HW330019   5.737   2.694   6.142 -0.2441  0.2255  0.2548
 7563SOL    MW430020   5.673   2.687   6.200 -0.4868  0.1234 -0.0189
 7564SOL     OW30021   3.335   1.280   4.894 -0.6788  0.7145  0.0524
 7564SOL    HW230022   3.350   1.270   4.988  0.8193 -0.3352 -0.2692
 7564SOL    HW330023   3.396   1.349   4.866 -0.8284  0.7410 -0.2178
 7564SOL    MW430024   3.345   1.288   4.903 -0.5009  0.5795 -0.0257
 7565SOL     OW30025   0.043   5.079   4.318  0.1554 -0.0567 -0.5111
 7565SOL    HW230026   0.118   5.133   4.344 -0.3462  0.7660 -0.7505
 7565SOL    HW330027   0.017   5.114   4.233 -1.0370  0.2254 -0.0397
 7565SOL    MW430028   0.050   5.091   4.310 -0.0681  0.0891 -0.4805
 7566SOL     OW30029   3.568   0.694   1.939 -0.4773  0.5090  0.3139
 7566SOL    HW230030   3.543   0.779   1.977  1.6678  0.0993  2.9388
 7566SOL    HW330031   3.658   0.707   1.911 -0.6949 -0.4624 -0.8928
 7566SOL    MW430032   3.576   0.707   1.940 -0.2230  0.3268  0.5010
 7567SOL     OW30033   4.897   3.300   2.944  0.2542  0.2045 -0.4473
 7567SOL    HW230034   4.966   3.295   2.878 -0.6574  2.4711 -1.6645
 7567SOL    HW330035   4.819   3.266   2.901  0.5017 -2.3283  0.9159
 7567SOL    MW430036   4.896   3.295   2.930  0.1666  0.1694 -0.4281
 7568SOL     OW30037   6.030   1.557   4.729 -0.1939  0.4723 -0.0923
 7568SOL    HW230038   6.095   1.577   4.661 -0.5113 -2.5898 -1.4777
 7568SOL    HW330039   6.077   1.571   4.811  2.0939 -1.0456 -1.0246
 7568SOL    MW430040   6.045   1.562   4.731  0.0661 -0.1320 -0.3981
 7569SOL     OW30041   0.251   3.210   3.513  0.2182  0.0143  0.2646
 7569SOL    HW230042   0.221   3.145   3.577 -1.8869  0.7090  0.0542
 7569SOL    HW330043   0.274   3.287   3.565 -1.0274  0.4092  0.2750
 7569SOL    MW430044   0.250   3.211   3.528 -0.2239  0.1580  0.2382
 7570SOL     OW30045   2.451   4.643   5.320 -0.3107 -0.5412 -0.1765
 7570SOL    HW230046   2.378   4.651   5.382  0.7048 -1.2974  1.1484
 7570SOL    HW330047   2.498   4.725   5.329  0.8962 -1.3515  1.4970
 7570SOL    MW430048   2.447   4.655   5.329 -0.0175 -0.7479  0.2191
 7571SOL     OW30049   5.251   0.616   3.225  0.1209  0.7008  0.1294
 7571SOL    HW230050   5.239   0.548   3.292  0.1649  1.6009  1.0658
 7571SOL    HW330051   5.179   0.602   3.164 -0.0907  0.0484  0.5146
 7571SOL    MW430052   5.240   0.605   3.226  0.0988  0.7335  0.3038
 7572SOL     OW30053   5.609   2.892   1.866 -0.4653  0.3313 -0.1091
 7572SOL    HW230054   5.653   2.836   1.803  0.8000  1.8444 -0.6560
 7572SOL    HW330055   5.556   2.952   1.812  0.5689  1.5876  0.2128
 7572SOL    MW430056   5.608   2.893   1.851 -0.1619  0.6967 -0.1388
 7573SOL     OW30057   2.588   4.300   6.216  0.6401  0.1285 -0.4038
 7573SOL    HW230058   2.681   4.275   6.223  0.4788 -0.1499  0.9944
 7573SOL    HW330059   2.554   4.290   6.305 -0.9938 -0.7706 -1.0946
 7573SOL    MW430060   2.596   4.295   6.229  0.4032 -0.0269 -0.3105
 7574SOL     OW30061   0.948   5.560   0.438  0.0604 -0.0002 -0.2443
 7574SOL    HW230062   0.893   5.615   0.383 -0.9583 -1.3548 -0.6135
 7574SOL    HW330063   0.917   5.471   0.423  1.5051 -0.6761  0.5274
 7574SOL    MW430064   0.937   5.556   0.429  0.1166 -0.2681 -0.1912
 7575SOL     OW30065   2.301   3.458   1.514  0.2050  0.4928  0.4084
 7575SOL    HW230066   2.386   3.417   1.529 -0.4553 -1.9950 -1.7627
 7575SOL    HW330067   2.246   3.428   1.587  0.1239 -1.5311 -0.4022
 7575SOL    MW430068   2.305   3.448   1.525  0.1072 -0.1025  0.0150
 7576SOL     OW30069   4.031   5.498   0.308 -0.2810 -0.0608 -0.7849
 7576SOL    HW230070   3.963   5.562   0.290  0.0036 -0.4128 -3.4865
 7576SOL    HW330071   4.102   5.521   0.249  0.4615 -1.8906 -0.6742
 7576SOL    MW430072   4.031   5.510   0.298 -0.1455 -0.3486 -1.1267
 7577SOL     OW30073   5.586   2.410   2.665 -0.0276  0.2554  0.2313
 7577SOL    HW230074   5.636   2.488   2.689 -1.6337  1.6228 -0.6356
 7577SOL    HW330075   5.520   2.402   2.734 -1.2460  1.0153 -0.7889
 7577SOL    MW430076   5.584   2.420   2.677 -0.4002  0.5361 -0.0177
 7578SOL     OW30077   5.530   2.837   4.983  0.1998  0.1874  0.7797
 7578SOL    HW230078   5.540   2.924   4.944  1.5938  0.2009  1.1030
 7578SOL    HW330079   5.619   2.803   4.989 -0.1841 -0.7053  1.9126
 7578SOL    MW430080   5.543   2.844   4.979  0.3331  0.0714  0.9718
 7579SOL     OW30081   5.407   4.770   0.510 -0.2607  0.2273 -0.2733
 7579SOL    HW230082   5.382   4.839   0.572 -0.4223  0.0259 -0.1138
 7579SOL    HW330083   5.499   4.789   0.491 -0.0073 -0.1060  0.5618
 7579SOL    MW430084   5.416   4.782   0.516 -0.2486  0.1567 -0.1421
 7580SOL     OW30085   0.170   6.153   6.285  0.0907  0.7516 -0.4558
 7580SOL    HW230086   0.223   6.106   6.350 -0.2158  1.6660  0.4838
 7580SOL    HW330087   0.219   6.144   6.203  2.0208  2.0029  0.4840
 7580SOL    MW430088   0.184   6.146   6.283  0.3049  1.0373 -0.2078
 7581SOL     OW30089   0.960   2.248   4.407  0.0390  0.1744  0.6194
 7581SOL    HW230090   0.975   2.177   4.344  0.0313 -1.0531  1.9642
 7581SOL    HW330091   1.011   2.321   4.372 -0.2699 -0.3356 -1.0137
 7581SOL    MW430092   0.969   2.248   4.394 -0.0027 -0.0548  0.5814
 7582SOL     OW30093   5.758   1.041   5.102  0.3781 -0.6133 -0.0585
 7582SOL    HW230094   5.732   1.102   5.170  0.2208  0.3357 -0.9545
 7582SOL    HW330095   5.849   1.020   5.123  1.2196  1.7365 -0.9870
 7582SOL    MW430096   5.767   1.046   5.114  0.4683 -0.1781 -0.2992
 7583SOL     OW30097   4.297   5.656   3.532  0.7200 -0.2987  0.5496
 7583SOL    HW230098   4.224   5.700   3.488  1.4866 -0.2050 -0.6507
 7583SOL    HW330099   4.340   5.725   3.582  1.1258  0.0463 -0.2684
 7583SOL    MW430100   4.293   5.671   3.533  0.8747 -0.2408  0.2833
 7584SOL     OW30101   1.891   1.950   1.693 -0.0240 -0.1233  0.5286
 7584SOL    HW230102   1.956   1.996   1.747  0.9736  0.6860 -1.2783
 7584SOL    HW330103   1.939   1.876   1.656  0.5443  1.4953 -2.2943
 7584SOL    MW430104   1.906   1.946   1.695  0.1826  0.1970 -0.0822
 7585SOL     OW30105   5.136   2.114   4.205  0.2554  0.0701  0.5064
 7585SOL    HW230106   5.085   2.162   4.270  0.0311  0.7529 -0.1517
 7585SOL    HW330107   5.153   2.179   4.136  0.1875 -0.7263 -0.2747
 7585SOL    MW430108   5.132   2.129   4.205  0.2168  0.0551  0.3165
 7586SOL     OW30109   5.260   1.129   2.677  0.0003  0.3633 -0.1057
 7586SOL    HW230110   5.267   1.034   2.681  0.7909  0.4556  2.0137
 7586SOL    HW330111   5.189   1.151   2.737  0.0598  1.1202 -0.3029
 7586SOL    MW430112   5.252   1.119   2.686  0.1125  0.4753  0.1480
 7587SOL     OW30113   4.490   1.362   0.756 -0.2502 -0.5303  0.1939
 7587SOL    HW230114   4.538   1.314   0.689  0.4292  0.1700  0.1586
 7587SOL    HW330115   4.558   1.412   0.802 -0.8673 -0.0215  0.5699
 7587SOL    MW430116   4.506   1.362   0.754 -0.2420 -0.3708  0.2388
 7588SOL     OW30117   1.008   5.462   5.079 -0.5373 -0.1701  0.2049
 7588SOL    HW230118   1.040   5.519   5.150 -1.1151  0.4145  0.0010
 7588SOL    HW330119   0.980   5.522   5.011  0.8508 -0.7361 -0.9236
 7588SOL    MW430120   1.009   5.478   5.080 -0.4304 -0.1677  0.0291
 7589SOL     OW30121   1.443   4.907   2.862 -0.3280 -0.3532 -1.0351
 7589SOL    HW230122   1.477   4.833   2.913  0.7233  0.3618 -0.6634
 7589SOL    HW330123   1.353   4.918   2.893  0.4325  0.4113  1.1478
 7589SOL    MW430124   1.436   4.899   2.873 -0.0890 -0.1580 -0.6981
 7590SOL     OW30125   3.063   1.489   2.596 -0.0125 -0.5934  0.1855
 7590SOL    HW230126   3.131   1.454   2.653  0.7493  0.6842  0.1020
 7590SOL    HW330127   3.077   1.445   2.512  0.5654 -0.5274  0.2421
 7590SOL    MW430128   3.074   1.479   2.592  0.1642 -0.4161  0.1820
 7591SOL     OW30129   2.558   1.743   1.392  0.2230 -0.4626  0.0355
 7591SOL    HW230130   2.525   1.658   1.363 -1.2838  0.1912 -0.2623
 7591SOL    HW330131   2.488   1.805   1.371  0.5734  0.6055  1.7779
 7591SOL    MW430132   2.545   1.740   1.385  0.0704 -0.2354  0.2261
 7592SOL     OW30133   0.353   2.242   4.695  0.0569  0.0619 -0.4377
 7592SOL    HW230134   0.365   2.237   4.790  0.4369  0.8401 -0.4332
 7592SOL    HW330135   0.407   2.171   4.660 -1.2367 -1.1849 -0.0083
 7592SOL    MW430136   0.362   2.232   4.703 -0.0636  0.0001 -0.3805
 7593SOL     OW30137   4.625   5.677   0.234  0.0310  0.4548 -0.1488
 7593SOL    HW230138   4.564   5.624   0.284 -0.0896  1.9109  1.3547
 7593SOL    HW330139   4.664   5.617   0.172 -0.6862 -1.1935  0.9219
 7593SOL    MW430140   4.622   5.662   0.233 -0.0796  0.4295  0.1908
 7594SOL     OW30141   2.735   5.088   4.252 -0.1520 -0.1503  0.0267
 7594SOL    HW230142   2.717   5.177   4.282 -0.2908  0.0383 -0.6042
 7594SOL    HW330143   2.780   5.046   4.326  0.8549  0.7615 -0.0415
 7594SOL    MW430144   2.739   5.094   4.266 -0.0375 -0.0051 -0.0656
 7595SOL     OW30145   0.883   4.599   5.498  0.0588 -0.0880  0.2013
 7595SOL    HW230146   0.863   4.684   5.457 -1.3578 -0.9812 -1.0422
 7595SOL    HW330147   0.978   4.592   5.492  0.2589  1.5869  0.7135
 7595SOL    MW430148   0.893   4.610   5.492 -0.1017  0.0151  0.1048
 7596SOL     OW30149   3.761   6.192   4.693 -0.0617 -0.3810 -0.2501
 7596SOL    HW230150   3.786   6.201   4.601  2.7417  3.0346  0.6634
 7596SOL    HW330151   3.685   6.249   4.702  0.9136  0.9252 -0.0851
 7596SOL    MW430152   3.754   6.201   4.682  0.4369  0.2420 -0.1078
 7597SOL     OW30153   2.188   5.528   1.235 -0.1798  0.5862  0.6024
 7597SOL    HW230154   2.194   5.623   1.239  1.6589  0.6620 -1.8836
 7597SOL    HW330155   2.277   5.499   1.215 -0.9635 -1.5392 -0.0748
 7597SOL    MW430156   2.200   5.537   1.233 -0.0406  0.3158  0.1851
 7598SOL     OW30157   6.350   2.070   6.109 -0.3983  0.0198  0.3684
 7598SOL    HW230158   6.398   2.068   6.191  1.5696 -0.8897 -0.7405
 7598SOL    HW330159   6.358   2.160   6.078  0.7803 -0.1660  0.1122
 7598SOL    MW430160   6.357   2.082   6.116  0.0169 -0.1247  0.1883
 7599SOL     OW30161   3.347   1.246   5.165  0.1800  0.0092  0.4957
 7599SOL    HW230162   3.318   1.333   5.193  1.4557  0.3282  0.8761
 7599SOL    HW330163   3.437   1.239   5.196  1.3757 -0.0285 -2.6125
 7599SOL    MW430164   3.355   1.256   5.173  0.5060  0.0463  0.1358
 7600SOL     OW30165   3.935   2.363   0.932 -0.5168 -0.0514 -0.5180
 7600SOL    HW230166   4.028   2.373   0.956 -0.9252  5.8320  0.0999
 7600SOL    HW330167   3.936   2.362   0.836  0.2010  0.7281 -0.5339
 7600SOL    MW430168   3.948   2.365   0.923 -0.4760  0.8277 -0.4386
 7601SOL     OW30169   4.410   5.390   3.222  0.7905 -0.0789  0.1289
 7601SOL    HW230170   4.335   5.448   3.220 -0.0312 -1.0132  1.7084
 7601SOL    HW330171   4.373   5.302   3.224  1.9428 -0.5896 -0.0554
 7601SOL    MW430172   4.395   5.386   3.222  0.8341 -0.2696  0.3130
 7602SOL     OW30173   2.726   4.012   3.221 -0.4451  0.2504 -0.1563
 7602SOL    HW230174   2.635   3.984   3.207 -0.4281 -0.2671  0.7373
 7602SOL    HW330175   2.719   4.084   3.284 -0.3725  1.4170 -1.4268
 7602SOL    MW430176   2.713   4.018   3.228 -0.4333  0.3361 -0.2061
 7603SOL     OW30177   4.169   2.616   3.330 -0.0906 -0.2029  0.0746
 7603SOL    HW230178   4.124   2.533   3.324 -0.6390  0.0658  0.3719
 7603SOL    HW330179   4.100   2.682   3.331  0.3373  0.2665 -0.2714
 7603SOL    MW430180   4.154   2.614   3.330 -0.1065 -0.1055  0.0682
 7604SOL     OW30181   4.893   4.968   2.989  0.8953 -0.2698 -0.0626
 7604SOL    HW230182   4.909   5.045   2.934  2.9638 -0.0300  0.7877
 7604SOL    HW330183   4.903   4.894   2.929  1.5598  0.0402 -0.3476
 7604SOL    MW430184   4.896   4.968   2.974  1.2559 -0.1973  0.0120
 7605SOL     OW30185   3.313   5.508   4.342  0.1606  0.7580 -0.4233
 7605SOL    HW230186   3.342   5.544   4.425  2.1169 -0.4338 -0.5342
 7605SOL    HW330187   3.353   5.565   4.276  0.3936  0.4395 -0.5608
 7605SOL    MW430188   3.322   5.520   4.344  0.4495  0.5588 -0.4561
 7606SOL     OW30189   4.657   1.822   1.058  0.1039  0.6145 -0.1466
 7606SOL    HW230190   4.605   1.884   1.006 -0.4983  0.2602  0.0241
 7606SOL    HW330191   4.650   1.854   1.148 -0.8960 -0.1629  0.0609
 7606SOL    MW430192   4.649   1.835   1.063 -0.1075  0.4652 -0.0967
 7607SOL     OW30193   4.368   3.628   5.304 -0.2513 -0.1094  0.5976
 7607SOL    HW230194   4.289   3.600   5.259  0.7162 -1.9470 -0.0709
 7607SOL    HW330195   4.424   3.662   5.234  0.9742 -2.3015  0.4276
 7607SOL    MW430196   4.365   3.629   5.288  0.0380 -0.6411  0.4870
 7608SOL     OW30197   0.483   4.921   6.028  0.3533 -0.2807  0.4792
 7608SOL    HW230198   0.537   4.844   6.013  0.4852 -0.0644 -0.2226
 7608SOL    HW330199   0.428   4.928   5.950  0.0884  0.1318  0.6930
 7608SOL    MW430200   0.483   4.912   6.016  0.3358 -0.1978  0.4148
 7609SOL     OW30201   4.328   2.814   4.428  0.3044  0.0419  0.7068
 7609SOL    HW230202   4.387   2.752   4.385  1.4837  2.4355 -1.3796
 7609SOL    HW330203   4.385   2.868   4.482 -0.2018  1.2573  0.0616
 7609SOL    MW430204   4.343   2.813   4.429  0.3932  0.5181  0.3464
 7610SOL     OW30205   5.561   4.714   4.484 -0.0023  0.3120 -0.0460
 7610SOL    HW230206   5.596   4.633   4.521  0.2877  0.6073  0.3240
 7610SOL    HW330207   5.531   4.688   4.396 -1.4394 -0.5700  0.6680
 7610SOL    MW430208   5.562   4.700   4.477 -0.1536  0.2346  0.0970
 7611SOL     OW30209   1.852   5.047   2.166  0.5569  0.9637  0.4094
 7611SOL    HW230210   1.923   5.037   2.103  1.8449  0.2653  1.9171
 7611SOL    HW330211   1.828   4.958   2.191  1.2446  1.2173  2.1313
 7611SOL    MW430212   1.858   5.034   2.161  0.8176  0.9051  0.8355
 7612SOL     OW30213   5.763   2.651   0.465 -0.4005 -0.5312 -0.2415
 7612SOL    HW230214   5.729   2.704   0.393  0.1640  1.7272  1.0684
 7612SOL    HW330215   5.854   2.634   0.441  0.5965  2.4072  0.9551
 7612SOL    MW430216   5.771   2.656   0.452 -0.1945  0.1545  0.0892
 7613SOL     OW30217   0.908   4.156   1.900 -0.6623 -0.4429 -0.1392
 7613SOL    HW230218   0.853   4.219   1.948 -0.0546 -1.0708  1.4554
 7613SOL    HW330219   0.899   4.075   1.949  3.0234 -0.1519  1.2921
 7613SOL    MW430220   0.899   4.154   1.913 -0.0958 -0.4874  0.2600
 7614SOL     OW30221   2.674   3.983   4.767  0.0875  0.2890  0.3580
 7614SOL    HW230222   2.604   4.033   4.725  1.0767  0.5649 -1.0771
 7614SOL    HW330223   2.637   3.897   4.784 -0.1033 -0.1767 -2.0688
 7614SOL    MW430224   2.660   3.979   4.763  0.1928  0.2640 -0.1515
 7615SOL     OW30225   3.803   1.165   2.321 -0.9092 -0.2057  0.3876
 7615SOL    HW230226   3.883   1.113   2.311 -1.4973 -1.1960  0.6688
 7615SOL    HW330227   3.832   1.255   2.319  0.3623 -0.5541  1.5359
 7615SOL    MW430228   3.817   1.170   2.320 -0.8190 -0.3823  0.5762
 7616SOL     OW30229   4.638   2.960   1.780  0.3044 -0.0497 -0.0382
 7616SOL    HW230230   4.548   2.952   1.813  1.1572  0.2021  2.5341
 7616SOL    HW330231   4.664   2.870   1.761 -0.5783 -0.0950 -1.1208
 7616SOL    MW430232   4.629   2.947   1.782  0.3005 -0.0224  0.1583
 7617SOL     OW30233   2.520   2.856   6.144 -0.7139 -0.6013  0.0303
 7617SOL    HW230234   2.582   2.924   6.169 -1.7827 -0.1909  1.6662
 7617SOL    HW330235   2.439   2.903   6.122 -1.1267 -1.2701  0.0748
 7617SOL    MW430236   2.517   2.871   6.144 -0.9094 -0.6354  0.2520
 7618SOL     OW30237   0.404   1.828   3.218  0.1295 -0.2114  0.2405
 7618SOL    HW230238   0.353   1.874   3.285 -0.1320 -1.2907  0.8084
 7618SOL    HW330239   0.362   1.743   3.210  0.5871 -0.3549 -0.8107
 7618SOL    MW430240   0.392   1.823   3.226  0.1554 -0.3727  0.1767
 7619SOL     OW30241   1.089   4.486   5.318 -0.1380  0.3080 -0.1157
 7619SOL    HW230242   1.166   4.493   5.375 -0.3905  1.7973  0.0762
 7619SOL    HW330243   1.081   4.572   5.277 -2.3965  0.6142  0.7897
 7619SOL    MW430244   1.098   4.498   5.320 -0.4693  0.5449  0.0291
 7620SOL     OW30245   2.785   0.079   1.788 -0.3497  0.8376  0.4468
 7620SOL    HW230246   2.841   0.023   1.842  0.2663  0.9766 -0.0363
 7620SOL    HW330247   2.706   0.027   1.772  0.6945 -0.3791 -0.9827
 7620SOL    MW430248   2.782   0.065   1.793 -0.1306  0.6954  0.1944
 7621SOL     OW30249   1.226   0.218   3.111  0.8669 -0.0027 -0.1942
 7621SOL    HW230250   1.200   0.243   3.022  1.5985 -0.6814 -0.6097
 7621SOL    HW330251   1.192   0.289   3.166  0.4268  0.4428 -1.0119
 7621SOL    MW430252   1.218   0.231   3.106  0.9054 -0.0335 -0.3569
 7622SOL     OW30253   0.956   6.075   5.619  0.4447  0.1599  0.4264
 7622SOL    HW230254   0.965   6.005   5.683  1.0431  0.7399  0.9911
 7622SOL    HW330255   0.966   6.032   5.534 -1.5954 -0.8251  0.6268
 7622SOL    MW430256   0.958   6.060   5.616  0.2545  0.1065  0.5273
 7623SOL     OW30257   3.822   6.012   0.468 -0.0487  0.1445  0.0818
 7623SOL    HW230258   3.772   5.964   0.402 -1.1769  1.0641  0.2373
 7623SOL    HW330259   3.867   6.080   0.418 -0.1472  0.2462  0.1308
 7623SOL    MW430260   3.821   6.015   0.453 -0.2105  0.2792  0.1088
 7624SOL     OW30261   1.961   4.248   3.536 -0.4896 -0.1837 -0.1386
 7624SOL    HW230262   2.052   4.248   3.510 -0.7389 -1.0268 -1.0573
 7624SOL    HW330263   1.949   4.331   3.583  0.6740  0.0383 -0.2181
 7624SOL    MW430264   1.971   4.259   3.539 -0.3690 -0.2657 -0.2703
 7625SOL     OW30265   0.984   5.886   0.013 -0.4443 -0.5662  0.1406
 7625SOL    HW230266   0.953   5.855   0.098 -0.6752 -0.7598 -0.0132
 7625SOL    HW330267   1.063   5.835  -0.004  0.9900  1.1516  1.3434
 7625SOL    MW430268   0.990   5.875   0.022 -0.2856 -0.3651  0.2790
 7626SOL     OW30269   0.871   2.960   3.342  0.2016 -0.1142  0.1414
 7626SOL    HW230270   0.867   3.030   3.276  0.8883 -0.5144 -0.3299
 7626SOL    HW330271   0.905   2.884   3.294  2.6547  0.1136  1.3939
 7626SOL    MW430272   0.875   2.959   3.327  0.6159 -0.1369  0.2445
 7627SOL     OW30273   1.181   3.913   0.663 -0.4844  0.3819  1.0122
 7627SOL    HW230274   1.089   3.893   0.679 -1.5752  0.6529 -3.5708
 7627SOL    HW330275   1.221   3.828   0.646 -1.0518  0.5035 -1.3141
 7627SOL    MW430276   1.174   3.900   0.663 -0.7032  0.4337  0.1006
 7628SOL     OW30277   1.920   2.769   5.695 -0.3224 -0.3159 -0.1508
 7628SOL    HW230278   1.917   2.843   5.634  0.1353 -0.1605  0.0102
 7628SOL    HW330279   1.913   2.809   5.781  2.0513 -0.2425  0.0572
 7628SOL    MW430280   1.919   2.784   5.698  0.0512 -0.2857 -0.1021
 7629SOL     OW30281   3.861   4.773   3.414 -0.0611  0.1536  0.8073
 7629SOL    HW230282   3.832   4.835   3.347 -0.0893 -0.8294 -0.1132
 7629SOL    HW330283   3.781   4.746   3.459 -0.4231 -1.2639 -0.6079
 7629SOL    MW430284   3.847   4.777   3.411 -0.1126 -0.1631  0.4992
 7630SOL     OW30285   6.319   2.388   4.806  0.0184  0.0524 -0.3612
 7630SOL    HW230286   6.261   2.312   4.814  1.3480 -0.8847  1.2756
 7630SOL    HW330287   6.271   2.450   4.752 -2.1841 -0.9553  0.3165
 7630SOL    MW430288   6.305   2.386   4.800 -0.0968 -0.2042 -0.0558
 7631SOL     OW30289   1.774   4.301   0.592 -0.2262  0.0766  0.2837
 7631SOL    HW230290   1.695   4.342   0.627 -1.1727  1.4954 -3.0632
 7631SOL    HW330291   1.745   4.260   0.510  2.3330 -0.0073 -0.6800
 7631SOL    MW430292   1.760   4.301   0.586 -0.0134  0.2527 -0.2851
 7632SOL     OW30293   6.271   0.535   0.019 -0.2692 -0.1349 -0.0804
 7632SOL    HW230294   6.290   0.574   0.104  1.7224 -2.6177  0.7250
 7632SOL    HW330295   6.189   0.577  -0.009 -0.5582  1.3380  2.6501
 7632SOL    MW430296   6.263   0.545   0.026 -0.0446 -0.2682  0.3861
 7633SOL     OW30297   5.879   4.055   1.196  0.4857 -0.2013  0.2780
 7633SOL    HW230298   5.909   4.037   1.286 -0.1544 -1.6159  0.2290
 7633SOL    HW330299   5.916   3.984   1.144 -0.5968 -0.3794 -0.2699
 7633SOL    MW430300   5.888   4.043   1.201  0.2584 -0.4114  0.1992
 7634SOL     OW30301   3.397   3.759   0.468 -0.3014 -0.3579  0.1855
 7634SOL    HW230302   3.415   3.820   0.539 -1.0167  1.9046 -1.4697
 7634SOL    HW330303   3.420   3.807   0.388 -1.5064 -2.0185 -1.2427
 7634SOL    MW430304   3.403   3.773   0.467 -0.5547 -0.2785 -0.2213
 7635SOL     OW30305   3.642   2.054   1.223  0.1478 -0.4368 -0.2568
 7635SOL    HW230306   3.663   2.120   1.157 -0.4219  1.2170  1.1240
 7635SOL    HW330307   3.553   2.026   1.202  0.0376 -0.0563 -0.3023
 7635SOL    MW430308   3.633   2.059   1.212  0.0581 -0.1684 -0.0806
 7636SOL     OW30309   2.234   1.357   6.238 -0.0718  0.4221  0.2229
 7636SOL    HW230310   2.238   1.391   6.327 -0.2894 -0.7616  0.7127
 7636SOL    HW330311   2.148   1.316   6.231  0.8964 -1.8480  0.4223
 7636SOL    MW430312   2.223   1.356   6.249  0.0273 -0.0336  0.3138
 7637SOL     OW30313   0.191   3.679   5.508  0.1314  0.0817 -0.5849
 7637SOL    HW230314   0.205   3.768   5.475 -3.5778  0.2430 -2.2648
 7637SOL    HW330315   0.128   3.689   5.579  0.1665 -1.1771 -0.3553
 7637SOL    MW430316   0.185   3.692   5.513 -0.3533 -0.0631 -0.7763
 7638SOL     OW30317   5.500   3.913   1.828  0.5075  0.3470 -0.0334
 7638SOL    HW230318   5.498   3.911   1.923  0.4736 -1.0940 -0.0529
 7638SOL    HW330319   5.412   3.942   1.803  0.2642 -0.0462  0.3599
 7638SOL    MW430320   5.488   3.917   1.837  0.4710  0.1050  0.0159
 7639SOL     OW30321   5.334   3.071   0.501  0.6994 -0.1381  0.0593
 7639SOL    HW230322   5.356   2.993   0.551 -1.1344 -0.8387 -0.1492
 7639SOL    HW330323   5.406   3.080   0.437  0.1069 -2.7065 -1.0855
 7639SOL    MW430324   5.347   3.062   0.499  0.3793 -0.5694 -0.1192
 7640SOL     OW30325   2.180   1.562   1.200 -0.0447 -0.4442 -0.4068
 7640SOL    HW230326   2.091   1.526   1.203 -0.0858 -0.5034 -1.6216
 7640SOL    HW330327   2.178   1.621   1.125  1.5766 -2.2639 -1.9963
 7640SOL    MW430328   2.168   1.565   1.190  0.1638 -0.6921 -0.7768
 7641SOL     OW30329   4.079   6.065   1.691 -0.7358  0.3920  1.1013
 7641SOL    HW230330   4.069   5.998   1.758 -0.6057 -0.8009 -0.0341
 7641SOL    HW330331   3.990   6.096   1.676 -1.1640 -1.2459 -0.0367
 7641SOL    MW430332   4.066   6.060   1.698 -0.7751  0.0185  0.8013
 7642SOL     OW30333   1.190   1.017   0.080 -0.2618  0.2573 -0.3279
 7642SOL    HW230334   1.109   1.066   0.073 -1.5471 -1.2130  2.5114
 7642SOL    HW330335   1.245   1.069   0.139  0.2217  0.4612 -0.9479
 7642SOL    MW430336   1.187   1.030   0.087 -0.3676  0.0902 -0.0351
 7643SOL     OW30337   2.958   0.105   1.586 -0.4763  0.4493 -0.2719
 7643SOL    HW230338   2.917   0.065   1.509  1.3975 -0.9084 -0.6191
 7643SOL    HW330339   2.900   0.081   1.658  0.4256 -2.9069 -0.4907
 7643SOL    MW430340   2.945   0.096   1.585 -0.1101 -0.1726 -0.3466
 7644SOL     OW30341   4.254   0.754   3.139  0.0484  0.4385  0.1013
 7644SOL    HW230342   4.158   0.759   3.138  0.0735  0.9665 -0.3856
 7644SOL    HW330343   4.273   0.678   3.194 -0.6275  0.8933  1.0020
 7644SOL    MW430344   4.244   0.745   3.146 -0.0375  0.5682  0.1559
 7645SOL     OW30345   1.216   4.095   5.045  0.5624 -0.0987 -0.2721
 7645SOL    HW230346   1.299   4.081   5.091 -0.7294 -0.4156  2.1276
 7645SOL    HW330347   1.178   4.007   5.038 -0.0076  0.1657 -0.5162
 7645SOL    MW430348   1.222   4.081   5.050  0.3167 -0.1056  0.0123
 7646SOL     OW30349   2.262   5.910   4.210  0.2766  0.3598 -0.3755
 7646SOL    HW230350   2.291   5.905   4.301 -1.7073 -0.2541  0.2817
 7646SOL    HW330351   2.277   5.823   4.174 -1.6056 -0.3120  0.3076
 7646SOL    MW430352   2.268   5.898   4.217 -0.2335  0.1902 -0.1986
 7647SOL     OW30353   4.810   6.275   4.775 -0.2037  0.6675  0.3173
 7647SOL    HW230354   4.808   6.253   4.869  1.3373  1.3063  0.5283
 7647SOL    HW330355   4.849   6.362   4.772  1.1610  0.0438 -1.0021
 7647SOL    MW430356   4.815   6.283   4.787  0.1797  0.6695  0.1711
 7648SOL     OW30357   2.017   2.050   6.126  0.1457 -0.0521  0.4990
 7648SOL    HW230358   2.103   2.036   6.086 -1.1625  1.0496 -3.0483
 7648SOL    HW330359   2.023   2.136   6.167  0.6152  0.2003 -0.0880
 7648SOL    MW430360   2.029   2.059   6.126  0.0351  0.1265 -0.0465
 7649SOL     OW30361   1.151   0.194   5.884  0.0621  0.0020  0.2409
 7649SOL    HW230362   1.215   0.126   5.862 -0.3310  0.1310 -1.4260
 7649SOL    HW330363   1.067   0.147   5.890  0.0409  0.0956  0.7312
 7649SOL    MW430364   1.148   0.179   5.882  0.0074  0.0314  0.0857
 7650SOL     OW30365   3.524   2.546   5.267  0.0205  0.0706 -0.0574
 7650SOL    HW230366   3.617   2.542   5.291 -0.2984 -0.0604  1.2630
 7650SOL    HW330367   3.486   2.605   5.333 -0.7106  0.7000 -1.0206
 7650SOL    MW430368   3.531   2.553   5.279 -0.1180  0.1363 -0.0103
 7651SOL     OW30369   1.105   5.017   0.844 -0.5287  0.4177 -0.1350
 7651SOL    HW230370   1.157   4.938   0.832 -0.9634  0.3500 -1.8384
 7651SOL    HW330371   1.061   5.005   0.928  0.5555 -0.4535  0.3405
 7651SOL    MW430372   1.106   5.005   0.854 -0.4430  0.2938 -0.2970
 7652SOL     OW30373   0.649   3.797   2.949  0.2805  0.1061  0.0056
 7652SOL    HW230374   0.676   3.730   3.011 -0.5971  0.7097  1.0853
 7652SOL    HW330375   0.682   3.879   2.987 -2.5850  0.8516  1.2456
 7652SOL    MW430376   0.657   3.799   2.962 -0.2133  0.2841  0.3117
 7653SOL     OW30377   3.101   2.941   4.656  0.1423 -0.5270 -0.0371
 7653SOL    HW230378   3.082   2.876   4.724 -0.9868 -0.0975  0.0895
 7653SOL    HW330379   3.088   3.025   4.699  0.0046 -0.2425 -0.6179
 7653SOL    MW430380   3.097   2.943   4.671 -0.0249 -0.4328 -0.0970
 7654SOL     OW30381   2.623   2.098   2.940 -0.2664  0.1533 -0.2617
 7654SOL    HW230382   2.558   2.167   2.957 -1.1726 -0.6894 -0.2406
 7654SOL    HW330383   2.687   2.108   3.009  0.6531  2.1848 -1.3149
 7654SOL    MW430384   2.623   2.109   2.951 -0.2647  0.3101 -0.3978
 7655SOL     OW30385   2.263   3.428   1.928  0.7023 -0.3262  0.2159
 7655SOL    HW230386   2.267   3.457   2.019  0.4186  0.0687  0.1085
 7655SOL    HW330387   2.172   3.441   1.903  0.9600  0.4188 -0.3873
 7655SOL    MW430388   2.252   3.434   1.937  0.6989 -0.1758  0.1222
 7656SOL     OW30389   2.994   5.196   4.760  0.2038 -0.0961  0.2094
 7656SOL    HW230390   3.081   5.230   4.742 -0.5440  0.7266 -2.1650
 7656SOL    HW330391   2.955   5.259   4.820  0.6167  0.5269 -0.1717
 7656SOL    MW430392   3.000   5.209   4.766  0.1596  0.0947 -0.1542
 7657SOL     OW30393   3.871   4.527   0.747 -0.4437  0.0807 -0.2738
 7657SOL    HW230394   3.889   4.520   0.654  0.1162 -1.4734 -0.0725
 7657SOL    HW330395   3.956   4.523   0.789 -0.6888  0.7885  0.3131
 7657SOL    MW430396   3.884   4.526   0.741 -0.4021 -0.0310 -0.1698
 7658SOL     OW30397   0.324   4.699   3.517  0.1882  0.9483 -0.1169
 7658SOL    HW230398   0.375   4.691   3.437  0.3150 -1.2213  0.1051
 7658SOL    HW330399   0.389   4.701   3.587  0.0526 -0.9859  0.1142
 7658SOL    MW430400   0.339   4.698   3.516  0.1870  0.4069 -0.0571
 7659SOL     OW30401   2.875   1.416   3.623 -0.2312  0.1351  0.4537
 7659SOL    HW230402   2.922   1.414   3.707 -0.0667 -2.5535  0.3906
 7659SOL    HW330403   2.792   1.460   3.643  0.6440  1.3462  1.5289
 7659SOL    MW430404   2.870   1.421   3.637 -0.0941 -0.0598  0.5872
 7660SOL     OW30405   4.447   2.747   5.993 -0.0673 -0.6806  0.0449
 7660SOL    HW230406   4.492   2.687   6.053  0.9657  0.8868  0.9197
 7660SOL    HW330407   4.376   2.784   6.045 -1.7682 -2.3009 -0.9971
 7660SOL    MW430408   4.444   2.744   6.008 -0.1554 -0.6876  0.0229
 7661SOL     OW30409   3.667   3.029   5.533 -0.0595 -0.4604 -0.0301
 7661SOL    HW230410   3.572   3.027   5.541 -0.0027  0.3498  1.0490
 7661SOL    HW330411   3.688   2.957   5.474 -1.5031  0.6239 -2.0117
 7661SOL    MW430412   3.657   3.020   5.526 -0.2424 -0.2104 -0.1491
 7662SOL     OW30413   6.291   0.746   6.118  0.3405  0.1872  0.3588
 7662SOL    HW230414   6.349   0.681   6.159  2.8423  1.6084 -0.6892
 7662SOL    HW330415   6.336   0.829   6.132 -0.6637  1.1766 -1.8897
 7662SOL    MW430416   6.305   0.748   6.125  0.5381  0.5053 -0.0761
 7663SOL     OW30417   5.030   3.249   3.446  0.1638 -0.3835 -0.2524
 7663SOL    HW230418   5.023   3.338   3.411 -1.0901 -0.0561  0.7620
 7663SOL    HW330419   5.067   3.260   3.533 -0.7354 -0.7480  0.1959
 7663SOL    MW430420   5.034   3.262   3.453 -0.1203 -0.3884 -0.0594
 7664SOL     OW30421   2.403   4.115   6.121  0.2948 -0.2183  0.2962
 7664SOL    HW230422   2.332   4.156   6.171 -0.1101 -1.3132  0.6542
 7664SOL    HW330423   2.480   4.169   6.140 -0.0903  0.0249  1.2257
 7664SOL    MW430424   2.404   4.128   6.130  0.1906 -0.3307  0.4660
 7665SOL     OW30425   3.491   5.139   2.799 -0.3040  0.0845  0.0584
 7665SOL    HW230426   3.531   5.088   2.730 -0.6392  0.0829 -0.1378
 7665SOL    HW330427   3.536   5.112   2.879 -1.9224 -2.1232  0.2951
 7665SOL    MW430428   3.502   5.129   2.801 -0.5618 -0.2070  0.0638
 7666SOL     OW30429   1.679   4.792   6.074  0.5524 -0.0805  0.6481
 7666SOL    HW230430   1.710   4.828   6.157  0.5536  1.8107 -0.1327
 7666SOL    HW330431   1.731   4.836   6.007  0.3832 -1.3921 -0.3917
 7666SOL    MW430432   1.690   4.802   6.076  0.5302 -0.0040  0.4079
 7667SOL     OW30433   1.801   2.045   5.912 -0.6118 -0.5537 -0.1109
 7667SOL    HW230434   1.888   2.075   5.940 -0.0195 -0.1885 -2.2204
 7667SOL    HW330435   1.816   1.958   5.874 -1.2101 -0.5839 -0.2946
 7667SOL    MW430436   1.814   2.037   5.911 -0.6126 -0.5095 -0.4134
 7668SOL     OW30437   1.130   2.481   4.379  0.3725 -0.1106 -0.1269
 7668SOL    HW230438   1.138   2.504   4.286 -0.8346  0.1408 -0.1945
 7668SOL    HW330439   1.055   2.533   4.409 -0.0599 -1.1603  0.6527
 7668SOL    MW430440   1.121   2.491   4.370  0.1562 -0.2159 -0.0330
 7669SOL     OW30441   3.473   3.850   4.386  0.4168 -0.1712  0.1694
 7669SOL    HW230442   3.431   3.926   4.347  0.6728 -0.6777 -1.1259
 7669SOL    HW330443   3.505   3.799   4.312  1.0310 -1.0993  1.0459
 7669SOL    MW430444   3.472   3.853   4.371  0.5316 -0.3605  0.1142
 7670SOL     OW30445   1.798   3.893   2.379  0.1278 -0.0286  0.0121
 7670SOL    HW230446   1.704   3.877   2.373 -0.0097  0.7346  0.0623
 7670SOL    HW330447   1.830   3.879   2.289  0.1588 -1.3708  0.2086
 7670SOL    MW430448   1.790   3.889   2.366  0.1137 -0.1050  0.0446
 7671SOL     OW30449   6.114   2.419   1.248  0.4731 -0.3187  0.6489
 7671SOL    HW230450   6.121   2.361   1.172  2.8682 -1.3919  1.5817
 7671SOL    HW330451   6.139   2.505   1.216 -0.8711 -0.2502 -0.2636
 7671SOL    MW430452   6.118   2.422   1.234  0.6117 -0.4513  0.6516
 7672SOL     OW30453   2.099   2.890   4.331  0.1030  0.0546 -0.1273
 7672SOL    HW230454   2.162   2.917   4.397 -0.8635 -0.3168  0.9803
 7672SOL    HW330455   2.030   2.956   4.334  0.4163  0.4826 -1.3616
 7672SOL    MW430456   2.098   2.902   4.340  0.0168  0.0620 -0.1440
 7673SOL     OW30457   4.542   4.695   5.160  0.4439 -0.2509  0.1547
 7673SOL    HW230458   4.525   4.604   5.183 -1.8095 -0.1087 -0.7682
 7673SOL    HW330459   4.594   4.690   5.080 -1.0413 -0.7508 -0.7974
 7673SOL    MW430460   4.547   4.683   5.153 -0.0494 -0.2981 -0.0927
 7674SOL     OW30461   6.408   4.584   3.183  0.6648 -0.3179 -0.3475
 7674SOL    HW230462   6.356   4.591   3.263 -1.0403 -3.4458 -1.0055
 7674SOL    HW330463   6.480   4.525   3.207 -0.5128 -2.2298 -1.3212
 7674SOL    MW430464   6.411   4.577   3.197  0.2845 -0.9828 -0.5627
 7675SOL     OW30465   5.295   5.605   0.905 -0.2642 -0.1301 -0.6944
 7675SOL    HW230466   5.341   5.554   0.838  0.6145 -0.4144  0.0975
 7675SOL    HW330467   5.326   5.694   0.892 -0.5745 -0.0686 -1.0503
 7675SOL    MW430468   5.305   5.610   0.894 -0.1892 -0.1595 -0.6369
 7676SOL     OW30469   4.099   4.112   4.658 -0.3228  0.6735 -0.3058
 7676SOL    HW230470   4.168   4.138   4.597 -0.3311  3.0080  0.5677
 7676SOL    HW330471   4.140   4.116   4.744 -1.0213  0.0589  0.0716
 7676SOL    MW430472   4.114   4.116   4.662 -0.4161  0.9004 -0.1407
 7677SOL     OW30473   1.143   3.857   5.945  0.0757 -0.2028 -0.4325
 7677SOL    HW230474   1.185   3.779   5.908  0.2774 -0.6437  0.6966
 7677SOL    HW330475   1.111   3.905   5.869  1.6276 -0.4202 -1.2555
 7677SOL    MW430476   1.144   3.853   5.930  0.3071 -0.2896 -0.3921
 7678SOL     OW30477   0.560   6.402   5.698  0.4997  0.7601 -0.2316
 7678SOL    HW230478   0.559   6.333   5.765 -0.6667  1.7006  0.7771
 7678SOL    HW330479   0.504   6.369   5.629  0.9324  0.1870 -0.3199
 7678SOL    MW430480   0.553   6.389   5.698  0.4029  0.8086 -0.1102
 7679SOL     OW30481   0.403   4.946   1.831  0.0764  0.2783  0.0353
 7679SOL    HW230482   0.495   4.974   1.839 -0.2755  1.0594  1.7657
 7679SOL    HW330483   0.379   4.919   1.919 -1.2958 -0.2087 -0.4686
 7679SOL    MW430484   0.412   4.946   1.843 -0.1511  0.3171  0.1971
 7680SOL     OW30485   4.807   0.654   1.227  0.3829  0.9302  0.7301
 7680SOL    HW230486   4.727   0.611   1.258  0.6405  0.6725  1.0424
 7680SOL    HW330487   4.776   0.729   1.177 -0.3211 -1.8854 -3.6606
 7680SOL    MW430488   4.792   0.658   1.224  0.3240  0.5247  0.1920
 7681SOL     OW30489   4.945   4.359   3.669  0.3853 -0.7295  0.5699
 7681SOL    HW230490   4.999   4.393   3.597  0.2472  1.1137  1.2851
 7681SOL    HW330491   4.957   4.422   3.739 -0.5733 -1.7729  1.7042
 7681SOL    MW430492   4.954   4.372   3.669  0.2406 -0.6240  0.8139
 7682SOL     OW30493   0.066   2.188   1.974  0.0123  0.3586 -0.0471
 7682SOL    HW230494   0.029   2.267   2.014 -1.4006  0.5414 -1.6034
 7682SOL    HW330495   0.002   2.119   1.993  0.2895  0.0172 -0.3260
 7682SOL    MW430496   0.053   2.189   1.982 -0.1376  0.3377 -0.2892
 7683SOL     OW30497   5.882   0.368   0.595  0.9286 -0.2000 -0.0971
 7683SOL    HW230498   5.957   0.308   0.594  0.2362 -1.0737 -0.9713
 7683SOL    HW330499   5.809   0.315   0.625  0.0618 -0.1323 -1.9441
 7683SOL    MW430500   5.882   0.353   0.599  0.7229 -0.3063 -0.4561
 7684SOL     OW30501   5.883   2.812   6.026 -0.2480 -0.2207  0.3402
 7684SOL    HW230502   5.931   2.824   6.108 -1.4647 -1.6670  1.3170
 7684SOL    HW330503   5.927   2.739   5.983  1.1205  1.2743 -0.9171
 7684SOL    MW430504   5.895   2.804   6.031 -0.2280 -0.2143  0.3032
 7685SOL     OW30505   4.063   3.802   5.579  0.1835 -0.1141 -0.3905
 7685SOL    HW230506   4.138   3.854   5.608 -0.2555  0.5316 -0.4023
 7685SOL    HW330507   4.067   3.805   5.483  0.3032 -0.3162 -0.3923
 7685SOL    MW430508   4.073   3.809   5.570  0.1414 -0.0556 -0.3923
 7686SOL     OW30509   0.303   4.936   0.663  0.5750  0.1749  0.2520
 7686SOL    HW230510   0.311   4.983   0.580  0.5427  2.8407  1.6465
 7686SOL    HW330511   0.225   4.882   0.653 -0.2253  1.5046 -0.9955
 7686SOL    MW430512   0.294   4.935   0.651  0.4651  0.7021  0.2714
 7687SOL     OW30513   5.211   3.475   0.972 -0.3794 -0.0631  0.1546
 7687SOL    HW230514   5.207   3.562   0.932 -0.0018 -0.3029 -0.4297
 7687SOL    HW330515   5.236   3.490   1.063 -0.8950  0.4758  0.2091
 7687SOL    MW430516   5.214   3.488   0.978 -0.3976 -0.0236  0.0847
 7688SOL     OW30517   6.038   2.278   2.144  0.2321  0.2407 -0.3975
 7688SOL    HW230518   6.027   2.241   2.231 -1.0881  0.5072 -0.4410
 7688SOL    HW330519   6.039   2.202   2.085  0.6810  0.0924 -0.2037
 7688SOL    MW430520   6.037   2.263   2.147  0.1171  0.2563 -0.3776
 7689SOL     OW30521   2.240   2.993   1.774  0.2700  0.1069  0.0519
 7689SOL    HW230522   2.273   2.904   1.761 -1.3550 -0.6069  0.5170
 7689SOL    HW330523   2.177   3.006   1.703 -2.4114 -0.6480  2.1581
 7689SOL    MW430524   2.236   2.983   1.763 -0.2982 -0.0869  0.3911
 7690SOL     OW30525   0.875   4.038   2.314  0.5272  0.4600  0.0742
 7690SOL    HW230526   0.805   3.992   2.361 -0.2852  0.6043 -0.9529
 7690SOL    HW330527   0.954   4.016   2.362  0.2772 -2.5196 -0.6812
 7690SOL    MW430528   0.876   4.029   2.326  0.3870  0.0859 -0.1610
 7691SOL     OW30529   0.197   1.459   2.541 -0.3443 -0.3508 -0.4259
 7691SOL    HW230530   0.258   1.386   2.531 -0.8883 -0.7818 -0.6511
 7691SOL    HW330531   0.190   1.472   2.635  1.6979  1.0798 -0.4045
 7691SOL    MW430532   0.204   1.451   2.552 -0.1466 -0.2189 -0.4528
 7692SOL     OW30533   2.370   6.164   0.127  0.5107 -0.2100 -0.1146
 7692SOL    HW230534   2.397   6.171   0.218 -2.8434  0.5135  0.9696
 7692SOL    HW330535   2.374   6.070   0.107  3.7085 -0.1641 -0.1856
 7692SOL    MW430536   2.374   6.152   0.136  0.4901 -0.1085  0.0191
 7693SOL     OW30537   2.191   2.343   3.493 -0.7001 -0.1903  0.5182
 7693SOL    HW230538   2.241   2.262   3.492 -0.7656 -0.2407  1.2194
 7693SOL    HW330539   2.194   2.374   3.402 -0.6601 -0.9615  0.2478
 7693SOL    MW430540   2.198   2.336   3.481 -0.7035 -0.2987  0.5751
 7694SOL     OW30541   2.754   5.668   4.453  0.3761  0.0298 -0.3043
 7694SOL    HW230542   2.797   5.748   4.482 -0.8502 -0.0177  1.8542
 7694SOL    HW330543   2.678   5.698   4.404 -0.9949  0.3079  1.8630
 7694SOL    MW430544   2.750   5.683   4.451  0.0334  0.0602  0.2665
 7695SOL     OW30545   4.864   4.132   2.684  0.5760  0.4665 -0.5325
 7695SOL    HW230546   4.863   4.228   2.681 -0.3862  0.5889  1.6193
 7695SOL    HW330547   4.812   4.110   2.761  1.9141 -1.7540 -0.1595
 7695SOL    MW430548   4.857   4.142   2.694  0.6256  0.1897 -0.1994
 7696SOL     OW30549   3.003   2.530   5.710 -0.6358  0.0007  0.2173
 7696SOL    HW230550   3.066   2.582   5.661 -0.1603 -0.5349  0.2572
 7696SOL    HW330551   2.957   2.594   5.765 -1.6146  0.6989 -1.3460
 7696SOL    MW430552   3.005   2.545   5.711 -0.7022  0.0222  0.0163
 7697SOL     OW30553   6.105   4.694   2.887  0.0929 -0.3421 -0.1760
 7697SOL    HW230554   6.125   4.649   2.969 -2.8774 -1.2947  0.1730
 7697SOL    HW330555   6.151   4.777   2.893 -1.9052  0.7291  3.7043
 7697SOL    MW430556   6.113   4.699   2.898 -0.5626 -0.3264  0.3820
 7698SOL     OW30557   3.454   2.346   0.854 -0.6167  0.3114 -0.5133
 7698SOL    HW230558   3.449   2.300   0.770 -1.5275 -1.5100  0.4664
 7698SOL    HW330559   3.539   2.322   0.890 -0.1082  1.3221 -1.0335
 7698SOL    MW430560   3.464   2.336   0.848 -0.6698  0.2044 -0.4527
 7699SOL     OW30561   3.373   1.071   3.024  0.2484  0.5643  0.3395
 7699SOL    HW230562   3.363   1.113   2.939  0.2016  1.0724  0.5960
 7699SOL    HW330563   3.415   1.137   3.079 -0.7828  0.6658  1.0400
 7699SOL    MW430564   3.377   1.085   3.020  0.1062  0.6447  0.4657
 7700SOL     OW30565   0.868   1.343   2.501 -0.1546 -0.2907  0.0647
 7700SOL    HW230566   0.888   1.249   2.495  0.4136 -0.2204  0.6875
 7700SOL    HW330567   0.912   1.371   2.582 -1.0420  0.3294  0.3487
 7700SOL    MW430568   0.876   1.334   2.511 -0.1967 -0.1996  0.1843
 7701SOL     OW30569   1.116   3.313   3.366 -0.4955  0.0775  0.1430
 7701SOL    HW230570   1.201   3.332   3.326 -0.0966  1.2171  1.4720
 7701SOL    HW330571   1.074   3.398   3.377 -1.2755 -0.3578  0.6691
 7701SOL    MW430572   1.122   3.326   3.362 -0.5458  0.1704  0.3878
 7702SOL     OW30573   5.061   3.244   4.136  0.0312  0.0430 -0.6455
 7702SOL    HW230574   5.071   3.312   4.203 -1.3915 -1.3830  1.1459
 7702SOL    HW330575   4.966   3.235   4.126  0.1506  1.1609 -3.9783
 7702SOL    MW430576   5.050   3.251   4.144 -0.1408  0.0023 -0.8489
 7703SOL     OW30577   3.701   4.101   1.926 -0.7333  0.1036  0.2253
 7703SOL    HW230578   3.715   4.109   2.021  0.8559 -2.4008  0.2906
 7703SOL    HW330579   3.685   4.008   1.912  0.0768  0.2478 -2.0677
 7703SOL    MW430580   3.701   4.090   1.937 -0.4167 -0.2078 -0.0686
 7704SOL     OW30581   3.004   5.671   1.411  0.2868  0.5826  0.4682
 7704SOL    HW230582   3.023   5.599   1.471  2.1328  1.1526  0.6334
 7704SOL    HW330583   3.037   5.749   1.455  1.3755  1.0673 -1.0928
 7704SOL    MW430584   3.011   5.671   1.425  0.6740  0.7218  0.2840
 7705SOL     OW30585   0.289   3.559   0.750 -0.6500  0.2006  0.3481
 7705SOL    HW230586   0.258   3.469   0.761  0.2870  0.1164  2.8705
 7705SOL    HW330587   0.353   3.552   0.679 -0.5489 -1.1373  0.5291
 7705SOL    MW430588   0.294   3.546   0.742 -0.5130  0.0130  0.7048
 7706SOL     OW30589   0.583   1.984   3.649  0.3464  0.0569 -0.2508
 7706SOL    HW230590   0.625   1.902   3.676  0.3486 -0.5712 -2.0223
 7706SOL    HW330591   0.621   2.050   3.706  1.5360 -0.9344  0.1558
 7706SOL    MW430592   0.594   1.982   3.660  0.5036 -0.1568 -0.4309
 7707SOL     OW30593   4.925   1.477   0.064  0.4857 -0.0831 -0.1655
 7707SOL    HW230594   4.843   1.462   0.110 -0.0046  2.3591 -0.1000
 7707SOL    HW330595   4.988   1.497   0.133  0.8421 -0.7257 -0.2979
 7707SOL    MW430596   4.923   1.478   0.079  0.4680  0.1543 -0.1743
 7708SOL     OW30597   3.164   2.459   5.375  0.2839 -0.0416 -0.7578
 7708SOL    HW230598   3.226   2.438   5.306  1.8252 -0.8377  0.7892
 7708SOL    HW330599   3.200   2.418   5.454 -1.7230  0.2647  0.4173
 7708SOL    MW430600   3.177   2.450   5.377  0.2225 -0.1062 -0.3986
 7709SOL     OW30601   5.516   5.514   0.382 -0.1665 -0.4023 -0.5778
 7709SOL    HW230602   5.548   5.570   0.453  1.3169 -0.4826 -1.1528
 7709SOL    HW330603   5.445   5.463   0.422 -0.9995  1.2752  0.1777
 7709SOL    MW430604   5.511   5.515   0.397 -0.0807 -0.1916 -0.5540
 7710SOL     OW30605   0.763   3.451   1.699  0.7025 -0.3660 -0.1291
 7710SOL    HW230606   0.847   3.420   1.733  0.7955  0.6118  0.5794
 7710SOL    HW330607   0.729   3.507   1.769 -0.2095 -0.1983 -0.7040
 7710SOL    MW430608   0.770   3.454   1.713  0.5945 -0.2148 -0.1115
 7711SOL     OW30609   6.328   3.408   6.374 -0.7005 -0.5455 -0.0175
 7711SOL    HW230610   6.238   3.436   6.358 -0.1805  0.6748 -0.9870
 7711SOL    HW330611   6.337   3.408   6.470 -0.9075  2.2279  0.0735
 7711SOL    MW430612   6.317   3.412   6.385 -0.6592 -0.0186 -0.1334
 7712SOL     OW30613   2.746   0.532   0.059  0.2820 -0.3761  0.1003
 7712SOL    HW230614   2.662   0.566   0.028  1.4490  2.3601 -0.3373
 7712SOL    HW330615   2.797   0.516  -0.020  0.3313 -1.7209  0.3752
 7712SOL    MW430616   2.742   0.534   0.045  0.4425 -0.1925  0.0789
 7713SOL     OW30617   5.276   1.582   4.361  0.0326 -0.7637 -0.0017
 7713SOL    HW230618   5.337   1.537   4.419  0.4187 -1.1407 -0.6880
 7713SOL    HW330619   5.189   1.552   4.388  0.2475 -1.4003 -0.0063
 7713SOL    MW430620   5.273   1.572   4.372  0.1119 -0.8974 -0.0928
 7714SOL     OW30621   4.050   3.240   2.825  0.4369 -0.0289  0.2051
 7714SOL    HW230622   4.115   3.183   2.784 -0.0837 -1.2912  1.0701
 7714SOL    HW330623   3.999   3.181   2.881 -0.9531  1.0695  0.1362
 7714SOL    MW430624   4.052   3.224   2.827  0.1848 -0.0505  0.3101
 7715SOL     OW30625   4.525   4.429   3.752 -0.2839 -0.4248 -0.4416
 7715SOL    HW230626   4.572   4.492   3.697  0.1419 -1.7483 -1.6411
 7715SOL    HW330627   4.433   4.440   3.728 -0.3742  0.6201  0.3041
 7715SOL    MW430628   4.519   4.439   3.741 -0.2396 -0.4616 -0.5014
 7716SOL     OW30629   5.862   2.961   4.449 -0.3616  0.1110  1.0294
 7716SOL    HW230630   5.768   2.958   4.437 -0.3459  0.6080  0.7560
 7716SOL    HW330631   5.895   3.009   4.373  0.2958 -1.6256  0.1675
 7716SOL    MW430632   5.854   2.967   4.437 -0.2728 -0.0526  0.8796
 7717SOL     OW30633   5.956   4.727   1.288  0.3932 -0.2965 -0.0904
 7717SOL    HW230634   5.876   4.685   1.257  1.3920 -0.7471 -2.2834
 7717SOL    HW330635   5.964   4.806   1.235  1.6596 -0.5418 -0.3104
 7717SOL    MW430636   5.947   4.732   1.277  0.6920 -0.3883 -0.4088
 7718SOL     OW30637   4.400   3.764   2.784 -0.6766  0.1378  0.3365
 7718SOL    HW230638   4.448   3.789   2.863  0.8157 -0.8699 -0.2216
 7718SOL    HW330639   4.308   3.783   2.806 -0.3065 -0.0466  2.2907
 7718SOL    MW430640   4.394   3.769   2.798 -0.4309 -0.0195  0.5207
 7719SOL     OW30641   2.410   0.253   1.647 -0.1632  0.2454 -0.1757
 7719SOL    HW230642   2.321   0.217   1.650 -0.0256 -0.8188 -3.7302
 7719SOL    HW330643   2.420   0.282   1.556  2.2152  2.9455  0.8139
 7719SOL    MW430644   2.399   0.252   1.635  0.1687  0.4612 -0.5141
 7720SOL     OW30645   1.388   3.841   0.938  0.4794 -0.2905  0.1844
 7720SOL    HW230646   1.426   3.841   1.026 -0.1956  1.5803  0.5320
 7720SOL    HW330647   1.293   3.842   0.953  0.3527 -0.2838 -0.5793
 7720SOL    MW430648   1.380   3.841   0.951  0.3736 -0.0428  0.1295
 7721SOL     OW30649   1.804   5.826   0.283  0.2429  0.6494  0.1143
 7721SOL    HW230650   1.776   5.823   0.375 -3.2649 -3.2964 -0.7806
 7721SOL    HW330651   1.792   5.917   0.257  1.4308  1.9302  3.4480
 7721SOL    MW430652   1.799   5.838   0.292 -0.0632  0.2978  0.4360
 7722SOL     OW30653   1.528   4.678   4.198 -0.4713  0.3437  0.0929
 7722SOL    HW230654   1.464   4.747   4.219 -0.7566  0.3711 -0.8137
 7722SOL    HW330655   1.514   4.661   4.105  0.3500 -0.1741  0.0606
 7722SOL    MW430656   1.517   4.685   4.189 -0.4006  0.2790 -0.0310
 7723SOL     OW30657   6.198   5.233   6.416 -0.1809 -0.2628  0.4160
 7723SOL    HW230658   6.198   5.304   6.481 -0.1519  0.9808 -0.8831
 7723SOL    HW330659   6.284   5.192   6.425 -0.6490 -0.9323  2.0084
 7723SOL    MW430660   6.209   5.237   6.426 -0.2388 -0.1871  0.4547
 7724SOL     OW30661   1.551   5.250   4.995  0.2236 -0.1446 -0.2334
 7724SOL    HW230662   1.481   5.291   5.046  0.6390  0.3887 -0.0757
 7724SOL    HW330663   1.626   5.248   5.054  1.1961  1.9351 -1.2600
 7724SOL    MW430664   1.552   5.255   5.009  0.4067  0.2002 -0.3480
 7725SOL     OW30665   6.058   5.961   3.797  0.7020  0.2253 -0.4196
 7725SOL    HW230666   5.996   5.895   3.765  1.1504  0.2826 -1.4490
 7725SOL    HW330667   6.018   5.995   3.877  1.2783 -2.5717  1.2066
 7725SOL    MW430668   6.044   5.956   3.803  0.8372 -0.1362 -0.3408
 7726SOL     OW30669   4.896   4.984   5.933  0.2033  0.0819 -0.0231
 7726SOL    HW230670   4.895   4.892   5.907  0.4371 -0.1652  0.8346
 7726SOL    HW330671   4.895   5.032   5.850 -0.5849 -0.6818 -0.4613
 7726SOL    MW430672   4.896   4.978   5.918  0.1302 -0.0515  0.0323
 7727SOL     OW30673   4.710   0.513   2.673  0.3638 -0.7278  0.2969
 7727SOL    HW230674   4.665   0.577   2.728 -0.8079 -0.1398 -1.2975
 7727SOL    HW330675   4.781   0.480   2.729  0.1864  0.9664  1.6133
 7727SOL    MW430676   4.714   0.517   2.688  0.1858 -0.4267  0.2602
 7728SOL     OW30677   4.168   6.276   1.464 -0.0986 -0.5468  0.4080
 7728SOL    HW230678   4.135   6.350   1.516 -0.5204 -1.9755  2.3067
 7728SOL    HW330679   4.188   6.209   1.529 -1.3040 -2.7304 -1.3224
 7728SOL    MW430680   4.166   6.277   1.480 -0.3133 -1.0234  0.4302
 7729SOL     OW30681   0.960   5.820   3.838 -0.5499 -0.5706  1.0419
 7729SOL    HW230682   0.875   5.818   3.882  0.5114  2.2493  3.5409
 7729SOL    HW330683   1.021   5.786   3.903  0.6556  0.8146  0.6908
 7729SOL    MW430684   0.957   5.816   3.853 -0.2508 -0.0158  1.3253
 7730SOL     OW30685   2.290   6.303   5.958  0.3165  0.0455  0.2696
 7730SOL    HW230686   2.381   6.310   5.932  0.1094  0.4242 -0.3730
 7730SOL    HW330687   2.246   6.265   5.882 -0.2741  1.0383  0.0959
 7730SOL    MW430688   2.296   6.299   5.945  0.2113  0.2264  0.1619
 7731SOL     OW30689   2.355   4.858   3.975  0.1032 -0.4660 -0.0709
 7731SOL    HW230690   2.263   4.832   3.981 -0.9758  2.6278 -0.8787
 7731SOL    HW330691   2.382   4.875   4.065  0.1855 -2.1755  0.2461
 7731SOL    MW430692   2.346   4.857   3.987 -0.0283 -0.2834 -0.1356
 7732SOL     OW30693   3.761   4.706   4.894 -0.3714 -0.2198 -0.5755
 7732SOL    HW230694   3.808   4.623   4.892 -0.4299 -0.2902  0.6361
 7732SOL    HW330695   3.689   4.692   4.954 -1.0974  0.3508 -1.2868
 7732SOL    MW430696   3.758   4.694   4.901 -0.4749 -0.1538 -0.5095
 7733SOL     OW30697   6.088   1.246   2.207 -0.3934 -0.0351 -0.4244
 7733SOL    HW230698   6.039   1.279   2.131  0.1526  0.5078 -0.5448
 7733SOL    HW330699   6.180   1.246   2.178 -0.1974  0.0275  0.1900
 7733SOL    MW430700   6.094   1.250   2.193 -0.2955  0.0448 -0.3592
 7734SOL     OW30701   4.581   1.358   4.029 -0.5069  0.1818 -0.3786
 7734SOL    HW230702   4.598   1.452   4.031 -0.4864  0.1647  0.3421
 7734SOL    HW330703   4.628   1.323   4.105  0.5399 -0.5931 -1.3510
 7734SOL    MW430704   4.589   1.366   4.039 -0.3661  0.0773 -0.4118
 7735SOL     OW30705   4.296   2.877   3.544  0.2032  0.0469  0.0190
 7735SOL    HW230706   4.277   2.783   3.548 -2.4085  0.3840 -1.7145
 7735SOL    HW330707   4.258   2.913   3.624 -2.7644  0.0577 -1.2433
 7735SOL    MW430708   4.288   2.870   3.555 -0.5329  0.0928 -0.3763
 7736SOL     OW30709   3.211   3.262   4.380  0.6445 -0.1414 -0.4027
 7736SOL    HW230710   3.279   3.273   4.447 -0.2875  1.5581  0.3434
 7736SOL    HW330711   3.249   3.301   4.301  0.5544  0.8196  0.0146
 7736SOL    MW430712   3.225   3.268   4.379  0.5097  0.2097 -0.2492
 7737SOL     OW30713   1.751   0.724   3.237 -0.0116 -0.2048 -0.0687
 7737SOL    HW230714   1.801   0.746   3.316  0.0667  0.7801 -0.3815
 7737SOL    HW330715   1.750   0.805   3.186 -1.1323 -0.4811 -0.5028
 7737SOL    MW430716   1.758   0.737   3.241 -0.1491 -0.1113 -0.1672
 7738SOL     OW30717   4.187   2.197   5.648  0.3547 -0.3699 -0.8374
 7738SOL    HW230718   4.133   2.241   5.713  0.5438  0.0927 -0.9903
 7738SOL    HW330719   4.214   2.115   5.691 -2.3458 -1.7546 -1.5997
 7738SOL    MW430720   4.184   2.192   5.662  0.0233 -0.4915 -0.9582
 7739SOL     OW30721   1.954   1.512   2.101  0.0489 -0.0863 -0.2975
 7739SOL    HW230722   1.958   1.425   2.061 -0.4605  0.0626 -0.6815
 7739SOL    HW330723   1.928   1.570   2.030 -3.2860 -0.1692  0.6864
 7739SOL    MW430724   1.951   1.508   2.086 -0.4583 -0.0776 -0.2184
 7740SOL     OW30725   0.963   5.447   2.898 -0.0980  0.3163  0.0206
 7740SOL    HW230726   0.969   5.353   2.878 -0.8834 -0.1532  1.8290
 7740SOL    HW330727   1.054   5.475   2.908  0.1315 -0.3277 -0.1687
 7740SOL    MW430728   0.976   5.438   2.897 -0.1713  0.1694  0.2342
 7741SOL     OW30729   2.415   3.659   1.812 -0.3668  0.6972  0.1757
 7741SOL    HW230730   2.467   3.583   1.786  0.6281  0.9191  1.4438
 7741SOL    HW330731   2.349   3.623   1.872  0.5661  0.9013  1.3665
 7741SOL    MW430732   2.413   3.644   1.816 -0.1125  0.7534  0.5001
 7742SOL     OW30733   1.242   0.656   3.431  0.0195  0.2160 -0.4925
 7742SOL    HW230734   1.198   0.723   3.379 -0.8963 -0.5646 -0.7444
 7742SOL    HW330735   1.335   0.674   3.420 -0.0694 -0.7937 -3.5928
 7742SOL    MW430736   1.248   0.667   3.423 -0.1131 -0.0202 -0.9348
 7743SOL     OW30737   5.307   4.459   1.282  0.7467  0.6685 -0.2851
 7743SOL    HW230738   5.304   4.545   1.323  1.8852  0.1640  0.9288
 7743SOL    HW330739   5.378   4.413   1.327  1.4782 -0.2400 -2.2456
 7743SOL    MW430740   5.316   4.464   1.294  0.9934  0.4820 -0.3836
 7744SOL     OW30741   0.406   4.740   1.663  0.5320  0.9909  0.1316
 7744SOL    HW230742   0.404   4.809   1.730  1.0020  0.0218  1.1842
 7744SOL    HW330743   0.450   4.667   1.706  2.2187  0.8257 -1.7453
 7744SOL    MW430744   0.412   4.740   1.678  0.8165  0.8412  0.0229
 7745SOL     OW30745   4.867   5.599   2.497 -0.1076  0.2748 -0.2240
 7745SOL    HW230746   4.901   5.576   2.584 -1.5026 -0.3715  0.1852
 7745SOL    HW330747   4.869   5.517   2.448 -0.3456  0.4050 -0.4531
 7745SOL    MW430748   4.872   5.585   2.502 -0.3231  0.2067 -0.2002
 7746SOL     OW30749   4.427   4.073   0.749  0.8557  0.2196  0.7010
 7746SOL    HW230750   4.520   4.051   0.748  0.9044  0.3408 -1.3411
 7746SOL    HW330751   4.406   4.094   0.658 -1.2759 -0.2428  1.0257
 7746SOL    MW430752   4.436   4.072   0.737  0.5809  0.1746  0.4744
 7747SOL     OW30753   1.711   2.540   3.911  0.0002  0.2603  0.3291
 7747SOL    HW230754   1.677   2.606   3.851 -2.8214 -1.2187  0.1608
 7747SOL    HW330755   1.776   2.492   3.859  0.5366  1.5264 -0.2051
 7747SOL    MW430756   1.715   2.542   3.896 -0.3013  0.2322  0.2364
 7748SOL     OW30757   2.067   0.205   3.324 -0.0825  0.0535  0.1252
 7748SOL    HW230758   2.064   0.195   3.420 -0.2597  0.4347  0.1610
 7748SOL    HW330759   2.007   0.138   3.291  0.5575 -0.5866  0.2414
 7748SOL    MW430760   2.058   0.194   3.333 -0.0214  0.0194  0.1453
 7749SOL     OW30761   4.287   2.842   0.766  0.3458  0.7002  0.3790
 7749SOL    HW230762   4.215   2.888   0.722 -0.3997 -1.0759 -0.3499
 7749SOL    HW330763   4.359   2.844   0.703  0.0912  0.2873  0.0714
 7749SOL    MW430764   4.287   2.849   0.752  0.2138  0.4114  0.2423
 7750SOL     OW30765   2.989   3.196   5.079  0.6303 -0.1189  0.2703
 7750SOL    HW230766   3.029   3.110   5.065  0.5615 -0.0357 -0.5250
 7750SOL    HW330767   2.994   3.211   5.173  1.0121 -0.8150  0.3639
 7750SOL    MW430768   2.995   3.187   5.089  0.6716 -0.1997  0.1777
 7751SOL     OW30769   1.092   2.352   3.333  0.3391 -0.9611  0.4313
 7751SOL    HW230770   1.186   2.350   3.352  0.6764 -2.1759 -1.1092
 7751SOL    HW330771   1.056   2.281   3.386  0.5897 -1.6446 -0.3046
 7751SOL    MW430772   1.100   2.342   3.343  0.4167 -1.2116  0.1310
 7752SOL     OW30773   5.344   0.628   3.591 -0.1807  0.6163 -0.0693
 7752SOL    HW230774   5.365   0.585   3.674 -0.6197  0.6005  0.0376
 7752SOL    HW330775   5.428   0.640   3.548 -0.0330 -0.2563 -0.0505
 7752SOL    MW430776   5.358   0.624   3.597 -0.2191  0.4991 -0.0527
 7753SOL     OW30777   1.686   3.448   2.237  0.0557  0.0730 -0.3978
 7753SOL    HW230778   1.641   3.378   2.283  0.4636 -0.1708 -0.3642
 7753SOL    HW330779   1.778   3.422   2.238  0.3581  1.1216  0.5262
 7753SOL    MW430780   1.692   3.435   2.243  0.1494  0.1792 -0.2714
 7754SOL     OW30781   0.328   0.075   4.482  0.0514 -0.1008 -0.2109
 7754SOL    HW230782   0.233   0.085   4.475 -0.0407 -0.2984  0.7089
 7754SOL    HW330783   0.341  -0.007   4.528  0.6912 -0.4247 -0.9388
 7754SOL    MW430784   0.317   0.066   4.487  0.1236 -0.1696 -0.1856
 7755SOL     OW30785   6.282   3.135   5.524  0.5734  0.4001  0.4871
 7755SOL    HW230786   6.264   3.171   5.438  0.0822  0.1945  0.4970
 7755SOL    HW330787   6.200   3.090   5.549  0.4447  1.0829  1.3649
 7755SOL    MW430788   6.269   3.134   5.516  0.4916  0.4631  0.6043
 7756SOL     OW30789   2.295   1.097   4.132  0.0515  0.1951  0.2716
 7756SOL    HW230790   2.206   1.090   4.169 -0.9305 -0.6605 -2.0710
 7756SOL    HW330791   2.325   1.184   4.158 -0.8871 -0.0034  2.2583
 7756SOL    MW430792   2.287   1.107   4.140 -0.2019  0.0560  0.2246
 7757SOL     OW30793   3.258   3.633   5.829 -0.1135  0.1159 -0.6212
 7757SOL    HW230794   3.310   3.711   5.808  1.0654 -0.2695  0.7500
 7757SOL    HW330795   3.223   3.605   5.744  0.3143  1.5148 -1.2950
 7757SOL    MW430796   3.261   3.640   5.815  0.0985  0.2496 -0.5292
 7758SOL     OW30797   4.821   2.949   2.011 -0.2798  0.4770  0.7006
 7758SOL    HW230798   4.822   3.038   2.045 -1.0864  1.3001 -1.3008
 7758SOL    HW330799   4.761   2.952   1.937 -1.1981 -2.0142  1.2481
 7758SOL    MW430800   4.813   2.961   2.006 -0.5074  0.2569  0.5088
 7759SOL     OW30801   4.291   5.073   5.196  0.5826  0.3042  0.3715
 7759SOL    HW230802   4.338   5.121   5.127  1.0408 -0.4881  0.1267
 7759SOL    HW330803   4.200   5.104   5.188 -0.0469 -1.8051 -2.5170
 7759SOL    MW430804   4.285   5.083   5.186  0.5600 -0.0786 -0.0419
 7760SOL     OW30805   3.110   1.067   2.849 -0.0699  0.0220  0.3032
 7760SOL    HW230806   3.149   1.050   2.763 -0.4155 -0.3091  0.2115
 7760SOL    HW330807   3.131   0.990   2.901  0.4251  0.3649  0.6258
 7760SOL    MW430808   3.118   1.055   2.844 -0.0502  0.0236  0.3336
 7761SOL     OW30809   2.626   5.572   0.230  0.3798 -0.0538  0.2182
 7761SOL    HW230810   2.593   5.637   0.292  2.2400 -0.6163  1.9070
 7761SOL    HW330811   2.589   5.489   0.261  0.7627 -0.2421  0.1746
 7761SOL    MW430812   2.617   5.569   0.243  0.6758 -0.1528  0.4353
 7762SOL     OW30813   4.928   2.552   1.991  0.2925  0.2953 -0.2233
 7762SOL    HW230814   4.832   2.553   1.998  0.3364  1.3291  0.2671
 7762SOL    HW330815   4.958   2.518   2.075  0.3379 -1.4666 -0.8960
 7762SOL    MW430816   4.919   2.548   2.003  0.3043  0.1992 -0.2473
 7763SOL     OW30817   5.759   5.130   3.983  0.1403  0.1841  0.4170
 7763SOL    HW230818   5.768   5.059   4.047  2.0411 -0.0931 -0.0772
 7763SOL    HW330819   5.771   5.210   4.033  1.6555 -0.0351  0.4518
 7763SOL    MW430820   5.762   5.131   3.998  0.5910  0.1186  0.3564
 7764SOL     OW30821   2.516   1.332   2.396  0.4977 -0.3334 -0.0112
 7764SOL    HW230822   2.434   1.369   2.363  0.8239  1.5008  1.1142
 7764SOL    HW330823   2.528   1.373   2.482  1.5180 -2.1978  0.7884
 7764SOL    MW430824   2.507   1.342   2.403  0.6754 -0.3374  0.2428
 7765SOL     OW30825   2.911   6.307   5.551  0.2056 -0.5715 -0.0973
 7765SOL    HW230826   2.964   6.380   5.585  0.8802 -1.4280  0.7325
 7765SOL    HW330827   2.822   6.344   5.543  0.6362  0.4848 -0.1933
 7765SOL    MW430828   2.906   6.322   5.554  0.3515 -0.5451 -0.0005
 7766SOL     OW30829   1.637   6.430   4.160 -0.2745 -0.6501 -0.2933
 7766SOL    HW230830   1.590   6.426   4.244 -0.3535 -1.9485 -0.3878
 7766SOL    HW330831   1.652   6.339   4.136  0.9651 -0.2788 -1.0236
 7766SOL    MW430832   1.633   6.417   4.168 -0.1214 -0.7724 -0.4022
 7767SOL     OW30833   2.017   3.401   1.144 -0.3631  0.2693 -0.0740
 7767SOL    HW230834   1.979   3.410   1.056 -0.4194  0.7005 -0.0099
 7767SOL    HW330835   2.105   3.367   1.128 -0.0246  1.2452 -0.3683
 7767SOL    MW430836   2.024   3.398   1.130 -0.3259  0.4549 -0.1044
 7768SOL     OW30837   2.347   6.193   5.675 -0.5076 -0.6858  0.0344
 7768SOL    HW230838   2.413   6.158   5.735  0.7193  0.3470 -0.6655
 7768SOL    HW330839   2.365   6.149   5.591 -0.9198 -0.6244 -0.0886
 7768SOL    MW430840   2.358   6.182   5.672 -0.4001 -0.5415 -0.0742
 7769SOL     OW30841   5.616   2.351   0.054 -0.3293  0.4067  0.2654
 7769SOL    HW230842   5.674   2.301  -0.003 -1.4010  0.9802 -1.3889
 7769SOL    HW330843   5.577   2.286   0.112  1.0465 -0.1353  0.6424
 7769SOL    MW430844   5.619   2.336   0.054 -0.2892  0.4108  0.0969
 7770SOL     OW30845   3.209   3.193   5.569 -0.6531  0.0060  0.8923
 7770SOL    HW230846   3.161   3.219   5.648 -0.1223 -0.3695  1.3450
 7770SOL    HW330847   3.259   3.271   5.545 -0.5818  0.0252  1.1035
 7770SOL    MW430848   3.210   3.207   5.577 -0.5737 -0.0410  0.9799
 7771SOL     OW30849   0.749   2.414   5.377  0.0862  0.1290  0.4769
 7771SOL    HW230850   0.817   2.427   5.311 -1.3771  0.7685 -0.9742
 7771SOL    HW330851   0.796   2.414   5.460  1.6635  2.6440 -0.2961
 7771SOL    MW430852   0.764   2.416   5.379  0.1013  0.5452  0.1834
 7772SOL     OW30853   0.464   1.488   5.017  0.3474 -0.5961  0.0843
 7772SOL    HW230854   0.447   1.582   5.028  1.3719 -0.4535  0.5231
 7772SOL    HW330855   0.461   1.475   4.922 -3.4068 -0.8444  0.0832
 7772SOL    MW430856   0.461   1.499   5.006 -0.0128 -0.6101  0.1421
 7773SOL     OW30857   1.416   4.436   3.060 -0.3419  0.0950 -0.2029
 7773SOL    HW230858   1.430   4.531   3.055  0.1654  0.0238 -0.2458
 7773SOL    HW330859   1.350   4.418   2.994 -2.8946  0.8604  1.9464
 7773SOL    MW430860   1.409   4.446   3.051 -0.6118  0.1866  0.0750
 7774SOL     OW30861   3.041   4.088   5.102  0.2912  0.1716  0.3820
 7774SOL    HW230862   3.130   4.075   5.068  0.5121 -1.6835  1.5219
 7774SOL    HW330863   2.986   4.037   5.042  0.0696  0.7982  0.0492
 7774SOL    MW430864   3.045   4.079   5.089  0.2911  0.0095  0.4885
 7775SOL     OW30865   2.267   5.649   2.528  0.8391 -0.1495 -0.9247
 7775SOL    HW230866   2.236   5.738   2.548  1.1006 -0.2767  0.0611
 7775SOL    HW330867   2.301   5.616   2.611 -0.1786 -1.5547 -1.0368
 7775SOL    MW430868   2.267   5.657   2.541  0.7393 -0.3517 -0.8094
 7776SOL     OW30869   0.610   4.542   6.170 -0.3355 -0.4126 -0.0669
 7776SOL    HW230870   0.544   4.583   6.226  1.2101  1.5818  0.4257
 7776SOL    HW330871   0.594   4.578   6.083 -1.8765 -2.4583 -0.6944
 7776SOL    MW430872   0.599   4.552   6.166 -0.3349 -0.4194 -0.0847
 7777SOL     OW30873   1.336   3.041   5.540 -0.1997 -0.1767  0.3451
 7777SOL    HW230874   1.360   3.089   5.461 -1.1362  1.7720  1.1717
 7777SOL    HW330875   1.413   3.049   5.597 -0.9353  1.9102  1.1350
 7777SOL    MW430876   1.350   3.049   5.538 -0.4203  0.3557  0.5584
 7778SOL     OW30877   1.941   4.340   1.888  0.4009  0.0022  0.2734
 7778SOL    HW230878   2.032   4.353   1.916  0.3702 -0.0300  0.3867
 7778SOL    HW330879   1.906   4.275   1.948  0.3422 -0.0872  0.1440
 7778SOL    MW430880   1.949   4.333   1.899  0.3891 -0.0139  0.2713
 7779SOL     OW30881   3.043   1.262   3.180  0.0996  0.2344 -0.5425
 7779SOL    HW230882   3.021   1.323   3.250 -0.2688  0.6996 -1.0641
 7779SOL    HW330883   3.081   1.186   3.226 -0.7570  0.2480  0.2181
 7779SOL    MW430884   3.045   1.260   3.196 -0.0620  0.2976 -0.5110
 7780SOL     OW30885   1.918   2.867   1.729  0.2007 -0.3520 -0.1705
 7780SOL    HW230886   1.978   2.807   1.685  0.4325  0.0395 -0.3985
 7780SOL    HW330887   1.932   2.852   1.822  2.2634  1.2566 -0.1447
 7780SOL    MW430888   1.927   2.857   1.735  0.5035 -0.0881 -0.1971
 7781SOL     OW30889   3.116   0.413   0.118  0.2347  0.2464 -0.2332
 7781SOL    HW230890   3.194   0.444   0.072  0.2241 -0.7488 -0.9453
 7781SOL    HW330891   3.059   0.490   0.123  0.1662  0.3508 -2.0513
 7781SOL    MW430892   3.119   0.427   0.112  0.2242  0.1288 -0.5671
 7782SOL     OW30893   0.285   5.353   1.151 -0.6242  0.3447 -0.2371
 7782SOL    HW230894   0.276   5.396   1.235 -2.8664 -0.9714  0.2758
 7782SOL    HW330895   0.303   5.423   1.089  0.6051  1.3852  1.2192
 7782SOL    MW430896   0.286   5.368   1.154 -0.7578  0.3083  0.0227
 7783SOL     OW30897   6.076   6.215   0.543  0.5288  0.3777  0.2429
 7783SOL    HW230898   6.027   6.273   0.602 -0.4147  1.7203 -1.7358
 7783SOL    HW330899   6.040   6.235   0.456 -0.3011 -3.6429 -0.5082
 7783SOL    MW430900   6.065   6.226   0.539  0.2948  0.0244 -0.1173
 7784SOL     OW30901   3.320   3.684   2.855 -0.0993  0.2621 -0.0831
 7784SOL    HW230902   3.280   3.754   2.804  1.1215  1.5107  0.5913
 7784SOL    HW330903   3.351   3.621   2.791  2.1634  2.1932 -1.0456
 7784SOL    MW430904   3.319   3.685   2.840  0.3603  0.6816 -0.1211
 7785SOL     OW30905   4.007   1.950   5.900 -0.1441 -0.3308 -0.1759
 7785SOL    HW230906   4.023   1.917   5.988 -1.4338 -0.9716 -0.1564
 7785SOL    HW330907   4.044   2.039   5.900  0.2340 -0.4746  0.8701
 7785SOL    MW430908   4.014   1.957   5.911 -0.2644 -0.4343 -0.0353
 7786SOL     OW30909   1.465   1.341   3.274  0.1003 -0.3322 -0.4584
 7786SOL    HW230910   1.401   1.339   3.203 -1.1810  2.4513  0.4868
 7786SOL    HW330911   1.416   1.314   3.351  0.7893 -0.7982 -0.1813
 7786SOL    MW430912   1.450   1.337   3.275  0.0221 -0.0264 -0.2971
 7787SOL     OW30913   2.078   0.417   4.400  0.6004 -0.4547 -0.5076
 7787SOL    HW230914   2.169   0.404   4.429 -0.2261 -3.5684  1.1823
 7787SOL    HW330915   2.079   0.392   4.308  1.7055  1.1474 -0.9738
 7787SOL    MW430916   2.090   0.412   4.392  0.6372 -0.6541 -0.3461
 7788SOL     OW30917   3.853   5.743   2.933 -0.7192  0.0074  0.3320
 7788SOL    HW230918   3.881   5.754   3.024 -1.6589  0.4121  0.5805
 7788SOL    HW330919   3.880   5.654   2.910  2.0600  0.8131  0.0740
 7788SOL    MW430920   3.860   5.733   2.942 -0.4765  0.1671  0.3308
 7789SOL     OW30921   0.351   5.002   5.538  0.1513 -0.2894  0.4136
 7789SOL    HW230922   0.297   5.042   5.469  1.5266 -0.1125 -0.6097
 7789SOL    HW330923   0.339   4.908   5.526 -0.3695 -0.2490  0.5741
 7789SOL    MW430924   0.342   4.995   5.527  0.2641 -0.2608  0.2998
 7790SOL     OW30925   0.282   4.638   5.225 -0.0393 -0.1020  0.6737
 7790SOL    HW230926   0.278   4.652   5.320  0.3592  0.9169  0.5602
 7790SOL    HW330927   0.290   4.727   5.189  0.0230 -0.4957 -0.3026
 7790SOL    MW430928   0.283   4.652   5.233  0.0215 -0.0195  0.5299
 7791SOL     OW30929   1.803   2.650   1.056 -0.1823  0.2399  0.6161
 7791SOL    HW230930   1.833   2.655   1.146 -1.4903 -0.9772  1.1547
 7791SOL    HW330931   1.809   2.558   1.033  1.2589  0.6694 -0.9863
 7791SOL    MW430932   1.808   2.639   1.065 -0.1647  0.1360  0.4758
 7792SOL     OW30933   5.253   4.593   3.067  0.6129 -0.2593 -1.0723
 7792SOL    HW230934   5.311   4.519   3.047  2.7051  1.1225 -0.4669
 7792SOL    HW330935   5.278   4.660   3.004 -0.6044  0.2677 -1.0104
 7792SOL    MW430936   5.264   4.592   3.056  0.7284 -0.0075 -0.9843
 7793SOL     OW30937   4.019   0.560   1.142  0.0928  0.2017 -0.1150
 7793SOL    HW230938   3.984   0.478   1.176 -0.4300  0.4688  0.0027
 7793SOL    HW330939   3.962   0.628   1.179  0.3096  0.5905 -0.4840
 7793SOL    MW430940   4.007   0.558   1.151  0.0525  0.2882 -0.1481
 7794SOL     OW30941   4.198   4.098   5.998  0.3003  0.1707  0.5295
 7794SOL    HW230942   4.266   4.040   6.033 -0.4275 -0.8696  0.2776
 7794SOL    HW330943   4.163   4.144   6.074  1.6318  1.1326  0.5988
 7794SOL    MW430944   4.202   4.096   6.012  0.3799  0.1603  0.5054
 7795SOL     OW30945   4.433   3.778   0.575 -0.2522  0.9845 -0.0453
 7795SOL    HW230946   4.490   3.800   0.502 -0.4963  0.8233 -0.2853
 7795SOL    HW330947   4.482   3.806   0.653  0.2577  0.6365 -0.2357
 7795SOL    MW430948   4.447   3.784   0.576 -0.2171  0.9173 -0.1021
 7796SOL     OW30949   1.067   5.585   1.025 -0.0289 -0.4405  0.3571
 7796SOL    HW230950   1.049   5.675   0.997  0.3922 -1.1305 -2.4315
 7796SOL    HW330951   1.109   5.594   1.111 -0.9486  1.9287  0.6311
 7796SOL    MW430952   1.070   5.598   1.033 -0.0947 -0.2190  0.0253
 7797SOL     OW30953   5.266   6.059   2.403  0.7555 -0.0657  0.7918
 7797SOL    HW230954   5.201   6.065   2.333  0.3266 -0.1073  1.1804
 7797SOL    HW330955   5.271   5.965   2.424  1.0716 -0.0835  0.6420
 7797SOL    MW430956   5.258   6.047   2.397  0.7406 -0.0735  0.8233
 7798SOL     OW30957   2.027   1.721   4.480 -0.6181 -0.3039 -0.0574
 7798SOL    HW230958   2.006   1.796   4.535  0.1394 -1.0984  1.3773
 7798SOL    HW330959   2.052   1.760   4.396 -0.2660  1.0514  0.6347
 7798SOL    MW430960   2.028   1.736   4.476 -0.4717 -0.2299  0.2232
 7799SOL     OW30961   6.383   0.781   5.007  0.3414 -0.9108  0.0624
 7799SOL    HW230962   6.434   0.836   4.948  0.8416 -3.6441 -2.2788
 7799SOL    HW330963   6.292   0.796   4.982  0.2479  0.6745  1.2159
 7799SOL    MW430964   6.378   0.790   4.996  0.3950 -1.0623 -0.0943
 7800SOL     OW30965   5.305   5.299   4.686 -0.1744 -0.2522 -0.2659
 7800SOL    HW230966   5.248   5.281   4.761  1.9512  0.1377  1.5669
 7800SOL    HW330967   5.271   5.245   4.616 -2.1701 -0.7660  1.0246
 7800SOL    MW430968   5.293   5.290   4.687 -0.1572 -0.2686  0.1462
 7801SOL     OW30969   0.579   5.246   0.216 -0.0098  0.0615  0.0195
 7801SOL    HW230970   0.527   5.215   0.143 -1.9687 -0.7822  1.6851
 7801SOL    HW330971   0.654   5.187   0.220 -0.3092 -0.3790 -0.8003
 7801SOL    MW430972   0.582   5.234   0.207 -0.3078 -0.1079  0.1311
 7802SOL     OW30973   1.814   0.525   0.187 -0.7229 -0.0842 -0.0494
 7802SOL    HW230974   1.744   0.591   0.188  0.3392  1.1039  2.0145
 7802SOL    HW330975   1.894   0.575   0.169  0.0792 -0.7904  1.3847
 7802SOL    MW430976   1.815   0.540   0.185 -0.4769 -0.0206  0.4121
 7803SOL     OW30977   6.055   1.507   0.069  0.5568  0.5468 -0.0235
 7803SOL    HW230978   6.017   1.494  -0.017 -1.3928 -2.1500  1.1005
 7803SOL    HW330979   6.112   1.431   0.082 -0.8685 -0.2925  1.8200
 7803SOL    MW430980   6.058   1.496   0.060  0.1115  0.0802  0.3680
 7804SOL     OW30981   5.910   2.022   1.746 -0.2885  0.1439  0.4609
 7804SOL    HW230982   5.869   2.024   1.832 -0.0967 -1.8943  0.6615
 7804SOL    HW330983   5.963   1.942   1.747 -0.0738  0.2141 -1.4445
 7804SOL    MW430984   5.911   2.011   1.757 -0.2349 -0.1157  0.2360
 7805SOL     OW30985   6.079   1.696   3.560 -0.1071 -0.0308  0.0095
 7805SOL    HW230986   6.095   1.701   3.465  0.0223  0.2511  0.0433
 7805SOL    HW330987   6.095   1.604   3.582  4.5391  0.6125  0.5211
 7805SOL    MW430988   6.083   1.684   3.550  0.5230  0.0913  0.0814
 7806SOL     OW30989   0.847   1.234   3.669 -0.1545 -0.1553  0.0273
 7806SOL    HW230990   0.773   1.270   3.719 -0.6917  0.1844 -0.9911
 7806SOL    HW330991   0.891   1.311   3.634  0.5495 -0.3698  0.4262
 7806SOL    MW430992   0.843   1.249   3.671 -0.1325 -0.1388 -0.0544
 7807SOL     OW30993   4.121   3.017   3.354 -0.0374 -0.2550  0.0012
 7807SOL    HW230994   4.098   3.082   3.419  1.1454 -0.2788  0.4710
 7807SOL    HW330995   4.164   2.947   3.404  1.2812 -0.0749 -0.8147
 7807SOL    MW430996   4.124   3.016   3.369  0.2926 -0.2344 -0.0444
 7808SOL     OW30997   0.387   3.891   6.304  0.3353  0.2859 -0.6438
 7808SOL    HW230998   0.421   3.816   6.254 -0.8961 -0.5803 -0.2156
 7808SOL    HW330999   0.402   3.867   6.396 -2.7241 -0.8462 -0.3404
 7808SOL    MW431000   0.394   3.878   6.310 -0.2308  0.0223 -0.5473
 7809SOL     OW31001   1.895   1.651   1.884 -0.4277 -0.0127  0.2191
 7809SOL    HW231002   1.897   1.733   1.933 -0.8081 -0.4931  1.0644
 7809SOL    HW331003   1.803   1.638   1.863 -0.3701 -0.2335  0.0989
 7809SOL    MW431004   1.883   1.660   1.887 -0.4703 -0.1052  0.3148
 7810SOL     OW31005   5.259   4.474   0.393  0.2614  0.2780 -0.5293
 7810SOL    HW231006   5.264   4.545   0.330  1.3526  1.5137  0.8890
 7810SOL    HW331007   5.204   4.508   0.464  1.0983 -0.1283  0.3403
 7810SOL    MW431008   5.252   4.488   0.394  0.5158  0.3874 -0.2274
 7811SOL     OW31009   4.821   6.354   0.624  0.0073  0.2698 -0.1353
 7811SOL    HW231010   4.896   6.404   0.589  1.1158 -1.5098 -0.4358
 7811SOL    HW331011   4.840   6.345   0.717 -0.8087  1.3764  0.1665
 7811SOL    MW431012   4.834   6.360   0.632  0.0459  0.1810 -0.1351
 7812SOL     OW31013   6.357   0.061   3.817 -0.3206  0.4015 -0.4996
 7812SOL    HW231014   6.277   0.045   3.866 -0.5528 -0.5909 -1.1787
 7812SOL    HW331015   6.423   0.006   3.860 -0.9083 -1.8375 -2.2652
 7812SOL    MW431016   6.355   0.052   3.829 -0.4288 -0.0249 -0.8222
 7813SOL     OW31017   0.752   1.510   3.592  0.2119 -0.4512  0.1490
 7813SOL    HW231018   0.705   1.521   3.674  0.1513 -1.5261  0.2712
 7813SOL    HW331019   0.690   1.465   3.534  0.7149 -0.9014 -0.0445
 7813SOL    MW431020   0.738   1.506   3.595  0.2703 -0.6524  0.1396
 7814SOL     OW31021   5.593   6.283   1.445 -0.1074 -0.3675  0.1153
 7814SOL    HW231022   5.636   6.360   1.483 -0.8106  0.3825 -0.5650
 7814SOL    HW331023   5.510   6.275   1.493 -0.3499 -0.2760 -0.2815
 7814SOL    MW431024   5.588   6.292   1.457 -0.2322 -0.2565 -0.0268
 7815SOL     OW31025   5.935   5.687   3.056  0.2153  0.7347  0.1562
 7815SOL    HW231026   5.990   5.642   2.992 -1.8151 -2.0041  0.1398
 7815SOL    HW331027   5.880   5.745   3.004 -2.3495 -2.4260 -1.0271
 7815SOL    MW431028   5.935   5.689   3.041 -0.3910 -0.0436 -0.0021
 7816SOL     OW31029   5.624   2.906   4.133  0.2005  0.6378  0.1591
 7816SOL    HW231030   5.633   2.987   4.083  0.1603  0.8787  0.5420
 7816SOL    HW331031   5.714   2.876   4.145  0.3115  1.3483  1.1960
 7816SOL    MW431032   5.637   2.913   4.128  0.2098  0.7633  0.3464
 7817SOL     OW31033   1.581   3.594   2.880 -0.0930  0.0805  0.5538
 7817SOL    HW231034   1.522   3.669   2.886 -0.2672  0.2653 -2.2762
 7817SOL    HW331035   1.549   3.533   2.947 -0.2133  2.2651  2.6166
 7817SOL    MW431036   1.569   3.596   2.890 -0.1319  0.3931  0.4526
 7818SOL     OW31037   4.752   5.281   3.165  0.3942  0.9364 -0.2994
 7818SOL    HW231038   4.724   5.194   3.193  2.0183 -0.6316 -3.0630
 7818SOL    HW331039   4.679   5.339   3.189 -1.5450 -1.4936  0.0200
 7818SOL    MW431040   4.739   5.277   3.172  0.3526  0.4089 -0.6219
 7819SOL     OW31041   5.001   4.014   1.127  0.0200  0.0731 -0.3690
 7819SOL    HW231042   5.004   3.965   1.045 -0.6113 -1.6431  0.5827
 7819SOL    HW331043   4.982   4.105   1.101 -2.5920 -0.8336 -2.0074
 7819SOL    MW431044   4.999   4.020   1.113 -0.4079 -0.2730 -0.4596
 7820SOL     OW31045   5.053   0.616   6.307  0.6985  0.0961  0.4567
 7820SOL    HW231046   5.047   0.635   6.213  0.1744  2.1842  0.8617
 7820SOL    HW331047   4.963   0.615   6.338  0.9092  0.8516  1.1613
 7820SOL    MW431048   5.041   0.618   6.299  0.6572  0.4713  0.6031
 7821SOL     OW31049   4.146   5.810   2.313  0.0438  0.3719  0.2796
 7821SOL    HW231050   4.188   5.847   2.236  0.2374 -1.0716 -0.3460
 7821SOL    HW331051   4.215   5.761   2.357 -0.8071 -1.6417 -0.5072
 7821SOL    MW431052   4.161   5.808   2.308 -0.0429 -0.0842  0.0933
 7822SOL     OW31053   2.370   2.304   3.852 -0.0559  0.4318 -0.0024
 7822SOL    HW231054   2.360   2.301   3.947  0.0068 -0.3086 -0.0182
 7822SOL    HW331055   2.464   2.291   3.837 -0.1627 -0.1533 -0.1910
 7822SOL    MW431056   2.381   2.302   3.862 -0.0617  0.2569 -0.0293
 7823SOL     OW31057   0.330   1.095   5.424  0.3909 -0.0891 -0.0399
 7823SOL    HW231058   0.389   1.133   5.489 -0.4812  1.8822 -0.3378
 7823SOL    HW331059   0.385   1.079   5.348  0.4382  2.7407 -0.7070
 7823SOL    MW431060   0.345   1.098   5.423  0.2821  0.5443 -0.1672
 7824SOL     OW31061   3.708   4.131   2.887  0.6930 -0.6556  0.3959
 7824SOL    HW231062   3.779   4.134   2.822  1.9746 -0.4740  1.7535
 7824SOL    HW331063   3.648   4.200   2.858  0.9082 -0.9847 -0.9310
 7824SOL    MW431064   3.709   4.141   2.874  0.8904 -0.6750  0.4000
 7825SOL     OW31065   0.553   2.126   1.008  0.3143  0.3129  0.8438
 7825SOL    HW231066   0.626   2.180   1.038 -0.7326  1.1203  2.0466
 7825SOL    HW331067   0.551   2.053   1.070  2.0941 -1.5294 -1.1170
 7825SOL    MW431068   0.563   2.123   1.020  0.4110  0.1764  0.7438
 7826SOL     OW31069   2.446   0.440   5.929 -0.5800 -0.0664 -0.1181
 7826SOL    HW231070   2.395   0.503   5.980  1.4019  2.0940 -0.6412
 7826SOL    HW331071   2.506   0.401   5.992  0.9479  1.6185 -0.4482
 7826SOL    MW431072   2.447   0.443   5.944 -0.1169  0.4409 -0.2306
 7827SOL     OW31073   3.474   2.708   4.515  0.3176 -0.1068 -0.4605
 7827SOL    HW231074   3.444   2.796   4.537 -0.6325 -0.5697  0.1879
 7827SOL    HW331075   3.426   2.686   4.435  1.1160  0.2326 -1.0475
 7827SOL    MW431076   3.463   2.717   4.507  0.2976 -0.1231 -0.4524
 7828SOL     OW31077   2.076   1.104   1.171  0.5269  0.7431 -0.1972
 7828SOL    HW231078   2.056   1.027   1.119  0.7943  1.4127 -1.3287
 7828SOL    HW331079   2.114   1.070   1.252 -2.6265 -0.4883  0.9305
 7828SOL    MW431080   2.078   1.090   1.175  0.1461  0.6690 -0.1977
 7829SOL     OW31081   4.537   0.528   1.347  0.5971 -0.2457 -0.1471
 7829SOL    HW231082   4.447   0.547   1.323  0.6350 -0.7801 -0.7283
 7829SOL    HW331083   4.554   0.583   1.424  0.4424  1.4561 -1.2762
 7829SOL    MW431084   4.528   0.538   1.354  0.5817 -0.0917 -0.3727
 7830SOL     OW31085   3.000   3.001   3.132 -0.2648 -0.1140  0.0027
 7830SOL    HW231086   3.058   3.065   3.091  1.7672 -1.2991  0.8714
 7830SOL    HW331087   2.935   2.980   3.065 -0.7664  2.5302 -0.4214
 7830SOL    MW431088   2.999   3.006   3.118 -0.0629  0.0785  0.0614
 7831SOL     OW31089   4.104   6.006   0.989  0.2962  0.3205 -0.0014
 7831SOL    HW231090   4.160   5.933   1.017 -0.9500 -1.4643 -1.8599
 7831SOL    HW331091   4.036   6.011   1.055 -0.3028 -1.1057 -0.4478
 7831SOL    MW431092   4.103   5.997   1.001  0.0528 -0.1031 -0.3055
 7832SOL     OW31093   4.700   4.184   1.269 -0.2206 -0.1990 -0.6067
 7832SOL    HW231094   4.724   4.117   1.333  2.1913  0.1645 -1.0148
 7832SOL    HW331095   4.742   4.154   1.187 -0.6640  0.8641 -1.2429
 7832SOL    MW431096   4.709   4.171   1.266  0.0391 -0.0108 -0.7445
 7833SOL     OW31097   0.319   5.077   1.193  0.1775 -0.2249  0.4805
 7833SOL    HW231098   0.305   5.170   1.180  1.5113 -0.1464 -0.7202
 7833SOL    HW331099   0.341   5.044   1.106  0.7062 -1.4588  1.0505
 7833SOL    MW431100   0.320   5.085   1.180  0.4232 -0.3774  0.3973
 7834SOL     OW31101   0.293   4.918   2.082  0.1280 -0.0092  0.5772
 7834SOL    HW231102   0.302   4.923   2.178 -0.8244 -0.5311  0.7086
 7834SOL    HW331103   0.198   4.911   2.068  0.3107 -0.6227 -0.3713
 7834SOL    MW431104   0.282   4.918   2.093  0.0265 -0.1590  0.4694
 7835SOL     OW31105   1.386   6.127   3.707  0.7784  0.4332  0.7891
 7835SOL    HW231106   1.325   6.068   3.662 -0.5491  1.6055  0.9551
 7835SOL    HW331107   1.384   6.207   3.655  0.4271  1.2660  2.0275
 7835SOL    MW431108   1.378   6.130   3.694  0.5569  0.6977  0.9744
 7836SOL     OW31109   4.224   2.832   6.148 -0.0498 -1.1975  0.1243
 7836SOL    HW231110   4.147   2.818   6.092  0.2245 -2.2176 -0.0220
 7836SOL    HW331111   4.226   2.756   6.206  0.9912 -1.3251 -0.0517
 7836SOL    MW431112   4.214   2.820   6.148  0.1238 -1.3489  0.0817
 7837SOL     OW31113   1.937   5.844   3.623  0.0854 -0.3603 -0.0859
 7837SOL    HW231114   1.850   5.845   3.584  0.4223 -2.2811 -1.0643
 7837SOL    HW331115   1.996   5.836   3.548  0.9809 -0.6961  0.6327
 7837SOL    MW431116   1.934   5.843   3.608  0.2480 -0.6580 -0.1202
 7838SOL     OW31117   4.887   0.162   2.730 -0.7039  0.0081 -0.3127
 7838SOL    HW231118   4.978   0.134   2.721 -0.6286  0.4519 -0.9121
 7838SOL    HW331119   4.836   0.082   2.716 -0.4240 -0.1772 -0.2779
 7838SOL    MW431120   4.892   0.148   2.727 -0.6571  0.0422 -0.3872
 7839SOL     OW31121   3.345   0.537   0.963 -0.0342  0.3726 -0.5736
 7839SOL    HW231122   3.334   0.550   1.057  2.3443  0.4626 -0.2441
 7839SOL    HW331123   3.371   0.623   0.930 -0.4913  0.2521 -1.2751
 7839SOL    MW431124   3.347   0.550   0.971  0.2193  0.3686 -0.6227
 7840SOL     OW31125   2.572   6.081   4.235 -0.1779 -0.2643  0.1682
 7840SOL    HW231126   2.583   6.111   4.145 -2.4748 -1.5248 -0.6138
 7840SOL    HW331127   2.483   6.106   4.258  0.3724  0.0542  2.1304
 7840SOL    MW431128   2.562   6.088   4.226 -0.4083 -0.3886  0.3239
 7841SOL     OW31129   1.369   3.330   4.786 -0.3598 -1.1582 -0.2311
 7841SOL    HW231130   1.395   3.306   4.696  1.3166  1.5781 -0.5815
 7841SOL    HW331131   1.273   3.335   4.782 -0.3364 -1.2879 -1.8114
 7841SOL    MW431132   1.360   3.327   4.773 -0.1355 -0.8143 -0.4858
 7842SOL     OW31133   5.142   0.935   4.322 -0.0651  0.6527  0.4110
 7842SOL    HW231134   5.150   0.933   4.227 -0.8260 -2.1578  0.3212
 7842SOL    HW331135   5.226   0.900   4.354 -0.4621 -0.0622  0.6844
 7842SOL    MW431136   5.154   0.930   4.314 -0.2179  0.1876  0.4353
 7843SOL     OW31137   1.155   5.177   2.320  0.0652 -0.2760  0.6262
 7843SOL    HW231138   1.092   5.216   2.260 -0.0468 -0.1760  0.8078
 7843SOL    HW331139   1.183   5.097   2.277  1.6013  0.8433 -0.5517
 7843SOL    MW431140   1.150   5.171   2.307  0.2531 -0.1151  0.4947
 7844SOL     OW31141   1.803   4.679   4.263  0.1646 -0.6177 -0.3610
 7844SOL    HW231142   1.708   4.684   4.272  0.3633  3.2918  2.2762
 7844SOL    HW331143   1.837   4.703   4.350  3.6117 -2.2417 -1.0893
 7844SOL    MW431144   1.795   4.683   4.276  0.6456 -0.3162 -0.1091
 7845SOL     OW31145   0.885   4.872   4.324 -0.0889 -0.2312  0.3390
 7845SOL    HW231146   0.842   4.922   4.393  0.4321 -0.3035  0.7213
 7845SOL    HW331147   0.961   4.925   4.300  0.5632 -0.9015  0.8609
 7845SOL    MW431148   0.889   4.885   4.330  0.0659 -0.3292  0.4583
 7846SOL     OW31149   1.493   1.872   6.313 -0.1052  0.5252  0.2661
 7846SOL    HW231150   1.577   1.916   6.318 -1.0643  2.4882 -0.2609
 7846SOL    HW331151   1.492   1.830   6.227  0.5313  0.0162  0.4978
 7846SOL    MW431152   1.504   1.872   6.302 -0.1477  0.7170  0.2271
 7847SOL     OW31153   4.363   4.657   2.585 -0.4541  0.2490 -0.2214
 7847SOL    HW231154   4.389   4.640   2.494 -1.3558  1.1077 -0.6648
 7847SOL    HW331155   4.272   4.626   2.590 -0.2589 -0.2117  0.5150
 7847SOL    MW431156   4.354   4.651   2.573 -0.5473  0.3015 -0.1827
 7848SOL     OW31157   2.939   4.570   2.203  0.4099 -1.3121 -0.0923
 7848SOL    HW231158   2.883   4.611   2.268 -0.4528  0.2088 -1.7141
 7848SOL    HW331159   3.025   4.564   2.246  0.3136  1.2468  0.6420
 7848SOL    MW431160   2.943   4.575   2.217  0.2834 -0.7738 -0.2094
 7849SOL     OW31161   5.132   4.665   5.924 -0.4191  0.4904  0.3009
 7849SOL    HW231162   5.130   4.615   6.006  2.2857 -0.0009  0.1449
 7849SOL    HW331163   5.196   4.734   5.939 -0.3389  0.7823 -1.2124
 7849SOL    MW431164   5.140   4.667   5.937 -0.0516  0.4641  0.0807
 7850SOL     OW31165   1.827   4.089   5.008 -0.1928 -0.0755  0.0414
 7850SOL    HW231166   1.915   4.127   5.006 -0.5647  0.7959 -1.0730
 7850SOL    HW331167   1.773   4.150   4.957 -0.6172 -2.6329 -2.8045
 7850SOL    MW431168   1.831   4.102   5.001 -0.2979 -0.2979 -0.4811
 7851SOL     OW31169   1.620   4.867   4.595 -0.4651  0.1151 -0.4624
 7851SOL    HW231170   1.574   4.920   4.529 -2.3338  1.0437  1.4837
 7851SOL    HW331171   1.638   4.928   4.667  1.8537 -0.7844 -0.1774
 7851SOL    MW431172   1.616   4.882   4.596 -0.4057  0.1190 -0.1680
 7852SOL     OW31173   3.854   5.305   2.208 -0.3141 -0.1403 -0.0042
 7852SOL    HW231174   3.891   5.335   2.291  1.1690  0.6571 -0.9047
 7852SOL    HW331175   3.918   5.332   2.142 -1.4476 -0.7530 -1.4162
 7852SOL    MW431176   3.867   5.313   2.210 -0.2679 -0.1160 -0.3093
 7853SOL     OW31177   3.072   0.448   5.807 -0.0572  0.0272 -0.4961
 7853SOL    HW231178   3.080   0.352   5.812  4.8227  0.1897 -0.1688
 7853SOL    HW331179   3.097   0.469   5.717  1.4221  1.0572  0.1247
 7853SOL    MW431180   3.076   0.438   5.796  0.7818  0.1845 -0.3710
 7854SOL     OW31181   5.280   0.329   6.045 -0.9463  0.2953  0.3280
 7854SOL    HW231182   5.336   0.406   6.046 -0.0298 -0.3232 -0.5909
 7854SOL    HW331183   5.284   0.296   6.135  0.5215  0.0535  0.2131
 7854SOL    MW431184   5.288   0.335   6.057 -0.6317  0.1818  0.1916
 7855SOL     OW31185   6.119   4.861   3.199  0.4384  0.0652 -0.3609
 7855SOL    HW231186   6.207   4.897   3.189  1.5751 -2.2064  0.5987
 7855SOL    HW331187   6.128   4.769   3.171 -1.4647 -0.3750  0.3445
 7855SOL    MW431188   6.132   4.853   3.194  0.3373 -0.2926 -0.1412
 7856SOL     OW31189   5.116   5.996   1.836  0.1108  0.3157 -0.3663
 7856SOL    HW231190   5.166   5.962   1.910  0.3680 -1.5636 -1.3102
 7856SOL    HW331191   5.051   5.928   1.818 -1.5253  1.8264 -0.3903
 7856SOL    MW431192   5.114   5.982   1.843 -0.0711  0.2671 -0.4940
 7857SOL     OW31193   3.551   4.950   5.919  0.1690  0.2397 -0.0397
 7857SOL    HW231194   3.527   5.022   5.977 -1.3900  0.5743 -1.0535
 7857SOL    HW331195   3.642   4.966   5.897  0.6390  0.4240  1.8187
 7857SOL    MW431196   3.560   4.962   5.924  0.0253  0.3082  0.0717
 7858SOL     OW31197   4.898   2.767   0.429  0.3170 -0.2334 -0.6130
 7858SOL    HW231198   4.936   2.680   0.418 -0.2338 -0.4337 -0.9649
 7858SOL    HW331199   4.851   2.761   0.513  0.3937 -0.2354 -0.5703
 7858SOL    MW431200   4.897   2.754   0.439  0.2544 -0.2601 -0.6538
 7859SOL     OW31201   3.609   1.942   3.220 -0.6052 -0.0617 -0.0095
 7859SOL    HW231202   3.529   1.945   3.167 -0.3668  2.4754 -0.3116
 7859SOL    HW331203   3.674   1.899   3.163 -1.4733 -1.3641 -0.0675
 7859SOL    MW431204   3.607   1.936   3.205 -0.6882  0.1012 -0.0570
 7860SOL     OW31205   3.166   1.876   6.092  0.3806  0.8681  0.4134
 7860SOL    HW231206   3.188   1.802   6.148 -1.5328  0.6712  0.9890
 7860SOL    HW331207   3.115   1.934   6.148 -2.4861  0.1952 -1.2927
 7860SOL    MW431208   3.162   1.874   6.106 -0.2501  0.7533  0.2642
 7861SOL     OW31209   2.526   4.635   3.567 -0.4526 -0.7359 -0.8393
 7861SOL    HW231210   2.593   4.701   3.586 -1.2251 -0.0048 -0.5890
 7861SOL    HW331211   2.532   4.622   3.472 -1.5899  1.1695 -1.2197
 7861SOL    MW431212   2.536   4.642   3.557 -0.7046 -0.3880 -0.8564
 7862SOL     OW31213   1.956   2.555   5.475 -0.4806 -0.2541  0.3383
 7862SOL    HW231214   1.895   2.544   5.547 -0.1766 -0.6123  0.5461
 7862SOL    HW331215   1.925   2.494   5.408 -0.1343 -0.7202  0.5938
 7862SOL    MW431216   1.944   2.545   5.475 -0.3948 -0.3629  0.3994
 7863SOL     OW31217   0.833   1.295   0.036 -0.0916 -0.4597 -0.4000
 7863SOL    HW231218   0.849   1.202   0.024 -0.6421 -0.7604  0.9260
 7863SOL    HW331219   0.905   1.339  -0.009 -0.0940 -1.4971 -1.4560
 7863SOL    MW431220   0.844   1.289   0.029 -0.1645 -0.6362 -0.3644
 7864SOL     OW31221   1.207   2.984   2.733 -0.4024 -0.6288  0.1153
 7864SOL    HW231222   1.275   2.928   2.694 -0.9759 -0.1660 -1.6501
 7864SOL    HW331223   1.128   2.931   2.731 -1.0315  0.2942 -1.9017
 7864SOL    MW431224   1.206   2.969   2.727 -0.5611 -0.4460 -0.3838
 7865SOL     OW31225   3.065   6.210   5.326  0.3627 -0.1237 -0.3264
 7865SOL    HW231226   3.011   6.238   5.400  1.9574 -2.1463  1.7561
 7865SOL    HW331227   3.010   6.148   5.278 -0.1651  0.0531  0.0411
 7865SOL    MW431228   3.051   6.205   5.330  0.5035 -0.3672 -0.0032
 7866SOL     OW31229   2.092   5.126   5.625 -0.1664  0.3330  0.0286
 7866SOL    HW231230   2.009   5.077   5.626 -0.0502 -0.0383  3.4963
 7866SOL    HW331231   2.078   5.195   5.560 -2.6399 -0.6025 -0.5513
 7866SOL    MW431232   2.079   5.129   5.617 -0.4775  0.1606  0.4096
 7867SOL     OW31233   3.443   2.458   1.610 -0.4071  0.3004 -1.0191
 7867SOL    HW231234   3.408   2.538   1.571  1.0132  0.3669 -2.2417
 7867SOL    HW331235   3.508   2.427   1.547  0.5963 -0.6523  0.4248
 7867SOL    MW431236   3.447   2.464   1.596 -0.0873  0.1835 -0.9899
 7868SOL     OW31237   5.881   6.295   5.889  0.3306  0.0363 -0.1841
 7868SOL    HW231238   5.925   6.315   5.806 -1.8474 -0.1833 -1.4740
 7868SOL    HW331239   5.940   6.234   5.933  2.1916  1.2351 -0.9145
 7868SOL    MW431240   5.895   6.289   5.884  0.2888  0.1655 -0.4506
 7869SOL     OW31241   1.274   4.729   1.371  0.0605  0.0428  0.1114
 7869SOL    HW231242   1.347   4.790   1.377  0.3778 -0.2068 -0.9167
 7869SOL    HW331243   1.307   4.649   1.411 -0.1753  0.3832  0.9930
 7869SOL    MW431244   1.288   4.726   1.377  0.0713  0.0548  0.0921
 7870SOL     OW31245   1.221   2.898   3.112 -0.2477  0.6239  0.4258
 7870SOL    HW231246   1.277   2.880   3.188 -0.9170  0.9585  1.0153
 7870SOL    HW331247   1.230   2.821   3.057  1.4236  1.0225  0.1068
 7870SOL    MW431248   1.229   2.885   3.115 -0.1155  0.7206  0.4615
 7871SOL     OW31249   1.839   3.686   2.804 -0.0984  0.3783  0.1340
 7871SOL    HW231250   1.752   3.655   2.828 -0.7515  0.9146 -1.4595
 7871SOL    HW331251   1.881   3.704   2.888  0.2122 -4.2076  1.2253
 7871SOL    MW431252   1.833   3.684   2.819 -0.1436 -0.1560  0.0677
 7872SOL     OW31253   5.169   0.405   3.963 -0.8933  0.1936 -0.3859
 7872SOL    HW231254   5.135   0.467   4.027 -0.3635 -0.2392  0.3219
 7872SOL    HW331255   5.104   0.407   3.892 -0.9826  1.4097 -0.3047
 7872SOL    MW431256   5.156   0.414   3.962 -0.8351  0.2969 -0.2818
 7873SOL     OW31257   5.521   1.678   0.657  0.2299 -0.3522  0.1833
 7873SOL    HW231258   5.510   1.666   0.562 -1.7490 -1.2832  0.4818
 7873SOL    HW331259   5.604   1.635   0.677  0.0641 -1.2456 -0.9469
 7873SOL    MW431260   5.531   1.671   0.647 -0.0531 -0.5929  0.0736
 7874SOL     OW31261   2.696   0.513   5.415  0.0212 -0.1951 -0.0186
 7874SOL    HW231262   2.742   0.597   5.408  0.6505 -0.3573  1.8319
 7874SOL    HW331263   2.729   0.474   5.495 -1.6192 -1.4045  0.1102
 7874SOL    MW431264   2.706   0.519   5.425 -0.1122 -0.3760  0.2426
 7875SOL     OW31265   3.877   5.375   3.755 -0.4989 -0.2324 -0.2396
 7875SOL    HW231266   3.937   5.410   3.689  0.3657  3.6900  2.2749
 7875SOL    HW331267   3.933   5.322   3.812 -0.3988 -0.3237 -0.4217
 7875SOL    MW431268   3.893   5.373   3.754 -0.3716  0.2730  0.0681
 7876SOL     OW31269   5.265   2.916   2.554 -0.1463 -0.2218 -0.8915
 7876SOL    HW231270   5.201   2.948   2.618 -0.4420 -0.0197 -1.2848
 7876SOL    HW331271   5.285   2.993   2.500  0.9030 -0.1159 -0.3812
 7876SOL    MW431272   5.259   2.931   2.555 -0.0469 -0.1812 -0.8760
 7877SOL     OW31273   0.212   4.181   4.020 -0.1701 -0.1650 -0.1142
 7877SOL    HW231274   0.289   4.237   4.031  0.1445 -0.0464 -2.3476
 7877SOL    HW331275   0.232   4.101   4.069  0.5412  0.6221  0.8902
 7877SOL    MW431276   0.225   4.177   4.028 -0.0347 -0.0455 -0.2763
 7878SOL     OW31277   1.098   3.563   3.711  0.0679  0.2126 -0.4583
 7878SOL    HW231278   1.159   3.526   3.775 -1.9109 -0.2668  1.2889
 7878SOL    HW331279   1.044   3.489   3.684 -0.0510  0.7050 -1.6171
 7878SOL    MW431280   1.099   3.549   3.716 -0.2089  0.2143 -0.3807
 7879SOL     OW31281   5.779   1.382   0.886  0.1654  0.6937  0.4693
 7879SOL    HW231282   5.778   1.451   0.820  1.1250 -1.7953 -2.3524
 7879SOL    HW331283   5.694   1.339   0.876  0.9772 -0.7605 -0.4246
 7879SOL    MW431284   5.768   1.386   0.876  0.3991  0.1735 -0.0209
 7880SOL     OW31285   3.089   2.382   4.617 -0.0046 -0.0547  0.3264
 7880SOL    HW231286   3.117   2.406   4.705 -0.4607 -0.8454  0.7048
 7880SOL    HW331287   3.165   2.397   4.562  0.0267  1.2907  0.6910
 7880SOL    MW431288   3.103   2.387   4.622 -0.0606  0.0185  0.4245
 7881SOL     OW31289   0.863   2.247   4.075 -0.0447  0.3506 -0.0319
 7881SOL    HW231290   0.871   2.325   4.130 -1.2909 -0.0030  0.6845
 7881SOL    HW331291   0.871   2.174   4.136 -0.0127 -0.0767 -0.5407
 7881SOL    MW431292   0.865   2.248   4.090 -0.2049  0.2475 -0.0045
 7882SOL     OW31293   3.988   3.011   2.602  0.1716  0.1253 -0.1455
 7882SOL    HW231294   3.913   3.021   2.661  1.0084 -0.3969  1.0478
 7882SOL    HW331295   3.973   3.076   2.533 -2.1965 -1.0623 -0.8550
 7882SOL    MW431296   3.976   3.021   2.601 -0.0304 -0.1003 -0.0817
 7883SOL     OW31297   0.520   3.990   3.675  0.1607  0.1469 -0.0813
 7883SOL    HW231298   0.579   3.916   3.690 -2.2657 -1.9525 -0.2868
 7883SOL    HW331299   0.525   4.042   3.755  0.1118 -1.6037  1.1055
 7883SOL    MW431300   0.529   3.987   3.687 -0.1659 -0.3610  0.0482
 7884SOL     OW31301   4.442   3.489   3.717 -0.2180  0.1586  0.1574
 7884SOL    HW231302   4.382   3.466   3.646 -1.2171  2.2438  0.2761
 7884SOL    HW331303   4.518   3.432   3.703 -1.8836 -2.0644 -0.4027
 7884SOL    MW431304   4.444   3.478   3.706 -0.5696  0.1404  0.0991
 7885SOL     OW31305   2.993   0.081   2.330 -0.4159 -0.2509  1.0030
 7885SOL    HW231306   2.899   0.072   2.314 -0.7351  0.4922  2.2511
 7885SOL    HW331307   3.026  -0.009   2.329 -0.6167 -0.3701 -2.0997
 7885SOL    MW431308   2.985   0.068   2.328 -0.4845 -0.1686  0.7583
 7886SOL     OW31309   3.170   3.130   2.947 -0.9350  0.1121  0.2412
 7886SOL    HW231310   3.104   3.197   2.964 -2.3906 -0.4448 -2.5927
 7886SOL    HW331311   3.166   3.115   2.853  0.7678 -2.5380  0.4681
 7886SOL    MW431312   3.161   3.137   2.937 -0.9024 -0.3110 -0.1028
 7887SOL     OW31313   3.364   0.202   5.948  0.1261  0.6333 -0.8825
 7887SOL    HW231314   3.396   0.114   5.927  0.0121  0.4435 -0.2881
 7887SOL    HW331315   3.351   0.244   5.863  2.4077  0.8926 -1.1677
 7887SOL    MW431316   3.367   0.196   5.934  0.4121  0.6425 -0.8417
 7888SOL     OW31317   5.522   4.940   2.255  0.1090  0.8695  0.5253
 7888SOL    HW231318   5.599   4.887   2.235 -0.1681  0.3642  0.7803
 7888SOL    HW331319   5.520   4.944   2.351 -0.3490  0.6250  0.5292
 7888SOL    MW431320   5.532   4.934   2.265  0.0120  0.7706  0.5595
 7889SOL     OW31321   4.974   6.370   6.323 -0.0551 -0.1795  0.5715
 7889SOL    HW231322   4.926   6.445   6.289 -0.1517 -0.8242 -0.8212
 7889SOL    HW331323   4.931   6.294   6.283  1.2653 -0.8517  0.3573
 7889SOL    MW431324   4.962   6.370   6.313  0.1064 -0.3533  0.3595
 7890SOL     OW31325   4.352   6.195   4.867  0.0473  0.2264 -0.3756
 7890SOL    HW231326   4.404   6.118   4.885 -0.4883 -0.6374 -2.1978
 7890SOL    HW331327   4.416   6.265   4.855  0.5440  0.0715  1.1651
 7890SOL    MW431328   4.367   6.194   4.867  0.0422  0.0920 -0.4128
 7891SOL     OW31329   0.531   1.996   2.280  0.3957 -0.4093 -0.1509
 7891SOL    HW231330   0.608   2.044   2.309  0.8717 -1.5256  0.4922
 7891SOL    HW331331   0.477   2.061   2.235  0.3463  1.0591  1.9002
 7891SOL    MW431332   0.534   2.011   2.278  0.4520 -0.3628  0.2046
 7892SOL     OW31333   1.691   5.574   2.494  0.1426  0.6864 -0.0167
 7892SOL    HW231334   1.702   5.668   2.513  1.0475  0.6377 -0.2147
 7892SOL    HW331335   1.658   5.571   2.404 -0.9066  0.8318  0.3510
 7892SOL    MW431336   1.688   5.586   2.485  0.1236  0.6991  0.0057
 7893SOL     OW31337   0.295   2.969   4.124 -0.1391 -0.3528  0.3056
 7893SOL    HW231338   0.390   2.977   4.112 -0.2016  1.8647  0.8434
 7893SOL    HW331339   0.285   2.904   4.194  1.0523  0.3332  1.1505
 7893SOL    MW431340   0.306   2.961   4.132  0.0098  0.0303  0.4881
 7894SOL     OW31341   0.965   5.830   2.758 -0.0433 -0.1464  0.2779
 7894SOL    HW231342   0.883   5.847   2.711  0.1953  0.3599  0.0307
 7894SOL    HW331343   0.946   5.854   2.849  0.0094  0.5745  0.1054
 7894SOL    MW431344   0.952   5.836   2.764 -0.0049  0.0155  0.2225
 7895SOL     OW31345   0.202   2.611   3.925  0.1207  0.1597 -0.0863
 7895SOL    HW231346   0.204   2.532   3.871  2.8275 -0.3236  0.5745
 7895SOL    HW331347   0.158   2.676   3.871 -0.9218 -1.4128 -1.2017
 7895SOL    MW431348   0.197   2.609   3.911  0.3403 -0.1116 -0.1463
 7896SOL     OW31349   3.864   2.327   0.651 -0.7835 -0.0423  0.0022
 7896SOL    HW231350   3.844   2.415   0.619 -3.1403 -0.7746 -0.6700
 7896SOL    HW331351   3.946   2.304   0.606 -1.7836  0.6079 -2.2867
 7896SOL    MW431352   3.872   2.336   0.641 -1.2264 -0.0531 -0.3885
 7897SOL     OW31353   5.741   5.804   5.642  0.1626 -0.5689  0.1332
 7897SOL    HW231354   5.693   5.726   5.670 -0.5224 -0.6273 -1.1295
 7897SOL    HW331355   5.716   5.816   5.550  1.6673  0.1007 -0.2108
 7897SOL    MW431356   5.731   5.795   5.633  0.2708 -0.4883 -0.0788
 7898SOL     OW31357   2.093   0.348   4.125 -0.1013 -0.1443  0.1971
 7898SOL    HW231358   2.146   0.404   4.069 -1.3146  0.8422 -0.0018
 7898SOL    HW331359   2.048   0.289   4.065  0.4274 -0.6880  0.3299
 7898SOL    MW431360   2.094   0.348   4.110 -0.1917 -0.0858  0.1884
 7899SOL     OW31361   2.261   3.322   2.216 -0.5262 -0.2777 -0.7225
 7899SOL    HW231362   2.288   3.231   2.209 -1.1336 -0.8722  2.7093
 7899SOL    HW331363   2.166   3.318   2.228 -0.8323  1.0057 -2.2689
 7899SOL    MW431364   2.252   3.310   2.217 -0.6467 -0.1868 -0.4738
 7900SOL     OW31365   5.220   6.030   4.877  0.5169 -0.8530  0.1955
 7900SOL    HW231366   5.252   6.043   4.967 -0.3648 -0.0034  0.4057
 7900SOL    HW331367   5.298   6.003   4.828  1.2337 -0.3388  1.0095
 7900SOL    MW431368   5.235   6.028   4.882  0.4951 -0.6730  0.3307
 7901SOL     OW31369   0.789   4.143   5.230  0.4079 -0.1425  0.1700
 7901SOL    HW231370   0.753   4.057   5.250  0.0660 -0.8141 -2.8272
 7901SOL    HW331371   0.884   4.132   5.236  0.4856 -1.4339 -2.3206
 7901SOL    MW431372   0.797   4.130   5.233  0.3730 -0.4015 -0.5540
 7902SOL     OW31373   3.036   0.686   3.115  0.1376  0.0909  0.3182
 7902SOL    HW231374   3.106   0.731   3.067  1.5755 -1.6859  0.6429
 7902SOL    HW331375   2.991   0.756   3.162  1.7123  1.3043  0.1215
 7902SOL    MW431376   3.040   0.701   3.115  0.5351  0.0166  0.3351
 7903SOL     OW31377   4.907   5.094   2.170  0.5034 -0.4662 -0.3681
 7903SOL    HW231378   4.912   5.068   2.078 -0.2770 -0.2952 -0.4634
 7903SOL    HW331379   4.952   5.023   2.216  1.8207 -0.0473 -0.9519
 7903SOL    MW431380   4.913   5.081   2.164  0.5742 -0.3884 -0.4577
 7904SOL     OW31381   4.807   4.431   6.181  0.3311  0.1310 -0.1693
 7904SOL    HW231382   4.810   4.519   6.218  0.8516 -0.5314  1.4344
 7904SOL    HW331383   4.771   4.376   6.251 -0.1416 -0.9210 -1.1950
 7904SOL    MW431384   4.803   4.435   6.195  0.3374 -0.0952 -0.0930
 7905SOL     OW31385   2.717   0.094   2.261  0.7698  0.5586 -0.1251
 7905SOL    HW231386   2.667   0.073   2.340  0.5578 -0.3376 -0.4791
 7905SOL    HW331387   2.673   0.045   2.192  0.9320  1.3577 -0.8113
 7905SOL    MW431388   2.705   0.085   2.262  0.7632  0.5458 -0.2623
 7906SOL     OW31389   1.048   0.092   5.235 -0.3292  0.0542 -0.2738
 7906SOL    HW231390   1.063   0.075   5.328 -1.2423  0.7529  0.0081
 7906SOL    HW331391   1.109   0.163   5.214  1.5998 -1.6660 -0.8191
 7906SOL    MW431392   1.058   0.099   5.245 -0.1952 -0.0806 -0.3085
 7907SOL     OW31393   2.900   1.007   6.207  0.3317  0.4297  0.0784
 7907SOL    HW231394   2.817   1.043   6.240  1.1761  0.0202  2.9320
 7907SOL    HW331395   2.951   1.085   6.185  0.0999  0.8011  0.7939
 7907SOL    MW431396   2.896   1.022   6.208  0.4125  0.4246  0.5493
 7908SOL     OW31397   1.381   2.860   3.358 -0.3989 -0.3264  0.0462
 7908SOL    HW231398   1.301   2.838   3.405 -0.5523  0.1830  0.0346
 7908SOL    HW331399   1.436   2.782   3.365 -0.0737  0.0147  1.7925
 7908SOL    MW431400   1.378   2.847   3.365 -0.3762 -0.2142  0.2751
 7909SOL     OW31401   5.055   3.043   2.682 -0.0348  0.7075  0.0833
 7909SOL    HW231402   4.997   2.978   2.721  1.3105 -1.5402 -1.4433
 7909SOL    HW331403   5.007   3.075   2.605  0.2462 -0.3432 -0.5564
 7909SOL    MW431404   5.041   3.039   2.677  0.1798  0.2723 -0.2025
 7910SOL     OW31405   5.816   3.896   5.546  0.7749 -0.0583 -0.1027
 7910SOL    HW231406   5.826   3.877   5.453  0.1326  1.4788 -0.5207
 7910SOL    HW331407   5.725   3.926   5.555  1.8075  3.3976  0.2842
 7910SOL    MW431408   5.805   3.898   5.535  0.8264  0.6004 -0.1068
 7911SOL     OW31409   3.285   1.625   6.188  0.2382  0.2479  0.1219
 7911SOL    HW231410   3.373   1.658   6.207  0.5690 -1.0177  0.8630
 7911SOL    HW331411   3.245   1.611   6.274 -0.4719  0.2325 -0.2020
 7911SOL    MW431412   3.291   1.628   6.202  0.1882  0.0789  0.1770
 7912SOL     OW31413   4.990   4.617   3.037 -0.4741 -0.1400 -0.3730
 7912SOL    HW231414   5.085   4.625   3.036 -0.5533  1.0223  0.1299
 7912SOL    HW331415   4.968   4.584   2.949  0.3412  0.2699 -0.7410
 7912SOL    MW431416   4.999   4.614   3.025 -0.3770  0.0675 -0.3552
 7913SOL     OW31417   4.533   3.018   3.691  0.6836 -0.6104  0.0820
 7913SOL    HW231418   4.489   2.937   3.668 -0.5922 -0.7243  2.6181
 7913SOL    HW331419   4.573   3.001   3.776  1.5099  1.0366  0.0778
 7913SOL    MW431420   4.533   3.005   3.699  0.6243 -0.4081  0.4161
 7914SOL     OW31421   6.214   5.393   5.520  0.4194 -0.1713  0.5013
 7914SOL    HW231422   6.128   5.399   5.562  0.8371  0.4194  1.2999
 7914SOL    HW331423   6.194   5.384   5.426 -0.5064  0.9537  0.5670
 7914SOL    MW431424   6.200   5.393   5.513  0.3523  0.0550  0.6153
 7915SOL     OW31425   0.702   5.742   4.613  0.1494  0.5121 -0.1224
 7915SOL    HW231426   0.785   5.775   4.579 -0.0295  0.2590 -0.8107
 7915SOL    HW331427   0.717   5.648   4.624  0.0878  0.5339  0.1614
 7915SOL    MW431428   0.715   5.734   4.610  0.1177  0.4816 -0.1758
 7916SOL     OW31429   4.843   5.564   3.995 -0.0923  0.6122  0.0922
 7916SOL    HW231430   4.803   5.550   4.081  0.5756  0.5291  0.3988
 7916SOL    HW331431   4.817   5.488   3.944 -0.2874  0.5361  0.2987
 7916SOL    MW431432   4.834   5.552   4.000 -0.0299  0.5912  0.1599
 7917SOL     OW31433   1.607   2.256   3.765 -0.2321 -0.3815 -0.0087
 7917SOL    HW231434   1.641   2.204   3.692 -1.2315 -2.4282  0.9029
 7917SOL    HW331435   1.683   2.273   3.820  0.2852  0.0309 -0.8208
 7917SOL    MW431436   1.622   2.251   3.763 -0.2957 -0.5972  0.0044
 7918SOL     OW31437   2.260   4.720   1.084 -0.3196 -1.0135 -0.1184
 7918SOL    HW231438   2.191   4.708   1.149  0.7882 -0.4460  1.2034
 7918SOL    HW331439   2.216   4.760   1.009 -1.1012  1.1750  1.4383
 7918SOL    MW431440   2.245   4.723   1.082 -0.2766 -0.6499  0.2614
 7919SOL     OW31441   2.180   2.891   4.079 -0.1457  0.2237 -0.0187
 7919SOL    HW231442   2.100   2.930   4.045  0.4712  1.1821 -0.4451
 7919SOL    HW331443   2.169   2.892   4.174 -1.2606 -1.0773 -0.1075
 7919SOL    MW431444   2.168   2.896   4.087 -0.2114  0.1785 -0.0866
 7920SOL     OW31445   2.351   0.216   5.388  0.3002 -0.0067 -0.2050
 7920SOL    HW231446   2.377   0.196   5.298  0.2511 -0.7547 -0.0615
 7920SOL    HW331447   2.352   0.131   5.433  1.4418  0.5084  0.8026
 7920SOL    MW431448   2.354   0.202   5.382  0.4444 -0.0374 -0.0532
 7921SOL     OW31449   3.432   2.705   5.043  0.8850  0.0988  0.0253
 7921SOL    HW231450   3.450   2.683   5.134  2.2071  1.3340  0.1073
 7921SOL    HW331451   3.430   2.620   4.998 -0.7382 -0.6012  1.3107
 7921SOL    MW431452   3.434   2.691   5.049  0.8453  0.1694  0.2057
 7922SOL     OW31453   4.065   3.165   3.826  0.7859 -0.0257  0.2412
 7922SOL    HW231454   4.018   3.170   3.909  1.2078 -1.4196  0.6019
 7922SOL    HW331455   4.157   3.161   3.850  0.9100 -0.4550 -0.2701
 7922SOL    MW431456   4.071   3.165   3.840  0.8579 -0.2663  0.2214
 7923SOL     OW31457   3.079   3.409   2.555  0.4199 -0.3827 -0.4691
 7923SOL    HW231458   3.154   3.363   2.518  2.0426  1.3809  0.4302
 7923SOL    HW331459   3.115   3.456   2.631 -2.3199 -2.3263  2.3160
 7923SOL    MW431460   3.093   3.409   2.560  0.2725 -0.4064  0.0170
 7924SOL     OW31461   4.717   4.377   2.686  0.2335  0.1868 -0.1463
 7924SOL    HW231462   4.693   4.361   2.777  0.9258  0.6404  0.1156
 7924SOL    HW331463   4.657   4.321   2.636  0.7779 -1.1699  0.6429
 7924SOL    MW431464   4.706   4.367   2.691  0.3967  0.0676 -0.0076
 7925SOL     OW31465   1.961   3.940   6.408 -0.1580  0.1165  0.5372
 7925SOL    HW231466   1.918   3.932   6.493  0.3458  1.8051  0.9796
 7925SOL    HW331467   1.928   4.023   6.372  2.4894  1.3614  0.7833
 7925SOL    MW431468   1.951   3.950   6.414  0.2578  0.5036  0.6281
 7926SOL     OW31469   2.373   2.191   1.170 -0.3236 -0.3362 -0.1535
 7926SOL    HW231470   2.427   2.239   1.233  0.6629  0.9657 -1.8854
 7926SOL    HW331471   2.349   2.110   1.215  1.6679 -0.1987  1.3035
 7926SOL    MW431472   2.377   2.187   1.184  0.0693 -0.1463 -0.1898
 7927SOL     OW31473   5.773   0.464   6.131 -0.1201  0.2273 -0.4311
 7927SOL    HW231474   5.820   0.547   6.138 -0.9877  0.7295 -0.4150
 7927SOL    HW331475   5.815   0.407   6.196  1.4294  0.1649 -1.4548
 7927SOL    MW431476   5.784   0.467   6.141 -0.0301  0.2853 -0.5641
 7928SOL     OW31477   4.631   1.961   1.309 -0.4095  0.1380 -0.0688
 7928SOL    HW231478   4.709   1.985   1.359 -0.9784  1.0325  0.4273
 7928SOL    HW331479   4.587   1.896   1.364 -0.1892 -0.1268 -0.1998
 7928SOL    MW431480   4.635   1.955   1.323 -0.4555  0.2211 -0.0206
 7929SOL     OW31481   1.708   5.025   1.134  0.0680  0.6602  0.3447
 7929SOL    HW231482   1.784   5.067   1.093  0.8345 -2.6136 -1.9626
 7929SOL    HW331483   1.634   5.051   1.079  0.5308 -0.8535 -1.0530
 7929SOL    MW431484   1.708   5.034   1.121  0.2302  0.0286 -0.1441
 7930SOL     OW31485   1.405   0.208   4.135 -0.2032 -0.0376 -0.5082
 7930SOL    HW231486   1.464   0.133   4.124  1.7441  1.0220  1.9485
 7930SOL    HW331487   1.461   0.284   4.124 -1.1685  1.0229  1.5080
 7930SOL    MW431488   1.421   0.208   4.132 -0.0737  0.2421  0.0820
 7931SOL     OW31489   4.158   1.255   5.592 -0.0084 -0.4695  0.1905
 7931SOL    HW231490   4.163   1.335   5.644  0.5323 -0.9685  0.9131
 7931SOL    HW331491   4.222   1.196   5.631  0.2414 -0.9480 -0.8821
 7931SOL    MW431492   4.167   1.258   5.604  0.0959 -0.5985  0.1444
 7932SOL     OW31493   3.473   2.517   6.387 -0.6186  0.1430  0.6249
 7932SOL    HW231494   3.414   2.497   6.459 -0.9731  0.4358  0.4256
 7932SOL    HW331495   3.530   2.441   6.379 -0.6874  0.0439  1.1048
 7932SOL    MW431496   3.473   2.505   6.395 -0.6744  0.1685  0.6619
 7933SOL     OW31497   0.563   3.045   0.720 -0.5719  0.3055 -0.7068
 7933SOL    HW231498   0.563   2.999   0.804 -0.7565  0.2341 -0.7443
 7933SOL    HW331499   0.473   3.075   0.709  0.0262  2.7034  0.3908
 7933SOL    MW431500   0.551   3.043   0.730 -0.5173  0.6125 -0.5670
 7934SOL     OW31501   0.119   5.720   0.372  0.1346  0.5416 -0.1970
 7934SOL    HW231502   0.029   5.687   0.378  0.3527  0.1973  1.6336
 7934SOL    HW331503   0.174   5.642   0.384  0.6594  1.1330  1.3933
 7934SOL    MW431504   0.114   5.705   0.374  0.2326  0.5742  0.2543
 7935SOL     OW31505   0.222   6.304   0.885 -0.1232 -0.1110  0.9941
 7935SOL    HW231506   0.185   6.227   0.842 -1.2420 -0.9051  3.2629
 7935SOL    HW331507   0.184   6.305   0.972  1.0667  2.1617  1.5867
 7935SOL    MW431508   0.212   6.294   0.891 -0.1138  0.0841  1.3716
 7936SOL     OW31509   3.337   5.644   0.246  0.1868 -0.5383 -0.4170
 7936SOL    HW231510   3.304   5.559   0.219  0.2187 -0.1370 -1.7528
 7936SOL    HW331511   3.383   5.678   0.170 -2.5613  2.0797 -1.1303
 7936SOL    MW431512   3.338   5.637   0.233 -0.1716 -0.1400 -0.6874
 7937SOL     OW31513   2.275   0.792   0.503  0.6991 -0.0507 -0.9924
 7937SOL    HW231514   2.357   0.750   0.526  0.5160  0.7396  1.3028
 7937SOL    HW331515   2.301   0.876   0.465  0.9604 -0.3153 -1.4100
 7937SOL    MW431516   2.289   0.798   0.501  0.7094  0.0187 -0.7447
 7938SOL     OW31517   4.922   6.368   3.161  0.6735  0.2870 -0.2137
 7938SOL    HW231518   4.960   6.293   3.116 -0.5122  0.8812 -2.3505
 7938SOL    HW331519   4.892   6.425   3.090  0.0992  2.0255  1.3623
 7938SOL    MW431520   4.923   6.366   3.145  0.4413  0.5947 -0.2877
 7939SOL     OW31521   2.720   4.235   5.783 -0.0805  0.2558  0.3080
 7939SOL    HW231522   2.754   4.315   5.822 -0.2892  0.3010  0.3955
 7939SOL    HW331523   2.628   4.232   5.809 -0.6099  1.0228 -1.3481
 7939SOL    MW431524   2.713   4.245   5.791 -0.1779  0.3629  0.1010
 7940SOL     OW31525   6.299   0.199   2.011 -0.1729  0.1296  0.1521
 7940SOL    HW231526   6.246   0.246   1.947 -1.0435 -0.5666  0.3378
 7940SOL    HW331527   6.275   0.237   2.095  0.5665  0.6731  0.1207
 7940SOL    MW431528   6.289   0.210   2.014 -0.1902  0.1094  0.1725
 7941SOL     OW31529   1.045   0.001   3.183  0.0027  0.2965 -0.1494
 7941SOL    HW231530   0.950   0.012   3.189 -0.0211  0.2553 -0.4629
 7941SOL    HW331531   1.075   0.077   3.134  0.1808  0.5131  0.2835
 7941SOL    MW431532   1.036   0.013   3.178  0.0230  0.3197 -0.1336
 7942SOL     OW31533   1.714   2.986   3.341 -0.3338 -0.0084 -0.2483
 7942SOL    HW231534   1.637   3.021   3.385  0.6611  0.8602  0.8705
 7942SOL    HW331535   1.703   3.010   3.249 -1.1457  0.5416 -0.0097
 7942SOL    MW431536   1.702   2.994   3.334 -0.3097  0.1788 -0.0692
 7943SOL     OW31537   5.268   4.232   5.772 -0.1727 -0.1284 -0.4339
 7943SOL    HW231538   5.256   4.327   5.766  1.6774  0.1074 -0.9960
 7943SOL    HW331539   5.346   4.221   5.828  1.0513 -1.1861 -2.2624
 7943SOL    MW431540   5.277   4.243   5.779  0.2329 -0.2368 -0.7493
 7944SOL     OW31541   2.844   1.155   2.051 -0.2754  0.3662 -0.5297
 7944SOL    HW231542   2.874   1.068   2.024 -1.5375  0.7839 -3.7040
 7944SOL    HW331543   2.792   1.186   1.977 -0.3058  3.6335  0.7185
 7944SOL    MW431544   2.841   1.147   2.037 -0.4459  0.8524 -0.7839
 7945SOL     OW31545   5.014   0.347   6.030 -0.1679  0.3177 -0.1450
 7945SOL    HW231546   4.993   0.441   6.027 -3.0091 -0.2116 -0.0953
 7945SOL    HW331547   5.109   0.344   6.030  0.0689  3.1416 -2.2028
 7945SOL    MW431548   5.024   0.359   6.030 -0.5115  0.6205 -0.4100
 7946SOL     OW31549   1.100   1.153   5.595 -0.3886 -0.0232 -0.0277
 7946SOL    HW231550   1.098   1.058   5.585  1.8667 -0.3210  1.7059
 7946SOL    HW331551   1.182   1.180   5.554 -0.0890  0.9309  1.1462
 7946SOL    MW431552   1.110   1.144   5.588 -0.0515  0.0634  0.3559
 7947SOL     OW31553   4.356   1.239   0.167  0.1037  0.6412  0.0612
 7947SOL    HW231554   4.361   1.254   0.072 -0.9723 -0.3594 -0.1715
 7947SOL    HW331555   4.428   1.178   0.185  0.2855  0.8001 -0.1120
 7947SOL    MW431556   4.366   1.233   0.157 -0.0143  0.5302  0.0077
 7948SOL     OW31557   0.623   3.453   5.357 -0.3188  0.2298 -0.0496
 7948SOL    HW231558   0.691   3.470   5.290 -2.0078 -0.8999 -2.1854
 7948SOL    HW331559   0.567   3.530   5.353 -1.8346 -0.8654 -1.8747
 7948SOL    MW431560   0.625   3.465   5.347 -0.7417 -0.0638 -0.5722
 7949SOL     OW31561   3.659   6.229   4.350 -0.2299  0.0808 -0.3462
 7949SOL    HW231562   3.594   6.274   4.405  1.0774 -0.0560  1.3840
 7949SOL    HW331563   3.705   6.300   4.305 -0.6632  0.2488 -0.5340
 7949SOL    MW431564   3.656   6.245   4.351 -0.1146  0.0849 -0.1427
 7950SOL     OW31565   2.677   0.967   1.803 -0.3167  0.2573  0.3484
 7950SOL    HW231566   2.675   1.056   1.767  1.4338  0.9334  1.7557
 7950SOL    HW331567   2.614   0.968   1.875 -0.6407  0.2032  0.0690
 7950SOL    MW431568   2.669   0.979   1.807 -0.1285  0.3394  0.4972
 7951SOL     OW31569   2.106   3.077   1.510 -0.3091 -0.5444  0.3330
 7951SOL    HW231570   2.105   3.170   1.532  0.3634  0.0050 -1.7083
 7951SOL    HW331571   2.041   3.067   1.441 -0.5225 -1.6463  0.6591
 7951SOL    MW431572   2.097   3.088   1.504 -0.2486 -0.6173  0.1067
 7952SOL     OW31573   5.777   2.738   1.700 -0.1144  0.4638  0.4398
 7952SOL    HW231574   5.792   2.644   1.688  0.6436  0.5886  0.3800
 7952SOL    HW331575   5.842   2.780   1.644 -1.0074  1.0326 -0.1887
 7952SOL    MW431576   5.788   2.731   1.691 -0.1322  0.5553  0.3490
 7953SOL     OW31577   4.377   1.511   4.822 -0.2193  0.1148 -0.5957
 7953SOL    HW231578   4.338   1.520   4.909 -0.1604  0.4229 -0.6009
 7953SOL    HW331579   4.430   1.590   4.811  1.5966 -0.9784  0.0109
 7953SOL    MW431580   4.379   1.523   4.832  0.0281  0.0112 -0.5164
 7954SOL     OW31581   4.463   4.077   4.003 -0.0425 -0.3616 -0.6743
 7954SOL    HW231582   4.403   4.017   3.957  0.2037  0.7800 -2.5962
 7954SOL    HW331583   4.405   4.142   4.043 -0.2071 -0.7145 -0.3337
 7954SOL    MW431584   4.447   4.077   4.002 -0.0318 -0.2576 -0.8830
 7955SOL     OW31585   6.137   0.649   1.216 -0.1121 -1.0524  0.4223
 7955SOL    HW231586   6.044   0.669   1.204  0.4134  3.7142  2.1004
 7955SOL    HW331587   6.139   0.589   1.290 -1.8839  0.5925  1.9164
 7955SOL    MW431588   6.125   0.644   1.224 -0.2765 -0.2065  0.8408
 7956SOL     OW31589   4.736   1.630   4.005  0.5824  0.1652  0.2039
 7956SOL    HW231590   4.774   1.668   4.084  2.0082 -0.2165 -0.2636
 7956SOL    HW331591   4.790   1.553   3.987 -0.1331 -0.1329 -0.7708
 7956SOL    MW431592   4.748   1.625   4.013  0.6761  0.0756  0.0136
 7957SOL     OW31593   5.930   2.401   3.344  0.1529 -0.3126 -0.1295
 7957SOL    HW231594   6.003   2.420   3.286 -1.3421 -0.6067 -2.2331
 7957SOL    HW331595   5.933   2.306   3.356 -0.4107 -0.4453 -0.9885
 7957SOL    MW431596   5.940   2.391   3.338 -0.1187 -0.3689 -0.5204
 7958SOL     OW31597   0.514   0.549   1.718  0.2094 -0.8432 -0.5353
 7958SOL    HW231598   0.534   0.635   1.681 -0.5475 -0.6329 -0.4705
 7958SOL    HW331599   0.492   0.495   1.642 -0.4464 -0.6568 -0.4913
 7958SOL    MW431600   0.513   0.553   1.703  0.0230 -0.7909 -0.5209
 7959SOL     OW31601   3.669   5.427   3.471 -0.1315 -0.4518 -0.0339
 7959SOL    HW231602   3.727   5.499   3.495  0.5894 -0.5342 -1.4104
 7959SOL    HW331603   3.714   5.348   3.501  1.3157 -0.6490 -2.4158
 7959SOL    MW431604   3.683   5.426   3.478  0.1546 -0.4887 -0.5298
 7960SOL     OW31605   0.544   5.199   4.110  0.0268 -0.3818  0.0579
 7960SOL    HW231606   0.495   5.276   4.137  0.6545 -0.4736  1.5623
 7960SOL    HW331607   0.478   5.132   4.096 -0.3746 -0.1478  0.7895
 7960SOL    MW431608   0.529   5.200   4.112  0.0566 -0.3630  0.3529
 7961SOL     OW31609   2.957   5.764   5.805  0.6411 -0.0746 -0.2275
 7961SOL    HW231610   3.009   5.733   5.731  0.6376 -0.0900 -0.2232
 7961SOL    HW331611   2.887   5.816   5.765  0.5769 -0.1718 -0.2411
 7961SOL    MW431612   2.954   5.767   5.790  0.6322 -0.0894 -0.2288
 7962SOL     OW31613   0.552   0.189   4.129 -0.1620 -0.4120  0.3223
 7962SOL    HW231614   0.577   0.117   4.071 -0.3757 -0.6960  0.5817
 7962SOL    HW331615   0.614   0.259   4.108  0.1568 -0.7296  0.1869
 7962SOL    MW431616   0.564   0.189   4.119 -0.1481 -0.4914  0.3386
 7963SOL     OW31617   5.400   0.894   0.651 -0.3091 -0.3064 -0.0189
 7963SOL    HW231618   5.363   0.979   0.674 -2.1316 -0.6088 -1.5601
 7963SOL    HW331619   5.459   0.913   0.577 -0.3309 -0.3135 -0.0384
 7963SOL    MW431620   5.403   0.908   0.644 -0.5524 -0.3473 -0.2248
 7964SOL     OW31621   2.961   0.968   0.644 -0.1748  0.3139  0.7677
 7964SOL    HW231622   2.903   1.012   0.582 -0.6825 -0.5085  0.6468
 7964SOL    HW331623   2.973   1.032   0.715 -0.7946  0.6949  0.5406
 7964SOL    MW431624   2.955   0.982   0.645 -0.3236  0.2556  0.7218
 7965SOL     OW31625   5.564   3.775   4.455 -0.3081 -0.0809 -0.0240
 7965SOL    HW231626   5.582   3.750   4.364  0.8867  1.1931 -0.1856
 7965SOL    HW331627   5.639   3.829   4.479  0.0088 -1.3620  2.1352
 7965SOL    MW431628   5.576   3.779   4.446 -0.1087 -0.0818  0.2396
 7966SOL     OW31629   1.541   6.124   5.955  0.1874 -0.0210 -0.1392
 7966SOL    HW231630   1.561   6.107   5.863  1.1978 -1.0390  0.2544
 7966SOL    HW331631   1.448   6.148   5.954 -0.1017 -1.0509 -1.3079
 7966SOL    MW431632   1.531   6.125   5.943  0.2826 -0.2912 -0.2415
 7967SOL     OW31633   3.580   1.059   6.029  0.0564 -1.0190  0.0717
 7967SOL    HW231634   3.554   0.983   6.082 -1.0457  0.2429  1.4146
 7967SOL    HW331635   3.674   1.069   6.047 -0.0405 -1.3598  0.8209
 7967SOL    MW431636   3.589   1.050   6.038 -0.1018 -0.8975  0.3477
 7968SOL     OW31637   1.833   0.626   5.404  0.0319 -0.3598 -0.0554
 7968SOL    HW231638   1.785   0.560   5.454  3.4920  0.1617  4.6810
 7968SOL    HW331639   1.886   0.575   5.343 -0.4486 -1.5973  0.5115
 7968SOL    MW431640   1.834   0.610   5.403  0.4250 -0.4542  0.6443
 7969SOL     OW31641   5.612   5.960   1.104 -0.4327  0.2354  0.5225
 7969SOL    HW231642   5.563   5.992   1.180  2.4255  1.8674  1.8551
 7969SOL    HW331643   5.700   5.995   1.117  0.7913 -1.5027 -2.3364
 7969SOL    MW431644   5.617   5.969   1.116  0.1059  0.2214  0.3211
 7970SOL     OW31645   0.255   4.718   1.014 -0.1373 -0.2456  0.1717
 7970SOL    HW231646   0.332   4.774   1.018  0.3833 -1.0215  1.6958
 7970SOL    HW331647   0.269   4.652   1.082 -1.6600 -1.0378 -0.2264
 7970SOL    MW431648   0.267   4.717   1.024 -0.2695 -0.4525  0.3202
 7971SOL     OW31649   5.617   4.182   3.844  0.0959 -0.1890 -0.5676
 7971SOL    HW231650   5.653   4.270   3.860 -1.5509  0.2219  1.3586
 7971SOL    HW331651   5.667   4.149   3.769  2.0025  1.6623 -0.2295
 7971SOL    MW431652   5.629   4.189   3.837  0.1302  0.1095 -0.2689
 7972SOL     OW31653   3.729   0.155   1.781  0.0304 -0.2806  0.3515
 7972SOL    HW231654   3.763   0.245   1.792  0.2635 -0.0817 -1.5576
 7972SOL    HW331655   3.640   0.167   1.750  1.1540 -0.4816 -3.5323
 7972SOL    MW431656   3.722   0.169   1.778  0.2094 -0.2809 -0.4128
 7973SOL     OW31657   5.540   3.652   3.377 -0.0152  0.1283 -0.0337
 7973SOL    HW231658   5.504   3.602   3.450 -0.7231  1.2576  0.4147
 7973SOL    HW331659   5.487   3.626   3.302 -0.1085 -0.1050  0.1137
 7973SOL    MW431660   5.528   3.642   3.376 -0.1209  0.2466  0.0449
 7974SOL     OW31661   0.364   4.722   5.494 -0.1094 -0.0902 -0.2376
 7974SOL    HW231662   0.432   4.656   5.510 -0.9037 -1.4533 -2.1540
 7974SOL    HW331663   0.288   4.690   5.542 -0.1870 -0.0190 -0.3135
 7974SOL    MW431664   0.363   4.709   5.503 -0.2244 -0.2607 -0.5005
 7975SOL     OW31665   0.878   3.534   1.109  0.2759  0.2442  0.5082
 7975SOL    HW231666   0.804   3.549   1.050  0.6029  0.9835  0.2796
 7975SOL    HW331667   0.872   3.605   1.173  1.2753  0.8279 -0.0163
 7975SOL    MW431668   0.867   3.545   1.110  0.4509  0.4187  0.4089
 7976SOL     OW31669   5.137   1.550   3.601  0.2611  0.0581  0.4181
 7976SOL    HW231670   5.228   1.519   3.600  0.5424  0.8931 -0.0584
 7976SOL    HW331671   5.087   1.474   3.630  1.2000 -0.1850  1.4888
 7976SOL    MW431672   5.143   1.536   3.605  0.4221  0.1362  0.4965
 7977SOL     OW31673   1.967   0.172   4.486  0.5305  0.2111 -0.5269
 7977SOL    HW231674   1.947   0.175   4.579 -1.4732  1.6055 -0.9458
 7977SOL    HW331675   2.001   0.259   4.466  1.0854 -0.1255 -1.0896
 7977SOL    MW431676   1.969   0.184   4.496  0.3393  0.3507 -0.6564
 7978SOL     OW31677   3.527   3.415   4.348 -0.1567 -0.4173  0.3923
 7978SOL    HW231678   3.463   3.479   4.379 -0.9092 -1.4679  1.0808
 7978SOL    HW331679   3.593   3.411   4.417  1.0213  1.1086 -0.5878
 7978SOL    MW431680   3.528   3.422   4.361 -0.1006 -0.3546  0.3539
 7979SOL     OW31681   4.103   5.065   2.060  0.1015 -0.6966  0.7065
 7979SOL    HW231682   4.133   5.124   2.128  0.3614  1.2078 -0.9795
 7979SOL    HW331683   4.037   5.010   2.103  1.3038 -0.5838  2.8163
 7979SOL    MW431684   4.098   5.065   2.075  0.2944 -0.4304  0.7624
 7980SOL     OW31685   0.423   0.992   2.148 -0.9955 -0.7032 -0.0100
 7980SOL    HW231686   0.464   0.910   2.122 -1.6417 -0.7756 -0.8820
 7980SOL    HW331687   0.488   1.037   2.201  0.8970 -0.0784 -2.6353
 7980SOL    MW431688   0.437   0.987   2.151 -0.8310 -0.6303 -0.4714
 7981SOL     OW31689   5.791   1.116   3.045  0.3689 -0.5616  0.3411
 7981SOL    HW231690   5.710   1.071   3.024  1.4896 -2.1759 -0.7419
 7981SOL    HW331691   5.779   1.147   3.135 -2.0505  0.7424 -0.3529
 7981SOL    MW431692   5.779   1.114   3.054  0.1976 -0.6026  0.1067
 7982SOL     OW31693   1.917   4.615   2.734  0.4596  0.0073 -0.8396
 7982SOL    HW231694   2.009   4.588   2.741  0.7004  1.2327  2.1832
 7982SOL    HW331695   1.867   4.540   2.766  0.5040 -0.0509 -0.9053
 7982SOL    MW431696   1.923   4.601   2.739  0.4972  0.1613 -0.4495
 7983SOL     OW31697   6.354   0.190   1.364  0.0648 -0.0724 -0.3580
 7983SOL    HW231698   6.322   0.253   1.429  0.6252 -0.3635  0.2116
 7983SOL    HW331699   6.427   0.146   1.407  1.9000  1.2404 -1.9702
 7983SOL    MW431700   6.359   0.192   1.379  0.3808  0.0624 -0.4955
 7984SOL     OW31701   0.287   5.515   0.400  0.6946 -0.5893  0.0158
 7984SOL    HW231702   0.295   5.448   0.467  0.8889  0.6748  1.3180
 7984SOL    HW331703   0.373   5.558   0.399  1.7116 -2.4053 -3.1296
 7984SOL    MW431704   0.300   5.512   0.409  0.8544 -0.6621 -0.2274
 7985SOL     OW31705   4.755   2.759   6.096  0.2629  0.4212 -0.5856
 7985SOL    HW231706   4.781   2.834   6.042 -2.3115  1.1787 -0.9003
 7985SOL    HW331707   4.689   2.795   6.156  0.9570 -1.0423  1.1149
 7985SOL    MW431708   4.750   2.774   6.097  0.0148  0.3280 -0.4028
 7986SOL     OW31709   4.141   1.237   4.570  0.1383 -0.0363  0.1367
 7986SOL    HW231710   4.093   1.189   4.503 -0.1078 -0.7419  0.8014
 7986SOL    HW331711   4.093   1.221   4.651  1.2527 -0.4361  0.7514
 7986SOL    MW431712   4.129   1.229   4.572  0.2529 -0.1822  0.3055
 7987SOL     OW31713   3.795   0.622   2.609 -0.5564 -0.0549  0.3027
 7987SOL    HW231714   3.832   0.550   2.660  0.6874 -0.2789 -0.8858
 7987SOL    HW331715   3.720   0.583   2.564 -0.9157 -0.1645  0.9848
 7987SOL    MW431716   3.790   0.607   2.610 -0.4397 -0.0989  0.2359
 7988SOL     OW31717   2.578   5.308   1.019 -0.2664 -0.7986  0.1254
 7988SOL    HW231718   2.553   5.268   1.103 -0.6398  1.2008  1.0245
 7988SOL    HW331719   2.597   5.234   0.962 -1.8489 -2.2842  1.4063
 7988SOL    MW431720   2.577   5.293   1.023 -0.5245 -0.7308  0.4130
 7989SOL     OW31721   2.438   4.678   6.283  0.3318 -0.0209 -0.0729
 7989SOL    HW231722   2.456   4.625   6.205 -1.1151 -0.4727 -0.1230
 7989SOL    HW331723   2.366   4.735   6.256  0.5352  0.5680  0.6120
 7989SOL    MW431724   2.431   4.679   6.269  0.1677 -0.0028  0.0109
 7990SOL     OW31725   5.490   2.831   0.593  0.3920 -0.0643  0.0250
 7990SOL    HW231726   5.453   2.760   0.646 -1.4336 -0.6046 -1.8623
 7990SOL    HW331727   5.584   2.812   0.590 -0.1200 -2.7976 -0.9431
 7990SOL    MW431728   5.497   2.819   0.600  0.0836 -0.4962 -0.3517
 7991SOL     OW31729   5.228   4.909   3.023 -0.5441 -0.2338 -0.4944
 7991SOL    HW231730   5.257   4.899   2.933 -0.1826 -0.5989 -0.3369
 7991SOL    HW331731   5.144   4.954   3.016  0.2136  1.1749 -0.9419
 7991SOL    MW431732   5.220   4.914   3.010 -0.3964 -0.0961 -0.5326
 7992SOL     OW31733   0.454   3.919   0.198  0.0923  0.3671  0.3341
 7992SOL    HW231734   0.381   3.976   0.174  1.3970  2.5239  1.2387
 7992SOL    HW331735   0.440   3.900   0.291 -0.4685 -1.0873 -0.0119
 7992SOL    MW431736   0.443   3.924   0.207  0.1904  0.4598  0.4078
 7993SOL     OW31737   3.659   3.304   3.853  0.4960 -0.4280 -0.2730
 7993SOL    HW231738   3.583   3.268   3.899  0.7577  0.6209  1.0208
 7993SOL    HW331739   3.622   3.351   3.778 -0.1480  0.1845  0.4203
 7993SOL    MW431740   3.644   3.305   3.849  0.4456 -0.2088 -0.0108
 7994SOL     OW31741   1.266   2.082   1.920  0.5859 -0.3032  0.7220
 7994SOL    HW231742   1.323   2.006   1.935  0.6239 -0.1719  1.2435
 7994SOL    HW331743   1.187   2.063   1.969 -1.8968 -2.7055 -3.5649
 7994SOL    MW431744   1.263   2.070   1.928  0.2634 -0.6028  0.2252
 7995SOL     OW31745   1.205   4.807   6.065  0.0202 -0.1928  0.5668
 7995SOL    HW231746   1.247   4.725   6.090  1.0904  0.0503 -0.3856
 7995SOL    HW331747   1.255   4.875   6.109  0.8482  0.1183 -0.8003
 7995SOL    MW431748   1.217   4.805   6.074  0.2706 -0.1197  0.2608
 7996SOL     OW31749   2.723   3.601   4.622 -0.6510  0.1793 -0.0993
 7996SOL    HW231750   2.714   3.532   4.556  0.3612  2.5389 -2.9462
 7996SOL    HW331751   2.638   3.601   4.667 -0.6748 -2.8575  0.0697
 7996SOL    MW431752   2.710   3.592   4.619 -0.5206  0.0899 -0.4526
 7997SOL     OW31753   5.553   6.264   3.726 -0.0216 -0.2585 -0.2154
 7997SOL    HW231754   5.615   6.200   3.689  0.3929  0.3224 -0.5447
 7997SOL    HW331755   5.480   6.265   3.664 -0.2884 -0.8219  0.0850
 7997SOL    MW431756   5.552   6.255   3.713 -0.0021 -0.2562 -0.2192
 7998SOL     OW31757   5.262   6.114   6.028  0.4139  0.0807  0.2726
 7998SOL    HW231758   5.331   6.052   6.006  0.0890 -0.2671  0.2352
 7998SOL    HW331759   5.304   6.178   6.085  1.0900  0.5927 -0.7792
 7998SOL    MW431760   5.276   6.115   6.032  0.4603  0.1023  0.1289
 7999SOL     OW31761   1.382   0.634   1.480 -0.3394  0.5766  0.4037
 7999SOL    HW231762   1.388   0.539   1.489  0.0965  0.7196  1.9091
 7999SOL    HW331763   1.329   0.647   1.402 -0.5178 -0.9012  0.2400
 7999SOL    MW431764   1.376   0.623   1.471 -0.3054  0.4005  0.5807
 8000SOL     OW31765   2.058   3.195   6.283  0.3727 -0.0133 -0.2106
 8000SOL    HW231766   2.020   3.114   6.250  0.5274 -0.0742 -0.2385
 8000SOL    HW331767   2.112   3.228   6.212  0.6342 -0.0983 -0.0537
 8000SOL    MW431768   2.060   3.189   6.270  0.4276 -0.0325 -0.1936
 8001SOL     OW31769   2.542   5.737   1.864 -0.2481 -0.0771  0.1401
 8001SOL    HW231770   2.493   5.665   1.905 -0.7940  0.6886  0.8728
 8001SOL    HW331771   2.629   5.732   1.905 -0.1960 -0.4898 -0.0167
 8001SOL    MW431772   2.547   5.727   1.875 -0.3133 -0.0305  0.2161
 8002SOL     OW31773   5.462   0.403   4.144  0.5234  0.0384  0.0494
 8002SOL    HW231774   5.452   0.448   4.060  1.4193  0.9030  0.3894
 8002SOL    HW331775   5.519   0.328   4.124 -0.1923 -0.4251 -0.3233
 8002SOL    MW431776   5.468   0.399   4.130  0.5471  0.0913  0.0451
 8003SOL     OW31777   4.897   3.960   4.727 -0.3918 -0.3259 -0.2783
 8003SOL    HW231778   4.885   3.918   4.642 -0.5309 -1.4848  0.3069
 8003SOL    HW331779   4.812   4.002   4.744 -0.7392 -1.0444 -0.2039
 8003SOL    MW431780   4.884   3.960   4.718 -0.4560 -0.5736 -0.1912
 8004SOL     OW31781   3.954   4.647   6.211 -0.1305  0.5985  0.0567
 8004SOL    HW231782   3.909   4.572   6.172 -2.4161  0.7796  2.1466
 8004SOL    HW331783   3.916   4.723   6.166  0.2130  0.6323 -0.1788
 8004SOL    MW431784   3.943   4.647   6.200 -0.3868  0.6268  0.3014
 8005SOL     OW31785   4.974   3.023   3.730  0.9242 -0.2739 -0.1781
 8005SOL    HW231786   5.020   3.105   3.711 -1.6692  1.3888  0.2929
 8005SOL    HW331787   4.934   2.998   3.647 -0.7608  0.6429  0.3105
 8005SOL    MW431788   4.975   3.031   3.717  0.3597  0.0664 -0.0515
 8006SOL     OW31789   4.744   2.210   2.351  0.9783 -0.2789 -0.7225
 8006SOL    HW231790   4.691   2.202   2.271 -1.1516 -0.7672  0.6428
 8006SOL    HW331791   4.755   2.304   2.363 -0.6399 -0.0851 -0.4457
 8006SOL    MW431792   4.738   2.221   2.342  0.4838 -0.3178 -0.5058
 8007SOL     OW31793   3.987   5.457   3.479 -0.0514 -0.4622  0.3260
 8007SOL    HW231794   3.944   5.464   3.394  2.0861  1.6079 -0.6953
 8007SOL    HW331795   4.058   5.394   3.465 -0.4773 -1.1103  0.9858
 8007SOL    MW431796   3.991   5.449   3.466  0.1744 -0.2746  0.2783
 8008SOL     OW31797   5.327   2.412   3.806 -0.1614  0.2876  0.3432
 8008SOL    HW231798   5.312   2.479   3.739 -0.5386 -0.1515 -0.0163
 8008SOL    HW331799   5.325   2.460   3.889 -0.4579  0.7190  0.0911
 8008SOL    MW431800   5.325   2.427   3.808 -0.2503  0.2866  0.2625
 8009SOL     OW31801   1.934   5.700   2.034 -0.5122 -0.1172  0.1545
 8009SOL    HW231802   1.948   5.621   1.982 -1.7614  0.4843 -1.1473
 8009SOL    HW331803   2.022   5.733   2.051  0.0242 -1.6767  0.5867
 8009SOL    MW431804   1.948   5.694   2.030 -0.6062 -0.2436  0.0397
 8010SOL     OW31805   1.259   1.430   1.922  0.2324 -0.3700 -0.4216
 8010SOL    HW231806   1.291   1.478   1.998  0.5230  0.9924 -1.3657
 8010SOL    HW331807   1.281   1.339   1.940  1.2422  0.0611  0.6457
 8010SOL    MW431808   1.266   1.424   1.934  0.4040 -0.1334 -0.4054
 8011SOL     OW31809   3.544   2.074   5.703  0.5799  0.0525 -0.0430
 8011SOL    HW231810   3.595   2.108   5.777  0.0214  0.0666  0.3409
 8011SOL    HW331811   3.465   2.038   5.743  0.5725 -0.5329 -0.5757
 8011SOL    MW431812   3.540   2.074   5.718  0.5052 -0.0229 -0.0626
 8012SOL     OW31813   0.400   0.778   4.239  0.5694  0.0188 -0.0108
 8012SOL    HW231814   0.374   0.688   4.220 -2.7070  0.9282 -0.5503
 8012SOL    HW331815   0.405   0.820   4.153  3.1812  0.1763  0.1428
 8012SOL    MW431816   0.397   0.772   4.225  0.4817  0.1595 -0.0617
 8013SOL     OW31817   1.039   1.721   6.149 -0.5957 -0.5538 -0.3840
 8013SOL    HW231818   1.090   1.791   6.191 -0.6404 -1.2349  0.8493
 8013SOL    HW331819   0.953   1.759   6.135 -0.9924 -0.7090  1.4037
 8013SOL    MW431820   1.035   1.735   6.153 -0.6539 -0.6641  0.0146
 8014SOL     OW31821   0.677   4.329   0.288 -0.0888 -0.1550 -0.0095
 8014SOL    HW231822   0.703   4.400   0.229 -0.3883 -0.1101 -0.0863
 8014SOL    HW331823   0.715   4.353   0.372 -0.7539  0.4400  0.1260
 8014SOL    MW431824   0.686   4.341   0.291 -0.2160 -0.0706 -0.0017
 8015SOL     OW31825   0.546   0.246   2.110  0.0014 -0.3447 -0.0253
 8015SOL    HW231826   0.579   0.252   2.200  1.2602  1.0755 -0.5341
 8015SOL    HW331827   0.612   0.194   2.064 -0.7115 -1.1913 -0.1168
 8015SOL    MW431828   0.559   0.240   2.116  0.0734 -0.2690 -0.1045
 8016SOL     OW31829   2.277   5.605   4.519  0.0731  0.2159  0.1474
 8016SOL    HW231830   2.241   5.581   4.433 -0.8976 -0.0939  0.6201
 8016SOL    HW331831   2.207   5.582   4.581  0.8527  0.2163  1.0428
 8016SOL    MW431832   2.263   5.599   4.516  0.0479  0.1751  0.3279
 8017SOL     OW31833   2.417   4.482   0.712 -0.0288 -0.4103  0.0194
 8017SOL    HW231834   2.428   4.452   0.803  2.0185 -0.2122 -0.1276
 8017SOL    HW331835   2.495   4.534   0.694 -1.9001  2.3703 -0.8096
 8017SOL    MW431836   2.428   4.485   0.722 -0.0056 -0.0173 -0.1094
 8018SOL     OW31837   4.839   3.302   6.243 -0.1914 -0.2977 -0.0677
 8018SOL    HW231838   4.899   3.354   6.297  0.6896 -1.3218 -0.0172
 8018SOL    HW331839   4.752   3.325   6.276  0.3010 -0.7076  1.6715
 8018SOL    MW431840   4.836   3.312   6.255 -0.0102 -0.4869  0.1685
 8019SOL     OW31841   0.667   2.250   1.553 -0.3954  0.2467  0.6517
 8019SOL    HW231842   0.684   2.344   1.546  0.8615 -0.0119 -0.0768
 8019SOL    HW331843   0.713   2.223   1.633 -1.1257  0.3085  1.1072
 8019SOL    MW431844   0.676   2.259   1.563 -0.3259  0.2207  0.6157
 8020SOL     OW31845   4.590   2.538   1.313  0.0065 -0.5185  0.2849
 8020SOL    HW231846   4.590   2.443   1.308  0.8098 -0.4890 -0.6462
 8020SOL    HW331847   4.682   2.562   1.321 -0.2500  0.1574  1.5182
 8020SOL    MW431848   4.602   2.529   1.313  0.0786 -0.4254  0.3248
 8021SOL     OW31849   0.226   1.465   4.422  0.8451  0.2636  0.3230
 8021SOL    HW231850   0.265   1.546   4.455 -0.9824  1.2350  0.2352
 8021SOL    HW331851   0.286   1.396   4.450  0.4848  1.2189  3.9358
 8021SOL    MW431852   0.239   1.466   4.430  0.5565  0.5178  0.7881
 8022SOL     OW31853   4.302   5.314   2.773 -0.0763  0.4100  0.2179
 8022SOL    HW231854   4.383   5.273   2.801  1.1461  1.7342 -1.1577
 8022SOL    HW331855   4.256   5.246   2.723  0.6638 -0.0605  0.1738
 8022SOL    MW431856   4.307   5.300   2.770  0.1826  0.5226  0.0306
 8023SOL     OW31857   1.591   3.870   1.692 -0.1664  0.5568  0.7056
 8023SOL    HW231858   1.588   3.924   1.613  1.1490  0.8601  0.8485
 8023SOL    HW331859   1.684   3.856   1.708 -0.4627 -1.0682  1.1516
 8023SOL    MW431860   1.603   3.875   1.683 -0.0319  0.3824  0.7833
 8024SOL     OW31861   6.258   5.667   5.368 -0.4627  0.1902 -0.1222
 8024SOL    HW231862   6.223   5.670   5.279 -2.4878 -0.1120  0.6171
 8024SOL    HW331863   6.225   5.747   5.409  0.6508  0.4463  0.3118
 8024SOL    MW431864   6.249   5.678   5.362 -0.5830  0.1841  0.0326
 8025SOL     OW31865   3.934   6.365   4.092 -0.6323 -0.6642  0.2468
 8025SOL    HW231866   3.920   6.445   4.142 -1.0729 -0.5651 -0.0336
 8025SOL    HW331867   4.004   6.388   4.030 -2.3394  0.2377 -1.4233
 8025SOL    MW431868   3.942   6.378   4.091 -0.9157 -0.5321 -0.0106
 8026SOL     OW31869   5.656   2.577   4.045 -1.0819 -0.4157  0.2814
 8026SOL    HW231870   5.710   2.499   4.061 -0.5905 -0.1581 -0.0930
 8026SOL    HW331871   5.719   2.649   4.040 -1.4424 -0.1318 -0.3323
 8026SOL    MW431872   5.671   2.576   4.046 -1.0646 -0.3442  0.1510
 8027SOL     OW31873   5.532   0.954   0.407 -0.7642  0.1025 -0.1234
 8027SOL    HW231874   5.513   0.864   0.382  2.2360 -1.4576  2.4241
 8027SOL    HW331875   5.593   0.986   0.340  0.2359 -0.7940  0.3227
 8027SOL    MW431876   5.538   0.946   0.395 -0.2364 -0.2216  0.2716
 8028SOL     OW31877   1.153   5.201   5.084 -0.5350 -0.4249 -0.5607
 8028SOL    HW231878   1.137   5.294   5.099  2.2134 -0.1672  1.6400
 8028SOL    HW331879   1.162   5.192   4.989  1.7930  2.1402 -0.7032
 8028SOL    MW431880   1.152   5.212   5.074  0.1348 -0.0524 -0.2891
 8029SOL     OW31881   2.395   6.290   2.818 -0.1683  0.1095  0.5782
 8029SOL    HW231882   2.301   6.295   2.836 -0.7033 -2.3273 -1.1352
 8029SOL    HW331883   2.403   6.315   2.726  0.9392  0.6687  0.8128
 8029SOL    MW431884   2.384   6.294   2.809 -0.0927 -0.1382  0.3831
 8030SOL     OW31885   2.744   2.950   4.926  0.5835 -0.1406 -0.2103
 8030SOL    HW231886   2.660   2.907   4.908  0.7284  0.1619 -1.8205
 8030SOL    HW331887   2.724   3.044   4.926  0.3369 -0.0919  2.9077
 8030SOL    MW431888   2.730   2.957   4.923  0.5701 -0.0943 -0.0114
 8031SOL     OW31889   5.037   5.641   0.845  0.3109 -0.1428  0.2155
 8031SOL    HW231890   5.130   5.624   0.864  0.4644 -1.1727 -1.2848
 8031SOL    HW331891   5.013   5.572   0.783 -1.6153 -0.2008  0.9768
 8031SOL    MW431892   5.046   5.630   0.839  0.0770 -0.2863  0.1180
 8032SOL     OW31893   0.481   3.922   0.492 -0.2466  0.1411  0.1948
 8032SOL    HW231894   0.543   3.849   0.484 -1.0669 -0.4277 -1.7197
 8032SOL    HW331895   0.536   3.999   0.504  0.6302 -0.7901  2.9985
 8032SOL    MW431896   0.496   3.922   0.492 -0.2392 -0.0568  0.3122
 8033SOL     OW31897   4.465   4.405   5.836 -0.1095  0.4828  0.0489
 8033SOL    HW231898   4.420   4.478   5.794 -2.5293 -0.9178  0.0430
 8033SOL    HW331899   4.448   4.330   5.778 -3.3593 -1.4745  3.1516
 8033SOL    MW431900   4.457   4.405   5.823 -0.8576  0.0398  0.4575
 8034SOL     OW31901   1.013   1.926   2.762  0.1607 -0.0656  0.4365
 8034SOL    HW231902   0.981   1.926   2.672  1.6989  0.8477 -0.1423
 8034SOL    HW331903   1.099   1.884   2.757 -0.7428 -2.2872  1.9113
 8034SOL    MW431904   1.021   1.920   2.749  0.2444 -0.2382  0.5547
 8035SOL     OW31905   5.407   3.499   4.367  0.2700  0.3684  0.3733
 8035SOL    HW231906   5.422   3.488   4.274  1.4644 -1.8580  0.7442
 8035SOL    HW331907   5.433   3.415   4.405 -2.1328  0.4659  2.4977
 8035SOL    MW431908   5.413   3.487   4.360  0.1106  0.0875  0.7026
 8036SOL     OW31909   3.379   2.391   3.427  0.3223  0.1325 -0.2621
 8036SOL    HW231910   3.292   2.429   3.433  1.1674  2.2581 -0.5502
 8036SOL    HW331911   3.423   2.418   3.508 -0.3461 -4.1015  1.7822
 8036SOL    MW431912   3.374   2.399   3.438  0.3456 -0.1457 -0.0304
 8037SOL     OW31913   0.052   1.626   2.378  0.4332 -0.0368  0.3260
 8037SOL    HW231914   0.079   1.549   2.428  0.2812  1.2254  2.4666
 8037SOL    HW331915  -0.007   1.592   2.311 -1.4294 -1.5723  2.6079
 8037SOL    MW431916   0.048   1.612   2.376  0.1674 -0.0729  0.9095
 8038SOL     OW31917   5.430   5.747   1.704  0.1984  0.1737 -0.0490
 8038SOL    HW231918   5.385   5.826   1.675 -0.9150 -0.6664 -0.7004
 8038SOL    HW331919   5.472   5.772   1.787 -0.9248  1.1813  0.2482
 8038SOL    MW431920   5.430   5.761   1.711 -0.0967  0.1958 -0.0957
 8039SOL     OW31921   0.742   3.157   3.806 -0.4656  0.8411 -0.0900
 8039SOL    HW231922   0.832   3.189   3.794 -0.2317  0.9608  1.7023
 8039SOL    HW331923   0.727   3.100   3.730  1.2017  0.6483 -0.3229
 8039SOL    MW431924   0.752   3.153   3.794 -0.2148  0.8314  0.1158
 8040SOL     OW31925   4.610   0.913   2.596  0.3011 -0.0072  0.5288
 8040SOL    HW231926   4.632   1.005   2.613  1.2689  0.2232 -1.7230
 8040SOL    HW331927   4.518   0.906   2.623 -0.7636  2.4454 -1.9758
 8040SOL    MW431928   4.600   0.924   2.602  0.2883  0.3468 -0.0988
 8041SOL     OW31929   4.866   5.395   2.260  0.0120 -0.3745 -0.5421
 8041SOL    HW231930   4.913   5.315   2.237  0.0845 -0.0018 -1.7776
 8041SOL    HW331931   4.783   5.365   2.298  0.2156 -1.0286 -0.6094
 8041SOL    MW431932   4.861   5.380   2.262  0.0484 -0.4116 -0.7140
 8042SOL     OW31933   1.221   1.916   6.266 -0.5762 -0.1618  1.0862
 8042SOL    HW231934   1.313   1.927   6.291 -0.7930  1.7385  1.2589
 8042SOL    HW331935   1.188   2.006   6.261 -1.4841 -0.5339 -2.6382
 8042SOL    MW431936   1.229   1.930   6.269 -0.7246  0.0399  0.6176
 8043SOL     OW31937   5.068   3.402   2.405 -0.2746 -0.0843  0.0510
 8043SOL    HW231938   5.116   3.370   2.329 -0.7976  0.0151 -0.3300
 8043SOL    HW331939   4.990   3.444   2.368 -0.0722  0.7820  0.5995
 8043SOL    MW431940   5.064   3.403   2.390 -0.3169  0.0431  0.0731
 8044SOL     OW31941   1.237   0.606   0.195 -1.2822  0.3134  0.4540
 8044SOL    HW231942   1.191   0.684   0.228 -1.0327  0.6778 -0.0348
 8044SOL    HW331943   1.320   0.605   0.242  0.3176  2.4296 -2.0311
 8044SOL    MW431944   1.242   0.616   0.206 -1.0382  0.6407  0.0617
 8045SOL     OW31945   3.567   0.171   5.085  0.1050 -0.0348 -0.2556
 8045SOL    HW231946   3.477   0.140   5.078  0.0766 -0.8360  2.4778
 8045SOL    HW331947   3.603   0.161   4.997 -2.2250 -0.4487 -1.2269
 8045SOL    MW431948   3.560   0.165   5.072 -0.2062 -0.1951 -0.0231
 8046SOL     OW31949   5.274   2.610   1.409  0.2186  0.0861  0.4324
 8046SOL    HW231950   5.192   2.581   1.367  0.5843  0.5903 -0.6796
 8046SOL    HW331951   5.340   2.599   1.341  0.6261  2.0464  0.4629
 8046SOL    MW431952   5.272   2.605   1.394  0.3207  0.4113  0.2897
 8047SOL     OW31953   1.688   5.094   1.444  0.0127  0.4713 -0.1599
 8047SOL    HW231954   1.679   5.071   1.351  0.0988 -0.1523 -0.0234
 8047SOL    HW331955   1.644   5.178   1.452 -1.4674 -0.2251 -0.4682
 8047SOL    MW431956   1.681   5.102   1.433 -0.1712  0.2971 -0.1826
 8048SOL     OW31957   3.890   0.736   1.355 -0.0140 -0.1992  0.0951
 8048SOL    HW231958   3.953   0.806   1.374  3.2210 -3.0106  0.6074
 8048SOL    HW331959   3.915   0.665   1.413 -1.6516 -2.6264 -1.9729
 8048SOL    MW431960   3.901   0.736   1.365  0.1967 -0.8903 -0.1102
 8049SOL     OW31961   5.254   4.791   2.630 -0.1918 -0.5539  0.1895
 8049SOL    HW231962   5.288   4.849   2.562 -0.0660 -0.8113  0.0328
 8049SOL    HW331963   5.269   4.703   2.596 -1.3603 -0.6724 -0.0620
 8049SOL    MW431964   5.260   4.787   2.616 -0.3294 -0.6035  0.1356
 8050SOL     OW31965   2.540   0.692   4.565 -0.2757  0.1631  0.2344
 8050SOL    HW231966   2.630   0.670   4.587 -0.1943  0.4078  0.1488
 8050SOL    HW331967   2.500   0.716   4.649 -0.4898 -0.7361  0.3954
 8050SOL    MW431968   2.546   0.692   4.579 -0.2932  0.0767  0.2443
 8051SOL     OW31969   2.216   3.254   6.070  0.0471 -0.9209 -0.1820
 8051SOL    HW231970   2.269   3.316   6.119 -0.5733 -1.6094  1.4055
 8051SOL    HW331971   2.244   3.266   5.979  1.2172  0.3871  0.3149
 8051SOL    MW431972   2.227   3.264   6.064  0.1196 -0.8392  0.0930
 8052SOL     OW31973   2.795   1.695   6.390 -0.3503  0.0102  0.0699
 8052SOL    HW231974   2.867   1.704   6.452 -0.0145  1.3943 -0.4745
 8052SOL    HW331975   2.818   1.619   6.337  0.3743  0.0365  0.3408
 8052SOL    MW431976   2.808   1.686   6.391 -0.2104  0.1963  0.0338
 8053SOL     OW31977   5.211   3.010   1.314  0.4535  0.1400  0.6011
 8053SOL    HW231978   5.273   3.000   1.241  0.5003 -0.7221  0.7494
 8053SOL    HW331979   5.125   3.002   1.273  0.4322  1.0563  0.4383
 8053SOL    MW431980   5.208   3.008   1.299  0.4569  0.1471  0.5992
 8054SOL     OW31981   4.362   5.867   0.777 -0.1955  0.1067  0.2353
 8054SOL    HW231982   4.324   5.955   0.770  0.4802  0.7269  3.2347
 8054SOL    HW331983   4.449   5.876   0.738 -0.1833  0.7470  0.3989
 8054SOL    MW431984   4.368   5.880   0.771 -0.1047  0.2730  0.6526
 8055SOL     OW31985   1.974   1.323   2.343  0.2025  0.6206  0.1463
 8055SOL    HW231986   2.031   1.400   2.351  2.2928 -0.6584 -1.4372
 8055SOL    HW331987   1.890   1.359   2.313 -0.0222  2.5900  2.7333
 8055SOL    MW431988   1.970   1.338   2.340  0.4487  0.7117  0.2787
 8056SOL     OW31989   0.463   1.068   3.349 -0.2742 -0.8527  0.5363
 8056SOL    HW231990   0.380   1.106   3.377 -0.8783 -1.5810 -0.2203
 8056SOL    HW331991   0.442   0.977   3.330  0.7433 -1.0930  0.5098
 8056SOL    MW431992   0.449   1.061   3.351 -0.2197 -0.9805  0.4330
 8057SOL     OW31993   0.232   5.811   1.160  0.0684 -0.3131 -0.1390
 8057SOL    HW231994   0.314   5.763   1.146 -0.0214 -0.2657 -0.8174
 8057SOL    HW331995   0.252   5.901   1.136  0.0046 -0.1668  0.3468
 8057SOL    MW431996   0.245   5.816   1.155  0.0481 -0.2876 -0.1644
 8058SOL     OW31997   0.322   4.867   4.800  0.0769 -0.7303  0.6456
 8058SOL    HW231998   0.320   4.876   4.895 -0.4540 -4.8540  1.2251
 8058SOL    HW331999   0.415   4.871   4.777  0.0981  3.0747  0.7743
 8058SOL    MW432000   0.334   4.868   4.809  0.0096 -0.7723  0.7390
 8059SOL     OW32001   6.099   0.761   2.061 -0.1421 -0.0048 -0.2073
 8059SOL    HW232002   6.058   0.740   2.145  1.1504  0.6348  0.6119
 8059SOL    HW332003   6.034   0.735   1.996 -0.9806 -0.9747  0.9621
 8059SOL    MW432004   6.085   0.755   2.064 -0.0822 -0.0483  0.0550
 8060SOL     OW32005   2.101   4.625   6.153  0.5669 -0.1584  0.0757
 8060SOL    HW232006   2.032   4.602   6.216  0.1145  0.8494 -0.0457
 8060SOL    HW332007   2.147   4.698   6.193  0.2451  0.5241 -0.7781
 8060SOL    MW432008   2.098   4.631   6.166  0.4648  0.0646 -0.0530
 8061SOL     OW32009   2.593   1.987   4.103 -0.1970  0.6427  0.2902
 8061SOL    HW232010   2.643   1.914   4.138 -0.3982 -0.1000 -0.9068
 8061SOL    HW332011   2.658   2.055   4.084  0.3318 -0.1638 -0.8830
 8061SOL    MW432012   2.608   1.987   4.105 -0.1538  0.4383 -0.0225
 8062SOL     OW32013   5.659   2.086   1.939 -0.2596  0.0167  0.0130
 8062SOL    HW232014   5.693   2.163   1.985  0.5824  1.1695 -2.3662
 8062SOL    HW332015   5.583   2.118   1.892 -0.5178 -0.8728 -0.1914
 8062SOL    MW432016   5.654   2.101   1.939 -0.1826  0.0514 -0.3278
 8063SOL     OW32017   5.708   4.099   4.085 -0.3232  0.3571 -0.1749
 8063SOL    HW232018   5.663   4.127   4.005  0.5946  0.8303 -0.5382
 8063SOL    HW332019   5.653   4.133   4.156 -1.1434 -0.0619 -0.5955
 8063SOL    MW432020   5.695   4.107   4.083 -0.3103  0.3642 -0.2783
 8064SOL     OW32021   4.288   3.620   6.220 -0.0873  0.6824  0.0371
 8064SOL    HW232022   4.324   3.568   6.148 -1.9819  0.8221 -1.0838
 8064SOL    HW332023   4.203   3.580   6.238 -1.0022  2.5286  0.0565
 8064SOL    MW432024   4.282   3.608   6.213 -0.4580  0.9444 -0.1082
 8065SOL     OW32025   4.734   1.732   3.733  0.4532 -0.4737  0.2001
 8065SOL    HW232026   4.713   1.694   3.818  1.6724 -1.0244  0.2713
 8065SOL    HW332027   4.657   1.784   3.710  0.7121  1.0324  2.4054
 8065SOL    MW432028   4.721   1.734   3.741  0.6482 -0.3476  0.5004
 8066SOL     OW32029   4.610   0.275   4.821 -0.0692  0.4296 -0.3306
 8066SOL    HW232030   4.692   0.232   4.844  0.4040  0.8121 -1.2360
 8066SOL    HW332031   4.585   0.323   4.900  0.4891  0.1792  0.0039
 8066SOL    MW432032   4.617   0.276   4.835  0.0669  0.4470 -0.4060
 8067SOL     OW32033   5.624   5.716   3.614  0.5855 -0.0406 -0.0376
 8067SOL    HW232034   5.570   5.747   3.686  1.5081 -1.6060  1.3925
 8067SOL    HW332035   5.561   5.685   3.549 -0.3045 -1.6282  1.4927
 8067SOL    MW432036   5.609   5.716   3.615  0.5898 -0.4566  0.3530
 8068SOL     OW32037   3.251   0.585   1.226 -0.0245  0.1332  0.9359
 8068SOL    HW232038   3.252   0.681   1.222 -0.3209  0.1068 -0.0491
 8068SOL    HW332039   3.160   0.561   1.209  0.2909 -0.3539 -0.1616
 8068SOL    MW432040   3.239   0.595   1.223 -0.0220  0.0654  0.6612
 8069SOL     OW32041   4.182   1.083   3.462  0.2087 -0.2716 -0.7486
 8069SOL    HW232042   4.185   1.071   3.367 -1.5214  1.4123 -1.0951
 8069SOL    HW332043   4.247   1.151   3.480  0.8452 -0.8986 -0.6492
 8069SOL    MW432044   4.191   1.091   3.452  0.0644 -0.1321 -0.7812
 8070SOL     OW32045   3.286   1.647   3.040 -0.2476  0.3222  0.2809
 8070SOL    HW232046   3.326   1.734   3.039 -0.6668  0.5406 -1.2910
 8070SOL    HW332047   3.206   1.657   2.988  0.2851 -1.2336 -0.9431
 8070SOL    MW432048   3.281   1.659   3.033 -0.2326  0.1458 -0.0880
 8071SOL     OW32049   5.250   3.306   3.924 -0.5855 -0.7010 -0.1462
 8071SOL    HW232050   5.191   3.273   3.992 -1.3590 -0.5490 -0.7346
 8071SOL    HW332051   5.272   3.395   3.952 -1.7560 -0.2456 -0.6200
 8071SOL    MW432052   5.245   3.313   3.937 -0.8420 -0.6209 -0.2863
 8072SOL     OW32053   0.340   5.975   0.272  0.5310  0.0878 -0.5771
 8072SOL    HW232054   0.258   5.976   0.223 -0.1167 -0.5611  0.4442
 8072SOL    HW332055   0.397   5.917   0.222 -0.1925 -0.7526 -0.4654
 8072SOL    MW432056   0.337   5.968   0.259  0.3501 -0.1087 -0.4276
 8073SOL     OW32057   0.168   4.079   4.494  0.2938  0.4105 -0.2869
 8073SOL    HW232058   0.151   4.050   4.584  1.8449  1.0450  0.2603
 8073SOL    HW332059   0.264   4.080   4.487  0.2205 -0.9334 -2.4227
 8073SOL    MW432060   0.179   4.076   4.505  0.4888  0.3169 -0.4965
 8074SOL     OW32061   1.752   5.289   5.210  0.3426  0.3082  0.5615
 8074SOL    HW232062   1.828   5.295   5.152 -0.1272 -0.6248 -0.1777
 8074SOL    HW332063   1.724   5.380   5.222 -0.6518  0.4500 -2.1948
 8074SOL    MW432064   1.758   5.302   5.204  0.1494  0.2038  0.1003
 8075SOL     OW32065   6.289   1.758   1.643  0.1564  0.0802 -0.0207
 8075SOL    HW232066   6.341   1.691   1.687 -0.4175 -0.0998  0.3952
 8075SOL    HW332067   6.234   1.794   1.712 -2.5822 -1.9139 -0.9856
 8075SOL    MW432068   6.289   1.754   1.658 -0.2806 -0.2067 -0.0931
 8076SOL     OW32069   4.698   2.252   4.138 -0.2380 -0.3798 -0.0725
 8076SOL    HW232070   4.779   2.212   4.107 -0.0981 -0.2508  0.1298
 8076SOL    HW332071   4.656   2.184   4.191 -0.7983 -0.8399 -1.0678
 8076SOL    MW432072   4.703   2.238   4.141 -0.2935 -0.4235 -0.1772
 8077SOL     OW32073   4.471   6.067   2.182 -0.5964  0.0239 -0.6287
 8077SOL    HW232074   4.450   6.144   2.236  0.1802 -0.0239 -0.2323
 8077SOL    HW332075   4.387   6.024   2.166 -0.7353 -0.5955  1.5131
 8077SOL    MW432076   4.457   6.072   2.187 -0.5123 -0.0642 -0.2938
 8078SOL     OW32077   1.609   3.711   3.440  0.0204  0.0112 -0.2093
 8078SOL    HW232078   1.603   3.617   3.453 -0.8884 -0.2921 -2.4159
 8078SOL    HW332079   1.648   3.721   3.353  1.4767  1.7145  0.5762
 8078SOL    MW432080   1.613   3.700   3.430  0.0926  0.1959 -0.3968
 8079SOL     OW32081   4.416   6.318   3.500  0.9362 -0.3344 -0.3460
 8079SOL    HW232082   4.397   6.284   3.413  0.1096  0.5846 -0.5486
 8079SOL    HW332083   4.471   6.395   3.485  0.4460  0.0751 -0.0968
 8079SOL    MW432084   4.421   6.324   3.487  0.7625 -0.1591 -0.3398
 8080SOL     OW32085   2.173   3.807   6.203  0.6635  0.2903  0.4949
 8080SOL    HW232086   2.113   3.852   6.262 -0.6312  1.3192 -1.4613
 8080SOL    HW332087   2.209   3.877   6.148 -0.0566 -0.8015 -1.4851
 8080SOL    MW432088   2.170   3.822   6.203  0.3977  0.2820 -0.0244
 8081SOL     OW32089   2.923   6.424   3.583  0.1129  0.2413 -0.0600
 8081SOL    HW232090   2.834   6.398   3.559 -0.7681  0.4462  2.6246
 8081SOL    HW332091   2.979   6.366   3.533 -1.6158 -1.7686  0.1756
 8081SOL    MW432092   2.918   6.413   3.573 -0.2314  0.0031  0.3253
 8082SOL     OW32093   0.342   2.433   1.829  0.0657  0.6503  0.1039
 8082SOL    HW232094   0.253   2.411   1.801 -0.0377  0.6995  0.3908
 8082SOL    HW332095   0.384   2.468   1.750  0.8094 -2.1746 -0.8961
 8082SOL    MW432096   0.336   2.435   1.815  0.1502  0.2841  0.0098
 8083SOL     OW32097   2.328   0.038   0.278  0.1398 -0.3025 -0.3137
 8083SOL    HW232098   2.250   0.036   0.222 -1.2322  1.6783  1.3576
 8083SOL    HW332099   2.324  -0.043   0.328 -0.7774 -0.3182 -0.3976
 8083SOL    MW432100   2.317   0.027   0.277 -0.1622 -0.0432 -0.1043
 8084SOL     OW32101   1.543   2.643   6.367 -0.6123 -0.3581 -0.0674
 8084SOL    HW232102   1.478   2.636   6.436  0.3123  0.0617  0.8810
 8084SOL    HW332103   1.523   2.571   6.308 -0.0125 -2.2171  1.8735
 8084SOL    MW432104   1.532   2.633   6.368 -0.4112 -0.5480  0.3138
 8085SOL     OW32105   5.466   0.337   1.602  0.0167 -0.5246 -0.2015
 8085SOL    HW232106   5.445   0.257   1.649  0.4024 -0.8565 -0.5834
 8085SOL    HW332107   5.383   0.366   1.565 -0.2537 -0.3553  0.5273
 8085SOL    MW432108   5.453   0.331   1.603  0.0319 -0.5460 -0.1557
 8086SOL     OW32109   4.254   5.331   0.377  0.0201 -0.0744 -0.5215
 8086SOL    HW232110   4.175   5.382   0.357 -0.3140 -0.1267  0.5810
 8086SOL    HW332111   4.242   5.304   0.469  0.1878 -2.1387 -1.0613
 8086SOL    MW432112   4.242   5.334   0.387 -0.0019 -0.3536 -0.4473
 8087SOL     OW32113   5.701   5.869   3.032 -0.6160  0.0708 -0.2564
 8087SOL    HW232114   5.743   5.955   3.026 -0.5896  0.1912  1.2690
 8087SOL    HW332115   5.623   5.876   2.976 -2.4700  2.2565  2.3649
 8087SOL    MW432116   5.696   5.881   3.024 -0.8571  0.3750  0.2907
 8088SOL     OW32117   0.530   3.463   0.545  0.2593 -0.4065 -0.2953
 8088SOL    HW232118   0.584   3.389   0.518  0.6735  0.2145 -1.2103
 8088SOL    HW332119   0.443   3.443   0.510  0.4183 -0.3610 -0.7153
 8088SOL    MW432120   0.526   3.450   0.537  0.3350 -0.3185 -0.4714
 8089SOL     OW32121   3.749   1.709   4.854 -0.1225 -0.4534  0.3788
 8089SOL    HW232122   3.754   1.659   4.936 -3.5749 -1.5136  0.1172
 8089SOL    HW332123   3.695   1.785   4.875  2.3441  1.5429 -0.0479
 8089SOL    MW432124   3.743   1.712   4.868 -0.2525 -0.3299  0.2880
 8090SOL     OW32125   4.649   2.306   0.017  0.1660  0.2339 -0.1026
 8090SOL    HW232126   4.713   2.309   0.088  2.3941 -0.8400 -1.9204
 8090SOL    HW332127   4.667   2.223  -0.028 -0.4534  1.2898 -2.4937
 8090SOL    MW432128   4.660   2.295   0.020  0.3782  0.2315 -0.6580
 8091SOL     OW32129   3.249   6.361   3.801 -0.4419  0.3115 -0.2634
 8091SOL    HW232130   3.322   6.410   3.763  1.3670 -2.0449 -0.0727
 8091SOL    HW332131   3.211   6.313   3.727 -1.7099  1.3529 -0.3201
 8091SOL    MW432132   3.254   6.361   3.786 -0.3705  0.1380 -0.2457
 8092SOL     OW32133   6.147   3.074   2.585  0.3381 -0.7050  0.0405
 8092SOL    HW232134   6.179   2.991   2.620 -1.7990 -1.0951  1.3079
 8092SOL    HW332135   6.088   3.048   2.513 -0.1765 -0.3002  0.3097
 8092SOL    MW432136   6.143   3.059   2.580 -0.0118 -0.7031  0.2432
 8093SOL     OW32137   2.034   1.385   5.978  0.7026 -0.0277  0.1865
 8093SOL    HW232138   2.018   1.313   6.038 -2.2885 -0.7608 -1.2884
 8093SOL    HW332139   2.004   1.463   6.025 -0.9229 -0.4910 -0.0384
 8093SOL    MW432140   2.028   1.386   5.992  0.0935 -0.1855 -0.0378
 8094SOL     OW32141   4.839   1.451   1.089  0.0037  0.2068  0.4318
 8094SOL    HW232142   4.863   1.531   1.136 -1.5511  2.2740 -1.9933
 8094SOL    HW332143   4.909   1.438   1.026  1.3916 -1.7581  2.2639
 8094SOL    MW432144   4.851   1.460   1.087 -0.0183  0.2203  0.3536
 8095SOL     OW32145   3.925   1.828   4.658 -1.2411  0.1076 -0.7014
 8095SOL    HW232146   3.907   1.785   4.574 -0.8511  1.7565 -1.6687
 8095SOL    HW332147   3.880   1.774   4.723  1.0134 -3.0762 -1.5226
 8095SOL    MW432148   3.917   1.815   4.656 -0.8922 -0.0949 -0.9374
 8096SOL     OW32149   3.385   0.774   4.826 -0.2919 -0.3718  0.5264
 8096SOL    HW232150   3.394   0.850   4.884  1.4062 -1.2114  1.4388
 8096SOL    HW332151   3.475   0.746   4.809 -0.8215 -1.1765 -1.1817
 8096SOL    MW432152   3.398   0.780   4.831 -0.1378 -0.5888  0.4214
 8097SOL     OW32153   1.861   0.903   2.437 -0.6680  0.2137  0.4469
 8097SOL    HW232154   1.925   0.956   2.485 -1.1030  1.6124 -0.4777
 8097SOL    HW332155   1.912   0.863   2.366 -0.8850  1.7973 -0.6471
 8097SOL    MW432156   1.876   0.905   2.434 -0.7540  0.6072  0.1806
 8098SOL     OW32157   5.867   2.588   3.545  0.0551 -0.1766  0.2305
 8098SOL    HW232158   5.892   2.514   3.490  1.3148 -0.7037  1.4639
 8098SOL    HW332159   5.821   2.549   3.619  0.7890  0.2398  0.9251
 8098SOL    MW432160   5.864   2.573   3.547  0.3182 -0.1912  0.4849
 8099SOL     OW32161   2.863   3.925   3.894  0.2455  0.0044 -0.1558
 8099SOL    HW232162   2.770   3.902   3.892 -0.0128  0.9210  0.4699
 8099SOL    HW332163   2.885   3.928   3.987  0.9080 -0.1906 -0.2970
 8099SOL    MW432164   2.854   3.922   3.906  0.2988  0.0996 -0.0919
 8100SOL     OW32165   5.086   4.334   5.014  0.6115 -0.4410 -0.3494
 8100SOL    HW232166   5.097   4.253   4.965  0.5405 -1.7317  1.6547
 8100SOL    HW332167   5.166   4.340   5.067  0.6479  0.8500 -0.5257
 8100SOL    MW432168   5.098   4.324   5.015  0.6069 -0.4410 -0.1082
 8101SOL     OW32169   2.239   1.060   3.369 -0.5112  0.4438 -0.4967
 8101SOL    HW232170   2.250   1.142   3.418 -1.7261  0.0450  0.5266
 8101SOL    HW332171   2.272   0.992   3.428  0.0769  0.1437 -1.1585
 8101SOL    MW432172   2.245   1.062   3.383 -0.5939  0.3516 -0.4490
 8102SOL     OW32173   3.716   2.543   2.374 -0.3577  0.2395 -0.2596
 8102SOL    HW232174   3.623   2.556   2.394 -0.2846 -0.9889  1.0755
 8102SOL    HW332175   3.761   2.605   2.431 -0.3228  0.0658 -0.0973
 8102SOL    MW432176   3.709   2.553   2.384 -0.3435  0.0545 -0.0620
 8103SOL     OW32177   1.689   2.802   4.094  0.3613  0.2601 -0.6306
 8103SOL    HW232178   1.751   2.730   4.108  1.1527  0.6343 -2.0472
 8103SOL    HW332179   1.662   2.828   4.182 -1.2638 -2.8544 -0.0871
 8103SOL    MW432180   1.694   2.796   4.108  0.2513 -0.1014 -0.7458
 8104SOL     OW32181   3.202   2.202   6.314  0.0087  0.1241 -0.2343
 8104SOL    HW232182   3.294   2.188   6.289  0.3278 -0.0752  0.9869
 8104SOL    HW332183   3.204   2.206   6.410 -1.2779  0.0155 -0.1910
 8104SOL    MW432184   3.215   2.201   6.323 -0.1190  0.0834 -0.0675
 8105SOL     OW32185   0.783   1.602   2.393  0.0346 -0.4562 -0.1937
 8105SOL    HW232186   0.739   1.595   2.309  3.8223  0.0260 -2.4264
 8105SOL    HW332187   0.830   1.519   2.403  1.3941  0.3438  0.3325
 8105SOL    MW432188   0.784   1.590   2.383  0.7137 -0.2870 -0.4188
 8106SOL     OW32189   1.319   3.916   6.165  0.0283  0.0399  0.0976
 8106SOL    HW232190   1.331   4.011   6.171  0.6546  0.0917 -1.5508
 8106SOL    HW332191   1.236   3.905   6.119 -0.2853 -0.2371  0.7082
 8106SOL    MW432192   1.309   3.927   6.160  0.0696  0.0102 -0.0394
 8107SOL     OW32193   4.984   2.503   4.123  0.1438  0.4143  0.2459
 8107SOL    HW232194   5.038   2.582   4.122  0.5758  0.1257 -0.8595
 8107SOL    HW332195   4.895   2.535   4.136  0.2861  1.0987 -0.3856
 8107SOL    MW432196   4.980   2.518   4.125  0.2195  0.4665  0.0168
 8108SOL     OW32197   3.148   3.815   1.577 -0.3460  0.1136 -0.0746
 8108SOL    HW232198   3.220   3.829   1.638 -1.0133  0.2507  0.7081
 8108SOL    HW332199   3.079   3.774   1.631 -1.2865  1.0675 -0.5174
 8108SOL    MW432200   3.148   3.811   1.592 -0.5582  0.2575 -0.0297
 8109SOL     OW32201   2.650   6.360   1.162  0.1118 -0.4108  0.2451
 8109SOL    HW232202   2.567   6.400   1.189 -0.3771 -1.2243 -0.0215
 8109SOL    HW332203   2.679   6.412   1.087  0.2089  0.3119  0.7717
 8109SOL    MW432204   2.643   6.372   1.156  0.0601 -0.4228  0.2794
 8110SOL     OW32205   3.527   0.542   0.020  0.6248  0.2395  0.3835
 8110SOL    HW232206   3.515   0.521   0.113  1.8057 -1.2150  0.2364
 8110SOL    HW332207   3.439   0.549  -0.015  0.1329  1.6397  1.7633
 8110SOL    MW432208   3.514   0.540   0.028  0.7157  0.2324  0.5461
 8111SOL     OW32209   3.708   0.942   5.219  0.5726 -0.2937 -0.6581
 8111SOL    HW232210   3.756   0.964   5.299 -2.6792 -2.4257  2.1671
 8111SOL    HW332211   3.734   0.851   5.201 -1.3136 -1.0381  0.1763
 8111SOL    MW432212   3.718   0.933   5.227 -0.1053 -0.6732 -0.1752
 8112SOL     OW32213   0.744   2.629   6.189 -0.0540  0.8635  0.1748
 8112SOL    HW232214   0.726   2.669   6.104  0.5808 -1.3620 -1.0960
 8112SOL    HW332215   0.839   2.623   6.194 -0.1285 -1.1930 -0.0987
 8112SOL    MW432216   0.754   2.634   6.179  0.0199  0.2986 -0.0290
 8113SOL     OW32217   0.144   3.069   1.138  0.5988  0.3724 -0.3197
 8113SOL    HW232218   0.122   2.980   1.164 -0.7257  0.2118 -1.8185
 8113SOL    HW332219   0.188   3.060   1.053  3.0317  1.0002  0.7779
 8113SOL    MW432220   0.147   3.056   1.130  0.7450  0.4341 -0.3727
 8114SOL     OW32221   1.519   2.418   2.227 -0.4232 -0.0253 -0.2506
 8114SOL    HW232222   1.527   2.369   2.309 -2.2174 -0.2890 -0.1916
 8114SOL    HW332223   1.433   2.393   2.193 -0.4198  1.3704 -1.3685
 8114SOL    MW432224   1.509   2.408   2.233 -0.6595  0.1241 -0.3903
 8115SOL     OW32225   3.766   6.315   0.584 -0.0872 -0.2873  0.2655
 8115SOL    HW232226   3.703   6.373   0.627 -0.0119  0.4506 -0.5870
 8115SOL    HW332227   3.712   6.244   0.549 -0.0869 -1.1687  1.9872
 8115SOL    MW432228   3.751   6.314   0.585 -0.0772 -0.3063  0.3802
 8116SOL     OW32229   1.408   6.381   1.516 -0.3609 -0.0033  0.1371
 8116SOL    HW232230   1.480   6.321   1.494 -0.0570 -0.3051  1.8341
 8116SOL    HW332231   1.400   6.374   1.611 -0.9628  1.9447  0.2601
 8116SOL    MW432232   1.417   6.372   1.526 -0.4002  0.2139  0.3772
 8117SOL     OW32233   4.958   4.766   3.251 -0.2296  0.4471  0.7770
 8117SOL    HW232234   4.974   4.860   3.247 -0.0709  0.4184  0.7510
 8117SOL    HW332235   4.976   4.735   3.162  1.6985  0.0688  1.2698
 8117SOL    MW432236   4.962   4.774   3.239  0.0457  0.3934  0.8386
 8118SOL     OW32237   6.172   1.554   1.934  0.7598 -0.4097 -0.0069
 8118SOL    HW232238   6.224   1.550   2.015 -0.6546 -1.8105  0.9098
 8118SOL    HW332239   6.190   1.470   1.891  0.1743 -0.4105 -0.2575
 8118SOL    MW432240   6.181   1.542   1.939  0.4959 -0.5946  0.0810
 8119SOL     OW32241   5.493   3.844   1.537 -0.5311  0.1049 -0.1850
 8119SOL    HW232242   5.527   3.903   1.604  0.6886  2.8821 -2.9926
 8119SOL    HW332243   5.420   3.891   1.498 -1.6080 -1.6952 -0.4839
 8119SOL    MW432244   5.488   3.858   1.540 -0.5123  0.2338 -0.5949
 8120SOL     OW32245   5.180   1.907   3.355  0.3647  0.0925 -0.5106
 8120SOL    HW232246   5.118   1.972   3.324  1.4890  1.4425 -0.0435
 8120SOL    HW332247   5.260   1.924   3.306  0.6527 -1.0389 -0.4698
 8120SOL    MW432248   5.182   1.918   3.345  0.5510  0.1213 -0.4436
 8121SOL     OW32249   1.525   5.867   0.738 -0.3502  0.2017  0.1096
 8121SOL    HW232250   1.517   5.780   0.778  0.4468  0.1642  0.1970
 8121SOL    HW332251   1.436   5.888   0.709 -0.1563 -1.7319 -2.1571
 8121SOL    MW432252   1.512   5.858   0.739 -0.2195 -0.0584 -0.1780
 8122SOL     OW32253   3.065   2.954   3.912 -0.0582 -0.5945 -0.1349
 8122SOL    HW232254   3.105   2.938   3.997 -0.5091 -0.1245  0.1726
 8122SOL    HW332255   3.037   2.867   3.882  0.4437 -0.8120  0.0172
 8122SOL    MW432256   3.067   2.940   3.919 -0.0514 -0.5612 -0.0743
 8123SOL     OW32257   1.326   4.304   1.855  0.1289 -0.3815 -0.4036
 8123SOL    HW232258   1.267   4.307   1.931 -1.7024 -0.6527 -1.7513
 8123SOL    HW332259   1.405   4.351   1.885 -0.7093 -0.0570  1.4959
 8123SOL    MW432260   1.329   4.311   1.869 -0.2233 -0.3745 -0.3308
 8124SOL     OW32261   6.410   3.871   3.390 -0.0826 -0.1604  0.2144
 8124SOL    HW232262   6.461   3.803   3.434 -0.6771 -0.0597  1.0693
 8124SOL    HW332263   6.444   3.953   3.425 -2.0512 -0.1275  2.2235
 8124SOL    MW432264   6.422   3.873   3.400 -0.4207 -0.1427  0.5923
 8125SOL     OW32265   3.266   6.274   5.527  0.1367 -0.0711  0.0500
 8125SOL    HW232266   3.224   6.343   5.578  0.0541 -0.4695  0.5262
 8125SOL    HW332267   3.225   6.280   5.440 -0.8138 -0.3582  0.4581
 8125SOL    MW432268   3.255   6.284   5.522  0.0004 -0.1616  0.1667
 8126SOL     OW32269   4.989   4.090   1.628 -0.7539  0.1049  0.5443
 8126SOL    HW232270   4.974   4.053   1.541  1.4719 -0.3134  0.3006
 8126SOL    HW332271   4.954   4.024   1.688  0.0615 -0.8116  0.0271
 8126SOL    MW432272   4.982   4.076   1.624 -0.3526 -0.0712  0.4439
 8127SOL     OW32273   0.082   6.358   4.488 -0.1179  0.1336 -0.8049
 8127SOL    HW232274   0.040   6.356   4.402  1.3666  0.6453 -1.5771
 8127SOL    HW332275   0.025   6.414   4.541 -0.1304  1.2725 -1.9706
 8127SOL    MW432276   0.069   6.365   4.484  0.0763  0.3514 -1.0606
 8128SOL     OW32277   3.263   3.678   6.109  0.0067 -0.0142  0.5067
 8128SOL    HW232278   3.269   3.653   6.017  0.1699 -1.4929  0.8990
 8128SOL    HW332279   3.351   3.665   6.144 -0.5480 -1.7393  1.3913
 8128SOL    MW432280   3.275   3.673   6.102 -0.0450 -0.4369  0.6751
 8129SOL     OW32281   6.325   2.435   1.441  0.2338 -0.3705  0.4028
 8129SOL    HW232282   6.262   2.425   1.371 -1.2878 -1.2515  1.8356
 8129SOL    HW332283   6.406   2.397   1.406 -0.3006 -0.2306 -1.0579
 8129SOL    MW432284   6.328   2.429   1.427 -0.0375 -0.4683  0.3991
 8130SOL     OW32285   4.495   0.407   5.015  0.0869 -0.3348 -0.0185
 8130SOL    HW232286   4.510   0.455   5.097 -1.1763  2.1480 -1.1083
 8130SOL    HW332287   4.461   0.322   5.042  0.8765 -0.0395  2.0352
 8130SOL    MW432288   4.493   0.402   5.029  0.0244  0.0317  0.1087
 8131SOL     OW32289   0.715   4.401   5.357  0.2885 -0.5287 -0.0923
 8131SOL    HW232290   0.744   4.319   5.318 -0.0374  0.8937 -3.7599
 8131SOL    HW332291   0.796   4.452   5.367  0.1943 -0.2281 -0.7679
 8131SOL    MW432292   0.730   4.397   5.353  0.2331 -0.3013 -0.6653
 8132SOL     OW32293   2.338   5.509   2.782  0.7262 -0.2548  0.0412
 8132SOL    HW232294   2.263   5.474   2.735  0.0903  0.4475  0.5125
 8132SOL    HW332295   2.398   5.435   2.790 -0.3427 -1.0901  0.5514
 8132SOL    MW432296   2.336   5.495   2.777  0.5012 -0.2723  0.1707
 8133SOL     OW32297   2.164   4.647   4.427  0.4660 -0.1286 -0.2090
 8133SOL    HW232298   2.210   4.594   4.492 -0.3098 -0.4369  0.1066
 8133SOL    HW332299   2.082   4.600   4.411 -1.6620  2.3149  2.2586
 8133SOL    MW432300   2.159   4.634   4.433  0.0829  0.1531  0.1582
 8134SOL     OW32301   0.913   2.324   2.609  0.1325 -0.4732  0.2047
 8134SOL    HW232302   0.980   2.283   2.554  0.8426  1.5195 -0.5058
 8134SOL    HW332303   0.848   2.255   2.623  2.7743 -2.8630  1.8143
 8134SOL    MW432304   0.914   2.309   2.603  0.5747 -0.5256  0.3233
 8135SOL     OW32305   0.490   0.912   3.017  0.2729  0.1106 -0.2183
 8135SOL    HW232306   0.451   0.876   3.096  0.5503  0.8552  0.2709
 8135SOL    HW332307   0.520   0.835   2.968  2.8302 -0.3206  1.8136
 8135SOL    MW432308   0.489   0.897   3.021  0.6469  0.1519  0.1143
 8136SOL     OW32309   3.771   1.234   3.283  0.1296 -0.6100 -0.1631
 8136SOL    HW232310   3.814   1.216   3.366 -0.9779 -0.4579  0.4509
 8136SOL    HW332311   3.788   1.327   3.267 -0.8736 -0.2746  0.6265
 8136SOL    MW432312   3.779   1.244   3.291 -0.1489 -0.5457  0.0221
 8137SOL     OW32313   1.265   3.874   4.178 -0.6217  0.4286 -0.3098
 8137SOL    HW232314   1.303   3.948   4.131 -0.7131 -0.0418 -1.1508
 8137SOL    HW332315   1.254   3.905   4.267 -0.6223  1.4151 -0.6427
 8137SOL    MW432316   1.268   3.888   4.183 -0.6338  0.4967 -0.4647
 8138SOL     OW32317   0.690   3.077   2.954 -0.4282 -0.0849 -0.7130
 8138SOL    HW232318   0.783   3.055   2.952 -0.6744 -1.2358 -2.3036
 8138SOL    HW332319   0.647   2.997   2.985 -0.8450  0.7295  0.8899
 8138SOL    MW432320   0.696   3.063   2.958 -0.5157 -0.1293 -0.7114
 8139SOL     OW32321   4.403   5.279   5.007 -0.8471  0.3744  0.0382
 8139SOL    HW232322   4.494   5.309   5.013 -1.5313  2.6976 -0.0002
 8139SOL    HW332323   4.406   5.205   4.947  1.1153 -0.1379  0.6857
 8139SOL    MW432324   4.416   5.273   5.000 -0.6784  0.6134  0.1186
 8140SOL     OW32325   6.082   5.276   0.525  0.3066  0.1886 -0.4420
 8140SOL    HW232326   6.005   5.228   0.556 -0.2703  0.5292 -1.3150
 8140SOL    HW332327   6.113   5.323   0.603 -1.0228  0.9028 -0.3071
 8140SOL    MW432328   6.076   5.276   0.539  0.0551  0.3278 -0.5394
 8141SOL     OW32329   1.970   2.142   0.513 -0.5634  0.1689  0.3483
 8141SOL    HW232330   2.032   2.202   0.470 -1.7980  1.0216 -0.2860
 8141SOL    HW332331   1.941   2.084   0.442 -0.8555  0.0781  0.5436
 8141SOL    MW432332   1.975   2.142   0.498 -0.7648  0.2694  0.2904
 8142SOL     OW32333   5.627   0.353   3.191 -0.1703 -0.7988  0.4608
 8142SOL    HW232334   5.598   0.440   3.163  1.7233  0.1640  1.3153
 8142SOL    HW332335   5.555   0.318   3.242 -0.8816  0.3507  0.2709
 8142SOL    MW432336   5.614   0.360   3.194 -0.0143 -0.5201  0.5485
 8143SOL     OW32337   0.265   2.813   4.374 -0.4106 -0.1302  0.0646
 8143SOL    HW232338   0.206   2.866   4.427  2.1018 -1.0002  4.1073
 8143SOL    HW332339   0.207   2.752   4.328 -2.8199  0.7095  1.7939
 8143SOL    MW432340   0.249   2.812   4.375 -0.3970 -0.1342  0.8261
 8144SOL     OW32341   4.205   0.799   4.167 -0.1721  0.1837  1.0849
 8144SOL    HW232342   4.251   0.748   4.101  0.2826  1.2226  0.5784
 8144SOL    HW332343   4.225   0.755   4.250  0.8960  0.0235  0.7523
 8144SOL    MW432344   4.213   0.786   4.169  0.0288  0.2997  0.9742
 8145SOL     OW32345   2.015   4.819   6.433  0.0004  0.5463  0.1040
 8145SOL    HW232346   2.023   4.885   6.502  0.1305  1.3369 -0.6477
 8145SOL    HW332347   2.074   4.850   6.363  0.5555 -0.7076 -0.0079
 8145SOL    MW432348   2.024   4.832   6.433  0.0908  0.4852 -0.0099
 8146SOL     OW32349   3.886   0.397   4.321 -0.3491  0.2359  0.1233
 8146SOL    HW232350   3.935   0.424   4.398 -0.5603  0.4101  0.1970
 8146SOL    HW332351   3.797   0.382   4.353 -0.5514  0.7679 -0.1733
 8146SOL    MW432352   3.881   0.399   4.335 -0.4037  0.3291  0.0939
 8147SOL     OW32353   0.076   4.680   2.611  0.4785  0.1066  0.1561
 8147SOL    HW232354  -0.015   4.712   2.616  0.9306  1.5641 -0.3851
 8147SOL    HW332355   0.074   4.595   2.656 -0.9510  0.5549  1.0241
 8147SOL    MW432356   0.064   4.673   2.618  0.3496  0.3580  0.1992
 8148SOL     OW32357   3.364   1.215   0.416  0.2714 -0.4992 -0.2162
 8148SOL    HW232358   3.370   1.139   0.358  2.8168  0.0193 -0.7722
 8148SOL    HW332359   3.455   1.233   0.441 -0.6054  0.0180  3.0349
 8148SOL    MW432360   3.377   1.207   0.411  0.4915 -0.3625  0.1394
 8149SOL     OW32361   5.593   6.227   4.667 -0.0659 -0.4352 -0.2490
 8149SOL    HW232362   5.568   6.173   4.592 -1.9691  0.1218 -0.0868
 8149SOL    HW332363   5.564   6.315   4.643  0.9802  0.1039  0.3984
 8149SOL    MW432364   5.586   6.231   4.654 -0.1790 -0.2906 -0.1422
 8150SOL     OW32365   0.887   1.136   1.840 -0.2612 -0.5703 -0.3015
 8150SOL    HW232366   0.963   1.119   1.784 -1.3973 -0.0077 -2.0743
 8150SOL    HW332367   0.925   1.174   1.919  1.3963 -1.4535 -0.6087
 8150SOL    MW432368   0.902   1.139   1.843 -0.1924 -0.6126 -0.5759
 8151SOL     OW32369   1.963   2.344   1.983 -0.1377 -0.4872  0.2879
 8151SOL    HW232370   1.891   2.394   1.945 -0.5038 -1.4556 -0.3310
 8151SOL    HW332371   1.927   2.308   2.064  0.0625  0.0718  0.6306
 8151SOL    MW432372   1.949   2.346   1.989 -0.1596 -0.5412  0.2514
 8152SOL     OW32373   3.003   4.540   3.950  0.1602  0.9312  0.3621
 8152SOL    HW232374   2.908   4.545   3.963 -0.1108  0.2160 -1.0907
 8152SOL    HW332375   3.017   4.572   3.861  0.9975 -0.9785 -0.2494
 8152SOL    MW432376   2.992   4.545   3.940  0.2349  0.5849  0.0897
 8153SOL     OW32377   1.324   6.056   5.509  0.5366 -0.0885  0.0406
 8153SOL    HW232378   1.265   6.131   5.515 -1.2958 -1.5738  2.3229
 8153SOL    HW332379   1.398   6.080   5.565 -0.5434 -0.3116  1.6424
 8153SOL    MW432380   1.326   6.069   5.517  0.1523 -0.3139  0.5530
 8154SOL     OW32381   3.955   5.840   1.829 -0.2240  0.5577  0.1245
 8154SOL    HW232382   3.889   5.897   1.868 -0.0513  0.2991  0.7975
 8154SOL    HW332383   3.915   5.808   1.748 -1.5018 -0.7446  1.2257
 8154SOL    MW432384   3.941   5.843   1.823 -0.3698  0.3518  0.3586
 8155SOL     OW32385   6.278   6.290   2.775  0.3822  0.1894  0.1347
 8155SOL    HW232386   6.247   6.362   2.830  0.2371 -1.6701  2.6486
 8155SOL    HW332387   6.364   6.268   2.811  0.3276 -1.0340 -0.4380
 8155SOL    MW432388   6.285   6.297   2.787  0.3558 -0.2174  0.3908
 8156SOL     OW32389   0.968   2.592   3.628  0.2466 -0.6333  0.1226
 8156SOL    HW232390   1.036   2.550   3.681 -1.1238 -2.0456  0.8271
 8156SOL    HW332391   0.927   2.655   3.687 -0.1399 -0.9592  0.2011
 8156SOL    MW432392   0.972   2.595   3.643  0.0148 -0.8626  0.2259
 8157SOL     OW32393   2.581   2.825   2.998  0.3963 -0.1283 -0.5612
 8157SOL    HW232394   2.618   2.737   3.006 -1.2224 -0.8249 -0.4169
 8157SOL    HW332395   2.564   2.836   2.905  1.2746  0.3491 -0.6806
 8157SOL    MW432396   2.584   2.815   2.987  0.2986 -0.1572 -0.5579
 8158SOL     OW32397   3.256   2.580   2.024  0.0480  0.0248  0.5060
 8158SOL    HW232398   3.179   2.540   1.983 -0.6359  0.0851  1.6941
 8158SOL    HW332399   3.220   2.634   2.095  1.0804  1.2622  0.1245
 8158SOL    MW432400   3.241   2.582   2.028  0.0940  0.1960  0.6124
 8159SOL     OW32401   2.695   3.234   4.885  0.0962  0.1785  0.3427
 8159SOL    HW232402   2.702   3.258   4.978  2.4868 -0.3423  0.3851
 8159SOL    HW332403   2.765   3.284   4.843  0.3875 -1.1251 -0.7956
 8159SOL    MW432404   2.705   3.244   4.892  0.4500 -0.0622  0.1981
 8160SOL     OW32405   1.764   1.981   6.350  0.0227 -0.3409 -0.2297
 8160SOL    HW232406   1.844   1.930   6.337  0.8748  0.4175  1.6628
 8160SOL    HW332407   1.787   2.045   6.418 -2.7559 -1.4400  1.9428
 8160SOL    MW432408   1.778   1.983   6.357 -0.2314 -0.3858  0.3067
 8161SOL     OW32409   4.851   4.954   0.384  0.5715 -0.6504 -0.9292
 8161SOL    HW232410   4.835   5.044   0.357  0.2896 -0.2773  0.3713
 8161SOL    HW332411   4.778   4.934   0.444  0.1213 -2.0651 -1.9048
 8161SOL    MW432412   4.839   4.963   0.389  0.4749 -0.7879 -0.8864
 8162SOL     OW32413   3.653   4.591   1.384  0.1490  0.0144  0.5000
 8162SOL    HW232414   3.573   4.627   1.346 -0.9070 -0.2549  2.3536
 8162SOL    HW332415   3.656   4.627   1.473  1.5139 -0.8254  0.8227
 8162SOL    MW432416   3.643   4.600   1.391  0.1897 -0.1319  0.7871
 8163SOL     OW32417   3.802   0.833   1.671 -0.2491  0.3014  0.1948
 8163SOL    HW232418   3.883   0.877   1.644 -0.2732 -0.0109 -0.4071
 8163SOL    HW332419   3.756   0.899   1.722  0.6109  0.3168  0.9738
 8163SOL    MW432420   3.807   0.848   1.674 -0.1388  0.2622  0.2181
 8164SOL     OW32421   1.299   3.005   1.978  0.6792  0.1740  0.3604
 8164SOL    HW232422   1.382   2.957   1.966 -0.0729 -1.3828  1.1145
 8164SOL    HW332423   1.323   3.084   2.026  1.6417 -0.5728  1.1355
 8164SOL    MW432424   1.313   3.009   1.983  0.7070 -0.1299  0.5622
 8165SOL     OW32425   2.103   6.129   0.170 -0.3583  0.4340  0.0337
 8165SOL    HW232426   2.194   6.151   0.150 -0.5056  1.6942  0.5979
 8165SOL    HW332427   2.070   6.087   0.091  0.8134 -0.4105 -0.0439
 8165SOL    MW432428   2.111   6.126   0.157 -0.2232  0.4888  0.0979
 8166SOL     OW32429   0.222   3.804   0.917  0.5904  0.8403 -0.3650
 8166SOL    HW232430   0.310   3.788   0.951  0.0692  0.1637  0.7293
 8166SOL    HW332431   0.193   3.883   0.962 -0.0277  0.0520  0.6728
 8166SOL    MW432432   0.230   3.812   0.927  0.4401  0.6470 -0.0837
 8167SOL     OW32433   1.321   4.305   3.710 -0.2502 -0.5220  0.2749
 8167SOL    HW232434   1.391   4.328   3.649  0.1475 -1.3411  0.4025
 8167SOL    HW332435   1.292   4.218   3.682 -0.4786 -0.6465  0.8724
 8167SOL    MW432436   1.327   4.296   3.698 -0.2279 -0.6465  0.3706
 8168SOL     OW32437   4.197   3.247   2.259 -0.1422 -0.0935 -0.4323
 8168SOL    HW232438   4.177   3.327   2.210 -1.5059  0.2809  0.6584
 8168SOL    HW332439   4.111   3.215   2.289  0.5139 -1.1366  0.4039
 8168SOL    MW432440   4.183   3.254   2.257 -0.2355 -0.1817 -0.1781
 8169SOL     OW32441   5.183   3.025   5.931  0.5979  0.0721 -0.0668
 8169SOL    HW232442   5.135   3.021   5.848  1.0120 -2.8793 -0.2656
 8169SOL    HW332443   5.275   3.030   5.905  0.8118 -2.0909  0.1138
 8169SOL    MW432444   5.189   3.025   5.916  0.6807 -0.6027 -0.0692
 8170SOL     OW32445   1.159   4.715   4.036  0.0006 -0.3607 -0.0483
 8170SOL    HW232446   1.075   4.694   4.078  0.7856 -2.2990  0.6716
 8170SOL    HW332447   1.186   4.634   3.995  2.3683 -0.3106  1.2639
 8170SOL    MW432448   1.151   4.702   4.036  0.4166 -0.6098  0.2198
 8171SOL     OW32449   0.516   0.108   3.559 -0.2133 -0.6044 -0.1502
 8171SOL    HW232450   0.436   0.081   3.604  0.4983 -0.2080  1.4231
 8171SOL    HW332451   0.486   0.151   3.479 -1.6190  0.3851  0.8775
 8171SOL    MW432452   0.502   0.110   3.554 -0.3049 -0.4215  0.1930
 8172SOL     OW32453   4.162   5.908   1.452  0.6282 -0.3219 -0.1094
 8172SOL    HW232454   4.114   5.936   1.374 -0.1566  0.7701  0.7235
 8172SOL    HW332455   4.125   5.960   1.523 -0.0203 -2.6252  1.3550
 8172SOL    MW432456   4.151   5.919   1.451  0.4391 -0.4817  0.1937
 8173SOL     OW32457   4.514   0.182   5.559  0.7231 -0.4725  0.7810
 8173SOL    HW232458   4.531   0.098   5.602  0.0714 -1.0359 -0.0328
 8173SOL    HW332459   4.420   0.196   5.573 -0.1003 -1.8578 -2.4223
 8173SOL    MW432460   4.504   0.172   5.567  0.5285 -0.7296  0.2510
 8174SOL     OW32461   4.635   0.688   1.547 -0.1711 -0.7095 -0.5217
 8174SOL    HW232462   4.729   0.704   1.550 -0.3896  0.8259 -1.0558
 8174SOL    HW332463   4.598   0.769   1.511 -1.7505 -1.0445  0.2643
 8174SOL    MW432464   4.642   0.701   1.543 -0.4083 -0.5512 -0.4885
 8175SOL     OW32465   0.735   4.019   3.079  0.7724 -0.0216 -0.1596
 8175SOL    HW232466   0.824   4.043   3.106  1.7681 -2.6450 -0.7897
 8175SOL    HW332467   0.703   3.965   3.151  0.0683  0.0693 -0.4032
 8175SOL    MW432468   0.743   4.015   3.092  0.8108 -0.3557 -0.2749
 8176SOL     OW32469   2.647   3.810   1.304 -0.2283 -0.2152 -0.2645
 8176SOL    HW232470   2.669   3.902   1.315 -0.3950 -0.3353  1.2490
 8176SOL    HW332471   2.731   3.767   1.285 -0.2213  0.2901 -1.4749
 8176SOL    MW432472   2.661   3.816   1.303 -0.2494 -0.1644 -0.2245
 8177SOL     OW32473   3.763   1.965   5.183  0.0644 -0.1322 -0.0408
 8177SOL    HW232474   3.791   1.953   5.274 -0.1584 -0.5425 -0.0250
 8177SOL    HW332475   3.844   1.975   5.134  0.2157 -0.6505  0.0973
 8177SOL    MW432476   3.777   1.965   5.189  0.0550 -0.2547 -0.0205
 8178SOL     OW32477   6.350   5.386   4.428  0.3086  0.2429 -0.0479
 8178SOL    HW232478   6.292   5.439   4.375 -0.7294  0.8915  1.6430
 8178SOL    HW332479   6.308   5.300   4.432 -0.1877  0.5047  0.5790
 8178SOL    MW432480   6.337   5.382   4.422  0.1061  0.3630  0.2579
 8179SOL     OW32481   3.214   1.473   5.228 -0.7194  1.0488 -0.2997
 8179SOL    HW232482   3.268   1.525   5.169 -0.4066 -0.0656 -1.0217
 8179SOL    HW332483   3.153   1.426   5.171 -0.4251 -0.0236  0.2390
 8179SOL    MW432484   3.213   1.473   5.213 -0.6393  0.7603 -0.3239
 8180SOL     OW32485   3.294   3.104   0.689 -0.2991  0.0460  0.4725
 8180SOL    HW232486   3.380   3.113   0.649 -0.5925  0.4157 -0.0853
 8180SOL    HW332487   3.307   3.040   0.759  0.2457 -0.5614 -0.1610
 8180SOL    MW432488   3.307   3.097   0.693 -0.2659  0.0146  0.3153
 8181SOL     OW32489   3.414   4.856   5.688  0.0644 -0.7572 -0.0276
 8181SOL    HW232490   3.327   4.847   5.727 -0.2776 -1.0276 -0.8216
 8181SOL    HW332491   3.472   4.875   5.762 -0.8841  0.9283  0.3529
 8181SOL    MW432492   3.410   4.857   5.703 -0.1059 -0.5705 -0.0821
 8182SOL     OW32493   5.480   1.341   6.136 -0.2967  0.3607  0.4080
 8182SOL    HW232494   5.557   1.384   6.174 -0.4479  0.8942  0.1333
 8182SOL    HW332495   5.408   1.364   6.194 -0.0476 -1.1911  1.3765
 8182SOL    MW432496   5.481   1.350   6.148 -0.2838  0.2263  0.4995
 8183SOL     OW32497   5.073   0.046   5.971 -0.2607  0.1382 -0.3964
 8183SOL    HW232498   5.042   0.137   5.971 -0.4817  0.1261 -2.9567
 8183SOL    HW332499   5.157   0.050   6.017 -0.1060  1.7117 -0.7463
 8183SOL    MW432500   5.080   0.059   5.977 -0.2694  0.3442 -0.7803
 8184SOL     OW32501   0.938   1.768   3.698 -0.3345 -0.6776 -0.0097
 8184SOL    HW232502   0.875   1.748   3.767 -0.2555 -2.5006 -0.3970
 8184SOL    HW332503   0.888   1.760   3.617  0.0394 -0.6019 -0.2505
 8184SOL    MW432504   0.923   1.764   3.697 -0.2748 -0.9081 -0.0926
 8185SOL     OW32505   5.152   2.423   3.004  0.2257 -0.5263  0.1206
 8185SOL    HW232506   5.073   2.396   2.957  0.4516 -1.1528  0.0926
 8185SOL    HW332507   5.224   2.402   2.944  0.3991  0.3247  0.0180
 8185SOL    MW432508   5.151   2.417   2.990  0.2784 -0.4967  0.1034
 8186SOL     OW32509   1.955   0.474   5.199  0.2465  0.3358 -0.3810
 8186SOL    HW232510   1.997   0.392   5.173  1.9488  1.1083 -0.2365
 8186SOL    HW332511   1.946   0.523   5.118 -1.7162 -0.3522 -0.6305
 8186SOL    MW432512   1.960   0.470   5.185  0.2122  0.3469 -0.3949
 8187SOL     OW32513   2.401   1.157   3.720  0.4194  0.7061 -0.2944
 8187SOL    HW232514   2.465   1.127   3.784 -0.5266  1.8078  1.2508
 8187SOL    HW332515   2.317   1.151   3.766 -0.1036  3.0407 -0.8236
 8187SOL    MW432516   2.399   1.152   3.735  0.2256  1.1595 -0.1604
 8188SOL     OW32517   3.876   6.429   3.090 -0.4152  0.2076 -0.1432
 8188SOL    HW232518   3.890   6.452   2.998  0.0216 -0.7429 -0.3321
 8188SOL    HW332519   3.924   6.346   3.101  0.3332  0.7860  1.1755
 8188SOL    MW432520   3.884   6.421   3.079 -0.2588  0.1585  0.0058
 8189SOL     OW32521   5.307   0.538   6.353 -0.6968  0.5866 -0.2608
 8189SOL    HW232522   5.212   0.539   6.339 -0.6954  2.4752 -0.4906
 8189SOL    HW332523   5.344   0.556   6.267 -0.2546  1.9495  0.1795
 8189SOL    MW432524   5.299   0.541   6.340 -0.6383  1.0156 -0.2330
 8190SOL     OW32525   1.603   0.795   2.902  0.0318  0.3797 -0.1722
 8190SOL    HW232526   1.657   0.851   2.958 -0.1562 -0.4766  0.9040
 8190SOL    HW332527   1.653   0.714   2.895 -1.6206 -0.9534  1.9645
 8190SOL    MW432528   1.617   0.792   2.909 -0.2110  0.0908  0.2517
 8191SOL     OW32529   3.518   3.632   5.176 -0.0363 -0.5908  0.5024
 8191SOL    HW232530   3.562   3.683   5.108 -0.4900  0.4820  0.9898
 8191SOL    HW332531   3.583   3.622   5.245  1.5253 -4.3495 -1.2420
 8191SOL    MW432532   3.532   3.638   5.176  0.1099 -0.9452  0.3366
 8192SOL     OW32533   2.923   6.322   0.468 -0.4992 -0.9401 -0.0961
 8192SOL    HW232534   2.833   6.321   0.502 -0.4599 -0.4032  0.0254
 8192SOL    HW332535   2.932   6.408   0.426  0.5146 -0.2849  1.3789
 8192SOL    MW432536   2.912   6.333   0.467 -0.3603 -0.7828  0.1146
 8193SOL     OW32537   1.327   3.573   1.152  0.1738 -0.1270  0.0317
 8193SOL    HW232538   1.363   3.498   1.198 -0.5645 -0.5933 -0.1387
 8193SOL    HW332539   1.248   3.540   1.110  0.4649  0.4603 -1.0074
 8193SOL    MW432540   1.321   3.559   1.152  0.1148 -0.1110 -0.1279
 8194SOL     OW32541   5.879   3.274   6.144  0.5086 -0.4436 -0.0901
 8194SOL    HW232542   5.870   3.369   6.143  2.1926 -0.2211 -2.0965
 8194SOL    HW332543   5.838   3.245   6.062 -1.3862 -1.6644  1.2071
 8194SOL    MW432544   5.872   3.282   6.133  0.4808 -0.5753 -0.1837
 8195SOL     OW32545   5.370   4.913   4.516 -0.2495  0.1345 -0.3415
 8195SOL    HW232546   5.391   4.822   4.538 -0.2920 -0.1062 -1.2884
 8195SOL    HW332547   5.439   4.941   4.457 -1.0507  0.2255 -1.2608
 8195SOL    MW432548   5.382   4.905   4.511 -0.3608  0.1147 -0.5877
 8196SOL     OW32549   4.508   4.707   2.104 -0.2642 -0.2571 -0.1610
 8196SOL    HW232550   4.443   4.775   2.126  0.1806  0.9496 -2.3052
 8196SOL    HW332551   4.466   4.654   2.037  0.1435 -0.9129  0.0898
 8196SOL    MW432552   4.494   4.709   2.098 -0.1517 -0.1844 -0.4108
 8197SOL     OW32553   6.142   6.383   3.959  0.1235  0.1856 -0.0572
 8197SOL    HW232554   6.176   6.300   3.991 -0.9879  0.6701  2.6277
 8197SOL    HW332555   6.130   6.436   4.038 -4.0455  1.0649 -1.0317
 8197SOL    MW432556   6.145   6.379   3.974 -0.5732  0.3656  0.1684
 8198SOL     OW32557   4.964   0.430   3.782 -0.1585 -0.3084  0.3119
 8198SOL    HW232558   4.875   0.447   3.812  0.0488 -2.1195  2.1623
 8198SOL    HW332559   5.001   0.517   3.767 -1.5480  0.5715  1.6810
 8198SOL    MW432560   4.958   0.444   3.784 -0.3145 -0.4313  0.7367
 8199SOL     OW32561   3.041   4.693   3.727 -0.6636  0.4556  0.4898
 8199SOL    HW232562   2.988   4.760   3.771  0.2456  1.8039 -0.3739
 8199SOL    HW332563   3.045   4.723   3.636 -0.1033 -0.7078  0.1244
 8199SOL    MW432564   3.034   4.706   3.721 -0.4698  0.4800  0.3277
 8200SOL     OW32565   3.363   5.771   1.639  0.2551 -0.1639  0.1699
 8200SOL    HW232566   3.431   5.809   1.584 -0.2465 -1.0494 -1.1020
 8200SOL    HW332567   3.362   5.678   1.615 -2.2848  0.0579 -0.8200
 8200SOL    MW432568   3.372   5.764   1.629 -0.1462 -0.2514 -0.1285
 8201SOL     OW32569   1.542   0.094   5.790  0.4378 -0.0770 -0.0833
 8201SOL    HW232570   1.526   0.186   5.772 -0.7030 -0.6431 -2.2143
 8201SOL    HW332571   1.457   0.059   5.818 -0.2116 -1.2538 -3.1221
 8201SOL    MW432572   1.529   0.101   5.791  0.2016 -0.3069 -0.7654
 8202SOL     OW32573   5.492   4.202   5.932  0.5572  0.2270  0.2433
 8202SOL    HW232574   5.584   4.219   5.912  0.1137 -0.3258 -2.7402
 8202SOL    HW332575   5.492   4.117   5.976  1.3480 -0.8878 -1.8127
 8202SOL    MW432576   5.504   4.193   5.935  0.6030  0.0070 -0.4216
 8203SOL     OW32577   5.317   3.083   5.306 -0.4355  0.0591 -0.6534
 8203SOL    HW232578   5.348   3.163   5.263  3.4742 -0.2688  1.1156
 8203SOL    HW332579   5.293   3.112   5.394 -0.3137 -0.4775 -0.4400
 8203SOL    MW432580   5.318   3.097   5.312  0.0964 -0.0550 -0.3919
 8204SOL     OW32581   1.644   1.011   4.233 -0.3648  0.3060  0.0202
 8204SOL    HW232582   1.731   0.972   4.225 -0.2401  0.7760 -1.1592
 8204SOL    HW332583   1.606   0.969   4.310 -0.0435 -1.7278 -0.8753
 8204SOL    MW432584   1.651   1.001   4.242 -0.3059  0.0997 -0.2535
 8205SOL     OW32585   4.942   3.878   0.898  1.0207 -0.4106  0.1071
 8205SOL    HW232586   4.919   3.803   0.954  1.7787 -0.8571 -0.1721
 8205SOL    HW332587   5.013   3.846   0.843  1.6042  0.6312  0.2368
 8205SOL    MW432588   4.948   3.864   0.898  1.1977 -0.3321  0.0874
 8206SOL     OW32589   0.062   4.240   2.090 -0.0228  0.4709 -0.6372
 8206SOL    HW232590   0.023   4.178   2.152  0.3188 -0.9800 -1.8397
 8206SOL    HW332591   0.146   4.264   2.129 -0.5448  0.8855  0.2628
 8206SOL    MW432592   0.068   4.235   2.103 -0.0466  0.3342 -0.6771
 8207SOL     OW32593   1.399   3.146   3.716  0.0597  0.2818  0.3584
 8207SOL    HW232594   1.451   3.073   3.751  0.2479  0.1505 -0.1871
 8207SOL    HW332595   1.412   3.141   3.622 -0.9745  0.2276  0.2042
 8207SOL    MW432596   1.408   3.135   3.708 -0.0519  0.2573  0.2660
 8208SOL     OW32597   1.353   6.365   5.165 -0.2518  0.2685 -0.1064
 8208SOL    HW232598   1.263   6.341   5.143 -0.6633  1.2379  0.4474
 8208SOL    HW332599   1.399   6.365   5.081 -0.6962 -0.5039 -0.3601
 8208SOL    MW432600   1.347   6.362   5.151 -0.3647  0.2945 -0.0668
 8209SOL     OW32601   4.271   2.342   4.537 -0.7347 -0.0179  0.3644
 8209SOL    HW232602   4.206   2.396   4.492 -1.3392 -0.1870  1.0127
 8209SOL    HW332603   4.286   2.268   4.478 -0.5914  0.3835 -0.1108
 8209SOL    MW432604   4.264   2.339   4.523 -0.7955  0.0127  0.3873
 8210SOL     OW32605   4.165   3.054   0.050  0.0651  0.8144 -0.0600
 8210SOL    HW232606   4.134   2.965   0.034  0.4790  0.8302 -1.0033
 8210SOL    HW332607   4.241   3.064  -0.006 -0.1690  1.8739 -0.2205
 8210SOL    MW432608   4.171   3.044   0.041  0.0888  0.9563 -0.2056
 8211SOL     OW32609   5.141   5.571   4.036  0.3855  0.5447  0.2253
 8211SOL    HW232610   5.152   5.664   4.057 -0.1356  0.1872  2.3064
 8211SOL    HW332611   5.047   5.559   4.029  0.4679  0.2318 -0.3610
 8211SOL    MW432612   5.130   5.582   4.038  0.3276  0.4563  0.4225
 8212SOL     OW32613   4.373   2.195   4.827 -0.1706 -0.0412  0.6954
 8212SOL    HW232614   4.338   2.131   4.888  1.0639 -0.5962  0.8654
 8212SOL    HW332615   4.464   2.207   4.855 -0.1192  1.1179  0.1123
 8212SOL    MW432616   4.381   2.188   4.839 -0.0009  0.0385  0.6409
 8213SOL     OW32617   1.935   2.954   6.205 -0.8208  0.2758 -0.7316
 8213SOL    HW232618   1.959   2.880   6.261 -2.0759 -1.5228 -2.4483
 8213SOL    HW332619   1.846   2.977   6.231  0.3424  2.9501  1.4745
 8213SOL    MW432620   1.926   2.948   6.215 -0.8329  0.3914 -0.6670
 8214SOL     OW32621   2.947   2.184   2.859  0.1766  0.1704 -0.0750
 8214SOL    HW232622   2.903   2.154   2.780  1.0033  0.9314 -0.8485
 8214SOL    HW332623   3.040   2.181   2.837  0.4561 -0.0744  1.0446
 8214SOL    MW432624   2.954   2.180   2.846  0.3225  0.2385 -0.0294
 8215SOL     OW32625   2.923   5.985   5.498  0.7721  0.1786 -0.3516
 8215SOL    HW232626   2.856   6.025   5.442  0.5693 -0.7784 -0.8121
 8215SOL    HW332627   2.937   6.049   5.568 -0.8910  0.2333 -0.0400
 8215SOL    MW432628   2.916   5.999   5.500  0.5259  0.0595 -0.3712
 8216SOL     OW32629   3.332   1.668   5.062  0.3719 -0.1482  0.1423
 8216SOL    HW232630   3.250   1.706   5.094  0.7588  0.0592  0.9170
 8216SOL    HW332631   3.399   1.701   5.122  1.3237  1.1854 -1.5503
 8216SOL    MW432632   3.330   1.678   5.074  0.5485  0.0551  0.0212
 8217SOL     OW32633   0.877   0.611   1.830 -0.5000  0.1877 -0.4654
 8217SOL    HW232634   0.941   0.574   1.768 -2.2232 -1.2908 -1.4688
 8217SOL    HW332635   0.828   0.535   1.861 -1.8368  1.2842  0.1964
 8217SOL    MW432636   0.879   0.596   1.826 -0.9037  0.1373 -0.5104
 8218SOL     OW32637   0.861   4.697   5.806 -0.2652 -0.0048 -0.1005
 8218SOL    HW232638   0.901   4.618   5.843  2.7434  1.7591  0.7303
 8218SOL    HW332639   0.846   4.674   5.714  1.4927 -1.2793 -0.1334
 8218SOL    MW432640   0.865   4.683   5.798  0.3637  0.0598  0.0047
 8219SOL     OW32641   3.755   2.772   6.365 -0.4074 -0.2730  0.5930
 8219SOL    HW232642   3.757   2.860   6.329 -2.0414 -0.2036  0.6268
 8219SOL    HW332643   3.679   2.771   6.423  0.7510 -1.1152  2.1712
 8219SOL    MW432644   3.745   2.783   6.368 -0.4701 -0.3749  0.8057
 8220SOL     OW32645   5.281   6.274   1.173  0.4858  0.2476  0.4109
 8220SOL    HW232646   5.340   6.344   1.201  1.3380 -0.4406  0.3871
 8220SOL    HW332647   5.277   6.215   1.248  0.3850 -0.0631  0.1632
 8220SOL    MW432648   5.288   6.276   1.187  0.5850  0.1158  0.3751
 8221SOL     OW32649   5.663   4.058   6.398  0.2714 -0.1923  0.4225
 8221SOL    HW232650   5.612   4.023   6.471 -0.0990  0.6699  0.5973
 8221SOL    HW332651   5.730   3.992   6.381  0.0331 -0.6451  1.1945
 8221SOL    MW432652   5.665   4.045   6.406  0.1911 -0.1383  0.5474
 8222SOL     OW32653   0.543   4.067   1.302 -0.2354 -0.1948  0.4881
 8222SOL    HW232654   0.582   4.036   1.221  2.4679 -3.2293  2.6981
 8222SOL    HW332655   0.474   4.003   1.322 -2.7565  1.9768 -0.5063
 8222SOL    MW432656   0.539   4.054   1.294 -0.2114 -0.3087  0.6485
 8223SOL     OW32657   0.200   2.207   6.062 -0.6814 -0.2543 -0.5349
 8223SOL    HW232658   0.124   2.229   6.008 -1.9959  0.7502  1.6196
 8223SOL    HW332659   0.164   2.156   6.134  1.0171 -1.4829 -0.4987
 8223SOL    MW432660   0.185   2.203   6.064 -0.6307 -0.2839 -0.2459
 8224SOL     OW32661   5.431   2.500   6.351  0.0845 -0.6907  0.0558
 8224SOL    HW232662   5.501   2.448   6.389 -0.1778 -0.3507  1.0418
 8224SOL    HW332663   5.399   2.555   6.423  0.3294  0.8218 -0.9253
 8224SOL    MW432664   5.436   2.501   6.365  0.0822 -0.4463  0.0564
 8225SOL     OW32665   1.970   2.648   0.822 -0.0260  0.3321 -0.4332
 8225SOL    HW232666   1.921   2.728   0.803 -0.5513  0.5208  1.4945
 8225SOL    HW332667   1.936   2.619   0.907 -0.0680 -2.1172 -1.2041
 8225SOL    MW432668   1.959   2.655   0.831 -0.1009  0.0338 -0.2806
 8226SOL     OW32669   0.609   6.232   3.732 -0.3593 -0.4029  0.1321
 8226SOL    HW232670   0.524   6.231   3.688 -0.2728 -0.4757 -0.0320
 8226SOL    HW332671   0.651   6.150   3.706 -0.7079 -0.9184  1.1327
 8226SOL    MW432672   0.603   6.221   3.723 -0.3939 -0.4805  0.2424
 8227SOL     OW32673   4.309   4.251   4.142  0.1513 -0.7531  0.4935
 8227SOL    HW232674   4.374   4.316   4.169  1.3919 -0.2703 -3.0578
 8227SOL    HW332675   4.241   4.302   4.098 -0.7445 -1.5817  0.8929
 8227SOL    MW432676   4.309   4.266   4.140  0.1968 -0.7987  0.0777
 8228SOL     OW32677   0.540   4.308   4.403  0.6657 -0.3185 -0.4612
 8228SOL    HW232678   0.608   4.334   4.465  0.9192  0.8312 -1.1860
 8228SOL    HW332679   0.463   4.358   4.429  0.3734 -0.8691 -0.2475
 8228SOL    MW432680   0.539   4.318   4.414  0.6606 -0.2395 -0.5286
 8229SOL     OW32681   5.046   1.668   3.378  0.3891  0.2179 -0.1979
 8229SOL    HW232682   5.074   1.630   3.461 -1.3902 -1.7218 -0.3995
 8229SOL    HW332683   5.097   1.748   3.370  1.1761  0.0665  2.3762
 8229SOL    MW432684   5.056   1.673   3.388  0.2582 -0.0580  0.1151
 8230SOL     OW32685   3.212   6.363   0.190  0.0962 -0.2564 -0.5677
 8230SOL    HW232686   3.187   6.432   0.130 -1.2466  0.3249  0.5874
 8230SOL    HW332687   3.265   6.406   0.257 -0.9713 -0.2274  0.3077
 8230SOL    MW432688   3.216   6.377   0.191 -0.2218 -0.1759 -0.2998
 8231SOL     OW32689   6.341   4.570   0.256 -0.7814  0.7140  0.3337
 8231SOL    HW232690   6.403   4.585   0.327 -0.7407 -0.9694  0.6954
 8231SOL    HW332691   6.262   4.538   0.300  0.5074 -4.3989 -0.4183
 8231SOL    MW432692   6.338   4.568   0.272 -0.6060 -0.1827  0.2822
 8232SOL     OW32693   3.319   2.278   3.844 -0.4706 -0.3853  0.2704
 8232SOL    HW232694   3.342   2.197   3.890 -1.0989 -1.5587 -1.3697
 8232SOL    HW332695   3.403   2.322   3.830  0.4755 -2.7179 -2.2541
 8232SOL    MW432696   3.333   2.273   3.848 -0.4287 -0.8479 -0.2791
 8233SOL     OW32697   0.632   2.351   5.991 -0.0875 -0.1859 -0.2940
 8233SOL    HW232698   0.628   2.390   6.078 -2.8732 -0.2657 -0.2769
 8233SOL    HW332699   0.661   2.422   5.934  3.0175 -0.4705  0.7810
 8233SOL    MW432700   0.635   2.365   5.995 -0.0454 -0.2340 -0.1499
 8234SOL     OW32701   5.192   0.431   3.425  0.2112 -0.8099 -0.1609
 8234SOL    HW232702   5.134   0.361   3.453  1.2576 -2.3307 -1.6440
 8234SOL    HW332703   5.231   0.464   3.506  0.2018 -2.3964  0.5187
 8234SOL    MW432704   5.190   0.426   3.439  0.3480 -1.2199 -0.2669
 8235SOL     OW32705   3.709   3.247   2.574 -0.4297  0.0669  0.6335
 8235SOL    HW232706   3.785   3.304   2.566  0.0307 -0.5963  0.0037
 8235SOL    HW332707   3.719   3.185   2.501 -2.8840  1.4616 -1.0249
 8235SOL    MW432708   3.720   3.246   2.563 -0.6928  0.1634  0.3316
 8236SOL     OW32709   5.215   0.877   2.399 -0.1443 -0.4738 -0.1234
 8236SOL    HW232710   5.287   0.928   2.437  1.0102 -2.0470 -0.1144
 8236SOL    HW332711   5.219   0.896   2.306 -1.1344  1.1261  0.1186
 8236SOL    MW432712   5.225   0.886   2.392 -0.1226 -0.4703 -0.0903
 8237SOL     OW32713   3.251   4.783   0.084 -0.2730 -0.0209 -0.1799
 8237SOL    HW232714   3.347   4.781   0.082 -0.2813 -0.3959 -0.6136
 8237SOL    HW332715   3.225   4.691   0.071 -0.6854 -0.0162  0.5841
 8237SOL    MW432716   3.260   4.770   0.082 -0.3285 -0.0697 -0.1363
 8238SOL     OW32717   0.361   6.372   3.245 -0.1626 -0.2732  0.1145
 8238SOL    HW232718   0.430   6.320   3.285 -0.3623 -0.8370 -0.2615
 8238SOL    HW332719   0.385   6.463   3.265 -0.0642 -0.5230  1.1755
 8238SOL    MW432720   0.373   6.378   3.253 -0.1759 -0.3806  0.2049
 8239SOL     OW32721   1.398   3.425   1.387  0.5137 -0.1075  0.2969
 8239SOL    HW232722   1.458   3.495   1.412 -1.2125  2.2818 -1.7598
 8239SOL    HW332723   1.314   3.451   1.425  0.0250 -1.6556  0.3482
 8239SOL    MW432724   1.395   3.438   1.395  0.2215  0.0035  0.0323
 8240SOL     OW32725   5.576   2.158   0.736  0.0196  0.4363 -0.4260
 8240SOL    HW232726   5.482   2.141   0.743 -0.2849  1.6296 -1.4044
 8240SOL    HW332727   5.614   2.073   0.713 -0.7378 -0.1665  0.4389
 8240SOL    MW432728   5.568   2.144   0.734 -0.1205  0.5142 -0.4409
 8241SOL     OW32729   1.771   6.218   2.223  0.6902  0.5637 -0.1868
 8241SOL    HW232730   1.788   6.205   2.316  0.2658 -0.3444 -0.2211
 8241SOL    HW332731   1.837   6.164   2.179 -1.2087 -1.8628 -0.3342
 8241SOL    MW432732   1.782   6.209   2.229  0.3837  0.1237 -0.2108
 8242SOL     OW32733  -0.002   4.840   0.969  0.6432 -0.3126  0.1290
 8242SOL    HW232734   0.057   4.765   0.974 -1.6960 -2.2387  1.3020
 8242SOL    HW332735  -0.088   4.804   0.991 -0.7107  2.6446  0.2009
 8242SOL    MW432736  -0.006   4.825   0.973  0.1559 -0.1766  0.2933
 8243SOL     OW32737   3.356   4.033   1.960 -0.0149 -0.1611 -0.0253
 8243SOL    HW232738   3.372   4.125   1.940  2.2859 -0.2988  0.8991
 8243SOL    HW332739   3.390   3.986   1.884  1.0547 -0.3150  0.5249
 8243SOL    MW432740   3.363   4.039   1.948  0.4298 -0.1996  0.1692
 8244SOL     OW32741   2.166   1.897   2.254  0.0538  0.1076 -0.2502
 8244SOL    HW232742   2.216   1.871   2.332  0.4499 -1.0834 -0.8792
 8244SOL    HW332743   2.077   1.910   2.287  0.2095 -0.4083  0.3974
 8244SOL    MW432744   2.161   1.895   2.269  0.1266 -0.1176 -0.2478
 8245SOL     OW32745   5.101   4.482   6.141 -0.0038  0.0825 -0.3561
 8245SOL    HW232746   5.138   4.393   6.137  1.0609  0.3606  1.8763
 8245SOL    HW332747   5.011   4.469   6.170 -0.1814 -0.3136 -1.0559
 8245SOL    MW432748   5.094   4.469   6.144  0.1132  0.0669 -0.1539
 8246SOL     OW32749   4.092   2.536   0.051  0.2165  0.0097  0.4177
 8246SOL    HW232750   4.043   2.505   0.127 -1.5329 -0.0027 -0.6705
 8246SOL    HW332751   4.182   2.508   0.068 -0.2273 -0.4832  2.2002
 8246SOL    MW432752   4.098   2.528   0.063 -0.0729 -0.0570  0.5093
 8247SOL     OW32753   4.219   2.061   6.360  0.2593 -0.3508  0.0975
 8247SOL    HW232754   4.274   1.997   6.316  0.0810 -0.8252  0.5539
 8247SOL    HW332755   4.190   2.120   6.290  2.5390  0.8183  0.0687
 8247SOL    MW432756   4.222   2.060   6.345  0.5365 -0.2592  0.1539
 8248SOL     OW32757   2.848   5.258   5.822  0.3101  0.5571 -0.2060
 8248SOL    HW232758   2.760   5.234   5.852  1.4154 -1.5386  1.6632
 8248SOL    HW332759   2.858   5.350   5.849 -1.0318  0.5951  0.2497
 8248SOL    MW432760   2.838   5.267   5.830  0.2789  0.2856  0.1008
 8249SOL     OW32761   5.761   4.204   5.812 -0.0159 -0.0509 -0.6673
 8249SOL    HW232762   5.739   4.292   5.782 -1.5915 -0.5944 -1.2278
 8249SOL    HW332763   5.748   4.148   5.736  0.5355 -0.8358 -0.2045
 8249SOL    MW432764   5.756   4.208   5.798 -0.1511 -0.2262 -0.6802
 8250SOL     OW32765   5.277   3.193   4.641 -0.1379  0.3436 -0.0258
 8250SOL    HW232766   5.336   3.173   4.569  0.8266  0.4455  0.7047
 8250SOL    HW332767   5.299   3.129   4.709  0.5775  1.6684  1.0278
 8250SOL    MW432768   5.288   3.182   4.641  0.0837  0.5319  0.2096
 8251SOL     OW32769   5.281   0.386   4.759 -0.9097 -0.0605  1.2183
 8251SOL    HW232770   5.307   0.440   4.684 -0.9234 -1.6682  0.0032
 8251SOL    HW332771   5.197   0.348   4.733  0.4762 -3.0758  0.6266
 8251SOL    MW432772   5.273   0.388   4.746 -0.7287 -0.6705  0.9799
 8252SOL     OW32773   2.774   2.099   2.657  0.2333 -0.1357 -0.3317
 8252SOL    HW232774   2.724   2.095   2.575  0.2122  1.1514 -0.4122
 8252SOL    HW332775   2.711   2.074   2.724  0.0451 -0.4972 -0.6356
 8252SOL    MW432776   2.759   2.096   2.655  0.2057 -0.0136 -0.3824
 8253SOL     OW32777   6.035   2.778   2.899 -0.1307  0.5118 -0.3051
 8253SOL    HW232778   6.022   2.869   2.872 -0.9885  0.8159  1.0626
 8253SOL    HW332779   6.025   2.779   2.994  0.7725 -0.8705 -0.1668
 8253SOL    MW432780   6.032   2.790   2.908 -0.1247  0.3696 -0.1064
 8254SOL     OW32781   4.839   3.461   4.840 -0.4344  0.3810 -0.4309
 8254SOL    HW232782   4.912   3.426   4.890 -0.2290  0.3202 -0.7706
 8254SOL    HW332783   4.856   3.555   4.834 -1.6543  0.7939  1.6092
 8254SOL    MW432784   4.851   3.468   4.846 -0.5682  0.4274 -0.2065
 8255SOL     OW32785   5.732   4.419   0.681  0.0468 -0.5959 -0.6823
 8255SOL    HW232786   5.656   4.477   0.668 -0.4694 -1.2538 -0.6351
 8255SOL    HW332787   5.807   4.479   0.685 -0.7554  0.3923  2.2361
 8255SOL    MW432788   5.732   4.435   0.680 -0.1271 -0.5524 -0.2910
 8256SOL     OW32789   4.639   0.228   0.631  0.7168  0.7125  0.2200
 8256SOL    HW232790   4.658   0.163   0.698  0.0225 -1.1335 -1.2698
 8256SOL    HW332791   4.546   0.247   0.642  0.1732 -0.8750 -1.1870
 8256SOL    MW432792   4.629   0.222   0.641  0.5535  0.2595 -0.1622
 8257SOL     OW32793   0.924   5.891   5.809  0.0190 -0.3049 -0.6010
 8257SOL    HW232794   0.974   5.918   5.885 -1.5066 -1.3594  0.8485
 8257SOL    HW332795   0.957   5.804   5.787 -1.7257 -1.4265  0.9650
 8257SOL    MW432796   0.935   5.883   5.816 -0.4125 -0.5921 -0.2031
 8258SOL     OW32797   4.107   2.819   2.765  0.3593 -0.0465  0.5169
 8258SOL    HW232798   4.090   2.900   2.717 -0.1354 -0.4381  0.0203
 8258SOL    HW332799   4.077   2.750   2.707 -0.5004 -0.5208  1.5047
 8258SOL    MW432800   4.101   2.821   2.751  0.1806 -0.1607  0.5817
 8259SOL     OW32801   3.655   3.057   3.379  0.1721  0.1637  0.5693
 8259SOL    HW232802   3.628   3.017   3.296  1.0995 -0.1582  0.4062
 8259SOL    HW332803   3.723   3.120   3.354 -0.4898  1.0533  0.9494
 8259SOL    MW432804   3.660   3.060   3.365  0.2072  0.2386  0.5979
 8260SOL     OW32805   2.531   6.429   1.725  0.0229 -0.4702 -0.5781
 8260SOL    HW232806   2.494   6.517   1.720  1.6620  0.1882 -2.6384
 8260SOL    HW332807   2.472   6.381   1.783 -0.9772  1.9317  0.5277
 8260SOL    MW432808   2.518   6.434   1.732  0.1072 -0.0664 -0.7040
 8261SOL     OW32809   1.965   2.000   4.626  0.1640 -0.0171 -0.0909
 8261SOL    HW232810   2.038   2.041   4.673 -0.6457  0.7091  0.5678
 8261SOL    HW332811   1.925   2.072   4.578 -0.8890 -0.1441  0.5778
 8261SOL    MW432812   1.970   2.015   4.626 -0.0817  0.0620  0.0843
 8262SOL     OW32813   0.994   3.260   0.031 -0.4375 -0.0333  0.0025
 8262SOL    HW232814   1.057   3.248  -0.040 -0.0459  0.8019  0.2017
 8262SOL    HW332815   0.982   3.172   0.067 -0.5090 -0.4368 -0.9847
 8262SOL    MW432816   1.001   3.247   0.027 -0.3953  0.0236 -0.1015
 8263SOL     OW32817   6.409   1.287   2.516  0.5102  0.0387  0.0705
 8263SOL    HW232818   6.487   1.343   2.525  2.0672 -2.0571  0.2279
 8263SOL    HW332819   6.337   1.342   2.549  2.0395  1.7163  0.8154
 8263SOL    MW432820   6.410   1.302   2.522  0.9174 -0.0165  0.1895
 8264SOL     OW32821   3.159   0.196   2.535 -0.1430 -0.1804 -0.2414
 8264SOL    HW232822   3.103   0.171   2.461  1.1893 -2.0997 -0.6645
 8264SOL    HW332823   3.157   0.291   2.535  0.0861 -0.0991 -2.9861
 8264SOL    MW432824   3.151   0.205   2.525  0.0630 -0.4229 -0.6594
 8265SOL     OW32825   0.816   3.205   2.256  0.4135 -0.1355  0.4929
 8265SOL    HW232826   0.871   3.126   2.261 -1.5526 -1.5151  3.1042
 8265SOL    HW332827   0.738   3.182   2.306 -2.2454  2.0276 -2.3249
 8265SOL    MW432828   0.813   3.191   2.264 -0.1967 -0.0321  0.4657
 8266SOL     OW32829   4.176   3.487   0.866  0.1724 -0.2507  0.2365
 8266SOL    HW232830   4.263   3.511   0.898  1.0106  0.2378 -2.2560
 8266SOL    HW332831   4.192   3.423   0.797 -1.4485 -0.1768 -0.2627
 8266SOL    MW432832   4.190   3.482   0.861  0.0692 -0.1765 -0.1582
 8267SOL     OW32833   4.667   3.122   2.504  0.3841 -0.7668  0.2345
 8267SOL    HW232834   4.614   3.155   2.430  0.3068 -1.8640 -0.2138
 8267SOL    HW332835   4.757   3.141   2.478  0.2517  1.9752  1.4175
 8267SOL    MW432836   4.672   3.129   2.491  0.3565 -0.5498  0.3314
 8268SOL     OW32837   1.152   2.070   0.224 -0.3652 -0.3647  0.3397
 8268SOL    HW232838   1.148   1.994   0.166 -0.7922  1.9675 -2.9954
 8268SOL    HW332839   1.241   2.103   0.214 -0.0926 -0.5407  1.9749
 8268SOL    MW432840   1.163   2.064   0.215 -0.3855 -0.0802  0.1154
 8269SOL     OW32841   2.267   1.146   4.522  0.5266  0.2715 -0.2601
 8269SOL    HW232842   2.298   1.062   4.555  1.0210  0.7630  0.5441
 8269SOL    HW332843   2.342   1.183   4.476  0.4519  0.4749 -0.2199
 8269SOL    MW432844   2.281   1.139   4.520  0.5820  0.3632 -0.1487
 8270SOL     OW32845   3.280   1.872   2.232  0.8036 -0.0323  0.2565
 8270SOL    HW232846   3.236   1.931   2.171 -1.0426 -2.1371 -0.5755
 8270SOL    HW332847   3.267   1.785   2.195  1.3217 -1.2161  2.6574
 8270SOL    MW432848   3.273   1.868   2.219  0.6284 -0.4662  0.4635
 8271SOL     OW32849   4.892   1.147   1.430 -0.2979 -0.3483  0.0606
 8271SOL    HW232850   4.912   1.080   1.366 -0.3432  0.8390 -1.2500
 8271SOL    HW332851   4.821   1.198   1.391  1.3080  1.9270 -0.1283
 8271SOL    MW432852   4.885   1.145   1.417 -0.0920  0.1086 -0.1373
 8272SOL     OW32853   4.974   4.663   4.797  0.1245 -0.1423  0.2611
 8272SOL    HW232854   4.890   4.678   4.839 -0.1007  0.5354 -0.4105
 8272SOL    HW332855   4.982   4.568   4.793  0.0188 -0.2161  1.5521
 8272SOL    MW432856   4.964   4.652   4.802  0.0808 -0.0626  0.3428
 8273SOL     OW32857   0.011   1.809   2.606 -0.5747  0.0861  0.4727
 8273SOL    HW232858   0.017   1.747   2.533 -0.0710  0.6341  0.0342
 8273SOL    HW332859  -0.075   1.793   2.644 -0.8071 -0.2790 -0.1815
 8273SOL    MW432860  -0.000   1.799   2.601 -0.5389  0.1102  0.3286
 8274SOL     OW32861   2.454   0.290   1.368  0.3423  0.0011  0.0264
 8274SOL    HW232862   2.418   0.204   1.347  1.2763 -0.1094 -1.2177
 8274SOL    HW332863   2.542   0.289   1.330  0.3754  1.5102  0.0053
 8274SOL    MW432864   2.461   0.278   1.361  0.4699  0.1857 -0.1405
 8275SOL     OW32865   3.941   1.146   0.334 -0.0760 -0.3784  0.1596
 8275SOL    HW232866   3.850   1.170   0.313 -0.0939  0.5761  1.2363
 8275SOL    HW332867   3.977   1.116   0.250 -1.5179 -1.2598 -0.1950
 8275SOL    MW432868   3.933   1.145   0.320 -0.2686 -0.3688  0.2548
 8276SOL     OW32869   3.884   2.111   3.735  0.2308  0.0025  0.1327
 8276SOL    HW232870   3.856   2.163   3.660  0.3628 -1.1151 -0.7183
 8276SOL    HW332871   3.937   2.171   3.787  1.6861  0.3278 -1.6106
 8276SOL    MW432872   3.887   2.126   3.732  0.4402 -0.1020 -0.2095
 8277SOL     OW32873   2.848   2.656   1.915 -0.1518  0.4434 -0.4792
 8277SOL    HW232874   2.836   2.749   1.933  0.9099  0.4979  0.0235
 8277SOL    HW332875   2.923   2.652   1.855  0.6045 -0.1348  0.4640
 8277SOL    MW432876   2.856   2.668   1.910  0.0881  0.3743 -0.2884
 8278SOL     OW32877   0.596   1.548   2.786 -0.1802 -0.6947  0.6407
 8278SOL    HW232878   0.666   1.601   2.823 -0.4921  1.4493 -1.5487
 8278SOL    HW332879   0.563   1.601   2.713 -1.9304 -3.0489 -0.3859
 8278SOL    MW432880   0.601   1.562   2.781 -0.4523 -0.7224  0.2164
 8279SOL     OW32881   0.666   5.050   1.863  0.4421 -0.0667  0.4615
 8279SOL    HW232882   0.676   5.023   1.954 -0.3212  0.4235  0.7036
 8279SOL    HW332883   0.696   5.141   1.862 -1.3277  0.5639  0.6538
 8279SOL    MW432884   0.671   5.059   1.875  0.1079  0.0812  0.5188
 8280SOL     OW32885   0.529   4.709   1.229  0.1943  0.1369  0.6690
 8280SOL    HW232886   0.502   4.778   1.289 -1.0510  1.6974 -1.5200
 8280SOL    HW332887   0.567   4.756   1.154  2.1873 -1.7174  0.4082
 8280SOL    MW432888   0.530   4.724   1.227  0.2930  0.0981  0.3458
 8281SOL     OW32889   4.167   0.134   2.933 -0.6505 -0.2140  0.0174
 8281SOL    HW232890   4.211   0.136   2.848 -0.0506 -2.4866  0.2306
 8281SOL    HW332891   4.074   0.139   2.912 -0.4731  0.4997 -0.6681
 8281SOL    MW432892   4.161   0.135   2.919 -0.5480 -0.4196 -0.0449
 8282SOL     OW32893   2.929   0.033   3.938  0.6318 -0.1152  0.0783
 8282SOL    HW232894   3.013   0.052   3.978 -0.1184  1.0516  1.1611
 8282SOL    HW332895   2.934   0.075   3.852  0.2896  2.1310  1.0895
 8282SOL    MW432896   2.941   0.041   3.932  0.4877  0.3351  0.3546
 8283SOL     OW32897   2.903   0.889   2.088 -0.1757  0.4529 -0.0767
 8283SOL    HW232898   2.858   0.865   2.169 -1.9602  0.3391 -1.0286
 8283SOL    HW332899   2.989   0.847   2.094 -0.5842 -0.2352  1.3884
 8283SOL    MW432900   2.908   0.880   2.099 -0.4651  0.3471 -0.0090
 8284SOL     OW32901   3.339   1.404   2.689  0.2774  0.1028 -0.5624
 8284SOL    HW232902   3.373   1.442   2.770 -0.4122  0.5782 -0.4833
 8284SOL    HW332903   3.378   1.456   2.620 -0.9658  1.2461 -0.4415
 8284SOL    MW432904   3.349   1.416   2.691  0.0224  0.3163 -0.5360
 8285SOL     OW32905   2.077   6.163   3.482  0.2204  0.4732 -0.5985
 8285SOL    HW232906   2.142   6.229   3.501  0.3704 -0.2467  1.5681
 8285SOL    HW332907   2.115   6.081   3.512 -1.9757  0.1513  1.6838
 8285SOL    MW432908   2.090   6.161   3.488 -0.0496  0.3357 -0.0115
 8286SOL     OW32909   5.966   4.704   5.886  0.2159 -0.4937  0.0534
 8286SOL    HW232910   5.902   4.699   5.815 -0.0991  2.2696  0.0391
 8286SOL    HW332911   5.914   4.696   5.966 -0.3738  2.4473  0.0647
 8286SOL    MW432912   5.951   4.702   5.887  0.0965  0.2589  0.0530
 8287SOL     OW32913   1.271   5.277   3.867  0.2881  0.2895  0.1479
 8287SOL    HW232914   1.350   5.328   3.850  0.0475  0.9880  1.0539
 8287SOL    HW332915   1.301   5.197   3.909  0.7377 -0.6956 -1.9086
 8287SOL    MW432916   1.285   5.273   3.870  0.3157  0.2516 -0.0039
 8288SOL     OW32917   0.287   1.096   6.031 -0.5561 -0.2436  0.2874
 8288SOL    HW232918   0.229   1.127   5.962 -1.1559 -0.7090  0.5681
 8288SOL    HW332919   0.373   1.088   5.989 -0.7418  0.2399 -0.1906
 8288SOL    MW432920   0.291   1.099   6.016 -0.6598 -0.2412  0.2614
 8289SOL     OW32921   0.738   3.482   2.109 -0.0426 -0.1831  0.1038
 8289SOL    HW232922   0.709   3.411   2.166 -2.4068 -0.1282 -0.9032
 8289SOL    HW332923   0.764   3.552   2.168 -0.0220 -1.0202  1.1106
 8289SOL    MW432924   0.737   3.482   2.124 -0.3518 -0.2863  0.1038
 8290SOL     OW32925   1.493   0.891   2.667  0.0558 -0.4446  0.5928
 8290SOL    HW232926   1.535   0.830   2.727 -0.7562  0.0037  1.6444
 8290SOL    HW332927   1.561   0.953   2.644  1.3555 -2.5260 -1.6993
 8290SOL    MW432928   1.508   0.891   2.672  0.1202 -0.6600  0.4292
 8291SOL     OW32929   5.535   0.240   4.498 -0.1446 -0.3044  0.1432
 8291SOL    HW232930   5.528   0.316   4.442  0.1709  0.5500  1.2154
 8291SOL    HW332931   5.578   0.273   4.578  0.9093 -1.8028  0.2423
 8291SOL    MW432932   5.540   0.254   4.501  0.0361 -0.3893  0.2977
 8292SOL     OW32933   2.808   0.088   4.177 -0.0200  0.5676 -0.0220
 8292SOL    HW232934   2.858   0.024   4.229 -0.2073  1.1395  0.8884
 8292SOL    HW332935   2.844   0.081   4.089 -0.0676 -0.8377  0.0442
 8292SOL    MW432936   2.819   0.078   4.173 -0.0510  0.4576  0.1069
 8293SOL     OW32937   1.107   5.943   2.381  0.6138 -0.1428  0.4323
 8293SOL    HW232938   1.165   5.971   2.310 -1.1870  0.5713 -0.8537
 8293SOL    HW332939   1.136   5.993   2.457  1.5909  0.2840 -0.1986
 8293SOL    MW432940   1.118   5.954   2.382  0.5052  0.0078  0.1794
 8294SOL     OW32941   2.581   1.961   0.875 -0.3618 -1.0115 -0.2799
 8294SOL    HW232942   2.502   1.936   0.923  0.3831 -0.1514  1.5134
 8294SOL    HW332943   2.567   2.053   0.852 -0.2728 -1.1229 -0.7798
 8294SOL    MW432944   2.569   1.970   0.878 -0.2518 -0.9127 -0.1092
 8295SOL     OW32945   1.026   5.391   4.310  0.1682  0.0840 -0.6419
 8295SOL    HW232946   0.977   5.333   4.253 -0.5733 -1.2328  1.2077
 8295SOL    HW332947   0.963   5.457   4.339 -0.2181 -0.7887  0.6316
 8295SOL    MW432948   1.011   5.392   4.307  0.0194 -0.2049 -0.2299
 8296SOL     OW32949   2.926   5.476   3.700  0.1067 -0.2171 -0.0321
 8296SOL    HW232950   2.956   5.527   3.626  0.6613 -0.0738  0.2833
 8296SOL    HW332951   2.964   5.389   3.686  0.5953 -0.0670  0.3073
 8296SOL    MW432952   2.935   5.471   3.689  0.2443 -0.1784  0.0543
 8297SOL     OW32953   3.383   5.972   3.938 -0.1897  0.4883  0.2169
 8297SOL    HW232954   3.407   6.059   3.906  0.6433 -0.7866 -3.0486
 8297SOL    HW332955   3.464   5.921   3.931 -0.9376 -0.8667  0.9441
 8297SOL    MW432956   3.397   5.977   3.933 -0.1785  0.1413 -0.1180
 8298SOL     OW32957   3.146   2.831   0.455 -0.0226 -0.1994 -0.0544
 8298SOL    HW232958   3.088   2.766   0.495 -0.2646 -0.0501 -0.1618
 8298SOL    HW332959   3.087   2.892   0.411  0.2187 -0.0691 -0.1981
 8298SOL    MW432960   3.131   2.831   0.455 -0.0227 -0.1625 -0.0876
 8299SOL     OW32961   1.933   6.062   1.193 -0.1575  0.1026 -0.2267
 8299SOL    HW232962   1.872   6.133   1.215 -0.7666 -0.7154  0.8293
 8299SOL    HW332963   2.001   6.068   1.259 -0.8902 -1.0671  0.6851
 8299SOL    MW432964   1.934   6.072   1.205 -0.3346 -0.1597  0.0330
 8300SOL     OW32965   3.177   1.296   1.908 -0.1644  0.1722 -0.1188
 8300SOL    HW232966   3.169   1.364   1.975 -0.7858 -0.9185  0.9627
 8300SOL    HW332967   3.187   1.215   1.958  0.4504 -0.5479 -1.3726
 8300SOL    MW432968   3.177   1.294   1.923 -0.1653 -0.0667 -0.1415
 8301SOL     OW32969   2.467   1.643   6.260 -0.2868  0.0971  0.6145
 8301SOL    HW232970   2.493   1.699   6.333 -0.7345 -0.5890  1.3216
 8301SOL    HW332971   2.394   1.688   6.220 -1.3770 -0.4863  1.8708
 8301SOL    MW432972   2.461   1.656   6.265 -0.4897 -0.0704  0.8735
 8302SOL     OW32973   3.765   2.250   3.547  0.0193  0.8150  0.7160
 8302SOL    HW232974   3.683   2.207   3.524  1.4289 -2.0710  0.6342
 8302SOL    HW332975   3.776   2.319   3.482 -1.4903  0.0870 -0.3457
 8302SOL    MW432976   3.756   2.253   3.536  0.0061  0.3382  0.5651
 8303SOL     OW32977   2.345   3.090   0.493  0.1465 -0.5942  0.0947
 8303SOL    HW232978   2.386   3.092   0.407 -0.8849 -2.0370 -0.4528
 8303SOL    HW332979   2.366   3.004   0.528  0.7781  0.0661  1.4342
 8303SOL    MW432980   2.353   3.079   0.486  0.0938 -0.6975  0.1992
 8304SOL     OW32981   5.953   6.116   2.645  0.0108  0.6182  0.2633
 8304SOL    HW232982   6.031   6.124   2.590  0.4575  1.6566  1.0045
 8304SOL    HW332983   5.923   6.026   2.631  1.7655 -0.0601  0.4920
 8304SOL    MW432984   5.959   6.105   2.636  0.3012  0.6657  0.3912
 8305SOL     OW32985   2.975   4.408   0.516  0.8352 -0.2887  0.6087
 8305SOL    HW232986   2.983   4.325   0.469 -0.7992 -1.0778  1.6385
 8305SOL    HW332987   2.956   4.382   0.606  1.0675  1.2100  1.1033
 8305SOL    MW432988   2.973   4.393   0.521  0.6502 -0.1951  0.8098
 8306SOL     OW32989   4.966   5.869   0.670 -0.1578  0.3477  0.1745
 8306SOL    HW232990   4.939   5.940   0.728  0.3300  1.1502 -0.5630
 8306SOL    HW332991   5.013   5.808   0.727 -0.6915  0.5332  0.8337
 8306SOL    MW432992   4.968   5.870   0.685 -0.1638  0.4780  0.1642
 8307SOL     OW32993   3.497   5.948   2.814  0.7787  0.3416  0.1216
 8307SOL    HW232994   3.495   5.894   2.735  0.9397 -0.0522  0.3852
 8307SOL    HW332995   3.581   5.994   2.809  0.3360  1.1094 -0.4574
 8307SOL    MW432996   3.508   5.947   2.803  0.7416  0.3909  0.0800
 8308SOL     OW32997   5.320   5.233   0.563 -0.6010  0.6349  0.4881
 8308SOL    HW232998   5.365   5.180   0.497  1.4188  3.8162 -0.9748
 8308SOL    HW332999   5.230   5.242   0.529 -0.6217 -0.7398  0.1286
 8308SOL    MW433000   5.314   5.227   0.549 -0.3372  0.8733  0.2476
 8309SOL     OW33001   2.091   0.591   4.743 -0.0342 -0.2153  0.3298
 8309SOL    HW233002   2.119   0.500   4.751  0.4412 -0.0576  0.5327
 8309SOL    HW333003   2.022   0.590   4.677  1.2284 -0.4713 -1.0524
 8309SOL    MW433004   2.085   0.579   4.736  0.1951 -0.2282  0.1742
 8310SOL     OW33005   2.711   6.271   5.190  0.8317 -0.2451 -0.1720
 8310SOL    HW233006   2.670   6.217   5.122 -0.8882 -0.3986  0.9169
 8310SOL    HW333007   2.661   6.352   5.189  2.1656  0.6048 -0.4851
 8310SOL    MW433008   2.699   6.274   5.181  0.7807 -0.1532 -0.0697
 8311SOL     OW33009   4.179   5.562   3.129 -0.0475 -0.0114 -0.0176
 8311SOL    HW233010   4.213   5.578   3.041  3.7247 -0.6827  1.1794
 8311SOL    HW333011   4.187   5.646   3.174 -0.3020 -0.1060  0.2131
 8311SOL    MW433012   4.184   5.575   3.123  0.4166 -0.1124  0.1707
 8312SOL     OW33013   3.192   5.316   4.530  0.2592  0.4256  0.0426
 8312SOL    HW233014   3.253   5.377   4.490  1.0267  0.2616  0.9431
 8312SOL    HW333015   3.112   5.367   4.543  0.7430  1.1107  0.3691
 8312SOL    MW433016   3.189   5.331   4.526  0.4243  0.4943  0.2045
 8313SOL     OW33017   0.281   4.664   2.927 -0.0184  0.1371 -0.4177
 8313SOL    HW233018   0.273   4.741   2.982  0.0054  1.5580 -2.2937
 8313SOL    HW333019   0.195   4.622   2.930 -0.7408  1.5106 -1.0979
 8313SOL    MW433020   0.268   4.668   2.934 -0.1105  0.5058 -0.7550
 8314SOL     OW33021   4.258   1.254   3.766  0.3728  0.5406  0.0056
 8314SOL    HW233022   4.351   1.274   3.759  0.2328  0.9531 -0.9004
 8314SOL    HW333023   4.254   1.159   3.769  0.8831  0.5372  1.3252
 8314SOL    MW433024   4.270   1.244   3.766  0.4217  0.5946  0.0602
 8315SOL     OW33025   3.520   1.892   2.378  0.1557 -0.1537  0.3551
 8315SOL    HW233026   3.512   1.859   2.468 -0.7042  1.7733  1.0404
 8315SOL    HW333027   3.430   1.892   2.345  0.2304  0.7881  0.1329
 8315SOL    MW433028   3.507   1.888   2.386  0.0521  0.2248  0.4162
 8316SOL     OW33029   5.970   3.607   5.128  0.3715  0.1452 -0.0934
 8316SOL    HW233030   6.039   3.582   5.189 -0.4834  1.7952  1.6535
 8316SOL    HW333031   5.895   3.554   5.152 -0.0100  0.8969  0.4003
 8316SOL    MW433032   5.969   3.597   5.139  0.2084  0.4621  0.2022
 8317SOL     OW33033   0.694   1.313   4.376  0.2307  0.2304 -0.2928
 8317SOL    HW233034   0.740   1.338   4.456  1.0816 -0.1764 -0.6484
 8317SOL    HW333035   0.605   1.290   4.406 -0.3000  2.6137  0.1789
 8317SOL    MW433036   0.688   1.313   4.391  0.2730  0.4912 -0.2775
 8318SOL     OW33037   0.905   5.812   1.105  0.2348  0.3660  0.1942
 8318SOL    HW233038   0.913   5.856   1.190 -1.3305  1.1765 -0.0473
 8318SOL    HW333039   0.952   5.868   1.044  0.4272  0.3546  0.3318
 8318SOL    MW433040   0.912   5.825   1.108  0.0536  0.4714  0.1805
 8319SOL     OW33041   3.127   1.855   5.115  0.0940 -0.1035 -0.2607
 8319SOL    HW233042   3.051   1.798   5.115 -0.6142  0.7257  1.6134
 8319SOL    HW333043   3.100   1.931   5.064 -0.6527  0.4882  0.9446
 8319SOL    MW433044   3.114   1.858   5.108 -0.0980  0.0839  0.1456
 8320SOL     OW33045   4.003   0.809   4.593  0.2543 -0.4020 -0.7403
 8320SOL    HW233046   4.093   0.819   4.625  0.1546 -0.4099 -0.4519
 8320SOL    HW333047   3.951   0.865   4.650  0.0964 -0.2679 -1.0136
 8320SOL    MW433048   4.008   0.817   4.605  0.2203 -0.3854 -0.7383
 8321SOL     OW33049   0.418   4.561   0.538 -0.4080  0.0236  0.6658
 8321SOL    HW233050   0.355   4.612   0.588 -0.2913  0.6198  0.2114
 8321SOL    HW333051   0.464   4.509   0.604 -0.3960  0.6404  1.1512
 8321SOL    MW433052   0.416   4.561   0.553 -0.3910  0.1837  0.6699
 8322SOL     OW33053   6.061   2.415   4.143 -0.1320  0.1719 -0.7501
 8322SOL    HW233054   5.971   2.391   4.166 -0.0255  0.2776 -0.2332
 8322SOL    HW333055   6.074   2.502   4.180 -0.0062  0.4052 -1.3268
 8322SOL    MW433056   6.051   2.423   4.151 -0.1013  0.2166 -0.7580
 8323SOL     OW33057   4.130   0.995   0.747  0.1670 -0.7792 -0.0098
 8323SOL    HW233058   4.078   0.925   0.707  1.2059 -1.3849 -0.3174
 8323SOL    HW333059   4.075   1.073   0.739 -0.6333 -1.3804 -0.4582
 8323SOL    MW433060   4.116   0.996   0.741  0.1985 -0.9384 -0.1095
 8324SOL     OW33061   4.948   5.170   3.999 -0.3939 -0.1114  0.2278
 8324SOL    HW233062   4.893   5.231   3.950 -0.2226  1.1297  1.5066
 8324SOL    HW333063   4.990   5.116   3.933 -0.8655  0.9039 -0.9268
 8324SOL    MW433064   4.946   5.171   3.984 -0.4335  0.1863  0.2442
 8325SOL     OW33065   0.449   2.853   3.535 -0.1269  0.6672  0.2949
 8325SOL    HW233066   0.435   2.772   3.485  1.4967  0.2585  0.4152
 8325SOL    HW333067   0.411   2.922   3.482 -0.5153 -0.0492 -0.3717
 8325SOL    MW433068   0.442   2.851   3.522  0.0361  0.5188  0.2228
 8326SOL     OW33069   5.997   3.822   2.947  0.5327 -0.3870  0.4245
 8326SOL    HW233070   6.078   3.772   2.952  0.3451 -0.6615  0.7882
 8326SOL    HW333071   5.930   3.757   2.927  0.5203 -0.0371 -0.7238
 8326SOL    MW433072   5.999   3.807   2.945  0.5064 -0.3771  0.3210
 8327SOL     OW33073   0.132   5.754   6.028  0.2573 -0.2018  0.2213
 8327SOL    HW233074   0.160   5.836   5.987  1.5011  0.1982  1.7830
 8327SOL    HW333075   0.203   5.692   6.010 -0.3086 -0.7349 -0.2621
 8327SOL    MW433076   0.145   5.756   6.020  0.3467 -0.2194  0.3635
 8328SOL     OW33077   3.404   1.163   2.397  0.1086 -0.1892  0.3282
 8328SOL    HW233078   3.382   1.086   2.344  0.9568  1.0799 -2.0457
 8328SOL    HW333079   3.460   1.130   2.466 -1.7032 -2.0670  0.9945
 8328SOL    MW433080   3.408   1.148   2.399 -0.0185 -0.2695  0.1029
 8329SOL     OW33081   6.218   3.918   3.729 -0.0754  0.0158 -0.7862
 8329SOL    HW233082   6.307   3.914   3.764 -0.9572 -0.0913  1.6197
 8329SOL    HW333083   6.204   3.831   3.692  1.1556  0.3758 -2.1977
 8329SOL    MW433084   6.228   3.906   3.729 -0.0293  0.0492 -0.6550
 8330SOL     OW33085   2.935   4.233   4.659 -0.3007 -0.4136  0.0163
 8330SOL    HW233086   2.983   4.151   4.668  1.2479  0.1903 -1.9674
 8330SOL    HW333087   2.972   4.290   4.726 -0.6218 -1.0062  0.6976
 8330SOL    MW433088   2.946   4.230   4.669 -0.1387 -0.4121 -0.1555
 8331SOL     OW33089   4.931   4.850   1.594 -0.2939 -0.5627  0.2984
 8331SOL    HW233090   4.864   4.842   1.527 -0.1378 -1.1709  0.2022
 8331SOL    HW333091   4.940   4.761   1.629 -0.2839 -0.2791  1.0351
 8331SOL    MW433092   4.924   4.837   1.590 -0.2720 -0.6055  0.3829
 8332SOL     OW33093   3.665   2.373   2.660  0.0177 -0.1285  0.2942
 8332SOL    HW233094   3.724   2.314   2.706  0.4354 -1.2473 -1.5623
 8332SOL    HW333095   3.614   2.316   2.602 -0.2574  1.2106 -0.8571
 8332SOL    MW433096   3.666   2.358   2.658  0.0365 -0.0994 -0.1027
 8333SOL     OW33097   2.066   4.526   5.901 -0.6728 -0.1047  0.4725
 8333SOL    HW233098   1.970   4.525   5.904 -0.6753 -1.7885  0.6314
 8333SOL    HW333099   2.092   4.553   5.988 -1.0015  0.5937  0.3585
 8333SOL    MW433100   2.057   4.529   5.913 -0.7165 -0.2347  0.4784
 8334SOL     OW33101   1.652   1.236   6.003 -0.3112 -0.4123 -0.2484
 8334SOL    HW233102   1.580   1.179   5.974 -0.5173 -0.2445 -0.0689
 8334SOL    HW333103   1.708   1.179   6.056 -0.0488 -0.6679 -0.7902
 8334SOL    MW433104   1.650   1.221   6.006 -0.3038 -0.4239 -0.2962
 8335SOL     OW33105   1.484   2.595   3.448  0.4079 -0.5265 -0.0959
 8335SOL    HW233106   1.559   2.537   3.439 -0.1839 -1.3424  0.0954
 8335SOL    HW333107   1.408   2.536   3.450 -0.2951  0.3120 -0.9562
 8335SOL    MW433108   1.484   2.580   3.447  0.2371 -0.5235 -0.1842
 8336SOL     OW33109   1.974   6.210   3.193 -0.1569  0.1490 -0.4108
 8336SOL    HW233110   1.915   6.135   3.179  0.3415 -0.1021 -1.2164
 8336SOL    HW333111   2.001   6.201   3.284 -1.2836  0.2134 -0.0503
 8336SOL    MW433112   1.970   6.199   3.203 -0.2398  0.1244 -0.4695
 8337SOL     OW33113   2.160   4.988   0.874  0.1590  0.0167  0.2124
 8337SOL    HW233114   2.254   4.991   0.891  0.1589  0.2999  0.1696
 8337SOL    HW333115   2.134   5.080   0.868  0.1228 -0.0676 -1.1347
 8337SOL    MW433116   2.169   5.001   0.876  0.1542  0.0429  0.0290
 8338SOL     OW33117   4.696   6.289   3.296 -0.7314  0.0572  0.6655
 8338SOL    HW233118   4.720   6.289   3.389  0.5011 -0.4943  0.3623
 8338SOL    HW333119   4.775   6.319   3.251 -1.0548 -0.4635 -0.2650
 8338SOL    MW433120   4.710   6.293   3.302 -0.6115 -0.0843  0.5027
 8339SOL     OW33121   0.248   4.410   6.407  0.4239  0.1408 -0.0897
 8339SOL    HW233122   0.244   4.461   6.326  0.1514 -0.7732 -0.6705
 8339SOL    HW333123   0.338   4.378   6.410  0.2973 -0.2348 -0.2914
 8339SOL    MW433124   0.260   4.413   6.396  0.3712 -0.0293 -0.1929
 8340SOL     OW33125   3.226   0.738   3.994 -0.0564 -0.5068 -0.0604
 8340SOL    HW233126   3.263   0.678   4.059  1.2448  0.8252  0.4838
 8340SOL    HW333127   3.289   0.738   3.922 -0.2175 -0.0669 -0.2067
 8340SOL    MW433128   3.239   0.730   3.993  0.0941 -0.2730 -0.0079
 8341SOL     OW33129   6.330   0.402   1.581 -0.3495 -0.0288  0.1224
 8341SOL    HW233130   6.288   0.347   1.647  0.3260  0.2207  0.7851
 8341SOL    HW333131   6.407   0.437   1.625  0.9243 -0.9857 -1.2491
 8341SOL    MW433132   6.335   0.399   1.596 -0.0923 -0.1221  0.0289
 8342SOL     OW33133   6.337   1.203   5.199 -0.1877  0.3040  0.7385
 8342SOL    HW233134   6.413   1.153   5.231  1.3394  2.2090  0.3196
 8342SOL    HW333135   6.323   1.270   5.266  0.6847  2.0246 -0.7010
 8342SOL    MW433136   6.345   1.205   5.212  0.1289  0.7824  0.4933
 8343SOL     OW33137   3.602   5.098   3.986  0.8201  0.3311  0.7188
 8343SOL    HW233138   3.582   5.163   3.919 -0.3390 -0.8790 -0.1581
 8343SOL    HW333139   3.545   5.120   4.060  1.2219  0.9405  0.8529
 8343SOL    MW433140   3.592   5.109   3.987  0.7202  0.2518  0.6208
 8344SOL     OW33141   4.209   4.946   0.406  0.1405 -0.5918  0.0770
 8344SOL    HW233142   4.151   4.992   0.346 -1.3607 -0.4379  1.5832
 8344SOL    HW333143   4.297   4.971   0.379 -0.4277 -1.1124 -2.5013
 8344SOL    MW433144   4.213   4.955   0.395 -0.1325 -0.6402 -0.0644
 8345SOL     OW33145   3.465   2.193   6.206  0.0242 -0.3279 -0.1235
 8345SOL    HW233146   3.536   2.197   6.270  0.7526 -0.7074 -0.8799
 8345SOL    HW333147   3.473   2.106   6.167 -1.2181 -0.5916  0.1639
 8345SOL    MW433148   3.476   2.182   6.209 -0.0436 -0.4127 -0.1853
 8346SOL     OW33149   0.581   4.244   3.027 -0.4010 -0.0110  0.0042
 8346SOL    HW233150   0.500   4.208   2.992 -1.2703  0.7387  1.1713
 8346SOL    HW333151   0.636   4.167   3.044 -1.7171 -0.7360  1.2118
 8346SOL    MW433152   0.578   4.229   3.025 -0.6893 -0.0077  0.3175
 8347SOL     OW33153   1.890   0.571   4.930  0.0728 -0.0210 -0.2143
 8347SOL    HW233154   1.969   0.575   4.876  0.6711  1.7211  0.7288
 8347SOL    HW333155   1.819   0.594   4.871  0.8383  2.9312 -0.1138
 8347SOL    MW433156   1.891   0.574   4.915  0.2527  0.5984 -0.0766
 8348SOL     OW33157   0.319   5.325   5.429 -0.0973 -0.2690 -0.2919
 8348SOL    HW233158   0.233   5.337   5.470 -0.0584  0.3943 -0.3883
 8348SOL    HW333159   0.354   5.414   5.420  0.9520 -0.5937  0.4727
 8348SOL    MW433160   0.312   5.338   5.433  0.0463 -0.2243 -0.2037
 8349SOL     OW33161   3.537   0.736   5.866  0.2682  0.3665 -0.6990
 8349SOL    HW233162   3.632   0.740   5.866  0.3854  0.1325  2.8499
 8349SOL    HW333163   3.509   0.827   5.856  0.8503  0.5045 -1.1224
 8349SOL    MW433164   3.546   0.748   5.864  0.3605  0.3538 -0.2866
 8350SOL     OW33165   0.718   3.126   5.225 -0.1290 -0.1878  0.3473
 8350SOL    HW233166   0.656   3.054   5.214 -1.8176  0.7628  2.7352
 8350SOL    HW333167   0.689   3.193   5.163 -0.8571 -0.1852  0.6777
 8350SOL    MW433168   0.706   3.126   5.215 -0.4479 -0.0620  0.7059
 8351SOL     OW33169   3.024   3.370   2.027 -0.3059 -0.3187  0.5007
 8351SOL    HW233170   2.988   3.366   2.116 -0.7971  0.6404  0.3608
 8351SOL    HW333171   3.007   3.284   1.990  0.1388 -0.8190  1.4214
 8351SOL    MW433172   3.017   3.358   2.034 -0.3121 -0.2582  0.6037
 8352SOL     OW33173   5.741   1.936   4.946  0.4134  0.2312 -0.3761
 8352SOL    HW233174   5.762   1.869   4.882  2.2780  0.2738  0.1505
 8352SOL    HW333175   5.717   1.887   5.025  1.5404  0.1605 -0.0650
 8352SOL    MW433176   5.740   1.921   4.948  0.8081  0.2275 -0.2656
 8353SOL     OW33177   2.665   6.423   5.548 -0.7086  0.4322  0.5619
 8353SOL    HW233178   2.631   6.513   5.547  0.6584  0.9946 -1.6506
 8353SOL    HW333179   2.589   6.369   5.527 -1.2645  1.2055  0.5160
 8353SOL    MW433180   2.651   6.428   5.545 -0.6016  0.6084  0.2640
 8354SOL     OW33181   5.518   3.582   5.578  0.3153 -0.0472 -0.5574
 8354SOL    HW233182   5.602   3.594   5.532 -0.5320  1.1735 -1.8595
 8354SOL    HW333183   5.531   3.624   5.663  2.1511 -2.9585  0.7645
 8354SOL    MW433184   5.531   3.589   5.583  0.4457 -0.2702 -0.5548
 8355SOL     OW33185   3.902   5.915   5.968  1.0903 -0.1824  0.3422
 8355SOL    HW233186   3.816   5.954   5.988  0.0035 -2.0445 -0.4328
 8355SOL    HW333187   3.889   5.871   5.883  2.5199 -1.3569  0.6905
 8355SOL    MW433188   3.889   5.914   5.959  1.1356 -0.5830  0.2859
 8356SOL     OW33189   5.902   0.287   3.229 -0.0620 -0.0642  0.8520
 8356SOL    HW233190   5.924   0.361   3.286 -2.0379  0.6395  0.7782
 8356SOL    HW333191   5.811   0.304   3.202  0.2056 -1.3259 -1.0345
 8356SOL    MW433192   5.893   0.299   3.233 -0.2874 -0.1378  0.5934
 8357SOL     OW33193   0.759   3.334   0.196  0.7933 -0.4651  0.7331
 8357SOL    HW233194   0.680   3.344   0.142  0.6816 -0.2119  0.9377
 8357SOL    HW333195   0.739   3.382   0.276  0.4219 -2.0098  1.5918
 8357SOL    MW433196   0.746   3.342   0.199  0.7296 -0.6355  0.8734
 8358SOL     OW33197   4.912   5.764   1.523  0.0782 -0.2023 -0.0331
 8358SOL    HW233198   5.007   5.759   1.519  0.0871  0.5524 -0.8770
 8358SOL    HW333199   4.886   5.800   1.439 -0.9458 -0.2106  0.2679
 8358SOL    MW433200   4.921   5.768   1.512 -0.0557 -0.1038 -0.1047
 8359SOL     OW33201   4.409   1.566   3.848  0.1483 -0.3628  0.2975
 8359SOL    HW233202   4.326   1.533   3.883 -0.5388  0.2489 -0.6863
 8359SOL    HW333203   4.440   1.496   3.792 -0.0484 -0.3301  0.1451
 8359SOL    MW433204   4.402   1.552   3.845  0.0317 -0.2778  0.1476
 8360SOL     OW33205   6.034   4.979   6.419  0.3002 -0.1551  0.2719
 8360SOL    HW233206   6.103   5.031   6.461  0.7170 -0.4646 -0.0225
 8360SOL    HW333207   6.040   4.893   6.462 -0.5374  0.0945  0.9222
 8360SOL    MW433208   6.044   4.974   6.430  0.2447 -0.1630  0.3189
 8361SOL     OW33209   1.107   4.836   6.424 -0.3362  0.1288 -0.3704
 8361SOL    HW233210   1.021   4.806   6.453 -0.3764 -0.1960 -0.8198
 8361SOL    HW333211   1.091   4.874   6.337 -0.3325  1.6614  0.2572
 8361SOL    MW433212   1.093   4.837   6.416 -0.3410  0.2882 -0.3469
 8362SOL     OW33213   5.163   4.683   5.180  0.4774  0.0966 -0.3092
 8362SOL    HW233214   5.155   4.710   5.088 -2.5107 -2.6191 -1.0029
 8362SOL    HW333215   5.198   4.593   5.175 -0.8148 -0.5208  1.0900
 8362SOL    MW433216   5.167   4.674   5.167 -0.0873 -0.3432 -0.2161
 8363SOL     OW33217   0.956   2.511   5.664 -0.1168  0.0509  0.4418
 8363SOL    HW233218   1.013   2.570   5.714 -0.0544 -0.7184  1.3302
 8363SOL    HW333219   1.014   2.441   5.636 -0.3180  0.0691 -0.0184
 8363SOL    MW433220   0.971   2.509   5.667 -0.1351 -0.0482  0.4983
 8364SOL     OW33221   6.170   5.408   0.755 -0.3043  0.4321  0.0354
 8364SOL    HW233222   6.134   5.461   0.825  1.7041 -1.2058  2.5227
 8364SOL    HW333223   6.264   5.404   0.774 -0.1086 -2.5637 -0.9117
 8364SOL    MW433224   6.178   5.414   0.767 -0.0135 -0.1793  0.2386
 8365SOL     OW33225   0.023   2.517   1.828  0.3499  0.7055 -0.4602
 8365SOL    HW233226  -0.072   2.506   1.827  0.3371  0.6320  0.5598
 8365SOL    HW333227   0.047   2.512   1.920  1.4191  0.0716 -0.7507
 8365SOL    MW433228   0.014   2.515   1.840  0.4893  0.6121 -0.3640
 8366SOL     OW33229   3.239   4.296   5.717  0.6606  0.2001 -0.0268
 8366SOL    HW233230   3.211   4.283   5.626 -0.4013 -1.5563  0.4999
 8366SOL    HW333231   3.326   4.335   5.710  0.4358  0.4640 -1.7918
 8366SOL    MW433232   3.247   4.299   5.704  0.4908  0.0032 -0.1902
 8367SOL     OW33233   4.107   3.074   4.869 -0.4420 -0.4124 -0.8176
 8367SOL    HW233234   4.031   3.054   4.816 -1.1896  1.5293 -0.5847
 8367SOL    HW333235   4.178   3.088   4.806 -1.3478  1.9991 -1.4378
 8367SOL    MW433236   4.106   3.073   4.854 -0.6601  0.1620 -0.8687
 8368SOL     OW33237   4.102   2.526   3.935  0.7868  0.2839  0.5028
 8368SOL    HW233238   4.039   2.558   3.870 -0.3343 -0.9230  0.9544
 8368SOL    HW333239   4.107   2.432   3.919  0.6044 -0.0154  2.0398
 8368SOL    MW433240   4.094   2.518   3.924  0.6148  0.0852  0.7652
 8369SOL     OW33241   0.657   0.372   6.442 -0.2974 -0.3494 -0.5860
 8369SOL    HW233242   0.644   0.277   6.443 -0.9176 -0.2729 -1.0049
 8369SOL    HW333243   0.729   0.386   6.380  2.3841 -0.8177  2.1416
 8369SOL    MW433244   0.665   0.362   6.434 -0.0254 -0.4011 -0.2814
 8370SOL     OW33245   1.394   1.766   4.638  0.0683 -0.0912  0.4199
 8370SOL    HW233246   1.487   1.782   4.657 -0.3196  1.8452  0.9893
 8370SOL    HW333247   1.369   1.695   4.696  1.2016 -0.6765  0.2198
 8370SOL    MW433248   1.403   1.759   4.648  0.1666  0.0871  0.4686
 8371SOL     OW33249   4.520   1.322   3.649 -0.0657 -0.3153 -0.5046
 8371SOL    HW233250   4.479   1.349   3.567  0.3900  1.6593 -0.1269
 8371SOL    HW333251   4.576   1.248   3.625 -1.1076 -0.7479 -1.6735
 8371SOL    MW433252   4.522   1.316   3.635 -0.1430 -0.1118 -0.6090
 8372SOL     OW33253   5.950   1.648   5.125 -0.5297  0.0424 -0.1650
 8372SOL    HW233254   5.972   1.617   5.213 -0.5322  3.0799  1.0354
 8372SOL    HW333255   5.862   1.686   5.135 -0.1826  1.1742 -1.2371
 8372SOL    MW433256   5.941   1.649   5.138 -0.4843  0.5925 -0.1481
 8373SOL     OW33257   0.001   5.055   3.396  0.4061 -0.4202  0.2526
 8373SOL    HW233258   0.044   5.140   3.397  0.0213 -0.1313  3.5477
 8373SOL    HW333259   0.071   4.993   3.377  0.9245  0.5056 -0.9898
 8373SOL    MW433260   0.016   5.058   3.393  0.4237 -0.2600  0.5234
 8374SOL     OW33261   1.571   5.845   4.502 -0.1193 -0.4432 -0.2488
 8374SOL    HW233262   1.529   5.788   4.566  1.1907 -0.8585  0.2785
 8374SOL    HW333263   1.613   5.913   4.555 -3.2731  2.2559 -0.9346
 8374SOL    MW433264   1.571   5.846   4.517 -0.3626 -0.1418 -0.2697
 8375SOL     OW33265   5.813   2.208   2.925 -0.0929  0.2911  0.0812
 8375SOL    HW233266   5.783   2.285   2.974 -0.3195  0.2025  0.0828
 8375SOL    HW333267   5.799   2.231   2.833  0.0642  0.3456  0.0711
 8375SOL    MW433268   5.807   2.222   2.920 -0.1021  0.2866  0.0801
 8376SOL     OW33269   1.208   2.676   2.922  0.7285 -0.1288  0.6652
 8376SOL    HW233270   1.132   2.662   2.865  3.0667 -2.4657 -2.1757
 8376SOL    HW333271   1.277   2.706   2.864  1.9331  2.7922  3.2877
 8376SOL    MW433272   1.207   2.678   2.907  1.1959 -0.0517  0.6364
 8377SOL     OW33273   5.204   0.410   1.528 -0.6481 -0.6577  0.0423
 8377SOL    HW233274   5.158   0.403   1.444 -1.7332 -0.6734  0.6157
 8377SOL    HW333275   5.142   0.456   1.585 -0.2043 -1.2570  1.0293
 8377SOL    MW433276   5.190   0.415   1.525 -0.7327 -0.7389  0.2482
 8378SOL     OW33277   5.027   2.700   0.076 -0.0056 -0.0348 -0.1254
 8378SOL    HW233278   4.940   2.715   0.113  0.4200 -1.1342  1.4126
 8378SOL    HW333279   5.071   2.785   0.083 -1.2364  0.7929 -1.8266
 8378SOL    MW433280   5.021   2.714   0.082 -0.1118 -0.0707 -0.1469
 8379SOL     OW33281   2.068   5.902   2.610 -0.1795 -0.2853  0.9104
 8379SOL    HW233282   2.017   5.858   2.677 -1.6236  1.5266  1.0935
 8379SOL    HW333283   2.070   5.994   2.638 -0.8842  0.5424 -1.4795
 8379SOL    MW433284   2.061   5.908   2.622 -0.4630  0.0629  0.6193
 8380SOL     OW33285   2.916   4.338   1.144 -0.3348  0.3587  0.0855
 8380SOL    HW233286   2.862   4.403   1.099  0.3674  0.3947 -0.7268
 8380SOL    HW333287   2.881   4.253   1.116  0.2736  0.3769 -0.7751
 8380SOL    MW433288   2.904   4.335   1.134 -0.1619  0.3658 -0.1352
 8381SOL     OW33289   1.541   2.988   0.701 -0.2887  0.7769 -0.0104
 8381SOL    HW233290   1.631   2.966   0.725 -0.5784 -1.3691 -0.7460
 8381SOL    HW333291   1.495   2.993   0.785  0.2484  0.6405  0.2972
 8381SOL    MW433292   1.547   2.986   0.715 -0.2561  0.4758 -0.0668
 8382SOL     OW33293   6.197   1.026   0.862  0.4091  0.1735  0.0234
 8382SOL    HW233294   6.266   1.044   0.926 -1.3333  1.4929  1.6560
 8382SOL    HW333295   6.150   1.109   0.853 -1.3160 -0.8128 -0.5744
 8382SOL    MW433296   6.200   1.040   0.869 -0.0484  0.2174  0.1600
 8383SOL     OW33297   1.965   0.367   6.286  0.0566  0.0037 -0.2884
 8383SOL    HW233298   1.870   0.353   6.295  0.3096 -2.7572 -1.1327
 8383SOL    HW333299   1.977   0.393   6.195  0.1334  0.0942 -0.2523
 8383SOL    MW433300   1.954   0.368   6.275  0.1001 -0.3486 -0.3950
 8384SOL     OW33301   1.370   3.214   2.160  0.1397 -0.2628 -0.7317
 8384SOL    HW233302   1.329   3.207   2.247  1.9815 -1.0612  0.1323
 8384SOL    HW333303   1.358   3.306   2.136  0.6380  0.2924  0.9541
 8384SOL    MW433304   1.363   3.225   2.169  0.4484 -0.2949 -0.3953
 8385SOL     OW33305   5.516   3.939   0.185 -0.1771  0.5766  0.3261
 8385SOL    HW233306   5.592   3.882   0.175  0.2907  1.3160 -0.4822
 8385SOL    HW333307   5.507   3.950   0.280 -0.4123 -0.9910  0.5046
 8385SOL    MW433308   5.525   3.933   0.196 -0.1464  0.4673  0.2430
 8386SOL     OW33309   4.479   2.949   0.188  0.2150 -1.3586 -0.4889
 8386SOL    HW233310   4.558   2.940   0.241 -0.2028  0.6515  0.5500
 8386SOL    HW333311   4.473   2.866   0.140  2.5594 -1.8225 -0.0831
 8386SOL    MW433312   4.488   2.937   0.189  0.4692 -1.1546 -0.2983
 8387SOL     OW33313   0.275   5.504   3.598 -0.0048  0.2198  0.2880
 8387SOL    HW233314   0.183   5.530   3.591 -0.3847 -0.2108  2.8803
 8387SOL    HW333315   0.294   5.507   3.692  2.3098 -0.7980 -0.0856
 8387SOL    MW433316   0.265   5.508   3.609  0.2504  0.0287  0.5807
 8388SOL     OW33317   1.486   3.940   4.526  0.1240 -0.0120 -0.3502
 8388SOL    HW233318   1.511   4.005   4.461 -0.6277  0.6642  0.0115
 8388SOL    HW333319   1.400   3.970   4.557  0.9757  0.3724  1.8135
 8388SOL    MW433320   1.478   3.953   4.522  0.1372  0.1279 -0.0170
 8389SOL     OW33321   5.177   2.471   2.547 -0.3448 -0.4042  0.0161
 8389SOL    HW233322   5.113   2.401   2.564 -0.9398  0.3509  1.0047
 8389SOL    HW333323   5.184   2.517   2.631 -0.2658  0.9657 -0.7271
 8389SOL    MW433324   5.169   2.468   2.561 -0.4129 -0.1238  0.0485
 8390SOL     OW33325   2.634   5.624   2.764 -0.2494 -0.3797 -0.1390
 8390SOL    HW233326   2.538   5.619   2.759 -0.2199 -0.7213 -0.4197
 8390SOL    HW333327   2.655   5.600   2.854 -0.4869  0.6959  0.2114
 8390SOL    MW433328   2.624   5.620   2.775 -0.2769 -0.2828 -0.1298
 8391SOL     OW33329   0.259   4.747   0.188  0.1603 -0.0755  0.3523
 8391SOL    HW233330   0.354   4.755   0.202  0.3910 -0.8368 -0.6120
 8391SOL    HW333331   0.225   4.709   0.268  0.4052  1.6931  1.3575
 8391SOL    MW433332   0.267   4.743   0.200  0.2231  0.0574  0.3577
 8392SOL     OW33333   5.995   1.404   2.410  0.2264 -0.5632 -0.1522
 8392SOL    HW233334   6.022   1.351   2.335  1.2870  0.2660 -0.3891
 8392SOL    HW333335   6.054   1.378   2.481  0.0263 -0.4803  0.0464
 8392SOL    MW433336   6.006   1.394   2.409  0.3399 -0.4429 -0.1573
 8393SOL     OW33337   4.348   3.184   1.557 -0.1205  0.5132 -0.3073
 8393SOL    HW233338   4.418   3.187   1.492 -1.4226  0.7353 -1.7574
 8393SOL    HW333339   4.355   3.096   1.596 -0.0530 -0.0763 -1.6069
 8393SOL    MW433340   4.358   3.173   1.554 -0.2834  0.4647 -0.6701
 8394SOL     OW33341   0.368   1.245   2.501 -0.1886  0.0048  0.4210
 8394SOL    HW233342   0.446   1.238   2.556 -0.4608  0.6221  0.8919
 8394SOL    HW333343   0.401   1.274   2.416  0.1997 -0.6646  0.3421
 8394SOL    MW433344   0.382   1.248   2.497 -0.1733 -0.0021  0.4727
 8395SOL     OW33345   3.773   1.578   2.971 -0.7952 -0.0466 -0.5619
 8395SOL    HW233346   3.684   1.558   2.944 -0.6078 -0.4513 -0.8969
 8395SOL    HW333347   3.828   1.517   2.920 -0.4070 -0.5409  0.4243
 8395SOL    MW433348   3.769   1.567   2.961 -0.7192 -0.1652 -0.4760
 8396SOL     OW33349   6.414   0.295   5.974  0.0329  0.3442  0.5691
 8396SOL    HW233350   6.338   0.328   6.021 -0.5934  1.3637 -1.0612
 8396SOL    HW333351   6.449   0.371   5.927  0.1821 -0.7317 -1.1612
 8396SOL    MW433352   6.409   0.309   5.974 -0.0300  0.3368  0.1257
 8397SOL     OW33353   6.201   5.023   6.076 -0.2852 -0.7010  0.6768
 8397SOL    HW233354   6.210   5.066   5.991  0.8256  0.6570  1.4254
 8397SOL    HW333355   6.108   5.004   6.084 -0.6585  0.6227 -0.1715
 8397SOL    MW433356   6.190   5.026   6.066 -0.1879 -0.3472  0.6636
 8398SOL     OW33357   2.390   0.493   2.761  0.3257 -0.2803 -0.2129
 8398SOL    HW233358   2.365   0.454   2.845  1.1992  0.9463  0.6541
 8398SOL    HW333359   2.433   0.575   2.784  0.7945 -0.0157 -1.8589
 8398SOL    MW433360   2.392   0.498   2.775  0.5028 -0.0836 -0.3157
 8399SOL     OW33361   1.594   4.944   5.476 -0.2562  0.1829  0.3588
 8399SOL    HW233362   1.632   4.973   5.394 -0.6402 -1.2606 -0.3454
 8399SOL    HW333363   1.528   5.011   5.496 -0.7310  0.1159 -0.9309
 8399SOL    MW433364   1.590   4.957   5.468 -0.3695 -0.0164  0.0957
 8400SOL     OW33365   5.996   0.307   5.885 -0.4131 -0.3262  0.6654
 8400SOL    HW233366   6.068   0.319   5.947 -1.6921  0.0394  2.1418
 8400SOL    HW333367   5.986   0.393   5.843  0.2769 -0.4980  0.1410
 8400SOL    MW433368   6.004   0.320   5.888 -0.4908 -0.3006  0.7910
 8401SOL     OW33369   4.914   2.079   1.081 -0.1425  0.5735 -0.2470
 8401SOL    HW233370   4.949   2.168   1.070 -1.9845  1.5112  0.7822
 8401SOL    HW333371   4.989   2.022   1.071  1.2515  2.3054 -0.2515
 8401SOL    MW433372   4.929   2.083   1.078 -0.2016  0.9257 -0.1118
 8402SOL     OW33373   3.569   3.144   1.562  0.1527  0.2678  0.1360
 8402SOL    HW233374   3.573   3.171   1.470 -0.3382 -0.9162 -0.2572
 8402SOL    HW333375   3.622   3.064   1.565  1.8082  1.3446  1.3231
 8402SOL    MW433376   3.577   3.137   1.550  0.3063  0.2536  0.2408
 8403SOL     OW33377   6.133   0.530   5.508  0.7738 -0.6190  0.2133
 8403SOL    HW233378   6.126   0.442   5.473  1.0624 -0.4987 -0.1574
 8403SOL    HW333379   6.076   0.531   5.585  1.1706 -1.2826  0.5236
 8403SOL    MW433380   6.125   0.519   5.514  0.8642 -0.6907  0.2053
 8404SOL     OW33381   6.233   3.773   0.431 -0.2740 -0.3789  0.0204
 8404SOL    HW233382   6.226   3.683   0.402 -0.4441 -1.0403  1.9774
 8404SOL    HW333383   6.161   3.784   0.493 -0.5502  1.2656 -0.5400
 8404SOL    MW433384   6.223   3.763   0.435 -0.3329 -0.2492  0.2047
 8405SOL     OW33385   3.306   4.496   1.100 -0.5675  0.6306 -0.3152
 8405SOL    HW233386   3.248   4.460   1.168 -0.2577  0.4678 -0.1351
 8405SOL    HW333387   3.247   4.520   1.029 -0.8986  0.8065  0.0140
 8405SOL    MW433388   3.291   4.494   1.100 -0.5703  0.6324 -0.2480
 8406SOL     OW33389   5.184   5.783   1.460  0.0562  0.0121 -0.4376
 8406SOL    HW233390   5.234   5.760   1.381  1.1750  1.7176 -0.2916
 8406SOL    HW333391   5.245   5.835   1.512 -1.4282  0.9200  0.4626
 8406SOL    MW433392   5.199   5.787   1.456  0.0079  0.3569 -0.2996
 8407SOL     OW33393   2.397   4.107   1.209  0.1983 -0.4417 -0.2083
 8407SOL    HW233394   2.307   4.088   1.181 -0.2890  0.0646  0.9371
 8407SOL    HW333395   2.398   4.086   1.302  0.9611  0.5981  0.0386
 8407SOL    MW433396   2.385   4.102   1.217  0.2346 -0.2377 -0.0246
 8408SOL     OW33397   3.300   4.150   2.379  0.4682  0.3066  0.1090
 8408SOL    HW233398   3.286   4.233   2.333  1.5839  0.3051 -0.2769
 8408SOL    HW333399   3.226   4.143   2.438  1.4190  2.6672  1.7585
 8408SOL    MW433400   3.289   4.160   2.381  0.7408  0.6178  0.2757
 8409SOL     OW33401   3.796   5.012   3.270  0.0247  0.0155 -0.7590
 8409SOL    HW233402   3.739   4.978   3.202 -0.5378 -2.1114  0.6832
 8409SOL    HW333403   3.872   5.046   3.223 -0.8642 -0.3042 -2.4936
 8409SOL    MW433404   3.799   5.012   3.255 -0.1668 -0.3073 -0.7976
 8410SOL     OW33405   0.421   3.808   4.613 -0.2489 -0.0061 -0.4150
 8410SOL    HW233406   0.329   3.800   4.585 -0.6316  1.0466  0.4669
 8410SOL    HW333407   0.467   3.742   4.562 -1.8522 -2.1179  0.6933
 8410SOL    MW433408   0.415   3.798   4.602 -0.5109 -0.1459 -0.1524
 8411SOL     OW33409   5.725   2.430   3.077  0.1487 -0.5638  0.3588
 8411SOL    HW233410   5.757   2.432   3.168  0.8848 -0.2707  0.1010
 8411SOL    HW333411   5.695   2.520   3.061 -0.7859 -0.8259  0.5834
 8411SOL    MW433412   5.725   2.442   3.087  0.1225 -0.5597  0.3544
 8412SOL     OW33413   4.034   6.385   0.461  0.1639 -0.1657  0.0591
 8412SOL    HW233414   4.094   6.314   0.483  0.3442 -1.0519 -2.8173
 8412SOL    HW333415   3.957   6.370   0.515  1.5583 -0.4033  2.0873
 8412SOL    MW433416   4.032   6.374   0.471  0.3717 -0.3139 -0.0528
 8413SOL     OW33417   1.399   1.396   4.369 -0.1245 -0.5162  0.0328
 8413SOL    HW233418   1.449   1.470   4.403  2.4471 -1.8351 -0.5513
 8413SOL    HW333419   1.335   1.375   4.437  1.1645  0.3377  1.5595
 8413SOL    MW433420   1.397   1.403   4.382  0.3849 -0.5775  0.1572
 8414SOL     OW33421   1.665   2.738   0.347  0.2046 -0.2660 -0.2344
 8414SOL    HW233422   1.691   2.829   0.361  3.3047 -1.1260  0.3497
 8414SOL    HW333423   1.668   2.698   0.434  1.2668 -1.4269 -0.7617
 8414SOL    MW433424   1.669   2.745   0.360  0.7537 -0.5327 -0.2269
 8415SOL     OW33425   5.935   0.037   0.993  0.1247 -0.2358  0.2736
 8415SOL    HW233426   5.992   0.102   1.034 -1.7456  0.2184  2.3530
 8415SOL    HW333427   5.848   0.076   0.995 -0.7983 -2.1677  0.1322
 8415SOL    MW433428   5.931   0.050   0.999 -0.2439 -0.4307  0.5293
 8416SOL     OW33429   3.829   6.138   1.669  0.2085  0.4851  0.6103
 8416SOL    HW233430   3.760   6.137   1.735  0.7091 -0.2574  1.1464
 8416SOL    HW333431   3.784   6.150   1.586 -0.5928 -0.3053  0.9208
 8416SOL    MW433432   3.814   6.139   1.667  0.1688  0.2828  0.7220
 8417SOL     OW33433   1.590   4.451   4.398 -0.1760 -0.4403 -0.4769
 8417SOL    HW233434   1.560   4.513   4.464  3.0299  0.5475  0.2124
 8417SOL    HW333435   1.560   4.488   4.315 -0.0867  0.9410  0.0831
 8417SOL    MW433436   1.582   4.464   4.396  0.2588 -0.1277 -0.3120
 8418SOL     OW33437   2.051   0.988   6.334 -0.1455  0.0746 -0.6527
 8418SOL    HW233438   2.147   0.992   6.337  0.0030 -2.2878  0.5839
 8418SOL    HW333439   2.026   1.056   6.272  2.3464  0.6237 -1.1751
 8418SOL    MW433440   2.060   0.997   6.326  0.2028 -0.1646 -0.5584
 8419SOL     OW33441   5.235   3.978   1.763  0.1320  0.0816  0.4400
 8419SOL    HW233442   5.191   4.019   1.689  0.3407  1.7949  1.1956
 8419SOL    HW333443   5.215   4.036   1.837 -0.3754 -1.7597  1.8184
 8419SOL    MW433444   5.227   3.991   1.763  0.0926  0.0647  0.7216
 8420SOL     OW33445   2.370   1.921   1.279 -0.0640 -0.0059 -0.1488
 8420SOL    HW233446   2.359   1.875   1.196  1.5721 -0.1919 -0.3006
 8420SOL    HW333447   2.300   1.888   1.334 -0.8698 -0.2542 -1.2937
 8420SOL    MW433448   2.360   1.911   1.275  0.0456 -0.0632 -0.3199
 8421SOL     OW33449   6.219   1.102   1.326  0.2457  0.1731  0.0630
 8421SOL    HW233450   6.131   1.124   1.297  0.0690 -0.0073  0.4578
 8421SOL    HW333451   6.212   1.011   1.357  0.4503  0.3322  0.5828
 8421SOL    MW433452   6.207   1.093   1.326  0.2494  0.1703  0.1837
 8422SOL     OW33453   5.972   1.761   4.225  0.2717  0.0641  0.0189
 8422SOL    HW233454   5.988   1.841   4.175  1.3262 -0.2480 -0.1842
 8422SOL    HW333455   5.975   1.789   4.317 -0.5906  0.4581 -0.0709
 8422SOL    MW433456   5.975   1.775   4.231  0.2971  0.0749 -0.0197
 8423SOL     OW33457   1.904   1.883   2.046 -0.1282 -0.5810 -0.2790
 8423SOL    HW233458   1.856   1.961   2.016 -0.5644 -0.3580  0.9480
 8423SOL    HW333459   1.891   1.882   2.141 -0.4443 -2.3604 -0.3037
 8423SOL    MW433460   1.896   1.893   2.054 -0.2275 -0.7863 -0.1204
 8424SOL     OW33461   0.648   1.037   2.655  0.0796 -0.2122  0.0445
 8424SOL    HW233462   0.634   1.128   2.679  0.5964 -0.3530  0.9082
 8424SOL    HW333463   0.567   0.992   2.680  0.0083 -0.0749  0.0587
 8424SOL    MW433464   0.635   1.043   2.661  0.1384 -0.2127  0.1603
 8425SOL     OW33465   0.359   0.121   0.029  0.2434 -0.8489  0.3922
 8425SOL    HW233466   0.292   0.070  -0.016  0.5455 -1.1669  0.3040
 8425SOL    HW333467   0.336   0.212   0.009  1.0835 -1.0041 -1.4573
 8425SOL    MW433468   0.347   0.127   0.020  0.3941 -0.9114  0.1365
 8426SOL     OW33469   3.394   0.115   2.410 -0.4377  0.6070  0.0175
 8426SOL    HW233470   3.331   0.157   2.468 -0.9099  1.7859 -1.2769
 8426SOL    HW333471   3.375   0.152   2.323  0.2161 -1.0960 -0.9010
 8426SOL    MW433472   3.384   0.125   2.406 -0.4138  0.5378 -0.2744
 8427SOL     OW33473   0.371   4.329   5.995  0.0771 -0.2107 -0.1538
 8427SOL    HW233474   0.329   4.256   5.951  1.2073 -0.8634 -0.2013
 8427SOL    HW333475   0.443   4.289   6.045  0.8672  0.8735 -0.3781
 8427SOL    MW433476   0.375   4.314   5.996  0.3304 -0.1538 -0.1897
 8428SOL     OW33477   1.821   5.340   6.006  0.3490 -0.5213 -0.4589
 8428SOL    HW233478   1.745   5.293   5.972 -0.7783 -0.1029  1.3911
 8428SOL    HW333479   1.787   5.393   6.078  2.5261 -0.9334  0.9591
 8428SOL    MW433480   1.806   5.341   6.011  0.4875 -0.5204 -0.0277
 8429SOL     OW33481   0.732   6.382   2.145  0.6208 -0.2755  0.0073
 8429SOL    HW233482   0.760   6.313   2.205  1.1374  0.2936  0.4500
 8429SOL    HW333483   0.643   6.359   2.120 -0.3169  0.3813  2.4136
 8429SOL    MW433484   0.724   6.370   2.150  0.5652 -0.1138  0.3832
 8430SOL     OW33485   4.695   0.640   3.089  0.1611 -0.2490 -0.5283
 8430SOL    HW233486   4.662   0.556   3.055 -1.1999 -0.0598  0.2456
 8430SOL    HW333487   4.696   0.697   3.012 -1.9695 -0.0981 -0.5033
 8430SOL    MW433488   4.690   0.636   3.074 -0.2996 -0.2041 -0.4229
 8431SOL     OW33489   1.783   3.813   0.896  0.2110  0.1280 -0.1205
 8431SOL    HW233490   1.725   3.737   0.900  0.7969 -0.3064  0.2423
 8431SOL    HW333491   1.865   3.783   0.935  0.7881  0.6372 -0.9177
 8431SOL    MW433492   1.786   3.799   0.902  0.3645  0.1379 -0.1778
 8432SOL     OW33493   0.008   4.262   1.545  0.0050 -0.3990 -0.1777
 8432SOL    HW233494  -0.077   4.291   1.576 -0.0470 -0.6645 -0.0716
 8432SOL    HW333495   0.016   4.301   1.458 -0.7221 -1.2936 -0.6685
 8432SOL    MW433496  -0.002   4.271   1.537 -0.0978 -0.5520 -0.2284
 8433SOL     OW33497   0.358   6.186   2.890  0.2592  0.0007  0.8806
 8433SOL    HW233498   0.329   6.168   2.800  0.1299  0.9022  0.7310
 8433SOL    HW333499   0.372   6.281   2.892  1.5894 -0.1754  1.4237
 8433SOL    MW433500   0.356   6.196   2.878  0.4176  0.0964  0.9325
 8434SOL     OW33501   2.867   0.605   1.434 -0.1828 -0.0875  0.4449
 8434SOL    HW233502   2.894   0.604   1.343 -2.3434  2.1612 -0.3486
 8434SOL    HW333503   2.929   0.548   1.479  1.0948 -1.0622 -2.3618
 8434SOL    MW433504   2.879   0.597   1.428 -0.2993  0.0806 -0.0301
 8435SOL     OW33505   6.337   3.216   0.572  0.2640  0.5947 -0.2155
 8435SOL    HW233506   6.347   3.140   0.515 -1.1604  0.3231 -0.1457
 8435SOL    HW333507   6.339   3.292   0.513  1.3770  0.4962 -0.3179
 8435SOL    MW433508   6.339   3.216   0.557  0.2229  0.5459 -0.2198
 8436SOL     OW33509   3.494   4.820   3.891  0.0151 -0.0173  0.3695
 8436SOL    HW233510   3.535   4.900   3.923 -0.8778  0.7557 -0.3634
 8436SOL    HW333511   3.400   4.838   3.892 -0.3226 -1.5894  1.5723
 8436SOL    MW433512   3.487   4.833   3.895 -0.1472 -0.1227  0.4315
 8437SOL     OW33513   3.518   3.127   0.548  0.0919  0.0024 -0.4799
 8437SOL    HW233514   3.539   3.074   0.472 -0.3668 -1.1855  0.1995
 8437SOL    HW333515   3.601   3.170   0.571  0.3430 -0.0115 -1.3419
 8437SOL    MW433516   3.532   3.126   0.541  0.0645 -0.1562 -0.5040
 8438SOL     OW33517   3.894   5.397   5.331 -0.3933 -0.6490  0.1245
 8438SOL    HW233518   3.959   5.367   5.395  0.4764  1.7282  0.4397
 8438SOL    HW333519   3.812   5.354   5.359  0.1494 -0.3693  2.3259
 8438SOL    MW433520   3.891   5.387   5.343 -0.2070 -0.2985  0.4565
 8439SOL     OW33521   0.285   1.602   5.390  0.2569  0.5558  0.2369
 8439SOL    HW233522   0.375   1.629   5.407  0.4099  0.7845 -0.8743
 8439SOL    HW333523   0.232   1.674   5.423  0.5375  0.9459 -0.1564
 8439SOL    MW433524   0.290   1.615   5.397  0.3141  0.6374  0.0384
 8440SOL     OW33525   4.591   4.355   0.421  0.1549  0.2207  0.8901
 8440SOL    HW233526   4.615   4.401   0.502  0.4243  0.3815  0.7209
 8440SOL    HW333527   4.564   4.424   0.361 -0.6017  0.0553  1.0247
 8440SOL    MW433528   4.591   4.370   0.424  0.0907  0.2201  0.8856
 8441SOL     OW33529   2.744   4.552   2.832  0.0028  0.5999  0.3865
 8441SOL    HW233530   2.726   4.509   2.748 -0.6090  0.9461  0.3397
 8441SOL    HW333531   2.734   4.482   2.897  0.9902  0.2044  0.1366
 8441SOL    MW433532   2.740   4.537   2.830  0.0523  0.5934  0.3473
 8442SOL     OW33533   5.436   2.889   2.123  0.1257 -0.6764  0.9528
 8442SOL    HW233534   5.490   2.871   2.046  1.3707  0.7774  1.4350
 8442SOL    HW333535   5.487   2.858   2.197 -1.0454 -2.0168  1.2417
 8442SOL    MW433536   5.450   2.883   2.123  0.1354 -0.6614  1.0546
 8443SOL     OW33537   3.535   2.621   3.307 -0.0522 -0.2571  0.1130
 8443SOL    HW233538   3.465   2.685   3.291 -0.3988 -0.4464  0.8501
 8443SOL    HW333539   3.489   2.541   3.333  0.1981 -1.6539 -3.2409
 8443SOL    MW433540   3.520   2.619   3.308 -0.0649 -0.4664 -0.2322
 8444SOL     OW33541   6.325   1.831   4.689  0.6238 -0.1340 -0.3372
 8444SOL    HW233542   6.350   1.743   4.717  4.3341  0.6872 -0.6140
 8444SOL    HW333543   6.317   1.881   4.771  1.0989 -0.1259 -0.2964
 8444SOL    MW433544   6.327   1.826   4.703  1.1760 -0.0246 -0.3683
 8445SOL     OW33545   4.192   4.561   6.286 -0.1722  0.2209  0.3580
 8445SOL    HW233546   4.111   4.609   6.269 -0.5417 -0.0228  1.3504
 8445SOL    HW333547   4.256   4.600   6.226 -0.9567  0.5815 -0.2656
 8445SOL    MW433548   4.190   4.573   6.276 -0.3245  0.2363  0.4066
 8446SOL     OW33549   3.080   3.048   3.635 -0.0195  0.1270  0.3446
 8446SOL    HW233550   3.057   3.009   3.719 -0.5741  0.5384  0.3904
 8446SOL    HW333551   2.998   3.085   3.603 -0.4309 -2.1219 -1.5260
 8446SOL    MW433552   3.066   3.047   3.642 -0.1470 -0.1154  0.1039
 8447SOL     OW33553   3.864   2.938   0.831 -0.3134  0.7666  0.3750
 8447SOL    HW233554   3.929   2.943   0.761 -0.8017  0.3690 -0.1198
 8447SOL    HW333555   3.784   2.907   0.787 -0.8614  1.3450  0.9513
 8447SOL    MW433556   3.862   2.934   0.816 -0.4501  0.7905  0.3857
 8448SOL     OW33557   6.369   4.906   6.268 -0.7151 -0.3729 -0.9048
 8448SOL    HW233558   6.304   4.949   6.213 -0.9214  0.1792 -0.2428
 8448SOL    HW333559   6.320   4.838   6.315 -1.7021  2.1813  2.1861
 8448SOL    MW433560   6.354   4.903   6.267 -0.8725  0.0370 -0.4097
 8449SOL     OW33561   3.804   0.531   2.212  0.7280  0.2980 -0.0664
 8449SOL    HW233562   3.822   0.462   2.276 -0.5965  0.5213  0.5729
 8449SOL    HW333563   3.766   0.484   2.137  0.2911  0.2621  0.1714
 8449SOL    MW433564   3.801   0.515   2.211  0.4956  0.3228  0.0493
 8450SOL     OW33565   1.114   2.119   1.669 -0.3249 -0.3577 -0.3146
 8450SOL    HW233566   1.061   2.198   1.680  0.8954  0.3213  1.0874
 8450SOL    HW333567   1.164   2.112   1.750  0.4191 -1.9635 -0.8653
 8450SOL    MW433568   1.114   2.129   1.681 -0.0657 -0.4800 -0.2023
 8451SOL     OW33569   4.919   3.334   1.880  0.3480  0.3218  0.0102
 8451SOL    HW233570   4.869   3.400   1.833  0.9421  1.8800  1.4734
 8451SOL    HW333571   4.968   3.287   1.813 -1.6224 -0.0159 -1.2662
 8451SOL    MW433572   4.919   3.336   1.865  0.1664  0.4828  0.0349
 8452SOL     OW33573   6.252   3.945   1.170  0.0988 -0.2793  0.3216
 8452SOL    HW233574   6.243   3.952   1.265  1.7873 -0.6938  0.5404
 8452SOL    HW333575   6.171   3.903   1.141 -0.5386  0.0686  1.5429
 8452SOL    MW433576   6.240   3.941   1.178  0.2375 -0.2881  0.5116
 8453SOL     OW33577   4.852   3.132   4.820 -0.5504 -0.2729 -0.2098
 8453SOL    HW233578   4.899   3.136   4.737  1.9477 -2.0734  0.9905
 8453SOL    HW333579   4.791   3.059   4.809 -0.9003  0.0990 -0.7661
 8453SOL    MW433580   4.850   3.122   4.808 -0.2669 -0.4614 -0.1248
 8454SOL     OW33581   3.270   6.041   4.449  0.0393  0.4796  0.3035
 8454SOL    HW233582   3.282   6.026   4.355 -0.2270 -1.6925  0.5523
 8454SOL    HW333583   3.320   6.120   4.467  1.0188  0.3320 -1.4721
 8454SOL    MW433584   3.278   6.049   4.439  0.1334  0.1736  0.1021
 8455SOL     OW33585   1.832   3.411   0.582  0.5002 -0.0275  0.3813
 8455SOL    HW233586   1.757   3.470   0.589 -1.0625 -2.0101  0.9807
 8455SOL    HW333587   1.795   3.323   0.581  2.7290 -1.0590 -0.7705
 8455SOL    MW433588   1.817   3.407   0.582  0.5881 -0.4252  0.3084
 8456SOL     OW33589   3.153   4.498   0.055 -0.4092  0.1918 -0.7186
 8456SOL    HW233590   3.213   4.457   0.117 -1.4488  0.4388  0.4842
 8456SOL    HW333591   3.084   4.434   0.042  0.1229 -0.1419 -2.1992
 8456SOL    MW433592   3.152   4.484   0.061 -0.4762  0.1803 -0.7553
 8457SOL     OW33593   0.335   5.554   5.970  0.3903 -0.2876 -0.5933
 8457SOL    HW233594   0.416   5.564   6.020  0.6616 -0.2638 -1.0328
 8457SOL    HW333595   0.354   5.484   5.908 -0.1418 -0.7312 -0.2723
 8457SOL    MW433596   0.348   5.546   5.969  0.3559 -0.3430 -0.6089
 8458SOL     OW33597   3.048   4.492   2.787 -0.0541  0.2972  0.1879
 8458SOL    HW233598   2.959   4.525   2.799  0.5997  1.7957  1.3833
 8458SOL    HW333599   3.048   4.407   2.832 -0.5583  0.9083  1.4128
 8458SOL    MW433600   3.037   4.485   2.795 -0.0344  0.5756  0.5072
 8459SOL     OW33601   5.851   3.932   3.132  0.1527 -0.4899  0.0484
 8459SOL    HW233602   5.924   3.894   3.084  0.7990  0.8075 -0.0506
 8459SOL    HW333603   5.888   3.956   3.217 -0.2230 -0.0980  0.1071
 8459SOL    MW433604   5.866   3.930   3.137  0.1884 -0.2670  0.0431
 8460SOL     OW33605   4.742   2.910   5.522  0.1821 -0.1050  0.5118
 8460SOL    HW233606   4.729   2.999   5.553  0.3843 -0.7947  2.7363
 8460SOL    HW333607   4.809   2.917   5.454 -1.8982  1.7648 -1.5344
 8460SOL    MW433608   4.749   2.922   5.517 -0.0657  0.0507  0.5353
 8461SOL     OW33609   0.053   0.810   3.299 -0.0478 -0.9493  0.4106
 8461SOL    HW233610   0.063   0.868   3.223 -0.2937 -3.1991 -1.4402
 8461SOL    HW333611   0.125   0.835   3.358  0.1304  0.8726 -0.5145
 8461SOL    MW433612   0.064   0.821   3.297 -0.0567 -1.0057  0.0443
 8462SOL     OW33613   5.796   5.672   4.598  0.3206 -0.1606 -0.1465
 8462SOL    HW233614   5.860   5.602   4.588 -0.4973 -1.0913  0.8918
 8462SOL    HW333615   5.849   5.752   4.603  1.6269 -1.0710  2.8896
 8462SOL    MW433616   5.811   5.674   4.597  0.3851 -0.4035  0.3910
 8463SOL     OW33617   2.878   1.021   0.132  0.1339  0.1338  0.4700
 8463SOL    HW233618   2.841   1.109   0.137 -2.4650 -0.9187  1.3388
 8463SOL    HW333619   2.882   0.991   0.223 -2.3679 -1.8396  0.0628
 8463SOL    MW433620   2.874   1.029   0.144 -0.5391 -0.2654  0.5309
 8464SOL     OW33621   5.487   0.079   0.240  0.0016 -0.1789  0.1167
 8464SOL    HW233622   5.490   0.149   0.174 -0.8086 -0.1646  0.0750
 8464SOL    HW333623   5.470  -0.000   0.189  0.2379 -0.3008  0.2291
 8464SOL    MW433624   5.485   0.078   0.224 -0.0741 -0.1931  0.1261
 8465SOL     OW33625   1.666   4.549   5.170 -0.1856  0.5770  0.2159
 8465SOL    HW233626   1.750   4.505   5.159 -0.2459  0.1373  1.3888
 8465SOL    HW333627   1.605   4.480   5.195 -1.3425  0.5641 -2.3231
 8465SOL    MW433628   1.669   4.534   5.172 -0.3462  0.5173  0.0357
 8466SOL     OW33629   1.287   3.491   2.075 -0.3844 -0.3380  0.0909
 8466SOL    HW233630   1.258   3.582   2.081  0.1439 -0.1259 -0.5241
 8466SOL    HW333631   1.307   3.477   1.982  0.0361 -0.9284  0.2602
 8466SOL    MW433632   1.286   3.501   2.063 -0.2592 -0.3879  0.0321
 8467SOL     OW33633   2.641   0.988   5.967 -0.0888  0.2507 -0.2607
 8467SOL    HW233634   2.675   0.923   5.906 -2.8578  1.7012 -3.7081
 8467SOL    HW333635   2.583   0.939   6.026 -0.8501 -0.6797 -1.7264
 8467SOL    MW433636   2.638   0.973   5.967 -0.5546  0.3193 -0.9089
 8468SOL     OW33637   4.167   5.312   6.154  0.2227  0.1810  0.2860
 8468SOL    HW233638   4.227   5.249   6.115 -0.2797 -0.0464 -0.1268
 8468SOL    HW333639   4.222   5.388   6.174  0.7122 -0.1507  0.2260
 8468SOL    MW433640   4.182   5.314   6.152  0.2210  0.1072  0.2237
 8469SOL     OW33641   2.935   5.272   0.968  0.1116 -0.2934 -0.2826
 8469SOL    HW233642   2.917   5.346   1.026 -1.3654 -0.9993  0.2166
 8469SOL    HW333643   2.943   5.197   1.027  1.8297 -0.5314 -0.7582
 8469SOL    MW433644   2.933   5.272   0.983  0.1434 -0.4179 -0.2795
 8470SOL     OW33645   3.568   0.348   4.691 -0.2194 -0.3082 -0.0301
 8470SOL    HW233646   3.600   0.348   4.601 -0.6608  0.0010 -0.1905
 8470SOL    HW333647   3.476   0.322   4.684 -0.2448 -0.3332  0.3371
 8470SOL    MW433648   3.560   0.344   4.679 -0.2810 -0.2707 -0.0028
 8471SOL     OW33649   4.365   3.708   3.235 -0.0736 -0.2956  0.0257
 8471SOL    HW233650   4.386   3.723   3.327 -3.4427  1.2084  0.7268
 8471SOL    HW333651   4.441   3.741   3.187  0.7771  1.2182  2.2358
 8471SOL    MW433652   4.378   3.715   3.241 -0.4058  0.1026  0.4098
 8472SOL     OW33653   5.413   1.484   1.042 -0.4821  0.6285  0.4021
 8472SOL    HW233654   5.375   1.538   0.972 -0.5164  1.0608  0.7501
 8472SOL    HW333655   5.465   1.546   1.093  0.9574 -0.0030 -0.2390
 8472SOL    MW433656   5.415   1.499   1.039 -0.2967  0.6022  0.3635
 8473SOL     OW33657   3.113   1.334   2.375  0.0156  0.2633  0.0311
 8473SOL    HW233658   3.202   1.361   2.353 -0.3666  1.2004 -0.4152
 8473SOL    HW333659   3.063   1.350   2.295 -0.6539  0.2023  0.4337
 8473SOL    MW433660   3.118   1.340   2.361 -0.1232  0.3789  0.0253
 8474SOL     OW33661   3.375   4.690   5.965  0.8165 -0.3660  0.1552
 8474SOL    HW233662   3.405   4.762   6.019 -0.7956  0.5389 -0.0940
 8474SOL    HW333663   3.287   4.715   5.938  0.5469 -2.0351 -0.6569
 8474SOL    MW433664   3.368   4.703   5.968  0.5682 -0.4669  0.0152
 8475SOL     OW33665   3.648   3.706   3.581 -0.0182 -0.3059  0.4574
 8475SOL    HW233666   3.696   3.742   3.656  2.3394  2.2177 -2.0307
 8475SOL    HW333667   3.649   3.612   3.595  0.4167  0.0474  3.4792
 8475SOL    MW433668   3.654   3.699   3.593  0.3503  0.0737  0.5278
 8476SOL     OW33669   3.051   4.080   6.038 -0.3444 -0.1911 -0.7435
 8476SOL    HW233670   3.115   4.147   6.016 -1.1563  0.2386 -1.8600
 8476SOL    HW333671   3.084   4.000   5.997  0.6210 -0.5132  0.5851
 8476SOL    MW433672   3.064   4.078   6.030 -0.3242 -0.1769 -0.7155
 8477SOL     OW33673   3.460   3.600   3.096  0.0883  0.1415 -0.2165
 8477SOL    HW233674   3.519   3.653   3.149  1.8786 -1.3595 -0.5879
 8477SOL    HW333675   3.448   3.651   3.016  1.7846  0.0500 -0.5753
 8477SOL    MW433676   3.466   3.614   3.092  0.5483 -0.0686 -0.3128
 8478SOL     OW33677   0.508   2.186   2.521 -0.4265 -0.4073 -0.1926
 8478SOL    HW233678   0.455   2.107   2.533 -0.6651 -0.0333  1.4383
 8478SOL    HW333679   0.587   2.168   2.572 -0.8611  0.7352  0.9220
 8478SOL    MW433680   0.512   2.173   2.530 -0.5153 -0.2072  0.1696
 8479SOL     OW33681   1.241   5.233   0.942  0.6599  0.1905 -0.2539
 8479SOL    HW233682   1.203   5.256   1.027  0.8872 -0.1785 -0.0507
 8479SOL    HW333683   1.187   5.160   0.911  1.9013 -1.1290  0.5736
 8479SOL    MW433684   1.229   5.226   0.949  0.8537 -0.0323 -0.1179
 8480SOL     OW33685   3.243   2.226   4.270 -0.3929  0.2432 -0.5915
 8480SOL    HW233686   3.317   2.174   4.237  0.4015  0.6677  0.4450
 8480SOL    HW333687   3.285   2.302   4.311 -1.5136  1.5551 -1.7815
 8480SOL    MW433688   3.259   2.229   4.271 -0.4359  0.4723 -0.6118
 8481SOL     OW33689   3.841   1.026   6.118 -0.1104 -0.2956  0.7677
 8481SOL    HW233690   3.865   1.057   6.031 -0.3505 -0.5563  0.6091
 8481SOL    HW333691   3.845   0.930   6.112  2.0826 -0.3249  1.6541
 8481SOL    MW433692   3.845   1.017   6.106  0.1472 -0.3338  0.8637
 8482SOL     OW33693   0.154   4.209   1.844  0.6054  0.3478 -0.1849
 8482SOL    HW233694   0.172   4.115   1.850  0.4829  0.3707  0.5931
 8482SOL    HW333695   0.130   4.235   1.933  0.0633  0.9990 -0.5090
 8482SOL    MW433696   0.153   4.200   1.856  0.5177  0.4368 -0.1250
 8483SOL     OW33697   1.705   0.266   6.291 -0.5614 -0.0132 -0.4528
 8483SOL    HW233698   1.718   0.227   6.205 -1.3068 -1.4351  0.0543
 8483SOL    HW333699   1.706   0.192   6.352 -0.7248  0.8915  0.6922
 8483SOL    MW433700   1.707   0.251   6.288 -0.6813 -0.0814 -0.2349
 8484SOL     OW33701   2.213   4.647   2.469 -0.3774  0.8770 -0.3178
 8484SOL    HW233702   2.240   4.693   2.549  0.4227 -0.4964  0.2352
 8484SOL    HW333703   2.158   4.710   2.422  0.4930  2.3001  0.5195
 8484SOL    MW433704   2.209   4.661   2.473 -0.1570  0.8835 -0.1343
 8485SOL     OW33705   0.005   6.155   0.166 -0.3322 -0.1206 -0.0699
 8485SOL    HW233706   0.043   6.067   0.161  0.0566 -0.0003  0.5933
 8485SOL    HW333707   0.052   6.197   0.238  0.0890  0.9418 -0.9572
 8485SOL    MW433708   0.016   6.149   0.175 -0.2253  0.0355 -0.0995
 8486SOL     OW33709   2.607   3.192   1.021 -0.0089 -0.3843  0.2073
 8486SOL    HW233710   2.645   3.278   1.005 -0.5106 -0.5450 -2.2358
 8486SOL    HW333711   2.558   3.173   0.941  0.9727 -3.4082  0.2158
 8486SOL    MW433712   2.605   3.201   1.008  0.0544 -0.8045 -0.1139
 8487SOL     OW33713   4.860   3.690   1.080 -0.1037  0.3262 -0.1488
 8487SOL    HW233714   4.870   3.595   1.085  0.9855  0.4901  1.6725
 8487SOL    HW333715   4.784   3.710   1.135 -0.0930  0.5395 -0.2100
 8487SOL    MW433716   4.851   3.680   1.088  0.0414  0.3760  0.0834
 8488SOL     OW33717   1.541   0.520   2.156 -0.2122 -0.2114  0.1796
 8488SOL    HW233718   1.563   0.609   2.127 -1.0050  0.7022  2.2056
 8488SOL    HW333719   1.561   0.465   2.081  1.6589  1.4922 -0.6489
 8488SOL    MW433720   1.546   0.525   2.142 -0.0699  0.1339  0.3376
 8489SOL     OW33721   2.878   4.642   1.690 -0.4141 -0.2979 -0.0593
 8489SOL    HW233722   2.943   4.587   1.645  0.6944  0.8256  0.0874
 8489SOL    HW333723   2.848   4.589   1.763  0.4903 -0.7887 -0.0238
 8489SOL    MW433724   2.883   4.628   1.694 -0.1485 -0.2144 -0.0352
 8490SOL     OW33725   5.523   5.955   2.837 -0.1942 -0.4209 -0.8909
 8490SOL    HW233726   5.572   6.030   2.802 -1.3490 -0.2172 -2.1536
 8490SOL    HW333727   5.560   5.879   2.792 -0.1777 -0.4064 -0.9016
 8490SOL    MW433728   5.535   5.955   2.826 -0.3444 -0.3921 -1.0589
 8491SOL     OW33729   5.033   6.187   5.506 -0.3096  0.5455 -0.4453
 8491SOL    HW233730   5.073   6.274   5.517  0.0533  0.2438  0.8370
 8491SOL    HW333731   5.060   6.139   5.584 -0.7201 -0.6462 -1.0185
 8491SOL    MW433732   5.042   6.193   5.518 -0.3159  0.3485 -0.3518
 8492SOL     OW33733   4.576   0.534   4.009 -0.2256 -0.2981  0.0253
 8492SOL    HW233734   4.500   0.476   4.009  0.5506 -1.4268  1.9352
 8492SOL    HW333735   4.541   0.620   4.035 -0.9981 -0.5097 -0.2840
 8492SOL    MW433736   4.561   0.538   4.013 -0.2251 -0.4750  0.2364
 8493SOL     OW33737   0.636   4.509   2.265  0.6157 -0.6531  0.0867
 8493SOL    HW233738   0.623   4.560   2.345 -1.2185  0.0007 -0.5576
 8493SOL    HW333739   0.622   4.572   2.194  1.3772 -1.3994 -0.7487
 8493SOL    MW433740   0.632   4.524   2.266  0.4742 -0.6653 -0.1085
 8494SOL     OW33741   3.116   3.426   5.359 -0.7542  0.5008 -0.0103
 8494SOL    HW233742   3.104   3.494   5.293 -1.1205 -0.4133 -0.9203
 8494SOL    HW333743   3.210   3.408   5.358 -0.5922  1.2691  0.5364
 8494SOL    MW433744   3.127   3.433   5.350 -0.7811  0.4816 -0.0582
 8495SOL     OW33745   1.270   0.215   2.259  0.4934 -0.5754 -0.9572
 8495SOL    HW233746   1.225   0.282   2.208 -0.1904 -1.0540 -0.9993
 8495SOL    HW333747   1.200   0.156   2.289  0.7982 -0.0591  0.9228
 8495SOL    MW433748   1.255   0.216   2.256  0.4434 -0.5704 -0.7147
 8496SOL     OW33749   3.550   4.856   0.375  0.0643 -0.2223  0.4806
 8496SOL    HW233750   3.643   4.857   0.399 -0.1268  1.8170  1.2983
 8496SOL    HW333751   3.509   4.917   0.435 -1.4199  0.7098 -1.3830
 8496SOL    MW433752   3.557   4.864   0.386 -0.1567  0.1698  0.3426
 8497SOL     OW33753   0.952   1.517   3.836 -0.2412 -0.0917  0.3160
 8497SOL    HW233754   1.022   1.452   3.839  0.5376  0.7348  0.5249
 8497SOL    HW333755   0.967   1.565   3.754 -1.9973 -1.4248 -0.8603
 8497SOL    MW433756   0.963   1.514   3.826 -0.3701 -0.1585  0.1883
 8498SOL     OW33757   0.268   0.106   3.710 -0.5568  0.4210 -0.1435
 8498SOL    HW233758   0.205   0.056   3.762 -0.0275 -0.8664 -0.6959
 8498SOL    HW333759   0.273   0.191   3.754 -0.7879 -0.3120  1.3696
 8498SOL    MW433760   0.260   0.110   3.723 -0.5175  0.1544 -0.0168
 8499SOL     OW33761   4.523   3.688   5.064 -0.5611  0.5964  0.0372
 8499SOL    HW233762   4.605   3.717   5.103 -0.6107  0.3732  0.3124
 8499SOL    HW333763   4.541   3.599   5.033 -0.3950  0.9288 -0.8445
 8499SOL    MW433764   4.536   3.680   5.065 -0.5458  0.6108 -0.0428
 8500SOL     OW33765   4.056   5.727   4.365  0.2016  0.9088 -0.0019
 8500SOL    HW233766   3.983   5.777   4.402 -0.4575  0.0828 -0.1530
 8500SOL    HW333767   4.111   5.793   4.323 -0.3291  1.5728  0.3169
 8500SOL    MW433768   4.053   5.743   4.364  0.0446  0.8874  0.0202
 8501SOL     OW33769   4.643   0.738   2.812  0.5059 -0.1586  0.1192
 8501SOL    HW233770   4.556   0.760   2.846 -0.1100 -0.4501 -1.1878
 8501SOL    HW333771   4.657   0.799   2.740  0.9814 -0.7040 -0.2662
 8501SOL    MW433772   4.633   0.749   2.807  0.4874 -0.2690 -0.1041
 8502SOL     OW33773   1.918   4.376   5.461 -0.1933  0.2916  0.1590
 8502SOL    HW233774   1.860   4.452   5.475  1.1710  1.6734 -1.2298
 8502SOL    HW333775   2.004   4.406   5.491  0.1397 -1.1807  0.7585
 8502SOL    MW433776   1.922   4.390   5.467  0.0306  0.2797  0.0548
 8503SOL     OW33777   3.648   6.291   1.473  0.5028 -0.1558  0.9387
 8503SOL    HW233778   3.552   6.292   1.475  0.4160 -0.3947 -0.9972
 8503SOL    HW333779   3.672   6.367   1.420  1.3402 -0.4504  0.8785
 8503SOL    MW433780   3.638   6.301   1.466  0.6018 -0.2262  0.6754
 8504SOL     OW33781   4.634   2.217   4.871 -0.0835  0.0931 -0.1300
 8504SOL    HW233782   4.659   2.249   4.958  0.3708  2.4318 -1.0445
 8504SOL    HW333783   4.665   2.127   4.869  2.0103  0.6946  1.3049
 8504SOL    MW433784   4.641   2.209   4.883  0.2527  0.4810 -0.0613
 8505SOL     OW33785   4.528   5.614   1.417  0.0498  0.1584 -0.0838
 8505SOL    HW233786   4.608   5.565   1.434  0.1748  0.0525 -0.9198
 8505SOL    HW333787   4.531   5.633   1.323 -1.6438 -1.1660 -0.4606
 8505SOL    MW433788   4.539   5.610   1.407 -0.1572 -0.0303 -0.2438
 8506SOL     OW33789   4.332   0.245   0.592 -0.4932 -0.3596 -0.0017
 8506SOL    HW233790   4.275   0.207   0.659 -0.1825 -1.7147 -0.4755
 8506SOL    HW333791   4.309   0.338   0.590 -1.1854 -0.4866  1.2941
 8506SOL    MW433792   4.321   0.253   0.601 -0.5435 -0.5552  0.1068
 8507SOL     OW33793   5.166   1.520   0.231 -0.1557 -0.2208 -0.0688
 8507SOL    HW233794   5.185   1.535   0.138 -2.0651 -2.8162 -1.0078
 8507SOL    HW333795   5.233   1.458   0.259  0.5018  0.6671  0.3553
 8507SOL    MW433796   5.177   1.514   0.222 -0.3209 -0.4460 -0.1367
 8508SOL     OW33797   4.048   5.007   1.506 -0.3441  0.6620 -0.2441
 8508SOL    HW233798   4.066   4.983   1.597  0.7625  0.5467 -0.4816
 8508SOL    HW333799   3.963   4.966   1.487  0.2515 -0.8304  0.1875
 8508SOL    MW433800   4.039   4.999   1.516 -0.1195  0.4499 -0.2185
 8509SOL     OW33801   3.388   4.103   5.504  0.1058  0.0835  0.3734
 8509SOL    HW233802   3.336   4.073   5.579  0.9269  0.0329  0.9403
 8509SOL    HW333803   3.444   4.172   5.540  0.6313 -0.0639 -0.1456
 8509SOL    MW433804   3.389   4.108   5.519  0.2835  0.0574  0.3797
 8510SOL     OW33805   3.057   3.242   4.662 -0.5205  0.2721  0.1889
 8510SOL    HW233806   3.128   3.281   4.612  0.7202 -0.5072  1.2829
 8510SOL    HW333807   3.018   3.316   4.709 -0.4025  0.6976 -0.3799
 8510SOL    MW433808   3.061   3.257   4.662 -0.3412  0.2254  0.2582
 8511SOL     OW33809   2.911   3.142   2.448 -0.2316  0.0729 -0.1847
 8511SOL    HW233810   2.882   3.139   2.539  0.8463 -1.5773  0.1516
 8511SOL    HW333811   2.904   3.052   2.417 -1.3548  0.7387 -2.0229
 8511SOL    MW433812   2.907   3.130   2.456 -0.2375 -0.0570 -0.3828
 8512SOL     OW33813   1.323   1.594   1.211 -0.2445 -0.1978 -0.0123
 8512SOL    HW233814   1.367   1.669   1.173 -1.8882 -0.2226 -2.1472
 8512SOL    HW333815   1.389   1.553   1.267  1.7512  0.9009 -1.4407
 8512SOL    MW433816   1.337   1.598   1.214 -0.1980 -0.0561 -0.4825
 8513SOL     OW33817   0.996   3.569   3.380  0.3258  0.3501 -0.0151
 8513SOL    HW233818   1.016   3.606   3.294  0.6597  1.1865  0.4075
 8513SOL    HW333819   0.958   3.642   3.429  3.4326  1.0158  1.7200
 8513SOL    MW433820   0.994   3.584   3.375  0.7798  0.5483  0.2696
 8514SOL     OW33821   5.456   3.289   2.156  0.4037 -0.1990  0.7789
 8514SOL    HW233822   5.483   3.347   2.085  0.8883  0.4712  1.4892
 8514SOL    HW333823   5.376   3.329   2.190  0.4403 -0.2505  0.9245
 8514SOL    MW433824   5.449   3.302   2.151  0.4725 -0.1174  0.8918
 8515SOL     OW33825   2.930   3.744   6.334 -0.2756  0.4950  0.0897
 8515SOL    HW233826   2.852   3.713   6.380 -0.4856 -0.0299 -0.6011
 8515SOL    HW333827   2.898   3.773   6.249  0.4037 -0.7580 -0.6293
 8515SOL    MW433828   2.916   3.743   6.329 -0.2137  0.2604 -0.0963
 8516SOL     OW33829   0.247   0.664   0.330  0.0523  0.1318 -0.0920
 8516SOL    HW233830   0.211   0.583   0.295 -0.6833  0.6848 -0.6661
 8516SOL    HW333831   0.190   0.733   0.295  0.7211  0.9082  0.2935
 8516SOL    MW433832   0.234   0.663   0.321  0.0435  0.3072 -0.1169
 8517SOL     OW33833   0.057   5.165   0.916  0.1127 -0.2189 -0.5907
 8517SOL    HW233834   0.012   5.082   0.900 -0.3751 -0.7547  2.7635
 8517SOL    HW333835   0.150   5.143   0.910 -0.0279 -0.6185 -1.3593
 8517SOL    MW433836   0.063   5.151   0.913  0.0298 -0.3423 -0.2495
 8518SOL     OW33837   0.761   0.151   4.724  0.2130  0.6085 -0.1867
 8518SOL    HW233838   0.800   0.156   4.636  0.2065 -0.9285 -0.3006
 8518SOL    HW333839   0.835   0.166   4.783  0.5051  0.1908 -0.4386
 8518SOL    MW433840   0.776   0.154   4.720  0.2507  0.3506 -0.2350
 8519SOL     OW33841   3.500   0.794   0.457 -0.0576 -0.5245 -0.4794
 8519SOL    HW233842   3.424   0.791   0.515  2.3409 -2.1712  2.9740
 8519SOL    HW333843   3.493   0.717   0.402 -0.9041 -0.6300 -0.2288
 8519SOL    MW433844   3.489   0.784   0.458  0.1472 -0.7557  0.0093
 8520SOL     OW33845   2.470   5.639   0.675  0.9723  0.1250 -0.3429
 8520SOL    HW233846   2.444   5.630   0.583  1.0746 -2.0080 -0.2170
 8520SOL    HW333847   2.440   5.726   0.700 -1.4083 -0.2144 -1.6867
 8520SOL    MW433848   2.463   5.649   0.666  0.6717 -0.2012 -0.5035
 8521SOL     OW33849   2.232   2.602   5.474 -0.3486 -0.6161  0.2347
 8521SOL    HW233850   2.140   2.578   5.472 -0.1561 -1.6244  1.6651
 8521SOL    HW333851   2.279   2.518   5.468  0.4867 -0.1096 -0.6413
 8521SOL    MW433852   2.226   2.588   5.473 -0.2130 -0.6823  0.3078
 8522SOL     OW33853   3.402   3.022   2.704 -0.5805  0.2516 -0.6538
 8522SOL    HW233854   3.411   3.108   2.662  0.3119  1.7071  2.2315
 8522SOL    HW333855   3.307   3.010   2.714 -0.6951  1.5789  0.0982
 8522SOL    MW433856   3.391   3.032   2.700 -0.4779  0.6188 -0.1739
 8523SOL     OW33857   2.369   1.448   3.249 -0.0223 -0.5295 -0.5493
 8523SOL    HW233858   2.458   1.449   3.282 -0.1632  0.2575 -0.1685
 8523SOL    HW333859   2.326   1.522   3.292 -0.9206 -1.0286 -0.5546
 8523SOL    MW433860   2.375   1.458   3.259 -0.1594 -0.4915 -0.4998
 8524SOL     OW33861   1.779   2.471   4.396 -0.0788  0.1049 -0.2368
 8524SOL    HW233862   1.810   2.541   4.453 -0.3295 -0.3388  0.4430
 8524SOL    HW333863   1.800   2.502   4.307 -0.5323  1.2166  0.0287
 8524SOL    MW433864   1.786   2.485   4.392 -0.1717  0.1930 -0.1121
 8525SOL     OW33865   2.704   5.657   3.680  0.2158  0.3376  0.3459
 8525SOL    HW233866   2.634   5.640   3.743  0.6710  1.2773  1.1245
 8525SOL    HW333867   2.756   5.577   3.680 -0.2059  0.0565  0.6001
 8525SOL    MW433868   2.701   5.644   3.688  0.2202  0.4245  0.4822
 8526SOL     OW33869   5.040   1.187   0.012  0.6493  0.3966  0.2195
 8526SOL    HW233870   4.998   1.269   0.038 -0.7544 -0.3624  0.4260
 8526SOL    HW333871   5.114   1.178   0.073  1.1052  1.7108 -0.0987
 8526SOL    MW433872   5.045   1.197   0.024  0.5242  0.4699  0.2047
 8527SOL     OW33873   4.973   3.137   0.792  0.5283 -0.5054 -0.1761
 8527SOL    HW233874   4.934   3.167   0.874 -0.5178 -0.3503 -0.7169
 8527SOL    HW333875   5.066   3.131   0.811  0.2117 -1.2281  1.2512
 8527SOL    MW433876   4.980   3.141   0.805  0.3485 -0.5803 -0.0591
 8528SOL     OW33877   3.349   1.665   1.600 -0.0746 -0.3218 -0.1423
 8528SOL    HW233878   3.383   1.702   1.518  0.4994 -1.2066 -0.3079
 8528SOL    HW333879   3.320   1.742   1.650  2.4909  0.5365  0.1652
 8528SOL    MW433880   3.350   1.680   1.596  0.3396 -0.3253 -0.1236
 8529SOL     OW33881   0.717   5.096   1.150  0.4090 -0.2849  0.0133
 8529SOL    HW233882   0.663   5.174   1.140 -0.6525 -0.9285  0.5637
 8529SOL    HW333883   0.743   5.097   1.243  0.8403 -0.3064 -0.1057
 8529SOL    MW433884   0.713   5.107   1.161  0.3259 -0.3726  0.0702
 8530SOL     OW33885   3.583   5.825   1.469 -0.2261  0.0020  0.2565
 8530SOL    HW233886   3.591   5.760   1.398  1.9113 -0.5001  0.8630
 8530SOL    HW333887   3.620   5.905   1.432 -2.5555  0.8385 -0.3788
 8530SOL    MW433888   3.589   5.827   1.455 -0.2514  0.0461  0.2527
 8531SOL     OW33889   5.877   5.512   4.906 -0.1716 -0.3260  0.1581
 8531SOL    HW233890   5.966   5.487   4.880 -0.3687  0.2375 -1.0993
 8531SOL    HW333891   5.820   5.448   4.863 -0.4052 -0.5315  0.7548
 8531SOL    MW433892   5.881   5.500   4.897 -0.2284 -0.2788  0.0709
 8532SOL     OW33893   0.076   3.387   2.462 -0.1661 -0.5756  0.1451
 8532SOL    HW233894  -0.004   3.359   2.506  0.6724 -0.2742  1.9314
 8532SOL    HW333895   0.082   3.329   2.386 -1.6386 -1.1493  0.4249
 8532SOL    MW433896   0.066   3.376   2.458 -0.2497 -0.6115  0.4177
 8533SOL     OW33897   4.089   0.638   2.215 -0.3642 -0.1623 -0.3894
 8533SOL    HW233898   3.996   0.618   2.227  0.1231 -1.7531  1.1146
 8533SOL    HW333899   4.135   0.559   2.244  1.5373  1.3460  0.9520
 8533SOL    MW433900   4.083   0.625   2.220 -0.0491 -0.1732 -0.0140
 8534SOL     OW33901   5.187   3.784   2.695 -0.0272 -0.3141 -0.5223
 8534SOL    HW233902   5.219   3.717   2.634  0.0192  0.7221 -1.6831
 8534SOL    HW333903   5.114   3.825   2.648  0.3226  0.8425 -0.0701
 8534SOL    MW433904   5.181   3.780   2.680  0.0251 -0.0248 -0.6158
 8535SOL     OW33905   5.049   2.318   1.062 -0.0432  0.3161  0.2016
 8535SOL    HW233906   5.137   2.310   1.027  0.5672 -0.3694  1.7920
 8535SOL    HW333907   5.018   2.403   1.031  1.4408  0.8852  0.1991
 8535SOL    MW433908   5.056   2.328   1.053  0.2331  0.3007  0.4111
 8536SOL     OW33909   4.706   0.244   1.078 -0.2597 -0.2607 -0.3050
 8536SOL    HW233910   4.707   0.194   0.996 -0.7540 -0.3250 -0.2757
 8536SOL    HW333911   4.781   0.303   1.071  0.3796 -1.0588 -0.3122
 8536SOL    MW433912   4.716   0.245   1.066 -0.2406 -0.3745 -0.3021
 8537SOL     OW33913   5.376   5.328   6.385  0.1890 -1.0943  0.4379
 8537SOL    HW233914   5.369   5.233   6.391  2.1719 -1.3221 -0.0986
 8537SOL    HW333915   5.470   5.345   6.389 -0.1669  0.9034  1.1545
 8537SOL    MW433916   5.388   5.318   6.386  0.4036 -0.8608  0.4617
 8538SOL     OW33917   2.553   0.559   4.043 -0.0390  0.4374 -0.7366
 8538SOL    HW233918   2.610   0.612   3.987 -1.3020  3.2542  0.4967
 8538SOL    HW333919   2.612   0.520   4.107  1.0631 -0.6889 -2.3301
 8538SOL    MW433920   2.569   0.561   4.044 -0.0602  0.6604 -0.7841
 8539SOL     OW33921   1.285   4.039   4.705  0.2774 -0.2216 -0.5734
 8539SOL    HW233922   1.348   4.019   4.774  1.8471 -0.9534 -2.1268
 8539SOL    HW333923   1.291   4.134   4.694  0.1162 -0.1168  0.1775
 8539SOL    MW433924   1.294   4.049   4.712  0.4633 -0.3043 -0.6793
 8540SOL     OW33925   5.534   0.561   2.529 -0.2416 -0.2800  0.3909
 8540SOL    HW233926   5.496   0.602   2.607 -0.8133 -0.2422  0.1047
 8540SOL    HW333927   5.458   0.536   2.476  0.1165  1.0901 -0.8733
 8540SOL    MW433928   5.519   0.563   2.532 -0.2698 -0.0942  0.1864
 8541SOL     OW33929   0.976   1.064   1.347  0.0600 -0.0220  0.2175
 8541SOL    HW233930   0.895   1.081   1.394 -1.3376 -0.3411 -1.9224
 8541SOL    HW333931   0.966   0.975   1.312 -0.0564  0.9807 -2.5552
 8541SOL    MW433932   0.964   1.054   1.348 -0.1397  0.0682 -0.4307
 8542SOL     OW33933   0.142   2.848   2.390 -0.1645 -0.0297  0.1573
 8542SOL    HW233934   0.101   2.927   2.424  2.9089  1.2363  1.3124
 8542SOL    HW333935   0.103   2.777   2.440  0.0925  1.2394  2.2741
 8542SOL    MW433936   0.132   2.849   2.401  0.2749  0.3048  0.5890
 8543SOL     OW33937   3.408   2.240   3.192  0.0687 -0.0430 -0.0772
 8543SOL    HW233938   3.500   2.259   3.171  0.0383 -0.5888 -0.7265
 8543SOL    HW333939   3.400   2.260   3.285  0.8398  0.0375 -0.0218
 8543SOL    MW433940   3.419   2.245   3.201  0.1664 -0.1044 -0.1555
 8544SOL     OW33941   2.128   5.937   0.556  0.4223 -0.3671  0.0972
 8544SOL    HW233942   2.214   5.945   0.596 -0.1169 -0.4176  1.3018
 8544SOL    HW333943   2.083   5.870   0.607 -0.7698  0.5639  0.3143
 8544SOL    MW433944   2.133   5.930   0.568  0.1939 -0.2509  0.2847
 8545SOL     OW33945   4.213   1.464   1.332 -0.1372 -0.2874  0.2851
 8545SOL    HW233946   4.308   1.468   1.321 -0.2335  0.3115 -0.4290
 8545SOL    HW333947   4.186   1.555   1.340 -0.7533 -0.3809 -0.5378
 8545SOL    MW433948   4.222   1.477   1.332 -0.2312 -0.2207  0.0823
 8546SOL     OW33949   3.621   0.508   3.785  0.0566 -0.2541 -0.1572
 8546SOL    HW233950   3.618   0.419   3.819 -0.9418  0.0428  0.5815
 8546SOL    HW333951   3.690   0.551   3.836 -0.1429 -0.3371  0.1869
 8546SOL    MW433952   3.630   0.502   3.796 -0.1015 -0.2258 -0.0143
 8547SOL     OW33953   1.477   5.671   1.294 -0.2295  0.0088  0.6545
 8547SOL    HW233954   1.545   5.643   1.356  0.5394  1.2607  0.4068
 8547SOL    HW333955   1.482   5.766   1.293  0.9660  0.0420 -2.5377
 8547SOL    MW433956   1.487   5.680   1.302  0.0297  0.1783  0.2007
 8548SOL     OW33957   2.464   1.209   4.713  0.6477  0.0750 -0.6162
 8548SOL    HW233958   2.381   1.186   4.671 -0.1475 -3.2565  2.3534
 8548SOL    HW333959   2.450   1.298   4.746 -2.2440 -0.7364  0.7029
 8548SOL    MW433960   2.451   1.218   4.712  0.1613 -0.4716 -0.0504
 8549SOL     OW33961   1.324   4.839   4.480  0.1544  0.2378 -0.1875
 8549SOL    HW233962   1.341   4.846   4.386 -0.4866 -0.9284 -0.4166
 8549SOL    HW333963   1.232   4.811   4.485  0.6875 -1.4785  0.7080
 8549SOL    MW433964   1.314   4.836   4.468  0.1402 -0.1425 -0.0996
 8550SOL     OW33965   4.384   3.073   2.183  0.0730  0.0615 -0.2681
 8550SOL    HW233966   4.300   3.118   2.191 -0.7341 -1.5381  0.7407
 8550SOL    HW333967   4.449   3.140   2.206 -1.1980  0.2575  3.2808
 8550SOL    MW433968   4.382   3.088   2.187 -0.2012 -0.1237  0.3332
 8551SOL     OW33969   2.379   4.914   4.994  0.2452 -0.0556 -0.2145
 8551SOL    HW233970   2.346   4.831   5.027 -0.4440  0.2293 -0.1713
 8551SOL    HW333971   2.372   4.906   4.898  0.0937 -0.0175 -0.2074
 8551SOL    MW433972   2.374   4.902   4.985  0.1343 -0.0130 -0.2079
 8552SOL     OW33973   2.352   1.526   2.280 -0.0559 -0.2305  0.5971
 8552SOL    HW233974   2.315   1.501   2.195 -0.8412  2.3472  0.0938
 8552SOL    HW333975   2.427   1.581   2.257  0.3099 -0.2929  1.6039
 8552SOL    MW433976   2.357   1.530   2.265 -0.1113  0.1013  0.6635
 8553SOL     OW33977   0.147   6.308   3.465  0.1514  0.8858 -0.2490
 8553SOL    HW233978   0.083   6.263   3.409  0.2079 -0.2690  0.5622
 8553SOL    HW333979   0.203   6.356   3.405 -1.4213  1.8563 -0.9856
 8553SOL    MW433980   0.146   6.308   3.450 -0.0486  0.8615 -0.2392
 8554SOL     OW33981   3.800   2.361   4.035 -0.4186 -0.0526  0.8983
 8554SOL    HW233982   3.821   2.416   4.110 -1.0907  0.7359  0.5243
 8554SOL    HW333983   3.857   2.284   4.044 -1.0519 -0.3483  2.6279
 8554SOL    MW433984   3.811   2.358   4.046 -0.5908  0.0124  1.0772
 8555SOL     OW33985   4.928   0.336   2.496  0.0798  0.1617 -0.1661
 8555SOL    HW233986   5.023   0.341   2.508 -0.0540 -0.3733  1.3347
 8555SOL    HW333987   4.899   0.273   2.562 -1.2652 -0.0867 -0.9607
 8555SOL    MW433988   4.936   0.328   2.506 -0.1153  0.0584 -0.0730
 8556SOL     OW33989   6.151   5.604   1.497 -0.0173  0.3777 -0.3087
 8556SOL    HW233990   6.165   5.625   1.405  0.8280  0.2526 -0.2160
 8556SOL    HW333991   6.160   5.687   1.543  0.2420  0.3253 -0.2656
 8556SOL    MW433992   6.154   5.618   1.491  0.1285  0.3543 -0.2908
 8557SOL     OW33993   2.723   5.388   4.829 -0.0033  0.0277  0.1501
 8557SOL    HW233994   2.652   5.406   4.768 -0.4302 -1.1854  0.2767
 8557SOL    HW333995   2.744   5.474   4.867  0.5963  0.9030 -2.0037
 8557SOL    MW433996   2.717   5.402   4.826  0.0195 -0.0168 -0.1173
 8558SOL     OW33997   4.287   5.060   3.828  0.5155 -0.0488 -0.1868
 8558SOL    HW233998   4.362   5.030   3.881  0.5228  1.0240  0.4441
 8558SOL    HW333999   4.325   5.079   3.742  1.0815  0.8981  0.2480
 8558SOL    MW434000   4.302   5.058   3.824  0.5911  0.2177 -0.0462
 8559SOL     OW34001   2.063   5.135   3.608 -0.1601  0.1392  0.3596
 8559SOL    HW234002   2.113   5.216   3.604 -0.6567  0.4588  0.4371
 8559SOL    HW334003   1.972   5.164   3.621 -0.3495 -0.4256  0.3285
 8559SOL    MW434004   2.057   5.149   3.609 -0.2506  0.1069  0.3657
 8560SOL     OW34005   1.434   2.109   0.167  0.1293 -0.0298  0.4225
 8560SOL    HW234006   1.414   2.161   0.090 -2.3402 -0.9716  0.3454
 8560SOL    HW334007   1.517   2.144   0.199 -0.0216  2.0023 -1.2348
 8560SOL    MW434008   1.442   2.120   0.161 -0.2165  0.1141  0.1936
 8561SOL     OW34009   1.853   0.821   2.717  0.0750 -0.0008  0.2555
 8561SOL    HW234010   1.812   0.832   2.632 -1.1126  1.1908  0.9383
 8561SOL    HW334011   1.845   0.907   2.759  0.0118 -0.7362  1.8366
 8561SOL    MW434012   1.847   0.834   2.712 -0.0900  0.0594  0.5542
 8562SOL     OW34013   4.067   0.255   1.181  0.5345  0.2152  0.1224
 8562SOL    HW234014   3.994   0.196   1.163  0.1085  0.9245 -0.5313
 8562SOL    HW334015   4.084   0.299   1.098 -0.2908  2.2542  0.9644
 8562SOL    MW434016   4.060   0.253   1.168  0.3694  0.5778  0.1472
 8563SOL     OW34017   4.363   4.956   2.110 -0.0288  0.5240 -0.1651
 8563SOL    HW234018   4.284   5.001   2.078 -0.1698  0.1053 -0.4307
 8563SOL    HW334019   4.434   4.994   2.059 -0.2101  0.1062 -0.7566
 8563SOL    MW434020   4.362   4.967   2.099 -0.0713  0.4136 -0.2782
 8564SOL     OW34021   3.107   0.502   1.531  0.2754  0.5306 -0.0712
 8564SOL    HW234022   3.071   0.552   1.604  1.1628  1.0904 -0.0019
 8564SOL    HW334023   3.175   0.558   1.495  0.7073 -0.2733 -0.5347
 8564SOL    MW434024   3.111   0.516   1.536  0.4495  0.4984 -0.1232
 8565SOL     OW34025   5.265   0.986   0.233  0.8948 -0.0434  0.3994
 8565SOL    HW234026   5.260   0.894   0.208 -0.3199  0.1802 -0.2642
 8565SOL    HW334027   5.338   0.991   0.294  0.7337 -1.5098  0.7285
 8565SOL    MW434028   5.274   0.975   0.237  0.7132 -0.2074  0.3553
 8566SOL     OW34029   5.845   3.577   6.218  0.0780  0.4307  0.4154
 8566SOL    HW234030   5.751   3.561   6.226  0.0165  0.8842  0.6523
 8566SOL    HW334031   5.854   3.635   6.142  0.2795 -0.5334 -0.3150
 8566SOL    MW434032   5.834   3.583   6.209  0.0965  0.3634  0.3503
 8567SOL     OW34033   4.807   5.396   4.557 -0.5552  0.4234  0.1721
 8567SOL    HW234034   4.893   5.371   4.525 -0.7727 -0.4330  0.2156
 8567SOL    HW334035   4.814   5.489   4.578  0.1162  0.5556 -0.6028
 8567SOL    MW434036   4.819   5.405   4.555 -0.4953  0.3279  0.0756
 8568SOL     OW34037   0.611   0.923   0.452  0.7487 -0.1966  0.0663
 8568SOL    HW234038   0.705   0.909   0.437  0.8427  0.0280  0.4201
 8568SOL    HW334039   0.576   0.836   0.470  1.0316 -0.1946  0.6699
 8568SOL    MW434040   0.619   0.910   0.452  0.7984 -0.1667  0.1926
 8569SOL     OW34041   0.985   3.200   4.091 -0.5058  0.0622 -0.6359
 8569SOL    HW234042   0.988   3.204   4.187 -0.6503  1.0131 -0.6626
 8569SOL    HW334043   0.936   3.120   4.072 -1.9977  0.7528  0.1157
 8569SOL    MW434044   0.979   3.190   4.101 -0.7217  0.2788 -0.5403
 8570SOL     OW34045   1.713   2.983   2.605  0.6012  0.0030 -0.0912
 8570SOL    HW234046   1.633   2.991   2.554  1.1439 -0.8659 -1.1329
 8570SOL    HW334047   1.708   2.896   2.644  0.5004  0.4066  0.8040
 8570SOL    MW434048   1.702   2.973   2.603  0.6595 -0.0584 -0.1105
 8571SOL     OW34049   3.434   5.431   1.282 -0.0699  0.1336 -0.1635
 8571SOL    HW234050   3.345   5.413   1.312  0.8683 -3.8138  0.7583
 8571SOL    HW334051   3.437   5.396   1.193 -0.1342  3.0729 -1.4670
 8571SOL    MW434052   3.423   5.424   1.274  0.0454  0.0006 -0.2139
 8572SOL     OW34053   3.207   0.718   2.378 -0.6508 -0.0776  0.1544
 8572SOL    HW234054   3.130   0.754   2.423 -0.3912  1.2646 -0.4293
 8572SOL    HW334055   3.280   0.772   2.409 -0.1205 -0.6175 -0.1448
 8572SOL    MW434056   3.206   0.730   2.388 -0.5466  0.0283  0.0379
 8573SOL     OW34057   1.901   5.060   6.094  1.0889 -0.6526  0.5438
 8573SOL    HW234058   1.905   5.155   6.082 -1.0810 -0.7366 -1.7230
 8573SOL    HW334059   1.946   5.024   6.017 -2.4122 -1.3232 -1.4116
 8573SOL    MW434060   1.907   5.068   6.082  0.3407 -0.7521 -0.0133
 8574SOL     OW34061   5.164   3.500   1.933  0.2697  0.1512 -0.4646
 8574SOL    HW234062   5.083   3.507   1.884  1.2754 -0.4450 -2.3232
 8574SOL    HW334063   5.218   3.572   1.901  0.1571  1.1717  1.4918
 8574SOL    MW434064   5.161   3.510   1.922  0.3875  0.2072 -0.4517
 8575SOL     OW34065   3.973   2.140   3.068 -0.3417  0.0333 -0.6008
 8575SOL    HW234066   3.989   2.193   3.146 -0.1654 -1.2209  0.2485
 8575SOL    HW334067   4.058   2.131   3.026 -0.2328 -0.2037 -0.3300
 8575SOL    MW434068   3.986   2.146   3.072 -0.3041 -0.1635 -0.4530
 8576SOL     OW34069   4.454   2.109   6.128 -0.4632  0.6096  0.8604
 8576SOL    HW234070   4.439   2.014   6.134  0.7031 -0.0958 -3.5881
 8576SOL    HW334071   4.543   2.117   6.091 -1.0304  3.3433 -0.1525
 8576SOL    MW434072   4.464   2.097   6.124 -0.3841  0.8772  0.1399
 8577SOL     OW34073   3.768   3.346   0.139  0.4858  0.0166  0.2464
 8577SOL    HW234074   3.833   3.343   0.209  1.4514  0.1067 -0.6231
 8577SOL    HW334075   3.742   3.438   0.134  0.0612 -0.0682  0.7876
 8577SOL    MW434076   3.773   3.357   0.148  0.5572  0.0173  0.2031
 8578SOL     OW34077   4.325   0.529   6.173 -0.0416  0.4410 -0.2661
 8578SOL    HW234078   4.294   0.563   6.257 -2.1962 -0.6006 -0.5654
 8578SOL    HW334079   4.326   0.606   6.116  0.7074  1.0174  0.5027
 8578SOL    MW434080   4.321   0.544   6.177 -0.2270  0.3796 -0.2042
 8579SOL     OW34081   0.578   5.448   4.837  0.5090  0.3434 -0.0098
 8579SOL    HW234082   0.576   5.478   4.928  1.6545  0.6252 -0.0572
 8579SOL    HW334083   0.508   5.497   4.795  0.2717  0.5619  0.6161
 8579SOL    MW434084   0.568   5.458   4.844  0.6288  0.4094  0.0666
 8580SOL     OW34085   4.953   0.583   1.570 -0.2594 -0.2703  0.4005
 8580SOL    HW234086   4.912   0.511   1.523  0.3471 -0.3558 -0.0103
 8580SOL    HW334087   4.967   0.549   1.659  1.5095 -1.2808 -0.1998
 8580SOL    MW434088   4.950   0.569   1.576  0.0540 -0.4149  0.2671
 8581SOL     OW34089   5.004   3.680   1.435  0.4772  0.2822 -0.3010
 8581SOL    HW234090   4.921   3.632   1.431  0.6222  0.1224 -1.7217
 8581SOL    HW334091   5.028   3.678   1.528  0.4908 -2.4209 -0.2818
 8581SOL    MW434092   4.996   3.673   1.447  0.4981 -0.0955 -0.4859
 8582SOL     OW34093   5.062   1.356   1.925  0.2869  0.3219  0.1726
 8582SOL    HW234094   5.055   1.383   2.016 -0.5297  0.2145  0.1474
 8582SOL    HW334095   5.096   1.434   1.880  1.4784  0.1286  0.6762
 8582SOL    MW434096   5.066   1.370   1.931  0.3363  0.2822  0.2357
 8583SOL     OW34097   3.605   5.855   3.277 -0.4439  0.4239 -0.4577
 8583SOL    HW234098   3.661   5.932   3.288  0.9635 -0.8524  2.0113
 8583SOL    HW334099   3.517   5.888   3.292 -0.1306  1.9085 -1.5288
 8583SOL    MW434100   3.601   5.870   3.280 -0.2169  0.4514 -0.2733
 8584SOL     OW34101   0.328   2.407   5.102  0.5425  0.3832 -0.3673
 8584SOL    HW234102   0.284   2.390   5.186  3.0014 -0.7115  0.8256
 8584SOL    HW334103   0.262   2.451   5.049 -1.8066 -0.7702  1.3837
 8584SOL    MW434104   0.314   2.410   5.106  0.5570  0.0866  0.0211
 8585SOL     OW34105   0.843   1.289   0.456 -0.3045 -0.2329  0.4767
 8585SOL    HW234106   0.808   1.299   0.545 -1.1142 -1.1776  0.2898
 8585SOL    HW334107   0.831   1.374   0.415  1.2425  0.5910  1.6553
 8585SOL    MW434108   0.837   1.301   0.462 -0.2072 -0.2489  0.6076
 8586SOL     OW34109   3.233   6.419   6.171 -0.1169 -0.2277  0.4058
 8586SOL    HW234110   3.176   6.381   6.104 -3.4849  0.3558  2.6638
 8586SOL    HW334111   3.237   6.512   6.150 -0.3677 -0.2044  0.4558
 8586SOL    MW434112   3.226   6.426   6.160 -0.5944 -0.1476  0.7103
 8587SOL     OW34113   5.078   6.162   0.237 -0.0833  0.1282  0.1933
 8587SOL    HW234114   5.043   6.079   0.204  0.0337  0.8184 -1.8317
 8587SOL    HW334115   5.171   6.160   0.213 -0.2367  1.1329 -0.5213
 8587SOL    MW434116   5.086   6.151   0.229 -0.0881  0.3518 -0.1682
 8588SOL     OW34117   2.909   0.202   5.383 -0.2641  0.1450  0.1348
 8588SOL    HW234118   2.894   0.245   5.468  0.3300  1.2617 -0.3112
 8588SOL    HW334119   2.983   0.143   5.399 -0.6975 -0.2846  0.5990
 8588SOL    MW434120   2.917   0.200   5.397 -0.2429  0.2356  0.1372
 8589SOL     OW34121   4.669   5.903   0.734  0.1509 -0.2843 -0.1594
 8589SOL    HW234122   4.711   5.962   0.796 -1.1679 -1.4873  1.9971
 8589SOL    HW334123   4.710   5.923   0.650  0.5816  2.8339  0.6698
 8589SOL    MW434124   4.680   5.914   0.731  0.0337 -0.0316  0.2346
 8590SOL     OW34125   1.733   2.468   3.346 -0.1671 -0.4796 -0.1269
 8590SOL    HW234126   1.757   2.399   3.407  0.3024  0.1446  0.4156
 8590SOL    HW334127   1.784   2.544   3.375 -0.6044  0.0682 -0.7600
 8590SOL    MW434128   1.743   2.469   3.358 -0.1628 -0.3250 -0.1389
 8591SOL     OW34129   2.731   4.772   1.457 -0.2127  0.0997  0.2404
 8591SOL    HW234130   2.779   4.721   1.522  1.2526  1.3101  0.1997
 8591SOL    HW334131   2.777   4.857   1.456  0.0501  0.0184 -2.5781
 8591SOL    MW434132   2.744   4.777   1.465  0.0153  0.2486 -0.1368
 8592SOL     OW34133   2.967   3.909   4.442  0.2655 -0.2702 -0.3360
 8592SOL    HW234134   3.002   3.831   4.401  0.8286 -0.5991  0.7283
 8592SOL    HW334135   2.873   3.893   4.448  0.2848 -0.5515 -0.7738
 8592SOL    MW434136   2.959   3.897   4.437  0.3424 -0.3507 -0.2533
 8593SOL     OW34137   2.019   4.488   2.241  0.0057 -0.2210  0.4678
 8593SOL    HW234138   1.935   4.509   2.281 -0.9851 -1.3365 -0.8921
 8593SOL    HW334139   2.055   4.419   2.296 -1.2141 -1.5546 -0.3349
 8593SOL    MW434140   2.013   4.482   2.253 -0.2860 -0.5441  0.1824
 8594SOL     OW34141   0.450   1.358   0.953  0.5890 -0.2574 -0.6986
 8594SOL    HW234142   0.441   1.402   1.037 -1.7380 -2.3631  0.2944
 8594SOL    HW334143   0.543   1.366   0.930  0.5491  3.8637 -0.0092
 8594SOL    MW434144   0.461   1.365   0.961  0.2767  0.0085 -0.4766
 8595SOL     OW34145   5.568   4.862   3.392 -1.2769  0.6534  0.5675
 8595SOL    HW234146   5.562   4.781   3.443  0.4450  0.6959  0.8920
 8595SOL    HW334147   5.545   4.836   3.303 -0.1244 -0.3458  0.5399
 8595SOL    MW434148   5.564   4.848   3.387 -0.8976  0.5271  0.6067
 8596SOL     OW34149   6.277   4.547   1.398 -0.2385  0.1010  0.3029
 8596SOL    HW234150   6.331   4.580   1.469  0.9975  0.2331 -0.6645
 8596SOL    HW334151   6.335   4.490   1.348 -1.4762 -1.0890  0.1857
 8596SOL    MW434152   6.291   4.544   1.401 -0.2387 -0.0386  0.1598
 8597SOL     OW34153   5.386   3.657   1.795  0.0954 -0.0014 -0.1352
 8597SOL    HW234154   5.427   3.623   1.715 -0.8034  1.1678 -1.1232
 8597SOL    HW334155   5.436   3.736   1.816 -0.2852  0.2284 -0.0989
 8597SOL    MW434156   5.398   3.663   1.787 -0.0734  0.1832 -0.2608
 8598SOL     OW34157   4.195   0.433   0.285  0.1374  0.2806  0.1987
 8598SOL    HW234158   4.257   0.471   0.347  0.1489 -0.5906  0.7377
 8598SOL    HW334159   4.200   0.339   0.301 -0.5741  0.1207 -0.4646
 8598SOL    MW434160   4.204   0.425   0.295  0.0451  0.1445  0.1823
 8599SOL     OW34161   3.509   5.617   0.703 -0.2643  0.2342  0.1574
 8599SOL    HW234162   3.539   5.597   0.792 -0.7058 -0.6917  0.1095
 8599SOL    HW334163   3.451   5.692   0.714 -0.6610 -0.1427  0.7143
 8599SOL    MW434164   3.505   5.624   0.716 -0.3749  0.0623  0.2245
 8600SOL     OW34165   3.026   5.921   1.844  0.1204 -0.4125  0.1351
 8600SOL    HW234166   3.069   6.006   1.857 -2.5283  0.7623  2.3471
 8600SOL    HW334167   3.079   5.859   1.893  0.0890  0.7316  1.6741
 8600SOL    MW434168   3.038   5.924   1.852 -0.2332 -0.1065  0.6300
 8601SOL     OW34169   4.078   5.899   0.416  0.4980 -0.3767  0.2759
 8601SOL    HW234170   4.100   5.839   0.487 -0.5667 -1.7571 -0.5128
 8601SOL    HW334171   3.984   5.912   0.424  0.1706 -1.3929 -1.4770
 8601SOL    MW434172   4.069   5.893   0.426  0.3143 -0.6929 -0.0594
 8602SOL     OW34173   0.931   0.534   0.887 -0.0947 -0.2137 -0.2239
 8602SOL    HW234174   1.026   0.543   0.882 -0.0620  0.4861  1.0868
 8602SOL    HW334175   0.900   0.549   0.798  0.9079  1.1900 -0.3610
 8602SOL    MW434176   0.940   0.537   0.875  0.0419  0.0639 -0.0690
 8603SOL     OW34177   0.514   5.822   1.432  0.3486  0.1261 -0.0654
 8603SOL    HW234178   0.583   5.887   1.424 -0.1696  0.8000  0.8141
 8603SOL    HW334179   0.553   5.751   1.483  1.1318 -0.6103 -1.5932
 8603SOL    MW434180   0.528   5.821   1.438  0.3836  0.1179 -0.1509
 8604SOL     OW34181   5.765   3.006   2.072 -0.1619 -0.8967 -0.4948
 8604SOL    HW234182   5.711   2.952   2.013  0.9489 -2.8378  0.1900
 8604SOL    HW334183   5.702   3.041   2.135 -0.5485 -4.9509  1.6897
 8604SOL    MW434184   5.749   3.003   2.072 -0.0663 -1.6877 -0.1162
 8605SOL     OW34185   1.520   5.463   4.127 -0.2926  0.1019  0.1540
 8605SOL    HW234186   1.453   5.404   4.162  0.8564 -1.9125 -0.8745
 8605SOL    HW334187   1.603   5.425   4.156  0.5728 -0.0750 -2.3131
 8605SOL    MW434188   1.522   5.450   4.135 -0.0268 -0.1872 -0.3072
 8606SOL     OW34189   6.375   0.186   4.315  0.2877 -0.4375  0.0855
 8606SOL    HW234190   6.300   0.195   4.257  0.3506  0.0120  0.0731
 8606SOL    HW334191   6.443   0.241   4.276  1.4773 -2.6794 -1.2885
 8606SOL    MW434192   6.374   0.194   4.302  0.4530 -0.6740 -0.0974
 8607SOL     OW34193   1.121   5.175   2.607 -0.3108  0.4845 -0.0658
 8607SOL    HW234194   1.135   5.146   2.517 -1.7424 -0.9494  0.1323
 8607SOL    HW334195   1.201   5.222   2.630  0.8158 -0.6697 -1.4739
 8607SOL    MW434196   1.133   5.177   2.598 -0.3510  0.1430 -0.2254
 8608SOL     OW34197   4.538   6.375   1.876 -0.5070 -0.1299  0.5722
 8608SOL    HW234198   4.521   6.460   1.914 -0.5926  0.5295 -0.8701
 8608SOL    HW334199   4.576   6.323   1.947  0.1290  1.2983  1.3048
 8608SOL    MW434200   4.541   6.379   1.890 -0.4344  0.1455  0.4785
 8609SOL     OW34201   3.794   2.535   6.214  0.1267  0.3243  0.4189
 8609SOL    HW234202   3.769   2.616   6.258 -0.4930 -0.0009  0.6731
 8609SOL    HW334203   3.874   2.558   6.165 -0.5252  1.3058 -0.2127
 8609SOL    MW434204   3.801   2.548   6.213 -0.0411  0.4109  0.3691
 8610SOL     OW34205   2.559   5.339   3.379  0.4598 -0.1021 -0.1290
 8610SOL    HW234206   2.638   5.373   3.337  0.2515 -2.3831 -2.6843
 8610SOL    HW334207   2.589   5.265   3.432  0.2173  0.0201  0.1818
 8610SOL    MW434208   2.573   5.334   3.380  0.4004 -0.3869 -0.4252
 8611SOL     OW34209   1.820   1.566   3.069 -0.0540 -0.0240  0.6974
 8611SOL    HW234210   1.785   1.620   3.140  1.5263  0.4613  1.1496
 8611SOL    HW334211   1.782   1.480   3.084  2.0573 -0.6127  3.6788
 8611SOL    MW434212   1.811   1.562   3.081  0.4331 -0.0376  1.1504
 8612SOL     OW34213   1.634   1.311   2.263  0.2012  0.0780  0.0825
 8612SOL    HW234214   1.550   1.319   2.309 -0.6096 -0.5593 -1.2163
 8612SOL    HW334215   1.656   1.218   2.271  0.0190 -0.0513 -0.8511
 8612SOL    MW434216   1.626   1.299   2.270  0.0702 -0.0231 -0.2121
 8613SOL     OW34217   2.924   2.314   1.345 -0.4215  0.4015 -0.0794
 8613SOL    HW234218   2.885   2.386   1.395 -2.2427 -0.9255  0.5192
 8613SOL    HW334219   2.920   2.343   1.254 -1.0894  1.0844  0.1563
 8613SOL    MW434220   2.919   2.327   1.340 -0.7499  0.3165  0.0307
 8614SOL     OW34221   2.449   4.114   0.302  0.1123 -0.1008  0.3366
 8614SOL    HW234222   2.356   4.132   0.320  0.2760  0.1558  0.9433
 8614SOL    HW334223   2.494   4.138   0.383  0.6161 -0.9689  0.3272
 8614SOL    MW434224   2.442   4.119   0.315  0.2004 -0.1815  0.4154
 8615SOL     OW34225   2.254   0.818   5.513  0.3398  0.4028  0.0309
 8615SOL    HW234226   2.223   0.733   5.482 -2.7194  0.5264  2.2579
 8615SOL    HW334227   2.221   0.881   5.448  1.2974  0.0587 -0.8146
 8615SOL    MW434228   2.246   0.815   5.500  0.0625  0.3737  0.2132
 8616SOL     OW34229   2.541   0.972   5.585  0.1730  0.1560  0.2409
 8616SOL    HW234230   2.547   1.050   5.641 -2.0419  1.0780 -0.7042
 8616SOL    HW334231   2.560   0.899   5.645 -1.4893  1.1469  2.1069
 8616SOL    MW434232   2.544   0.973   5.600 -0.3385  0.4084  0.3624
 8617SOL     OW34233   1.074   6.160   2.037 -0.9477  0.0888  0.1739
 8617SOL    HW234234   1.145   6.224   2.046  0.0384 -0.9872  0.3967
 8617SOL    HW334235   0.997   6.212   2.018 -0.5102  1.4758  1.9338
 8617SOL    MW434236   1.073   6.175   2.036 -0.7599  0.1299  0.4355
 8618SOL     OW34237   4.248   0.533   4.316  0.2312 -0.0984  0.3264
 8618SOL    HW234238   4.274   0.459   4.262  0.4600  1.4358 -1.7850
 8618SOL    HW334239   4.191   0.495   4.384  0.5103 -2.1958 -0.5488
 8618SOL    MW434240   4.244   0.518   4.318  0.2982 -0.1727 -0.0677
 8619SOL     OW34241   1.561   5.859   2.535 -0.1275 -0.1014  0.1124
 8619SOL    HW234242   1.512   5.938   2.558  0.8754  0.9622 -1.2516
 8619SOL    HW334243   1.495   5.799   2.502 -0.6857  0.8536 -0.5588
 8619SOL    MW434244   1.546   5.862   2.534 -0.0688  0.1650 -0.1562
 8620SOL     OW34245   5.330   2.301   5.703  0.0262  0.2107 -0.0299
 8620SOL    HW234246   5.240   2.280   5.678 -0.3286 -0.2665  1.5330
 8620SOL    HW334247   5.320   2.356   5.781  1.0843 -0.1874  0.3952
 8620SOL    MW434248   5.317   2.305   5.710  0.1190  0.0952  0.2324
 8621SOL     OW34249   4.119   4.394   4.470 -0.2679 -0.3725 -0.0430
 8621SOL    HW234250   4.177   4.464   4.439 -1.7312  0.2885 -1.4384
 8621SOL    HW334251   4.033   4.417   4.435 -0.8122 -2.8523 -0.5115
 8621SOL    MW434252   4.115   4.406   4.461 -0.5328 -0.6124 -0.2889
 8622SOL     OW34253   0.043   2.836   1.616 -0.0075 -0.0655 -0.2586
 8622SOL    HW234254   0.024   2.827   1.709 -0.2328  0.8499 -0.2067
 8622SOL    HW334255   0.065   2.747   1.587 -0.6946 -0.4925  0.4927
 8622SOL    MW434256   0.043   2.823   1.624 -0.1279 -0.0011 -0.1526
 8623SOL     OW34257   5.249   1.336   2.374 -0.4863  0.3140  0.3219
 8623SOL    HW234258   5.311   1.264   2.384 -0.7977 -0.1123 -0.7405
 8623SOL    HW334259   5.230   1.364   2.464  1.2649  0.4930  0.6662
 8623SOL    MW434260   5.255   1.330   2.387 -0.2963  0.2814  0.2272
 8624SOL     OW34261   3.759   2.710   2.160  0.1136  0.3558  0.6543
 8624SOL    HW234262   3.665   2.703   2.144  0.0428 -0.2116  1.2506
 8624SOL    HW334263   3.777   2.643   2.227  0.9416  0.4433  0.5334
 8624SOL    MW434264   3.749   2.700   2.167  0.2135  0.2925  0.7170
 8625SOL     OW34265   0.778   4.343   2.040  0.1127  0.3246 -0.0940
 8625SOL    HW234266   0.807   4.330   2.131  1.4731  3.7689  0.0979
 8625SOL    HW334267   0.813   4.428   2.015 -1.1480 -0.0005 -3.5465
 8625SOL    MW434268   0.787   4.352   2.049  0.1259  0.7361 -0.5242
 8626SOL     OW34269   6.332   5.010   3.141  0.5920 -0.0962  0.0090
 8626SOL    HW234270   6.285   5.094   3.141  0.8515  0.0557  0.3682
 8626SOL    HW334271   6.381   5.011   3.223  1.9278  0.1558 -0.7524
 8626SOL    MW434272   6.332   5.021   3.152  0.8024 -0.0429 -0.0441
 8627SOL     OW34273   2.318   5.891   4.486  0.2257 -0.2379  0.1983
 8627SOL    HW234274   2.316   5.797   4.502 -1.6135 -0.5902 -1.6928
 8627SOL    HW334275   2.230   5.921   4.509  0.9407  1.1455  1.2590
 8627SOL    MW434276   2.306   5.883   4.491  0.0774 -0.1019  0.0888
 8628SOL     OW34277   2.608   4.616   4.952 -0.2304  0.1738 -0.2031
 8628SOL    HW234278   2.597   4.568   5.034  0.4281  0.3705  0.0107
 8628SOL    HW334279   2.661   4.693   4.976 -0.5904  0.5804 -0.6882
 8628SOL    MW434280   2.614   4.620   4.966 -0.1910  0.2534 -0.2389
 8629SOL     OW34281   0.442   2.545   2.378  0.6542 -0.0969 -0.2056
 8629SOL    HW234282   0.479   2.614   2.323  0.7422  0.4247  0.4973
 8629SOL    HW334283   0.352   2.535   2.348  0.6560  0.2948 -0.3421
 8629SOL    MW434284   0.435   2.553   2.367  0.6660  0.0236 -0.1309
 8630SOL     OW34285   2.036   4.052   2.746 -0.5585  0.0101  0.6038
 8630SOL    HW234286   2.071   4.139   2.765  0.4359 -0.3194  0.3790
 8630SOL    HW334287   1.992   4.062   2.662 -3.2449  1.0044  2.0056
 8630SOL    MW434288   2.035   4.065   2.737 -0.7818  0.0978  0.7591
 8631SOL     OW34289   4.448   6.218   1.619 -0.4812 -0.3707 -0.7427
 8631SOL    HW234290   4.532   6.263   1.621 -0.3237 -0.6064  1.5076
 8631SOL    HW334291   4.416   6.224   1.709 -1.6891 -2.4486 -0.9597
 8631SOL    MW434292   4.455   6.225   1.631 -0.6198 -0.6759 -0.4745
 8632SOL     OW34293   0.743   4.289   0.815  0.6414  0.0722  0.8536
 8632SOL    HW234294   0.690   4.281   0.894  0.6310  0.4789  0.8917
 8632SOL    HW334295   0.725   4.377   0.783 -1.3504 -0.9250 -1.0419
 8632SOL    MW434296   0.734   4.300   0.821  0.3772 -0.0057  0.6085
 8633SOL     OW34297   1.600   1.903   0.519  0.0075 -0.1486  0.0973
 8633SOL    HW234298   1.579   1.996   0.504  2.1142  0.7033  1.8783
 8633SOL    HW334299   1.520   1.857   0.494 -2.6993  2.4933  2.8355
 8633SOL    MW434300   1.586   1.909   0.514 -0.0717  0.3124  0.6936
 8634SOL     OW34301   5.600   3.525   4.625  0.1183 -0.1326 -0.7167
 8634SOL    HW234302   5.659   3.458   4.590 -0.1383 -1.5631  1.3946
 8634SOL    HW334303   5.594   3.590   4.555  4.9619  0.6453 -0.7276
 8634SOL    MW434304   5.607   3.524   4.611  0.7235 -0.2187 -0.4396
 8635SOL     OW34305   0.658   4.992   5.519  0.0370 -0.7051  0.2745
 8635SOL    HW234306   0.574   4.946   5.513  0.6369 -1.8929  0.5962
 8635SOL    HW334307   0.634   5.085   5.528 -1.2844 -1.1224  1.6699
 8635SOL    MW434308   0.643   4.998   5.520 -0.0582 -0.9169  0.5010
 8636SOL     OW34309   4.942   0.826   4.519 -0.0353  0.1200 -0.5314
 8636SOL    HW234310   4.871   0.763   4.504 -0.4742  0.6956 -0.9124
 8636SOL    HW334311   4.982   0.838   4.433  0.6365 -0.3203 -0.2885
 8636SOL    MW434312   4.938   0.819   4.506 -0.0046  0.1378 -0.5496
 8637SOL     OW34313   3.141   0.488   5.349  0.0043 -0.0993 -0.4680
 8637SOL    HW234314   3.141   0.538   5.431 -0.6047  1.5048 -1.4085
 8637SOL    HW334315   3.049   0.490   5.321  0.4498  0.7060 -1.9564
 8637SOL    MW434316   3.129   0.495   5.356 -0.0172  0.2186 -0.7885
 8638SOL     OW34317   5.555   0.405   5.482  0.4471 -0.0314  0.3454
 8638SOL    HW234318   5.512   0.480   5.522  0.2568 -0.0527  0.1849
 8638SOL    HW334319   5.498   0.331   5.504  0.9771 -0.2403  1.0651
 8638SOL    MW434320   5.542   0.405   5.490  0.4920 -0.0618  0.4192
 8639SOL     OW34321   2.634   3.692   5.184  0.3111  0.2081  0.0756
 8639SOL    HW234322   2.559   3.636   5.164  0.7685 -0.4568  0.1831
 8639SOL    HW334323   2.596   3.770   5.225 -0.4480  0.5718 -1.2672
 8639SOL    MW434324   2.619   3.695   5.187  0.2713  0.1683 -0.0874
 8640SOL     OW34325   2.089   6.429   1.878 -0.3035  0.1421  0.4198
 8640SOL    HW234326   1.997   6.449   1.895 -0.1521  0.8785  0.4361
 8640SOL    HW334327   2.106   6.467   1.792 -0.1253 -0.3724  0.2275
 8640SOL    MW434328   2.079   6.437   1.869 -0.2600  0.1714  0.3966
 8641SOL     OW34329   0.068   0.828   3.697  0.6883  0.8485 -0.3904
 8641SOL    HW234330   0.010   0.808   3.770 -0.6845 -0.4294 -1.7664
 8641SOL    HW334331   0.142   0.873   3.737 -0.6643  1.4399  1.5823
 8641SOL    MW434332   0.070   0.831   3.712  0.3287  0.7579 -0.3117
 8642SOL     OW34333   5.505   5.457   1.728 -0.3075  0.4501  0.4438
 8642SOL    HW234334   5.480   5.549   1.722 -1.2607  0.2330  0.9216
 8642SOL    HW334335   5.475   5.418   1.645 -1.6845  0.1787  1.0352
 8642SOL    MW434336   5.498   5.464   1.716 -0.6149  0.3857  0.5848
 8643SOL     OW34337   3.798   3.665   2.849 -0.0713 -0.4726  0.0527
 8643SOL    HW234338   3.878   3.621   2.877  1.9819  1.5873 -2.0896
 8643SOL    HW334339   3.727   3.611   2.884  2.2096 -2.7623  1.5092
 8643SOL    MW434340   3.799   3.652   2.858  0.5006 -0.5029 -0.0378
 8644SOL     OW34341   2.965   5.514   5.144  0.9972 -0.1095 -0.1202
 8644SOL    HW234342   2.994   5.525   5.234  0.2224 -2.2931  0.4627
 8644SOL    HW334343   2.934   5.423   5.139 -2.0233  0.8477 -1.6957
 8644SOL    MW434344   2.965   5.503   5.155  0.4965 -0.2713 -0.2512
 8645SOL     OW34345   4.415   0.118   1.639 -0.0172  0.3042 -0.3576
 8645SOL    HW234346   4.438   0.033   1.677  1.5349  0.7069 -0.3585
 8645SOL    HW334347   4.400   0.100   1.547  0.7773  0.1154 -0.4480
 8645SOL    MW434348   4.416   0.105   1.632  0.2924  0.3324 -0.3696
 8646SOL     OW34349   3.443   5.250   0.678 -0.3360  0.9426  0.0613
 8646SOL    HW234350   3.388   5.311   0.629 -0.2253 -0.5013 -1.9818
 8646SOL    HW334351   3.532   5.284   0.669 -0.0502 -0.3255 -2.4879
 8646SOL    MW434352   3.447   5.263   0.671 -0.2837  0.5848 -0.5446
 8647SOL     OW34353   4.347   2.940   1.684 -0.3206 -0.0943  0.0863
 8647SOL    HW234354   4.289   2.871   1.652 -0.2356  0.2807 -0.9188
 8647SOL    HW334355   4.343   2.932   1.779 -0.5010 -1.3218  0.0001
 8647SOL    MW434356   4.338   2.930   1.692 -0.3332 -0.2068 -0.0577
 8648SOL     OW34357   2.043   0.762   0.717  0.2810 -0.1439 -0.0119
 8648SOL    HW234358   2.109   0.784   0.651 -0.8999 -1.0192 -1.5548
 8648SOL    HW334359   2.090   0.708   0.780  1.1542 -0.4017 -0.8417
 8648SOL    MW434360   2.058   0.758   0.716  0.2404 -0.2934 -0.3250
 8649SOL     OW34361   3.251   2.134   3.496  0.0197  0.5396  0.1186
 8649SOL    HW234362   3.246   2.229   3.504 -0.1270  0.7051 -1.5213
 8649SOL    HW334363   3.344   2.116   3.482  0.3706  0.1998  2.4659
 8649SOL    MW434364   3.262   2.144   3.495  0.0467  0.5166  0.2119
 8650SOL     OW34365   3.929   6.205   0.784  0.2452 -0.0641 -0.0427
 8650SOL    HW234366   3.897   6.118   0.808  0.2526 -0.0070  0.1792
 8650SOL    HW334367   3.876   6.230   0.709  0.1926 -0.2304 -0.0621
 8650SOL    MW434368   3.918   6.197   0.778  0.2392 -0.0785 -0.0160
 8651SOL     OW34369   1.451   6.000   1.255  0.6254  0.1132 -0.0017
 8651SOL    HW234370   1.514   6.069   1.278  1.4967 -0.6019 -0.2120
 8651SOL    HW334371   1.485   5.961   1.175 -1.5351  1.5096 -1.7445
 8651SOL    MW434372   1.463   6.004   1.248  0.4553  0.2031 -0.2594
 8652SOL     OW34373   4.256   6.344   5.988  0.5521  0.2050 -0.6687
 8652SOL    HW234374   4.337   6.292   5.984  0.4383 -0.0538  0.2571
 8652SOL    HW334375   4.187   6.279   5.998  0.5079  0.5575  1.7878
 8652SOL    MW434376   4.258   6.328   5.989  0.5313  0.2174 -0.2225
 8653SOL     OW34377   1.086   4.312   4.900 -0.1093 -0.5046  0.1711
 8653SOL    HW234378   1.009   4.349   4.942  1.3048  0.9709  1.5895
 8653SOL    HW334379   1.112   4.240   4.958 -0.8259 -1.5186 -0.7236
 8653SOL    MW434380   1.079   4.307   4.914 -0.0173 -0.4437  0.2402
 8654SOL     OW34381   3.110   1.164   1.467 -0.3307 -0.1386 -0.3683
 8654SOL    HW234382   3.019   1.187   1.485 -0.6917 -1.3184 -0.5891
 8654SOL    HW334383   3.154   1.248   1.455 -1.2793  0.4722  0.2381
 8654SOL    MW434384   3.104   1.178   1.468 -0.5035 -0.2136 -0.3174
 8655SOL     OW34385   1.978   3.584   4.183  0.1756  0.0939 -0.0633
 8655SOL    HW234386   1.964   3.632   4.265 -0.5939  1.2226 -0.8350
 8655SOL    HW334387   2.072   3.562   4.184  0.5807  1.7326  0.2591
 8655SOL    MW434388   1.989   3.587   4.194  0.1275  0.4590 -0.1225
 8656SOL     OW34389   5.643   5.345   3.397  0.1910 -0.5847  0.6944
 8656SOL    HW234390   5.660   5.404   3.323  1.0972 -0.3708  1.0536
 8656SOL    HW334391   5.646   5.257   3.359 -0.6640 -0.4293  0.2453
 8656SOL    MW434392   5.646   5.341   3.382  0.1977 -0.5360  0.6825
 8657SOL     OW34393   1.996   5.266   5.047 -0.6784  0.6872  0.1393
 8657SOL    HW234394   2.015   5.173   5.050 -2.8876  0.1052 -1.1922
 8657SOL    HW334395   2.079   5.307   5.022  0.1040 -1.0168 -0.1638
 8657SOL    MW434396   2.010   5.259   5.044 -0.8666  0.3856 -0.0764
 8658SOL     OW34397   5.238   3.669   4.510 -0.3903  0.2474 -0.1425
 8658SOL    HW234398   5.308   3.634   4.454 -0.0234  0.4603  0.1841
 8658SOL    HW334399   5.283   3.724   4.574 -0.9549  1.2312 -0.5732
 8658SOL    MW434400   5.253   3.671   4.511 -0.4164  0.4053 -0.1562
 8659SOL     OW34401   6.263   3.064   2.970 -0.2418  0.1094 -0.1149
 8659SOL    HW234402   6.237   3.153   2.992 -0.7708  0.3447 -1.5436
 8659SOL    HW334403   6.309   3.072   2.886 -3.6709 -1.3075 -2.3584
 8659SOL    MW434404   6.266   3.076   2.962 -0.7640 -0.0465 -0.5994
 8660SOL     OW34405   0.390   4.089   5.603 -0.2906  0.1095  0.0128
 8660SOL    HW234406   0.381   4.167   5.547 -0.9164 -0.2133 -0.3486
 8660SOL    HW334407   0.348   4.113   5.685  0.6724  0.6024  0.3758
 8660SOL    MW434408   0.384   4.102   5.606 -0.2461  0.1319  0.0130
 8661SOL     OW34409   1.719   5.303   5.522  0.0430 -0.0486  0.4423
 8661SOL    HW234410   1.763   5.238   5.576 -1.2715 -1.6327 -0.2901
 8661SOL    HW334411   1.719   5.265   5.434 -1.3973  0.6104  0.1276
 8661SOL    MW434412   1.725   5.290   5.517 -0.3204 -0.1706  0.3042
 8662SOL     OW34413   5.312   0.999   6.202  0.4065 -0.2996  0.4158
 8662SOL    HW234414   5.305   0.974   6.110  0.5869  0.5380  0.1665
 8662SOL    HW334415   5.253   0.939   6.247 -1.7186  0.9441 -0.5712
 8662SOL    MW434416   5.303   0.987   6.196  0.1499 -0.0250  0.2527
 8663SOL     OW34417   3.984   2.937   1.685 -0.2523 -0.6329  0.2343
 8663SOL    HW234418   4.014   3.006   1.744 -0.4348 -1.9304  1.9365
 8663SOL    HW334419   4.015   2.856   1.726 -0.1858 -1.5792 -1.6075
 8663SOL    MW434420   3.992   2.935   1.698 -0.2676 -0.9289  0.2159
 8664SOL     OW34421   0.608   0.508   0.664  0.1009 -0.4858 -0.1576
 8664SOL    HW234422   0.586   0.571   0.733 -0.1153  0.7156 -1.2705
 8664SOL    HW334423   0.698   0.529   0.641 -0.6319  0.9051 -1.9909
 8664SOL    MW434424   0.617   0.519   0.670 -0.0243 -0.1437 -0.5463
 8665SOL     OW34425   0.293   0.980   2.417  0.2752 -0.4411  0.0633
 8665SOL    HW234426   0.305   0.974   2.322 -0.0208 -0.9505  0.0544
 8665SOL    HW334427   0.314   1.071   2.438 -1.3931  0.1739 -0.7430
 8665SOL    MW434428   0.297   0.992   2.407  0.0160 -0.4272 -0.0442
 8666SOL     OW34429   3.707   2.213   5.870 -0.7649 -0.5737 -0.1189
 8666SOL    HW234430   3.725   2.197   5.962 -2.1996 -0.0130  0.2881
 8666SOL    HW334431   3.793   2.215   5.828 -0.1335 -1.5595  1.0698
 8666SOL    MW434432   3.721   2.211   5.876 -0.8709 -0.6298  0.0916
 8667SOL     OW34433   3.584   5.235   5.682 -0.2426  0.5174 -0.2087
 8667SOL    HW234434   3.495   5.229   5.719  0.4898 -0.4957  1.4802
 8667SOL    HW334435   3.620   5.316   5.720 -0.6171  1.2585 -1.3726
 8667SOL    MW434436   3.577   5.245   5.692 -0.1954  0.4815 -0.1395
 8668SOL     OW34437   6.156   3.400   1.530  0.0743  0.2194  0.0274
 8668SOL    HW234438   6.217   3.472   1.514 -0.2550  0.1597 -1.6006
 8668SOL    HW334439   6.103   3.431   1.603  1.4797  0.6194  0.9287
 8668SOL    MW434440   6.157   3.414   1.538  0.2163  0.2643 -0.0685
 8669SOL     OW34441   1.542   4.367   6.343 -0.3226  0.2129  0.1995
 8669SOL    HW234442   1.600   4.428   6.297 -0.7088  0.9545  0.6682
 8669SOL    HW334443   1.601   4.317   6.400 -0.1477  1.1388  0.8623
 8669SOL    MW434444   1.558   4.369   6.345 -0.3505  0.4329  0.3488
 8670SOL     OW34445   0.823   3.067   1.621 -0.3736  0.1632 -0.1132
 8670SOL    HW234446   0.796   3.014   1.696  1.9969 -1.8040 -0.5031
 8670SOL    HW334447   0.880   3.134   1.658 -1.6214  1.1066  0.1401
 8670SOL    MW434448   0.827   3.069   1.636 -0.2254  0.0281 -0.1312
 8671SOL     OW34449   0.945   4.796   4.741 -0.3566 -0.3159  0.2101
 8671SOL    HW234450   1.025   4.817   4.790 -1.0906 -0.0382  1.3246
 8671SOL    HW334451   0.903   4.727   4.793 -0.9803 -0.2622 -0.2217
 8671SOL    MW434452   0.950   4.789   4.754 -0.5357 -0.2722  0.3002
 8672SOL     OW34453   2.596   0.131   3.337 -0.3185 -0.1522 -0.1333
 8672SOL    HW234454   2.518   0.178   3.308  0.0518 -0.2265 -1.2770
 8672SOL    HW334455   2.657   0.200   3.363 -0.5363 -0.0778  0.1941
 8672SOL    MW434456   2.593   0.146   3.337 -0.2984 -0.1522 -0.2410
 8673SOL     OW34457   1.509   1.887   3.373  0.4398 -0.1407 -0.2619
 8673SOL    HW234458   1.426   1.906   3.330  0.1979 -0.9007 -0.1326
 8673SOL    HW334459   1.500   1.926   3.460  0.2663 -0.1230 -0.2866
 8673SOL    MW434460   1.497   1.895   3.379  0.3850 -0.2387 -0.2481
 8674SOL     OW34461   6.201   5.984   3.305  0.2095  0.1181 -0.1432
 8674SOL    HW234462   6.113   5.970   3.339  0.5325  1.2244  1.2539
 8674SOL    HW334463   6.193   5.971   3.210 -1.1999 -0.8890  0.0941
 8674SOL    MW434464   6.188   5.981   3.297  0.0661  0.1312  0.0725
 8675SOL     OW34465   6.073   2.468   3.871  0.3342  0.8405  0.4213
 8675SOL    HW234466   6.168   2.476   3.860  0.3492 -0.6604 -0.8291
 8675SOL    HW334467   6.062   2.435   3.960  0.8582  2.5584  1.1721
 8675SOL    MW434468   6.084   2.465   3.881  0.4053  0.8692  0.3554
 8676SOL     OW34469   2.903   5.991   1.124  0.2778  0.5361  0.3144
 8676SOL    HW234470   2.863   6.040   1.052  0.9404  0.0465 -0.3879
 8676SOL    HW334471   2.978   5.947   1.085  0.3026 -0.2074  1.1773
 8676SOL    MW434472   2.908   5.992   1.110  0.3685  0.3734  0.3356
 8677SOL     OW34473   4.023   3.539   1.617  0.1829 -0.1132  0.2500
 8677SOL    HW234474   4.102   3.576   1.579 -0.0209 -0.1351 -0.2025
 8677SOL    HW334475   4.026   3.446   1.594  0.1790 -0.1754  0.4959
 8677SOL    MW434476   4.034   3.532   1.609  0.1555 -0.1243  0.2227
 8678SOL     OW34477   2.683   3.084   6.172  0.1459 -0.1199  0.3543
 8678SOL    HW234478   2.644   3.138   6.240  0.1829 -0.3217  0.5353
 8678SOL    HW334479   2.663   3.130   6.090  1.2213  0.8279  0.5941
 8678SOL    MW434480   2.675   3.097   6.170  0.2927 -0.0215  0.4098
 8679SOL     OW34481   5.114   5.324   5.639 -0.3233 -0.2222 -0.3751
 8679SOL    HW234482   5.160   5.246   5.606  0.4738  0.4968 -0.9856
 8679SOL    HW334483   5.084   5.298   5.727  1.4740 -0.6441  0.1517
 8679SOL    MW434484   5.116   5.310   5.646  0.0190 -0.1830 -0.3861
 8680SOL     OW34485   2.709   5.564   3.027  0.3914 -0.6738 -0.1689
 8680SOL    HW234486   2.711   5.512   3.107  2.0954 -2.4503 -1.2705
 8680SOL    HW334487   2.784   5.624   3.036 -1.1450  1.1992  0.7831
 8680SOL    MW434488   2.719   5.565   3.039  0.4135 -0.6611 -0.1886
 8681SOL     OW34489   0.630   2.359   3.215 -0.6754 -0.1447 -0.0087
 8681SOL    HW234490   0.654   2.298   3.285 -0.3821  0.3316  0.3193
 8681SOL    HW334491   0.685   2.335   3.141 -1.0410 -0.7017 -0.0992
 8681SOL    MW434492   0.640   2.348   3.215 -0.6849 -0.1554  0.0226
 8682SOL     OW34493   0.602   2.113   5.208 -0.0743 -0.0482  0.0464
 8682SOL    HW234494   0.557   2.139   5.289  1.4386 -0.7937  1.1660
 8682SOL    HW334495   0.576   2.022   5.194 -1.0580  0.3506 -0.8476
 8682SOL    MW434496   0.592   2.105   5.217 -0.0045 -0.0939  0.0761
 8683SOL     OW34497   2.967   3.205   3.890 -0.1412  0.3643 -0.3095
 8683SOL    HW234498   2.979   3.261   3.967  1.7271  0.3467 -0.5620
 8683SOL    HW334499   3.020   3.127   3.908 -1.4116 -0.6237 -0.6843
 8683SOL    MW434500   2.975   3.202   3.902 -0.0623  0.2316 -0.3923
 8684SOL     OW34501   3.256   2.571   6.085 -0.3102  0.4401 -0.7130
 8684SOL    HW234502   3.212   2.654   6.070 -0.6578  0.2459 -0.7772
 8684SOL    HW334503   3.202   2.526   6.150  0.1764  0.4941 -0.2581
 8684SOL    MW434504   3.243   2.576   6.092 -0.2919  0.4216 -0.6614
 8685SOL     OW34505   4.495   2.094   3.682 -0.3824 -0.1271 -0.1164
 8685SOL    HW234506   4.495   1.999   3.674  0.1747 -0.0787 -0.7569
 8685SOL    HW334507   4.585   2.116   3.707 -0.4911  0.2384 -0.0408
 8685SOL    MW434508   4.507   2.084   3.685 -0.3232 -0.0725 -0.1909
 8686SOL     OW34509   0.722   2.127   2.676 -0.0291  0.9794 -0.3257
 8686SOL    HW234510   0.711   2.033   2.690  1.3874  0.8149 -0.1561
 8686SOL    HW334511   0.713   2.165   2.764 -0.8440  1.0495 -0.4276
 8686SOL    MW434512   0.719   2.120   2.690  0.0503  0.9669 -0.3168
 8687SOL     OW34513   5.428   5.611   2.338  0.2866  0.5433  0.6695
 8687SOL    HW234514   5.375   5.545   2.294  0.2628  2.8682 -3.2855
 8687SOL    HW334515   5.510   5.566   2.360 -0.6448 -1.3729  0.3904
 8687SOL    MW434516   5.432   5.597   2.335  0.1606  0.5972  0.1109
 8688SOL     OW34517   5.329   4.044   5.205 -0.3106  0.1596 -0.7068
 8688SOL    HW234518   5.317   4.088   5.289  2.2442 -0.8036  0.2411
 8688SOL    HW334519   5.370   4.109   5.149  0.3481  0.0456 -0.3686
 8688SOL    MW434520   5.333   4.058   5.209  0.1134  0.0174 -0.5371
 8689SOL     OW34521   5.327   1.856   1.322 -0.0325  0.1163 -0.1108
 8689SOL    HW234522   5.406   1.907   1.342  0.2866 -0.6776  0.7110
 8689SOL    HW334523   5.360   1.768   1.305 -0.5970  0.1294 -1.3313
 8689SOL    MW434524   5.342   1.851   1.322 -0.0649  0.0133 -0.1634
 8690SOL     OW34525   4.151   0.123   3.544  0.0640  0.3560 -0.3088
 8690SOL    HW234526   4.227   0.161   3.501  0.9762  0.0995  1.0107
 8690SOL    HW334527   4.183   0.095   3.630 -2.0349  2.4160  1.2691
 8690SOL    MW434528   4.165   0.124   3.550 -0.0926  0.5940  0.0734
 8691SOL     OW34529   0.738   4.356   4.585 -0.5994 -0.4112 -0.3881
 8691SOL    HW234530   0.820   4.316   4.557 -0.7395 -0.7153 -0.3737
 8691SOL    HW334531   0.746   4.448   4.560 -1.0954 -0.8490 -2.3563
 8691SOL    MW434532   0.750   4.363   4.578 -0.6833 -0.5091 -0.6459
 8692SOL     OW34533   4.000   1.203   5.383 -0.1450 -0.3638 -0.3046
 8692SOL    HW234534   3.958   1.119   5.400  0.4490 -0.5799  0.1299
 8692SOL    HW334535   4.044   1.225   5.465  0.4452 -0.0559 -0.6995
 8692SOL    MW434536   4.000   1.195   5.396  0.0112 -0.3517 -0.2994
 8693SOL     OW34537   2.384   0.333   0.518  0.2173 -0.7814  0.3978
 8693SOL    HW234538   2.474   0.364   0.521 -0.0276  0.5997 -2.8172
 8693SOL    HW334539   2.334   0.400   0.564  0.5727 -0.3500  0.1639
 8693SOL    MW434540   2.389   0.346   0.525  0.2319 -0.5422 -0.0572
 8694SOL     OW34541   5.355   3.679   3.157  0.8447 -0.2625 -0.7731
 8694SOL    HW234542   5.305   3.616   3.105 -1.5167 -0.3230  1.3599
 8694SOL    HW334543   5.309   3.762   3.147 -0.8899 -0.6490  2.4728
 8694SOL    MW434544   5.342   3.682   3.149  0.3043 -0.3215 -0.0634
 8695SOL     OW34545   1.600   2.511   5.172 -0.1948 -0.6278  0.5171
 8695SOL    HW234546   1.567   2.532   5.085  0.0861  0.3203  0.6274
 8695SOL    HW334547   1.590   2.593   5.222  0.5320 -0.8850  1.0986
 8695SOL    MW434548   1.594   2.525   5.167 -0.0618 -0.5367  0.6084
 8696SOL     OW34549   3.249   5.144   1.639  0.0800  0.4028  0.1696
 8696SOL    HW234550   3.200   5.173   1.715 -1.1759  0.8739 -0.7877
 8696SOL    HW334551   3.201   5.067   1.607  1.6774 -0.9899  0.9292
 8696SOL    MW434552   3.237   5.138   1.645  0.1251  0.2812  0.1436
 8697SOL     OW34553   2.866   1.226   5.500 -0.0399 -0.4001 -0.0398
 8697SOL    HW234554   2.885   1.163   5.431  0.3540 -2.8099  2.1526
 8697SOL    HW334555   2.777   1.257   5.479  0.0785 -1.0322 -1.6260
 8697SOL    MW434556   2.857   1.222   5.488  0.0277 -0.8015  0.0402
 8698SOL     OW34557   6.062   0.927   4.525  0.7907 -0.0611  0.2802
 8698SOL    HW234558   6.070   1.018   4.496  0.2711 -0.2863 -0.5958
 8698SOL    HW334559   6.148   0.905   4.560  1.0127  0.6605  0.2019
 8698SOL    MW434560   6.074   0.936   4.526  0.7514  0.0044  0.1543
 8699SOL     OW34561   0.696   6.118   0.769 -0.1187  0.0191  0.7194
 8699SOL    HW234562   0.766   6.131   0.833 -0.5863 -2.2874  1.7977
 8699SOL    HW334563   0.617   6.151   0.812 -0.0643  0.6607  0.3459
 8699SOL    MW434564   0.695   6.124   0.783 -0.1732 -0.2006  0.8124
 8700SOL     OW34565   2.687   4.678   0.283  0.0698 -0.5175  0.3941
 8700SOL    HW234566   2.613   4.653   0.227  1.7850 -1.7569 -1.4626
 8700SOL    HW334567   2.686   4.773   0.283  1.0202 -0.3624 -3.3757
 8700SOL    MW434568   2.677   4.687   0.276  0.4215 -0.6606 -0.3482
 8701SOL     OW34569   3.685   2.223   5.329  0.2630  0.0162 -0.2175
 8701SOL    HW234570   3.626   2.277   5.382  0.9260 -0.1985  0.7607
 8701SOL    HW334571   3.742   2.286   5.285  0.9285  0.1405  0.7941
 8701SOL    MW434572   3.685   2.238   5.330  0.4383  0.0043  0.0450
 8702SOL     OW34573   5.291   5.105   1.628 -0.6181 -0.3330  0.4300
 8702SOL    HW234574   5.208   5.092   1.674 -0.8593 -0.4728 -0.0416
 8702SOL    HW334575   5.358   5.081   1.692 -0.9462 -0.2856  0.7898
 8702SOL    MW434576   5.289   5.100   1.642 -0.6932 -0.3452  0.4153
 8703SOL     OW34577   4.727   6.334   3.583 -0.7465 -0.2919 -0.0664
 8703SOL    HW234578   4.706   6.264   3.644  0.3830 -0.4559  0.1429
 8703SOL    HW334579   4.706   6.415   3.631  0.4743 -0.4066  0.6801
 8703SOL    MW434580   4.721   6.336   3.597 -0.4364 -0.3287  0.0597
 8704SOL     OW34581   4.893   1.425   3.895  0.2151  0.2242 -0.7023
 8704SOL    HW234582   4.942   1.505   3.877  0.8923 -0.3253 -1.3925
 8704SOL    HW334583   4.950   1.374   3.953 -0.6988  0.7128  0.6571
 8704SOL    MW434584   4.907   1.429   3.900  0.1838  0.2162 -0.6140
 8705SOL     OW34585   1.095   0.414   3.297  0.2044  0.0218 -0.3841
 8705SOL    HW234586   1.176   0.431   3.346  0.1877 -0.5037 -0.1720
 8705SOL    HW334587   1.084   0.492   3.242  1.7994 -0.6046 -1.7027
 8705SOL    MW434588   1.104   0.426   3.296  0.4126 -0.1302 -0.5301
 8706SOL     OW34589   3.981   3.251   0.835 -0.2342  0.7244  0.6616
 8706SOL    HW234590   4.017   3.183   0.891  0.3449  0.5304  0.0817
 8706SOL    HW334591   4.049   3.319   0.834 -0.5727  1.0633  0.8119
 8706SOL    MW434592   3.995   3.251   0.842 -0.2024  0.7435  0.6049
 8707SOL     OW34593   4.555   2.149   2.558 -0.4230 -0.2464  0.2149
 8707SOL    HW234594   4.587   2.062   2.585 -0.7470 -0.7008 -0.8148
 8707SOL    HW334595   4.606   2.170   2.480 -1.2281 -0.0789 -0.2775
 8707SOL    MW434596   4.566   2.140   2.551 -0.5719 -0.2843  0.0141
 8708SOL     OW34597   2.697   4.997   2.526  0.6327 -0.2143 -0.0850
 8708SOL    HW234598   2.685   5.071   2.585  0.7518  1.0318 -1.5812
 8708SOL    HW334599   2.772   5.020   2.472  0.0908 -0.9977 -1.2140
 8708SOL    MW434600   2.705   5.010   2.527  0.5769 -0.1532 -0.4313
 8709SOL     OW34601   2.599   2.028   1.545 -0.9677  0.0663  0.3096
 8709SOL    HW234602   2.671   2.041   1.483 -0.9271 -0.3689  0.2650
 8709SOL    HW334603   2.641   1.993   1.624 -0.6834  2.6632  1.4198
 8709SOL    MW434604   2.614   2.025   1.547 -0.9249  0.3515  0.4502
 8710SOL     OW34605   5.100   5.052   3.800  0.3533 -0.2829  0.2435
 8710SOL    HW234606   5.187   5.037   3.835  1.0558 -1.9263 -2.0109
 8710SOL    HW334607   5.114   5.110   3.725 -0.6067  0.0937  0.3359
 8710SOL    MW434608   5.113   5.058   3.795  0.3194 -0.4500 -0.0417
 8711SOL     OW34609   4.913   0.063   3.789  0.1327  0.0686  0.0189
 8711SOL    HW234610   4.938  -0.029   3.796 -1.1871 -0.2558  0.8611
 8711SOL    HW334611   4.961   0.106   3.859 -0.7177 -0.3534  0.8986
 8711SOL    MW434612   4.922   0.056   3.799 -0.1536 -0.0299  0.2461
 8712SOL     OW34613   0.070   0.419   2.967  0.3730  0.0571 -0.3570
 8712SOL    HW234614  -0.010   0.472   2.963  0.2627 -0.0599  0.2179
 8712SOL    HW334615   0.138   0.475   2.930 -0.0129  0.0813 -1.0480
 8712SOL    MW434616   0.068   0.433   2.961  0.3075  0.0449 -0.3723
 8713SOL     OW34617   1.012   0.759   4.001  0.4958 -0.0303 -0.2374
 8713SOL    HW234618   0.919   0.747   3.978  0.0606 -2.4620  2.3019
 8713SOL    HW334619   1.017   0.849   4.034 -1.8587 -0.8757  2.8692
 8713SOL    MW434620   1.000   0.770   4.002  0.1277 -0.4627  0.5075
 8714SOL     OW34621   5.912   3.888   5.246  0.8473  0.3467  0.0206
 8714SOL    HW234622   5.919   3.977   5.211 -2.6721  1.5693  1.9349
 8714SOL    HW334623   5.904   3.833   5.168  0.7028  2.0076 -1.2036
 8714SOL    MW434624   5.912   3.892   5.231  0.3639  0.7271  0.1117
 8715SOL     OW34625   1.193   4.859   2.976 -0.4928 -0.0832  0.6288
 8715SOL    HW234626   1.169   4.950   2.995  1.0479  0.0682  1.9922
 8715SOL    HW334627   1.166   4.810   3.054  1.2160 -0.3090  1.1174
 8715SOL    MW434628   1.186   4.865   2.989 -0.0640 -0.0930  0.8732
 8716SOL     OW34629   2.802   3.429   0.683 -0.7599 -0.4825 -0.4832
 8716SOL    HW234630   2.720   3.461   0.647 -0.0869 -0.6674 -2.3224
 8716SOL    HW334631   2.851   3.399   0.606  0.7969 -0.8850  0.6208
 8716SOL    MW434632   2.798   3.429   0.668 -0.4657 -0.5600 -0.5802
 8717SOL     OW34633   1.866   5.952   5.395 -0.4407 -0.6265 -0.4650
 8717SOL    HW234634   1.796   5.891   5.419 -0.0769 -0.2455  1.7814
 8717SOL    HW334635   1.944   5.897   5.385  0.1459 -0.5351  2.6853
 8717SOL    MW434636   1.867   5.937   5.397 -0.3153 -0.5642  0.2470
 8718SOL     OW34637   2.226   4.314   3.556 -0.3808 -0.6710 -0.6166
 8718SOL    HW234638   2.297   4.339   3.614 -1.5427 -0.5333  0.7838
 8718SOL    HW334639   2.261   4.240   3.506  0.3631 -1.3645  0.8796
 8718SOL    MW434640   2.240   4.307   3.557 -0.4359 -0.7444 -0.2344
 8719SOL     OW34641   3.803   2.385   4.717  0.5325  0.8301  0.0417
 8719SOL    HW234642   3.739   2.455   4.706  0.9216  0.8614 -2.6175
 8719SOL    HW334643   3.826   2.388   4.810 -0.6773  3.1424  0.3385
 8719SOL    MW434644   3.798   2.395   4.728  0.4242  1.1393 -0.2700
 8720SOL     OW34645   5.990   4.137   4.095  0.0511 -0.0944  0.2033
 8720SOL    HW234646   5.897   4.123   4.108  0.0552  0.8673  1.4716
 8720SOL    HW334647   6.008   4.220   4.139  1.5833 -0.4834  0.3647
 8720SOL    MW434648   5.980   4.146   4.102  0.2538 -0.0188  0.3919
 8721SOL     OW34649   5.912   4.979   6.089  0.4461  0.0904 -0.0029
 8721SOL    HW234650   5.886   5.046   6.153  2.0649 -0.6989  1.5726
 8721SOL    HW334651   5.853   4.905   6.107 -0.4505  0.5717 -0.8444
 8721SOL    MW434652   5.900   4.978   6.100  0.5414  0.0498  0.0939
 8722SOL     OW34653   1.888   2.398   5.241  0.4195  0.5398 -0.3550
 8722SOL    HW234654   1.847   2.469   5.192 -1.6335  0.3966  1.0324
 8722SOL    HW334655   1.847   2.318   5.208  1.4355  0.1453 -0.6903
 8722SOL    MW434656   1.877   2.397   5.230  0.2826  0.4689 -0.2162
 8723SOL     OW34657   3.489   1.748   0.905 -0.4580 -0.2799 -0.0427
 8723SOL    HW234658   3.431   1.823   0.896  0.3801  0.1654 -2.5096
 8723SOL    HW334659   3.550   1.773   0.975 -2.7931 -0.5435  2.2160
 8723SOL    MW434660   3.489   1.761   0.913 -0.6555 -0.2559 -0.0702
 8724SOL     OW34661   4.365   0.034   4.258  0.1273 -0.1535 -0.0196
 8724SOL    HW234662   4.436  -0.015   4.298 -1.7714 -0.8809  2.7662
 8724SOL    HW334663   4.362   0.116   4.307 -0.4061  0.2344 -0.6871
 8724SOL    MW434664   4.374   0.038   4.270 -0.1936 -0.1983  0.2599
 8725SOL     OW34665   5.857   1.518   2.797  0.0490  0.3425 -0.6722
 8725SOL    HW234666   5.809   1.594   2.830  0.7297  0.3706  0.2679
 8725SOL    HW334667   5.789   1.462   2.759 -1.2666 -1.0666  3.2898
 8725SOL    MW434668   5.841   1.521   2.796 -0.0348  0.1603 -0.0254
 8726SOL     OW34669   2.495   0.590   6.426 -0.0736 -0.0660 -0.1607
 8726SOL    HW234670   2.437   0.518   6.451  1.6165 -0.9993  1.3063
 8726SOL    HW334671   2.475   0.660   6.489  0.9612 -0.7272  0.9560
 8726SOL    MW434672   2.485   0.590   6.438  0.2859 -0.2764  0.1802
 8727SOL     OW34673   2.153   2.555   3.856  0.6189 -0.1242 -0.4254
 8727SOL    HW234674   2.100   2.481   3.825  0.9886  0.1239 -1.7362
 8727SOL    HW334675   2.234   2.548   3.807  1.3005  0.2425  0.6265
 8727SOL    MW434676   2.156   2.544   3.845  0.7576 -0.0431 -0.4595
 8728SOL     OW34677   0.893   3.672   3.865  0.0923  0.0383  0.1602
 8728SOL    HW234678   0.971   3.630   3.827  0.1216  0.5895 -0.3975
 8728SOL    HW334679   0.928   3.736   3.927  0.1322  1.1216 -0.9512
 8728SOL    MW434680   0.908   3.675   3.868  0.1014  0.2539 -0.0600
 8729SOL     OW34681   1.606   1.709   1.835 -0.2143  0.0249  0.4671
 8729SOL    HW234682   1.623   1.770   1.763  0.9632 -0.0948  0.6133
 8729SOL    HW334683   1.579   1.628   1.791 -1.9261  0.6708  0.2811
 8729SOL    MW434684   1.605   1.706   1.819 -0.2848  0.0943  0.4619
 8730SOL     OW34685   1.606   6.193   1.425 -0.3656 -0.0617 -0.2313
 8730SOL    HW234686   1.611   6.114   1.479  0.1477  0.9585  1.2833
 8730SOL    HW334687   1.675   6.250   1.459 -1.1574  1.3210 -0.8262
 8730SOL    MW434688   1.616   6.190   1.437 -0.4024  0.2553 -0.1100
 8731SOL     OW34689   2.660   3.919   2.320 -0.4316  0.0966 -0.1554
 8731SOL    HW234690   2.667   3.861   2.243 -1.0590 -2.3769  1.5327
 8731SOL    HW334691   2.581   3.971   2.303 -0.0886  0.2015 -1.5532
 8731SOL    MW434692   2.650   3.918   2.307 -0.4691 -0.2159 -0.1171
 8732SOL     OW34693   4.556   4.928   3.411  0.8821 -0.3752 -0.3983
 8732SOL    HW234694   4.584   4.980   3.336  0.8331 -1.0685 -0.9133
 8732SOL    HW334695   4.484   4.874   3.378  0.0576  0.1559  0.4641
 8732SOL    MW434696   4.550   4.928   3.397  0.7668 -0.3966 -0.3525
 8733SOL     OW34697   0.833   4.404   6.295 -0.2323 -0.3988  0.3109
 8733SOL    HW234698   0.866   4.353   6.221 -0.2780 -1.7070  1.1655
 8733SOL    HW334699   0.747   4.436   6.266  0.4670  0.5224 -0.8077
 8733SOL    MW434700   0.826   4.402   6.281 -0.1460 -0.4498  0.2760
 8734SOL     OW34701   2.798   4.542   4.760 -0.4304  0.1978 -0.4748
 8734SOL    HW234702   2.747   4.572   4.835  0.8989  1.9104 -0.1918
 8734SOL    HW334703   2.886   4.529   4.794 -0.3985 -1.7001 -1.1746
 8734SOL    MW434704   2.803   4.544   4.775 -0.2508  0.1734 -0.5298
 8735SOL     OW34705   5.304   2.884   5.652  0.6073 -0.3623  0.6060
 8735SOL    HW234706   5.315   2.841   5.567 -1.0503 -1.5058  0.9183
 8735SOL    HW334707   5.281   2.974   5.631  1.9141 -0.1665 -0.1013
 8735SOL    MW434708   5.302   2.890   5.638  0.5610 -0.4874  0.5539
 8736SOL     OW34709   5.406   6.167   3.106  0.1673  0.5555 -0.0244
 8736SOL    HW234710   5.494   6.137   3.082 -0.1679 -0.2752 -0.2765
 8736SOL    HW334711   5.369   6.199   3.024  1.7002  4.9940  0.7852
 8736SOL    MW434712   5.413   6.167   3.092  0.3254  1.0315  0.0492
 8737SOL     OW34713   3.813   2.642   4.159 -0.2695  0.1094 -0.2441
 8737SOL    HW234714   3.779   2.720   4.114  3.0038  1.4293 -0.7545
 8737SOL    HW334715   3.908   2.649   4.149  0.2091 -4.3978 -0.9631
 8737SOL    MW434716   3.821   2.653   4.152  0.2255 -0.3111 -0.4063
 8738SOL     OW34717   5.424   2.558   4.652  0.4381  0.2043  0.0505
 8738SOL    HW234718   5.439   2.464   4.642  0.0726  0.0986  0.4938
 8738SOL    HW334719   5.361   2.565   4.723  0.0167  0.7584 -0.3684
 8738SOL    MW434720   5.418   2.546   4.660  0.3343  0.2635  0.0537
 8739SOL     OW34721   4.411   2.642   6.293 -0.4236 -0.4393 -0.4038
 8739SOL    HW234722   4.361   2.566   6.264 -0.9316  0.8358 -3.2434
 8739SOL    HW334723   4.501   2.611   6.298 -0.8447 -1.6206  0.1465
 8739SOL    MW434724   4.416   2.628   6.289 -0.5462 -0.4269 -0.7059
 8740SOL     OW34725   3.449   2.948   0.865  0.9884 -0.0923  0.6783
 8740SOL    HW234726   3.465   3.023   0.921  2.7748 -0.7127  1.0608
 8740SOL    HW334727   3.389   2.893   0.916  1.1715  0.1878  1.2034
 8740SOL    MW434728   3.443   2.950   0.879  1.2482 -0.1372  0.7981
 8741SOL     OW34729   5.552   0.088   4.261 -0.3375 -0.4382 -0.6963
 8741SOL    HW234730   5.561   0.132   4.345 -1.6454 -1.5151  0.0422
 8741SOL    HW334731   5.628   0.117   4.210 -0.2192  1.2267  0.3771
 8741SOL    MW434732   5.563   0.097   4.265 -0.4944 -0.3606 -0.4572
 8742SOL     OW34733   0.568   0.414   2.367  0.5490 -0.1741  0.4945
 8742SOL    HW234734   0.641   0.381   2.420  0.7413  0.9486  0.9679
 8742SOL    HW334735   0.492   0.365   2.396  0.9336 -0.6325  0.7349
 8742SOL    MW434736   0.568   0.403   2.378  0.6251 -0.0864  0.5886
 8743SOL     OW34737   4.734   1.955   4.824  0.2451  0.4148  0.0193
 8743SOL    HW234738   4.796   1.922   4.888  1.6799  1.9112 -0.5319
 8743SOL    HW334739   4.655   1.903   4.837  2.2976 -3.2280 -0.8083
 8743SOL    MW434740   4.732   1.944   4.834  0.7052  0.1316 -0.1626
 8744SOL     OW34741   4.393   1.582   1.594  0.0499 -0.0751  0.0080
 8744SOL    HW234742   4.321   1.599   1.656 -0.8351  0.1391 -1.0413
 8744SOL    HW334743   4.407   1.488   1.600 -0.2162 -0.0982  0.3360
 8744SOL    MW434744   4.385   1.572   1.603 -0.1020 -0.0499 -0.0871
 8745SOL     OW34745   0.729   1.600   4.558 -0.2928  0.0705  0.1610
 8745SOL    HW234746   0.729   1.649   4.476  0.1139  1.2367  0.8368
 8745SOL    HW334747   0.811   1.551   4.556 -0.0192  0.5197  0.1026
 8745SOL    MW434748   0.740   1.600   4.547 -0.2031  0.2837  0.2425
 8746SOL     OW34749   3.637   4.139   4.195 -0.5116  0.6463  0.4106
 8746SOL    HW234750   3.730   4.158   4.201 -0.2811  0.0289 -0.9395
 8746SOL    HW334751   3.603   4.205   4.134  0.1101 -2.3111 -3.4970
 8746SOL    MW434752   3.645   4.150   4.188 -0.3991  0.1747 -0.2831
 8747SOL     OW34753   2.262   4.796   2.691 -0.0196  0.3199  0.0832
 8747SOL    HW234754   2.204   4.860   2.731  1.6215  1.2036  1.1720
 8747SOL    HW334755   2.316   4.847   2.630  1.7603  0.2096  1.4480
 8747SOL    MW434756   2.262   4.811   2.689  0.4318  0.4220  0.4069
 8748SOL     OW34757   6.261   6.176   4.103  0.0004  0.4474  0.2833
 8748SOL    HW234758   6.175   6.152   4.139 -1.6077  4.2673 -0.5727
 8748SOL    HW334759   6.299   6.234   4.169  0.4815  1.3418 -0.7553
 8748SOL    MW434760   6.255   6.180   4.117 -0.1483  1.0694  0.0333
 8749SOL     OW34761   1.920   5.806   2.811  0.4369  0.5183 -0.2368
 8749SOL    HW234762   1.957   5.776   2.894 -0.3902  0.5840  0.1757
 8749SOL    HW334763   1.884   5.892   2.831 -1.2618 -0.1487 -0.1895
 8749SOL    MW434764   1.920   5.813   2.825  0.1037  0.4390 -0.1761
 8750SOL     OW34765   0.604   2.814   6.335  0.1653  0.1604  0.5935
 8750SOL    HW234766   0.667   2.883   6.318 -0.3197  0.5292  0.2456
 8750SOL    HW334767   0.634   2.740   6.281  0.8428  0.0001  1.1860
 8750SOL    MW434768   0.616   2.813   6.325  0.1907  0.1879  0.6257
 8751SOL     OW34769   4.664   2.698   4.631 -0.0196  0.2590 -0.3727
 8751SOL    HW234770   4.718   2.663   4.560 -1.2531  1.0216 -1.7356
 8751SOL    HW334771   4.579   2.657   4.619 -0.1709  0.1675  0.8813
 8751SOL    MW434772   4.660   2.688   4.620 -0.2023  0.3475 -0.3871
 8752SOL     OW34773   0.014   3.054   2.088 -0.8945 -0.3660  0.0620
 8752SOL    HW234774  -0.009   3.131   2.035  1.1360  1.5795  1.8157
 8752SOL    HW334775  -0.049   3.055   2.160 -2.3438 -1.8149 -1.0932
 8752SOL    MW434776   0.003   3.064   2.090 -0.8178 -0.3005  0.1410
 8753SOL     OW34777   1.578   2.394   0.961 -0.2525 -0.1464  0.5005
 8753SOL    HW234778   1.564   2.476   0.915  1.3744  0.2303  0.5973
 8753SOL    HW334779   1.562   2.414   1.053  1.0629  0.3457  0.6457
 8753SOL    MW434780   1.574   2.407   0.967  0.1357 -0.0317  0.5325
 8754SOL     OW34781   0.353   6.118   4.458 -0.0164 -0.1320  0.5254
 8754SOL    HW234782   0.378   6.031   4.426  0.9747  0.4108 -0.2543
 8754SOL    HW334783   0.258   6.115   4.466 -0.2427 -0.6080 -1.6334
 8754SOL    MW434784   0.344   6.106   4.454  0.0845 -0.1232  0.1377
 8755SOL     OW34785   1.111   0.254   6.276  0.2618 -0.7458  0.3304
 8755SOL    HW234786   1.081   0.225   6.362  0.3597 -0.8494  0.3307
 8755SOL    HW334787   1.180   0.318   6.295  2.4981 -3.0000  0.3799
 8755SOL    MW434788   1.116   0.258   6.290  0.5698 -1.0568  0.3370
 8756SOL     OW34789   4.238   0.227   5.615  0.2172 -0.0093 -0.8050
 8756SOL    HW234790   4.155   0.260   5.582  0.1089 -0.4946 -1.0264
 8756SOL    HW334791   4.229   0.228   5.711 -1.1267 -2.7191 -0.8240
 8756SOL    MW434792   4.226   0.232   5.624  0.0256 -0.4309 -0.8367
 8757SOL     OW34793   1.179   1.030   3.417 -0.5953 -0.3293 -0.3317
 8757SOL    HW234794   1.163   0.957   3.357 -0.7728 -1.7246  1.3527
 8757SOL    HW334795   1.116   1.017   3.488 -0.1702  1.0896  0.3311
 8757SOL    MW434796   1.169   1.019   3.418 -0.5626 -0.3262 -0.0220
 8758SOL     OW34797   0.613   1.409   4.745 -0.4236 -0.1505 -0.0064
 8758SOL    HW234798   0.627   1.490   4.697  1.4559 -1.1328 -1.2773
 8758SOL    HW334799   0.690   1.401   4.801 -0.2400 -1.3427 -0.3931
 8758SOL    MW434800   0.625   1.418   4.746 -0.1514 -0.4374 -0.2251
 8759SOL     OW34801   4.284   4.838   1.367 -0.2135  0.1533  0.7868
 8759SOL    HW234802   4.255   4.924   1.396 -0.0480  0.0557  1.2612
 8759SOL    HW334803   4.342   4.807   1.437  1.9623  0.8074 -0.6256
 8759SOL    MW434804   4.288   4.845   1.380  0.0954  0.2267  0.6631
 8760SOL     OW34805   4.770   1.697   0.644  0.6736  0.0472 -0.6485
 8760SOL    HW234806   4.759   1.613   0.690 -0.8566  0.1736 -0.7076
 8760SOL    HW334807   4.839   1.742   0.693  0.1746 -0.4708  0.5904
 8760SOL    MW434808   4.777   1.692   0.657  0.4059 -0.0045 -0.4929
 8761SOL     OW34809   2.383   2.229   4.577 -0.2833  0.1972 -0.0450
 8761SOL    HW234810   2.406   2.288   4.649 -1.5605  0.1880  0.4079
 8761SOL    HW334811   2.377   2.285   4.501 -1.0343  0.5835  0.2913
 8761SOL    MW434812   2.385   2.244   4.577 -0.5509  0.2469  0.0592
 8762SOL     OW34813   5.382   1.353   5.060  0.0312 -0.1484  0.5004
 8762SOL    HW234814   5.464   1.356   5.109 -0.3588  1.3592  1.0956
 8762SOL    HW334815   5.315   1.376   5.124 -0.7028 -0.0260 -0.2988
 8762SOL    MW434816   5.384   1.356   5.075 -0.1171  0.0666  0.4735
 8763SOL     OW34817   1.289   0.756   5.023 -0.5510 -0.5157 -0.1084
 8763SOL    HW234818   1.340   0.738   5.102  2.9569  3.0061 -1.2631
 8763SOL    HW334819   1.334   0.708   4.953  1.0987  2.1098 -1.0247
 8763SOL    MW434820   1.302   0.747   5.024  0.1295  0.2954 -0.3816
 8764SOL     OW34821   5.187   1.897   0.855  0.2307  0.0934 -0.3792
 8764SOL    HW234822   5.094   1.889   0.833  0.6355 -0.0665 -2.2184
 8764SOL    HW334823   5.220   1.808   0.853  0.5237  0.1962 -0.2216
 8764SOL    MW434824   5.179   1.884   0.852  0.3228  0.0858 -0.6010
 8765SOL     OW34825   1.909   0.092   5.634  0.3044 -0.0635  0.5500
 8765SOL    HW234826   1.883   0.026   5.570  0.7236  1.1782 -0.9676
 8765SOL    HW334827   1.945   0.163   5.582 -1.8612  2.2386  1.9149
 8765SOL    MW434828   1.910   0.093   5.619  0.0740  0.4041  0.5299
 8766SOL     OW34829   0.177   2.534   2.293 -0.1642  0.0660 -0.4931
 8766SOL    HW234830   0.132   2.592   2.231 -0.6637 -0.1448 -0.3351
 8766SOL    HW334831   0.119   2.458   2.301 -0.3642  0.3226  0.6313
 8766SOL    MW434832   0.163   2.531   2.286 -0.2565  0.0721 -0.3239
 8767SOL     OW34833   3.678   2.313   3.119 -0.5062  0.2669  0.0350
 8767SOL    HW234834   3.762   2.269   3.133 -0.6936 -0.1081 -0.0163
 8767SOL    HW334835   3.692   2.365   3.039 -0.6993 -0.7633 -0.6920
 8767SOL    MW434836   3.691   2.314   3.110 -0.5564  0.0815 -0.0677
 8768SOL     OW34837   5.373   6.260   1.615  0.2470 -0.4714 -0.2152
 8768SOL    HW234838   5.359   6.354   1.632  2.0401 -0.2082  0.0137
 8768SOL    HW334839   5.405   6.226   1.699  0.9768 -0.9769 -0.6921
 8768SOL    MW434840   5.376   6.268   1.628  0.5799 -0.5034 -0.2479
 8769SOL     OW34841   3.643   3.963   6.321 -0.1274 -0.0725 -0.2447
 8769SOL    HW234842   3.656   3.926   6.408  1.8270  0.1396 -0.4070
 8769SOL    HW334843   3.566   4.020   6.331  0.7161  0.8466  1.6642
 8769SOL    MW434844   3.635   3.966   6.334  0.2417  0.0768 -0.0143
 8770SOL     OW34845   2.094   5.090   2.041 -0.2140 -0.3274  0.2115
 8770SOL    HW234846   2.149   5.021   2.002  0.2709  0.4360 -0.4935
 8770SOL    HW334847   2.083   5.154   1.970 -0.5625  0.3758  0.8894
 8770SOL    MW434848   2.100   5.089   2.026 -0.1960 -0.1339  0.2080
 8771SOL     OW34849   4.047   1.670   5.413  0.6231 -0.4302  0.1444
 8771SOL    HW234850   4.094   1.640   5.335 -1.4316 -1.5694 -0.7166
 8771SOL    HW334851   4.111   1.661   5.484  2.0681 -0.7684 -1.1364
 8771SOL    MW434852   4.062   1.665   5.412  0.5427 -0.6252 -0.1382
 8772SOL     OW34853   0.106   2.354   4.594  0.1800  0.1530 -0.0009
 8772SOL    HW234854   0.176   2.299   4.630 -0.8774 -2.3312 -1.5204
 8772SOL    HW334855   0.033   2.342   4.655  0.4062  1.1390  0.4858
 8772SOL    MW434856   0.106   2.345   4.607  0.0703 -0.0447 -0.1372
 8773SOL     OW34857   2.628   2.468   2.089  0.4274 -0.2022  0.5423
 8773SOL    HW234858   2.692   2.501   2.026 -0.2687  0.1508  0.0151
 8773SOL    HW334859   2.586   2.394   2.044  0.3244 -0.3132  0.8160
 8773SOL    MW434860   2.631   2.462   2.075  0.3220 -0.1703  0.5089
 8774SOL     OW34861   3.270   4.232   4.681  0.3761  0.2127  0.4286
 8774SOL    HW234862   3.250   4.265   4.593  2.4420 -1.0436 -0.5859
 8774SOL    HW334863   3.236   4.142   4.681  1.2131 -0.1102  0.5650
 8774SOL    MW434864   3.263   4.224   4.669  0.7591  0.0043  0.3128
 8775SOL     OW34865   4.818   4.920   5.395 -0.1985 -0.5004  0.2472
 8775SOL    HW234866   4.850   5.010   5.401 -0.7859 -0.2133 -0.7190
 8775SOL    HW334867   4.727   4.925   5.426  0.4390 -1.2001  2.4245
 8775SOL    MW434868   4.810   4.932   5.400 -0.1919 -0.5548  0.4070
 8776SOL     OW34869   3.573   5.196   0.416 -0.4621 -0.2133 -0.2922
 8776SOL    HW234870   3.657   5.150   0.414 -0.3184 -0.1110  1.5294
 8776SOL    HW334871   3.594   5.283   0.449 -0.9907  0.6087 -2.0102
 8776SOL    MW434872   3.587   5.201   0.420 -0.5129 -0.0914 -0.2785
 8777SOL     OW34873   5.990   2.017   3.024  0.1706 -0.3595  0.2237
 8777SOL    HW234874   5.928   2.083   2.991 -1.5452 -2.0561 -0.1134
 8777SOL    HW334875   6.004   1.958   2.949  2.5486  0.1648  0.1769
 8777SOL    MW434876   5.984   2.018   3.009  0.2580 -0.5142  0.1731
 8778SOL     OW34877   0.243   0.912   5.646 -0.1616  0.3342  0.5079
 8778SOL    HW234878   0.285   0.945   5.566 -2.5362  1.8453 -0.2321
 8778SOL    HW334879   0.210   0.825   5.622  0.1411  0.2977  0.2160
 8778SOL    MW434880   0.244   0.905   5.632 -0.4350  0.5288  0.3718
 8779SOL     OW34881   6.193   2.871   0.938 -0.6562  0.0835 -0.6479
 8779SOL    HW234882   6.116   2.926   0.921 -0.2590  0.5097 -1.1097
 8779SOL    HW334883   6.266   2.922   0.904 -0.1866 -0.3901 -0.3553
 8779SOL    MW434884   6.192   2.885   0.931 -0.5419  0.0773 -0.6703
 8780SOL     OW34885   2.071   4.102   2.231  0.3431  0.6238 -0.4318
 8780SOL    HW234886   1.999   4.144   2.183  1.5678  1.1012 -1.9209
 8780SOL    HW334887   2.059   4.009   2.213 -0.4117  0.6134  0.0733
 8780SOL    MW434888   2.060   4.095   2.222  0.4051  0.6854 -0.5616
 8781SOL     OW34889   0.443   0.019   2.920  0.1014  0.6401 -0.2037
 8781SOL    HW234890   0.456   0.076   2.845  1.9398  1.4037  0.6072
 8781SOL    HW334891   0.384   0.067   2.978  1.4192  1.6571  0.3491
 8781SOL    MW434892   0.437   0.033   2.918  0.5178  0.8750 -0.0238
 8782SOL     OW34893   5.072   0.508   5.610 -0.0166 -0.5672  0.1400
 8782SOL    HW234894   5.031   0.594   5.612  0.0055 -0.3319 -3.1607
 8782SOL    HW334895   5.007   0.448   5.647  0.7354  0.9596  4.4600
 8782SOL    MW434896   5.058   0.511   5.615  0.0855 -0.3347  0.2745
 8783SOL     OW34897   3.786   5.438   5.850 -0.3003 -0.3110 -0.7471
 8783SOL    HW234898   3.836   5.448   5.931  1.0143 -0.1252 -1.5547
 8783SOL    HW334899   3.782   5.526   5.812 -1.0401 -0.3683 -0.8265
 8783SOL    MW434900   3.792   5.451   5.855 -0.2245 -0.2940 -0.8641
 8784SOL     OW34901   1.990   1.652   6.063  0.2959  0.3553 -0.3304
 8784SOL    HW234902   1.927   1.693   6.003 -0.5238  0.2413  0.4282
 8784SOL    HW334903   1.976   1.696   6.146  0.8047 -0.0880 -0.0029
 8784SOL    MW434904   1.980   1.663   6.066  0.2549  0.2818 -0.1871
 8785SOL     OW34905   2.708   2.301   3.560  0.8648  0.1552  0.6574
 8785SOL    HW234906   2.798   2.322   3.537  0.6591 -0.9234 -1.3093
 8785SOL    HW334907   2.656   2.370   3.518  0.7059  0.1770  0.8886
 8785SOL    MW434908   2.713   2.313   3.551  0.8167  0.0158  0.4284
 8786SOL     OW34909   1.861   4.931   0.813 -0.3279  0.7351  0.5591
 8786SOL    HW234910   1.856   5.026   0.821  2.7261  1.1077 -0.3870
 8786SOL    HW334911   1.940   4.907   0.862  0.1620 -0.9906 -0.9429
 8786SOL    MW434912   1.871   4.940   0.820  0.1397  0.5566  0.2361
 8787SOL     OW34913   0.857   0.758   5.830 -0.1339  0.2523 -0.2202
 8787SOL    HW234914   0.904   0.798   5.757 -1.2195  0.2994 -0.9227
 8787SOL    HW334915   0.869   0.819   5.903  0.6274  0.4098 -0.4755
 8787SOL    MW434916   0.864   0.771   5.830 -0.1767  0.2793 -0.3466
 8788SOL     OW34917   3.113   3.250   1.170  0.0449 -0.5610  0.3636
 8788SOL    HW234918   3.024   3.224   1.194  0.2694 -0.2279  1.6532
 8788SOL    HW334919   3.109   3.345   1.163  0.2068 -0.5803 -0.0256
 8788SOL    MW434920   3.101   3.259   1.172  0.0959 -0.5196  0.4824
 8789SOL     OW34921   4.978   5.584   6.005 -0.2674  0.4315 -0.2477
 8789SOL    HW234922   4.974   5.569   6.099  3.4951 -0.7032 -0.1162
 8789SOL    HW334923   5.025   5.667   5.996 -0.4469  0.4469 -1.1431
 8789SOL    MW434924   4.984   5.593   6.016  0.2053  0.2838 -0.3485
 8790SOL     OW34925   3.038   0.754   5.241  0.1604  0.2168  0.3270
 8790SOL    HW234926   3.053   0.848   5.248 -0.0094  0.3346 -0.6895
 8790SOL    HW334927   3.126   0.716   5.233  0.3763  0.0635  2.7055
 8790SOL    MW434928   3.052   0.762   5.241  0.1665  0.2121  0.5067
 8791SOL     OW34929   2.872   2.407   0.641  0.0017 -0.3461  0.6026
 8791SOL    HW234930   2.967   2.407   0.657 -0.1403 -1.0713  1.5539
 8791SOL    HW334931   2.835   2.448   0.719 -0.5919 -1.9500  1.1879
 8791SOL    MW434932   2.880   2.413   0.653 -0.0954 -0.6534  0.8053
 8792SOL     OW34933   4.467   3.249   0.800  0.0876  0.1198  0.4177
 8792SOL    HW234934   4.406   3.253   0.726 -0.0094  0.7481  0.5232
 8792SOL    HW334935   4.546   3.292   0.768  0.6537 -1.0790  0.1339
 8792SOL    MW434936   4.469   3.255   0.786  0.1495  0.0445  0.3942
 8793SOL     OW34937   6.357   1.605   3.946 -0.3334  0.4796 -0.3496
 8793SOL    HW234938   6.383   1.688   3.905  0.3978  0.7569  0.6121
 8793SOL    HW334939   6.377   1.618   4.039  2.5867 -1.7750 -0.5068
 8793SOL    MW434940   6.363   1.618   3.953  0.1483  0.2187 -0.2434
 8794SOL     OW34941   0.933   2.343   0.415  0.5592  0.1457  0.5074
 8794SOL    HW234942   0.859   2.355   0.356 -0.5972 -0.5297  1.7623
 8794SOL    HW334943   0.946   2.248   0.419  1.2850  0.2405  0.5581
 8794SOL    MW434944   0.925   2.332   0.408  0.5024  0.0691  0.6797
 8795SOL     OW34945   1.660   3.319   1.811  0.2542  0.0591  0.2250
 8795SOL    HW234946   1.641   3.290   1.900 -1.6462 -1.3975 -0.5927
 8795SOL    HW334947   1.733   3.265   1.783  0.7979  0.4556  0.8348
 8795SOL    MW434948   1.667   3.308   1.819  0.0752 -0.0807  0.1975
 8796SOL     OW34949   4.519   5.027   0.757  0.0346  0.2346 -0.1233
 8796SOL    HW234950   4.571   4.986   0.687 -0.6843  1.4229 -1.3998
 8796SOL    HW334951   4.429   5.005   0.734 -0.1613 -0.1915  1.0123
 8796SOL    MW434952   4.514   5.018   0.744 -0.0861  0.3351 -0.1419
 8797SOL     OW34953   3.837   1.358   6.349 -0.5836 -0.2921  0.1945
 8797SOL    HW234954   3.794   1.273   6.359 -2.1306  0.5053  0.7676
 8797SOL    HW334955   3.780   1.406   6.290 -0.1947  0.6331  0.5525
 8797SOL    MW434956   3.823   1.353   6.343 -0.7364 -0.0648  0.3174
 8798SOL     OW34957   2.085   3.827   3.260  0.1227 -0.5195 -0.1576
 8798SOL    HW234958   2.077   3.876   3.341 -1.4540 -1.2009  0.1260
 8798SOL    HW334959   2.178   3.806   3.254  0.2457 -0.5648  1.5418
 8798SOL    MW434960   2.096   3.830   3.270 -0.0691 -0.6154  0.1041
 8799SOL     OW34961   4.534   0.919   1.455 -0.1052 -0.6128 -0.1019
 8799SOL    HW234962   4.477   0.995   1.462  0.8190  0.0493  0.3235
 8799SOL    HW334963   4.534   0.898   1.361  1.2169  1.1643 -0.5556
 8799SOL    MW434964   4.527   0.926   1.443  0.1911 -0.2910 -0.1056
 8800SOL     OW34965   4.639   5.884   2.705 -0.2401  0.0070  1.0468
 8800SOL    HW234966   4.584   5.818   2.746 -1.3684  0.2972  0.0478
 8800SOL    HW334967   4.724   5.875   2.749 -0.7154 -1.2792  1.7576
 8800SOL    MW434968   4.643   5.874   2.716 -0.4516 -0.1244  1.0088
 8801SOL     OW34969   3.392   4.096   4.301 -0.2656  0.2601 -0.2224
 8801SOL    HW234970   3.338   4.098   4.222 -0.1485 -2.2716 -0.4519
 8801SOL    HW334971   3.482   4.106   4.268 -0.2512 -0.3458 -0.3813
 8801SOL    MW434972   3.397   4.098   4.286 -0.2483 -0.1538 -0.2736
 8802SOL     OW34973   0.206   4.041   4.778  0.3582 -0.7964  0.0008
 8802SOL    HW234974   0.164   3.987   4.844  0.4628  0.1572  0.8813
 8802SOL    HW334975   0.291   4.065   4.816 -0.7949  2.2880  0.9452
 8802SOL    MW434976   0.212   4.037   4.792  0.2198 -0.2637  0.2416
 8803SOL     OW34977   2.583   2.888   5.203  0.3335  0.1810 -0.1826
 8803SOL    HW234978   2.640   2.959   5.174  0.7464  0.3452  0.9821
 8803SOL    HW334979   2.561   2.910   5.294 -1.9101  0.3241 -0.6995
 8803SOL    MW434980   2.587   2.901   5.212  0.0919  0.2216 -0.0971
 8804SOL     OW34981   5.344   3.595   3.773  0.7948 -0.1872  0.1974
 8804SOL    HW234982   5.261   3.549   3.782  0.4458  0.1601 -1.0114
 8804SOL    HW334983   5.389   3.549   3.701  0.5881  1.0979 -0.7879
 8804SOL    MW434984   5.339   3.583   3.764  0.7215  0.0281 -0.0921
 8805SOL     OW34985   3.257   3.597   1.404 -0.3767  0.7481 -0.0758
 8805SOL    HW234986   3.205   3.646   1.468  0.3935 -0.0701  1.2165
 8805SOL    HW334987   3.326   3.556   1.455 -1.6027 -2.6009 -0.8699
 8805SOL    MW434988   3.259   3.598   1.419 -0.4369  0.1983 -0.0101
 8806SOL     OW34989   4.644   3.068   4.369  0.0391  0.0600  0.0854
 8806SOL    HW234990   4.691   3.149   4.389 -0.4731  0.3669  0.0735
 8806SOL    HW334991   4.704   3.018   4.315  0.1402  0.6928 -0.4051
 8806SOL    MW434992   4.658   3.072   4.365 -0.0152  0.1840  0.0191
 8807SOL     OW34993   1.464   4.681   0.426 -0.6461  0.1023  0.3419
 8807SOL    HW234994   1.510   4.603   0.397 -1.1789 -0.1911  0.2724
 8807SOL    HW334995   1.391   4.690   0.364 -0.1184  1.1264 -0.1654
 8807SOL    MW434996   1.460   4.672   0.414 -0.6468  0.1987  0.2658
 8808SOL     OW34997   3.761   3.257   0.621  1.1555  0.1579 -0.0592
 8808SOL    HW234998   3.767   3.217   0.708  1.5625 -0.0070 -0.1614
 8808SOL    HW334999   3.802   3.194   0.563 -1.6698 -1.1000 -0.8649
 8808SOL    MW435000   3.767   3.244   0.625  0.8364 -0.0298 -0.1790
 8809SOL     OW35001   2.432   1.490   4.776 -0.2014 -0.3698  0.5171
 8809SOL    HW235002   2.464   1.558   4.835 -0.5207 -1.0204  1.4653
 8809SOL    HW335003   2.337   1.489   4.789 -0.4738  0.5075 -1.1503
 8809SOL    MW435004   2.424   1.499   4.786 -0.2795 -0.3399  0.4222
 8810SOL     OW35005   6.130   1.905   0.329  0.3474 -0.4918 -0.3751
 8810SOL    HW235006   6.215   1.873   0.357  0.0131 -2.4872 -1.4743
 8810SOL    HW335007   6.110   1.976   0.390  2.3411 -0.6117  0.4947
 8810SOL    MW435008   6.138   1.910   0.340  0.5663 -0.7709 -0.4054
 8811SOL     OW35009   0.046   3.698   1.997  0.1876 -0.1406  0.1834
 8811SOL    HW235010   0.116   3.654   2.045 -0.4495 -1.3079  0.0831
 8811SOL    HW335011   0.002   3.628   1.949 -1.2714  0.4919  0.5349
 8811SOL    MW435012   0.049   3.683   1.997 -0.0890 -0.2111  0.2165
 8812SOL     OW35013   1.879   3.961   5.956  0.5343  0.1420  0.1446
 8812SOL    HW235014   1.824   3.998   6.025 -0.2534  1.3727 -1.0866
 8812SOL    HW335015   1.820   3.905   5.906  0.8102  0.1759 -0.2222
 8812SOL    MW435016   1.864   3.959   5.959  0.4667  0.3088 -0.0662
 8813SOL     OW35017   6.249   4.154   5.192  0.6617  0.0476 -0.3721
 8813SOL    HW235018   6.274   4.241   5.223 -0.4670  0.2486  0.0041
 8813SOL    HW335019   6.264   4.096   5.267 -0.4455  0.2556  0.0311
 8813SOL    MW435020   6.254   4.157   5.206  0.3667  0.1015 -0.2693
 8814SOL     OW35021   4.625   0.119   0.350 -0.2847  0.4125  0.0216
 8814SOL    HW235022   4.625   0.128   0.445 -1.8101 -2.0109  0.3204
 8814SOL    HW335023   4.548   0.168   0.321 -1.4338 -1.1472  0.3567
 8814SOL    MW435024   4.615   0.127   0.358 -0.6376 -0.1130  0.1052
 8815SOL     OW35025   1.753   4.757   1.172 -0.2073 -0.1032 -0.5404
 8815SOL    HW235026   1.726   4.736   1.083  0.6660 -0.1327 -0.8053
 8815SOL    HW335027   1.744   4.852   1.179  1.3268  0.1120 -1.2200
 8815SOL    MW435028   1.748   4.766   1.161  0.1104 -0.0787 -0.6650
 8816SOL     OW35029   3.831   4.370   0.088  1.0362 -0.1733 -0.0915
 8816SOL    HW235030   3.808   4.462   0.080 -0.1976 -0.5697 -1.6370
 8816SOL    HW335031   3.920   4.370   0.124 -0.0117  1.5220  2.7983
 8816SOL    MW435032   3.840   4.382   0.092  0.7351 -0.0020  0.0858
 8817SOL     OW35033   6.096   1.195   6.177  0.1160 -0.1632  0.1654
 8817SOL    HW235034   6.097   1.110   6.221  1.5043 -1.2729 -1.8328
 8817SOL    HW335035   6.179   1.236   6.201 -0.5303  0.6692  1.0903
 8817SOL    MW435036   6.107   1.189   6.186  0.2139 -0.1998  0.0238
 8818SOL     OW35037   2.435   2.402   5.191  0.1821  0.2253 -0.4431
 8818SOL    HW235038   2.425   2.497   5.203 -0.5351  0.3107 -1.5771
 8818SOL    HW335039   2.350   2.373   5.156 -0.2169 -1.1313  1.4982
 8818SOL    MW435040   2.422   2.411   5.188  0.0348  0.0576 -0.3366
 8819SOL     OW35041   1.588   4.263   0.377  0.0283 -0.0933  0.0342
 8819SOL    HW235042   1.508   4.221   0.409  0.2267 -0.6379 -0.1798
 8819SOL    HW335043   1.557   4.342   0.332 -0.3423  0.0028  0.4500
 8819SOL    MW435044   1.573   4.268   0.375  0.0056 -0.1525  0.0609
 8820SOL     OW35045   2.004   5.978   4.578  0.7297  0.5586 -0.5624
 8820SOL    HW235046   1.996   5.980   4.483  0.7091  2.9436 -0.5677
 8820SOL    HW335047   1.916   6.000   4.609  1.3665  2.6145 -0.0924
 8820SOL    MW435048   1.991   5.981   4.569  0.8110  1.1445 -0.5011
 8821SOL     OW35049   2.890   5.429   0.660  0.0830  0.7658 -0.2786
 8821SOL    HW235050   2.808   5.447   0.706 -0.5612  1.7836 -1.7584
 8821SOL    HW335051   2.950   5.497   0.691 -0.9756  2.7828 -2.4167
 8821SOL    MW435052   2.887   5.440   0.670 -0.1417  1.1662 -0.7560
 8822SOL     OW35053   4.392   1.382   3.399 -0.1323 -0.2960  0.0746
 8822SOL    HW235054   4.299   1.403   3.402 -0.5126 -1.9301  0.8580
 8822SOL    HW335055   4.408   1.357   3.308 -0.5861 -0.4564  0.0331
 8822SOL    MW435056   4.382   1.381   3.387 -0.2424 -0.5328  0.1725
 8823SOL     OW35057   2.145   5.694   4.951  0.6271  0.2655 -0.3226
 8823SOL    HW235058   2.234   5.705   4.917  0.5031 -2.4357 -1.8157
 8823SOL    HW335059   2.105   5.629   4.893 -1.3732 -0.7645  2.0290
 8823SOL    MW435060   2.152   5.687   4.939  0.3468 -0.2268 -0.2093
 8824SOL     OW35061   3.079   0.626   0.553  0.4220 -0.5508  0.4628
 8824SOL    HW235062   3.098   0.662   0.467  0.7540 -0.0634  0.7313
 8824SOL    HW335063   2.984   0.632   0.562  0.2749 -1.5090 -0.2526
 8824SOL    MW435064   3.069   0.632   0.543  0.4464 -0.6129  0.4038
 8825SOL     OW35065   0.915   2.696   5.472 -0.7321  0.2693 -0.0611
 8825SOL    HW235066   0.994   2.751   5.473 -0.9863  0.6358 -0.0788
 8825SOL    HW335067   0.934   2.626   5.535 -0.8564  1.0178  0.8381
 8825SOL    MW435068   0.928   2.694   5.481 -0.7820  0.4164  0.0552
 8826SOL     OW35069   3.581   4.532   6.278  0.2621 -0.0553 -0.0250
 8826SOL    HW235070   3.553   4.530   6.369  0.4813 -0.2893  0.0382
 8826SOL    HW335071   3.589   4.625   6.257 -0.2385  0.0080  0.0517
 8826SOL    MW435072   3.579   4.544   6.287  0.2250 -0.0778 -0.0065
 8827SOL     OW35073   5.450   1.040   2.408  0.2427 -0.5964  0.0928
 8827SOL    HW235074   5.475   0.951   2.388 -0.5593 -1.0189  0.8810
 8827SOL    HW335075   5.481   1.055   2.498  2.2904  0.6759 -0.7626
 8827SOL    MW435076   5.457   1.031   2.417  0.4071 -0.4843  0.0839
 8828SOL     OW35077   2.238   3.337   5.576 -0.2529  0.8854 -0.2097
 8828SOL    HW235078   2.325   3.356   5.541  0.0130  0.6209  0.2872
 8828SOL    HW335079   2.207   3.262   5.526 -0.8874  1.9755 -1.5017
 8828SOL    MW435080   2.246   3.330   5.565 -0.3016  0.9943 -0.3146
 8829SOL     OW35081   4.388   3.044   6.309  0.5813  0.4115  0.1655
 8829SOL    HW235082   4.387   3.093   6.227  1.1320 -0.6448 -0.4905
 8829SOL    HW335083   4.349   2.959   6.287 -1.9616  1.0729  1.6596
 8829SOL    MW435084   4.383   3.039   6.295  0.3185  0.3594  0.2761
 8830SOL     OW35085   4.228   2.344   1.015 -0.4500  0.4762 -0.0604
 8830SOL    HW235086   4.280   2.376   0.942  0.4446 -0.8437 -0.0355
 8830SOL    HW335087   4.263   2.257   1.033 -0.2907  0.9526  2.2711
 8830SOL    MW435088   4.240   2.337   1.008 -0.3110  0.3649  0.2505
 8831SOL     OW35089   0.133   4.802   3.316 -0.4117 -0.1614  0.6733
 8831SOL    HW235090   0.073   4.743   3.272  0.3322 -1.1549  0.9610
 8831SOL    HW335091   0.184   4.746   3.375  0.8036  0.6406  0.4342
 8831SOL    MW435092   0.132   4.787   3.318 -0.1532 -0.1866  0.6797
 8832SOL     OW35093   0.371   4.293   0.446 -0.1102  0.1175 -0.6058
 8832SOL    HW235094   0.337   4.265   0.531  2.2596 -0.9385  0.0518
 8832SOL    HW335095   0.379   4.388   0.454 -1.1532  0.1788 -0.1477
 8832SOL    MW435096   0.367   4.302   0.458  0.0648 -0.0138 -0.4586
 8833SOL     OW35097   1.232   5.501   2.968 -0.2958  0.4358  0.2862
 8833SOL    HW235098   1.266   5.575   2.918 -0.0393  0.5142  0.5743
 8833SOL    HW335099   1.311   5.459   3.005 -0.5843  1.4196  2.1090
 8833SOL    MW435100   1.247   5.505   2.966 -0.3000  0.5759  0.5647
 8834SOL     OW35101   1.673   1.343   3.116  0.4006  0.4454 -0.4368
 8834SOL    HW235102   1.729   1.317   3.190  1.9635  1.4042 -1.2249
 8834SOL    HW335103   1.588   1.362   3.156  1.1493  0.7570  1.1071
 8834SOL    MW435104   1.669   1.342   3.131  0.7056  0.6130 -0.3371
 8835SOL     OW35105   3.111   6.051   0.422  0.4956 -0.3117  0.2734
 8835SOL    HW235106   3.081   6.140   0.442  0.6220  0.4016 -2.3413
 8835SOL    HW335107   3.053   6.021   0.353  0.3150 -2.4134  1.2751
 8835SOL    MW435108   3.100   6.059   0.416  0.4884 -0.4949  0.0606
 8836SOL     OW35109   3.468   1.999   1.876  0.6497 -0.1712 -0.7036
 8836SOL    HW235110   3.524   2.048   1.936  0.1984 -0.9205  0.3618
 8836SOL    HW335111   3.505   1.911   1.876 -0.3777 -0.6072 -0.1853
 8836SOL    MW435112   3.481   1.994   1.884  0.4546 -0.3276 -0.4947
 8837SOL     OW35113   1.868   5.655   1.717  0.0825 -0.3630  0.1694
 8837SOL    HW235114   1.798   5.654   1.782  0.2672  0.4337  0.3950
 8837SOL    HW335115   1.833   5.709   1.645  0.0356 -0.8960 -0.2105
 8837SOL    MW435116   1.854   5.662   1.716  0.1007 -0.3282  0.1491
 8838SOL     OW35117   3.823   6.033   2.992  0.2428  0.3455  0.3253
 8838SOL    HW235118   3.831   5.938   2.984 -0.9102  0.2172  0.4368
 8838SOL    HW335119   3.810   6.063   2.903  0.0583  0.3337  0.3477
 8838SOL    MW435120   3.822   6.024   2.980  0.0663  0.3271  0.3430
 8839SOL     OW35121   1.688   2.750   5.958  0.0222 -0.0000 -0.9565
 8839SOL    HW235122   1.771   2.788   5.929 -0.0490 -0.3915 -1.7228
 8839SOL    HW335123   1.653   2.709   5.879  0.0600 -1.5735 -0.1919
 8839SOL    MW435124   1.694   2.749   5.944  0.0178 -0.2593 -0.9567
 8840SOL     OW35125   5.027   3.806   3.226  0.0888 -0.0186 -0.5456
 8840SOL    HW235126   4.932   3.809   3.223  0.1381  0.9001 -2.1174
 8840SOL    HW335127   5.053   3.781   3.138  1.2884 -1.9732  0.2788
 8840SOL    MW435128   5.018   3.803   3.214  0.2536 -0.1553 -0.6442
 8841SOL     OW35129   0.138   1.285   3.624  0.2058  0.0958  0.0743
 8841SOL    HW235130   0.074   1.229   3.581 -0.1136  1.7243 -1.6888
 8841SOL    HW335131   0.089   1.363   3.651  1.3823  1.3520 -1.2568
 8841SOL    MW435132   0.123   1.288   3.622  0.3189  0.4764 -0.3340
 8842SOL     OW35133   1.704   0.999   1.402 -0.0029  0.3783 -0.1495
 8842SOL    HW235134   1.717   0.947   1.323  0.3589  0.8365 -0.3995
 8842SOL    HW335135   1.643   1.068   1.376  0.0910  0.5093 -0.0240
 8842SOL    MW435136   1.698   1.001   1.388  0.0572  0.4560 -0.1659
 8843SOL     OW35137   1.544   1.563   1.352 -0.2666 -0.2952  0.4491
 8843SOL    HW235138   1.493   1.522   1.422 -1.0126 -0.3507 -0.1139
 8843SOL    HW335139   1.573   1.646   1.388 -2.9288  0.9355 -0.0403
 8843SOL    MW435140   1.541   1.568   1.366 -0.7163 -0.1401  0.3102
 8844SOL     OW35141   2.279   3.432   2.486 -0.6593  0.1167  0.1475
 8844SOL    HW235142   2.300   3.386   2.405  0.1736  0.9674 -0.1440
 8844SOL    HW335143   2.308   3.522   2.470  0.1531  0.1380  1.6468
 8844SOL    MW435144   2.285   3.438   2.473 -0.4422  0.2318  0.3069
 8845SOL     OW35145   0.975   3.541   1.928 -0.2395  0.0056  0.8975
 8845SOL    HW235146   0.905   3.526   1.991 -0.2666 -1.3813  0.5771
 8845SOL    HW335147   1.018   3.455   1.919 -1.2370 -0.3171 -2.1142
 8845SOL    MW435148   0.971   3.527   1.935 -0.3747 -0.2200  0.4579
 8846SOL     OW35149   1.947   0.110   4.766  0.0394 -0.1940  0.2475
 8846SOL    HW235150   1.994   0.041   4.812  0.6080 -0.1889 -0.3205
 8846SOL    HW335151   2.001   0.188   4.779  1.1947 -0.5482 -1.9227
 8846SOL    MW435152   1.960   0.111   4.774  0.2668 -0.2401 -0.1138
 8847SOL     OW35153   1.005   5.377   3.368 -0.0393 -0.3585 -0.7862
 8847SOL    HW235154   1.090   5.412   3.339  0.0478 -1.2057 -1.5802
 8847SOL    HW335155   0.991   5.417   3.454 -0.1992  2.0620 -1.8679
 8847SOL    MW435156   1.015   5.387   3.376 -0.0489 -0.1509 -1.0337
 8848SOL     OW35157   5.833   1.078   6.281  0.1670  0.1438 -0.4349
 8848SOL    HW235158   5.745   1.041   6.293  0.5413 -0.2942  1.2707
 8848SOL    HW335159   5.891   1.001   6.282  0.6275  0.4801 -0.9051
 8848SOL    MW435160   5.829   1.063   6.283  0.2771  0.1304 -0.2719
 8849SOL     OW35161   1.873   3.710   3.957 -0.5432  0.2962 -0.0174
 8849SOL    HW235162   1.783   3.728   3.985  0.1825  0.3379  2.5220
 8849SOL    HW335163   1.913   3.667   4.032  1.6043  0.3125 -1.0805
 8849SOL    MW435164   1.866   3.706   3.971 -0.1642  0.3038  0.1774
 8850SOL     OW35165   2.801   5.623   4.939 -0.5060 -0.4096 -0.5822
 8850SOL    HW235166   2.851   5.591   5.014 -1.2740 -1.9856 -0.7048
 8850SOL    HW335167   2.798   5.718   4.951 -0.4818 -0.6119  1.2894
 8850SOL    MW435168   2.808   5.632   4.950 -0.6041 -0.6442 -0.3515
 8851SOL     OW35169   0.004   3.806   5.998  0.0632  0.7592 -0.1519
 8851SOL    HW235170   0.037   3.807   6.087  0.1248  2.3441 -0.1687
 8851SOL    HW335171  -0.091   3.791   6.007  0.1703  0.2350  0.1246
 8851SOL    MW435172  -0.004   3.804   6.011  0.0854  0.8992 -0.1176
 8852SOL     OW35173   2.865   1.956   0.226 -0.2388  0.1609 -0.0133
 8852SOL    HW235174   2.844   2.032   0.171  1.0222  0.9135  0.5052
 8852SOL    HW335175   2.919   1.991   0.296 -1.5062 -0.8475  1.5318
 8852SOL    MW435176   2.869   1.971   0.228 -0.2396  0.1272  0.2589
 8853SOL     OW35177   2.827   5.446   2.667 -0.3210  0.6338  0.1906
 8853SOL    HW235178   2.879   5.501   2.609  1.5825  0.7325  1.8776
 8853SOL    HW335179   2.763   5.505   2.705 -0.7306  0.8418 -0.8051
 8853SOL    MW435180   2.826   5.461   2.664 -0.1239  0.6743  0.2818
 8854SOL     OW35181   0.096   5.291   1.782  0.1024  0.3113 -0.0866
 8854SOL    HW235182   0.045   5.318   1.706  0.9978  1.1222 -0.4128
 8854SOL    HW335183   0.035   5.239   1.834 -0.6965  0.2381 -1.0616
 8854SOL    MW435184   0.081   5.288   1.779  0.1151  0.4087 -0.2583
 8855SOL     OW35185   2.762   5.268   2.211  1.1370  0.1736 -0.6992
 8855SOL    HW235186   2.707   5.195   2.182  1.7838 -0.8607  0.5967
 8855SOL    HW335187   2.812   5.233   2.284  1.1334  2.0633  0.2564
 8855SOL    MW435188   2.761   5.254   2.216  1.2219  0.2865 -0.4021
 8856SOL     OW35189   3.419   2.039   0.394 -0.0261 -0.1464  0.5498
 8856SOL    HW235190   3.328   2.028   0.367  0.0914  0.7361 -0.2714
 8856SOL    HW335191   3.453   1.950   0.403 -0.4535 -0.4872 -0.9590
 8856SOL    MW435192   3.412   2.026   0.392 -0.0670 -0.0749  0.2424
 8857SOL     OW35193   0.096   6.000   5.839 -0.4415  0.3828  0.1198
 8857SOL    HW235194   0.027   6.023   5.901 -0.0169  2.4813 -0.1052
 8857SOL    HW335195   0.057   5.933   5.783 -1.5141 -0.0873  1.3834
 8857SOL    MW435196   0.082   5.994   5.840 -0.5270  0.5976  0.2568
 8858SOL     OW35197   6.241   4.777   5.895  0.0197  0.2585 -0.6185
 8858SOL    HW235198   6.150   4.750   5.878 -0.0155  0.9385 -1.5944
 8858SOL    HW335199   6.234   4.840   5.966 -0.4413  1.2997 -1.5577
 8858SOL    MW435200   6.228   4.781   5.902 -0.0458  0.4856 -0.8712
 8859SOL     OW35201   2.364   3.484   0.793 -0.3833  0.3629 -0.0981
 8859SOL    HW235202   2.320   3.470   0.877  1.5672  0.0865  0.9339
 8859SOL    HW335203   2.409   3.401   0.776  0.7252  1.0233 -0.4794
 8859SOL    MW435204   2.364   3.471   0.802  0.0203  0.4135 -0.0122
 8860SOL     OW35205   0.407   0.916   2.669  0.1105  0.1381 -0.4702
 8860SOL    HW235206   0.361   0.978   2.613  1.5212  2.5606  0.8892
 8860SOL    HW335207   0.338   0.875   2.721 -0.7786  1.7191 -0.3345
 8860SOL    MW435208   0.392   0.919   2.668  0.1793  0.6663 -0.2729
 8861SOL     OW35209   5.060   4.586   3.839 -0.2214  0.3336  0.1058
 8861SOL    HW235210   5.148   4.566   3.808 -1.0464  0.5765 -2.7036
 8861SOL    HW335211   5.022   4.640   3.769 -3.2571 -1.4305  0.2365
 8861SOL    MW435212   5.067   4.591   3.825 -0.7307  0.1329 -0.2476
 8862SOL     OW35213   0.750   0.926   0.151 -0.2764 -0.7153 -0.5841
 8862SOL    HW235214   0.752   0.854   0.088  1.5210 -3.3530  2.2116
 8862SOL    HW335215   0.840   0.959   0.152 -0.0176 -1.3709  1.1788
 8862SOL    MW435216   0.763   0.921   0.143 -0.0051 -1.1498  0.0173
 8863SOL     OW35217   0.556   3.759   1.621  0.3048 -0.1710 -0.2472
 8863SOL    HW235218   0.591   3.708   1.548 -0.7066 -0.9593 -0.2055
 8863SOL    HW335219   0.631   3.776   1.678  0.6462 -1.7081 -0.2088
 8863SOL    MW435220   0.571   3.755   1.619  0.2164 -0.4778 -0.2366
 8864SOL     OW35221   4.377   5.091   6.317  0.0142 -0.1314 -0.3644
 8864SOL    HW235222   4.301   5.041   6.347 -0.6661  0.4993 -1.0144
 8864SOL    HW335223   4.388   5.066   6.226 -0.2216  0.7513 -0.6448
 8864SOL    MW435224   4.368   5.081   6.309 -0.1067  0.0683 -0.4871
 8865SOL     OW35225   5.778   1.376   3.532  0.7103  0.4337 -0.1226
 8865SOL    HW235226   5.733   1.320   3.468 -1.6511  0.5791  1.2970
 8865SOL    HW335227   5.776   1.325   3.613  0.5692  1.6288  0.6416
 8865SOL    MW435228   5.772   1.362   3.534  0.3801  0.6106  0.1655
 8866SOL     OW35229   0.729   1.058   1.138 -0.5107 -0.2109  0.1107
 8866SOL    HW235230   0.795   1.127   1.128 -1.8747  1.2944  1.1071
 8866SOL    HW335231   0.666   1.074   1.068 -1.8673  0.8345  1.4907
 8866SOL    MW435232   0.730   1.069   1.127 -0.8697  0.1257  0.4243
 8867SOL     OW35233   1.830   2.903   4.895  0.0913  0.5957 -0.0670
 8867SOL    HW235234   1.761   2.919   4.830 -1.8979  0.1969  1.8359
 8867SOL    HW335235   1.896   2.852   4.848 -2.2905 -1.5851 -1.2533
 8867SOL    MW435236   1.830   2.898   4.880 -0.4854  0.2553  0.0275
 8868SOL     OW35237   0.330   5.871   2.006 -0.4045  0.4766 -0.3951
 8868SOL    HW235238   0.336   5.956   2.049 -0.4988  0.2255  0.1235
 8868SOL    HW335239   0.256   5.827   2.048 -1.0461  0.5527 -1.4155
 8868SOL    MW435240   0.321   5.876   2.017 -0.5016  0.4535 -0.4613
 8869SOL     OW35241   0.132   0.584   4.082  0.1050 -0.0051  0.6818
 8869SOL    HW235242   0.069   0.654   4.100  0.6814  0.5686  0.4938
 8869SOL    HW335243   0.103   0.512   4.138 -0.6367  0.2953  0.7016
 8869SOL    MW435244   0.120   0.584   4.092  0.0832  0.1102  0.6596
 8870SOL     OW35245   3.693   0.851   0.662 -0.9344  0.1243  0.7820
 8870SOL    HW235246   3.665   0.941   0.642 -1.4701  0.5294  3.0882
 8870SOL    HW335247   3.643   0.797   0.601  0.6471  1.4267 -1.8349
 8870SOL    MW435248   3.682   0.856   0.651 -0.7964  0.3496  0.7410
 8871SOL     OW35249   4.107   6.378   5.680 -0.3415  0.2654  0.2270
 8871SOL    HW235250   4.172   6.448   5.674 -0.6480  0.5166 -0.2310
 8871SOL    HW335251   4.048   6.394   5.606 -0.7745 -0.1086  0.4873
 8871SOL    MW435252   4.108   6.390   5.670 -0.4391  0.2492  0.2009
 8872SOL     OW35253   0.224   1.286   1.758  0.1693  0.4938 -0.3985
 8872SOL    HW235254   0.233   1.243   1.673 -0.6897 -0.0136 -0.2478
 8872SOL    HW335255   0.288   1.244   1.814 -1.0665 -1.0663 -0.0818
 8872SOL    MW435256   0.233   1.275   1.754 -0.1071  0.2210 -0.3368
 8873SOL     OW35257   1.977   3.025   0.360  0.0106 -0.1213 -0.1261
 8873SOL    HW235258   2.023   3.091   0.411 -1.0323 -1.2098  2.4285
 8873SOL    HW335259   2.043   2.991   0.299  1.5269  0.8635  0.9002
 8873SOL    MW435260   1.992   3.029   0.358  0.0730 -0.1350  0.3463
 8874SOL     OW35261   0.612   4.180   2.675  0.2820 -0.7353 -0.9235
 8874SOL    HW235262   0.539   4.154   2.731  1.2076  1.3986  1.4909
 8874SOL    HW335263   0.578   4.251   2.621  0.6994  1.1175  1.0611
 8874SOL    MW435264   0.598   4.186   2.676  0.4592 -0.2093 -0.3431
 8875SOL     OW35265   4.519   0.198   2.627  0.3175 -0.3302  0.2680
 8875SOL    HW235266   4.515   0.270   2.565  0.3941  0.8444  1.5601
 8875SOL    HW335267   4.537   0.240   2.711  0.3413 -1.8618  1.0733
 8875SOL    MW435268   4.521   0.213   2.630  0.3307 -0.3773  0.5447
 8876SOL     OW35269   5.345   4.956   2.034 -0.1437  0.5826 -0.2511
 8876SOL    HW235270   5.396   4.942   2.114 -1.7718 -0.8434  0.6246
 8876SOL    HW335271   5.410   4.982   1.968  1.6636 -0.8299  0.8587
 8876SOL    MW435272   5.360   4.957   2.036 -0.1201  0.2081  0.0109
 8877SOL     OW35273   1.974   2.682   6.363  0.4988 -0.3389 -0.6687
 8877SOL    HW235274   1.904   2.688   6.428  0.8344  0.8448 -0.3990
 8877SOL    HW335275   2.010   2.594   6.375 -0.3023 -0.6158 -0.1637
 8877SOL    MW435276   1.969   2.671   6.373  0.4374 -0.2193 -0.5665
 8878SOL     OW35277   2.129   5.394   2.614 -0.1902 -0.0252  0.1701
 8878SOL    HW235278   2.063   5.461   2.635  0.6794  1.1843 -0.8402
 8878SOL    HW335279   2.150   5.409   2.522 -0.0244 -1.7602 -0.0917
 8878SOL    MW435280   2.123   5.405   2.605 -0.0536 -0.0945  0.0023
 8879SOL     OW35281   5.825   2.278   6.271 -0.3779 -0.6064 -0.3525
 8879SOL    HW235282   5.752   2.291   6.211 -0.3126  1.8932  0.0196
 8879SOL    HW335283   5.861   2.365   6.285  0.9736 -1.4077  1.6377
 8879SOL    MW435284   5.820   2.291   6.265 -0.1909 -0.3823 -0.0408
 8880SOL     OW35285   2.867   0.712   4.861  0.1877  0.2302  0.6871
 8880SOL    HW235286   2.927   0.642   4.885 -0.1417 -0.0395  0.7219
 8880SOL    HW335287   2.811   0.722   4.938  0.5164  0.8367  0.8584
 8880SOL    MW435288   2.868   0.704   4.875  0.1876  0.2746  0.7143
 8881SOL     OW35289   2.376   5.962   1.902  0.4515  0.3264  0.8170
 8881SOL    HW235290   2.382   5.963   1.998  0.9216 -1.1218  0.8260
 8881SOL    HW335291   2.418   5.879   1.876 -1.8928 -0.5641 -0.4671
 8881SOL    MW435292   2.383   5.951   1.912  0.2042  0.0178  0.6488
 8882SOL     OW35293   5.850   0.574   1.506 -0.1576 -0.5807 -0.2647
 8882SOL    HW235294   5.944   0.559   1.513  0.3837  2.0478 -0.7432
 8882SOL    HW335295   5.819   0.576   1.596  0.8407  1.4465  0.0936
 8882SOL    MW435296   5.858   0.572   1.519  0.0456  0.0335 -0.2806
 8883SOL     OW35297   3.701   4.476   3.366 -0.3794  0.4749 -0.0217
 8883SOL    HW235298   3.702   4.420   3.443  0.5110  1.9433  1.0791
 8883SOL    HW335299   3.689   4.416   3.293 -1.0331 -0.9722  1.2339
 8883SOL    MW435300   3.700   4.461   3.366 -0.3481  0.4777  0.2892
 8884SOL     OW35301   3.296   3.317   2.055 -0.1864  0.2370  0.3050
 8884SOL    HW235302   3.201   3.320   2.045 -0.1472 -1.3562 -0.9983
 8884SOL    HW335303   3.316   3.386   2.118 -1.9761  2.0512 -0.9743
 8884SOL    MW435304   3.286   3.327   2.062 -0.4174  0.2661 -0.0357
 8885SOL     OW35305   2.134   4.964   2.898 -0.2322 -0.4519 -0.3496
 8885SOL    HW235306   2.072   5.010   2.841 -0.4427 -0.1743  0.0952
 8885SOL    HW335307   2.190   5.034   2.932 -1.4876 -0.2738  1.5152
 8885SOL    MW435308   2.133   4.979   2.895 -0.4256 -0.3918 -0.0449
 8886NA      NA35309   2.841   5.443   4.392 -0.1237  0.0932  0.2677
 8887NA      NA35310   0.072   3.649   0.800 -0.4307 -0.0598  0.5129
 8888NA      NA35311   5.908   1.022   5.876  0.4004  0.1956 -0.4403
 8889NA      NA35312   4.937   0.194   1.340  0.0738  0.1238 -0.2911
 8890NA      NA35313   4.925   5.878   0.445 -0.1723 -0.1358  0.0572
 8891NA      NA35314   0.816   4.132   0.356  0.3306 -0.1445 -0.3100
 8892NA      NA35315   0.540   1.040   0.263 -0.4541 -0.0267 -0.4489
   6.42920   6.42920   6.42920
